/*--------------------------------*- C++ -*----------------------------------*\
| =========                 |                                                 |
| \\      /  F ield         | OpenFOAM: The Open Source CFD Toolbox           |
|  \\    /   O peration     | Version:  2112                                  |
|   \\  /    A nd           | Website:  www.openfoam.com                      |
|    \\/     M anipulation  |                                                 |
\*---------------------------------------------------------------------------*/
FoamFile
{
    version     2.0;
    format      ascii;
    arch        "LSB;label=32;scalar=64";
    class       volScalarField;
    location    "53.5";
    object      p;
}
// * * * * * * * * * * * * * * * * * * * * * * * * * * * * * * * * * * * * * //

dimensions      [0 2 -2 0 0 0 0];

internalField   nonuniform List<scalar> 
8800
(
0.818712
0.770925
0.732235
0.703239
0.682375
0.667543
0.656947
0.649466
0.644647
0.642591
0.643861
0.648052
0.654698
0.664014
0.676793
0.694527
0.719304
0.753244
0.795794
0.854496
0.649964
0.657642
0.665117
0.668424
0.66692
0.661842
0.655354
0.649276
0.644552
0.64171
0.641432
0.643939
0.648428
0.654373
0.661142
0.667422
0.671062
0.670326
0.664905
0.656214
0.628371
0.63453
0.638656
0.641599
0.643647
0.64425
0.643142
0.641036
0.63902
0.638114
0.639077
0.641459
0.644258
0.646438
0.647044
0.645844
0.643501
0.640107
0.635549
0.631788
0.622569
0.625219
0.627969
0.63037
0.632002
0.633161
0.633901
0.634016
0.633721
0.633672
0.634425
0.635595
0.636433
0.636496
0.635885
0.634792
0.632974
0.630402
0.627998
0.626494
0.617198
0.618623
0.6204
0.622429
0.62421
0.625548
0.626533
0.627328
0.627941
0.628506
0.629157
0.629651
0.629748
0.629457
0.628757
0.627506
0.625808
0.623958
0.622649
0.621818
0.612136
0.613056
0.614294
0.615857
0.617485
0.619005
0.620286
0.621349
0.622311
0.623204
0.623892
0.624217
0.62417
0.623725
0.62284
0.621636
0.620305
0.619042
0.618218
0.617667
0.607246
0.607916
0.608875
0.610173
0.611576
0.613028
0.614461
0.615778
0.616972
0.618076
0.618895
0.619257
0.619166
0.618649
0.617836
0.616883
0.615865
0.614937
0.61435
0.613945
0.602484
0.603
0.603781
0.604905
0.606176
0.607542
0.608979
0.610443
0.611865
0.613195
0.614195
0.614657
0.61462
0.614224
0.613611
0.612877
0.612096
0.611407
0.610971
0.610655
0.597779
0.59819
0.598842
0.599841
0.601039
0.602356
0.60379
0.605335
0.606946
0.608534
0.609768
0.610411
0.610559
0.610373
0.609976
0.609448
0.608867
0.608367
0.608042
0.607785
0.593046
0.593381
0.593944
0.594863
0.59601
0.59731
0.598776
0.600414
0.602205
0.604072
0.605611
0.606535
0.606948
0.607005
0.606829
0.606517
0.606125
0.605782
0.605541
0.605325
0.588199
0.588476
0.588977
0.58985
0.590976
0.592298
0.593834
0.595605
0.597616
0.599804
0.601729
0.603018
0.603748
0.604082
0.604147
0.604049
0.603843
0.603637
0.603463
0.603277
0.58315
0.583383
0.583845
0.584701
0.585847
0.587234
0.588881
0.590838
0.593132
0.59572
0.598118
0.599843
0.600946
0.601595
0.601927
0.602052
0.602029
0.601948
0.601829
0.601664
0.577812
0.57801
0.578452
0.57932
0.580528
0.582023
0.583836
0.586046
0.588702
0.591795
0.594766
0.597011
0.598546
0.599554
0.600183
0.600539
0.600717
0.600752
0.600679
0.600529
0.572086
0.572255
0.572694
0.573604
0.574914
0.576569
0.578614
0.581158
0.584277
0.587997
0.591665
0.594528
0.59657
0.597988
0.598956
0.599592
0.599962
0.600107
0.600074
0.599933
0.565858
0.566003
0.566455
0.567436
0.568895
0.570768
0.573123
0.576091
0.579794
0.584286
0.588798
0.592401
0.595047
0.596946
0.598296
0.599233
0.599824
0.600085
0.600089
0.599954
0.558995
0.559115
0.559594
0.560678
0.562337
0.5645
0.56725
0.57076
0.575189
0.580625
0.58616
0.590653
0.594013
0.596482
0.598281
0.599559
0.600398
0.600779
0.600816
0.600683
0.551326
0.551421
0.551942
0.553165
0.555082
0.557612
0.560869
0.565064
0.570397
0.576991
0.583764
0.589317
0.593521
0.596658
0.598995
0.600679
0.601788
0.602293
0.602363
0.602227
0.542621
0.542721
0.543295
0.544675
0.546922
0.54993
0.553834
0.55889
0.565349
0.573365
0.581626
0.588441
0.593639
0.597561
0.600534
0.602684
0.604105
0.604744
0.604844
0.604703
0.532587
0.532668
0.533331
0.534934
0.537612
0.541233
0.545958
0.5521
0.559963
0.569719
0.579768
0.58807
0.594442
0.599288
0.602994
0.6057
0.607469
0.608251
0.608381
0.608231
0.520856
0.52092
0.521682
0.523597
0.52683
0.53124
0.537015
0.544533
0.55414
0.566016
0.578206
0.588266
0.596012
0.601942
0.606499
0.609849
0.612007
0.612937
0.613092
0.612929
0.506893
0.506946
0.50785
0.510176
0.514139
0.519588
0.526734
0.536025
0.547829
0.562298
0.577023
0.589123
0.598442
0.605619
0.611165
0.615246
0.617825
0.618904
0.619077
0.618898
0.489936
0.489976
0.491096
0.494005
0.498972
0.505827
0.514802
0.5264
0.540975
0.558591
0.576291
0.590735
0.601838
0.610432
0.617083
0.621985
0.625005
0.626221
0.626403
0.626204
0.468866
0.468905
0.470364
0.474142
0.480552
0.489386
0.500871
0.515519
0.53359
0.554992
0.576124
0.593199
0.606298
0.616462
0.624324
0.630122
0.633575
0.634902
0.635077
0.634856
0.441951
0.442008
0.444048
0.449233
0.457875
0.469619
0.484634
0.503332
0.525769
0.551652
0.576678
0.596638
0.611899
0.623777
0.632938
0.639651
0.643486
0.644871
0.645019
0.644774
0.406179
0.406332
0.409568
0.417352
0.429768
0.445953
0.466009
0.490041
0.517847
0.548914
0.578209
0.601225
0.618735
0.632386
0.642929
0.650488
0.654586
0.655946
0.656039
0.655773
0.355809
0.356767
0.363203
0.376319
0.395296
0.418346
0.445343
0.476097
0.51021
0.547032
0.580867
0.607045
0.626844
0.642265
0.654161
0.662419
0.666598
0.667827
0.667843
0.66756
0.281973
0.289149
0.304049
0.32714
0.355913
0.388154
0.423645
0.462164
0.503316
0.546429
0.585155
0.614751
0.637062
0.654458
0.667798
0.676694
0.68089
0.681982
0.681946
0.681697
0.202473
0.219502
0.24367
0.277405
0.316358
0.357948
0.402027
0.448528
0.497143
0.547281
0.591899
0.625851
0.651374
0.671237
0.686414
0.695892
0.699855
0.70071
0.700696
0.700549
0.136243
0.156327
0.188173
0.23092
0.27887
0.329264
0.381662
0.435994
0.49194
0.548916
0.599164
0.637189
0.665719
0.687763
0.704176
0.713812
0.717568
0.718364
0.71843
0.718352
0.0819981
0.103733
0.141075
0.190222
0.245279
0.303098
0.362874
0.424406
0.487242
0.550723
0.606315
0.648149
0.67937
0.703277
0.720813
0.730878
0.734891
0.735758
0.735808
0.735756
0.0367894
0.0597159
0.100845
0.155076
0.215853
0.279802
0.345903
0.413822
0.482959
0.55252
0.613155
0.658584
0.692365
0.718128
0.736859
0.747735
0.752055
0.752883
0.752986
0.752968
-0.0016321
0.0219762
0.0659609
0.124239
0.189819
0.258983
0.330581
0.404183
0.479057
0.554259
0.619631
0.668458
0.704671
0.732235
0.752155
0.763805
0.768485
0.769416
0.769553
0.769566
-0.0352728
-0.0112047
0.0350548
0.0966511
0.166293
0.23999
0.31646
0.395179
0.475313
0.555771
0.625603
0.677633
0.716129
0.745341
0.766343
0.778667
0.783752
0.784889
0.785073
0.785096
-0.0656094
-0.0411333
0.00698744
0.0714179
0.14456
0.222224
0.303055
0.386437
0.471445
0.556855
0.630922
0.685966
0.726567
0.7572
0.779176
0.792108
0.797526
0.798891
0.79909
0.799111
-0.0935893
-0.0687377
-0.0190181
0.0478418
0.124065
0.20524
0.289991
0.377644
0.467209
0.557324
0.635454
0.693378
0.735932
0.767878
0.790627
0.803987
0.809662
0.811181
0.8114
0.811409
-0.120001
-0.0947281
-0.0435092
0.025433
0.104395
0.188702
0.276993
0.368572
0.462405
0.557026
0.639126
0.699873
0.744286
0.777413
0.800755
0.814446
0.820294
0.821916
0.822133
0.822118
-0.145203
-0.119494
-0.0670946
0.0038758
0.0852571
0.172372
0.263869
0.35906
0.456905
0.555877
0.641913
0.705494
0.751753
0.785987
0.80991
0.823744
0.829641
0.831321
0.831506
0.83146
-0.169598
-0.143324
-0.0898755
-0.0170823
0.0664569
0.15609
0.250497
0.34901
0.450618
0.5538
0.643791
0.710284
0.758441
0.793794
0.818184
0.832075
0.837984
0.839626
0.839802
0.839731
-0.193316
-0.166617
-0.111987
-0.0375929
0.0478782
0.139769
0.236804
0.338366
0.443493
0.550747
0.644741
0.714289
0.764478
0.801001
0.825777
0.839626
0.845459
0.84703
0.847165
0.847071
-0.216475
-0.189239
-0.133574
-0.0577333
0.0294704
0.123375
0.222769
0.327102
0.435502
0.546679
0.644721
0.717529
0.769971
0.807743
0.83283
0.846548
0.852205
0.853661
0.853728
0.853598
-0.239197
-0.211372
-0.154705
-0.0775321
0.0112099
0.10691
0.208412
0.315244
0.426653
0.541564
0.643675
0.719993
0.775001
0.814158
0.839489
0.85294
0.858278
0.85954
0.859531
0.859375
-0.261491
-0.232994
-0.175389
-0.0969892
-0.00687067
0.0904036
0.193777
0.302834
0.416971
0.535377
0.64154
0.721635
0.779597
0.820378
0.845936
0.858922
0.863745
0.864734
0.864652
0.864483
-0.283201
-0.254069
-0.195566
-0.116075
-0.0247381
0.0739235
0.178924
0.289945
0.406515
0.528141
0.638251
0.722374
0.783717
0.826532
0.852464
0.864757
0.868731
0.869301
0.869136
0.868968
-0.304304
-0.274568
-0.215221
-0.134741
-0.042334
0.0575281
0.163944
0.276656
0.395363
0.519882
0.633761
0.722079
0.787253
0.832682
0.859455
0.870953
0.873562
0.873333
0.873023
0.8729
-0.324866
-0.294455
-0.234326
-0.152955
-0.0595957
0.0412998
0.148924
0.26307
0.383607
0.510665
0.62803
0.720601
0.789998
0.838718
0.867231
0.878374
0.87916
0.877254
0.876444
0.876582
-0.344713
-0.313706
-0.252824
-0.170652
-0.0764649
0.0253215
0.133958
0.249298
0.371363
0.500585
0.62105
0.717771
0.791664
0.844277
0.875722
0.887984
0.887558
0.883152
0.880318
0.879773
-0.363943
-0.332311
-0.270733
-0.187862
-0.092974
0.00955024
0.118992
0.235283
0.358564
0.489573
0.612691
0.713311
0.791933
0.848817
0.884215
0.899971
0.901078
0.895097
0.886646
0.872339
-0.382477
-0.350257
-0.288171
-0.204782
-0.109407
-0.00634343
0.103614
0.220547
0.344679
0.476996
0.602306
0.706432
0.79021
0.851553
0.890875
0.911887
0.915351
0.903276
0.883813
0.871624
-0.400141
-0.367675
-0.304941
-0.221202
-0.125423
-0.0220167
0.0880487
0.205415
0.330013
0.463118
0.589973
0.696675
0.785723
0.85136
0.891365
0.91219
0.918722
0.896058
0.828164
0.79758
-0.416265
-0.385803
-0.32071
-0.236601
-0.140255
-0.0369683
0.072607
0.190113
0.314782
0.44806
0.575632
0.683747
0.777125
0.847606
0.88085
0.895872
0.886868
0.833415
0.764335
0.721795
-0.472232
-0.401786
-0.335065
-0.252075
-0.155495
-0.0526468
0.0572243
0.174362
0.29862
0.431376
0.558688
0.667037
0.760656
0.837701
0.843604
0.847602
0.799665
0.73031
0.653954
0.611437
-0.433358
-0.417238
-0.356481
-0.272798
-0.177922
-0.0751768
0.0336666
0.150122
0.273327
0.404559
0.52975
0.636101
0.721604
0.802553
0.790608
0.679022
0.574829
0.502315
0.429266
0.46036
-0.464544
-0.43501
-0.37328
-0.29038
-0.195507
-0.0929405
0.0161542
0.131953
0.254062
0.383449
0.505798
0.607781
0.684563
0.727012
0.679343
0.531856
0.404882
0.314094
0.215658
0.266248
-0.488559
-0.456073
-0.393057
-0.309959
-0.214995
-0.112533
-0.00352629
0.111427
0.232118
0.359086
0.4777
0.573523
0.641135
0.649888
0.544231
0.372255
0.220243
0.101985
-0.0287625
0.00436229
-0.512077
-0.478022
-0.413796
-0.329779
-0.234693
-0.13237
-0.023882
0.0901032
0.209194
0.333379
0.447352
0.535632
0.587824
0.565663
0.407936
0.212396
0.0226355
-0.144811
-0.333042
-0.350972
-0.534987
-0.500465
-0.435325
-0.350524
-0.255255
-0.153136
-0.0452893
0.0676109
0.18485
0.305879
0.414527
0.495162
0.528466
0.470264
0.278421
0.0685803
-0.148202
-0.337118
-0.578895
-0.877136
-0.558184
-0.523647
-0.457942
-0.372631
-0.277149
-0.17518
-0.0678997
0.0438875
0.159181
0.276819
0.379849
0.45225
0.465032
0.355843
0.165795
-0.04349
-0.247346
-0.41935
-0.488361
-0.567719
-0.582622
-0.548016
-0.481994
-0.396427
-0.30087
-0.199141
-0.092517
0.0179906
0.131033
0.244774
0.341827
0.403371
0.391473
0.248656
0.0657672
-0.124606
-0.28696
-0.379564
-0.403608
-0.419561
-0.608611
-0.57388
-0.507653
-0.421995
-0.326548
-0.225228
-0.119497
-0.0105653
0.0998214
0.209042
0.299633
0.347314
0.3179
0.149255
-0.0248448
-0.190206
-0.316352
-0.355354
-0.368241
-0.369551
-0.636352
-0.601413
-0.534978
-0.449325
-0.354127
-0.253441
-0.148853
-0.0418263
0.0654807
0.169625
0.25287
0.286403
0.237691
0.0574356
-0.107638
-0.255715
-0.331708
-0.348913
-0.350205
-0.349995
-0.665903
-0.630668
-0.563986
-0.478407
-0.383616
-0.283763
-0.180586
-0.0758049
0.0280212
0.126592
0.201607
0.22354
0.138985
-0.0264958
-0.183326
-0.305409
-0.342236
-0.340515
-0.339478
-0.338854
-0.69697
-0.661465
-0.594566
-0.509145
-0.41492
-0.316131
-0.214658
-0.112472
-0.0125243
0.0800405
0.146694
0.151969
0.048808
-0.104807
-0.24346
-0.318419
-0.329125
-0.332149
-0.332981
-0.332653
-0.728983
-0.693331
-0.626452
-0.541302
-0.447841
-0.35038
-0.250909
-0.151693
-0.0559916
0.0303113
0.0884963
0.0791235
-0.0323754
-0.171723
-0.287441
-0.319005
-0.327295
-0.329108
-0.329057
-0.328791
-0.761467
-0.725713
-0.659174
-0.574466
-0.48202
-0.386174
-0.289053
-0.193181
-0.102118
-0.0219414
0.0259646
0.0103897
-0.106721
-0.227452
-0.31954
-0.333713
-0.327125
-0.326197
-0.326136
-0.32598
-0.793523
-0.757881
-0.69184
-0.608019
-0.516895
-0.423025
-0.328629
-0.23646
-0.150445
-0.0762237
-0.0379744
-0.0527666
-0.170545
-0.27403
-0.32609
-0.335224
-0.329748
-0.326043
-0.324594
-0.324156
-0.823508
-0.788619
-0.723472
-0.641013
-0.551674
-0.460205
-0.368959
-0.280855
-0.200168
-0.132002
-0.0964798
-0.123545
-0.218471
-0.312917
-0.329459
-0.336619
-0.3321
-0.326008
-0.323588
-0.322537
-0.849847
-0.81603
-0.752914
-0.672242
-0.585284
-0.49674
-0.409146
-0.325499
-0.250223
-0.188581
-0.15302
-0.192729
-0.253992
-0.310101
-0.362556
-0.345642
-0.335728
-0.332198
-0.331031
-0.3301
-0.87036
-0.83832
-0.777996
-0.700246
-0.616382
-0.531429
-0.448038
-0.369297
-0.299583
-0.244782
-0.212174
-0.254967
-0.279108
-0.269514
-0.318139
-0.341459
-0.363278
-0.373416
-0.37423
-0.37261
-0.882783
-0.853485
-0.796873
-0.723077
-0.64339
-0.562851
-0.484312
-0.410909
-0.347142
-0.299582
-0.270437
-0.328502
-0.338697
-0.253549
-0.283466
-0.385654
-0.442423
-0.458862
-0.457183
-0.457031
-0.88441
-0.859214
-0.807491
-0.738855
-0.664515
-0.589432
-0.516412
-0.448784
-0.391386
-0.351458
-0.323732
-0.425296
-0.56763
-0.604034
-0.568439
-0.549639
-0.533205
-0.519272
-0.512328
-0.511874
-0.873099
-0.852778
-0.807612
-0.74589
-0.678153
-0.609511
-0.542693
-0.481071
-0.43018
-0.398016
-0.38057
-0.517863
-0.781784
-1.17343
-1.05464
-0.741298
-0.583692
-0.529173
-0.512117
-0.50697
-0.846735
-0.831369
-0.795415
-0.742872
-0.683183
-0.621851
-0.561593
-0.50573
-0.460214
-0.433013
-0.422761
-0.483456
-0.582495
-0.786263
-0.745718
-0.512663
-0.388162
-0.347994
-0.339044
-0.334122
-0.807634
-0.797676
-0.771498
-0.729888
-0.679482
-0.626026
-0.572092
-0.521185
-0.478292
-0.452094
-0.42795
-0.287695
0.00145466
0.281287
0.242956
0.0689693
-0.085329
-0.140582
-0.150764
-0.150597
-0.762242
-0.756602
-0.740582
-0.709603
-0.668932
-0.622796
-0.574519
-0.526604
-0.483868
-0.453036
-0.425075
-0.232764
0.105609
0.529837
0.486277
0.184611
-0.031017
-0.124327
-0.161093
-0.17757
-0.720058
-0.716683
-0.708743
-0.687447
-0.654611
-0.614474
-0.57027
-0.523803
-0.478068
-0.443147
-0.424823
-0.419887
-0.622512
-1.05364
-1.53083
-1.8676
-1.88877
-1.69083
-1.38569
-1.27036
-0.688209
-0.686022
-0.681999
-0.668294
-0.641282
-0.604594
-0.561922
-0.513852
-0.463303
-0.416057
-0.390805
-0.527251
-1.08422
-1.88878
-2.40122
-2.40359
-2.13049
-1.77078
-1.46979
-1.36425
-0.663277
-0.662409
-0.661121
-0.653979
-0.631985
-0.59675
-0.552301
-0.500426
-0.441466
-0.370286
-0.306865
-0.285625
-0.407214
-0.44961
-0.410381
-0.225592
0.0824022
0.324236
0.47467
0.531741
-0.648037
-0.64768
-0.647191
-0.644056
-0.62705
-0.591497
-0.543308
-0.48594
-0.416054
-0.332597
-0.232666
-0.102719
0.0624708
0.37918
0.79755
1.23478
1.58893
1.79342
1.88139
1.90425
-0.637286
-0.637078
-0.636592
-0.635949
-0.624118
-0.588795
-0.537074
-0.47314
-0.395801
-0.297223
-0.172267
-0.0430841
0.209566
0.678176
1.21214
1.69018
2.03538
2.21763
2.28568
2.29954
-0.629375
-0.629525
-0.629762
-0.629846
-0.62109
-0.588202
-0.534662
-0.465619
-0.379228
-0.270135
-0.146494
-0.0149276
0.192983
0.63945
1.11085
1.53149
1.8186
1.96515
2.01714
2.02763
-0.623151
-0.622839
-0.621345
-0.618758
-0.61361
-0.589583
-0.538915
-0.465204
-0.372243
-0.262668
-0.143168
-0.0204421
0.132544
0.484706
0.851274
1.16012
1.37371
1.4817
1.52068
1.52927
-0.633461
-0.629681
-0.617463
-0.603257
-0.603998
-0.601712
-0.553876
-0.471975
-0.37267
-0.262003
-0.152099
-0.043043
0.0719209
0.321197
0.582989
0.791219
0.935884
1.00861
1.03635
1.0429
-0.689299
-0.684697
-0.677212
-0.675714
-0.679001
-0.663107
-0.586487
-0.483805
-0.374035
-0.262998
-0.164033
-0.0751291
0.0142173
0.183429
0.359741
0.495643
0.587987
0.635283
0.65504
0.660526
-0.789333
-0.798303
-0.824281
-0.841199
-0.832034
-0.76403
-0.628694
-0.491375
-0.369873
-0.262586
-0.180232
-0.114354
-0.0525556
0.0763736
0.201452
0.290909
0.350665
0.381752
0.396387
0.400521
-0.840685
-0.861309
-0.893084
-0.911336
-0.891993
-0.792711
-0.625148
-0.474388
-0.353256
-0.256023
-0.189806
-0.145717
-0.106617
-0.0126047
0.0815278
0.153253
0.200753
0.226515
0.23771
0.240242
-0.712774
-0.73213
-0.761364
-0.780396
-0.758993
-0.664236
-0.533656
-0.413374
-0.313502
-0.235676
-0.185632
-0.164788
-0.147458
-0.0606401
0.0164721
0.0690543
0.106283
0.126462
0.134629
0.136167
-0.428196
-0.44038
-0.460528
-0.478371
-0.475507
-0.434529
-0.374668
-0.311152
-0.252062
-0.199576
-0.166347
-0.157701
-0.146426
-0.0773234
-0.0138773
0.0284612
0.0561127
0.0704311
0.0762293
0.0766669
-0.143322
-0.14858
-0.161286
-0.181645
-0.201571
-0.214129
-0.214832
-0.203107
-0.181593
-0.153577
-0.129811
-0.115954
-0.0933754
-0.0472943
-0.0122394
0.0110827
0.026632
0.0352135
0.0388946
0.0394381
0.0333451
0.0308286
0.0214009
4.00402e-05
-0.0337476
-0.0698686
-0.0982484
-0.114749
-0.117476
-0.106414
-0.0863338
-0.062362
-0.0303157
-0.00460977
0.0122362
0.0238225
0.0323846
0.0390763
0.0418151
0.0413207
0.104475
0.102806
0.095244
0.0763127
0.0445529
0.00698208
-0.0279841
-0.0540718
-0.0674697
-0.0650309
-0.0458384
-0.014565
0.0178807
0.0308333
0.0322583
0.0356832
0.0412369
0.0455158
0.0473015
0.0465745
0.116642
0.115394
0.109803
0.0955832
0.0711513
0.0407399
0.00975008
-0.0164543
-0.0331909
-0.035498
-0.0190848
0.0109124
0.0402803
0.0416781
0.0420417
0.0455085
0.0503595
0.0552195
0.0559691
0.0542411
0.104037
0.103186
0.0993667
0.0895523
0.0723305
0.0498487
0.0251896
0.00257138
-0.0138186
-0.0189153
-0.00703704
0.0157564
0.0347845
0.0310116
0.0283603
0.0331006
0.0403679
0.044698
0.0449908
0.0432856
0.0835553
0.0830164
0.0805031
0.0739474
0.0621439
0.046059
0.0273486
0.00886354
-0.00620763
-0.0137998
-0.0086618
0.0038447
0.0109629
0.00143166
0.000179849
0.00512647
0.0114666
0.0146043
0.0141597
0.0125575
0.0622107
0.0618768
0.060228
0.0558615
0.0478025
0.0363251
0.0221542
0.00693109
-0.00744949
-0.0182478
-0.0216106
-0.0201345
-0.0219608
-0.0325579
-0.0362823
-0.032268
-0.0287915
-0.0292819
-0.0300523
-0.0309793
0.0427929
0.0425572
0.0414659
0.0385073
0.0328989
0.0245295
0.0135617
0.000603078
-0.0136852
-0.0284379
-0.0418485
-0.0540345
-0.0673193
-0.0800202
-0.0782774
-0.0735845
-0.0713056
-0.0720108
-0.0729087
-0.0734608
0.0264618
0.0262763
0.025475
0.0234184
0.0194331
0.013167
0.00437675
-0.00712533
-0.0217991
-0.0409098
-0.0647939
-0.0910268
-0.111417
-0.119061
-0.114985
-0.1097
-0.108002
-0.108452
-0.108992
-0.109328
0.01357
0.0134243
0.0128295
0.01137
0.00849829
0.00368858
-0.00354264
-0.0139554
-0.0289257
-0.0515331
-0.0849327
-0.124175
-0.150925
-0.151505
-0.142098
-0.135879
-0.134346
-0.135131
-0.135305
-0.135403
0.00423015
0.00409466
0.00364728
0.00262756
0.000592895
-0.00303787
-0.00892682
-0.0180747
-0.0327336
-0.0570068
-0.0959573
-0.144058
-0.172814
-0.166227
-0.152989
-0.147124
-0.146861
-0.14806
-0.147985
-0.147804
-0.00155063
-0.00168179
-0.0020118
-0.00266844
-0.00402655
-0.00664137
-0.0112304
-0.0189359
-0.0317597
-0.0546729
-0.0927348
-0.140518
-0.164798
-0.152711
-0.141314
-0.138154
-0.140209
-0.142095
-0.141829
-0.14141
-0.00400665
-0.00412377
-0.00435215
-0.00472211
-0.00549744
-0.00716239
-0.0103419
-0.0159727
-0.0257728
-0.0438311
-0.074521
-0.112371
-0.126721
-0.11474
-0.107487
-0.108823
-0.112731
-0.114745
-0.114462
-0.114093
-0.00358504
-0.00367313
-0.00380231
-0.00394497
-0.00425659
-0.0050674
-0.00679259
-0.010024
-0.0158368
-0.0267078
-0.0449013
-0.067134
-0.072267
-0.0626053
-0.0611532
-0.0649917
-0.069705
-0.0714265
-0.0709538
-0.0705098
-0.000916581
-0.000943068
-0.000993135
-0.00100645
-0.000904769
-0.000857004
-0.00103005
-0.0014672
-0.00227343
-0.00370762
-0.00616069
-0.00976427
-0.0154537
-0.0166024
-0.0170629
-0.0163022
-0.016696
-0.0157394
-0.0149099
-0.0145855
-0.103415
0.0637909
0.259052
0.429545
0.565927
0.673521
0.762597
0.838418
0.872935
0.849661
0.200252
0.321203
0.451385
0.563959
0.658918
0.737559
0.80125
0.846468
0.869109
0.881182
0.419763
0.502773
0.591772
0.670409
0.738075
0.794699
0.839735
0.872638
0.89641
0.914387
0.581001
0.640399
0.702238
0.759477
0.809276
0.851573
0.886315
0.914028
0.936845
0.955142
0.706739
0.749961
0.796024
0.839929
0.878714
0.912598
0.941599
0.965733
0.986134
1.00397
0.811243
0.844182
0.882363
0.917969
0.950654
0.979951
1.00555
1.02707
1.04493
1.06228
0.903903
0.932633
0.966648
0.998822
1.02881
1.05601
1.07978
1.09952
1.11503
1.13211
0.992558
1.02178
1.05582
1.08789
1.11751
1.14412
1.167
1.1855
1.19888
1.21591
1.08791
1.12113
1.15779
1.19139
1.22144
1.24764
1.2696
1.28689
1.29876
1.31616
1.20293
1.24077
1.27942
1.31367
1.34303
1.36778
1.38816
1.40405
1.41552
1.43359
1.34788
1.38643
1.42258
1.45327
1.47895
1.50105
1.52011
1.53564
1.54807
1.56607
1.52297
1.55459
1.58078
1.60323
1.6232
1.64193
1.65965
1.67613
1.69148
1.70955
1.71159
1.72879
1.74383
1.76006
1.77597
1.7905
1.80371
1.81764
1.83518
1.85533
1.89331
1.90285
1.91439
1.9252
1.93449
1.94407
1.95485
1.96622
1.97758
1.99294
2.10055
2.10421
2.08926
2.07446
2.06818
2.07385
2.09233
2.12264
2.15482
2.18148
2.40687
2.272
2.19536
2.15298
2.13556
2.13953
2.16692
2.22334
2.32596
2.55032
0.709312
0.707184
0.7027
0.694074
0.681848
0.669717
0.659486
0.651587
0.645965
0.642706
0.642345
0.645076
0.650174
0.657392
0.666776
0.678312
0.690961
0.701994
0.708106
0.711159
0.633768
0.639614
0.645947
0.650438
0.652906
0.652579
0.649839
0.646025
0.642511
0.640245
0.640091
0.642281
0.645937
0.65022
0.654022
0.655902
0.654963
0.651479
0.646315
0.639694
0.625345
0.627641
0.631044
0.634039
0.636111
0.637604
0.638356
0.638035
0.637005
0.636116
0.636282
0.637699
0.639506
0.640805
0.640979
0.640084
0.638532
0.636193
0.632928
0.630006
0.619839
0.620925
0.622757
0.625133
0.627153
0.628577
0.629593
0.63034
0.630735
0.63095
0.63143
0.632226
0.632813
0.632871
0.632451
0.631596
0.630122
0.628034
0.625945
0.624561
0.614642
0.615305
0.616411
0.618113
0.619891
0.621518
0.622808
0.623817
0.624692
0.625473
0.626189
0.626726
0.626906
0.626728
0.626151
0.625088
0.623654
0.622105
0.620784
0.620003
0.609674
0.610135
0.610919
0.612213
0.613696
0.615207
0.616665
0.617954
0.61908
0.620123
0.621022
0.621572
0.621699
0.62141
0.6207
0.6197
0.618566
0.617427
0.616508
0.61599
0.604855
0.6052
0.605809
0.606873
0.608161
0.609527
0.610957
0.612392
0.613752
0.615017
0.616107
0.616774
0.616928
0.616633
0.616018
0.615227
0.614365
0.613491
0.612814
0.612435
0.600133
0.600401
0.600892
0.601796
0.602958
0.604245
0.605628
0.607104
0.608628
0.610128
0.611449
0.612287
0.61256
0.612414
0.611999
0.611422
0.610759
0.61011
0.609613
0.609323
0.595425
0.595638
0.596046
0.596839
0.597919
0.599156
0.600528
0.602046
0.603697
0.605426
0.607025
0.608113
0.608614
0.6087
0.608508
0.608144
0.607683
0.607221
0.606863
0.606636
0.590646
0.590817
0.591167
0.591886
0.592919
0.594132
0.595528
0.597126
0.598927
0.600902
0.60283
0.604261
0.605071
0.605432
0.605482
0.605339
0.605082
0.604789
0.604545
0.604365
0.585709
0.585848
0.586155
0.586829
0.587844
0.58908
0.590538
0.592257
0.594259
0.596533
0.598865
0.600723
0.601905
0.602585
0.602909
0.603
0.602944
0.602812
0.602664
0.602519
0.580527
0.580639
0.580919
0.581572
0.582604
0.583906
0.585472
0.587364
0.589635
0.592289
0.59512
0.597491
0.599111
0.600158
0.60079
0.601133
0.601283
0.601313
0.601249
0.601132
0.575008
0.575097
0.57536
0.576018
0.577102
0.578513
0.58024
0.582374
0.584992
0.588131
0.591576
0.594563
0.596699
0.598169
0.599146
0.599782
0.60016
0.60034
0.60035
0.600254
0.569046
0.569114
0.56937
0.570056
0.57123
0.572797
0.57475
0.577205
0.580265
0.58401
0.588206
0.591934
0.594684
0.596651
0.598023
0.598986
0.599613
0.599954
0.600034
0.599955
0.562517
0.562565
0.562823
0.563558
0.564864
0.566642
0.568893
0.571758
0.57538
0.579876
0.584988
0.58961
0.593091
0.595646
0.597479
0.598803
0.599718
0.600234
0.600382
0.600318
0.555272
0.555301
0.555564
0.556373
0.557854
0.559908
0.56254
0.565929
0.570256
0.575675
0.581903
0.587603
0.591954
0.5952
0.597583
0.599335
0.600579
0.60128
0.601497
0.601444
0.547125
0.547142
0.547405
0.548311
0.550022
0.55242
0.555544
0.559599
0.56481
0.571374
0.578959
0.585946
0.591329
0.595388
0.598416
0.600685
0.602297
0.603202
0.603489
0.603445
0.537767
0.537754
0.53808
0.539123
0.54112
0.543968
0.547722
0.552618
0.558936
0.566915
0.576147
0.584669
0.591271
0.596291
0.600074
0.602948
0.604986
0.606118
0.606476
0.606439
0.526926
0.526887
0.527256
0.528492
0.530857
0.53429
0.538848
0.544811
0.552519
0.562242
0.573467
0.583816
0.591848
0.597996
0.602671
0.606244
0.608773
0.61015
0.610581
0.610547
0.514125
0.514059
0.514506
0.515991
0.518839
0.523034
0.528631
0.535965
0.545427
0.557307
0.570934
0.583443
0.593143
0.600595
0.606317
0.610692
0.613777
0.615417
0.615917
0.615881
0.49873
0.498635
0.499205
0.501039
0.504534
0.509748
0.516726
0.525857
0.537568
0.552121
0.568623
0.583647
0.59526
0.604199
0.611118
0.616402
0.6201
0.622009
0.622569
0.622526
0.479813
0.479691
0.480457
0.482802
0.487208
0.493838
0.502703
0.514229
0.528835
0.546696
0.566608
0.584512
0.598287
0.608905
0.617145
0.623455
0.627807
0.629976
0.630579
0.630522
0.455985
0.455845
0.456941
0.460076
0.465854
0.474555
0.486095
0.500879
0.519221
0.541124
0.565015
0.58617
0.602334
0.614787
0.624472
0.631899
0.636906
0.639297
0.639914
0.639834
0.424945
0.424824
0.426525
0.431033
0.439093
0.45101
0.466473
0.485731
0.508867
0.53565
0.564089
0.5888
0.607508
0.621916
0.63314
0.64173
0.647318
0.649847
0.650436
0.650325
0.382581
0.38262
0.385654
0.393017
0.405305
0.422482
0.443753
0.469043
0.498149
0.530622
0.564086
0.592574
0.613922
0.630339
0.64313
0.652841
0.658849
0.661371
0.661876
0.66173
0.321203
0.322382
0.329811
0.343543
0.363545
0.389074
0.418511
0.45147
0.487634
0.526461
0.565257
0.597608
0.62159
0.639975
0.654258
0.6649
0.671122
0.67341
0.673742
0.673564
0.248265
0.249988
0.264219
0.287825
0.318663
0.354066
0.392442
0.433614
0.477389
0.523268
0.56829
0.60546
0.632922
0.65388
0.670037
0.681806
0.688202
0.690371
0.690676
0.690592
0.17292
0.179028
0.200062
0.233822
0.274994
0.319985
0.367262
0.416693
0.468161
0.521214
0.572677
0.614869
0.645944
0.669676
0.687969
0.700643
0.706833
0.708634
0.708873
0.708844
0.111294
0.119691
0.145286
0.186025
0.235267
0.288439
0.343744
0.400917
0.459745
0.519716
0.577345
0.624265
0.658672
0.684822
0.704701
0.718019
0.72421
0.725844
0.726168
0.726178
0.0611493
0.0701421
0.0992754
0.145233
0.200594
0.260364
0.322462
0.38647
0.452003
0.518438
0.581896
0.633283
0.670784
0.699153
0.720547
0.734684
0.741095
0.743179
0.743615
0.743687
0.0191168
0.0283965
0.0599848
0.109936
0.170315
0.235558
0.303411
0.373388
0.444951
0.517341
0.586261
0.641862
0.682302
0.712822
0.735748
0.750887
0.757936
0.760347
0.760833
0.760906
-0.0171449
-0.0077437
0.0256992
0.078852
0.143371
0.213283
0.286153
0.361418
0.438433
0.516306
0.590334
0.649904
0.693123
0.725674
0.750081
0.766169
0.773909
0.776541
0.777119
0.777205
-0.0492898
-0.0398388
-0.00496639
0.0508893
0.118881
0.192814
0.270118
0.350134
0.432134
0.515102
0.593944
0.657263
0.703087
0.737472
0.763174
0.780108
0.788518
0.791403
0.79201
0.79209
-0.0785804
-0.0690749
-0.0330311
0.0251591
0.0961349
0.173583
0.254823
0.339146
0.425744
0.513502
0.596924
0.663815
0.712066
0.74814
0.774941
0.792575
0.801481
0.804576
0.805212
0.805269
-0.105872
-0.0963065
-0.0592105
0.000966303
0.0746049
0.155161
0.23992
0.328158
0.419018
0.511302
0.599131
0.669485
0.720061
0.757682
0.785427
0.8036
0.812808
0.816071
0.816748
0.816791
-0.13172
-0.122079
-0.0839974
-0.0221251
0.0539067
0.137227
0.225154
0.31696
0.411777
0.508358
0.600483
0.674268
0.72714
0.76622
0.794843
0.813398
0.822751
0.826117
0.826817
0.826832
-0.156616
-0.146791
-0.107857
-0.0443664
0.0337749
0.119565
0.210349
0.305411
0.403907
0.50458
0.600923
0.678179
0.733382
0.77392
0.803335
0.822187
0.83159
0.834936
0.835617
0.835613
-0.180782
-0.170725
-0.131023
-0.0659689
0.0140405
0.102037
0.195396
0.293429
0.395332
0.499899
0.600411
0.681225
0.738867
0.780934
0.811116
0.83015
0.839516
0.842806
0.843438
0.843392
-0.20432
-0.194047
-0.153508
-0.0870834
-0.00539539
0.0845803
0.180244
0.28097
0.386015
0.494264
0.598901
0.683408
0.743672
0.787407
0.818335
0.837443
0.846697
0.84987
0.85043
0.850364
-0.227373
-0.216788
-0.175488
-0.107771
-0.0245742
0.067164
0.164885
0.268036
0.375954
0.487666
0.596346
0.684696
0.74785
0.793457
0.825135
0.844212
0.853247
0.856217
0.856668
0.85656
-0.249906
-0.239034
-0.19698
-0.128062
-0.0434987
0.0498031
0.149354
0.254665
0.365177
0.480095
0.592699
0.685033
0.75142
0.799185
0.831669
0.850585
0.859204
0.861858
0.862169
0.862026
-0.271971
-0.260781
-0.217924
-0.147932
-0.0621457
0.032533
0.133694
0.240916
0.353739
0.471576
0.587921
0.684346
0.754339
0.804651
0.838135
0.856785
0.864716
0.866862
0.867002
0.866831
-0.293385
-0.28195
-0.238313
-0.16734
-0.0804653
0.0154276
0.117972
0.226863
0.341713
0.462166
0.581993
0.682553
0.7565
0.809854
0.844774
0.863207
0.870073
0.871353
0.871213
0.87103
-0.314289
-0.3025
-0.258131
-0.186264
-0.0984231
-0.00147251
0.102283
0.212588
0.329189
0.451947
0.574928
0.67955
0.75774
0.814679
0.851751
0.870421
0.875947
0.875688
0.874879
0.874673
-0.334517
-0.322404
-0.277343
-0.204652
-0.115939
-0.0180821
0.0867082
0.198213
0.316278
0.440985
0.566768
0.675241
0.75785
0.818864
0.858976
0.879011
0.88366
0.881145
0.878545
0.87751
-0.354127
-0.341704
-0.295895
-0.222453
-0.132974
-0.0343307
0.0713323
0.183818
0.303094
0.429418
0.55759
0.669533
0.756595
0.822008
0.8659
0.888953
0.894736
0.89093
0.884378
0.875749
-0.373036
-0.360357
-0.313882
-0.23982
-0.149737
-0.0504921
0.0558225
0.169005
0.289188
0.416746
0.54686
0.661858
0.75345
0.823691
0.871763