/*--------------------------------*- C++ -*----------------------------------*\
| =========                 |                                                 |
| \\      /  F ield         | OpenFOAM: The Open Source CFD Toolbox           |
|  \\    /   O peration     | Version:  2112                                  |
|   \\  /    A nd           | Website:  www.openfoam.com                      |
|    \\/     M anipulation  |                                                 |
\*---------------------------------------------------------------------------*/
FoamFile
{
    version     2.0;
    format      ascii;
    arch        "LSB;label=32;scalar=64";
    class       volVectorField;
    location    "53.5";
    object      U;
}
// * * * * * * * * * * * * * * * * * * * * * * * * * * * * * * * * * * * * * //

dimensions      [0 1 -1 0 0 0 0];

internalField   nonuniform List<vector> 
8800
(
(0.98014 -0.0915214 0)
(1.00234 -0.0587311 0)
(0.999575 -0.0321316 0)
(0.999968 -0.016527 0)
(1.00006 -0.00884792 0)
(1.00007 -0.00510252 0)
(1.00005 -0.00299824 0)
(1.00002 -0.00168656 0)
(0.999997 -0.000784865 0)
(1.00006 -8.67663e-05 0)
(0.999987 0.000620791 0)
(0.999995 0.00137385 0)
(1.00001 0.00239874 0)
(1.00003 0.00400286 0)
(1.00004 0.0067497 0)
(0.999994 0.0120513 0)
(0.999789 0.0230954 0)
(0.999028 0.0431575 0)
(1.00723 0.0790262 0)
(0.775024 0.0478395 0)
(0.358984 -0.0147487 0)
(1.0465 -0.0724855 0)
(1.08846 -0.0660242 0)
(1.04942 -0.0509211 0)
(1.02552 -0.0377039 0)
(1.01272 -0.0258988 0)
(1.00656 -0.0167023 0)
(1.00362 -0.010211 0)
(1.00218 -0.00557949 0)
(1.00151 -0.00198597 0)
(1.00138 0.00122694 0)
(1.00173 0.0045353 0)
(1.0027 0.00842478 0)
(1.00474 0.0137391 0)
(1.00897 0.0214152 0)
(1.01795 0.0319061 0)
(1.03578 0.0446778 0)
(1.0674 0.0581185 0)
(1.09469 0.0699595 0)
(0.845622 0.055508 0)
(0.21779 -0.00138093 0)
(1.07567 -0.0506524 0)
(1.0994 -0.048936 0)
(1.06437 -0.040022 0)
(1.03988 -0.0325641 0)
(1.02379 -0.0253493 0)
(1.01402 -0.0181274 0)
(1.00851 -0.0115036 0)
(1.00565 -0.00574558 0)
(1.00448 -0.000453694 0)
(1.00479 0.00465763 0)
(1.00663 0.0099437 0)
(1.01056 0.0159128 0)
(1.01788 0.0226689 0)
(1.03049 0.0297698 0)
(1.05047 0.0368548 0)
(1.08002 0.0446277 0)
(1.10563 0.0519495 0)
(0.943244 0.0410158 0)
(0.217179 0.00140574 0)
(0.176647 -0.000628633 0)
(1.0194 -0.0354611 0)
(1.1057 -0.0414074 0)
(1.07796 -0.0363934 0)
(1.05243 -0.0303492 0)
(1.03521 -0.0244704 0)
(1.02336 -0.0186709 0)
(1.01555 -0.0126699 0)
(1.01095 -0.00657264 0)
(1.00891 -0.000333165 0)
(1.00943 0.00582471 0)
(1.0125 0.0117378 0)
(1.01846 0.0175057 0)
(1.02805 0.0230779 0)
(1.04225 0.0286214 0)
(1.06306 0.0343993 0)
(1.09383 0.040281 0)
(1.09439 0.0418 0)
(0.830145 0.0227853 0)
(0.175604 0.000648552 0)
(0.154741 -0.000462417 0)
(0.958189 -0.0256877 0)
(1.1044 -0.0351118 0)
(1.08807 -0.0326644 0)
(1.06125 -0.0281587 0)
(1.04321 -0.0231952 0)
(1.03083 -0.0178887 0)
(1.02224 -0.0123429 0)
(1.01669 -0.00643027 0)
(1.01403 2.53141e-05 0)
(1.01466 0.00648549 0)
(1.01844 0.0123549 0)
(1.02521 0.0176685 0)
(1.03535 0.0226718 0)
(1.05008 0.027488 0)
(1.07201 0.0319232 0)
(1.10096 0.0357971 0)
(1.06963 0.0339974 0)
(0.742448 0.0144628 0)
(0.153178 0.000484754 0)
(0.14006 -0.000334289 0)
(0.901188 -0.0193234 0)
(1.09682 -0.0302186 0)
(1.09621 -0.0293418 0)
(1.06895 -0.0255609 0)
(1.05013 -0.0214767 0)
(1.03718 -0.0167755 0)
(1.02819 -0.0115229 0)
(1.02225 -0.00579746 0)
(1.01925 0.000559382 0)
(1.01987 0.00693204 0)
(1.02385 0.0125785 0)
(1.03087 0.0175568 0)
(1.04137 0.0220225 0)
(1.05673 0.0259567 0)
(1.07952 0.029466 0)
(1.10326 0.0321786 0)
(1.03782 0.0281633 0)
(0.675597 0.0103179 0)
(0.137859 0.00036087 0)
(0.129325 -0.000252865 0)
(0.851319 -0.0149276 0)
(1.08447 -0.0261211 0)
(1.1019 -0.0264694 0)
(1.07578 -0.0231539 0)
(1.05645 -0.0195044 0)
(1.04307 -0.0153081 0)
(1.03372 -0.0104442 0)
(1.0275 -0.00494379 0)
(1.02428 0.00122652 0)
(1.02478 0.00738341 0)
(1.02878 0.0127468 0)
(1.03594 0.0173021 0)
(1.04674 0.0211644 0)
(1.06247 0.0244989 0)
(1.0857 0.0275292 0)
(1.10247 0.0293447 0)
(1.00311 0.0236258 0)
(0.623514 0.00791694 0)
(0.126346 0.000285234 0)
(0.121141 -0.00019415 0)
(0.80882 -0.0117445 0)
(1.06915 -0.0225317 0)
(1.10541 -0.0238482 0)
(1.08203 -0.0209886 0)
(1.06224 -0.0175692 0)
(1.04859 -0.0136601 0)
(1.03898 -0.00912262 0)
(1.03249 -0.00389999 0)
(1.02904 0.00203201 0)
(1.02938 0.00791429 0)
(1.03333 0.0129233 0)
(1.04056 0.0170215 0)
(1.05145 0.0204118 0)
(1.06743 0.0233499 0)
(1.09105 0.0260653 0)
(1.09881 0.0269753 0)
(0.96799 0.0200546 0)
(0.581712 0.00635051 0)
(0.117215 0.000233412 0)
(0.114794 -0.000149645 0)
(0.77297 -0.00936324 0)
(1.05227 -0.0193735 0)
(1.10774 -0.021432 0)
(1.08789 -0.0189607 0)
(1.06769 -0.0157077 0)
(1.05377 -0.011971 0)
(1.04398 -0.00764031 0)
(1.03726 -0.00266427 0)
(1.03356 0.00300249 0)
(1.0337 0.008574 0)
(1.03753 0.0132042 0)
(1.04469 0.0169022 0)
(1.05561 0.0199192 0)
(1.07182 0.0225249 0)
(1.09514 0.0248919 0)
(1.09235 0.0250055 0)
(0.933821 0.0172863 0)
(0.547188 0.00527492 0)
(0.109716 0.00019735 0)
(0.109834 -0.000114483 0)
(0.742843 -0.00751884 0)
(1.0349 -0.0165733 0)
(1.1091 -0.0191603 0)
(1.09344 -0.0170074 0)
(1.07294 -0.0138573 0)
(1.05875 -0.0102254 0)
(1.04876 -0.00602938 0)
(1.04184 -0.00123402 0)
(1.03787 0.00417302 0)
(1.03773 0.00941363 0)
(1.04135 0.0136755 0)
(1.04838 0.0170066 0)
(1.0593 0.0196789 0)
(1.07573 0.0220004 0)
(1.09795 0.0240055 0)
(1.08348 0.0233715 0)
(0.901204 0.0151679 0)
(0.517886 0.00452022 0)
(0.103357 0.00017233 0)
(0.105969 -8.55333e-05 0)
(0.717618 -0.00603529 0)
(1.01787 -0.014062 0)
(1.10962 -0.0169698 0)
(1.09888 -0.0151088 0)
(1.0781 -0.0119848 0)
(1.0636 -0.00839913 0)
(1.05339 -0.00427793 0)
(1.04623 0.000392786 0)
(1.04196 0.00557705 0)
(1.04148 0.0105063 0)
(1.04481 0.0144278 0)
(1.05167 0.0174234 0)
(1.06257 0.0197636 0)
(1.0792 0.021813 0)
(1.09943 0.0234222 0)
(1.07259 0.0220691 0)
(0.870282 0.0135858 0)
(0.492348 0.0039949 0)
(0.0977927 0.000155866 0)
(0.103008 -6.05684e-05 0)
(0.696652 -0.00479415 0)
(1.0018 -0.0117712 0)
(1.10942 -0.0148172 0)
(1.10413 -0.0131721 0)
(1.08324 -0.0100307 0)
(1.06842 -0.00643282 0)
(1.05795 -0.00233179 0)
(1.05049 0.0022598 0)
(1.04584 0.00726798 0)
(1.04495 0.011915 0)
(1.04794 0.0154989 0)
(1.05458 0.0181475 0)
(1.06544 0.0201604 0)
(1.08223 0.0219564 0)
(1.09993 0.0231588 0)
(1.05997 0.0210965 0)
(0.840924 0.012446 0)
(0.469493 0.003641 0)
(0.0927641 0.000146027 0)
(0.100828 -3.76502e-05 0)
(0.679468 -0.00370707 0)
(0.987138 -0.00963176 0)
(1.10872 -0.0126209 0)
(1.10918 -0.0111063 0)
(1.08843 -0.00792367 0)
(1.07325 -0.00426089 0)
(1.06247 -0.000120658 0)
(1.05466 0.00443938 0)
(1.04955 0.00931266 0)
(1.04815 0.0136942 0)
(1.05072 0.0169537 0)
(1.05711 0.0192654 0)
(1.06791 0.0209355 0)
(1.08478 0.0224568 0)
(1.09946 0.0232785 0)
(1.04583 0.0204751 0)
(0.812833 0.0116787 0)
(0.44848 0.00342115 0)
(0.0880705 0.000141571 0)
(0.0993644 -1.50869e-05 0)
(0.665763 -0.0027038 0)
(0.974251 -0.00756755 0)
(1.10783 -0.0103232 0)
(1.11415 -0.00886907 0)
(1.09375 -0.00562087 0)
(1.07819 -0.00183211 0)
(1.06704 0.00241218 0)
(1.05878 0.0070017 0)
(1.0531 0.0117896 0)
(1.05109 0.0159318 0)
(1.05316 0.0188605 0)
(1.05925 0.0208233 0)
(1.06997 0.0221364 0)
(1.08687 0.0233863 0)
(1.09779 0.0237567 0)
(1.03024 0.0201781 0)
(0.785622 0.0112248 0)
(0.428631 0.00330795 0)
(0.0835518 0.000141304 0)
(0.0986006 8.97372e-06 0)
(0.655381 -0.00172957 0)
(0.963455 -0.00550619 0)
(1.10706 -0.00784972 0)
(1.11916 -0.00635793 0)
(1.09928 -0.00298933 0)
(1.0833 0.000986512 0)
(1.07171 0.00538285 0)
(1.0629 0.0100598 0)
(1.05653 0.0147998 0)
(1.05379 0.0187097 0)
(1.05525 0.0212992 0)
(1.06096 0.022879 0)
(1.07158 0.0237973 0)
(1.08842 0.0247588 0)
(1.09487 0.0246399 0)
(1.01322 0.0202385 0)
(0.758873 0.0110529 0)
(0.409395 0.0032868 0)
(0.079079 0.000144842 0)
(0.0985562 3.04218e-05 0)
(0.648295 -0.000738856 0)
(0.95505 -0.00337648 0)
(1.10677 -0.0051389 0)
(1.12437 -0.00350697 0)
(1.10511 4.20716e-05 0)
(1.08866 0.00426911 0)
(1.07653 0.00889346 0)
(1.06707 0.013725 0)
(1.05986 0.0184543 0)
(1.05622 0.0221337 0)
(1.05696 0.0243612 0)
(1.06222 0.0255431 0)
(1.07271 0.0260407 0)
(1.08926 0.026636 0)
(1.09048 0.0259729 0)
(0.994673 0.0206793 0)
(0.732109 0.0111465 0)
(0.390268 0.00334992 0)
(0.0745322 0.000151802 0)
(0.099267 6.92e-05 0)
(0.644587 0.000283642 0)
(0.949354 -0.00109893 0)
(1.10729 -0.00209871 0)
(1.12997 -0.000220278 0)
(1.11135 0.00356954 0)
(1.09438 0.00813211 0)
(1.08162 0.0130711 0)
(1.07134 0.0181237 0)
(1.0631 0.0228912 0)
(1.05839 0.026354 0)
(1.05827 0.028187 0)
(1.06299 0.0289201 0)
(1.07331 0.0289811 0)
(1.08922 0.0291454 0)
(1.08449 0.0277949 0)
(0.97439 0.0215183 0)
(0.704817 0.0114932 0)
(0.370781 0.00348946 0)
(0.0698036 0.000161698 0)
(0.100938 9.61252e-05 0)
(0.644637 0.00144436 0)
(0.946718 0.00140579 0)
(1.10905 0.00137951 0)
(1.13615 0.00362825 0)
(1.11811 0.00779505 0)
(1.10056 0.0127903 0)
(1.08702 0.0181186 0)
(1.07574 0.0234546 0)
(1.06625 0.0282794 0)
(1.06024 0.0314951 0)
(1.0591 0.0328776 0)
(1.06319 0.0331205 0)
(1.07329 0.0326996 0)
(1.08808 0.0323729 0)
(1.07665 0.0301729 0)
(0.952081 0.0227946 0)
(0.676448 0.0120923 0)
(0.350493 0.00370251 0)
(0.0647958 0.000174301 0)
(0.10363 0.000143195 0)
(0.6488 0.00286744 0)
(0.947638 0.00428702 0)
(1.11257 0.00539972 0)
(1.14316 0.00818038 0)
(1.12556 0.0128677 0)
(1.10732 0.0183976 0)
(1.09283 0.024222 0)
(1.08032 0.0299194 0)
(1.06929 0.0348211 0)
(1.06173 0.037747 0)
(1.0594 0.0386053 0)
(1.06272 0.0382993 0)
(1.07257 0.0373264 0)
(1.08568 0.0364399 0)
(1.06666 0.0332172 0)
(0.927329 0.0245461 0)
(0.646407 0.0129469 0)
(0.328968 0.00398591 0)
(0.0594182 0.00018919 0)
(0.10762 0.000204394 0)
(0.657661 0.00454458 0)
(0.952569 0.00769745 0)
(1.1183 0.0101456 0)
(1.15125 0.013643 0)
(1.13389 0.0189968 0)
(1.11482 0.0252057 0)
(1.09916 0.031652 0)
(1.08513 0.0377801 0)
(1.07226 0.0427659 0)
(1.06285 0.045329 0)
(1.05911 0.045577 0)
(1.06149 0.0446297 0)
(1.07104 0.0430219 0)
(1.08195 0.041509 0)
(1.05412 0.0370134 0)
(0.899618 0.0268119 0)
(0.614049 0.0140535 0)
(0.305777 0.00433295 0)
(0.0535918 0.000205406 0)
(0.113241 0.000287753 0)
(0.671915 0.00663339 0)
(0.962189 0.0118365 0)
(1.12684 0.0158648 0)
(1.16075 0.0203122 0)
(1.14336 0.0265745 0)
(1.12324 0.0336146 0)
(1.10609 0.0407822 0)
(1.09016 0.0473801 0)
(1.07502 0.0523927 0)
(1.06344 0.0544646 0)
(1.0581 0.0539713 0)
(1.05941 0.052273 0)
(1.06857 0.0499526 0)
(1.07673 0.0476872 0)
(1.03855 0.0416784 0)
(0.868298 0.0296239 0)
(0.578684 0.0154029 0)
(0.280518 0.00473238 0)
(0.0472575 0.00022187 0)
(0.120989 0.000405002 0)
(0.692491 0.00935908 0)
(0.977363 0.0170077 0)
(1.13886 0.0228876 0)
(1.17218 0.0285607 0)
(1.15424 0.0360097 0)
(1.13273 0.0440598 0)
(1.11367 0.052059 0)
(1.09537 0.0591143 0)
(1.07751 0.0640147 0)
(1.06338 0.0653915 0)
(1.05615 0.0639499 0)
(1.05634 0.0613971 0)
(1.06505 0.0582639 0)
(1.06974 0.0550886 0)
(1.0193 0.047276 0)
(0.832605 0.0329808 0)
(0.539604 0.0169587 0)
(0.252846 0.00516137 0)
(0.0403902 0.000236612 0)
(0.131603 0.000575812 0)
(0.720723 0.0131008 0)
(0.999238 0.0236873 0)
(1.1551 0.0317661 0)
(1.18609 0.0389572 0)
(1.16689 0.0479272 0)
(1.14348 0.0571897 0)
(1.12192 0.0660844 0)
(1.10063 0.0734852 0)
(1.07952 0.0780143 0)
(1.0625 0.0783912 0)
(1.05316 0.0757665 0)
(1.05208 0.0721948 0)
(1.06024 0.068081 0)
(1.06045 0.0637949 0)
(0.995597 0.0538602 0)
(0.79168 0.0368577 0)
(0.496135 0.0186558 0)
(0.222543 0.00558543 0)
(0.0330181 0.000247285 0)
(0.146355 0.000851339 0)
(0.758633 0.0184605 0)
(1.02946 0.0326583 0)
(1.17651 0.0434464 0)
(1.20322 0.0526046 0)
(1.18162 0.0634518 0)
(1.15554 0.0740196 0)
(1.13068 0.0836549 0)
(1.10573 0.0910572 0)
(1.08082 0.0947656 0)
(1.06056 0.0937249 0)
(1.04897 0.0896364 0)
(1.04654 0.0848086 0)
(1.05372 0.0795604 0)
(1.04821 0.0740068 0)
(0.966458 0.0614196 0)
(0.744622 0.0411501 0)
(0.447758 0.0203746 0)
(0.189623 0.00594836 0)
(0.0252476 0.000250353 0)
(0.167408 0.00132532 0)
(0.809441 0.0266138 0)
(1.07057 0.0454751 0)
(1.20423 0.0597417 0)
(1.22426 0.0716202 0)
(1.19853 0.0841591 0)
(1.16862 0.0958208 0)
(1.13949 0.105695 0)
(1.1101 0.112441 0)
(1.08086 0.114611 0)
(1.05714 0.111556 0)
(1.04327 0.105604 0)
(1.03955 0.0993164 0)
(1.04532 0.0930473 0)
(1.03221 0.0856879 0)
(0.930641 0.0697612 0)
(0.690628 0.0456435 0)
(0.394371 0.0219374 0)
(0.154541 0.00617411 0)
(0.0173092 0.00024081 0)
(0.19814 0.00237764 0)
(0.878807 0.0402577 0)
(1.12616 0.0659566 0)
(1.23868 0.084186 0)
(1.24894 0.0986513 0)
(1.217 0.112314 0)
(1.18193 0.124156 0)
(1.1476 0.133185 0)
(1.11317 0.138179 0)
(1.0793 0.137824 0)
(1.05202 0.132003 0)
(1.03587 0.123753 0)
(1.0309 0.115773 0)
(1.03486 0.108371 0)
(1.01148 0.0986592 0)
(0.886704 0.0785317 0)
(0.629316 0.049985 0)
(0.336965 0.0231868 0)
(0.118722 0.00622352 0)
(0.00970196 0.000213079 0)
(0.24005 0.00857621 4.13397e-20)
(0.970807 0.0674705 3.6183e-20)
(1.19402 0.100252 -1.2698e-20)
(1.27675 0.120405 0)
(1.27449 0.137288 -3.29544e-34)
(1.23499 0.150277 4.83189e-21)
(1.194 0.160576 -8.78806e-21)
(1.15389 0.167368 0)
(1.11399 0.16955 1.82126e-34)
(1.07516 0.165888 -1.10255e-20)
(1.04407 0.156835 0)
(1.02545 0.146059 -1.31492e-20)
(1.01914 0.136435 -3.88227e-20)
(1.02095 0.128288 -1.83597e-20)
(0.983041 0.115867 -5.53059e-21)
(0.829602 0.0899344 -3.2881e-21)
(0.555033 0.0550793 0)
(0.273451 0.0245802 2.30163e-21)
(0.0825388 0.0065294 2.71765e-21)
(0.00263971 0.000247229 4.893e-20)
(0.26947 0.0239435 2.89687e-20)
(1.04674 0.109964 5.27279e-22)
(1.24994 0.149131 3.33109e-21)
(1.31069 0.169451 0)
(1.29684 0.186202 -1.65787e-20)
(1.2503 0.197025 -1.89441e-20)
(1.20338 0.204994 -8.83501e-21)
(1.15735 0.209271 -3.17276e-20)
(1.11171 0.208612 0)
(1.06736 0.201694 4.69928e-20)
(1.03171 0.189496 4.67274e-20)
(1.01006 0.176245 1.39192e-20)
(1.00159 0.164596 5.08533e-20)
(0.996899 0.154022 7.15719e-20)
(0.939495 0.137607 0)
(0.754014 0.103851 1.01022e-19)
(0.468511 0.0612932 1.44974e-19)
(0.206893 0.0260113 1.61041e-19)
(0.0473566 0.00600983 -1.84132e-19)
(-0.00416882 -0.00031138 -3.46235e-21)
(0.270596 0.039656 0)
(1.09469 0.16507 4.8074e-21)
(1.28746 0.209259 0)
(1.337 0.229083 -2.07428e-20)
(1.31427 0.242813 0)
(1.2618 0.249807 -3.6933e-20)
(1.20931 0.254065 1.79995e-20)
(1.15769 0.254779 -6.36253e-20)
(1.10655 0.250495 -1.56929e-21)
(1.05688 0.239811 2.43062e-20)
(1.01685 0.224155 1.03089e-19)
(0.992168 0.20827 -2.67335e-22)
(0.981143 0.194642 -3.7036e-20)
(0.970523 0.181826 -6.76774e-20)
(0.900134 0.160541 8.01631e-20)
(0.701459 0.118395 -1.42016e-19)
(0.420865 0.0679949 -1.87884e-20)
(0.176841 0.0280423 0)
(0.0331521 0.00551896 1.94353e-24)
(-0.0069066 -0.00101953 0)
(0.26441 0.0532838 5.44817e-20)
(1.12058 0.223513 -2.78862e-20)
(1.31054 0.273892 -2.31436e-20)
(1.35434 0.293872 9.59041e-21)
(1.32538 0.303745 -1.6274e-20)
(1.26843 0.306273 7.73423e-20)
(1.21134 0.306192 3.75452e-20)
(1.15486 0.302753 0)
(1.09878 0.29434 -1.21292e-19)
(1.0442 0.27947 0)
(1.00001 0.260077 -5.41472e-20)
(0.972408 0.241433 -6.71225e-20)
(0.959033 0.225795 -4.04514e-20)
(0.943771 0.210533 -4.92755e-20)
(0.866859 0.184624 0)
(0.667366 0.135316 0)
(0.39804 0.0779496 -1.22522e-19)
(0.167458 0.0322055 2.42581e-20)
(0.0294387 0.00560597 -1.41827e-20)
(-0.00814152 -0.00166519 -1.65963e-20)
(0.257072 0.0653639 -1.54071e-20)
(1.13205 0.281852 0)
(1.32319 0.339504 4.4054e-20)
(1.36364 0.3601 2.62781e-20)
(1.33027 0.366171 3.82605e-20)
(1.27005 0.364235 0)
(1.20936 0.35974 3.64498e-20)
(1.14886 0.351982 7.03956e-20)
(1.0885 0.339255 6.19991e-20)
(1.0295 0.320055 1.15091e-19)
(0.981455 0.296909 0)
(0.951032 0.275515 -1.45088e-19)
(0.935223 0.257709 -8.76227e-20)
(0.916385 0.23989 -5.1858e-20)
(0.837928 0.209794 3.18971e-19)
(0.644835 0.154487 3.79897e-20)
(0.389831 0.0910492 1.78336e-19)
(0.170702 0.0388207 -8.45056e-19)
(0.0334355 0.00724302 5.00272e-19)
(-0.00757996 -0.00193891 -6.02924e-19)
(0.250074 0.076302 6.51363e-22)
(1.13432 0.33826 2.57326e-21)
(1.32827 0.404187 -3.93109e-21)
(1.36648 0.425879 -2.3973e-20)
(1.32991 0.428376 -3.07769e-20)
(1.26727 0.422175 1.79568e-21)
(1.2037 0.413431 -3.95914e-20)
(1.13987 0.401436 7.26984e-20)
(1.07583 0.384449 -1.33668e-19)
(1.01293 0.360965 0)
(0.961381 0.334042 -6.562e-20)
(0.928232 0.309758 -1.61999e-21)
(0.910004 0.28977 -9.61117e-20)
(0.888465 0.269725 0)
(0.811141 0.235908 -6.93319e-20)
(0.627804 0.175743 -1.64774e-19)
(0.388794 0.106467 4.39851e-19)
(0.179248 0.047845 -4.32961e-19)
(0.0420515 0.0107672 6.15448e-19)
(-0.00547142 -0.00168113 -6.39474e-19)
(0.244242 0.0864446 -4.10255e-22)
(1.13093 0.392084 1.61246e-21)
(1.32791 0.466946 -6.41967e-21)
(1.36429 0.490001 8.33787e-21)
(1.32535 0.489324 -1.52819e-20)
(1.26087 0.479152 0)
(1.19499 0.466408 -3.62483e-20)
(1.12837 0.450378 -7.60328e-20)
(1.06116 0.429308 -6.93655e-20)
(0.994784 0.401641 0)
(0.940004 0.370869 -6.8073e-20)
(0.904311 0.343676 -8.47527e-20)
(0.883911 0.321735 1.04475e-19)
(0.860305 0.299759 -6.36266e-20)
(0.784635 0.262641 -3.03788e-19)
(0.612464 0.198263 1.80827e-19)
(0.389256 0.123127 5.39687e-20)
(0.1891 0.0584841 0)
(0.0519613 0.0157481 -5.97093e-19)
(-0.00275092 -0.00101828 -2.19144e-20)
(0.239668 0.0961022 3.29362e-21)
(1.12415 0.443127 -4.48143e-21)
(1.32361 0.527299 2.12712e-21)
(1.3583 0.551755 3.18017e-20)
(1.31752 0.54834 -5.39407e-20)
(1.25165 0.534562 7.00928e-20)
(1.18388 0.51811 7.8217e-20)
(1.1149 0.498319 -1.21505e-19)
(1.0449 0.473403 4.33251e-20)
(0.975365 0.441689 -2.83735e-19)
(0.917594 0.407189 -7.72881e-20)
(0.879623 0.377371 0)
(0.85735 0.353645 1.13498e-19)
(0.832037 0.329685 1.36359e-19)
(0.757965 0.289438 1.63641e-19)
(0.596562 0.221362 -1.96937e-19)
(0.387645 0.140702 -5.8378e-20)
(0.196876 0.0703463 6.85334e-20)
(0.060989 0.0216302 0)
(3.97407e-05 -4.62312e-05 -4.76842e-20)
(0.236249 0.105433 -5.78263e-20)
(1.11556 0.491488 3.0654e-20)
(1.31666 0.585319 -6.12239e-22)
(1.34954 0.610796 1.74358e-20)
(1.30722 0.605012 -2.27528e-20)
(1.24028 0.587985 -4.06235e-21)
(1.17097 0.568171 -8.57661e-20)
(1.09996 0.544942 -4.40453e-20)
(1.02747 0.516443 -1.2077e-19)
(0.955023 0.480898 2.943e-22)
(0.894513 0.442957 -2.41784e-19)
(0.854491 0.410721 2.0529e-19)
(0.830448 0.38508 -1.2497e-19)
(0.803509 0.358841 1.50672e-19)
(0.731026 0.315534 0)
(0.579093 0.243653 -1.07104e-19)
(0.382848 0.15801 -6.9347e-23)
(0.201138 0.0820514 -2.99485e-19)
(0.0675862 0.0274882 -4.39704e-20)
(0.00235553 0.000960425 0)
(0.233844 0.114571 0)
(1.10608 0.537381 3.62523e-20)
(1.3078 0.640708 1.01334e-20)
(1.33878 0.666995 -1.39205e-20)
(1.29513 0.659117 -3.08983e-20)
(1.22734 0.639185 0)
(1.15676 0.616363 -3.80113e-20)
(1.084 0.590032 -1.0795e-21)
(1.00925 0.558247 2.5892e-19)
(0.934101 0.519151 -3.88735e-20)
(0.871052 0.477992 -1.74732e-19)
(0.829103 0.443193 1.06585e-19)
(0.803354 0.415275 -2.1921e-21)
(0.775042 0.386667 1.60133e-19)
(0.703769 0.340211 9.92326e-20)
(0.559747 0.264015 -2.31503e-19)
(0.374661 0.173925 2.74284e-19)
(0.201017 0.0925578 8.11832e-20)
(0.0709433 0.0325438 3.34959e-19)
(0.00392509 0.00182928 -8.94588e-19)
(0.232404 0.123646 -2.1066e-20)
(1.09635 0.580995 2.73767e-20)
(1.29779 0.693192 -1.7622e-20)
(1.3266 0.720319 6.76037e-21)
(1.28179 0.710541 0)
(1.21332 0.68803 -3.00433e-20)
(1.14169 0.662552 1.28706e-19)
(1.06739 0.633457 9.61292e-20)
(0.990571 0.598696 0)
(0.912864 0.556343 -5.61198e-19)
(0.847378 0.512009 4.72853e-19)
(0.803544 0.474325 0)
(0.776229 0.443941 1.46143e-19)
(0.746706 0.413095 -2.20429e-21)
(0.67594 0.362874 -3.16945e-19)
(0.538428 0.282148 1.24118e-19)
(0.363287 0.187778 0)
(0.196988 0.101046 4.38089e-19)
(0.070942 0.0361855 0)
(0.00468816 0.00240807 -4.23416e-19)
(0.231745 0.132738 2.58566e-20)
(1.08684 0.622456 3.71818e-20)
(1.28687 0.742859 -1.7073e-20)
(1.3135 0.770763 0)
(1.26766 0.759267 -2.30215e-20)
(1.19865 0.734482 0)
(1.12613 0.706672 -1.25309e-19)
(1.05046 0.675137 -4.38949e-20)
(0.971699 0.637719 4.53376e-20)
(0.891542 0.592389 -2.77611e-19)
(0.823595 0.544829 4.871e-20)
(0.777879 0.504065 0)
(0.749213 0.471346 -3.11915e-19)
(0.718415 0.438157 2.19536e-21)
(0.647403 0.383467 0)
(0.515236 0.297871 1.59728e-21)
(0.348709 0.198964 4.00486e-19)
(0.189357 0.107014 -3.78569e-19)
(0.0682927 0.038116 1.11606e-19)
(0.00468235 0.00259906 0)
(0.231549 0.141703 0)
(1.0778 0.661871 4.59201e-20)
(1.2754 0.789855 2.75236e-20)
(1.29987 0.818383 -2.47292e-21)
(1.25308 0.805323 -5.1502e-21)
(1.18364 0.778543 -6.71597e-20)
(1.11039 0.748703 4.73834e-20)
(1.03346 0.715033 -5.24243e-20)
(0.952887 0.675274 2.03116e-19)
(0.870311 0.62724 -4.43389e-19)
(0.799793 0.576453 -3.7595e-21)
(0.752178 0.532687 -1.36096e-19)
(0.722281 0.497818 5.06259e-19)
(0.689927 0.461674 -2.57202e-21)
(0.618091 0.401553 -2.4589e-19)
(0.490199 0.310807 -4.39027e-19)
(0.331389 0.207178 0)
(0.178569 0.110262 0)
(0.0634844 0.0384838 1.20341e-19)
(0.00416688 0.00247419 -7.06639e-20)
(0.231941 0.150691 3.76068e-20)
(1.06923 0.699083 -1.05709e-19)
(1.2637 0.834244 -2.96584e-20)
(1.28598 0.863266 0)
(1.23833 0.848769 -1.53779e-21)
(1.16857 0.820243 -5.82688e-20)
(1.0947 0.788653 1.12307e-19)
(1.01663 0.753131 2.04285e-19)
(0.93434 0.71135 2.63192e-19)
(0.849337 0.660888 -3.6156e-19)
(0.776105 0.607033 -4.05966e-19)
(0.726502 0.560545 3.6387e-19)
(0.69529 0.523426 0)
(0.660984 0.483194 -1.11566e-19)
(0.588089 0.416813 -2.66017e-19)
(0.463932 0.320834 -3.1531e-19)
(0.311666 0.212224 -3.73422e-19)
(0.165049 0.110742 1.10349e-19)
(0.0567599 0.0372446 -6.48783e-20)
(0.00329026 0.00209821 2.70255e-22)
(0.232464 0.159596 0)
(1.06129 0.734659 0)
(1.25195 0.876135 2.53733e-21)
(1.27205 0.905504 0)
(1.22364 0.889699 3.20343e-21)
(1.15364 0.859645 3.67517e-20)
(1.07925 0.826544 0)
(1.00016 0.789437 2.38464e-20)
(0.916235 0.745945 4.3791e-19)
(0.828786 0.693361 -8.31184e-19)
(0.752681 0.636779 0)
(0.700911 0.58787 -2.34021e-19)
(0.668043 0.547966 -3.05088e-21)
(0.63139 0.502307 -2.43024e-21)
(0.557577 0.429209 2.84162e-19)
(0.436775 0.327934 -2.40894e-22)
(0.28982 0.213977 -8.03813e-19)
(0.149463 0.108427 2.37292e-19)
(0.0489105 0.0345702 7.01212e-20)
(0.00219545 0.0015039 0)
(0.233041 0.168347 -1.53513e-19)
(1.05373 0.768554 -7.32804e-20)
(1.24024 0.915594 -9.25631e-20)
(1.25826 0.945193 8.1399e-20)
(1.20917 0.928189 -1.00191e-20)
(1.13901 0.896813 0)
(1.06419 0.862418 6.60819e-20)
(0.984176 0.823973 -5.34132e-20)
(0.898714 0.779075 3.87071e-21)
(0.808818 0.724713 6.13447e-20)
(0.729686 0.665876 5.2479e-19)
(0.675435 0.61474 -8.19964e-20)
(0.640376 0.571185 -3.11711e-19)
(0.601062 0.518851 -1.29913e-19)
(0.526728 0.438765 1.54467e-19)
(0.409036 0.331854 -5.48972e-23)
(0.266669 0.212266 2.16456e-19)
(0.132826 0.103555 -5.10287e-19)
(0.0407024 0.030827 6.03128e-19)
(0.00103294 0.000780308 8.79387e-20)
(0.233494 0.176826 5.88644e-20)
(1.04655 0.800881 -4.16816e-20)
(1.22871 0.952721 6.23114e-21)
(1.24471 0.982457 5.54333e-20)
(1.19505 0.96435 8.92504e-21)
(1.1248 0.931819 -6.1008e-20)
(1.04964 0.89632 1.81416e-20)
(0.968807 0.856761 -2.21732e-19)
(0.881902 0.810741 -4.80335e-19)
(0.789572 0.754978 -4.9409e-19)
(0.707285 0.694439 0)
(0.650115 0.641133 -3.60231e-19)
(0.612203 0.592966 4.49229e-19)
(0.569924 0.532922 0)
(0.495469 0.445371 -3.30595e-19)
(0.380931 0.332047 1.97246e-19)
(0.243267 0.206861 -2.32542e-19)
(0.116476 0.0965358 -2.74442e-19)
(0.0329249 0.0264985 -4.85564e-19)
(-5.63706e-05 3.42081e-05 -3.78556e-19)
(0.23427 0.185166 -6.70865e-20)
(1.03961 0.831617 4.46081e-20)
(1.21741 0.987587 1.01057e-19)
(1.2315 1.01738 8.29482e-20)
(1.18136 0.998275 -1.50969e-20)
(1.1111 0.964746 -2.89505e-20)
(1.03569 0.9283 6.12349e-20)
(0.954132 0.887843 -2.26275e-19)
(0.865879 0.840969 -2.83809e-19)
(0.771178 0.784197 5.15793e-19)
(0.685615 0.722511 1.1507e-18)
(0.625031 0.667007 0)
(0.583507 0.613412 0)
(0.537818 0.544861 -1.49532e-19)
(0.463373 0.448801 0)
(0.352444 0.327615 4.24054e-19)
(0.220788 0.197042 4.99935e-19)
(0.102356 0.0874659 0)
(0.0268381 0.0220616 0)
(-0.000904194 -0.000620544 4.0659e-19)
(0.234688 0.193062 7.6927e-20)
(1.03294 0.86075 6.20542e-20)
(1.20641 1.02032 7.37684e-20)
(1.2187 1.05009 -8.24005e-20)
(1.16818 1.03007 -2.34767e-20)
(1.09796 0.995669 2.40458e-20)
(1.02238 0.958418 -8.29808e-20)
(0.940211 0.917248 -2.2372e-22)
(0.850723 0.869767 -5.02211e-21)
(0.753735 0.812379 -5.05713e-21)
(0.664822 0.750073 5.92179e-19)
(0.600306 0.692346 0)
(0.554369 0.632826 4.54398e-19)
(0.504534 0.55519 3.1866e-19)
(0.429591 0.449012 7.70815e-19)
(0.322915 0.31738 2.28206e-19)
(0.200367 0.180554 -2.69087e-19)
(0.094313 0.0740096 -1.58013e-19)
(0.0276355 0.0166093 0)
(0.000215545 -0.000480781 4.36653e-19)
(0.235402 0.200961 -1.74791e-19)
(1.0265 0.888379 0)
(1.19569 1.05096 8.82167e-20)
(1.20632 1.08068 -7.09112e-20)
(1.15555 1.05983 3.64459e-20)
(1.08542 1.02467 -1.54937e-20)
(1.00976 0.986729 1.55562e-19)
(0.927079 0.945014 -1.8958e-20)
(0.836472 0.897146 0)
(0.737324 0.839504 -5.66717e-19)
(0.645033 0.77706 -1.2847e-18)
(0.576104 0.717192 5.29251e-20)
(0.524986 0.651631 6.25983e-19)
(0.46992 0.564583 0)
(0.392943 0.446565 5.19857e-19)
(0.290121 0.300528 0)
(0.180359 0.152486 0)
(0.0963248 0.0433395 -1.70892e-19)
(0.0555399 -0.000719866 0)
(0.0284673 0.0118714 1.16961e-19)
(0.235732 0.208254 -1.96535e-19)
(1.02026 0.914835 0)
(1.18527 1.07973 1.4799e-19)
(1.19432 1.10939 0)
(1.14342 1.08782 -2.36172e-20)
(1.07342 1.05204 0)
(0.997769 1.01355 6.77453e-21)
(0.914639 0.971481 3.07515e-20)
(0.82301 0.923471 3.54258e-20)
(0.721782 0.865958 -6.20016e-19)
(0.626065 0.803852 3.83783e-20)
(0.552228 0.742153 4.26333e-19)
(0.495054 0.670716 6.103e-19)
(0.433171 0.573868 8.25284e-20)
(0.351482 0.442973 4.07228e-19)
(0.249345 0.278164 0)
(0.149337 0.109421 5.67408e-19)
(0.0796747 -0.00730136 -3.32302e-19)
(0.0435453 0.0457587 3.85103e-19)
(-0.0689516 0.435184 -4.53953e-19)
(0.23604 0.215346 1.63485e-19)
(1.01396 0.939895 2.50596e-19)
(1.17505 1.10694 0)
(1.18256 1.13665 5.07391e-21)
(1.13162 1.11462 7.24594e-20)
(1.06169 1.07845 -1.17958e-20)
(0.986094 1.03968 5.05345e-20)
(0.902487 0.997589 0)
(0.809808 0.949835 2.32382e-19)
(0.706447 0.893046 -3.20899e-20)
(0.607004 0.831884 0)
(0.527458 0.768907 0)
(0.462799 0.691759 5.45793e-19)
(0.392145 0.583978 -2.55121e-19)
(0.302045 0.440344 -4.12071e-19)
(0.195762 0.254219 0)
(0.0870282 0.11 2.85831e-19)
(0.00492815 0.439927 -3.30664e-19)
(0.0340524 1.88731 -1.80672e-19)
(0.0634484 2.81018 -2.31291e-19)
(0.236158 0.221592 -1.23659e-19)
(1.00779 0.963744 -3.23086e-19)
(1.16504 1.13258 8.88176e-20)
(1.17104 1.16234 7.19002e-20)
(1.12016 1.13998 0)
(1.05031 1.10361 -1.95884e-20)
(0.974932 1.0648 6.37953e-20)
(0.890811 1.02291 -1.45724e-20)
(0.797136 0.975723 3.47092e-20)
(0.691697 0.920143 5.88273e-19)
(0.588428 0.860425 6.46153e-19)
(0.502742 0.79706 4.75388e-19)
(0.429164 0.714948 5.47984e-19)
(0.348538 0.593911 -5.97858e-19)
(0.250391 0.442039 -6.21289e-19)
(0.130307 0.290886 0)
(0.0458382 0.829388 0)
(0.102755 2.54935 1.57449e-19)
(0.103695 3.20034 0)
(0.106711 3.38781 3.74982e-19)
(0.238839 0.227279 0)
(1.00235 0.986573 0)
(1.15501 1.15648 0)
(1.15953 1.18627 2.20635e-20)
(1.10873 1.16368 6.7527e-20)
(1.03906 1.12741 -2.7835e-20)
(0.964176 1.08882 3.88996e-20)
(0.879569 1.04734 -1.40299e-20)
(0.784961 1.00101 2.86394e-19)
(0.677564 0.947102 -9.4206e-21)
(0.570477 0.88932 1.2725e-18)
(0.47842 0.826503 -5.48384e-20)
(0.394397 0.741488 6.61434e-20)
(0.304988 0.601323 8.63632e-20)
(0.187762 0.455886 -4.42067e-21)
(0.102941 0.960911 1.8357e-21)
(0.142371 2.71689 -8.27832e-19)
(0.150761 3.29204 -3.10823e-19)
(0.139242 3.42617 1.60095e-19)
(0.126219 3.44848 -1.77612e-19)
(0.156606 0.183734 7.37627e-20)
(0.991665 1.01115 0)
(1.14467 1.17889 -1.80929e-19)
(1.14856 1.20891 -1.96539e-19)
(1.09816 1.18652 1.64892e-19)
(1.02886 1.1505 3.45164e-20)
(0.953801 1.11176 -3.71077e-20)
(0.868887 1.07098 1.4793e-19)
(0.773459 1.02584 -2.32446e-19)
(0.664325 0.97408 0)
(0.553541 0.918732 6.22628e-19)
(0.455075 0.857174 -3.86618e-19)
(0.359191 0.774485 0)
(0.25587 0.60857 8.01686e-20)
(0.149974 0.767894 1.92842e-19)
(0.158148 2.48719 -2.25294e-19)
(0.215761 3.32335 2.52725e-19)
(0.19523 3.43983 1.35433e-19)
(0.162215 3.46142 1.52388e-19)
(0.140137 3.4717 2.40223e-19)
(0.282293 0.266208 -1.34208e-19)
(0.976734 1.02134 0)
(1.12672 1.20443 1.97685e-19)
(1.13411 1.24038 2.19032e-19)
(1.08119 1.2197 -1.8654e-19)
(1.01125 1.1841 -5.84953e-20)
(0.935271 1.14696 2.07476e-20)
(0.84989 1.10746 1.16791e-20)
(0.753214 1.06455 2.17787e-19)
(0.64154 1.01688 5.00418e-19)
(0.525613 0.966866 3.48225e-20)
(0.416346 0.908659 3.41547e-19)
(0.296996 0.818927 6.14513e-20)
(0.215211 0.942528 -7.84487e-20)
(0.231783 2.33705 -1.78827e-19)
(0.293147 3.3266 1.69731e-19)
(0.276246 3.46985 -1.86581e-19)
(0.240538 3.49156 -1.07708e-19)
(0.20311 3.51916 -8.80335e-20)
(0.151494 3.513 -1.04254e-20)
(0.270266 0.263126 0)
(0.974599 1.04425 5.79679e-20)
(1.11867 1.22802 -4.10458e-20)
(1.12382 1.26405 -2.6389e-20)
(1.07067 1.24299 -1.30763e-19)
(1.00075 1.20761 6.20492e-20)
(0.924472 1.17063 -5.05293e-21)
(0.838938 1.13197 1.02085e-20)
(0.741812 1.09057 -2.2445e-19)
(0.629008 1.0458 -1.39947e-20)
(0.5104 0.999643 -1.11685e-18)
(0.396457 0.94519 4.86787e-20)
(0.283962 0.885743 -5.77867e-20)
(0.256555 1.48309 -7.22004e-20)
(0.331893 3.09745 1.79567e-20)
(0.352036 3.46794 5.71637e-22)
(0.311489 3.52434 2.60485e-19)
(0.273952 3.55064 1.23904e-19)
(0.225056 3.57406 -2.41098e-20)
(0.165925 3.56999 -4.56614e-20)
(0.253916 0.261528 1.47774e-19)
(0.970885 1.06983 3.96678e-19)
(1.11019 1.25374 -1.17997e-19)
(1.11296 1.28912 -9.98257e-20)
(1.05957 1.26764 0)
(0.98983 1.23229 1.18437e-19)
(0.913549 1.19556 7.90178e-21)
(0.828138 1.15772 8.62724e-21)
(0.730883 1.11791 -2.50933e-20)
(0.617449 1.07619 -4.45197e-19)
(0.496931 1.03406 -5.11748e-19)
(0.380321 0.983651 -3.9633e-19)
(0.282008 1.01517 -4.35269e-19)
(0.325368 2.19335 4.50208e-19)
(0.418439 3.37651 3.7196e-19)
(0.39628 3.52607 0)
(0.350453 3.57095 0)
(0.312229 3.61175 -1.75096e-20)
(0.261025 3.6721 0)
(0.178093 3.6482 -1.04885e-20)
(0.243092 0.2634 -2.2248e-19)
(0.965191 1.09652 -3.38186e-19)
(1.1003 1.28069 0)
(1.10077 1.31498 6.08046e-21)
(1.04722 1.29289 -1.44233e-19)
(0.977797 1.25747 1.95792e-19)
(0.901853 1.22103 1.40597e-20)
(0.816766 1.1839 3.69421e-21)
(0.719619 1.1456 -1.52524e-19)