/*--------------------------------*- C++ -*----------------------------------*\
| =========                 |                                                 |
| \\      /  F ield         | OpenFOAM: The Open Source CFD Toolbox           |
|  \\    /   O peration     | Version:  2112                                  |
|   \\  /    A nd           | Website:  www.openfoam.com                      |
|    \\/     M anipulation  |                                                 |
\*---------------------------------------------------------------------------*/
FoamFile
{
    version     2.0;
    format      ascii;
    arch        "LSB;label=32;scalar=64";
    class       volScalarField;
    location    "10";
    object      Ma;
}
// * * * * * * * * * * * * * * * * * * * * * * * * * * * * * * * * * * * * * //

dimensions      [0 0 0 0 0 0 0];

internalField   nonuniform List<scalar> 
5250
(
2.99998
2.99995
2.9998
2.99961
2.99881
2.99769
2.99319
2.98644
2.96217
2.91572
2.78944
2.47081
1.83981
0.839117
0.354857
0.346327
0.35544
0.34373
0.306229
0.252805
0.20575
0.165024
0.123119
0.0769036
0.0430762
2.99998
2.99995
2.99981
2.99962
2.99883
2.99773
2.99329
2.98665
2.96287
2.91641
2.79223
2.47443
1.85123
0.848355
0.361931
0.348208
0.357128
0.345595
0.3087
0.256353
0.210436
0.171039
0.131409
0.0905932
0.0666472
2.99998
2.99995
2.99982
2.99963
2.99888
2.99781
2.99359
2.98706
2.96439
2.91771
2.798
2.48181
1.87576
0.868558
0.377904
0.352689
0.361437
0.350776
0.315797
0.266062
0.222872
0.186964
0.152653
0.120833
0.105619
2.99998
2.99995
2.99983
2.99965
2.99893
2.99792
2.99397
2.98761
2.96623
2.92012
2.80554
2.49479
1.91082
0.898836
0.40183
0.358222
0.367144
0.358495
0.326638
0.280746
0.241322
0.210226
0.182294
0.158247
0.148194
2.99999
2.99996
2.99984
2.99967
2.999
2.99804
2.99437
2.98828
2.96828
2.92378
2.81462
2.51398
1.95572
0.941032
0.434286
0.364339
0.374228
0.368877
0.340563
0.299174
0.264563
0.23866
0.216819
0.199322
0.192882
2.99999
2.99996
2.99985
2.9997
2.99907
2.99818
2.99478
2.98906
2.97052
2.92878
2.82627
2.54004
2.01427
1.00145
0.478142
0.372243
0.383899
0.382866
0.358157
0.321762
0.292093
0.271925
0.256279
0.244751
0.242161
2.99999
2.99996
2.99986
2.99972
2.99915
2.99832
2.9952
2.98992
2.97285
2.93441
2.83985
2.57476
2.08546
1.08821
0.535418
0.383399
0.397592
0.40151
0.379941
0.349044
0.32445
0.309763
0.300768
0.296437
0.299598
2.99999
2.99997
2.99987
2.99975
2.99923
2.99848
2.99564
2.99089
2.97537
2.94078
2.85461
2.61515
2.16424
1.20448
0.605605
0.399042
0.416272
0.425215
0.406307
0.38041
0.361466
0.353147
0.351441
0.356174
0.37023
2.99999
2.99997
2.99989
2.99977
2.9993
2.99863
2.99601
2.99189
2.97771
2.94835
2.87099
2.66228
2.25727
1.35666
0.691024
0.426109
0.444948
0.456887
0.439798
0.417974
0.403751
0.401372
0.409091
0.428788
0.466085
2.99999
2.99998
2.99991
2.99981
2.99941
2.99884
2.99669
2.99306
2.98134
2.95566
2.89027
2.71227
2.36219
1.54991
0.791885
0.470894
0.487515
0.497213
0.482227
0.463716
0.453098
0.455795
0.476461
0.522877
0.624581
3
2.99997
2.99993
2.99978
2.99956
2.99871
2.99742
2.9926
2.98476
2.95854
2.90499
2.76422
2.4275
1.726
0.872422
0.516376
0.529389
0.537857
0.528184
0.512902
0.506476
0.516933
0.554683
0.636703
0.8024
3
2.99998
2.99993
2.99985
2.99954
2.99909
2.99735
2.99472
2.98512
2.96837
2.91627
2.79575
2.52344
1.88397
1.00282
0.576226
0.563855
0.572277
0.571503
0.561774
0.560874
0.579227
0.62905
0.724094
0.884973
3
2.99999
2.99994
2.99987
2.9996
2.99921
2.99765
2.99544
2.98669
2.97312
2.92648
2.8289
2.5901
2.01648
1.15858
0.657401
0.583334
0.596301
0.605414
0.606417
0.612989
0.637428
0.690572
0.778519
0.907724
3
2.99999
2.99995
2.99989
2.99967
2.99935
2.99807
2.99623
2.98927
2.97757
2.94013
2.85468
2.65848
2.13727
1.33265
0.74509
0.597078
0.613194
0.63241
0.644822
0.658982
0.68669
0.736912
0.812712
0.918595
3
2.99999
2.99996
2.99991
2.99972
2.99945
2.99836
2.99682
2.99066
2.9814
2.94858
2.88344
2.71502
2.29449
1.54457
0.8518
0.623112
0.637078
0.658073
0.679246
0.698691
0.727845
0.773737
0.837571
0.924469
3
3
2.99997
2.99993
2.99977
2.99955
2.99866
2.99741
2.99241
2.98495
2.95779
2.90924
2.7669
2.45538
1.7799
0.975947
0.672533
0.673703
0.690805
0.712315
0.733409
0.761355
0.804622
0.859083
0.929748
3
3
2.99998
2.99994
2.99982
2.99965
2.99894
2.99795
2.99398
2.98808
2.96683
2.92701
2.81792
2.54392
1.99953
1.09061
0.728732
0.704747
0.722363
0.741903
0.762475
0.788321
0.82581
0.875438
0.933569
3
3
2.99998
2.99996
2.99986
2.99973
2.99918
2.99841
2.99544
2.99069
2.97479
2.94134
2.85533
2.62421
2.18683
1.28442
0.829862
0.729495
0.743732
0.76166
0.784195
0.809467
0.841723
0.884415
0.935393
3.00001
3
2.99999
2.99997
2.9999
2.99979
2.99937
2.99876
2.99643
2.99276
2.98024
2.95505
2.88701
2.70931
2.35605
1.564
0.970876
0.769937
0.766087
0.779507
0.80089
0.824942
0.85311
0.889006
0.931097
3.00001
3
3
2.99997
2.99994
2.9998
2.99959
2.99881
2.99764
2.99323
2.98621
2.9622
2.91686
2.78742
2.50841
1.86237
1.12375
0.830036
0.797674
0.804253
0.8206
0.840649
0.864452
0.891354
0.921912
3.00001
3
3
2.99998
2.99995
2.99985
2.9997
2.9991
2.99824
2.99488
2.98974
2.97183
2.93719
2.84369
2.60891
2.12446
1.29382
0.900218
0.820818
0.82396
0.835841
0.853251
0.870995
0.888838
0.909596
3.00001
3
3
2.99999
2.99996
2.99991
2.99973
2.99945
2.99841
2.99681
2.99112
2.98108
2.95006
2.87908
2.71273
2.29435
1.54525
1.02051
0.856565
0.843179
0.848003
0.859131
0.869833
0.880246
0.894727
3.00001
3.00001
3
2.99999
2.99998
2.99992
2.99984
2.99952
2.99904
2.99727
2.99447
2.9849
2.96691
2.91522
2.79113
2.51817
1.92278
1.1746
0.903666
0.867108
0.862061
0.862755
0.864807
0.86946
0.879387
3.00001
3.00001
3
3
2.99998
2.99996
2.99986
2.99971
2.99916
2.99832
2.9953
2.99013
2.97378
2.93791
2.8488
2.61392
2.15962
1.32886
0.954802
0.870324
0.859605
0.856348
0.85593
0.859009
0.867139
3.00001
3.00001
3
3
2.99999
2.99997
2.99989
2.99978
2.99935
2.99874
2.99629
2.99271
2.97966
2.95597
2.88712
2.71606
2.37061
1.60179
1.06471
0.877566
0.848023
0.844312
0.843321
0.846722
0.856429
3.00001
3.00001
3.00001
3
2.99999
2.99998
2.99992
2.99984
2.99952
2.99906
2.99726
2.99463
2.98458
2.96851
2.91578
2.80572
2.53194
1.95849
1.20912
0.897445
0.836366
0.829227
0.827425
0.83338
0.848257
3.00001
3.00001
3.00001
3
3
2.99998
2.99996
2.99986
2.99972
2.99918
2.99838
2.99543
2.99047
2.97453
2.94017
2.85321
2.62527
2.17802
1.34984
0.926762
0.803851
0.795344
0.799735
0.815326
0.83949
3.00001
3.00001
3.00001
3
3
2.99999
2.99997
2.99989
2.99979
2.99935
2.99875
2.99632
2.99276
2.97975
2.9562
2.88748
2.71677
2.37158
1.5956
1.00071
0.774049
0.756552
0.768632
0.794112
0.828454
3.00001
3.00001
3.00001
3
3
2.99999
2.99998
2.99992
2.99983
2.9995
2.99902
2.99712
2.99433
2.98384
2.96632
2.91081
2.78743
2.49838
1.87808
1.07341
0.739699
0.71091
0.735544
0.772802
0.816418
3.00001
3.00001
3.00001
3.00001
3
3
2.99998
2.99995
2.99984
2.99968
2.99907
2.99815
2.99481
2.98891
2.97057
2.92849
2.82713
2.55056
2.02683
1.11863
0.702924
0.641477
0.68171
0.735651
0.793557
3.00001
3.00001
3.00001
3.00001
3
3
2.99998
2.99996
2.99987
2.99973
2.99919
2.99843
2.99544
2.99072
2.9746
2.94094
2.8531
2.61638
2.16536
1.24666
0.710222
0.562411
0.61492
0.68835
0.758636
3.00001
3.00001
3.00001
3.00001
3
3
2.99999
2.99997
2.99989
2.99978
2.99935
2.99871
2.99636
2.99221
2.97925
2.94945
2.87594
2.67044
2.27513
1.40439
0.738345
0.496854
0.561803
0.649451
0.721373
3.00001
3.00001
3.00001
3.00001
3
3
2.99999
2.99996
2.99992
2.99976
2.99951
2.99857
2.99712
2.99196
2.98258
2.95416
2.88712
2.73039
2.32317
1.57367
0.753382
0.450284
0.529295
0.622265
0.688941
3.00001
3.00001
3.00001
3.00001
3
3
2.99999
2.99998
2.99991
2.99982
2.99947
2.99896
2.99699
2.99382
2.98321
2.96133
2.90248
2.74868
2.43551
1.71519
0.808518
0.42993
0.507781
0.592788
0.65567
3.00001
3.00001
3.00001
3.00001
3
3
2.99999
2.99998
2.99992
2.99983
2.99949
2.99901
2.99705
2.99424
2.98334
2.96541
2.90725
2.77606
2.47315
1.78787
0.865351
0.428724
0.488577
0.5583
0.621483
3.00001
3.00001
3.00001
3.00001
3.00001
3
2.99999
2.99998
2.99993
2.99985
2.99954
2.9991
2.99736
2.99474
2.98507
2.96806
2.91489
2.79075
2.50576
1.84323
0.925234
0.447908
0.467815
0.529194
0.593516
3.00001
3.00001
3.00001
3.00001
3.00001
3
3
2.99998
2.99995
2.99983
2.99967
2.99901
2.99803
2.99447
2.98799
2.96829
2.92148
2.81149
2.50099
1.92487
0.930768
0.455768
0.437471
0.498249
0.563249
3.00001
3.00001
3.00001
3.00001
3.00001
3
3
2.99998
2.99995
2.99985
2.9997
2.99909
2.99818
2.99492
2.98888
2.9707
2.92696
2.82388
2.52836
1.98063
0.982639
0.47708
0.415233
0.47256
0.538243
3.00001
3.00001
3.00001
3.00001
3.00001
3
3
2.99999
2.99994
2.99988
2.99963
2.99926
2.99783
2.99564
2.98769
2.97339
2.9291
2.8239
2.58679
1.98292
1.10661
0.518743
0.4113
0.463691
0.529008
3.00001
3.00001
3.00001
3.00001
3.00001
3
3
2.99999
2.99994
2.99989
2.99965
2.99931
2.99792
2.99594
2.9882
2.9754
2.93293
2.83655
2.61221
2.03542
1.17079
0.534711
0.389741
0.450607
0.522233
3.00001
3.00001
3.00001
3.00001
3.00001
3
3
2.99999
2.99995
2.9999
2.99968
2.99937
2.99816
2.99625
2.98964
2.97661
2.93927
2.84505
2.63795
2.06881
1.22201
0.548647
0.364429
0.436365
0.515867
3.00001
3.00001
3.00001
3.00001
3.00001
3
3
2.99999
2.99997
2.99988
2.99977
2.9993
2.99859
2.99609
2.99126
2.9772
2.94272
2.86145
2.62387
2.17905
1.2387
0.574234
0.345664
0.428919
0.515472
3.00001
3.00001
3.00001
3.00001
3.00001
3
3
2.99999
2.99997
2.99989
2.99977
2.9993
2.99864
2.99602
2.99182
2.97755
2.94694
2.86709
2.64802
2.22239
1.30435
0.598653
0.334101
0.429411
0.523483
3.00001
3.00001
3.00001
3.00001
3.00001
3
3
2.99999
2.99997
2.9999
2.99979
2.99938
2.99875
2.9965
2.99233
2.97973
2.94953
2.87648
2.66582
2.26083
1.36863
0.613858
0.323964
0.432184
0.532495
3.00001
3.00001
3.00001
3.00001
3.00001
3
3
2.99999
2.99996
2.99992
2.99974
2.99948
2.99847
2.99691
2.99136
2.98106
2.95005
2.87461
2.70316
2.2317
1.44939
0.602825
0.288834
0.412222
0.517882
3.00001
3.00001
3.00001
3.00001
3.00001
3
3
2.99999
2.99996
2.99992
2.99974
2.99948
2.99844
2.99697
2.99099
2.98188
2.94951
2.88302
2.71258
2.27286
1.49153
0.602064
0.260509
0.394172
0.501603
3.00001
3.00001
3.00001
3.00001
3.00001
3
3
2.99999
2.99996
2.99992
2.99975
2.9995
2.99851
2.99706
2.99151
2.98234
2.95225
2.88541
2.72312
2.29524
1.52761
0.614939
0.249367
0.388867
0.497369
3.00001
3.00001
3.00001
3.00001
3.00001
3
3
2.99999
2.99997
2.99991
2.99982
2.99946
2.9989
2.99698
2.99325
2.98256
2.95658
2.89494
2.71793
2.37362
1.57843
0.678152
0.289023
0.417861
0.524363
3.00001
3.00001
3.00001
3.00001
3.00001
3
3
2.99999
2.99996
2.99992
2.99975
2.99951
2.99854
2.99713
2.99164
2.98294
2.95311
2.89211
2.73369
2.3402
1.58794
0.640649
0.248033
0.393956
0.504088
3.00001
3.00001
3.00001
3.00001
3.00001
3
3
2.99999
2.99996
2.99992
2.99975
2.99951
2.99852
2.99713
2.99154
2.98308
2.95252
2.89502
2.73402
2.35445
1.59936
0.644892
0.245047
0.388708
0.49726
0.950236
0.739462
0.257541
0.224935
0.282607
0.370609
0.400756
0.412704
0.423439
0.438722
0.451375
0.456205
0.455259
0.45167
0.446603
0.438509
0.426455
0.410904
0.392288
0.371329
0.34846
0.324163
0.298652
0.272128
0.24432
0.216285
0.187954
0.159761
0.131593
0.103775
0.0765143
0.0493864
0.0250285
0.0167171
0.0392876
0.0644603
0.0899137
0.114832
0.138837
0.162358
0.184381
0.205749
0.228143
0.251183
0.27324
0.294603
0.315398
0.335789
0.355706
0.375375
0.394559
0.413526
0.432059
0.450382
0.468306
0.486006
0.503385
0.520493
0.537324
0.553881
0.57016
0.58623
0.60199
0.617575
0.632856
0.647948
0.662755
0.677358
0.691683
0.705796
0.719627
0.733247
0.746581
0.759699
0.772548
0.785156
0.797513
0.809609
0.821428
0.832985
0.844213
0.855132
0.865704
0.875843
0.8856
0.894831
0.903501
0.911582
0.91884
0.925298
0.930697
0.934821
0.937492
0.938948
0.939936
0.940341
0.939636
0.937742
0.934801
0.937763
0.952134
0.826965
0.574872
0.420051
0.299005
0.167865
0.0620151
0.0591249
0.114273
0.15985
0.187666
0.193656
0.187047
0.180596
0.175165
0.1658
0.152801
0.137869
0.120392
0.101114
0.0807809
0.0602395
0.0412766
0.030143
0.0360204
0.0547623
0.0767347
0.100348
0.124034
0.147811
0.171692
0.194984
0.217949
0.239757
0.261288
0.282564
0.303996
0.324995
0.345794
0.36601
0.385459
0.403995
0.423006
0.442713
0.462019
0.480523
0.498569
0.516248
0.533688
0.550772
0.567656
0.584152
0.60053
0.616513
0.632388
0.647903
0.663278
0.678339
0.693235
0.707843
0.722284
0.736449
0.75045
0.76419
0.77776
0.791092
0.804243
0.817178
0.829916
0.84245
0.854773
0.866894
0.87879
0.890499
0.901952
0.913246
0.924257
0.935103
0.94568
0.956014
0.966126
0.975891
0.985409
0.994542
1.0033
1.01165
1.01945
1.02673
1.03328
1.03906
1.04392
1.04759
1.04985
1.05102
1.05185
1.05214
1.05135
1.04949
1.04639
1.04903
0.966792
0.938726
0.83513
0.741927
0.643231
0.537365
0.447843
0.362795
0.292259
0.242275
0.206377
0.18111
0.160196
0.142244
0.140998
0.148156
0.158897
0.171538
0.186008
0.20191
0.218931
0.236837
0.25532
0.274479
0.293345
0.312622
0.332019
0.351897
0.371605
0.391419
0.410936
0.430138
0.448906
0.467128
0.485055
0.502801
0.520451
0.537861
0.555072
0.571907
0.588138
0.603476
0.618996
0.635094
0.651424
0.66692
0.682132
0.696869
0.71163
0.725997
0.740378
0.754397
0.768389
0.782049
0.795667
0.80898
0.822233
0.835191
0.848085
0.860696
0.873241
0.88552
0.897733
0.909698
0.921585
0.933244
0.944799
0.956154
0.967354
0.978396
0.989224
0.999942
1.01041
1.02078
1.03091
1.0409
1.0507
1.06028
1.06971
1.07887
1.08786
1.09657
1.10501
1.11323
1.12106
1.12858
1.1356
1.14208
1.14799
1.15302
1.15727
1.16038
1.16208
1.16293
1.16352
1.16365
1.16259
1.16063
1.15711
1.15932
0.985962
1.00636
0.974857
0.926001
0.862762
0.793244
0.721483
0.656863
0.602588
0.562715
0.53469
0.513983
0.500041
0.491255
0.48717
0.486623
0.48805
0.491743
0.497626
0.505284
0.514817
0.525534
0.537455
0.549901
0.562784
0.575887
0.589306
0.602869
0.616431
0.629936
0.643266
0.656422
0.66924
0.681801
0.694052
0.706114
0.718167
0.730153
0.742178
0.754053
0.765604
0.776512
0.787592
0.799303
0.811661
0.823569
0.835281
0.846726
0.858214
0.86959
0.881009
0.892326
0.903645
0.914858
0.92606
0.937149
0.94822
0.95917
0.970098
0.9809
0.991674
1.00232
1.01294
1.02343
1.03387
1.0442
1.05443
1.06457
1.07457
1.08449
1.09426
1.1039
1.11345
1.12279
1.13209
1.14115
1.15012
1.15897
1.16767
1.17633
1.18471
1.19302
1.20099
1.2087
1.21608
1.22297
1.22954
1.23543
1.24082
1.24543
1.2491
1.25178
1.25299
1.2536
1.2539
1.25379
1.25223
1.24994
1.24576
1.24725
0.996198
1.03439
1.04108
1.021
0.988199
0.9453
0.900107
0.856592
0.823544
0.798705
0.781934
0.768882
0.760291
0.755279
0.755198
0.757788
0.760303
0.761907
0.764172
0.767509
0.771738
0.776508
0.781709
0.787147
0.792729
0.798424
0.804247
0.810193
0.81625
0.822385
0.828615
0.834887
0.84123
0.847596
0.854095
0.860736
0.867712
0.874902
0.882533
0.890281
0.898069
0.905452
0.913135
0.921476
0.930737
0.940001
0.949218
0.958326
0.967505
0.97676
0.986108
0.995544
1.00503
1.01457
1.02414
1.0337
1.0433
1.05286
1.06246
1.07202
1.08157
1.09112
1.1006
1.1101
1.11951
1.12891
1.13825
1.1475
1.15673
1.16579
1.17487
1.18376
1.19263
1.20142
1.21014
1.21889
1.22746
1.23603
1.2443
1.25249
1.2604
1.26809
1.27559
1.28267
1.28957
1.29594
1.30196
1.30745
1.31226
1.31648
1.31966
1.32182
1.32271
1.32315
1.32319
1.32268
1.32052
1.31778
1.31311
1.31379
0.997432
1.04336
1.06422
1.06547
1.05127
1.02891
1.00372
0.980068
0.962608
0.95165
0.945619
0.943066
0.94188
0.941836
0.942466
0.944727
0.947057
0.948197
0.947236
0.946837
0.94716
0.947657
0.948474
0.949302
0.950149
0.951058
0.95206
0.953252
0.954632
0.956267
0.958165
0.960327
0.962794
0.965504
0.968598
0.971977
0.975901
0.980182
0.98511
0.990369
0.995767
1.00101
1.0065
1.01275
1.01988
1.02742
1.03501
1.04264
1.05036
1.0582
1.06622
1.07437
1.08268
1.09111
1.09961
1.10824
1.11687
1.12564
1.13436
1.14321
1.15202
1.16089
1.16977
1.1786
1.18749
1.19628
1.20509
1.21381
1.22247
1.23111
1.2396
1.24819
1.25663
1.26514
1.27346
1.28169
1.28982
1.29773
1.3056
1.31316
1.32065
1.3278
1.33477
1.34144
1.34773
1.35374
1.35915
1.36418
1.36845
1.37207
1.37478
1.37623
1.37678
1.377
1.37689
1.3758
1.37304
1.3697
1.36474
1.36489
0.991825
1.03836
1.06691
1.07854
1.07704
1.06839
1.05783
1.04851
1.04375
1.04322
1.0465
1.05107
1.05606
1.05996
1.06258
1.0646
1.06751
1.06964
1.06955
1.06756
1.06543
1.0637
1.06205
1.06053
1.0589
1.05739
1.05582
1.05459
1.05341
1.05275
1.05223
1.05231
1.05266
1.0535
1.05472
1.05636
1.05855
1.06118
1.06449
1.0682
1.07214
1.07598
1.08013
1.08496
1.09069
1.09693
1.10339
1.11003
1.11676
1.1237
1.13075
1.13806
1.14549
1.15313
1.1609
1.16879
1.1768
1.18487
1.19305
1.20127
1.20957
1.21793
1.2263
1.23475
1.24314
1.2516
1.25997
1.26835
1.27674
1.28509
1.2935
1.30174
1.30999
1.31802
1.32609
1.33391
1.34172
1.3493
1.35676
1.36405
1.37108
1.37796
1.38446
1.39078
1.39664
1.40215
1.40717
1.41157
1.41542
1.41834
1.42043
1.42125
1.42155
1.42152
1.42106
1.41925
1.41597
1.41231
1.40721
1.40718
0.984091
1.0259
1.05392
1.07181
1.07975
1.08144
1.08178
1.08351
1.08845
1.09619
1.10577
1.11617
1.12546
1.13349
1.13875
1.14221
1.14466
1.14746
1.14897
1.14834
1.14555
1.14276
1.13999
1.13745
1.13473
1.13214
1.12942
1.12693
1.12447
1.12243
1.12057
1.11925
1.1182
1.11774
1.11757
1.11804
1.11894
1.12037
1.12242
1.12506
1.12787
1.13077
1.13391
1.13781
1.1425
1.14783
1.15351
1.15949
1.16569
1.17206
1.17867
1.18543
1.19245
1.19961
1.20697
1.21447
1.22207
1.22984
1.23763
1.24558
1.25354
1.26161
1.2697
1.27782
1.286
1.2941
1.30232
1.31048
1.31869
1.32678
1.33486
1.34289
1.35082
1.35874
1.36648
1.37421
1.38172
1.38918
1.39641
1.40347
1.41033
1.41687
1.42322
1.42911
1.43473
1.43976
1.44436
1.44827
1.45148
1.45387
1.45512
1.45557
1.45567
1.45548
1.45433
1.45166
1.44803
1.44409
1.43914
1.43888
0.971974
1.00789
1.0355
1.05421
1.06699
1.07764
1.08713
1.09736
1.10944
1.12307
1.1375
1.15149
1.16439
1.17496
1.18331
1.18872
1.19265
1.19541
1.19819
1.19976
1.19947
1.19712
1.19458
1.19162
1.18881
1.18576
1.18285
1.17979
1.17697
1.17417
1.17177
1.1696
1.16794
1.16664
1.16588
1.16554
1.16576
1.16652
1.16788
1.16985
1.17208
1.17436
1.17698
1.18022
1.18429
1.18887
1.19393
1.19935
1.20502
1.21099
1.2171
1.22349
1.23003
1.23679
1.24374
1.25082
1.2581
1.26544
1.27299
1.28057
1.28831
1.29609
1.30396
1.31188
1.31981
1.32784
1.33579
1.34375
1.35166
1.3595
1.36736
1.37507
1.38284
1.3904
1.398
1.40537
1.4127
1.41983
1.42681
1.43358
1.44008
1.44637
1.45224
1.45782
1.46283
1.46745
1.47134
1.47465
1.47709
1.4786
1.47917
1.4793
1.47917
1.4784
1.47626
1.47296
1.46908
1.46532
1.46068
1.46056
0.954977
0.985319
1.01171
1.03306
1.05092
1.06676
1.0825
1.09907
1.11627
1.1336
1.15096
1.16728
1.18222
1.19516
1.20575
1.21384
1.21989
1.22453
1.228
1.23083
1.23295
1.23355
1.23239
1.23005
1.22734
1.22448
1.22156
1.21858
1.21567
1.21282
1.21019
1.20779
1.2058
1.20417
1.20302
1.20229
1.20209
1.20239
1.20333
1.20487
1.20665
1.20856
1.21076
1.21357
1.21715
1.22119
1.2258
1.23074
1.23613
1.24171
1.24761
1.25369
1.25998
1.26649
1.27313
1.28003
1.28699
1.29419
1.30146
1.3089
1.31642
1.32403
1.33177
1.33952
1.34738
1.35514
1.363
1.37074
1.37854
1.38624
1.39393
1.40155
1.40908
1.41656
1.42388
1.43115
1.4382
1.44517
1.45184
1.45839
1.4646
1.47054
1.47611
1.48119
1.48584
1.48979
1.4932
1.49569
1.49746
1.4981
1.49829
1.49822
1.4977
1.49599
1.49292
1.48962
1.48568
1.4826
1.47841
1.47876
0.93435
0.960535
0.985998
1.01005
1.03241
1.05371
1.07436
1.09464
1.11483
1.13471
1.15368
1.17156
1.18787
1.20243
1.21501
1.22562
1.23412
1.24101
1.24642
1.2508
1.254
1.2565
1.25792
1.25792
1.25636
1.25421
1.25178
1.24916
1.24659
1.24392
1.24151
1.23919
1.23729
1.2356
1.2344
1.23354
1.23318
1.23324
1.23398
1.23519
1.23675
1.23835
1.24026
1.24277
1.2459
1.24964
1.25379
1.25848
1.2635
1.26888
1.27451
1.28036
1.28645
1.29267
1.29913
1.3057
1.31249
1.31939
1.32645
1.33365
1.34094
1.34839
1.35586
1.36344
1.37096
1.37857
1.38613
1.3937
1.40126
1.40874
1.41624
1.42359
1.43097
1.43814
1.44531
1.45224
1.45908
1.46567
1.47204
1.47817
1.48396
1.48945
1.49443
1.49901
1.50289
1.50625
1.50872
1.5105
1.51119
1.51138
1.51129
1.51086
1.50912
1.50675
1.50319
1.50016
1.49657
1.49423
1.49074
1.49144
0.914312
0.93753
0.962786
0.988514
1.01428
1.03919
1.06337
1.08645
1.10835
1.12919
1.14903
1.16754
1.18488
1.20062
1.21495
1.22747
1.23835
1.2475
1.25535
1.26176
1.26708
1.27116
1.27422
1.27634
1.27757
1.27725
1.2759
1.27421
1.27215
1.26979
1.26767
1.26555
1.26381
1.26216
1.26095
1.25996
1.25944
1.25933
1.25979
1.2608
1.26213
1.26347
1.26517
1.2673
1.27018
1.27351
1.27737
1.28169
1.2864
1.29153
1.29687
1.30257
1.30836
1.31445
1.32063
1.32706
1.33364
1.34037
1.34733
1.35435
1.36164
1.36889
1.3763
1.38367
1.39112
1.39857
1.40602
1.41352
1.4209
1.42838
1.43567
1.44303
1.45018
1.45734
1.46427
1.4711
1.4777
1.48406
1.49016
1.49594
1.50136
1.50631
1.5108
1.51465
1.5179
1.52033
1.52204
1.52271
1.52288
1.52279
1.52226
1.5208
1.51799
1.51515
1.51175
1.50913
1.50633
1.5047
1.5021
1.5032
0.896038
0.918125
0.943836
0.97106
0.998577
1.02545
1.0511
1.07542
1.09844
1.11992
1.1402
1.15928
1.17718
1.19398
1.20953
1.22383
1.23661
1.24799
1.25789
1.26662
1.27399
1.28027
1.28531
1.2892
1.29191
1.29382
1.29466
1.29454
1.29352
1.29188
1.29015
1.28829
1.28674
1.28515
1.28399
1.28291
1.28239
1.28208
1.28244
1.28331
1.28444
1.28575
1.28724
1.28932
1.29198
1.29516
1.29882
1.30292
1.3075
1.31241
1.31772
1.32324
1.32907
1.33504
1.34124
1.34757
1.35405
1.3607
1.36743
1.37438
1.38133
1.38841
1.39547
1.40263
1.40978
1.41698
1.42418
1.43137
1.43857
1.44568
1.45279
1.45976
1.4667
1.47347
1.48012
1.48657
1.49278
1.49875
1.5044
1.50972
1.51455
1.51895
1.52268
1.52585
1.52816
1.52979
1.53038
1.53047
1.53032
1.52971
1.52792
1.5255
1.52224
1.51944
1.51658
1.5146
1.51269
1.51174
1.50999
1.51157
0.882466
0.904196
0.930095
0.957798
0.985866
1.01312
1.0391
1.06349
1.08638
1.10804
1.12847
1.14801
1.16653
1.18425
1.20099
1.21672
1.23128
1.24453
1.25653
1.26717
1.27656
1.28468
1.29155
1.29727
1.30178
1.3052
1.30753
1.30918
1.30994
1.30988
1.30905
1.30785
1.30666
1.30541
1.3045
1.3037
1.30334
1.3032
1.30361
1.30448
1.3057
1.30696
1.30844
1.3104
1.31291
1.31595
1.31941
1.32338
1.32772
1.3325
1.33757
1.34295
1.34856
1.35437
1.36038
1.36651
1.37285
1.37928
1.38593
1.39263
1.39942
1.40629
1.41319
1.42017
1.42714
1.4342
1.4412
1.44825
1.4552
1.46217
1.46901
1.47578
1.48242
1.48889
1.4952
1.50123
1.50704
1.51248
1.51765
1.52229
1.52651
1.53005
1.53304
1.53517
1.53664
1.53709
1.53705
1.53685
1.53608
1.53432
1.53144
1.52855
1.52552
1.52315
1.5211
1.51989
1.51891
1.51861
1.51768
1.5198
0.873285
0.895932
0.92208
0.949461
0.976762
1.00317
1.02819
1.05186
1.07412
1.09536
1.11563
1.13526
1.15418
1.17252
1.19013
1.20701
1.22294
1.2378
1.25143
1.26391
1.27507
1.28513
1.29394
1.30168
1.30822
1.31367
1.31799
1.32129
1.32363
1.32538
1.32645
1.32667
1.32629
1.32578
1.32523
1.32486
1.3247
1.32482
1.3253
1.32625
1.32756
1.32884
1.33041
1.33229
1.3348
1.33769
1.34105
1.34479
1.34892
1.35343
1.35824
1.3634
1.36878
1.37442
1.38026
1.38628
1.39249
1.39883
1.40534
1.41183
1.41848
1.42508
1.4318
1.43849
1.44522
1.45195
1.45866
1.46539
1.47201
1.47866
1.48514
1.4916
1.49783
1.50396
1.50977
1.51541
1.5206
1.5256
1.53001
1.53404
1.53736
1.54013
1.54205
1.54331
1.54361
1.54351
1.54311
1.54216
1.54004
1.53728
1.53408
1.5314
1.52884
1.52721
1.52596
1.52553
1.52539
1.52562
1.52545
1.52791
0.868561
0.892712
0.918871
0.945449
0.971313
0.996087
1.01958
1.04191
1.06323
1.08379
1.10376
1.12332
1.14246
1.16122
1.17947
1.19714
1.21416
1.23024
1.24537
1.25945
1.27246
1.2844
1.29519
1.30487
1.31346
1.32096
1.32736
1.33269
1.33695
1.34032
1.34292
1.34479
1.34613
1.34675
1.34687
1.34697
1.34707
1.34739
1.34794
1.34898
1.35027
1.35165
1.35319
1.35505
1.35746
1.36023
1.36348
1.367
1.37097
1.37524
1.37987
1.38482
1.39003
1.39553
1.4012
1.40712
1.41317
1.41938
1.42565
1.43198
1.4384
1.44478
1.45131
1.45771
1.46427
1.47067
1.47719
1.48354
1.48994
1.49617
1.50235
1.50835
1.51418
1.51978
1.52507
1.53006
1.53468
1.53889
1.54254
1.54562
1.54802
1.5497
1.55059
1.55074
1.5505
1.54986
1.5486
1.54617
1.54331
1.54011
1.53731
1.53508
1.53326
1.53248
1.53197
1.5323
1.53284
1.53354
1.53408
1.53671
0.865422
0.892056
0.918361
0.943855
0.968147
0.991263
1.01327
1.03442
1.05487
1.07487
1.09458
1.11405
1.13333
1.15234
1.17103
1.18931
1.20709
1.22416
1.24049
1.25593
1.27045
1.28398
1.2965
1.30801
1.31848
1.32795
1.33632
1.34364
1.34988
1.35499
1.3593
1.3628
1.36541
1.36721
1.36873
1.36966
1.37022
1.37077
1.37139
1.37239
1.37357
1.37493
1.37631
1.37807
1.38025
1.38288
1.38587
1.38916
1.39286
1.39684
1.40124
1.4059
1.41089
1.41614
1.42161
1.42736
1.43318
1.43925
1.44525
1.45148
1.4576
1.4639
1.47011
1.47641
1.48268
1.48892
1.49516
1.50127
1.50739
1.51328
1.51915
1.52469
1.53014
1.53515
1.53994
1.54425
1.54825
1.55159
1.55443
1.55648
1.55792
1.55842
1.5584
1.55802
1.5571
1.5555
1.55282
1.54967
1.54661
1.54364
1.5416
1.5398
1.53916
1.5388
1.53935
1.5401
1.54111
1.54235
1.54344
1.54617
0.860755
0.890183
0.916928
0.941611
0.964677
0.986561
1.00752
1.02786
1.04787
1.06759
1.08726
1.1068
1.12625
1.14554
1.16458
1.18338
1.20174
1.21956
1.23678
1.25327
1.26901
1.28386
1.29789
1.31092
1.32305
1.33409
1.34424
1.35326
1.36123
1.36814
1.37395
1.37899
1.38317
1.38632
1.38871
1.39041
1.39179
1.39276
1.39356
1.39432
1.39536
1.39645
1.39762
1.39913
1.40101
1.40336
1.40597
1.40897
1.41231
1.41597
1.42006
1.42437
1.42915
1.43406
1.43941
1.44486
1.4506
1.45636
1.46229
1.46827
1.47431
1.4804
1.48648
1.49262
1.49869
1.5048
1.51079
1.51676
1.52255
1.52826
1.53368
1.53897
1.54384
1.54847
1.55259
1.55643
1.55958
1.56223
1.56406
1.56528
1.56559
1.5654
1.56492
1.56384
1.56177
1.55892
1.55553
1.5526
1.54961
1.54761
1.54591
1.54526
1.5451
1.54564
1.54649
1.54754
1.54915
1.55118
1.55288
1.5555
0.853573
0.884492
0.91178
0.936244
0.958823
0.98024
1.00089
1.02103
1.04098
1.0608
1.08059
1.10033
1.12
1.13956
1.15894
1.17803
1.19688
1.21533
1.23323
1.25053
1.26712
1.283
1.29808
1.31233
1.32573
1.33821
1.34969
1.3602
1.36972
1.37821
1.3856
1.39196
1.39736
1.40185
1.40519
1.40779
1.40968
1.41112
1.41215
1.41302
1.4139
1.41476
1.41581
1.41706
1.41864
1.42056
1.42278
1.42544
1.42834
1.43175
1.43538
1.43951
1.44387
1.44865
1.45366
1.45898
1.46445
1.4701
1.47587
1.48173
1.48768
1.49366
1.49968
1.50567
1.51167
1.51757
1.52347
1.52915
1.53479
1.54011
1.54531
1.55006
1.55459
1.55856
1.56227
1.56527
1.56775
1.56942
1.57042
1.5706
1.57037
1.56971
1.56834
1.5658
1.56288
1.55932
1.55639
1.55341
1.55144
1.54979
1.54913
1.54905
1.54959
1.55032
1.55149
1.5531
1.55543
1.558
1.56004
1.56265
0.837268
0.870461
0.89778
0.92243
0.945686
0.967868
0.989505
1.01072
1.03152
1.05206
1.07245
1.09268
1.1128
1.13274
1.15252
1.17202
1.19129
1.2102
1.22864
1.24652
1.26384
1.28052
1.29648
1.31171
1.32609
1.33966
1.35229
1.36407
1.37475
1.3844
1.39291
1.40027
1.40671
1.41232
1.41687
1.42046
1.42323
1.42533
1.42689
1.42805
1.42896
1.42984
1.43073
1.43173
1.43302
1.4345
1.43644
1.43862
1.44132
1.44428
1.44773
1.45147
1.45563
1.4601
1.4649
1.46994
1.47519
1.48065
1.48623
1.49198
1.49774
1.50365
1.50949
1.51543
1.52123
1.52707
1.53271
1.53828
1.54358
1.54869
1.55342
1.55784
1.56171
1.56528
1.56817
1.57049
1.57201
1.57281
1.57292
1.57271
1.57192
1.57026
1.56739
1.56444
1.56091
1.55803
1.55517
1.55323
1.55171
1.55107
1.5511
1.55159
1.55233
1.55341
1.55522
1.55744
1.56025
1.56313
1.56543
1.56809
0.808403
0.844964
0.87473
0.90124
0.925815
0.949239
0.971833
0.993921
1.0158
1.03745
1.05889
1.08007
1.10103
1.12171
1.14211
1.1622
1.18201
1.20152
1.22057
1.23912
1.2571
1.2745
1.29117
1.30719
1.32239
1.33684
1.35041
1.3631
1.37484
1.38559
1.39535
1.40399
1.41159
1.41811
1.42377
1.42823
1.43177
1.43448
1.43657
1.43807
1.43926
1.44021
1.44107
1.44199
1.443
1.4443
1.44588
1.44785
1.45018
1.45292
1.45604
1.45954
1.46339
1.46759
1.47209
1.47683
1.48184
1.487
1.49241
1.49789
1.50356
1.50922
1.51501
1.52072
1.52646
1.53206
1.53757
1.54287
1.54795
1.55271
1.55708
1.56101
1.56446
1.56744
1.56962
1.5712
1.5719
1.57219
1.57199
1.57098
1.56907
1.56603
1.56306
1.55965
1.55687
1.55418
1.5523
1.55096
1.55033
1.55049
1.55103
1.55175
1.55296
1.55466
1.5572
1.55985
1.56297
1.56607
1.56857
1.57124
0.771482
0.809575
0.841782
0.870907
0.898044
0.923991
0.948842
0.972967
0.996352
1.0192
1.04152
1.06344
1.08497
1.10623
1.12714
1.14786
1.16813
1.18813
1.20762
1.22662
1.24501
1.26288
1.28011
1.29676
1.31264
1.32782
1.34211
1.35555
1.36806
1.37963
1.39018
1.39982
1.40833
1.416
1.42281
1.42883
1.43371
1.43773
1.44088
1.44339
1.44525
1.44667
1.4478
1.44882
1.44986
1.45104
1.45246
1.45418
1.45626
1.4587
1.46154
1.46475
1.46833
1.47225
1.47646
1.48093
1.48566
1.4906
1.49577
1.50106
1.50654
1.51202
1.5176
1.52312
1.5286
1.53394
1.53912
1.54404
1.5487
1.55295
1.5568
1.56012
1.56302
1.56512
1.56651
1.56716
1.56743
1.56716
1.56566
1.56346
1.56034
1.55738
1.55412
1.5514
1.54895
1.54712
1.54596
1.54542
1.54562
1.5462
1.54699
1.54814
1.55003
1.55235
1.55522
1.55816
1.56147
1.56472
1.56736
1.57006
0.735545
0.772507
0.80524
0.83578
0.864838
0.892645
0.919428
0.945226
0.970234
0.994465
1.0181
1.04115
1.0637
1.08577
1.10741
1.1286
1.14941
1.16982
1.1899
1.20946
1.22851
1.24702
1.2649
1.28211
1.29859
1.31429
1.32923
1.34337
1.35672
1.36923
1.38092
1.39172
1.40161
1.41054
1.41847
1.42557
1.43157
1.43655
1.44053
1.44371
1.44613
1.44802
1.44949
1.4507
1.45181
1.45292
1.45417
1.45561
1.45738
1.45944
1.46192
1.46473
1.46799
1.47155
1.47547
1.47965
1.48416
1.48889
1.49388
1.49903
1.50434
1.5097
1.51513
1.52048
1.52578
1.53086
1.53579
1.54032
1.54455
1.54819
1.55145
1.55409
1.55606
1.55729
1.55807
1.55834
1.55781
1.556
1.55378
1.55073
1.54785
1.54484
1.54219
1.53999
1.53824
1.53726
1.53686
1.53715
1.53779
1.53859
1.53984
1.54165
1.54411
1.54677
1.54989
1.55302
1.55651
1.55986
1.56263
1.56534
0.699968
0.735469
0.767524
0.798121
0.827795
0.856595
0.884541
0.911653
0.937963
0.9635
0.988343
1.01251
1.03611
1.05915
1.08168
1.10373
1.12531
1.14645
1.16717
1.18728
1.20676
1.22565
1.24391
1.26159
1.27862
1.29505
1.31078
1.32579
1.34005
1.35344
1.36603
1.37762
1.38835
1.398
1.40668
1.41443
1.42137
1.42732
1.43232
1.43657
1.43999
1.4428
1.44498
1.44677
1.4482
1.44948
1.4507
1.45198
1.45347
1.45521
1.45734
1.4598
1.46274
1.46601
1.46973
1.47376
1.47814
1.48278
1.48761
1.49266
1.49776
1.503
1.50815
1.51336
1.51829
1.52316
1.52758
1.53178
1.53537
1.53845
1.54106
1.54285
1.5442
1.54504
1.54521
1.54434
1.54232
1.54009
1.53725
1.53444