/*--------------------------------*- C++ -*----------------------------------*\
| =========                 |                                                 |
| \\      /  F ield         | OpenFOAM: The Open Source CFD Toolbox           |
|  \\    /   O peration     | Version:  2112                                  |
|   \\  /    A nd           | Website:  www.openfoam.com                      |
|    \\/     M anipulation  |                                                 |
\*---------------------------------------------------------------------------*/
FoamFile
{
    version     2.0;
    format      ascii;
    arch        "LSB;label=32;scalar=64";
    class       volScalarField;
    location    "10";
    object      p;
}
// * * * * * * * * * * * * * * * * * * * * * * * * * * * * * * * * * * * * * //

dimensions      [1 -1 -2 0 0 0 0];

internalField   nonuniform List<scalar> 
5250
(
1.00001
1.00005
1.00013
1.00039
1.0008
1.00228
1.00461
1.01339
1.02598
1.08338
1.15289
1.54545
2.252
4.87176
10.8583
11.0801
10.964
10.9739
11.0843
11.3281
11.5367
11.6742
11.787
11.8763
11.9452
1.00001
1.00005
1.00013
1.00038
1.00079
1.00225
1.00454
1.01322
1.02536
1.08278
1.15003
1.54042
2.23675
4.83023
10.7832
11.0692
10.9557
10.9659
11.076
11.3187
11.5268
11.665
11.7794
11.8701
11.9406
1.00001
1.00005
1.00012
1.00037
1.00076
1.00217
1.00434
1.01289
1.024
1.08168
1.14392
1.5303
2.20452
4.74239
10.6146
11.044
10.9336
10.9417
11.0466
11.2829
11.4885
11.625
11.7384
11.8277
11.8977
1.00001
1.00005
1.00012
1.00035
1.00072
1.00206
1.00409
1.0124
1.02244
1.07953
1.13611
1.51521
2.15111
4.61584
10.3451
11.0086
10.9006
10.9023
10.9965
11.2203
11.4223
11.5539
11.6632
11.7495
11.8195
1.00001
1.00005
1.00011
1.00033
1.00068
1.00194
1.00382
1.01177
1.02085
1.07617
1.12713
1.49507
2.07645
4.45129
9.96577
10.969
10.863
10.8446
10.9288
11.137
11.3314
11.4558
11.5585
11.6399
11.7102
1.00001
1.00004
1.0001
1.0003
1.00063
1.00181
1.00354
1.01099
1.01929
1.07138
1.11714
1.46761
1.986
4.23891
9.46169
10.9368
10.826
10.7694
10.8432
11.0327
11.2141
11.3263
11.4176
11.4907
11.5605
1.00001
1.00004
1.0001
1.00028
1.00058
1.00166
1.00326
1.01012
1.01775
1.06572
1.10743
1.42885
1.89203
3.96526
8.81346
10.9276
10.7964
10.6802
10.7408
10.9055
11.0683
11.1617
11.2328
11.2865
11.3486
1.00001
1.00004
1.00009
1.00025
1.00053
1.00151
1.00296
1.00916
1.01609
1.05939
1.09685
1.38447
1.79429
3.6317
8.00409
10.9403
10.7757
10.5784
10.6232
10.7564
10.8921
10.9562
10.9942
11.0101
11.0444
1
1.00003
1.00008
1.00023
1.00048
1.00136
1.0027
1.00811
1.01481
1.05181
1.08647
1.33476
1.68519
3.261
7.04241
10.9744
10.7653
10.4694
10.4929
10.5842
10.6834
10.7045
10.6882
10.6257
10.5679
1
1.00003
1.00007
1.0002
1.0004
1.00115
1.00227
1.00694
1.01234
1.04435
1.07284
1.28215
1.56782
2.87024
5.95886
10.9471
10.7357
10.3686
10.3482
10.3899
10.4365
10.4095
10.3084
10.0837
9.7543
1
1.00002
1.00007
1.00015
1.00043
1.00089
1.00253
1.00509
1.01495
1.02871
1.09289
1.17482
1.60212
2.40167
5.12948
10.6916
10.6089
10.2917
10.1718
10.1778
10.1635
10.071
9.81767
9.24831
7.84013
1
1.00002
1.00005
1.00015
1.00032
1.0009
1.00182
1.0052
1.01022
1.03154
1.05676
1.2029
1.38004
2.36009
4.34732
9.99854
10.3531
10.1829
9.99448
9.9546
9.8799
9.70305
9.31886
8.57037
7.15568
1
1.00002
1.00005
1.00013
1.00028
1.00078
1.00159
1.00451
1.00903
1.02677
1.05028
1.17022
1.31908
2.15082
3.76259
8.8115
10.1677
10.0601
9.83409
9.72286
9.60043
9.35334
8.89784
8.15949
7.06496
1
1.00002
1.00004
1.00011
1.00023
1.00065
1.00132
1.00374
1.00733
1.0225
1.04012
1.14487
1.25391
1.97224
3.23962
7.52629
10.0547
9.95598
9.70219
9.5055
9.33331
9.05282
8.59886
7.9343
7.0726
1
1.00001
1.00003
1.00009
1.0002
1.00055
1.00112
1.00315
1.00634
1.01844
1.03531
1.11558
1.21253
1.76384
2.76632
6.17868
9.96885
9.87508
9.59503
9.31114
9.09712
8.81117
8.3846
7.80011
7.08897
1
1.00001
1.00003
1.00008
1.00016
1.00045
1.00091
1.00256
1.00518
1.01483
1.02937
1.08917
1.1762
1.57181
2.33152
4.82682
9.71136
9.71578
9.51063
9.15081
8.89999
8.61921
8.23212
7.71978
7.11247
1
1.00001
1.00002
1.00006
1.00013
1.00036
1.00073
1.00203
1.00411
1.01178
1.02297
1.07226
1.13258
1.46207
2.04268
4.13182
8.89572
9.47624
9.3358
9.02014
8.74555
8.47269
8.12356
7.68008
7.15879
1
1.00001
1.00002
1.00005
1.0001
1.00028
1.00056
1.00158
1.00312
1.00933
1.01688
1.05898
1.09809
1.37734
1.76943
3.51083
7.39543
9.21344
9.14697
8.93368
8.63972
8.37009
8.05853
7.6815
7.22803
1
1.00001
1.00001
1.00004
1.00008
1.00021
1.00044
1.00123
1.00245
1.00722
1.01337
1.04514
1.07605
1.28763
1.57062
2.87755
5.78966
9.02662
9.0446
8.90525
8.60362
8.31774
8.03734
7.69889
7.32212
1
1
1.00001
1.00002
1.00007
1.00014
1.00041
1.00082
1.00232
1.00468
1.0135
1.02668
1.08094
1.16158
1.51047
2.1886
4.32034
8.57089
8.99763
8.87926
8.60564
8.3179
8.04826
7.75121
7.45405
1
1
1.00001
1.00002
1.00005
1.00011
1.00031
1.00062
1.00175
1.00352
1.01012
1.01956
1.06202
1.11284
1.39098
1.86688
3.57557
7.46953
8.86917
8.81121
8.61952
8.33713
8.0905
7.86236
7.63583
1
1
1.00001
1.00002
1.00003
1.0001
1.00019
1.00055
1.0011
1.00314
1.00616
1.01882
1.03381
1.11931
1.21273
1.76821
2.75471
5.94009
8.67136
8.76439
8.65458
8.40841
8.19227
8.03423
7.86114
1
1
1
1.00001
1.00003
1.00006
1.00017
1.00034
1.00094
1.0019
1.00544
1.01058
1.03289
1.05856
1.20528
1.40088
2.28474
4.10692
8.26477
8.79669
8.73337
8.57109
8.39824
8.26475
8.11666
1
1
1
1.00001
1.00002
1.00005
1.0001
1.00029
1.00059
1.00166
1.00327
1.00989
1.01771
1.06209
1.10462
1.38937
1.81012
3.4964
7.14874
8.76109
8.84862
8.79447
8.66869
8.53076
8.38388
1
1
1
1.00001
1.00001
1.00004
1.00008
1.00022
1.00045
1.00126
1.00254
1.00725
1.01403
1.04437
1.07759
1.28264
1.55968
2.81635
5.55637
8.62886
9.08068
9.04677
8.95804
8.82178
8.65451
1
1
1
1
1.00001
1.00003
1.00006
1.00016
1.00033
1.00093
1.00189
1.00532
1.01067
1.03123
1.05987
1.1923
1.39021
2.24299
3.97678
8.24199
9.36278
9.35108
9.28948
9.15029
8.92559
1
1
1
1
1.00001
1.00002
1.00005
1.0001
1.00028
1.00057
1.00162
1.00319
1.00957
1.0173
1.06
1.10181
1.3783
1.78909
3.45113
7.14387
9.51639
9.694
9.63396
9.4761
9.17565
1
1
1
1
1.00001
1.00001
1.00004
1.00008
1.00022
1.00045
1.00125
1.00253
1.00723
1.01401
1.0443
1.07763
1.28304
1.56346
2.83424
5.63365
9.66523
10.1159
10.0199
9.77789
9.38507
1
1
1
1
1.00001
1.00001
1.00003
1.00006
1.00017
1.00035
1.00098
1.00198
1.00563
1.01118
1.03363
1.06253
1.21083
1.4248
2.37719
4.44229
9.53277
10.4871
10.3641
10.0501
9.56441
1
1
1
1
1
1.00001
1.00002
1.00006
1.00011
1.00032
1.00065
1.00185
1.0036
1.01119
1.0197
1.07161
1.12076
1.45857
1.99749
4.0951
8.91822
10.6865
10.5849
10.2637
9.69972
1
1
1
1
1
1.00001
1.00002
1.00005
1.0001
1.00027
1.00055
1.00157
1.00311
1.00935
1.01702
1.05976
1.09987
1.38885
1.80147
3.64338
7.9104
10.9424
10.812
10.3961
9.78266
1
1
1
1
1
1.00001
1.00001
1.00004
1.00008
1.00022
1.00045
1.00129
1.00251
1.00787
1.0137
1.05088
1.08293
1.32855
1.67034
3.22582
6.92684
11.3188
11.0645
10.4328
9.82426
1
1
1
1
1
1.00001
1.00001
1.00003
1.00009
1.00017
1.00049
1.00099
1.00284
1.00556
1.01733
1.03087
1.11178
1.19832
1.73545
2.71942
6.12472
11.6045
11.2293
10.4356
9.86518
1
1
1
1
1
1.00001
1.00001
1.00003
1.00006
1.00018
1.00037
1.00104
1.00207
1.00616
1.01138
1.03885
1.06546
1.24831
1.48977
2.63168
5.36144
11.5737
11.2217
10.4733
9.92779
1
1
1
1
1
1.00001
1.00001
1.00003
1.00006
1.00017
1.00035
1.00099
1.002
1.00572
1.01133
1.03471
1.06349
1.22321
1.43892
2.5172
4.9205
11.2854
11.1205
10.5837
10.0072
1
1
1
1
1
1
1.00001
1.00003
1.00005
1.00015
1.00032
1.00089
1.00181
1.00521
1.01023
1.03199
1.05753
1.20837
1.39662
2.43046
4.59499
10.8225
11.005
10.6864
10.093
1
1
1
1
1
1
1.00001
1.00002
1.00006
1.00012
1.00034
1.00068
1.00196
1.0038
1.01208
1.02102
1.07808
1.13183
1.5108
2.13603
4.57527
10.3049
10.9739
10.7098
10.1606
1
1
1
1
1
1
1.00001
1.00002
1.00005
1.00011
1.00031
1.00063
1.00181
1.00349
1.0112
1.0193
1.07278
1.12102
1.48042
2.045
4.36438
9.8443
10.9967
10.748
10.2144
1
1
1
1
1
1
1.00001
1.00002
1.00004
1.00013
1.00026
1.00074
1.00149
1.00432
1.00845
1.0267
1.04753
1.17526
1.31818
2.20654
3.91686
9.41057
11.0972
10.8324
10.2602
1
1
1
1
1
1
1.00001
1.00002
1.00004
1.00012
1.00024
1.00069
1.00141
1.00406
1.008
1.02485
1.0447
1.16372
1.29402
2.12373
3.6991
8.9761
11.2262
10.9171
10.2703
1
1
1
1
1
1
1.00001
1.00002
1.00004
1.00011
1.00022
1.00063
1.00126
1.00373
1.00704
1.02348
1.04018
1.1539
1.27133
2.07425
3.53833
8.57844
11.3756
11.0034
10.2664
1
1
1
1
1
1
1.00001
1.00001
1.00004
1.00008
1.00024
1.00048
1.00141
1.00267
1.00881
1.01495
1.05722
1.09361
1.37739
1.78588
3.61805
8.11215
11.5415
11.0875
10.2664
1
1
1
1
1
1
1.00001
1.00001
1.00004
1.00008
1.00023
1.00048
1.00136
1.0027
1.00826
1.01486
1.05375
1.08888
1.35414
1.73067
3.45399
7.69089
11.7306
11.1813
10.2715
1
1
1
1
1
1
1.00001
1.00001
1.00004
1.00008
1.00021
1.00043
1.00125
1.00241
1.00775
1.01331
1.05071
1.08259
1.33344
1.688
3.30745
7.34698
11.9095
11.2643
10.2837
1
1
1
1
1
1
1.00001
1.00002
1.00003
1.00009
1.00018
1.00052
1.00105
1.00306
1.00594
1.01901
1.03332
1.12476
1.21893
1.85261
3.00477
7.15515
12.0344
11.2832
10.2886
1
1
1
1
1
1
1.00001
1.00002
1.00003
1.00009
1.00018
1.00052
1.00106
1.00303
1.00609
1.01814
1.03434
1.11702
1.21344
1.79995
2.89921
6.90427
12.1172
11.2875
10.3015
1
1
1
1
1
1
1.00001
1.00002
1.00003
1.00009
1.00018
1.0005
1.00102
1.00291
1.0058
1.01759
1.03228
1.1141
1.20383
1.76961
2.81925
6.63653
12.2737
11.3571
10.3325
1
1
1
1
1
1
1.00001
1.00001
1.00003
1.00007
1.00019
1.00038
1.0011
1.00209
1.00678
1.01153
1.04326
1.07068
1.27746
1.5643
2.8647
6.13715
12.4434
11.5408
10.3997
1
1
1
1
1
1
1.00001
1.00001
1.00003
1.00009
1.00017
1.00049
1.001
1.00284
1.00572
1.01689
1.03232
1.10675
1.1986
1.71293
2.68655
6.16426
12.4525
11.4953
10.4007
1
1
1
1
1
1
1.00001
1.00001
1.00003
1.00009
1.00018
1.00049
1.001
1.00285
1.00575
1.01677
1.03293
1.10409
1.19965
1.69581
2.65362
6.0626
12.4428
11.5039
10.4321
3.89157
3.34181
4.26975
4.3423
4.10385
4.00706
3.9641
3.94226
3.90367
3.85703
3.82727
3.81549
3.81288
3.81545
3.82684
3.84833
3.88271
3.92879
3.98407
4.04631
4.1136
4.18417
4.2567
4.3303
4.40464
4.47745
4.54752
4.61384
4.67628
4.73395
4.78661
4.83474
4.87714
4.91762
4.95298
4.98119
5.00256
5.01805
5.02827
5.03318
5.03313
5.03041
5.02272
5.00837
4.99071
4.96978
4.94568
4.91851
4.88856
4.85589
4.82092
4.78368
4.74451
4.70348
4.66088
4.61679
4.57141
4.5249
4.47738
4.42903
4.37997
4.33032
4.28022
4.22978
4.17913
4.12838
4.07764
4.02704
3.97668
3.92667
3.87712
3.82813
3.77978
3.73215
3.68532
3.63935
3.59432
3.55029
3.50735
3.46559
3.4251
3.38597
3.34833
3.31233
3.27811
3.24586
3.21582
3.18828
3.16357
3.14213
3.12451
3.11142
3.10366
3.10276
3.1035
3.10602
3.11194
3.12418
3.14061
3.15911
4.7794
4.26221
4.40087
4.29106
4.08266
4.01783
4.00686
3.97668
3.91592
3.85658
3.81698
3.80024
3.79796
3.80858
3.82418
3.84605
3.87955
3.92531
3.9802
4.04201
4.10875
4.17867
4.25052
4.32232
4.397
4.4698
4.5398
4.60578
4.66819
4.72616
4.77924
4.82768
4.87102
4.91073
4.94566
4.97436
4.99614
5.01202
5.0223
5.02743
5.02735
5.02533
5.01877
5.00467
4.98567
4.96462
4.94092
4.91415
4.88438
4.85192
4.81704
4.77998
4.74087
4.7
4.65749
4.61354
4.56829
4.52191
4.47452
4.4263
4.37736
4.32784
4.27786
4.22754
4.177
4.12636
4.07573
4.02522
3.97496
3.92506
3.87561
3.82672
3.77847
3.73093
3.68419
3.6383
3.59334
3.54937
3.50649
3.46478
3.42433
3.38525
3.34766
3.31171
3.27754
3.24535
3.21536
3.18787
3.16323
3.14184
3.12425
3.11116
3.10349
3.10318
3.10401
3.10672
3.11299
3.12586
3.143
3.16481
5.60412
4.84626
4.58835
4.34997
4.14919
4.04611
3.9876
3.94038
3.89965
3.8538
3.822
3.80963
3.81161
3.81577
3.82321
3.84069
3.87429
3.92009
3.97493
4.0368
4.10376
4.17411
4.2465
4.3196
4.39341
4.46584
4.53575
4.60191
4.66427
4.72203
4.77502
4.82325
4.86659
4.90563
4.93968
4.96786
4.98967
5.00549
5.01567
5.02049
5.02034
5.0186
5.01304
5.00044
4.98002
4.95811
4.93433
4.90782
4.87829
4.84603
4.81128
4.77437
4.73548
4.69478
4.65242
4.60861
4.56348
4.51722
4.46998
4.42189
4.37309
4.32371
4.27387
4.2237
4.17331
4.12281
4.07233
4.02198
3.97189
3.92215
3.87287
3.82415
3.77606
3.72869
3.6821
3.63635
3.59153
3.54772
3.50501
3.46346
3.42316
3.38425
3.34677
3.31102
3.27705
3.24507
3.21529
3.18803
3.16364
3.14253
3.1253
3.11256
3.10561
3.10578
3.10691
3.1101
3.11712
3.13137
3.14986
3.17592
5.99966
5.21027
4.76878
4.4855
4.28416
4.14284
4.06354
4.01101
3.95958
3.90121
3.85421
3.82612
3.81636
3.81859
3.82839
3.85043
3.8851
3.92964
3.98289
4.04299
4.10807
4.17674
4.24752
4.31916
4.39128
4.46235
4.53086
4.59585
4.65711
4.71405
4.76636
4.81391
4.85668
4.89483
4.92818
4.956
4.97769
4.99338
5.00334
5.00779
5.00755
5.00596
5.00117
4.99028
4.96977
4.94693
4.92263
4.89617
4.86701
4.83515
4.80077
4.76416
4.72553
4.6851
4.64302
4.5995
4.55468
4.50874
4.46181
4.41405
4.36558
4.31652
4.267
4.21714
4.16705
4.11685
4.06668
4.01664
3.96685
3.91744
3.86848
3.82008
3.77232
3.72524
3.67896
3.6335
3.58898
3.5454
3.50292
3.46163
3.42161
3.38299
3.34591
3.31039
3.27672
3.24509
3.21573
3.18892
3.16505
3.14458
3.12806
3.1161
3.11058
3.11092
3.11245
3.11639
3.12471
3.14139
3.16148
3.1916
6.23139
5.50286
5.00999
4.69725
4.48216
4.33113
4.22897
4.15562
4.08258
4.0069
3.94387
3.90198
3.88141
3.8776
3.87969
3.88838
3.90945
3.95164
4.00406
4.06193
4.124
4.18956
4.25741
4.32641
4.39554
4.46366
4.5296
4.59247
4.65166
4.70671
4.75733
4.80333
4.84469
4.88143
4.91346
4.94038
4.96171
4.97729
4.98718
4.99146
4.99122
4.98979
4.98563
4.97619
4.95714
4.93387
4.90891
4.88224
4.85331
4.82188
4.78797
4.75178
4.71354
4.67347
4.63177
4.58861
4.54417
4.49861
4.45206
4.40468
4.35658
4.30789
4.25873
4.20922
4.15948
4.10964
4.05982
4.01015
3.96076
3.91173
3.86316
3.81517
3.7678
3.72104
3.67508
3.62999
3.58583
3.54274
3.5007
3.45983
3.42023
3.38202
3.34535
3.31034
3.27721
3.24616
3.21748
3.19146
3.16849
3.14902
3.1337
3.1232
3.11978
3.12033
3.1224
3.12742
3.13792
3.15705
3.17875
3.21279
6.4107
5.77015
5.28738
4.95519
4.73088
4.56931
4.45116
4.35457
4.26168
4.16883
4.08475
4.01801
3.97228
3.94766
3.94303
3.94636
3.95797
3.98503
4.03495
4.09084
4.1496
4.21059
4.27324
4.33712
4.40137
4.46508
4.52732
4.58703
4.64357
4.69637
4.7451
4.78941
4.82932
4.86473
4.89561
4.92157
4.94236
4.95768
4.96748
4.97161
4.97136
4.96999
4.96618
4.95765
4.94037
4.91755
4.89229
4.86529
4.83635
4.80519
4.77171
4.73599
4.69822
4.6586
4.61734
4.57463
4.53064
4.48553
4.43944
4.39252
4.34488
4.29665
4.24794
4.19888
4.1496
4.10021
4.05086
4.00168
3.95279
3.90427
3.85614
3.80869
3.76186
3.71582
3.67049
3.62599
3.58238
3.53975
3.49818
3.45779
3.41872
3.38109
3.34507
3.31079
3.27845
3.24831
3.22066
3.19583
3.17421
3.15629
3.14272
3.13418
3.13338
3.13423
3.13701
3.14352
3.15698
3.17876
3.20167
3.23883
6.57654
6.02242
5.57707
5.25163
5.02128
4.85083
4.71662
4.59808
4.48293
4.36849
4.26099
4.16944
4.10016
4.05597
4.03466
4.03412
4.03781
4.05003
4.07804
4.1272
4.18197
4.23825
4.2952
4.35276
4.41086
4.46896
4.52632
4.58197
4.63516
4.68515
4.73159
4.77376
4.81191
4.84573
4.87525
4.89998
4.92
4.93488
4.94448
4.94845
4.94818
4.94685
4.94326
4.93537
4.91945
4.89785
4.87301
4.84595
4.81693
4.78591
4.75277
4.71754
4.68031
4.64124
4.60053
4.55836
4.51492
4.47036
4.42483
4.37846
4.33137
4.28368
4.23551
4.187
4.13826
4.08943
4.04069
3.99211
3.94386
3.89604
3.84882
3.80203
3.75586
3.71037
3.66562
3.62165
3.57859
3.53653
3.49559
3.45588
3.41755
3.38076
3.34563
3.31234
3.28114
3.25231
3.22614
3.20299
3.18329
3.16757
3.15639
3.15127
3.15162
3.15318
3.15726
3.16609
3.18339
3.20744
3.23091
3.2697
6.74347
6.27855
5.88204
5.57162
5.34233
5.16351
5.0105
4.86703
4.72632
4.58872
4.459
4.34516
4.25357
4.1879
4.14764
4.13006
4.13026
4.13384
4.14522
4.17098
4.21645
4.26714
4.31837
4.36971
4.42139
4.47326
4.52488
4.57556
4.62461
4.67123
4.71489
4.75498
4.79126
4.8235
4.85153
4.87495
4.89413
4.90862
4.91801
4.92184
4.92158
4.92029
4.91689
4.9095
4.89466
4.87453
4.85064
4.82395
4.79501
4.76408
4.7312
4.69638
4.65968
4.6212
4.58111
4.53957
4.49675
4.45282
4.4079
4.36215
4.31567
4.26859
4.22103
4.17312
4.12501
4.07679
4.02879
3.98107
3.9337
3.88671
3.84021
3.79416
3.74867
3.70384
3.65974
3.61648
3.57416
3.53289
3.49279
3.45399
3.41666
3.38097
3.34702
3.31507
3.2854
3.2583
3.23411
3.2132
3.19605
3.18318
3.17521
3.17398
3.17473
3.17731
3.18347
3.19634
3.21655
3.24222
3.2654
3.30388
6.92588
6.54103
6.1987
5.91546
5.68313
5.48583
5.31017
5.1416
4.97633
4.81692
4.66836
4.53674
4.42727
4.34318
4.28469
4.24991
4.23395
4.23189
4.23408
4.24232
4.26192
4.30001
4.3422
4.38688
4.43234
4.47802
4.52356
4.56874
4.61294
4.65558
4.69603
4.73366
4.76791
4.79844
4.825
4.84744
4.86555
4.87946
4.88858
4.89231
4.89204
4.89079
4.88753
4.88054
4.86656
4.84785
4.82518
4.79925
4.7707
4.73999
4.70735
4.67291
4.63671
4.59884
4.55942
4.51857
4.47647
4.43324
4.38904
4.34398
4.29819
4.25178
4.20491
4.1577
4.11037
4.06318
4.01612
3.96931
3.92282
3.87665
3.8309
3.78562
3.74092
3.69687
3.6536
3.6112
3.56978
3.52947
3.49041
3.45274
3.41669
3.38228
3.34986
3.31965
3.29194
3.26706
3.24538
3.22732
3.21337
3.20397
3.20038
3.20079
3.20251
3.20699
3.21665
3.23449
3.25634
3.28207
3.30379
3.3399
7.13883
6.82315
6.52575
6.25852
6.02026
5.80462
5.60136
5.40655
5.22044
5.04436
4.88227
4.73821
4.61555
4.5164
4.44056
4.3885
4.35503
4.33628
4.3273
4.3278
4.33174
4.34342
4.36841
4.40328
4.44167
4.4812
4.52093
4.5607
4.59987
4.63811
4.6749
4.70959
4.7415
4.77015
4.79522
4.81652
4.83389
4.84719
4.85596
4.85964
4.85938
4.85818
4.85506
4.8484
4.83533
4.81788
4.7965
4.77161
4.74379
4.71356
4.6813
4.64725
4.61154
4.57428
4.53554
4.49545
4.45412
4.41168
4.36825
4.32395
4.2789
4.23323
4.18711
4.14082
4.09453
4.04836
4.0023
3.95641
3.91078
3.86546
3.82057
3.77617
3.73236
3.68924
3.64694
3.60555
3.56521
3.52607
3.48827
3.45205
3.41747
3.38478
3.35427
3.32623
3.30098
3.27889
3.26035
3.24578
3.23565
3.2306
3.23074
3.23189
3.23526
3.24295
3.25837
3.27873
3.30092
3.32515
3.34426
3.37642
7.38546
7.11914
6.84991
6.58784
6.33736
6.09938
5.87323
5.65851
5.45598
5.26838
5.09779
4.94586
4.81398
4.70304
4.61389
4.54355
4.49153
4.45492
4.43016
4.41489
4.4078
4.40875
4.41375
4.42659
4.45279
4.48341
4.51671
4.55088
4.58516
4.61915
4.65212
4.68349
4.71259
4.73901
4.76242
4.78249
4.79913
4.81189
4.82039
4.82403
4.82378
4.82263
4.81967
4.81336
4.80116
4.78484
4.76471
4.74101
4.71417
4.68469
4.653
4.61946
4.58429
4.54763
4.5096
4.47028
4.42978
4.38817
4.34558
4.30209
4.25784
4.21303
4.16797
4.1228
4.0776
4.03245
3.98737
3.94245
3.89778
3.85344
3.80953
3.76614
3.72338
3.68135
3.64017
3.59999
3.56095
3.52321
3.48699
3.45247
3.41969
3.38912
3.36097
3.3356
3.31336
3.29463
3.27983
3.26938
3.26364
3.26345
3.2643
3.26721
3.27397
3.28773
3.30651
3.32735
3.34804
3.36925
3.38477
3.41217
7.65283
7.41346
7.15447
6.8877
6.62278
6.36639
6.12278
5.89513
5.68414
5.49054
5.3151
5.1579
5.01905
4.89832
4.7958
4.71008
4.64067
4.58579
4.5436
4.51203
4.48964
4.47513
4.46957
4.47081
4.47626
4.48933
4.5144
4.53906
4.56773
4.59759
4.62704
4.65505
4.68112
4.70507
4.72659
4.74535
4.76103
4.77332
4.78157
4.78525
4.78502
4.78396
4.7812
4.77532
4.76396
4.74871
4.72979
4.70734
4.68167
4.65319
4.62233
4.58949
4.55498
4.51901
4.48172
4.44321
4.40356
4.36283
4.32111
4.27848
4.23518
4.19151
4.14763
4.10359
4.05948
4.01536
3.97132
3.92745
3.88383
3.84058
3.79776
3.75552
3.71393
3.67315
3.63329
3.59453
3.55703
3.52099
3.48669
3.45408
3.42361
3.39558
3.37031
3.34817
3.32954
3.31481
3.30438
3.29859
3.29802
3.29883
3.3016
3.30818
3.32151
3.33939
3.35882
3.37813
3.39573
3.41289
3.42431
3.44664
7.92574
7.69204
7.42904
7.15201
6.87441
6.60613
6.35334
6.11904
5.90457
5.70929
5.53193
5.37152
5.2271
5.098
4.98384
4.88402
4.79865
4.72676
4.66712
4.61861
4.58022
4.55082
4.53001
4.51676
4.5128
4.5142
4.51975
4.53266
4.5515
4.57397
4.59922
4.62358
4.64669
4.66828
4.68788
4.7052
4.71982
4.73157
4.73941
4.74334
4.74316
4.7422
4.7397
4.73437
4.72386
4.70962
4.69186
4.67067
4.64627
4.61898
4.58918
4.55727
4.5236
4.48842
4.45193
4.41426
4.37547
4.33564
4.2948
4.25319
4.2111
4.16868
4.12599
4.08312
4.04014
3.99716
3.95426
3.91154
3.8691
3.82704
3.78547
3.74451
3.70429
3.66494
3.62664
3.58956
3.55389
3.51994
3.48773
3.45755
3.42984
3.40489
3.38307
3.36477
3.35036
3.3402
3.33464
3.33418
3.33499
3.33783
3.34447
3.35794
3.37552
3.39416
3.41211
3.42836
3.442
3.45462
3.46267
3.47908
8.18979
7.94587
7.67045
7.38234
7.09659
6.82341
6.56854
6.33416
6.12031
5.92536
5.74731
5.58435
5.43497
5.29828
5.17388
5.06147
4.96175
4.87424
4.79859
4.73418
4.68015
4.63584
4.60031
4.57299
4.5539
4.54171
4.53823
4.5395
4.5443
4.55486
4.57183
4.58998
4.6097
4.62877
4.64642
4.66223
4.67568
4.6866
4.69422
4.69819
4.69805
4.69722
4.69501
4.69025
4.68072
4.66747
4.65081
4.63088
4.60781
4.58186
4.55333
4.52259
4.48997
4.45576
4.42019
4.38341
4.34553
4.30658
4.26679
4.22643
4.18564
4.14447
4.10303
4.06139
4.01964
3.97789
3.93623
3.89478
3.85362
3.8129
3.77272
3.73323
3.69456
3.65689
3.6204
3.5853
3.55185
3.52032
3.49059
3.46336
3.43893
3.41763
3.39987
3.38602
3.37641
3.37124
3.3712
3.37213
3.37523
3.38237
3.39673
3.41414
3.43225
3.44929
3.46418
3.47645
3.48577
3.49388
3.49908
3.51006
8.43596
8.17108
7.88056
7.58421
7.29605
7.02437
6.77289
6.54234
6.33148
6.13808
5.95963
5.79405
5.63978
5.49606
5.36258
5.23954
5.12705
5.02577
4.93572
4.85657
4.78777
4.72868
4.67875
4.63735
4.60422
4.57883
4.56127
4.55016
4.54609
4.54684
4.55006
4.55786
4.57247
4.58715
4.60235
4.61639
4.62854
4.63854
4.64582
4.64988
4.64977
4.64904
4.64707
4.6428
4.63423
4.62199
4.60647
4.58781
4.56615
4.54167
4.51461
4.48526
4.45392
4.42087
4.38637
4.35061
4.31367
4.27578
4.23725
4.19819
4.15871
4.11886
4.07873
4.0384
3.99799
3.95758
3.91729
3.87723
3.83752
3.79831
3.75971
3.7219
3.68503
3.64931
3.61495
3.58221
3.55144
3.52244
3.49591
3.47219
3.45163
3.43462
3.42155
3.41274
3.40831
3.40848
3.40977
3.41355
3.42181
3.43703
3.45464
3.47241
3.48878
3.50267
3.51362
3.52152
3.52664
3.53066
3.53352
3.54
8.66111
8.36788
8.06338
7.76406
7.47972
7.21489
6.97052
6.74588
6.53886
6.34691
6.16754
5.99886
5.83961
5.68927
5.54775
5.41533
5.2921
5.17904
5.07637
4.98392
4.90142
4.82858
4.76506
4.71022
4.66359
4.62485
4.5938
4.57007
4.5533
4.5435
4.53735
4.53772
4.53995
4.54555
4.55676
4.56753
4.5779
4.58702
4.59384
4.5981
4.59803
4.59742
4.59568
4.59189
4.58428
4.57295
4.55853
4.54118
4.52101
4.49814
4.47272
4.44496
4.41511
4.38344
4.3502
4.31558
4.27979
4.2432
4.206
4.1683
4.13019
4.09172
4.053
4.0141
3.97514
3.9362
3.89744
3.85894
3.82087
3.78336
3.74658
3.71071
3.67594
3.64252
3.61067
3.58081
3.55285
3.52715
3.50435
3.48476
3.46873
3.45665
3.44891
3.44554
3.44591
3.44772
3.45246
3.4625
3.47835
3.49628
3.51396
3.52987
3.54306
3.55294
3.55972
3.56306
3.56488
3.56566
3.56635
3.56877
8.85667
8.53694
8.2258
7.93057
7.65508
7.40019
7.16469
6.94652
6.74301
6.55171
6.37059
6.19828
6.03399
5.87745
5.72873
5.58809
5.45572
5.33269
5.21908
5.11493
5.02025
4.93483
4.85835
4.79058
4.73099
4.6793
4.63527
4.59874
4.56944
4.54705
4.53204
4.51973
4.5134
4.5135
4.51474
4.51815
4.52517
4.53229
4.53804
4.5423
4.54255
4.54211
4.54067
4.53736
4.5306
4.52008
4.50678
4.49083
4.47227
4.45112
4.42747
4.40145
4.37329
4.34321
4.31145
4.27822
4.24387
4.20874
4.17299
4.13675
4.10008
4.0631
4.02589
3.98854
3.95116
3.91386
3.87678
3.84005
3.80383
3.76828
3.7336
3.69999
3.66769
3.63697
3.60817
3.58155
3.55688
3.53522
3.51679
3.50203
3.49113
3.48463
3.48267
3.48331
3.48577
3.49173
3.50402
3.52076
3.53898
3.55658
3.57214
3.58476
3.59392
3.5995
3.60191
3.60181
3.60121
3.59955
3.59597
3.59655
9.0145
8.6794
8.37231
8.08921
7.82738
7.58448
7.35805
7.14534
6.94405
6.75223
6.56857
6.39227
6.22302
6.06075
5.90563
5.75783
5.61746
5.48591
5.36275
5.24826
5.1426
5.04568
4.95734
4.87739
4.80562
4.74157
4.68512
4.63616
4.59443
4.55982
4.53217
4.51122
4.49335
4.48292
4.47678
4.47498
4.47537
4.4767
4.47957
4.48289
4.48339
4.48302
4.48175
4.47877
4.47267
4.46323
4.45127
4.43687
4.41999
4.40061
4.3788
4.35465
4.32833
4.30004
4.26999
4.23845
4.20583
4.17236
4.13821
4.10353
4.06844
4.03305
3.99747
3.9618
3.92617
3.89069
3.8555
3.82077
3.78666
3.75337
3.72113
3.69017
3.66078
3.63328
3.60817
3.58484
3.56454
3.54754
3.53417
3.52497
3.51948
3.51942
3.52041
3.52373
3.53124
3.54624
3.5639
3.58242
3.59997
3.61526
3.62739
3.63597
3.64067
3.64177
3.64143
3.64012
3.63701
3.63078
3.62141
3.62163
9.14777
8.80444
8.50935
8.24533
8.00074
7.77038
7.55163
7.34238
7.14144
6.9478
6.76087
6.58042
6.40641
6.23892
6.0781
5.92419
5.77751
5.63765
5.50591
5.38242
5.26714
5.16002
5.06099
4.96982
4.8864
4.81073
4.74256
4.68162
4.62784
4.58119
4.54157
4.50937
4.4825
4.45999
4.44455
4.43413
4.4275
4.42373
4.42229
4.42214
4.42178
4.42097
4.41925
4.41583
4.4104
4.40257
4.39229
4.37958
4.36443
4.34687
4.32694
4.30474
4.2804
4.25409
4.22602
4.19648
4.1658
4.13418
4.1018
4.06884
4.03546
4.0018
3.96799
3.93416
3.90045
3.86698
3.83392
3.80144
3.76976
3.73907
3.70967
3.68182
3.65586
3.6323
3.61069
3.59189
3.57661
3.56493
3.55741
3.55411
3.5545
3.55641
3.56149
3.5721
3.58842
3.60714
3.62609
3.64366
3.6587
3.67044
3.67853
3.68258
3.68273
3.68217
3.68036
3.67624
3.66794
3.65842
3.64522
3.64458
9.25616
8.92221
8.64811
8.40246
8.17284
7.95313
7.74057
7.53388
7.33293
7.13726
6.94709
6.76269
6.58431
6.41205
6.24606
6.08647
5.93352
5.78708
5.64808
5.51657
5.39259
5.2762
5.16735
5.06604
4.97212
4.88554
4.80616
4.73396
4.66898
4.61109
4.56019
4.51607
4.47918
4.4464
4.41997
4.39985
4.38491
4.37423
4.36702
4.36237
4.35909
4.35637
4.35356
4.35
4.34514
4.33852
4.32981
4.31882
4.3055
4.28986
4.27193
4.2518
4.22959
4.20544
4.17956
4.15226
4.12372
4.09415
4.06374
4.0327
4.00122
3.96947
3.93761
3.90582
3.87422
3.84301
3.81234
3.78244
3.75353
3.72588
3.69978
3.67557
3.65377
3.63419
3.61714
3.6037
3.59413
3.58824
3.58743
3.58829
3.59135
3.59851
3.61282
3.63063
3.65013
3.66941
3.68705
3.70195
3.71341
3.72104
3.72451
3.72439
3.72355
3.72125
3.71629
3.70712
3.69531
3.68344
3.66813
3.66584
9.34486
9.03675
8.788
8.56175
8.34476
8.1323
7.9231
7.71728
7.51494
7.31712
7.12436
6.93693
6.75505
6.57884
6.40842
6.24391
6.08548
5.93316
5.78773
5.64909
5.51738
5.3927
5.27506
5.16447
5.06089
4.96429
4.87464
4.79193
4.71609
4.64714
4.58507
4.52992
4.48165
4.44108
4.40356
4.37364
4.34973
4.33097
4.31664
4.30598
4.29815
4.29224
4.28738
4.28281
4.27782
4.2718
4.26426
4.25486
4.2434
4.22978
4.214
4.1961
4.17618
4.15439
4.13091
4.10598
4.07977
4.05246
4.02425
3.99536
3.96601
3.93638
3.90672
3.87716
3.84794
3.81923
3.79128
3.76429
3.73856
3.71439
3.69213
3.67227
3.65495
3.63991
3.62848
3.62107
3.61766
3.61805
3.62002
3.62519
3.63609
3.65277
3.67228
3.69255
3.71206
3.72968
3.74449
3.75575
3.76312
3.76603
3.76581
3.76476
3.76205
3.75631
3.74642
3.73428
3.72019
3.70649
3.68971
3.6858
9.42735
9.15201
8.92594
8.7149
8.50687
8.29943
8.09275
7.88774
7.68532
7.48651
7.29198
7.10218
6.91737
6.73777
6.56348
6.39467
6.23143
6.07408
5.92258
5.77767
5.63926
5.50735
5.38193
5.26307
5.15078
5.04514
4.94613
4.85381
4.76817
4.68924
4.61703
4.55159
4.49287
4.44095
4.39556
4.35446
4.32097
4.2935
4.2713
4.2538
4.24041
4.23021
4.22223
4.21562
4.20959
4.20342
4.19652
4.18836
4.1786
4.16698
4.1534
4.13783
4.12033
4.10103
4.08012
4.05772
4.03402
4.00917
3.9834
3.95691
3.92996
3.90276
3.87553
3.84853
3.82196
3.7961
3.7712
3.74755
3.72548
3.70535
3.6876
3.6728
3.65995
3.65114
3.6456
3.64553
3.64652
3.64996
3.65772
3.67319
3.69174
3.71237
3.73337
3.75329
3.77103
3.78582
3.79701
3.80414
3.80677
3.8065
3.80531
3.80231
3.79603
3.78574
3.7731
3.75891
3.74315
3.72795
3.71
3.70469
9.51364
9.26561
9.05477
8.85339
8.65226
8.44963
8.24618
8.04312
7.84167
7.64288
7.44757
7.25628
7.0694
6.88717
6.70977
6.53737
6.37007
6.20801
6.05143
5.90109
5.75676
5.6184
5.48603
5.35979
5.23973
5.12597
5.01857
4.91758
4.82305
4.73501
4.65349
4.57852
4.51017
4.44843
4.39377
4.34435
4.301
4.26441
4.23381
4.2087
4.18849
4.17253
4.16001
4.15008
4.14191
4.13468
4.12765
4.12017
4.11173
4.10191
4.09048
4.07729
4.06232
4.04565
4.02743
4.00775
3.98674
3.96458
3.94148
3.91767
3.89337
3.86886
3.84438
3.82022
3.79668
3.77404
3.75267
3.73289
3.71513
3.69973
3.68747
3.67719
3.67058
3.66844
3.66904
3.67151
3.67766
3.69022
3.70774
3.72837
3.75026
3.77198
3.79237
3.81041
3.82535
3.83658
3.84365
3.84603
3.84571
3.84444
3.84128
3.8347
3.8242
3.81139
3.79687
3.78114
3.76407
3.74766
3.7288
3.72238
9.59571
9.3641
9.16542
8.97286
8.77851
8.58119
8.38178
8.18168
7.98223
7.78455
7.58954
7.39781
7.20982
7.02587
6.84618
6.67096
6.50032
6.33431
6.17321
6.01802
5.86837
5.72428
5.5858
5.45307
5.32617
5.20525
5.09039
4.9817
4.87922
4.783
4.69311
4.60956
4.53246
4.46184
4.39777
4.34078
4.28809
4.24259
4.20345
4.17034
4.14284
4.12044
4.10248
4.08822
4.07684
4.06752
4.05944
4.05187
4.04413
4.03569
4.02612
4.01518
4.00272
3.98872
3.97327
3.95641
3.93826
3.91901
3.89883
3.87797
3.85663
3.83514
3.81374
3.79282
3.77269
3.75377
3.73641
3.72101
3.70808
3.69809
3.69083
3.68669
3.68697
3.68867
3.69337
3.7035
3.72019
3.74016
3.76238
3.78541
3.80798
3.82894
3.84738
3.86257
3.874
3.88114
3.88351
3.88317
3.88184
3.87861
3.87191
3.86142
3.84862
3.83413
3.81822
3.80127
3.78316
3.76578
3.74622
3.73896
9.6636
9.44082
9.25462
9.07203
8.88497
8.6932
8.49822
8.3017
8.10511
7.90957
7.71595
7.52486
7.33676
7.15202
6.9709
6.79365
6.62046
6.4515
6.287
6.1271
5.97262
5.82351
5.6797
5.54132
5.40846
5.28133
5.15997
5.04456
4.9351
4.83169
4.73437
4.64318
4.55822
4.47953
4.40723
4.34144
4.28193
4.22781
4.18047
4.13947
4.10453
4.07526
4.0512
4.03174
4.01619
4.00375
3.99364
3.98504
3.9772
3.96949
3.96135
3.95234
3.94221
3.93082
3.91814
3.90418
3.88905
3.87287
3.85581
3.8381
3.81999
3.80177
3.78384
3.76655
3.75036
3.73565
3.72296
3.7125
3.70531
3.70037
3.69999
3.70102
3.70456
3.71255
3.72825
3.74708
3.76914
3.79291
3.81709
3.84055
3.86224
3.88125
3.89685
3.9086
3.91609
3.91854
3.91822
3.91694
3.91381
3.90729
3.89698
3.88435
3.87005
3.85431
3.83733
3.81942
3.80049
3.78233
3.76226
3.7544
9.72955
9.50604
9.32799
9.154
8.97366
8.7871
8.59651
8.40385
8.21059
8.01777
7.82619
7.63642
7.44894
7.26413
7.08232
6.90378
6.72875
6.55742
6.38988
6.22651
6.06808
5.91463
5.76625
5.62303
5.48511
5.35265
5.22573
5.1045
4.98899
4.8793
4.77546
4.67758
4.5857
4.49991
4.42032
4.34696
4.28029
4.21877
4.16393
4.11534
4.07296
4.03667
4.00614
3.98095
3.96051
3.94416
3.93115
3.92069
3.91199
3.90431
3.89701
3.88951
3.88141
3.87244
3.86248
3.85148
3.83948
3.82657