/*--------------------------------*- C++ -*----------------------------------*\
| =========                 |                                                 |
| \\      /  F ield         | OpenFOAM: The Open Source CFD Toolbox           |
|  \\    /   O peration     | Version:  2112                                  |
|   \\  /    A nd           | Website:  www.openfoam.com                      |
|    \\/     M anipulation  |                                                 |
\*---------------------------------------------------------------------------*/
FoamFile
{
    version     2.0;
    format      ascii;
    arch        "LSB;label=32;scalar=64";
    class       surfaceScalarField;
    location    "10";
    object      phi;
}
// * * * * * * * * * * * * * * * * * * * * * * * * * * * * * * * * * * * * * //

dimensions      [1 0 -1 0 0 0 0];

oriented        oriented;

internalField   nonuniform List<scalar> 
10325
(
0.00840003
1.28526e-10
0.00840003
1.00659e-09
0.00840002
3.1211e-09
0.00840001
9.41358e-09
0.00839999
2.23664e-08
0.00839992
5.89117e-08
0.00839978
1.36177e-07
0.00839942
3.14197e-07
0.00839845
9.157e-07
0.0083967
1.53175e-06
0.00839185
4.58976e-06
0.00837951
1.11738e-05
0.00834842
3.14611e-05
0.00821082
0.000132735
0.0076325
0.000568531
0.00703599
0.00059569
0.00642889
0.000606405
0.0058029
0.000625174
0.00514634
0.000655348
0.004438
0.000706982
0.00366975
0.000767149
0.00284325
0.000825336
0.00196052
0.00088149
0.00101739
0.000941874
0.00101617
0.00840003
2.80681e-10
0.00840003
2.1796e-09
0.00840002
6.64949e-09
0.00840001
2.00671e-08
0.00839998
4.79372e-08
0.00839991
1.22293e-07
0.00839973
3.0709e-07
0.0083994
6.08838e-07
0.00839833
1.92494e-06
0.00839675
2.90907e-06
0.00839165
9.41005e-06
0.00837972
2.19669e-05
0.00834752
6.39709e-05
0.00821018
0.000265307
0.007627
0.00114176
0.00702521
0.00119668
0.006423
0.00120795
0.00580604
0.00124134
0.00515149
0.00130869
0.00443394
0.00142316
0.00365895
0.00154097
0.0028246
0.00165856
0.00193053
0.00177433
0.00098079
0.00189035
0.00199577
0.00840003
3.68864e-10
0.00840003
2.87049e-09
0.00840002
8.80964e-09
0.00840002
2.65626e-08
0.0084
6.35254e-08
0.00839995
1.63204e-07
0.00839985
3.99477e-07
0.00839956
8.62153e-07
0.00839904
2.3754e-06
0.00839725
4.49642e-06
0.00839365
1.26789e-05
0.00838277
3.17015e-05
0.00834609
0.000100943
0.00822256
0.000384083
0.00764032
0.00171401
0.00703077
0.00180531
0.00643283
0.00180514
0.00582386
0.00184949
0.00517309
0.00195812
0.00445981
0.002135
0.00368542
0.00231429
0.00284595
0.00249653
0.00194425
0.00267468
0.000985996
0.00284723
0.00298045
0.00840003
4.27107e-10
0.00840003
3.31494e-09
0.00840003
1.01858e-08
0.00840002
3.06717e-08
0.00840001
7.30702e-08
0.00839998
1.90137e-07
0.00839992
4.48666e-07
0.00839968
1.05897e-06
0.00839943
2.59627e-06
0.00839771
5.995e-06
0.00839486
1.53064e-05
0.00838473
4.08908e-05
0.00834748
0.000137081
0.00822977
0.000498007
0.00764829
0.00228509
0.00703516
0.00241781
0.00645598
0.00238374
0.00584225
0.0024624
0.00520363
0.00259577
0.00450792
0.00282902
0.00374538
0.00307537
0.00291193
0.00332917
0.00199688
0.00358855
0.00101809
0.00382472
0.00399717
0.00840003
4.64355e-10
0.00840003
3.60033e-09
0.00840003
1.10674e-08
0.00840002
3.33438e-08
0.00840002
7.90667e-08
0.00839999
2.09229e-07
0.00839996
4.75263e-07
0.00839975
1.22798e-06
0.00839962
2.71506e-06
0.00839779
7.57899e-06
0.00839543
1.75402e-05
0.00838349
5.18633e-05
0.00835225
0.000167209
0.0082282
0.00061829
0.0076509
0.00285122
0.00703585
0.00303271
0.00647282
0.00294659
0.00588224
0.00305223
0.00526042
0.00321632
0.00459058
0.00349813
0.0038408
0.00382399
0.00301184
0.0041563
0.00209611
0.00450289
0.00108094
0.00483865
0.00507672
0.00840003
4.87168e-10
0.00840003
3.77636e-09
0.00840003
1.16371e-08
0.00840002
3.50541e-08
0.00840002
8.29063e-08
0.0084
2.21825e-07
0.00839998
4.91332e-07
0.00839983
1.34243e-06
0.00839972
2.82152e-06
0.00839844
8.59761e-06
0.00839762
1.83287e-05
0.00838279
6.55617e-05
0.00836572
0.000183622
0.00823926
0.000740784
0.00769402
0.00338398
0.00707665
0.00365071
0.00652469
0.00349881
0.00595841
0.00361785
0.00535897
0.0038145
0.00470788
0.00414879
0.00398705
0.00454371
0.00316841
0.00497388
0.00223428
0.00543528
0.00117524
0.00589635
0.00625054
0.00840003
5.18067e-10
0.00840003
4.01271e-09
0.00840003
1.22906e-08
0.00840002
3.71125e-08
0.00840002
8.73757e-08
0.0084
2.35933e-07
0.00839997
5.16418e-07
0.00839983
1.44687e-06
0.00839964
3.00485e-06
0.00839864
9.34996e-06
0.00839697
1.99408e-05
0.00838852
7.29311e-05
0.00837468
0.000196502
0.00827304
0.000837552
0.00783059
0.00381241
0.00720249
0.00428032
0.0066406
0.00406131
0.00608938
0.00416839
0.00552115
0.00438179
0.00489651
0.0047724
0.00419331
0.00524568
0.00339341
0.00577279
0.00245892
0.00636878
0.00133661
0.00701738
0.00758568
0.00840003
5.15397e-10
0.00840003
4.00738e-09
0.00840003
1.24891e-08
0.00840003
3.75766e-08
0.00840003
8.86475e-08
0.00840001
2.42092e-07
0.00840002
5.08485e-07
0.00839986
1.57113e-06
0.00839997
2.88634e-06
0.00839827
1.08036e-05
0.00839738
2.07559e-05
0.00838925
7.99345e-05
0.00837076
0.000213916
0.00831889
0.000884808
0.00810065
0.0040145
0.00743497
0.00494829
0.00684322
0.00465423
0.00629463
0.00471649
0.0057495
0.00492624
0.00516425
0.00535653
0.00449808
0.00591085
0.00371452
0.00655531
0.00278097
0.00730094
0.00159832
0.00819867
0.0091825
0.00840003
4.60687e-10
0.00840003
4.99906e-09
0.00840003
1.40154e-08
0.00840002
4.51128e-08
0.00840001
9.98742e-08
0.00839996
2.81762e-07
0.00839987
5.94775e-07
0.00839974
1.66469e-06
0.00839929
3.3348e-06
0.00839892
1.09282e-05
0.00839903
2.0608e-05
0.00839441
8.34274e-05
0.00839689
0.000210235
0.00841672
0.000860989
0.0086025
0.00381118
0.00788938
0.00566459
0.00720133
0.00534384
0.00664936
0.00526828
0.00610084
0.00547416
0.0055316
0.00592465
0.00489973
0.00654173
0.00420107
0.00725308
0.00333208
0.00816879
0.00208618
0.00944281
0.011267
0.00840003
3.66102e-11
0.00840003
5.49088e-09
0.00840004
6.33444e-09
0.00840003
4.65706e-08
0.00840009
4.64684e-08
0.00840007
2.93329e-07
0.00840041
2.53131e-07
0.00840012
1.92107e-06
0.0084023
1.15608e-06
0.00839863
1.43708e-05
0.00841184
7.3635e-06
0.00839006
0.000104109
0.00847784
0.000121237
0.00857605
0.000758359
0.00945668
0.00291239
0.00864636
0.00647752
0.00774386
0.00624804
0.00719781
0.00581506
0.0066147
0.00605703
0.00607093
0.00646782
0.00550956
0.00710235
0.00488548
0.00787582
0.004079
0.00897384
0.00290473
0.0106154
0.0141698
0.00840003
1.05072e-09
0.00840003
1.81261e-09
0.00840002
1.6347e-08
0.00840005
1.97365e-08
0.00839998
1.13381e-07
0.00840014
1.29241e-07
0.0083997
6.82787e-07
0.00840083
7.81327e-07
0.00839768
4.23909e-06
0.00840758
4.43318e-06
0.00838376
3.07877e-05
0.00845954
2.80405e-05
0.0083386
0.000240434
0.00871678
0.00037995
0.00954036
0.00207657
0.00908508
0.00692571
0.00846394
0.00686652
0.00776275
0.00651618
0.0072241
0.00659453
0.00673114
0.00695951
0.00627515
0.00755729
0.00579423
0.00835546
0.00537451
0.00939182
0.00537299
0.0106147
0.0114283
0.00811194
0.00840003
5.37334e-10
0.00840003
2.99336e-09
0.00840003
1.02136e-08
0.00840003
2.88903e-08
0.00840007
7.29314e-08
0.00840001
1.85149e-07
0.00840025
4.41751e-07
0.00839989
1.11649e-06
0.0084015
2.61805e-06
0.00839886
6.93546e-06
0.00841322
1.64574e-05
0.00839369
4.68543e-05
0.00850787
0.000125399
0.00843041
0.000455699
0.00904965
0.00144797
0.00923863
0.00672213
0.00884512
0.0072573
0.00823766
0.0071227
0.00773144
0.00709879
0.00727577
0.00741292
0.00690754
0.00792331
0.00663576
0.00862514
0.00655441
0.00947093
0.00696943
0.010197
0.0104497
0.00794488
0.00840003
4.3539e-10
0.00840003
3.37657e-09
0.00840003
1.02581e-08
0.00840003
3.10992e-08
0.00840003
7.35409e-08
0.00840001
1.97203e-07
0.0084
4.45208e-07
0.00839994
1.15991e-06
0.00839989
2.65401e-06
0.00840007
6.65028e-06
0.00840054
1.59166e-05
0.00840446
4.23201e-05
0.00841598
0.000113359
0.00848684
0.000382378
0.00872595
0.00120332
0.00918292
0.00624851
0.00890401
0.00753432
0.00851927
0.00750642
0.00815034
0.00746636
0.00781353
0.00774726
0.00752816
0.00820572
0.00740279
0.00874708
0.00754569
0.0093248
0.0079975
0.00974152
0.00979563
0.00864659
0.00840003
3.56309e-10
0.00840003
2.7616e-09
0.00840003
8.57986e-09
0.00840004
2.57264e-08
0.00840005
6.09481e-08
0.00840008
1.60932e-07
0.00840017
3.59849e-07
0.00840036
9.53667e-07
0.00840102
1.98554e-06
0.00840144
6.13248e-06
0.00840622
1.1103e-05
0.00840504
4.29408e-05
0.00843235
8.56381e-05
0.00843247
0.000380239
0.00859387
0.00103825
0.00929051
0.00553505
0.00908636
0.00773726
0.00880654
0.00778533
0.00852178
0.00774945
0.00829017
0.0079765
0.00812273
0.00836992
0.0080869
0.00877886
0.00825185
0.00915494
0.00864299
0.00934496
0.00927984
0.00915316
0.00840003
3.44239e-10
0.00840003
2.66382e-09
0.00840003
8.18107e-09
0.00840003
2.46276e-08
0.00840003
5.83278e-08
0.00840004
1.54685e-07
0.00840005
3.47837e-07
0.00840008
9.06301e-07
0.00840007
1.99476e-06
0.00840064
5.47661e-06
0.0084006
1.11311e-05
0.00840478
3.82056e-05
0.0084157
7.45529e-05
0.00846517
0.000328743
0.00863209
0.000868563
0.00981334
0.00433598
0.0095031
0.00804381
0.00913603
0.00815015
0.00888183
0.00800216
0.0087239
0.00813124
0.00864293
0.00844712
0.00865996
0.00875724
0.00880384
0.00900577
0.00910319
0.00903881
0.00885577
0.00951996
0.00840003
3.12755e-10
0.00840003
2.42741e-09
0.00840003
7.46033e-09
0.00840003
2.24995e-08
0.00840004
5.33065e-08
0.00840005
1.41776e-07
0.00840008
3.19313e-07
0.00840014
8.31045e-07
0.00840027
1.85258e-06
0.00840086
4.82867e-06
0.00840097
1.0972e-05
0.00841039
2.84028e-05
0.00841111
7.35315e-05
0.00852166
0.000216657
0.00876578
0.000621323
0.0104823
0.00261082
0.0100839
0.00842836
0.00979132
0.00843798
0.00931346
0.00848128
0.00911998
0.00832127
0.00907724
0.00848497
0.00914047
0.00868819
0.00929551
0.00884399
0.00951595
0.00881069
0.00853835
0.00982435
0.00840003
2.71836e-10
0.00840003
2.11158e-09
0.00840003
6.48066e-09
0.00840003
1.9552e-08
0.00840004
4.63625e-08
0.00840006
1.23172e-07
0.0084001
2.78215e-07
0.0084002
7.15125e-07
0.00840041
1.64034e-06
0.0084012
3.98013e-06
0.0084023
9.82206e-06
0.00840738
2.2956e-05
0.00842188
5.8729e-05
0.0084721
0.000164565
0.00857458
0.000519066
0.00925813
0.00191833
0.0101723
0.00749279
0.00995772
0.0086471
0.00968004
0.00875531
0.00946822
0.00852907
0.00942304
0.00852403
0.00948789
0.00861577
0.00965895
0.00866392
0.00987695
0.00858342
0.00830855
0.0100955
0.00840003
2.01516e-10
0.00840003
1.66103e-09
0.00840003
5.13931e-09
0.00840004
1.52883e-08
0.00840005
3.64562e-08
0.00840007
9.51372e-08
0.00840013
2.15024e-07
0.00840029
5.5189e-07
0.00840072
1.20622e-06
0.00840138
3.26382e-06
0.0084045
6.68964e-06
0.00840647
2.06551e-05
0.00842304
4.20443e-05
0.00843871
0.000147351
0.00856463
0.000391526
0.00887925
0.00159688
0.0099963
0.0063547
0.010002
0.00863663
0.00988983
0.00886267
0.00973115
0.0086827
0.00971323
0.00853529
0.00978561
0.00853416
0.00993813
0.0085005
0.0101736
0.00833652
0.00810348
0.0103668
0.00840003
6.27787e-11
0.00840003
1.70279e-09
0.00840003
2.93879e-09
0.00840003
1.47867e-08
0.00840005
2.15602e-08
0.00840005
9.10497e-08
0.00840014
1.26789e-07
0.00840015
5.28397e-07
0.00840066
6.92723e-07
0.00840069
3.19151e-06
0.00840386
3.50209e-06
0.0084027
2.15218e-05
0.00842448
2.01388e-05
0.00841753
0.000152832
0.00857044
0.000237007
0.00894352
0.00121631
0.0105896
0.00468611
0.0103885
0.00883083
0.0102825
0.00896382
0.0100823
0.00887617
0.00999582
0.00861325
0.0100439
0.00847546
0.0101861
0.00834588
0.010376
0.00813377
0.00788399
0.0105822
0.00840003
1.70648e-10
0.00840003
9.70072e-10
0.00840003
3.62709e-09
0.00840004
9.23212e-09
0.00840003
2.56857e-08
0.00840006
5.82003e-08
0.00840003
1.53394e-07
0.00840022
3.39389e-07
0.00840001
8.87485e-07
0.00840122
1.96656e-06
0.0083995
5.13336e-06
0.00840907
1.18757e-05
0.00839786
3.08163e-05
0.00847063
7.95262e-05
0.00847256
0.000232716
0.00900504
0.00068115
0.0109232
0.00275519
0.0110356
0.0086978
0.0107445
0.0092466
0.0104714
0.00914112
0.0103415
0.00873376
0.0103597
0.00844536
0.0104553
0.00823817
0.0105729
0.00800145
0.00766724
0.0107746
0.00840003
2.1013e-10
0.00840003
5.94572e-10
0.00840003
3.55599e-09
0.00840003
6.10851e-09
0.00840003
2.46472e-08
0.00840005
3.8986e-08
0.00840006
1.46258e-07
0.00840017
2.26076e-07
0.0084002
8.45915e-07
0.00840089
1.26832e-06
0.00840089
5.05159e-06
0.00840596
6.73845e-06
0.00840344
3.29084e-05
0.00844339
3.90441e-05
0.00844828
0.000225741
0.00870495
0.000421183
0.00959655
0.00185554
0.0110031
0.00725855
0.0109528
0.00928292
0.0108073
0.00927398
0.0106186
0.00891151
0.0106172
0.00843357
0.0106799
0.00816244
0.0107928
0.00787161
0.0074683
0.010976
0.00840003
7.12373e-11
0.00840003
8.10495e-10
0.00840003
1.80713e-09
0.00840003
7.2916e-09
0.00840004
1.30649e-08
0.00840003
4.55749e-08
0.0084001
7.81789e-08
0.00840006
2.65436e-07
0.00840045
4.48759e-07
0.00840016
1.5428e-06
0.00840267
2.52202e-06
0.00839983
9.41072e-06
0.0084187
1.41159e-05
0.00839384
6.27318e-05
0.00852263
9.68119e-05
0.00845156
0.000488258
0.00906437
0.00123502
0.0111968
0.00509449
0.0112019
0.00926028
0.0111326
0.00932627
0.0109436
0.00908554
0.0108368
0.00852604
0.0108778
0.00810662
0.0110235
0.00771164
0.00727042
0.0112078
0.00840003
1.08194e-10
0.00840003
3.5798e-10
0.00840003
1.95258e-09
0.00840003
3.60626e-09
0.00840003
1.36158e-08
0.00840006
2.2983e-08
0.00840005
8.0812e-08
0.00840018
1.33561e-07
0.00840016
4.65698e-07
0.00840094
7.56525e-07
0.00840067
2.73944e-06
0.00840587
4.15678e-06
0.00840232
1.73076e-05
0.00844185
2.31073e-05
0.00841983
0.000117124
0.00871722
0.000187202
0.0090568
0.000891021
0.011422
0.00269804
0.0118248
0.00882978
0.0115106
0.00962504
0.0113289
0.00925065
0.0111675
0.00867229
0.0111754
0.00808024
0.0112875
0.00758498
0.00709411
0.011455
0.00840003
5.24128e-11
0.00840003
3.39112e-10
0.00840003
1.08537e-09
0.00840003
3.19389e-09
0.00840004
7.70078e-09
0.00840004
2.00069e-08
0.00840007
4.55179e-08
0.00840009
1.15303e-07
0.00840029
2.58675e-07
0.00840036
6.62657e-07
0.00840163
1.44533e-06
0.00840166
3.98086e-06
0.00841048
8.30023e-06
0.00840794
2.49173e-05
0.00846848
5.50523e-05
0.00847279
0.000179476
0.00886538
0.000491477
0.00957869
0.001968
0.0114807
0.00687191
0.0115584
0.00952427
0.0115915
0.00920178
0.0115346
0.00871534
0.0115159
0.00808351
0.0116049
0.00748453
0.00694123
0.0117545
0.00840003
3.40296e-11
0.00840003
2.73621e-10
0.00840003
8.48598e-10
0.00840003
2.5216e-09
0.00840003
6.03083e-09
0.00840004
1.57082e-08
0.00840005
3.56813e-08
0.00840007
9.04659e-08
0.00840012
2.02584e-07
0.00840025
5.14324e-07
0.00840053
1.13651e-06
0.0084014
3.00869e-06
0.00840331
6.24493e-06
0.00840819
1.93242e-05
0.00842561
3.69448e-05
0.00846423
0.000137283
0.0086182
0.000331926
0.00922065
0.0013536
0.011515
0.00451663
0.0117609
0.00924956
0.0117548
0.00919407
0.0117648
0.00869151
0.0118139
0.00802678
0.0119346
0.00735892
0.00679405
0.0120827
0.00840003
1.2694e-11
0.00840003
2.61e-10
0.00840003
5.01962e-10
0.00840003
2.28615e-09
0.00840003
3.69017e-09
0.00840003
1.41607e-08
0.00840005
2.21357e-08
0.00840005
8.20245e-08
0.00840012
1.26896e-07
0.00840015
4.70158e-07
0.00840055
7.11482e-07
0.00840071
2.74985e-06
0.00840305
3.7621e-06
0.00840465
1.72105e-05
0.0084216
1.87519e-05
0.00844309
0.000113448
0.00861119
0.000154453
0.00914012
0.000819534
0.0111766
0.00242885
0.0120265
0.00834417
0.0120184
0.00918133
0.0120848
0.00860641
0.0121811
0.00792495
0.0123026
0.00724685
0.00666559
0.0124422
0.00840003
1.95363e-11
0.00840003
1.25024e-10
0.00840003
4.47878e-10
0.00840003
1.18363e-09
0.00840003
3.17534e-09
0.00840004
7.40693e-09
0.00840004
1.8746e-08
0.00840008
4.2568e-08
0.00840009
1.06435e-07
0.00840031
2.40131e-07
0.00840037
6.08001e-07
0.00840174
1.33459e-06
0.00840162
3.63943e-06
0.00841095
7.5536e-06
0.00840586
2.25563e-05
0.00846712
4.96652e-05
0.00845699
0.000158639
0.00882527
0.000439735
0.00949197
0.00173302
0.0114886
0.0062485
0.0119024
0.0087371
0.0121353
0.00837272
0.0123817
0.00767979
0.0125851
0.00705807
0.00651591
0.0127532
0.00840003
1.71312e-11
0.00840003
8.9845e-11
0.00840003
3.31652e-10
0.00840003
8.5675e-10
0.00840003
2.32464e-09
0.00840003
5.36851e-09
0.00840004
1.36849e-08
0.00840005
3.08199e-08
0.00840007
7.75133e-08
0.00840013
1.73095e-07
0.00840026
4.36962e-07
0.0084006
9.6215e-07
0.00840149
2.5382e-06
0.00840355
5.22586e-06
0.00840869
1.61035e-05
0.00842631
3.06955e-05
0.00846544
0.000112975
0.00862078
0.000274067
0.00923536
0.00109504
0.011598
0.00376797
0.0119386
0.00835858
0.0122483
0.00807961
0.0124833
0.00746133
0.0127196
0.00684479
0.00632974
0.0129276
0.00840003
1.96742e-11
0.00840003
4.29836e-11
0.00840003
3.08124e-10
0.00840003
4.61632e-10
0.00840003
2.11851e-09
0.00840003
2.96651e-09
0.00840003
1.25034e-08
0.00840005
1.71976e-08
0.00840005
7.16294e-08
0.00840012
9.69345e-08
0.00840012
4.09585e-07
0.00840052
5.28715e-07
0.00840047
2.42456e-06
0.00840292
2.55572e-06
0.00840248
1.56261e-05
0.00842111
1.06912e-05
0.00842737
0.000102511
0.00858968
9.9837e-05
0.00900474
0.000666806
0.0107054
0.00197953
0.0117193
0.00726826
0.0122292
0.00758439
0.0125508
0.007161
0.0128222
0.00660352
0.00615205
0.0130252
0.00840003
7.34287e-12
0.00840003
4.30944e-11
0.00840003
1.44986e-10
0.00840003
4.11085e-10
0.00840003
1.02765e-09
0.00840003
2.57878e-09
0.00840004
6.08345e-09
0.00840004
1.48327e-08
0.00840007
3.46265e-08
0.00840007
8.39332e-08
0.00840027
1.95735e-07
0.00840025
4.82979e-07
0.0084015
1.10363e-06
0.00840079
2.87874e-06
0.00840945
6.52572e-06
0.008401
1.70035e-05
0.00845741
4.27756e-05
0.00842611
0.000122083
0.00870716
0.000369933
0.00920271
0.00143955
0.0106139
0.00571359
0.0114507
0.00675864
0.0121609
0.00647486
0.0125991
0.00620002
0.00589097
0.0128864
0.00840003
3.88596e-12
0.00840003
3.69461e-11
0.00840003
1.08977e-10
0.00840003
3.36023e-10
0.00840003
7.76572e-10
0.00840003
2.10277e-09
0.00840003
4.62498e-09
0.00840003
1.22508e-08
0.00840004
2.65297e-08
0.00840004
7.02367e-08
0.00840008
1.50743e-07
0.00840012
3.95757e-07
0.00840031
8.54551e-07
0.00840065
2.22678e-06
0.00840231
4.6623e-06
0.00840319
1.40806e-05
0.00841716
2.73147e-05
0.00842494
0.000103745
0.00852116
0.000261994
0.00884574
0.00106747
0.00981055
0.00458187
0.0106719
0.00593265
0.0115044
0.00568183
0.0120485
0.00568372
0.00549381
0.0124614
0.00840003
4.14576e-13
0.00840003
3.44785e-11
0.00840003
4.19433e-11
0.00840003
2.91377e-10
0.00840003
3.13017e-10
0.00840003
1.77848e-09
0.00840003
1.84991e-09
0.00840003
1.01676e-08
0.00840005
1.03292e-08
0.00840005
5.76655e-08
0.00840014
5.64623e-08
0.00840015
3.37796e-07
0.00840067
2.82298e-07
0.00840038
2.24276e-06
0.00840355
1.18969e-06
0.008399
1.6871e-05
0.00841732
7.10886e-06
0.00839189
0.000119765
0.00851851
0.000120647
0.00869251
0.000854104
0.00969582
0.00339153
0.0103472
0.00533331
0.0108939
0.00517542
0.0114135
0.00518438
0.00503567
0.0118899
0.00840003
5.46405e-12
0.00840003
6.69955e-12
0.00840003
7.94732e-11
0.00840003
7.74571e-11
0.00840003
5.45567e-10
0.00840003
5.07835e-10
0.00840003
3.24031e-09
0.00840004
2.96875e-09
0.00840003
1.86923e-08
0.00840007
1.67972e-08
0.00840001
1.07809e-07
0.00840024
9.44855e-08
0.00839984
6.39602e-07
0.00840146
5.07835e-07
0.00839773
4.33351e-06
0.00841194
2.73177e-06
0.00838186
3.30071e-05
0.00847886
1.96719e-05
0.0083403
0.000242466
0.00875546
0.000401621
0.00969994
0.00226257
0.0101566
0.00491445
0.0103952
0.00496585
0.0109467
0.00465383
0.00456925
0.0114312
0.00840003
2.29743e-12
0.00840003
9.48016e-12
0.00840003
3.81837e-11
0.00840003
9.47645e-11
0.00840003
2.68154e-10
0.00840003
5.97121e-10
0.00840003
1.58364e-09
0.00840003
3.40376e-09
0.00840004
8.96886e-09
0.00840003
1.89145e-08
0.00840009
5.03095e-08
0.00840006
1.07133e-07
0.00840038
2.81166e-07
0.00840005
6.7146e-07
0.00840268
1.64596e-06
0.00839967
4.34732e-06
0.00841974
1.22228e-05
0.00840372
2.9756e-05
0.00853129
0.000103954
0.0086026
0.000315025
0.00946047
0.00129866
0.00989752
0.00443146
0.0100761
0.00477129
0.0105331
0.00421026
0.00411301
0.0109974
0.00840003
9.2843e-13
0.00840003
1.32399e-11
0.00840003
3.63422e-11
0.00840003
1.18541e-10
0.00840003
2.61363e-10
0.00840003
7.37522e-10
0.00840003
1.56114e-09
0.00840003
4.28031e-09
0.00840003
8.96819e-09
0.00840002
2.44543e-08
0.00840001
5.08326e-08
0.00839996
1.39162e-07
0.00839994
2.79743e-07
0.00839968
8.07073e-07
0.00839975
1.40866e-06
0.00839823
4.98575e-06
0.00840288
6.85166e-06
0.00839588
3.23933e-05
0.00842802
6.20392e-05
0.00848335
0.000244244
0.00880205
0.000890381
0.00938447
0.00375197
0.00989243
0.00423009
0.0101449
0.00397136
0.00373735
0.0105195
0.00840003
-1.27687e-12
0.00840003
2.09388e-11
0.00840003
1.30936e-11
0.00840003
1.71743e-10
0.00840003
1.09362e-10
0.00840003
1.06008e-09
0.00840003
6.85918e-10
0.00840003
6.22029e-09
0.00840003
4.05108e-09
0.00840002
3.63438e-08
0.00840004
2.31642e-08
0.00839994
2.14135e-07
0.00840008
1.1673e-07
0.0083994
1.35087e-06
0.00840036
3.13208e-07
0.00839505
9.48493e-06
0.00840487
-3.89491e-06
0.00836927
6.39751e-05
0.00843851
-1.48175e-05
0.00832741
0.000339972
0.00864438
0.000509578
0.00899416
0.00328822
0.00950709
0.00370379
0.00981755
0.00367693
0.0034007
0.0101625
0.00840003
1.34777e-12
0.00840003
7.70463e-12
0.00840003
2.83803e-11
0.00840003
7.27828e-11
0.00840003
2.00163e-10
0.00840003
4.5902e-10
0.00840003
1.19295e-09
0.00840003
2.67578e-09
0.00840003
6.86307e-09
0.00840005
1.53212e-08
0.00840002
3.91554e-08
0.00840014
8.7427e-08
0.00839997
2.22667e-07
0.00840076
5.00623e-07
0.00839943
1.27762e-06
0.00840572
2.81134e-06
0.00839222
7.71038e-06
0.00843526
1.79352e-05
0.00835689
5.54222e-05
0.00851847
0.000163908
0.00836405
0.000622498
0.00853982
0.00298636
0.00896818
0.00327421
0.00940259
0.00324424
0.00304974
0.00976357
0.00840003
3.50299e-12
0.00840003
-2.26306e-12
0.00840003
3.77254e-11
0.00840003
-1.37182e-12
0.00840003
2.48684e-10
0.00840003
4.58512e-12
0.00840003
1.43923e-09
0.00840003
-3.51567e-11
0.00840003
8.10586e-09
0.00840004
-9.3809e-10
0.00840003
4.58602e-08
0.00840011
-1.17338e-08
0.00839999
2.80664e-07
0.00840064
-2.07026e-07
0.00839939
2.19053e-06
0.00840451
-2.72988e-06
0.00839105
1.9287e-05
0.0084266
-2.04687e-05
0.00833664
0.000137224
0.00845969
2.59263e-05
0.00830555
0.000735952
0.00831648
0.00284383
0.00864275
0.00294872
0.00907835
0.0028135
0.00269431
0.00944129
0.00840003
1.26153e-12
0.00840003
4.38642e-12
0.00840003
1.95251e-11
0.00840003
4.54131e-11
0.00840003
1.36247e-10
0.00840003
2.9111e-10
0.00840003
8.09619e-10
0.00840003
1.69265e-09
0.00840003
4.64523e-09
0.00840002
9.6127e-09
0.00840003
2.65712e-08
0.00839994
5.41643e-08
0.00840004
1.56745e-07
0.00839939
2.88132e-07
0.00840041
1.0246e-06
0.00839544
1.40083e-06
0.00840671
7.2116e-06
0.00837315
8.38849e-06
0.0084534
5.23998e-05
0.00833105
0.00013063
0.00855987
0.000462586
0.00862016
0.00263854
0.00879087
0.00278342
0.0090917
0.00251855
0.00243381
0.00935575
0.00840003
4.06288e-13
0.00840003
7.89967e-12
0.00840003
2.08323e-11
0.00840003
7.08711e-11
0.00840003
1.52768e-10
0.00840003
4.48854e-10
0.00840003
9.37884e-10
0.00840003
2.68129e-09
0.00840003
5.59263e-09
0.00840002
1.59011e-08
0.0084
3.31515e-08
0.00839994
9.38008e-08
0.00839987
1.94151e-07
0.00839946
5.41348e-07
0.00839926
1.07574e-06
0.00839663
3.16856e-06
0.00839845
4.48954e-06
0.00838063
2.15899e-05
0.00839886
2.86367e-05
0.00835154
0.000157498
0.00834336
0.000421956
0.00848481
0.0023369
0.0087217
0.00256648
0.00900003
0.00225307
0.00218351
0.00925643
0.00840003
-1.22944e-12
0.00840003
1.30611e-11
0.00840003
4.39981e-12
0.00840003
1.05059e-10
0.00840003
4.18318e-11
0.00840003
6.4842e-10
0.00840003
2.74111e-10
0.00840003
3.8238e-09
0.00840003
1.65782e-09
0.00840002
2.24789e-08
0.00840004
9.45106e-09
0.00839998
1.34452e-07
0.00840011
4.19831e-08
0.00839961
8.93345e-07
0.00840068
-1.17416e-07
0.00839629
6.60963e-06
0.00840526
-5.15879e-06
0.00837474
4.67526e-05
0.00842979
-3.32713e-05
0.00828076
0.000284782
0.00839639
0.000252521
0.00834827
0.00221097
0.00859676
0.00236319
0.00886333
0.00201246
0.00191159
0.0091473
0.00840003
1.93639e-14
0.00840003
4.36539e-12
0.00840003
1.0162e-11
0.00840003
3.9281e-11
0.00840003
7.60851e-11
0.00840003
2.45763e-10
0.00840003
4.54801e-10
0.00840003
1.4308e-09
0.00840003
2.58547e-09
0.00840004
8.20378e-09
0.00840003
1.48048e-08
0.0084001
4.68731e-08
0.00839999
9.3289e-08
0.00840055
2.76861e-07
0.00839948
5.59685e-07
0.00840373
2.02259e-06
0.00839368
2.47466e-06
0.00842266
1.51108e-05
0.00835625
2.03507e-05
0.00850846
0.000116846
0.00828326
0.000416455
0.00833408
0.0019497
0.00862386
0.00215022
0.00889461
0.00178407
0.00168117
0.00914355
0.00840003
1.06398e-12
0.00840003
2.55702e-12
0.00840003
1.64765e-11
0.00840003
2.76836e-11
0.00840003
1.1359e-10
0.00840003
1.82048e-10
0.00840003
6.92e-10
0.00840003
1.09682e-09
0.00840003
4.11534e-09
0.00840003
6.47866e-09
0.00840001
2.42527e-08
0.00840001
3.76321e-08
0.00839991
1.36353e-07
0.00839991
2.04009e-07
0.0083993
7.71959e-07
0.00840027
8.15551e-07
0.00839448
5.54657e-06
0.00840461
3.01371e-06
0.00836955
4.21745e-05
0.00839842
6.91962e-05
0.00839227
0.000359146
0.00846258
0.00163537
0.00882202
0.00189778
0.00908618
0.00158237
0.00148722
0.00930848
0.00840003
2.0619e-12
0.00840003
-4.59793e-12
0.00840003
1.81964e-11
0.00840003
-2.71013e-11
0.00840003
1.17364e-10
0.00840003
-1.54203e-10
0.00840003
6.81651e-10
0.00840003
-9.12859e-10
0.00840003
3.89348e-09
0.00840004
-5.60381e-09
0.00840003
2.25075e-08
0.0084001
-3.60061e-08
0.00840003
1.43153e-07
0.00840044
-2.83362e-07
0.00839958
1.20663e-06
0.00840265
-2.66838e-06
0.00839405
1.15233e-05
0.00841374
-1.98377e-05
0.00835232
8.94723e-05
0.0084441
-4.29537e-05
0.00835229
0.000379975
0.00858177
0.00113685
0.00906693
0.00154661
0.00929942
0.00142831
0.00132041
0.00949853
0.00840003
5.62175e-13
0.00840003
-3.22226e-13
0.00840003
5.68966e-12
0.00840003
-1.94254e-14
0.00840003
3.66784e-11
0.00840003
-1.37941e-12
0.00840003
2.01978e-10
0.00840003
-5.76716e-11
0.00840003
1.04221e-09
0.00840002
-7.07107e-10
0.00840004
5.23281e-09
0.00839999
-5.90964e-09
0.00840007
2.91295e-08
0.00839969
-4.15788e-08
0.0084005
2.15194e-07
0.00839702
-2.10525e-07
0.00840527
2.26453e-06
0.00837979
-2.04296e-07
0.00843771
2.25563e-05
0.0083253
4.32496e-05
0.00845836
0.000190598
0.00831151
0.00102251
0.00869924
0.00129305
0.00901214
0.0011831
0.00107548
0.00928081
0.00840003
-1.66251e-13
0.00840003
3.01133e-12
0.00840003
4.9112e-12
0.00840003
2.57328e-11
0.00840003
3.9218e-11
0.00840003
1.61812e-10
0.00840003
2.50075e-10
0.00840003
9.74285e-10
0.00840003
1.55074e-09
0.00840002
5.88875e-09
0.00840001
9.58728e-09
0.00839994
3.6199e-08
0.00839989
5.62444e-08
0.00839948
2.34373e-07
0.00839931
2.61495e-07
0.00839666
1.5523e-06
0.00839799
6.40954e-07
0.00838049
1.06762e-05
0.00839514
4.51844e-06
0.00833141
8.23924e-05
0.00827731
0.000187917
0.00805521
0.000995585
0.00832958
0.00114061
0.00870607
0.000867546
0.000778815
0.00902086
0.00840003
-8.3093e-13
0.00840003
6.62329e-12
0.00840003
-7.25823e-13
0.00840003
5.09398e-11
0.00840003
2.39474e-12
0.00840003
3.1623e-10
0.00840003
4.3136e-11
0.00840003
1.91538e-09
0.00840003
4.06377e-10
0.00840002
1.16959e-08
0.00840003
2.81473e-09
0.00839998
7.26205e-08
0.0084
1.55404e-08
0.00839969
4.83241e-07
0.00839987
-5.62905e-08
0.00839733
3.37405e-06
0.00840095
-2.47455e-06
0.00838142
2.37731e-05
0.00840288
-1.7729e-05
0.00832028
0.000141731
0.00834038
0.000102484
0.008061
0.00104231
0.00833514
0.000961136
0.00868467
0.000568132
0.000510481
0.00896591
0.00840003
1.00427e-12
0.00840003
-5.24516e-12
0.00840003
5.01738e-12
0.00840003
-3.81535e-11
0.00840003
2.69644e-11
0.00840003
-2.32732e-10
0.00840003
1.33634e-10
0.00840003
-1.39854e-09
0.00840003
6.16621e-10
0.00840005
-8.49433e-09
0.00840005
2.80116e-09
0.00840017
-5.26489e-08
0.00840012
2.27191e-08
0.00840095
-3.53468e-07
0.00840032
3.28889e-07
0.00840587
-2.35326e-06
0.00839789
4.01259e-06
0.00843361
-1.43721e-05
0.00836999
3.54264e-05
0.00853635
-4.84879e-05
0.00846565
0.000145321
0.00892801
0.000285185
0.00932808
0.000600448
0.00936142
0.000560647
0.000443337
0.00944072
0.00840003
2.76938e-13
0.00840003
-2.0399e-12
0.00840003
-5.5755e-13
0.00840003
-1.63149e-11
0.00840003
-8.29449e-12
0.00840003
-1.00078e-10
0.00840003
-6.4389e-11
0.00840003
-5.96202e-10
0.00840003
-4.57649e-10
0.00840002
-3.57544e-09
0.00840003
-3.04333e-09
0.00839998
-2.1699e-08
0.00840001
-1.46191e-08
0.00839971
-1.3814e-07
0.00839996
6.39462e-09
0.0083979
-8.22962e-07
0.0084011
6.20119e-07
0.00838715
-4.36197e-06
0.00841143
7.91802e-06
0.00835783
-1.59141e-05
0.00840858
3.45122e-05
0.00834484
0.000146143
0.0086317
0.000273439
0.00891132
0.000284304
0.000234877
0.00912925
0.00840003
0.00840003
0.00840003
0.00840003
0.00840003
0.00840003
0.00840003
0.00840003
0.00840003
0.00840002
0.00840002
0.00839998
0.00839996
0.00839975
0.00839967
0.00839841
0.00839853
0.00839123
0.00839595
0.00836465
0.00835482
0.00833069
0.00852841
0.00880389
0.00904191
0.00376988
0.00433864
0.00149125
0.00227235
-0.00061053
0.00209981
-0.00150279
0.000891986
-0.00209996
0.000596532
-0.0024322
0.000333988
-0.00254547
0.00011577
-0.00257238
2.90077e-05
-0.0026175
4.67561e-05
-0.00266136
4.55002e-05
-0.00270373
4.41299e-05
-0.00272635
2.4388e-05
-0.00272218
-2.66313e-06
-0.00270255
-1.83355e-05
-0.00267392
-2.77583e-05
-0.00263501
-3.81705e-05
-0.00257851
-5.55509e-05
-0.0025052
-7.23629e-05
-0.00241701
-8.73124e-05
-0.00231495
-0.000101304
-0.00220003
-0.000114252
-0.00207285
-0.000126735
-0.00193311
-0.000139146
-0.00178268
-0.000150366
-0.00161824
-0.000164773
-0.00144513
-0.000173695
-0.00126381
-0.000181768
-0.0010765
-0.000187787
-0.000882939
-0.0001939
-0.000684409
-0.000198915
-0.000481862
-0.000202908
-0.000272582
-0.000209324
-5.51239e-05
-0.000217037
0.000166661
-0.000221328
0.000381268
-0.000214035
0.000590304
-0.000208164
0.000794722
-0.000203156
0.000995757
-0.00019939
0.00119108
-0.000193788
0.00138073
-0.000188023
0.0015632
-0.000180567
0.00174077
-0.000175474
0.00191693
-0.000173704
0.00209248
-0.000172928
0.00226153
-0.000166572
0.0024239
-0.000159387
0.00257997
-0.000152738
0.0027296
-0.000146707
0.00287329
-0.000140694
0.00301121
-0.00013506
0.00314307
-0.000129248
0.00326944
-0.000123747
0.00339004
-0.000118131
0.00350532
-0.000112796
0.00361491
-0.000107432
0.00371951