/*--------------------------------*- C++ -*----------------------------------*\
| =========                 |                                                 |
| \\      /  F ield         | OpenFOAM: The Open Source CFD Toolbox           |
|  \\    /   O peration     | Version:  2112                                  |
|   \\  /    A nd           | Website:  www.openfoam.com                      |
|    \\/     M anipulation  |                                                 |
\*---------------------------------------------------------------------------*/
FoamFile
{
    version     2.0;
    format      ascii;
    arch        "LSB;label=32;scalar=64";
    class       volScalarField;
    location    "10";
    object      T;
}
// * * * * * * * * * * * * * * * * * * * * * * * * * * * * * * * * * * * * * //

dimensions      [0 0 0 1 0 0 0];

internalField   nonuniform List<scalar> 
5250
(
1.00001
1.00003
1.00009
1.00017
1.00055
1.001
1.00312
1.00597
1.0168
1.03896
1.09357
1.26648
1.71442
2.48387
2.72595
2.7235
2.72368
2.72983
2.74328
2.75794
2.77
2.77819
2.78546
2.79054
2.7947
1.00001
1.00003
1.00009
1.00017
1.00054
1.00098
1.00307
1.0059
1.01642
1.03876
1.09208
1.26492
1.70215
2.47856
2.72456
2.72331
2.72342
2.72941
2.74262
2.75695
2.76888
2.77685
2.78388
2.78795
2.79161
1.00001
1.00003
1.00009
1.00016
1.00052
1.00095
1.00291
1.00576
1.01557
1.03844
1.08899
1.26189
1.67626
2.4668
2.72006
2.72269
2.72273
2.72838
2.74109
2.755
2.76666
2.77412
2.78148
2.78551
2.78767
1.00001
1.00002
1.00008
1.00015
1.00049
1.00091
1.00272
1.00555
1.0146
1.03756
1.08513
1.25622
1.64221
2.44534
2.71073
2.72131
2.72101
2.72601
2.73897
2.75031
2.7628
2.77023
2.77494
2.78081
2.78323
1.00001
1.00002
1.00008
1.00014
1.00046
1.00086
1.00253
1.00528
1.0136
1.03599
1.08066
1.24746
1.60227
2.41041
2.69627
2.7191
2.71841
2.72192
2.73461
2.74661
2.75491
2.76349
2.76962
2.7713
2.77287
1.00001
1.00002
1.00007
1.00013
1.00043
1.0008
1.00233
1.00494
1.01258
1.03368
1.07501
1.23483
1.55264
2.35975
2.67545
2.71562
2.71422
2.71546
2.72642
2.73896
2.7494
2.75325
2.75794
2.76255
2.76374
1.00001
1.00002
1.00007
1.00012
1.0004
1.00073
1.00215
1.00455
1.01158
1.03098
1.06893
1.21586
1.49714
2.29202
2.64692
2.71183
2.70978
2.7081
2.71918
2.72515
2.73648
2.74394
2.74627
2.74495
2.74345
1.00001
1.00002
1.00006
1.00011
1.00036
1.00067
1.00195
1.00411
1.01051
1.02791
1.0626
1.19332
1.44407
2.20205
2.60825
2.70567
2.70253
2.69954
2.71103
2.71752
2.72199
2.72392
2.72797
2.72779
2.72222
1.00001
1.00002
1.00006
1.0001
1.00033
1.0006
1.00181
1.00362
1.00965
1.02409
1.05562
1.16746
1.38421
2.07478
2.55991
2.69456
2.69075
2.6822
2.69274
2.70206
2.70937
2.70862
2.70374
2.69293
2.67251
1.00001
1.00001
1.00005
1.00009
1.00027
1.00051
1.00148
1.00312
1.00799
1.02074
1.04715
1.14129
1.31968
1.90913
2.48824
2.67949
2.67745
2.66871
2.67627
2.67753
2.68179
2.68299
2.67538
2.6536
2.60088
1
1.00002
1.00003
1.0001
1.00019
1.00059
1.00112
1.00335
1.00676
1.0183
1.04401
1.10652
1.28886
1.85052
2.39957
2.63904
2.6426
2.64886
2.66331
2.66314
2.65944
2.65048
2.63021
2.58304
2.42424
1
1.00001
1.00004
1.00007
1.00021
1.00039
1.00122
1.00231
1.00664
1.01432
1.03649
1.09859
1.22667
1.64053
2.44141
2.60933
2.60875
2.61307
2.62368
2.63968
2.63853
2.62375
2.58848
2.53125
2.37616
1
1.00001
1.00003
1.00006
1.00019
1.00034
1.00109
1.00198
1.00607
1.01198
1.03253
1.0813
1.19095
1.54944
2.3524
2.57883
2.60765
2.59777
2.59852
2.60674
2.60669
2.59325
2.55154
2.49784
2.38023
1
1.00001
1.00003
1.00005
1.00016
1.00028
1.00089
1.00165
1.00481
1.01012
1.02586
1.06975
1.15326
1.47804
2.20309
2.52123
2.60475
2.59327
2.57672
2.57497
2.57218
2.56181
2.52787
2.48122
2.38502
1
1.00001
1.00002
1.00004
1.00013
1.00024
1.00076
1.00138
1.00428
1.00823
1.0228
1.05453
1.12854
1.37094
2.00539
2.44372
2.59426
2.58297
2.57055
2.54977
2.53795
2.52538
2.49976
2.46692
2.39683
1
1.00001
1.00002
1.00003
1.00011
1.0002
1.00062
1.00112
1.00349
1.00658
1.01908
1.04111
1.10704
1.26979
1.80669
2.33015
2.55717
2.55545
2.55171
2.54008
2.51721
2.50079
2.46496
2.43964
2.39542
1
1
1.00001
1.00003
1.00009
1.00016
1.00049
1.00089
1.00276
1.00524
1.01476
1.03356
1.08059
1.22588
1.57929
2.27942
2.53023
2.53307
2.52493
2.51911
2.50334
2.48675
2.45794
2.41699
2.38609
1
1
1.00001
1.00002
1.00007
1.00012
1.00038
1.00069
1.00206
1.00416
1.01088
1.02745
1.06258
1.18832
1.42986
2.116
2.47376
2.52633
2.50844
2.5025
2.48735
2.46987
2.44815
2.41369
2.37487
1
1
1.00001
1.00002
1.00005
1.00009
1.00029
1.00054
1.00162
1.00322
1.00859
1.02084
1.04877
1.14295
1.32362
1.87414
2.35679
2.50776
2.50227
2.49093
2.47941
2.46082
2.44264
2.4168
2.37955
1
1
1.00001
1.00002
1.00003
1.0001
1.00018
1.00055
1.00103
1.00308
1.00606
1.01693
1.0376
1.09749
1.23995
1.72711
2.20689
2.45907
2.47789
2.47352
2.46262
2.44879
2.43112
2.4146
2.39128
1
1
1
1.00001
1.00002
1.00007
1.00013
1.00042
1.00077
1.00234
1.00452
1.01245
1.02888
1.06887
1.19117
1.48857
2.09441
2.4079
2.46703
2.46518
2.45822
2.44383
2.429
2.41631
2.40243
1
1
1
1.00001
1.00002
1.00004
1.00013
1.00024
1.00073
1.0014
1.00395
1.00854
1.02158
1.05741
1.12977
1.37307
1.9975
2.28501
2.42227
2.44398
2.44845
2.4445
2.43429
2.42461
2.41384
1
1
1
1.00001
1.00001
1.00004
1.00007
1.00022
1.00042
1.00124
1.00244
1.00666
1.01508
1.03691
1.10001
1.2341
1.6037
2.24868
2.39686
2.4142
2.42543
2.43318
2.43704
2.43503
2.42896
1
1
1
1
1.00001
1.00002
1.00007
1.00013
1.00039
1.00074
1.0021
1.00444
1.01127
1.0291
1.06598
1.19256
1.45502
2.09309
2.38569
2.42699
2.42792
2.43425
2.44053
2.44005
2.43598
1
1
1
1
1.00001
1.00002
1.00005
1.0001
1.0003
1.00055
1.0017
1.0032
1.00902
1.02017
1.0491
1.13902
1.31584
1.84702
2.2949
2.43696
2.44639
2.44509
2.44777
2.4462
2.4408
1
1
1
1
1.00001
1.00001
1.00004
1.00007
1.00022
1.00041
1.00127
1.00233
1.00702
1.01404
1.03758
1.09103
1.22857
1.57001
2.222
2.41976
2.45981
2.45911
2.45929
2.45467
2.44347
1
1
1
1
1
1.00001
1.00002
1.00007
1.00012
1.00038
1.00071
1.00205
1.00428
1.01099
1.02798
1.06404
1.18642
1.44272
2.07003
2.40823
2.49966
2.49591
2.48821
2.46946
2.44839
1
1
1
1
1
1.00001
1.00002
1.00005
1.0001
1.0003
1.00054
1.00169
1.00318
1.00899
1.02007
1.04899
1.1387
1.31532
1.86728
2.33569
2.52013
2.52876
2.52013
2.50186
2.46992
1
1
1
1
1
1.00001
1.00001
1.00004
1.00007
1.00023
1.00043
1.00132
1.00247
1.00729
1.01516
1.03944
1.10093
1.24599
1.6285
2.34282
2.53534
2.55185
2.53476
2.51347
2.48258
1
1
1
1
1
1
1.00001
1.00002
1.00008
1.00014
1.00043
1.00081
1.00231
1.00502
1.01259
1.03378
1.07539
1.22687
1.55328
2.27276
2.58209
2.60774
2.57105
2.53828
2.4964
1
1
1
1
1
1
1.00001
1.00002
1.00007
1.00012
1.00038
1.00068
1.00207
1.00415
1.011
1.02767
1.06358
1.19292
1.44612
2.14404
2.56843
2.65963
2.61402
2.57249
2.52154
1
1
1
1
1
1
1.00001
1.00002
1.00005
1.0001
1.0003
1.00057
1.00162
1.00353
1.00882
1.02384
1.05324
1.16403
1.37353
2.02597
2.53434
2.69006
2.64932
2.60663
2.55941
1
1
1
1
1
1
1.00001
1.00002
1.00004
1.00012
1.00022
1.00065
1.00127
1.00357
1.0079
1.01971
1.05373
1.12098
1.35549
1.98271
2.51603
2.69304
2.65506
2.61033
2.57218
1
1
1
1
1
1
1.00001
1.00001
1.00004
1.00008
1.00025
1.00046
1.00136
1.00276
1.00728
1.01794
1.04204
1.12265
1.27817
1.74932
2.54258
2.70091
2.66667
2.6215
2.58391
1
1
1
1
1
1
1.00001
1.00001
1.00004
1.00007
1.00024
1.00043
1.00136
1.00251
1.00753
1.01561
1.04085
1.10755
1.25663
1.69938
2.55384
2.72035
2.67561
2.6465
2.60994
1
1
1
1
1
1
1.00001
1.00001
1.00004
1.00007
1.00021
1.00039
1.00121
1.00231
1.00666
1.0145
1.03711
1.10106
1.23689
1.66636
2.53726
2.71325
2.69512
2.66446
2.62567
1
1
1
1
1
1
1
1.00001
1.00003
1.00008
1.00015
1.00045
1.00087
1.00244
1.00546
1.01349
1.03725
1.08177
1.25448
1.63177
2.42846
2.71289
2.71167
2.68529
2.65001
1
1
1
1
1
1
1
1.00001
1.00002
1.00007
1.00014
1.00042
1.0008
1.00224
1.00507
1.01241
1.03471
1.07582
1.24057
1.58508
2.37426
2.69597
2.71604
2.69259
2.66138
1
1
1
1
1
1
1.00001
1.00001
1.00003
1.00006
1.00017
1.00032
1.001
1.00192
1.00547
1.0121
1.03065
1.0853
1.19011
1.5796
2.39591
2.67207
2.71194
2.69073
2.66076
1
1
1
1
1
1
1.00001
1.00001
1.00003
1.00005
1.00017
1.0003
1.00096
1.00178
1.00531
1.0111
1.02915
1.0788
1.17743
1.54326
2.35237
2.67214
2.72135
2.6969
2.66189
1
1
1
1
1
1
1
1.00001
1.00003
1.00005
1.00015
1.00028
1.00084
1.00166
1.00453
1.01076
1.02588
1.07523
1.1614
1.52703
2.30903
2.67187
2.72812
2.70263
2.66134
1
1
1
1
1
1
1
1.00001
1.00002
1.00006
1.0001
1.00032
1.00063
1.00171
1.004
1.00962
1.02719
1.05902
1.18945
1.43517
2.17182
2.67718
2.7435
2.71668
2.67038
1
1
1
1
1
1
1
1.00001
1.00002
1.00006
1.0001
1.00033
1.0006
1.0018
1.00367
1.00968
1.02493
1.05727
1.17593
1.40826
2.10016
2.66542
2.74599
2.71724
2.66805
1
1
1
1
1
1
1
1.00001
1.00002
1.00005
1.00009
1.00029
1.00055
1.00154
1.0035
1.00857
1.0239
1.05271
1.16674
1.38344
2.04712
2.66448
2.74708
2.71469
2.66224
1
1
1
1
1
1
1
1.00001
1.00002
1.00004
1.00012
1.00023
1.0007
1.00136
1.00382
1.00864
1.02136
1.06026
1.13178
1.41703
2.0789
2.66555
2.74445
2.71293
2.661
1
1
1
1
1
1
1
1.00001
1.00002
1.00004
1.00013
1.00023
1.00073
1.00132
1.00413
1.00805
1.02232
1.05516
1.12913
1.38666
2.04476
2.66581
2.74601
2.71604
2.66409
1
1
1
1
1
1
1
1.00001
1.00002
1.00004
1.00012
1.00022
1.00069
1.00128
1.00384
1.00793
1.02077
1.05439
1.1238
1.37295
2.01647
2.64988
2.74432
2.71758
2.66805
1
1
1
1
1
1
1
1.00001
1.00001
1.00004
1.00008
1.00025
1.00049
1.00132
1.00309
1.00736
1.02049
1.04472
1.13886
1.31403
1.87563
2.61615
2.75334
2.72601
2.67324
1
1
1
1
1
1
1
1.00001
1.00002
1.00004
1.00012
1.00021
1.00067
1.00125
1.00381
1.00758
1.02073
1.0504
1.12019
1.34218
1.97402
2.59465
2.74642
2.72354
2.67556
1
1
1
1
1
1
1
1.00001
1.00002
1.00004
1.00012
1.00021
1.00069
1.00125
1.00388
1.00745
1.0213
1.04838
1.1212
1.33138
1.96806
2.58251
2.74758
2.72536
2.67833
2.44913
2.75867
2.9837
3.25889
3.23357
3.19741
3.18508
3.18092
3.17574
3.16864
3.16236
3.15973
3.15974
3.15969
3.16064
3.16156
3.16524
3.16915
3.17463
3.17951
3.18509
3.1892
3.19309
3.1962
3.19769
3.19817
3.19814
3.19497
3.19228
3.18648
3.18067
3.17465
3.16947
3.16548
3.15872
3.15159
3.14507
3.13494
3.12667
3.11782
3.10968
3.09918
3.09035
3.07826
3.06809
3.05655
3.04493
3.03248
3.02164
3.00883
2.99797
2.98536
2.97414
2.96144
2.94982
2.93726
2.92501
2.91263
2.90027
2.88798
2.87589
2.86333
2.85139
2.83883
2.82687
2.81452
2.80262
2.79051
2.77878
2.76691
2.75544
2.74383
2.73267
2.72142
2.7105
2.6997
2.68908
2.67867
2.66853
2.65849
2.64889
2.6395
2.63038
2.62188
2.61348
2.60578
2.59863
2.59178
2.58608
2.58079
2.57657
2.57371
2.57176
2.57141
2.57147
2.57178
2.57289
2.57494
2.57959
2.57771
2.34738
2.52576
2.69221
3.01509
3.19831
3.28115
3.43216
3.51716
3.49573
3.49411
3.4915
3.49685
3.49804
3.49693
3.491
3.48359
3.47202
3.45476
3.43457
3.41414
3.39409
3.37506
3.36257
3.34679
3.32915
3.30564
3.28807
3.26229
3.24046
3.21946
3.19336
3.17428
3.15038
3.1312
3.10644
3.0867
3.06413
3.04511
3.02336
3.0054
2.98583
2.96814
2.95003
2.93208
2.91427
2.89744
2.88066
2.86472
2.84858
2.83349
2.8178
2.80355
2.78816
2.77425
2.75931
2.74557
2.73123
2.71775
2.704
2.69096
2.67774
2.6652
2.65252
2.64042
2.62827
2.61654
2.60483
2.59338
2.58205
2.57089
2.55991
2.54909
2.53855
2.52809
2.51809
2.50801
2.49853
2.48896
2.47983
2.47093
2.46211
2.45387
2.44561
2.43789
2.43052
2.42344
2.41709
2.411
2.4058
2.40123
2.39742
2.39494
2.39341
2.3932
2.39328
2.39357
2.39468
2.39653
2.40066
2.39851
2.32275
2.35815
2.45951
2.56209
2.72608
2.90503
3.05354
3.25188
3.36802
3.44159
3.47638
3.51931
3.54485
3.56257
3.56435
3.5568
3.54103
3.513
3.47654
3.43983
3.40283
3.36456
3.327
3.28363
3.2431
3.19898
3.15856
3.11434
3.07373
3.03187
2.99291
2.95582
2.92065
2.8879
2.85635
2.8266
2.7982
2.77192
2.74677
2.72403
2.70207
2.6829
2.6636
2.646
2.6276
2.61165
2.59513
2.58088
2.56558
2.55225
2.53791
2.52511
2.51161
2.49943
2.48671
2.47511
2.4631
2.4521
2.44074
2.4303
2.41953
2.40956
2.39929
2.38968
2.37982
2.37049
2.36103
2.35192
2.34291
2.33399
2.32545
2.31675
2.30859
2.30021
2.2923
2.28436
2.27664
2.26919
2.26174
2.25469
2.2477
2.24101
2.23463
2.22827
2.22253
2.21681
2.21169
2.20708
2.20274
2.19952
2.19662
2.19489
2.19442
2.19459
2.19509
2.19566
2.19742
2.19946
2.20409
2.20278
2.32421
2.29506
2.33005
2.36781
2.44321
2.52939
2.63035
2.72355
2.82914
2.92725
2.99767
3.05266
3.09105
3.11239
3.12182
3.11962
3.11191
3.09634
3.07265
3.04506
3.0102
2.97371
2.9333
2.89369
2.85379
2.81608
2.77958
2.7449
2.71229
2.68185
2.65401
2.62819
2.60513
2.58376
2.56489
2.54839
2.53334
2.51994
2.50723
2.49597
2.48499
2.47567
2.46588
2.45684
2.44675
2.43784
2.42857
2.42018
2.41133
2.40301
2.39432
2.38599
2.37739
2.36908
2.36055
2.35228
2.34379
2.33556
2.32711
2.31892
2.31053
2.30237
2.29403
2.28587
2.27762
2.26944
2.26132
2.25314
2.24516
2.23706
2.22918
2.22133
2.21346
2.20599
2.19823
2.19098
2.18363
2.17643
2.16951
2.16237
2.15585
2.14904
2.14286
2.13681
2.13101
2.12589
2.12075
2.11657
2.11258
2.10939
2.10715
2.10545
2.10554
2.10587
2.10668
2.10742
2.11004
2.11251
2.11813
2.11816
2.33038
2.29433
2.27768
2.29399
2.31885
2.36169
2.40627
2.45934
2.50057
2.54403
2.57275
2.60022
2.61458
2.62683
2.62675
2.62224
2.61419
2.60352
2.59121
2.57713
2.56174
2.54647
2.53139
2.51715
2.5039
2.49176
2.48071
2.47075
2.46173
2.4537
2.44642
2.44
2.4341
2.42886
2.42379
2.41921
2.41434
2.40997
2.40484
2.4003
2.39503
2.39072
2.38548
2.38039
2.37395
2.36784
2.36138
2.35516
2.34868
2.34213
2.33543
2.32855
2.3216
2.31456
2.30741
2.30033
2.29304
2.2859
2.27854
2.27126
2.26391
2.25646
2.24914
2.24157
2.23419
2.22662
2.21908
2.21166
2.20397
2.19669
2.189
2.18172
2.17423
2.16683
2.15957
2.15207
2.14502
2.13763
2.13087
2.12393
2.11741
2.11108
2.10482
2.09922
2.09347
2.08853
2.08371
2.07943
2.07593
2.07264
2.07073
2.06931
2.06943
2.06979
2.07068
2.07166
2.07479
2.07762
2.0833
2.08443
2.33711
2.29642
2.27648
2.26802
2.27705
2.29369
2.31247
2.33379
2.35059
2.36369
2.37344
2.37841
2.38289
2.38421
2.38394
2.3813
2.37918
2.37465
2.37367
2.37173
2.36854
2.36626
2.36357
2.36154
2.35999
2.35879
2.35802
2.35741
2.3571
2.3568
2.35656
2.35633
2.35586
2.35542
2.35445
2.35359
2.35179
2.35011
2.34726
2.34442
2.34103
2.33786
2.33432
2.33015
2.32522
2.31979
2.3143
2.30869
2.30295
2.29713
2.29104
2.28486
2.27844
2.27184
2.26523
2.25828
2.25156
2.24438
2.23751
2.23022
2.22311
2.21583
2.20848
2.20128
2.19382
2.18665
2.17926
2.17206
2.1649
2.15765
2.15077
2.14351
2.1367
2.12954
2.12273
2.11594
2.10916
2.10277
2.09615
2.09015
2.08392
2.07825
2.07262
2.06728
2.06242
2.05758
2.05362
2.04966
2.04671
2.04413
2.04244
2.04192
2.04217
2.04285
2.04351
2.04501
2.04847
2.05205
2.05733
2.05873
2.34737
2.30808
2.28092
2.26719
2.26681
2.27218
2.2774
2.28376
2.28576
2.28651
2.2833
2.28049
2.27619
2.27394
2.2716
2.27065
2.26844
2.2671
2.26692
2.26857
2.2709
2.27271
2.27499
2.27701
2.27956
2.28167
2.28438
2.28622
2.28875
2.29004
2.29196
2.29265
2.2934
2.2934
2.29317
2.29261
2.29132
2.28994
2.28758
2.28521
2.28226
2.27965
2.27656
2.27308
2.26874
2.26396
2.25904
2.25384
2.24876
2.24328
2.23796
2.23216
2.22641
2.22031
2.21413
2.20784
2.20136
2.19493
2.18826
2.18165
2.17488
2.168
2.16119
2.1541
2.14726
2.14012
2.13321
2.12617
2.11914
2.11219
2.10504
2.09827
2.09124
2.08471
2.07787
2.07158
2.06504
2.05894
2.05285
2.04695
2.04142
2.03584
2.03089
2.02584
2.02146
2.01724
2.0135
2.01042
2.00761
2.00591
2.00464
2.00477
2.00516
2.00599
2.00686
2.00908
2.01265
2.01644
2.0215
2.02259
2.34744
2.31731
2.30071
2.28156
2.27063
2.26785
2.26586
2.26297
2.25657
2.24885
2.24053
2.23101
2.2237
2.2165
2.21309
2.21021
2.2094
2.20782
2.20807
2.20917
2.21293
2.2163
2.22011
2.22326
2.22695
2.23004
2.23363
2.23649
2.23974
2.2421
2.2447
2.2463
2.2481
2.24885
2.2499
2.24983
2.24955
2.24886
2.24761
2.24573
2.24371
2.2415
2.23918
2.23607
2.23238
2.22794
2.22324
2.21821
2.21294
2.20763
2.20195
2.19632
2.19028
2.18425
2.178
2.17162
2.16528
2.15863
2.15221
2.14543
2.13888
2.13209
2.12538
2.11865
2.1118
2.10517
2.09823
2.09156
2.08461
2.07793
2.07112
2.06436
2.05773
2.05097
2.04456
2.03795
2.03175
2.02544
2.01948
2.01363
2.00797
2.00273
1.99752
1.99297
1.98845
1.98471
1.98115
1.97835
1.97613
1.97459
1.97413
1.97435
1.975
1.97557
1.97702
1.98016
1.98372
1.98793
1.99262
1.99403
2.35146
2.32718
2.30883
2.29803
2.29002
2.27828
2.26813
2.25855
2.24721
2.23477
2.22173
2.20982
2.1984
2.19019
2.18303
2.17981
2.17684
2.17605
2.17461
2.17487
2.17556
2.17884
2.1816
2.18524
2.18807
2.19162
2.19446
2.19788
2.20055
2.20356
2.20579
2.20808
2.2096
2.21101
2.21169
2.21223
2.2121
2.21147
2.21042
2.20873
2.20675
2.20481
2.20242
2.19974
2.19621
2.19235
2.18809
2.18347
2.17879
2.17367
2.16865
2.16319
2.15777
2.15208
2.14626
2.14042
2.13428
2.1283
2.12193
2.11577
2.10928
2.10289
2.09637
2.08979
2.08329
2.07659
2.07013
2.06354
2.05707
2.05067
2.04414
2.03794
2.03143
2.02538
2.01903
2.0131
2.00703
2.00127
1.99558
1.99008
1.98491
1.97983
1.9753
1.97086
1.96718
1.96362
1.96096
1.95862
1.95716
1.95647
1.95666
1.95718
1.95786
1.95901
1.96151
1.96503
1.96889
1.97278
1.97724
1.97836
2.36306
2.34165
2.32261
2.30883
2.29711
2.28679
2.27507
2.26079
2.24574
2.23142
2.21652
2.20313
2.19075
2.18033
2.17191
2.16561
2.16124
2.158
2.15586
2.15421
2.1533
2.15338
2.15471
2.15722
2.16004
2.16291
2.16577
2.16865
2.17132
2.17394
2.17618
2.17828
2.17985
2.18122
2.18206
2.18265
2.18264
2.18232
2.1814
2.17988
2.17822
2.17639
2.17434
2.1719
2.16871
2.16536
2.16128
2.15725
2.15257
2.14795
2.1429
2.13778
2.1325
2.12696
2.1215
2.11562
2.10993
2.10382
2.09787
2.09165
2.08543
2.07914
2.07266
2.06632
2.05966
2.05333
2.04668
2.04035
2.03383
2.02751
2.02116
2.01489
2.00874
2.00258
1.99668
1.99069
1.98507
1.97932
1.97401
1.96864
1.96368
1.9589
1.95445
1.95052
1.94682
1.94397
1.94136
1.93982
1.93864
1.93871
1.93901
1.93963
1.94046
1.94242
1.94581
1.94878
1.95294
1.95571
1.96008
1.96034
2.38303
2.36227
2.34274
2.32413
2.30763
2.29188
2.27674
2.2619
2.24612
2.22969
2.21424
2.1995
2.18635
2.17448
2.16456
2.15601
2.14946
2.14412
2.14044
2.13729
2.13544
2.13383
2.13352
2.13359
2.13529
2.13732
2.13946
2.14183
2.1438
2.1461
2.14777
2.14965
2.15079
2.15204
2.15261
2.15305
2.15295
2.15275
2.15177
2.15065
2.14905
2.14759
2.14587
2.14366
2.14107
2.13778
2.13435
2.1303
2.12615
2.12162
2.11692
2.1121
2.10701
2.10198
2.09661
2.09134
2.08576
2.08022
2.07449
2.06867
2.06283
2.05675
2.05079
2.04456
2.03855
2.0323
2.02622
2.02007
2.01395
2.00797
2.00186
1.99606
1.99003
1.98442
1.97859
1.97318
1.96769
1.96253
1.95751
1.95266
1.94821
1.94385
1.9401
1.93651
1.93371
1.93115
1.92959
1.92836
1.92833
1.92859
1.92921
1.92988
1.93216
1.93412
1.93809
1.94056
1.94463
1.94658
1.95052
1.95043
2.39866
2.3808
2.36096
2.34132
2.32059
2.3013
2.28196
2.26391
2.24728
2.2314
2.21577
2.20143
2.18747
2.17511
2.16348
2.15371
2.14495
2.13787
2.13147
2.12667
2.12256
2.11959
2.11713
2.11574
2.11476
2.11497
2.11618
2.11762
2.11912
2.12125
2.12273
2.12461
2.12578
2.12722
2.12798
2.12887
2.12914
2.12927
2.12888
2.12804
2.12686
2.12595
2.12452
2.12304
2.12067
2.11809
2.11493
2.11145
2.1077
2.10347
2.09929
2.09457
2.09008
2.08508
2.08023
2.07503
2.06974
2.06432
2.05858
2.05294
2.04683
2.04098
2.03476
2.02875
2.02255
2.01638
2.01026
2.00397
1.99797
1.99165
1.98577
1.97954
1.97377
1.96776
1.96213
1.95649
1.95111
1.94594
1.94101
1.93639
1.93205
1.92819
1.92467
1.92179
1.91932
1.9177
1.91653
1.91644
1.91669
1.91717
1.91796
1.9195
1.92269
1.92507
1.9288
1.93106
1.93432
1.93579
1.93897
1.93854
2.41604
2.39845
2.37721
2.35532
2.33309
2.31138
2.29097
2.27142
2.25251
2.23555
2.21946
2.20444
2.19046
2.17716
2.16501
2.15364
2.14363
2.1346
2.127
2.11989
2.11412
2.10895
2.105
2.10169
2.09963
2.09828
2.09796
2.09815
2.09923
2.10097
2.10249
2.10458
2.10594
2.10786
2.10892
2.11041
2.11088
2.1117
2.11153
2.11098
2.1103
2.1093
2.10828
2.10663
2.10451
2.1019
2.09887
2.09554
2.09167
2.08766
2.08312
2.07858
2.07361
2.06866
2.06344
2.05818
2.05287
2.04738
2.04198
2.03632
2.03082
2.0251
2.01953
2.01376
2.00809
2.0023
1.99654
1.99078
1.98496
1.97929
1.9735
1.96796
1.96231
1.95689
1.9515
1.94628
1.94127
1.93643
1.93189
1.92757
1.92374
1.92019
1.91733
1.9148
1.9132
1.912
1.91191
1.91216
1.91263
1.91344
1.91562
1.91772
1.92122
1.92368
1.92685
1.92867
1.93109
1.9321
1.93459
1.9337
2.42647
2.41074
2.39033
2.36833
2.34536
2.32308
2.30165
2.28171
2.26303
2.24509
2.22853
2.21242
2.19755
2.18315
2.16972
2.15719
2.14553
2.13508
2.12555
2.1173
2.11002
2.10391
2.099
2.09497
2.09211
2.08988
2.08867
2.08796
2.08813
2.08854
2.08979
2.09147
2.09278
2.0944
2.09531
2.09641
2.09672
2.09714
2.09685
2.09624
2.09522
2.09428
2.09312
2.09155
2.08955
2.08696
2.08414
2.08072
2.07711
2.07302
2.06881
2.06429
2.05963
2.05485
2.04988
2.04494
2.03973
2.03461
2.0292
2.02386
2.0184
2.01289
2.00738
2.00171
1.99615
1.99038
1.98479
1.979
1.97342
1.96771
1.96221
1.9567
1.95133
1.94613
1.94099
1.9362
1.93146
1.92715
1.92296
1.91932
1.91589
1.91321
1.91079
1.90933
1.90821
1.9082
1.90853
1.90893
1.90988
1.91159
1.9146
1.91718
1.92034
1.9225
1.92481
1.92604
1.92747
1.92796
1.92965
1.92817
2.43054
2.41512
2.39572
2.37512
2.35398
2.33295
2.31296
2.2936
2.27565
2.25815
2.24174
2.22559
2.2103
2.19537
2.18119
2.16755
2.15488
2.14304
2.13247
2.12273
2.11442
2.10677
2.10038
2.09462
2.08997
2.08605
2.08312
2.08091
2.07949
2.0785
2.07804
2.07808
2.07858
2.07915
2.07973
2.08006
2.08022
2.0801
2.07965
2.07883
2.07752
2.07647
2.0749
2.07334
2.07101
2.06857
2.06563
2.06248
2.05903
2.05527
2.05137
2.04711
2.04275
2.03812
2.03335
2.02845
2.02332
2.01824
2.01287
2.00773
2.00231
1.99714
1.99177
1.98657
1.98128
1.97603
1.97083
1.96552
1.96039
1.95508
1.95003
1.94483
1.93995
1.93498
1.93044
1.92582
1.92181
1.91769
1.9143
1.91101
1.9085
1.90626
1.90492
1.90396
1.90402
1.90428
1.90487
1.90587
1.90807
1.91048
1.91373
1.91605
1.91884
1.9203
1.92193
1.92254
1.92313
1.92325
1.92403
1.92227
2.42996
2.41377
2.39525
2.37559
2.35647
2.33785
2.3201
2.30288
2.28628
2.27007
2.25423
2.23854
2.22322
2.2081
2.19348
2.17934
2.1657
2.15296
2.14091
2.12979
2.11948
2.10997
2.10146
2.09386
2.08716
2.08127
2.07628
2.07211
2.06873
2.06612
2.06401
2.06253
2.06145
2.06082
2.06065
2.06042
2.06025
2.05978
2.05923
2.05809
2.05685
2.05541
2.05385
2.05214
2.04985
2.04745
2.04447
2.04151
2.03805
2.03452
2.03064
2.02652
2.02227
2.01766
2.01308
2.00815
2.00328
1.9982
1.99316
1.98814
1.98298
1.97807
1.97285
1.96805
1.96285
1.95811
1.95299
1.94827
1.94329
1.9386
1.93381
1.92924
1.92476
1.92044
1.91641
1.91257
1.90908
1.90588
1.90316
1.90088
1.89917
1.89803
1.89756
1.89771
1.8981
1.89892
1.90014
1.90263
1.90505
1.90816
1.91076
1.9128
1.91489
1.91553
1.91663
1.91653
1.91639
1.91611
1.91601
1.9143
2.4288
2.40906
2.39021
2.37178
2.35436
2.33757
2.32151
2.30573
2.29039
2.27516
2.25997
2.24485
2.22972
2.21475
2.19998
2.18548
2.17129
2.15765
2.14447
2.13204
2.12029
2.10937
2.09922
2.08982
2.08132
2.07349
2.06662
2.06052
2.0553
2.05101
2.04733
2.0444
2.04193
2.04042
2.03891
2.03797
2.03729
2.03662
2.03599
2.03492
2.03385
2.03239
2.03118
2.02951
2.02763
2.02529
2.02268
2.01995
2.01676
2.01354
2.00983
2.00609
2.00199
1.99772
1.99335
1.98862
1.98406
1.97904
1.97442
1.96934
1.96467
1.95965
1.95492
1.95003
1.94525
1.94052
1.93573
1.93117
1.92644
1.92211
1.91754
1.9135
1.90927
1.90564
1.90196
1.89887
1.89584
1.89354
1.89145
1.89021
1.88922
1.88925
1.88952
1.89007
1.89123
1.89267
1.89522
1.8981
1.90078
1.90375
1.90536
1.90749
1.90792
1.90881
1.90845
1.90815
1.90754
1.90688
1.90622
1.90442
2.43982
2.41329
2.39136
2.37219
2.35489
2.33854
2.32303
2.30793
2.29276
2.2779
2.26268
2.24761
2.23241
2.21723
2.20222
2.18726
2.17264
2.15834
2.14445
2.13117
2.11835
2.10631
2.09473
2.08407
2.074
2.06506
2.05659
2.0492
2.04263
2.03689
2.03206
2.02773
2.02411
2.02136
2.01922
2.01787
2.01667
2.01599
2.01528
2.01483
2.01399
2.01315
2.0123
2.01109
2.00968
2.00771
2.00568
2.00324
2.00056
1.99769
1.99435
1.99107
1.98713
1.98338
1.97896
1.97475
1.97006
1.96553
1.96078
1.95605
1.95132
1.94651
1.94182
1.937
1.93235
1.92757
1.923
1.91834
1.91396
1.9095
1.90545
1.90131
1.89774
1.89412
1.89115
1.88817
1.88596
1.88395
1.88279
1.88194
1.882
1.88234
1.88294
1.8841
1.88603
1.88842
1.8917
1.89396
1.89699
1.89852
1.90044
1.90099
1.90154
1.90126
1.90073
1.90022
1.89909
1.8979
1.89656
1.89488
2.45276
2.42678
2.40107
2.37905
2.36017
2.34299
2.32693
2.31164
2.29633
2.28114
2.26577
2.25033
2.23487
2.21941
2.20401
2.18886
2.17375
2.159
2.14465
2.13069
2.11733
2.10447
2.0923
2.08079
2.06988
2.0597
2.05042
2.04195
2.03417
2.02716
2.02105
2.01575
2.01157
2.00799
2.0056
2.00372
2.00255
2.00166
2.00116
2.00075
2.00026
1.99987
1.99919
1.99839
1.99727
1.99586
1.99429
1.99221
1.99016
1.98744
1.98483
1.98154
1.97826
1.97444
1.97054
1.96628
1.96193
1.95739
1.95276
1.94806
1.94328
1.93852
1.93369
1.92895
1.92415
1.91954
1.91482
1.91044
1.90593
1.90189
1.89772
1.89417
1.89052
1.88761
1.88463
1.88246
1.88049
1.87935
1.87861
1.87866
1.87899
1.87967
1.8809
1.88338
1.88563
1.88911
1.89132
1.89434
1.89586
1.89769
1.89832
1.89878
1.89848
1.89817
1.89742
1.89657
1.89478
1.89317
1.89154
1.88984
2.46492
2.44061
2.42052
2.40042
2.37983
2.36035
2.34112
2.32247
2.30499
2.28823
2.27173
2.25548
2.23928
2.22335
2.20743
2.19191
2.17646
2.1614
2.14667
2.13238
2.1185
2.10511
2.09229
2.08005
2.06861
2.05774
2.04775
2.03826
2.02987
2.02235
2.01596
2.0106
2.00593
2.00187
1.99861
1.99607
1.99418
1.99274
1.99175
1.99108
1.99069
1.99019
1.98972
1.98917
1.98826
1.98738
1.98587
1.98443
1.98229
1.98019
1.97749
1.97471
1.97148
1.96806
1.96431
1.96037
1.95625
1.95192
1.94753
1.94291
1.93839
1.93359
1.92902
1.92417
1.91963
1.91487
1.91044
1.90593
1.90178
1.89768
1.89404
1.89048
1.88757
1.88469
1.88255
1.88068
1.87962
1.87901
1.87906
1.87929
1.88003
1.88128
1.88395
1.8861
1.88946
1.89159
1.89438
1.89585
1.89743
1.89808
1.89828
1.89808
1.89767
1.89711
1.8958
1.89453
1.89228
1.89039
1.88854
1.8868
2.48444
2.45674
2.43467
2.41453
2.39601
2.37818
2.36104
2.34398
2.32615
2.308
2.28973
2.27174
2.25394
2.23665
2.21976
2.20338
2.18724
2.17134
2.1558
2.14064
2.12603
2.11188
2.09851
2.08563
2.07357
2.06206
2.05137
2.04143
2.03228
2.02395
2.01636
2.00979
2.00386
1.99919
1.99516
1.99223
1.98995
1.9884
1.98717
1.98644
1.98579
1.98528
1.98481
1.98419
1.98356
1.98256
1.9814
1.97982
1.97801
1.97582
1.9734
1.97068
1.96774
1.96456
1.96114
1.95758
1.95375
1.94989
1.94571
1.94158
1.93713
1.9328
1.9282
1.92377
1.91917
1.91477
1.91034
1.90613
1.90206
1.89825
1.89475
1.89158
1.88885
1.88637
1.88467
1.88324
1.88275
1.88239
1.8825
1.88329
1.88459
1.88736
1.88945
1.89262
1.89465
1.89714
1.89861
1.89983
1.90051
1.90044
1.90006
1.89969
1.89879
1.89776
1.89564
1.89394
1.89133
1.88926
1.8872
1.88549
2.52282
2.49224
2.46574
2.44205
2.42075
2.39985
2.38015
2.36064
2.34195
2.32354
2.30571
2.28817
2.27102
2.25387
2.23715
2.22019
2.20395
2.1877
2.17218
2.15691
2.1423
2.1279
2.11409
2.10056
2.0878
2.07554
2.06423
2.05362
2.04391
2.03496
2.02694
2.01948
2.01311
2.00698
2.00154
1.99641
1.99225
1.98871
1.98601
1.98366
1.982
1.98073
1.97977
1.97889
1.97796
1.97691
1.97563
1.97413
1.97234
1.97032
1.968
1.96545
1.96266
1.95968
1.95652
1.95325
1.94976
1.94618
1.94234
1.9385
1.93437
1.93035
1.92612
1.92204
1.91791
1.91394
1.91008
1.90644
1.90293
1.89979
1.89681
1.89436
1.89202
1.89051
1.88939
1.88906
1.88903
1.88924
1.89067
1.89223
1.89524
1.89741
1.90037
1.90245
1.90458
1.90612
1.90703
1.90761
1.90746
1.90699
1.90643
1.90568
1.90416
1.90253
1.90019
1.89815
1.89544
1.8932
1.89105
1.88931
2.5442
2.51995
2.49611
2.47257
2.44956
2.42747
2.40594
2.38537
2.36526
2.34595
2.32695
2.30849
2.29039
2.2728
2.25559
2.23886
2.2224
2.20623
2.1901
2.17417
2.15847
2.14308
2.12829
2.11413
2.10076
2.08815
2.07621
2.06494
2.05422
2.04412
2.03453
2.02556
2.01725
2.0096
2.00289
1.99683
1.99189
1.98781
1.98474
1.9823
1.98059
1.97919
1.97813
1.9772
1.97627
1.97536
1.97424
1.97305
1.97155
1.96992
1.96789
1.96574
1.96317
1.9605
1.95753
1.95445
1.95108
1.9476
1.94387
1.94007
1.93609
1.93212
1.92805
1.92413
1.92017
1.91651
1.91285
1.90968
1.90659
1.90415
1.90188
1.90022
1.89896
1.89835
1.89805
1.89808
1.89856
1.90045
1.90203
1.90491
1.90712
1.90978
1.91195
1.91373
1.91529
1.91597
1.9164
1.91615
1.91558
1.91503
1.91406
1.91275
1.91074
1.90883
1.90625
1.90408
1.90118
1.89892
1.89663
1.89491
2.55845
2.53845
2.51905
2.49876
2.47769
2.45644
2.43523
2.41419
2.3934
2.37302
2.35297
2.33342
2.31417
2.29534
2.27689
2.25879
2.24108
2.22371
2.20674
2.19026
2.17445
2.1591
2.14439
2.12998
2.11614
2.10256
2.08957
2.07712
2.06528
2.05432
2.04399
2.0348
2.02624
2.01892
2.01235
2.0067
2.00167
1.99731
1.99372
1.99047
1.98791
1.98561
1.98389
1.98234
1.98116
1.98008
1.97909
1.9781
1.97692
1.97559
1.97386
1.97195
1.96952
1.96688
1.96375
1.9604
1.95674
1.95291
1.94903
1.94498
1.94106
1.93694
1.93314
1.92913
1.92561
1.92194
1.91892
1.91585
1.91351
1.91156
1.90989
1.90908
1.90837
1.90819
1.90832
1.90921
1.91131
1.91301
1.91559
1.91789
1.92008
1.92226
1.92361
1.92511
1.92559
1.92588
1.92545
1.92496
1.92414
1.92333
1.92169
1.92001
1.91769
1.91559
1.91284
1.91046
1.90749
1.90503
1.90267
1.90081
2.5848
2.5641
2.54456
2.52496
2.50547
2.48585
2.46652
2.44686
2.4271
2.40682
2.38645
2.36608
2.34616
2.32672
2.30808
2.28981
2.27218
2.25463
2.23746
2.2203
2.20362
2.18715
2.17142
2.15598
2.1416
2.12758
2.1147
2.10217
2.09059
2.07936
2.06882
2.05875
2.0492
2.04028
2.03181
2.02409
2.01689
2.01047
2.00493
2.0002
1.99658
1.99353
1.99138
1.98964
1.98848
1.9875
1.98668
1.98589
1.9849
1.98386
1.98233
1.98073
1.97855
1.97641
1.97373
1.97109
1.96803
1.96492
1.9615
1.95798
1.95428
1.95045
1.94656
1.9426
1.9389
1.935
1.9318
1.92828
1.92576
1.92306
1.92157
1.91999
1.91939
1.91927
1.92015
1.922
1.92374
1.92588
1.92815
1.92993
1.93207
1.93313
1.93452
1.9348
1.93498
1.93454
1.93374
1.93317
1.93198
1.93088
1.92868
1.92695
1.92434
1.92224
1.9193
1.91692
1.9138
1.91133
1.90888
1.90704
2.59978
2.57989
2.56158
2.54343
2.52477
2.50636
2.48756
2.46885
2.44987
2.43131
2.41277
2.39487
2.37694
2.35937
2.34152
2.32371
2.30569
2.28784
2.27011
2.25283
2.23596
2.21982
2.20406
2.18884
2.17395
2.1593
2.145
2.13086
2.11724
2.10388
2.09125
2.07914
2.06776
2.05724
2.04734
2.03864
2.03041
2.02329
2.01682
2.01125
2.00636
2.0022
1.99881
1.99601
1.99383
1.99203
1.99063
1.98948
1.98841
1.98752
1.98643
1.98538
1.98419
1.98282
1.98137
1.97956
1.97763
1.97541
1.97292
1.97047
1.9674
1.96491
1.96147
1.95903
1.95554
1.95323
1.95022
1.94828
1.94627
1.9445
1.94319
1.94174
1.94171
1.94208