/*--------------------------------*- C++ -*----------------------------------*\
| =========                 |                                                 |
| \\      /  F ield         | OpenFOAM: The Open Source CFD Toolbox           |
|  \\    /   O peration     | Version:  2112                                  |
|   \\  /    A nd           | Website:  www.openfoam.com                      |
|    \\/     M anipulation  |                                                 |
\*---------------------------------------------------------------------------*/
FoamFile
{
    version     2.0;
    format      ascii;
    arch        "LSB;label=32;scalar=64";
    class       volVectorField;
    location    "10";
    object      U;
}
// * * * * * * * * * * * * * * * * * * * * * * * * * * * * * * * * * * * * * //

dimensions      [0 1 -1 0 0 0 0];

internalField   nonuniform List<vector> 
5250
(
(2.99999 1.89485e-08 0)
(2.99998 1.47469e-07 0)
(2.99994 4.53187e-07 0)
(2.99986 1.36469e-06 0)
(2.99963 3.22e-06 0)
(2.99918 8.5023e-06 0)
(2.99785 1.93954e-05 0)
(2.99534 4.4526e-05 0)
(2.98694 0.000132377 0)
(2.97196 0.000213218 0)
(2.91702 0.00062812 0)
(2.78059 0.00136443 0)
(2.40896 0.00342112 0)
(1.32243 0.0097238 0)
(0.585525 0.0204951 0)
(0.571111 0.0222261 0)
(0.586124 0.0236562 0)
(0.567359 0.0251524 0)
(0.506488 0.0268865 0)
(0.418825 0.0290899 0)
(0.340958 0.0317767 0)
(0.272851 0.0347893 0)
(0.20193 0.0380394 0)
(0.121435 0.0419188 0)
(0.0540115 0.0476283 0)
(2.99999 6.12001e-08 0)
(2.99998 4.77745e-07 0)
(2.99994 1.47053e-06 0)
(2.99986 4.43792e-06 0)
(2.99964 1.05992e-05 0)
(2.9992 2.72782e-05 0)
(2.99788 6.67031e-05 0)
(2.99543 0.00013832 0)
(2.98708 0.00042437 0)
(2.97238 0.000649056 0)
(2.91794 0.00195468 0)
(2.78295 0.00416326 0)
(2.41521 0.0105533 0)
(1.33527 0.0298578 0)
(0.594186 0.0619874 0)
(0.571002 0.0644427 0)
(0.585646 0.0660403 0)
(0.566897 0.0679361 0)
(0.506307 0.0707944 0)
(0.418981 0.0750475 0)
(0.340952 0.0797914 0)
(0.272146 0.084685 0)
(0.200212 0.0893767 0)
(0.11834 0.0942156 0)
(0.0503757 0.0993083 0)
(2.99999 9.71965e-08 0)
(2.99998 7.58732e-07 0)
(2.99994 2.33615e-06 0)
(2.99987 7.04982e-06 0)
(2.99965 1.69004e-05 0)
(2.99923 4.32091e-05 0)
(2.99794 0.000107082 0)
(2.99563 0.000222387 0)
(2.98737 0.000643462 0)
(2.97325 0.00108702 0)
(2.91984 0.00309523 0)
(2.7879 0.0067989 0)
(2.42848 0.0183297 0)
(1.36324 0.0500969 0)
(0.61404 0.106817 0)
(0.571579 0.109408 0)
(0.585942 0.111163 0)
(0.56804 0.114191 0)
(0.508964 0.119651 0)
(0.422671 0.127955 0)
(0.344655 0.136519 0)
(0.275365 0.145412 0)
(0.202644 0.154116 0)
(0.119544 0.162416 0)
(0.049786 0.16917 0)
(2.99999 1.18538e-07 0)
(2.99998 9.22751e-07 0)
(2.99994 2.8408e-06 0)
(2.99987 8.55985e-06 0)
(2.99967 2.04481e-05 0)
(2.99927 5.28355e-05 0)
(2.99803 0.00012675 0)
(2.99588 0.000286067 0)
(2.9878 0.0007351 0)
(2.97445 0.0015177 0)
(2.92251 0.00390597 0)
(2.79616 0.00916376 0)
(2.44854 0.0263839 0)
(1.40384 0.0695358 0)
(0.643644 0.153015 0)
(0.570431 0.154319 0)
(0.585407 0.155165 0)
(0.569814 0.160167 0)
(0.513749 0.16819 0)
(0.429242 0.180346 0)
(0.351566 0.193123 0)
(0.2824 0.206589 0)
(0.209159 0.220152 0)
(0.124209 0.232828 0)
(0.0512386 0.241864 0)
(2.99999 1.3271e-07 0)
(2.99998 1.03071e-06 0)
(2.99995 3.17331e-06 0)
(2.99988 9.55838e-06 0)
(2.99969 2.27318e-05 0)
(2.99932 5.96112e-05 0)
(2.99814 0.000137876 0)
(2.99614 0.000339851 0)
(2.98839 0.00078599 0)
(2.97593 0.00196489 0)
(2.92593 0.00462686 0)
(2.80783 0.0118248 0)
(2.47532 0.0339884 0)
(1.4582 0.0904093 0)
(0.683688 0.202725 0)
(0.566586 0.199798 0)
(0.584351 0.198081 0)
(0.572807 0.20558 0)
(0.520148 0.215901 0)
(0.438549 0.231322 0)
(0.361977 0.248589 0)
(0.293264 0.267207 0)
(0.219592 0.286321 0)
(0.132327 0.304287 0)
(0.0546508 0.316501 0)
(2.99999 1.41606e-07 0)
(2.99998 1.09793e-06 0)
(2.99995 3.37955e-06 0)
(2.99989 1.01797e-05 0)
(2.99971 2.41025e-05 0)
(2.99937 6.40906e-05 0)
(2.99826 0.000143644 0)
(2.99642 0.000380337 0)
(2.98914 0.00081725 0)
(2.97769 0.00233864 0)
(2.93034 0.00507204 0)
(2.82252 0.0151499 0)
(2.50956 0.0397489 0)
(1.53417 0.113579 0)
(0.738502 0.257435 0)
(0.561957 0.245951 0)
(0.585185 0.239944 0)
(0.579405 0.249674 0)
(0.529929 0.262504 0)
(0.451967 0.281586 0)
(0.377183 0.303818 0)
(0.309315 0.328492 0)
(0.235171 0.354728 0)
(0.144582 0.380237 0)
(0.0603872 0.398025 0)
(2.99999 1.49718e-07 0)
(2.99998 1.16154e-06 0)
(2.99996 3.57424e-06 0)
(2.9999 1.07817e-05 0)
(2.99973 2.54671e-05 0)
(2.99942 6.83989e-05 0)
(2.9984 0.00015073 0)
(2.9967 0.000415439 0)
(2.99001 0.000865374 0)
(2.97951 0.0026156 0)
(2.93607 0.00542029 0)
(2.83902 0.0180784 0)
(2.55133 0.0435672 0)
(1.6418 0.136704 0)
(0.81165 0.316258 0)
(0.558822 0.293838 0)
(0.590615 0.282015 0)
(0.592178 0.293082 0)
(0.545549 0.308062 0)
(0.47161 0.331048 0)
(0.39906 0.358905 0)
(0.33244 0.390861 0)
(0.258427 0.4262 0)
(0.164232 0.462859 0)
(0.0705116 0.491198 0)
(3 1.52249e-07 0)
(2.99999 1.17737e-06 0)
(2.99996 3.62309e-06 0)
(2.99991 1.09109e-05 0)
(2.99976 2.56287e-05 0)
(2.99947 6.97379e-05 0)
(2.99855 0.000148138 0)
(2.99702 0.000439461 0)
(2.99096 0.000847195 0)
(2.98152 0.00288883 0)
(2.94259 0.00575685 0)
(2.85669 0.0200707 0)
(2.60031 0.0476808 0)
(1.78053 0.1561 0)
(0.90344 0.374684 0)
(0.559928 0.342513 0)
(0.602444 0.324591 0)
(0.612648 0.335792 0)
(0.568657 0.352388 0)
(0.49927 0.379452 0)
(0.429698 0.41353 0)
(0.365181 0.454257 0)
(0.292475 0.501388 0)
(0.195545 0.554804 0)
(0.0885536 0.604393 0)
(3 1.77179e-07 0)
(2.99999 1.37182e-06 0)
(2.99996 4.21597e-06 0)
(2.99992 1.27172e-05 0)
(2.99978 3.00296e-05 0)
(2.99952 8.09764e-05 0)
(2.99871 0.000177998 0)
(2.99729 0.000497709 0)
(2.99203 0.00102245 0)
(2.98365 0.00321531 0)
(2.94974 0.00652408 0)
(2.87649 0.0219605 0)
(2.6552 0.0523297 0)
(1.94679 0.169425 0)
(1.02074 0.424818 0)
(0.577615 0.394468 0)
(0.627537 0.372701 0)
(0.644925 0.379428 0)
(0.602941 0.396606 0)
(0.538174 0.427112 0)
(0.47186 0.467988 0)
(0.410558 0.517493 0)
(0.342573 0.578902 0)
(0.248549 0.658287 0)
(0.123341 0.751897 0)
(3 9.87371e-10 0)
(2.99999 1.63086e-06 0)
(2.99997 2.58392e-06 0)
(2.99993 1.40279e-05 0)
(2.99981 1.89638e-05 0)
(2.99959 8.77806e-05 0)
(2.9989 0.000106374 0)
(2.99772 0.000552599 0)
(2.99321 0.000490487 0)
(2.98615 0.00393437 0)
(2.95761 0.00265063 0)
(2.89741 0.0273032 0)
(2.71337 0.0367691 0)
(2.13462 0.171827 0)
(1.17543 0.422713 0)
(0.636166 0.435249 0)
(0.675021 0.425084 0)
(0.693258 0.423263 0)
(0.653158 0.442412 0)
(0.592285 0.47429 0)
(0.528638 0.520677 0)
(0.471834 0.578585 0)
(0.416095 0.658948 0)
(0.340188 0.780874 0)
(0.191081 0.988984 0)
(3 1.27564e-07 0)
(2.99999 9.8429e-07 0)
(2.99997 3.03235e-06 0)
(2.99993 9.11273e-06 0)
(2.99984 2.13853e-05 0)
(2.99959 5.82362e-05 0)
(2.9991 0.000121777 0)
(2.99761 0.000373475 0)
(2.99483 0.000664115 0)
(2.98548 0.00253238 0)
(2.96821 0.00472503 0)
(2.90766 0.0162291 0)
(2.75554 0.043809 0)
(2.34508 0.115984 0)
(1.30017 0.368657 0)
(0.698438 0.464613 0)
(0.714996 0.478929 0)
(0.737076 0.472233 0)
(0.70901 0.490213 0)
(0.654964 0.521159 0)
(0.59824 0.569474 0)
(0.552641 0.6347 0)
(0.525604 0.730056 0)
(0.526332 0.877559 0)
(0.557419 1.11808 0)
(3 2.84918e-07 0)
(2.99999 5.87135e-07 0)
(2.99998 4.23698e-06 0)
(2.99994 6.56562e-06 0)
(2.99986 2.96296e-05 0)
(2.99968 4.31375e-05 0)
(2.99916 0.000180768 0)
(2.99817 0.000253566 0)
(2.99501 0.00112349 0)
(2.98954 0.00132941 0)
(2.96899 0.00758472 0)
(2.93031 0.00766346 0)
(2.79441 0.048324 0)
(2.41154 0.0852442 0)
(1.54109 0.283263 0)
(0.78011 0.507757 0)
(0.741431 0.52885 0)
(0.762862 0.523278 0)
(0.754573 0.536238 0)
(0.715544 0.566612 0)
(0.673103 0.613968 0)
(0.644239 0.682079 0)
(0.645641 0.779367 0)
(0.698052 0.916453 0)
(0.816871 1.09255 0)
(3 1.22255e-07 0)
(2.99999 9.56419e-07 0)
(2.99998 2.94089e-06 0)
(2.99995 8.93018e-06 0)
(2.99987 2.11623e-05 0)
(2.99972 5.67986e-05 0)
(2.99927 0.000127847 0)
(2.99839 0.00033855 0)
(2.99573 0.000747038 0)
(2.99087 0.00205172 0)
(2.97368 0.00438989 0)
(2.94162 0.012901 0)
(2.82643 0.0304187 0)
(2.5084 0.0905916 0)
(1.76084 0.23888 0)
(0.896821 0.556968 0)
(0.752622 0.566466 0)
(0.777862 0.56447 0)
(0.78901 0.574355 0)
(0.769303 0.605619 0)
(0.744665 0.651879 0)
(0.734847 0.716709 0)
(0.755793 0.803475 0)
(0.826153 0.911803 0)
(0.959618 1.01997 0)
(3 1.18596e-07 0)
(2.99999 9.21125e-07 0)
(2.99998 2.83427e-06 0)
(2.99996 8.55001e-06 0)
(2.9999 2.02634e-05 0)
(2.99977 5.39067e-05 0)
(2.9994 0.000121319 0)
(2.99869 0.000317384 0)
(2.99644 0.000697776 0)
(2.99259 0.00189918 0)
(2.97789 0.00399587 0)
(2.95252 0.01203 0)
(2.85481 0.0266844 0)
(2.59692 0.0872431 0)
(1.96587 0.218958 0)
(1.02755 0.586364 0)
(0.760501 0.591805 0)
(0.789546 0.593042 0)
(0.817142 0.602342 0)
(0.81729 0.634582 0)
(0.808901 0.680191 0)
(0.814344 0.738136 0)
(0.847515 0.808977 0)
(0.921046 0.889106 0)
(1.04672 0.957544 0)
(3 1.03801e-07 0)
(2.99999 8.01616e-07 0)
(2.99998 2.46858e-06 0)
(2.99997 7.40853e-06 0)
(2.99991 1.75022e-05 0)
(2.9998 4.6272e-05 0)
(2.99949 0.000103383 0)
(2.99887 0.000271863 0)
(2.99704 0.000575577 0)
(2.99363 0.00168387 0)
(2.98199 0.00317201 0)
(2.96098 0.011381 0)
(2.88416 0.0218845 0)
(2.68523 0.0839162 0)
(2.17783 0.203138 0)
(1.19197 0.593532 0)
(0.791968 0.616483 0)
(0.812647 0.62285 0)
(0.848339 0.627309 0)
(0.863491 0.656336 0)
(0.866336 0.69886 0)
(0.881365 0.749018 0)
(0.921052 0.8051 0)
(0.992754 0.863154 0)
(1.10565 0.908828 0)
(3 9.78283e-08 0)
(3 7.59326e-07 0)
(2.99999 2.3384e-06 0)
(2.99997 7.04761e-06 0)
(2.99993 1.67184e-05 0)
(2.99984 4.43865e-05 0)
(2.99959 0.000100022 0)
(2.99908 0.00026009 0)
(2.99761 0.000576667 0)
(2.99476 0.00153539 0)
(2.98586 0.00327317 0)
(2.96842 0.00958205 0)
(2.91115 0.020656 0)
(2.76604 0.0665656 0)
(2.38671 0.165067 0)
(1.40208 0.503545 0)
(0.8775 0.621768 0)
(0.859629 0.648759 0)
(0.886585 0.657012 0)
(0.911201 0.677144 0)
(0.920269 0.712096 0)
(0.938998 0.753585 0)
(0.980048 0.797089 0)
(1.04776 0.838278 0)
(1.1473 0.868547 0)
(3 8.7029e-08 0)
(3 6.76709e-07 0)
(2.99999 2.08296e-06 0)
(2.99998 6.28441e-06 0)
(2.99994 1.49144e-05 0)
(2.99987 3.96345e-05 0)
(2.99967 8.95002e-05 0)
(2.99927 0.000231314 0)
(2.99811 0.00052323 0)
(2.99588 0.0013136 0)
(2.98864 0.00308682 0)
(2.9757 0.00743413 0)
(2.92921 0.0184859 0)
(2.8162 0.0477818 0)
(2.50964 0.125855 0)
(1.60602 0.363213 0)
(0.965743 0.641105 0)
(0.894125 0.677222 0)
(0.915703 0.692106 0)
(0.946745 0.700168 0)
(0.965145 0.723776 0)
(0.9874 0.755266 0)
(1.02757 0.787598 0)
(1.08991 0.815132 0)
(1.17692 0.833339 0)
(3 7.26466e-08 0)
(3 5.61786e-07 0)
(2.99999 1.73064e-06 0)
(2.99998 5.19901e-06 0)
(2.99996 1.23296e-05 0)
(2.9999 3.25863e-05 0)
(2.99975 7.34194e-05 0)
(2.99944 0.000189051 0)
(2.99851 0.000423192 0)
(2.9969 0.00107927 0)
(2.99093 0.00243933 0)
(2.98141 0.00635767 0)
(2.94327 0.0143037 0)
(2.86036 0.0405912 0)
(2.61282 0.105312 0)
(1.84255 0.309526 0)
(1.11449 0.67935 0)
(0.918606 0.707515 0)
(0.932698 0.71943 0)
(0.967175 0.718564 0)
(0.997622 0.731004 0)
(1.02509 0.753354 0)
(1.06413 0.775967 0)
(1.12148 0.793868 0)
(1.19774 0.802072 0)
(3 3.11247e-08 0)
(3 5.00433e-07 0)
(2.99999 1.15249e-06 0)
(2.99999 4.44114e-06 0)
(2.99997 8.2955e-06 0)
(2.99992 2.73844e-05 0)
(2.9998 4.86128e-05 0)
(2.99956 0.000158431 0)
(2.99885 0.000266459 0)
(2.99756 0.000946468 0)
(2.99301 0.001386 0)
(2.98567 0.0061555 0)
(2.95656 0.00823518 0)
(2.8962 0.0410769 0)
(2.70954 0.075693 0)
(2.122 0.28533 0)
(1.32895 0.674831 0)
(0.976326 0.730334 0)
(0.963427 0.735088 0)
(0.989059 0.731654 0)
(1.02523 0.734332 0)
(1.05643 0.747395 0)
(1.09399 0.76218 0)
(1.14563 0.773047 0)
(1.21098 0.772294 0)
(3 2.59628e-08 0)
(3 3.98509e-07 0)
(3 9.33754e-07 0)
(2.99999 3.55676e-06 0)
(2.99997 6.7676e-06 0)
(2.99993 2.20718e-05 0)
(2.99985 4.01234e-05 0)
(2.99962 0.000128368 0)
(2.99917 0.000225046 0)
(2.99783 0.000764339 0)
(2.99524 0.00119719 0)
(2.98717 0.00494026 0)
(2.97118 0.00667355 0)
(2.91995 0.0322603 0)
(2.7926 0.0573948 0)
(2.43889 0.205307 0)
(1.57001 0.567429 0)
(1.07476 0.734224 0)
(1.01019 0.745752 0)
(1.02143 0.746052 0)
(1.05337 0.740735 0)
(1.0852 0.743547 0)
(1.1202 0.749574 0)
(1.16406 0.750588 0)
(1.21803 0.740802 0)
(3 6.28162e-08 0)
(3 2.23879e-07 0)
(3 1.08025e-06 0)
(2.99999 2.24674e-06 0)
(2.99998 7.5414e-06 0)
(2.99995 1.43072e-05 0)
(2.99989 4.49417e-05 0)
(2.99972 8.32961e-05 0)
(2.99938 0.000260769 0)
(2.99837 0.000472743 0)
(2.99649 0.00154114 0)
(2.99027 0.00260599 0)
(2.97928 0.00951625 0)
(2.93993 0.0151719 0)
(2.84673 0.0602716 0)
(2.58917 0.120855 0)
(1.82797 0.40557 0)
(1.19169 0.728846 0)
(1.04359 0.75701 0)
(1.04689 0.760033 0)
(1.07488 0.749675 0)
(1.10809 0.74252 0)
(1.13949 0.737754 0)
(1.17524 0.726477 0)
(1.21958 0.707325 0)
(3 3.83862e-08 0)
(3 2.09389e-07 0)
(3 7.78504e-07 0)
(2.99999 1.99773e-06 0)
(2.99998 5.49454e-06 0)
(2.99997 1.25927e-05 0)
(2.99991 3.26891e-05 0)
(2.9998 7.30686e-05 0)
(2.99949 0.00018805 0)
(2.9989 0.000416396 0)
(2.99702 0.00108892 0)
(2.99377 0.00235829 0)
(2.98171 0.0065516 0)
(2.96053 0.0142701 0)
(2.88308 0.0409881 0)
(2.68616 0.111423 0)
(2.16308 0.301169 0)
(1.34702 0.751819 0)
(1.07389 0.789928 0)
(1.06369 0.778529 0)
(1.08746 0.760344 0)
(1.12127 0.739626 0)
(1.14978 0.720966 0)
(1.17901 0.698987 0)
(1.21665 0.672399 0)
(3 2.24855e-08 0)
(3 1.75099e-07 0)
(3 5.39199e-07 0)
(3 1.62698e-06 0)
(2.99999 3.85817e-06 0)
(2.99997 1.02354e-05 0)
(2.99994 2.30511e-05 0)
(2.99985 5.96754e-05 0)
(2.99966 0.000132636 0)
(2.99913 0.000344871 0)
(2.9981 0.000755542 0)
(2.99482 0.00204207 0)
(2.98919 0.00432978 0)
(2.9685 0.0125652 0)
(2.92723 0.0282216 0)
(2.79621 0.0826003 0)
(2.42383 0.232443 0)
(1.65315 0.607927 0)
(1.15978 0.78244 0)
(1.09714 0.781956 0)
(1.10498 0.762539 0)
(1.12995 0.730979 0)
(1.15516 0.698743 0)
(1.18051 0.668708 0)
(1.2133 0.637383 0)
(3 2.62519e-08 0)
(3 9.4087e-08 0)
(3 4.51073e-07 0)
(3 9.46323e-07 0)
(2.99999 3.14259e-06 0)
(2.99998 6.01e-06 0)
(2.99995 1.85903e-05 0)
(2.9999 3.47318e-05 0)
(2.99973 0.00010654 0)
(2.99942 0.000196054 0)
(2.99844 0.000617943 0)
(2.99675 0.00107505 0)
(2.99049 0.00382212 0)
(2.98033 0.00571392 0)
(2.94117 0.0243378 0)
(2.85421 0.0414833 0)
(2.60072 0.149784 0)
(1.87989 0.402651 0)
(1.26632 0.755856 0)
(1.1102 0.778333 0)
(1.10791 0.752708 0)
(1.1275 0.716827 0)
(1.15329 0.676665 0)
(1.17951 0.639731 0)
(1.21062 0.605038 0)
(3 1.16782e-08 0)
(3 9.03116e-08 0)
(3 2.78482e-07 0)
(3 8.35127e-07 0)
(2.99999 1.97826e-06 0)
(2.99999 5.20161e-06 0)
(2.99996 1.16692e-05 0)
(2.99992 2.98996e-05 0)
(2.9998 6.60177e-05 0)
(2.99955 0.000170948 0)
(2.99884 0.000364818 0)
(2.99749 0.00102282 0)
(2.99305 0.00200109 0)
(2.98562 0.00649742 0)
(2.95712 0.0126718 0)
(2.8984 0.0421718 0)
(2.71745 0.10093 0)
(2.15433 0.312756 0)
(1.44098 0.724648 0)
(1.12678 0.779172 0)
(1.10084 0.739903 0)
(1.11985 0.699243 0)
(1.14583 0.654135 0)
(1.17492 0.611002 0)
(1.20826 0.574761 0)
(3 6.22328e-09 0)
(3 8.06274e-08 0)
(3 2.00283e-07 0)
(3 7.23553e-07 0)
(3 1.44802e-06 0)
(2.99999 4.49572e-06 0)
(2.99997 8.63182e-06 0)
(2.99994 2.59999e-05 0)
(2.99985 4.92958e-05 0)
(2.99967 0.000148533 0)
(2.99914 0.000276534 0)
(2.99811 0.000867361 0)
(2.99503 0.00147567 0)
(2.98927 0.00543765 0)
(2.97005 0.00768623 0)
(2.93042 0.0348228 0)
(2.80579 0.0595032 0)
(2.44328 0.228881 0)
(1.71427 0.556531 0)
(1.17639 0.751664 0)
(1.09385 0.723975 0)
(1.10973 0.677805 0)
(1.13473 0.629351 0)
(1.1683 0.582999 0)
(1.20765 0.547493 0)
(3 4.09928e-09 0)
(3 5.66402e-08 0)
(3 1.37407e-07 0)
(3 5.08074e-07 0)
(3 9.96697e-07 0)
(2.99999 3.15715e-06 0)
(2.99998 5.94588e-06 0)
(2.99995 1.8248e-05 0)
(2.9999 3.39947e-05 0)
(2.99974 0.000104111 0)
(2.99944 0.000192265 0)
(2.99849 0.000597165 0)
(2.99685 0.00107005 0)
(2.99082 0.00357346 0)
(2.98101 0.00566374 0)
(2.94306 0.0224193 0)
(2.85927 0.0375588 0)
(2.61238 0.139302 0)
(1.90808 0.361851 0)
(1.24749 0.715649 0)
(1.05772 0.704592 0)
(1.07511 0.650364 0)
(1.11009 0.599245 0)
(1.15468 0.555247 0)
(1.20459 0.523863 0)
(3 5.63639e-09 0)
(3 3.03618e-08 0)
(3 1.12924e-07 0)
(3 2.89429e-07 0)
(3 7.91767e-07 0)
(2.99999 1.80921e-06 0)
(2.99999 4.65273e-06 0)
(2.99996 1.03479e-05 0)
(2.99992 2.62886e-05 0)
(2.9998 5.79001e-05 0)
(2.99956 0.000148887 0)
(2.99885 0.000317461 0)
(2.99751 0.000882944 0)
(2.9931 0.00172711 0)
(2.98571 0.00555742 0)
(2.95733 0.0109384 0)
(2.89882 0.0359455 0)
(2.7185 0.0869025 0)
(2.16377 0.268426 0)
(1.38709 0.644186 0)
(1.02967 0.670607 0)
(1.03277 0.617068 0)
(1.08045 0.567006 0)
(1.13991 0.527547 0)
(1.20139 0.501853 0)
(3 5.68752e-09 0)
(3 1.92129e-08 0)
(3 9.63226e-08 0)
(3 1.93927e-07 0)
(3 6.68089e-07 0)
(3 1.23089e-06 0)
(2.99999 3.94175e-06 0)
(2.99997 7.10905e-06 0)
(2.99994 2.24925e-05 0)
(2.99984 4.00497e-05 0)
(2.99965 0.000127801 0)
(2.9991 0.000220485 0)
(2.99803 0.000747811 0)
(2.9947 0.00111586 0)
(2.98871 0.00471814 0)
(2.96765 0.00527175 0)
(2.92456 0.0297177 0)
(2.78844 0.043114 0)
(2.38976 0.181786 0)
(1.58233 0.442345 0)
(1.01669 0.594608 0)
(0.982037 0.570335 0)
(1.04154 0.535303 0)
(1.11738 0.502557 0)
(1.1924 0.482613 0)
(3 4.03807e-09 0)
(3 1.19256e-08 0)
(3 6.56315e-08 0)
(3 1.23208e-07 0)
(3 4.54597e-07 0)
(3 7.85647e-07 0)
(2.99999 2.68417e-06 0)
(2.99998 4.54301e-06 0)
(2.99995 1.53395e-05 0)
(2.99989 2.56471e-05 0)
(2.99971 8.73701e-05 0)
(2.99936 0.000142632 0)
(2.99825 0.000507778 0)
(2.9964 0.000744412 0)
(2.9892 0.00316161 0)
(2.97752 0.00335512 0)
(2.93169 0.0196372 0)
(2.825 0.0235855 0)
(2.52371 0.108694 0)
(1.6656 0.264098 0)
(0.998683 0.527678 0)
(0.89831 0.515849 0)
(0.974981 0.494214 0)
(1.07151 0.474902 0)
(1.16494 0.463646 0)
(3 1.51304e-09 0)
(3 1.17606e-08 0)
(3 3.61597e-08 0)
(3 1.08774e-07 0)
(3 2.57568e-07 0)
(3 6.80059e-07 0)
(2.99999 1.52989e-06 0)
(2.99998 3.93153e-06 0)
(2.99996 8.74065e-06 0)
(2.9999 2.23787e-05 0)
(2.99975 4.95237e-05 0)
(2.99945 0.00012799 0)
(2.99853 0.000278812 0)
(2.99691 0.000750881 0)
(2.99091 0.00157857 0)
(2.98134 0.00456398 0)
(2.94237 0.00977257 0)
(2.85747 0.0292975 0)
(2.60288 0.0739966 0)
(1.81257 0.216294 0)
(1.02402 0.496915 0)
(0.794393 0.458467 0)
(0.892945 0.43712 0)
(1.0132 0.438553 0)
(1.12197 0.438622 0)
(3 1.88182e-10 0)
(3 1.10871e-08 0)
(3 1.98084e-08 0)
(3 9.58476e-08 0)
(3 1.46024e-07 0)
(3 5.89165e-07 0)
(2.99999 8.65983e-07 0)
(2.99999 3.38909e-06 0)
(2.99996 4.88878e-06 0)
(2.99992 1.92859e-05 0)
(2.99979 2.71002e-05 0)
(2.99955 0.000111076 0)
(2.99877 0.000141635 0)
(2.99748 0.000689309 0)
(2.99235 0.000594532 0)
(2.98439 0.00483735 0)
(2.9515 0.00269551 0)
(2.88096 0.0319952 0)
(2.66611 0.0390404 0)
(1.99008 0.188121 0)
(1.08786 0.445154 0)
(0.709827 0.400278 0)
(0.830467 0.382762 0)
(0.96934 0.39977 0)
(1.07985 0.407166 0)
(3 6.77595e-10 0)
(3 5.26931e-09 0)
(3 1.62175e-08 0)
(3 4.86783e-08 0)
(3 1.15324e-07 0)
(3 3.03236e-07 0)
(2.99999 6.81138e-07 0)
(2.99999 1.74232e-06 0)
(2.99997 3.85266e-06 0)
(2.99992 9.85312e-06 0)
(2.99983 2.15812e-05 0)
(2.99955 5.71368e-05 0)
(2.99901 0.000117151 0)
(2.99729 0.00035852 0)
(2.99434 0.000663663 0)
(2.98312 0.00238226 0)
(2.96366 0.00471586 0)
(2.89079 0.0160548 0)
(2.70443 0.0420534 0)
(2.21242 0.123355 0)
(1.13716 0.367306 0)
(0.648073 0.355005 0)
(0.786691 0.353463 0)
(0.936061 0.366796 0)
(1.0402 0.372615 0)
(3 1.40535e-09 0)
(3 1.27019e-09 0)
(3 1.82203e-08 0)
(3 1.83934e-08 0)
(3 1.2484e-07 0)
(3 1.25014e-07 0)
(2.99999 7.4297e-07 0)
(2.99999 7.38137e-07 0)
(2.99997 4.2922e-06 0)
(2.99994 4.17529e-06 0)
(2.99983 2.47724e-05 0)
(2.99963 2.31164e-05 0)
(2.99902 0.000147484 0)
(2.99794 0.000114331 0)
(2.99404 0.000991556 0)
(2.98778 0.000352533 0)
(2.96284 0.00738595 0)
(2.91235 0.00272218 0)
(2.75313 0.0446435 0)
(2.26747 0.0697885 0)
(1.26527 0.247308 0)
(0.636186 0.307407 0)
(0.758506 0.335028 0)
(0.899556 0.334643 0)
(0.99899 0.335921 0)
(3 4.40578e-10 0)
(3 3.38318e-09 0)
(3 1.0447e-08 0)
(3 3.11868e-08 0)
(3 7.39509e-08 0)
(3 1.93151e-07 0)
(3 4.34296e-07 0)
(2.99999 1.10013e-06 0)
(2.99997 2.43686e-06 0)
(2.99994 6.13267e-06 0)
(2.99984 1.34568e-05 0)
(2.99965 3.44314e-05 0)
(2.99908 7.21163e-05 0)
(2.99799 0.000208079 0)
(2.99454 0.000368614 0)
(2.98845 0.00136038 0)
(2.96603 0.00242049 0)
(2.92151 0.00828728 0)
(2.7723 0.0209408 0)
(2.33009 0.0515816 0)
(1.37354 0.160548 0)
(0.648337 0.282254 0)
(0.732221 0.320217 0)
(0.854374 0.308139 0)
(0.957061 0.303473 0)
(3 -1.525e-10 0)
(3 5.38788e-09 0)
(3 6.77996e-09 0)
(3 4.5667e-08 0)
(3 5.28938e-08 0)
(3 2.83061e-07 0)
(3 3.25318e-07 0)
(2.99999 1.6589e-06 0)
(2.99998 1.90758e-06 0)
(2.99994 9.64996e-06 0)
(2.99986 1.09399e-05 0)
(2.99968 5.63094e-05 0)
(2.99917 5.79871e-05 0)
(2.99818 0.0003433 0)
(2.995 0.000210393 0)
(2.98949 0.00225554 0)
(2.96847 -6.75904e-05 0)
(2.92834 0.014019 0)
(2.78679 0.00210468 0)
(2.37849 0.0650849 0)
(1.46977 0.108626 0)
(0.688981 0.263896 0)
(0.710388 0.291849 0)
(0.815331 0.285314 0)
(0.920899 0.277242 0)
(3 -1.91743e-10 0)
(3 4.55701e-09 0)
(3 5.0347e-09 0)
(3 3.84767e-08 0)
(3 4.03875e-08 0)
(3 2.38828e-07 0)
(3 2.50584e-07 0)
(2.99999 1.40285e-06 0)
(2.99998 1.47464e-06 0)
(2.99995 8.18974e-06 0)
(2.99988 8.46449e-06 0)
(2.99969 4.81479e-05 0)
(2.99932 4.41911e-05 0)
(2.99812 0.000300424 0)
(2.99613 0.000136276 0)
(2.98824 0.00202996 0)
(2.97539 -0.000418461 0)
(2.92415 0.0126515 0)
(2.80119 -0.00198849 0)
(2.45825 0.0539427 0)
(1.44801 0.0842011 0)
(0.712596 0.236087 0)
(0.674769 0.252284 0)
(0.775477 0.255462 0)
(0.882182 0.249932 0)
(3 8.57395e-10 0)
(3 7.65366e-11 0)
(3 1.00309e-08 0)
(3 4.8529e-09 0)
(3 6.69232e-08 0)
(3 3.35299e-08 0)
(3 3.89517e-07 0)
(2.99999 1.78568e-07 0)
(2.99998 2.20104e-06 0)
(2.99995 8.30847e-07 0)
(2.99989 1.24379e-05 0)
(2.99971 3.08667e-06 0)
(2.99938 7.42805e-05 0)
(2.99826 -8.93797e-06 0)
(2.99644 0.000536495 0)
(2.98907 -0.000352739 0)
(2.9773 0.00429613 0)
(2.92897 -0.00251628 0)
(2.81597 0.0282399 0)
(2.49357 0.0153568 0)
(1.50942 0.119152 0)
(0.745135 0.241636 0)
(0.643518 0.232759 0)
(0.7417 0.226202 0)
(0.849459 0.222336 0)
(3 7.40964e-10 0)
(3 -2.8226e-10 0)
(3 8.14743e-09 0)
(3 1.27369e-09 0)
(3 5.40054e-08 0)
(3 1.09458e-08 0)
(3 3.12995e-07 0)
(2.99999 4.74896e-08 0)
(2.99998 1.75841e-06 0)
(2.99995 8.68237e-08 0)
(2.99988 9.89477e-06 0)
(2.99974 -1.02492e-06 0)
(2.99931 5.98614e-05 0)
(2.9985 -2.9272e-05 0)
(2.99584 0.000453491 0)
(2.99132 -0.000412836 0)
(2.97364 0.00381557 0)
(2.94186 -0.00305017 0)
(2.82187 0.0247471 0)
(2.49216 0.00865029 0)
(1.70988 0.101428 0)
(0.815053 0.233931 0)
(0.643519 0.211312 0)
(0.734701 0.196831 0)
(0.840232 0.196514 0)
(3 2.57529e-10 0)
(3 2.00937e-09 0)
(3 6.17334e-09 0)
(3 1.8722e-08 0)
(3 4.44668e-08 0)
(3 1.19164e-07 0)
(3 2.69949e-07 0)
(2.99999 7.07604e-07 0)
(2.99998 1.58934e-06 0)
(2.99996 4.15866e-06 0)
(2.99989 9.33527e-06 0)
(2.99975 2.43695e-05 0)
(2.99936 5.54185e-05 0)
(2.99859 0.000139547 0)
(2.99612 0.000336027 0)
(2.99187 0.000796089 0)
(2.97536 0.00183906 0)
(2.94618 0.00497011 0)
(2.83446 0.0115677 0)
(2.52835 0.0321793 0)
(1.79376 0.083135 0)
(0.845412 0.221992 0)
(0.613735 0.191562 0)
(0.719301 0.17378 0)
(0.833487 0.176824 0)
(3 -1.64631e-10 0)
(3 3.39656e-09 0)
(3 3.49035e-09 0)
(3 2.85772e-08 0)
(3 2.85267e-08 0)
(3 1.78563e-07 0)
(3 1.81409e-07 0)
(2.99999 1.06232e-06 0)
(2.99998 1.10154e-06 0)
(2.99996 6.29691e-06 0)
(2.9999 6.50497e-06 0)
(2.99978 3.76532e-05 0)
(2.99941 3.40848e-05 0)
(2.99874 0.000238063 0)
(2.99639 0.000100394 0)
(2.99257 0.00158096 0)
(2.97705 -0.000389348 0)
(2.9501 0.0103923 0)
(2.84286 -0.00261603 0)
(2.55592 0.0538645 0)
(1.85586 0.0622114 0)
(0.871098 0.213202 0)
(0.57561 0.176037 0)
(0.700244 0.15581 0)
(0.826532 0.158348 0)
(3 -2.53869e-10 0)
(3 2.51837e-09 0)
(3 1.01619e-09 0)
(3 2.05769e-08 0)
(3 1.03957e-08 0)
(3 1.26567e-07 0)
(3 6.65574e-08 0)
(2.99999 7.38486e-07 0)
(2.99999 3.83085e-07 0)
(2.99996 4.27562e-06 0)
(2.99992 2.06372e-06 0)
(2.99978 2.50737e-05 0)
(2.99952 8.79383e-06 0)
(2.99864 0.000162815 0)
(2.99724 -2.66449e-05 0)
(2.99147 0.00125768 0)
(2.98245 -0.000851675 0)
(2.94466 0.00892344 0)
(2.86164 -0.00471155 0)
(2.61006 0.0461107 0)
(1.82458 0.0569288 0)
(0.918 0.200141 0)
(0.550154 0.158531 0)
(0.693595 0.136804 0)
(0.831041 0.137547 0)
(3 2.06019e-10 0)
(3 1.1067e-09 0)
(3 4.14063e-09 0)
(3 1.06095e-08 0)
(3 2.94468e-08 0)
(3 6.76404e-08 0)
(3 1.77575e-07 0)
(2.99999 3.98612e-07 0)
(2.99999 1.03623e-06 0)
(2.99996 2.30865e-06 0)
(2.99992 6.04365e-06 0)
(2.99978 1.32087e-05 0)
(2.99952 3.64402e-05 0)
(2.99871 7.39163e-05 0)
(2.9973 0.000228016 0)
(2.99191 0.00045684 0)
(2.98343 0.00142087 0)
(2.94803 0.0029813 0)
(2.8715 0.00974275 0)
(2.6372 0.02348 0)
(1.88882 0.0733787 0)
(0.958712 0.190041 0)
(0.533906 0.146492 0)
(0.69682 0.124427 0)
(0.846209 0.12273 0)
(3 5.22209e-10 0)
(3 -4.09231e-10 0)
(3 5.45173e-09 0)
(3 -9.30308e-10 0)
(3 3.62259e-08 0)
(3 -1.69853e-09 0)
(3 2.15959e-07 0)
(2.99999 -7.92589e-10 0)
(2.99999 1.26885e-06 0)
(2.99997 1.50262e-08 0)
(2.99992 7.49916e-06 0)
(2.9998 -1.14476e-07 0)
(2.99957 4.5882e-05 0)
(2.9988 -1.25943e-05 0)
(2.99756 0.000329987 0)
(2.99246 -0.000306411 0)
(2.98456 0.00275053 0)
(2.9513 -0.00279825 0)
(2.87944 0.0183839 0)
(2.65918 -0.000835845 0)
(1.95683 0.073273 0)
(0.990383 0.152215 0)
(0.523728 0.118411 0)
(0.703783 0.108371 0)
(0.862056 0.108337 0)
(3 4.07133e-10 0)
(3 -1.00535e-09 0)
(3 3.1188e-09 0)
(3 -6.67781e-09 0)
(3 1.92496e-08 0)
(3 -4.04922e-08 0)
(3 1.06654e-07 0)
(2.99999 -2.52588e-07 0)
(2.99999 5.6796e-07 0)
(2.99997 -1.61973e-06 0)
(2.99992 3.01148e-06 0)
(2.99982 -1.05896e-05 0)
(2.99951 1.86917e-05 0)
(2.99894 -7.59207e-05 0)
(2.99706 0.000173975 0)
(2.9939 -0.000564395 0)
(2.98138 0.00186015 0)
(2.95994 -0.00351377 0)
(2.87572 0.0141865 0)
(2.65658 -0.00572122 0)
(2.08914 0.0518069 0)
(0.977466 0.114935 0)
(0.470126 0.0890889 0)
(0.672883 0.0906974 0)
(0.839671 0.0929305 0)
(3 6.41903e-11 0)
(3 4.91148e-10 0)
(3 1.5186e-09 0)
(3 4.49407e-09 0)
(3 1.0649e-08 0)
(3 2.73764e-08 0)
(3 6.12466e-08 0)
(2.99999 1.51772e-07 0)
(2.99999 3.31031e-07 0)
(2.99997 8.19028e-07 0)
(2.99992 1.73606e-06 0)
(2.99982 4.49816e-06 0)
(2.99952 9.10578e-06 0)
(2.99893 2.92458e-05 0)
(2.99715 4.34927e-05 0)
(2.99386 0.000245514 0)
(2.98223 0.000322441 0)
(2.96146 0.00191812 0)
(2.88239 0.00372836 0)
(2.67639 0.0160376 0)
(2.13246 0.0388583 0)
(0.976554 0.112439 0)
(0.424686 0.0774489 0)
(0.645563 0.0723946 0)
(0.815525 0.0722201 0)
(3 -2.40594e-10 0)
(3 1.94226e-09 0)
(3 3.58515e-10 0)
(3 1.55805e-08 0)
(3 5.61901e-09 0)
(3 9.76357e-08 0)
(3 4.53841e-08 0)
(2.99999 5.95297e-07 0)
(2.99999 3.40048e-07 0)
(2.99997 3.66193e-06 0)
(2.99992 2.41809e-06 0)
(2.99982 2.28927e-05 0)
(2.99953 1.38571e-05 0)
(2.99897 0.000151047 0)
(2.99724 3.30005e-05 0)
(2.99414 0.00100386 0)
(2.98275 -0.000403442 0)
(2.96283 0.00650019 0)
(2.88675 -0.00364528 0)
(2.68919 0.0333598 0)
(2.16901 0.0315501 0)
(0.991726 0.136118 0)
(0.405093 0.0809413 0)
(0.638934 0.0520239 0)
(0.811069 0.0466617 0)
(3 2.09468e-11 0)
(3 1.69454e-10 0)
(3 5.15845e-10 0)
(3 1.59557e-09 0)
(3 3.77721e-09 0)
(3 1.0374e-08 0)
(3 2.34846e-08 0)
(2.99999 6.34117e-08 0)
(2.99999 1.42592e-07 0)
(2.99997 3.85415e-07 0)
(2.99993 8.63159e-07 0)
(2.99982 2.33966e-06 0)
(2.99963 5.1368e-06 0)
(2.99895 1.4799e-05 0)
(2.99786 2.73537e-05 0)
(2.9935 0.000118447 0)
(2.9867 0.000119237 0)
(2.95895 0.00108038 0)
(2.9005 0.00160466 0)
(2.72088 0.00887991 0)
(2.16156 0.0254034 0)
(1.09382 0.0818923 0)
(0.476419 0.0549777 0)
(0.688663 0.0415251 0)
(0.856499 0.0378357 0)
(3 2.79616e-10 0)
(3 -1.62582e-09 0)
(3 5.98369e-10 0)
(3 -1.25861e-08 0)
(3 1.45899e-09 0)
(3 -7.77339e-08 0)
(3 -1.86758e-10 0)
(2.99999 -4.69042e-07 0)
(2.99999 -5.41049e-08 0)
(2.99997 -2.85467e-06 0)
(2.99992 -5.83081e-07 0)
(2.99982 -1.76572e-05 0)
(2.99955 -1.9377e-06 0)
(2.99899 -0.000116361 0)
(2.99732 4.3275e-05 0)
(2.99421 -0.000750153 0)
(2.98355 0.000830623 0)
(2.96409 -0.00435627 0)
(2.89329 0.00729927 0)
(2.71113 -0.015362 0)
(2.23099 0.0144623 0)
(1.03188 0.0122005 0)
(0.410719 0.0163997 0)
(0.649643 0.025638 0)
(0.824181 0.0243636 0)
(3 -1.66817e-11 0)
(3 -1.29193e-10 0)
(3 -3.83542e-10 0)
(3 -1.08891e-09 0)
(3 -2.47067e-09 0)
(3 -6.16934e-09 0)
(3 -1.34045e-08 0)
(2.99999 -3.24162e-08 0)
(2.99999 -7.06928e-08 0)
(2.99997 -1.65068e-07 0)
(2.99992 -3.64635e-07 0)
(2.99982 -7.92597e-07 0)
(2.99954 -1.74256e-06 0)
(2.99899 -3.10165e-06 0)
(2.99733 -7.67287e-06 0)
(2.99415 8.41392e-06 0)
(2.98379 -7.80919e-05 0)
(2.96422 0.000295276 0)
(2.89495 6.75089e-05 0)
(2.71669 0.00239998 0)
(2.24369 0.00572905 0)
(1.03624 0.0154988 0)
(0.405822 0.0171476 0)
(0.641457 0.0177978 0)
(0.813654 0.0151029 0)
(1.11226 0.987065 0)
(1.01288 0.694635 0)
(0.125796 0.426702 0)
(-0.405218 0.0261438 0)
(-0.507943 -0.015737 0)
(-0.662109 -0.02788 0)
(-0.714855 -0.0227846 0)
(-0.736054 -0.00322783 0)
(-0.754499 0.0118299 0)
(-0.78077 0.0169204 0)
(-0.802509 0.0165567 0)
(-0.810839 0.0121979 0)
(-0.809228 0.0059579 0)
(-0.802864 -4.58397e-05 0)
(-0.793974 -0.0025337 0)
(-0.779694 -0.00330684 0)
(-0.758699 -0.00391833 0)
(-0.731478 -0.00475396 0)
(-0.698935 -0.00551544 0)
(-0.662093 -0.0062208 0)
(-0.62185 -0.00687675 0)
(-0.57885 -0.00756795 0)
(-0.533601 -0.00838741 0)
(-0.486418 -0.00934063 0)
(-0.436751 -0.0111911 0)
(-0.386594 -0.012358 0)
(-0.33585 -0.013568 0)
(-0.285185 -0.0146904 0)
(-0.234558 -0.0162094 0)
(-0.184369 -0.017999 0)
(-0.134992 -0.0199536 0)
(-0.0852723 -0.0217167 0)
(-0.0376402 -0.0238463 0)
(0.0147693 -0.0258166 0)
(0.0655631 -0.0240207 0)
(0.11215 -0.0227512 0)
(0.157931 -0.0219961 0)
(0.20217 -0.0215834 0)
(0.244604 -0.020905 0)
(0.285965 -0.0202571 0)
(0.324567 -0.0193415 0)
(0.361718 -0.0188613 0)
(0.400608 -0.0190555 0)
(0.440276 -0.0193187 0)
(0.478243 -0.0186199 0)
(0.514746 -0.0177772 0)
(0.550094 -0.0170747 0)
(0.58451 -0.0164925 0)
(0.618112 -0.0159317 0)
(0.650941 -0.0154064 0)
(0.683002 -0.0148634 0)
(0.714353 -0.0143461 0)
(0.744986 -0.0138129 0)
(0.774938 -0.013298 0)
(0.804213 -0.0127777 0)
(0.832846 -0.0122754 0)
(0.860839 -0.0117782 0)
(0.888222 -0.0112948 0)
(0.915007 -0.0108218 0)
(0.94121 -0.0103612 0)
(0.966849 -0.00991075 0)
(0.991935 -0.00947252 0)
(1.01648 -0.00904248 0)
(1.0405 -0.00862413 0)
(1.064 -0.00821373 0)
(1.087 -0.00781346 0)
(1.10949 -0.00742138 0)
(1.13149 -0.00703853 0)
(1.15299 -0.00666419 0)