/*--------------------------------*- C++ -*----------------------------------*\
| =========                 |                                                 |
| \\      /  F ield         | OpenFOAM: The Open Source CFD Toolbox           |
|  \\    /   O peration     | Version:  2112                                  |
|   \\  /    A nd           | Website:  www.openfoam.com                      |
|    \\/     M anipulation  |                                                 |
\*---------------------------------------------------------------------------*/
FoamFile
{
    version     2.0;
    format      ascii;
    arch        "LSB;label=32;scalar=64";
    class       volScalarField;
    location    "0.07";
    object      p;
}
// * * * * * * * * * * * * * * * * * * * * * * * * * * * * * * * * * * * * * //

dimensions      [1 -1 -2 0 0 0 0];

internalField   nonuniform List<scalar> 
1000
(
1
1
1
1
1
1
1
1
1
1
1
1
1
1
1
1
1
1
1
1
1
1
1
1
1
1
1
1
1
1
1
1
1
1
1
1
1
1
1
1
1
1
1
1
1
1
1
1
1
1
1
1
1
1
1
1
1
1
1
1
1
1
1
1
1
1
1
1
1
1
1
1
1
1
1
1
1
1
1
1
1
1
1
1
1
1
1
1
1
1
1
1
1
1
1
1
1
1
1
1
1
1
1
1
1
1
1
1
1
1
1
1
1
1
1
1
1
1
1
1
1
1
1
1
1
1
1
1
1
1
1
1
1
1
1
1
1
1
1
1
1
1
1
1
1
1
1
1
1
1
1
1
1
1
1
1
1
1
1
1
1
1
1
1
1
1
1
1
1
1
1
1
1
1
1
1
1
1
1
1
1
1
1
1
1
1
1
1
1
1
1
1
1
1
1
1
1
1
1
1
1
1
1
1
1
1
1
1
1
1
1
1
1
1
1
1
1
1
1
1
1
1
1
1
1
1
1
1
1
1
1
1
1
1
1
1
1
1
1
1
1
1
1
1
1
1
1
1
1
1
1
1
1
1
1
1
1
1
1
1
1
1
1
1
1
1
1
1
1
1
1
1
1
1
1
1
1
1
1
1
1
1
1
1
1
1
1
1
1
1
1
1
1
1
1
1
1
1
1
1
1
1
1
1
1
1
1
1
1
1
1
1
1
1
1
1
1
1
1
1
1
1
1
1
1
1
1
1
1
1
1
1
1
1
1
1
1
1
1
1
1
1
1
1
1
1
1
1
1
1
0.99999999
0.99999999
0.99999999
0.99999998
0.99999997
0.99999996
0.99999995
0.99999992
0.99999989
0.99999984
0.99999977
0.99999968
0.99999955
0.99999936
0.99999911
0.99999875
0.99999826
0.9999976
0.99999668
0.99999544
0.99999375
0.99999148
0.99998842
0.99998433
0.9999789
0.99997169
0.99996218
0.99994971
0.99993342
0.99991224
0.99988486
0.99984964
0.99980455
0.99974715
0.99967448
0.99958296
0.99946836
0.99932566
0.999149
0.99893157
0.99866555
0.99834203
0.99795097
0.99748119
0.99692034
0.99625495
0.99547051
0.99455158
0.99348193
0.99224472
0.99082279
0.98919884
0.98735577
0.98527698
0.98294665
0.98035006
0.97747386
0.97430637
0.97083772
0.9670601
0.96296785
0.95855752
0.95382793
0.9487801
0.94341719
0.93774438
0.93176869
0.92549885
0.91894507
0.91211883
0.90503267
0.89769996
0.89013475
0.88235152
0.87436503
0.86619017
0.8578418
0.84933465
0.84068321
0.83190164
0.82300371
0.81400276
0.80491162
0.79574265
0.78650765
0.7772179
0.76788413
0.75851656
0.74912487
0.73971822
0.73030527
0.72089421
0.71149274
0.70210811
0.69274715
0.68341625
0.67412144
0.66486833
0.65566219
0.64650795
0.63741019
0.62837321
0.619401
0.61049729
0.60166552
0.59290891
0.58423043
0.57563284
0.56711863
0.55869009
0.55034933
0.54209787
0.53393773
0.52586872
0.51789304
0.51000754
0.50221272
0.49450261
0.48688364
0.47946381
0.47207516
0.4647315
0.45793664
0.45102052
0.44403158
0.43729239
0.4305187
0.42388621
0.41738046
0.41099659
0.40474416
0.39863557
0.39267428
0.38685314
0.38116843
0.37562346
0.3702245
0.36497816
0.35989107
0.35497075
0.35022569
0.34566516
0.34129908
0.33713779
0.3331921
0.32947296
0.32599118
0.32275704
0.31977965
0.31706646
0.31462247
0.31244958
0.31054588
0.30890523
0.30751686
0.3063655
0.30543172
0.30469265
0.30412315
0.30369689
0.3033881
0.30317227
0.30302877
0.30293247
0.30287575
0.30284909
0.30282046
0.30281156
0.30281477
0.30281168
0.30281568
0.3028225
0.30283128
0.30285614
0.30288748
0.30292157
0.30295581
0.30298853
0.30301849
0.30304492
0.30306754
0.30308659
0.30310254
0.30311601
0.30312759
0.30313776
0.30314688
0.30315521
0.30316291
0.30317014
0.30317681
0.3031827
0.30318786
0.30319194
0.30319484
0.30319516
0.30319327
0.30319057
0.3031857
0.30317882
0.30317046
0.30316114
0.30315145
0.30314194
0.30313317
0.30312539
0.30311984
0.30311796
0.30311842
0.30312141
0.30312751
0.30313689
0.30314921
0.30316418
0.30318122
0.30319968
0.30321872
0.30323725
0.30325427
0.30326894
0.30328068
0.30328945
0.30329608
0.30329819
0.30329762
0.30329434
0.30328868
0.30328124
0.30327263
0.30326354
0.30325419
0.30324348
0.30323422
0.3032268
0.30321614
0.3032057
0.30319496
0.3031839
0.3031718
0.30315739
0.30314212
0.30312243
0.30310332
0.30307689
0.30304361
0.30300268
0.30295155
0.30288715
0.3028056
0.30270196
0.30256998
0.30240173
0.30218715
0.3019135
0.30156473
0.30112062
0.30055574
0.29983826
0.29892836
0.29777651
0.29632123
0.29448672
0.29218005
0.28928826
0.28567565
0.28118157
0.27561991
0.26878166
0.260443
0.25038281
0.23841496
0.22444241
0.20854021
0.1910686
0.17279025
0.15489467
0.13878185
0.12560814
0.11587142
0.1093305
0.10527639
0.1029093
0.10158031
0.10085133
0.10045661
0.10024434
0.1001306
0.10006977
0.10003726
0.10001989
0.10001062
0.10000567
0.10000303
0.10000161
0.10000086
0.10000046
0.10000025
0.10000013
0.10000007
0.10000004
0.10000002
0.10000001
0.10000001
0.1
0.1
0.1
0.1
0.1
0.1
0.1
0.1
0.1
0.1
0.1
0.1
0.1
0.1
0.1
0.1
0.1
0.1
0.1
0.1
0.1
0.1
0.1
0.1
0.1
0.1
0.1
0.1
0.1
0.1
0.1
0.1
0.1
0.1
0.1
0.1
0.1
0.1
0.1
0.1
0.1
0.1
0.1
0.1
0.1
0.1
0.1
0.1
0.1
0.1
0.1
0.1
0.1
0.1
0.1
0.1
0.1
0.1
0.1
0.1
0.1
0.1
0.1
0.1
0.1
0.1
0.1
0.1
0.1
0.1
0.1
0.1
0.1
0.1
0.1
0.1
0.1
0.1
0.1
0.1
0.1
0.1
0.1
0.1
0.1
0.1
0.1
0.1
0.1
0.1
0.1
0.1
0.1
0.1
0.1
0.1
0.1
0.1
0.1
0.1
0.1
0.1
0.1
0.1
0.1
0.1
0.1
0.1
0.1
0.1
0.1
0.1
0.1
0.1
0.1
0.1
0.1
0.1
0.1
0.1
0.1
0.1
0.1
0.1
0.1
0.1
0.1
0.1
0.1
0.1
0.1
0.1
0.1
0.1
0.1
0.1
0.1
0.1
0.1
0.1
0.1
0.1
0.1
0.1
0.1
0.1
0.1
0.1
0.1
0.1
0.1
0.1
0.1
0.1
0.1
0.1
0.1
0.1
0.1
0.1
0.1
0.1
0.1
0.1
0.1
0.1
0.1
0.1
0.1
0.1
0.1
0.1
0.1
0.1
0.1
0.1
0.1
0.1
0.1
0.1
0.1
0.1
0.1
0.1
0.1
0.1
0.1
0.1
0.1
0.1
0.1
0.1
0.1
0.1
0.1
0.1
0.1
0.1
0.1
0.1
0.1
0.1
0.1
0.1
0.1
0.1
0.1
0.1
0.1
0.1
0.1
0.1
0.1
0.1
0.1
0.1
0.1
0.1
0.1
0.1
0.1
0.1
0.1
0.1
0.1
0.1
0.1
0.1
0.1
0.1
0.1
0.1
0.1
0.1
0.1
0.1
0.1
0.1
0.1
0.1
0.1
0.1
0.1
0.1
0.1
0.1
0.1
0.1
0.1
0.1
0.1
0.1
0.1
0.1
0.1
0.1
0.1
0.1
0.1
0.1
0.1
0.1
0.1
0.1
0.1
0.1
0.1
0.1
0.1
0.1
0.1
0.1
0.1
0.1
0.1
0.1
0.1
0.1
0.1
0.1
0.1
0.1
0.1
0.1
0.1
0.1
0.1
0.1
0.1
0.1
0.1
0.1
0.1
0.1
0.1
0.1
0.1
0.1
0.1
0.1
0.1
0.1
0.1
0.1
0.1
0.1
0.1
0.1
0.1
0.1
0.1
0.1
0.1
0.1
0.1
0.1
0.1
0.1
0.1
0.1
0.1
0.1
0.1
0.1
0.1
0.1
0.1
0.1
0.1
0.1
0.1
0.1
0.1
0.1
0.1
0.1
0.1
0.1
0.1
0.1
0.1
0.1
0.1
0.1
0.1
0.1
0.1
)
;

boundaryField
{
    sides
    {
        type            zeroGradient;
    }
    emptywalls
    {
        type            empty;
    }
}


// ************************************************************************* //
