/*--------------------------------*- C++ -*----------------------------------*\
| =========                 |                                                 |
| \\      /  F ield         | OpenFOAM: The Open Source CFD Toolbox           |
|  \\    /   O peration     | Version:  2112                                  |
|   \\  /    A nd           | Website:  www.openfoam.com                      |
|    \\/     M anipulation  |                                                 |
\*---------------------------------------------------------------------------*/
FoamFile
{
    version     2.0;
    format      ascii;
    arch        "LSB;label=32;scalar=64";
    class       surfaceScalarField;
    location    "0.07";
    object      phi;
}
// * * * * * * * * * * * * * * * * * * * * * * * * * * * * * * * * * * * * * //

dimensions      [1 0 -1 0 0 0 0];

oriented        oriented;

internalField   nonuniform List<scalar> 
999
(
2.0451418e-11
2.7098102e-11
8.2724938e-12
-8.7152507e-13
1.5046075e-11
2.3242741e-11
2.7482683e-11
4.7277737e-11
1.4677148e-11
2.1838087e-11
2.311018e-11
2.8720137e-11
1.8623769e-11
2.9891423e-11
2.4123481e-11
9.0526475e-12
4.0267567e-11
4.364753e-11
5.2193139e-11
6.2692407e-11
3.6556425e-11
3.4611425e-11
3.3489433e-11
5.604095e-11
7.6241014e-11
3.2673309e-11
4.487366e-11
5.1321614e-11
3.0823122e-11
5.8271055e-11
1.5502044e-11
4.6750492e-11
6.7887473e-11
5.7328142e-11
7.4711348e-11
8.422596e-11
8.6026519e-11
8.6575414e-11
8.08551e-11
7.4912854e-11
6.8437256e-11
7.7613138e-11
7.5303985e-11
5.3827165e-11
4.5782045e-11
5.7112426e-11
4.9589777e-11
4.6586623e-11
9.0976116e-12
1.916356e-11
1.1412427e-11
2.6689539e-11
1.5607293e-11
-6.2263528e-12
-1.7569501e-11
-1.4979906e-11
-7.4028561e-12
-1.4545587e-11
-1.4625079e-11
-2.7147173e-11
-1.2627233e-11
1.8362867e-11
-1.5420998e-12
-2.8907987e-12
-1.209477e-12
-4.1944226e-13
2.20024e-12
1.678413e-11
2.3422375e-11
1.7288615e-11
1.2640555e-11
1.4959811e-11
1.7279733e-11
8.636869e-12
1.699485e-11
1.2629231e-11
1.5190071e-12
1.5196733e-12
-5.7900351e-12
-7.0452533e-12
-5.6006311e-12
-2.9416247e-11
-2.6021851e-11
-1.667666e-11
-2.202738e-11
-2.4847902e-11
-1.4631629e-11
-6.1481931e-12
-1.0289769e-11
1.770184e-11
-1.5466517e-12
4.5456972e-12
3.4616754e-13
7.0078388e-12
-6.8185457e-12
1.7064572e-11
1.3273938e-11
2.3429036e-12
2.339462e-12
1.0205281e-11
-1.9847457e-12
1.9247826e-11
3.3680281e-11
1.3334445e-11
1.1226686e-11
8.4503515e-12
1.1059709e-11
1.8323232e-11
1.3053114e-11
8.915757e-12
-3.345213e-12
-1.5626167e-11
-2.451106e-11
-1.6489032e-11
-1.8167023e-11
-2.7131186e-11
-3.4025449e-11
-3.5913938e-11
-2.811984e-11
-1.1705303e-11
-1.4782064e-11
-2.9686253e-11
-3.0803027e-11
-2.7317371e-11
-3.3432257e-11
-2.0289104e-11
-1.2333468e-11
-1.656697e-11
-2.6167624e-11
-3.1508018e-11
-8.3963947e-12
-2.7059466e-11
-1.9450663e-11
-1.8167912e-11
-2.817524e-12
4.1195936e-12
7.6427753e-13
-6.0655925e-12
-8.6116669e-12
-5.0158766e-12
-1.0026757e-11
-1.1499024e-11
-9.0216723e-12
-5.5825344e-12
-1.3944401e-12
-9.61764e-12
-2.2060243e-11
-3.3150593e-11
-2.0971225e-11
-1.2937207e-11
-1.4239609e-11
-2.6091795e-11
-3.5763059e-11
-2.2444935e-11
-4.6995408e-11
-4.3221315e-11
-3.8929304e-11
-3.4448777e-11
-2.7229996e-11
-2.7793656e-11
-3.1744163e-11
-3.5199621e-11
-3.9946269e-11
-4.2593151e-11
-4.1978421e-11
-2.0158208e-11
-3.4750869e-11
-2.8133829e-11
-3.8957948e-11
-2.8957836e-11
-4.0808246e-11
-4.0967674e-11
-5.2464921e-11
-4.4947712e-11
-4.051115e-11
-3.1969649e-11
-2.5157432e-11
-2.753886e-11
-2.0440538e-11
-1.4060864e-11
-1.5323298e-12
-9.7994945e-12
-2.1082469e-11
-2.5763836e-11
-9.9471542e-12
-1.5693669e-11
-5.53535e-12
-8.8036245e-12
3.7742032e-12
-1.5888069e-11
-2.3622104e-11
-3.7542969e-11
-1.1560086e-11
-1.8825164e-11
-2.1842528e-11
-2.2847502e-11
-1.8024138e-11
-1.4499513e-11
1.2715051e-11
-1.6514345e-11
9.836576e-13
-2.8685943e-12
2.5225155e-11
2.9088509e-11
2.8986369e-11
2.9475644e-11
1.4119927e-11
1.3538171e-11
2.5554336e-11
9.8008268e-12
1.0730083e-11
1.8737012e-11
1.931022e-11
2.3985591e-11
-7.1820327e-12
-7.6034734e-12
2.5898172e-11
1.1611156e-11
2.3061553e-12
8.9983576e-12
1.7159052e-11
1.0459189e-11
4.4597659e-12
4.3218762e-12
-1.6332491e-11
9.1393559e-12
1.7893242e-11
3.068934e-11
3.2254976e-11
2.7042257e-11
4.2119197e-11
3.8897996e-11
2.837619e-11
1.7657209e-11
1.4652501e-11
1.240108e-11
2.863898e-11
2.3131608e-11
2.5321745e-11
2.4000801e-12
6.2503336e-12
1.628786e-11
7.7933215e-12
2.7764457e-12
-2.7187141e-12
-1.9686475e-12
7.1096462e-12
2.8476554e-11
1.0708989e-11
-1.6140422e-11
-6.4867001e-12
9.4599883e-12
1.1606271e-12
-2.5205393e-12
-1.2616574e-12
-6.8255401e-12
-1.1179946e-13
-6.6516792e-12
-1.3160473e-11
-1.428091e-11
-2.95175e-11
-1.8626878e-11
-7.9818374e-12
9.8154818e-12
-5.5349059e-12
5.754508e-12
-4.8145932e-12
-8.3177909e-12
2.8201885e-12
9.1502361e-12
7.4260598e-12
-4.9209525e-12
-6.5072392e-12
-1.1825985e-11
-7.5431883e-12
-2.1584956e-11
-9.3335339e-12
1.0591195e-11
-1.9582003e-11
-3.2633896e-12
-6.4160899e-12
-2.211864e-11
-2.5715319e-11
-2.8771874e-11
-3.2528868e-11
-3.894951e-11
-2.6894709e-11
-3.2335246e-11
-2.9309666e-11
-6.3438144e-12
-1.1236123e-11
-9.4093622e-12
-4.4400039e-12
-1.7934321e-11
-3.4120706e-11
-2.9332314e-11
-1.2783996e-11
-2.1650459e-11
-2.0606405e-11
1.0411116e-11
6.3535843e-12
1.9912294e-11
1.8899105e-11
-4.9464877e-12
-1.0478285e-11
-1.3519852e-11
-2.4428015e-11
-2.2833402e-11
-2.3371749e-11
-3.7400194e-11
-2.9547143e-11
-2.466316e-11
-2.8437031e-11
-1.2931878e-11
-2.207734e-11
7.3903106e-12
-2.9616309e-12
-7.0348172e-12
8.6013419e-12
2.189271e-11
1.5975221e-11
9.7772901e-12
4.3034465e-12
2.9845015e-12
8.5942364e-12
1.2760237e-11
-1.2807533e-12
1.9437785e-11
-3.1439296e-12
-1.4508172e-11
9.2137409e-12
1.4558355e-11
2.3621327e-11
-8.0111473e-12
-1.1549539e-11
2.2406521e-11
2.7246427e-11
4.8970272e-11
6.4325656e-11
8.5662588e-11
1.2507473e-10
1.9409929e-10
2.6144642e-10
3.8701842e-10
5.7373817e-10
8.4715257e-10
1.2480831e-09
1.8702706e-09
2.7280138e-09
4.0467939e-09
5.954135e-09
8.698508e-09
1.2691626e-08
1.8402305e-08
2.663837e-08
3.8447686e-08
5.5311809e-08
7.9285649e-08
1.1326013e-07
1.6125897e-07
2.287517e-07
3.234583e-07
4.5565985e-07
6.3965975e-07
8.946284e-07
1.2465414e-06
1.7303789e-06
2.3928417e-06
3.2960891e-06
4.522469e-06
6.1804303e-06
8.4121207e-06
1.140277e-05
1.5392413e-05
2.0690412e-05
2.76932e-05
3.6905475e-05
4.8966068e-05
6.4678284e-05
8.504585e-05
0.00011131415
0.00014501789
0.00018803474
0.00024264476
0.00031159537
0.00039817099
0.00050626548
0.00064045581
0.00080607415
0.0010092752
0.0012570949
0.0015574965
0.0019193988
0.0023526825
0.0028681697
0.0034775726
0.0041934085
0.005028879
0.0059977134
0.007113977
0.0083918498
0.009845379
0.011488214
0.013333332
0.015392765
0.017677338
0.020196427
0.022957749
0.02596719
0.029228677
0.032744098
0.036513272
0.040533963
0.044801952
0.04931113
0.05405365
0.059020082
0.06419961
0.069580225
0.07514894
0.080891992
0.086795044
0.092843379
0.099022068
0.10531613
0.11171069
0.11819106
0.12474289
0.13135221
0.13800552
0.14468986
0.1513928
0.15810251
0.16480775
0.17149789
0.17816291
0.18479337
0.19138045
0.19791588
0.20439195
0.21080151
0.21713792
0.22339502
0.22956716
0.23564914
0.2416362
0.24752397
0.25330852
0.25898628
0.26455404
0.27000892
0.27534835
0.28057022
0.2856722
0.29065357
0.29551064
0.30024722
0.3048524
0.30934383
0.31369048
0.31793734
0.32202728
0.32601678
0.32987897
0.33357185
0.33725789
0.34062911
0.3441479
0.34721068
0.35047713
0.35342095
0.35600785
0.35881542
0.361561
0.36402827
0.36627019
0.36871093
0.37067324
0.37276897
0.3748058
0.37666321
0.37836181
0.37995275
0.38146226
0.38287427
0.38417854
0.38537625
0.3864748
0.38748357
0.38840278
0.38923767
0.38998851
0.3906577
0.39124918
0.39176262
0.39220527
0.39257678
0.39288562
0.39313373
0.39332833
0.39347495
0.39357841
0.39364747
0.39368476
0.39370017
0.39369512
0.39367832
0.39365081
0.39361821
0.39358248
0.393544
0.39350746
0.39346794
0.39343405
0.39339432
0.39335922
0.39332149
0.39328274
0.39324149
0.39319901
0.39315681
0.39311033
0.39306215
0.39301102
0.39295873
0.39290314
0.39284623
0.39278598
0.39272426
0.39265876
0.39259125
0.39251901
0.39244409
0.39236355
0.3922787
0.39218688
0.39208838
0.39198045
0.3918628
0.39173187
0.39158528
0.39141673
0.39121584
0.39096844
0.39064718
0.39021527
0.38961973
0.38879905
0.38767961
0.38618148
0.38422269
0.38172486
0.37862149
0.37486334
0.37042425
0.36530628
0.35954078
0.35318765
0.34633642
0.33909792
0.33159664
0.32396801
0.31634773
0.30886517
0.30163923
0.29477003
0.2883389
0.28240608
0.27700901
0.27216576
0.2678771
0.26412668
0.26088765
0.25812593
0.25579706
0.25385762
0.25226076
0.25096132
0.24991703
0.24908704
0.24843726
0.24793455
0.24755169
0.24726194
0.24704755
0.2468918
0.24677927
0.24669953
0.24664467
0.24660365
0.2465732
0.24654604
0.24652261
0.24649648
0.24646285
0.24641787
0.24635729
0.24627614
0.24616836
0.24602646
0.24584101
0.24560014
0.24528885
0.24488821
0.24437435
0.24371727
0.24287935
0.24181357
0.24046134
0.23875002
0.23659004
0.23387163
0.23046152
0.22619972
0.2208971
0.21433494
0.20626797
0.1964339
0.18457341
0.17046626
0.15399021
0.1352083
0.11448273
0.09259249
0.070790495
0.050682398
0.033814819
0.021085344
0.012421933
0.0070207048
0.0038639033
0.0020942838
0.0011259994
0.00060299051
0.0003223163
0.00017215042
9.1916711e-05
4.9071177e-05
2.6195877e-05
1.3983602e-05
7.4641596e-06
3.9839396e-06
2.1262212e-06
1.1346518e-06
6.0543934e-07
3.2301396e-07
1.7231545e-07
9.1914774e-08
4.9020464e-08
2.6141082e-08
1.3936536e-08
7.430526e-09
3.9561256e-09
2.1082051e-09
1.1188158e-09
5.9324605e-10
3.1406983e-10
1.6503261e-10
8.9619867e-11
4.5473916e-11
2.1291802e-11
1.1655385e-11
6.2058136e-12
5.2285259e-12
3.0754982e-12
-1.7749135e-12
-1.9342861e-12
-3.344533e-12
-4.0458886e-12
-3.7689296e-12
-1.5945023e-12
-6.5404626e-13
-5.338785e-14
4.3862136e-13
-5.2315097e-13
-8.1948337e-14
9.564155e-13
-6.3649086e-13
-2.9645036e-12
-1.8679502e-14
1.1281392e-12
-1.4174079e-12
4.9681509e-12
6.6825989e-12
6.529513e-12
6.2642114e-12
8.6461532e-12
9.4220742e-12
7.1544576e-12
5.6920302e-12
5.7341909e-12
1.3591073e-12
-1.0910717e-12
-3.9128562e-12
-3.3047592e-12
-1.2058687e-12
-1.6718849e-12
-3.8441472e-14
-9.3365593e-13
-3.5402237e-14
-1.9037272e-12
-2.8731739e-12
-4.3243187e-12
-6.0405292e-12
-5.646289e-12
-8.3677509e-13
3.1134817e-13
1.1875223e-12
1.6257828e-12
-1.6339152e-12
-1.0821483e-12
-2.6044999e-12
-2.3545194e-12
5.4178884e-14
2.6227631e-13
-5.9217908e-13
1.9451385e-12
-1.5029783e-12
-2.022188e-12
1.2090884e-12
-7.5719986e-13
-2.3313018e-12
-2.4141522e-12
-4.0684123e-12
-1.1112361e-12
-1.1678575e-12
1.7147672e-12
-8.3753837e-13
-7.6434692e-13
2.9355685e-13
-7.0868311e-13
3.7795461e-12
1.6868174e-12
-2.2253033e-13
-6.4979966e-13
3.1402936e-12
3.7328751e-12
4.6585791e-12
7.0634193e-12
4.7532533e-12
-4.0004111e-13
-2.9476421e-14
-1.7102847e-12
-2.4401731e-12
1.800643e-13
-1.2732038e-12
-1.5773771e-12
-1.2234103e-12
-7.6347262e-13
8.3477669e-13
1.9843016e-12
2.0928675e-12
2.2808977e-12
1.5768081e-12
7.8231865e-13
-2.1098123e-12
-1.9619029e-12
-1.4759166e-12
-7.780443e-13
4.2833792e-13
-4.9873994e-13
9.7616359e-13
6.7441885e-13
-9.0122354e-13
-2.2019886e-12
-6.2327088e-12
-6.0589866e-12
-6.5603495e-12
-5.0362214e-12
-5.1217364e-12
-7.0493472e-12
-7.5380258e-12
-6.1653876e-12
-9.9992514e-12
-8.7226476e-12
-5.5574018e-12
-3.4294234e-12
8.1032403e-14
-2.5730529e-12
-7.6354895e-12
-8.0445511e-12
-8.5347701e-12
-7.3838574e-12
-2.6490754e-12
-3.5330905e-12
-6.2263528e-12
-1.0592582e-11
-4.0254883e-12
3.2418512e-14
-1.4106216e-12
-8.9048213e-13
-2.3220315e-12
-5.7838456e-13
-4.8159671e-12
-2.1115193e-12
-1.5099588e-12
-1.7607166e-12
-1.8804819e-12
-6.7694461e-13
1.0949575e-13
-2.0436292e-12
-1.6083662e-12
-1.3712781e-12
3.6398107e-12
2.240208e-12
2.6217639e-12
-2.3493846e-12
-7.1422035e-13
-1.2151391e-12
-2.0550228e-12
-3.3702485e-12
-5.0573434e-13
1.6638635e-12
-1.4756807e-12
1.0333262e-12
-3.5285663e-13
2.8656938e-12
3.1921688e-13
8.9336871e-13
1.3422596e-13
-2.0340396e-12
3.1016162e-12
1.7817553e-12
1.9954871e-12
4.0257242e-12
6.5153161e-12
1.4155621e-12
2.285297e-12
-9.9545372e-14
3.7016779e-12
3.2404635e-12
4.426029e-12
8.1359225e-12
3.1644271e-12
6.3642841e-12
5.7350374e-12
7.3967221e-12
5.8895666e-12
6.3421768e-12
2.309819e-12
8.4512397e-12
7.007131e-12
3.2792519e-12
3.2268355e-12
2.9309194e-12
2.0489582e-12
-2.3855917e-13
-1.970632e-12
-4.5317361e-12
-4.8166332e-12
-5.1304516e-12
-3.0172809e-12
-3.6721182e-12
-7.3061002e-13
-1.8931245e-12
-8.1476492e-13
-1.9225316e-12
-6.9088485e-12
-3.4800079e-12
-6.674189e-12
-7.4935197e-12
-5.8372612e-12
-5.0969923e-12
-1.5718815e-12
-3.8840042e-12
-4.3917092e-12
-6.3498234e-12
-4.9237142e-12
-4.465428e-12
-5.943579e-13
-1.9134971e-12
3.6418507e-12
-7.3391293e-13
-2.3925306e-13
-1.9566293e-12
-1.0485501e-12
-5.271894e-13
1.591699e-12
-1.2756324e-12
6.5032701e-13
-9.8256125e-13
1.4330065e-12
4.6375404e-13
-3.3629349e-12
-2.3211016e-12
-1.0899615e-12
-9.2972852e-13
-4.1393416e-12
-1.2746471e-12
-2.0270591e-12
-2.7992747e-12
-2.0453084e-13
1.1075862e-12
2.6022379e-12
-1.2001233e-12
9.0838448e-13
5.7776006e-12
1.5880769e-12
-4.9814319e-13
3.1048497e-12
-1.0200174e-13
2.5933422e-13
-7.3183126e-13
-1.0872553e-12
-3.3261588e-12
-4.9450444e-12
-1.0921403e-12
-2.0031199e-12
-4.6726234e-12
-1.4366286e-12
-1.4331036e-12
-2.2174068e-12
-4.3184067e-12
-3.4913461e-12
-3.2608638e-12
2.9054537e-13
5.4714566e-12
3.7810866e-12
1.1224632e-12
2.7524094e-12
1.698558e-12
2.1667806e-12
-3.7088527e-12
-3.3216485e-13
8.660711e-13
1.4116902e-12
1.8689356e-12
2.9706931e-12
3.6456255e-12
3.7011366e-12
2.71283e-12
4.0923515e-12
2.3207963e-12
3.8153092e-12
8.6140262e-12
5.0567189e-12
4.3949289e-12
7.7761408e-13
7.3698408e-12
2.1642133e-12
5.1674498e-12
1.176434e-12
-7.2311601e-13
1.7190693e-12
2.1284086e-12
5.7255312e-12
8.5924601e-12
8.2322482e-12
3.1667724e-12
4.7869209e-12
4.2095077e-12
4.3983706e-12
3.8484493e-12
3.7974623e-12
2.702838e-12
1.7466584e-12
4.423989e-12
1.4771517e-12
3.707562e-12
1.5604601e-12
6.3478389e-13
2.1645602e-12
4.7475773e-12
5.367734e-12
2.7215036e-12
4.5062287e-12
4.408085e-12
2.6125629e-12
2.3474139e-12
3.5953601e-12
4.4027698e-12
5.3347327e-12
5.880671e-12
4.7943732e-12
3.7001097e-12
4.8618054e-12
4.6347232e-12
4.8481358e-12
1.911804e-12
3.1180614e-12
1.716377e-12
1.4601237e-12
-4.4071691e-13
-1.7159052e-12
2.7811087e-13
1.1770446e-12
1.8801349e-12
-2.1519037e-12
9.3144936e-13
2.1715268e-12
2.6044861e-12
3.6459308e-12
2.3763491e-12
2.9641567e-12
5.267134e-12
3.5459691e-12
9.9989461e-13
2.7690905e-12
2.0808077e-12
)
;

boundaryField
{
    sides
    {
        type            calculated;
        value           nonuniform List<scalar> 2(1.8657435e-21 3.1688365e-21);
    }
    emptywalls
    {
        type            empty;
        value           nonuniform List<scalar> 0();
    }
}


// ************************************************************************* //
