/*--------------------------------*- C++ -*----------------------------------*\
| =========                 |                                                 |
| \\      /  F ield         | OpenFOAM: The Open Source CFD Toolbox           |
|  \\    /   O peration     | Version:  2112                                  |
|   \\  /    A nd           | Website:  www.openfoam.com                      |
|    \\/     M anipulation  |                                                 |
\*---------------------------------------------------------------------------*/
FoamFile
{
    version     2.0;
    format      ascii;
    arch        "LSB;label=32;scalar=64";
    class       volScalarField;
    location    "0.07";
    object      T;
}
// * * * * * * * * * * * * * * * * * * * * * * * * * * * * * * * * * * * * * //

dimensions      [0 0 0 1 0 0 0];

internalField   nonuniform List<scalar> 
1000
(
0.00348
0.00348
0.00348
0.00348
0.00348
0.00348
0.00348
0.00348
0.00348
0.00348
0.00348
0.00348
0.00348
0.00348
0.00348
0.00348
0.00348
0.00348
0.00348
0.00348
0.00348
0.00348
0.00348
0.00348
0.00348
0.00348
0.00348
0.00348
0.00348
0.00348
0.00348
0.00348
0.00348
0.00348
0.00348
0.00348
0.00348
0.00348
0.00348
0.00348
0.00348
0.00348
0.00348
0.00348
0.00348
0.00348
0.00348
0.00348
0.00348
0.00348
0.00348
0.00348
0.00348
0.00348
0.00348
0.00348
0.00348
0.00348
0.00348
0.00348
0.00348
0.00348
0.00348
0.00348
0.00348
0.00348
0.00348
0.00348
0.00348
0.00348
0.00348
0.00348
0.00348
0.00348
0.00348
0.00348
0.00348
0.00348
0.00348
0.00348
0.00348
0.00348
0.00348
0.00348
0.00348
0.00348
0.00348
0.00348
0.00348
0.00348
0.00348
0.00348
0.00348
0.00348
0.00348
0.00348
0.00348
0.00348
0.00348
0.00348
0.00348
0.00348
0.00348
0.00348
0.00348
0.00348
0.00348
0.00348
0.00348
0.00348
0.00348
0.00348
0.00348
0.00348
0.00348
0.00348
0.00348
0.00348
0.00348
0.00348
0.00348
0.00348
0.00348
0.00348
0.00348
0.00348
0.00348
0.00348
0.00348
0.00348
0.00348
0.00348
0.00348
0.00348
0.00348
0.00348
0.00348
0.00348
0.00348
0.00348
0.00348
0.00348
0.00348
0.00348
0.00348
0.00348
0.00348
0.00348
0.00348
0.00348
0.00348
0.00348
0.00348
0.00348
0.00348
0.00348
0.00348
0.00348
0.00348
0.00348
0.00348
0.00348
0.00348
0.00348
0.00348
0.00348
0.00348
0.00348
0.00348
0.00348
0.00348
0.00348
0.00348
0.00348
0.00348
0.00348
0.00348
0.00348
0.00348
0.00348
0.00348
0.00348
0.00348
0.00348
0.00348
0.00348
0.00348
0.00348
0.00348
0.00348
0.00348
0.00348
0.00348
0.00348
0.00348
0.00348
0.00348
0.00348
0.00348
0.00348
0.00348
0.00348
0.00348
0.00348
0.00348
0.00348
0.00348
0.00348
0.00348
0.00348
0.00348
0.00348
0.00348
0.00348
0.00348
0.00348
0.00348
0.00348
0.00348
0.00348
0.00348
0.00348
0.00348
0.00348
0.00348
0.00348
0.00348
0.00348
0.00348
0.00348
0.00348
0.00348
0.00348
0.00348
0.00348
0.00348
0.00348
0.00348
0.00348
0.00348
0.00348
0.00348
0.00348
0.00348
0.00348
0.00348
0.00348
0.00348
0.00348
0.00348
0.00348
0.00348
0.00348
0.00348
0.00348
0.00348
0.00348
0.00348
0.00348
0.00348
0.00348
0.00348
0.00348
0.00348
0.00348
0.00348
0.00348
0.00348
0.00348
0.00348
0.00348
0.00348
0.00348
0.00348
0.00348
0.00348
0.00348
0.00348
0.00348
0.00348
0.00348
0.00348
0.00348
0.00348
0.00348
0.00348
0.00348
0.00348
0.00348
0.00348
0.00348
0.00348
0.00348
0.00348
0.00348
0.00348
0.00348
0.00348
0.00348
0.00348
0.00348
0.00348
0.00348
0.00348
0.00348
0.00348
0.00348
0.00348
0.00348
0.00348
0.00348
0.00348
0.00348
0.00348
0.00348
0.00348
0.00348
0.00348
0.00348
0.00348
0.00348
0.00348
0.00348
0.00348
0.00348
0.00348
0.00348
0.00348
0.00348
0.00348
0.00348
0.00348
0.00348
0.00348
0.00348
0.00348
0.00348
0.00348
0.00348
0.00348
0.00348
0.00348
0.00348
0.00348
0.00348
0.00348
0.00348
0.00348
0.00348
0.00348
0.00348
0.00348
0.00348
0.00348
0.00348
0.00348
0.0034799999
0.0034799999
0.0034799999
0.0034799998
0.0034799998
0.0034799997
0.0034799996
0.0034799994
0.0034799991
0.0034799988
0.0034799983
0.0034799976
0.0034799967
0.0034799955
0.0034799938
0.0034799916
0.0034799886
0.0034799845
0.0034799791
0.003479972
0.0034799626
0.0034799502
0.0034799341
0.0034799131
0.0034798859
0.003479851
0.0034798062
0.0034797492
0.003479677
0.0034795861
0.0034794721
0.0034793302
0.0034791545
0.0034789381
0.0034786732
0.003478351
0.0034779613
0.003477493
0.0034769337
0.0034762697
0.0034754864
0.0034745683
0.0034734988
0.0034722608
0.0034708367
0.0034692085
0.0034673586
0.0034652693
0.0034629239
0.0034603063
0.0034574016
0.0034541963
0.0034506786
0.0034468382
0.003442667
0.0034381585
0.0034333084
0.0034281144
0.003422576
0.0034166945
0.0034104731
0.0034039163
0.0033970302
0.003389822
0.0033823001
0.0033744736
0.0033663524
0.003357947
0.0033492681
0.0033403269
0.0033311346
0.0033217025
0.0033120418
0.0033021637
0.003292079
0.0032817985
0.0032713325
0.0032606913
0.0032498846
0.0032389219
0.0032278124
0.003216565
0.0032051882
0.0031936902
0.0031820788
0.0031703616
0.0031585459
0.0031466388
0.0031346469
0.0031225768
0.0031104346
0.0030982264
0.0030859579
0.0030736346
0.0030612622
0.0030488452
0.0030363903
0.0030238973
0.0030113848
0.0029988221
0.0029862975
0.002973628
0.0029612082
0.0029482854
0.002936218
0.0029227884
0.0029112932
0.0028974141
0.0028859485
0.0028729162
0.0028594065
0.0028497632
0.0028317091
0.002827399
0.0028038804
0.0028030908
0.0027803568
0.0027807189
0.002754708
0.0027547908
0.0027336547
0.0027261913
0.0027143431
0.0027016807
0.0026895138
0.0026779323
0.002666767
0.0026555114
0.0026442961
0.0026332656
0.0026225064
0.0026119936
0.0026017199
0.0025916343
0.0025818692
0.0025723152
0.0025631766
0.0025543239
0.0025459439
0.0025379724
0.0025304992
0.0025235635
0.0025171413
0.0025113524
0.0025061003
0.0025015122
0.0024974879
0.0024940809
0.0024912468
0.0024889182
0.0024871324
0.0024857033
0.0024847432
0.0024839922
0.0024835965
0.0024833164
0.0024832378
0.0024833032
0.0024832523
0.0024835622
0.0024837594
0.0024837444
0.0024841643
0.0024844657
0.002484519
0.002484891
0.0024851459
0.0024855726
0.0024858758
0.002486336
0.0024866876
0.002487165
0.0024875537
0.0024880394
0.0024884623
0.0024889588
0.0024894281
0.0024899467
0.0024904776
0.0024910442
0.0024916582
0.0024923062
0.0024930375
0.0024938068
0.0024947045
0.0024956708
0.0024968434
0.0024982188
0.002499975
0.0025022674
0.0025054163
0.0025097912
0.0025158529
0.0025241206
0.0025351976
0.0025496884
0.0025682373
0.0025914049
0.0026197419
0.0026536515
0.0026934421
0.0027392675
0.0027910754
0.0028486428
0.0029114844
0.0029790264
0.0030503326
0.0031244633
0.0032001742
0.0032762634
0.0033514105
0.0034244052
0.0034940563
0.0035594611
0.0036197775
0.0036745284
0.0037233979
0.0037663233
0.0038034065
0.0038350328
0.0038615019
0.0038834385
0.0039012487
0.0039155799
0.003926882
0.0039356851
0.0039424182
0.0039474765
0.0039512021
0.0039538544
0.003955688
0.0039569242
0.0039576593
0.0039580115
0.0039581844
0.0039581211
0.0039579964
0.0039577068
0.0039573276
0.003956902
0.0039564333
0.0039559179
0.0039553464
0.0039547031
0.0039539649
0.0039531022
0.003952075
0.0039508338
0.0039493143
0.0039474363
0.0039450978
0.0039421706
0.003938493
0.0039338605
0.0039280164
0.0039206354
0.0039113092
0.0038995213
0.0038846237
0.0038658006
0.0038420334
0.0038120568
0.0037743227
0.0037269848
0.0036679448
0.0035950511
0.0035066066
0.0034024663
0.0032858625
0.0031650897
0.0030524736
0.0029593415
0.0028908245
0.002845216
0.0028170828
0.0028006131
0.0027912915
0.0027861274
0.0027833051
0.0027817759
0.0027809519
0.0027805095
0.0027802724
0.0027801455
0.0027800777
0.0027800415
0.0027800222
0.0027800118
0.0027800063
0.0027800034
0.0027800018
0.002780001
0.0027800005
0.0027800003
0.0027800001
0.0027800001
0.00278
0.00278
0.00278
0.00278
0.00278
0.00278
0.00278
0.00278
0.00278
0.00278
0.00278
0.00278
0.00278
0.00278
0.00278
0.00278
0.00278
0.00278
0.00278
0.00278
0.00278
0.00278
0.00278
0.00278
0.00278
0.00278
0.00278
0.00278
0.00278
0.00278
0.00278
0.00278
0.00278
0.00278
0.00278
0.00278
0.00278
0.00278
0.00278
0.00278
0.00278
0.00278
0.00278
0.00278
0.00278
0.00278
0.00278
0.00278
0.00278
0.00278
0.00278
0.00278
0.00278
0.00278
0.00278
0.00278
0.00278
0.00278
0.00278
0.00278
0.00278
0.00278
0.00278
0.00278
0.00278
0.00278
0.00278
0.00278
0.00278
0.00278
0.00278
0.00278
0.00278
0.00278
0.00278
0.00278
0.00278
0.00278
0.00278
0.00278
0.00278
0.00278
0.00278
0.00278
0.00278
0.00278
0.00278
0.00278
0.00278
0.00278
0.00278
0.00278
0.00278
0.00278
0.00278
0.00278
0.00278
0.00278
0.00278
0.00278
0.00278
0.00278
0.00278
0.00278
0.00278
0.00278
0.00278
0.00278
0.00278
0.00278
0.00278
0.00278
0.00278
0.00278
0.00278
0.00278
0.00278
0.00278
0.00278
0.00278
0.00278
0.00278
0.00278
0.00278
0.00278
0.00278
0.00278
0.00278
0.00278
0.00278
0.00278
0.00278
0.00278
0.00278
0.00278
0.00278
0.00278
0.00278
0.00278
0.00278
0.00278
0.00278
0.00278
0.00278
0.00278
0.00278
0.00278
0.00278
0.00278
0.00278
0.00278
0.00278
0.00278
0.00278
0.00278
0.00278
0.00278
0.00278
0.00278
0.00278
0.00278
0.00278
0.00278
0.00278
0.00278
0.00278
0.00278
0.00278
0.00278
0.00278
0.00278
0.00278
0.00278
0.00278
0.00278
0.00278
0.00278
0.00278
0.00278
0.00278
0.00278
0.00278
0.00278
0.00278
0.00278
0.00278
0.00278
0.00278
0.00278
0.00278
0.00278
0.00278
0.00278
0.00278
0.00278
0.00278
0.00278
0.00278
0.00278
0.00278
0.00278
0.00278
0.00278
0.00278
0.00278
0.00278
0.00278
0.00278
0.00278
0.00278
0.00278
0.00278
0.00278
0.00278
0.00278
0.00278
0.00278
0.00278
0.00278
0.00278
0.00278
0.00278
0.00278
0.00278
0.00278
0.00278
0.00278
0.00278
0.00278
0.00278
0.00278
0.00278
0.00278
0.00278
0.00278
0.00278
0.00278
0.00278
0.00278
0.00278
0.00278
0.00278
0.00278
0.00278
0.00278
0.00278
0.00278
0.00278
0.00278
0.00278
0.00278
0.00278
0.00278
0.00278
0.00278
0.00278
0.00278
0.00278
0.00278
0.00278
0.00278
0.00278
0.00278
0.00278
0.00278
0.00278
0.00278
0.00278
0.00278
0.00278
0.00278
0.00278
0.00278
0.00278
0.00278
0.00278
0.00278
0.00278
0.00278
0.00278
0.00278
0.00278
0.00278
0.00278
0.00278
0.00278
0.00278
0.00278
0.00278
0.00278
0.00278
0.00278
0.00278
0.00278
0.00278
0.00278
0.00278
0.00278
0.00278
0.00278
0.00278
0.00278
0.00278
0.00278
0.00278
0.00278
0.00278
0.00278
0.00278
0.00278
0.00278
0.00278
0.00278
0.00278
0.00278
0.00278
0.00278
0.00278
0.00278
0.00278
0.00278
0.00278
0.00278
0.00278
0.00278
0.00278
0.00278
0.00278
0.00278
0.00278
0.00278
0.00278
0.00278
0.00278
0.00278
0.00278
0.00278
0.00278
0.00278
0.00278
0.00278
0.00278
0.00278
0.00278
0.00278
0.00278
0.00278
0.00278
)
;

boundaryField
{
    sides
    {
        type            zeroGradient;
    }
    emptywalls
    {
        type            empty;
    }
}


// ************************************************************************* //
