/*--------------------------------*- C++ -*----------------------------------*\
| =========                 |                                                 |
| \\      /  F ield         | OpenFOAM: The Open Source CFD Toolbox           |
|  \\    /   O peration     | Version:  2112                                  |
|   \\  /    A nd           | Website:  www.openfoam.com                      |
|    \\/     M anipulation  |                                                 |
\*---------------------------------------------------------------------------*/
FoamFile
{
    version     2.0;
    format      ascii;
    arch        "LSB;label=32;scalar=64";
    class       volVectorField;
    location    "0.07";
    object      U;
}
// * * * * * * * * * * * * * * * * * * * * * * * * * * * * * * * * * * * * * //

dimensions      [0 1 -1 0 0 0 0];

internalField   nonuniform List<vector> 
1000
(
(-3.1726036e-21 0 0)
(2.6754947e-11 0 0)
(1.1266154e-11 0 0)
(2.8916787e-12 0 0)
(1.134385e-11 0 0)
(2.4628344e-11 0 0)
(1.7570825e-11 0 0)
(3.7350729e-11 0 0)
(2.612926e-11 0 0)
(2.2856655e-11 0 0)
(1.9970201e-11 0 0)
(2.3813249e-11 0 0)
(3.074861e-11 0 0)
(1.6330787e-11 0 0)
(2.6121146e-11 0 0)
(2.8004988e-11 0 0)
(2.1115424e-11 0 0)
(4.4626555e-11 0 0)
(3.4224515e-11 0 0)
(6.9496326e-11 0 0)
(3.1713429e-11 0 0)
(3.6126031e-11 0 0)
(2.9666523e-11 0 0)
(3.8252191e-11 0 0)
(6.2948561e-11 0 0)
(4.0994145e-11 0 0)
(3.793918e-11 0 0)
(5.4595872e-11 0 0)
(3.849573e-11 0 0)
(5.5258907e-11 0 0)
(3.5281037e-11 0 0)
(4.9505784e-11 0 0)
(4.6459045e-11 0 0)
(4.6182604e-11 0 0)
(6.4611651e-11 0 0)
(5.9587811e-11 0 0)
(9.7782201e-11 0 0)
(6.8513389e-11 0 0)
(7.7485318e-11 0 0)
(6.9028811e-11 0 0)
(7.8629095e-11 0 0)
(7.8668666e-11 0 0)
(8.2847067e-11 0 0)
(5.4289308e-11 0 0)
(6.0146472e-11 0 0)
(3.9051279e-11 0 0)
(6.9660723e-11 0 0)
(4.4477942e-11 0 0)
(4.214159e-11 0 0)
(1.010448e-11 0 0)
(3.230188e-11 0 0)
(-1.3632962e-11 0 0)
(3.8108135e-11 0 0)
(-1.1459784e-11 0 0)
(-1.034424e-11 0 0)
(-2.4272427e-11 0 0)
(-6.2179706e-12 0 0)
(-8.3875911e-12 0 0)
(-1.4252425e-11 0 0)
(-1.1708436e-11 0 0)
(-1.7278155e-11 0 0)
(-1.1051737e-11 0 0)
(-2.3541366e-12 0 0)
(8.342129e-13 0 0)
(-5.2368118e-12 0 0)
(2.0791409e-12 0 0)
(6.905571e-12 0 0)
(5.0062778e-12 0 0)
(1.9795355e-11 0 0)
(1.8667917e-11 0 0)
(8.176398e-12 0 0)
(1.8159053e-11 0 0)
(1.4093252e-11 0 0)
(2.0551093e-11 0 0)
(-2.4707374e-12 0 0)
(2.6401365e-11 0 0)
(-3.5795014e-12 0 0)
(1.4132044e-11 0 0)
(-1.4555765e-11 0 0)
(1.2839431e-12 0 0)
(-1.060134e-11 0 0)
(-5.0764162e-12 0 0)
(-4.1093072e-11 0 0)
(-7.0002745e-12 0 0)
(-3.038369e-11 0 0)
(-1.1632185e-11 0 0)
(-1.9552928e-11 0 0)
(-7.7431186e-12 0 0)
(-7.5403732e-12 0 0)
(1.2013555e-12 0 0)
(8.9434737e-12 0 0)
(-6.9007914e-12 0 0)
(9.1654488e-12 0 0)
(6.0356782e-14 0 0)
(6.5265349e-12 0 0)
(-7.4770152e-12 0 0)
(1.4313448e-11 0 0)
(5.5995082e-12 0 0)
(4.1960741e-13 0 0)
(-2.6711486e-12 0 0)
(1.5367747e-11 0 0)
(3.5361512e-12 0 0)
(3.1379188e-11 0 0)
(8.5988954e-12 0 0)
(1.886755e-11 0 0)
(-8.8523271e-13 0 0)
(2.0661581e-11 0 0)
(-9.9994393e-13 0 0)
(3.3765781e-11 0 0)
(8.1243778e-12 0 0)
(8.2543171e-13 0 0)
(-7.3406289e-12 0 0)
(-2.43728e-11 0 0)
(-1.340843e-11 0 0)
(-2.7064623e-11 0 0)
(-1.0410266e-11 0 0)
(-4.0447154e-11 0 0)
(-3.077751e-11 0 0)
(-4.0088237e-11 0 0)
(-1.6644242e-11 0 0)
(-5.6013978e-12 0 0)
(-1.9405648e-11 0 0)
(-2.9524467e-11 0 0)
(-1.7425324e-11 0 0)
(-3.2046892e-11 0 0)
(-2.4810192e-11 0 0)
(-7.3365162e-12 0 0)
(-9.851493e-12 0 0)
(-1.2841654e-11 0 0)
(-4.3178326e-11 0 0)
(-3.8938457e-12 0 0)
(-3.1915841e-11 0 0)
(-5.8023648e-12 0 0)
(-2.3786906e-11 0 0)
(-1.6531977e-12 0 0)
(-3.3820914e-12 0 0)
(4.5836692e-12 0 0)
(6.1034818e-13 0 0)
(-6.0413465e-12 0 0)
(-1.1071411e-11 0 0)
(-5.5709416e-12 0 0)
(-1.8461615e-11 0 0)
(2.4943021e-12 0 0)
(-2.6936685e-11 0 0)
(1.8726718e-11 0 0)
(-1.5307612e-11 0 0)
(-9.4435568e-12 0 0)
(-2.5852263e-11 0 0)
(-2.469537e-11 0 0)
(-1.6695485e-11 0 0)
(-1.1316395e-11 0 0)
(-1.8138378e-11 0 0)
(-3.6639675e-11 0 0)
(-1.4965146e-11 0 0)
(-3.1198673e-11 0 0)
(-4.3182772e-11 0 0)
(-4.1522127e-11 0 0)
(-3.2307326e-11 0 0)
(-2.2204402e-11 0 0)
(-2.9969751e-11 0 0)
(-1.3953642e-11 0 0)
(-3.8398692e-11 0 0)
(-4.2546636e-11 0 0)
(-3.1741328e-11 0 0)
(-4.46838e-11 0 0)
(-2.5192007e-11 0 0)
(-4.0187276e-11 0 0)
(-2.5494458e-11 0 0)
(-2.0302108e-11 0 0)
(-3.2196172e-11 0 0)
(-3.3394637e-11 0 0)
(-4.5355839e-11 0 0)
(-3.7382297e-11 0 0)
(-4.521534e-11 0 0)
(-5.2692466e-11 0 0)
(-1.8564655e-11 0 0)
(-3.4308214e-11 0 0)
(-1.817028e-11 0 0)
(-3.2070567e-11 0 0)
(-1.3693763e-11 0 0)
(-9.8710562e-12 0 0)
(4.0426813e-12 0 0)
(-2.3626177e-11 0 0)
(-1.6114259e-11 0 0)
(-2.536563e-11 0 0)
(-2.4758505e-12 0 0)
(-2.7961416e-11 0 0)
(1.4760622e-11 0 0)
(-2.2037115e-11 0 0)
(1.414416e-11 0 0)
(-4.2914668e-11 0 0)
(-1.0389146e-11 0 0)
(-2.4175501e-11 0 0)
(-1.846884e-11 0 0)
(-1.3374306e-11 0 0)
(-2.8310663e-11 0 0)
(-1.4319784e-11 0 0)
(-1.7268818e-11 0 0)
(9.2544834e-12 0 0)
(6.2791055e-12 0 0)
(-1.1252148e-12 0 0)
(-3.285276e-12 0 0)
(3.7710202e-12 0 0)
(3.2121698e-11 0 0)
(1.6717271e-11 0 0)
(3.4031329e-11 0 0)
(3.2893665e-11 0 0)
(1.9564266e-12 0 0)
(2.1127984e-11 0 0)
(1.0280215e-11 0 0)
(2.1946746e-11 0 0)
(1.5852824e-12 0 0)
(3.4086795e-11 0 0)
(1.3409097e-11 0 0)
(8.8917869e-12 0 0)
(1.3923186e-12 0 0)
(1.2156944e-12 0 0)
(2.1608059e-11 0 0)
(-9.7704615e-13 0 0)
(4.9042382e-12 0 0)
(1.6165946e-11 0 0)
(8.8212041e-13 0 0)
(1.8204849e-11 0 0)
(5.9040709e-12 0 0)
(-2.6177945e-12 0 0)
(5.4243291e-14 0 0)
(9.917074e-12 0 0)
(2.4969698e-11 0 0)
(3.6322219e-11 0 0)
(1.8970479e-11 0 0)
(3.5843477e-11 0 0)
(2.985882e-11 0 0)
(3.9431204e-11 0 0)
(1.0219414e-11 0 0)
(2.5935963e-11 0 0)
(4.3812573e-12 0 0)
(2.0924238e-11 0 0)
(2.4834424e-11 0 0)
(2.2475174e-11 0 0)
(9.7793539e-13 0 0)
(4.9812681e-12 0 0)
(1.9905065e-11 0 0)
(1.0935136e-11 0 0)
(9.8138118e-13 0 0)
(6.4268295e-12 0 0)
(-1.3493797e-11 0 0)
(8.8350983e-12 0 0)
(1.41326e-11 0 0)
(1.6327342e-11 0 0)
(-2.9637067e-12 0 0)
(-1.2753509e-11 0 0)
(-5.5943953e-13 0 0)
(1.1228472e-11 0 0)
(-3.2397028e-12 0 0)
(5.8066998e-12 0 0)
(-9.4028743e-12 0 0)
(-1.5471565e-12 0 0)
(-3.6179608e-12 0 0)
(-1.6041786e-12 0 0)
(-1.5308057e-11 0 0)
(-1.0462508e-11 0 0)
(-2.2952137e-11 0 0)
(-9.9904359e-12 0 0)
(8.6822612e-13 0 0)
(7.7310027e-12 0 0)
(-1.1590057e-12 0 0)
(-5.5517119e-12 0 0)
(-1.6176283e-12 0 0)
(8.1509436e-13 0 0)
(-2.5320945e-13 0 0)
(2.2628567e-11 0 0)
(-1.3669198e-11 0 0)
(5.1093178e-12 0 0)
(-1.7194567e-11 0 0)
(-7.1917933e-12 0 0)
(-4.0650233e-12 0 0)
(-2.1897616e-11 0 0)
(4.084253e-12 0 0)
(1.4022113e-12 0 0)
(2.4342787e-13 0 0)
(-6.7778548e-12 0 0)
(-8.029452e-12 0 0)
(-2.40021e-11 0 0)
(-2.3839593e-11 0 0)
(-3.5594825e-11 0 0)
(-2.4601778e-11 0 0)
(-3.4838087e-11 0 0)
(-1.7387865e-11 0 0)
(-2.1424321e-11 0 0)
(-2.616872e-11 0 0)
(2.8706705e-12 0 0)
(-2.1355072e-11 0 0)
(2.9641513e-12 0 0)
(-1.7637739e-11 0 0)
(-2.5025275e-11 0 0)
(-2.8181724e-11 0 0)
(-1.9874053e-11 0 0)
(-1.747123e-11 0 0)
(-1.7458448e-11 0 0)
(-1.4058905e-11 0 0)
(2.3479119e-11 0 0)
(-7.2743809e-12 0 0)
(2.9636956e-11 0 0)
(-6.8542177e-12 0 0)
(-3.1427762e-12 0 0)
(-3.6680912e-13 0 0)
(-2.6704817e-11 0 0)
(-1.5016499e-11 0 0)
(-2.9196118e-11 0 0)
(-2.6090912e-11 0 0)
(-2.9986869e-11 0 0)
(-2.7249917e-11 0 0)
(-1.7782573e-11 0 0)
(-2.3357072e-11 0 0)
(-9.1209871e-12 0 0)
(-5.283052e-12 0 0)
(-1.4353019e-11 0 0)
(8.4226047e-12 0 0)
(-5.2529291e-12 0 0)
(2.8159493e-11 0 0)
(7.2452585e-12 0 0)
(2.0957807e-11 0 0)
(-2.0804747e-12 0 0)
(2.2389807e-12 0 0)
(1.4275878e-11 0 0)
(5.8800616e-13 0 0)
(1.0090586e-11 0 0)
(2.4370577e-12 0 0)
(-5.9792112e-12 0 0)
(4.437279e-13 0 0)
(-7.360859e-12 0 0)
(1.6273876e-11 0 0)
(8.3141181e-12 0 0)
(-3.8695029e-12 0 0)
(-9.3257333e-12 0 0)
(5.3954289e-12 0 0)
(3.1909171e-11 0 0)
(1.6521862e-11 0 0)
(7.1054264e-11 0 0)
(5.5527901e-11 0 0)
(1.0741583e-10 0 0)
(1.4041209e-10 0 0)
(2.4688978e-10 0 0)
(3.0351655e-10 0 0)
(4.8797587e-10 0 0)
(6.9909053e-10 0 0)
(1.0564637e-09 0 0)
(1.554615e-09 0 0)
(2.2854475e-09 0 0)
(3.3917587e-09 0 0)
(4.9868318e-09 0 0)
(7.3227701e-09 0 0)
(1.0688937e-08 0 0)
(1.553345e-08 0 0)
(2.2505173e-08 0 0)
(3.2529621e-08 0 0)
(4.6866131e-08 0 0)
(6.7282376e-08 0 0)
(9.6252714e-08 0 0)
(1.372354e-07 0 0)
(1.9497542e-07 0 0)
(2.7607129e-07 0 0)
(3.8952306e-07 0 0)
(5.4762807e-07 0 0)
(7.6710868e-07 0 0)
(1.070592e-06 0 0)
(1.4884924e-06 0 0)
(2.0617289e-06 0 0)
(2.8447097e-06 0 0)
(3.9097303e-06 0 0)
(5.3522474e-06 0 0)
(7.2975665e-06 0 0)
(9.9095362e-06 0 0)
(1.3400832e-05 0 0)
(1.80464e-05 0 0)
(2.41993e-05 0 0)
(3.2310525e-05 0 0)
(4.2952269e-05 0 0)
(5.68463e-05 0 0)
(7.4897133e-05 0 0)
(9.8230675e-05 0 0)
(0.00012823898 0 0)
(0.00016663106 0 0)
(0.00021548985 0 0)
(0.00027733493 0 0)
(0.00035519066 0 0)
(0.00045265835 0 0)
(0.00057399085 0 0)
(0.00072416783 0 0)
(0.00090896843 0 0)
(0.0011350387 0 0)
(0.0014099497 0 0)
(0.0017422421 0 0)
(0.0021414534 0 0)
(0.0026181236 0 0)
(0.0031837747 0 0)
(0.0038508625 0 0)
(0.004632696 0 0)
(0.0055433267 0 0)
(0.0065974051 0 0)
(0.0078100095 0 0)
(0.0091964487 0 0)
(0.010772045 0 0)
(0.012551907 0 0)
(0.01455069 0 0)
(0.016782372 0 0)
(0.019260024 0 0)
(0.021995619 0 0)
(0.024999849 0 0)
(0.028281985 0 0)
(0.031849768 0 0)
(0.035709338 0 0)
(0.039865199 0 0)
(0.044320227 0 0)
(0.049075702 0 0)
(0.054131379 0 0)
(0.059485577 0 0)
(0.065135295 0 0)
(0.07107634 0 0)
(0.077303464 0 0)
(0.083810505 0 0)
(0.090590534 0 0)
(0.097635992 0 0)
(0.10493882 0 0)
(0.11249057 0 0)
(0.12028255 0 0)
(0.12830589 0 0)
(0.13655164 0 0)
(0.14501083 0 0)
(0.15367459 0 0)
(0.16253413 0 0)
(0.17158082 0 0)
(0.18080622 0 0)
(0.1902021 0 0)
(0.19976046 0 0)
(0.20947355 0 0)
(0.21933384 0 0)
(0.2293341 0 0)
(0.2394673 0 0)
(0.2497267 0 0)
(0.26010578 0 0)
(0.27059827 0 0)
(0.28119813 0 0)
(0.29189955 0 0)
(0.30269691 0 0)
(0.31358483 0 0)
(0.3245581 0 0)
(0.33561172 0 0)
(0.34674083 0 0)
(0.35794077 0 0)
(0.36920702 0 0)
(0.38053521 0 0)
(0.39192109 0 0)
(0.40336055 0 0)
(0.41484959 0 0)
(0.42638429 0 0)
(0.43796098 0 0)
(0.44957565 0 0)
(0.46122546 0 0)
(0.47290541 0 0)
(0.48461526 0 0)
(0.49634652 0 0)
(0.50810521 0 0)
(0.51987674 0 0)
(0.53167507 0 0)
(0.54348565 0 0)
(0.55531948 0 0)
(0.5671802 0 0)
(0.57899153 0 0)
(0.59082222 0 0)
(0.60254277 0 0)
(0.61416257 0 0)
(0.62560222 0 0)
(0.63738633 0 0)
(0.64896444 0 0)
(0.66048892 0 0)
(0.67206132 0 0)
(0.68363938 0 0)
(0.69539988 0 0)
(0.70683913 0 0)
(0.71828065 0 0)
(0.72958228 0 0)
(0.74075054 0 0)
(0.75179171 0 0)
(0.76270571 0 0)
(0.77348209 0 0)
(0.78410383 0 0)
(0.79455079 0 0)
(0.80480068 0 0)
(0.81482902 0 0)
(0.8246092 0 0)
(0.83411172 0 0)
(0.84330521 0 0)
(0.8521559 0 0)
(0.86062848 0 0)
(0.86868655 0 0)
(0.87629331 0 0)
(0.88341317 0 0)
(0.89001271 0 0)
(0.89606297 0 0)
(0.90154091 0 0)
(0.90643172 0 0)
(0.91073044 0 0)
(0.91444341 0 0)
(0.91758921 0 0)
(0.92019833 0 0)
(0.92231251 0 0)
(0.92398244 0 0)
(0.92526528 0 0)
(0.92622103 0 0)
(0.92690947 0 0)
(0.92738571 0 0)
(0.92770603 0 0)
(0.92790974 0 0)
(0.92802031 0 0)
(0.9281022 0 0)
(0.9281436 0 0)
(0.9281365 0 0)
(0.92814877 0 0)
(0.92814918 0 0)
(0.92812683 0 0)
(0.92811539 0 0)
(0.92808477 0 0)
(0.92801492 0 0)
(0.92793664 0 0)
(0.92785126 0 0)
(0.92776665 0 0)
(0.92768614 0 0)
(0.92761247 0 0)
(0.92754728 0 0)
(0.92749101 0 0)
(0.9274431 0 0)
(0.92740229 0 0)
(0.92736707 0 0)
(0.92733609 0 0)
(0.9273082 0 0)
(0.92728258 0 0)
(0.92725872 0 0)
(0.92723618 0 0)
(0.92721464 0 0)
(0.92719421 0 0)
(0.92717495 0 0)
(0.92715719 0 0)
(0.92714122 0 0)
(0.9271254 0 0)
(0.92710667 0 0)
(0.92709193 0 0)
(0.92707477 0 0)
(0.9270576 0 0)
(0.92704113 0 0)
(0.9270244 0 0)
(0.92700701 0 0)
(0.92698867 0 0)
(0.92696899 0 0)
(0.92694803 0 0)
(0.92692454 0 0)
(0.92689832 0 0)
(0.92687348 0 0)
(0.92684927 0 0)
(0.926823 0 0)
(0.92679925 0 0)
(0.92677819 0 0)
(0.92676068 0 0)
(0.92674722 0 0)
(0.9267378 0 0)
(0.92673169 0 0)
(0.92672838 0 0)
(0.92672698 0 0)
(0.92672671 0 0)
(0.92672687 0 0)
(0.92672601 0 0)
(0.92672159 0 0)
(0.92671549 0 0)
(0.92670438 0 0)
(0.92669021 0 0)
(0.9266794 0 0)
(0.92666575 0 0)
(0.92665096 0 0)
(0.92663432 0 0)
(0.92661488 0 0)
(0.92659677 0 0)
(0.92657764 0 0)
(0.92655362 0 0)
(0.92653557 0 0)
(0.92651711 0 0)
(0.92649225 0 0)
(0.92646468 0 0)
(0.92643395 0 0)
(0.9263986 0 0)
(0.92635582 0 0)
(0.92630938 0 0)
(0.92625417 0 0)
(0.92618907 0 0)
(0.9261152 0 0)
(0.92602153 0 0)
(0.92590428 0 0)
(0.92575833 0 0)
(0.92557534 0 0)
(0.92534465 0 0)
(0.92505263 0 0)
(0.92468186 0 0)
(0.92421016 0 0)
(0.92360932 0 0)
(0.92284351 0 0)
(0.92186733 0 0)
(0.9206233 0 0)
(0.91903878 0 0)
(0.917022 0 0)
(0.91445719 0 0)
(0.91119841 0 0)
(0.90706185 0 0)
(0.90181626 0 0)
(0.89517101 0 0)
(0.88676143 0 0)
(0.876131 0 0)
(0.86271004 0 0)
(0.84579134 0 0)
(0.82450401 0 0)
(0.79778977 0 0)
(0.76439103 0 0)
(0.72287116 0 0)
(0.67170769 0 0)
(0.60953388 0 0)
(0.53564953 0 0)
(0.45092471 0 0)
(0.35900138 0 0)
(0.26700498 0 0)
(0.18421861 0 0)
(0.11822086 0 0)
(0.07138968 0 0)
(0.041179032 0 0)
(0.02300931 0 0)
(0.012598119 0 0)
(0.0068159448 0 0)
(0.00366359 0 0)
(0.0019624832 0 0)
(0.0010494375 0 0)
(0.00056070564 0 0)
(0.00029945086 0 0)
(0.00015988758 0 0)
(8.5357244e-05 0 0)
(4.5563506e-05 0 0)
(2.431923e-05 0 0)
(1.2978889e-05 0 0)
(6.9259498e-06 0 0)
(3.6954554e-06 0 0)
(1.9715291e-06 0 0)
(1.0516959e-06 0 0)
(5.6095912e-07 0 0)
(2.9915277e-07 0 0)
(1.5951666e-07 0 0)
(8.5050658e-08 0 0)
(4.5312207e-08 0 0)
(2.4130506e-08 0 0)
(1.2844537e-08 0 0)
(6.8029066e-09 0 0)
(3.607527e-09 0 0)
(1.9056217e-09 0 0)
(1.0110072e-09 0 0)
(5.0984517e-10 0 0)
(2.7534348e-10 0 0)
(1.2306846e-10 0 0)
(6.8583551e-11 0 0)
(4.1384662e-11 0 0)
(3.9748047e-11 0 0)
(-5.8246625e-12 0 0)
(-1.6772169e-11 0 0)
(-1.4191878e-11 0 0)
(-2.0444203e-11 0 0)
(-2.0148846e-11 0 0)
(-4.2417467e-11 0 0)
(9.8152507e-12 0 0)
(-2.7202552e-12 0 0)
(4.3079216e-12 0 0)
(-1.1504477e-11 0 0)
(9.0447263e-12 0 0)
(-8.6144003e-12 0 0)
(-5.9235587e-12 0 0)
(-4.2579741e-12 0 0)
(-1.4560047e-11 0 0)
(1.1612697e-11 0 0)
(-7.5921402e-12 0 0)
(2.5555725e-11 0 0)
(4.9659419e-11 0 0)
(3.252674e-11 0 0)
(5.7371655e-11 0 0)
(5.5344783e-11 0 0)
(6.3223622e-11 0 0)
(8.2488064e-11 0 0)
(4.3981158e-11 0 0)
(4.2304918e-11 0 0)
(2.357092e-11 0 0)
(5.3145315e-12 0 0)
(-2.6447566e-11 0 0)
(-1.9881238e-11 0 0)
(-2.6419596e-11 0 0)
(-3.1892073e-12 0 0)
(-5.5210923e-12 0 0)
(7.3044423e-12 0 0)
(-2.5430634e-11 0 0)
(-9.0395095e-12 0 0)
(-1.943837e-11 0 0)
(-1.326696e-11 0 0)
(-5.0812098e-11 0 0)
(-4.8177419e-11 0 0)
(-1.6147269e-11 0 0)
(2.150631e-12 0 0)
(-4.9935351e-12 0 0)
(3.2630741e-11 0 0)
(-1.8709912e-11 0 0)
(-2.1739398e-12 0 0)
(-9.562294e-12 0 0)
(-2.1309849e-11 0 0)
(-6.2939476e-12 0 0)
(-1.2834636e-11 0 0)
(1.4661718e-11 0 0)
(-8.0724138e-12 0 0)
(2.0119654e-11 0 0)
(-2.5322747e-11 0 0)
(2.7878508e-12 0 0)
(-8.0837352e-12 0 0)
(-2.9946339e-13 0 0)
(-1.3136319e-11 0 0)
(-2.9678175e-11 0 0)
(-1.0304182e-11 0 0)
(-2.7424874e-11 0 0)
(1.6044266e-11 0 0)
(-2.8680888e-11 0 0)
(1.5283732e-11 0 0)
(-9.2595008e-12 0 0)
(-3.3409368e-12 0 0)
(-3.1387047e-12 0 0)
(1.3093809e-11 0 0)
(1.3100024e-11 0 0)
(-1.1808824e-11 0 0)
(1.2928316e-11 0 0)
(1.6482695e-11 0 0)
(4.254622e-11 0 0)
(2.9072699e-11 0 0)
(5.3603611e-11 0 0)
(1.6670276e-11 0 0)
(1.0951391e-11 0 0)
(-1.1422785e-11 0 0)
(-1.5522925e-11 0 0)
(-8.1647613e-13 0 0)
(1.7279636e-12 0 0)
(-4.954354e-12 0 0)
(-1.8803259e-11 0 0)
(-1.0045342e-11 0 0)
(3.0741059e-12 0 0)
(1.5329017e-11 0 0)
(2.0747218e-11 0 0)
(8.7270598e-12 0 0)
(2.4379293e-11 0 0)
(-8.0612033e-12 0 0)
(1.3294487e-11 0 0)
(-5.5768117e-12 0 0)
(-2.2816046e-11 0 0)
(1.5667995e-12 0 0)
(-1.5303378e-11 0 0)
(1.4239162e-11 0 0)
(-2.0402802e-11 0 0)
(2.9539542e-11 0 0)
(-8.4754351e-12 0 0)
(1.0329045e-11 0 0)
(-4.0936688e-11 0 0)
(-4.0907385e-11 0 0)
(-5.440699e-11 0 0)
(-4.0310012e-11 0 0)
(-5.1112449e-11 0 0)
(-5.2005622e-11 0 0)
(-5.5560668e-11 0 0)
(-3.6704243e-11 0 0)
(-7.6490471e-11 0 0)
(-6.3008071e-11 0 0)
(-8.4998539e-11 0 0)
(-7.9152455e-12 0 0)
(-1.8141731e-11 0 0)
(5.7186627e-12 0 0)
(-4.7121306e-11 0 0)
(-3.6664174e-11 0 0)
(-8.4286176e-11 0 0)
(-4.2842021e-11 0 0)
(-7.1457755e-11 0 0)
(7.1015441e-12 0 0)
(-4.1978372e-11 0 0)
(-3.1784297e-11 0 0)
(-5.5755019e-11 0 0)
(-6.7984181e-13 0 0)
(-1.5857574e-11 0 0)
(3.9778237e-12 0 0)
(-1.9600866e-11 0 0)
(-2.7682048e-13 0 0)
(-1.4737749e-11 0 0)
(-2.5015292e-11 0 0)
(-4.5187004e-12 0 0)
(-2.7727223e-11 0 0)
(-4.4892868e-12 0 0)
(-5.3044308e-13 0 0)
(-3.0783237e-12 0 0)
(-1.3868884e-11 0 0)
(-8.4489074e-12 0 0)
(-1.8866637e-11 0 0)
(2.3000519e-11 0 0)
(2.8519724e-11 0 0)
(9.6942666e-13 0 0)
(1.567299e-11 0 0)
(-3.2630963e-11 0 0)
(2.3213739e-11 0 0)
(-4.0419453e-11 0 0)
(2.620804e-12 0 0)
(-3.0237032e-11 0 0)
(1.2062891e-12 0 0)
(1.0251237e-11 0 0)
(1.3880094e-11 0 0)
(-2.6943934e-12 0 0)
(8.7681278e-12 0 0)
(9.8182475e-12 0 0)
(-4.7119419e-12 0 0)
(1.283841e-11 0 0)
(-1.0718525e-11 0 0)
(4.1706213e-12 0 0)
(2.5679151e-11 0 0)
(1.6964744e-11 0 0)
(1.167885e-12 0 0)
(5.4705454e-11 0 0)
(1.6201213e-11 0 0)
(3.6110311e-11 0 0)
(2.5224628e-12 0 0)
(1.3255639e-11 0 0)
(1.6834659e-11 0 0)
(2.2885306e-11 0 0)
(4.4956467e-11 0 0)
(4.1744284e-11 0 0)
(5.1004118e-11 0 0)
(4.794766e-11 0 0)
(4.4237445e-11 0 0)
(6.5502563e-11 0 0)
(3.0047232e-11 0 0)
(2.7316543e-11 0 0)
(1.3943805e-11 0 0)
(5.7944054e-11 0 0)
(3.5404163e-11 0 0)
(2.1709652e-11 0 0)
(2.4850243e-11 0 0)
(2.0561968e-11 0 0)
(5.4627092e-12 0 0)
(-7.1552656e-12 0 0)
(-2.3092533e-11 0 0)
(-2.4667546e-11 0 0)
(-5.3372077e-11 0 0)
(-1.9968369e-11 0 0)
(-2.9170263e-11 0 0)
(-9.2661605e-12 0 0)
(-1.4986932e-11 0 0)
(-2.8850821e-12 0 0)
(-2.307766e-11 0 0)
(-1.0085633e-11 0 0)
(-3.0133252e-11 0 0)
(-3.348651e-11 0 0)
(-4.7012864e-11 0 0)
(-5.9464014e-11 0 0)
(-3.0362789e-11 0 0)
(-4.3669152e-11 0 0)
(-5.0230597e-12 0 0)
(-4.8656028e-11 0 0)
(-3.2434725e-11 0 0)
(-5.2023714e-11 0 0)
(-1.851101e-11 0 0)
(-2.614999e-11 0 0)
(-8.7873299e-12 0 0)
(4.9111772e-12 0 0)
(6.7817692e-14 0 0)
(-5.8588489e-12 0 0)
(-7.760741e-13 0 0)
(-7.1391714e-12 0 0)
(-1.1768533e-11 0 0)
(2.3247371e-11 0 0)
(2.006449e-12 0 0)
(2.2786077e-12 0 0)
(-1.1479281e-11 0 0)
(1.3543448e-11 0 0)
(7.6024627e-12 0 0)
(-1.7011362e-11 0 0)
(-1.7258214e-11 0 0)
(-1.8014198e-11 0 0)
(-3.5731375e-12 0 0)
(-8.9559306e-12 0 0)
(-1.9664133e-11 0 0)
(-1.8751313e-11 0 0)
(-1.7318817e-11 0 0)
(-1.9444474e-11 0 0)
(2.061691e-11 0 0)
(-2.6563223e-12 0 0)
(1.2687568e-11 0 0)
(-1.3771985e-11 0 0)
(2.7167588e-11 0 0)
(1.0475113e-11 0 0)
(1.2565585e-11 0 0)
(1.0700432e-11 0 0)
(2.0364952e-11 0 0)
(-1.9153558e-11 0 0)
(1.6655958e-11 0 0)
(-2.1744615e-11 0 0)
(2.5396669e-12 0 0)
(-4.4986103e-11 0 0)
(-1.8745542e-11 0 0)
(-4.9014096e-12 0 0)
(-2.0063491e-11 0 0)
(-2.3791466e-11 0 0)
(-1.5410043e-11 0 0)
(-4.8925301e-12 0 0)
(-3.1741564e-11 0 0)
(-2.1930198e-11 0 0)
(-2.6489744e-11 0 0)
(-2.7737545e-11 0 0)
(2.9987406e-11 0 0)
(3.726865e-11 0 0)
(1.6023843e-11 0 0)
(8.8338366e-12 0 0)
(1.4823881e-11 0 0)
(2.6627378e-11 0 0)
(1.188308e-12 0 0)
(-1.63828e-12 0 0)
(-7.9614192e-12 0 0)
(2.0014876e-11 0 0)
(2.6957919e-11 0 0)
(4.2721814e-12 0 0)
(2.9569622e-11 0 0)
(2.6680433e-11 0 0)
(2.5321304e-11 0 0)
(4.174495e-11 0 0)
(7.3707061e-12 0 0)
(3.2571248e-11 0 0)
(3.8750317e-11 0 0)
(4.9754874e-11 0 0)
(4.3811891e-11 0 0)
(7.9004832e-12 0 0)
(5.8012205e-11 0 0)
(1.3659326e-11 0 0)
(3.7212709e-11 0 0)
(1.7575881e-11 0 0)
(2.6190281e-12 0 0)
(4.9048505e-13 0 0)
(1.5950254e-11 0 0)
(4.4559662e-11 0 0)
(3.4587798e-11 0 0)
(7.758843e-11 0 0)
(2.8649699e-11 0 0)
(2.6817067e-11 0 0)
(3.073562e-11 0 0)
(3.0721524e-11 0 0)
(3.5491405e-11 0 0)
(2.002542e-11 0 0)
(2.5923672e-11 0 0)
(5.1621359e-12 0 0)
(1.4309421e-11 0 0)
(3.3323792e-11 0 0)
(-6.8505853e-13 0 0)
(4.3698899e-11 0 0)
(-1.0621071e-12 0 0)
(5.2949964e-12 0 0)
(2.8843717e-11 0 0)
(4.39099e-11 0 0)
(3.0613304e-11 0 0)
(1.8486369e-11 0 0)
(3.1911941e-11 0 0)
(3.4739971e-11 0 0)
(-5.918231e-12 0 0)
(3.5745138e-11 0 0)
(2.1887687e-11 0 0)
(3.4784147e-11 0 0)
(4.588083e-11 0 0)
(4.5660617e-11 0 0)
(4.2008562e-11 0 0)
(4.3182996e-11 0 0)
(2.9061933e-11 0 0)
(3.8739217e-11 0 0)
(1.6438741e-11 0 0)
(4.3921665e-12 0 0)
(3.5237893e-11 0 0)
(2.6250218e-12 0 0)
(2.2601049e-11 0 0)
(-3.1947015e-11 0 0)
(8.1366796e-12 0 0)
(1.7738821e-11 0 0)
(-2.136646e-13 0 0)
(6.7270485e-12 0 0)
(-1.3967891e-11 0 0)
(2.886747e-11 0 0)
(1.7105375e-12 0 0)
(2.7998383e-11 0 0)
(2.5849639e-11 0 0)
(2.774872e-15 0 0)
(4.7811692e-11 0 0)
(2.395041e-11 0 0)
(2.2566419e-11 0 0)
(-1.7633709e-12 0 0)
(2.3605994e-11 0 0)
(1.4922221e-20 0 0)
)
;

boundaryField
{
    sides
    {
        type            zeroGradient;
    }
    emptywalls
    {
        type            empty;
    }
}


// ************************************************************************* //
