/*--------------------------------*- C++ -*----------------------------------*\
| =========                 |                                                 |
| \\      /  F ield         | OpenFOAM: The Open Source CFD Toolbox           |
|  \\    /   O peration     | Version:  2112                                  |
|   \\  /    A nd           | Website:  www.openfoam.com                      |
|    \\/     M anipulation  |                                                 |
\*---------------------------------------------------------------------------*/
FoamFile
{
    version     2.0;
    format      ascii;
    arch        "LSB;label=32;scalar=64";
    class       surfaceScalarField;
    location    "29.5";
    object      phi;
}
// * * * * * * * * * * * * * * * * * * * * * * * * * * * * * * * * * * * * * //

dimensions      [0 3 -1 0 0 0 0];

oriented        oriented;

internalField   nonuniform List<scalar> 
17370
(
-0.0916072
0.0960068
0.284611
-0.0775902
0.0594136
0.364952
-0.0430354
0.0316162
0.427587
-0.0223112
0.0162562
0.505307
-0.0116589
0.00878003
0.602281
-0.00656369
0.00507682
0.720544
-0.00384304
0.00297069
0.863779
-0.00221088
0.00164619
1.03601
-0.00112907
0.000719351
1.24291
-0.000315694
-6.77354e-05
1.49157
0.000448865
-0.000856981
1.4916
0.00126219
-0.00177087
1.2432
0.0023271
-0.00307734
1.03639
0.00394066
-0.00516455
0.86413
0.00664215
-0.0088476
0.721263
0.0117154
-0.0162991
0.603798
0.022341
-0.0316324
0.508731
0.0430374
-0.0594071
0.432538
0.0775861
-0.0960029
0.365192
0.0916178
0.197393
-0.127087
0.0880176
0.0390691
-0.36435
0.354024
-0.0714785
0.0818045
-0.446655
0.454245
-0.0791676
0.0715769
-0.521007
0.529105
-0.0637277
0.0556294
-0.612983
0.620757
-0.0482407
0.040467
-0.727155
0.733681
-0.0338494
0.0273233
-0.867578
0.872418
-0.0221207
0.0172813
-1.03857
1.04188
-0.013604
0.0102936
-1.24472
1.24709
-0.00776891
0.00538921
-1.49283
1.49483
-0.00344483
0.00144924
-1.49268
1.49449
0.000363627
-0.00217502
-1.24411
1.24602
0.00414592
-0.00605796
-1.03761
1.0401
0.00839661
-0.0108808
-0.866194
0.86983
0.0141457
-0.0177818
-0.724601
0.729765
0.0225774
-0.0277416
-0.609069
0.615649
0.0342272
-0.040808
-0.515125
0.522474
0.0485409
-0.0558894
-0.43988
0.447673
0.0639299
-0.0717232
-0.374715
0.377365
0.0792341
-0.0818842
-0.256912
0.224463
0.0715406
-0.0390918
-0.0687995
0.0591863
0.00961317
-0.0521178
0.058954
-0.374831
0.367995
-0.0581094
0.0542701
-0.453938
0.457777
-0.0487839
0.0442247
-0.527605
0.532164
-0.0396742
0.035779
-0.620786
0.624681
-0.0315706
0.0275867
-0.734643
0.738627
-0.02325
0.0193865
-0.873933
0.877797
-0.015373
0.0119461
-1.04334
1.04676
-0.00845957
0.00545637
-1.24862
1.25163
-0.00228036
-0.000673029
-1.49692
1.49987
0.00361206
-0.00674586
-1.4974
1.50054
0.00969089
-0.0131019
-1.25007
1.25348
0.0164553
-0.0203853
-1.04566
1.04959
0.0241729
-0.0284284
-0.877157
0.881412
0.0323394
-0.0364705
-0.73901
0.743141
0.0403012
-0.0447899
-0.625998
0.630486
0.049299
-0.0547364
-0.53504
0.540477
0.0585192
-0.0592985
-0.458103
0.458883
0.0523716
-0.0320196
-0.336806
0.316454
0.00965871
-0.0686902
0.0590315
-0.0533947
0.0492826
0.00411204
-0.0332496
0.0436775
-0.358538
0.34811
-0.0473573
0.0467755
-0.459556
0.460138
-0.0438527
0.0406453
-0.536102
0.53931
-0.0369727
0.0336211
-0.628356
0.631708
-0.0299938
0.0267695
-0.741995
0.745219
-0.0233479
0.0201896
-0.881297
0.884456
-0.0166485
0.0133435
-1.05019
1.05349
-0.00969439
0.00632996
-1.25487
1.25824
-0.00257791
-0.0010092
-1.50321
1.50679
0.00457312
-0.00825892
-1.50402
1.50771
0.0115356
-0.0150732
-1.25703
1.26057
0.0182683
-0.0216852
-1.0533
1.05672
0.0247335
-0.0280409
-0.885036
0.888343
0.0311636
-0.0346824
-0.746837
0.750356
0.0379394
-0.0415153
-0.634612
0.638188
0.0446415
-0.047475
-0.544629
0.547462
0.047966
-0.0441613
-0.457018
0.453214
0.0335822
-0.0163243
-0.297178
0.27992
0.00416198
-0.0531959
0.0490339
-0.0461117
0.0435567
0.00255504
-0.0230443
0.0333966
-0.337511
0.327159
-0.039134
0.0400846
-0.459879
0.458928
-0.0388321
0.0365004
-0.541952
0.544283
-0.0338532
0.0313082
-0.634654
0.637199
-0.0283456
0.025529
-0.748284
0.751101
-0.0223449
0.0193911
-0.887495
0.890449
-0.0161068
0.0130323
-1.05665
1.05972
-0.00953935
0.00619685
-1.2616
1.26494
-0.00234895
-0.00139165
-1.5105
1.51424
0.00510117
-0.00885564
-1.51147
1.51523
0.0120761
-0.015417
-1.26401
1.26735
0.0183431
-0.0214599
-1.05992
1.06303
0.0242636
-0.0272898
-0.891542
0.894568
0.0299673
-0.0327832
-0.75356
0.756376
0.0352011
-0.0377207
-0.641168
0.643687
0.0399472
-0.0410643
-0.549325
0.550442
0.0399747
-0.0340371
-0.448137
0.4422
0.0234675
-0.0103007
-0.2648
0.251633
0.00261678
-0.0458087
0.043192
-0.0414385
0.0396423
0.00179619
-0.016912
0.0261847
-0.317288
0.308016
-0.0327764
0.0349043
-0.457347
0.45522
-0.0344895
0.0328167
-0.546286
0.547958
-0.030619
0.0285175
-0.639475
0.641576
-0.0261108
0.0237704
-0.753677
0.756018
-0.0210102
0.0183208
-0.893296
0.895985
-0.015202
0.0122294
-1.06274
1.06571
-0.00883301
0.00558731
-1.26821
1.27146
-0.00183023
-0.00183878
-1.51794
1.52161
0.00546632
-0.00909979
-1.51894
1.52257
0.012183
-0.0153747
-1.27062
1.27381
0.0181491
-0.0210488
-1.06607
1.06897
0.023546
-0.0261059
-0.897371
0.899931
0.0282699
-0.0304914
-0.75884
0.761061
0.032431
-0.0344632
-0.645934
0.647966
0.0359842
-0.0362152
-0.55105
0.551281
0.0338765
-0.0269962
-0.435685
0.428804
0.017436
-0.00736968
-0.240157
0.23009
0.00187159
-0.0410078
0.0391363
-0.0380969
0.0367525
0.00134442
-0.0128775
0.020843
-0.299392
0.291427
-0.0275851
0.0304941
-0.452657
0.449748
-0.0306941
0.0295667
-0.549364
0.550492
-0.0275689
0.0256547
-0.643584
0.645498
-0.0234833
0.0214101
-0.758222
0.760295
-0.0190096
0.0166543
-0.898502
0.900857
-0.0138595
0.0111096
-1.06855
1.0713
-0.00788896
0.00477047
-1.27462
1.27773
-0.00114483
-0.00238844
-1.52521
1.52875
0.00587059
-0.00933666
-1.52615
1.52962
0.0122444
-0.0151973
-1.2769
1.27985
0.0176845
-0.0201876
-1.07167
1.07417
0.022291
-0.0244349
-0.902243
0.904387
0.0262877
-0.0282289
-0.763122
0.765063
0.0299412
-0.0317393
-0.649858
0.651656
0.0326459
-0.0321905
-0.551163
0.550708
0.0289829
-0.0218494
-0.421735
0.414602
0.0135186
-0.00563163
-0.221212
0.213325
0.00143612
-0.037511
0.0360748
-0.035581
0.0345537
0.00102726
-0.00999173
0.0166974
-0.284108
0.277402
-0.0231666
0.0265418
-0.446575
0.4432
-0.0273442
0.0266817
-0.551369
0.552032
-0.0249527
0.0232059
-0.647349
0.649096
-0.0211986
0.0192682
-0.762316
0.764246
-0.0170187
0.014814
-0.903117
0.905322
-0.0122146
0.00966019
-1.07389
1.07645
-0.00665578
0.00372358
-1.28072
1.28366
-0.000300275
-0.0030323
-1.53216
1.5355
0.00629956
-0.00952298
-1.53298
1.53621
0.0121901
-0.0148501
-1.28268
1.28534
0.0170694
-0.0193014
-1.07653
1.07876
0.0211951
-0.0231315
-0.9064
0.908337
0.0247929
-0.0265189
-0.766876
0.768602
0.0280156
-0.0294683
-0.653324
0.654777
0.0298491
-0.0286855
-0.549913
0.54875
0.0249052
-0.0179298
-0.407516
0.40054
0.0107716
-0.00445036
-0.206292
0.19997
0.00113859
-0.0348064
0.0336678
-0.0336542
0.0328646
0.000789567
-0.00781276
0.0133869
-0.271283
0.265709
-0.0193158
0.0228526
-0.439715
0.436178
-0.02412
0.0237164
-0.552558
0.552962
-0.0222951
0.0207015
-0.650774
0.652368
-0.0188451
0.0170536
-0.766144
0.767935
-0.0149517
0.0128782
-0.907463
0.909537
-0.0104322
0.00804225
-1.07887
1.08126
-0.00524731
0.00251715
-1.28644
1.28917
0.000684369
-0.00381897
-1.53871
1.54185
0.00687131
-0.0098311
-1.53932
1.54228
0.0122358
-0.0146102
-1.28788
1.29026
0.0165841
-0.0185627
-1.08089
1.08287
0.0202323
-0.0219334
-0.91014
0.911841
0.0233889
-0.0248989
-0.770187
0.771697
0.0261837
-0.027255
-0.656023
0.657094
0.0272935
-0.0255394
-0.547288
0.545534
0.0214668
-0.0148943
-0.393758
0.387185
0.00876308
-0.00360179
-0.194279
0.189118
0.000925541
-0.0326508
0.0317252
-0.0321756
0.0315737
0.000601895
-0.00609307
0.0106795
-0.260648
0.256061
-0.0159534
0.0194489
-0.432651
0.429155
-0.021007
0.0208046
-0.553275
0.553478
-0.0195892
0.0180559
-0.653945
0.655478
-0.0162842
0.0146033
-0.769715
0.771396
-0.0126558
0.0107376
-0.911509
0.913427
-0.00845974
0.00622158
-1.0835
1.08574
-0.00359576
0.00104354
-1.29176
1.29431
0.00192152
-0.0047798
-1.54481
1.54767
0.00754263
-0.0102157
-1.5451
1.54778
0.0123741
-0.0144822
-1.29252
1.29463
0.0162041
-0.0179012
-1.08472
1.08641
0.0193053
-0.02074
-0.913401
0.914836
0.0220046
-0.0233558
-0.773083
0.774434
0.0245213
-0.0252632
-0.658008
0.65875
0.0249761
-0.0227728
-0.54358
0.541376
0.0185881
-0.0125136
-0.380873
0.374798
0.00724784
-0.00296999
-0.184439
0.180161
0.000767496
-0.0308933
0.0301258
-0.0310527
0.0306059
0.000446855
-0.00465862
0.00835413
-0.251936
0.248241
-0.0128919
0.0161867
-0.425746
0.422452
-0.0179317
0.0179695
-0.553567
0.553529
-0.0170321
0.0156263
-0.65699
0.658395
-0.0139697
0.0123703
-0.773091
0.77469
-0.0104897
0.00862423
-0.915277
0.917143
-0.0064209
0.00427853
-1.08785
1.08999
-0.00179598
-0.000589915
-1.29673
1.29912
0.00333315
-0.00594906
-1.55037
1.55299
0.00844615
-0.0108312
-1.55031
1.5527
0.0127326
-0.0145687
-1.29664
1.29848
0.0160638
-0.0175344
-1.08802
1.08949
0.0187593
-0.020006
-0.916165
0.917412
0.0210915
-0.0222347
-0.775623
0.776766
0.0231861
-0.0235136
-0.659277
0.659605
0.0228729
-0.0202907
-0.539022
0.536439
0.0161221
-0.010595
-0.369021
0.363494
0.00607019
-0.00248992
-0.176267
0.172687
0.000650689
-0.029431
0.0287803
-0.0302293
0.02992
0.000309311
-0.00339396
0.00626505
-0.244968
0.242097
-0.010011
0.0129466
-0.419323
0.416388
-0.0147053
0.0149201
-0.553397
0.553182
-0.0141526
0.0129087
-0.659753
0.660997
-0.0113388
0.00978866
-0.776319
0.777869
-0.00795528
0.0061572
-0.918941
0.920739
-0.00406598
0.00205748
-1.092
1.09401
0.000253152
-0.00246997
-1.30137
1.30358
0.00501073
-0.00742175
-1.55547
1.55788
0.00968251
-0.0117766
-1.55495
1.55704
0.0133997
-0.0149408
-1.30022
1.30176
0.0161771
-0.0173804
-1.09088
1.09208
0.0183854
-0.0193919
-0.918553
0.919559
0.0202463
-0.021128
-0.777718
0.7786
0.0217627
-0.0217868
-0.659754
0.659778
0.0207707
-0.0179627
-0.533765
0.530957
0.0139501
-0.0089977
-0.358283
0.353331
0.00511769
-0.00210761
-0.169425
0.166415
0.0005589
-0.0281903
0.0276314
-0.0296767
0.0294921
0.000184613
-0.00224005
0.0043322
-0.239624
0.237532
-0.00726171
0.00972566
-0.413694
0.41123
-0.0113256
0.0115696
-0.552965
0.552721
-0.0108316
0.00966127
-0.662258
0.663428
-0.00815989
0.00670101
-0.779425
0.780884
-0.00499622
0.00332366
-0.922393
0.924066
-0.00136811
-0.000518413
-1.09585
1.09774
0.00268974
-0.00475374
-1.30566
1.30772
0.0070799
-0.00923025
-1.56014
1.56229
0.0111998
-0.0129709
-1.55898
1.56075
0.0142928
-0.0154698
-1.30316
1.30433
0.0163442
-0.0171457
-1.09313
1.09394
0.0177828
-0.018462
-0.92041
0.921089
0.019101
-0.0198103
-0.779318
0.780027
0.0202647
-0.0200566
-0.659684
0.659476
0.018793
-0.0158721
-0.528137
0.525217
0.012077
-0.0076759
-0.348697
0.344296
0.00435456
-0.00181291
-0.163677
0.161135
0.000492414
-0.0271248
0.0266324
-0.0293701
0.0293076
6.25194e-05
-0.00114122
0.00248789
-0.235819
0.234473
-0.00459646
0.00655389
-0.409036
0.407079
-0.00797927
0.00829116
-0.552494
0.552183
-0.00769157
0.00667164
-0.664616
0.665636
-0.00528305
0.00388349
-0.782336
0.783736
-0.00220644
0.000547449
-0.925605
0.927264
0.00139173
-0.00324793
-1.0995
1.10136
0.0053643
-0.00734418
-1.30967
1.31165
0.00952015
-0.0114676
-1.56428
1.56622
0.0131865
-0.0146885
-1.5624
1.5639
0.0157595
-0.016679
-1.30545
1.30637
0.0173318
-0.017881
-1.09469
1.09524
0.0182951
-0.0186797
-0.921593
0.921977
0.0189916
-0.0192947
-0.780446
0.780749
0.0193004
-0.0187703
-0.659049
0.658519
0.0171544
-0.0140694
-0.522294
0.519209
0.0104781
-0.00657926
-0.340206
0.336307
0.00373747
-0.00158277
-0.158832
0.156677
0.000444413
-0.0261862
0.0257418
-0.0293084
0.0293808
-7.24355e-05
1.18396e-05
0.00059366
-0.233512
0.232906
-0.00184593
0.00319204
-0.405437
0.404091
-0.00431069
0.00462603
-0.551894
0.551579
-0.00417196
0.00331715
-0.666665
0.66752
-0.00202448
0.000628269
-0.785166
0.786562
0.00109879
-0.00280159
-0.92882
0.930523
0.00475653
-0.00659546
-1.10308
1.10492
0.00864259
-0.0105099
-1.3135
1.31536
0.0125152
-0.0142593
-1.56804
1.56978
0.0157194
-0.0168712
-1.56524
1.56639
0.0175925
-0.0181048
-1.30716
1.30768
0.0184135
-0.0186423
-1.09569
1.09592
0.0187805
-0.0188525
-0.922238
0.92231
0.0188492
-0.0188357
-0.780799
0.780785
0.018502
-0.017465
-0.65763
0.656593
0.0155293
-0.0123859
-0.516156
0.513013
0.00905949
-0.00564262
-0.332721
0.329304
0.00321788
-0.00138489
-0.154737
0.152904
0.000399146
-0.0253427
0.0249435
-0.0295243
0.0297317
-0.000207323
0.000974681
-0.00106056
-0.232691
0.232777
0.00064697
2.65025e-05
-0.403122
0.402448
-0.00066116
0.000748795
-0.551441
0.551353
-0.000205082
-0.000682722
-0.668505
0.669392
0.00198332
-0.00338142
-0.787958
0.789356
0.00510081
-0.00678896
-0.932051
0.933739
0.0087231
-0.0105274
-1.1066
1.1084
0.012513
-0.0142951
-1.31708
1.31887
0.0161599
-0.0177024
-1.57136
1.5729
0.0188958
-0.0197319
-1.56737
1.56821
0.0201296
-0.0202842
-1.3081
1.30825
0.0202297
-0.0200245
-1.096
1.0958
0.0197678
-0.0194639
-0.922176
0.921872
0.0191701
-0.0187942
-0.780397
0.780021
0.0180806
-0.0167084
-0.655345
0.653973
0.0145784
-0.0114217
-0.510004
0.506848
0.008286
-0.00518093
-0.326161
0.323055
0.00299115
-0.00130688
-0.151227
0.149543
0.000380375
-0.024589
0.0242087
-0.0299954
0.0303113
-0.000315831
0.00182599
-0.00247928
-0.233137
0.23379
0.00281401
-0.00278122
-0.402148
0.402115
0.0026595
-0.00285439
-0.551546
0.551741
0.00356097
-0.00457536
-0.670484
0.671498
0.00598867
-0.00747961
-0.790763
0.792254
0.00928099
-0.0110282
-0.93524
0.936988
0.0130189
-0.0148805
-1.11005
1.11191
0.0169296
-0.0187419
-1.32054
1.32235
0.0205701
-0.0219823
-1.57431
1.57572
0.0229595
-0.0235099
-1.56889
1.56944
0.0236145
-0.0233978
-1.30828
1.30806
0.0230043
-0.0224201
-1.09541
1.09482
0.0218004
-0.0211033
-0.921327
0.92063
0.0204922
-0.019783
-0.779311
0.778602
0.0187666
-0.0170273
-0.652472
0.650733
0.0146458
-0.0113756
-0.50381
0.50054
0.0082906
-0.00528481
-0.320135
0.317129
0.00311671
-0.00138414
-0.147921
0.146189
0.000405022
-0.0238542
0.0234492
-0.03069
0.0311165
-0.000426541
0.00259129
-0.00375169
-0.234716
0.235877
0.0047675
-0.00536525
-0.402431
0.403029
0.00575437
-0.00618842
-0.55227
0.552705
0.00701416
-0.00815453
-0.672756
0.673896
0.0097357
-0.0114199
-0.793753
0.795437
0.0134716
-0.0154665
-0.938603
0.940598
0.0177388
-0.0198469
-1.1137
1.1158
0.0221225
-0.0240818
-1.32409
1.32605
0.0259652
-0.0273167
-1.57701
1.57836
0.0281452
-0.0284407
-1.56984
1.57013
0.0283013
-0.0277766
-1.30771
1.30719
0.0270633
-0.0261163
-1.09404
1.0931
0.0251731
-0.0241184
-0.919673
0.918619
0.0231628
-0.022034
-0.777528
0.776399
0.0206105
-0.0184228
-0.648873
0.646685
0.0157116
-0.0122283
-0.497382
0.493899
0.00904918
-0.00591447
-0.314224
0.31109
0.00355741
-0.00159955
-0.14444
0.142482
0.000470386
-0.023057
0.0225866
-0.031611
0.0321712
-0.000560189
0.00346442
-0.00514972
-0.237322
0.239008
0.00684687
-0.00809725
-0.40395
0.4052
0.00912293
-0.00994456
-0.553601
0.554423
0.0109782
-0.0122982
-0.675291
0.676611
0.0141578
-0.016178
-0.797135
0.799155
0.0186505
-0.0210324
-0.94252
0.944902
0.023702
-0.0261126
-1.11786
1.12027
0.028638
-0.0307312
-1.32795
1.33004
0.0326597
-0.0339396
-1.5796
1.58088
0.0345604
-0.0345346
-1.57023
1.57021
0.0340317
-0.0331042
-1.30647
1.30554
0.0320314
-0.0307272
-1.09193
1.09062
0.0294691
-0.0280631
-0.917274
0.915868
0.0267444
-0.0251449
-0.774869
0.773269
0.0232972
-0.0206507
-0.644387
0.641741
0.0176172
-0.0138675
-0.490555
0.486805
0.0104255
-0.00691981
-0.307968
0.304462
0.00419994
-0.00189754
-0.140461
0.138159
0.000559106
-0.0221239
0.0215648
-0.0328052
0.0335403
-0.000735158
0.00456503
-0.00685147
-0.240997
0.243284
0.00928942
-0.0112797
-0.406878
0.408868
0.0130948
-0.0145796
-0.555931
0.557416
0.0162148
-0.0180338
-0.678346
0.680165
0.0204319
-0.0229321
-0.801203
0.803703
0.0258829
-0.0286565
-0.947189
0.949963
0.0316894
-0.0343561
-1.12259
1.12526
0.0370523
-0.0391881
-1.332
1.33413
0.0410265
-0.0420686
-1.58195
1.58299
0.0423192
-0.0417985
-1.5699
1.56938
0.0408337
-0.0394119
-1.30435
1.30293
0.0379001
-0.0360956
-1.08902
1.08722
0.0343956
-0.0325382
-0.914066
0.912208
0.0308473
-0.0288066
-0.771252
0.769211
0.0266141
-0.0236413
-0.639078
0.636105
0.0203323
-0.0161989
-0.483222
0.479089
0.0122854
-0.0081944
-0.300907
0.296816
0.0049803
-0.0022536
-0.135774
0.133047
0.000665571
-0.0210125
0.0203469
-0.0343552
0.0353355
-0.000980362
0.00607115
-0.00912735
-0.245898
0.248955
0.0124115
-0.0151489
-0.411349
0.414087
0.017792
-0.0200235
-0.559775
0.562006
0.0224732
-0.025038
-0.682581
0.685145
0.0282097
-0.0313212
-0.806232
0.809344
0.0348567
-0.0380811
-0.952631
0.955855
0.0415147
-0.0444637
-1.12781
1.13075
0.0473659
-0.0495758
-1.3361
1.33831
0.0513184
-0.0520796
-1.58376
1.58452
0.0518803
-0.05076
-1.56849
1.56737
0.0491562
-0.0470275
-1.30113
1.299
0.044917
-0.0425819
-1.08508
1.08274
0.0404985
-0.0382594
-0.909943
0.907704
0.0362281
-0.0338529
-0.766754
0.764379
0.0313728
-0.0279796
-0.633124
0.62973
0.024107
-0.0191671
-0.474997
0.470057
0.0144602
-0.00959205
-0.292639
0.287771
0.00581859
-0.00263171
-0.130251
0.127064
0.000776118
-0.0196929
0.0189168
-0.036396
0.0377211
-0.00132504
0.0081489
-0.0122256
-0.25236
0.256436
0.0165381
-0.0200487
-0.417412
0.420923
0.0233943
-0.0262734
-0.565258
0.568137
0.029483
-0.0327877
-0.688352
0.691657
0.0368015
-0.0406675
-0.812489
0.816355
0.0449387
-0.0487602
-0.959002
0.962823
0.0527828
-0.0561975
-1.13363
1.13704
0.0595195
-0.0619894
-1.34041
1.34288
0.0638416
-0.0645175
-1.58506
1.58573
0.0640695
-0.0625394
-1.56592
1.56439
0.0604762
-0.057752
-1.29647
1.29375
0.0550015
-0.0518971
-1.0799
1.0768
0.0491342
-0.0463355
-0.904998
0.902199
0.0439893
-0.0411484
-0.761538
0.758697
0.0380898
-0.0337459
-0.626139
0.621795
0.0287641
-0.0225841
-0.464985
0.458805
0.0169124
-0.0112007
-0.282843
0.277132
0.00680075
-0.00307792
-0.123811
0.120088
0.000906862
-0.0181535
0.0172466
-0.0391098
0.0409518
-0.00184206
0.011184
-0.0166954
-0.260875
0.266386
0.0223888
-0.0268395
-0.425262
0.429713
0.0308813
-0.0342819
-0.572203
0.575604
0.0380907
-0.0420627
-0.695564
0.699536
0.046882
-0.0514766
-0.820209
0.824804
0.0565687
-0.0611582
-0.966622
0.971211
0.0659994
-0.0701025
-1.14047
1.14458
0.0740558
-0.0769589
-1.34532
1.34822
0.0791076
-0.0798696
-1.58627
1.58703
0.0793433
-0.0775918
-1.56264
1.56089
0.0752419
-0.0721297
-1.29074
1.28763
0.0689736
-0.0653358
-1.07324
1.0696
0.0619757
-0.0583677
-0.898646
0.895038
0.0550399
-0.0510237
-0.755048
0.751032
0.0465203
-0.0404144
-0.616829
0.610723
0.0339153
-0.0263665
-0.452477
0.444929
0.0197081
-0.0130764
-0.271433
0.264801
0.00794355
-0.00358406
-0.116308
0.111949
0.00104865
-0.0163633
0.0153146
-0.0428252
0.0454853
-0.00266009
0.0157728
-0.0232986
-0.272255
0.279781
0.0308772
-0.0366671
-0.435564
0.441354
0.0416871
-0.0457415
-0.580564
0.584618
0.0502098
-0.0548399
-0.704057
0.708687
0.0604276
-0.0658054
-0.829317
0.834695
0.0718492
-0.0773071
-0.975806
0.981263
0.0830369
-0.0878157
-1.14869
1.15347
0.0923149
-0.0955217
-1.35105
1.35426
0.0977779
-0.0984264
-1.58759
1.58823
0.097603
-0.0954148
-1.55885
1.55667
0.092609
-0.0889393
-1.2842
1.28053
0.0852205
-0.080886
-1.06546
1.06112
0.0767747
-0.0720582
-0.890488
0.885772
0.0672991
-0.0614719
-0.745757
0.73993
0.0551798
-0.0472706
-0.603824
0.595915
0.0394383
-0.0307169
-0.437415
0.428694
0.0230609
-0.0153382
-0.258257
0.250535
0.00929381
-0.00416071
-0.10754
0.102407
0.00120325
-0.0142967
0.0130935
-0.0481119
0.0522033
-0.00409142
0.0231535
-0.033531
-0.287733
0.29811
0.043679
-0.0514241
-0.449544
0.457289
0.0579541
-0.0630575
-0.590827
0.59593
0.0686255
-0.0742253
-0.713869
0.719469
0.0808356
-0.0870948
-0.840003
0.846262
0.0939982
-0.100095
-0.986633
0.992729
0.106312
-0.111316
-1.15805
1.16306
0.115809
-0.11877
-1.35713
1.36009
0.120488
-0.120396
-1.58837
1.58828
0.118673
-0.115457
-1.5539
1.55068
0.111691
-0.106933
-1.2763
1.27154
0.1022
-0.0967124
-1.05605
1.05057
0.0914274
-0.0852429
-0.879802
0.873617
0.0790448
-0.0715519
-0.732595
0.725102
0.0638975
-0.0547414
-0.587395
0.578239
0.0459094
-0.0360494
-0.420167
0.410307
0.0271802
-0.0180425
-0.242963
0.233825
0.010842
-0.00478303
-0.0972809
0.0912219
0.00135567
-0.0119432
0.0105875
-0.0560534
0.063221
-0.00716762
0.0365778
-0.0512678
-0.309517
0.324207
0.0651298
-0.0754834
-0.468847
0.479201
0.0838329
-0.0903838
-0.603974
0.610525
0.0976696
-0.104488
-0.725581
0.7324
0.112014
-0.118763
-0.852266
0.859015
0.125874
-0.131867
-0.998402
1.00439
0.137673
-0.142033
-1.16743
1.17179
0.145561
-0.147376
-1.36224
1.36405
0.147594
-0.145873
-1.58721
1.58549
0.14245
-0.137472
-1.54648
1.5415
0.13215
-0.125756
-1.26591
1.25952
0.119574
-0.11253
-1.04409
1.03705
0.105846
-0.0982247
-0.866041
0.858419
0.0908952
-0.0823721
-0.716154
0.707631
0.0739299
-0.0639152
-0.568565
0.55855
0.0540665
-0.0427284
-0.400573
0.389235
0.0322214
-0.0212792
-0.224919
0.213977
0.0126507
-0.00548192
-0.0853424
0.0781736
0.0015102
-0.00932319
0.00781299
-0.0700039
0.0738507
-0.0038468
0.0273583
-0.0400633
-0.341588
0.354293
0.052456
-0.0618778
-0.494722
0.504144
0.0702969
-0.0786959
-0.620581
0.62898
0.0882252
-0.0967287
-0.739059
0.747562
0.106469
-0.115362
-0.864965
0.873858
0.124952
-0.13351
-1.00937
1.01793
0.142404
-0.149917
-1.17494
1.18245
0.157147
-0.162555
-1.36451
1.36992
0.166695
-0.168328
-1.58231
1.58394
0.167264
-0.16385
-1.53512
1.53171
0.158963
-0.152086
-1.25199
1.24511
0.144898
-0.135675
-1.02891
1.01968
0.126802
-0.116606
-0.849435
0.83924
0.107012
-0.0961629
-0.697581
0.686731
0.0853251
-0.0724766
-0.547725
0.534877
0.0599855
-0.045446
-0.377652
0.363113
0.0324655
-0.0198242
-0.203208
0.190567
0.0107652
-0.00418583
-0.0716899
0.0651105
0.000981674
-0.00655823
0.00557656
-0.0808366
0.078712
0.00212467
0.00566099
-0.0137564
-0.369937
0.378032
0.0230162
-0.0300434
-0.518322
0.52535
0.0375697
-0.0450839
-0.639478
0.646993
0.0540051
-0.0621554
-0.756047
0.764197
0.0709506
-0.0791298
-0.882299
0.890478
0.0878631
-0.0952855
-1.02615
1.03357
0.103133
-0.109344
-1.18966
1.19587
0.115163
-0.119072
-1.37478
1.37869
0.121197
-0.120947
-1.58427
1.58402
0.117965
-0.112594
-1.52682
1.52144
0.10588
-0.09727
-1.23707
1.22846
0.0887187
-0.0786571
-1.00955
0.999484
0.069045
-0.058284
-0.827266
0.816505
0.0487298
-0.0391238
-0.67253
0.662924
0.0310564
-0.0224094
-0.519956
0.511309
0.0148144
-0.00799824
-0.347943
0.341127
0.00360588
-0.000664482
-0.178164
0.175222
-0.00056839
0.000715561
-0.0585929
0.0584457
-0.000362077
-0.00432463
0.00468671
-0.0817153
0.0787619
0.00295344
-0.0029214
-0.0015259
-0.388956
0.393403
0.00759161
-0.0130021
-0.536451
0.541861
0.0192191
-0.0258561
-0.656063
0.6627
0.0336764
-0.0408465
-0.771845
0.779015
0.048768
-0.0559202
-0.898027
0.90518
0.0632699
-0.0698315
-1.04079
1.04735
0.0765183
-0.0818444
-1.20156
1.20688
0.0863203
-0.0889938
-1.38177
1.38445
0.0900964
-0.0887362
-1.5828
1.58144
0.0847644
-0.07858
-1.51512
1.50894
0.0714252
-0.0627773
-1.21944
1.21079
0.0540741
-0.0443877
-0.988905
0.979218
0.0353669
-0.0255209
-0.805567
0.795721
0.0171162
-0.00874886
-0.651229
0.642862
0.00218821
0.00415796
-0.500472
0.494126
-0.00827478
0.0101526
-0.332148
0.33027
-0.00983296
0.00799687
-0.170108
0.171944
-0.00560145
0.00287809
-0.0574563
0.0601796
-0.000959377
-0.00454353
0.00550291
-0.0802466
0.0774755
0.00277107
-0.00602495
0.00400478
-0.40147
0.40349
-0.000343292
-0.00393427
-0.550399
0.554676
0.00954346
-0.015222
-0.670018
0.675697
0.0220113
-0.0282712
-0.785913
0.792173
0.0351194
-0.0412934
-0.911927
0.918101
0.0479918
-0.0535577
-1.05351
1.05907
0.0593883
-0.0635571
-1.21178
1.21595
0.0672905
-0.0693633
-1.38684
1.38891
0.0697591
-0.0677274
-1.57955
1.57752
0.0636909
-0.0576888
-1.5022
1.49619
0.0508786
-0.0424684
-1.20197
1.19356
0.0344954
-0.0257466
-0.969311
0.960563
0.0175454
-0.00897095
-0.785726
0.777151
0.00135924
0.00579402
-0.632708
0.625555
-0.0111125
0.0153908
-0.48561
0.481331
-0.0173625
0.0168113
-0.324869
0.32542
-0.0143774
0.0106214
-0.171267
0.175023
-0.00712675
0.00347121
-0.0616699
0.0653254
-0.00109309
-0.00589897
0.00699206
-0.0786785
0.0763014
0.00237709
-0.00674848
0.00614059
-0.409827
0.410435
-0.00338603
0.000265888
-0.561964
0.565085
0.00452947
-0.00977737
-0.681952
0.6872
0.0155715
-0.0211729
-0.79802
0.803621
0.0271838
-0.0326038
-0.923953
0.929373
0.0384007
-0.0434
-1.06455
1.06955
0.048369
-0.0522437
-1.22001
1.22388
0.0554602
-0.0571688
-1.39064
1.39235
0.0573186
-0.0552541
-1.57535
1.57328
0.0514196
-0.0456881
-1.48964
1.4839
0.0394889
-0.0320521
-1.18533
1.1779
0.0249588
-0.0170975
-0.951721
0.943859
0.0100159
-0.0025412
-0.76835
0.760875
-0.00384055
0.00991349
-0.617201
0.611128
-0.0142425
0.0173566
-0.474607
0.471493
-0.0186511
0.0175618
-0.322012
0.323102
-0.0146162
0.0106946
-0.175965
0.179886
-0.00708076
0.00337312
-0.0674182
0.0711258
-0.00106442
-0.00750757
0.00857199
-0.0773492
0.0753481
0.0020011
-0.00639014
0.00615065
-0.415603
0.415843
-0.00455694
0.00187235
-0.570975
0.573659
0.00275327
-0.00730794
-0.692286
0.69684
0.0123866
-0.0173443
-0.808662
0.81362
0.022775
-0.0276938
-0.934567
0.939486
0.0330808
-0.0375322
-1.07433
1.07878
0.0420849
-0.0456478
-1.22752
1.23109
0.0485613
-0.0501038
-1.39385
1.39539
0.0502083
-0.0486485
-1.57121
1.56965
0.0451234
-0.0400953
-1.47789
1.47286
0.0345487
-0.0279574
-1.17052
1.16393
0.021938
-0.0149615
-0.936135
0.929158
0.00878153
-0.00245853
-0.753396
0.747073
-0.00295633
0.00806048
-0.60429
0.599186
-0.0116662
0.0143438
-0.466003
0.463326
-0.015173
0.0142734
-0.320778
0.321677
-0.0119896
0.00864694
-0.180788
0.184131
-0.00563775
0.00272293
-0.0728424
0.0757572
-0.000875138
-0.00899396
0.0098691
-0.0764164
0.0748798
0.00153663
-0.00537175
0.00535862
-0.419956
0.419969
-0.00390203
0.00176948
-0.579051
0.581183
0.00244687
-0.00660373
-0.70142
0.705577
0.0115053
-0.0158622
-0.818362
0.822719
0.0207236
-0.0251657
-0.944481
0.948923
0.0303652
-0.0344933
-1.08333
1.08746
0.0386345
-0.0421062
-1.23453
1.238
0.0452942
-0.0468308
-1.39701
1.39855
0.0471981
-0.0458544
-1.56779
1.56645
0.0430592
-0.0383807
-1.46777
1.46309
0.0336093
-0.0279308
-1.15736
1.15168
0.0225604
-0.0166783
-0.922444
0.916562
0.0113007
-0.00568636
-0.740628
0.735013
0.00125335
0.00321581
-0.59337
0.588901
-0.00640716
0.00852935
-0.458706
0.456584
-0.00933829
0.00900856
-0.319739
0.320069
-0.00748372
0.0052202
-0.184326
0.186589
-0.0033143
0.00161173
-0.0765892
0.0782917
-0.000544147
-0.0100531
0.0105972
-0.0760082
0.0748151
0.00119312
-0.0042292
0.00427658
-0.423494
0.423447
-0.00283232
0.000763962
-0.586212
0.588281
0.0031703
-0.00694665
-0.709754
0.71353
0.0112292
-0.0154958
-0.827157
0.831424
0.0200638
-0.024705
-0.95327
0.957912
0.0292675
-0.033288
-1.09174
1.09576
0.0376414
-0.0409639
-1.24141
1.24473
0.0438007
-0.0458708
-1.40006
1.40213
0.0465853
-0.0457149
-1.56523
1.56436
0.0433118
-0.039466
-1.4587
1.45486
0.0352688
-0.0302001
-1.14581
1.14075
0.025477
-0.0202266
-0.91066
0.905409
0.0154791
-0.0106786
-0.729508
0.724708
0.00649287
-0.00256065
-0.58386
0.579927
-0.000316499
0.00251564
-0.452558
0.450359
-0.00353916
0.00357674
-0.317821
0.317784
-0.00308656
0.00218111
-0.185731
0.186636
-0.00140731
0.000716559
-0.0781768
0.0788676
-0.000283064
-0.010514
0.0107971
-0.0761282
0.0751357
0.00099245
-0.00294372
0.00276763
-0.426764
0.42694
-0.00149452
-0.000661535
-0.592801
0.594957
0.0042971
-0.00798102
-0.717599
0.721283
0.0121407
-0.0160639
-0.835597
0.83952
0.0208035
-0.0247307
-0.962071
0.965998
0.029322
-0.0332251
-1.09999
1.10389
0.0375379
-0.0411264
-1.24809
1.25168
0.0443376
-0.0462978
-1.40402
1.40598
0.0474776
-0.0471363
-1.56347
1.56313
0.0454916
-0.0420841
-1.45094
1.44753
0.0384255
-0.033866
-1.13581
1.13125
0.0296179
-0.0247669
-0.89999
0.895139
0.0205077
-0.0159768
-0.719671
0.71514
0.0121058
-0.00833841
-0.575454
0.571687
0.00542621
-0.00322442
-0.44653
0.444328
0.00178218
-0.0011033
-0.314914
0.314235
0.000583759
-0.000282692
-0.184931
0.18463
6.99639e-05
0.000126975
-0.0778421
0.0776452
-0.000122154
-0.0104666
0.0105888
-0.0765182
0.0758328
0.000685404
-0.00181415
0.00127106
-0.430204
0.430747
-0.000200456
-0.00224708
-0.598613
0.601061
0.00553554
-0.00910658
-0.72499
0.728561
0.0131292
-0.0172118
-0.843399
0.847482
0.0213976
-0.0255216
-0.970193
0.974317
0.0301239
-0.0338723
-1.10826
1.11201
0.0383323
-0.0419375
-1.25512
1.25872
0.0452844
-0.0478435
-1.40838
1.41094
0.0496001
-0.0496327
-1.56287
1.5629
0.0483151
-0.0456641
-1.4443
1.44165
0.0425594
-0.0383548
-1.12655
1.12235
0.0343323
-0.0299737
-0.890184
0.885825
0.025624
-0.0214601
-0.710327
0.706163
0.0177463
-0.0139693
-0.56761
0.563833
0.0111141
-0.00849126
-0.440381
0.437758
0.00665049
-0.00509468
-0.311007
0.309452
0.00381941
-0.00244527
-0.182196
0.180822
0.00125496
-0.000346126
-0.0759174
0.0750086
-8.243e-06
-0.00999493
0.0100032
-0.0773047
0.0767657
0.00053898
-0.000874832
0.000433095
-0.433865
0.434306
0.00133938
-0.00357084
-0.604638
0.60687
0.00698973
-0.0104397
-0.731919
0.735369
0.0143316
-0.0180514
-0.851319
0.855039
0.0223917
-0.0262413
-0.978502
0.982352
0.0308313
-0.035042
-1.11624
1.12045
0.039196
-0.0431719
-1.26241
1.26639
0.0469921
-0.0497057
-1.41344
1.41616
0.0519055
-0.0527735
-1.56318
1.56405
0.0519449
-0.0499346
-1.43888
1.43687
0.0470288
-0.0432337
-1.11814
1.11434
0.0395499
-0.0352746
-0.881019
0.876743
0.0312024
-0.0270476
-0.70145
0.697295
0.0233562
-0.0194493
-0.559617
0.55571
0.016307
-0.0133833
-0.433828
0.430905
0.0108625
-0.00854966
-0.305667
0.303354
0.00645055
-0.00420707
-0.177601
0.175357
0.00236637
-0.000878063
-0.0727641
0.0712758
0.000160253
-0.00928895
0.0091287
-0.0783365
0.0779701
0.000366367
0.000113548
-0.00082219
-0.437611
0.438319
0.00245113
-0.00494817
-0.610243
0.61274
0.00827983
-0.0115768
-0.738628
0.741925
0.0155576
-0.0191471
-0.858796
0.862386
0.0233598
-0.0273526
-0.986716
0.990709
0.031875
-0.0360787
-1.12455
1.12875
0.0404838
-0.0445213
-1.27032
1.27435
0.0485706
-0.0520667
-1.41919
1.42268
0.054761
-0.0559739
-1.56488
1.5661
0.0558666
-0.0541896
-1.43474
1.43307
0.0518155
-0.0484897
-1.11044
1.10711
0.0448011
-0.0406452
-0.872126
0.86797
0.0366516
-0.0323646
-0.692707