/*--------------------------------*- C++ -*----------------------------------*\
| =========                 |                                                 |
| \\      /  F ield         | OpenFOAM: The Open Source CFD Toolbox           |
|  \\    /   O peration     | Version:  2112                                  |
|   \\  /    A nd           | Website:  www.openfoam.com                      |
|    \\/     M anipulation  |                                                 |
\*---------------------------------------------------------------------------*/
FoamFile
{
    version     2.0;
    format      ascii;
    arch        "LSB;label=32;scalar=64";
    class       volVectorField;
    location    "29.5";
    object      U;
}
// * * * * * * * * * * * * * * * * * * * * * * * * * * * * * * * * * * * * * //

dimensions      [0 1 -1 0 0 0 0];

internalField   nonuniform List<vector> 
8800
(
(0.980154 -0.0915212 0)
(1.00234 -0.0587232 0)
(0.99961 -0.0321241 0)
(0.999998 -0.0165149 0)
(1.00005 -0.00882676 0)
(1.00002 -0.00507281 0)
(0.999998 -0.00297412 0)
(0.999993 -0.00168512 0)
(0.999993 -0.000807431 0)
(1.00005 -0.000122472 0)
(0.999998 0.000568664 0)
(1.00001 0.0013255 0)
(1.00001 0.00236059 0)
(1.00002 0.0039732 0)
(1.00004 0.00672353 0)
(1.00005 0.0120321 0)
(0.999882 0.0230857 0)
(0.999074 0.0431527 0)
(1.00722 0.0790278 0)
(0.775024 0.0478396 0)
(0.358978 -0.0147489 0)
(1.04649 -0.0724929 0)
(1.08849 -0.06603 0)
(1.04946 -0.0509226 0)
(1.02552 -0.0376994 0)
(1.01266 -0.0258832 0)
(1.00648 -0.0166905 0)
(1.00356 -0.0102385 0)
(1.00214 -0.00565538 0)
(1.00149 -0.00210016 0)
(1.00137 0.00109392 0)
(1.00174 0.0043969 0)
(1.00271 0.0082896 0)
(1.00473 0.0136123 0)
(1.00897 0.0213035 0)
(1.01798 0.0318138 0)
(1.03588 0.0446066 0)
(1.06751 0.0580686 0)
(1.09474 0.0699571 0)
(0.845703 0.0554969 0)
(0.217761 -0.001381 0)
(1.07568 -0.0506618 0)
(1.09943 -0.0489488 0)
(1.06438 -0.0400333 0)
(1.03983 -0.0325719 0)
(1.02368 -0.0253645 0)
(1.0139 -0.0181768 0)
(1.00842 -0.0116061 0)
(1.0056 -0.00590257 0)
(1.00446 -0.000665977 0)
(1.00479 0.0044053 0)
(1.00665 0.00968921 0)
(1.01057 0.0156843 0)
(1.01789 0.0224736 0)
(1.03053 0.0295949 0)
(1.05058 0.0367033 0)
(1.08019 0.0445059 0)
(1.10581 0.0518544 0)
(0.943452 0.040969 0)
(0.217305 0.00139965 0)
(0.176612 -0.000628615 0)
(1.01937 -0.0354651 0)
(1.1057 -0.0414158 0)
(1.07793 -0.0364072 0)
(1.05233 -0.0303672 0)
(1.03506 -0.0244975 0)
(1.02321 -0.0187538 0)
(1.01543 -0.0128379 0)
(1.01085 -0.00682136 0)
(1.00885 -0.000647051 0)
(1.00942 0.00547176 0)
(1.01254 0.0113729 0)
(1.0185 0.017158 0)
(1.0281 0.022765 0)
(1.04232 0.0283484 0)
(1.06319 0.0341578 0)
(1.09405 0.0400723 0)
(1.09468 0.04164 0)
(0.83062 0.0227142 0)
(0.175839 0.000643598 0)
(0.154703 -0.000462449 0)
(0.958145 -0.0256831 0)
(1.10438 -0.0351106 0)
(1.08802 -0.0326568 0)
(1.0611 -0.0281407 0)
(1.04299 -0.0232001 0)
(1.0306 -0.0179838 0)
(1.02203 -0.01255 0)
(1.01652 -0.00674251 0)
(1.01392 -0.000389373 0)
(1.01462 0.00598737 0)
(1.01846 0.0118243 0)
(1.02526 0.017157 0)
(1.03541 0.0221908 0)
(1.05022 0.0270442 0)
(1.07222 0.0315313 0)
(1.1013 0.0354735 0)
(1.07017 0.033761 0)
(0.743329 0.0143619 0)
(0.153549 0.000479377 0)
(0.140033 -0.000333619 0)
(0.901157 -0.0192862 0)
(1.09673 -0.0301724 0)
(1.09609 -0.0293256 0)
(1.06873 -0.0255955 0)
(1.04984 -0.0215633 0)
(1.03688 -0.0169537 0)
(1.02792 -0.0118094 0)
(1.022 -0.00620116 0)
(1.01906 2.00909e-05 0)
(1.01978 0.0062778 0)
(1.02388 0.0118715 0)
(1.03096 0.0168853 0)
(1.0415 0.0214264 0)
(1.05694 0.0254203 0)
(1.07979 0.0289523 0)
(1.10371 0.0316969 0)
(1.03875 0.0278044 0)
(0.677073 0.0101728 0)
(0.138412 0.000353844 0)
(0.129333 -0.000252248 0)
(0.851399 -0.0148496 0)
(1.08437 -0.0260025 0)
(1.10166 -0.0263353 0)
(1.07541 -0.0230192 0)
(1.05601 -0.0194348 0)
(1.04263 -0.0154236 0)
(1.03328 -0.0107626 0)
(1.02709 -0.00544078 0)
(1.02397 0.000552799 0)
(1.02459 0.00656302 0)
(1.02873 0.0118295 0)
(1.036 0.0163551 0)
(1.04687 0.020215 0)
(1.06271 0.0235852 0)
(1.08601 0.0266875 0)
(1.10314 0.0286146 0)
(1.00469 0.0231188 0)
(0.625827 0.00771968 0)
(0.127145 0.000276888 0)
(0.121219 -0.00019236 0)
(0.809166 -0.0115953 0)
(1.06908 -0.0223061 0)
(1.10513 -0.0236455 0)
(1.08155 -0.0208366 0)
(1.06163 -0.0175034 0)
(1.04794 -0.0137813 0)
(1.03833 -0.00945324 0)
(1.03189 -0.00446025 0)
(1.02856 0.00119704 0)
(1.02906 0.00682995 0)
(1.03321 0.011679 0)
(1.04058 0.015735 0)
(1.05159 0.0191758 0)
(1.06778 0.0221905 0)
(1.09152 0.0249662 0)
(1.09987 0.0259651 0)
(0.970555 0.0193366 0)
(0.585206 0.00608017 0)
(0.118341 0.000222364 0)
(0.114989 -0.000146795 0)
(0.77386 -0.00911179 0)
(1.05231 -0.0189407 0)
(1.10722 -0.0209856 0)
(1.08711 -0.0186128 0)
(1.06685 -0.0155287 0)
(1.05294 -0.0120429 0)
(1.04311 -0.00798992 0)
(1.0364 -0.00335285 0)
(1.03282 0.00196043 0)
(1.03318 0.00723136 0)
(1.03731 0.0116137 0)
(1.0447 0.0152073 0)
(1.05577 0.0182418 0)
(1.0722 0.020883 0)
(1.09564 0.0232893 0)
(1.09391 0.0235302 0)
(0.937869 0.0162797 0)
(0.552323 0.00491118 0)
(0.111274 0.00018368 0)
(0.110214 -0.000110202 0)
(0.744655 -0.00713883 0)
(1.03533 -0.0158961 0)
(1.10846 -0.018397 0)
(1.09234 -0.0162923 0)
(1.07176 -0.013357 0)
(1.05756 -0.0101252 0)
(1.04757 -0.00634485 0)
(1.04074 -0.00200014 0)
(1.03696 0.00291362 0)
(1.03709 0.00769451 0)
(1.041 0.0116202 0)
(1.04828 0.0147567 0)
(1.0594 0.0173207 0)
(1.07612 0.0196147 0)
(1.0987 0.0217307 0)
(1.08596 0.0213286 0)
(0.907419 0.0138046 0)
(0.525256 0.00404113 0)
(0.105478 0.000155283 0)
(0.106608 -8.00416e-05 0)
(0.720861 -0.00548701 0)
(1.01894 -0.0130406 0)
(1.1088 -0.0158522 0)
(1.09737 -0.0141564 0)
(1.07642 -0.0113972 0)
(1.06188 -0.0082784 0)
(1.05169 -0.00462032 0)
(1.04461 -0.000506488 0)
(1.04054 0.00403435 0)
(1.04043 0.0083486 0)
(1.04416 0.0118133 0)
(1.05131 0.0145403 0)
(1.06248 0.0167757 0)
(1.07952 0.0187432 0)
(1.10047 0.0204062 0)
(1.07637 0.0193088 0)
(0.87952 0.011762 0)
(0.50271 0.00337728 0)
(0.100624 0.000136042 0)
(0.104005 -5.26786e-05 0)
(0.701993 -0.00402871 0)
(1.0039 -0.0102823 0)
(1.10825 -0.0131416 0)
(1.10185 -0.0117785 0)
(1.08088 -0.00913999 0)
(1.06607 -0.00610289 0)
(1.05559 -0.00264374 0)
(1.04824 0.00119483 0)
(1.04387 0.00539647 0)
(1.0434 0.00930222 0)
(1.04685 0.0122728 0)
(1.05391 0.0145299 0)
(1.0651 0.0163541 0)
(1.08226 0.0178971 0)
(1.10098 0.0190669 0)
(1.0655 0.017338 0)
(0.854328 0.0100315 0)
(0.483791 0.00284734 0)
(0.0964903 0.000121507 0)
(0.102313 -2.79485e-05 0)
(0.68771 -0.00269382 0)
(0.990916 -0.00760227 0)
(1.10733 -0.0102129 0)
(1.106 -0.00894434 0)
(1.08518 -0.00642295 0)
(1.07006 -0.00359486 0)
(1.05932 -0.00035815 0)
(1.05163 0.00323361 0)
(1.04686 0.00707714 0)
(1.04597 0.0104834 0)
(1.04912 0.0128978 0)
(1.05595 0.0144989 0)
(1.06712 0.0156763 0)
(1.08438 0.0168264 0)
(1.10073 0.0176947 0)
(1.05403 0.0155131 0)
(0.83187 0.0085735 0)
(0.467865 0.0024327 0)
(0.0929154 0.000113297 0)
(0.101457 -1.86247e-06 0)
(0.677811 -0.00143221 0)
(0.98032 -0.00497995 0)
(1.10637 -0.00731547 0)
(1.10991 -0.00629549 0)
(1.08923 -0.00396827 0)
(1.07379 -0.00118669 0)
(1.06286 0.00201721 0)
(1.05494 0.00551841 0)
(1.04974 0.00910643 0)
(1.0483 0.0120844 0)
(1.05088 0.0140552 0)
(1.05732 0.0152638 0)
(1.06829 0.0159949 0)
(1.08568 0.0165982 0)
(1.09941 0.0167678 0)
(1.04211 0.0139365 0)
(0.811992 0.0073496 0)
(0.454417 0.00210536 0)
(0.0897438 0.000109598 0)
(0.101488 3.28306e-05 0)
(0.672286 -0.000143133 0)
(0.972379 -0.00224025 0)
(1.10509 -0.0040869 0)
(1.11316 -0.00332144 0)
(1.09311 -0.00116676 0)
(1.07747 0.00169619 0)
(1.0662 0.00492924 0)
(1.05777 0.00830204 0)
(1.0519 0.0116138 0)
(1.04983 0.0141461 0)
(1.05195 0.0154684 0)
(1.05804 0.016042 0)
(1.06886 0.0163491 0)
(1.0859 0.0162786 0)
(1.09649 0.0158282 0)
(1.02963 0.0124046 0)
(0.794516 0.00629388 0)
(0.443064 0.0018328 0)
(0.0869032 0.000102519 0)
(0.102473 6.20537e-05 0)
(0.670977 0.00101846 0)
(0.967598 0.000295893 0)
(1.10436 -0.000765919 0)
(1.11628 0.000161262 0)
(1.09706 0.00229939 0)
(1.08131 0.0051511 0)
(1.06974 0.00834181 0)
(1.06086 0.0116217 0)
(1.05436 0.0146876 0)
(1.0514 0.0167457 0)
(1.05271 0.0175265 0)
(1.05824 0.0174677 0)
(1.06864 0.0169887 0)
(1.0852 0.0164618 0)
(1.0924 0.0152906 0)
(1.01724 0.0114833 0)
(0.779074 0.00574946 0)
(0.433154 0.00173328 0)
(0.0843318 9.77754e-05 0)
(0.104296 9.15571e-05 0)
(0.673051 0.0019401 0)
(0.966008 0.00245944 0)
(1.10482 0.00224792 0)
(1.11969 0.00346388 0)
(1.101 0.00581233 0)
(1.08495 0.00879666 0)
(1.07293 0.0120802 0)
(1.06342 0.0154559 0)
(1.05601 0.018455 0)
(1.05207 0.0201636 0)
(1.05253 0.0203968 0)
(1.05736 0.0196963 0)
(1.06734 0.0185815 0)
(1.08349 0.017467 0)
(1.08729 0.0157191 0)
(1.00465 0.0114176 0)
(0.764653 0.00580737 0)
(0.423532 0.00184219 0)
(0.0817452 0.000103126 0)
(0.106907 0.000123534 0)
(0.678387 0.00282288 0)
(0.967393 0.00447093 0)
(1.10648 0.00505105 0)
(1.12365 0.00650091 0)
(1.10534 0.00913717 0)
(1.08903 0.0125275 0)
(1.07666 0.0162733 0)
(1.06646 0.0200271 0)
(1.05793 0.0231123 0)
(1.05272 0.0245491 0)
(1.05199 0.0243355 0)
(1.05584 0.0230585 0)
(1.06518 0.021368 0)
(1.08074 0.0195826 0)
(1.08095 0.0170979 0)
(0.991491 0.0121967 0)
(0.750232 0.00643995 0)
(0.413117 0.00213023 0)
(0.0788636 0.000119827 0)
(0.11035 0.000162521 0)
(0.686757 0.00379391 0)
(0.971614 0.00653924 0)
(1.10941 0.00818844 0)
(1.12803 0.00999225 0)
(1.11029 0.0131069 0)
(1.09381 0.0171817 0)
(1.08081 0.0215795 0)
(1.06957 0.025732 0)
(1.05958 0.0288905 0)
(1.05282 0.0299742 0)
(1.05078 0.0291212 0)
(1.05359 0.0272061 0)
(1.06218 0.0249496 0)
(1.07671 0.022489 0)
(1.0731 0.0191873 0)
(0.9775 0.0137109 0)
(0.734675 0.00750813 0)
(0.401068 0.00252644 0)
(0.075466 0.000142626 0)
(0.114824 0.000213763 0)
(0.698361 0.00500558 0)
(0.979364 0.00898976 0)
(1.11464 0.0119539 0)
(1.13353 0.0147398 0)
(1.11629 0.0187566 0)
(1.09946 0.0236225 0)
(1.0855 0.028619 0)
(1.07283 0.0330455 0)
(1.06106 0.0360452 0)
(1.05241 0.0364874 0)
(1.04885 0.0347886 0)
(1.05052 0.0320909 0)
(1.05818 0.0290173 0)
(1.07141 0.0258299 0)
(1.06404 0.0218683 0)
(0.962494 0.0159338 0)
(0.716945 0.00888509 0)
(0.386856 0.00299753 0)
(0.0714178 0.000170735 0)
(0.120671 0.000287227 0)
(0.713741 0.00666243 0)
(0.990825 0.0120241 0)
(1.12305 0.0163614 0)
(1.14129 0.0204898 0)
(1.12377 0.0257751 0)
(1.10606 0.0316021 0)
(1.09067 0.0372492 0)
(1.07613 0.0420204 0)
(1.06214 0.0448522 0)
(1.05122 0.0445257 0)
(1.04596 0.0417071 0)
(1.04644 0.0379077 0)
(1.05316 0.0341664 0)
(1.06499 0.0303204 0)
(1.05393 0.0258361 0)
(0.945435 0.0188978 0)
(0.696177 0.0104207 0)
(0.370243 0.00350155 0)
(0.066652 0.000198223 0)
(0.128402 0.000392061 0)
(0.733892 0.00894294 0)
(1.00603 0.0159691 0)
(1.13465 0.0214847 0)
(1.15167 0.0269051 0)
(1.13305 0.0335589 0)
(1.11381 0.0405941 0)
(1.09648 0.0472091 0)
(1.07964 0.0526668 0)
(1.06291 0.0556854 0)
(1.04929 0.0549487 0)
(1.04189 0.0512824 0)
(1.04102 0.0463399 0)
(1.04716 0.0413624 0)
(1.05758 0.0369276 0)
(1.04184 0.0312963 0)
(0.924432 0.0224036 0)
(0.671771 0.0121537 0)
(0.350956 0.00409921 0)
(0.061105 0.000230556 0)
(0.138754 0.000553378 0)
(0.760322 0.0122612 0)
(1.02554 0.0215154 0)
(1.14901 0.0281819 0)
(1.1644 0.0346335 0)
(1.14438 0.0425868 0)
(1.12307 0.0509689 0)
(1.10337 0.0589575 0)
(1.0837 0.065465 0)
(1.0637 0.0689819 0)
(1.04699 0.0681143 0)
(1.0371 0.0639222 0)
(1.03429 0.0582368 0)
(1.03931 0.0522078 0)
(1.04798 0.0462388 0)
(1.02523 0.0378897 0)
(0.898362 0.0261968 0)
(0.643574 0.0141786 0)
(0.328569 0.00478768 0)
(0.0546923 0.000262236 0)
(0.15299 0.000814801 0)
(0.795241 0.017227 0)
(1.05117 0.0295179 0)
(1.16621 0.0378441 0)
(1.17919 0.0453892 0)
(1.15754 0.0546098 0)
(1.13416 0.0645521 0)
(1.11159 0.0740205 0)
(1.08839 0.0814534 0)
(1.06453 0.0851615 0)
(1.04431 0.0837853 0)
(1.03163 0.0787597 0)
(1.02646 0.072044 0)
(1.02929 0.0646103 0)
(1.03411 0.0559997 0)
(1.00238 0.0445896 0)
(0.867635 0.0304262 0)
(0.611323 0.0166445 0)
(0.302542 0.0055825 0)
(0.0473354 0.000293768 0)
(0.173301 0.00128046 0)
(0.842022 0.0250397 0)
(1.08597 0.0414916 0)
(1.18734 0.0524207 0)
(1.1962 0.0617708 0)
(1.17289 0.0726311 0)
(1.147 0.0840402 0)
(1.12072 0.0943273 0)
(1.09321 0.101772 0)
(1.06485 0.104607 0)
(1.04072 0.101673 0)
(1.02491 0.0948834 0)
(1.01689 0.0863043 0)
(1.0161 0.0767103 0)
(1.0148 0.0654256 0)
(0.974466 0.0515393 0)
(0.833097 0.0355692 0)
(0.574281 0.0196511 0)
(0.272456 0.00646085 0)
(0.0390764 0.000317993 0)
(0.203102 0.0023375 0)
(0.906553 0.0385919 0)
(1.13312 0.0612739 0)
(1.21412 0.075393 0)
(1.21633 0.0876417 0)
(1.1901 0.0999026 0)
(1.16053 0.111712 0)
(1.12953 0.121344 0)
(1.097 0.127205 0)
(1.06368 0.12757 0)
(1.03528 0.121654 0)
(1.016 0.111986 0)
(1.00466 0.100746 0)
(0.999328 0.0885861 0)
(0.99145 0.075194 0)
(0.943357 0.0598487 0)
(0.794456 0.0420835 0)
(0.531595 0.0232882 0)
(0.238541 0.00746494 0)
(0.0302027 0.000333841 0)
(0.244144 0.00866877 1.62284e-19)
(0.992558 0.0659434 1.39551e-19)
(1.19084 0.0947358 -4.74755e-20)
(1.24613 0.110797 0)
(1.23846 0.126211 -1.07189e-33)
(1.20734 0.13832 1.5313e-20)
(1.1729 0.148769 -2.54967e-20)
(1.13649 0.15611 0)
(1.09847 0.158923 4.78013e-34)
(1.05972 0.155524 -2.72863e-20)
(1.02652 0.145609 0)
(1.00313 0.132395 -3.05008e-20)
(0.987674 0.118153 -8.87084e-20)
(0.97721 0.10368 -4.14829e-20)
(0.963129 0.0892752 -1.22809e-20)
(0.906969 0.0734079 -7.23868e-21)
(0.746872 0.0526953 0)
(0.478917 0.0291978 5.05142e-21)
(0.201216 0.00998957 5.96921e-21)
(0.0221369 0.00081401 1.07774e-19)
(0.271869 0.0243766 1.47731e-19)
(1.06315 0.108862 5.06955e-22)
(1.23845 0.142749 1.39817e-20)
(1.27666 0.16035 0)
(1.25887 0.175185 -5.85753e-20)
(1.22223 0.185961 -6.38894e-20)
(1.18244 0.194362 -2.6751e-20)
(1.14033 0.199146 -8.85365e-20)
(1.09637 0.198801 0)
(1.05136 0.191511 1.16891e-19)
(1.01207 0.177517 1.1235e-19)
(0.983152 0.160747 3.26246e-20)
(0.962309 0.14371 1.15385e-19)
(0.946066 0.127197 1.58742e-19)
(0.924789 0.111431 0)
(0.861057 0.0943619 2.20575e-19)
(0.691826 0.0692853 3.15961e-19)
(0.42627 0.0397218 3.5039e-19)
(0.169844 0.0148897 -4.00736e-19)
(0.0159001 0.00139147 -7.55445e-21)
(0.271432 0.0397619 0)
(1.10696 0.164836 3.26168e-20)
(1.27166 0.202371 0)
(1.30052 0.219921 -9.5164e-20)
(1.275 0.231793 0)
(1.23324 0.239536 -1.33249e-19)
(1.18821 0.244607 5.63776e-20)
(1.14061 0.245847 -1.85338e-19)
(1.09092 0.24168 -1.57307e-21)
(1.03989 0.230266 6.17701e-20)
(0.994847 0.212372 2.43866e-19)
(0.960935 0.192629 -3.11696e-22)
(0.935608 0.173643 -8.3165e-20)
(0.915218 0.156071 -1.47994e-19)
(0.890209 0.139589 1.7406e-19)
(0.826126 0.120613 -3.07265e-19)
(0.661346 0.0905273 -4.03463e-20)
(0.410441 0.0546754 0)
(0.170901 0.0224799 2.9475e-23)
(0.0175911 0.00247167 0)
(0.264456 0.0532926 5.9849e-19)
(1.1299 0.223954 -2.66093e-19)
(1.29275 0.266848 -1.70555e-19)
(1.31622 0.284018 4.94907e-20)
(1.2853 0.292428 -8.07109e-20)
(1.23945 0.296467 2.83519e-19)
(1.18997 0.297657 1.1975e-19)
(1.13753 0.294898 0)
(1.08273 0.286601 -3.26564e-19)
(1.02627 0.270956 0)
(0.976063 0.249403 -1.29549e-19)
(0.937876 0.227075 -1.53042e-19)
(0.909076 0.206485 -8.99066e-20)
(0.885912 0.18802 -1.06668e-19)
(0.859127 0.17068 0)
(0.79717 0.150178 0)
(0.645543 0.116489 -2.62478e-19)
(0.413854 0.0746129 5.16147e-20)
(0.183999 0.033345 -3.04877e-20)
(0.022557 0.00436351 -3.56411e-20)
(0.256952 0.0653964 -3.65133e-19)
(1.13935 0.282841 0)
(1.30463 0.33223 4.12984e-19)
(1.32462 0.349263 1.54471e-19)
(1.28983 0.354287 1.75935e-19)
(1.2408 0.354575 0)
(1.18773 0.351836 1.24456e-19)
(1.13128 0.34502 2.09886e-19)
(1.07207 0.332586 1.71842e-19)
(1.01089 0.312757 2.86892e-19)
(0.956305 0.28765 0)
(0.914583 0.2629 -3.29012e-19)
(0.883069 0.240787 -1.93454e-19)
(0.857834 0.221459 -1.13186e-19)
(0.830262 0.203479 6.77931e-19)
(0.772134 0.181702 8.03552e-20)
(0.634836 0.145083 3.77851e-19)
(0.421604 0.0968869 -1.78448e-18)
(0.19848 0.0462317 1.05941e-18)
(0.0277348 0.00680159 -1.2769e-18)
(0.250135 0.0763877 -3.32427e-19)
(1.14034 0.339625 7.09714e-20)
(1.30951 0.396722 -6.04767e-20)
(1.32718 0.413862 -2.07389e-19)
(1.28949 0.41571 -1.78436e-19)
(1.23796 0.412395 1.72107e-21)
(1.18195 0.405903 -1.33726e-19)
(1.12215 0.395193 2.21926e-19)
(1.05923 0.378749 -3.68651e-19)
(0.994005 0.354865 0)
(0.935735 0.326255 -1.52005e-19)
(0.891217 0.299099 -1.57872e-21)
(0.857606 0.275484 -2.09205e-19)
(0.830901 0.255238 0)
(0.803079 0.236676 -1.45903e-19)
(0.748703 0.213826 -3.45298e-19)
(0.624439 0.174686 9.20573e-19)
(0.426842 0.120092 -9.0588e-19)
(0.209381 0.0597113 1.28699e-18)
(0.031932 0.00943257 -1.33725e-18)
(0.244615 0.086632 -4.08892e-22)
(1.1361 0.393709 -7.16914e-20)
(1.30953 0.459818 -2.48571e-19)
(1.32518 0.47677 1.06593e-19)
(1.28529 0.475726 -9.42246e-20)
(1.23172 0.469067 0)
(1.1733 0.45907 -1.37003e-19)
(1.11069 0.444695 -2.35581e-19)
(1.04456 0.424446 -1.94998e-19)
(0.975868 0.396637 0)
(0.91445 0.364565 -1.60275e-19)
(0.86768 0.334892 -1.8972e-19)
(0.832552 0.309666 2.25171e-19)
(0.804933 0.288431 -1.33621e-19)
(0.777243 0.269156 -6.29886e-19)
(0.726276 0.245137 3.73581e-19)
(0.612291 0.203874 1.11383e-19)
(0.426507 0.142657 0)
(0.213944 0.0722751 -1.23134e-18)
(0.0342675 0.0117959 -4.51099e-20)
(0.240388 0.0964363 -4.44327e-20)
(1.12878 0.444961 7.40044e-20)
(1.30569 0.520321 1.31626e-19)
(1.31971 0.537324 3.46489e-19)
(1.27809 0.533745 -3.91858e-19)
(1.22288 0.524061 3.40532e-19)
(1.16244 0.510836 2.93547e-19)
(1.09741 0.493061 -3.77337e-19)
(1.02849 0.469236 1.10448e-19)
(0.956724 0.437646 -7.03428e-19)
(0.892565 0.402104 -1.75833e-19)
(0.843912 0.369802 0)
(0.807701 0.342694 2.42246e-19)
(0.779572 0.320213 2.85315e-19)
(0.752308 0.299974 3.37465e-19)
(0.704228 0.274765 -4.02015e-19)
(0.597743 0.230768 -1.18723e-19)
(0.420526 0.162491 1.39891e-19)
(0.212728 0.0825267 0)
(0.0347054 0.0135546 -9.69639e-20)
(0.237294 0.10594 4.52662e-19)
(1.11987 0.493484 -3.05292e-19)
(1.29911 0.578006 -1.38991e-19)
(1.31169 0.595214 2.41718e-19)
(1.26863 0.589403 -2.03554e-19)
(1.21206 0.577012 -3.98218e-21)
(1.14993 0.560878 -3.15815e-19)
(1.08281 0.539994 -1.35185e-19)
(1.01141 0.512838 -3.36069e-19)
(0.936832 0.477633 2.21234e-22)
(0.870196 0.438615 -5.57284e-19)
(0.819909 0.403498 4.44451e-19)
(0.782838 0.374284 -2.62133e-19)
(0.754482 0.350229 3.09339e-19)
(0.727719 0.328671 0)
(0.68194 0.301737 -2.15986e-19)
(0.580809 0.25448 -9.3213e-22)
(0.409663 0.179012 -6.02564e-19)
(0.207114 0.0901794 -8.88279e-20)
(0.0337773 0.0146574 0)
(0.235171 0.115249 0)
(1.1102 0.539473 -3.23047e-19)
(1.29062 0.632775 -2.86035e-19)
(1.30182 0.650322 -2.53718e-19)
(1.25753 0.642532 -2.23808e-19)
(1.19984 0.627729 0)
(1.13625 0.608985 -1.61104e-19)
(1.0673 0.585294 -1.17587e-21)
(0.993638 0.555087 7.18809e-19)
(0.916456 0.516463 -9.87523e-20)
(0.847445 0.473975 -3.99495e-19)
(0.795665 0.435891 2.34476e-19)
(0.757852 0.404263 -2.00594e-21)
(0.72935 0.378332 3.29629e-19)
(0.703052 0.355163 1.9807e-19)
(0.658931 0.326056 -4.64296e-19)
(0.561454 0.274724 5.49369e-19)
(0.39463 0.19213 1.62113e-19)
(0.197602 0.0952058 6.68344e-19)
(0.0315948 0.0150413 -1.79073e-18)
(0.233942 0.124484 9.57936e-20)
(1.10035 0.583129 -1.64753e-19)
(1.28096 0.684658 1.40795e-19)
(1.29062 0.702618 2.63156e-19)
(1.24529 0.693041 0)
(1.18665 0.676103 -1.95318e-19)
(1.12182 0.655045 5.22919e-19)
(1.05123 0.628846 3.04115e-19)
(0.975493 0.595875 0)
(0.895805 0.554063 -1.39236e-18)
(0.82446 0.508165 1.07236e-18)
(0.771129 0.466966 0)
(0.732568 0.432696 3.02411e-19)
(0.703938 0.404583 -1.99424e-21)
(0.678026 0.379433 -6.33217e-19)
(0.635005 0.347707 2.4784e-19)
(0.539806 0.291593 0)
(0.376267 0.201626 8.71074e-19)
(0.185145 0.0977504 0)
(0.02864 0.0148637 -8.42276e-19)
(0.233406 0.133703 -9.90651e-20)
(1.09074 0.624589 -1.68363e-19)
(1.27037 0.733714 1.52203e-19)
(1.27854 0.752084 0)
(1.23232 0.740919 -2.43353e-19)
(1.17288 0.722097 0)
(1.10697 0.698994 -5.4684e-19)
(1.0349 0.670582 -1.55127e-19)
(0.957227 0.635151 1.32813e-19)
(0.875093 0.590415 -6.87541e-19)
(0.801317 0.541218 1.12785e-19)
(0.746295 0.496803 0)
(0.70688 0.459643 -6.46018e-19)
(0.678084 0.429047 2.04541e-21)
(0.652418 0.401607 0)
(0.609942 0.366768 2.30754e-21)
(0.515832 0.305108 7.91973e-19)
(0.354836 0.207471 -7.49418e-19)
(0.170432 0.0978316 2.20944e-19)
(0.0251571 0.0141115 0)
(0.233244 0.142749 0)
(1.08157 0.663944 -1.73963e-19)
(1.25924 0.780087 -1.53375e-19)
(1.26595 0.79877 -2.27487e-21)
(1.21895 0.786193 -1.23185e-19)
(1.15882 0.765713 -4.43939e-19)
(1.09197 0.74082 1.97312e-19)
(1.01857 0.710476 -1.71114e-19)
(0.939069 0.672888 5.76733e-19)
(0.854489 0.625535 -1.09937e-18)
(0.77813 0.57321 -3.31449e-21)
(0.721228 0.525526 -2.91622e-19)
(0.680789 0.485266 1.04154e-18)
(0.651687 0.451914 -2.41168e-21)
(0.626125 0.421831 -4.8683e-19)
(0.583633 0.3833 -8.64871e-19)
(0.489632 0.315347 0)
(0.330841 0.209879 0)
(0.153939 0.0954923 2.37875e-19)
(0.0213735 0.0128361 -1.39158e-19)
(0.233609 0.151777 -1.05171e-19)
(1.07282 0.701049 3.65083e-19)
(1.24788 0.823844 1.63482e-19)
(1.25311 0.842756 0)
(1.20542 0.828917 -1.54756e-21)
(1.14472 0.806982 -4.6094e-19)
(1.07706 0.780532 5.13047e-19)
(1.00246 0.748525 7.11742e-19)
(0.921213 0.70909 7.61959e-19)
(0.834184 0.659456 -9.0645e-19)
(0.755096 0.60425 -9.16889e-19)
(0.696009 0.553313 7.79372e-19)
(0.654245 0.509745 0)
(0.624674 0.473305 -2.21871e-19)
(0.599062 0.4402 -5.24071e-19)
(0.556056 0.397343 -6.19034e-19)
(0.461108 0.322172 -7.33332e-19)
(0.304587 0.208812 2.16705e-19)
(0.135932 0.0907255 -1.27651e-19)
(0.0172868 0.011066 3.32336e-22)
(0.234021 0.160665 0)
(1.06467 0.736396 0)
(1.23644 0.86507 2.57666e-21)
(1.24022 0.88414 0)
(1.19193 0.869174 4.069e-19)
(1.13076 0.845958 3.59444e-19)
(1.0624 0.81816 0)
(0.986718 0.784744 9.15908e-20)
(0.903837 0.743766 1.2898e-18)
(0.814381 0.692216 -2.07835e-18)
(0.732369 0.634441 0)
(0.670721 0.580349 -5.00093e-19)
(0.627252 0.533277 -2.94866e-21)
(0.596958 0.4934 -2.41531e-21)
(0.571125 0.456777 5.59989e-19)
(0.527164 0.408792 -4.18129e-22)
(0.430581 0.32552 -1.57449e-18)
(0.276138 0.204096 4.65347e-19)
(0.117014 0.0837864 1.37467e-19)
(0.0131789 0.00896645 0)
(0.234436 0.169353 3.34337e-19)
(1.05686 0.770028 1.95872e-19)
(1.22504 0.903843 3.48121e-19)
(1.22744 0.92302 -6.33385e-19)
(1.17865 0.907032 7.08683e-19)
(1.11709 0.882703 0)
(1.04814 0.853749 3.40146e-19)
(0.971498 0.819158 -1.98061e-19)
(0.887089 0.776937 3.81634e-21)
(0.795233 0.723848 1.50053e-19)
(0.710092 0.663871 1.19035e-18)
(0.645495 0.606817 -1.76729e-19)
(0.599845 0.556139 -6.38464e-19)
(0.568426 0.512402 -2.56192e-19)
(0.542145 0.471542 3.02506e-19)
(0.496902 0.417416 -2.77485e-22)
(0.398395 0.325122 4.23333e-19)
(0.246307 0.19583 -9.9891e-19)
(0.0978865 0.0750528 1.18071e-18)
(0.00920742 0.00665617 1.72217e-19)
(0.234685 0.177719 -1.15004e-19)
(1.04939 0.802021 1.02081e-19)
(1.2138 0.94029 6.07882e-21)
(1.21487 0.959515 -3.26327e-19)
(1.16566 0.942594 -1.4473e-19)
(1.10381 0.917286 -6.74456e-19)
(1.03439 0.887347 1.15828e-19)
(0.956902 0.851791 -8.3965e-19)
(0.87108 0.808602 -1.45146e-18)
(0.776863 0.754355 -1.25217e-18)
(0.688452 0.69262 0)
(0.620498 0.632898 -7.64249e-19)
(0.572081 0.578621 9.14174e-19)
(0.538926 0.530566 0)
(0.51182 0.484429 -6.47001e-19)
(0.465141 0.422731 3.84496e-19)
(0.364864 0.320468 -4.53913e-19)
(0.216206 0.184126 -5.36653e-19)
(0.0794988 0.0650539 -9.49674e-19)
(0.00561283 0.00432529 -7.40316e-19)
(0.235226 0.185898 1.18066e-19)
(1.04212 0.83235 -1.08953e-19)
(1.20279 0.974486 -2.75623e-19)
(1.20261 0.99371 -4.26668e-19)
(1.15308 0.975948 3.12375e-19)
(1.09101 0.949789 -4.21771e-19)
(1.02122 0.919006 3.7401e-19)
(0.943002 0.882685 -8.85956e-19)
(0.855881 0.838784 -8.66786e-19)
(0.759396 0.783751 1.32408e-18)
(0.667615 0.720739 2.61942e-18)
(0.595911 0.658749 0)
(0.544077 0.601033 0)
(0.508281 0.548275 -2.93877e-19)
(0.479601 0.49544 0)
(0.431407 0.423943 8.25881e-19)
(0.330433 0.310493 9.75213e-19)
(0.187414 0.168756 0)
(0.06323 0.0543559 0)
(0.00261934 0.00220641 7.94489e-19)
(0.235381 0.193588 -1.21145e-19)
(1.03509 0.861014 -1.01953e-19)
(1.19204 1.00655 -1.94183e-19)
(1.1907 1.02573 3.52683e-19)
(1.14094 1.00719 3.26318e-19)
(1.07873 0.980284 5.13317e-19)
(1.00867 0.948787 -5.28058e-19)
(0.92985 0.911868 2.05648e-22)
(0.841565 0.86749 -4.92412e-21)
(0.742924 0.812028 -5.71583e-21)
(0.647743 0.748246 1.35051e-18)
(0.571952 0.684475 0)
(0.516034 0.62368 9.17356e-19)
(0.476385 0.566049 6.26471e-19)
(0.444681 0.504897 1.49614e-18)
(0.394525 0.420189 4.42909e-19)
(0.295223 0.292989 -5.2481e-19)
(0.162898 0.147804 -3.08665e-19)
(0.0534444 0.0428029 0)
(0.00161103 0.000920679 8.52458e-19)
(0.235812 0.201248 2.46493e-19)
(1.02826 0.888113 0)
(1.18158 1.03654 -1.97779e-19)
(1.17919 1.05566 2.77129e-19)
(1.12929 1.03642 -3.36986e-19)
(1.067 1.00886 -6.87251e-19)
(0.996785 0.976746 1.10547e-18)
(0.917472 0.939379 -6.62426e-20)
(0.828164 0.894732 0)
(0.727515 0.839155 -1.48713e-18)
(0.628984 0.775123 -2.95587e-18)
(0.548854 0.710147 1.14207e-19)
(0.488275 0.646797 1.25894e-18)
(0.443328 0.584535 0)
(0.406177 0.513678 1.00359e-18)
(0.352169 0.411418 0)
(0.256532 0.264549 0)
(0.14492 0.111552 -3.33119e-19)
(0.0680971 0.0190943 0)
(0.025956 0.0105125 2.28301e-19)
(0.235849 0.208274 2.53157e-19)
(1.0216 0.913982 0)
(1.1714 1.06467 -3.03336e-19)
(1.16803 1.08371 0)
(1.11809 1.06388 1.70289e-19)
(1.05577 1.03578 0)
(0.985495 1.00319 6.75597e-20)
(0.905773 0.965554 1.25887e-19)
(0.815561 0.920873 1.09434e-19)
(0.713021 0.865521 -1.64869e-18)
(0.611205 0.801801 9.14631e-20)
(0.526485 0.736334 9.05132e-19)
(0.460605 0.67098 1.22582e-18)
(0.408655 0.604757 1.61662e-19)
(0.362536 0.523611 7.80929e-19)
(0.300229 0.39985 0)
(0.202606 0.225432 1.09883e-18)
(0.104158 0.0495227 -6.44017e-19)
(0.0463579 0.0460531 7.50585e-19)
(-0.0680068 0.418835 -8.88727e-19)
(0.235855 0.215058 -1.96858e-19)
(1.01489 0.938437 -3.40033e-19)
(1.16142 1.09124 0)
(1.15711 1.11033 5.09426e-21)
(1.10718 1.09014 -4.36609e-19)
(1.0448 1.06174 1.19448e-18)
(0.974508 1.02891 4.29482e-19)
(0.89437 0.991324 0)
(0.803257 0.946992 7.65451e-19)
(0.698814 0.89242 -9.05494e-20)
(0.593552 0.829738 0)
(0.503773 0.764807 0)
(0.431711 0.698015 1.09569e-18)
(0.371071 0.628565 -4.93617e-19)
(0.311145 0.538028 -7.8569e-19)
(0.234127 0.391478 0)
(0.116387 0.207415 5.50649e-19)
(0.0109181 0.429293 -6.39781e-19)
(0.0397949 1.8492 -3.62498e-19)
(0.070492 2.78964 -4.55981e-19)
(0.235713 0.220984 1.31907e-19)
(1.00834 0.961635 4.0716e-19)
(1.15163 1.11625 -1.6329e-19)
(1.14641 1.13536 -1.97598e-19)
(1.09659 1.11497 0)
(1.03412 1.08643 8.192e-19)
(0.964003 1.05359 6.53695e-19)
(0.883435 1.01626 -6.5321e-20)
(0.791502 0.972575 1.12754e-19)
(0.685254 0.919233 1.60035e-18)
(0.576606 0.85824 1.51933e-18)
(0.481691 0.795083 1.02251e-18)
(0.402715 0.727539 1.09967e-18)
(0.332773 0.654412 -1.15249e-18)
(0.257974 0.559796 -1.18018e-18)
(0.15671 0.417507 0)
(0.0582391 0.816414 0)
(0.114772 2.52173 3.12098e-19)
(0.116501 3.1839 0)
(0.119346 3.38145 7.74509e-19)
(0.238064 0.226426 0)
(1.00251 0.983728 0)
(1.14184 1.13957 0)
(1.1357 1.15857 -4.88241e-20)
(1.08602 1.13815 -3.78572e-19)
(1.02352 1.10972 5.83634e-19)
(0.953874 1.07713 4.46306e-19)
(0.872922 1.04026 -6.63502e-20)
(0.78026 0.99749 1.00681e-18)
(0.67237 0.945823 -1.00401e-20)
(0.560513 0.887192 3.03889e-18)
(0.460601 0.826958 -1.15944e-19)
(0.374135 0.760358 1.35247e-19)
(0.295972 0.679221 1.65061e-19)
(0.199174 0.589198 -1.417e-22)
(0.120372 0.945249 1.79924e-21)
(0.158163 2.66836 -1.59977e-18)
(0.171533 3.28128 -6.1556e-19)
(0.157357 3.42511 3.35682e-19)
(0.141509 3.4492 -3.82738e-19)
(0.155579 0.18293 -6.54131e-20)
(0.99106 1.00758 0)
(1.13179 1.16139 2.8142e-19)
(1.12564 1.18049 4.67243e-19)
(1.07623 1.16045 -7.14124e-19)
(1.0139 1.13226 -6.04283e-19)
(0.94402 1.09963 -4.94902e-19)
(0.862928 1.06344 8.56047e-19)
(0.769721 1.02185 -8.52253e-19)
(0.660499 0.972249 0)
(0.545764 0.916634 1.52153e-18)
(0.44116 0.860112 -8.45334e-19)
(0.346788 0.79896 0)
(0.26169 0.706576 1.56159e-19)
(0.173592 0.820015 3.67863e-19)
(0.173676 2.41006 -4.41067e-19)
(0.241032 3.317 5.01568e-19)
(0.217532 3.44254 2.82805e-19)
(0.18069 3.46564 3.25364e-19)
(0.15624 3.47659 5.49043e-19)
(0.280706 0.264247 1.31524e-19)
(0.975506 1.01663 0)
(1.11349 1.18581 -2.65484e-19)
(1.11136 1.21267 -4.44359e-19)
(1.06039 1.19318 6.82349e-19)
(0.997607 1.16549 5.74363e-19)
(0.926944 1.13426 6.50657e-19)
(0.845316 1.09922 6.53426e-20)
(0.750955 1.05971 8.71549e-19)
(0.639327 1.01385 1.48499e-18)
(0.520094 0.964416 9.06515e-20)
(0.408186 0.915532 7.71445e-19)
(0.298623 0.865452 1.30744e-19)
(0.22935 0.976732 -1.56698e-19)
(0.248319 2.25653 -3.60196e-19)
(0.316078 3.32073 3.75797e-19)
(0.301286 3.47742 -4.33147e-19)
(0.262765 3.50054 -2.5406e-19)
(0.223052 3.52884 -2.52522e-19)
(0.16786 3.52155 -2.86526e-20)
(0.268237 0.260746 0)
(0.972848 1.03862 -5.13636e-20)
(1.10559 1.2087 4.68407e-20)
(1.10165 1.23553 4.38841e-20)
(1.05052 1.21597 4.2332e-19)
(0.987826 1.18849 -5.45821e-19)
(0.916866 1.15742 -4.10395e-19)
(0.835183 1.12315 6.2286e-20)
(0.740565 1.08509 -9.41742e-19)
(0.628137 1.04197 -1.43316e-20)
(0.507017 0.997205 -2.87164e-18)
(0.392118 0.954509 1.09196e-19)
(0.285959 0.930593 -1.2635e-19)
(0.269992 1.43805 -1.50304e-19)
(0.352629 3.05655 1.80024e-20)
(0.38103 3.47294 9.32135e-22)
(0.337203 3.53805 7.51185e-19)
(0.29782 3.56262 4.10408e-19)
(0.246215 3.58693 -1.84436e-19)
(0.182748 3.58234 -1.73842e-19)
(0.251507 0.258729 -1.08263e-19)
(0.968503 1.06316 -3.27405e-19)
(1.09716 1.2336 1.31873e-19)
(1.0914 1.25981 1.67479e-19)
(1.04016 1.24005 0)
(0.977626 1.21259 -7.15591e-19)
(0.906669 1.18174 -5.78981e-19)
(0.825215 1.14821 5.91122e-20)
(0.730667 1.11165 -1.02675e-19)
(0.617954 1.07144 -1.44953e-18)
(0.495733 1.03161 -1.3751e-18)
(0.379695 0.996049 -9.37878e-19)
(0.289634 1.05098 -9.73211e-19)
(0.340753 2.09082 9.9308e-19)
(0.443328 3.36867 8.95592e-19)
(0.428945 3.53787 0)
(0.378439 3.585 0)
(0.339934 3.62852 -1.57237e-19)
(0.281076 3.69337 0)
(0.195108 3.66493 -2.69073e-19)
(0.24022 0.26 1.38415e-19)
(0.962175 1.08868 2.4805e-19)
(1.08731 1.25962 0)
(1.07987 1.28489 6.00742e-21)
(1.02862 1.26471 3.61559e-19)
(0.966352 1.23713 -1.00386e-18)
(0.895732 1.20652 -3.62922e-19)
(0.814717 1.17362 5.27095e-20)
(0.720486 1.13846 -7.5771e-19)
(0.60789 1.1011 7.98084e-20)
(0.485372 1.06631 0)
(0.370506 1.04028 0)