/*--------------------------------*- C++ -*----------------------------------*\
| =========                 |                                                 |
| \\      /  F ield         | OpenFOAM: The Open Source CFD Toolbox           |
|  \\    /   O peration     | Version:  2112                                  |
|   \\  /    A nd           | Website:  www.openfoam.com                      |
|    \\/     M anipulation  |                                                 |
\*---------------------------------------------------------------------------*/
FoamFile
{
    version     2.0;
    format      ascii;
    arch        "LSB;label=32;scalar=64";
    class       volScalarField;
    location    "0.1";
    object      p;
}
// * * * * * * * * * * * * * * * * * * * * * * * * * * * * * * * * * * * * * //

dimensions      [1 -1 -2 0 0 0 0];

internalField   nonuniform List<scalar> 
1000
(
1
1
1
1
1
1
1
1
1
1
1
1
1
1
1
1
1
1
1
1
1
1
1
1
1
1
1
1
1
1
1
1
1
1
1
1
1
1
1
1
1
1
1
1
1
1
1
1
1
1
1
1
1
1
1
1
1
1
1
1
1
1
1
1
1
1
1
1
1
1
1
1
1
1
1
1
1
1
1
1
1
1
1
1
1
1
1
1
1
1
1
1
1
1
1
1
1
1
1
1
1
1
1
1
1
1
1
1
1
1
1
1
1
1
1
1
1
1
1
1
1
1
1
1
1
1
1
1
1
1
1
1
1
1
1
1
1
1
1
1
1
1
1
1
1
1
1
1
1
1
1
1
1
1
1
1
1
1
1
1
1
1
1
1
1
1
1
1
1
1
1
1
1
1
1
1
1
1
1
1
1
1
1
1
1
1
1
1
1
1
1
1
1
1
1
1
1
1
1
1
1
1
1
1
1
1
1
1
1
1
1
1
1
1
1
1
1
1
1
1
1
1
1
1
1
1
1
1
1
1
1
1
1
1
1
1
1
1
1
1
1
1
1
1
1
1
1
1
1
1
1
1
1
1
1
1
1
1
1
1
1
1
1
1
1
1
1
1
1
1
1
1
1
1
1
1
1
1
1
1
1
1
1
1
1
1
1
1
1
1
1
1
1
1
1
1
1
1
1
1
1
1
1
1
0.99999999
0.99999999
0.99999999
0.99999998
0.99999998
0.99999997
0.99999996
0.99999994
0.99999992
0.99999989
0.99999986
0.9999998
0.99999973
0.99999964
0.99999951
0.99999934
0.99999912
0.99999882
0.99999843
0.99999791
0.99999723
0.99999634
0.99999518
0.99999366
0.9999917
0.99998918
0.99998592
0.99998175
0.99997642
0.99996964
0.99996105
0.9999502
0.99993655
0.99991944
0.99989809
0.99987155
0.99983869
0.99979817
0.99974843
0.99968761
0.99961357
0.99952382
0.99941551
0.99928538
0.99912974
0.99894443
0.9987248
0.99846569
0.99816145
0.99780587
0.99739227
0.99691346
0.99636178
0.9957292
0.99500731
0.99418742
0.99326067
0.99221809
0.99105073
0.98974974
0.98830653
0.98671285
0.98496091
0.98304352
0.98095414
0.97868701
0.97623719
0.97360065
0.97077431
0.96775603
0.96454467
0.96114005
0.95754293
0.95375499
0.94977875
0.94561755
0.94127546
0.93675719
0.93206804
0.92721384
0.92220079
0.91703549
0.91172478
0.90627572
0.90069548
0.89499134
0.88917057
0.88324046
0.87720819
0.87108085
0.86486541
0.85856867
0.85219724
0.84575757
0.83925586
0.83269812
0.82609013
0.81943744
0.81274537
0.80601904
0.79926332
0.79248287
0.78568212
0.77886533
0.7720365
0.76519947
0.75835788
0.75151518
0.74467465
0.73783939
0.73101232
0.72419624
0.71739377
0.71060738
0.70383943
0.69709212
0.69036753
0.68366762
0.67699425
0.67034914
0.66373394
0.65715018
0.6505993
0.64408265
0.6376015
0.63115704
0.62475037
0.61838254
0.61205451
0.60576718
0.59952139
0.59331792
0.58715746
0.58104066
0.57496811
0.56894032
0.56295771
0.55702066
0.55112944
0.54528416
0.53948497
0.53373152
0.52802394
0.52236104
0.51674284
0.51116722
0.50563297
0.50013269
0.49472051
0.48943849
0.48404568
0.47892965
0.47375736
0.46860357
0.46364107
0.4586945
0.45362982
0.4488323
0.44391019
0.43922777
0.43442671
0.4297598
0.4250375
0.42038119
0.4157785
0.41124065
0.40676708
0.40236979
0.39804816
0.39379451
0.38960463
0.38547895
0.38141913
0.37742636
0.37350173
0.36964689
0.3658641
0.36215596
0.35852522
0.35497483
0.35150806
0.34812854
0.34484028
0.34164758
0.33855502
0.33556744
0.33268994
0.32992783
0.3272866
0.32477178
0.32238884
0.32014305
0.31803928
0.31608177
0.31427399
0.31261828
0.31111573
0.30976587
0.30856656
0.30751381
0.30660177
0.3058228
0.30516762
0.30462557
0.30418499
0.30383363
0.3035591
0.30334935
0.30319302
0.30307986
0.30300107
0.30294903
0.30291365
0.30289855
0.30288891
0.30288885
0.30289942
0.30290569
0.30292512
0.3029492
0.30297479
0.30300019
0.30302481
0.30304829
0.30307037
0.30309083
0.30310954
0.30312646
0.30314166
0.30315525
0.30316743
0.30317837
0.30318827
0.30319729
0.30320558
0.30321326
0.30322042
0.30322713
0.30323344
0.30323941
0.30324505
0.30325039
0.30325545
0.30326025
0.30326481
0.30326914
0.30327327
0.30327721
0.30328097
0.30328458
0.30328804
0.30329136
0.30329454
0.30329757
0.30330045
0.30330317
0.30330571
0.30330809
0.30331027
0.30331222
0.30331396
0.30331535
0.30331643
0.30331663
0.30331613
0.30331532
0.30331371
0.30331121
0.30330785
0.30330371
0.30329888
0.30329347
0.30328764
0.30328156
0.30327544
0.30326944
0.30326388
0.30325898
0.30325487
0.30325173
0.30325053
0.30325015
0.30325119
0.30325373
0.30325797
0.30326387
0.30327133
0.30328018
0.30329018
0.30330097
0.30331227
0.30332363
0.30333466
0.30334499
0.30335419
0.30336202
0.30336831
0.30337301
0.30337608
0.30337702
0.30337674
0.30337535
0.30337293
0.30336967
0.30336584
0.30336164
0.30335726
0.30335286
0.30334856
0.30334443
0.30334043
0.30333662
0.30333304
0.3033296
0.30332633
0.30332413
0.30332132
0.30331884
0.30331647
0.30331356
0.30331204
0.30330876
0.30330702
0.30330497
0.30330216
0.30329938
0.30329649
0.30329342
0.30329009
0.30328643
0.30328235
0.30327774
0.30327249
0.30326642
0.30325933
0.30325097
0.30324099
0.30322899
0.30321441
0.30319657
0.3031746
0.30314739
0.30311351
0.30307119
0.30301814
0.30295149
0.30286758
0.3027618
0.30262832
0.30245978
0.3022469
0.30197796
0.30163824
0.30120924
0.30066772
0.29998459
0.29912347
0.29803904
0.29667502
0.29496179
0.29281383
0.29012676
0.28677455
0.28260706
0.27744871
0.27109969
0.2633416
0.25395088
0.24272477
0.22952627
0.21435535
0.19745122
0.17941353
0.16127732
0.14440003
0.13007928
0.11908516
0.11143633
0.10655749
0.10364898
0.10199365
0.10107802
0.10057969
0.10031082
0.10016642
0.10008904
0.10004762
0.10002547
0.10001362
0.10000728
0.10000389
0.10000208
0.10000111
0.1000006
0.10000032
0.10000017
0.10000009
0.10000005
0.10000003
0.10000001
0.10000001
0.1
0.1
0.1
0.1
0.1
0.1
0.1
0.1
0.1
0.1
0.1
0.1
0.1
0.1
0.1
0.1
0.1
0.1
0.1
0.1
0.1
0.1
0.1
0.1
0.1
0.1
0.1
0.1
0.1
0.1
0.1
0.1
0.1
0.1
0.1
0.1
0.1
0.1
0.1
0.1
0.1
0.1
0.1
0.1
0.1
0.1
0.1
0.1
0.1
0.1
0.1
0.1
0.1
0.1
0.1
0.1
0.1
0.1
0.1
0.1
0.1
0.1
0.1
0.1
0.1
0.1
0.1
0.1
0.1
0.1
0.1
0.1
0.1
0.1
0.1
0.1
0.1
0.1
0.1
0.1
0.1
0.1
0.1
0.1
0.1
0.1
0.1
0.1
0.1
0.1
0.1
0.1
0.1
0.1
0.1
0.1
0.1
0.1
0.1
0.1
0.1
0.1
0.1
0.1
0.1
0.1
0.1
0.1
0.1
0.1
0.1
0.1
0.1
0.1
0.1
0.1
0.1
0.1
0.1
0.1
0.1
0.1
0.1
0.1
0.1
0.1
0.1
0.1
0.1
0.1
0.1
0.1
0.1
0.1
0.1
0.1
0.1
0.1
0.1
0.1
0.1
0.1
0.1
0.1
0.1
0.1
0.1
0.1
0.1
0.1
0.1
0.1
0.1
0.1
0.1
0.1
0.1
0.1
0.1
0.1
0.1
0.1
0.1
0.1
0.1
0.1
0.1
0.1
0.1
0.1
0.1
0.1
0.1
0.1
0.1
0.1
0.1
0.1
0.1
0.1
0.1
0.1
0.1
0.1
0.1
0.1
0.1
0.1
0.1
0.1
0.1
0.1
0.1
0.1
0.1
0.1
0.1
0.1
0.1
0.1
0.1
0.1
0.1
0.1
0.1
0.1
0.1
0.1
0.1
0.1
0.1
0.1
0.1
0.1
0.1
0.1
0.1
0.1
0.1
0.1
0.1
0.1
0.1
0.1
0.1
0.1
0.1
0.1
0.1
0.1
0.1
0.1
0.1
0.1
0.1
0.1
0.1
0.1
0.1
0.1
0.1
0.1
0.1
0.1
0.1
0.1
0.1
0.1
0.1
0.1
0.1
0.1
0.1
0.1
0.1
0.1
0.1
0.1
0.1
0.1
0.1
0.1
0.1
0.1
0.1
0.1
0.1
0.1
0.1
0.1
0.1
0.1
0.1
0.1
0.1
0.1
0.1
0.1
0.1
0.1
0.1
0.1
0.1
0.1
0.1
0.1
0.1
0.1
0.1
0.1
0.1
0.1
0.1
0.1
0.1
)
;

boundaryField
{
    sides
    {
        type            zeroGradient;
    }
    emptywalls
    {
        type            empty;
    }
}


// ************************************************************************* //
