/*--------------------------------*- C++ -*----------------------------------*\
| =========                 |                                                 |
| \\      /  F ield         | OpenFOAM: The Open Source CFD Toolbox           |
|  \\    /   O peration     | Version:  2112                                  |
|   \\  /    A nd           | Website:  www.openfoam.com                      |
|    \\/     M anipulation  |                                                 |
\*---------------------------------------------------------------------------*/
FoamFile
{
    version     2.0;
    format      ascii;
    arch        "LSB;label=32;scalar=64";
    class       surfaceScalarField;
    location    "0.1";
    object      phi;
}
// * * * * * * * * * * * * * * * * * * * * * * * * * * * * * * * * * * * * * //

dimensions      [1 0 -1 0 0 0 0];

oriented        oriented;

internalField   nonuniform List<scalar> 
999
(
-6.735057e-12
2.130307e-11
2.3804181e-11
2.8828162e-11
4.2132187e-11
3.7104431e-11
3.1672776e-11
2.4116265e-11
3.421019e-11
6.7407191e-12
2.7677638e-11
3.0668801e-12
3.2975511e-11
1.7929436e-11
4.3543613e-11
3.6679326e-11
3.4840575e-11
2.3881341e-11
1.3264501e-11
1.934386e-11
8.2616136e-12
-1.9584334e-12
5.7990279e-12
4.4713122e-12
6.6502359e-12
1.4140022e-11
2.5603963e-11
1.6759372e-11
2.2601587e-11
2.379319e-11
3.6994185e-11
2.3726465e-11
3.6626702e-11
2.4179658e-11
2.8923308e-11
3.8136938e-11
3.6249226e-11
2.8027358e-11
1.8797963e-11
2.6299851e-11
3.7259196e-11
3.7951531e-11
2.1610158e-11
3.1189162e-11
2.9457436e-11
2.2872815e-11
1.1720402e-11
1.0241363e-11
2.2510438e-11
2.1871394e-11
1.2162937e-11
-9.5421449e-12
1.6250779e-11
1.0774714e-11
2.6214697e-11
2.4499291e-11
3.4009462e-11
4.2116755e-11
3.5876635e-11
3.9585446e-11
3.865841e-11
6.0725536e-11
4.8094972e-11
3.4156011e-11
5.8301697e-11
5.4736216e-11
5.7950533e-11
3.7037373e-11
1.7966961e-11
3.0279335e-11
3.1135317e-11
4.2282955e-11
3.3341108e-11
3.901468e-11
4.3932635e-11
3.8716474e-11
5.0847992e-11
4.02125e-11
2.7966962e-11
2.8055114e-11
4.7649884e-11
9.8355768e-12
1.9379387e-11
2.4846014e-11
1.3748669e-11
4.4958481e-12
3.0087044e-12
4.0591974e-12
-8.512413e-12
6.1235461e-12
-1.0710099e-11
1.6479262e-11
-1.8977264e-11
-1.0536017e-11
-8.2703844e-12
-1.2911006e-11
4.1150416e-12
1.0081047e-11
9.5987662e-12
-1.031597e-11
-8.6439744e-12
-1.9684143e-11
-1.1636025e-11
-1.2182366e-11
3.0571101e-12
3.5149661e-12
-2.8344993e-11
-2.1904145e-11
-1.762912e-11
-3.7590042e-11
-2.3719915e-11
-2.7405522e-11
-1.0156098e-11
-3.3870684e-12
-3.3495429e-13
-8.293255e-12
-4.5385917e-13
-1.6593393e-12
4.3182125e-12
1.8387514e-12
-6.6217032e-12
5.6872285e-12
-3.231615e-11
-2.4096058e-11
-1.2552848e-11
-1.9817481e-11
-1.5546897e-11
-1.8889335e-11
-6.7925665e-12
-1.6593393e-11
-1.9386492e-11
-1.7804758e-11
-5.3970162e-12
-1.4385382e-11
-2.289513e-11
-1.8504198e-11
-1.4231172e-11
-2.8115399e-11
-3.579681e-11
-2.5213054e-11
-2.1409319e-11
-3.0665359e-11
-3.67536e-11
-4.7861382e-11
-4.8591131e-11
-4.1444514e-11
-5.3012261e-11
-6.0089489e-11
-4.0768722e-11
-5.3137383e-11
-2.6124658e-11
-4.2951642e-11
-4.5573434e-11
-4.7290283e-11
-2.3291147e-11
-3.4202197e-11
-2.6583402e-11
-2.4313218e-11
-2.4731217e-11
-2.9761305e-11
-2.5745406e-11
-4.963141e-12
1.3498536e-11
1.5010659e-11
2.1004753e-11
3.0531133e-12
-1.5163315e-11
1.7077451e-12
-8.0589979e-12
1.3249069e-11
-8.0959683e-12
-4.763967e-13
-1.0522472e-11
-7.6606499e-12
5.4389826e-13
1.2402857e-11
1.2012835e-11
1.9123036e-11
1.3433588e-11
3.6520786e-12
2.3173352e-11
1.1642798e-11
4.0574211e-12
4.1412429e-12
-2.4207303e-12
-2.3225866e-12
5.2940985e-12
5.6508132e-12
2.1088131e-11
9.4330099e-12
3.9268588e-12
-2.6890712e-12
1.2968626e-11
5.1098015e-12
-6.7663652e-12
-1.4860335e-12
-1.1063483e-11
-8.0171425e-12
-1.3630874e-11
-1.4456325e-11
-1.0845214e-11
1.3469004e-11
2.3226643e-11
-1.6341373e-12
1.0885515e-11
1.7711832e-11
2.2274738e-11
2.2474023e-11
3.092937e-11
3.7110759e-11
3.5829006e-11
1.2139623e-11
-7.2308826e-12
2.1773361e-11
1.5259349e-11
1.7660873e-11
2.5723423e-11
2.2572721e-11
2.0785484e-11
2.6083469e-11
5.4928284e-12
1.3824608e-11
1.9345969e-11
-6.6641137e-12
-1.1284529e-11
8.8863361e-12
-5.9532379e-12
-1.3382628e-12
-2.0116686e-11
-1.1180723e-11
-1.2893908e-11
-2.600975e-11
-1.033118e-11
-7.5259798e-12
-2.8684832e-12
-2.8498315e-12
-7.2573059e-12
-7.4169559e-12
2.9907188e-12
-2.0060509e-11
-1.4062751e-11
-5.8623106e-12
4.1638915e-12
5.9056093e-12
-2.1327384e-12
1.0436096e-14
-2.0952129e-12
6.511458e-12
-1.1649792e-11
-2.7289837e-11
-4.2329584e-11
-4.8455795e-11
-3.0448644e-11
-3.7794545e-11
-3.4236391e-11
-2.9329428e-11
-3.7460923e-11
-3.356293e-11
-3.2845837e-11
-1.5154766e-11
-2.3593572e-11
-3.9063641e-11
-4.4044657e-11
-2.6983193e-11
-2.7043257e-11
-1.313083e-11
-1.2374768e-11
-1.7858381e-11
-2.9908964e-11
-3.8191117e-11
-3.0619063e-11
-3.3626102e-11
-4.9081406e-11
-1.7818413e-11
-2.3091196e-11
-9.3711705e-12
-1.7410517e-12
-3.2587266e-12
-1.7655211e-11
-4.6012083e-12
1.4870105e-11
-2.179501e-11
-2.246936e-11
-1.7605473e-11
-5.1227911e-12
-9.2429397e-12
-1.7320145e-11
-1.4464319e-11
-1.3790302e-11
-9.0460972e-13
2.1268987e-11
5.1760707e-11
9.0452645e-11
1.2615697e-10
1.6770052e-10
2.485514e-10
3.6561498e-10
5.1559157e-10
7.4934459e-10
1.0502816e-09
1.4754261e-09
2.0823038e-09
2.9090685e-09
4.0583513e-09
5.6680344e-09
7.8984994e-09
1.0998496e-08
1.5306754e-08
2.1205783e-08
2.9320161e-08
4.0406648e-08
5.5634899e-08
7.6273494e-08
1.0430035e-07
1.422537e-07
1.9341995e-07
2.623023e-07
3.5460874e-07
4.7807949e-07
6.4261979e-07
8.6122184e-07
1.1506987e-06
1.5327647e-06
2.0354449e-06
2.694541e-06
3.555849e-06
4.6775312e-06
6.1333833e-06
8.016202e-06
1.0442624e-05
1.3558408e-05
1.7544884e-05
2.2626576e-05
2.908023e-05
3.7245291e-05
4.7536102e-05
6.0455738e-05
7.6611999e-05
9.6735265e-05
0.00012169835
0.00015253857
0.00019048168
0.00023696745
0.00029367679
0.00036255992
0.00044586498
0.0005461662
0.00066639133
0.00080984638
0.00098023751
0.0011816882
0.0014187505
0.0016964089
0.0020200761
0.0023955789
0.0028291333
0.0033273081
0.0038969777
0.0045452617
0.0052794547
0.0061069451
0.0070351252
0.0080712949
0.0092225607
0.010495732
0.01189722
0.013432938
0.015108211
0.016927692
0.018895289
0.021014112
0.023286423
0.025713612
0.028296186
0.031033767
0.033925114
0.036968153
0.04016002
0.043497115
0.046975162
0.050589278
0.054334046
0.058203586
0.062191633
0.066291609
0.070496694
0.074799899
0.07919412
0.083672203
0.088226994
0.092851386
0.097538361
0.10228102
0.10707263
0.11190662
0.11677662
0.12167648
0.12660027
0.13154229
0.1364971
0.14145947
0.14642442
0.15138721
0.15634336
0.16128858
0.16621883
0.1711303
0.17601936
0.18088263
0.18571689
0.19051915
0.19528656
0.2000165
0.20470647
0.20935418
0.21395745
0.2185143
0.22302284
0.22748136
0.23188826
0.23624205
0.24054139
0.24478502
0.24897181
0.25310072
0.25717081
0.26118122
0.26513119
0.26902003
0.27284714
0.27661198
0.28031409
0.28395309
0.28752861
0.29104046
0.29448827
0.29787222
0.30119152
0.30444752
0.30763767
0.31076643
0.31382711
0.31682948
0.31976235
0.3226364
0.32544942
0.32818618
0.33089613
0.33348308
0.33610339
0.33854955
0.3410634
0.34330213
0.34581071
0.34785319
0.35007377
0.3521535
0.35418377
0.35616795
0.35818774
0.35994957
0.36182149
0.36350392
0.36527738
0.36692342
0.36847354
0.37013718
0.37148869
0.37296927
0.3744223
0.37576365
0.37702174
0.37823444
0.37940795
0.38052822
0.38159043
0.38259858
0.38355893
0.3844743
0.38534242
0.3861637
0.38693741
0.38766598
0.38834983
0.38898892
0.38958388
0.39013355
0.39064062
0.39110453
0.39152877
0.39191317
0.39226029
0.39257077
0.39284598
0.39308796
0.39329731
0.39347728
0.39362832
0.39375416
0.39385573
0.39393637
0.39399789
0.39404273
0.39407354
0.39409181
0.39410055
0.39410067
0.39409487
0.39408395
0.39406977
0.3940532
0.39403523
0.3940166
0.3939977
0.3939787
0.39396036
0.39394159
0.39392525
0.39390598
0.39388806
0.39387067
0.39385366
0.39383633
0.39381893
0.39380081
0.39378223
0.39376285
0.39374295
0.39372227
0.39370109
0.3936791
0.39365656
0.39363313
0.39360908
0.39358411
0.39355842
0.3935318
0.39350431
0.39347587
0.39344638
0.39341586
0.39338409
0.39335111
0.39331672
0.39328088
0.39324346
0.39320435
0.39316343
0.39312065
0.39307575
0.39302878
0.39297939
0.39292765
0.39287311
0.39281588
0.39275529
0.39269143
0.39262354
0.3925514
0.39247405
0.39239084
0.39230021
0.39220026
0.39208818
0.39195953
0.39180844
0.39162616
0.39140006
0.39111303
0.39074363
0.39026544
0.38964669
0.38885098
0.38783759
0.38656349
0.38498423
0.38305713
0.38074259
0.37800755
0.37482713
0.37118705
0.36708565
0.36253437
0.35755843
0.35219566
0.34649802
0.34052687
0.33435191
0.32804816
0.32169329
0.31536481
0.30913688
0.30307832
0.29725016
0.29170441
0.28648303
0.28161747
0.27712876
0.27302798
0.26931726
0.26599054
0.26303545
0.26043373
0.25816376
0.2561999
0.25451575
0.25308393
0.25187703
0.25086873
0.25003357
0.2493481
0.24879076
0.24834178
0.24798397
0.2477017
0.24748164
0.24731254
0.24718445
0.24708937
0.24701927
0.24696971
0.24693595
0.24691382
0.24690003
0.24689315
0.2468903
0.24689129
0.24689506
0.24689993
0.2469053
0.24691069
0.24691573
0.24692015
0.24692372
0.24692624
0.24692751
0.24692733
0.24692546
0.2469216
0.24691537
0.24690631
0.2468938
0.24687706
0.24685508
0.24682658
0.2467899
0.24674297
0.24668311
0.24660692
0.24651013
0.24638728
0.24623148
0.24603404
0.24578399
0.24546746
0.24506706
0.24456085
0.24392137
0.24311417
0.24209622
0.2408139
0.23920067
0.23717427
0.23463369
0.23145579
0.22749203
0.22256569
0.21647044
0.20897187
0.19981415
0.1887355
0.1754974
0.15993409
0.14202852
0.12201692
0.10050904
0.078577811
0.057720395
0.039561215
0.025294536
0.015209475
0.0087232455
0.0048467639
0.0026423697
0.0014258052
0.00076536859
0.00040984691
0.00021923772
0.00011722887
6.2676195e-05
3.3509392e-05
1.7915957e-05
9.579078e-06
5.1216966e-06
2.7384529e-06
1.4641812e-06
7.8285266e-07
4.1855716e-07
2.2378225e-07
1.1964056e-07
6.3963771e-08
3.4191666e-08
1.827586e-08
9.7698408e-09
5.2214804e-09
2.7914746e-09
1.490287e-09
7.9732287e-10
4.2556381e-10
2.3067147e-10
1.2176331e-10
6.4180744e-11
3.0981231e-11
1.5267815e-11
8.1851054e-12
2.56134e-12
2.2132157e-12
3.8659909e-12
2.5651287e-12
3.1133013e-12
-2.8362174e-12
-2.2506164e-12
-4.5507348e-12
-2.1695423e-12
-3.3578001e-12
4.9069082e-13
1.2615603e-12
-9.4396713e-14
-1.8735152e-12
7.3469009e-14
1.1653317e-12
1.000422e-12
4.7483684e-12
5.0193183e-12
2.1268265e-12
1.5044216e-12
6.4076522e-13
1.1424611e-12
3.6554787e-12
2.3317459e-13
2.3572672e-12
3.9121206e-12
2.8394787e-12
1.6384671e-12
1.2293083e-12
4.3246379e-12
4.1802117e-12
3.2343295e-12
-1.4925561e-13
-3.0249414e-13
2.3555741e-12
3.1308983e-12
1.7438412e-12
-2.593481e-13
4.1538439e-12
1.3025414e-12
1.034145e-12
6.598333e-13
-4.1475295e-12
-7.32997e-13
-1.7529728e-12
-2.8061165e-12
-3.5037112e-12
1.0628443e-12
-1.7181673e-12
-3.0279251e-12
-1.3469642e-12
-3.2829572e-12
-5.8371363e-13
-3.2654018e-12
-3.8248293e-12
-3.4591496e-12
3.8732906e-13
-2.4481805e-13
-2.8591018e-13
-2.1766616e-12
-1.4078183e-12
-2.7223224e-12
-1.1423917e-12
1.3981177e-12
-7.6369466e-14
6.4667716e-13
-4.0752124e-13
-7.8767548e-13
-2.3640256e-12
-2.4694552e-12
-4.8474558e-12
-1.5087515e-12
-5.2649135e-12
-3.721759e-12
-2.5082159e-12
-3.5285386e-12
-2.4136249e-12
-2.0286411e-12
-2.1774388e-12
-4.9902582e-12
-1.756803e-12
-3.9535319e-12
-2.8470282e-12
-4.3118564e-12
-9.374862e-13
-1.7992136e-12
-7.5095485e-13
2.6852132e-13
-1.1303736e-12
-5.5395549e-12
-3.1716851e-12
1.5440427e-13
1.3742202e-12
1.0245693e-12
-5.2878535e-13
3.2447656e-13
3.3554826e-12
1.7858215e-12
1.4371143e-12
4.113182e-12
3.6960851e-12
1.7570806e-12
-7.0755901e-13
8.7581331e-13
-4.6936066e-13
4.2270354e-12
1.5028395e-12
1.6635165e-12
2.5675573e-12
5.4145438e-12
2.612216e-12
3.221215e-12
2.6590813e-12
2.1216223e-12
2.7009783e-12
3.3752723e-12
3.9714204e-12
5.0595916e-12
3.8401504e-12
8.5172147e-13
6.0008387e-12
4.9974747e-12
1.3611334e-12
3.9323961e-12
3.2084196e-12
3.4485748e-12
2.7325364e-13
8.166523e-13
1.4457463e-12
3.0652286e-12
1.3785084e-12
4.8538396e-12
8.2490959e-13
-9.3383634e-14
1.7662399e-12
-8.4404705e-14
2.1538743e-12
2.3559349e-12
8.6783358e-13
1.3061358e-12
1.6646823e-12
6.8267614e-13
3.8856418e-13
4.1289194e-13
4.625883e-13
5.9313665e-13
-6.5364381e-13
-2.1373597e-12
-1.2818913e-12
-6.4298566e-13
-5.0062732e-12
-4.4057813e-12
-3.4558467e-12
-1.2361223e-12
-4.3110654e-12
-2.5849461e-12
-2.4400204e-12
-4.0999149e-13
-1.0287743e-12
-4.1356224e-12
-1.7200408e-12
-2.8250458e-12
-5.5754845e-12
-5.3284183e-12
-8.0543905e-12
-8.4030144e-12
-9.7646335e-12
-9.6552211e-12
-9.1836816e-12
-8.1394613e-12
-6.88688e-12
-7.6828544e-12
-5.7002597e-12
-3.5894204e-12
-2.451539e-12
4.4129977e-13
5.3011762e-13
-1.4181711e-12
2.2196411e-12
4.6501275e-12
4.3633291e-12
5.2824412e-12
3.0236369e-12
4.119205e-12
6.2529149e-13
4.0289994e-13
1.0529078e-12
5.9914573e-13
1.3556933e-12
-3.7719133e-12
6.6766037e-13
-1.0002554e-12
1.5588364e-12
1.9956814e-12
8.277129e-13
1.4113988e-12
6.8203776e-13
-4.5614901e-13
5.2503418e-12
-1.3396229e-12
2.1811719e-12
2.8078234e-12
1.6213697e-12
6.6845141e-12
3.4861419e-12
5.9965088e-12
2.9119485e-12
5.1137011e-12
5.9656585e-12
4.8021725e-12
7.01178e-12
5.3366062e-12
5.5700028e-12
4.7212373e-12
3.5027536e-12
2.5498492e-12
1.5842744e-12
1.9876045e-12
3.8562487e-12
1.1946e-12
6.2694849e-12
5.9914712e-12
3.4463266e-12
5.9180161e-12
5.1136734e-12
3.0092318e-12
1.6976698e-12
2.6751518e-12
4.571718e-12
1.2158469e-12
1.6564528e-13
-2.8403668e-13
6.0552952e-13
1.3759827e-13
1.6701363e-12
5.1712523e-12
3.1105535e-12
5.5587895e-12
6.0324384e-12
4.7443161e-12
4.6589538e-12
4.025405e-12
3.8700015e-12
5.0317667e-12
3.1176589e-12
3.458886e-12
3.6431275e-12
2.1430496e-12
2.4547031e-12
3.3344577e-12
4.3771098e-12
2.4178992e-12
-1.4262203e-13
2.5260349e-12
-1.7344459e-13
1.4404727e-12
2.5401903e-12
2.2597341e-12
1.4117318e-12
2.4077268e-12
2.0821678e-12
-1.7806034e-12
1.3388735e-12
2.3248486e-12
1.0002832e-12
4.5016768e-12
2.7343267e-12
2.7020886e-12
3.3739678e-12
5.7627514e-12
5.3071297e-12
3.1492031e-12
1.6072699e-12
-2.0078383e-13
6.0673133e-12
1.9205471e-13
1.694575e-12
2.2505192e-12
1.2508883e-12
2.0003305e-12
1.1279311e-12
1.6077834e-12
3.28923e-12
)
;

boundaryField
{
    sides
    {
        type            calculated;
        value           nonuniform List<scalar> 2(2.946812e-21 3.1549768e-21);
    }
    emptywalls
    {
        type            empty;
        value           nonuniform List<scalar> 0();
    }
}


// ************************************************************************* //
