/*--------------------------------*- C++ -*----------------------------------*\
| =========                 |                                                 |
| \\      /  F ield         | OpenFOAM: The Open Source CFD Toolbox           |
|  \\    /   O peration     | Version:  2112                                  |
|   \\  /    A nd           | Website:  www.openfoam.com                      |
|    \\/     M anipulation  |                                                 |
\*---------------------------------------------------------------------------*/
FoamFile
{
    version     2.0;
    format      ascii;
    arch        "LSB;label=32;scalar=64";
    class       volScalarField;
    location    "0.1";
    object      T;
}
// * * * * * * * * * * * * * * * * * * * * * * * * * * * * * * * * * * * * * //

dimensions      [0 0 0 1 0 0 0];

internalField   nonuniform List<scalar> 
1000
(
0.00348
0.00348
0.00348
0.00348
0.00348
0.00348
0.00348
0.00348
0.00348
0.00348
0.00348
0.00348
0.00348
0.00348
0.00348
0.00348
0.00348
0.00348
0.00348
0.00348
0.00348
0.00348
0.00348
0.00348
0.00348
0.00348
0.00348
0.00348
0.00348
0.00348
0.00348
0.00348
0.00348
0.00348
0.00348
0.00348
0.00348
0.00348
0.00348
0.00348
0.00348
0.00348
0.00348
0.00348
0.00348
0.00348
0.00348
0.00348
0.00348
0.00348
0.00348
0.00348
0.00348
0.00348
0.00348
0.00348
0.00348
0.00348
0.00348
0.00348
0.00348
0.00348
0.00348
0.00348
0.00348
0.00348
0.00348
0.00348
0.00348
0.00348
0.00348
0.00348
0.00348
0.00348
0.00348
0.00348
0.00348
0.00348
0.00348
0.00348
0.00348
0.00348
0.00348
0.00348
0.00348
0.00348
0.00348
0.00348
0.00348
0.00348
0.00348
0.00348
0.00348
0.00348
0.00348
0.00348
0.00348
0.00348
0.00348
0.00348
0.00348
0.00348
0.00348
0.00348
0.00348
0.00348
0.00348
0.00348
0.00348
0.00348
0.00348
0.00348
0.00348
0.00348
0.00348
0.00348
0.00348
0.00348
0.00348
0.00348
0.00348
0.00348
0.00348
0.00348
0.00348
0.00348
0.00348
0.00348
0.00348
0.00348
0.00348
0.00348
0.00348
0.00348
0.00348
0.00348
0.00348
0.00348
0.00348
0.00348
0.00348
0.00348
0.00348
0.00348
0.00348
0.00348
0.00348
0.00348
0.00348
0.00348
0.00348
0.00348
0.00348
0.00348
0.00348
0.00348
0.00348
0.00348
0.00348
0.00348
0.00348
0.00348
0.00348
0.00348
0.00348
0.00348
0.00348
0.00348
0.00348
0.00348
0.00348
0.00348
0.00348
0.00348
0.00348
0.00348
0.00348
0.00348
0.00348
0.00348
0.00348
0.00348
0.00348
0.00348
0.00348
0.00348
0.00348
0.00348
0.00348
0.00348
0.00348
0.00348
0.00348
0.00348
0.00348
0.00348
0.00348
0.00348
0.00348
0.00348
0.00348
0.00348
0.00348
0.00348
0.00348
0.00348
0.00348
0.00348
0.00348
0.00348
0.00348
0.00348
0.00348
0.00348
0.00348
0.00348
0.00348
0.00348
0.00348
0.00348
0.00348
0.00348
0.00348
0.00348
0.00348
0.00348
0.00348
0.00348
0.00348
0.00348
0.00348
0.00348
0.00348
0.00348
0.00348
0.00348
0.00348
0.00348
0.00348
0.00348
0.00348
0.00348
0.00348
0.00348
0.00348
0.00348
0.00348
0.00348
0.00348
0.00348
0.00348
0.00348
0.00348
0.00348
0.00348
0.00348
0.00348
0.00348
0.00348
0.00348
0.00348
0.00348
0.00348
0.00348
0.00348
0.00348
0.00348
0.00348
0.00348
0.00348
0.00348
0.00348
0.00348
0.00348
0.00348
0.00348
0.00348
0.00348
0.00348
0.00348
0.00348
0.00348
0.00348
0.00348
0.00348
0.00348
0.00348
0.00348
0.00348
0.00348
0.00348
0.00348
0.00348
0.00348
0.00348
0.00348
0.00348
0.00348
0.00348
0.00348
0.00348
0.00348
0.00348
0.00348
0.00348
0.00348
0.00348
0.00348
0.00348
0.00348
0.00348
0.0034799999
0.0034799999
0.0034799999
0.0034799999
0.0034799998
0.0034799997
0.0034799996
0.0034799995
0.0034799994
0.0034799991
0.0034799988
0.0034799984
0.0034799979
0.0034799973
0.0034799964
0.0034799952
0.0034799937
0.0034799918
0.0034799893
0.003479986
0.0034799819
0.0034799766
0.0034799699
0.0034799614
0.0034799506
0.003479937
0.00347992
0.0034798988
0.0034798725
0.0034798398
0.0034797995
0.00347975
0.0034796895
0.0034796159
0.0034795266
0.0034794188
0.0034792893
0.0034791343
0.0034789497
0.0034787309
0.0034784728
0.0034781695
0.003477815
0.0034774025
0.0034769248
0.0034763742
0.0034757425
0.0034750213
0.0034742018
0.0034732749
0.0034722314
0.0034710622
0.0034697582
0.0034683102
0.0034667097
0.0034649482
0.0034630182
0.0034609121
0.0034586236
0.0034561468
0.0034534767
0.003450609
0.0034475405
0.0034442687
0.003440792
0.0034371099
0.0034332223
0.0034291302
0.0034248353
0.00342034
0.0034156473
0.0034107606
0.0034056841
0.0034004223
0.0033949798
0.003389362
0.0033835741
0.0033776216
0.0033715103
0.0033652458
0.003358834
0.0033522806
0.0033455913
0.0033387718
0.0033318277
0.0033247645
0.0033175874
0.0033103017
0.0033029125
0.0032954247
0.003287843
0.003280172
0.0032724161
0.0032645797
0.0032566669
0.0032486815
0.0032406275
0.0032325086
0.0032243281
0.0032160896
0.0032077962
0.0031994511
0.0031910573
0.0031826176
0.0031741348
0.0031656115
0.0031570503
0.0031484537
0.0031398238
0.0031311631
0.0031224735
0.0031137573
0.0031050163
0.0030962525
0.0030874678
0.0030786638
0.0030698422
0.0030610048
0.0030521531
0.0030432885
0.0030344126
0.0030255269
0.0030166323
0.0030077311
0.0029988223
0.0029899126
0.0029809904
0.0029720843
0.0029631395
0.002954264
0.0029452655
0.0029364703
0.0029273708
0.0029186909
0.0029095179
0.0029008073
0.0028919012
0.0028825631
0.0028747714
0.0028637972
0.0028580162
0.0028445142
0.0028424884
0.0028244538
0.0028258294
0.0028074755
0.0028077818
0.0027906523
0.0027908587
0.0027726445
0.0027738508
0.0027555538
0.0027568382
0.0027388416
0.0027389928
0.0027236416
0.0027187808
0.0027100684
0.0027010127
0.002692378
0.0026841797
0.0026761016
0.0026679126
0.002659735
0.0026516711
0.0026437263
0.0026358645
0.0026280494
0.0026202943
0.002612641
0.0026050691
0.0025976356
0.0025902771
0.0025830781
0.0025759858
0.0025690777
0.0025623282
0.0025557653
0.0025494093
0.0025432368
0.002537319
0.0025316001
0.0025261775
0.0025209894
0.0025161238
0.0025115389
0.0025072867
0.0025033596
0.0024997644
0.0024965239
0.0024936081
0.0024910511
0.0024888063
0.0024868948
0.0024852752
0.0024839387
0.0024828612
0.0024820032
0.0024813579
0.0024808683
0.0024805373
0.0024803068
0.0024801839
0.0024801191
0.0024801262
0.0024801809
0.0024801983
0.0024803604
0.0024803709
0.0024805497
0.0024806544
0.0024807922
0.0024809529
0.0024811054
0.0024812763
0.0024814332
0.0024816108
0.00248177
0.0024819519
0.002482111
0.0024822964
0.0024824552
0.0024826448
0.0024828052
0.0024830009
0.0024831656
0.002483369
0.0024835412
0.0024837538
0.002483937
0.0024841606
0.002484358
0.0024845953
0.0024848094
0.0024850639
0.0024852968
0.0024855717
0.0024858267
0.0024861242
0.0024864052
0.0024867283
0.0024870392
0.0024873913
0.0024877373
0.0024881227
0.0024885107
0.0024889368
0.0024893752
0.0024898546
0.0024903581
0.0024909107
0.0024915071
0.0024921765
0.0024929248
0.0024938034
0.0024948359
0.0024961029
0.0024976858
0.002499723
0.0025023579
0.0025057865
0.002510232
0.0025159592
0.0025232614
0.0025324545
0.0025438789
0.002557866
0.0025747639
0.0025948759
0.0026185073
0.0026458892
0.0026772256
0.0027126304
0.0027521762
0.0027958042
0.0028433934
0.0028947045
0.0029494132
0.003007083
0.0030671904
0.003129117
0.0031921901
0.0032556698
0.0033188171
0.0033808733
0.0034411359
0.0034989402
0.0035537282
0.0036050228
0.0036524838
0.0036958754
0.0037350848
0.0037701079
0.0038010394
0.0038280671
0.0038514239
0.0038713921
0.0038882894
0.0039024293
0.003914154
0.003923757
0.0039315523
0.0039378014
0.0039427531
0.0039466339
0.0039496264
0.003951897
0.0039535889
0.0039548271
0.0039557077
0.0039562927
0.0039566695
0.0039568764
0.0039569874
0.0039569799
0.0039569377
0.0039568416
0.0039566979
0.00395654
0.0039563749
0.0039562074
0.0039560409
0.0039558779
0.0039557194
0.0039555664
0.0039554183
0.0039552753
0.0039551358
0.0039549991
0.0039548632
0.0039547264
0.0039545859
0.0039544389
0.0039542815
0.003954109
0.0039539158
0.0039536942
0.0039534358
0.0039531284
0.0039527583
0.003952307
0.0039517519
0.0039510642
0.0039502074
0.0039491361
0.0039477919
0.0039461026
0.0039439751
0.0039412939
0.0039379115
0.0039336431
0.0039282542
0.0039214498
0.0039128569
0.0039020052
0.0038883026
0.0038710032
0.0038491736
0.0038216494
0.0037869987
0.0037434923
0.0036891247
0.0036217388
0.0035393954
0.0034412121
0.003328926
0.0032088326
0.0030920857
0.0029910338
0.002913436
0.0028599079
0.0028260015
0.0028057887
0.0027942103
0.0027877441
0.0027841905
0.0027822574
0.0027812126
0.0027806502
0.0027803483
0.0027801864
0.0027800997
0.0027800534
0.0027800285
0.0027800153
0.0027800082
0.0027800044
0.0027800023
0.0027800012
0.0027800007
0.0027800004
0.0027800002
0.0027800001
0.0027800001
0.00278
0.00278
0.00278
0.00278
0.00278
0.00278
0.00278
0.00278
0.00278
0.00278
0.00278
0.00278
0.00278
0.00278
0.00278
0.00278
0.00278
0.00278
0.00278
0.00278
0.00278
0.00278
0.00278
0.00278
0.00278
0.00278
0.00278
0.00278
0.00278
0.00278
0.00278
0.00278
0.00278
0.00278
0.00278
0.00278
0.00278
0.00278
0.00278
0.00278
0.00278
0.00278
0.00278
0.00278
0.00278
0.00278
0.00278
0.00278
0.00278
0.00278
0.00278
0.00278
0.00278
0.00278
0.00278
0.00278
0.00278
0.00278
0.00278
0.00278
0.00278
0.00278
0.00278
0.00278
0.00278
0.00278
0.00278
0.00278
0.00278
0.00278
0.00278
0.00278
0.00278
0.00278
0.00278
0.00278
0.00278
0.00278
0.00278
0.00278
0.00278
0.00278
0.00278
0.00278
0.00278
0.00278
0.00278
0.00278
0.00278
0.00278
0.00278
0.00278
0.00278
0.00278
0.00278
0.00278
0.00278
0.00278
0.00278
0.00278
0.00278
0.00278
0.00278
0.00278
0.00278
0.00278
0.00278
0.00278
0.00278
0.00278
0.00278
0.00278
0.00278
0.00278
0.00278
0.00278
0.00278
0.00278
0.00278
0.00278
0.00278
0.00278
0.00278
0.00278
0.00278
0.00278
0.00278
0.00278
0.00278
0.00278
0.00278
0.00278
0.00278
0.00278
0.00278
0.00278
0.00278
0.00278
0.00278
0.00278
0.00278
0.00278
0.00278
0.00278
0.00278
0.00278
0.00278
0.00278
0.00278
0.00278
0.00278
0.00278
0.00278
0.00278
0.00278
0.00278
0.00278
0.00278
0.00278
0.00278
0.00278
0.00278
0.00278
0.00278
0.00278
0.00278
0.00278
0.00278
0.00278
0.00278
0.00278
0.00278
0.00278
0.00278
0.00278
0.00278
0.00278
0.00278
0.00278
0.00278
0.00278
0.00278
0.00278
0.00278
0.00278
0.00278
0.00278
0.00278
0.00278
0.00278
0.00278
0.00278
0.00278
0.00278
0.00278
0.00278
0.00278
0.00278
0.00278
0.00278
0.00278
0.00278
0.00278
0.00278
0.00278
0.00278
0.00278
0.00278
0.00278
0.00278
0.00278
0.00278
0.00278
0.00278
0.00278
0.00278
0.00278
0.00278
0.00278
0.00278
0.00278
0.00278
0.00278
0.00278
0.00278
0.00278
0.00278
0.00278
0.00278
0.00278
0.00278
0.00278
0.00278
0.00278
0.00278
0.00278
0.00278
0.00278
0.00278
0.00278
0.00278
0.00278
0.00278
0.00278
0.00278
0.00278
0.00278
0.00278
0.00278
0.00278
0.00278
0.00278
0.00278
0.00278
0.00278
0.00278
0.00278
0.00278
0.00278
0.00278
0.00278
0.00278
0.00278
0.00278
0.00278
0.00278
0.00278
0.00278
0.00278
0.00278
0.00278
0.00278
0.00278
0.00278
0.00278
0.00278
0.00278
0.00278
0.00278
0.00278
0.00278
0.00278
0.00278
0.00278
0.00278
0.00278
0.00278
0.00278
0.00278
0.00278
0.00278
0.00278
0.00278
0.00278
0.00278
)
;

boundaryField
{
    sides
    {
        type            zeroGradient;
    }
    emptywalls
    {
        type            empty;
    }
}


// ************************************************************************* //
