/*--------------------------------*- C++ -*----------------------------------*\
| =========                 |                                                 |
| \\      /  F ield         | OpenFOAM: The Open Source CFD Toolbox           |
|  \\    /   O peration     | Version:  2112                                  |
|   \\  /    A nd           | Website:  www.openfoam.com                      |
|    \\/     M anipulation  |                                                 |
\*---------------------------------------------------------------------------*/
FoamFile
{
    version     2.0;
    format      ascii;
    arch        "LSB;label=32;scalar=64";
    class       volVectorField;
    location    "0.1";
    object      U;
}
// * * * * * * * * * * * * * * * * * * * * * * * * * * * * * * * * * * * * * //

dimensions      [0 1 -1 0 0 0 0];

internalField   nonuniform List<vector> 
1000
(
(-3.1587274e-21 0 0)
(1.3862829e-11 0 0)
(1.646295e-11 0 0)
(3.2144263e-11 0 0)
(1.5146772e-11 0 0)
(4.8599543e-11 0 0)
(1.5956976e-11 0 0)
(4.5079954e-11 0 0)
(1.1164003e-11 0 0)
(2.375367e-11 0 0)
(8.4472809e-12 0 0)
(9.1891247e-12 0 0)
(1.5533811e-11 0 0)
(1.4210519e-11 0 0)
(3.0230631e-11 0 0)
(5.3723755e-11 0 0)
(1.8964366e-11 0 0)
(3.6470387e-11 0 0)
(1.7343736e-11 0 0)
(2.657321e-11 0 0)
(1.6595779e-11 0 0)
(2.8922344e-12 0 0)
(2.2643239e-12 0 0)
(-7.9208543e-13 0 0)
(1.0798639e-11 0 0)
(4.4303875e-12 0 0)
(1.3237586e-11 0 0)
(3.0215069e-11 0 0)
(-3.847939e-12 0 0)
(3.3845368e-11 0 0)
(1.968798e-11 0 0)
(2.5638958e-11 0 0)
(3.1805576e-11 0 0)
(1.4100588e-11 0 0)
(4.2181828e-11 0 0)
(9.1871239e-12 0 0)
(5.4263521e-11 0 0)
(2.6657799e-11 0 0)
(2.9521244e-11 0 0)
(2.6140709e-11 0 0)
(3.6060228e-11 0 0)
(3.9825691e-11 0 0)
(3.693768e-11 0 0)
(7.9510883e-12 0 0)
(5.2393906e-11 0 0)
(7.6993238e-12 0 0)
(2.9091077e-11 0 0)
(9.7627919e-12 0 0)
(2.3350514e-11 0 0)
(7.4785714e-12 0 0)
(3.1269923e-11 0 0)
(-1.6848099e-11 0 0)
(2.0900673e-11 0 0)
(-3.1482227e-12 0 0)
(1.9616508e-11 0 0)
(1.3593057e-11 0 0)
(3.2383244e-11 0 0)
(2.9686864e-11 0 0)
(4.1839584e-11 0 0)
(2.1039505e-11 0 0)
(4.4363009e-11 0 0)
(4.5567699e-11 0 0)
(5.1585925e-11 0 0)
(5.0254408e-11 0 0)
(3.1628285e-11 0 0)
(4.9054942e-11 0 0)
(6.1561022e-11 0 0)
(3.6102133e-11 0 0)
(2.0040228e-11 0 0)
(1.4764401e-11 0 0)
(2.1241917e-11 0 0)
(2.5835813e-11 0 0)
(3.5030384e-11 0 0)
(4.1158653e-11 0 0)
(3.5126977e-11 0 0)
(4.6989584e-11 0 0)
(3.8374905e-11 0 0)
(5.3902491e-11 0 0)
(2.2804858e-11 0 0)
(4.116799e-11 0 0)
(2.2078131e-11 0 0)
(2.9711651e-11 0 0)
(-2.7927514e-12 0 0)
(3.6848534e-11 0 0)
(4.8283198e-12 0 0)
(1.5137768e-11 0 0)
(1.8658358e-12 0 0)
(5.5483772e-12 0 0)
(-4.8572199e-12 0 0)
(7.2834956e-12 0 0)
(4.3929285e-12 0 0)
(-9.2330306e-12 0 0)
(1.2192069e-11 0 0)
(-1.0106481e-11 0 0)
(-1.2977151e-11 0 0)
(5.4687908e-13 0 0)
(2.7688531e-13 0 0)
(5.1474437e-12 0 0)
(9.0471806e-12 0 0)
(7.2589305e-12 0 0)
(-1.1016835e-11 0 0)
(-1.5147217e-11 0 0)
(-7.1979068e-12 0 0)
(-1.6878222e-11 0 0)
(2.5077518e-12 0 0)
(-1.3794247e-11 0 0)
(2.3397977e-12 0 0)
(-3.3936292e-11 0 0)
(-4.4505064e-12 0 0)
(-4.141553e-11 0 0)
(-2.6810636e-11 0 0)
(-1.4511192e-11 0 0)
(-3.50435e-11 0 0)
(2.6215738e-12 0 0)
(-1.6870441e-11 0 0)
(1.6199848e-11 0 0)
(-7.5394839e-12 0 0)
(4.3516901e-13 0 0)
(-1.8329341e-13 0 0)
(-2.6110141e-13 0 0)
(3.3873156e-12 0 0)
(-1.4211298e-11 0 0)
(-5.7610154e-12 0 0)
(-2.4711376e-11 0 0)
(-1.6844209e-11 0 0)
(-1.1221025e-11 0 0)
(-1.4642687e-11 0 0)
(-1.7884391e-11 0 0)
(-5.9851024e-12 0 0)
(-1.7921405e-11 0 0)
(-1.2904123e-11 0 0)
(-1.9490681e-11 0 0)
(-1.8598891e-11 0 0)
(-1.2063686e-11 0 0)
(-1.8508411e-11 0 0)
(-3.2205064e-11 0 0)
(-1.1345184e-11 0 0)
(-1.8744058e-11 0 0)
(-2.3708653e-11 0 0)
(-3.811736e-11 0 0)
(2.6724824e-12 0 0)
(-4.3599156e-11 0 0)
(-2.0617119e-11 0 0)
(-5.1319933e-11 0 0)
(-3.0725823e-11 0 0)
(-5.1442091e-11 0 0)
(-2.3753115e-11 0 0)
(-6.2107567e-11 0 0)
(-3.1677192e-11 0 0)
(-5.5339939e-11 0 0)
(-3.4040666e-11 0 0)
(-2.5940742e-11 0 0)
(-4.6395909e-11 0 0)
(-3.6795625e-11 0 0)
(-3.4361235e-11 0 0)
(-2.2750948e-11 0 0)
(-3.1149432e-11 0 0)
(-2.7081963e-11 0 0)
(-3.2067789e-11 0 0)
(-8.3646933e-12 0 0)
(-4.675705e-11 0 0)
(-9.3488534e-12 0 0)
(1.7650189e-12 0 0)
(1.4368581e-11 0 0)
(1.7560154e-11 0 0)
(9.1522214e-12 0 0)
(-5.3022816e-12 0 0)
(-5.1575583e-14 0 0)
(-7.4349989e-12 0 0)
(-4.3805903e-12 0 0)
(-1.007169e-11 0 0)
(-7.4106559e-13 0 0)
(-1.807591e-12 0 0)
(-1.2629572e-11 0 0)
(-4.3775891e-12 0 0)
(1.3309947e-11 0 0)
(9.9894355e-12 0 0)
(1.6843987e-11 0 0)
(1.3354187e-11 0 0)
(5.8228171e-12 0 0)
(3.1425539e-12 0 0)
(2.8588437e-11 0 0)
(2.262212e-12 0 0)
(5.8623881e-12 0 0)
(-7.9196316e-12 0 0)
(5.8783943e-12 0 0)
(-1.2594558e-11 0 0)
(2.3195342e-11 0 0)
(-1.5702765e-12 0 0)
(3.1104303e-11 0 0)
(-8.5607694e-12 0 0)
(4.3086735e-12 0 0)
(1.2531867e-11 0 0)
(1.2554209e-11 0 0)
(-1.8647243e-12 0 0)
(-9.3182859e-12 0 0)
(5.2836077e-12 0 0)
(-2.6260533e-11 0 0)
(-5.2642671e-13 0 0)
(-2.6149379e-11 0 0)
(-6.5936721e-12 0 0)
(5.6280749e-12 0 0)
(1.2302667e-11 0 0)
(1.50195e-11 0 0)
(-3.4461163e-12 0 0)
(2.4724603e-11 0 0)
(1.2550652e-11 0 0)
(1.7924073e-11 0 0)
(2.4092246e-11 0 0)
(3.1099635e-11 0 0)
(3.2873213e-11 0 0)
(1.9854823e-11 0 0)
(1.2604229e-11 0 0)
(-7.9728745e-12 0 0)
(2.7277039e-11 0 0)
(8.5136401e-12 0 0)
(1.9863048e-11 0 0)
(3.4652904e-11 0 0)
(1.1901511e-11 0 0)
(2.5563929e-11 0 0)
(1.2166726e-11 0 0)
(2.461745e-11 0 0)
(-1.3254037e-12 0 0)
(7.839267e-12 0 0)
(-9.9509761e-12 0 0)
(-6.5985629e-12 0 0)
(3.8159266e-12 0 0)
(-9.5138063e-12 0 0)
(-3.7557921e-12 0 0)
(-1.6593e-11 0 0)
(-1.3511137e-11 0 0)
(-7.505693e-12 0 0)
(-4.7188328e-12 0 0)
(-1.596798e-11 0 0)
(-3.1650071e-12 0 0)
(-5.7689072e-13 0 0)
(-4.2908888e-12 0 0)
(-1.1663197e-11 0 0)
(6.9723748e-12 0 0)
(-2.1425766e-11 0 0)
(-7.5927268e-12 0 0)
(-1.5739669e-11 0 0)
(6.1834017e-12 0 0)
(7.7385613e-13 0 0)
(2.4608447e-12 0 0)
(1.8791743e-12 0 0)
(-2.8075349e-12 0 0)
(-1.061968e-12 0 0)
(8.6929319e-12 0 0)
(-1.971688e-11 0 0)
(-3.1628729e-11 0 0)
(-4.7778446e-11 0 0)
(-3.5523798e-11 0 0)
(-3.331405e-11 0 0)
(-3.4131257e-11 0 0)
(-3.3807687e-11 0 0)
(-3.3272812e-11 0 0)
(-2.7870714e-11 0 0)
(-3.199665e-11 0 0)
(-2.726659e-11 0 0)
(-1.8468729e-11 0 0)
(-3.5013599e-11 0 0)
(-4.2273197e-11 0 0)
(-3.6007874e-11 0 0)
(-3.1525578e-11 0 0)
(-1.2414044e-11 0 0)
(-1.5876389e-11 0 0)
(-3.6948795e-12 0 0)
(-3.3746107e-11 0 0)
(-2.5809358e-11 0 0)
(-2.4112477e-11 0 0)
(-4.4271084e-11 0 0)
(-2.9867156e-11 0 0)
(-3.1420648e-11 0 0)
(-1.7371303e-11 0 0)
(-2.4465836e-11 0 0)
(4.0992588e-12 0 0)
(-2.6491401e-12 0 0)
(-8.1303801e-12 0 0)
(-8.5713292e-12 0 0)
(-2.3663635e-12 0 0)
(1.5372526e-11 0 0)
(-2.8357792e-11 0 0)
(-1.1904735e-11 0 0)
(-1.3772349e-11 0 0)
(-5.2911662e-12 0 0)
(-1.6268652e-11 0 0)
(-1.8988709e-11 0 0)
(-4.6916e-12 0 0)
(-1.0875669e-11 0 0)
(1.3120318e-11 0 0)
(2.6141042e-11 0 0)
(7.6080661e-11 0 0)
(9.5989838e-11 0 0)
(1.4489528e-10 0 0)
(2.0154195e-10 0 0)
(3.0967917e-10 0 0)
(4.3345436e-10 0 0)
(6.3358286e-10 0 0)
(8.8771735e-10 0 0)
(1.2741231e-09 0 0)
(1.7645955e-09 0 0)
(2.5038187e-09 0 0)
(3.4686766e-09 0 0)
(4.8671167e-09 0 0)
(6.7767861e-09 0 0)
(9.4414534e-09 0 0)
(1.3159652e-08 0 0)
(1.8246835e-08 0 0)
(2.5266961e-08 0 0)
(3.487059e-08 0 0)
(4.8017711e-08 0 0)
(6.5968252e-08 0 0)
(9.0295516e-08 0 0)
(1.2330064e-07 0 0)
(1.6787384e-07 0 0)
(2.2790804e-07 0 0)
(3.0853965e-07 0 0)
(4.1644473e-07 0 0)
(5.6052828e-07 0 0)
(7.5213878e-07 0 0)
(1.0063065e-06 0 0)
(1.3422031e-06 0 0)
(1.7847702e-06 0 0)
(2.3659374e-06 0 0)
(3.1264883e-06 0 0)
(4.1185031e-06 0 0)
(5.4079356e-06 0 0)
(7.0781943e-06 0 0)
(9.234058e-06 0 0)
(1.2006817e-05 0 0)
(1.5560174e-05 0 0)
(2.0097201e-05 0 0)
(2.5868814e-05 0 0)
(3.3183366e-05 0 0)
(4.2418174e-05 0 0)
(5.403248e-05 0 0)
(6.8582362e-05 0 0)
(8.6737913e-05 0 0)
(0.00010930182 0 0)
(0.00013723087 0 0)
(0.00017165865 0 0)
(0.00021392091 0 0)
(0.00026558174 0 0)
(0.00032846207 0 0)
(0.00040466801 0 0)
(0.00049662036 0 0)
(0.0006070829 0 0)
(0.0007391898 0 0)
(0.00089647036 0 0)
(0.0010828703 0 0)
(0.0013027684 0 0)
(0.0015609871 0 0)
(0.0018627962 0 0)
(0.0022139076 0 0)
(0.0026204618 0 0)
(0.0030890034 0 0)
(0.0036264471 0 0)
(0.0042400316 0 0)
(0.004937265 0 0)
(0.0057258587 0 0)
(0.0066136536 0 0)
(0.0076085392 0 0)
(0.0087183668 0 0)
(0.0099508598 0 0)
(0.011313523 0 0)
(0.012813554 0 0)
(0.014457756 0 0)
(0.016252461 0 0)
(0.018203457 0 0)
(0.020315928 0 0)
(0.022594403 0 0)
(0.02504272 0 0)
(0.027663998 0 0)
(0.030460627 0 0)
(0.033434265 0 0)
(0.036585855 0 0)
(0.039915638 0 0)
(0.043423192 0 0)
(0.047107468 0 0)
(0.050966832 0 0)
(0.05499912 0 0)
(0.059201687 0 0)
(0.063571465 0 0)
(0.068105018 0 0)
(0.072798595 0 0)
(0.077648185 0 0)
(0.082649568 0 0)
(0.087798357 0 0)
(0.093090051 0 0)
(0.098520067 0 0)
(0.10408378 0 0)
(0.10977655 0 0)
(0.11559376 0 0)
(0.12153083 0 0)
(0.12758323 0 0)
(0.13374653 0 0)
(0.14001638 0 0)
(0.14638853 0 0)
(0.15285883 0 0)
(0.15942327 0 0)
(0.16607796 0 0)
(0.1728191 0 0)
(0.17964307 0 0)
(0.18654633 0 0)
(0.19352548 0 0)
(0.20057725 0 0)
(0.20769849 0 0)
(0.21488617 0 0)
(0.22213736 0 0)
(0.22944927 0 0)
(0.2368192 0 0)
(0.24424456 0 0)
(0.25172287 0 0)
(0.25925174 0 0)
(0.26682889 0 0)
(0.2744521 0 0)
(0.28211929 0 0)
(0.28982841 0 0)
(0.29757751 0 0)
(0.30536475 0 0)
(0.3131883 0 0)
(0.32104646 0 0)
(0.32893756 0 0)
(0.33686 0 0)
(0.34481224 0 0)
(0.35279281 0 0)
(0.36080028 0 0)
(0.36883326 0 0)
(0.37689044 0 0)
(0.38497053 0 0)
(0.39307229 0 0)
(0.40119452 0 0)
(0.40933606 0 0)
(0.41749581 0 0)
(0.42567269 0 0)
(0.43386567 0 0)
(0.44207375 0 0)
(0.45029603 0 0)
(0.45853158 0 0)
(0.46677972 0 0)
(0.47503945 0 0)
(0.4833107 0 0)
(0.49159204 0 0)
(0.49988463 0 0)
(0.50818626 0 0)
(0.5164997 0 0)
(0.52482283 0 0)
(0.53315832 0 0)
(0.54150894 0 0)
(0.5498738 0 0)
(0.5582359 0 0)
(0.5665362 0 0)
(0.57494469 0 0)
(0.58311624 0 0)
(0.59136317 0 0)
(0.59958707 0 0)
(0.60776687 0 0)
(0.6159676 0 0)
(0.624232 0 0)
(0.6323957 0 0)
(0.6405601 0 0)
(0.64871327 0 0)
(0.65688165 0 0)
(0.66508144 0 0)
(0.673247 0 0)
(0.68143447 0 0)
(0.68964666 0 0)
(0.69798511 0 0)
(0.70610249 0 0)
(0.71427091 0 0)
(0.72235892 0 0)
(0.73037817 0 0)
(0.73833991 0 0)
(0.74625126 0 0)
(0.75411165 0 0)
(0.76191705 0 0)
(0.76966278 0 0)
(0.77734373 0 0)
(0.78495423 0 0)
(0.79248781 0 0)
(0.79993689 0 0)
(0.80729313 0 0)
(0.81454716 0 0)
(0.82168897 0 0)
(0.82870754 0 0)
(0.83559096 0 0)
(0.84232631 0 0)
(0.84889968 0 0)
(0.85529632 0 0)
(0.86150056 0 0)
(0.86749612 0 0)
(0.87326608 0 0)
(0.87879326 0 0)
(0.88406045 0 0)
(0.88905082 0 0)
(0.89374843 0 0)
(0.89813868 0 0)
(0.9022091 0 0)
(0.90594978 0 0)
(0.90935421 0 0)
(0.91241975 0 0)
(0.91514819 0 0)
(0.91754603 0 0)
(0.91962462 0 0)
(0.9214 0 0)
(0.92289244 0 0)
(0.92412584 0 0)
(0.92512669 0 0)
(0.92592309 0 0)
(0.92654356 0 0)
(0.92701596 0 0)
(0.92736647 0 0)
(0.92761863 0 0)
(0.92779284 0 0)
(0.92791107 0 0)
(0.9279828 0 0)
(0.92801901 0 0)
(0.92802639 0 0)
(0.92803187 0 0)
(0.92801278 0 0)
(0.92799155 0 0)
(0.9279374 0 0)
(0.92788026 0 0)
(0.92781863 0 0)
(0.92775834 0 0)
(0.92770019 0 0)
(0.9276448 0 0)
(0.92759277 0 0)
(0.92754454 0 0)
(0.92750042 0 0)
(0.92746044 0 0)
(0.92742444 0 0)
(0.92739211 0 0)
(0.92736302 0 0)
(0.92733674 0 0)
(0.92731283 0 0)
(0.9272909 0 0)
(0.92727063 0 0)
(0.92725175 0 0)
(0.92723405 0 0)
(0.92721737 0 0)
(0.92720159 0 0)
(0.92718663 0 0)
(0.92717241 0 0)
(0.92715889 0 0)
(0.92714602 0 0)
(0.92713376 0 0)
(0.92712205 0 0)
(0.92711087 0 0)
(0.92710016 0 0)
(0.92708987 0 0)
(0.92707996 0 0)
(0.92707038 0 0)
(0.92706111 0 0)
(0.92705212 0 0)
(0.92704341 0 0)
(0.92703496 0 0)
(0.92702678 0 0)
(0.9270189 0 0)
(0.92701128 0 0)
(0.92700388 0 0)
(0.92699672 0 0)
(0.92698978 0 0)
(0.92698311 0 0)
(0.92697697 0 0)
(0.92697102 0 0)
(0.9269644 0 0)
(0.92695882 0 0)
(0.92695257 0 0)
(0.92694634 0 0)
(0.92694042 0 0)
(0.92693453 0 0)
(0.92692853 0 0)
(0.92692233 0 0)
(0.92691583 0 0)
(0.92690895 0 0)
(0.92690158 0 0)
(0.92689368 0 0)
(0.92688513 0 0)
(0.92687566 0 0)
(0.9268651 0 0)
(0.92685345 0 0)
(0.92684118 0 0)
(0.92682992 0 0)
(0.92681909 0 0)
(0.92680727 0 0)
(0.92679675 0 0)
(0.92678714 0 0)
(0.92677884 0 0)
(0.92677221 0 0)
(0.9267674 0 0)
(0.92676447 0 0)
(0.92676321 0 0)
(0.92676338 0 0)
(0.92676473 0 0)
(0.92676685 0 0)
(0.92676937 0 0)
(0.92677188 0 0)
(0.92677402 0 0)
(0.92677561 0 0)
(0.92677665 0 0)
(0.92677714 0 0)
(0.92677547 0 0)
(0.92677222 0 0)
(0.92676995 0 0)
(0.92676664 0 0)
(0.92676285 0 0)
(0.92675868 0 0)
(0.92675421 0 0)
(0.92674948 0 0)
(0.92674448 0 0)
(0.92673922 0 0)
(0.92673375 0 0)
(0.92672829 0 0)
(0.92672287 0 0)
(0.92671729 0 0)
(0.92671144 0 0)
(0.92670515 0 0)
(0.92670037 0 0)
(0.9266956 0 0)
(0.9266888 0 0)
(0.92668168 0 0)
(0.92667323 0 0)
(0.92666665 0 0)
(0.92666105 0 0)
(0.92665279 0 0)
(0.92664626 0 0)
(0.92663888 0 0)
(0.92663016 0 0)
(0.92662086 0 0)
(0.92661089 0 0)
(0.9266001 0 0)
(0.92658832 0 0)
(0.92657535 0 0)
(0.92656091 0 0)
(0.92654466 0 0)
(0.92652616 0 0)
(0.92650484 0 0)
(0.92647999 0 0)
(0.92645069 0 0)
(0.92641577 0 0)
(0.92637373 0 0)
(0.92632266 0 0)
(0.92626013 0 0)
(0.92618306 0 0)
(0.92608752 0 0)
(0.92596852 0 0)
(0.92581972 0 0)
(0.92563309 0 0)
(0.92539845 0 0)
(0.92510291 0 0)
(0.92473014 0 0)
(0.92425951 0 0)
(0.92366491 0 0)
(0.92291337 0 0)
(0.92196323 0 0)
(0.92076189 0 0)
(0.91924297 0 0)
(0.91732274 0 0)
(0.91489558 0 0)
(0.91182839 0 0)
(0.90795347 0 0)
(0.90305973 0 0)
(0.89688164 0 0)
(0.88908574 0 0)
(0.87925393 0 0)
(0.86686358 0 0)
(0.85126424 0 0)
(0.83165196 0 0)
(0.80704406 0 0)
(0.77626142 0 0)
(0.73793377 0 0)
(0.69055942 0 0)
(0.63268039 0 0)
(0.56327591 0 0)
(0.48250857 0 0)
(0.39285097 0 0)
(0.30012158 0 0)
(0.21309309 0 0)
(0.14045218 0 0)
(0.086688654 0 0)
(0.050828674 0 0)
(0.028729114 0 0)
(0.015849886 0 0)
(0.00861729 0 0)
(0.0046467978 0 0)
(0.0024949216 0 0)
(0.0013366319 0 0)
(0.0007153302 0 0)
(0.00038263615 0 0)
(0.00020462933 0 0)
(0.00010942248 0 0)
(5.850937e-05 0 0)
(3.1284829e-05 0 0)
(1.6727594e-05 0 0)
(8.9439202e-06 0 0)
(4.7819894e-06 0 0)
(2.5567432e-06 0 0)
(1.3669313e-06 0 0)
(7.308132e-07 0 0)
(3.9068546e-07 0 0)
(2.0884449e-07 0 0)
(1.1162505e-07 0 0)
(5.9670655e-08 0 0)
(3.1888187e-08 0 0)
(1.7047214e-08 0 0)
(9.0987698e-09 0 0)
(4.8644519e-09 0 0)
(2.5910582e-09 0 0)
(1.4090592e-09 0 0)
(7.3607532e-10 0 0)
(3.7363817e-10 0 0)
(1.7609201e-10 0 0)
(6.9859433e-11 0 0)
(6.505581e-11 0 0)
(-1.1719474e-11 0 0)
(4.888612e-11 0 0)
(2.3601888e-12 0 0)
(3.4779596e-11 0 0)
(-1.1009219e-11 0 0)
(-1.7066971e-11 0 0)
(-4.3198424e-11 0 0)
(-1.6923455e-11 0 0)
(-2.9291692e-11 0 0)
(-6.9220659e-12 0 0)
(9.226979e-13 0 0)
(1.9257449e-11 0 0)
(-2.1512192e-11 0 0)
(-2.9423553e-12 0 0)
(1.0852717e-11 0 0)
(-3.749397e-13 0 0)
(2.8956266e-11 0 0)
(2.7232853e-11 0 0)
(1.094118e-11 0 0)
(2.3079547e-11 0 0)
(3.5580423e-12 0 0)
(8.7943225e-12 0 0)
(3.5617162e-11 0 0)
(3.3684635e-12 0 0)
(1.2529068e-11 0 0)
(1.9249346e-11 0 0)
(3.1177378e-11 0 0)
(1.2765265e-11 0 0)
(2.028881e-11 0 0)
(1.8367383e-12 0 0)
(3.5656121e-11 0 0)
(1.7748588e-11 0 0)
(1.607812e-11 0 0)
(-1.6635646e-11 0 0)
(2.148844e-11 0 0)
(1.3817604e-11 0 0)
(2.4028995e-11 0 0)
(7.6920353e-12 0 0)
(2.2070828e-11 0 0)
(2.0256067e-11 0 0)
(8.1556597e-12 0 0)
(-4.0443095e-12 0 0)
(1.4599117e-11 0 0)
(-3.5777882e-11 0 0)
(1.215202e-11 0 0)
(-3.2232604e-11 0 0)
(-1.05194e-11 0 0)
(-1.4869943e-12 0 0)
(-3.0990797e-12 0 0)
(-2.8712522e-11 0 0)
(-1.0117711e-11 0 0)
(-7.1187483e-12 0 0)
(-1.8899935e-11 0 0)
(-2.1021929e-11 0 0)
(-1.7956037e-11 0 0)
(-3.8355509e-11 0 0)
(-4.8117261e-12 0 0)
(-3.4119731e-13 0 0)
(6.755352e-12 0 0)
(-2.2086811e-11 0 0)
(1.8748094e-12 0 0)
(-2.1405527e-11 0 0)
(-2.1825197e-11 0 0)
(1.3863227e-13 0 0)
(8.1193644e-12 0 0)
(-6.0514244e-12 0 0)
(1.3537343e-11 0 0)
(-2.5115964e-11 0 0)
(1.3615816e-11 0 0)
(-3.6313542e-11 0 0)
(-3.1876534e-12 0 0)
(-5.0612307e-11 0 0)
(1.4525195e-11 0 0)
(-4.9153061e-11 0 0)
(-5.0610199e-12 0 0)
(-3.5477641e-11 0 0)
(-2.0070373e-11 0 0)
(-1.2292317e-11 0 0)
(-2.257996e-11 0 0)
(-2.6219695e-11 0 0)
(-3.3177057e-11 0 0)
(-3.3918834e-11 0 0)
(-2.0201124e-11 0 0)
(-2.9929022e-11 0 0)
(-2.0404911e-11 0 0)
(-1.7744481e-11 0 0)
(-4.564097e-13 0 0)
(-3.0670022e-12 0 0)
(6.1093637e-12 0 0)
(-4.9195239e-11 0 0)
(-5.3775764e-12 0 0)
(-3.2420629e-11 0 0)
(3.2356918e-11 0 0)
(-1.1203127e-11 0 0)
(2.1044239e-11 0 0)
(-7.0392762e-12 0 0)
(1.0964045e-11 0 0)
(2.4331011e-11 0 0)
(1.1977203e-11 0 0)
(2.7525213e-11 0 0)
(2.2182711e-11 0 0)
(3.4249153e-11 0 0)
(-2.6882887e-12 0 0)
(-3.8139957e-12 0 0)
(-1.3752339e-11 0 0)
(2.0393922e-11 0 0)
(1.8775732e-11 0 0)
(1.6146492e-11 0 0)
(8.4262645e-12 0 0)
(2.6534919e-11 0 0)
(1.1913936e-11 0 0)
(3.2594002e-11 0 0)
(1.6710789e-11 0 0)
(2.4528359e-11 0 0)
(-1.5794528e-12 0 0)
(3.0703987e-11 0 0)
(1.9988459e-11 0 0)
(4.2636903e-11 0 0)
(2.9170263e-11 0 0)
(1.5225348e-11 0 0)
(2.5626762e-11 0 0)
(4.4411928e-11 0 0)
(1.589842e-11 0 0)
(4.5259483e-11 0 0)
(2.0439208e-11 0 0)
(2.6341012e-11 0 0)
(-1.347341e-11 0 0)
(2.1255684e-11 0 0)
(-1.0629729e-11 0 0)
(3.9437928e-11 0 0)
(2.9967427e-12 0 0)
(3.1947237e-11 0 0)
(6.9956554e-12 0 0)
(6.1998242e-12 0 0)
(-2.0789284e-12 0 0)
(2.0116436e-11 0 0)
(4.647676e-12 0 0)
(1.6522098e-11 0 0)
(9.3896974e-12 0 0)
(6.0516465e-12 0 0)
(8.3840866e-12 0 0)
(2.1797115e-11 0 0)
(-1.0969372e-11 0 0)
(1.4066343e-12 0 0)
(7.4723771e-12 0 0)
(-1.508716e-11 0 0)
(2.572588e-11 0 0)
(-3.1789957e-11 0 0)
(-3.7379645e-12 0 0)
(-1.4661163e-11 0 0)
(-3.0160668e-11 0 0)
(-3.8229419e-11 0 0)
(-2.3631412e-11 0 0)
(-3.3269737e-11 0 0)
(-1.1988414e-11 0 0)
(-3.4363256e-11 0 0)
(-2.2416021e-11 0 0)
(-1.1728131e-11 0 0)
(-9.317551e-12 0 0)
(-9.889617e-12 0 0)
(-2.6019238e-11 0 0)
(5.4338506e-12 0 0)
(-3.9482659e-11 0 0)
(-1.4534407e-11 0 0)
(-5.2454928e-11 0 0)
(-5.7924963e-11 0 0)
(-5.1665202e-11 0 0)
(-7.6479705e-11 0 0)
(-5.8635218e-11 0 0)
(-6.9449863e-11 0 0)
(-4.4034991e-11 0 0)
(-3.6424314e-11 0 0)
(-4.3910566e-11 0 0)
(-3.1681627e-11 0 0)
(-2.2541112e-11 0 0)
(-1.4644958e-11 0 0)
(1.2643947e-11 0 0)
(-1.8225976e-11 0 0)
(1.0744275e-11 0 0)
(1.0612192e-11 0 0)
(2.0740669e-11 0 0)
(4.3798572e-11 0 0)
(3.0136138e-11 0 0)
(1.6759738e-11 0 0)
(2.4857014e-11 0 0)
(-5.8160049e-12 0 0)
(1.1487828e-11 0 0)
(-7.7568561e-12 0 0)
(1.3198587e-11 0 0)
(-4.9671184e-12 0 0)
(-1.9774128e-11 0 0)
(4.5795254e-12 0 0)
(-1.0955387e-11 0 0)
(2.7193117e-11 0 0)
(-2.7553294e-12 0 0)
(2.3722427e-11 0 0)
(-4.8546809e-12 0 0)
(1.5726156e-11 0 0)
(1.0720633e-11 0 0)
(-9.6529766e-12 0 0)
(2.9908599e-12 0 0)
(2.6848257e-11 0 0)
(3.5884548e-13 0 0)
(3.1516578e-11 0 0)
(5.297738e-11 0 0)
(3.3170952e-11 0 0)
(4.9748325e-11 0 0)
(1.0841063e-11 0 0)
(5.7032789e-11 0 0)
(4.068695e-11 0 0)
(5.5832715e-11 0 0)
(3.2919771e-11 0 0)
(4.6057423e-11 0 0)
(2.3108183e-11 0 0)
(4.1595996e-11 0 0)
(1.170904e-11 0 0)
(1.0863594e-11 0 0)
(1.5928055e-11 0 0)
(2.1407081e-11 0 0)
(1.4800017e-12 0 0)
(2.8126359e-11 0 0)
(4.7800593e-11 0 0)
(5.4824441e-11 0 0)
(2.0990407e-11 0 0)
(5.1780192e-11 0 0)
(1.1011772e-11 0 0)
(2.5747635e-11 0 0)
(1.1905057e-11 0 0)
(1.7807748e-11 0 0)
(3.2342156e-11 0 0)
(-9.8929469e-12 0 0)
(1.1113443e-11 0 0)
(-6.7752201e-12 0 0)
(1.8121308e-11 0 0)
(-6.0684066e-12 0 0)
(3.6823562e-11 0 0)
(3.2676027e-11 0 0)
(3.8488147e-11 0 0)
(4.7162818e-11 0 0)
(2.817775e-11 0 0)
(4.1453479e-11 0 0)
(3.4595678e-11 0 0)
(3.2416078e-11 0 0)
(5.5118354e-11 0 0)
(5.5519489e-12 0 0)
(5.4331847e-11 0 0)
(3.5331795e-12 0 0)
(3.1377169e-11 0 0)
(-3.4956633e-12 0 0)
(2.5582031e-11 0 0)
(2.1050122e-11 0 0)
(3.4838313e-11 0 0)
(-6.7041836e-12 0 0)
(3.0708981e-11 0 0)
(1.1507141e-11 0 0)
(-1.392205e-12 0 0)
(2.4646346e-12 0 0)
(2.9236638e-11 0 0)
(-1.18631e-12 0 0)
(2.1137697e-11 0 0)
(1.0209059e-11 0 0)
(7.883501e-12 0 0)
(6.1566473e-12 0 0)
(4.3042588e-12 0 0)
(3.0403524e-11 0 0)
(-2.3630743e-13 0 0)
(2.2504595e-11 0 0)
(1.8515117e-11 0 0)
(1.5644797e-11 0 0)
(3.6540082e-11 0 0)
(3.5870451e-11 0 0)
(3.4634194e-11 0 0)
(1.2553487e-12 0 0)
(2.1674356e-11 0 0)
(-2.6223579e-12 0 0)
(-2.6899536e-12 0 0)
(1.6752412e-11 0 0)
(1.2854726e-11 0 0)
(2.237007e-11 0 0)
(4.7813135e-12 0 0)
(1.7285852e-11 0 0)
(6.1368907e-13 0 0)
(2.2063613e-11 0 0)
(2.356861e-20 0 0)
)
;

boundaryField
{
    sides
    {
        type            zeroGradient;
    }
    emptywalls
    {
        type            empty;
    }
}


// ************************************************************************* //
