/*--------------------------------*- C++ -*----------------------------------*\
| =========                 |                                                 |
| \\      /  F ield         | OpenFOAM: The Open Source CFD Toolbox           |
|  \\    /   O peration     | Version:  2112                                  |
|   \\  /    A nd           | Website:  www.openfoam.com                      |
|    \\/     M anipulation  |                                                 |
\*---------------------------------------------------------------------------*/
FoamFile
{
    version     2.0;
    format      ascii;
    arch        "LSB;label=32;scalar=64";
    class       volScalarField;
    location    "0.1";
    object      Ux;
}
// * * * * * * * * * * * * * * * * * * * * * * * * * * * * * * * * * * * * * //

dimensions      [0 1 -1 0 0 0 0];

internalField   nonuniform List<scalar> 
1000
(
-4.7497782e-21
-1.2236753e-11
1.4130822e-11
1.4288661e-11
3.4924231e-11
2.9147543e-11
3.5115528e-11
4.4161819e-11
3.215849e-11
5.8045656e-11
5.6981576e-11
7.4404121e-11
5.3422194e-11
5.1797341e-11
3.9958742e-11
4.3513123e-11
4.3012595e-11
2.8551867e-11
1.0164615e-11
3.6251191e-11
1.5676756e-11
4.3760219e-11
2.087822e-11
3.2388469e-11
1.0404042e-13
2.2323671e-11
-5.9775439e-12
1.5878278e-11
-2.5413204e-12
1.3496131e-11
9.0037193e-12
6.4866305e-12
3.0908672e-12
9.3806435e-12
1.8018999e-11
3.9618166e-11
3.3207453e-11
3.636568e-11
1.6921461e-11
2.4158606e-11
1.5541036e-11
2.1612839e-11
2.2662135e-12
3.6244967e-11
2.1388863e-11
4.0860982e-11
2.0243752e-11
4.4159152e-11
3.7287927e-11
4.503816e-11
4.2794622e-11
3.2505514e-11
3.5482004e-11
3.3629729e-11
5.203321e-11
3.059744e-11
3.5895609e-11
2.4423153e-11
2.8592995e-11
9.0477364e-12
1.1918963e-11
-1.11291e-11
-9.5233656e-12
-1.9686646e-11
1.4684259e-11
1.0456061e-11
1.326493e-11
-1.6252424e-11
1.8960364e-11
-1.2528977e-11
1.0733391e-11
-7.5758314e-12
1.6704377e-11
3.1431097e-12
2.2738832e-12
1.7303387e-12
-6.4157141e-12
-6.9744867e-12
-1.1955532e-11
-1.2810531e-12
2.9376966e-12
-5.1365506e-12
-6.5088614e-12
-5.6347441e-12
8.9720403e-12
5.0112797e-12
1.8458058e-11
3.0491843e-12
6.0556854e-12
1.5169225e-12
1.0354577e-11
1.6511413e-11
1.0133936e-12
-1.1652192e-11
-3.9020711e-12
-7.5887253e-12
-1.191296e-11
-1.6945582e-11
6.168507e-12
3.7362289e-12
1.430978e-11
-1.3481458e-11
-1.6208962e-11
-1.5379529e-11
-1.7487792e-11
-1.6227303e-11
-2.3599166e-11
-2.3986428e-11
-2.2877441e-11
-2.8995818e-11
-2.9717098e-12
-1.2812643e-11
-3.9682079e-12
-8.8532164e-12
-1.4168058e-11
-1.9919292e-11
-2.080119e-11
-3.3138871e-11
-2.4218295e-11
-2.2538532e-11
-1.2056572e-11
-2.2702373e-11
-2.0471618e-11
-2.1337621e-11
9.2228044e-12
1.1923409e-11
-1.0586334e-12
7.2505939e-13
-2.3409092e-13
-9.9634254e-12
1.9138767e-11
2.1332952e-11
3.4972806e-11
1.2183732e-11
2.5995097e-11
4.4557306e-12
1.2136936e-11
5.6049548e-12
2.6847761e-11
8.9601469e-13
2.9922622e-11
2.5058955e-11
1.8621566e-11
9.110872e-12
1.7125318e-11
1.9371191e-11
1.1349964e-12
1.0734169e-12
3.3798683e-12
2.0197289e-11
-9.8479361e-12
8.9555895e-12
4.0984808e-12
1.52756e-11
-2.0106143e-11
-4.3018931e-12
-3.1851594e-11
-1.9488014e-11
-2.5790573e-11
-1.2311893e-11
-1.3165891e-11
4.6352448e-12
-1.1384311e-11
5.0336217e-12
-4.7395075e-12
1.0127489e-11
2.3451887e-11
2.9249694e-11
2.1945746e-11
2.2225633e-11
8.1962946e-12
3.4067677e-12
-1.1086306e-11
-1.9424656e-11
-1.276318e-11
-4.0311213e-11
-4.1533465e-11
-2.0941134e-11
-3.2442712e-11
-1.8077688e-11
-3.7180997e-11
-1.4652802e-11
-1.8750616e-11
-1.1626293e-11
3.7798014e-12
-3.7143316e-12
1.4391923e-11
-4.6232401e-12
1.3459005e-11
6.2703243e-12
1.3369415e-11
2.2801078e-12
1.1086528e-11
1.4684592e-12
1.151425e-11
1.0592781e-11
2.7326391e-11
1.7531254e-11
1.7685202e-11
5.8771716e-12
4.6834857e-12
1.7814919e-11
1.283832e-13
2.6063234e-11
8.4499487e-12
3.4453048e-11
2.7307051e-11
2.5739331e-11
2.6164607e-11
1.5238919e-11
2.7857709e-11
2.8230743e-11
2.3899394e-11
4.5124193e-11
2.07684e-11
2.5994874e-11
-1.2769738e-11
7.5410401e-12
4.1377182e-12
9.3713065e-12
-7.1242115e-12
-1.8334232e-11
-3.5548474e-11
-1.4479624e-11
-2.4772844e-11
-3.0732159e-11
-2.7721323e-11
-2.8178611e-11
-2.0658579e-11
-3.5832584e-11
-3.0355346e-11
-2.908852e-11
2.9166884e-12
-2.6237079e-11
-1.2974706e-11
-2.4185616e-11
-1.540943e-11
-2.5027499e-11
-5.3102848e-12
-2.6987816e-11
-2.0652577e-11
-3.3621837e-11
-2.9035055e-11
-3.0026996e-11
-1.9403536e-11
-2.2531196e-11
-2.1464448e-11
-1.056188e-11
1.4717828e-11
4.7268359e-12
1.2038342e-11
8.5823334e-12
1.8288437e-11
1.9149215e-11
8.5026358e-12
1.7856269e-11
6.8202046e-12
-1.0678592e-12
-1.3995325e-11
-1.7243698e-11
-2.3217129e-11
-1.1335292e-11
-1.1618179e-11
-5.3917608e-12
-2.3009937e-11
-1.0752732e-11
-3.0797629e-11
-1.3905401e-11
-2.3099861e-11
-8.8703342e-12
-1.6012664e-11
-1.2647023e-11
-1.0079582e-11
-1.6073021e-11
-2.722613e-12
-2.6127481e-11
-1.3952975e-11
-5.9724308e-12
-7.044625e-12
-1.5309391e-11
-1.3658194e-11
-8.9471418e-12
-2.529249e-11
-4.328459e-12
-2.3591385e-11
-5.059743e-12
-1.1537704e-11
1.247918e-11
9.452338e-12
2.4481175e-11
2.0175058e-11
2.3537142e-11
6.6256846e-11
6.1706634e-11
1.2504701e-10
1.3924097e-10
2.4660067e-10
3.2732035e-10
5.094611e-10
7.2167552e-10
1.0844473e-09
1.5062619e-09
2.1630591e-09
3.0315697e-09
4.2715788e-09
5.9608509e-09
8.3437843e-09
1.1625095e-08
1.6157491e-08
2.237713e-08
3.0939687e-08
4.2591514e-08
5.8554935e-08
8.0188008e-08
1.0956633e-07
1.4918876e-07
2.027e-07
2.7453773e-07
3.7079022e-07
4.9929447e-07
6.7032184e-07
8.9726275e-07
1.1974227e-06
1.5931029e-06
2.1130083e-06
2.7938138e-06
3.6823602e-06
4.8380822e-06
6.336126e-06
8.27101e-06
1.0761312e-05
1.3954958e-05
1.8035783e-05
2.3230923e-05
2.9820083e-05
3.8145661e-05
4.8625074e-05
6.1764365e-05
7.8173982e-05
9.8586305e-05
0.00012387544
0.00015507864
0.0001934198
0.00024033476
0.0002974976
0.00036684837
0.00045062101
0.00055137138
0.00067200382
0.00081579642
0.00098642278
0.0011879702
0.0014249526
0.0017023168
0.002025442
0.0024001302
0.0028325882
0.0033293991
0.0038974847
0.0045440572
0.005276562
0.0061026118
0.0070299137
0.0080661894
0.0092190931
0.010496126
0.011904552
0.013451315
0.015142962
0.016985572
0.018984691
0.021145281
0.023471678
0.025967555
0.028635909
0.031479046
0.034498587
0.037695476
0.041070007
0.044621845
0.04835007
0.052253211
0.056329295
0.060575892
0.064990167
0.069568924
0.074308664
0.079205625
0.084255833
0.089455144
0.094799285
0.10028389
0.10590454
0.11165678
0.11753617
0.12353828
0.12965873
0.13589322
0.14223751
0.14868746
0.15523903
0.1618883
0.16863145
0.1754648
0.18238479
0.18938797
0.19647105
0.20363084
0.21086428
0.21816844
0.22554052
0.23297781
0.24047775
0.24803786
0.2556558
0.2633293
0.27105622
0.27883449
0.28666216
0.29453734
0.30245824
0.31042314
0.31843041
0.32647848
0.33456586
0.3426911
0.35085286
0.35904979
0.36728075
0.37554428
0.38383987
0.39216506
0.40052173
0.40890302
0.41731947
0.42574855
0.43422869
0.44269034
0.45124763
0.45971518
0.46837279
0.47681342
0.48558203
0.49399581
0.50280125
0.51131554
0.51987967
0.52886102
0.53664995
0.54668062
0.55314771
0.56469983
0.56982903
0.5827048
0.58713623
0.59985871
0.60559039
0.61618948
0.62421812
0.63250928
0.64190155
0.64973676
0.65867379
0.66728178
0.67543557
0.68436249
0.69251268
0.70116246
0.70940041
0.71803499
0.72591586
0.73465007
0.7421754
0.75064661
0.75785453
0.76589282
0.77257401
0.78002765
0.78616575
0.79272695
0.79838116
0.80388596
0.80906539
0.81353354
0.81825345
0.82185202
0.82608446
0.82915378
0.83282197
0.83569667
0.83878624
0.84172396
0.84429782
0.84742436
0.84965847
0.85300593
0.85521123
0.85880565
0.86132943
0.86516801
0.86828684
0.8723899
0.87638194
0.88097185
0.88619249
0.89157407
0.89817
0.90433351
0.91190589
0.91831494
0.92592112
0.9316993
0.9380621
0.94212677
0.94587885
0.94717707
0.94742498
0.94767951
0.94780527
0.94803564
0.94820734
0.94830276
0.94855132
0.94874752
0.94888718
0.94845965
0.94872855
0.94879579
0.94921478
0.94945263
0.94948663
0.95001979
0.9507142
0.94977329
0.95073316
0.95280442
0.94948042
0.95051732
0.95976221
0.94700999
0.92703429
0.92353142
0.92139847
0.92149921
0.92694969
0.93111875
0.93134918
0.93179552
0.9317036
0.93019943
0.92913487
0.92907245
0.92909259
0.9291059
0.9291442
0.92915769
0.92922451
0.92924203
0.92911433
0.92899133
0.92898409
0.92899886
0.92900657
0.92900604
0.92900255
0.92900176
0.92900006
0.92899903
0.92899627
0.92899873
0.92900462
0.9290154
0.92902768
0.92904411
0.92906035
0.9290786
0.92909653
0.9291185
0.92914032
0.92916527
0.92919056
0.9292208
0.92925171
0.92928876
0.92933076
0.92937489
0.92942012
0.92947584
0.92953381
0.9295991
0.92966776
0.92974198
0.92981911
0.92989924
0.92998185
0.93006832
0.93015723
0.930241
0.93032401
0.93040384
0.93048168
0.93054887
0.93061051
0.93066871
0.93073158
0.93079108
0.93084464
0.93089778
0.93094338
0.93099075
0.93103015
0.93107199
0.93110975
0.93114968
0.93118829
0.93122538
0.93126367
0.93129719
0.93133572
0.93136851
0.93140868
0.93144301
0.93148121
0.93151575
0.93155226
0.93158905
0.93162476
0.93166393
0.93169731
0.93173935
0.93177342
0.9318156
0.93185112
0.93189142
0.93192729
0.93196446
0.93200387
0.93203979
0.93208172
0.93211479
0.93215424
0.93218187
0.93221582
0.93224005
0.9322631
0.93227917
0.93228247
0.93227121
0.93224052
0.93218199
0.93208667
0.93194139
0.93172852
0.9314245
0.93099797
0.93040702
0.92959603
0.92849123
0.92699517
0.92497967
0.92227668
0.91866727
0.91386765
0.90751276
0.89913639
0.88814896
0.87381251
0.85521555
0.83125048
0.80060084
0.76175515
0.71307468
0.65297275
0.58034371
0.49543106
0.40111096
0.30400643
0.21385279
0.13973194
0.085672249
0.050029818
0.028248231
0.01561467
0.0085251238
0.0046229516
0.0024979795
0.0013473218
0.00072604692
0.00039108398
0.00021061359
0.00011341244
6.1068151e-05
3.2881948e-05
1.7704928e-05
9.5328448e-06
5.1327199e-06
2.7634876e-06
1.487836e-06
8.0098752e-07
4.3120483e-07
2.3210337e-07
1.2492882e-07
6.7187527e-08
3.6127854e-08
1.9352349e-08
1.0404359e-08
5.5210503e-09
2.9529626e-09
1.5346396e-09
7.9428198e-10
3.6861033e-10
1.2419183e-10
4.3436841e-11
1.3257637e-11
-1.4870166e-11
-1.0206285e-11
-2.4490177e-11
-2.4370081e-11
-1.9556357e-11
-3.4978943e-11
-2.4217574e-11
-2.8594202e-11
-2.1797559e-11
-2.6848701e-11
-2.4967454e-11
-4.3702007e-11
-1.6981616e-11
-1.2151798e-11
3.6970075e-12
-3.3598392e-11
-6.8825519e-12
-2.0689279e-11
-1.3582629e-11
-3.5937048e-11
-2.1156788e-11
-3.1031754e-11
-3.8754867e-11
-5.7551244e-11
-1.2017272e-11
-3.1834355e-12
-7.7792771e-12
5.2228499e-12
-8.825401e-12
2.2278166e-11
2.3018056e-11
1.0137468e-11
2.6215477e-11
1.8272039e-11
1.0712309e-11
7.3875772e-12
1.0804989e-11
-8.8561465e-12
3.9837509e-11
-2.3096973e-11
6.3352043e-11
2.9827795e-11
7.8074697e-11
3.5060857e-11
6.8725291e-11
6.4160861e-11
4.8119258e-11
4.3734306e-11
5.0335154e-11
8.2433787e-11
2.8126692e-11
5.3756784e-11
-1.8430428e-11
2.9340196e-11
-3.4874053e-11
1.5347553e-11
-1.4757284e-11
2.7799813e-11
5.3875659e-12
1.7271756e-11
-2.7111536e-11
1.7808525e-11
-1.3187377e-11
6.0115774e-12
-2.0383045e-11
3.0349248e-11
-6.6302612e-12
1.3277616e-11
-1.5641245e-11
2.5366146e-11
1.2476235e-11
1.1086805e-11
9.6080238e-12
2.9373495e-11
-5.0011937e-12
3.4103085e-12
-7.4496232e-12
2.1377889e-11
1.5513601e-11
3.2097745e-11
-2.0315671e-11
1.5045981e-11
-6.3766385e-13
5.3094257e-12
2.071847e-11
-6.0062497e-12
-5.9049116e-12
-4.2392826e-11
1.8420105e-11
-2.1885356e-11
-8.4259315e-12
-2.8205943e-11
-2.5683036e-12
-2.7446629e-11
3.480124e-12
-3.6805801e-13
3.8837336e-11
-8.7038619e-12
2.6307602e-11
1.5869117e-11
7.3966789e-13
-1.2958395e-11
-1.394325e-11
-4.6496739e-12
-1.5903303e-11
-2.8199838e-11
-2.5214417e-11
-8.5717784e-12
-2.6207041e-11
6.0112444e-12
-4.0859325e-11
-2.4191602e-11
-3.8050274e-11
-2.4840254e-11
-2.8883342e-11
2.9577836e-12
-8.4301493e-12
1.0224377e-11
2.481528e-11
2.9430213e-11
-1.1148851e-11
2.2952014e-11
-5.6299781e-12
2.6766898e-11
4.9046285e-12
5.1555983e-11
1.0087076e-11
4.4939041e-11
1.4179447e-11
2.3963397e-11
2.3591898e-12
1.9854821e-11
1.3202472e-11
-3.1101791e-11
1.3970666e-11
-2.8291852e-11
3.9392531e-11
1.6398339e-12
-1.9717077e-12
-3.3493946e-11
1.4251482e-11
2.225519e-11
3.5135667e-11
3.6623549e-11
5.2043471e-11
2.0132197e-11
1.4937762e-11
7.5046765e-12
1.3253197e-11
-5.6778167e-12
1.659369e-11
-7.4506221e-12
-8.1147027e-12
-1.4139045e-11
2.3932651e-12
4.2783971e-12
2.1105952e-11
5.3867889e-12
-1.8312441e-11
9.8047062e-12
-9.3391949e-12
3.6215311e-12
1.3048523e-11
-4.0050618e-11
1.8217429e-11
-1.684487e-11
2.7428204e-11
1.2258796e-11
2.2140089e-11
2.0840342e-11
-4.178391e-12
1.6649631e-11
-1.2855725e-11
-3.9175537e-12
-1.789277e-11
-2.852261e-11
-3.6098545e-11
-6.5570048e-12
-3.2203301e-11
9.8111439e-12
-1.2932422e-11
-2.8110487e-12
-1.2827977e-11
-7.5176629e-12
-2.5976061e-11
-2.329077e-11
-3.8056933e-11
-4.690975e-11
-3.7367213e-11
-5.2457148e-11
-3.9460349e-11
-4.9403576e-11
-6.3205752e-11
-7.2271235e-11
-4.9367614e-11
-4.5474479e-11
-1.1120325e-11
-1.9082965e-11
9.2018946e-12
-2.3865167e-11
-4.1185538e-11
-3.977624e-11
1.6751302e-11
-8.4957471e-12
3.4906463e-11
2.2628576e-11
2.4532244e-11
4.0878083e-11
4.5074011e-11
1.5930275e-11
8.4807628e-12
-2.2477734e-11
-9.4470816e-12
-3.760119e-11
2.9787615e-12
-4.1064887e-11
1.2349257e-12
-2.1885134e-11
1.5716833e-12
-8.662683e-12
-1.085083e-11
6.3942867e-12
-1.9193516e-11
3.2279888e-11
2.5822778e-11
4.105412e-11
1.8547638e-11
2.2644559e-11
4.7690819e-11
2.1394316e-11
6.6005036e-11
9.6874959e-12
1.498449e-11
1.0487767e-11
4.0695719e-11
-5.1100795e-12
-3.0456913e-13
-2.4637023e-11
-3.9656476e-11
-2.8627056e-11
-5.2256026e-11
-2.4325572e-11
-3.5351108e-11
-3.4459932e-11
-2.6888215e-11
-3.1180264e-11
-7.3392391e-11
-4.5273468e-11
-2.3238491e-11
-4.5416429e-11
-4.9126201e-12
6.8129583e-12
4.7035063e-12
8.8010932e-12
3.6449177e-11
3.57498e-11
6.8845498e-11
6.3584799e-11
6.4005468e-11
4.7890387e-11
4.5425864e-11
3.9753042e-11
5.3676979e-11
7.4143047e-11
5.9449474e-11
7.5752469e-11
7.8523892e-11
5.5389292e-11
6.6257437e-11
2.5778935e-11
4.8051218e-11
2.9114655e-11
2.0579061e-11
3.7228137e-11
-1.9723736e-13
-1.6788374e-11
-1.5427803e-11
-3.2430951e-11
-1.5089269e-11
-8.6060757e-12
4.2812829e-12
-1.4006628e-11
3.3064175e-12
1.1991854e-12
1.1020541e-11
1.2967097e-20
)
;

boundaryField
{
    sides
    {
        type            calculated;
        value           nonuniform List<scalar> 2(1.2967097e-20 -4.7497782e-21);
    }
    emptywalls
    {
        type            empty;
    }
}


// ************************************************************************* //
