/*--------------------------------*- C++ -*----------------------------------*\
| =========                 |                                                 |
| \\      /  F ield         | OpenFOAM: The Open Source CFD Toolbox           |
|  \\    /   O peration     | Version:  2112                                  |
|   \\  /    A nd           | Website:  www.openfoam.com                      |
|    \\/     M anipulation  |                                                 |
\*---------------------------------------------------------------------------*/
FoamFile
{
    version     2.0;
    format      ascii;
    arch        "LSB;label=32;scalar=64";
    class       volScalarField;
    location    "54.5";
    object      p;
}
// * * * * * * * * * * * * * * * * * * * * * * * * * * * * * * * * * * * * * //

dimensions      [0 2 -2 0 0 0 0];

internalField   nonuniform List<scalar> 
8800
(
0.880243
0.832455
0.793765
0.76477
0.743906
0.729076
0.71848
0.711001
0.706184
0.704131
0.705404
0.709598
0.716246
0.725564
0.738344
0.756079
0.780856
0.814797
0.857347
0.916049
0.711493
0.719172
0.726647
0.729955
0.728451
0.723373
0.716886
0.710809
0.706088
0.703248
0.702974
0.705484
0.709976
0.715923
0.722693
0.728974
0.732615
0.731879
0.726459
0.717768
0.6899
0.696059
0.700185
0.703129
0.705177
0.705781
0.704674
0.70257
0.700556
0.699654
0.700621
0.703006
0.705807
0.707989
0.708597
0.707398
0.705056
0.701662
0.697104
0.693343
0.684095
0.686746
0.689496
0.691898
0.693531
0.694691
0.695432
0.695549
0.695256
0.695211
0.695969
0.697142
0.697983
0.698048
0.697439
0.696347
0.69453
0.691959
0.689556
0.688052
0.678723
0.680147
0.681924
0.683954
0.685736
0.687075
0.688062
0.688859
0.689476
0.690045
0.690701
0.691199
0.6913
0.691011
0.690313
0.689063
0.687366
0.685517
0.684209
0.683378
0.673657
0.674577
0.675816
0.677379
0.679009
0.68053
0.681813
0.682879
0.683844
0.684742
0.685436
0.685766
0.685723
0.685282
0.684399
0.683196
0.681867
0.680605
0.679782
0.679231
0.668763
0.669433
0.670393
0.671691
0.673096
0.67455
0.675985
0.677305
0.678503
0.679614
0.680439
0.680807
0.680721
0.680208
0.679398
0.678447
0.677431
0.676505
0.675919
0.675514
0.663996
0.664513
0.665293
0.666419
0.667691
0.669059
0.670499
0.671967
0.673393
0.674731
0.675739
0.676208
0.676178
0.675787
0.675178
0.674447
0.673668
0.672981
0.672546
0.672229
0.659285
0.659696
0.660349
0.661349
0.662548
0.663868
0.665305
0.666854
0.668471
0.670067
0.671312
0.671963
0.672119
0.67194
0.671548
0.671023
0.670446
0.669948
0.669624
0.669366
0.654545
0.654879
0.655443
0.656363
0.657512
0.658815
0.660285
0.661928
0.663726
0.665603
0.667154
0.668089
0.668512
0.668577
0.668407
0.6681
0.667712
0.667372
0.667131
0.666915
0.649689
0.649966
0.650468
0.651341
0.65247
0.653795
0.655335
0.657113
0.659132
0.661332
0.663271
0.664573
0.665316
0.665659
0.665732
0.665641
0.66544
0.665238
0.665064
0.664878
0.644629
0.644862
0.645325
0.646181
0.64733
0.64872
0.650372
0.652337
0.654641
0.657244
0.659659
0.661401
0.662517
0.663179
0.663521
0.663653
0.663637
0.66356
0.663442
0.663277
0.639278
0.639475
0.639918
0.640787
0.641998
0.643497
0.645315
0.647534
0.650202
0.653312
0.656304
0.658569
0.660121
0.661144
0.661787
0.662154
0.66234
0.662379
0.662307
0.662157
0.633535
0.633705
0.634145
0.635056
0.636369
0.638028
0.640079
0.642632
0.645765
0.649505
0.653198
0.656085
0.658149
0.659586
0.66057
0.661219
0.6616
0.661751
0.661719
0.661577
0.627287
0.627433
0.627885
0.628867
0.63033
0.632208
0.63457
0.637549
0.641268
0.645783
0.650324
0.653957
0.656629
0.658552
0.659922
0.660876
0.66148
0.661748
0.661753
0.661617
0.6204
0.620521
0.621
0.622086
0.623749
0.625917
0.628675
0.632198
0.636646
0.64211
0.64768
0.652207
0.655599
0.658096
0.659918
0.661218
0.662074
0.662462
0.662501
0.662366
0.612701
0.612797
0.61332
0.614544
0.616465
0.619
0.622267
0.626475
0.63183
0.638456
0.645269
0.650863
0.655105
0.658278
0.660646
0.662356
0.663484
0.663998
0.664069
0.663932
0.603961
0.604061
0.604637
0.606018
0.608269
0.611284
0.615199
0.620272
0.626755
0.634807
0.643116
0.649978
0.65522
0.659183
0.662195
0.664377
0.66582
0.666469
0.666571
0.666428
0.593884
0.593965
0.59463
0.596236
0.598918
0.602547
0.607283
0.613443
0.621332
0.631129
0.641231
0.64959
0.656016
0.660911
0.664661
0.667406
0.669203
0.669995
0.670125
0.669973
0.582102
0.582167
0.582931
0.584849
0.588087
0.592505
0.598294
0.605834
0.615472
0.627395
0.639643
0.649764
0.65757
0.663558
0.668166
0.671563
0.673752
0.674692
0.674846
0.674681
0.568077
0.568131
0.569036
0.571366
0.575335
0.580794
0.587956
0.597268
0.609106
0.623625
0.638416
0.650586
0.659972
0.667218
0.672825
0.67696
0.679572
0.68066
0.680832
0.68065
0.551049
0.551089
0.552211
0.555123
0.560098
0.566967
0.57596
0.587584
0.602195
0.619864
0.637634
0.652154
0.663333
0.671999
0.678723
0.683684
0.686737
0.68796
0.688139
0.687938
0.529891
0.529931
0.531393
0.535177
0.541597
0.550446
0.56195
0.576627
0.594738
0.616199
0.637404
0.654558
0.667739
0.677984
0.685919
0.691783
0.695266
0.696596
0.696767
0.696543
0.502876
0.502934
0.504978
0.510171
0.518826
0.530591
0.545632
0.564363
0.586843
0.612785
0.637884
0.657925
0.673267
0.68523
0.694469
0.701243
0.705101
0.706483
0.706624
0.706377
0.466988
0.467143
0.470383
0.478177
0.490612
0.506822
0.526906
0.550972
0.578822
0.609949
0.639319
0.662415
0.680006
0.69374
0.70436
0.711969
0.716076
0.717425
0.71751
0.717243
0.416484
0.417445
0.423887
0.437018
0.456024
0.479105
0.506141
0.536938
0.571102
0.607985
0.641887
0.668135
0.688009
0.703502
0.715457
0.723741
0.727907
0.729116
0.729126
0.728842
0.342492
0.349675
0.364586
0.387701
0.416512
0.448794
0.484326
0.522889
0.564088
0.607257
0.646047
0.675708
0.698083
0.715538
0.728912
0.737793
0.741942
0.743005
0.742962
0.742714
0.262848
0.279887
0.304068
0.337834
0.376834
0.418473
0.462601
0.509152
0.557816
0.608001
0.652661
0.686652
0.712212
0.732109
0.747274
0.756682
0.760555
0.761368
0.761344
0.761195
0.196494
0.216586
0.248446
0.291236
0.339242
0.389691
0.442141
0.49652
0.552506
0.609521
0.6598
0.697847
0.726394
0.748446
0.764818
0.774328
0.777971
0.778714
0.778739
0.778647
0.14215
0.163892
0.201247
0.250437
0.305555
0.363435
0.423267
0.484849
0.547729
0.611243
0.666853
0.708695
0.739921
0.763816
0.781275
0.791169
0.79501
0.795837
0.795881
0.795824
0.0968666
0.119798
0.160937
0.215214
0.276056
0.340072
0.406236
0.474208
0.543388
0.61298
0.673628
0.719055
0.752825
0.778554
0.797174
0.807832
0.81197
0.812736
0.81282
0.812796
0.0583894
0.0820008
0.125996
0.184319
0.249969
0.319204
0.390868
0.464528
0.539451
0.614688
0.680077
0.728903
0.765108
0.792623
0.812408
0.823834
0.828323
0.829185
0.829313
0.829322
0.0247106
0.0487776
0.0950467
0.156692
0.226408
0.300182
0.376723
0.455508
0.535698
0.616197
0.686053
0.738094
0.776589
0.805763
0.826633
0.83872
0.843595
0.84464
0.844809
0.844829
-0.00564654
0.0188242
0.0669525
0.131437
0.204659
0.282406
0.363315
0.446768
0.531839
0.617298
0.691402
0.746475
0.787092
0.817709
0.839559
0.852261
0.857481
0.858753
0.858928
0.858942
-0.033629
-0.00878792
0.0409295
0.107853
0.184162
0.265426
0.350261
0.437992
0.527627
0.617805
0.695993
0.753964
0.796558
0.828512
0.851169
0.864329
0.86981
0.871228
0.871421
0.871432
-0.0600265
-0.0347691
0.0164492
0.0854456
0.164501
0.248903
0.337286
0.42895
0.522863
0.617562
0.699737
0.760548
0.805026
0.838188
0.861445
0.874957
0.880607
0.882127
0.882318
0.882303
-0.0852042
-0.0595131
-0.00710952
0.0639042
0.145382
0.232599
0.324195
0.419477
0.51741
0.616476
0.702599
0.76626
0.812602
0.846878
0.870719
0.884369
0.890103
0.891677
0.891837
0.891792
-0.109568
-0.0833117
-0.0298674
0.04297
0.126608
0.216348
0.310859
0.409472
0.51118
0.614465
0.704552
0.771141
0.819392
0.854781
0.8791
0.892824
0.89856
0.900111
0.900256
0.900186
-0.133247
-0.106575
-0.0519502
0.0224879
0.108061
0.200063
0.297209
0.398877
0.504114
0.611481
0.705578
0.775235
0.825521
0.862075
0.886799
0.900491
0.906141
0.907622
0.907739
0.907646
-0.156365
-0.129159
-0.0735029
0.00237953
0.0896873
0.183708
0.283219
0.387667
0.496186
0.607483
0.705639
0.778568
0.831098
0.868904
0.893952
0.907504
0.912983
0.914354
0.914405
0.91428
-0.179047
-0.151256
-0.0945983
-0.0173836
0.0714624
0.167284
0.268907
0.375863
0.4874
0.60244
0.704683
0.781127
0.836212
0.875412
0.90071
0.913981
0.919138
0.920324
0.920303
0.920153
-0.201303
-0.172842
-0.115249
-0.0368045
0.053419
0.150819
0.254318
0.363507
0.477783
0.596331
0.702647
0.782868
0.840902
0.881745
0.907256
0.920036
0.92468
0.925602
0.925512
0.92535
-0.222975
-0.193883
-0.135392
-0.055856
0.0355884
0.134379
0.239511
0.350673
0.467392
0.589176
0.699461
0.783712
0.84514
0.888032
0.913879
0.925932
0.92973
0.930243
0.930072
0.929906
-0.244042
-0.214349
-0.155016
-0.0744879
0.0180277
0.118022
0.224576
0.337437
0.456305
0.581001
0.695076
0.783531
0.848818
0.894338
0.920963
0.932176
0.934614
0.934342
0.934031
0.933913
-0.264572
-0.234206
-0.174092
-0.09267
0.000799457
0.101831
0.209598
0.323902
0.444611
0.571867
0.689447
0.782176
0.851734
0.900551
0.928837
0.939636
0.940246
0.938316
0.93752
0.937666
-0.284389
-0.253429
-0.192563
-0.110339
-0.0160386
0.0858867
0.194672
0.310179
0.432427
0.561869
0.682566
0.779475
0.853595
0.906307
0.937441
0.949278
0.948642
0.944228
0.941424
0.940895
-0.30359
-0.272008
-0.210448
-0.127523
-0.0325191
0.0701478
0.179744
0.29621
0.419686
0.550934
0.6743
0.775151
0.854079
0.911068
0.946081
0.961312
0.962136
0.956073
0.94766
0.933402
-0.322098
-0.289929
-0.227863
-0.144421
-0.0489256
0.0542848
0.164402
0.28152
0.405859
0.538434
0.664007
0.768417
0.852598
0.914066
0.952956
0.973348
0.976447
0.964262
0.944744
0.93265
-0.339739
-0.307324
-0.244613
-0.160825
-0.064915
0.0386401
0.148871
0.266431
0.391249
0.524628
0.651759
0.758805
0.848356
0.914171
0.953768
0.97396
0.98004
0.957232
0.889363
0.858809
-0.355843
-0.325434
-0.260366
-0.17622
-0.0797157
0.0237147
0.133462
0.25117
0.376072
0.509639
0.637495
0.746012
0.839984
0.910744
0.943609
0.958114
0.948671
0.894988
0.825858
0.783295
-0.411719
-0.341407
-0.274696
-0.191708
-0.0949262
0.00805709
0.11811
0.235458
0.35996
0.493015
0.62062
0.729412
0.823687
0.901068
0.906818
0.910418
0.861954
0.792262
0.715759
0.673164
-0.372953
-0.356851
-0.296089
-0.212343
-0.117337
-0.0144405
0.0945935
0.211272
0.334739
0.466282
0.591778
0.698584
0.78477
0.866279
0.854173
0.741941
0.637325
0.564523
0.491299
0.522244
-0.404094
-0.374603
-0.31288
-0.229922
-0.134921
-0.0321864
0.0771075
0.193138
0.315515
0.44521
0.567858
0.670284
0.747626
0.790513
0.742715
0.594717
0.467371
0.376333
0.277723
0.328208
-0.428085
-0.395646
-0.332648
-0.2495
-0.154402
-0.0517665
0.0574463
0.172641
0.293611
0.420885
0.539796
0.636021
0.704075
0.713108
0.60729
0.434976
0.282662
0.164187
0.033265
0.0663257
-0.451582
-0.417581
-0.353376
-0.269307
-0.17409
-0.0715894
0.0371129
0.15135
0.270727
0.395215
0.509481
0.598047
0.650604
0.628567
0.470716
0.274908
0.0849124
-0.0827501
-0.271119
-0.289078
-0.474483
-0.440015
-0.374898
-0.290044
-0.194647
-0.0923458
0.015724
0.128886
0.246423
0.367753
0.476679
0.557543
0.591088
0.532932
0.340938
0.130874
-0.0861309
-0.275247
-0.517188
-0.81538
-0.497679
-0.463196
-0.397516
-0.312153
-0.216542
-0.114384
-0.00687077
0.105192
0.220793
0.338724
0.442019
0.514663
0.5276
0.418381
0.228136
0.0186084
-0.185468
-0.357687
-0.426855
-0.506259
-0.52213
-0.487574
-0.421579
-0.33596
-0.240272
-0.138346
-0.0314769
0.079321
0.192683
0.306716
0.404029
0.465787
0.453989
0.311118
0.127999
-0.0626466
-0.225242
-0.318029
-0.342118
-0.35805
-0.548145
-0.513461
-0.447259
-0.36155
-0.265968
-0.164442
-0.0584508
0.0507911
0.161515
0.271027
0.36187
0.409777
0.380445
0.211643
0.0372996
-0.128377
-0.254714
-0.293731
-0.30663
-0.307949
-0.575929
-0.541032
-0.474622
-0.388916
-0.293579
-0.192676
-0.0878095
0.0195542
0.127224
0.231667
0.31515
0.348862
0.300258
0.119823
-0.0455336
-0.193965
-0.270176
-0.28725
-0.288499
-0.28828
-0.605544
-0.570348
-0.503688
-0.418055
-0.323118
-0.223034
-0.119555
-0.0144018
0.0898237
0.188708
0.263949
0.28608
0.201535
0.03591
-0.12107
-0.243687
-0.280533
-0.278683
-0.277556
-0.2769
-0.636704
-0.601232
-0.534353
-0.448876
-0.354496
-0.25546
-0.153654
-0.0510495
0.0493552
0.142257
0.209103
0.214399
0.111227
-0.0421271
-0.180742
-0.256475
-0.267018
-0.269817
-0.270574
-0.270227
-0.668848
-0.633226
-0.56636
-0.481149
-0.387526
-0.289796
-0.189954
-0.0902567
0.00599367
0.0926697
0.151068
0.141448
0.0296062
-0.108611
-0.223873
-0.255632
-0.264142
-0.265939
-0.265878
-0.265615
-0.701507
-0.665782
-0.599252
-0.514477
-0.421858
-0.325721
-0.228178
-0.131738
-0.0399974
0.0406516
0.0889167
0.0724715
-0.0460765
-0.164185
-0.254047
-0.269389
-0.262855
-0.262137
-0.262169
-0.262036
-0.733792
-0.698178
-0.632145
-0.548257
-0.456948
-0.362759
-0.267882
-0.175028
-0.0881554
-0.0131836
0.0256324
0.0101368
-0.112663
-0.212845
-0.257901
-0.268885
-0.264801
-0.261517
-0.26018
-0.259772
-0.764085
-0.729215
-0.664081
-0.581558
-0.492027
-0.400211
-0.308417
-0.219472
-0.137694
-0.0683919
-0.0325329
-0.0584673
-0.164403
-0.263639
-0.266206
-0.273468
-0.26818
-0.261157
-0.258181
-0.256997
-0.790817
-0.757026
-0.693916
-0.613197
-0.526048
-0.43714
-0.348922
-0.264253
-0.18755
-0.124023
-0.0873102
-0.120859
-0.197934
-0.292762
-0.332056
-0.297053
-0.273045
-0.26288
-0.259094
-0.257456
-0.811829
-0.779821
-0.719532
-0.641742
-0.557708
-0.472386
-0.388312
-0.308365
-0.236738
-0.179065
-0.14413
-0.168568
-0.197496
-0.260451
-0.333447
-0.29329
-0.284696
-0.283618
-0.281512
-0.279228
-0.824891
-0.795632
-0.739072
-0.665284
-0.585469
-0.504595
-0.425356
-0.350599
-0.284331
-0.23247
-0.197836
-0.214691
-0.165721
-0.107916
-0.153103
-0.256314
-0.319096
-0.337952
-0.338831
-0.339501
-0.827316
-0.802169
-0.75053
-0.681967
-0.607586
-0.532276
-0.458634
-0.389636
-0.329282
-0.283954
-0.245279
-0.284867
-0.247236
-0.0737525
-0.18511
-0.318872
-0.380289
-0.392804
-0.394713
-0.39704
-0.816915
-0.796664
-0.751672
-0.690125
-0.622498
-0.553809
-0.486599
-0.423924
-0.370224
-0.33161
-0.297215
-0.407808
-0.595909
-0.710996
-0.667658
-0.581884
-0.515909
-0.4849
-0.4754
-0.474317
-0.791667
-0.7764
-0.740676
-0.688453
-0.62907
-0.567966
-0.507782
-0.451519
-0.404713
-0.37363
-0.362995
-0.522946
-0.87128
-1.35813
-1.27559
-0.838297
-0.584703
-0.492771
-0.469277
-0.460975
-0.753918
-0.744071
-0.718194
-0.677013
-0.627125
-0.574252
-0.520961
-0.470681
-0.428745
-0.404501
-0.394591
-0.441729
-0.401417
-0.471748
-0.458937
-0.330181
-0.265407
-0.244484
-0.236718
-0.232772
-0.710118
-0.704581
-0.688893
-0.658415
-0.618394
-0.573149
-0.526034
-0.479924
-0.439675
-0.412699
-0.398159
-0.238735
0.100181
0.581079
0.759483
0.49263
0.172705
0.00331588
-0.0441736
-0.0469062
-0.669685
-0.666401
-0.658735
-0.637924
-0.605801
-0.566718
-0.524085
-0.479783
-0.438024
-0.406125
-0.396116
-0.287144
-0.169781
-0.0973597
-0.292415
-0.630069
-0.762007
-0.659782
-0.500871
-0.47102
-0.639298
-0.637225
-0.633364
-0.620069
-0.593876
-0.558388
-0.517486
-0.472283
-0.42537
-0.386891
-0.367883
-0.412673
-0.666743
-1.21112
-1.70271
-1.94768
-1.93483
-1.72496
-1.52284
-1.43541
-0.615217
-0.614383
-0.613163
-0.606388
-0.585342
-0.5515
-0.509016
-0.459766
-0.406715
-0.347242
-0.303111
-0.308265
-0.532756
-0.793539
-1.04932
-1.07326
-0.865323
-0.583247
-0.380869
-0.296498
-0.600544
-0.600198
-0.59973
-0.596876
-0.580793
-0.546603
-0.500162
-0.445713
-0.380518
-0.302089
-0.221716
-0.109455
-0.00618188
0.111248
0.279932
0.499641
0.820382
1.07003
1.20426
1.25085
-0.590147
-0.589987
-0.589625
-0.589317
-0.578332
-0.543867
-0.493547
-0.431933
-0.357025
-0.266058
-0.145067
0.00153782
0.213386
0.560887
1.01443
1.47036
1.8261
2.04501
2.14276
2.16908
-0.582016
-0.582262
-0.582776
-0.583421
-0.575255
-0.542551
-0.489811
-0.422182
-0.338809
-0.231707
-0.104221
0.0267599
0.258505
0.684449
1.18077
1.62505
1.95253
2.1322
2.20426
2.2203
-0.573602
-0.573746
-0.573386
-0.572362
-0.566564
-0.541177
-0.491192
-0.419629
-0.328127
-0.217433
-0.0943015
0.0345311
0.198203
0.579025
0.997325
1.36837
1.62722
1.76271
1.81418
1.82493
-0.57764
-0.574609
-0.563972
-0.549157
-0.547541
-0.545762
-0.502683
-0.424896
-0.326679
-0.213552
-0.096818
0.0199353
0.140012
0.418306
0.734547
0.997731
1.18532
1.2806
1.31599
1.32283
-0.625818
-0.620201
-0.608576
-0.599981
-0.602085
-0.596244
-0.533545
-0.437112
-0.328186
-0.213625
-0.105219
-0.00460775
0.0874228
0.274605
0.490561
0.66537
0.78708
0.847721
0.870039
0.874761
-0.725503
-0.73185
-0.755037
-0.772273
-0.765516
-0.711027
-0.584458
-0.449632
-0.326119
-0.211981
-0.116643
-0.0354491
0.0372826
0.167467
0.303731
0.408798
0.480258
0.514655
0.528575
0.531555
-0.803311
-0.823172
-0.857623
-0.877182
-0.863628
-0.769848
-0.599318
-0.441395
-0.313276
-0.207285
-0.128195
-0.0658152
-0.0142214
0.0738852
0.164066
0.228943
0.267995
0.285977
0.293672
0.295875
-0.715736
-0.738051
-0.769364
-0.790544
-0.770936
-0.67195
-0.524072
-0.389054
-0.277932
-0.191127
-0.131701
-0.0911837
-0.0567862
0.00584319
0.0657221
0.109381
0.136033
0.149126
0.1555
0.156824
-0.44765
-0.462429
-0.486668
-0.506541
-0.499833
-0.44547
-0.36768
-0.289146
-0.219625
-0.161379
-0.1249
-0.108267
-0.0954931
-0.0385897
0.0125964
0.0462064
0.06522
0.0746445
0.0788137
0.0795216
-0.141529
-0.148426
-0.163118
-0.184139
-0.201192
-0.205906
-0.196823
-0.176164
-0.149301
-0.121285
-0.106997
-0.112712
-0.121536
-0.0671338
-0.0190914
0.0133643
0.0330469
0.042991
0.0468613
0.0468286
0.0661502
0.0631672
0.0527301
0.0304133
-0.0034313
-0.0384883
-0.06518
-0.0800234
-0.0823454
-0.0764741
-0.0743678
-0.0862302
-0.0878149
-0.0436191
-0.00848375
0.0113284
0.0225223
0.0280219
0.0300483
0.0301667
0.157584
0.155691
0.147402
0.126979
0.0929394
0.0528155
0.0160852
-0.011293
-0.0269854
-0.0308884
-0.0292031
-0.0283199
-0.0147832
0.0101102
0.0265231
0.0355355
0.0397453
0.0422614
0.043678
0.0433859
0.178824
0.177431
0.171245
0.155615
0.128869
0.0957575
0.0622792
0.0340902
0.0154076
0.00966752
0.0177431
0.0352815
0.0621971
0.0720708
0.0694851
0.0669806
0.065643
0.0663887
0.0664811
0.0660341
0.16932
0.168382
0.164196
0.153465
0.134709
0.110405
0.0841129
0.0606301
0.0443544
0.0406955
0.0552722
0.0848127
0.115149
0.116648
0.106964
0.100231
0.0983168
0.0988036
0.0985334
0.097391
0.149188
0.148638
0.145998
0.139035
0.126516
0.109675
0.090608
0.0729082
0.0607551
0.0600034
0.0778872
0.109361
0.137785
0.132196
0.122469
0.118508
0.119269
0.121195
0.121131
0.119618
0.126507
0.126251
0.124662
0.120293
0.112183
0.10088
0.087594
0.0748729
0.0661105
0.0666784
0.0832462
0.109963
0.130552
0.123747
0.114914
0.114484
0.117793
0.120275
0.11986
0.118244
0.104256
0.104116
0.103227
0.100529
0.0953346
0.0878148
0.0786524
0.0694953
0.062787
0.0625684
0.0738555
0.0914647
0.10176
0.0923464
0.0886725
0.0921719
0.0952301
0.0961996
0.0951605
0.0939177
0.0834767
0.0834169
0.0828647
0.0812144
0.077906
0.0728772
0.0664372
0.0594646
0.0533726
0.0503677
0.0536084
0.0597849
0.0615564
0.0520868
0.0490734
0.0541216
0.0583832
0.0589217
0.0582712
0.0574187
0.0644502
0.0644362
0.0641064
0.0630941
0.0609898
0.0575677
0.0528238
0.0469918
0.0404498
0.0333112
0.0263049
0.0180704
0.00743316
-0.00264712
0.00383966
0.0124241
0.0173268
0.0183195
0.0180278
0.0175342
0.0474263
0.0474154
0.0472081
0.0466149
0.0452996
0.0429797
0.0393471
0.0341479
0.026729
0.0153642
-0.00210517
-0.0248267
-0.0433498
-0.0465559
-0.0362357
-0.025579
-0.0204414
-0.0190635
-0.0188518
-0.0190755
0.0325786
0.0325527
0.0324306
0.0321207
0.0313636
0.0298527
0.0272676
0.0224
0.014595
0.000370353
-0.0254035
-0.0616858
-0.0862087
-0.080674
-0.0643461
-0.05221
-0.0475705
-0.0465619
-0.0459984
-0.0459508
0.0200592
0.0200189
0.019938
0.0198338
0.0195108
0.0186378
0.0166961
0.0131681
0.00606305
-0.00905923
-0.0368803
-0.0798117
-0.103748
-0.0898289
-0.0699255
-0.0604403
-0.0579769
-0.0579198
-0.0571678
-0.056796
0.00983903
0.00979066
0.00973874
0.00974631
0.00972235
0.0093485
0.00829425
0.00607916
0.00159535
-0.00841621
-0.0305138
-0.0667624
-0.0832513
-0.0659006
-0.0505174
-0.0450785
-0.0451637
-0.0462533
-0.0456175
-0.0451608
0.00169831
0.00167607
0.00162999
0.00164845
0.00182329
0.00195597
0.00189665
0.00160462
0.000972404
-0.0004102
-0.00392946
-0.0123611
-0.0223858
-0.0180066
-0.016441
-0.0158532
-0.0160894
-0.0148175
-0.0126526
-0.0116756
-0.0416157
0.125584
0.32083
0.491261
0.627545
0.734996
0.823919
0.899606
0.934065
0.910792
0.261912
0.38284
0.512976
0.625483
0.720356
0.798901
0.862508
0.907667
0.930278
0.942359
0.481303
0.564278
0.653231
0.731814
0.79942
0.855989
0.900982
0.933856
0.957615
0.975598
0.642446
0.701817
0.763614
0.820817
0.870579
0.912848
0.947567
0.975265
0.998076
1.01638
0.768118
0.811316
0.857355
0.901237
0.940003
0.97387
1.00286
1.02698
1.04738
1.06522
0.87258
0.905505
0.943671
0.979263
1.01194
1.04122
1.06682
1.08833
1.10619
1.12354
0.965215
0.993937
1.02794
1.06011
1.09009
1.11729
1.14105
1.16079
1.1763
1.19338
1.05386
1.08308
1.11711
1.14917
1.17879
1.20539
1.22827
1.24677
1.26015
1.27718
1.1492
1.18242
1.21908
1.25267
1.28273
1.30892
1.33088
1.34817
1.36004
1.37744
1.26422
1.30205
1.3407
1.37496
1.40431
1.42906
1.44944
1.46533
1.4768
1.49487
1.40917
1.44772
1.48386
1.51455
1.54024
1.56233
1.58139
1.59692
1.60935
1.62735
1.58426
1.61588
1.64206
1.66451
1.68449
1.70321
1.72093
1.73741
1.75276
1.77083
1.77287
1.79008
1.80511
1.82134
1.83725
1.85179
1.86499
1.87892
1.89646
1.91661
1.95459
1.96413
1.97567
1.98648
1.99577
2.00535
2.01614
2.0275
2.03887
2.05422
2.16183
2.16549
2.15055
2.13574
2.12946
2.13514
2.15362
2.18393
2.21611
2.24276
2.46815
2.33329
2.25665
2.21427
2.19685
2.20081
2.22821
2.28462
2.38724
2.61161
0.770842
0.768714
0.76423
0.755605
0.743379
0.731249
0.721018
0.713121
0.707501
0.704245
0.703886
0.706621
0.711722
0.718942
0.728327
0.739864
0.752514
0.763547
0.769659
0.772712
0.695297
0.701143
0.707476
0.711967
0.714436
0.71411
0.711371
0.707559
0.704046
0.701784
0.701633
0.703826
0.707485
0.71177
0.715574
0.717454
0.716516
0.713033
0.707869
0.701248
0.686873
0.689169
0.692572
0.695567
0.69764
0.699134
0.699887
0.699568
0.698539
0.697653
0.697824
0.699245
0.701055
0.702356
0.702532
0.701638
0.700086
0.697748
0.694483
0.691562
0.681365
0.682451
0.684283
0.686659
0.68868
0.690105
0.691122
0.691871
0.692269
0.692487
0.692972
0.693772
0.694363
0.694423
0.694005
0.693152
0.691679
0.689592
0.687503
0.68612
0.676165
0.676828
0.677934
0.679637
0.681415
0.683044
0.684335
0.685346
0.686224
0.687009
0.68773
0.688273
0.688457
0.688281
0.687707
0.686646
0.685213
0.683666
0.682346
0.681565
0.671193
0.671654
0.672438
0.673734
0.675217
0.676729
0.678189
0.679481
0.68061
0.681658
0.682563
0.683119
0.683251
0.682966
0.682259
0.681262
0.68013
0.678992
0.678074
0.677556
0.66637
0.666715
0.667324
0.668389
0.669678
0.671046
0.672478
0.673915
0.67528
0.67655
0.677647
0.678321
0.678482
0.678192
0.67758
0.676793
0.675933
0.675061
0.674385
0.674006
0.661642
0.66191
0.662401
0.663306
0.664469
0.665758
0.667144
0.668623
0.670152
0.671658
0.672988
0.673835
0.674115
0.673975
0.673566
0.672993
0.672333
0.671686
0.67119
0.670901
0.656927
0.65714
0.657549
0.658342
0.659424
0.660664
0.662038
0.66356
0.665216
0.666954
0.668562
0.669662
0.670172
0.670265
0.67008
0.669721
0.669263
0.668805
0.668448
0.668222
0.65214
0.652312
0.652661
0.653381
0.654416
0.655632
0.657031
0.658633
0.660441
0.662425
0.664366
0.66581
0.666632
0.667002
0.66706
0.666923
0.666672
0.666383
0.66614
0.66596
0.647193
0.647332
0.64764
0.648315
0.649331
0.65057
0.652032
0.653756
0.655767
0.658051
0.660398
0.662272
0.663469
0.66416
0.664494
0.664593
0.664544
0.664417
0.664271
0.664126
0.641999
0.642111
0.642391
0.643046
0.644079
0.645385
0.646955
0.648853
0.651134
0.653801
0.65665
0.65904
0.660677
0.661739
0.662383
0.662736
0.662895
0.662931
0.66287
0.662752
0.636465
0.636554
0.636818
0.637477
0.638564
0.639978
0.64171
0.643851
0.646479
0.649633
0.653099
0.656109
0.658267
0.659755
0.660747
0.661397
0.661786
0.661973
0.661986
0.66189
0.630485
0.630554
0.63081
0.631497
0.632674
0.634244
0.636202
0.638665
0.641738
0.645501
0.649722
0.653478
0.656253
0.658242
0.659634
0.660613
0.661254
0.661604
0.661687
0.661608
0.623935
0.623983
0.624241
0.624978
0.626286
0.628068
0.630325
0.633199
0.636836
0.641352
0.646494
0.65115
0.65466
0.657242
0.6591
0.660444
0.661377
0.661903
0.662056
0.661991
0.616663
0.616693
0.616956
0.617766
0.61925
0.621309
0.623948
0.627347
0.631691
0.637135
0.643397
0.649135
0.653524
0.656803
0.659214
0.660991
0.662257
0.66297
0.663191
0.663138
0.608483
0.608501
0.608765
0.609672
0.611385
0.613788
0.61692
0.620987
0.626217
0.63281
0.640434
0.647466
0.652891
0.656991
0.660054
0.662357
0.663994
0.664914
0.665204
0.66516
0.599086
0.599073
0.5994
0.600444
0.602444
0.605299
0.609063
0.613972
0.620311
0.62832
0.637597
0.646172
0.652824
0.657891
0.661719
0.664632
0.6667
0.667849
0.668212
0.668173
0.588198
0.58816
0.58853
0.589768
0.592137
0.595576
0.600144
0.606123
0.613855
0.623614
0.63489
0.645298
0.653388
0.659589
0.664316
0.667935
0.670501
0.671897
0.672331
0.672296
0.575341
0.575275
0.575723
0.577211
0.580063
0.584266
0.589875
0.597226
0.606716
0.618633
0.632316
0.644892
0.654658
0.662175
0.667957
0.672384
0.675511
0.677171
0.677673
0.677636
0.559878
0.559783
0.560354
0.562192
0.565692
0.570915
0.577907
0.587058
0.598799
0.613396
0.629958
0.645052
0.656738
0.665749
0.672737
0.678085
0.681829
0.683757
0.684318
0.684272
0.540882
0.54076
0.541529
0.543878
0.548292
0.554933
0.563814
0.575362
0.589999
0.607905
0.627881
0.645864
0.659717
0.670412
0.678731
0.68511
0.68951
0.691696
0.692297
0.692237
0.516961
0.516821
0.517919
0.52106
0.526848
0.535562
0.547122
0.561933
0.580313
0.602267
0.626226
0.647457
0.663701
0.676236
0.685998
0.693503
0.698555
0.700956
0.701568
0.701484
0.485812
0.485692
0.487397
0.491911
0.499985
0.511921
0.527408
0.546695
0.569867
0.596698
0.625204
0.649998
0.66879
0.683282
0.694586
0.70325
0.708873
0.711403
0.711982
0.711867
0.443324
0.443364
0.446402
0.453775
0.46608
0.483281
0.504582
0.529908
0.559059
0.591588
0.625118
0.653678
0.675101
0.691598
0.704466
0.714235
0.720259
0.722768
0.72326
0.72311
0.381799
0.38298
0.390415
0.404165
0.424194
0.449757
0.479233
0.512234
0.548444
0.587323
0.626183
0.658604
0.682656
0.701114
0.715453
0.72613
0.732335
0.734592
0.734914
0.734734
0.308713
0.310438
0.324676
0.348303
0.379177
0.414622
0.453043
0.49426
0.538083
0.584013
0.629089
0.66631
0.693821
0.714832
0.731026
0.742775
0.749109
0.751229
0.751518
0.751432
0.233232
0.239344
0.260384
0.294174
0.335391
0.380435
0.427764
0.477246
0.52876
0.581855
0.633356
0.675582
0.706684
0.730433
0.74872
0.761347
0.767427
0.769155
0.769377
0.769343
0.171494
0.179895
0.205495
0.246263
0.29556
0.348791
0.404151
0.461374
0.520246
0.580257
0.637916
0.684854
0.719277
0.745437
0.765291
0.778495
0.784569
0.786138
0.786451
0.786494
0.121263
0.13026
0.159396
0.205381
0.260799
0.320633
0.382794
0.446858
0.51244
0.578911
0.642392
0.693786
0.731283
0.759639
0.780986
0.79497
0.801204
0.803196
0.803587
0.803667
0.079165
0.0884485
0.120037
0.170016
0.230455
0.295768
0.363688
0.433724
0.505338
0.577767
0.64671
0.702316
0.742751
0.773249
0.796097
0.81106
0.817872
0.820178
0.82063
0.820709
0.0428559
0.0522595
0.0857003
0.13888
0.203465
0.27345
0.346392
0.421723
0.498795
0.576714
0.650771
0.710353
0.75357
0.786101
0.810417
0.826303
0.833815
0.836326
0.836854
0.836935
0.0106813
0.0201325
0.0549996
0.110883
0.178947
0.252959
0.33034
0.410429
0.492494
0.575514
0.654393
0.717735
0.763574
0.797954
0.823579
0.840325
0.848481
0.851231
0.851793
0.851869
-0.0186216
-0.00911802
0.0269184
0.0851389
0.156189
0.233723
0.315046
0.399448
0.486116
0.573934
0.657407
0.724341
0.772627
0.808711
0.835471
0.852928
0.861618
0.864568
0.865151
0.865206
-0.0459093
-0.036346
0.000738925
0.0609425
0.13466
0.215308
0.300157
0.38848
0.479418
0.571774
0.659672
0.730088
0.780719
0.818386
0.846107
0.864132
0.873137
0.876245
0.876864
0.876898
-0.0717364
-0.0621029
-0.0240369
0.0378606
0.113974
0.197392
0.285416
0.377314
0.472216
0.568881
0.661091
0.734954
0.787898
0.827045
0.855657
0.874069
0.883221
0.886433
0.887089
0.887098
-0.0966031
-0.0867895
-0.0478715
0.0156394
0.0938635
0.179755
0.270643
0.365803
0.464393
0.565161
0.661602
0.738947
0.79424
0.834852
0.864252
0.882967
0.892184
0.895396
0.896026
0.896024
-0.120733
-0.110687
-0.0710065
-0.00593747
0.0741565
0.162258
0.255726
0.353864
0.455871
0.560544
0.66116
0.742074
0.799821
0.841959
0.872127
0.891047
0.900232
0.903383
0.903966
0.903914
-0.144231
-0.133971
-0.0934598
-0.027021
0.0547522
0.144836
0.240616
0.341453
0.44661
0.554976
0.659723
0.744342
0.804718
0.848515
0.879442
0.898446
0.90751
0.910546
0.911062
0.910993
-0.167245
-0.156674
-0.115403
-0.0476731
0.0356075
0.127457
0.225299
0.328568
0.436608
0.548444
0.657245
0.745723
0.808984
0.854647
0.886339
0.905309
0.914147
0.916985
0.917398
0.917289
-0.189739
-0.178883
-0.13686
-0.0679273
0.0167186
0.110135
0.20981
0.315246
0.42589
0.540942
0.653682
0.746159
0.812645
0.860469
0.892979
0.911768
0.920181
0.92271
0.922988
0.922846
-0.211765
-0.200593
-0.15777
-0.0877638
-0.00189255
0.0929045
0.194193
0.301548
0.414511
0.532494
0.648995
0.745577
0.815663
0.866051
0.89956
0.918047
0.925758
0.927789
0.927902
0.927735
-0.233142
-0.221727
-0.178127
-0.107138
-0.0201774
0.0758369
0.178514
0.287544
0.402544
0.523156
0.643163
0.74389
0.817941
0.871397
0.906323
0.924539
0.931168
0.932346
0.932187
0.932006
-0.254012
-0.242244
-0.197914
-0.126029
-0.0381023
0.0589729
0.162865
0.273316
0.390078
0.513009
0.636193
0.740997
0.819317
0.876393
0.913436
0.931814
0.937081
0.936734
0.93592
0.935719
-0.274208
-0.262118
-0.217098
-0.144388
-0.0555873
0.0423976
0.147328
0.258986
0.377222
0.502117
0.628127
0.736797
0.81958
0.880777
0.920811
0.940464
0.944815
0.942216
0.939634
0.938609
-0.293788
-0.281389
-0.235624
-0.162163
-0.0725949
0.0261805
0.131988
0.244634
0.36409
0.490619
0.619037
0.731198
0.818493
0.88414
0.927906
0.950484
0.9559
0.951975
0.945433
0.936834
-0.31267
-0.300016
-0.253586
-0.179507
-0.0893324
0.010049
0.116512
0.229863
0.350236
0.478014
0.608391
0.723633
0.815535
0.886073
0.933983
0.96103
0.970542
0.967157
0.957126
0.951428
-0.330803
-0.31792
-0.270971
-0.196388
-0.105802
-0.00599256
0.100915
0.214655
0.335615
0.464187
0.595999