/*--------------------------------*- C++ -*----------------------------------*\
| =========                 |                                                 |
| \\      /  F ield         | OpenFOAM: The Open Source CFD Toolbox           |
|  \\    /   O peration     | Version:  2112                                  |
|   \\  /    A nd           | Website:  www.openfoam.com                      |
|    \\/     M anipulation  |                                                 |
\*---------------------------------------------------------------------------*/
FoamFile
{
    version     2.0;
    format      ascii;
    arch        "LSB;label=32;scalar=64";
    class       surfaceScalarField;
    location    "54.5";
    object      phi;
}
// * * * * * * * * * * * * * * * * * * * * * * * * * * * * * * * * * * * * * //

dimensions      [0 3 -1 0 0 0 0];

oriented        oriented;

internalField   nonuniform List<scalar> 
17370
(
-0.0916069
0.0960098
0.284608
-0.0775956
0.0594213
0.36495
-0.0430445
0.0316258
0.427587
-0.0223234
0.0162721
0.505303
-0.01168
0.00880638
0.602276
-0.00659498
0.00510971
0.720543
-0.00387251
0.00299194
0.863787
-0.00221871
0.00164038
1.03603
-0.00110892
0.000688029
1.24292
-0.000276952
-0.000116406
1.49158
0.000504538
-0.000917588
1.4916
0.00132128
-0.00182567
1.24319
0.00237666
-0.00312071
1.03638
0.00397898
-0.00519872
0.864126
0.00667364
-0.00887605
0.72126
0.0117398
-0.0163179
0.603793
0.0223549
-0.031642
0.508726
0.0430438
-0.0594106
0.432535
0.0775889
-0.0960038
0.36519
0.0916208
0.19739
-0.12709
0.0880212
0.0390691
-0.364355
0.354028
-0.0714769
0.0818032
-0.446654
0.454253
-0.0791728
0.0715739
-0.521011
0.529107
-0.063723
0.0556267
-0.612991
0.620759
-0.0482411
0.0404727
-0.727163
0.733684
-0.0338612
0.0273403
-0.86758
0.872433
-0.0221362
0.0172836
-1.03856
1.0419
-0.0135847
0.0102445
-1.24472
1.24713
-0.00769322
0.00528682
-1.49284
1.49486
-0.0033219
0.00130638
-1.49269
1.49451
0.000514397
-0.00233514
-1.24411
1.24602
0.00430904
-0.00622079
-1.03761
1.04009
0.0085572
-0.0110376
-0.866187
0.869816
0.0142974
-0.0179269
-0.724594
0.729749
0.0227138
-0.0278683
-0.609064
0.615634
0.034342
-0.0409115
-0.515123
0.522459
0.0486313
-0.055967
-0.43988
0.447658
0.0639896
-0.0717682
-0.374708
0.377355
0.0792646
-0.0819121
-0.256897
0.224436
0.0715621
-0.0391006
-0.0688094
0.059197
0.00961246
-0.0521112
0.0589388
-0.374836
0.368008
-0.0580927
0.054252
-0.453945
0.457786
-0.0487667
0.0442089
-0.527617
0.532175
-0.0396604
0.0357653
-0.620801
0.624696
-0.0315525
0.0275569
-0.734659
0.738655
-0.0231991
0.0193108
-0.873955
0.877844
-0.0152646
0.011807
-1.04336
1.04682
-0.00828677
0.00525307
-1.24865
1.25168
-0.00204347
-0.000939555
-1.49695
1.49993
0.00390074
-0.00704964
-1.49742
1.50057
0.00999503
-0.0133971
-1.25007
1.25347
0.0167359
-0.0206466
-1.04565
1.04956
0.0244149
-0.0286526
-0.877136
0.881373
0.0325512
-0.0366693
-0.738981
0.743099
0.0404863
-0.044958
-0.625969
0.630441
0.0494517
-0.0548743
-0.535015
0.540438
0.0586424
-0.0594024
-0.458075
0.458835
0.0524555
-0.032066
-0.336762
0.316373
0.00967385
-0.0686618
0.0589879
-0.0534077
0.0492959
0.00411178
-0.0332451
0.0436696
-0.358562
0.348137
-0.0473466
0.0467611
-0.45958
0.460165
-0.0438343
0.0406233
-0.536133
0.539344
-0.0369476
0.0335935
-0.628396
0.63175
-0.0299599
0.0267183
-0.742034
0.745276
-0.0232644
0.0200656
-0.881337
0.884536
-0.0164712
0.0131185
-1.05025
1.0536
-0.00941833
0.00601254
-1.25495
1.25835
-0.00222035
-0.00139719
-1.50328
1.5069
0.00498377
-0.00868573
-1.50406
1.50777
0.0119687
-0.015503
-1.25703
1.26056
0.0186875
-0.0220883
-1.05326
1.05666
0.0251145
-0.028395
-0.88498
0.888261
0.0314963
-0.0349931
-0.74678
0.750277
0.038232
-0.0417886
-0.634559
0.638116
0.0448966
-0.0477077
-0.54458
0.547391
0.0481734
-0.0443293
-0.45695
0.453106
0.0336995
-0.0163823
-0.297053
0.279736
0.00417949
-0.0531373
0.0489579
-0.0461265
0.0435709
0.00255567
-0.0230483
0.0333984
-0.337546
0.327196
-0.0391331
0.0400829
-0.459917
0.458967
-0.0388327
0.0365054
-0.542001
0.544329
-0.0338643
0.0313187
-0.634718
0.637264
-0.0283424
0.0254945
-0.748361
0.751209
-0.022256
0.0192411
-0.887591
0.890606
-0.0158887
0.0127535
-1.05677
1.05991
-0.00919555
0.00579456
-1.26175
1.26515
-0.00188325
-0.0019151
-1.51063
1.51443
0.00567384
-0.0094643
-1.51155
1.51534
0.0127025
-0.0160416
-1.26402
1.26736
0.0189552
-0.0220549
-1.05987
1.06297
0.0248429
-0.0278485
-0.891454
0.89446
0.0305038
-0.0332904
-0.753455
0.756242
0.0356782
-0.0381602
-0.641067
0.643549
0.0403516
-0.0414224
-0.549224
0.550295
0.0402865
-0.0342801
-0.447978
0.441972
0.0236311
-0.0103784
-0.264544
0.251291
0.00263958
-0.0457129
0.0430733
-0.0414526
0.0396523
0.00180029
-0.0169446
0.0262298
-0.317328
0.308043
-0.0328256
0.0349456
-0.457407
0.455287
-0.0345105
0.032811
-0.546359
0.548059
-0.030583
0.028455
-0.639577
0.641705
-0.0260172
0.023638
-0.75381
0.756189
-0.0208217
0.0180736
-0.893463
0.896211
-0.0148872
0.0118508
-1.06295
1.06599
-0.00838388
0.00506732
-1.26847
1.27178
-0.00122749
-0.00251952
-1.51819
1.52194
0.0062156
-0.00990348
-1.51908
1.52277
0.0130141
-0.016204
-1.27063
1.27382
0.0189588
-0.0218208
-1.06599
1.06885
0.0242745
-0.0267878
-0.897243
0.899756
0.0289181
-0.0311133
-0.758682
0.760877
0.0330413
-0.0350654
-0.645773
0.647797
0.036567
-0.0367575
-0.550873
0.551063
0.034351
-0.0273573
-0.435376
0.428382
0.017672
-0.00747913
-0.239711
0.229518
0.00190309
-0.0408626
0.0389595
-0.0381027
0.0367512
0.00135154
-0.0129456
0.020944
-0.299404
0.291406
-0.0277106
0.0306317
-0.452735
0.449813
-0.0308375
0.0297121
-0.549498
0.550624
-0.0277124
0.0257858
-0.643765
0.645692
-0.0235737
0.0214314
-0.758435
0.760577
-0.0189217
0.0164514
-0.898761
0.901231
-0.0135292
0.010672
-1.06889
1.07174
-0.00734074
0.00412334
-1.27502
1.27823
-0.000390451
-0.00323973
-1.5256
1.52923
0.00680616
-0.0103484
-1.52638
1.52992
0.0133083
-0.0162924
-1.27693
1.27992
0.0187958
-0.0213105
-1.07156
1.07408
0.0234123
-0.0255424
-0.902068
0.904198
0.0273707
-0.0292741
-0.76292
0.764823
0.0309481
-0.0327046
-0.649661
0.651418
0.0335417
-0.0329948
-0.550887
0.55034
0.0296642
-0.0223529
-0.421172
0.413861
0.0138412
-0.00577807
-0.220491
0.212428
0.00147678
-0.0372971
0.0358204
-0.0355705
0.0345293
0.00104119
-0.0101214
0.0168948
-0.284044
0.27727
-0.0234124
0.0267973
-0.446639
0.443254
-0.0275822
0.0268909
-0.551525
0.552217
-0.0251269
0.0233453
-0.647588
0.64937
-0.0212843
0.0192784
-0.762652
0.764658
-0.016917
0.014599
-0.90356
0.905878
-0.0118718
0.00919703
-1.07444
1.07712
-0.00604922
0.00297594
-1.28134
1.28441
0.000613845
-0.00410515
-1.53277
1.53626
0.00751765
-0.0108722
-1.53336
1.53672
0.0136284
-0.0163493
-1.28278
1.2855
0.0185898
-0.0208148
-1.07647
1.07869
0.0226758
-0.0245642
-0.906223
0.908111
0.0261787
-0.0278549
-0.766613
0.768289
0.0293227
-0.0307512
-0.653024
0.654452
0.0310823
-0.0298162
-0.549444
0.548178
0.0258679
-0.0186347
-0.406563
0.39933
0.0112175
-0.00465015
-0.205183
0.198616
0.00119342
-0.0345025
0.0333091
-0.0336145
0.0328027
0.000811764
-0.00802922
0.01373
-0.271062
0.265361
-0.0197733
0.0233662
-0.439754
0.436162
-0.0246371
0.0241967
-0.552816
0.553256
-0.0227076
0.021038
-0.65115
0.652819
-0.0190763
0.0171634
-0.766617
0.768529
-0.0149074
0.0126887
-0.908081
0.9103
-0.0100739
0.00751649
-1.07965
1.08221
-0.00451861
0.00159061
-1.28736
1.29028
0.00182957
-0.00515214
-1.53964
1.54296
0.00837958
-0.011513
-1.53995
1.54308
0.0140514
-0.0165273
-1.28811
1.29059
0.018552
-0.0205492
-1.08084
1.08284
0.0222052
-0.0238799
-0.909916
0.911591
0.0253127
-0.0268015
-0.769877
0.771365
0.0280806
-0.0291376
-0.65567
0.656727
0.0291023
-0.0271732
-0.546584
0.544654
0.0228296
-0.0158695
-0.392229
0.385269
0.00936962
-0.00386861
-0.192633
0.187132
0.000997026
-0.0322275
0.0312305
-0.0320885
0.0314537
0.000634804
-0.00641907
0.0112034
-0.260146
0.255361
-0.0166648
0.0202686
-0.432562
0.428958
-0.0218735
0.0216654
-0.553619
0.553827
-0.0204164
0.0188131
-0.654507
0.65611
-0.0169126
0.0150535
-0.770412
0.772271
-0.0128616
0.0107079
-0.912411
0.914564
-0.00817189
0.00569546
-1.08465
1.08713
-0.00280164
-3.30182e-06
-1.2931
1.2959
0.0032755
-0.00642865
-1.54616
1.54931
0.00946323
-0.0123791
-1.54609
1.549
0.0147194
-0.0169807
-1.29297
1.29523
0.0188096
-0.0205927
-1.08477
1.08656
0.0220569
-0.0235344
-0.913194
0.914671
0.0248023
-0.0261185
-0.772772
0.774088
0.0272513
-0.0278987
-0.657558
0.658206
0.0274997
-0.0250192
-0.542463
0.539983
0.0204394
-0.0138232
-0.378492
0.371876
0.00805384
-0.00331977
-0.182055
0.177321
0.00085978
-0.030314
0.0294542
-0.0308982
0.0304062
0.000492018
-0.00512662
0.00912172
-0.250997
0.247002
-0.013956
0.0174212
-0.425431
0.421966
-0.0192189
0.0192071
-0.553981
0.553993
-0.0181605
0.016595
-0.657764
0.659329
-0.0147223
0.0128841
-0.774114
0.775952
-0.0107182
0.00859617
-0.916615
0.918737
-0.00610677
0.00368536
-1.08949
1.09191
-0.000865299
-0.00185544
-1.2986
1.30132
0.00499136
-0.007984
-1.55234
1.55533
0.0108337
-0.013543
-1.55179
1.5545
0.0156933
-0.0177451
-1.2974
1.29945
0.0193823
-0.0209568
-1.08829
1.08986
0.0222387
-0.0235357
-0.916093
0.91739
0.0246566
-0.0258168
-0.775335
0.776495
0.0267651
-0.0270445
-0.658647
0.658926
0.0262595
-0.0233174
-0.537283
0.534341
0.018604
-0.0123289
-0.365451
0.359176
0.00712224
-0.00293795
-0.172897
0.168712
0.000765807
-0.0286528
0.0278869
-0.0299813
0.0296097
0.000371639
-0.00404653
0.00734914
-0.243376
0.240073
-0.0115439
0.0147609
-0.418639
0.415422
-0.0166277
0.0167793
-0.553975
0.553824
-0.015826
0.0143423
-0.660934
0.662418
-0.012475
0.0106284
-0.777783
0.77963
-0.00845167
0.00632545
-0.920762
0.922888
-0.00384417
0.00144385
-1.09422
1.09662
0.00132884
-0.00398541
-1.30394
1.3066
0.00701983
-0.00988087
-1.55821
1.56107
0.0125684
-0.0150836
-1.55709
1.5596
0.0170487
-0.0188934
-1.30142
1.30326
0.0203423
-0.0217135
-1.09141
1.09278
0.0228182
-0.0239407
-0.918635
0.919758
0.0249162
-0.02591
-0.777582
0.778576
0.0266092
-0.0265859
-0.659061
0.659038
0.0253988
-0.0220516
-0.531209
0.527862
0.0172543
-0.0112715
-0.353076
0.347093
0.00648171
-0.00268204
-0.164753
0.160953
0.000704838
-0.0271631
0.0264583
-0.0292979
0.0290333
0.000264572
-0.00310212
0.00578061
-0.237104
0.234426
-0.00933609
0.0122212
-0.412391
0.409506
-0.0140424
0.014285
-0.553684
0.553442
-0.0133824
0.0119504
-0.663963
0.665395
-0.0100635
0.00817856
-0.781477
0.783362
-0.00595725
0.00379704
-0.924917
0.927077
-0.00129085
-0.00111369
-1.09891
1.10131
0.00387504
-0.00649576
-1.30916
1.31178
0.00945315
-0.0122018
-1.56383
1.56658
0.0147402
-0.0170695
-1.56199
1.56432
0.0188534
-0.0204927
-1.30501
1.30665
0.0217529
-0.0229159
-1.09413
1.09529
0.0238337
-0.0247748
-0.920838
0.921779
0.0256053
-0.0264276
-0.779486
0.780308
0.0268507
-0.0265736
-0.658882
0.658605
0.0249458
-0.0212156
-0.524344
0.520614
0.0163422
-0.0105752
-0.341256
0.335489
0.00607296
-0.00252566
-0.157312
0.153765
0.00067006
-0.0257833
0.0251132
-0.0288251
0.0286618
0.000163226
-0.00222953
0.00432301
-0.232059
0.229966
-0.00723492
0.00971921
-0.406844
0.40436
-0.0113889
0.0116456
-0.553262
0.553005
-0.0107621
0.00934392
-0.666925
0.668344
-0.00741205
0.00546181
-0.785251
0.787202
-0.00316397
0.000938838
-0.929137
0.931362
0.00162849
-0.00407684
-1.10362
1.10607
0.00686134
-0.00947363
-1.31431
1.31692
0.0123792
-0.0150311
-1.56922
1.57187
0.0174282
-0.0195744
-1.56653
1.56867
0.021177
-0.022608
-1.30819
1.30962
0.0236735
-0.0246181
-1.09645
1.09739
0.0253369
-0.0260799
-0.922678
0.923421
0.026755
-0.0274313
-0.781039
0.781716
0.0275531
-0.0269221
-0.658103
0.657471
0.0248735
-0.0207762
-0.516742
0.512645
0.0158105
-0.0101744
-0.329836
0.324199
0.00584897
-0.00244806
-0.150325
0.146924
0.000656045
-0.0244639
0.0238078
-0.0285543
0.0284934
6.09829e-05
-0.00137937
0.00290287
-0.228175
0.226651
-0.00515706
0.00717635
-0.402133
0.400114
-0.0085912
0.00878262
-0.552864
0.552672
-0.00787695
0.00644235
-0.669892
0.671327
-0.00443188
0.00238818
-0.789157
0.791201
2.06158e-05
-0.00235059
-0.933489
0.935819
0.00502011
-0.00754653
-1.10843
1.11095
0.0103904
-0.0130255
-1.31945
1.32208
0.0159102
-0.0184872
-1.57442
1.577
0.0207563
-0.0227231
-1.57069
1.57266
0.0241396
-0.0253526
-1.31095
1.31216
0.0262123
-0.0269182
-1.09835
1.09906
0.0274187
-0.0279465
-0.924132
0.92466
0.0284562
-0.0289342
-0.782231
0.782709
0.0287682
-0.0277272
-0.656586
0.655545
0.025228
-0.02074
-0.50842
0.503932
0.0156366
-0.0100347
-0.318641
0.313039
0.00578398
-0.00243794
-0.14359
0.140244
0.000659921
-0.0231655
0.0225056
-0.0284885
0.0285362
-4.76838e-05
-0.000505882
0.00145443
-0.225432
0.224483
-0.00302335
0.00451286
-0.398386
0.396896
-0.00556892
0.00560795
-0.552659
0.55262
-0.00461888
0.00310866
-0.672941
0.674451
-0.000983072
-0.00119645
-0.793254
0.795434
0.00376489
-0.00623057
-0.938049
0.940515
0.0090396
-0.011677
-1.11339
1.11603
0.0146158
-0.0173015
-1.32464
1.32732
0.0201854
-0.022695
-1.57947
1.58198
0.0248337
-0.0266097
-1.57449
1.57626
0.0278241
-0.0287987
-1.31326
1.31423
0.0294352
-0.0298953
-1.09979
1.10025
0.0301693
-0.0304653
-0.925165
0.925461
0.0307869
-0.0310027
-0.782912
0.783128
0.0305697
-0.0290349
-0.654231
0.652697
0.0260404
-0.0211202
-0.499333
0.494413
0.0158135
-0.0101407
-0.307476
0.301803
0.0058662
-0.00249015
-0.136927
0.133551
0.000680354
-0.0218528
0.0211724
-0.0286388
0.028802
-0.000163287
0.000416936
-7.40605e-05
-0.223853
0.223511
-0.000759874
0.00163902
-0.395727
0.394848
-0.00223242
0.00203446
-0.552827
0.553025
-0.000908101
-0.000737471
-0.676198
0.677844
0.00302509
-0.00538188
-0.797628
0.799984
0.00815485
-0.0108051
-0.942886
0.945536
0.0138071
-0.016602
-1.11858
1.12138
0.0196797
-0.0224477
-1.32993
1.3327
0.0253573
-0.0278142
-1.58438
1.58684
0.0298244
-0.0313991
-1.57789
1.57946
0.0324026
-0.03312
-1.31507
1.31579
0.0335128
-0.0337032
-1.10073
1.10092
0.0337314
-0.0337741
-0.92573
0.925773
0.0338893
-0.0337796
-0.782974
0.782864
0.0330112
-0.0308847
-0.650921
0.648795
0.0273439
-0.0219271
-0.489386
0.483969
0.016334
-0.010478
-0.296124
0.290268
0.00608373
-0.0025986
-0.130168
0.126683
0.000715463
-0.0204935
0.019778
-0.0290447
0.0293476
-0.000302942
0.00140815
-0.00171377
-0.223526
0.223832
0.00171998
-0.00155925
-0.394285
0.394125
0.00156068
-0.00210138
-0.55357
0.554111
0.00344482
-0.00527242
-0.679785
0.681613
0.00777605
-0.0103592
-0.80235
0.804933
0.0133947
-0.0162838
-0.948095
0.950984
0.0195344
-0.0225322
-1.1241
1.12709
0.0257918
-0.028674
-1.33539
1.33827
0.0316316
-0.0340409
-1.58919
1.5916
0.0359115
-0.0372557
-1.58087
1.58221
0.0380207
-0.0384461
-1.31633
1.31676
0.0385713
-0.0384735
-1.10109
1.10099
0.0382339
-0.0379975
-0.925763
0.925526
0.0378997
-0.0373536
-0.782283
0.781736
0.0361502
-0.033362
-0.646494
0.643705
0.0291952
-0.0231883
-0.478438
0.472432
0.0172049
-0.0110434
-0.28436
0.278199
0.00643199
-0.0027606
-0.123158
0.119487
0.000764366
-0.019059
0.0182947
-0.0297222
0.0302014
-0.000479203
0.00268953
-0.0037392
-0.224521
0.225571
0.00461386
-0.00524809
-0.394288
0.394922
0.00596816
-0.0069614
-0.555134
0.556127
0.00861048
-0.0106979
-0.683805
0.685893
0.0135038
-0.0163844
-0.80753
0.810411
0.019751
-0.0229339
-0.953785
0.956968
0.0264876
-0.0297335
-1.13002
1.13326
0.0332164
-0.0362378
-1.34108
1.3441
0.0392508
-0.0415987
-1.59388
1.59623
0.0433003
-0.0443817
-1.58336
1.58444
0.044851
-0.0449565
-1.31698
1.31708
0.0447791
-0.0443551
-1.10081
1.10038
0.0438152
-0.0432687
-0.925188
0.924642
0.0428665
-0.041872
-0.780682
0.779688
0.0401228
-0.0365627
-0.640788
0.637228
0.0316608
-0.0249358
-0.466291
0.459566
0.0184362
-0.0118353
-0.271935
0.265334
0.00690668
-0.0029729
-0.115744
0.111811
0.000825751
-0.0175228
0.016697
-0.0307507
0.0314476
-0.000696971
0.00417495
-0.00611266
-0.227039
0.228977
0.00804974
-0.00958257
-0.395946
0.397479
0.0111226
-0.0126908
-0.55777
0.559338
0.0147823
-0.0172194
-0.688429
0.690866
0.0204232
-0.0236766
-0.81331
0.816563
0.0274562
-0.0310078
-0.960071
0.963623
0.0349417
-0.0384942
-1.13645
1.14
0.0422456
-0.0454271
-1.34704
1.35023
0.0484968
-0.0507635
-1.59844
1.6007
0.0522581
-0.0530262
-1.58529
1.58606
0.0531438
-0.0528782
-1.31693
1.31666
0.0523484
-0.0515448
-1.09979
1.09899
0.0506642
-0.0497624
-0.923933
0.923031
0.0489607
-0.0474738
-0.778157
0.776671
0.0450393
-0.0405694
-0.63357
0.6291
0.0347926
-0.0271914
-0.452681
0.44508
0.0200305
-0.0128458
-0.258579
0.251394
0.00749814
-0.00322893
-0.107776
0.103507
0.000897022
-0.0158608
0.0149638
-0.0322098
0.0331938
-0.000983986
0.00605209
-0.00904344
-0.231337
0.234328
0.0122375
-0.0148287
-0.399524
0.402115
0.0173372
-0.0196053
-0.561751
0.564019
0.0222717
-0.0251747
-0.693839
0.696742
0.0288945
-0.0326226
-0.819847
0.823575
0.036921
-0.0409265
-0.967111
0.971117
0.0453152
-0.0492213
-1.14349
1.1474
0.053267
-0.0566079
-1.35331
1.35665
0.0597044
-0.0618353
-1.60279
1.60492
0.0630496
-0.0634132
-1.58655
1.58692
0.0631244
-0.0624101
-1.31604
1.31533
0.0614819
-0.0602466
-1.09794
1.0967
0.0589781
-0.0577073
-0.921893
0.920622
0.056387
-0.0542971
-0.774612
0.772523
0.051043
-0.0454804
-0.624547
0.618985
0.0386471
-0.0299712
-0.437287
0.428611
0.0219806
-0.0140576
-0.244003
0.23608
0.00818969
-0.0035184
-0.0991116
0.0944403
0.000974387
-0.0140557
0.0130813
-0.0342295
0.0356038
-0.00137433
0.00849238
-0.012842
-0.237733
0.242082
0.0175221
-0.0213496
-0.405395
0.409223
0.0249983
-0.0281248
-0.567408
0.570534
0.031556
-0.0350938
-0.700301
0.703839
0.039501
-0.0438332
-0.827344
0.831676
0.0487581
-0.0532897
-0.975066
0.979598
0.0581854
-0.0624653
-1.15123
1.15551
0.0667921
-0.0702447
-1.35986
1.36331
0.0732758
-0.0751549
-1.6068
1.60868
0.0759665
-0.0758044
-1.58694
1.58678
0.0750213
-0.0737379
-1.31412
1.31284
0.0723561
-0.0706387
-1.09511
1.09339
0.0689532
-0.0672432
-0.919007
0.917297
0.0653216
-0.0625145
-0.769828
0.767021
0.0582528
-0.0513575
-0.613339
0.606444
0.0432403
-0.0332545
-0.419713
0.409727
0.0242482
-0.0154293
-0.227904
0.219085
0.00894841
-0.00382329
-0.0896263
0.0845012
0.00105182
-0.0120979
0.0110461
-0.0370028
0.0389354
-0.00193259
0.0119021
-0.0179548
-0.246764
0.252817
0.0244366
-0.0297172
-0.414046
0.419327
0.0347159
-0.0388819
-0.575144
0.57931
0.0432805
-0.0476491
-0.708169
0.712537
0.0529356
-0.0580081
-0.836049
0.841122
0.0636718
-0.0687975
-0.984078
0.989204
0.0742297
-0.0788635
-1.1597
1.16433
0.0833989
-0.0868552
-1.36656
1.37002
0.0896655
-0.0911268
-1.61022
1.61168
0.0913648
-0.0905112
-1.58619
1.58534
0.0890903
-0.0871242
-1.31098
1.30901
0.0851778
-0.0829293
-1.09117
1.08892
0.0807935
-0.0784859
-0.915105
0.912798
0.0759902
-0.0722317
-0.763471
0.759713
0.066731
-0.0582146
-0.599453
0.590936
0.0485411
-0.036973
-0.399501
0.387933
0.0267508
-0.0168854
-0.209985
0.20012
0.00971875
-0.00411498
-0.0792331
0.0736294
0.00112004
-0.00999234
0.0088723
-0.0408555
0.0436552
-0.00279971
0.0168316
-0.0251388
-0.259136
0.267444
0.0338623
-0.0408959
-0.426145
0.433179
0.0475381
-0.0529648
-0.585423
0.590849
0.0585871
-0.0640231
-0.71784
0.723276
0.0703983
-0.0763384
-0.846222
0.852162
0.0828075
-0.088519
-0.994264
0.999976
0.0944048
-0.0992548
-1.16879
1.17364
0.10379
-0.107022
-1.37315
1.37638
0.109334
-0.11011
-1.61266
1.61343
0.109529
-0.107761
-1.58393
1.58216
0.105531
-0.102746
-1.30639
1.30361
0.100123
-0.0972594
-1.08597
1.08311
0.0946244
-0.0916396
-0.909818
0.906833
0.088482
-0.0835195
-0.755066
0.750103
0.0764709
-0.0659757
-0.582274
0.571779
0.0544282
-0.0409785
-0.376133
0.362684
0.0293389
-0.0183013
-0.189985
0.178947
0.0104142
-0.00435131
-0.0679104
0.0618475
0.00116609
-0.00776292
0.00659683
-0.04636
0.0506222
-0.00426218
0.0244854
-0.0358604
-0.276018
0.287392
0.0474885
-0.0568453
-0.442717
0.452074
0.0654981
-0.0723873
-0.598845
0.605734
0.079528
-0.0864346
-0.72969
0.736597
0.0939617
-0.100686
-0.858068
0.864793
0.107788
-0.113857
-1.00551
1.01158
0.119874
-0.1246
-1.17813
1.18286
0.128726
-0.131341
-1.37908
1.38169
0.132711
-0.132404
-1.61351
1.61321
0.130652
-0.127685
-1.57969
1.57673
0.12446
-0.1207
-1.30008
1.29631
0.117312
-0.113762
-1.07935
1.0758
0.110593
-0.106824
-0.902933
0.899164
0.102801
-0.0962652
-0.744054
0.737517
0.087289
-0.0743912
-0.561023
0.548125
0.0606331
-0.0450158
-0.349056
0.333438
0.0317846
-0.0195023
-0.167737
0.155454
0.0109178
-0.00447729
-0.055747
0.0493065
0.00117301
-0.00546006
0.00428705
-0.0545792
0.061909
-0.00732989
0.0379361
-0.0537778
-0.299547
0.315389
0.0694637
-0.0820102
-0.465407
0.477954
0.0928287
-0.101072
-0.615867
0.62411
0.10972
-0.117871
-0.744117
0.752268
0.126272
-0.133367
-0.871296
0.878391
0.140524
-0.146359
-1.01721
1.02304
0.151841
-0.155815
-1.18692
1.19089
0.158867
-0.16025
-1.38346
1.38484
0.160091
-0.158229
-1.61192
1.61006
0.154941
-0.150477
-1.57291
1.56844
0.146019
-0.14108
-1.29171
1.28677
0.136792
-0.132481
-1.07113
1.06682
0.128664
-0.124064
-0.894217
0.889618
0.118766
-0.110179
-0.729612
0.721025
0.0987708
-0.0829466
-0.534709
0.518885
0.066659
-0.0487114
-0.31774
0.299793
0.0338305
-0.0203495
-0.143269
0.129788
0.0111563
-0.00446518
-0.0430056
0.0363145
0.00112804
-0.00317017
0.00204213
-0.0687522
0.0728662
-0.00411394
0.0290887
-0.04281
-0.333719
0.34744
0.0566898
-0.0681562
-0.495651
0.507117
0.0783688
-0.087861
-0.636047
0.645539
0.0983873
-0.10795
-0.760022
0.769585
0.118526
-0.127913
-0.884624
0.894011
0.137857
-0.146634
-1.02793
1.0367
0.155681
-0.163291
-1.19375
1.20136
0.170626
-0.1762
-1.38503
1.3906
0.180713
-0.18303
-1.60693
1.60925
0.183108
-0.181498
-1.56289
1.56128
0.178851
-0.175224
-1.28089
1.27726
0.171941
-0.168114
-1.06108
1.05725
0.164788
-0.160168
-0.88324
0.87862
0.15304
-0.140584
-0.710622
0.698167
0.123778
-0.101344
-0.502228
0.479794
0.079327
-0.0559521
-0.281742
0.258367
0.0375956
-0.0218112
-0.11694
0.101156
0.0115608
-0.0044831
-0.0301929
0.0231152
0.0011136
-0.00101087
-0.000102723
-0.0799933
0.0781742
0.0018191
0.00748422
-0.0165195
-0.363985
0.37302
0.0270456
-0.0351371
-0.523286
0.531378
0.0432927
-0.0513197
-0.65747
0.665497
0.0610142
-0.0699758
-0.778826
0.787787
0.0794584
-0.088091
-0.902855
0.911488
0.0971979
-0.104887
-1.04518
1.05287
0.112977
-0.119396
-1.20875
1.21517
0.125485
-0.129765
-1.3958
1.40008
0.132542
-0.133278
-1.61062
1.61136
0.131757
-0.128506
-1.55877
1.55552
0.124228
-0.118876
-1.27292
1.26757
0.113931
-0.108471
-1.05155
1.04609
0.103415
-0.0972452
-0.869177
0.863007
0.0898819
-0.0790211
-0.68177
0.670909
0.0664586
-0.051363
-0.455864
0.440768
0.0379747
-0.0253276
-0.235301
0.222653
0.0163359
-0.00917822
-0.0863231
0.0791655
0.00478913
-0.00184958
-0.0165007
0.0135611
0.000409359
0.00118113
-0.00159049
-0.0814512
0.0785828
0.00286846
-0.00166316
-0.00359049
-0.384415
0.389669
0.0107651
-0.0166193
-0.543659
0.549513
0.0226765
-0.0296789
-0.675578
0.682581
0.038054
-0.0458329
-0.795892
0.80367
0.0542911
-0.0618218
-0.919385
0.926916
0.0695056
-0.076334
-1.06036
1.06719
0.0832896
-0.0888666
-1.22112
1.22669
0.0936613
-0.0967347
-1.40363
1.4067
0.0984955
-0.0980783
-1.61129
1.61087
0.0954296
-0.0910621
-1.55153
1.54717
0.0858945
-0.0797789
-1.26186
1.25575
0.0737038
-0.0671592
-1.03918
1.03264
0.0610516
-0.0540312
-0.853473
0.846452
0.0471846
-0.0382109
-0.656549
0.647575
0.029194
-0.0197434
-0.423817
0.414366
0.0129021
-0.00768496
-0.209355
0.204138
0.0046713
-0.00269052
-0.0719287
0.0699479
0.00154927
-0.000711666
-0.010606
0.00976834
0.000110503
0.00215826
-0.00226876
-0.0802195
0.07751
0.00270956
-0.00526083
0.00272417
-0.398046
0.400583
0.00191289
-0.00634454
-0.558718
0.56315
0.0114646
-0.0173323
-0.690528
0.696396
0.0244896
-0.0311534
-0.810836
0.8175
0.0383809
-0.0448341
-0.933922
0.940375
0.051789
-0.0575574
-1.07358
1.07935
0.0636045
-0.0679714
-1.23183
1.2362
0.0719596
-0.0743318
-1.40951
1.41188
0.0751849
-0.0737624
-1.60993
1.60851
0.0705468
-0.0656478
-1.54215
1.53725
0.0600208
-0.0530782
-1.24925
1.24231
0.0465847
-0.039528
-1.02507
1.01802
0.032816
-0.0257506
-0.836838
0.829773
0.0192183
-0.012085
-0.635546
0.628413
0.00593525
-0.00108584
-0.403634
0.398785
-0.00122035
0.0020383
-0.197141
0.196323
-0.00190342
0.00120682
-0.0668984
0.067595
-0.00063409
0.000214084
-0.00859449
0.00901449
-0.000121438
0.00265925
-0.00253782
-0.0787426
0.0763428
0.00239976
-0.00638302
0.00544081
-0.407145
0.408087
-0.00203136
-0.00119078
-0.570787
0.574009
0.00535616
-0.01068
-0.703069
0.708393
0.0166962
-0.0225461
-0.823479
0.829329
0.0288021
-0.0343982
-0.946378
0.951974
0.0403491
-0.0454694
-1.08497
1.09009
0.0505568
-0.0545289
-1.24041
1.24438
0.0578507
-0.0596715
-1.41386
1.41568
0.0599848
-0.0581249
-1.60685
1.60499
0.0545644
-0.0491926
-1.5316
1.52623
0.0433776
-0.0364098
-1.23525
1.22828
0.0297442
-0.0222752
-1.0102
1.00274
0.015445
-0.00823653
-0.820475
0.813266
0.00226582
0.00336876
-0.618582
0.612947
-0.00738638
0.00949869
-0.391549
0.389437
-0.00942853
0.00799291
-0.193119
0.194555
-0.00613704
0.0039749
-0.0673893
0.0695514
-0.00226158
0.000881175
-0.00921808
0.0105985
-0.000298793
0.00266771
-0.00236892
-0.0773718
0.0753166
0.00205525
-0.00626172
0.00582382
-0.413393
0.413831
-0.00379676
0.00120995
-0.580089
0.582676
0.00286224
-0.00741411
-0.713701
0.718253
0.0125876
-0.0176689
-0.8344
0.839481
0.0232358
-0.0282392
-0.957222
0.962226
0.0336852
-0.0381648
-1.09493
1.09941
0.0427268
-0.0462716
-1.24806
1.2516
0.0491313
-0.0505955
-1.41721
1.41868
0.0505831
-0.0488966
-1.60302
1.60133
0.045227
-0.0400206
-1.52045
1.51524
0.0342511
-0.0273248
-1.22113
1.21421
0.0209038
-0.0133237
-0.994856
0.987276
0.00647062
0.000479497
-0.804578
0.797628
-0.00595717
0.010602
-0.604619
0.599974
-0.0135701
0.0146992
-0.384375
0.383246
-0.013478
0.0110297
-0.193637
0.196085
-0.00853392
0.00566089
-0.0708702
0.0737432
-0.00332143
0.00138736
-0.0117391
0.0136732
-0.000412128
0.00222426
-0.00181213
-0.0763343
0.074734
0.00160027
-0.00538532
0.0052767
-0.41804
0.418149
-0.0036515
0.0017062
-0.588195
0.59014
0.00210979
-0.00622351
-0.722901
0.727015
0.0111321
-0.0155104
-0.84417
0.848548
0.0204074
-0.0248507
-0.9672
0.971644
0.0300278
-0.0341014
-1.10392
1.108
0.0381471
-0.0414929
-1.25495
1.2583
0.0444934
-0.0457985
-1.42015
1.42146
0.0458388
-0.0441079
-1.59927
1.59753
0.040846
-0.0355583
-1.50986
1.50457
0.0301348
-0.0236049
-1.20715
1.20062
0.0173175
-0.0102942
-0.979658
0.972634
0.00377323
0.00290893
-0.789463
0.78278
-0.00791425
0.0121553
-0.592401
0.58816
-0.014739
0.0155356
-0.379352
0.378555
-0.0144401
0.0120019
-0.19609
0.198528
-0.00937592
0.00632969
-0.0757685
0.0788148
-0.00379945
0.00165539
-0.0152317
0.0173758
-0.000471369
0.0015101
-0.00103873
-0.0757983
0.0745439
0.00125446
-0.00431445
0.00432882
-0.421737
0.421723
-0.00289966
0.00104681
-0.595245
0.597098
0.00262436
-0.00629831
-0.731159
0.734833
0.0105046
-0.0147304
-0.852869
0.857095
0.0192589
-0.0238442
-0.975895
0.980481
0.028302
-0.0321968
-1.11216
1.11606
0.0363728
-0.0394793
-1.26152
1.26463
0.0420143
-0.0437435
-1.42267
1.4244
0.0439785
-0.0425349
-1.59587
1.59442
0.0394263
-0.0347024
-1.49949
1.49477
0.0296198
-0.0235034
-1.19385
1.18774
0.0177436
-0.011236
-0.965524
0.959017
0.00520553
0.000953482
-0.775432
0.769273
-0.0059319
0.00996906
-0.58109
0.577053
-0.0122188
0.0133221
-0.375273
0.37417
-0.0127637
0.0107398
-0.198512
0.200536
-0.00851012
0.00582842
-0.080712
0.0833937
-0.00355864
0.00158167
-0.0189444
0.0209214
-0.00044584
0.000670629
-0.000224789
-0.0757882
0.0747463
0.00104187
-0.00304677
0.00282428
-0.425059
0.425281
-0.00162906
-0.000218752
-0.601708
0.603556
0.00368151
-0.00723137
-0.738833
0.742382
0.0112688
-0.0150931
-0.861099
0.864924
0.0197396
-0.0235422
-0.98449
0.988292
0.02797
-0.0316864
-1.1201
1.12382
0.035753
-0.0390633
-1.26772
1.27103
0.041898
-0.0434298
-1.42589
1.42743
0.044024
-0.042994
-1.59291
1.59188
0.0405465
-0.0362073
-1.48998
1.48564
0.0316805
-0.0261453
-1.18185
1.17632
0.020956
-0.0149532
-0.952387
0.946384
0.00949875
-0.00361845
-0.762434
0.756553
-0.00129552
0.00543014
-0.570657
0.566522
-0.00783376
0.00901638
-0.370798
0.369615
-0.00913208
0.00796303
-0.200105
0.201274
-0.00647595
0.00452423
-0.084776
0.0867277
-0.0028092
0.00128789
-0.0221503
0.0236716
-0.000370567
-0.000118383
0.000488951
-0.0760595
0.0753383
0.000721215
-0.00190333
0.00125418
-0.42848
0.429129
-0.000248268
-0.00188887
-0.607361
0.609498
0.00495384
-0.00835583
-0.745985
0.749387
0.0122277
-0.0161814
-0.868601
0.872555
0.0202142
-0.0241765
-0.992296
0.996258
0.028568
-0.0320818
-1.12795
1.13146
0.0362467
-0.0395253
-1.27414
1.27742
0.0424403
-0.0445221
-1.42937
1.43145
0.0456332
-0.0449338
-1.59091
1.59021
0.0428243
-0.0393505
-1.48157
1.4781
0.0355327
-0.0305419
-1.17081
1.16582
0.0257335
-0.0203772
-0.940367
0.935011
0.014934
-0.00954472
-0.750068
0.744679
0.00483251
-0.000355172
-0.560757
0.55628
-0.00231327
0.00406401
-0.365694
0.363943
-0.00472477
0.00453914
-0.20039
0.200575
-0.00381103
0.00275005
-0.0873182
0.0883792
-0.00179123
0.000863918
-0.0244019
0.0253292
-0.000268898
-0.000710652
0.00097955
-0.0767531
0.0761874
0.000565673
-0.000935953
0.000394212
-0.432131
0.432673
0.00131065
-0.00327535
-0.613248
0.615213
0.00648793
-0.00976289
-0.752629
0.755904
0.0134891
-0.0170442
-0.876167
0.879722
0.0212008
-0.0248504
-1.00022
1.00387
0.0291949
-0.033148
-1.13542
1.13938
0.036968
-0.0405916
-1.28074
1.28436
0.043949
-0.0461506
-1.43344
1.43564
0.0476775
-0.0478307
-1.58977
1.58992
0.0462777
-0.0435653
-1.4746
1.47188
0.0400709
-0.0356239
-1.16097
1.15652
0.0312788
-0.0261533
-0.929277
0.924151
0.021188
-0.0160064
-0.738517
0.733335
0.0113966
-0.0067082
-0.550563
0.545875
0.00338252
-0.00102764
-0.359722
0.357367
-0.000339998
0.000993358
-0.199003
0.198349
-0.00112229
0.000958375
-0.0881196
0.0882835
-0.000701261
0.000387177
-0.0254841
0.0257981
-0.000138869
-0.0010768
0.00121566
-0.0777174
0.0773376
0.000379864
9.47936e-05
-0.00090311
-0.435887
0.436696
0.00246701
-0.00475358
-0.618712
0.620998
0.00789169
-0.0110086
-0.759048
0.762165
0.0148238
-0.0182299
-0.883243
0.88665
0.0222321
-0.0260067
-1.00799
1.01176
0.0302598
-0.0341876
-1.14318
1.1471
0.0382438
-0.0419117
-1.28791
1.29158
0.0454791
-0.0484528
-1.43813
1.44111
0.0504687
-0.0509848
-1.59004
1.59056
0.0501972
-0.0478609
-1.46912
1.46679
0.0449356
-0.0410256
-1.15207
1.14816
0.0367826
-0.0320022
-0.918794
0.914014
0.0273784
-0.02229
-0.727569