/*--------------------------------*- C++ -*----------------------------------*\
| =========                 |                                                 |
| \\      /  F ield         | OpenFOAM: The Open Source CFD Toolbox           |
|  \\    /   O peration     | Version:  2112                                  |
|   \\  /    A nd           | Website:  www.openfoam.com                      |
|    \\/     M anipulation  |                                                 |
\*---------------------------------------------------------------------------*/
FoamFile
{
    version     2.0;
    format      ascii;
    arch        "LSB;label=32;scalar=64";
    class       volScalarField;
    location    "33.5";
    object      p;
}
// * * * * * * * * * * * * * * * * * * * * * * * * * * * * * * * * * * * * * //

dimensions      [0 2 -2 0 0 0 0];

internalField   nonuniform List<scalar> 
8800
(
1.22337
1.17559
1.13689
1.10789
1.08701
1.07216
1.06154
1.05402
1.04916
1.04704
1.04822
1.05234
1.05892
1.06819
1.08094
1.09865
1.12342
1.15735
1.19989
1.25859
1.05464
1.06231
1.06978
1.07308
1.07157
1.06648
1.05997
1.05387
1.0491
1.0462
1.04584
1.04826
1.05268
1.05857
1.0653
1.07155
1.07517
1.07442
1.06898
1.06029
1.03306
1.03922
1.04334
1.04628
1.04831
1.0489
1.04776
1.04562
1.04355
1.04257
1.04344
1.04573
1.04846
1.05059
1.05116
1.04993
1.04756
1.04415
1.03958
1.03582
1.02729
1.02994
1.03268
1.03508
1.0367
1.03784
1.03855
1.03863
1.03827
1.03813
1.03878
1.03986
1.04062
1.04062
1.03996
1.03883
1.03698
1.03438
1.03197
1.03046
1.02197
1.02339
1.02516
1.02719
1.02896
1.03027
1.03123
1.03198
1.03252
1.03299
1.03352
1.0339
1.0339
1.03354
1.03278
1.03147
1.02974
1.02785
1.02653
1.0257
1.01696
1.01788
1.01912
1.02068
1.0223
1.0238
1.02505
1.02606
1.02695
1.02772
1.02827
1.02846
1.0283
1.02776
1.02679
1.02552
1.02413
1.02283
1.02199
1.02144
1.01215
1.01282
1.01378
1.01508
1.01648
1.01791
1.01932
1.02058
1.02169
1.02266
1.02331
1.0235
1.02326
1.02262
1.0217
1.02066
1.01957
1.01859
1.01798
1.01758
1.00749
1.008
1.00879
1.00992
1.01119
1.01255
1.01396
1.01537
1.0167
1.01787
1.01867
1.01892
1.01869
1.01813
1.01738
1.01653
1.01565
1.01489
1.01443
1.01412
1.00292
1.00332
1.00398
1.005
1.0062
1.00751
1.00892
1.0104
1.01191
1.01331
1.01429
1.01468
1.01459
1.0142
1.01363
1.01295
1.01224
1.01165
1.0113
1.01105
0.998359
0.998688
0.999261
1.0002
1.00136
1.00266
1.00409
1.00565
1.00731
1.00896
1.0102
1.01081
1.01094
1.01075
1.01036
1.00985
1.00929
1.00884
1.00857
1.00837
0.993745
0.994012
0.994526
0.995429
0.996578
0.9979
0.999398
1.00107
1.00291
1.00482
1.0064
1.00733
1.00773
1.00776
1.00755
1.0072
1.00678
1.00645
1.00624
1.00607
0.989015
0.989233
0.989709
0.990605
0.991785
0.993176
0.994788
0.996648
0.998754
1.00103
1.003
1.00429
1.00497
1.00524
1.00522
1.00503
1.00475
1.00451
1.00435
1.00421
0.984103
0.98428
0.984735
0.985649
0.986895
0.988391
0.990153
0.99224
0.994673
0.997393
0.99987
1.00159
1.00263
1.00318
1.00339
1.00338
1.00322
1.00307
1.00296
1.00284
0.978939
0.979079
0.979524
0.980479
0.981824
0.983464
0.985427
0.987801
0.990644
0.99393
0.997015
0.999268
1.00074
1.00163
1.0021
1.00229
1.00227
1.00221
1.00215
1.00205
0.973455
0.973563
0.974011
0.975025
0.976502
0.978334
0.980574
0.983332
0.98668
0.990638
0.994495
0.997436
0.99943
1.00071
1.00147
1.00187
1.00202
1.00206
1.00204
1.00195
0.967573
0.967636
0.968093
0.969183
0.970824
0.972897
0.975479
0.978724
0.982763
0.987618
0.99239
0.996083
0.998704
1.00048
1.00162
1.00227
1.00261
1.00276
1.00279
1.00271
0.961083
0.961149
0.961619
0.962775
0.964587
0.966934
0.969931
0.973754
0.978573
0.984464
0.990405
0.995125
0.998527
1.00091
1.00255
1.00359
1.00418
1.00447
1.00454
1.00447
0.953772
0.95381
0.954318
0.955574
0.95764
0.960382
0.963944
0.968566
0.974461
0.981713
0.989034
0.994892
0.999187
1.00228
1.00449
1.00598
1.00689
1.00734
1.00745
1.00738
0.945292
0.945321
0.945888
0.947292
0.949649
0.952868
0.957123
0.962707
0.969888
0.978782
0.987835
0.995144
1.00058
1.00455
1.00745
1.00947
1.01077
1.0114
1.01156
1.01148
0.935082
0.93511
0.935771
0.937421
0.940215
0.94411
0.949321
0.956214
0.965089
0.976049
0.987172
0.996146
1.00286
1.00783
1.01153
1.01415
1.01586
1.01668
1.01687
1.01677
0.922504
0.922535
0.92335
0.925384
0.928839
0.933694
0.940208
0.948812
0.959834
0.973346
0.986957
0.997923
1.00613
1.01225
1.01684
1.02013
1.02227
1.02326
1.02349
1.02337
0.906801
0.906839
0.907889
0.910507
0.91493
0.921146
0.929446
0.940324
0.954092
0.970735
0.987314
1.00058
1.01052
1.01795
1.02353
1.02754
1.03013
1.03131
1.03157
1.03143
0.886884
0.88694
0.888359
0.891876
0.89774
0.90591
0.916705
0.930625
0.9479
0.968363
0.988399
1.00429
1.01617
1.02507
1.03178
1.03662
1.0397
1.04106
1.04135
1.04118
0.861015
0.86112
0.863174
0.868135
0.876263
0.887298
0.901633
0.919623
0.941317
0.966345
0.990355
1.00918
1.02321
1.03376
1.04172
1.04752
1.05111
1.05265
1.05294
1.05274
0.826147
0.826392
0.829727
0.837344
0.849254
0.86475
0.884121
0.907482
0.934627
0.964974
0.993416
1.01543
1.03178
1.04411
1.0535
1.06031
1.06442
1.06609
1.06638
1.06614
0.776497
0.777621
0.78429
0.797356
0.815817
0.838185
0.864513
0.894677
0.92827
0.96456
0.997755
1.02312
1.04191
1.05614
1.06704
1.07489
1.07949
1.08128
1.08152
1.08122
0.703216
0.710757
0.726115
0.749284
0.777453
0.80899
0.843854
0.881877
0.922654
0.96547
1.00389
1.03302
1.05464
1.07114
1.08386
1.09298
1.09827
1.10033
1.10063
1.1004
0.624809
0.642154
0.66691
0.700592
0.738844
0.779714
0.823225
0.869337
0.917767
0.967925
1.01269
1.04673
1.07219
1.09173
1.10687
1.11787
1.12417
1.12652
1.12696
1.12691
0.560189
0.580374
0.612971
0.655319
0.70231
0.751906
0.803732
0.85774
0.913633
0.970873
1.02165
1.06022
1.08907
1.11118
1.12814
1.14024
1.14738
1.15044
1.15086
1.15089
0.507605
0.529558
0.567345
0.615827
0.669639
0.726448
0.785574
0.846799
0.909688
0.973632
1.03
1.0726
1.10428
1.12836
1.14671
1.16001
1.1683
1.17132
1.17186
1.17196
0.464141
0.487156
0.528454
0.581683
0.64091
0.703617
0.768977
0.836583
0.905824
0.975935
1.0374
1.08353
1.1176
1.14336
1.16298
1.17719
1.18604
1.18949
1.19022
1.19035
0.427153
0.450803
0.494768
0.551671
0.615308
0.68299
0.753743
0.826995
0.901982
0.977722
1.04381
1.09306
1.12916
1.15625
1.17676
1.19157
1.20084
1.20472
1.20566
1.20581
0.3946
0.418687
0.46471
0.52464
0.591982
0.663946
0.739447
0.817772
0.897994
0.978922
1.04925
1.10131
1.13915
1.16731
1.18847
1.20374
1.21326
1.21748
1.21854
1.21868
0.364981
0.38948
0.437187
0.499687
0.570225
0.645927
0.725663
0.808591
0.893648
0.979435
1.05377
1.10845
1.14787
1.17694
1.19859
1.21417
1.22386
1.22823
1.22933
1.22942
0.337381
0.362256
0.411495
0.476184
0.549522
0.628528
0.71206
0.799194
0.88876
0.979173
1.05739
1.11463
1.15556
1.18549
1.20758
1.22333
1.23309
1.23753
1.23869
1.23875
0.311055
0.336363
0.386996
0.453663
0.529499
0.611451
0.698407
0.789399
0.88319
0.978052
1.06011
1.11996
1.16247
1.19328
1.21584
1.23178
1.24156
1.24597
1.24719
1.24729
0.285732
0.311475
0.363213
0.431807
0.509888
0.594496
0.684551
0.779086
0.876842
0.976016
1.06196
1.12453
1.16876
1.20059
1.22367
1.23983
1.24966
1.25401
1.25516
1.2552
0.261043
0.287375
0.340135
0.410429
0.490524
0.577524
0.670392
0.768181
0.869651
0.973009
1.06291
1.12842
1.17457
1.20756
1.23129
1.24775
1.25762
1.2619
1.26292
1.26289
0.236905
0.263706
0.317617
0.389416
0.471326
0.560477
0.655885
0.756649
0.861587
0.968998
1.06294
1.13162
1.17995
1.21429
1.23879
1.25558
1.26546
1.26962
1.27052
1.2704
0.213243
0.240611
0.295517
0.368708
0.452267
0.543344
0.641029
0.744491
0.852642
0.963942
1.06198
1.13408
1.18488
1.22083
1.24621
1.26336
1.27319
1.27713
1.27786
1.27768
0.189977
0.217961
0.273821
0.348303
0.433339
0.526141
0.625859
0.731742
0.842831
0.957807
1.05993
1.1357
1.18936
1.2272
1.25362
1.27109
1.28077
1.28441
1.28495
1.28471
0.167121
0.195781
0.252574
0.328231
0.414592
0.508912
0.61043
0.718458
0.832189
0.950573
1.05672
1.13639
1.19328
1.23344
1.26109
1.27882
1.28814
1.29133
1.29168
1.29139
0.14485
0.174142
0.231821
0.308535
0.396077
0.491736
0.594815
0.704722
0.820785
0.942274
1.05229
1.13598
1.1965
1.2395
1.26879
1.28672
1.29532
1.29781
1.29792
1.29762
0.123199
0.15309
0.211595
0.289276
0.377858
0.474679
0.57911
0.690622
0.808712
0.932955
1.04659
1.13432
1.1988
1.24529
1.27691
1.29523
1.30261
1.30385
1.30359
1.30331
0.10211
0.13267
0.191939
0.270497
0.360005
0.457827
0.563407
0.676268
0.796071
0.92269
1.03958
1.13126
1.19992
1.25049
1.28549
1.3051
1.31099
1.30992
1.30867
1.30861
0.0817631
0.112912
0.172918
0.252269
0.342581
0.441267
0.547806
0.661777
0.782986
0.911588
1.03128
1.12668
1.19953
1.25457
1.29412
1.3169
1.3226
1.31855
1.31456
1.31364
0.0620698
0.0938262
0.154514
0.234568
0.325556
0.424951
0.532247
0.647084
0.769384
0.899577
1.02157
1.1203
1.19731
1.25678
1.30169
1.33015
1.3393
1.33547
1.32511
1.30842
0.0431071
0.0754248
0.136608
0.2172
0.308634
0.40854
0.516306
0.631696
0.754713
0.885995
1.00975
1.11129
1.19258
1.256
1.30565
1.34105
1.35466
1.34485
1.32718
1.31054
0.0250523
0.0575765
0.119388
0.200407
0.292118
0.392385
0.500213
0.615947
0.739295
0.871134
0.995991
1.0993
1.18481
1.25121
1.30089
1.33623
1.35319
1.33422
1.26413
1.23134
0.00856246
0.039103
0.103186
0.184783
0.27673
0.376983
0.484266
0.600065
0.723353
0.855134
0.980274
1.08413
1.17291
1.24236
1.28331
1.3106
1.31149
1.26127
1.19022
1.14599
-0.04777
0.0228584
0.0882835
0.169206
0.261007
0.360921
0.468403
0.583776
0.706534
0.837576
0.962067
1.0654
1.15349
1.2302
1.23485
1.24857
1.212
1.1469
1.07016
1.02698
-0.00927788
0.0067892
0.0665226
0.147144
0.238139
0.33779
0.444277
0.558834
0.680362
0.809577
0.931431
1.03229
1.11187
1.18926
1.18541
1.08047
0.977677
0.906182
0.832841
0.867229
-0.0407476
-0.011336
0.0492873
0.129312
0.220362
0.319681
0.426343
0.540187
0.660536
0.787767
0.90652
1.00327
1.07532
1.1162
1.07199
0.928574
0.801285
0.710335
0.610301
0.664255
-0.065063
-0.032694
0.0291706
0.109488
0.200624
0.299797
0.406309
0.519244
0.6381
0.762817
0.877734
0.968884
1.03136
1.04094
0.938412
0.764768
0.609921
0.489171
0.356045
0.391514
-0.0888634
-0.0549438
0.00812402
0.0892951
0.180617
0.279656
0.385629
0.497541
0.614733
0.736623
0.846937
0.931844
0.979406
0.957187
0.80129
0.601949
0.407103
0.231261
0.0347616
0.0230535
-0.111998
-0.0776927
-0.0137328
0.0681857
0.159729
0.258586
0.36391
0.474699
0.590001
0.708737
0.813912
0.891707
0.922113
0.865176
0.670991
0.455742
0.231315
0.0322072
-0.22217
-0.541771
-0.135425
-0.101143
-0.0366708
0.0457555
0.137534
0.236266
0.341019
0.450672
0.564008
0.679394
0.779275
0.848862
0.861731
0.754128
0.558019
0.343077
0.131401
-0.0485001
-0.11655
-0.209659
-0.160038
-0.125752
-0.0610192
0.021664
0.113546
0.212068
0.316162
0.424518
0.535597
0.647167
0.741351
0.80104
0.788999
0.64645
0.45838
0.263272
0.095568
0.000280118
-0.0235662
-0.0408896
-0.186161
-0.151843
-0.0869436
-0.00416956
0.0876413
0.185794
0.289
0.395768
0.504195
0.611345
0.699364
0.746832
0.715283
0.54657
0.368222
0.199415
0.0687824
0.0297311
0.0151864
0.0134229
-0.214007
-0.179573
-0.114502
-0.0317252
0.0598827
0.157454
0.259533
0.364391
0.469743
0.571931
0.653075
0.687142
0.638714
0.453164
0.284332
0.133628
0.0506674
0.0351943
0.0336782
0.033687
-0.243607
-0.208942
-0.143707
-0.0609811
0.0302769
0.127082
0.227781
0.330395
0.432258
0.529012
0.602327
0.625833
0.543167
0.367259
0.206244
0.0813544
0.0464081
0.0436599
0.0434781
0.044055
-0.274661
-0.239796
-0.174429
-0.0918285
-0.00106241
0.0947624
0.193809
0.293841
0.391785
0.482678
0.547808
0.555846
0.44925
0.28676
0.142417
0.0605158
0.051881
0.0503626
0.0497783
0.0501197
-0.306595
-0.271653
-0.206395
-0.124023
-0.0339179
0.060692
0.15781
0.254904
0.348526
0.433152
0.490416
0.481605
0.364936
0.21483
0.0911592
0.0697181
0.0557392
0.0537058
0.0549157
0.0555182
-0.338954
-0.304032
-0.239093
-0.157151
-0.067909
0.0252371
0.120115
0.213921
0.302828
0.381009
0.42994
0.409187
0.285653
0.150038
0.0515167
0.0213686
0.0434209
0.0567981
0.0604586
0.0614686
-0.370895
-0.336221
-0.271731
-0.190561
-0.102458
-0.0110691
0.0812486
0.171437
0.255238
0.326884
0.366521
0.339007
0.212954
0.0996765
0.015455
0.035058
0.0449193
0.0520395
0.0579597
0.0608677
-0.400855
-0.367054
-0.303418
-0.223355
-0.13674
-0.0474485
0.0419686
0.128236
0.206606
0.271373
0.305308
0.263637
0.145815
0.066039
0.00794478
0.00558917
0.0219864
0.0341573
0.0391147
0.0417828
-0.427446
-0.394624
-0.333026
-0.254377
-0.169694
-0.0828464
0.00329359
0.0853384
0.158189
0.215248
0.248708
0.181443
0.0732793
0.0698713
0.0866083
0.0242591
-0.00970641
-0.0241687
-0.0275019
-0.0264007
-0.448678
-0.417694
-0.358472
-0.282197
-0.199976
-0.116032
-0.0334551
0.0440739
0.111402
0.160065
0.192018
0.0966202
-0.0369651
-0.0332471
0.0045512
-0.0963888
-0.169981
-0.202728
-0.199358
-0.192432
-0.462585
-0.43423
-0.378209
-0.305029
-0.225967
-0.145465
-0.066755
0.00618466
0.0678269
0.108452
0.132533
0.00322579
-0.221756
-0.534893
-0.562831
-0.434136
-0.418677
-0.409891
-0.392529
-0.387254
-0.466749
-0.442253
-0.390434
-0.321167
-0.245935
-0.169402
-0.0947614
-0.026259
0.0297071
0.0631957
0.0708781
-0.0887852
-0.317004
-0.549977
-0.562687
-0.461202
-0.464623
-0.4453
-0.44075
-0.440351
-0.459603
-0.439561
-0.393177
-0.32906
-0.258333
-0.186122
-0.115496
-0.0509047
0.000393188
0.027904
0.0160922
-0.104758
-0.140625
0.0627653
0.238314
-0.0690944
-0.341435
-0.406582
-0.420814
-0.421366
-0.439245
-0.423534
-0.384939
-0.327554
-0.262105
-0.194272
-0.127235
-0.0651983
-0.0159427
0.00740899
-0.0122474
-0.130387
-0.302016
-0.5063
-0.848076
-1.26413
-1.23083
-0.907667
-0.682371
-0.663884
-0.407112
-0.396476
-0.366049
-0.3168
-0.256997
-0.193319
-0.128786
-0.067399
-0.0159904
0.0111845
-0.0136303
-0.200577
-0.712931
-1.50688
-2.0657
-2.381
-2.30129
-1.98108
-1.63788
-1.44533
-0.367858
-0.361648
-0.340084
-0.298786
-0.24451
-0.183988
-0.120169
-0.0566057
0.00146487
0.0438496
0.0431463
-0.0805672
-0.390847
-0.757239
-1.10817
-1.20273
-1.03401
-0.7694
-0.540215
-0.409818
-0.328103
-0.324653
-0.311828
-0.278
-0.227667
-0.168567
-0.103466
-0.0338419
0.0363361
0.108289
0.168253
0.253326
0.367504
0.624291
0.953587
1.31158
1.62225
1.83296
1.94971
1.99485
-0.2941
-0.292072
-0.285271
-0.25876
-0.211328
-0.150845
-0.0821859
-0.00516476
0.0815673
0.178607
0.304214
0.457153
0.8068
1.35123
1.9658
2.5247
2.94904
3.20323
3.31465
3.34557
-0.262481
-0.261943
-0.259903
-0.241703
-0.19736
-0.134971
-0.0618389
0.0209931
0.115789
0.226749
0.351241
0.490038
0.732446
1.25044
1.8126
2.32004
2.69317
2.91001
3.01017
3.03933
-0.234635
-0.234125
-0.233719
-0.223191
-0.184073
-0.120683
-0.0443585
0.041496
0.13602
0.244925
0.360705
0.48744
0.645688
1.01589
1.4817
1.87167
2.16902
2.3443
2.42361
2.44557
-0.212816
-0.21139
-0.211081
-0.205688
-0.170456
-0.10562
-0.0269513
0.0588029
0.150731
0.254717
0.360731
0.46734
0.574713
0.805068
1.13815
1.42578
1.64084
1.76464
1.81917
1.83287
-0.201606
-0.202034
-0.204578
-0.198975
-0.158063
-0.0862883
-0.00480489
0.0787386
0.165318
0.259015
0.348495
0.428531
0.506097
0.651078
0.873228
1.06665
1.21002
1.29348
1.33047
1.3377
-0.174895
-0.179257
-0.183874
-0.174462
-0.127631
-0.052569
0.0268141
0.103826
0.180677
0.260529
0.333716
0.393024
0.450536
0.539161
0.685864
0.811723
0.901468
0.95279
0.973346
0.97597
-0.0844961
-0.0903165
-0.0954175
-0.0857492
-0.0465687
0.0125383
0.07538
0.137592
0.199911
0.264154
0.320848
0.361423
0.396729
0.453077
0.548834
0.631495
0.687459
0.717937
0.729796
0.730721
0.0611023
0.0577635
0.0540442
0.0574522
0.0754375
0.104408
0.139906
0.179613
0.223267
0.270744
0.31128
0.337608
0.357687
0.393163
0.454898
0.508992
0.544777
0.563586
0.570857
0.570561
0.199308
0.197891
0.194784
0.190388
0.18865
0.192284
0.203447
0.222106
0.248334
0.280538
0.30862
0.326306
0.336105
0.361368
0.402273
0.436654
0.458395
0.46904
0.472617
0.471844
0.288494
0.287908
0.284789
0.276696
0.265052
0.255915
0.253189
0.258307
0.271697
0.292287
0.312832
0.325951
0.332735
0.353399
0.382461
0.402413
0.413725
0.418659
0.419963
0.419018
0.330789
0.330334
0.327504
0.319669
0.307313
0.295186
0.287008
0.285072
0.290684
0.304022
0.320881
0.334795
0.345307
0.361523
0.379572
0.391235
0.396669
0.398769
0.399094
0.398085
0.344817
0.344384
0.342179
0.336284
0.326551
0.31592
0.307275
0.302938
0.30454
0.313521
0.329242
0.347034
0.364109
0.377674
0.386317
0.391152
0.394728
0.397149
0.397912
0.39671
0.345652
0.34524
0.343624
0.339669
0.333014
0.325148
0.317934
0.313319
0.312984
0.319478
0.334569
0.356647
0.379942
0.392263
0.393615
0.395362
0.398076
0.401017
0.402202
0.400996
0.341905
0.341533
0.340345
0.337732
0.333413
0.327905
0.322301
0.317991
0.316429
0.320213
0.333201
0.356422
0.382196
0.39099
0.388803
0.391614
0.398418
0.404086
0.406005
0.404225
0.3375
0.337172
0.33625
0.334338
0.331408
0.327501
0.323053
0.318802
0.315663
0.315265
0.321422
0.337975
0.357671
0.360746
0.358851
0.367504
0.380392
0.390858
0.393984
0.391641
0.333771
0.333501
0.33278
0.331223
0.328838
0.325789
0.322053
0.317528
0.312309
0.306036
0.300295
0.298376
0.299922
0.297665
0.304169
0.32075
0.337608
0.348973
0.352135
0.350456
0.330705
0.330509
0.329991
0.328698
0.326818
0.324106
0.32059
0.315961
0.30886
0.296415
0.274843
0.24659
0.216007
0.213073
0.234142
0.259766
0.278808
0.287853
0.289982
0.288819
0.32757
0.327476
0.32724
0.326521
0.324799
0.322869
0.31992
0.315847
0.308441
0.292079
0.259058
0.198604
0.145094
0.144458
0.178617
0.206974
0.222105
0.228505
0.229364
0.228679
0.323357
0.323371
0.323432
0.323299
0.322609
0.321422
0.320417
0.318001
0.312627
0.298674
0.263293
0.196396
0.135763
0.141841
0.168211
0.183015
0.186805
0.186434
0.187682
0.188336
0.316953
0.317126
0.317466
0.318064
0.318845
0.319668
0.320922
0.322195
0.322087
0.314579
0.290635
0.241157
0.19875
0.199974
0.204206
0.195227
0.185479
0.180338
0.179989
0.180155
0.306949
0.307273
0.308166
0.309592
0.311648
0.315044
0.320122
0.326867
0.334009
0.338855
0.333644
0.311263
0.293462
0.278688
0.253163
0.226856
0.207158
0.197164
0.194207
0.194076
0.290638
0.291241
0.292855
0.295828
0.300279
0.30692
0.31665
0.329184
0.345577
0.363554
0.377254
0.374758
0.378323
0.345732
0.301176
0.2608
0.235465
0.221163
0.217676
0.218807
0.264534
0.265415
0.267925
0.272557
0.279791
0.290305
0.304812
0.324384
0.348035
0.376034
0.400579
0.413731
0.416726
0.37294
0.326311
0.297469
0.276511
0.263568
0.257863
0.258211
0.225044
0.226264
0.229692
0.236358
0.246776
0.26124
0.280086
0.303938
0.331755
0.36143
0.387701
0.395566
0.386444
0.345191
0.32317
0.307779
0.307404
0.297734
0.291126
0.290778
0.169606
0.170713
0.174803
0.183275
0.196253
0.213698
0.235268
0.258278
0.281079
0.303215
0.324201
0.325689
0.305848
0.270753
0.269452
0.286499
0.289781
0.279268
0.274217
0.273127
0.0986694
0.0998238
0.103865
0.111911
0.123982
0.139854
0.158497
0.173972
0.176941
0.18051
0.2049
0.206813
0.178738
0.16194
0.173227
0.205043
0.206044
0.197804
0.193256
0.191871
0.0221406
0.0217178
0.0215998
0.0222389
0.0235448
0.0263708
0.0299895
0.0284239
0.0165062
0.018139
0.0417215
0.0585907
0.0600534
0.0473369
0.0460088
0.0421112
0.0339139
0.0483236
0.0456501
0.0451824
0.273308
0.45107
0.658757
0.837197
0.980794
1.09513
1.19039
1.27083
1.30674
1.28366
0.597016
0.724562
0.861097
0.979314
1.07938
1.16256
1.22989
1.27755
1.30161
1.31351
0.827983
0.915112
1.00814
1.0906
1.16164
1.22108
1.26828
1.30273
1.32748
1.34528
0.996117
1.05763
1.12285
1.18249
1.23442
1.27848
1.31459
1.34331
1.36674
1.38492
1.12643
1.17156
1.21909
1.26452
1.30468
1.33967
1.36956
1.39435
1.41514
1.43291
1.2336
1.26759
1.30683
1.34348
1.37704
1.40705
1.43323
1.45517
1.4733
1.49061
1.32791
1.35728
1.39206
1.42487
1.45541
1.48308
1.50722
1.52724
1.54294
1.56001
1.41765
1.44728
1.48179
1.51425
1.54423
1.57114
1.59427
1.61295
1.62646
1.6435
1.5137
1.54709
1.58407
1.61794
1.64823
1.67463
1.69675
1.71416
1.72613
1.74354
1.62922
1.66704
1.70591
1.74037
1.76987
1.79475
1.81523
1.8312
1.84273
1.86082
1.77451
1.81318
1.84929
1.88007
1.90584
1.92801
1.94712
1.9627
1.97517
1.99318
1.94954
1.98139
2.00762
2.03008
2.0501
2.06886
2.08661
2.10312
2.1185
2.13657
2.13824
2.15553
2.17065
2.18692
2.20285
2.2174
2.23063
2.24458
2.26214
2.2823
2.32016
2.32964
2.3412
2.35203
2.36133
2.37093
2.38174
2.39313
2.4045
2.41986
2.52732
2.53102
2.51609
2.50128
2.49503
2.50072
2.51921
2.54953
2.58172
2.60838
2.83366
2.6988
2.62218
2.57984
2.56243
2.5664
2.59381
2.65022
2.75285
2.97722
1.11397
1.11184
1.10735
1.09872
1.08649
1.07435
1.0641
1.05617
1.05051
1.04719
1.04675
1.0494
1.05443
1.06159
1.07094
1.08245
1.09507
1.10609
1.1122
1.11524
1.03844
1.04428
1.05062
1.0551
1.05756
1.05722
1.05447
1.05062
1.04707
1.04474
1.0445
1.0466
1.05018
1.05441
1.05817
1.06002
1.05905
1.05555
1.05037
1.04375
1.03005
1.03234
1.03574
1.03873
1.0408
1.04228
1.04301
1.04265
1.04157
1.04061
1.04069
1.04201
1.04374
1.04497
1.04509
1.04416
1.04258
1.04022
1.03694
1.03401
1.02458
1.02567
1.0275
1.02987
1.03188
1.03329
1.03428
1.03499
1.03533
1.03547
1.03585
1.03653
1.03703
1.03701
1.03652
1.03562
1.03411
1.03199
1.02988
1.02849
1.01944
1.0201
1.0212
1.0229
1.02467
1.02629
1.02755
1.02852
1.02934
1.03003
1.03062
1.03103
1.03109
1.03082
1.03017
1.02904
1.02756
1.02597
1.02462
1.02383
1.01454
1.015
1.01578
1.01707
1.01855
1.02006
1.02149
1.02274
1.0238
1.02474
1.0255
1.02589
1.02587
1.02547
1.02465
1.02357
1.02237
1.02117
1.02022
1.01969
1.00981
1.01015
1.01076
1.01183
1.01312
1.01448
1.01589
1.01729
1.01858
1.01972
1.02064
1.02112
1.0211
1.02064
1.01989
1.01899
1.01804
1.01709
1.01637
1.01598
1.0052
1.00546
1.00596
1.00687
1.00804
1.00933
1.01069
1.01213
1.01358
1.01495
1.01607
1.01667
1.01672
1.01637
1.01578
1.01506
1.01428
1.01353
1.01298
1.01269
1.00064
1.00085
1.00126
1.00207
1.00317
1.00441
1.00576
1.00723
1.00879
1.01037
1.01172
1.01252
1.01275
1.0126
1.0122
1.01165
1.01103
1.01044
1.01002
1.00979
0.996066
0.996232
0.996584
0.997324
0.998381
0.999602
1.00098
1.00252
1.0042
1.00598
1.00762
1.00871
1.0092
1.00927
1.00906
1.00869
1.00823
1.00778
1.00746
1.00728
0.991401
0.991531
0.991839
0.992541
0.993593
0.994847
0.99629
0.997945
0.999812
1.00185
1.00384
1.00529
1.00609
1.00641
1.00641
1.0062
1.00588
1.00556
1.00532
1.00518
0.986589
0.986689
0.986967
0.987653
0.988729
0.990052
0.991602
0.993424
0.995542
0.997927
1.00035
1.00224
1.00339
1.00399
1.00422
1.0042
1.00404
1.00382
1.00366
1.00355
0.98156
0.981632
0.98189
0.982582
0.983715
0.985141
0.986833
0.988867
0.991301
0.994131
0.997099
0.999511
1.00109
1.00204
1.00255
1.00274
1.00273
1.00263
1.00253
1.00245
0.97625
0.976296
0.976539
0.977248
0.978459
0.980021
0.981911
0.984223
0.987023
0.990364
0.993999
0.99709
0.999228
1.00061
1.00143
1.00187
1.00203
1.00206
1.00204
1.00198
0.970568
0.970582
0.97082
0.971572
0.972901
0.974654
0.976809
0.979499
0.982837
0.986885
0.991354
0.995231
0.997986
0.999843
1.00104
1.00173
1.00212
1.00228
1.00233
1.00229
0.964425
0.964434
0.964648
0.965432
0.966871
0.96882
0.971279
0.974403
0.978344
0.983222
0.988717
0.993587
0.997153
0.999664
1.00134
1.00241
1.00308
1.00342
1.00354
1.00353
0.957542
0.957513
0.957764
0.958605
0.960199
0.962403
0.965274
0.968984
0.973733
0.979669
0.986431
0.992508
0.997006
1.00023
1.0025
1.00407
1.00509
1.00564
1.00586
1.00586
0.949705
0.949657
0.949924
0.950851
0.952632
0.955182
0.958571
0.963019
0.968787
0.976062
0.984388
0.991908
0.997562
1.00169
1.00466
1.0068
1.00823
1.00904
1.00936
1.00937
0.940421
0.940359
0.940675
0.941743
0.943779
0.946775
0.950838
0.956242
0.963299
0.972225
0.982475
0.991774
0.998798
1.00399
1.0078
1.0106
1.01253
1.01364
1.01405
1.01407
0.929083
0.929004
0.929402
0.930695
0.933146
0.936813
0.941831
0.948542
0.957309
0.968356
0.980952
0.992334
1.00093
1.00735
1.0121
1.01562
1.01809
1.0195
1.02
1.02002
0.915012
0.914912
0.915444
0.917086
0.920154
0.924774
0.931108
0.939559
0.950521
0.964204
0.979657
0.993516
1.00398
1.01179
1.01764
1.02198
1.02502
1.02672
1.02732
1.02734
0.897295
0.897175
0.897919
0.900095
0.904082
0.910094
0.918287
0.929114
0.942962
0.959952
0.978818
0.995554
1.00814
1.01753
1.0246
1.02984
1.03352
1.03554
1.03623
1.03624
0.874563
0.874435
0.875541
0.878555
0.883944
0.892004
0.902858
0.916941
0.934541
0.955619
0.978528
0.99855
1.01351
1.0247
1.03312
1.0394
1.04379
1.04614
1.04691
1.04691
0.844509
0.844416
0.846179
0.850629
0.858336
0.869597
0.884378
0.902944
0.925388
0.951436
0.979011
1.0027
1.02027
1.03339
1.04334
1.0508
1.05594
1.0586
1.05943
1.05942
0.802971
0.803057
0.806242
0.813635
0.825603
0.842133
0.862731
0.887359
0.915854
0.947734
0.980518
1.00817
1.02851
1.04372
1.05531
1.06408
1.06995
1.07287
1.07374
1.07369
0.742282
0.743537
0.751265
0.765143
0.784874
0.809764
0.83852
0.870877
0.906543
0.94494
0.983286
1.01505
1.03826
1.05563
1.06891
1.07888
1.08547
1.08865
1.08945
1.08936
0.669992
0.671993
0.686573
0.710454
0.74104
0.775713
0.813423
0.854086
0.897504
0.943182
0.988123
1.02518
1.0524
1.07294
1.08866
1.10028
1.10798
1.11165
1.11266
1.11264
0.595788
0.6024
0.623815
0.657701
0.698363
0.742554
0.789172
0.838145
0.889382
0.942452
0.994176
1.03674
1.06809
1.09188
1.11022
1.12394
1.13283
1.1363
1.13728
1.13747
0.536029
0.54455
0.5707
0.611403
0.659725
0.711872
0.766423
0.82314
0.881805
0.941959
1.00014
1.04778
1.08277
1.10922
1.12941
1.14441
1.1539
1.15837
1.16006
1.16036
0.487602
0.496681
0.52627
0.571854
0.626009
0.684491
0.745674
0.809186
0.874609
0.941342
1.0055
1.05775
1.09586
1.12445
1.14622
1.16244
1.17316
1.17831
1.1803
1.18064
0.447197
0.456494
0.48838
0.537681
0.59646
0.660101
0.726894
0.79632
0.867774
0.940501
1.01014
1.06648
1.1073
1.13772
1.16076
1.17793
1.18941
1.19521
1.19743
1.19779
0.412214
0.421602
0.455202
0.507492
0.570016
0.637992
0.709631
0.78427
0.86116
0.939352
1.014
1.07404
1.1172
1.14911
1.1731
1.19095
1.20298
1.20923
1.21161
1.21201
0.380978
0.390411
0.425326
0.480111
0.545777
0.617468
0.693362
0.772671
0.85451
0.93775
1.01706
1.08053
1.1258
1.15899
1.18374
1.20205
1.21438
1.22102
1.22348
1.22389
0.35224
0.361736
0.397776
0.454687
0.523051
0.597992
0.677656
0.76118
0.84757
0.935543
1.01929
1.08604
1.13332
1.16766
1.19307
1.21169
1.22423
1.23099
1.23344
1.23388
0.325194
0.334749
0.371809
0.43058
0.501365
0.579175
0.662202
0.749551
0.840152
0.932602
1.02066
1.09065
1.13993
1.17543
1.20146
1.2204
1.23305
1.23989
1.24234
1.24265
0.299311
0.308985
0.346985
0.407357
0.480352
0.560733
0.646787
0.737618
0.83212
0.928827
1.02112
1.09442
1.1458
1.18256
1.20928
1.22856
1.24134
1.24814
1.25059
1.25085
0.274198
0.284074
0.322893
0.384823
0.459776
0.542474
0.631265
0.725268
0.823393
0.924151
1.02063
1.09738
1.15104
1.18921
1.21675
1.23643
1.24938
1.25617
1.25851
1.25878
0.249666
0.259781
0.299393
0.362813
0.439512
0.524288
0.615551
0.712445
0.813916
0.918531
1.01918
1.09954
1.15572
1.19551
1.224
1.24419
1.25732
1.26407
1.26628
1.2665
0.225662
0.236013
0.276461
0.341197
0.419491
0.506144
0.599621
0.699128
0.803675
0.911931
1.01671
1.10086
1.15984
1.2015
1.23111
1.25188
1.26517
1.27181
1.27385
1.27399
0.202088
0.212766
0.253953
0.319942
0.399691
0.488026
0.583483
0.685337
0.792686
0.904347
1.01315
1.10125
1.16334
1.20719
1.23813
1.25953
1.27294
1.27939
1.2812
1.28124
0.178995
0.18997
0.231932
0.29906
0.380129
0.469964
0.567184
0.671121
0.780986
0.895775
1.00846
1.1006
1.16614
1.21258
1.24511
1.26719
1.28058
1.28669
1.28822
1.28816
0.156362
0.167662
0.210426
0.278595
0.360849
0.452011
0.550781
0.656554
0.76864
0.886249
1.00258
1.09882
1.16811
1.21758
1.25212
1.27499
1.28815
1.29366
1.29481
1.29466
0.134388
0.145937
0.189468
0.258596
0.341914
0.434249
0.534351
0.641715
0.755734
0.875841
0.995535
1.0958
1.16905
1.22207
1.25923
1.2832
1.29587
1.3003
1.30087
1.30063
0.112943
0.124848
0.169098
0.2391
0.323366
0.416726
0.517991
0.626696
0.742366
0.864647
0.987326
1.09143
1.16878
1.22579
1.26637
1.29223
1.30439
1.30698
1.30639
1.30599
0.0921998
0.104428
0.149357
0.220167
0.305291
0.399531
0.501788
0.611622
0.728657
0.852743
0.978013
1.08564
1.16706
1.22835
1.27321
1.30235
1.31498
1.31523
1.312
1.31049
0.0721078
0.08464
0.130303
0.201857
0.287735
0.382738
0.48583
0.596579
0.714723
0.840278
0.967694
1.07837
1.16373
1.2293
1.27893
1.31302
1.32874
1.32859
1.32129
1.31136
0.0527518
0.0655306
0.111838
0.184016
0.270486
0.366058
0.469768
0.581148
0.700091
0.826718
0.955796
1.06899
1.15818
1.22801
1.28234
1.32272
1.34489
1.34798
1.33856
1.32975
0.0341892
0.0471882
0.093964
0.166691
0.253558
0.349489
0.453628
0.565314
0.684728
0.811962
0.942157
1.05718
1.14975
1.22374
1.28095
1.32581
1.35107
1.35935
1.32282
1.26923
0.0166987
0.0303906
0.0767892
0.149945
0.236847
0.332898
0.437364
0.5492
0.668699
0.796085
0.92674
1.0428
1.13748
1.21624
1.27282
1.31105
1.3374
1.32684
1.26974
1.20462
-3.98646e-05
0.0145326
0.0605052
0.134407
0.220686
0.316767
0.420756
0.532868
0.652154
0.779265
0.909582
1.02574
1.12033
1.20663
1.25656
1.30903
1.28114
1.24072
1.17107
1.10219
0.0137959
0.031916
0.0807444
0.158949
0.250192
0.350123
0.459518
0.574627
0.697009
0.827521
0.951417
1.05432
1.14052
1.23226
1.28114
1.20127
1.1569
1.09468
1.0216
0.97305
-0.0107265
0.00563095
0.0414361
0.109817
0.195642
0.291187
0.395315
0.506787
0.625245
0.751037
0.879338
0.993543
1.08477
1.16497
1.2366
1.23806
1.11771
1.03441
0.97172
0.887966
-0.0310927
-0.0153781
0.0261303
0.0959392
0.182038
0.2772
0.380138
0.490679
0.608116
0.732413
0.858855
0.970709
1.05895
1.12652
1.15372
1.0837
0.943685
0.847346
0.771626
0.682029
-0.0518929
-0.0392905
0.00668895
0.0778051
0.164102
0.25946
0.362339
0.472524
0.589011
0.711723
0.835226
0.942473
1.02351
1.07566
1.05428
0.926094
0.772935
0.653906
0.554697
0.415711
-0.075938
-0.0628091
-0.0147521
0.0575151
0.144162
0.239552
0.342308
0.45187
0.567203
0.687967
0.808026
0.90996
0.983213
1.01549
0.958348
0.775174
0.591037
0.434289
0.289179
0.0896052
-0.0989398
-0.0861929
-0.0368778
0.0365773
0.123753
0.219111
0.321492
0.430182
0.544118
0.662574
0.778811
0.874886
0.939648
0.942205
0.834114
0.632541
0.415663
0.208624
0.0244013
-0.387373
-0.121989
-0.109621
-0.0598002
0.0145415
0.10215
0.197546
0.299545
0.407354
0.519785
0.635702
0.747797
0.837378
0.89149
0.860501
0.710983
0.506287
0.283068
0.0640259
-0.12327
-0.425334
-0.145962
-0.133745
-0.0837415
-0.00884743
0.0790702
0.174516
0.276174
0.383125
0.493998
0.607212
0.714925
0.797539
0.838268
0.789552
0.600273
0.403927
0.201025
0.0292871
-0.043425
-0.0793156
-0.17134
-0.159282
-0.10908
-0.0338918
0.0541322
0.149465