/*--------------------------------*- C++ -*----------------------------------*\
| =========                 |                                                 |
| \\      /  F ield         | OpenFOAM: The Open Source CFD Toolbox           |
|  \\    /   O peration     | Version:  2112                                  |
|   \\  /    A nd           | Website:  www.openfoam.com                      |
|    \\/     M anipulation  |                                                 |
\*---------------------------------------------------------------------------*/
FoamFile
{
    version     2.0;
    format      ascii;
    arch        "LSB;label=32;scalar=64";
    class       volVectorField;
    location    "33.5";
    object      U;
}
// * * * * * * * * * * * * * * * * * * * * * * * * * * * * * * * * * * * * * //

dimensions      [0 1 -1 0 0 0 0];

internalField   nonuniform List<vector> 
8800
(
(0.980155 -0.0915211 0)
(1.00234 -0.058722 0)
(0.99961 -0.0321228 0)
(0.999998 -0.0165132 0)
(1.00005 -0.00882621 0)
(1.00002 -0.005075 0)
(0.999992 -0.00298187 0)
(0.999976 -0.00169468 0)
(0.999972 -0.000812831 0)
(1.00006 -0.000123707 0)
(0.999981 0.000576177 0)
(0.999999 0.00133224 0)
(1.00001 0.00236639 0)
(1.00002 0.00397724 0)
(1.00003 0.00672594 0)
(1.00003 0.0120338 0)
(0.999857 0.0230877 0)
(0.999062 0.0431546 0)
(1.00723 0.0790277 0)
(0.775024 0.0478396 0)
(0.358976 -0.0147491 0)
(1.04649 -0.0724945 0)
(1.08849 -0.0660316 0)
(1.04946 -0.0509247 0)
(1.02553 -0.0377031 0)
(1.01267 -0.0258914 0)
(1.00649 -0.0167033 0)
(1.00356 -0.0102495 0)
(1.00213 -0.00565353 0)
(1.00148 -0.0020794 0)
(1.00136 0.00111173 0)
(1.00173 0.00441781 0)
(1.00271 0.00831806 0)
(1.00473 0.0136459 0)
(1.00897 0.0213378 0)
(1.01796 0.0318401 0)
(1.03584 0.0446268 0)
(1.06747 0.0580838 0)
(1.09473 0.0699589 0)
(0.845679 0.0555006 0)
(0.217755 -0.0013817 0)
(1.07567 -0.0506692 0)
(1.09942 -0.0489562 0)
(1.06438 -0.0400403 0)
(1.03984 -0.0325788 0)
(1.02371 -0.025371 0)
(1.01393 -0.0181861 0)
(1.00844 -0.0116066 0)
(1.0056 -0.00588087 0)
(1.00445 -0.000622093 0)
(1.00478 0.00446012 0)
(1.00664 0.00974119 0)
(1.01057 0.0157391 0)
(1.01788 0.0225243 0)
(1.03051 0.0296431 0)
(1.05052 0.0367447 0)
(1.08011 0.0445406 0)
(1.10574 0.0518838 0)
(0.943386 0.0409846 0)
(0.217268 0.00140186 0)
(0.176597 -0.000629238 0)
(1.01935 -0.0354801 0)
(1.10569 -0.0414365 0)
(1.07794 -0.0364298 0)
(1.05236 -0.0303919 0)
(1.03511 -0.0245254 0)
(1.02327 -0.0187732 0)
(1.01547 -0.0128303 0)
(1.01088 -0.00677691 0)
(1.00887 -0.00057541 0)
(1.00942 0.00555635 0)
(1.01253 0.0114573 0)
(1.0185 0.0172451 0)
(1.02808 0.0228587 0)
(1.0423 0.0284408 0)
(1.06313 0.0342387 0)
(1.09395 0.0401406 0)
(1.09457 0.041693 0)
(0.830468 0.0227383 0)
(0.175767 0.000645361 0)
(0.154671 -0.000463066 0)
(0.958079 -0.0257057 0)
(1.10435 -0.0351447 0)
(1.08802 -0.0327005 0)
(1.06113 -0.0281918 0)
(1.04306 -0.0232494 0)
(1.0307 -0.018018 0)
(1.02212 -0.0125484 0)
(1.0166 -0.00669336 0)
(1.01398 -0.000297627 0)
(1.01466 0.00611555 0)
(1.01848 0.0119641 0)
(1.02526 0.0172929 0)
(1.0354 0.0223325 0)
(1.05018 0.0271922 0)
(1.07213 0.0316669 0)
(1.10115 0.035582 0)
(1.06997 0.0338393 0)
(0.743041 0.0143965 0)
(0.153432 0.000481294 0)
(0.139974 -0.000334717 0)
(0.901013 -0.0193319 0)
(1.0967 -0.0302456 0)
(1.09611 -0.0293926 0)
(1.06877 -0.0256377 0)
(1.04991 -0.0215937 0)
(1.03698 -0.0169732 0)
(1.02802 -0.0117949 0)
(1.02211 -0.00614683 0)
(1.01916 0.000130072 0)
(1.01984 0.00644407 0)
(1.0239 0.0120591 0)
(1.03095 0.0170647 0)
(1.04146 0.0215962 0)
(1.05689 0.0255929 0)
(1.0797 0.0291317 0)
(1.10354 0.0318677 0)
(1.03842 0.0279327 0)
(0.676575 0.0102248 0)
(0.138234 0.000356365 0)
(0.129232 -0.000252998 0)
(0.851117 -0.0149182 0)
(1.08429 -0.0261181 0)
(1.1017 -0.0264739 0)
(1.0755 -0.0231638 0)
(1.05614 -0.019561 0)
(1.04279 -0.0154957 0)
(1.03345 -0.0107612 0)
(1.02726 -0.00537969 0)
(1.02413 0.000680593 0)
(1.02472 0.00675646 0)
(1.02881 0.0120718 0)
(1.03604 0.0166226 0)
(1.04687 0.0205057 0)
(1.06269 0.0238998 0)
(1.08594 0.0269951 0)
(1.10292 0.0288731 0)
(1.00415 0.0232985 0)
(0.625035 0.00779028 0)
(0.126881 0.000279399 0)
(0.121053 -0.000194159 0)
(0.808642 -0.0117074 0)
(1.06893 -0.0224918 0)
(1.10515 -0.0238333 0)
(1.08165 -0.0210015 0)
(1.0618 -0.0176536 0)
(1.04814 -0.0138831 0)
(1.03855 -0.00948222 0)
(1.0321 -0.00441203 0)
(1.02875 0.00134806 0)
(1.02922 0.00708829 0)
(1.03331 0.0120166 0)
(1.04063 0.0161086 0)
(1.0516 0.0195546 0)
(1.06773 0.0225702 0)
(1.09142 0.0253544 0)
(1.09954 0.026333 0)
(0.969668 0.0196052 0)
(0.583974 0.00618199 0)
(0.11796 0.000226367 0)
(0.114731 -0.000149065 0)
(0.772935 -0.00928233 0)
(1.05201 -0.0192468 0)
(1.10731 -0.0213215 0)
(1.08732 -0.0189119 0)
(1.06708 -0.0157724 0)
(1.05319 -0.0122024 0)
(1.04341 -0.00804814 0)
(1.03673 -0.00329133 0)
(1.03313 0.00214955 0)
(1.03345 0.00754026 0)
(1.03749 0.0120415 0)
(1.04479 0.0157045 0)
(1.05581 0.0187668 0)
(1.07218 0.0214288 0)
(1.09558 0.0238716 0)
(1.09345 0.0240843 0)
(0.936448 0.0166667 0)
(0.55047 0.00504961 0)
(0.110737 0.000188215 0)
(0.109825 -0.000113859 0)
(0.743109 -0.00738204 0)
(1.03471 -0.0163411 0)
(1.10855 -0.01892 0)
(1.09267 -0.0168064 0)
(1.07209 -0.0137897 0)
(1.05792 -0.0103901 0)
(1.04796 -0.00645758 0)
(1.04109 -0.00195633 0)
(1.03726 0.00313716 0)
(1.03736 0.00810245 0)
(1.04123 0.0121763 0)
(1.04844 0.0154094 0)
(1.0595 0.0180735 0)
(1.07615 0.0204379 0)
(1.09862 0.0225757 0)
(1.08519 0.0220968 0)
(0.90518 0.0143291 0)
(0.522542 0.00422507 0)
(0.104735 0.000161097 0)
(0.106047 -8.46982e-05 0)
(0.718402 -0.0058223 0)
(1.01782 -0.0136778 0)
(1.10889 -0.0165942 0)
(1.09784 -0.0148574 0)
(1.07695 -0.0119481 0)
(1.06246 -0.00862231 0)
(1.05231 -0.0047856 0)
(1.04525 -0.000469215 0)
(1.04116 0.00430712 0)
(1.04098 0.00886134 0)
(1.04461 0.0125182 0)
(1.05167 0.0153793 0)
(1.06273 0.0177267 0)
(1.07964 0.0198181 0)
(1.10037 0.02153 0)
(1.07515 0.0203673 0)
(0.876117 0.0124762 0)
(0.498821 0.00361639 0)
(0.099622 0.000142828 0)
(0.103218 -5.86615e-05 0)
(0.698267 -0.00447796 0)
(1.00209 -0.0111663 0)
(1.10841 -0.014166 0)
(1.10263 -0.0126854 0)
(1.08166 -0.00984696 0)
(1.06688 -0.00659133 0)
(1.05643 -0.00288536 0)
(1.04906 0.0012304 0)
(1.04464 0.00572592 0)
(1.0441 0.00990796 0)
(1.04748 0.0131312 0)
(1.05444 0.0155859 0)
(1.06553 0.0175641 0)
(1.08259 0.0192553 0)
(1.10104 0.0205592 0)
(1.06373 0.0187737 0)
(0.849327 0.010973 0)
(0.478358 0.00315285 0)
(0.0951612 0.000129517 0)
(0.101228 -3.47596e-05 0)
(0.682321 -0.00326843 0)
(0.988077 -0.00876852 0)
(1.10751 -0.0116378 0)
(1.10715 -0.0102806 0)
(1.08629 -0.00746482 0)
(1.07114 -0.00428988 0)
(1.06041 -0.000706234 0)
(1.05275 0.00324611 0)
(1.04793 0.00745452 0)
(1.04695 0.0112068 0)
(1.04997 0.0139535 0)
(1.05671 0.0158954 0)
(1.06783 0.0174006 0)
(1.08503 0.0187717 0)
(1.10086 0.0197443 0)
(1.05136 0.0173972 0)
(0.824693 0.00977353 0)
(0.460431 0.00280813 0)
(0.0911744 0.000122377 0)
(0.100022 -1.12582e-05 0)
(0.670348 -0.00211133 0)
(0.97614 -0.00637367 0)
(1.10642 -0.00899823 0)
(1.11146 -0.00783227 0)
(1.09086 -0.00510978 0)
(1.07535 -0.00188329 0)
(1.06432 0.00174338 0)
(1.05626 0.00560606 0)
(1.0509 0.00955672 0)
(1.04942 0.0129015 0)
(1.05205 0.0151977 0)
(1.05851 0.0167547 0)
(1.06954 0.0178994 0)
(1.08687 0.0188313 0)
(1.09962 0.0192106 0)
(1.03821 0.0162433 0)
(0.802024 0.00881233 0)
(0.444507 0.00255718 0)
(0.0875173 0.000120108 0)
(0.0995963 1.13258e-05 0)
(0.662255 -0.000985292 0)
(0.966703 -0.00394914 0)
(1.10528 -0.00606854 0)
(1.11544 -0.00499002 0)
(1.09547 -0.00229145 0)
(1.07965 0.00100878 0)
(1.06819 0.00461949 0)
(1.05965 0.00839333 0)
(1.05372 0.0121351 0)
(1.05155 0.0150893 0)
(1.0536 0.0168278 0)
(1.05975 0.0177966 0)
(1.07067 0.018359 0)
(1.08784 0.0188317 0)
(1.09712 0.0187206 0)
(1.02437 0.0151798 0)
(0.781181 0.0080488 0)
(0.430154 0.00237658 0)
(0.0840689 0.000120163 0)
(0.0999708 5.01751e-05 0)
(0.658089 0.000176645 0)
(0.960213 -0.00141356 0)
(1.10478 -0.00283102 0)
(1.11945 -0.00160139 0)
(1.10005 0.00114896 0)
(1.08385 0.0044538 0)
(1.07193 0.00804608 0)
(1.06276 0.0117625 0)
(1.05604 0.0152921 0)
(1.05306 0.0178173 0)
(1.05451 0.0190105 0)
(1.06021 0.0193381 0)
(1.07098 0.0192974 0)
(1.08789 0.0192277 0)
(1.09337 0.0185065 0)
(1.01028 0.0144586 0)
(0.761881 0.0075155 0)
(0.416974 0.00227666 0)
(0.0807333 0.000124748 0)
(0.101299 7.12674e-05 0)
(0.658004 0.00138652 0)
(0.956772 0.00117916 0)
(1.10515 0.000516511 0)
(1.12372 0.0018267 0)
(1.10481 0.00465953 0)
(1.08822 0.00815124 0)
(1.07588 0.0119267 0)
(1.06612 0.0157548 0)
(1.05853 0.0191699 0)
(1.05452 0.0212819 0)
(1.05501 0.0219389 0)
(1.06004 0.0216727 0)
(1.0705 0.02103 0)
(1.087 0.0202439 0)
(1.08843 0.0188565 0)
(0.995549 0.0140729 0)
(0.743686 0.00723505 0)
(0.404537 0.00225558 0)
(0.0774179 0.00012864 0)
(0.10358 0.000113371 0)
(0.661786 0.00263839 0)
(0.956734 0.00389969 0)
(1.1065 0.00416753 0)
(1.12809 0.00565413 0)
(1.10977 0.00869479 0)
(1.09282 0.0125355 0)
(1.07984 0.0166493 0)
(1.06915 0.0206416 0)
(1.06033 0.0239594 0)
(1.05512 0.0256431 0)
(1.05464 0.0256417 0)
(1.05898 0.0247146 0)
(1.06893 0.0234418 0)
(1.08484 0.022014 0)
(1.08172 0.0196543 0)
(0.98015 0.0142095 0)
(0.7261 0.00737109 0)
(0.392214 0.00236829 0)
(0.0740248 0.000134529 0)
(0.106987 0.000163307 0)
(0.669822 0.00391625 0)
(0.960239 0.00655658 0)
(1.10954 0.0081279 0)
(1.133 0.0101864 0)
(1.11531 0.0136959 0)
(1.09804 0.017985 0)
(1.08429 0.0224595 0)
(1.07251 0.0266384 0)
(1.0623 0.029844 0)
(1.0555 0.0310248 0)
(1.05375 0.030338 0)
(1.05711 0.0286119 0)
(1.06643 0.0265991 0)
(1.08131 0.0244552 0)
(1.0735 0.0212289 0)
(0.964082 0.0152012 0)
(0.708239 0.00806232 0)
(0.379102 0.00265613 0)
(0.0703594 0.000147478 0)
(0.111611 0.00022027 0)
(0.681957 0.00530964 0)
(0.96767 0.00941792 0)
(1.11502 0.0123043 0)
(1.13915 0.0152407 0)
(1.12165 0.0195025 0)
(1.10374 0.0243686 0)
(1.08897 0.0293361 0)
(1.07578 0.0338717 0)
(1.06379 0.0370822 0)
(1.05516 0.0377749 0)
(1.05193 0.0363021 0)
(1.05422 0.0337114 0)
(1.06284 0.0308909 0)
(1.07636 0.028012 0)
(1.0639 0.0239786 0)
(0.946762 0.0171216 0)
(0.688918 0.00928505 0)
(0.364219 0.00310297 0)
(0.0661683 0.000169671 0)
(0.117667 0.000294982 0)
(0.698502 0.00704327 0)
(0.97925 0.0128296 0)
(1.12315 0.0170503 0)
(1.14695 0.0208535 0)
(1.12911 0.0260116 0)
(1.1103 0.031751 0)
(1.09429 0.0375568 0)
(1.07938 0.0426892 0)
(1.06516 0.0459919 0)
(1.05432 0.0461965 0)
(1.04926 0.0438503 0)
(1.05021 0.0403533 0)
(1.05811 0.0366754 0)
(1.07007 0.0329986 0)
(1.05248 0.0278717 0)
(0.927345 0.0198862 0)
(0.666957 0.0109465 0)
(0.346771 0.00366962 0)
(0.061266 0.000198596 0)
(0.125631 0.000403047 0)
(0.720314 0.00939793 0)
(0.995437 0.0172069 0)
(1.13409 0.0229708 0)
(1.15647 0.0277779 0)
(1.13806 0.034088 0)
(1.11817 0.0410442 0)
(1.10048 0.0479186 0)
(1.0833 0.0536868 0)
(1.06631 0.0569652 0)
(1.05281 0.0564627 0)
(1.04565 0.0531239 0)
(1.0451 0.0485575 0)
(1.05203 0.0438878 0)
(1.06211 0.039238 0)
(1.03866 0.0326939 0)
(0.905196 0.0233582 0)
(0.64135 0.0129141 0)
(0.326205 0.00429373 0)
(0.0555191 0.000229287 0)
(0.136291 0.00057048 0)
(0.748728 0.0127801 0)
(1.01742 0.0231086 0)
(1.1488 0.0309102 0)
(1.16844 0.0373417 0)
(1.14903 0.0452187 0)
(1.12756 0.0535937 0)
(1.10749 0.0614813 0)
(1.08729 0.067582 0)
(1.06692 0.0703579 0)
(1.05033 0.0686045 0)
(1.04088 0.0638135 0)
(1.03862 0.058016 0)
(1.04433 0.0522612 0)
(1.05214 0.0465145 0)
(1.02221 0.0385798 0)
(0.879495 0.0276323 0)
(0.611138 0.0151324 0)
(0.302209 0.00496268 0)
(0.0489184 0.000257986 0)
(0.150919 0.000840417 0)
(0.785756 0.017804 0)
(1.04704 0.0312956 0)
(1.16875 0.0416726 0)
(1.1841 0.0505853 0)
(1.1624 0.060353 0)
(1.13842 0.0702336 0)
(1.11497 0.0788621 0)
(1.09094 0.0848506 0)
(1.06658 0.0865927 0)
(1.04646 0.0830567 0)
(1.03453 0.0763142 0)
(1.0307 0.0687783 0)
(1.03505 0.0618107 0)
(1.04031 0.0550483 0)
(1.00288 0.045981 0)
(0.848788 0.0326953 0)
(0.575573 0.0175918 0)
(0.274536 0.00567329 0)
(0.0414751 0.000282956 0)
(0.171648 0.00130531 0)
(0.834437 0.0256111 0)
(1.08644 0.0432262 0)
(1.19505 0.0566698 0)
(1.20421 0.0683698 0)
(1.17845 0.0803116 0)
(1.15042 0.0914603 0)
(1.12248 0.100405 0)
(1.09386 0.10583 0)
(1.06493 0.106161 0)
(1.04092 0.100722 0)
(1.02627 0.0920257 0)
(1.02078 0.0826112 0)
(1.02421 0.0740749 0)
(1.02659 0.0662051 0)
(0.978955 0.0550455 0)
(0.811439 0.0383478 0)
(0.534352 0.0203324 0)
(0.243086 0.00641586 0)
(0.0332723 0.000301066 0)
(0.201756 0.00234129 0)
(0.90033 0.0389507 0)
(1.13813 0.062707 0)
(1.22752 0.0791583 0)
(1.22844 0.0935577 0)
(1.19647 0.106874 0)
(1.16286 0.118297 0)
(1.12953 0.126732 0)
(1.09573 0.130952 0)
(1.06192 0.129455 0)
(1.0339 0.122 0)
(1.01635 0.111516 0)
(1.00895 0.100513 0)
(1.01115 0.0902807 0)
(1.0092 0.0800473 0)
(0.947522 0.0650798 0)
(0.766864 0.0444585 0)
(0.487665 0.023468 0)
(0.208446 0.00721972 0)
(0.0246484 0.000309079 0)
(0.242755 0.00861452 1.03166e-19)
(0.987577 0.0659317 8.90332e-20)
(1.19979 0.096018 -3.04811e-20)
(1.26345 0.113369 0)
(1.25343 0.129905 -7.09449e-34)
(1.21412 0.142429 1.01942e-20)
(1.17446 0.152569 -1.73289e-20)
(1.13541 0.15941 0)
(1.09612 0.161698 3.33208e-34)
(1.05711 0.157981 -1.93281e-20)
(1.02474 0.148365 0)
(1.00386 0.136166 -2.20003e-20)
(0.993763 0.123644 -6.42599e-20)
(0.992848 0.111347 -3.01453e-20)
(0.983043 0.0976133 -8.97588e-21)
(0.905547 0.0785803 -5.30276e-21)
(0.711555 0.0537286 0)
(0.432037 0.0283586 3.70742e-21)
(0.171206 0.00920108 4.38038e-21)
(0.01666 0.000656187 7.89648e-20)
(0.270431 0.0242202 8.9713e-20)
(1.05852 0.108399 5.15366e-22)
(1.249 0.144001 8.77552e-21)
(1.29519 0.161423 0)
(1.27484 0.176565 -3.80794e-20)
(1.22936 0.186904 -4.19512e-20)
(1.18414 0.195182 -1.79998e-20)
(1.13941 0.200199 -6.07805e-20)
(1.09439 0.200517 0)
(1.04955 0.194552 8.27296e-20)
(1.01178 0.182534 8.02796e-20)
(0.986051 0.167965 2.34914e-20)
(0.970746 0.152868 8.38677e-20)
(0.961522 0.137036 1.1614e-19)
(0.938705 0.11922 0)
(0.849484 0.0970843 1.62302e-19)
(0.649193 0.0674853 2.32745e-19)
(0.37683 0.0365368 2.58541e-19)
(0.139512 0.0126533 -2.95425e-19)
(0.0104787 0.000942838 -5.55979e-21)
(0.269933 0.0394866 0)
(1.10167 0.163777 1.90291e-20)
(1.28111 0.203408 0)
(1.31852 0.220417 -5.88342e-20)
(1.291 0.231708 0)
(1.24095 0.238424 -8.62629e-20)
(1.19088 0.243464 3.76466e-20)
(1.14082 0.245468 -1.25926e-19)
(1.09031 0.24268 -1.57187e-21)
(1.03979 0.23328 4.34858e-20)
(0.996551 0.217704 1.75197e-19)
(0.965657 0.199869 -3.10426e-22)
(0.94461 0.181877 -6.06801e-20)
(0.927973 0.163817 -1.08898e-19)
(0.898191 0.144683 1.28441e-19)
(0.809123 0.120658 -2.27029e-19)
(0.616258 0.0859449 -2.98814e-20)
(0.358985 0.048491 0)
(0.137276 0.018199 1.60426e-23)
(0.0109934 0.00155258 0)
(0.262798 0.0529189 3.33177e-19)
(1.12355 0.222463 -1.49848e-19)
(1.3 0.267692 -9.86016e-20)
(1.33255 0.284577 3.00234e-20)
(1.3006 0.291941 -4.9295e-20)
(1.24772 0.294638 1.82982e-19)
(1.19387 0.295766 7.96561e-20)
(1.13925 0.293933 0)
(1.08373 0.287211 -2.26449e-19)
(1.02779 0.273566 0)
(0.979298 0.253869 -9.28183e-20)
(0.943555 0.232714 -1.11225e-19)
(0.917616 0.212325 -6.58549e-20)
(0.896124 0.192801 -7.8779e-20)
(0.863815 0.172927 0)
(0.780004 0.147441 0)
(0.600538 0.108754 -1.95064e-19)
(0.361935 0.0650679 3.84378e-20)
(0.147887 0.0266428 -2.26348e-20)
(0.0146635 0.00282229 -2.64615e-20)
(0.255192 0.0649266 -1.94818e-19)
(1.13224 0.281019 0)
(1.30958 0.332987 2.33129e-19)
(1.33882 0.350281 9.19879e-20)
(1.30402 0.354171 1.0883e-19)
(1.24943 0.352967 0)
(1.19272 0.350071 8.15478e-20)
(1.13435 0.344101 1.4187e-19)
(1.07447 0.333067 1.18297e-19)
(1.01367 0.314871 2.03226e-19)
(0.960412 0.291027 0)
(0.920541 0.266781 -2.3961e-19)
(0.890845 0.244444 -1.4205e-19)
(0.866167 0.224018 -8.33941e-20)
(0.832984 0.203583 5.04054e-19)
(0.756113 0.176811 5.99243e-20)
(0.592022 0.134407 2.81889e-19)
(0.370491 0.0844875 -1.33095e-18)
(0.162035 0.0373676 7.90851e-19)
(0.0194553 0.00474006 -9.53182e-19)
(0.248399 0.0758486 -1.70451e-19)
(1.13283 0.337553 3.76857e-20)
(1.31249 0.397374 -3.29444e-20)
(1.3392 0.415437 -1.18069e-19)
(1.3024 0.416326 -1.06489e-19)
(1.24664 0.411538 1.74974e-21)
(1.18771 0.404755 -8.78287e-20)
(1.12627 0.394661 1.49172e-19)
(1.06266 0.379299 -2.54138e-19)
(0.997617 0.356581 0)
(0.940263 0.328729 -1.10002e-19)
(0.897008 0.301659 -1.60487e-21)
(0.864567 0.277582 -1.54279e-19)
(0.837919 0.256326 0)
(0.804903 0.235402 -1.08757e-19)
(0.733425 0.207472 -2.58173e-19)
(0.584359 0.161786 6.89519e-19)
(0.378169 0.105251 -6.78043e-19)
(0.174061 0.0491031 9.64332e-19)
(0.0236418 0.00695247 -1.00202e-18)
(0.243005 0.08606 -4.04202e-22)
(1.12857 0.391449 -3.60848e-20)
(1.31087 0.460056 -1.3085e-19)
(1.33527 0.478819 5.8791e-20)
(1.29689 0.477146 -5.57517e-20)
(1.24022 0.469125 0)
(1.1795 0.458719 -8.7863e-20)
(1.11548 0.444702 -1.57776e-19)
(1.04867 0.425179 -1.33764e-19)
(0.979961 0.398112 0)
(0.919134 0.366405 -1.15426e-19)
(0.873152 0.336593 -1.38699e-19)
(0.838723 0.31079 1.66504e-19)
(0.810847 0.288494 -9.95996e-20)
(0.778258 0.266818 -4.71295e-19)
(0.711689 0.237436 2.80506e-19)
(0.575011 0.188876 8.38624e-20)
(0.381305 0.125783 0)
(0.181527 0.0605346 -9.26887e-19)
(0.0265595 0.00910397 -3.39409e-20)
(0.238954 0.0958626 -2.1268e-20)
(1.12149 0.442565 3.59106e-20)
(1.30602 0.520607 6.86902e-20)
(1.32823 0.539779 1.93303e-19)
(1.28848 0.535898 -2.27165e-19)
(1.23104 0.525004 2.08609e-19)
(1.1688 0.51129 1.88452e-19)
(1.10258 0.493633 -2.52528e-19)
(1.033 0.470212 7.77496e-20)
(0.961067 0.439016 -4.99057e-19)
(0.897225 0.403571 -1.27914e-19)
(0.84905 0.370989 0)
(0.813146 0.343316 1.7959e-19)
(0.784498 0.319789 2.12725e-19)
(0.75246 0.297197 2.52753e-19)
(0.68978 0.266177 -3.02683e-19)
(0.562987 0.214844 -8.9488e-20)
(0.378826 0.144936 1.05439e-19)
(0.183181 0.070537 0)
(0.0278901 0.0108766 -7.31637e-20)
(0.236056 0.105395 2.05034e-19)
(1.11298 0.491026 -1.42315e-19)
(1.29881 0.578291 -7.17251e-20)
(1.31896 0.597982 1.32516e-19)
(1.27797 0.592186 -1.15428e-19)
(1.2198 0.578737 -4.02779e-21)
(1.15626 0.562058 -2.03455e-19)
(1.08813 0.541096 -9.07034e-20)
(1.01608 0.514076 -2.31072e-19)
(0.941264 0.478994 2.43491e-22)
(0.874747 0.439892 -4.03685e-19)
(0.824702 0.404446 3.28023e-19)
(0.787719 0.374704 -1.95231e-19)
(0.758634 0.349716 2.31818e-19)
(0.7272 0.325759 0)
(0.667725 0.292935 -1.62979e-19)
(0.548045 0.238183 -7.83564e-22)
(0.371064 0.161044 -4.55626e-19)
(0.18018 0.0781486 -6.70905e-20)
(0.0277666 0.0120477 0)
(0.234139 0.114746 0)
(1.10379 0.537027 -1.48713e-19)
(1.28999 0.633066 -1.42105e-19)
(1.30812 0.65333 -1.36937e-19)
(1.26597 0.645819 -1.29676e-19)
(1.20713 0.63011 0)
(1.14243 0.610794 -1.00945e-19)
(1.0726 0.586869 -1.16863e-21)
(0.998339 0.556582 4.94379e-19)
(0.920855 0.517868 -6.95541e-20)
(0.851855 0.475178 -2.90034e-19)
(0.800143 0.436752 1.72208e-19)
(0.762263 0.404686 -2.04095e-21)
(0.732929 0.377932 2.46752e-19)
(0.702046 0.352333 1.49751e-19)
(0.644884 0.31714 -3.50878e-19)
(0.530222 0.258207 4.15781e-19)
(0.358487 0.173874 1.22806e-19)
(0.172975 0.0831355 5.06381e-19)
(0.0262848 0.0125141 -1.35595e-18)
(0.23311 0.124046 3.90885e-20)
(1.09447 0.580739 -7.15221e-20)
(1.28019 0.684983 6.38346e-20)
(1.2962 0.705833 1.38215e-19)
(1.25298 0.696739 0)
(1.1935 0.679022 -1.14519e-19)
(1.12777 0.657381 3.30042e-19)
(1.05642 0.630831 2.02411e-19)
(0.980108 0.597612 0)
(0.900096 0.555543 -9.8687e-19)
(0.828688 0.509348 7.80094e-19)
(0.775364 0.467828 0)
(0.736663 0.433207 2.26001e-19)
(0.707138 0.404374 -2.02215e-21)
(0.676689 0.376768 -4.78215e-19)
(0.621105 0.338688 1.87279e-19)
(0.509778 0.274732 0)
(0.34212 0.183078 6.60632e-19)
(0.162395 0.0856553 0)
(0.023911 0.0124007 -6.38869e-19)
(0.232783 0.13334 -3.84113e-20)
(1.08542 0.622253 -6.85968e-20)
(1.26958 0.734128 6.99193e-20)
(1.28358 0.755491 0)
(1.2394 0.744962 -1.35631e-19)
(1.17931 0.725466 0)
(1.11264 0.701774 -3.40454e-19)
(1.0399 0.672923 -1.00675e-19)
(0.961688 0.637111 9.00338e-20)
(0.879223 0.59198 -4.87467e-19)
(0.805371 0.542406 8.15248e-20)
(0.750359 0.497691 0)
(0.710799 0.460276 -4.82606e-19)
(0.681071 0.429049 2.06439e-21)
(0.650882 0.399071 0)
(0.596135 0.357552 2.21732e-21)
(0.486763 0.28781 6.01076e-19)
(0.322352 0.188575 -5.6923e-19)
(0.149304 0.0857271 1.67809e-19)
(0.0209465 0.011748 0)
(0.23282 0.142503 0)
(1.07676 0.661733 -6.71485e-20)
(1.25851 0.78062 -6.54121e-20)
(1.27058 0.802357 -2.30733e-21)
(1.22551 0.790533 -6.55058e-20)
(1.16486 0.769462 -2.59245e-19)
(1.09736 0.743979 1.2382e-19)
(1.02335 0.71313 -1.12976e-19)
(0.94333 0.675052 3.93944e-19)
(0.858431 0.627184 -7.78793e-19)
(0.782021 0.5744 -3.43607e-21)
(0.725154 0.526426 -2.15655e-19)
(0.684603 0.48598 7.7953e-19)
(0.654598 0.45208 -2.42493e-21)
(0.624484 0.419348 -3.6862e-19)
(0.569913 0.373771 -6.56751e-19)
(0.461426 0.29749 0)
(0.29976 0.190564 0)
(0.134244 0.0834137 1.80919e-19)
(0.0176329 0.0105945 -1.0588e-19)
(0.233367 0.151632 -3.57224e-20)
(1.06854 0.698992 1.3619e-19)
(1.24726 0.824529 6.94732e-20)
(1.25743 0.846526 0)
(1.21154 0.833521 -1.55982e-21)
(1.1504 0.811057 -2.63371e-19)
(1.08215 0.784021 3.16431e-19)
(1.00698 0.751456 4.62915e-19)
(0.925244 0.711441 5.17671e-19)
(0.837914 0.661179 -6.39883e-19)
(0.758789 0.605417 -6.67229e-19)
(0.699813 0.554173 5.76349e-19)
(0.658059 0.510484 0)
(0.627628 0.473572 -1.67725e-19)
(0.597414 0.437642 -3.97604e-19)
(0.542434 0.387298 -4.70606e-19)
(0.433723 0.303568 -5.58304e-19)
(0.274882 0.189004 1.65071e-19)
(0.11766 0.0787364 -9.71726e-20)
(0.0140079 0.00898105 3.16032e-22)
(0.233981 0.160638 0)
(1.06088 0.734569 0)
(1.23597 0.86595 2.60457e-21)
(1.24431 0.888101 0)
(1.19768 0.874025 2.09129e-19)
(1.13611 0.850325 2.00942e-19)
(1.06721 0.821942 0)
(0.990976 0.787924 5.83219e-20)
(0.907614 0.746287 8.72043e-19)
(0.817857 0.694 -1.46786e-18)
(0.73585 0.635562 0)
(0.674431 0.581109 -3.6996e-19)
(0.63112 0.533957 -2.94858e-21)
(0.600056 0.493644 -2.40355e-21)
(0.569554 0.453966 4.24734e-19)
(0.513663 0.398022 -3.95177e-22)
(0.403877 0.305995 -1.19985e-18)
(0.247888 0.183849 3.54728e-19)
(0.100408 0.0721231 1.04812e-19)
(0.0104036 0.00709392 0)
(0.234581 0.169459 9.64066e-20)
(1.05352 0.768443 6.47614e-20)
(1.22472 0.90494 1.33171e-19)
(1.23134 0.927182 -2.83839e-19)
(1.18407 0.912116 3.56129e-19)
(1.12214 0.887337 0)
(1.05267 0.857799 2.05308e-19)
(0.975484 0.822569 -1.26966e-19)
(0.890588 0.779617 3.86472e-21)
(0.798435 0.725684 1.06603e-19)
(0.713355 0.664927 8.64555e-19)
(0.649096 0.607415 -1.30371e-19)
(0.603796 0.556638 -4.78391e-19)
(0.57175 0.512445 -1.94267e-19)
(0.540756 0.468243 2.30113e-19)
(0.483616 0.405661 -2.33805e-22)
(0.372502 0.304557 3.22989e-19)
(0.219847 0.175349 -7.62098e-19)
(0.0831448 0.0639821 9.00966e-19)
(0.00695881 0.00505332 1.31375e-19)
(0.235013 0.177971 -3.01139e-20)
(1.04647 0.800707 3.19517e-20)
(1.21364 0.941616 6.12141e-21)
(1.21863 0.963886 -1.3938e-19)
(1.17081 0.947905 -6.93223e-20)
(1.10859 0.922168 -3.72633e-19)
(1.03865 0.891646 6.7735e-20)
(0.960611 0.855419 -5.35685e-19)
(0.874291 0.811433 -9.74268e-19)
(0.779776 0.756237 -8.80432e-19)
(0.691461 0.693586 0)
(0.623956 0.633273 -5.66295e-19)
(0.576112 0.578809 6.86215e-19)
(0.542526 0.530175 0)
(0.510716 0.480331 -4.92238e-19)
(0.452231 0.409694 2.93477e-19)
(0.340089 0.298802 -3.46586e-19)
(0.191917 0.163714 -4.0981e-19)
(0.0668066 0.0548512 -7.25142e-19)
(0.00387917 0.00302793 -5.65308e-19)
(0.235731 0.18631 2.75542e-20)
(1.03961 0.831328 -3.40436e-20)
(1.20277 0.976054 -9.1506e-20)
(1.20624 0.998294 -1.77003e-19)
(1.15798 0.981479 1.51417e-19)
(1.09553 0.954908 -2.28172e-19)
(1.02521 0.923542 2.19904e-19)
(0.946435 0.88652 -5.61107e-19)
(0.858799 0.841764 -5.79991e-19)
(0.761998 0.785674 9.27127e-19)
(0.67033 0.721595 1.89924e-18)
(0.599185 0.658849 0)
(0.548139 0.600766 0)
(0.512156 0.547172 -2.23095e-19)
(0.478875 0.490142 0)
(0.419123 0.409273 6.30961e-19)
(0.30731 0.287749 7.45313e-19)
(0.165818 0.148878 0)
(0.0527386 0.0453312 0)
(0.00136303 0.0012304 6.07105e-19)
(0.236061 0.194168 -2.4197e-20)
(1.03295 0.860301 -2.17506e-20)
(1.19218 1.00837 -6.31137e-20)
(1.19424 1.03053 1.39183e-19)
(1.14562 1.01294 1.5421e-19)
(1.08302 0.985632 2.71968e-19)
(1.01242 0.953551 -3.08528e-19)
(0.933012 0.915906 1.42824e-22)
(0.844184 0.870616 -4.99974e-21)
(0.745195 0.813993 -5.60012e-21)
(0.65013 0.748986 9.78374e-19)
(0.574976 0.684262 0)
(0.520038 0.622818 6.89911e-19)
(0.480466 0.563923 4.75431e-19)
(0.444379 0.497901 1.14246e-18)
(0.383208 0.403406 3.388e-19)
(0.274577 0.269201 -4.01505e-19)
(0.144813 0.128975 -2.35968e-19)
(0.0454199 0.0350458 0)
(0.00081647 0.000271885 6.51862e-19)
(0.236663 0.202003 4.00016e-20)
(1.02648 0.887721 0)
(1.18186 1.03862 -5.76677e-20)
(1.18263 1.06068 1.06114e-19)
(1.13378 1.04238 -1.52972e-19)
(1.07108 1.01443 -3.55611e-19)
(1.0003 0.981731 6.3636e-19)
(0.920369 0.943616 -4.30761e-20)
(0.830479 0.898004 0)
(0.729441 0.841167 -1.03422e-18)
(0.631006 0.77575 -2.13462e-18)
(0.551553 0.709599 8.40823e-20)
(0.49209 0.645235 9.47254e-19)
(0.447461 0.581053 0)
(0.406242 0.504401 7.67758e-19)
(0.342171 0.391812 0)
(0.239473 0.239504 0)
(0.131642 0.0934674 -2.55142e-19)
(0.0635779 0.0127952 0)
(0.0261713 0.0105027 1.74646e-19)
(0.236865 0.209209 3.25201e-20)
(1.02017 0.913939 0)
(1.1718 1.067 -8.21221e-20)
(1.1714 1.08896 0)
(1.12241 1.07005 7.4611e-20)
(1.05965 1.04157 0)
(0.98878 1.00839 3.75131e-20)
(0.908408 0.96999 7.89019e-20)
(0.81757 0.924293 7.29395e-20)
(0.714586 0.867587 -1.14201e-18)
(0.612816 0.80232 6.53427e-20)
(0.528769 0.735437 6.69454e-19)
(0.46407 0.668662 9.22407e-19)
(0.412585 0.599541 1.22694e-19)
(0.362781 0.511406 5.98745e-19)
(0.291709 0.376457 0)
(0.190541 0.198286 8.44037e-19)
(0.0972581 0.0328671 -4.94688e-19)
(0.0446548 0.0446543 5.7505e-19)
(-0.0688341 0.424515 -6.79854e-19)
(0.237028 0.216181 -1.9936e-20)
(1.01378 0.938733 -5.04092e-20)
(1.16194 1.09384 0)
(1.16039 1.11581 5.20051e-21)
(1.11134 1.09652 -1.85317e-19)
(1.04849 1.06775 5.97907e-19)
(0.97757 1.03434 2.42035e-19)
(0.896739 0.995966 0)
(0.804945 0.950571 5.02315e-19)
(0.699985 0.894551 -6.17201e-20)
(0.594688 0.830157 0)
(0.505517 0.763537 0)
(0.434588 0.694877 8.23996e-19)
(0.374333 0.621075 -3.7614e-19)
(0.311203 0.521963 -6.03185e-19)
(0.227203 0.362931 0)
(0.109642 0.183179 4.23846e-19)
(0.00832268 0.432683 -4.92007e-19)
(0.0373537 1.86343 -2.75358e-19)
(0.0677777 2.79699 -3.48276e-19)
(0.237018 0.222294 6.38649e-21)
(1.00751 0.962281 4.87067e-20)
(1.15227 1.11911 -3.9468e-20)
(1.14962 1.14107 -6.48719e-20)
(1.1006 1.12156 0)
(1.03763 1.09266 4.04056e-19)
(0.966848 1.05924 3.61602e-19)
(0.885537 1.02111 -4.02097e-20)
(0.792859 0.976321 7.41947e-20)
(0.686005 0.92144 1.10108e-18)
(0.577213 0.858575 1.08882e-18)
(0.48277 0.793453 7.52031e-19)
(0.404727 0.723552 8.26387e-19)
(0.334764 0.644254 -8.77987e-19)
(0.25752 0.53893 -9.06426e-19)
(0.150602 0.389373 0)
(0.0538836 0.821972 0)
(0.110347 2.53257 2.37948e-19)
(0.11177 3.18966 0)
(0.114743 3.38352 5.83334e-19)
(0.239533 0.227864 0)
(1.00196 0.984746 0)
(1.14258 1.14268 0)
(1.13883 1.16453 -1.39089e-20)
(1.08989 1.14495 -1.57898e-19)
(1.02686 1.11617 2.80568e-19)
(0.956508 1.083 2.44412e-19)
(0.874756 1.04533 -4.04382e-20)
(0.781275 1.00141 6.50556e-19)
(0.672675 0.948117 -9.96805e-21)
(0.560541 0.887461 2.16691e-18)
(0.460903 0.825006 -8.56692e-20)
(0.374963 0.755514 1.00968e-19)
(0.296196 0.666216 1.25949e-19)
(0.196702 0.563258 -1.09248e-21)
(0.115284 0.954644 1.7631e-21)
(0.152536 2.68487 -1.22601e-18)
(0.164329 3.28477 -4.68669e-19)
(0.15109 3.42537 2.51162e-19)
(0.136078 3.44881 -2.84051e-19)
(0.157047 0.184197 3.08195e-21)
(0.990982 1.00894 0)
(1.13263 1.16478 5.26743e-20)
(1.12864 1.18666 1.39488e-19)
(1.07997 1.16744 -2.78886e-19)
(1.01708 1.13894 -2.87558e-19)
(0.946446 1.10574 -2.67778e-19)
(0.864495 1.06874 5.04771e-19)
(0.77037 1.02599 -5.45392e-19)
(0.660303 0.974704 0)
(0.545104 0.916955 1.0772e-18)
(0.440502 0.85802 -6.17795e-19)
(0.345823 0.793705 0)
(0.259173 0.690742 1.1803e-19)
(0.167252 0.813045 2.80342e-19)
(0.168017 2.4388 -3.35264e-19)
(0.232678 3.31951 3.8008e-19)
(0.20983 3.44171 2.11083e-19)
(0.174138 3.46412 2.41594e-19)
(0.150497 3.47478 3.99412e-19)
(0.282617 0.266387 6.37377e-22)
(0.975908 1.01867 0)
(1.11462 1.18965 -3.70479e-20)
(1.11418 1.21911 -1.16408e-19)
(1.06397 1.20055 2.51553e-19)
(1.00054 1.17253 2.59973e-19)
(0.929063 1.14075 3.37634e-19)
(0.846493 1.1049 3.87041e-20)
(0.751104 1.06421 5.47319e-19)
(0.638479 1.0166 9.97662e-19)
(0.51855 0.964864 6.30159e-20)
(0.406219 0.913286 5.57938e-19)
(0.295147 0.857931 9.62789e-20)
(0.224539 0.975516 -1.17614e-19)
(0.241951 2.28428 -2.7056e-19)
(0.307773 3.32348 2.74636e-19)
(0.292342 3.47507 -3.12525e-19)
(0.254659 3.49749 -1.82596e-19)
(0.215677 3.52535 -1.72237e-19)
(0.161955 3.51843 -1.97882e-20)
(0.270369 0.263078 0)
(0.973527 1.04109 2.53061e-21)
(1.10681 1.21284 3.47724e-21)
(1.1045 1.24227 9.14877e-21)
(1.05398 1.22358 1.48325e-19)
(0.990599 1.19579 -2.43722e-19)
(0.918781 1.16418 -2.08743e-19)
(0.836091 1.12911 3.64104e-20)
(0.740354 1.08985 -5.85692e-19)
(0.626796 1.04495 -1.43784e-20)
(0.504802 0.997821 -2.00207e-18)
(0.389193 0.952247 7.90962e-20)
(0.282603 0.924503 -9.22611e-20)
(0.264785 1.45786 -1.11425e-19)
(0.344502 3.07172 1.77944e-20)
(0.369845 3.47195 8.75759e-22)
(0.32785 3.53367 5.10864e-19)
(0.28909 3.55814 2.70228e-19)
(0.238333 3.58225 -1.0595e-19)
(0.17656 3.57781 -1.11323e-19)
(0.253759 0.261226 1.80896e-20)
(0.969518 1.0661 2.99526e-20)
(1.0985 1.2381 8.35918e-21)
(1.09426 1.26684 3.51134e-20)
(1.0435 1.24794 0)
(0.98025 1.22018 -3.00534e-19)
(0.90838 1.18881 -2.86763e-19)
(0.825851 1.15449 3.40031e-20)
(0.730087 1.11673 -6.41506e-20)
(0.616098 1.07471 -9.51363e-19)
(0.4928 1.03245 -9.46892e-19)
(0.375718 0.993777 -6.69272e-19)
(0.285428 1.04866 -7.04923e-19)
(0.334197 2.12789 7.23188e-19)
(0.433228 3.37237 6.36929e-19)
(0.415918 3.53466 0)
(0.367685 3.57991 0)
(0.329752 3.62261 -8.87821e-20)
(0.273883 3.68523 0)
(0.188888 3.65885 -1.4391e-19)
(0.242619 0.262747 -3.99781e-20)
(0.963513 1.09213 -4.1612e-20)
(1.08878 1.26451 0)
(1.08273 1.29223 6.19516e-21)
(1.03184 1.27291 1.10183e-19)
(0.968816 1.24504 -4.06335e-19)
(0.897228 1.21391 -1.74995e-19)
(0.815063 1.18024 2.8294e-20)
(0.719511 1.14388 -4.5671e-19)
(0.605475 1.10469 5.10169e-20)