/*--------------------------------*- C++ -*----------------------------------*\
| =========                 |                                                 |
| \\      /  F ield         | OpenFOAM: The Open Source CFD Toolbox           |
|  \\    /   O peration     | Version:  2112                                  |
|   \\  /    A nd           | Website:  www.openfoam.com                      |
|    \\/     M anipulation  |                                                 |
\*---------------------------------------------------------------------------*/
FoamFile
{
    version     2.0;
    format      ascii;
    arch        "LSB;label=32;scalar=64";
    class       surfaceScalarField;
    location    "0.04";
    object      phi;
}
// * * * * * * * * * * * * * * * * * * * * * * * * * * * * * * * * * * * * * //

dimensions      [1 0 -1 0 0 0 0];

oriented        oriented;

internalField   nonuniform List<scalar> 
999
(
4.0640824e-12
1.5908386e-11
1.660827e-11
1.2489343e-11
1.7653878e-11
2.6670222e-11
2.7801317e-11
3.054601e-11
3.8134829e-11
4.7607362e-11
5.6490701e-11
4.7137072e-11
4.7126303e-11
4.4863446e-11
4.503975e-11
3.9223957e-11
1.6638468e-11
4.6112558e-11
4.3061554e-11
5.2136073e-11
4.2103765e-11
4.5934812e-11
3.3187786e-11
4.6065374e-11
2.0106805e-11
1.1077028e-11
1.8131607e-11
2.890288e-11
3.8973047e-11
3.7423731e-11
3.9775294e-11
3.5746073e-11
4.0927151e-11
3.8534065e-11
5.4971472e-11
6.3039463e-11
5.5520588e-11
3.281142e-11
3.4004244e-11
3.4807046e-11
3.7098324e-11
1.8068325e-11
1.5925927e-11
1.5199175e-11
1.6278756e-11
2.2198021e-11
1.3201329e-11
8.3913987e-12
1.4899193e-13
-5.5910832e-13
-2.4213964e-13
-1.7841284e-13
-1.2524204e-11
-2.2946089e-12
3.0053737e-12
1.7130741e-13
3.1865621e-12
1.0363932e-11
2.5536573e-11
1.9710122e-11
1.4161117e-11
3.080769e-11
3.2008285e-11
1.3645751e-11
1.3762547e-11
1.6662227e-12
9.9504849e-12
1.1928236e-12
1.0751955e-11
1.634537e-11
1.6967427e-11
2.7747027e-11
7.7200468e-12
2.7846725e-11
1.0209278e-11
7.6171291e-12
1.8810842e-11
-9.0025765e-12
-5.0270899e-13
-1.1477264e-11
-2.332512e-11
-6.6788797e-12
-1.4147239e-11
-2.577516e-11
-3.4711456e-11
-2.0428326e-11
-2.3230085e-11
-4.2395309e-11
-3.8043901e-11
-2.7267744e-11
-1.0967893e-11
-2.528433e-11
-3.1323277e-11
-3.3179015e-12
-4.6419535e-12
-1.1051715e-11
-1.1886159e-11
-1.6918689e-11
-1.5872859e-11
-6.0015326e-12
-2.384748e-11
5.4529714e-12
-8.7998497e-12
7.4491524e-12
-5.2158278e-13
9.5201624e-12
1.1713297e-11
2.091205e-11
1.3389512e-11
-3.2021052e-12
-7.108425e-12
-1.0748069e-11
-1.329159e-12
1.4094947e-11
2.5164648e-11
1.3814172e-11
-1.1068924e-13
-5.067613e-12
-4.0736858e-11
-2.2276736e-11
-1.4159118e-11
-3.7336689e-11
-3.2025493e-11
-1.2546297e-11
-5.1139093e-12
-3.8019587e-12
7.9869444e-12
-2.9283242e-12
-1.31406e-12
-9.5192743e-12
1.0788703e-11
1.4722779e-11
1.1108559e-11
-1.5043522e-12
1.7025936e-11
1.9411805e-11
2.9035996e-11
2.2779556e-12
-1.2777557e-12
-7.7237106e-12
-1.0689227e-12
-8.9523944e-12
9.7409858e-12
1.7567947e-11
2.6660896e-11
2.1164959e-11
8.6806118e-12
2.6690872e-12
2.2666313e-12
-9.3614005e-13
-2.2485125e-11
-5.9972027e-12
-2.5282221e-11
-1.0397572e-11
-4.3604009e-12
7.9923845e-12
-1.1422974e-11
-7.8276274e-12
-2.2927438e-11
-1.227618e-11
-1.6467494e-11
-3.5778824e-11
-3.055256e-11
-3.413636e-11
-2.6055158e-11
-2.7104541e-11
-1.5168311e-11
-3.8475112e-11
-4.2626458e-11
-1.3494761e-11
-1.3995582e-11
-8.9618313e-12
-2.4091396e-11
-2.8441804e-11
-2.7081781e-11
-3.554157e-12
-3.5944581e-11
-1.5841106e-11
-3.9550252e-11
-3.4589664e-11
-1.2989609e-11
-2.2725377e-11
-1.6867396e-11
-6.5925043e-12
-2.1100899e-11
-2.384748e-11
-1.2970292e-11
-6.1979311e-12
5.8959504e-12
-2.2121194e-11
-1.602618e-11
-4.0462078e-12
-2.5514479e-11
-1.7434942e-11
-7.2197803e-12
-1.6832313e-11
-1.788103e-11
-1.7388091e-11
-2.074807e-11
-2.9498404e-11
-6.6364692e-12
-1.5931478e-11
-1.0796697e-11
7.1154194e-12
5.7167604e-12
8.9190877e-12
3.9814818e-12
1.2798651e-12
1.5038637e-11
-6.8385297e-12
-1.1830537e-12
-1.0259127e-11
-4.6029847e-12
3.1787906e-12
-1.2023715e-12
-3.0960789e-12
-8.2658325e-12
-3.3271164e-12
5.9399152e-12
-1.3974155e-11
1.2190249e-13
7.6185724e-12
-2.5589086e-11
2.5026647e-12
-1.6501245e-11
-2.9582337e-11
-1.6521451e-11
-1.7436497e-11
-2.4179103e-11
-4.7958304e-12
-2.2370994e-12
1.357503e-11
8.9245278e-12
1.3618995e-11
3.9076742e-11
4.938272e-12
2.3776092e-11
2.3803848e-11
1.0886625e-11
2.8001601e-11
1.0261569e-11
-2.1993518e-13
4.241163e-12
7.8936857e-13
1.2365775e-11
3.132461e-11
1.5684343e-11
1.4121815e-11
1.4474533e-11
7.1943562e-12
1.300926e-11
9.62741e-12
1.3988144e-11
2.0737856e-12
7.2153394e-12
1.2128076e-12
-3.4983128e-12
-1.0561552e-11
6.8025585e-12
1.3350654e-11
1.2189805e-11
1.5141e-11
-6.5680794e-12
1.7782331e-11
2.8194447e-11
-4.2339465e-12
-6.5769612e-13
-4.0645265e-12
8.4955376e-12
-3.2729375e-13
7.5323081e-12
8.6579632e-12
1.1657342e-13
-1.0048851e-11
-9.7859498e-12
-1.2323476e-11
9.6906927e-12
-7.8470563e-12
-3.5513814e-12
-1.3881785e-11
-5.9572347e-12
-5.4394267e-12
7.128298e-12
-1.4435897e-11
-2.2765345e-11
-1.7682411e-11
-1.4582335e-11
-1.130851e-11
2.1693758e-12
-5.2973181e-12
-4.5918824e-12
-3.2480685e-12
-4.0686565e-11
-7.2593043e-12
-2.1016522e-11
-2.1258106e-11
-1.4776402e-11
-1.3140156e-11
-9.0392138e-12
2.792655e-12
1.0082823e-11
1.2285284e-11
1.0946799e-11
2.2623459e-11
-1.1462831e-11
-2.3062885e-11
-1.4092727e-11
-1.0833334e-11
-1.532463e-11
-1.3438806e-11
-4.7779558e-12
-2.0615287e-11
-1.541256e-11
-5.5719873e-12
-1.4281465e-11
-2.4261038e-11
-2.1872837e-11
-1.7110202e-11
-1.2040591e-11
6.297185e-13
3.6008974e-12
7.8648199e-13
4.4249049e-12
2.1155966e-11
1.603162e-12
1.9794388e-11
2.1999513e-11
2.9379388e-11
2.2499336e-11
4.7029713e-11
2.267142e-11
2.6489921e-11
3.6600722e-11
2.7278402e-11
1.9567015e-11
2.5335067e-11
1.2323476e-11
2.8422931e-11
7.7169382e-12
9.1573416e-12
1.9703128e-11
1.3390178e-11
-6.0964567e-12
3.1596947e-12
-1.1729284e-11
-5.8872907e-12
4.8376858e-12
2.7393643e-12
-1.3471224e-11
-2.9804603e-11
-1.9794943e-11
-2.3482216e-11
8.9039887e-14
-2.4378943e-11
-2.0096369e-11
-1.4207968e-11
-4.3711701e-12
-7.5035533e-12
-1.1780132e-11
-9.4615427e-12
-1.4046764e-11
6.5183414e-12
3.2835956e-12
-7.2697404e-13
-3.1663561e-12
-1.7832624e-11
-9.642287e-12
-2.1243007e-11
-1.1280199e-11
-9.0762953e-12
-4.5553561e-12
-1.2453261e-11
-1.4610535e-11
-1.6386337e-11
-1.85576e-11
-2.1624036e-11
-5.3332894e-12
8.2424068e-12
1.4483859e-11
7.9620754e-12
1.2251977e-11
7.9820595e-12
1.344036e-12
1.8997803e-11
1.0209611e-11
1.561351e-11
2.9220848e-11
3.2928549e-11
4.7572279e-11
6.3077876e-11
9.075285e-11
1.5424018e-10
2.6904734e-10
4.1552106e-10
7.0815742e-10
1.1683272e-09
1.8660438e-09
2.9945199e-09
4.748453e-09
7.5181638e-09
1.1821804e-08
1.8569142e-08
2.9053392e-08
4.5223016e-08
7.0093104e-08
1.0814087e-07
1.661195e-07
2.540065e-07
3.8662203e-07
5.8562275e-07
8.8275231e-07
1.3240802e-06
1.9761377e-06
2.9341143e-06
4.3337474e-06
6.3668062e-06
9.3025636e-06
1.3516303e-05
1.9526957e-05
2.8046398e-05
4.0043456e-05
5.6825092e-05
8.0139075e-05
0.00011230098
0.00015634924
0.00021623084
0.00029701936
0.00040516474
0.00054877251
0.00073790544
0.00098489778
0.0013046655
0.0017149925
0.0022367659
0.0028941311
0.0037145336
0.004728615
0.0059699356
0.0074745029
0.0092800962
0.011425395
0.013948937
0.016887936
0.02027704
0.024147065
0.028523813
0.033427016
0.038869495
0.044856565
0.051385723
0.058446637
0.066021407
0.074085082
0.082606387
0.091548606
0.10087056
0.11052766
0.12047292
0.13065794
0.14103379
0.1515518
0.16216422
0.17282478
0.18348914
0.19411519
0.20466327
0.21509639
0.22538025
0.2354833
0.24537668
0.25503448
0.26443246
0.27355222
0.28236808
0.29088294
0.29903933
0.3069149
0.31434358
0.32154817
0.32826158
0.33465762
0.34081698
0.34625648
0.35182789
0.3566057
0.36117408
0.36547641
0.36920124
0.37291917
0.37603937
0.37889071
0.38143512
0.38372457
0.38567986
0.38735234
0.38875052
0.38991071
0.39084347
0.39155687
0.39207242
0.39242806
0.39264155
0.39274226
0.39275566
0.39269873
0.39261216
0.39249336
0.39237631
0.39225443
0.39212908
0.39201225
0.39187852
0.39175919
0.39159059
0.39148945
0.39127936
0.39118126
0.3909208
0.39066826
0.39031116
0.38997736
0.38965665
0.38905175
0.38835007
0.38702154
0.3849091
0.38179198
0.37750366
0.37194813
0.36511283
0.35709595
0.34808263
0.33834086
0.32818559
0.31794366
0.30792921
0.29841669
0.28962135
0.28168979
0.27470382
0.26868576
0.26361004
0.25940915
0.25599959
0.25327572
0.25113055
0.24946086
0.2481665
0.24716011
0.24635676
0.24567573
0.24504993
0.24442343
0.24372238
0.24287059
0.24184749
0.24055416
0.23887405
0.23669925
0.23390049
0.23032308
0.22578372
0.22006858
0.2129344
0.20411444
0.19333302
0.1803335
0.16492614
0.1470629
0.12694225
0.10513453
0.082685779
0.061105535
0.042099319
0.027004629
0.016245866
0.0092959415
0.0051409738
0.0027852606
0.0014919632
0.00079448732
0.00042181183
0.00022360444
0.00011842878
6.2684995e-05
3.3161468e-05
1.7533436e-05
9.2650838e-06
4.8928507e-06
2.5821812e-06
1.3617726e-06
7.1762951e-07
3.7788265e-07
1.9881876e-07
1.0451945e-07
5.4893534e-08
2.8802769e-08
1.5097818e-08
7.905357e-09
4.1351318e-09
2.157879e-09
1.1261621e-09
5.8277159e-10
3.02601e-10
1.5364544e-10
7.9013296e-11
3.6598835e-11
1.5244556e-11
6.1556593e-12
4.1651405e-13
-2.0478064e-13
-9.4182995e-13
-4.1399523e-12
-3.7191777e-12
-1.7670448e-12
-2.5477259e-12
-9.7043207e-13
1.096373e-12
2.4501928e-12
2.5284774e-12
1.5156904e-12
9.3980379e-14
-1.3973683e-12
1.1751988e-12
2.626066e-12
6.5517036e-13
-1.5043522e-13
4.648823e-12
1.975628e-12
2.1191243e-12
7.3406559e-13
-4.1670833e-13
-1.694242e-12
-2.3199359e-12
-4.5150966e-12
-4.518691e-12
-1.7480184e-12
-2.3468727e-12
-2.9758696e-12
-2.0205226e-12
3.4809655e-13
-1.5188684e-12
-4.0429465e-12
-2.50934e-12
1.7497254e-12
6.4087624e-13
-2.7534919e-13
2.8507752e-12
-2.4603097e-12
1.0164508e-12
-1.7223445e-12
3.3947845e-13
2.883388e-12
6.288442e-13
-6.7872097e-13
-3.6660952e-13
-2.1397051e-12
-1.328132e-12
-6.6321948e-13
-3.4625081e-13
-2.274847e-13
-9.7113984e-13
-2.8824582e-12
-3.9344639e-12
-2.3479552e-12
-2.9413277e-12
-1.5103335e-12
-1.7798402e-12
-1.0288992e-12
-2.4079766e-12
-1.4457324e-12
-3.4999781e-13
-1.5362295e-12
1.3409968e-12
-5.294376e-14
-4.0782516e-12
-1.4711149e-12
-2.3560182e-12
-2.8524683e-12
-1.3844481e-12
-3.4378056e-13
7.2235273e-13
2.8689967e-12
1.744993e-13
-9.8063224e-13
-9.6120334e-13
2.1608132e-12
8.0649376e-12
4.6143922e-12
2.8596986e-12
2.4346775e-12
4.9630855e-12
5.9856564e-12
2.650935e-12
1.8632595e-12
1.9929475e-12
3.292866e-12
3.0890984e-12
4.1719961e-12
1.3872237e-12
1.5693002e-12
-8.9810104e-13
-2.0784624e-12
-7.9511397e-13
4.9571597e-12
4.8765714e-12
6.4794836e-12
5.5623145e-12
8.2151091e-12
6.6126965e-12
5.7987504e-12
6.8053618e-12
5.5691562e-12
2.5541097e-12
2.995687e-12
2.3530206e-12
2.3693547e-12
1.3270912e-12
-3.0134228e-13
-1.6533441e-12
-2.546019e-12
6.2708172e-13
1.8654245e-12
-9.689749e-13
-1.905115e-12
5.5189187e-13
3.6333436e-13
5.7016891e-13
-1.6471546e-13
-2.0699137e-12
1.0374063e-12
-1.1032841e-13
7.4010242e-14
-3.4595937e-12
-2.9738156e-12
1.4841045e-12
1.8802043e-12
1.2531365e-12
1.9882568e-12
-3.0421499e-12
-1.9711177e-12
-1.5908108e-13
2.0130009e-12
-1.8662155e-12
-2.0111413e-12
-2.4039104e-12
-2.6905006e-12
-3.0404845e-12
-6.9717981e-12
-7.0881218e-12
-5.0559834e-12
-4.9630022e-12
-4.0844272e-12
-1.6753682e-12
-3.461828e-12
-4.7009896e-12
-5.0918297e-12
-3.2674002e-12
-3.5554476e-12
-3.5143416e-12
-2.2515878e-12
-2.9840436e-12
-1.6437407e-12
1.2338047e-12
2.4644453e-12
2.1702085e-13
1.0064033e-12
-4.4949738e-12
-2.0310142e-13
2.7492036e-12
2.6235403e-12
1.7639779e-12
3.4211661e-12
-1.2163187e-12
-1.3727908e-12
-1.8899327e-12
-2.6823682e-12
-2.1411761e-12
-3.1608188e-12
-1.3293533e-12
-7.422396e-13
1.5416557e-12
-8.9947494e-13
-2.0765334e-13
-4.7711834e-14
-1.2064932e-12
-1.4392376e-12
-2.8910208e-12
-8.3129753e-12
-5.2838983e-12
-7.4169559e-12
-6.3878486e-12
-6.5552563e-12
-8.5149943e-12
-8.269288e-12
-5.7524402e-12
-7.7490792e-12
-6.9691752e-12
-4.6802839e-12
-4.082415e-12
-4.909087e-12
-2.4369673e-12
-1.2230494e-13
3.1168956e-12
9.0311092e-13
2.895767e-12
2.5210944e-12
4.0451531e-12
1.3196666e-12
-3.2762404e-12
-1.2660151e-12
-3.3514302e-12
-1.9997337e-12
2.856923e-12
3.7590348e-12
3.1952635e-12
1.3442303e-12
-1.26682e-12
-1.641326e-12
-1.1890072e-12
-2.511033e-12
-1.4918344e-12
1.4852009e-13
-7.4296125e-13
-4.2196802e-13
1.5522028e-12
-1.0503265e-12
3.370082e-13
-1.0966228e-13
1.2735646e-13
2.0306812e-12
-1.7128937e-12
-2.0248386e-12
-3.7939929e-12
-2.2242069e-12
-4.2578441e-12
-1.8852836e-12
3.3495151e-12
3.0765251e-12
2.956746e-12
2.0641683e-12
2.2511021e-12
1.7816304e-12
2.5673907e-13
4.9991539e-12
2.3222535e-12
2.4781843e-12
2.8140129e-12
-1.2819606e-12
-1.3454515e-12
-7.4573681e-13
-3.7058273e-12
-4.4965698e-12
-4.3747783e-12
6.5387973e-13
1.4860335e-12
3.9046544e-12
5.6639554e-12
2.4779762e-12
5.2247096e-12
4.5917992e-12
8.2049645e-13
2.4458074e-12
2.0100588e-12
7.1474771e-13
-1.8149232e-12
-2.3978736e-12
-4.6160992e-12
-2.6830344e-12
-3.6295966e-13
-1.6226465e-12
9.4146912e-13
3.2482489e-12
-1.2401191e-13
1.1390888e-12
2.2235686e-12
2.4900498e-12
-6.5061845e-13
-7.8789753e-13
5.2318289e-12
3.9551695e-12
-2.8775593e-13
-1.8067631e-12
-3.7608805e-13
1.3672535e-12
6.2054528e-13
-9.988399e-13
-4.7223336e-13
-2.65786e-12
-4.4760584e-12
-6.7589961e-12
-7.1912892e-12
-6.6805311e-12
-4.2839204e-12
-4.3276771e-12
-2.5598412e-12
-4.554232e-12
-2.9054259e-12
-2.6729036e-12
3.1720598e-12
1.0269147e-12
-2.610509e-12
-3.1139813e-12
-9.3060282e-13
-3.2526759e-13
-6.6947836e-13
-2.4159841e-12
-7.5375817e-13
7.1891104e-13
2.7329805e-12
4.23378e-12
3.3959918e-12
3.303996e-12
3.2066155e-12
4.5590615e-12
3.3879843e-12
-7.968487e-13
9.0547014e-13
5.7388816e-13
2.0581314e-12
2.4772406e-12
2.2483404e-13
-2.9939939e-13
-8.6876339e-13
-6.2928829e-13
-5.5869198e-13
-2.5107694e-12
-3.4028336e-12
1.6270596e-12
-1.0898643e-12
4.0048936e-12
5.0096038e-13
1.3673368e-12
-7.74103e-13
-7.0048134e-13
-2.7908231e-12
-2.6787877e-12
-3.5052239e-12
-4.2833931e-12
2.9304198e-12
1.5128593e-12
1.0677431e-12
-7.7340911e-14
-1.3115342e-12
2.0945329e-12
3.9377251e-12
2.4499569e-12
3.0646874e-12
1.356415e-12
1.8321594e-12
1.9513557e-12
7.9641849e-13
2.1757179e-12
1.3595236e-12
-7.8000106e-13
-8.460177e-13
-3.5406122e-12
-1.9179103e-13
5.2895605e-12
5.5799115e-12
2.1533469e-12
2.3413216e-12
1.2396473e-12
1.7379709e-12
2.8507197e-12
2.6610519e-12
-5.716122e-13
-5.4897753e-13
2.892811e-12
2.7580438e-12
4.1172482e-12
1.5110413e-12
1.6123491e-12
2.8318875e-12
1.5467488e-12
1.2081031e-12
2.7555597e-12
7.5655454e-12
4.9437121e-12
5.9064142e-12
3.0542235e-12
5.3270166e-12
4.0729781e-12
2.4743679e-12
5.749401e-12
3.3809344e-12
2.3938768e-12
2.3857721e-12
5.3530791e-12
4.1374543e-12
1.1285695e-12
1.220829e-12
2.7339242e-14
3.5870473e-12
4.8816229e-12
1.9211022e-12
3.7873177e-12
1.3822554e-12
3.9671877e-12
)
;

boundaryField
{
    sides
    {
        type            calculated;
        value           nonuniform List<scalar> 2(6.1890784e-22 2.7807926e-21);
    }
    emptywalls
    {
        type            empty;
        value           nonuniform List<scalar> 0();
    }
}


// ************************************************************************* //
