/*--------------------------------*- C++ -*----------------------------------*\
| =========                 |                                                 |
| \\      /  F ield         | OpenFOAM: The Open Source CFD Toolbox           |
|  \\    /   O peration     | Version:  2112                                  |
|   \\  /    A nd           | Website:  www.openfoam.com                      |
|    \\/     M anipulation  |                                                 |
\*---------------------------------------------------------------------------*/
FoamFile
{
    version     2.0;
    format      ascii;
    arch        "LSB;label=32;scalar=64";
    class       volVectorField;
    location    "0.04";
    object      U;
}
// * * * * * * * * * * * * * * * * * * * * * * * * * * * * * * * * * * * * * //

dimensions      [0 1 -1 0 0 0 0];

internalField   nonuniform List<vector> 
1000
(
(-2.7840981e-21 0 0)
(1.1576274e-11 0 0)
(1.2168726e-11 0 0)
(1.4575661e-11 0 0)
(1.4775294e-11 0 0)
(1.8342569e-11 0 0)
(2.1592164e-11 0 0)
(4.0297763e-11 0 0)
(1.9658302e-11 0 0)
(4.6476274e-11 0 0)
(5.7975851e-11 0 0)
(3.739119e-11 0 0)
(3.9059171e-11 0 0)
(4.5685745e-11 0 0)
(3.2759502e-11 0 0)
(4.3896494e-11 0 0)
(2.6231411e-11 0 0)
(4.4768833e-11 0 0)
(3.454375e-11 0 0)
(5.3038378e-11 0 0)
(3.5775229e-11 0 0)
(4.3443318e-11 0 0)
(2.7587937e-11 0 0)
(2.7302827e-11 0 0)
(2.8402254e-11 0 0)
(4.5084178e-12 0 0)
(1.1151109e-11 0 0)
(2.3730995e-11 0 0)
(2.4698593e-11 0 0)
(3.3811244e-11 0 0)
(2.5262034e-11 0 0)
(3.6020546e-11 0 0)
(2.4921569e-11 0 0)
(3.6456938e-11 0 0)
(5.7262241e-11 0 0)
(4.1755663e-11 0 0)
(6.7260458e-11 0 0)
(3.1431097e-11 0 0)
(2.8757169e-11 0 0)
(3.1006487e-11 0 0)
(3.8033217e-11 0 0)
(2.1669305e-11 0 0)
(1.9221577e-11 0 0)
(8.9773757e-12 0 0)
(1.6457392e-11 0 0)
(1.0061463e-11 0 0)
(2.3843817e-11 0 0)
(-1.3005051e-12 0 0)
(9.0048308e-12 0 0)
(-5.5560469e-12 0 0)
(6.7090503e-12 0 0)
(-9.7062144e-12 0 0)
(1.9377526e-12 0 0)
(-1.3972093e-11 0 0)
(1.0854216e-11 0 0)
(-6.6912656e-12 0 0)
(2.4166053e-12 0 0)
(1.1045846e-11 0 0)
(4.5207559e-12 0 0)
(1.0384144e-11 0 0)
(2.1631179e-11 0 0)
(3.3899055e-11 0 0)
(9.522921e-12 0 0)
(1.7689982e-11 0 0)
(1.9893727e-11 0 0)
(1.2372583e-12 0 0)
(2.1567266e-12 0 0)
(1.1459229e-11 0 0)
(-6.5342046e-12 0 0)
(1.9871607e-11 0 0)
(6.9355827e-12 0 0)
(3.6445044e-11 0 0)
(8.1239332e-12 0 0)
(2.0207293e-11 0 0)
(1.0510304e-11 0 0)
(6.5096395e-12 0 0)
(4.1758441e-12 0 0)
(2.3385416e-11 0 0)
(-7.7135515e-12 0 0)
(-2.8883441e-12 0 0)
(-2.0295327e-11 0 0)
(-1.0871445e-11 0 0)
(-1.6129376e-11 0 0)
(-6.0630216e-12 0 0)
(-4.3310489e-11 0 0)
(-1.6543981e-11 0 0)
(-2.889689e-11 0 0)
(-3.0871435e-11 0 0)
(-3.7224903e-11 0 0)
(-3.2784956e-11 0 0)
(-2.4839537e-11 0 0)
(-2.2500628e-11 0 0)
(-1.5513581e-11 0 0)
(-9.9527546e-12 0 0)
(2.0118926e-13 0 0)
(-7.6623094e-12 0 0)
(-1.1060296e-11 0 0)
(-9.3693057e-12 0 0)
(-1.9309722e-12 0 0)
(-2.2341566e-11 0 0)
(-1.5261483e-13 0 0)
(-5.7460095e-12 0 0)
(2.0643574e-12 0 0)
(-1.2332457e-11 0 0)
(2.8718932e-12 0 0)
(5.1106517e-12 0 0)
(9.07986e-12 0 0)
(5.127436e-12 0 0)
(2.1007493e-11 0 0)
(-1.7327841e-12 0 0)
(8.6811489e-14 0 0)
(-1.6403705e-11 0 0)
(-1.182237e-12 0 0)
(2.3213461e-12 0 0)
(5.4795727e-12 0 0)
(2.8136484e-11 0 0)
(3.6782064e-12 0 0)
(-3.8999592e-12 0 0)
(-1.8618454e-11 0 0)
(-2.3516912e-11 0 0)
(-1.5802138e-11 0 0)
(-2.2446385e-11 0 0)
(-4.4800401e-11 0 0)
(-5.1261021e-12 0 0)
(-1.3552708e-11 0 0)
(-5.7083282e-12 0 0)
(4.0860315e-12 0 0)
(-7.6091777e-12 0 0)
(3.3835364e-12 0 0)
(-1.1365526e-11 0 0)
(1.9875386e-11 0 0)
(4.6502506e-12 0 0)
(1.9338067e-11 0 0)
(-1.2868554e-11 0 0)
(1.9822143e-11 0 0)
(1.1493798e-11 0 0)
(2.5357071e-11 0 0)
(3.7457882e-12 0 0)
(3.5947295e-12 0 0)
(-7.9374163e-12 0 0)
(-6.8090891e-12 0 0)
(-6.8197599e-12 0 0)
(-4.4522848e-12 0 0)
(8.0745806e-12 0 0)
(2.3513355e-11 0 0)
(1.2803084e-11 0 0)
(1.5548261e-11 0 0)
(1.1402651e-11 0 0)
(-1.0908681e-11 0 0)
(1.3502689e-11 0 0)
(-1.0580221e-11 0 0)
(-2.0600223e-12 0 0)
(-1.6322006e-11 0 0)
(-1.8823978e-11 0 0)
(-6.9350269e-12 0 0)
(-1.9108533e-12 0 0)
(-4.6151259e-12 0 0)
(-1.3700321e-11 0 0)
(-1.2037898e-11 0 0)
(-1.7824479e-11 0 0)
(-7.4556736e-12 0 0)
(-3.2795182e-11 0 0)
(-2.1843151e-11 0 0)
(-2.5157883e-11 0 0)
(-3.3268588e-11 0 0)
(-2.4142044e-11 0 0)
(-1.6102254e-11 0 0)
(-2.3055066e-11 0 0)
(-2.9052951e-11 0 0)
(-3.1212679e-11 0 0)
(-1.7172781e-11 0 0)
(-5.3705304e-12 0 0)
(-1.9078299e-11 0 0)
(-2.6464946e-11 0 0)
(-3.1150988e-11 0 0)
(-1.0082027e-11 0 0)
(-2.0184284e-11 0 0)
(-6.3152306e-12 0 0)
(-2.5060511e-11 0 0)
(-2.6231966e-11 0 0)
(-3.2224516e-11 0 0)
(-1.0532091e-11 0 0)
(-1.4945249e-11 0 0)
(-1.044828e-11 0 0)
(-1.734696e-11 0 0)
(-1.1959756e-11 0 0)
(-2.6358571e-11 0 0)
(3.5020269e-12 0 0)
(-1.124659e-11 0 0)
(5.9045155e-13 0 0)
(-2.7595163e-11 0 0)
(-1.0677481e-12 0 0)
(-1.7880834e-11 0 0)
(-2.2573101e-11 0 0)
(-3.1168773e-12 0 0)
(-1.4677145e-11 0 0)
(-8.7762976e-12 0 0)
(-2.3947524e-11 0 0)
(-6.8753371e-12 0 0)
(-2.1354294e-11 0 0)
(-4.2270863e-12 0 0)
(-2.4585883e-11 0 0)
(-1.4860216e-11 0 0)
(-9.0072762e-12 0 0)
(5.5908382e-12 0 0)
(1.0747619e-11 0 0)
(2.5587716e-13 0 0)
(5.7659062e-12 0 0)
(2.462512e-11 0 0)
(-1.3303167e-11 0 0)
(1.2431495e-11 0 0)
(-1.6004105e-11 0 0)
(-2.8704482e-12 0 0)
(-6.0848078e-12 0 0)
(4.6485833e-12 0 0)
(-6.3927052e-12 0 0)
(-8.5666607e-13 0 0)
(-3.2948353e-12 0 0)
(-1.6019555e-12 0 0)
(-7.2265846e-12 0 0)
(5.7131079e-12 0 0)
(-5.8309314e-12 0 0)
(-6.2246399e-12 0 0)
(-1.3778018e-11 0 0)
(-1.1448113e-11 0 0)
(-2.4428266e-11 0 0)
(-7.7385613e-12 0 0)
(-1.7143548e-11 0 0)
(-1.7893061e-11 0 0)
(-1.6526864e-11 0 0)
(3.5790568e-12 0 0)
(-4.8534406e-12 0 0)
(1.6676588e-11 0 0)
(1.1936859e-12 0 0)
(3.6363457e-11 0 0)
(2.2712488e-11 0 0)
(1.213538e-11 0 0)
(2.0817641e-11 0 0)
(1.045595e-11 0 0)
(2.098604e-11 0 0)
(6.2679901e-12 0 0)
(4.7501783e-12 0 0)
(9.7114386e-12 0 0)
(-4.8662234e-12 0 0)
(4.1915169e-12 0 0)
(1.2892341e-11 0 0)
(2.5824252e-11 0 0)
(1.4559655e-11 0 0)
(1.0681593e-11 0 0)
(1.40748e-11 0 0)
(-1.4783519e-13 0 0)
(1.8193289e-11 0 0)
(8.3218989e-12 0 0)
(8.4455025e-13 0 0)
(1.4343015e-11 0 0)
(-5.9455315e-12 0 0)
(3.3190669e-12 0 0)
(-1.2742282e-11 0 0)
(-7.5284796e-13 0 0)
(8.0197816e-12 0 0)
(8.8945658e-12 0 0)
(1.3506024e-11 0 0)
(1.0597116e-11 0 0)
(-2.5754447e-13 0 0)
(3.1721432e-11 0 0)
(-1.0514306e-11 0 0)
(1.101739e-11 0 0)
(-1.514077e-11 0 0)
(1.0281882e-11 0 0)
(-6.4576193e-12 0 0)
(1.0952699e-11 0 0)
(-1.1662307e-12 0 0)
(1.0402818e-11 0 0)
(-8.9999401e-12 0 0)
(-8.0810276e-12 0 0)
(-1.9890726e-11 0 0)
(1.2154054e-11 0 0)
(-4.8114243e-12 0 0)
(-1.023831e-11 0 0)
(-4.727614e-12 0 0)
(-1.3220024e-11 0 0)
(-1.7806916e-12 0 0)
(-2.511531e-12 0 0)
(4.3081177e-12 0 0)
(-2.6268981e-11 0 0)
(-1.085844e-11 0 0)
(-2.3218018e-11 0 0)
(-8.5872242e-12 0 0)
(-6.1941836e-12 0 0)
(3.9339724e-12 0 0)
(-1.1634074e-11 0 0)
(3.0257308e-12 0 0)
(-1.7666751e-11 0 0)
(-1.9546259e-11 0 0)
(-8.0471255e-12 0 0)
(-3.0295767e-11 0 0)
(-5.908406e-12 0 0)
(-1.6098364e-11 0 0)
(-8.8862292e-12 0 0)
(-4.9967185e-12 0 0)
(1.2054237e-11 0 0)
(4.2098574e-12 0 0)
(2.3775679e-11 0 0)
(-2.9333614e-13 0 0)
(2.6511964e-11 0 0)
(-2.7441547e-11 0 0)
(-1.7435439e-11 0 0)
(-4.117377e-12 0 0)
(-1.7575048e-11 0 0)
(-9.3609692e-12 0 0)
(-1.5324396e-11 0 0)
(-1.7821589e-11 0 0)
(-2.678029e-11 0 0)
(-2.304006e-12 0 0)
(-1.3268598e-11 0 0)
(-1.5880057e-11 0 0)
(-1.8963699e-11 0 0)
(-6.7468427e-12 0 0)
(-2.2344012e-11 0 0)
(-9.4136563e-13 0 0)
(2.202411e-12 0 0)
(5.6018424e-12 0 0)
(4.9278029e-12 0 0)
(1.6075021e-11 0 0)
(7.8938438e-12 0 0)
(2.2062458e-11 0 0)
(2.049296e-11 0 0)
(2.0523305e-11 0 0)
(3.212381e-11 0 0)
(3.1761003e-11 0 0)
(3.0821082e-11 0 0)
(3.0691476e-11 0 0)
(2.4834312e-11 0 0)
(2.4743611e-11 0 0)
(1.8586441e-11 0 0)
(1.7869163e-11 0 0)
(1.9536477e-11 0 0)
(2.0735054e-11 0 0)
(1.5339291e-11 0 0)
(-5.438001e-12 0 0)
(2.7683975e-11 0 0)
(6.4400569e-12 0 0)
(1.4915015e-11 0 0)
(7.8131458e-12 0 0)
(-6.0146695e-12 0 0)
(-7.3847572e-12 0 0)
(-9.484795e-13 0 0)
(5.7663508e-12 0 0)
(-1.0637576e-11 0 0)
(-1.6336567e-11 0 0)
(-1.9433993e-11 0 0)
(-1.9567822e-11 0 0)
(-1.9114758e-11 0 0)
(-1.2092141e-11 0 0)
(-1.6258648e-11 0 0)
(-1.6139602e-11 0 0)
(-1.1711771e-11 0 0)
(8.8634426e-13 0 0)
(-1.5911513e-11 0 0)
(-6.1660616e-12 0 0)
(-1.3330844e-11 0 0)
(-4.5337609e-12 0 0)
(8.1895142e-12 0 0)
(2.7051618e-12 0 0)
(-1.3075078e-11 0 0)
(-9.3480757e-14 0 0)
(-1.6821422e-11 0 0)
(-8.9319136e-12 0 0)
(-5.0087232e-12 0 0)
(-1.3913737e-11 0 0)
(-4.2603214e-12 0 0)
(-1.3062073e-11 0 0)
(6.8915625e-15 0 0)
(-2.0873552e-11 0 0)
(-6.1254903e-12 0 0)
(-2.3504574e-11 0 0)
(-1.1966759e-11 0 0)
(-1.27305e-12 0 0)
(1.4007774e-11 0 0)
(8.1112616e-12 0 0)
(4.3012262e-12 0 0)
(1.2330011e-11 0 0)
(5.9020702e-12 0 0)
(5.1736762e-12 0 0)
(7.3617482e-12 0 0)
(7.7273347e-12 0 0)
(2.1453999e-11 0 0)
(2.4141265e-11 0 0)
(4.5206225e-11 0 0)
(5.1040936e-11 0 0)
(8.098979e-11 0 0)
(1.1186045e-10 0 0)
(2.135635e-10 0 0)
(3.2450293e-10 0 0)
(5.6511983e-10 0 0)
(9.3383037e-10 0 0)
(1.5065646e-09 0 0)
(2.425837e-09 0 0)
(3.8675298e-09 0 0)
(6.1181509e-09 0 0)
(9.660189e-09 0 0)
(1.516699e-08 0 0)
(2.3790217e-08 0 0)
(3.7093311e-08 0 0)
(5.7606963e-08 0 0)
(8.9027727e-08 0 0)
(1.3700473e-07 0 0)
(2.0987309e-07 0 0)
(3.2005005e-07 0 0)
(4.8573614e-07 0 0)
(7.3363843e-07 0 0)
(1.1026367e-06 0 0)
(1.6490161e-06 0 0)
(2.4536245e-06 0 0)
(3.6318825e-06 0 0)
(5.3474992e-06 0 0)
(7.8310254e-06 0 0)
(1.1404667e-05 0 0)
(1.6515601e-05 0 0)
(2.3779296e-05 0 0)
(3.403633e-05 0 0)
(4.8425018e-05 0 0)
(6.8473557e-05 0 0)
(9.6215059e-05 0 0)
(0.00013432916 0 0)
(0.00018631303 0 0)
(0.00025668454 0 0)
(0.00035121827 0 0)
(0.0004772133 0 0)
(0.00064378882 0 0)
(0.00086220052 0 0)
(0.0011461654 0 0)
(0.0015121791 0 0)
(0.0019798048 0 0)
(0.0025719091 0 0)
(0.0033148167 0 0)
(0.0042383569 0 0)
(0.0053757747 0 0)
(0.0067634871 0 0)
(0.0084406713 0 0)
(0.010448685 0 0)
(0.012830329 0 0)
(0.01562898 0 0)
(0.018887633 0 0)
(0.022647895 0 0)
(0.02694899 0 0)
(0.031826826 0 0)
(0.037313177 0 0)
(0.043435013 0 0)
(0.05021402 0 0)
(0.057666306 0 0)
(0.065802317 0 0)
(0.074626927 0 0)
(0.084139696 0 0)
(0.094335266 0 0)
(0.10520386 0 0)
(0.11673183 0 0)
(0.12890227 0 0)
(0.14169558 0 0)
(0.15509 0 0)
(0.16906216 0 0)
(0.1835875 0 0)
(0.19864066 0 0)
(0.21419581 0 0)
(0.23022687 0 0)
(0.24670773 0 0)
(0.26361238 0 0)
(0.28091497 0 0)
(0.29858989 0 0)
(0.31661179 0 0)
(0.33495552 0 0)
(0.35359616 0 0)
(0.37250902 0 0)
(0.39166918 0 0)
(0.41105284 0 0)
(0.43063315 0 0)
(0.45039098 0 0)
(0.47028847 0 0)
(0.49032681 0 0)
(0.51043307 0 0)
(0.5306538 0 0)
(0.55087166 0 0)
(0.57114616 0 0)
(0.59140703 0 0)
(0.61159742 0 0)
(0.63169321 0 0)
(0.65158245 0 0)
(0.67153567 0 0)
(0.69118312 0 0)
(0.71049074 0 0)
(0.72964735 0 0)
(0.74839961 0 0)
(0.76669 0 0)
(0.78446265 0 0)
(0.80162467 0 0)
(0.81806929 0 0)
(0.83368263 0 0)
(0.84834531 0 0)
(0.86193449 0 0)
(0.87433133 0 0)
(0.88542587 0 0)
(0.89513265 0 0)
(0.90340492 0 0)
(0.91024121 0 0)
(0.91569534 0 0)
(0.91987429 0 0)
(0.92293237 0 0)
(0.92505975 0 0)
(0.92645516 0 0)
(0.92733973 0 0)
(0.92786131 0 0)
(0.92809945 0 0)
(0.92818367 0 0)
(0.92817534 0 0)
(0.92818123 0 0)
(0.92818364 0 0)
(0.92818325 0 0)
(0.92820051 0 0)
(0.92820445 0 0)
(0.92819401 0 0)
(0.92819114 0 0)
(0.92818679 0 0)
(0.92815141 0 0)
(0.92805529 0 0)
(0.9279206 0 0)
(0.92760741 0 0)
(0.92744915 0 0)
(0.9273215 0 0)
(0.9272247 0 0)
(0.92712722 0 0)
(0.92703111 0 0)
(0.92693644 0 0)
(0.92684218 0 0)
(0.92675318 0 0)
(0.92667166 0 0)
(0.92659964 0 0)
(0.92653872 0 0)
(0.92648722 0 0)
(0.92644086 0 0)
(0.92639437 0 0)
(0.92634302 0 0)
(0.9262811 0 0)
(0.92619247 0 0)
(0.92610383 0 0)
(0.92598834 0 0)
(0.9258439 0 0)
(0.92566188 0 0)
(0.92543111 0 0)
(0.92514177 0 0)
(0.92477158 0 0)
(0.92428979 0 0)
(0.92363751 0 0)
(0.92279419 0 0)
(0.92170141 0 0)
(0.92022302 0 0)
(0.91833663 0 0)
(0.91592962 0 0)
(0.91274364 0 0)
(0.90856953 0 0)
(0.90316496 0 0)
(0.89619431 0 0)
(0.88723723 0 0)
(0.87576935 0 0)
(0.86113907 0 0)
(0.84254154 0 0)
(0.8189923 0 0)
(0.78930664 0 0)
(0.7520988 0 0)
(0.70582996 0 0)
(0.64896257 0 0)
(0.58032222 0 0)
(0.49981033 0 0)
(0.40953963 0 0)
(0.31501372 0 0)
(0.2250488 0 0)
(0.14894326 0 0)
(0.092043602 0 0)
(0.053884763 0 0)
(0.030338821 0 0)
(0.016643272 0 0)
(0.0089856904 0 0)
(0.0048073305 0 0)
(0.0025590578 0 0)
(0.0013585015 0 0)
(0.00072002638 0 0)
(0.00038123171 0 0)
(0.00020169311 0 0)
(0.00010663419 0 0)
(5.6339793e-05 0 0)
(2.9746932e-05 0 0)
(1.5695183e-05 0 0)
(8.2751135e-06 0 0)
(4.3596549e-06 0 0)
(2.2949931e-06 0 0)
(1.207123e-06 0 0)
(6.3439923e-07 0 0)
(3.3303959e-07 0 0)
(1.7471259e-07 0 0)
(9.1524688e-08 0 0)
(4.7916186e-08 0 0)
(2.5038583e-08 0 0)
(1.3063587e-08 0 0)
(6.7980442e-09 0 0)
(3.5240473e-09 0 0)
(1.8019527e-09 0 0)
(9.2295523e-10 0 0)
(4.5330142e-10 0 0)
(2.1527621e-10 0 0)
(6.7239295e-11 0 0)
(2.3630524e-11 0 0)
(8.2905181e-12 0 0)
(-1.3574304e-11 0 0)
(-1.7847484e-11 0 0)
(-2.6398507e-11 0 0)
(-2.9841004e-11 0 0)
(-1.0578893e-11 0 0)
(-1.9883014e-11 0 0)
(-1.2097632e-11 0 0)
(2.6858468e-11 0 0)
(1.0885793e-11 0 0)
(2.3031375e-11 0 0)
(-2.4634137e-12 0 0)
(3.9667243e-12 0 0)
(-1.9702759e-11 0 0)
(3.0745609e-11 0 0)
(5.0889905e-12 0 0)
(1.3573527e-11 0 0)
(-7.5602848e-12 0 0)
(4.0986413e-11 0 0)
(2.0214777e-11 0 0)
(4.1427617e-12 0 0)
(7.3229784e-12 0 0)
(-1.3481735e-11 0 0)
(-7.331525e-12 0 0)
(-2.9093899e-11 0 0)
(-3.7057316e-11 0 0)
(-3.1122103e-11 0 0)
(-3.0355575e-11 0 0)
(-1.1893957e-11 0 0)
(-1.9335478e-11 0 0)
(-8.6312715e-12 0 0)
(-7.1647001e-12 0 0)
(-6.4766447e-12 0 0)
(-1.6780937e-11 0 0)
(-1.1026313e-11 0 0)
(-7.9569794e-12 0 0)
(1.4736861e-11 0 0)
(-9.0698111e-12 0 0)
(3.7084399e-12 0 0)
(-4.6048321e-12 0 0)
(2.4274514e-12 0 0)
(-1.825994e-11 0 0)
(2.6858135e-11 0 0)
(7.331192e-13 0 0)
(4.4182502e-12 0 0)
(-5.2133044e-12 0 0)
(-7.5080063e-12 0 0)
(-2.0772525e-11 0 0)
(-1.9020031e-12 0 0)
(-1.2549824e-11 0 0)
(7.6188899e-12 0 0)
(-1.6504894e-11 0 0)
(1.4651284e-13 0 0)
(-3.5608504e-11 0 0)
(-2.1840181e-11 0 0)
(-1.7653244e-11 0 0)
(-1.2684794e-11 0 0)
(-1.4290552e-11 0 0)
(-1.7229023e-11 0 0)
(-1.9576003e-11 0 0)
(-6.1094746e-12 0 0)
(-1.6205098e-11 0 0)
(-1.3074495e-11 0 0)
(-5.7702752e-12 0 0)
(5.6849204e-12 0 0)
(-4.1610758e-12 0 0)
(-2.9469061e-11 0 0)
(-1.2805445e-11 0 0)
(-2.2722699e-11 0 0)
(-1.2639175e-11 0 0)
(-1.0843948e-11 0 0)
(3.1927591e-12 0 0)
(1.1113665e-11 0 0)
(2.6106036e-11 0 0)
(-3.4039818e-12 0 0)
(-1.3236104e-11 0 0)
(3.3222898e-12 0 0)
(2.0110109e-11 0 0)
(4.4216578e-11 0 0)
(1.3579632e-11 0 0)
(2.313127e-11 0 0)
(9.5996992e-12 0 0)
(3.6268811e-11 0 0)
(3.2659933e-11 0 0)
(6.4694301e-12 0 0)
(1.058855e-11 0 0)
(2.3749732e-11 0 0)
(1.9523281e-11 0 0)
(1.1932916e-11 0 0)
(2.1264896e-11 0 0)
(1.2649053e-11 0 0)
(4.6161536e-12 0 0)
(-1.4527193e-11 0 0)
(-1.7828948e-11 0 0)
(2.0115548e-11 0 0)
(4.8421496e-11 0 0)
(3.6234735e-11 0 0)
(4.4916509e-11 0 0)
(7.3392391e-11 0 0)
(4.2850123e-11 0 0)
(5.374191e-11 0 0)
(3.2551269e-11 0 0)
(4.8108381e-11 0 0)
(3.0081751e-11 0 0)
(1.3967891e-11 0 0)
(1.1270834e-11 0 0)
(1.6452616e-11 0 0)
(2.1151571e-11 0 0)
(-1.0074978e-11 0 0)
(1.163201e-11 0 0)
(-3.7578991e-11 0 0)
(3.0904221e-12 0 0)
(6.9404911e-12 0 0)
(-1.1038966e-11 0 0)
(1.4927661e-12 0 0)
(-2.3097861e-11 0 0)
(2.4276623e-11 0 0)
(-1.603683e-11 0 0)
(1.9360341e-11 0 0)
(-2.5653067e-11 0 0)
(1.390418e-11 0 0)
(-2.8041671e-12 0 0)
(-7.6699474e-12 0 0)
(8.8537046e-12 0 0)
(-4.5581811e-11 0 0)
(6.1790679e-13 0 0)
(-1.8981183e-12 0 0)
(1.9285086e-11 0 0)
(7.7434258e-12 0 0)
(-1.0208171e-12 0 0)
(-2.85326e-11 0 0)
(3.909229e-13 0 0)
(1.7484199e-11 0 0)
(-7.7442028e-12 0 0)
(-1.7926402e-11 0 0)
(-1.162868e-11 0 0)
(-2.2238541e-11 0 0)
(-1.3326564e-11 0 0)
(-4.502928e-11 0 0)
(-3.7798427e-11 0 0)
(-6.0128095e-11 0 0)
(-3.5314701e-11 0 0)
(-3.2594446e-11 0 0)
(-1.7609401e-11 0 0)
(-1.5044982e-11 0 0)
(-2.5787149e-11 0 0)
(-3.8804704e-11 0 0)
(-2.8551691e-11 0 0)
(-3.3859229e-11 0 0)
(-1.8846214e-11 0 0)
(-2.4517038e-11 0 0)
(-1.9540041e-11 0 0)
(-7.2349597e-12 0 0)
(-1.7710517e-11 0 0)
(3.6797811e-11 0 0)
(-1.4035709e-11 0 0)
(1.577122e-11 0 0)
(-1.3272732e-12 0 0)
(2.5310094e-12 0 0)
(-5.7799317e-12 0 0)
(2.5538854e-11 0 0)
(1.4348824e-11 0 0)
(1.5346111e-11 0 0)
(7.8594152e-12 0 0)
(3.827093e-13 0 0)
(-2.1260346e-11 0 0)
(-1.1299248e-11 0 0)
(-2.0383156e-11 0 0)
(-1.876885e-11 0 0)
(-2.3714547e-11 0 0)
(1.052273e-11 0 0)
(-1.6676936e-11 0 0)
(2.2146637e-11 0 0)
(-2.8301842e-11 0 0)
(1.7130348e-11 0 0)
(-2.1823643e-11 0 0)
(9.1313021e-12 0 0)
(-2.1178765e-11 0 0)
(-3.2539615e-11 0 0)
(-2.9886622e-11 0 0)
(-5.0297749e-11 0 0)
(-5.3917393e-11 0 0)
(-5.8145509e-11 0 0)
(-5.1375395e-11 0 0)
(-7.3591515e-11 0 0)
(-3.6782605e-11 0 0)
(-6.5506448e-11 0 0)
(-4.4390728e-11 0 0)
(-4.4693632e-11 0 0)
(-1.6063025e-11 0 0)
(-3.494631e-11 0 0)
(-3.418633e-11 0 0)
(-1.0351465e-11 0 0)
(1.287082e-11 0 0)
(-3.3524803e-12 0 0)
(2.2424013e-11 0 0)
(2.6608842e-11 0 0)
(1.0107388e-11 0 0)
(3.2281663e-11 0 0)
(-1.7781221e-11 0 0)
(-3.2687905e-13 0 0)
(-3.0041238e-11 0 0)
(-1.5265417e-11 0 0)
(9.1911281e-12 0 0)
(2.0580393e-11 0 0)
(3.8032848e-11 0 0)
(1.2194086e-11 0 0)
(-6.1951625e-12 0 0)
(-7.1726917e-12 0 0)
(-7.903813e-12 0 0)
(-5.8330981e-12 0 0)
(-2.0419007e-11 0 0)
(2.5717444e-13 0 0)
(1.6704683e-13 0 0)
(-1.7581652e-11 0 0)
(1.9869473e-11 0 0)
(-1.3284053e-11 0 0)
(-1.9721517e-12 0 0)
(6.4397945e-12 0 0)
(-5.1129653e-12 0 0)
(1.258734e-11 0 0)
(-2.6779662e-12 0 0)
(-7.7639598e-12 0 0)
(-2.1723748e-11 0 0)
(-2.5911463e-11 0 0)
(-2.0190136e-11 0 0)
(-2.0797831e-11 0 0)
(3.8726009e-13 0 0)
(3.3443999e-11 0 0)
(1.5035326e-11 0 0)
(1.8396242e-11 0 0)
(2.1487885e-11 0 0)
(1.7097938e-11 0 0)
(4.2366631e-12 0 0)
(1.6125625e-11 0 0)
(2.7066472e-11 0 0)
(1.2432503e-11 0 0)
(1.4048806e-11 0 0)
(-2.7921796e-12 0 0)
(-6.9156283e-12 0 0)
(-6.8401519e-12 0 0)
(-1.100256e-11 0 0)
(-1.9446805e-11 0 0)
(-4.3913118e-11 0 0)
(-1.9266883e-11 0 0)
(1.1824253e-12 0 0)
(2.2304139e-11 0 0)
(4.0742891e-11 0 0)
(3.1898066e-11 0 0)
(1.7566668e-11 0 0)
(3.5994321e-11 0 0)
(1.8604356e-11 0 0)
(8.0560976e-12 0 0)
(4.6028342e-12 0 0)
(1.3472189e-11 0 0)
(8.2324679e-13 0 0)
(-1.2324505e-11 0 0)
(-4.2447435e-11 0 0)
(-2.8452129e-11 0 0)
(-9.0674802e-12 0 0)
(-4.8860924e-12 0 0)
(-7.4228735e-12 0 0)
(2.3533404e-11 0 0)
(3.9070092e-12 0 0)
(-3.9899221e-12 0 0)
(2.0097234e-11 0 0)
(1.1086472e-11 0 0)
(2.0516571e-11 0 0)
(-1.4459486e-11 0 0)
(2.873461e-11 0 0)
(4.2183934e-11 0 0)
(8.7452629e-12 0 0)
(-1.205723e-11 0 0)
(-1.5264863e-11 0 0)
(1.8376263e-11 0 0)
(-3.8107769e-12 0 0)
(8.3997368e-12 0 0)
(-9.1663764e-12 0 0)
(-1.3021107e-11 0 0)
(-1.1009885e-11 0 0)
(-7.0684678e-11 0 0)
(-4.5315979e-11 0 0)
(-4.5902585e-11 0 0)
(-4.4174289e-11 0 0)
(-2.6073959e-11 0 0)
(-3.1947015e-11 0 0)
(-2.2542777e-11 0 0)
(-2.6441462e-11 0 0)
(-1.363968e-11 0 0)
(-1.8215653e-11 0 0)
(2.8748262e-11 0 0)
(-1.7014026e-11 0 0)
(-4.7120529e-12 0 0)
(-2.495702e-11 0 0)
(3.6633761e-12 0 0)
(-7.5681654e-12 0 0)
(-2.8453461e-12 0 0)
(-1.9729064e-11 0 0)
(7.6719453e-12 0 0)
(4.8041784e-12 0 0)
(2.0983303e-11 0 0)
(3.2395544e-11 0 0)
(2.005783e-11 0 0)
(3.0622517e-11 0 0)
(2.1374559e-11 0 0)
(3.0253904e-11 0 0)
(1.2313406e-11 0 0)
(-1.4495892e-12 0 0)
(7.2304089e-12 0 0)
(-4.7316989e-13 0 0)
(1.5363759e-11 0 0)
(7.8588602e-12 0 0)
(-2.4685194e-13 0 0)
(-8.3012846e-13 0 0)
(-3.398876e-12 0 0)
(-7.6548522e-12 0 0)
(-6.8715634e-12 0 0)
(-3.3093034e-11 0 0)
(5.0187309e-12 0 0)
(-1.5779766e-11 0 0)
(2.314348e-11 0 0)
(1.8130632e-11 0 0)
(-3.8737108e-12 0 0)
(4.7783166e-13 0 0)
(-1.6734653e-12 0 0)
(-1.2454591e-11 0 0)
(-1.6778829e-11 0 0)
(-1.9985573e-11 0 0)
(-2.859631e-11 0 0)
(-1.2348258e-11 0 0)
(2.2240206e-11 0 0)
(5.6010085e-12 0 0)
(8.8416062e-12 0 0)
(-8.5939773e-12 0 0)
(3.4442728e-12 0 0)
(2.4459764e-11 0 0)
(1.6843649e-11 0 0)
(1.5072398e-11 0 0)
(1.5755015e-11 0 0)
(4.2452097e-12 0 0)
(3.122111e-11 0 0)
(-4.2849457e-12 0 0)
(1.4817776e-11 0 0)
(2.26904e-11 0 0)
(1.2985256e-12 0 0)
(-1.3113122e-11 0 0)
(-2.7104876e-12 0 0)
(-6.2233551e-12 0 0)
(3.7722618e-12 0 0)
(5.2293542e-11 0 0)
(2.2778308e-11 0 0)
(8.7565844e-12 0 0)
(1.4843971e-11 0 0)
(-1.8334084e-12 0 0)
(3.2931426e-11 0 0)
(3.1796617e-12 0 0)
(1.4138379e-11 0 0)
(-2.0333097e-12 0 0)
(7.882835e-12 0 0)
(2.1284432e-11 0 0)
(1.9498418e-11 0 0)
(2.0278488e-11 0 0)
(3.707108e-12 0 0)
(2.0633226e-11 0 0)
(1.2134038e-11 0 0)
(1.2607985e-11 0 0)
(1.6534863e-11 0 0)
(2.7983287e-11 0 0)
(3.7998661e-11 0 0)
(4.0423227e-11 0 0)
(3.5244331e-11 0 0)
(3.1000675e-11 0 0)
(2.6135117e-11 0 0)
(1.529361e-11 0 0)
(5.1444656e-11 0 0)
(3.1452756e-11 0 0)
(3.0159336e-11 0 0)
(1.3783418e-11 0 0)
(1.7117251e-11 0 0)
(3.3187712e-11 0 0)
(2.6592414e-11 0 0)
(1.320669e-11 0 0)
(-4.8192736e-12 0 0)
(2.7175136e-11 0 0)
(3.0203179e-11 0 0)
(1.4704673e-11 0 0)
(4.9689942e-11 0 0)
(-3.3926603e-12 0 0)
(3.130258e-11 0 0)
(4.9500264e-21 0 0)
)
;

boundaryField
{
    sides
    {
        type            zeroGradient;
    }
    emptywalls
    {
        type            empty;
    }
}


// ************************************************************************* //
