/*--------------------------------*- C++ -*----------------------------------*\
| =========                 |                                                 |
| \\      /  F ield         | OpenFOAM: The Open Source CFD Toolbox           |
|  \\    /   O peration     | Version:  2112                                  |
|   \\  /    A nd           | Website:  www.openfoam.com                      |
|    \\/     M anipulation  |                                                 |
\*---------------------------------------------------------------------------*/
FoamFile
{
    version     2.0;
    format      ascii;
    arch        "LSB;label=32;scalar=64";
    class       volScalarField;
    location    "10.0005";
    object      Ma;
}
// * * * * * * * * * * * * * * * * * * * * * * * * * * * * * * * * * * * * * //

dimensions      [0 0 0 0 0 0 0];

internalField   nonuniform List<scalar> 
7000
(
3.00001
3.00001
3.00002
2.99999
2.99992
2.99941
2.9987
2.99534
2.99186
2.97444
2.95507
2.88312
2.71234
2.32401
1.58607
0.705937
0.260462
0.374851
0.45162
0.462356
0.448177
0.428721
0.412554
0.400969
0.390888
0.38017
0.368695
0.356918
0.344796
0.332552
0.319992
0.30693
0.293545
0.279646
0.265505
0.251173
0.236606
0.221913
0.207048
0.192076
0.176954
0.161631
0.146122
0.13033
0.11415
0.0974977
0.0798396
0.0616015
0.0409677
0.0254715
3.00001
3.00001
3.00002
2.99999
2.99992
2.99941
2.99872
2.99543
2.99204
2.97501
2.95622
2.8853
2.72126
2.34026
1.60659
0.726357
0.263691
0.369805
0.44494
0.456192
0.442761
0.423839
0.407546
0.395738
0.385484
0.374566
0.362915
0.350998
0.338699
0.326269
0.313506
0.300318
0.286927
0.273128
0.259171
0.245037
0.230661
0.216137
0.2014
0.186521
0.171452
0.156169
0.140703
0.124982
0.108966
0.0926659
0.0757447
0.05929
0.0431059
0.0368524
3.00001
3.00001
3.00002
2.99998
2.99992
2.99941
2.99873
2.99549
2.99216
2.97536
2.95685
2.88644
2.72597
2.34832
1.61488
0.729768
0.255768
0.361268
0.436018
0.44795
0.435512
0.417299
0.400933
0.389049
0.378743
0.367833
0.356344
0.344505
0.332292
0.319948
0.307168
0.294086
0.280839
0.267256
0.253589
0.239716
0.225628
0.211386
0.196909
0.182311
0.167539
0.152577
0.13752
0.122346
0.107175
0.0921848
0.0774386
0.0648104
0.055092
0.0549701
3.00001
3
3.00001
2.99998
2.99992
2.9994
2.99874
2.99557
2.99232
2.97587
2.95777
2.88864
2.73181
2.35935
1.63042
0.747266
0.270206
0.365109
0.43631
0.447892
0.436036
0.418297
0.401598
0.38911
0.378229
0.366866
0.355035
0.342818
0.330236
0.317563
0.30448
0.291224
0.277858
0.26423
0.250585
0.236753
0.222772
0.20867
0.194376
0.180035
0.165595
0.151104
0.136685
0.122412
0.108572
0.0955192
0.0836394
0.0750058
0.0700608
0.0728156
3.00001
3
3.00001
2.99997
2.99991
2.9994
2.99876
2.99566
2.99249
2.97643
2.95874
2.89111
2.737
2.37001
1.64262
0.757953
0.272826
0.362228
0.431213
0.443287
0.432749
0.416084
0.399571
0.387041
0.376176
0.364946
0.35328
0.341094
0.328538
0.31589
0.302867
0.289743
0.276486
0.263016
0.249509
0.23581
0.222001
0.208078
0.194034
0.180015
0.165996
0.152103
0.138502
0.125365
0.113116
0.102188
0.0930908
0.0876857
0.0858666
0.0900064
3.00001
3
3
2.99996
2.99991
2.9994
2.99878
2.99576
2.99268
2.97702
2.95979
2.89362
2.74281
2.38139
1.65763
0.773865
0.284412
0.363841
0.428206
0.44079
0.431447
0.415577
0.39879
0.385893
0.374837
0.363579
0.351939
0.339746
0.327277
0.31478
0.301969
0.28913
0.276157
0.262977
0.24977
0.236349
0.222868
0.209294
0.195654
0.18214
0.168733
0.155609
0.142994
0.13111
0.120501
0.111642
0.104973
0.102012
0.102134
0.107081
3.00001
3
3
2.99996
2.99991
2.9994
2.99881
2.99587
2.9929
2.97769
2.96097
2.89652
2.74881
2.39362
1.67318
0.790268
0.295793
0.36426
0.423348
0.437902
0.430133
0.415096
0.397966
0.384708
0.373501
0.362318
0.350805
0.338756
0.326547
0.314326
0.301867
0.289412
0.276801
0.264043
0.251213
0.238224
0.22521
0.212142
0.1991
0.18624
0.173629
0.161458
0.149985
0.139485
0.130475
0.123374
0.118649
0.117382
0.118881
0.124192
3.00001
3
3
2.99996
2.99991
2.99941
2.99883
2.996
2.99314
2.97843
2.96228
2.89974
2.75516
2.4067
1.68998
0.808705
0.309193
0.365205
0.418107
0.434884
0.42874
0.414541
0.397093
0.383353
0.372097
0.361167
0.349991
0.338257
0.326443
0.314628
0.302597
0.290601
0.278417
0.266133
0.253804
0.241356
0.228948
0.216538
0.204245
0.192239
0.180569
0.169461
0.159203
0.150089
0.142617
0.137064
0.133794
0.133843
0.136093
0.141723
3.00001
3
3
2.99996
2.99991
2.99942
2.99887
2.99615
2.99343
2.97928
2.96379
2.90333
2.76196
2.42067
1.70792
0.828946
0.323142
0.365798
0.412347
0.431412
0.426863
0.413654
0.396184
0.382003
0.37092
0.360455
0.349706
0.338402
0.327056
0.315671
0.304123
0.292606
0.280938
0.269224
0.257498
0.245728
0.234068
0.222472
0.211085
0.200059
0.189484
0.179568
0.170562
0.162747
0.156619
0.152362
0.150318
0.151143
0.154117
0.159737
3.00001
3
3
2.99996
2.99991
2.99944
2.99893
2.99635
2.99384
2.98051
2.96562
2.90755
2.76877
2.43515
1.72625
0.849597
0.337306
0.366126
0.40731
0.428246
0.425022
0.412627
0.395501
0.381261
0.370368
0.360291
0.34999
0.339104
0.328224
0.317327
0.306299
0.295357
0.284308
0.273283
0.262287
0.251317
0.240531
0.229879
0.219512
0.209578
0.200184
0.191525
0.183825
0.177312
0.172385
0.169235
0.168103
0.169726
0.172888
0.178727
3.00001
3
3
2.99996
2.99991
2.99948
2.99901
2.99664
2.99435
2.98232
2.96787
2.91256
2.77617
2.45094
1.74664
0.873914
0.352768
0.365171
0.404746
0.426107
0.423513
0.411576
0.39486
0.38082
0.370138
0.360434
0.350535
0.340132
0.329793
0.319457
0.309067
0.298817
0.288495
0.278278
0.26819
0.258146
0.248391
0.238833
0.229621
0.220881
0.212724
0.205339
0.198924
0.193683
0.189938
0.187728
0.1874
0.189396
0.193105
0.198672
3.00001
3.00001
3
2.99996
2.99991
2.99953
2.99912
2.997
2.99502
2.9845
2.97067
2.91888
2.7843
2.46886
1.7694
0.903503
0.370083
0.364496
0.402708
0.423939
0.421739
0.410268
0.394051
0.380363
0.370018
0.36071
0.351293
0.341453
0.331722
0.322037
0.312388
0.302911
0.29345
0.284159
0.275033
0.266077
0.257425
0.249071
0.241169
0.233778
0.226992
0.220958
0.215843
0.21183
0.209194
0.207954
0.208344
0.210928
0.214537
0.220426
3.00001
3.00001
3
2.99997
2.99992
2.9996
2.99925
2.99746
2.99582
2.98707
2.97363
2.92598
2.7931
2.489
1.79627
0.938704
0.390139
0.36391
0.400587
0.422097
0.420196
0.40901
0.393227
0.379983
0.369977
0.361154
0.352253
0.343044
0.334032
0.325118
0.316302
0.307744
0.299278
0.291054
0.283057
0.275312
0.267921
0.260865
0.254281
0.248295
0.242962
0.238386
0.234656
0.231919
0.230422
0.23012
0.231237
0.23419
0.238456
0.243858
3.00001
3.00001
3
2.99998
2.99994
2.99967
2.99939
2.99797
2.99668
2.98988
2.97643
2.93189
2.80402
2.51226
1.831
0.980205
0.4132
0.361642
0.397371
0.419784
0.418391
0.4075
0.392223
0.379485
0.369976
0.361617
0.353311
0.344768
0.336531
0.328455
0.320574
0.313046
0.305636
0.298612
0.291885
0.285487
0.279547
0.274023
0.268965
0.264482
0.260671
0.257629
0.255443
0.254131
0.253853
0.25464
0.25672
0.260295
0.264346
0.270452
3.00001
3.00001
3
2.99998
2.99994
2.99972
2.99948
2.99833
2.99688
2.99183
2.97793
2.94029
2.81709
2.53821
1.87187
1.02929
0.438131
0.355064
0.390735
0.415199
0.414788
0.40434
0.389727
0.377709
0.368906
0.361328
0.353853
0.346253
0.339
0.331972
0.325198
0.318813
0.312692
0.306942
0.3016
0.296643
0.292206
0.288335
0.285023
0.282311
0.280243
0.27889
0.278303
0.278663
0.279965
0.282045
0.285075
0.289522
0.294811
0.300167
3.00001
3.00001
3
2.99998
2.99995
2.99977
2.99956
2.99863
2.99727
2.99349
2.98097
2.95286
2.83309
2.57591
1.91998
1.08861
0.475876
0.350267
0.385686
0.413241
0.413789
0.403221
0.388674
0.376806
0.368297
0.361198
0.35435
0.347585
0.3413
0.335385
0.329868
0.324809
0.320123
0.315911
0.312172
0.308872
0.306095
0.303905
0.302402
0.301603
0.30155
0.302265
0.303775
0.305915
0.309046
0.313059
0.317937
0.323536
0.329099
0.33599
3.00001
3.00001
3
2.99999
2.99995
2.99982
2.99965
2.99881
2.99848
2.9932
2.99176
2.94808
2.84949
2.55825
2.05469
1.12118
0.541526
0.348596
0.387
0.4206
0.422918
0.41181
0.396689
0.384061
0.374894
0.367293
0.360148
0.353265
0.347069
0.341485
0.336577
0.332367
0.328785
0.325814
0.323602
0.322044
0.321145
0.320918
0.3214
0.322674
0.32468
0.327638
0.331594
0.336579
0.34212
0.348567
0.355741
0.364156
0.372322
0.379138
3.00001
3.00001
3
2.99999
2.99994
2.99987
2.99963
2.99904
2.99855
2.99361
2.99156
2.95304
2.86397
2.61346
2.1552
1.24512
0.611364
0.347571
0.393477
0.436943
0.442468
0.431545
0.416427
0.403284
0.393393
0.384942
0.376848
0.369073
0.361963
0.35558
0.350042
0.345528
0.341965
0.33944
0.337827
0.337327
0.337883
0.339429
0.342035
0.345604
0.350248
0.355745
0.362436
0.370346
0.379855
0.390118
0.401578
0.413708
0.425942
0.437853
3.00001
3.00001
3
2.99999
2.99994
2.99989
2.99967
2.99927
2.99865
2.99532
2.98933
2.96093
2.87964
2.67123
2.25881
1.41973
0.704507
0.375761
0.430239
0.480587
0.486359
0.47317
0.455968
0.440053
0.427684
0.417032
0.406951
0.397275
0.388409
0.380432
0.373403
0.367554
0.362964
0.359719
0.357891
0.357412
0.358401
0.360932
0.365061
0.370738
0.377935
0.386927
0.397009
0.40888
0.422581
0.438797
0.457033
0.478268
0.500498
0.523151
3.00001
3
3
2.99999
2.99996
2.9999
2.99979
2.99932
2.99895
2.99579
2.99363
2.96825
2.89765
2.72816
2.35631
1.6318
0.78984
0.382589
0.443514
0.497129
0.508581
0.498847
0.484084
0.468879
0.457109
0.446938
0.437109
0.427387
0.418191
0.409705
0.40208
0.395458
0.390042
0.386025
0.383487
0.382623
0.383714
0.386801
0.391815
0.39888
0.408135
0.419898
0.434356
0.451194
0.471605
0.495377
0.525001
0.562574
0.612761
0.700403
3.00001
3.00001
3.00001
3
2.99999
2.99997
2.99986
2.99968
2.99883
2.99816
2.99068
2.98167
2.91521
2.75246
2.338
1.65098
0.741982
0.354178
0.414465
0.467151
0.485516
0.48516
0.47837
0.469875
0.463836
0.459167
0.454514
0.44945
0.444189
0.439077
0.434296
0.429953
0.426187
0.423234
0.421656
0.421724
0.423711
0.427599
0.433777
0.442436
0.454058
0.468889
0.48785
0.511378
0.540625
0.578235
0.625324
0.69151
0.788827
0.914932
3.00001
3.00001
3.00001
3
2.99999
2.99997
2.99987
2.9997
2.99888
2.99811
2.9924
2.98481
2.92772
2.7777
2.41308
1.76401
0.836858
0.419286
0.412758
0.44687
0.468811
0.472521
0.469049
0.463667
0.460485
0.459348
0.458699
0.457856
0.456894
0.456061
0.455322
0.454669
0.454463
0.455014
0.456599
0.459105
0.463214
0.469018
0.477315
0.488246
0.502373
0.520387
0.542639
0.571158
0.606129
0.651291
0.709267
0.782632
0.890423
1.00128
3.00001
3.00001
3.00001
3
2.99999
2.99997
2.99986
2.99966
2.99876
2.99803
2.99173
2.98697
2.93892
2.81018
2.4879
1.91044
0.975876
0.502126
0.413906
0.441852
0.467373
0.472905
0.46985
0.465217
0.462487
0.462345
0.463453
0.464829
0.466448
0.468358
0.470688
0.473645
0.477196
0.481244
0.485909
0.491635
0.498471
0.507283
0.517862
0.531607
0.547972
0.568773
0.59369
0.624189
0.661788
0.706414
0.763144
0.827822
0.914652
0.993515
3.00001
3.00001
3.00001
3
2.99999
2.99998
2.99988
2.99973
2.99891
2.99823
2.9917
2.98997
2.94751
2.84529
2.56955
2.07061
1.14642
0.600342
0.419651
0.447669
0.482122
0.492798
0.490382
0.485582
0.481564
0.480579
0.481254
0.482535
0.484433
0.487199
0.490796
0.495101
0.500176
0.506039
0.512816
0.520777
0.530029
0.540893
0.553842
0.568908
0.58736
0.608519
0.634778
0.664332
0.70097
0.741436
0.791035
0.844686
0.910595
0.970655
3.00001
3.00001
3.00001
3.00001
3
2.99998
2.99992
2.99977
2.99932
2.99888
2.99501
2.98676
2.96112
2.87746
2.67406
2.27515
1.45276
0.744923
0.440862
0.480232
0.525484
0.540185
0.534877
0.526696
0.519675
0.515471
0.513095
0.512238
0.512898
0.514886
0.517857
0.521854
0.526934
0.533177
0.540683
0.549445
0.559832
0.571654
0.585664
0.601358
0.620118
0.640911
0.666027
0.693452
0.726582
0.762255
0.80419
0.84956
0.901469
0.949656
3.00001
3.00001
3.00001
3
3
2.99998
2.99993
2.99974
2.99943
2.99791
2.99674
2.98632
2.98227
2.91099
2.73886
2.30161
1.61183
0.733653
0.387271
0.453521
0.512119
0.536719
0.540551
0.538041
0.534926
0.533204
0.532576
0.533095
0.535021
0.537969
0.541693
0.546191
0.551884
0.558594
0.566747
0.575988
0.586966
0.599155
0.613504
0.629163
0.647569
0.667365
0.690701
0.715607
0.744605
0.776001
0.811185
0.849496
0.890662
0.930015
3.00001
3.00001
3.00001
3.00001
3
2.99999
2.99997
2.99986
2.99967
2.99865
2.9979
2.9914
2.97571
2.9264
2.7728
2.40795
1.74208
0.829992
0.440789
0.454684
0.493732
0.523336
0.531584
0.532352
0.532454
0.533706
0.53613
0.539687
0.544594
0.550092
0.555985
0.56223
0.569503
0.577429
0.586718
0.596765
0.608479
0.621067
0.635641
0.651308
0.669092
0.688309
0.709627
0.732856
0.758072
0.785536
0.815283
0.846999
0.8808
0.912659
3.00001
3.00001
3.00001
3
3
2.99999
2.99997
2.99985
2.99966
2.9986
2.99787
2.99028
2.98875
2.9356
2.81293
2.50156
1.9251
1.00226
0.540946
0.457049
0.487085
0.518382
0.529251
0.530765
0.531508
0.533221
0.536531
0.541789
0.548629
0.555805
0.563359
0.571213
0.580025
0.589302
0.599762
0.610755
0.623141
0.63628
0.650864
0.666563
0.683719
0.702244
0.722231
0.743673
0.766598
0.791141
0.817098
0.843851
0.872319
0.898769
3.00001
3.00001
3.00001
3.00001
3
2.99999
2.99995
2.99991
2.99968
2.99924
2.99771
2.99481
2.9841
2.94952
2.85459
2.59985
2.1165
1.2368
0.665656
0.472792
0.500151
0.536448
0.553153
0.554978
0.553442
0.552997
0.554294
0.558173
0.563809
0.569812
0.576439
0.583789
0.592198
0.601378
0.611719
0.622757
0.635039
0.648095
0.662356
0.677547
0.693902
0.71133
0.729924
0.749597
0.770553
0.792531
0.815347
0.838808
0.863317
0.886055
3.00001
3.00001
3.00001
3.00001
3
3
2.99998
2.99996
2.99976
2.99947
2.99785
2.99621
2.98277
2.9801
2.89005
2.70975
2.19862
1.48764
0.710275
0.43917
0.482434
0.531528
0.557894
0.564801
0.56566
0.566426
0.568328
0.57241
0.578144
0.584071
0.590533
0.597495
0.605437
0.614162
0.623858
0.634434
0.645956
0.658491
0.671925
0.686362
0.701673
0.717904
0.734999
0.753026
0.771917
0.791559
0.811564
0.832287
0.853682
0.87349
3.00001
3.00001
3.00001
3.00001
3.00001
3
2.99999
2.99997
2.9998
2.99956
2.99816
2.99712
2.98716
2.98432
2.91378
2.75296
2.35835
1.673
0.802471
0.446985
0.475909
0.518591
0.550198
0.56114
0.564091
0.566291
0.569682
0.575289
0.582394
0.589659
0.597078
0.604832
0.613257
0.622348
0.632125
0.642646
0.65388
0.665946
0.678769
0.692412
0.706799
0.72193
0.737753
0.754386
0.771523
0.789015
0.806992
0.825439
0.844379
0.8618
3.00001
3.00001
3.00001
3.00001
3.00001
3
2.99999
2.99993
2.99986
2.99934
2.99852
2.9941
2.99355
2.98031
2.95172
2.81735
2.52801
1.83582
1.00608
0.51637
0.484716
0.517481
0.549405
0.561024
0.563416
0.564987
0.568454
0.57426
0.581494
0.589126
0.597076
0.60556
0.614623
0.624275
0.634475
0.645276
0.656606
0.668568
0.681124
0.694313
0.708062
0.722418
0.737369
0.752817
0.768461
0.784559
0.800945
0.817624
0.834654
0.85026
3.00001
3.00001
3.00001
3.00001
3.00001
3.00001
3
2.99999
2.99988
2.9997
2.99881
2.99792
2.99044
2.98943
2.9425
2.84368
2.56846
2.05506
1.17259
0.635978
0.485867
0.514853
0.550761
0.569437
0.573517
0.574075
0.576412
0.580832
0.586727
0.593522
0.600851
0.60877
0.617321
0.626594
0.636434
0.646874
0.657864
0.669307
0.68123
0.693722
0.706708
0.720294
0.73424
0.748487
0.763022
0.777908
0.793003
0.808283
0.823794
0.838002
3.00001
3.00001
3.00001
3.00001
3.00001
3
3
2.99998
2.99996
2.99977
2.99949
2.99771
2.99616
2.9815
2.9807
2.88134
2.69357
2.14579
1.42331
0.698989
0.458408
0.494602
0.53942
0.566437
0.57526
0.577892
0.58097
0.585808
0.591863
0.598577
0.605672
0.613237
0.621313
0.629993
0.639231
0.649037
0.659274
0.670073
0.681256
0.692858
0.704942
0.717426
0.73017
0.743246
0.756615
0.770278
0.784113
0.798092
0.812251
0.825197
3.00001
3.00001
3.00001
3.00001
3.00001
3
3
2.99999
2.99997
2.9998
2.99955
2.99797
2.99678
2.98485
2.98364
2.90764
2.74727
2.33501
1.65332
0.797145
0.459472
0.487838
0.529883
0.560858
0.571675
0.575415
0.579341
0.58499
0.591792
0.599153
0.606703
0.614507
0.622609
0.631109
0.639994
0.649334
0.659086
0.669231
0.679779
0.690763
0.702065
0.713608
0.725397
0.737503
0.749846
0.762432
0.775131
0.787949
0.800904
0.81275
3.00001
3.00001
3.00001
3.00001
3.00001
3.00001
3
3
2.99996
2.99993
2.99964
2.99924
2.99685
2.99518
2.97918
2.94654
2.81472
2.51214
1.81982
0.99882
0.5139
0.490841
0.525533
0.558484
0.570712
0.574151
0.57755
0.582913
0.589685
0.597144
0.604886
0.612853
0.621016
0.629409
0.638135
0.647198
0.656588
0.666332
0.676473
0.686894
0.697449
0.708288
0.719359
0.730719
0.742206
0.753904
0.76567
0.777542
0.78951
0.800464
3.00001
3.00001
3.00001
3.00001
3.00001
3.00001
3
3
2.99996
2.99988
2.99955
2.99903
2.99627
2.99517
2.97806
2.97449
2.86018
2.60217
1.9589
1.16853
0.594089
0.476294
0.505127
0.541054
0.560789
0.568072
0.572284
0.577532
0.584181
0.591686
0.599607
0.607788
0.616123
0.62464
0.633353
0.642301
0.651562
0.661117
0.670873
0.680757
0.690857
0.701179
0.711694
0.722395
0.733239
0.7442
0.755249
0.766333
0.777538
0.787759
3.00001
3.00001
3.00001
3.00001
3.00001
3
3
2.99998
2.99996
2.99982
2.99964
2.99836
2.99635
2.98469
2.98202
2.95729
2.88353
2.66845
2.24527
1.41268
0.759863
0.489303
0.514391
0.553904
0.583156
0.592452
0.594065
0.595337
0.598493
0.602973
0.608253
0.614151
0.620485
0.627296
0.634523
0.642208
0.650253
0.658568
0.667197
0.676108
0.685344
0.694832
0.704567
0.714437
0.724485
0.734621
0.744869
0.755135
0.765532
0.77501
3.00001
3.00001
3.00001
3.00001
3.00001
3.00001
3
2.99999
2.99997
2.99988
2.99977
2.99892
2.9976
2.99002
2.9885
2.97111
2.92246
2.76382
2.41992
1.69871
0.886242
0.476372
0.50213
0.548052
0.590425
0.606583
0.609629
0.610517
0.612669
0.616089
0.620153
0.624614
0.629436
0.634726
0.64046
0.646592
0.653116
0.660012
0.667324
0.674997
0.683059
0.691368
0.699975
0.708792
0.71782
0.72699
0.736295
0.745655
0.75516
0.763843
3.00001
3.00001
3.00001
3.00001
3.00001
3.00001
3
3
2.99997
2.99995
2.99975
2.99941
2.99783
2.99641
2.98511
2.98168
2.91823
2.77354
2.43632
1.80524
0.895952
0.4789
0.464981
0.516138
0.563956
0.586654
0.595027
0.599438
0.604121
0.609567
0.615424
0.621396
0.62745
0.63358
0.639805
0.646135
0.652629
0.659316
0.666242
0.673377
0.680775
0.688381
0.696205
0.704218
0.712409
0.720737
0.729204
0.737754
0.746441
0.754399
3.00001
3.00001
3.00001
3.00001
3.00001
3.00001
3
3
2.99997
2.99994
2.99973
2.99952
2.99751
2.99451
2.97817
2.97206
2.93838
2.8166
2.52461
1.9577
1.04933
0.568661
0.46422
0.502276
0.546034
0.571325
0.581208
0.586414
0.592045
0.598706
0.605739
0.61282
0.619761
0.626591
0.633423
0.64033
0.647378
0.654529
0.661787
0.669135
0.676542
0.684044
0.691614
0.699297
0.707054
0.714916
0.72284
0.730835
0.738914
0.74633
3.00001
3.00001
3.00001
3.00001
3.00001
3.00001
3.00001
3
3
2.99997
2.99994
2.99965
2.99925
2.99658
2.99486
2.97673
2.97453
2.85931
2.63403
2.03334
1.27833
0.63104
0.452316
0.487932
0.534485
0.563275
0.573606
0.577916
0.58276
0.589104
0.596268
0.603607
0.610958
0.618327
0.625719
0.633146
0.640594
0.648072
0.65555
0.663051
0.670564
0.678098
0.685674
0.693258
0.700909
0.708563
0.716273
0.723992
0.731773
0.738913
3.00001
3.00001
3.00001
3.00001
3.00001
3.00001
3.00001
3
3
2.99997
2.99995
2.99976
2.99948
2.99775
2.99604
2.98005
2.97467
2.87994
2.6775
2.15835
1.4307
0.675987
0.418382
0.463009
0.517029
0.547641
0.558277
0.562673
0.567624
0.574228
0.581807
0.589708
0.597669
0.60567
0.613675
0.621692
0.62971
0.637692
0.645655
0.653561
0.66144
0.669268
0.677061
0.684828
0.69255
0.700273
0.707954
0.715635
0.723336
0.730383
3.00001
3.00001
3.00001
3.00001
3.00001
3.00001
3.00001
3
3
2.99998
2.99996
2.99976
2.99948
2.99767
2.99648
2.98438
2.98134
2.90766
2.73259
2.30302
1.61256
0.753039
0.417174
0.458175
0.509944
0.541257
0.55124
0.554097
0.557456
0.56291
0.569886
0.577417
0.585107
0.592935
0.600875
0.608929
0.617074
0.625239
0.633431
0.641587
0.649719
0.657806
0.665832
0.673835
0.681757
0.689667
0.697509
0.705316
0.713146
0.72028
3.00001
3.00001
3.00001
3.00001
3.00001
3.00001
3.00001
3
3
2.99999
2.99994
2.99987
2.99933
2.99849
2.99366
2.99292
2.97667
2.94771
2.80182
2.47622
1.75705
0.936938
0.467906
0.470037
0.511845
0.548554
0.56043
0.562029
0.563384
0.566999
0.572124
0.577915
0.58405
0.590443
0.597138
0.604064
0.611246
0.61858
0.626066
0.633634
0.641259
0.648945
0.656622
0.664357
0.672061
0.679799
0.687523
0.69523
0.702983
0.710044
3.00001
3.00001
3.00001
3.00001
3.00001
3.00001
3.00001
3.00001
3
2.99999
2.99995
2.99991
2.99955
2.99906
2.99592
2.99468
2.97546
2.96539
2.83036
2.55012
1.87015
1.0721
0.520321
0.454571
0.494538
0.535882
0.553956
0.559288
0.562295
0.566515
0.571884
0.577736
0.583737
0.589799
0.596025
0.602385
0.608941
0.615627
0.622462
0.629402
0.636427
0.643555
0.650724
0.657989
0.665274
0.672623
0.679987
0.68736
0.694795
0.701577
3.00001
3.00001
3.00001
3.00001
3.00001
3.00001
3.00001
3.00001
3
3
2.99997
2.99995
2.99962
2.99916
2.99619
2.99454
2.97473
2.97161
2.85492
2.59884
1.9816
1.19491
0.573498
0.426157
0.464018
0.510195
0.536965
0.547257
0.552258
0.557405
0.56352
0.570078
0.576703
0.583249
0.589803
0.596363
0.603009
0.609708
0.616483
0.623327
0.630216
0.63718
0.64416
0.651211
0.658261
0.665364
0.67247
0.679586
0.686748
0.693296
3.00001
3.00001
3.00001
3.00001
3.00001
3.00001
3.00001
3.00001
3
2.99999
2.99997
2.99985
2.99976
2.99859
2.99691
2.98626
2.98678
2.95783
2.88125
2.65046
2.21324
1.33996
0.700596
0.421411
0.460327
0.515121
0.550191
0.562805
0.566633
0.56984
0.57435
0.579727
0.585383
0.591048
0.596749
0.602493
0.608343
0.614314
0.620394
0.626585
0.632859
0.639217
0.645629
0.652108
0.658622
0.665175
0.67176
0.678347
0.685002
0.691096
3.00001
3.00001
3.00001
3.00001
3.00001
3.00001
3.00001
3.00001
3.00001
3
2.99999
2.99994
2.99989
2.99943
2.99879
2.99398
2.99185
2.96539
2.90841
2.73943
2.36491
1.61831
0.805585
0.395537
0.454152
0.523425
0.567536
0.582929
0.586279
0.588131
0.59144
0.59592
0.600837
0.605814
0.610828
0.61592
0.621146
0.626507
0.63201
0.637622
0.643353
0.649166
0.655055
0.66101
0.667009
0.673048
0.679111
0.685181
0.691286
0.696877
3.00001
3.00001
3.00001
3.00001
3.00001
3.00001
3.00001
3.00001
3.00001
3
3
2.99995
2.99991
2.99956
2.99905
2.9957
2.99369
2.97258
2.93159
2.77447
2.42104
1.67193
0.840974
0.377421
0.43222
0.501023
0.552352
0.572458
0.578244
0.581671
0.586394
0.592292
0.598555
0.604731
0.610765
0.616696
0.622624
0.628564
0.634549
0.640554
0.646594
0.652649
0.658728
0.664805
0.670902
0.676983
0.683068
0.689126
0.6952
0.70076
3.00001
3.00001
3.00001
3.00001
3.00001
3.00001
3.00001
3.00001
3.00001
3
2.99999
2.99993
2.9999
2.99937
2.99863
2.99379
2.9935
2.97837
2.95522
2.80359
2.4692
1.72489
0.896248
0.400254
0.421841
0.479803
0.531607
0.553514
0.560299
0.564487
0.570113
0.5771
0.58446
0.591711
0.598765
0.605657
0.612479
0.619237
0.625967
0.632664
0.639326
0.645948
0.652544
0.659082
0.665597
0.672055
0.678484
0.684861
0.691227
0.697039
3.00001
3.00001
3.00001
3.00001
3.00001
3.00001
3.00001
3.00001
3.00001
3
2.99999
2.99995
2.99991
2.99954
2.99901
2.99554
2.99509
2.97726
2.96336
2.8244
2.50244
1.77531
0.956433
0.428141
0.413387
0.466996
0.517392
0.539127
0.546056
0.550467
0.556223
0.563353
0.570892
0.578381
0.585707
0.592909
0.600041
0.607135
0.614183
0.621208
0.628181
0.63512
0.64201
0.648855
0.655649
0.662398
0.669092
0.675745
0.682375
0.688448
3.00001
3.00001
3.00001
3.00001
3.00001
3.00001
3.00001
3.00001
3
3
2.99999
2.99994
2.99988
2.99944
2.99878
2.9947
2.99347
2.96854
2.97142
2.8232
2.52502
1.82755
1.01294
0.453303
0.405512
0.456928
0.507292
0.528986
0.535816
0.540047
0.545567
0.552476
0.559819
0.567216
0.574486
0.581707
0.588863
0.59602
0.603126
0.610228
0.617274
0.624311
0.631288
0.63825
0.645149
0.652024
0.658835
0.665609
0.672355
0.678523
3.00001
3.00001
3.00001
3.00001
3.00001
3.00001
3.00001
3.00001
3.00001
3
3
2.99996
2.99992
2.99955
2.99899
2.99548
2.99416
2.9708
2.96649
2.83388
2.53692
1.87513
1.06693
0.480627
0.399886
0.44896
0.498974
0.521395
0.528503
0.532633
0.537921
0.544629
0.551831
0.559147
0.566356
0.573561
0.580692
0.587851
0.594949
0.602049
0.609095
0.616116
0.623097
0.630036
0.636946
0.643801
0.650631
0.657402
0.664179
0.670375
3.00001
3.00001
3.00001
3.00001
3.00001
3.00001
3.00001
3.00001
3.00001
3
3
2.99995
2.99993
2.99947
2.99881
2.9941
2.99464
2.96976
2.97376
2.8433
2.57613
1.91614
1.12068
0.505547
0.391102
0.437767
0.48773
0.512022
0.520337
0.524916
0.530423
0.537273
0.544678
0.55216
0.559558
0.566884
0.57415
0.581377
0.588566
0.5957
0.60281
0.609849
0.616883
0.623827
0.630783
0.637639
0.644502
0.651264
0.658039
0.664184
3.00001
3.00001
3.00001
3.00001
3.00001
3.00001
3.00001
3.00001
3.00001
3
3
2.99996
2.99993
2.99965
2.99927
2.99676
2.99488
2.97427
2.96952
2.84558
2.58571
1.96262
1.17148
0.524689
0.371571
0.419901
0.473621
0.500503
0.509724
0.514265
0.519804
0.526859
0.534736
0.54272
0.550653
0.55844
0.566181
0.573794
0.58139
0.588854
0.596312
0.603638
0.610961
0.618162
0.625347
0.632426
0.639475
0.646436
0.653395
0.659761
3.00001
3.00001
3.00001
3.00001
3.00001
3.00001
3.00001
3.00001
3.00001
3
2.99999
2.99999
2.9999
2.99983
2.99905
2.99818
2.99051
2.9879
2.94463
2.84964
2.5912
2.08653
1.18853
0.59694
0.376337
0.430452
0.493865
0.527743
0.538856
0.542343
0.546233
0.551844
0.558466
0.565344
0.572194
0.578943
0.585704
0.592382
0.599104
0.605748
0.612391
0.618975
0.625523
0.632026
0.638487
0.644893
0.651267
0.65756
0.663839
0.669527
3.00001
3.00001
3.00001
3.00001
3.00001
3.00001
3.00001
3.00001
3.00001
3
3
2.99999
2.99991
2.99982
2.99916
2.99864
2.99282
2.99422
2.95769
2.87582
2.65289
2.20118
1.35508
0.677427
0.379163
0.441336
0.515139
0.557837
0.572864
0.577543
0.581632
0.587148
0.593478
0.599859
0.606002
0.611906
0.61765
0.623294
0.628895
0.634449
0.639995
0.645508
0.651019
0.656507
0.661997
0.667463
0.672927
0.678356
0.68379
0.688768
3.00001
3.00001
3.00001
3.00001
3.00001
3.00001
3.00001
3.00001
3.00001
3
3
2.99997
2.99995
2.99973
2.99944
2.99748
2.99553
2.97601
2.97724
2.85486
2.63325
2.00571
1.23281
0.522272
0.315875
0.383679
0.451115
0.479844
0.489472
0.495334
0.50282
0.512033
0.522015
0.531983
0.541745
0.551168
0.560403
0.569357
0.578145
0.586702
0.595071
0.603241
0.611228
0.619031
0.626683
0.634154
0.641508
0.648692
0.655812
0.662276
3.00001
3.00001
3.00001
3.00001
3.00001
3.00001
3.00001
3.00001
3.00001
3.00001
3
2.99999
2.99991
2.99984
2.9992
2.99871
2.9931
2.99322
2.95944
2.8841
2.65518
2.21489
1.37141
0.676079
0.363839
0.430081
0.507646
0.550085
0.564592
0.569374
0.574141
0.580597
0.588079
0.595647
0.602974
0.610072
0.61693
0.623626
0.630175
0.636533
0.642791
0.648869
0.654876
0.66075
0.666563
0.672275
0.677925
0.683493
0.689013
0.694046
1.25515
0.899921
0.409002
0.23196
0.148759
0.278737
0.318485
0.333364
0.329707
0.317663
0.308655
0.300901
0.291671
0.27842
0.260154
0.238522
0.214147
0.188212
0.161635
0.13434
0.106806
0.0792418
0.0519371
0.0271756
0.0163198
0.0378239
0.064274
0.0901106
0.115538
0.140382
0.164683
0.188411
0.211623
0.234261
0.255641
0.275842
0.296389
0.318168
0.339896
0.360702
0.380809
0.400357
0.419454
0.438099
0.456338
0.474145
0.491551
0.508567
0.525157
0.541375
0.557163
0.57256
0.587527
0.602083
0.616206
0.629886
0.643098
0.655846
0.668094
0.679832
0.691037
0.701671
0.711714
0.721118
0.729864
0.737892
0.745201
0.751678
0.757366
0.762116
0.765978
0.768842
0.770737
0.771625
0.771937
0.77197
0.771552
0.770195
0.767481
0.763645
0.759471
0.755143
0.750843
0.746649
0.742759
0.73914
0.736153
0.733596
0.731813
0.730519
0.729974
0.729878
0.73039
0.731245
0.732452
0.733916
0.73552
0.737157
0.738854
0.744066
1.15691
0.949784
0.706471
0.476214
0.426569
0.352702
0.287331
0.237857
0.194861
0.146719
0.118158
0.0985999
0.105467
0.118543
0.130066
0.146016
0.163609
0.182066
0.201553
0.221609
0.241793
0.26203
0.282102
0.301765
0.320789
0.339808
0.359182
0.378542
0.397811
0.416851
0.435672
0.454233
0.472489
0.490475
0.507663
0.523978
0.540127
0.557218
0.574843
0.591769
0.608134
0.624118
0.639829
0.655275
0.670397
0.685211
0.699693
0.713849
0.72765
0.741129
0.75423
0.767045
0.779447
0.79158
0.80331
0.81474
0.825807
0.836515
0.846916
0.856874
0.866533
0.875694
0.884473
0.892676
0.900362
0.90741
0.913802
0.919529
0.924464
0.928678
0.932043
0.93456
0.936198
0.936963
0.937184
0.93729
0.936969
0.935926
0.933667
0.930339
0.926668
0.92289
0.919104
0.915439
0.911941
0.908833
0.906103
0.903899
0.902251
0.901124
0.900631
0.900587
0.901089
0.901925
0.903034
0.904398
0.905812
0.907312
0.908722
0.913301
1.09422
1.043
0.941503
0.850024
0.788848
0.738064
0.691762
0.653084
0.624103
0.598312
0.578953
0.569072
0.563814
0.561269
0.56037
0.561318
0.564317
0.568814
0.574572
0.581309
0.588804
0.596867
0.605336
0.614112
0.623139
0.632589
0.642556
0.652963
0.663643
0.674505
0.685488
0.696587
0.707879
0.71937
0.730668
0.741517
0.752332
0.763945
0.776467
0.789098
0.801297
0.813323
0.825291
0.83732
0.849337
0.861383
0.873366
0.885286
0.897096
0.908732
0.920192
0.931416
0.942381
0.953094
0.963451
0.973503
0.983151
0.9924
1.00125
1.00963
1.01759
1.02505
1.0321
1.03864
1.04473
1.05034
1.05529
1.05979
1.06353
1.0666
1.06898
1.07059
1.07141
1.07144
1.07116
1.07077
1.07002
1.06874
1.06637
1.06342
1.06
1.05663
1.05322
1.05012
1.04724
1.0448
1.04277
1.04124
1.04017
1.03962
1.03953
1.03991
1.04071
1.04176
1.04304
1.0444
1.04581
1.04706
1.04823
1.05203
1.06349
1.07081
1.04364
1.00846
0.980282
0.957369
0.936477
0.915373
0.896701
0.881494
0.869012
0.861157
0.858387
0.857109
0.855568
0.853877
0.85218
0.850656
0.849428
0.848583
0.848248
0.848385
0.84908
0.850193
0.851687
0.853616
0.856003
0.858905
0.862502
0.866635
0.871292
0.876479
0.882108
0.888267
0.894547
0.900776
0.907088
0.914254
0.922467
0.931389
0.940102
0.948772
0.95745
0.96635
0.975386
0.984707
0.994105
1.00375
1.01342
1.02325
1.03305
1.04287
1.05259
1.0622
1.07165
1.08087
1.08985
1.09854
1.10689
1.11492
1.12258
1.12982
1.13668
1.14315
1.14909
1.15457
1.15967
1.16406
1.16756
1.17046
1.17262
1.17386
1.17405
1.17347
1.17258
1.17139
1.17009
1.1679
1.16499
1.16158
1.15782
1.15391
1.15016
1.14657
1.14334
1.14061
1.13828
1.1365
1.13532
1.13458
1.13432
1.13466
1.13523
1.13642
1.13748
1.13907
1.14027
1.14194
1.14302
1.14737
1.03574
1.06511
1.07362
1.07279
1.07049
1.06862
1.06579
1.06102
1.05469
1.04811
1.0434
1.04148
1.04048
1.03853
1.03535
1.0317
1.02781
1.02371
1.01957
1.01564
1.0121
1.00879
1.00604
1.00364
1.00184
1.00038
0.999843
0.999848
1.00065
1.00204
1.00402
1.00664
1.00973
1.01342
1.01706
1.02066
1.02423
1.02849
1.03368
1.03971
1.04576
1.05192
1.05805
1.06445
1.07099
1.07778
1.0848
1.09204
1.09954
1.1072
1.11508
1.12305
1.13115
1.13924
1.1473
1.15525
1.16299
1.17055
1.17782
1.18488
1.19163
1.19812
1.20432
1.21015
1.21561