/*--------------------------------*- C++ -*----------------------------------*\
| =========                 |                                                 |
| \\      /  F ield         | OpenFOAM: The Open Source CFD Toolbox           |
|  \\    /   O peration     | Version:  2112                                  |
|   \\  /    A nd           | Website:  www.openfoam.com                      |
|    \\/     M anipulation  |                                                 |
\*---------------------------------------------------------------------------*/
FoamFile
{
    version     2.0;
    format      ascii;
    arch        "LSB;label=32;scalar=64";
    class       volScalarField;
    location    "10.0005";
    object      p;
}
// * * * * * * * * * * * * * * * * * * * * * * * * * * * * * * * * * * * * * //

dimensions      [1 -1 -2 0 0 0 0];

internalField   nonuniform List<scalar> 
7000
(
0.999996
0.999995
0.999993
0.999986
1.00008
1.00034
1.00121
1.00269
1.00761
1.01487
1.0429
1.06884
1.29945
1.52521
2.94002
5.7909
12.393
11.6496
10.8145
10.6189
10.669
10.7924
10.9132
10.9908
11.0496
11.1079
11.1696
11.2328
11.2955
11.3576
11.4189
11.4794
11.5393
11.5981
11.6557
11.7116
11.7657
11.8178
11.8677
11.9153
11.9605
12.0032
12.0433
12.0808
12.1155
12.1472
12.1754
12.2003
12.2202
12.2383
0.999999
0.999997
0.999995
0.999988
1.00008
1.00034
1.00119
1.00263
1.00745
1.01454
1.0419
1.06751
1.29152
1.5029
2.90417
5.64244
12.2554
11.6269
10.8233
10.6247
10.67
10.7858
10.9056
10.9843
11.0438
11.1023
11.164
11.2271
11.2898
11.3519
11.4133
11.4739
11.534
11.5928
11.6505
11.7067
11.761
11.8133
11.8634
11.9113
11.9567
11.9996
12.04
12.0776
12.1125
12.1443
12.1724
12.1974
12.2168
12.2341
0.999999
0.999998
0.999996
0.999988
1.00009
1.00034
1.00119
1.0026
1.00735
1.01433
1.0413
1.06683
1.28717
1.49271
2.88581
5.58477
12.2214
11.6093
10.8344
10.6361
10.6771
10.785
10.903
10.9826
11.0427
11.1012
11.1626
11.2254
11.2878
11.3496
11.4106
11.4709
11.5306
11.5891
11.6465
11.7023
11.7563
11.8084
11.8582
11.9059
11.951
11.9937
12.0337
12.0709
12.1053
12.1363
12.1635
12.1873
12.2047
12.2194
1
1
1
0.999994
1.0001
1.00035
1.00117
1.00256
1.0072
1.01402
1.04043
1.06542
1.28166
1.47942
2.8559
5.4856
12.0852
11.5745
10.8333
10.6375
10.6749
10.7755
10.8916
10.9723
11.0336
11.0923
11.1535
11.2161
11.2784
11.3401
11.4009
11.4612
11.5207
11.579
11.6364
11.692
11.746
11.798
11.8477
11.8952
11.9402
11.9826
12.0223
12.059
12.0927
12.1226
12.1486
12.171
12.1865
12.1989
1
1
1
1
1.0001
1.00035
1.00116
1.0025
1.00704
1.01369
1.03952
1.06374
1.27708
1.4657
2.83106
5.40252
11.9958
11.5402
10.8385
10.6459
10.6788
10.7704
10.884
10.9656
11.0274
11.0859
11.1465
11.2083
11.27
11.3312
11.3914
11.451
11.5099
11.5678
11.6245
11.6797
11.7332
11.7848
11.8341
11.8812
11.9257
11.9675
12.0065
12.0424
12.0751
12.1039
12.1286
12.1494
12.1634
12.1744
1
0.999999
1.00002
1.00001
1.00011
1.00035
1.00114
1.00244
1.00687
1.01333
1.03854
1.06203
1.27172
1.4516
2.80206
5.30621
11.868
11.4912
10.8428
10.6473
10.6745
10.7562
10.8692
10.9528
11.0158
11.0741
11.1342
11.1956
11.2568
11.3175
11.3772
11.4363
11.4947
11.552
11.6083
11.663
11.716
11.7671
11.8159
11.8625
11.9064
11.9476
11.9858
12.0208
12.0524
12.08
12.1032
12.1226
12.1353
12.1451
1
0.999998
1.00002
1.00002
1.00012
1.00035
1.00112
1.00238
1.00668
1.01292
1.03745
1.06001
1.26626
1.43625
2.77181
5.20614
11.7341
11.4304
10.8628
10.6513
10.6702
10.7403
10.8538
10.9401
11.0039
11.0616
11.1207
11.181
11.2415
11.3012
11.3601
11.4184
11.4759
11.5325
11.588
11.6419
11.6943
11.7446
11.7927
11.8386
11.8818
11.9222
11.9595
11.9935
12.024
12.0503
12.0724
12.0905
12.102
12.1111
0.999999
0.999998
1.00002
1.00002
1.00012
1.00035
1.00109
1.00231
1.00646
1.01247
1.03624
1.05772
1.26037
1.41986
2.73916
5.09983
11.5832
11.3586
10.883
10.6525
10.6624
10.7203
10.8337
10.9239
10.989
11.0458
11.1037
11.163
11.2225
11.2813
11.3391
11.3964
11.4529
11.5085
11.563
11.616
11.6674
11.7168
11.7641
11.8091
11.8514
11.8909
11.9272
11.9601
11.9895
12.0145
12.0354
12.0524
12.0631
12.0714
0.999999
0.999998
1.00001
1.00002
1.00012
1.00034
1.00106
1.00222
1.00621
1.01194
1.03487
1.05511
1.25397
1.40236
2.70401
4.98763
11.4154
11.2786
10.9003
10.6512
10.6527
10.7014
10.8092
10.9051
10.9714
11.0272
11.0836
11.1417
11.2
11.2575
11.3141
11.3702
11.4254
11.4797
11.5329
11.5847
11.6349
11.6832
11.7293
11.7732
11.8144
11.8527
11.888
11.9198
11.948
11.9719
11.9917
12.0077
12.0176
12.0256
0.999999
0.999998
1.00001
1.00002
1.00012
1.00033
1.001
1.00209
1.00586
1.01112
1.03344
1.05135
1.24763
1.38245
2.66925
4.86814
11.2298
11.1953
10.9058
10.6458
10.6382
10.6826
10.7855
10.8834
10.9504
11.0052
11.0603
11.117
11.1739
11.2299
11.2849
11.3394
11.3929
11.4457
11.4973
11.5475
11.5962
11.643
11.6878
11.7303
11.7701
11.8072
11.8411
11.8717
11.8987
11.9215
11.9403
11.9555
11.9647
11.9722
0.999999
0.999999
1.00001
1.00002
1.00012
1.0003
1.00093
1.00193
1.0054
1.01006
1.0317
1.04674
1.24067
1.3603
2.63123
4.73695
11.0097
11.1421
10.8872
10.6331
10.621
10.6632
10.7619
10.8589
10.9257
10.9797
11.0335
11.0886
11.1438
11.198
11.2511
11.3036
11.3552
11.406
11.4556
11.5039
11.5507
11.5956
11.6386
11.6793
11.7175
11.753
11.7854
11.8146
11.8403
11.862
11.8798
11.8941
11.9028
11.9103
1
0.999999
1.00001
1.00002
1.00011
1.00027
1.00083
1.00171
1.00482
1.00872
1.02938
1.04097
1.23292
1.33498
2.58795
4.59545
10.7556
11.0997
10.8617
10.6142
10.6008
10.6415
10.7369
10.8318
10.8976
10.9507
11.0031
11.0564
11.1097
11.1617
11.2127
11.2629
11.3121
11.3605
11.4077
11.4535
11.4979
11.5405
11.5811
11.6196
11.6557
11.6892
11.7197
11.7471
11.7713
11.7916
11.8082
11.8219
11.83
11.8371
1
1
1.00001
1.00002
1.00009
1.00023
1.00071
1.00145
1.00412
1.00708
1.02664
1.03414
1.22381
1.30746
2.53891
4.4384
10.4629
11.0611
10.8394
10.5924
10.5771
10.6168
10.7098
10.8019
10.8661
10.9179
10.9688
11.0203
11.0713
11.121
11.1693
11.2168
11.2631
11.3085
11.3527
11.3956
11.437
11.4766
11.5144
11.5501
11.5834
11.6142
11.6423
11.6674
11.6896
11.7082
11.7235
11.736
11.7434
11.7507
1
1
1
1.00002
1.00008
1.00019
1.00058
1.00117
1.00336
1.00533
1.02388
1.02808
1.21126
1.2836
2.47815
4.26018
10.1248
11.0281
10.8232
10.5709
10.5516
10.5904
10.681
10.7699
10.8318
10.8819
10.931
10.9804
11.0289
11.0758
11.1212
11.1655
11.2085
11.2503
11.2909
11.3299
11.3675
11.4034
11.4375
11.4694
11.4991
11.5264
11.5511
11.5731
11.5924
11.6084
11.6217
11.6329
11.6394
11.6461
1
1
1
1.00001
1.00007
1.00016
1.00049
1.00098
1.00283
1.00484
1.02009
1.0208
1.19675
1.25705
2.40774
4.05623
9.7291
11.005
10.8144
10.5488
10.5222
10.5604
10.6492
10.7351
10.7946
10.8428
10.8897
10.9366
10.9824
11.0262
11.0682
11.1088
11.1479
11.1855
11.2217
11.2563
11.2892
11.3203
11.3494
11.3765
11.4013
11.4238
11.4436
11.461
11.476
11.4884
11.4984
11.5067
11.5115
11.5186
1
1
1
1.00001
1.00006
1.00014
1.00041
1.00082
1.00234
1.00424
1.01567
1.01627
1.17511
1.22534
2.32226
3.84637
9.24379
11.023
10.8361
10.5385
10.4944
10.5304
10.6157
10.6988
10.7557
10.8014
10.8457
10.8897
10.9323
10.9726
11.0108
11.0471
11.0815
11.1142
11.1451
11.1742
11.2014
11.2265
11.2494
11.27
11.2881
11.3037
11.3168
11.3272
11.3355
11.3414
11.3458
11.3501
11.352
11.3571
1
1
1
1.00001
1.00005
1.00012
1.00033
1.0007
1.00182
1.00367
1.0039
1.05055
1.05242
1.46111
1.82179
3.96641
8.47723
11.0814
10.895
10.5351
10.4634
10.4976
10.5807
10.6624
10.7168
10.7593
10.8003
10.8408
10.8797
10.916
10.9498
10.9812
11.0103
11.0371
11.0617
11.0841
11.1041
11.1216
11.1365
11.1486
11.1579
11.1639
11.1666
11.1665
11.1642
11.1594
11.1532
11.1482
11.1434
11.1474
1
1
1
1.00002
1.00004
1.00012
1.00025
1.00065
1.00157
1.00331
1.00661
1.04366
1.05246
1.4003
1.67985
3.60575
7.59888
11.2221
10.99
10.5264
10.4152
10.4497
10.5347
10.6191
10.6733
10.7134
10.7512
10.7883
10.8235
10.8558
10.8848
10.9109
10.934
10.9543
10.9717
10.9862
10.9975
11.0058
11.0104
11.0107
11.0084
11.0015
10.9893
10.9731
10.9529
10.9291
10.9038
10.8804
10.8597
10.854
1
1
1
1.00002
1.00004
1.00011
1.00021
1.00057
1.00104
1.00406
1.00463
1.04022
1.04221
1.34481
1.56313
3.22816
6.58933
11.4958
11.1858
10.5594
10.381
10.4083
10.4843
10.5725
10.6276
10.6651
10.6988
10.7317
10.7626
10.7902
10.8143
10.8347
10.8515
10.8647
10.8742
10.88
10.881
10.8786
10.8714
10.8576
10.8383
10.8128
10.78
10.7397
10.6911
10.6346
10.5708
10.505
10.4425
10.4064
1
1
1.00001
1.00002
1.00003
1.00008
1.00019
1.00043
1.00114
1.0024
1.00346
1.03252
1.03368
1.28391
1.45787
2.84283
5.4324
11.5354
11.2161
10.5928
10.3516
10.365
10.4215
10.5125
10.5707
10.6068
10.6367
10.6652
10.6917
10.7148
10.7338
10.7485
10.7588
10.7647
10.7654
10.7625
10.7537
10.7372
10.7146
10.6846
10.6458
10.5968
10.5354
10.4596
10.3669
10.254
10.1183
9.95906
9.77805
9.59625
1
1
1
1
1.00001
1.00002
1.00014
1.00018
1.00093
1.00175
1.00624
1.00775
1.08788
1.09176
1.74261
2.38568
5.47437
11.1263
10.9561
10.4938
10.2824
10.2904
10.3359
10.4253
10.4876
10.5247
10.5513
10.5751
10.5967
10.6147
10.628
10.6363
10.6389
10.637
10.6297
10.6136
10.5889
10.5567
10.5156
10.4632
10.3972
10.3144
10.2111
10.08
9.91217
9.69166
9.38902
8.94981
8.25426
6.83554
1
1
1
1
1.00001
1.00002
1.00013
1.00016
1.00094
1.00164
1.00525
1.00503
1.07653
1.07885
1.64936
2.1826
4.99014
10.3597
10.7154
10.5047
10.2767
10.2516
10.2797
10.3457
10.4037
10.4361
10.4558
10.4717
10.4852
10.4947
10.4989
10.4979
10.4924
10.4787
10.455
10.4235
10.3833
10.3326
10.2691
10.1903
10.0924
9.97065
9.81822
9.62581
9.37777
9.05317
8.61835
8.02245
7.23011
6.05749
1
1
1
1
1.00001
1.00001
1.00014
1.0002
1.00091
1.00215
1.00452
1.00638
1.06336
1.06493
1.55549
1.99044
4.45919
9.40894
10.7254
10.5622
10.2868
10.214
10.2311
10.2761
10.3231
10.3475
10.3588
10.3654
10.369
10.3684
10.3643
10.3535
10.3327
10.3048
10.2687
10.2233
10.167
10.098
10.0135
9.91118
9.78599
9.63342
9.44631
9.21574
8.92979
8.57423
8.13399
7.58914
6.95768
6.16745
1
1
1
1
1.00001
1.00001
1.00012
1.00014
1.00089
1.00187
1.00467
1.006
1.05334
1.05313
1.45916
1.80332
3.90034
8.26618
10.8558
10.6928
10.3256
10.1704
10.1746
10.1991
10.2392
10.2584
10.2635
10.2631
10.26
10.2514
10.2341
10.2101
10.179
10.1404
10.0924
10.0341
9.96355
9.87913
9.77852
9.65888
9.51673
9.34777
9.14726
8.90909
8.62763
8.29619
7.91114
7.46875
6.98309
6.42591
1
1
1
1
1.00001
1.00001
1.00009
1.00012
1.00056
1.0009
1.00405
1.00683
1.03882
1.05257
1.33224
1.56234
3.20322
6.51592
11.199
10.9737
10.425
10.1512
10.126
10.1405
10.1697
10.1793
10.1773
10.1702
10.1554
10.1341
10.1076
10.0755
10.0361
9.98828
9.93067
9.86212
9.78135
9.6865
9.57616
9.44755
9.29895
9.12652
8.92901
8.70135
8.44302
8.15069
7.82495
7.46615
7.06601
6.64528
1
1
1
1
1
1.00003
1.00004
1.00025
1.00038
1.00149
1.00334
1.00797
1.0103
1.0909
1.09415
1.79821
2.46234
5.6594
11.1298
10.8819
10.3369
10.0625
10.0186
10.0311
10.0588
10.0714
10.0695
10.0612
10.0425
10.0141
9.98183
9.9443
9.89927
9.84527
9.78137
9.70666
9.62007
9.52023
9.40616
9.27564
9.12812
8.96054
8.77337
8.56276
8.329
8.07223
7.79179
7.48676
7.17126
6.83074
1
1
1
1
1
1.00001
1.00002
1.00014
1.0002
1.00097
1.00167
1.00856
1.00999
1.07858
1.08993
1.65994
2.20181
5.05517
10.4394
10.575
10.3294
10.0251
9.9371
9.94406
9.9635
9.97472
9.97219
9.96153
9.93748
9.90286
9.86636
9.82449
9.77512
9.71682
9.64886
9.57069
9.48165
9.38057
9.26674
9.13903
8.99654
8.83836
8.66371
8.47213
8.2635
8.03776
7.79659
7.53783
7.27426
6.9926
1
1
1
1
1
1.00001
1.00002
1.00014
1.00019
1.00108
1.00202
1.00599
1.00522
1.06586
1.06734
1.54648
1.96117
4.38474
9.22134
10.558
10.3844
10.0422
9.89918
9.88764
9.89392
9.89796
9.89301
9.87681
9.84356
9.80459
9.76452
9.71939
9.66709
9.60593
9.53578
9.4561
9.36648
9.26646
9.15537
9.03264
8.89766
8.75004
8.58949
8.41601
8.22992
8.03211
7.81831
7.60008
7.37574
7.13833
1
1
1
1
1
1.00002
1.00003
1.00011
1.00018
1.00081
1.0011
1.00533
1.00792
1.04752
1.06101
1.41718
1.73291
3.70808
7.76274
10.6642
10.5213
10.1349
9.89432
9.83978
9.84128
9.84076
9.83328
9.81207
9.77134
9.72867
9.68442
9.63549
9.57986
9.51586
9.44403
9.36374
9.27497
9.17731
9.07031
8.95357
8.82681
8.68986
8.54267
8.38548
8.21903
8.0414
7.85785
7.66875
7.47497
7.27173
1
1
1
1
1
1.00001
1.00002
1.00003
1.0002
1.00023
1.00176
1.00354
1.00962
1.01656
1.10291
1.11444
1.93906
2.72239
6.52618
10.7711
10.5918
10.1507
9.86698
9.78334
9.78073
9.77959
9.77147
9.74869
9.70386
9.65714
9.61028
9.55977
9.50296
9.43883
9.3673
9.28837
9.20195
9.10789
9.00595
8.89593
8.77772
8.65132
8.5169
8.37471
8.224
8.06609
7.90549
7.73987
7.57063
7.39428
1
1
1
1
1
1
1.00001
1.00002
1.00018
1.00022
1.00145
1.00267
1.00805
1.00694
1.08927
1.09122
1.72904
2.32949
5.30018
10.5859
10.5307
10.1827
9.85392
9.73367
9.72089
9.72009
9.71259
9.69037
9.6458
9.59724
9.54901
9.49775
9.44059
9.37676
9.30628
9.22929
9.14582
9.05581
8.95918
8.85584
8.74583
8.62921
8.5062
8.37685
8.2403
8.1015
7.95835
7.81134
7.66193
7.50712
1
1
1
1
1
1.00001
1.00001
1.00005
1.00007
1.00062
1.00083
1.00436
1.01079
1.01471
1.01249
1.19814
1.23927
2.46856
4.19507
9.79634
10.4894
10.2637
9.88723
9.72591
9.69045
9.68466
9.67136
9.64297
9.59932
9.55151
9.5019
9.44884
9.39086
9.32742
9.25834
9.18368
9.10347
9.01776
8.92653
8.82971
8.7274
8.61981
8.50709
8.38765
8.26633
8.14143
8.01312
7.88183
7.74884
7.61165
1
1
1
1
1
1
1.00001
1.00001
1.00012
1.00013
1.00102
1.0018
1.00599
1.0083
1.05389
1.0619
1.46208
1.78487
3.89634
8.16307
10.4914
10.3505
9.98302
9.74059
9.6689
9.65638
9.64022
9.60902
9.56654
9.5188
9.46806
9.41415
9.35587
9.29278
9.22487
9.15223
9.07498
8.99306
8.90656
8.81543
8.72006
8.62043
8.51503
8.40798
8.29794
8.18475
8.06892
7.95093
7.83168
7.70902
1
1
1
1
1
1
1.00001
1.00002
1.00002
1.00019
1.00021
1.00193
1.00334
1.01127
1.01425
1.11071
1.11673
2.00384
2.8539
6.84907
10.5728
10.424
10.0272
9.73928
9.63913
9.622
9.60853
9.58084
9.53874
9.49059
9.43925
9.38475
9.32657
9.26438
9.19829
9.1283
9.05443
8.97674
8.89526
8.8101
8.72093
8.62697
8.5315
8.43362
8.33296
8.22977
8.1245
8.01763
7.9099
7.79939
1
1
1
1
1
1
1
1.00002
1.00002
1.00017
1.00019
1.00161
1.00288
1.00927
1.0093
1.09185
1.09196
1.7607
2.35802
5.37921
10.5461
10.4623
10.1097
9.76412
9.63712
9.60832
9.59242
9.56195
9.51826
9.4687
9.41634
9.36155
9.30393
9.24321
9.17926
9.11205
9.04165
8.96809
8.89126
8.81087
8.72657
8.64078
8.55292
8.46256
8.36983
8.2752
8.17907
8.08174
7.98381
7.88355
1
1
1
1
1
1
1
1.00001
1.00003
1.00003
1.00033
1.00047
1.00216
1.00444
1.01553
1.01898
1.19969
1.24538
2.5002
4.24584
9.84753
10.4326
10.2023
9.82132
9.65255
9.60801
9.58628
9.55394
9.50976
9.45916
9.40569
9.35022
9.29251
9.23234
9.16964
9.1043
9.03652
8.96611
8.89258
8.81616
8.73855
8.65908
8.57738
8.4936
8.40808
8.32102
8.23271
8.14347
8.0538
7.96216
1
1
1
1
1
1
1
1
1.00004
1.00004
1.00042
1.00064
1.00246
1.00599
1.01057
1.01194
1.14549
1.15064
2.27089
3.57338
8.57952
10.4587
10.2909
9.9173
9.68464
9.60071
9.56776
9.53568
9.49338
9.44428
9.39186
9.33753
9.28133
9.22309
9.16279
9.10042
9.03562
8.96799
8.89819
8.82752
8.7553
8.68098
8.60466
8.52662
8.44714
8.36646
8.28481
8.20245
8.11978
8.03545
1
1
1
1
1
1
1
1.00002
1.00003
1.00014
1.00017
1.00151
1.00194
1.01083
1.02629
1.03935
1.04281
1.3556
1.54413
3.26079
6.57203
10.6826
10.5603
10.1535
9.77787
9.61525
9.56413
9.53241
9.49149
9.44237
9.38924
9.33452
9.27885
9.22197
9.16323
9.1022
9.03927
8.97516
8.91018
8.84355
8.77499
8.70467
8.6329
8.55989
8.48572
8.41058
8.33468
8.25821
8.18153
8.1034
1
1
1
1
1
1
1
1.00001
1.00003
1.00009
1.00014
1.00098
1.00124
1.00723
1.01725
1.0248
1.0266
1.25758
1.3352
2.71812
4.85341
10.6526
10.6426
10.3358
9.85625
9.62479
9.5542
9.52336
9.48586
9.43824
9.38587
9.33223
9.27804
9.22261
9.16547
9.10698
9.04757
8.98718
8.92534
8.86186
8.79681
8.73039
8.66271
8.59391
8.52417
8.4537
8.38268
8.31127
8.23972
8.16696
1
1
1
1
1
1
1
1.00001
1.00002
1.00003
1.00023
1.00025
1.00173
1.00304
1.0089
1.01319
1.07759
1.09733
1.62216
2.09609
4.80495
9.90751
10.4955
10.2649
9.83263
9.60524
9.52751
9.50035
9.47134
9.43047
9.38256
9.33187
9.27951
9.22613
9.17176
9.11643
9.06018
9.00271
8.94384
8.88337
8.82147
8.75835
8.69418
8.6291
8.56329
8.49686
8.42991
8.36263
8.29532
8.22705
1
1
1
1
1
1
1
1
1.00003
1.00006
1.00018
1.00025
1.0022
1.00296
1.01474
1.02963
1.0653
1.08068
1.51404
1.87705
4.21766
8.75248
10.4049
10.2468
9.86634
9.61488
9.52435
9.49701
9.47207
9.43422
9.38823
9.33908
9.28917
9.23887
9.18782
9.13544
9.08106
9.02491
8.96732
8.90867
8.84909
8.78865
8.72737
8.66535
8.60271
8.53958
8.47606
8.41232
8.34858
8.28403
1
1
1
1
1
1
1
1.00001
1.00001
1.00003
1.00003
1.0003
1.00033
1.00267
1.00487
1.0142
1.01773
1.13639
1.14678
2.15895
3.24093
7.76684
10.4727
10.3211
9.93547
9.63949
9.52902
9.50085
9.47915
9.44512
9.40193
9.35515
9.30712
9.25798
9.20764
9.15591
9.10278
9.04835
8.9928
8.93632
8.87899
8.82086
8.76199
8.70247
8.6424
8.58189
8.52106
8.46004
8.39906
8.33737
1
1
1
1
1
1
1
1
1
1.00003
1.00003
1.00021
1.00021
1.00198
1.00335
1.01186
1.01886
1.11063
1.13508
1.98115
2.79642
6.73336
10.558
10.3757
9.9294
9.62648
9.52199
9.50043
9.48459
9.45492
9.41469
9.3701
9.32385
9.27641
9.22763
9.17753
9.12606
9.0734
9.01968
8.96505
8.9096
8.8534
8.79656
8.73913
8.68122
8.6229
8.56428
8.50547
8.44664
8.38709
1
1
1
1
1
1
1
1
1
1.00002
1.00003
1.0002
1.00024
1.00179
1.00314
1.00926
1.01332
1.08628
1.1028
1.78975
2.4059
5.64483
10.6041
10.4414
9.9886
9.65654
9.53877
9.51583
9.50316
9.4773
9.43728
9.39207
9.34567
9.29863
9.2506
9.20135
9.1509
9.0994
9.04697
8.99371
8.93971
8.88505
8.82982
8.77409
8.71795
8.66151
8.60485
8.548
8.49106
8.43332
1
1
1
1
1
1
1
1
1.00001
1.00002
1.00005
1.00007
1.00059
1.00076
1.00441
1.01082
1.01532
1.01624
1.21452
1.24872
2.60624
4.47656
10.2254
10.4615
10.1752
9.76443
9.59185
9.55284
9.53709
9.50738
9.46524
9.41827
9.37042
9.3225
9.27416
9.22512
9.17526
9.12461
9.07322
9.02118
8.96855
8.91538
8.86173
8.80765
8.7532
8.6984
8.64333
8.58807
8.53274
8.47663
1
1
1
1
1
1
1
1
1.00001
1.00001
1.00004
1.00004
1.00042
1.00054
1.00278
1.00643
1.01258
1.0219
1.16899
1.18952
2.40934
3.86915
9.26291
10.4582
10.2538
9.8491
9.64299
9.58058
9.55776
9.52835
9.48741
9.44094
9.39328
9.34555
9.29754
9.24895
9.19968
9.14974
9.09919
9.0481
8.99648
8.94437
8.89181
8.83884
8.78558
8.73208
8.67841
8.62463
8.57085
8.51644
1
1
1
1
1
1
1
1
1
1.00001
1.00002
1.00003
1.00032
1.00036
1.00276
1.00582
1.01383
1.02099
1.13861
1.17011
2.20982
3.45144
8.31118
10.5396
10.3723
9.98118
9.71636
9.61528
9.58094
9.55157
9.51202
9.46558
9.41692
9.36811
9.31942
9.2706
9.22148
9.172
9.1221
9.07176
9.02102
8.9699
8.91847
8.86677
8.81482
8.76267
8.7104
8.65805
8.60574
8.5529
1
1
1
1
1
1
1
1
1
1.00002
1.00003
1.00009
1.00013
1.00121
1.00143
1.00942
1.02293
1.03583
1.03739
1.37502
1.55173
3.3964
6.85203
10.8497
10.6744
10.1863
9.8061
9.64858
9.60047
9.57225
9.5348
9.48853
9.43915
9.38975
9.34098
9.29257
9.2441
9.19531
9.14613
9.09657
9.04666
8.99644
8.94593
8.89518
8.84421
8.79308
8.74183
8.69053
8.63924
8.5875
1
1
1
1
1
1
1
1
1
1.00001
1.00001
1.00005
1.00007
1.00051
1.00062
1.0039
1.00702
1.02955
1.03448
1.28675
1.38479
2.8582
5.26942
11.2711
10.9854
10.3687
9.87729
9.6717
9.61482
9.59084
9.5577
9.51311
9.46379
9.41403
9.36491
9.31613
9.26733
9.21836
9.16914
9.11968
9.07001
9.02015
8.97012
8.91995
8.86966
8.8193
8.76892
8.71859
8.66841
8.61795
1
1
1
1
1
1
1
1
1
1.00001
1.00001
1.00004
1.00005
1.0004
1.00049
1.00293
1.0059
1.02059
1.02269
1.24912
1.29982
2.75888
4.91754
11.0697
10.8914
10.4045
9.89796
9.67568
9.61797
9.59992
9.57261
9.53155
9.48394
9.43505
9.38655
9.33839
9.29013
9.24156
9.19272
9.14367
9.09446
9.04512
8.99568
8.94615
8.89654
8.84689
8.79721
8.74756
8.698
8.64809
1
1
1
1
1
1
1
1
1
1.00001
1.00002
1.00005
1.00008
1.00052
1.00054
1.00457
1.01104
1.01462
1.01081
1.21865
1.23409
2.65516
4.59125
10.6099
10.7215
10.3978
9.91946
9.69434
9.63498
9.61993
9.59535
9.55563
9.50854
9.45979
9.41128
9.36302
9.31472
9.2662
9.21743
9.16846
9.11936
9.07017
9.02092
8.97164
8.92233
8.873
8.82367
8.77436
8.72513
8.67548
1
1
1
1
1
1
1
1
1
1.00001
1.00001
1.00004
1.00004
1.00043
1.00052
1.00315
1.00829
1.00986
1.01174
1.18847
1.19604
2.56942
4.32336
10.155
10.6917
10.4104
9.94849
9.72637
9.66395
9.64506
9.61838
9.57792
9.53071
9.48208
9.43376
9.38571
9.3376
9.28924
9.24063
9.19182
9.1429
9.09392
9.04491
8.99591
8.94691
8.89795
8.849
8.80006
8.75114
8.70173
1
1
1
1
1
1
1
1
1
1.00001
1.00001
1.00005
1.00006
1.00049
1.00059
1.00353
1.00783
1.01585
1.00931
1.18776
1.18549
2.49307
4.09417
9.71091
10.6688
10.4193
9.96397
9.74372
9.68143
9.66227
9.63578
9.59597
9.54951
9.50152
9.4537
9.40603
9.35818
9.30999
9.26149
9.21275
9.16387
9.11492
9.06594
9.01699
8.96806
8.91919
8.87037
8.82161
8.77293
8.72388
1
1
1
1
1
1
1
1
1
1.00001
1.00001
1.00003
1.00003
1.00041
1.00049
1.00313
1.00696
1.01458
1.02231
1.16434
1.20693
2.37493
3.88458
9.30324
10.6668
10.4414
9.99595
9.76925
9.7011
9.6798
9.65325
9.61392
9.5679
9.52024
9.4727
9.4253
9.37774
9.32984
9.2816
9.23308
9.18439
9.13561
9.08678
9.03797
8.98919
8.94046
8.89178
8.84314
8.79456
8.74554
1
1
1
1
1
1
1
1
1
1.00001
1.00001
1.00003
1.00004
1.00045
1.00049
1.00454
1.01113
1.01451
1.01567
1.15552
1.14664
2.35179
3.69261
8.91199
10.6832
10.4767
10.0476
9.80825
9.72859
9.70205
9.67347
9.63294
9.58568
9.53674
9.48806
9.43975
9.39152
9.34313
9.29455
9.24581
9.19698
9.14813
9.0993
9.05053
9.00183
8.95324
8.90474
8.85637
8.80815
8.75972
1
1
1
1
1
1
1
1
1
1
1
1.00003
1.00006
1.00027
1.00034
1.00253
1.00467
1.01449
1.02177
1.14564
1.1798
2.24662
3.52365
8.53127
10.7477
10.5363
10.087
9.82741
9.73998
9.71475
9.69002
9.65221
9.60606
9.55736
9.50863
9.46024
9.4119
9.36339
9.31464
9.26573
9.21671
9.16767
9.11865
9.06971
9.02085
8.97209
8.92343
8.87483
8.82627
8.77724
1
1
1
1
1
1
1
1
1
1
1.00001
1.00002
1.00008
1.00008
1.00084
1.00115
1.00581
1.00994
1.04873
1.05844
1.44429
1.70517
3.80969
7.89989
11.0083
10.7697
10.2137
9.86422
9.73832
9.70755
9.68626
9.65079
9.60482
9.55553
9.50638
9.45796
9.40985
9.36173
9.31346
9.26504
9.21655
9.16804
9.11957
9.07117
9.02285
8.97465
8.92658
8.87867
8.83098
8.78324
1
1
1
1
1
1
1
1
1
1
1.00001
1.00002
1.00007
1.00009
1.00067
1.00124
1.00396
1.00542
1.03588
1.04047
1.37321
1.58021
3.41083
6.92668
11.3102
11.0547
10.41
9.96475
9.79409
9.75078
9.72641
9.68855
9.63959
9.58714
9.53509
9.48416
9.43394
9.38403
9.33422
9.28452
9.23493
9.18551
9.13627
9.0872
9.03831
8.98961
8.94111
8.89281
8.84475
8.79664
1
1
1
1
1
1
1
1
1
1
1
1.00003
1.00004
1.00021
1.00022
1.00218
1.00344
1.01402
1.01637
1.13361
1.13016
2.2066
3.31981
8.14202
10.9367
10.6373
10.0821
9.82221
9.74995
9.7314
9.70825
9.67069
9.62449
9.5756
9.52665
9.47811
9.42973
9.38127
9.33267
9.28397
9.23522
9.1865
9.13783
9.08924
9.04074
8.99233
8.94402
8.89577
8.84757
8.79894
1
1
1
1
1
1
1
1
1
1
1.00001
1.00001
1.00007
1.00008
1.00066
1.00115
1.00394
1.00533
1.03539
1.026
1.38179
1.56046
3.36846
6.85819
11.3768
11.0826
10.3875
9.94802
9.78854
9.7522
9.73147
9.69517
9.64651
9.59382
9.54144
9.49026
9.43991
9.38995
9.34017
9.29054
9.24107
9.19178
9.14268
9.09376
9.04502
8.99645
8.94806
8.89987
8.85192
8.80394
2.83441
2.63391
3.65087
4.19534
3.95584
3.87652
3.83203
3.82499
3.84386
3.88273
3.91819
3.94455
3.97361
4.01625
4.07523
4.14516
4.22101
4.29937
4.37725
4.45379
4.52805
4.59889
4.66574
4.72754
4.78784
4.84225
4.88882
4.92902
4.96272
4.9905
5.01251
5.02905
5.0402
5.04627
5.04738
5.04598
5.04094
5.02969
5.01268
4.99322
4.97123
4.94657
4.91931
4.88975
4.85812
4.82469
4.78969
4.75335
4.71592
4.67757
4.63857
4.59907
4.55928
4.51937
4.47951
4.43987
4.40061
4.36189
4.32388
4.28673
4.25063
4.21574
4.18225
4.15035
4.12024
4.09213
4.06623
4.04279
4.02203
4.00421
3.98956
3.9783
3.97065
3.96672
3.96655
3.96701
3.96871
3.97293
3.98197
3.99765
4.01577
4.03495
4.05471
4.07459
4.09418
4.11306
4.13071
4.14673
4.16081
4.17282
4.18266
4.1903
4.19581
4.19967
4.20198
4.20296
4.20293
4.20277
4.20234
4.20189
3.83832
3.73033
4.08226
4.11719
3.97599
3.85464
3.81308
3.81994
3.85665
3.91215
3.94482
3.95558
3.97114
4.0077
4.06702
4.13542
4.21016
4.28824
4.36699
4.44424
4.51905
4.59027
4.6574
4.72039
4.78028
4.83485
4.88193
4.92234
4.95641
4.98451
5.00685
5.0236
5.03493
5.04103
5.04199
5.04099
5.03712
5.0276
5.00891
4.9885
4.96658
4.94232
4.91541
4.88606
4.85458
4.82127
4.78638
4.75015
4.71281
4.67457
4.63565
4.59624
4.55654
4.51671
4.47693
4.43737
4.39818
4.35953
4.32157
4.28449
4.24844
4.21361
4.18017
4.1483
4.11823
4.09015
4.06428
4.04086
4.02013
4.00236
3.98771
3.97648
3.96892
3.96536
3.96543
3.966
3.96778
3.972
3.98089
3.99681
4.01528
4.03474
4.05471
4.07491
4.09486
4.11395
4.13172
4.14777
4.16185
4.17381
4.18355
4.191
4.1963
4.19995
4.20207
4.20286
4.20282
4.20266
4.20228
4.20256
5.00595
4.46676
4.39948
4.26274
4.09695
3.96167
3.89345
3.87731
3.88233
3.89838
3.92697
3.95106
3.97985
4.02185
4.07977
4.14731
4.22049
4.29665
4.3731
4.44834
4.52133
4.59125
4.65743
4.71967
4.77791
4.83102
4.87767
4.9178
4.95155
4.97929
5.00125
5.01761
5.02861
5.03437
5.03475
5.03392
5.03075
5.02272
5.0059
4.98339
4.96013
4.93565
4.90903
4.88002
4.84882
4.8157
4.78098
4.7449
4.7077
4.66961
4.63082
4.59155
4.55196
4.51226
4.47259
4.43314
4.39405
4.3555
4.31765
4.28066
4.24472
4.21
4.17667
4.14494
4.11502
4.08708
4.06138
4.03809
4.0176
3.99994
3.98542
3.97448
3.96725
3.96437
3.96453
3.96532
3.96744
3.97213
3.98172
3.99702
4.0154
4.03536
4.05601
4.07672
4.09695
4.11618
4.13394
4.14987
4.16379
4.17557
4.18497
4.19202
4.19685
4.20006
4.20174
4.20211
4.20204
4.20184
4.2018
4.20228
5.58692
5.02213
4.73312
4.52864
4.33758
4.17063
4.05402
3.99119
3.97565
3.97967
3.9931
4.02092
4.04618
4.07538
4.11856
4.17414
4.23802
4.30698
4.37844
4.45024
4.52084
4.58889
4.6535
4.71401
4.77049
4.82249
4.86845
4.90844
4.94202
4.96963
4.99148
5.0076
5.01832
5.02379
5.02378
5.02304
5.02034
5.01353
4.99901
4.97579
4.95129
4.92614
4.8995
4.87079
4.83994
4.80713
4.77265
4.73678
4.69979
4.66189
4.62332
4.58425
4.54487
4.50538
4.46592
4.42667
4.38779
4.34945
4.31182
4.27506
4.23935
4.20486
4.1718
4.14033
4.11067
4.08299
4.0576
4.03455
4.01445
3.99704
3.98284
3.97226
3.96551
3.9635
3.96377
3.96478
3.9673
3.97272
3.98346
3.99826
4.0163
4.03641
4.05748
4.07862
4.09911
4.11842
4.13609
4.15184
4.16531
4.17675
4.18568
4.19238
4.19653
4.19924
4.2003
4.20034
4.20023
4.19998
4.19998
4.20069
5.9778
5.47733
5.11993
4.85028
4.62198
4.42494
4.27164
4.16911
4.11308
4.08836
4.08828
4.09129
4.10091
4.12242
4.162
4.2109
4.26725
4.32913
4.39449
4.46111
4.52733
4.59183
4.6535
4.71184
4.76621
4.81625
4.86109
4.90015
4.93314
4.9604
4.98165
4.99727
5.00755
5.01237
5.01225
5.01135
5.00864
5.00224
4.98885
4.96665
4.94178
4.91586
4.88876
4.86
4.82935
4.79682
4.76263
4.72704
4.69031
4.65268
4.61437
4.57558
4.53649
4.49727
4.4581
4.41912
4.38053
4.34248
4.30514
4.2687
4.23332
4.19918
4.16648
4.13541
4.10616
4.07893
4.05399
4.03149
4.01175
3.99497
3.98142
3.97152
3.96536
3.96449
3.96488
3.96618
3.96929
3.97578
3.9873
4.00219
4.01997
4.03989
4.06094
4.08213
4.1026
4.12174
4.13907
4.15434
4.1673
4.17791
4.18623
4.1923
4.19591
4.1978
4.19808
4.19798
4.19769
4.19708
4.19711
4.19785
6.29042
5.86387
5.50376
5.19662
4.93518
4.71157
4.5288
4.39092
4.29725
4.24053
4.2121
4.20562
4.20729
4.21407
4.23076
4.26486
4.30881
4.36069
4.41701
4.47556
4.5351
4.59428
4.65201
4.70694
4.75858
4.80636
4.84959
4.88763
4.92
4.94685
4.96749
4.98272
4.9927
4.99705
4.99687
4.9959
4.99317
4.98701
4.97431
4.9537
4.92937
4.90316
4.87559
4.84661
4.81603
4.78378
4.74996
4.71475
4.6784
4.64115
4.60321
4.56479
4.52607
4.48723
4.44843
4.40986
4.37167
4.33404
4.29715
4.26117
4.22628
4.19267
4.16052
4.13003
4.1014
4.07482
4.05053
4.02876
4.00974
3.99372
3.981
3.97194
3.96666
3.96671
3.96726
3.9689
3.97266
3.98036
3.99252
4.0076
4.02512
4.04453
4.06502
4.08568
4.10564
4.12423
4.14097
4.15558
4.16782
4.17771
4.18531
4.19068
4.1936
4.19471
4.19464
4.1944
4.19382
4.19276
4.1928
4.19364
6.54771
6.18388
5.84658
5.53205
5.25084
5.00658
4.80043
4.63411
4.50807
4.41898
4.36105
4.32821
4.31235
4.31246
4.3154
4.3253
4.34775
4.39023
4.43876
4.49078
4.54448
4.5984
4.6516
4.70254
4.75097
4.79623
4.83753
4.87425
4.90575
4.93188
4.95244
4.9673
4.97653
4.98049
4.98028
4.97927
4.97653
4.97043
4.958
4.93874
4.91537
4.88939
4.86161
4.83238
4.80173
4.76962
4.7361
4.7013
4.66538
4.62858
4.59109
4.55312
4.51486
4.47648
4.43815
4.40005
4.36236
4.32525
4.28891
4.25349
4.21922
4.18626
4.15482
4.12507
4.09721
4.07147
4.04805
4.02719
4.00913
3.99409
3.98241
3.9743
3.97074
3.97094
3.9718
3.97401
3.97868
3.98784
4.00034
4.01548
4.03268
4.05136
4.07086
4.09042
4.10932
4.1269
4.14269
4.15635
4.16778
4.17687
4.18372
4.18836
4.19043
4.19071
4.19056
4.19013
4.18914
4.18765
4.18767
4.18853
6.76407
6.45134
6.14422
5.8375
5.5515
5.29524
5.07231
4.88485
4.73316
4.61614
4.53052
4.4722
4.43553
4.41622
4.41017
4.41157
4.41777
4.4336
4.46634
4.50928
4.55684
4.60515
4.65273
4.69912
4.7436
4.78551
4.82421
4.85899
4.88923
4.9145
4.9345
4.94927
4.95798
4.96141
4.96118
4.96013
4.95736
4.95131
4.93906
4.92082
4.89851
4.87317
4.84559
4.8163
4.78559
4.75356
4.7203
4.68589
4.65046
4.61418
4.57723
4.53982
4.5021
4.46429
4.42653
4.38903
4.35196
4.3155
4.27985
4.24515
4.21168
4.17956
4.149
4.12021
4.09336
4.06867
4.04634
4.0266
4.00969
3.99584
3.9854
3.97853
3.97677
3.97711
3.97827
3.98102
3.98678
3.99677
4.00966
4.0248
4.04147
4.05913
4.07723
4.09524
4.11258
4.12875
4.14329
4.15587
4.16631
4.17454
4.1806
4.18446
4.18575
4.1857
4.18541
4.18472
4.18323
4.18141
4.18143
4.18234
6.95101
6.67876
6.40113
6.11085
5.82867
5.56783
5.33471
5.13202
4.96102
4.82139
4.71177
4.62927
4.56991
4.53052
4.50687
4.49484
4.49505
4.49797
4.50755
4.5291
4.56768
4.60993
4.65287
4.69504
4.73579
4.77433
4.81011
4.8426
4.87126
4.89547
4.91483
4.92916
4.93799
4.94079
4.94054
4.93947
4.9367
4.93069
4.91854
4.90107
4.87975
4.85524
4.82816
4.79907
4.76843
4.73651
4.70347
4.66943
4.6345
4.5988
4.56246
4.52568
4.48861
4.45146
4.41437
4.37757
4.34122
4.30554
4.27072
4.23698
4.20445
4.17334
4.14384
4.11613
4.09042
4.06694
4.04587
4.02745
4.01191
3.99951
3.9905
3.9851
3.98512
3.98556
3.98696
3.99024
3.99704
4.00788
4.02102
4.03589
4.05173
4.06804
4.08444
4.10055
4.116
4.13041
4.14339
4.15469
4.164
4.17132
4.17653
4.17968
4.18021
4.18008
4.17964
4.17866
4.17663
4.17451
4.17454
4.17545
7.11542
6.87557
6.62434
6.35239
6.07924
5.81974
5.58195
5.36973
5.18506
5.02838
4.89888
4.7951
4.71485
4.6554
4.61349
4.58575
4.57011
4.5653
4.56658
4.57229
4.5867
4.61628
4.65263
4.69046
4.72797
4.76348