/*--------------------------------*- C++ -*----------------------------------*\
| =========                 |                                                 |
| \\      /  F ield         | OpenFOAM: The Open Source CFD Toolbox           |
|  \\    /   O peration     | Version:  2112                                  |
|   \\  /    A nd           | Website:  www.openfoam.com                      |
|    \\/     M anipulation  |                                                 |
\*---------------------------------------------------------------------------*/
FoamFile
{
    version     2.0;
    format      ascii;
    arch        "LSB;label=32;scalar=64";
    class       surfaceScalarField;
    location    "10.0005";
    object      phi;
}
// * * * * * * * * * * * * * * * * * * * * * * * * * * * * * * * * * * * * * //

dimensions      [1 0 -1 0 0 0 0];

oriented        oriented;

internalField   nonuniform List<scalar> 
13790
(
0.00290515
5.23379e-09
0.00290515
2.63529e-09
0.00290515
3.60079e-10
0.00290515
-1.75111e-09
0.00290515
-6.62852e-09
0.00290516
-1.186e-08
0.00290517
-1.18314e-08
0.00290518
-1.25803e-08
0.00290513
3.51301e-08
0.0029051
2.00523e-08
0.00290463
3.58834e-07
0.00290531
-6.72767e-07
0.00290342
1.1283e-06
0.00290136
9.81647e-07
0.00292443
-2.46232e-05
0.00294667
-3.4858e-05
0.00297081
-3.3062e-05
0.00289758
7.08302e-05
0.00282898
6.70917e-05
0.00277287
5.47186e-05
0.00272818
4.30976e-05
0.00268084
4.61895e-05
0.00262704
5.11189e-05
0.00256963
5.50638e-05
0.00250999
5.78587e-05
0.00244701
6.02186e-05
0.00238213
6.25922e-05
0.00231483
6.52685e-05
0.00224524
6.81675e-05
0.0021736
7.13026e-05
0.00209779
7.46855e-05
0.00201818
7.80248e-05
0.00193447
8.13875e-05
0.00184718
8.45344e-05
0.00175798
8.74788e-05
0.00166636
9.02659e-05
0.00157271
9.2732e-05
0.00147713
9.5041e-05
0.00137961
9.72043e-05
0.00128028
9.9305e-05
0.00117871
0.000101499
0.00107496
0.00010386
0.000968627
0.000106684
0.000858745
0.000110187
0.000744499
0.00011454
0.000623734
0.000120558
0.000495246
0.000127956
0.000356671
0.000138559
0.000196528
0.000158836
0.00019525
0.00301309
5.54675e-09
0.00301309
2.84373e-09
0.00301309
-5.32799e-11
0.0030131
-3.09837e-09
0.0030131
-1.05577e-08
0.0030131
-1.75229e-08
0.00301311
-1.97785e-08
0.00301311
-1.64902e-08
0.00301309
2.57552e-08
0.00301305
4.38178e-08
0.003013
3.05447e-07
0.00301279
-5.49233e-07
0.00301235
8.56663e-07
0.00301339
-1.00861e-06
0.00301657
-3.04349e-05
0.00303764
-6.54931e-05
0.00302055
-2.77433e-05
0.00296603
0.000121143
0.00290129
0.000129815
0.00284632
0.00010817
0.00279687
9.09567e-05
0.0027467
9.52987e-05
0.00268997
0.000105192
0.00262958
0.000113238
0.00256642
0.000119145
0.00249954
0.000124154
0.0024311
0.000129247
0.00236008
0.000134899
0.00228631
0.000140709
0.00220995
0.000146869
0.00212934
0.000153245
0.00204567
0.000159489
0.00195873
0.000165881
0.00186891
0.000171891
0.00177739
0.000177719
0.00168327
0.000183321
0.00158685
0.000188419
0.00148807
0.00019336
0.00138694
0.000198059
0.00128352
0.000202696
0.00117745
0.000207479
0.00106885
0.000212601
0.000957317
0.000218594
0.000841896
0.000225905
0.000722003
0.000234706
0.000595793
0.000246438
0.000462158
0.000261053
0.000319157
0.000281467
0.000165087
0.000311409
0.00035913
0.00312505
5.15724e-09
0.00312505
2.30993e-09
0.00312505
-2.01623e-09
0.00312505
-7.21957e-09
0.00312506
-1.46776e-08
0.00312506
-2.11233e-08
0.00312505
-2.11956e-08
0.00312505
-1.4175e-08
0.003125
4.64951e-08
0.00312493
9.93814e-08
0.00312471
3.91188e-07
0.0031243
-2.38921e-07
0.00312381
7.14995e-07
0.00312336
-1.66158e-06
0.00311488
-2.48577e-05
0.00309215
-5.2303e-05
0.00304906
2.85804e-06
0.00300428
0.000161193
0.00295614
0.000175947
0.00290653
0.000156368
0.00285533
0.000140968
0.00280123
0.000147935
0.00274179
0.00016184
0.00267952
0.000173539
0.00261391
0.000182477
0.00254527
0.000190283
0.0024752
0.000198376
0.00240199
0.000207076
0.00232592
0.000215918
0.00224623
0.000225153
0.0021622
0.000234384
0.00207573
0.000243536
0.0019863
0.000252821
0.00189454
0.000261644
0.00180093
0.00027042
0.00170445
0.00027886
0.00160549
0.000286825
0.00150367
0.000294669
0.00139926
0.000302154
0.00129227
0.000309746
0.00118216
0.000317513
0.00106925
0.000325692
0.00095307
0.000335202
0.000833093
0.000346121
0.000708693
0.000359388
0.000578602
0.000376011
0.000442635
0.000396525
0.000300099
0.000423889
0.000150714
0.000459156
0.000508605
0.00324116
5.79464e-09
0.00324115
4.15402e-09
0.00324115
-3.04761e-09
0.00324116
-1.05508e-08
0.00324116
-1.91157e-08
0.00324116
-2.48595e-08
0.00324116
-2.20096e-08
0.00324115
-8.69054e-09
0.0032411
6.35623e-08
0.00324103
1.53388e-07
0.00324077
4.92981e-07
0.00324032
1.20797e-07
0.00323953
8.39895e-07
0.00323742
-7.70887e-07
0.00323614
-2.65563e-05
0.00323288
-5.84603e-05
0.00318607
3.65037e-05
0.00312582
0.000215906
0.00307241
0.000227334
0.00302205
0.000205523
0.00296871
0.000193442
0.00290871
0.000206324
0.00284293
0.000224802
0.0027747
0.000239889
0.00270304
0.000251765
0.00262878
0.000262417
0.00255306
0.000273593
0.00247376
0.000285277
0.00239161
0.000296943
0.00230576
0.000309025
0.00221609
0.000320817
0.0021246
0.000332657
0.00203041
0.000344608
0.0019343
0.000356051
0.00183629
0.000367671
0.00173546
0.000378836
0.00163218
0.000389687
0.00152587
0.000400442
0.00141697
0.000410764
0.00130541
0.000421375
0.00119082
0.000432105
0.0010733
0.000443464
0.000952663
0.00045621
0.000828367
0.000470647
0.000700366
0.000487623
0.000567766
0.000508083
0.000430921
0.000532909
0.000289232
0.000565245
0.000144212
0.000602367
0.000651633
0.00336158
7.8733e-09
0.00336158
9.05525e-09
0.00336157
-2.71212e-09
0.00336157
-1.0961e-08
0.00336157
-2.04641e-08
0.00336157
-2.58523e-08
0.00336157
-2.11447e-08
0.00336156
-4.00862e-09
0.0033615
8.04952e-08
0.00336145
1.92351e-07
0.0033612
5.69374e-07
0.00336085
3.64095e-07
0.00335976
1.20973e-06
0.00335805
-3.38788e-07
0.00334967
-2.13034e-05
0.00332627
-4.47634e-05
0.00326537
8.31392e-05
0.00319948
0.00027556
0.00315865
0.000266858
0.00311344
0.000249841
0.00306089
0.000245248
0.00299797
0.000267199
0.00292993
0.000290078
0.00285989
0.000308485
0.00278644
0.0003234
0.00271041
0.000337239
0.00263184
0.000351811
0.00254873
0.000366584
0.00246264
0.000381219
0.00237283
0.000396215
0.00227964
0.000410762
0.00218465
0.000425521
0.00208686
0.000440323
0.00198692
0.000454754
0.00188456
0.000469403
0.00177912
0.000483571
0.00167088
0.000497561
0.00155941
0.000511356
0.00144521
0.000524784
0.00132817
0.000538503
0.00120813
0.00055219
0.00108533
0.000566552
0.000959823
0.000582067
0.000831218
0.000599521
0.000699051
0.000620094
0.000562984
0.000643435
0.000424582
0.000670788
0.000284169
0.000705335
0.00014054
0.000744098
0.000790973
0.00348648
7.5664e-09
0.00348648
8.73723e-09
0.00348647
2.92478e-09
0.00348647
-5.35768e-09
0.00348646
-1.2965e-08
0.00348645
-1.86134e-08
0.00348643
-1.19533e-08
0.00348641
1.19021e-08
0.00348635
1.07885e-07
0.00348627
2.50451e-07
0.00348596
6.93068e-07
0.00348549
7.27805e-07
0.00348426
1.66223e-06
0.00348146
1.09823e-06
0.00347466
-1.77962e-05
0.00345551
-3.55689e-05
0.00339087
0.000132838
0.0033086
0.000350746
0.00326984
0.000305805
0.00322152
0.000297339
0.00316488
0.000300871
0.00309744
0.000332132
0.00302506
0.000359935
0.00295138
0.000381623
0.00287451
0.000399136
0.00279496
0.000415841
0.00271227
0.00043347
0.00262512
0.000450972
0.00253566
0.000468352
0.00244285
0.000486173
0.00234714
0.000503505
0.00224971
0.000521413
0.00214904
0.000539358
0.00204597
0.000557019
0.0019398
0.000575076
0.00183025
0.00059249
0.00171754
0.000610002
0.00160115
0.000627136
0.00148197
0.000643862
0.00135969
0.000660968
0.0012342
0.000677828
0.00110579
0.000695322
0.00097441
0.000713829
0.000840619
0.000733459
0.000704709
0.000756198
0.000565619
0.00078177
0.00042505
0.000811012
0.000282138
0.000847728
0.000139927
0.000884255
0.000929762
0.00361602
6.52115e-09
0.00361603
6.67019e-09
0.00361602
6.49599e-09
0.00361602
8.73512e-10
0.003616
-4.67127e-09
0.00361599
-7.59312e-09
0.00361597
3.96637e-09
0.00361594
3.82751e-08
0.00361585
1.49096e-07
0.00361576
3.30026e-07
0.00361539
8.53986e-07
0.00361486
1.13576e-06
0.00361341
2.26813e-06
0.00361041
2.65318e-06
0.00360222
-1.30667e-05
0.00358141
-2.49239e-05
0.00351305
0.000185234
0.0034453
0.000411694
0.00339112
0.00036058
0.00333322
0.000354413
0.00326897
0.000364419
0.00319906
0.000399881
0.00312252
0.000434751
0.00304539
0.000458751
0.00296487
0.000478154
0.00288167
0.00049745
0.00279534
0.000517749
0.00270529
0.000537746
0.00261348
0.00055788
0.00251851
0.000578558
0.00242091
0.000598986
0.00232116
0.000620191
0.00221799
0.000641416
0.00211181
0.000662685
0.00200207
0.00068426
0.00188866
0.000705418
0.0017717
0.00072669
0.00165081
0.000747516
0.00152661
0.000768022
0.00139918
0.000788572
0.00126843
0.000808824
0.00113468
0.000829455
0.000998013
0.00085085
0.000858474
0.000873344
0.000716985
0.000897816
0.000573893
0.00092422
0.000429673
0.00095478
0.000285846
0.000990949
0.000140543
0.00102747
0.00106913
0.00375038
5.69843e-09
0.00375038
5.27778e-09
0.00375038
7.11918e-09
0.00375037
3.29375e-09
0.00375037
3.5185e-10
0.00375036
1.30107e-09
0.00375033
2.55928e-08
0.00375029
7.20471e-08
0.00375018
2.13111e-07
0.00375003
4.60857e-07
0.00374957
1.09326e-06
0.00374886
1.71201e-06
0.0037471
3.11461e-06
0.00374374
4.47387e-06
0.00373521
-8.18587e-06
0.0037143
-1.4173e-05
0.00364277
0.000239441
0.00357758
0.0004699
0.00351729
0.000422108
0.003447
0.00042503
0.0033721
0.00043978
0.00329817
0.000472159
0.00321794
0.000513037
0.00313831
0.000537726
0.00305492
0.000559175
0.00296944
0.000580864
0.00288113
0.000603767
0.00278954
0.000626288
0.00269652
0.000649477
0.00260007
0.000673236
0.00250091
0.000696884
0.00239894
0.000721629
0.00229306
0.000746331
0.00218397
0.000771397
0.00207085
0.000796836
0.00195386
0.000821952
0.00183292
0.000847362
0.00170776
0.000872186
0.00157917
0.000896779
0.00144671
0.000921425
0.00131044
0.000945369
0.00117114
0.000969125
0.0010291
0.000993276
0.000884586
0.00101828
0.000737561
0.00104521
0.000588698
0.00107243
0.000440815
0.00110248
0.000291093
0.00113993
0.000144104
0.0011723
0.00121212
0.00388972
4.97443e-09
0.00388972
4.20515e-09
0.00388972
6.64501e-09
0.00388972
4.59143e-09
0.00388972
4.88102e-09
0.0038897
1.3756e-08
0.00388967
5.0322e-08
0.00388961
1.21004e-07
0.00388945
3.26873e-07
0.00388913
7.72619e-07
0.00388858
1.39318e-06
0.00388734
2.8522e-06
0.00388536
4.09449e-06
0.00388086
7.24969e-06
0.00387341
-4.53649e-06
0.00384839
-2.05543e-07
0.00376638
0.00030248
0.00371586
0.000516982
0.00363882
0.000501488
0.00355797
0.000505788
0.00346978
0.000527199
0.00338735
0.000551673
0.0033116
0.000586701
0.00323236
0.000616319
0.0031481
0.0006414
0.00306174
0.000665892
0.00297242
0.000691456
0.00288008
0.000716801
0.00278589
0.000743097
0.00268786
0.000770021
0.0025868
0.000797074
0.00248254
0.00082535
0.00237417
0.000853775
0.00226233
0.000882814
0.00214626
0.000912296
0.0020262
0.000941697
0.00190187
0.000971531
0.00177299
0.00100075
0.00164023
0.00102979
0.00150337
0.00105868
0.00136224
0.00108693
0.00121722
0.00111478
0.00106887
0.00114209
0.00091815
0.00116927
0.000765399
0.00119795
0.000610852
0.00122622
0.00045569
0.00125749
0.000302702
0.00129199
0.000148418
0.00132443
0.00135979
0.00403424
4.42138e-09
0.00403425
3.46773e-09
0.00403425
6.04091e-09
0.00403424
5.64288e-09
0.00403424
1.03559e-08
0.00403423
2.55213e-08
0.00403419
7.86187e-08
0.00403412
1.82616e-07
0.00403393
4.69046e-07
0.00403358
1.0948e-06
0.00403274
1.92032e-06
0.00403149
4.06252e-06
0.00402881
5.66445e-06
0.00402373
1.04777e-05
0.00401214
3.25794e-06
0.00398159
1.73862e-05
0.00386496
0.0004026
0.00384021
0.000537249
0.00374983
0.000589312
0.00366188
0.000592941
0.00357629
0.000612758
0.00349205
0.000635245
0.003413
0.000665564
0.00333251
0.000697173
0.00324703
0.000725593
0.00315986
0.00075296
0.00306942
0.000781168
0.00297575
0.0008091
0.00288017
0.000838466
0.00278041
0.00086854
0.0026776
0.000898937
0.00257148
0.000930934
0.0024612
0.000963176
0.00234719
0.000996434
0.00222865
0.00103034
0.0021059
0.00106428
0.00197855
0.00109898
0.0018462
0.00113308
0.00170952
0.00116696
0.00156839
0.0012005
0.00142264
0.00123328
0.00127258
0.0012655
0.00111834
0.00129687
0.000960718
0.00132735
0.000801017
0.00135781
0.000639338
0.00138729
0.000478429
0.00141814
0.000315267
0.00145429
0.000156397
0.00148109
0.00151519
0.00418414
4.013e-09
0.00418414
3.067e-09
0.00418414
5.25304e-09
0.00418414
6.19906e-09
0.00418413
1.4623e-08
0.00418412
3.62103e-08
0.00418408
1.05716e-07
0.00418402
2.41438e-07
0.00418383
6.12922e-07
0.00418347
1.41596e-06
0.00418245
2.58788e-06
0.00418107
5.40578e-06
0.00417803
7.47256e-06
0.00417229
1.42233e-05
0.00415835
1.30435e-05
0.00412587
3.73925e-05
0.00400507
0.000503817
0.00392994
0.000605462
0.00385922
0.000660326
0.00377457
0.000678227
0.00368844
0.000699579
0.00360178
0.000721442
0.00351919
0.000749235
0.00343621
0.000781271
0.00334926
0.000811913
0.00326084
0.000841744
0.00316908
0.000872239
0.00307442
0.000902668
0.00297777
0.000934887
0.00287695
0.000967978
0.00277323
0.00100182
0.00266593
0.00103754
0.00255438
0.00107369
0.00243941
0.0011113
0.0023194
0.00114994
0.00219498
0.00118865
0.00206567
0.00122861
0.00193068
0.0012681
0.00179049
0.00130769
0.00164497
0.00134676
0.00149422
0.00138476
0.00133866
0.00142173
0.00117854
0.00145753
0.00101432
0.00149223
0.000846327
0.0015262
0.00067613
0.00155707
0.000505171
0.00158933
0.000335956
0.00162237
0.000164396
0.00165051
0.00167887
0.0043396
3.66599e-09
0.0043396
2.84652e-09
0.0043396
4.57493e-09
0.0043396
6.45041e-09
0.00433959
1.74684e-08
0.00433959
4.39938e-08
0.00433956
1.2604e-07
0.0043395
2.90758e-07
0.00433934
7.2399e-07
0.00433902
1.69088e-06
0.00433811
3.05254e-06
0.00433711
6.32288e-06
0.00433397
9.24793e-06
0.00432913
1.66372e-05
0.00431522
2.23912e-05
0.00427865
6.22511e-05
0.00414495
0.000612652
0.00404868
0.000700359
0.00396821
0.000740471
0.00388416
0.000762386
0.00379802
0.000786332
0.00371046
0.000808783
0.00362549
0.000835654
0.00354036
0.000867896
0.00345216
0.000899879
0.00336297
0.000931632
0.00327067
0.000964188
0.00317553
0.000996899
0.0030783
0.0010318
0.00297713
0.00106785
0.00287306
0.0011051
0.00276539
0.00114454
0.00265348
0.00118491
0.00253771
0.00122708
0.00241698
0.00127045
0.00229132
0.0013146
0.0021605
0.00135981
0.00202416
0.00140497
0.00188208
0.00145063
0.00173364
0.00149613
0.0015787
0.00154062
0.00141762
0.00158368
0.00125086
0.00162493
0.00107918
0.00166442
0.000903076
0.00170256
0.000722945
0.00173687
0.000541909
0.00177039
0.000357625
0.00180599
0.000178095
0.00182789
0.00185621
0.00450084
3.31457e-09
0.00450084
2.62414e-09
0.00450084
4.04172e-09
0.00450084
6.13989e-09
0.00450084
1.75626e-08
0.00450083
4.46776e-08
0.00450082
1.28871e-07
0.00450082
2.94345e-07
0.00450075
7.50086e-07
0.00450074
1.67554e-06
0.00450041
2.99614e-06
0.00450083
6.00221e-06
0.00449719
1.11254e-05
0.00449635
1.61661e-05
0.00447938
3.44048e-05
0.00443692
9.14016e-05
0.00428967
0.000733961
0.00417557
0.000813771
0.00408202
0.000833676
0.00399514
0.000849392
0.0039079
0.000874343
0.00381926
0.000897414
0.00373257
0.000924441
0.00364517
0.000956884
0.00355593
0.000989393
0.00346658
0.00102245
0.00337426
0.00105649
0.00327965
0.00109107
0.00318314
0.00112837
0.00308263
0.00116714
0.00297947
0.00120757
0.00287288
0.00125083
0.00276202
0.00129527
0.00264707
0.00134223
0.0025269
0.0013908
0.00240137
0.00144073
0.00226969
0.00149224
0.00213153
0.00154395
0.00198738
0.00159594
0.00183651
0.00164817
0.00167831
0.00169997
0.00151243
0.00175065
0.00133909
0.00179917
0.00115915
0.00184519
0.000973055
0.00188896
0.000781377
0.00192806
0.00058689
0.00196548
0.000391687
0.00200015
0.000191724
0.00202565
0.00204769
0.00466807
2.96238e-09
0.00466807
2.34546e-09
0.00466807
3.60128e-09
0.00466807
4.84164e-09
0.00466807
1.30182e-08
0.00466808
3.25407e-08
0.00466811
9.24298e-08
0.00466821
2.03998e-07
0.00466833
5.64877e-07
0.00466927
8.14419e-07
0.00466867
3.08669e-06
0.00466866
5.71599e-06
0.00466604
1.23175e-05
0.0046607
1.97691e-05
0.00464278
4.69876e-05
0.00459713
0.000123538
0.00442714
0.000875108
0.00429213
0.0009477
0.00419139
0.000934955
0.00410213
0.000938758
0.00401421
0.000962976
0.00392502
0.00098665
0.00383736
0.00101429
0.00374891
0.00104697
0.00365898
0.00107972
0.00356967
0.00111336
0.00347786
0.0011486
0.00338417
0.0011846
0.00328892
0.00122391
0.00318999
0.00126502
0.00308894
0.00130838
0.00298416
0.00135511
0.00287542
0.00140343
0.00276294
0.00145501
0.00264507
0.00150874
0.00252191
0.00156439
0.00239245
0.00162254
0.00225525
0.00168204
0.0021102
0.00174214
0.00195728
0.00180243
0.00179614
0.00186242
0.0016264
0.00192161
0.00144713
0.00197937
0.00125853
0.00203465
0.00106178
0.00208643
0.000857228
0.00213265
0.000646357
0.00217673
0.000428973
0.00221672
0.000215238
0.00223753
0.00226246
0.00484151
2.83423e-09
0.00484151
2.02799e-09
0.00484151
2.6777e-09
0.00484151
2.76324e-09
0.00484151
9.7687e-09
0.00484152
2.4686e-08
0.00484155
7.30101e-08
0.00484158
1.67078e-07
0.0048409
4.42121e-07
0.00484655
7.24713e-07
0.00483904
3.56485e-06
0.00484533
1.27232e-06
0.00484234
2.04161e-05
0.00484045
2.10804e-06
0.00479638
9.13996e-05
0.0047532
0.000160541
0.00453383
0.0010592
0.00437604
0.00110498
0.00427708
0.0010346
0.00418892
0.00102662
0.00410213
0.00104997
0.0040148
0.00107369
0.0039276
0.00110335
0.00383993
0.00113584
0.00375215
0.00116808
0.00366589
0.0012019
0.0035777
0.00123774
0.00348791
0.00127498
0.00339657
0.00131592
0.00330156
0.0013593
0.00320416
0.00140556
0.00310356
0.00145561
0.00299859
0.00150835
0.00288952
0.00156452
0.00277497
0.00162381
0.00265475
0.00168535
0.00252873
0.00174974
0.00239528
0.00181673
0.00225299
0.0018858
0.00210085
0.00195604
0.00193813
0.00202664
0.00176445
0.00209667
0.00158001
0.00216503
0.00138398
0.00223188
0.0011751
0.00229616
0.000953992
0.00235377
0.000725077
0.00240618
0.000488729
0.00245253
0.000239914
0.00248445
0.0025023
0.00502139
2.48872e-09
0.00502139
1.6852e-09
0.0050214
1.28308e-09
0.0050214
2.37934e-10
0.0050214
7.51984e-09
0.00502141
1.66301e-08
0.00502141
6.72737e-08
0.00502143
1.3635e-07
0.00502089
3.97774e-07
0.00502479
7.0747e-07
0.00501714
5.98268e-06
0.00503311
-9.66594e-06
0.00500215
5.2072e-05
0.00505883
-7.29864e-05
0.0049312
0.000219481
0.00499289
9.10788e-05
0.00467394
0.00133846
0.00449292
0.00128852
0.0043898
0.00114019
0.0043021
0.00111443
0.00421203
0.00114018
0.00411871
0.00116621
0.00402731
0.00119606
0.00393654
0.00122712
0.00384745
0.00125737
0.00376153
0.00128988
0.00367529
0.00132488
0.00358901
0.00136209
0.00350243
0.00140347
0.0034135
0.00144796
0.00332277
0.00149637
0.0032291
0.00154926
0.0031316
0.00160594
0.00302986
0.00166681
0.00292211
0.00173214
0.00280739
0.00180078
0.00268547
0.00187271
0.00255606
0.00194757
0.00241794
0.00202548
0.00226971
0.00210594
0.00210983
0.00218814
0.00193646
0.00227159
0.00174711
0.00235559
0.00154285
0.00243721
0.00132389
0.00251617
0.00108713
0.00259123
0.000831986
0.00266213
0.000561255
0.0027235
0.000285375
0.0027584
0.00278729
0.00520796
1.58971e-09
0.00520797
1.6148e-09
0.00520796
6.15493e-10
0.00520797
-8.42279e-10
0.00520795
3.89393e-09
0.005208
5.72096e-09
0.00520801
5.04929e-08
0.00520785
6.32257e-08
0.00520814
2.37883e-07
0.00520842
3.8862e-07
0.00522074
8.25585e-07
0.00520338
-2.01236e-07
0.00524632
9.38405e-06
0.00516651
3.31558e-06
0.00529936
8.18969e-05
0.00507112
0.000306415
0.0048935
0.00146531
0.00473325
0.00145521
0.00462386
0.00125384
0.00453082
0.00120778
0.00443338
0.00123791
0.00433079
0.00126885
0.0042282
0.00130092
0.004125
0.00133156
0.00402441
0.00135921
0.00392848
0.00138886
0.00383371
0.00142149
0.0037403
0.00145653
0.00364868
0.00149593
0.00355752
0.00153896
0.00346715
0.00158684
0.00337624
0.00164036
0.00328287
0.00169887
0.00318731
0.00176263
0.00308812
0.00183196
0.0029829
0.00190688
0.00287006
0.00198672
0.00274821
0.00207093
0.00261612
0.00215925
0.00247217
0.00225158
0.00231599
0.0023461
0.0021466
0.00244275
0.00196099
0.00254287
0.00175319
0.00264652
0.00152185
0.0027485
0.00126715
0.00284631
0.000989335
0.0029404
0.000682323
0.00303036
0.000343241
0.00309621
0.00313071
0.00540147
1.04948e-09
0.00540147
7.36426e-10
0.00540147
-7.53581e-11
0.00540147
-4.94851e-10
0.00540147
2.07734e-09
0.00540146
9.74179e-09
0.00540148
3.16761e-08
0.00540146
7.00563e-08
0.00540106
2.75253e-07
0.00540044
1.11091e-07
0.0053867
3.5806e-07
0.0053902
2.06394e-06
0.00541744
3.64182e-06
0.00532063
2.97261e-05
0.00537107
7.78892e-05
0.00532606
0.000345752
0.00522068
0.00150151
0.00507655
0.00161202
0.00496865
0.00136944
0.00488022
0.00130124
0.00478055
0.00134093
0.00468332
0.00136876
0.00457578
0.0014115
0.00446268
0.0014459
0.00434884
0.00147412
0.0042375
0.0015028
0.00412712
0.00153398
0.00401789
0.00156769
0.00390991
0.00160519
0.00380302
0.00164617
0.00369908
0.00169133
0.00359786
0.00174258
0.00349829
0.00179969
0.00339846
0.00186348
0.0032981
0.00193321
0.00319629
0.00200996
0.00309023
0.00209424
0.00297829
0.00218455
0.0028581
0.00228148
0.00272678
0.0023851
0.00257861
0.00249636
0.00241241
0.00261091
0.0022296
0.00272756
0.00202736
0.00285057
0.00179561
0.00298163
0.00152896
0.00311394
0.00122012
0.0032503
0.000866564
0.00338414
0.000462659
0.00349847
0.00359372
0.00560216
4.11229e-10
0.00560216
1.42011e-10
0.00560216
1.66896e-10
0.00560215
2.25418e-09
0.00560215
6.59075e-09
0.00560213
1.97653e-08
0.00560221
3.58218e-08
0.00560215
1.09387e-07
0.00560154
1.06784e-07
0.00560239
7.49539e-07
0.00560153
4.56759e-07
0.00559617
4.25567e-06
0.00560669
1.28184e-06
0.0055833
3.56398e-05
0.00560338
5.33942e-05
0.00565321
0.000289136
0.00595464
0.00113628
0.0059535
0.00162481
0.00574656
0.00159128
0.00558119
0.00147137
0.00544234
0.00148234
0.00530665
0.00150628
0.00516766
0.0015552
0.00502319
0.00159374
0.00487638
0.00162276
0.00473286
0.00164899
0.00459202
0.00167684
0.00445451
0.00170682
0.00432074
0.00174055
0.00418927
0.00177769
0.00406148
0.0018188
0.00393868
0.00186552
0.00382052
0.00191849
0.00370658
0.00197855
0.00359468
0.00204648
0.00348556
0.00212049
0.00337863
0.00220257
0.00326819
0.00229649
0.0031526
0.00239877
0.00303098
0.00250874
0.00290115
0.0026286
0.0027536
0.00276065
0.00258452
0.00289867
0.00239194
0.00304507
0.00217175
0.0032036
0.00191175
0.00337534
0.00159853
0.00356451
0.00120252
0.00378101
0.00069054
0.00401021
0.00428475
0.00581031
6.40225e-11
0.00581031
5.8109e-10
0.0058103
1.6574e-09
0.0058103
6.32319e-09
0.00581029
1.12958e-08
0.00581029
3.63401e-08
0.00581025
4.52388e-08
0.00581019
1.42402e-07
0.0058101
1.71183e-07
0.00581001
4.78624e-07
0.00581022
-2.75013e-07
0.00580307
8.37005e-06
0.00581746
-9.66484e-06
0.00578794
6.21022e-05
0.00585926
-3.12365e-05
0.00593035
0.00020734
0.00656821
0.000438419
0.00652598
0.00165239
0.00629803
0.00181257
0.00606665
0.00169709
0.00592108
0.00162232
0.00578006
0.0016426
0.00565127
0.00168337
0.00551431
0.00173271
0.00537078
0.00176785
0.00522459
0.00179591
0.00507679
0.0018239
0.00492953
0.00185332
0.00478464
0.00188552
0.00464184
0.00192066
0.00450144
0.0019595
0.00436451
0.00200264
0.004232
0.0020515
0.00410535
0.00210609
0.00398563
0.00216746
0.00386824
0.00223935
0.00375097
0.00232133
0.00363764
0.00241143
0.00352594
0.00251215
0.00341305
0.0026235
0.00329716
0.00274671
0.00317634
0.00288391
0.00303988
0.00303745
0.00288426
0.00320285
0.00269954
0.00339008
0.00247775
0.00359875
0.00220179
0.00384199
0.00183156
0.00415205
0.00130986
0.00453155
0.00559497
0.00840003
2.23547e-11
0.00840003
1.96596e-10
0.00840003
6.22392e-10
0.00840004
1.81751e-09
0.00840004
3.50116e-09
0.00840008
9.30563e-09
0.00840007
1.48876e-08
0.00840027
3.76598e-08
0.00840071
5.74943e-08
0.00839934
9.25843e-08
0.00839573
7.72832e-08
0.00842983
2.03705e-06
0.00839475
1.24335e-06
0.00844041
1.50309e-05
0.0083785
3.07766e-05
0.00846092
0.000109794
0.00834128
0.000511712
0.00821023
0.00171632
0.00812925
0.00187233
0.00809138
0.00173764
0.00801321
0.00170357
0.00793043
0.00172582
0.00785199
0.00176207
0.00776686
0.00182002
0.00766677
0.00187141
0.00754932
0.00191397
0.00741814
0.00195311
0.00727711
0.00199215
0.00712995
0.00203233
0.00697856
0.00207453
0.00682225
0.00211877
0.00666312
0.00216446
0.00650463
0.00221209
0.00634697
0.00226556
0.00618869
0.00232732
0.00603678
0.00239338
0.00589347
0.00246775
0.00575737
0.0025509
0.0056274
0.00264544
0.00550427
0.00274954
0.00538862
0.00286527
0.00528277
0.00299304
0.00519017
0.00313392
0.00510572
0.00329095
0.00504287
0.00345662
0.00500273
0.00364166
0.00502695
0.00382033
0.00520393
0.00397796
0.00567779
0.00405911
0.00371975
0.0075542
0.00840003
1.04148e-11
0.00840003
3.70074e-11
0.00840003
1.20535e-10
0.00840002
2.28107e-10
0.00840003
6.25521e-10
0.00840006
1.15522e-09
0.00840011
1.6107e-09
0.00840005
5.42086e-10
0.00840005
1.13877e-08
0.00840213
-6.92891e-08
0.00840042
1.75162e-07
0.00841488
1.55589e-07
0.00840285
4.24838e-06
0.00840927
7.74751e-06
0.0083754
4.70463e-05
0.00836692
0.00011567
0.00829667
0.000538754
0.00798952
0.00193598
0.00789706
0.00197355
0.00780361
0.0018342
0.00773469
0.00177547
0.007674
0.00178511
0.00762307
0.00181225
0.00758411
0.00186372
0.00753684
0.00191983
0.00747589
0.00196939
0.00740502
0.0020164
0.00732807
0.0020633
0.0072473
0.00211156
0.00716273
0.00216121
0.00707325
0.00221075
0.00697861
0.00226223
0.00687417
0.00231818
0.00676533
0.00237514
0.00665898
0.00243399
0.00655599
0.00249692
0.00645915
0.00256578
0.00637136
0.00264137
0.00629585
0.00272417
0.00623216
0.00281705
0.00618548
0.00291498
0.00615678
0.00302422
0.00615811
0.00313507
0.00619879
0.00325291
0.00629129
0.00336702
0.00646899
0.0034673
0.00674027
0.00355204
0.00716005
0.00356131
0.00768754
0.00353457
0.00314465
0.00826574
0.00840003
-3.15808e-12
0.00840003
6.36008e-12
0.00840003
-4.84244e-11
0.00840003
-3.72886e-11
0.00840003
4.85658e-10
0.00840003
1.13226e-09
0.00840001
1.00401e-08
0.00839974
2.3552e-08
0.00840091
4.97957e-08
0.00839844
1.59785e-07
0.00840269
2.02407e-07
0.00836737
3.26476e-07
0.00840063
4.19249e-06
0.00841657
6.93139e-06
0.00840017
4.74495e-05
0.00839984
0.000117766
0.00834562
0.000537045
0.00808557
0.00208668
0.00790728
0.00215187
0.00776593
0.00197975
0.00770355
0.00183979
0.00763514
0.0018506
0.00757833
0.00186937
0.00752997
0.00191443
0.00748947
0.00196213
0.0074486
0.00200838
0.00740662
0.00205517
0.00736463
0.00210253
0.00732553
0.00215082
0.00728792
0.00220185
0.00724431
0.00225764
0.00719553
0.00231418
0.00714633
0.00236998
0.00709561
0.00242704
0.00704506
0.00248527
0.00699623
0.00254622
0.00695449
0.00260855
0.00692275
0.00267562
0.00690565
0.00274485
0.00690784
0.00281962
0.00693149
0.00289719
0.00698494
0.00297622
0.00706652
0.00305837
0.00719498
0.00312865
0.00736615
0.00319941
0.00760195
0.003235
0.00789575
0.00326168
0.0082389
0.0032218
0.00864132
0.00313626
0.00292366
0.0088663
0.00840003
1.8198e-11
0.00840003
3.00826e-11
0.00840003
2.82141e-10
0.00840003
3.14446e-10
0.00840005
2.01304e-09
0.00840004
1.13284e-09
0.00840003
1.27046e-08
0.00840018
1.53683e-08
0.00840007
1.08427e-07
0.0083986
2.92788e-07
0.00840136
4.51281e-07
0.00840407
3.09833e-07
0.00839628
5.3866e-06
0.00843047
5.54692e-06
0.0084107
5.55276e-05
0.0083703
0.000117614
0.00830271
0.000551857
0.00822857
0.00203278
0.0081384
0.0022741
0.0080852
0.00206481
0.00802096
0.00192666
0.00795291
0.00192775
0.00788007
0.00194738
0.00781818
0.00197636
0.00776499
0.00201938
0.00771754
0.00206293
0.00767591
0.0021044
0.00763915
0.00214656
0.00760257
0.00219349
0.00756472
0.00224354
0.00753042
0.00229366
0.00750172
0.00234526
0.00747591
0.002398
0.00745414
0.00245129
0.00743698
0.0025049
0.00742747
0.00255906
0.00742542
0.00261391
0.0074368
0.00266805
0.00746141
0.00272445
0.00750867
0.00277713
0.00757739
0.00283404
0.00767823
0.00288149
0.00780874
0.00293439
0.00797651
0.00296707
0.00817875
0.00300276
0.00841495
0.00300393
0.00868382
0.00299735
0.00896589
0.00294398
0.00926642
0.00283991
0.0027224
0.00947248
0.00840003
1.66581e-11
0.00840003
-8.94889e-12
0.00840003
2.16819e-10
0.00840003
-3.18492e-11
0.00840003
2.32487e-09
0.00840004
-1.18556e-09
0.00840003
1.99052e-08
0.00839983
-8.25614e-09
0.0084006
9.18184e-08
0.00840274
3.36379e-08
0.0083932
3.66872e-07
0.00837901
-8.53343e-08
0.00842717
8.7805e-06
0.00817518
-2.04709e-06
0.00835813
7.1623e-05
0.0085493
2.32065e-05
0.00862232
0.000323379
0.00930502
0.00111488
0.00933432
0.00227892
0.00909922
0.00232935
0.0088627
0.00219892
0.00870087
0.00211774
0.00857119
0.00209667
0.00845472
0.00211057
0.00834525
0.00214179
0.00824505
0.00216898
0.00815723
0.00219597
0.00808272
0.00222477
0.00802325
0.00225638
0.00797626
0.0022935
0.0079379
0.00233436
0.00790836
0.00237675
0.0078873
0.00242072
0.00787541
0.00246451
0.00787217
0.00250935
0.0078803
0.00255241
0.0079
0.00259674
0.00793411
0.00263703
0.00798331
0.00267878
0.00805119
0.00271304
0.00814028
0.00274915
0.00825376
0.00277267
0.00839518
0.00279862
0.00856376
0.00280458
0.00876223
0.00281068
0.00898054
0.00279255
0.00922048
0.0027637
0.00948065
0.00269006
0.00970062
0.00262554
0.00250961
0.00991853
0.00840003
1.41967e-12
0.00840003
-5.0743e-12
0.00840003
1.05513e-11
0.00840003
3.08031e-11
0.00840003
3.22113e-10
0.00840003
3.29131e-09
0.00840003
8.7004e-09
0.00839999
2.84889e-08
0.00839985
8.10502e-08
0.00840083
1.68597e-07
0.00839762
5.78585e-07
0.00840443
2.67768e-07
0.00836381
2.26097e-06
0.00838666
4.37052e-06
0.00848019
1.63215e-05
0.00842134
6.12101e-05
0.0085583
0.000147593
0.00883774
0.000748171
0.00866808
0.00243604
0.00856089
0.00244272
0.00858463
0.00219476
0.0085931
0.00213477
0.00856379
0.00214261
0.00852406
0.00216493
0.00847905
0.00219561
0.00842867
0.0022225
0.00838104
0.00224613
0.00833881
0.00227026
0.00830277
0.00229599
0.00827662
0.00232465
0.00825891
0.00235736
0.0082496
0.00239057
0.0082477
0.00242608
0.00825478
0.00245966
0.0082705
0.00249506
0.0082973
0.00252681
0.0083354
0.00256004
0.00838687
0.00258734
0.00845239
0.0026157
0.00853279
0.0026354
0.00863039
0.00265462
0.00874399
0.00266227
0.00887927
0.00266714
0.00902996
0.00265757
0.00920501
0.00264042
0.00939362
0.00260914
0.00960335
0.00256023
0.00980422
0.00249527
0.0100091
0.00242699
0.00232542
0.0101995
0.00840003
-1.04641e-11