/*--------------------------------*- C++ -*----------------------------------*\
| =========                 |                                                 |
| \\      /  F ield         | OpenFOAM: The Open Source CFD Toolbox           |
|  \\    /   O peration     | Version:  2112                                  |
|   \\  /    A nd           | Website:  www.openfoam.com                      |
|    \\/     M anipulation  |                                                 |
\*---------------------------------------------------------------------------*/
FoamFile
{
    version     2.0;
    format      ascii;
    arch        "LSB;label=32;scalar=64";
    class       volScalarField;
    location    "10.0005";
    object      T;
}
// * * * * * * * * * * * * * * * * * * * * * * * * * * * * * * * * * * * * * //

dimensions      [0 0 0 1 0 0 0];

internalField   nonuniform List<scalar> 
7000
(
0.999998
1
0.999994
1.00001
1.00002
1.00027
1.00056
1.0023
1.00367
1.01259
1.02157
1.05095
1.1441
1.36095
1.82537
2.62992
2.7389
2.71922
2.68538
2.68225
2.69076
2.69731
2.70453
2.71148
2.71516
2.72057
2.72692
2.73179
2.73784
2.74136
2.74473
2.75008
2.75447
2.76172
2.76717
2.77126
2.77536
2.77779
2.7804
2.78168
2.78292
2.78411
2.78384
2.78333
2.7823
2.78112
2.7839
2.78124
2.78176
2.80247
0.999999
1
0.999995
1.00001
1.00002
1.00027
1.00055
1.00225
1.00359
1.01231
1.02098
1.05017
1.13955
1.34881
1.81504
2.62695
2.74081
2.72074
2.68853
2.68499
2.69342
2.69938
2.70662
2.71355
2.71706
2.72292
2.72912
2.73299
2.73861
2.74222
2.74683
2.7533
2.75809
2.76513
2.76976
2.77335
2.77712
2.7794
2.78205
2.78332
2.78478
2.78595
2.78563
2.78508
2.78394
2.78314
2.78534
2.78138
2.78511
2.80201
0.999999
1
0.999995
1.00001
1.00003
1.00028
1.00055
1.00223
1.00354
1.01214
1.02066
1.04978
1.13704
1.34283
1.81101
2.63166
2.74166
2.72232
2.69087
2.68682
2.69456
2.69985
2.70798
2.71419
2.71796
2.72425
2.72887
2.73233
2.7373
2.74046
2.74674
2.75333
2.75838
2.76508
2.76859
2.77207
2.77537
2.77746
2.78041
2.78148
2.78284
2.78416
2.78382
2.78369
2.78251
2.7829
2.78532
2.78091
2.78651
2.80349
1
1
0.999997
1.00001
1.00003
1.00028
1.00055
1.00219
1.00346
1.01189
1.02021
1.04877
1.13399
1.33515
1.8023
2.62469
2.74158
2.72144
2.69165
2.68725
2.69453
2.69955
2.70807
2.71422
2.71837
2.72485
2.72882
2.73239
2.73761
2.74113
2.74823
2.75451
2.75946
2.76574
2.76866
2.77219
2.775
2.77696
2.77986
2.78062
2.78192
2.78253
2.78216
2.78205
2.78082
2.78207
2.78405
2.77885
2.78742
2.80188
1
1
0.999998
1.00002
1.00003
1.00029
1.00054
1.00214
1.00339
1.01161
1.01975
1.04751
1.13145
1.32751
1.79638
2.62395
2.74165
2.72203
2.69332
2.68857
2.69511
2.69994
2.70874
2.71456
2.71855
2.72437
2.7274
2.73177
2.73767
2.742
2.74953
2.75517
2.7601
2.76549
2.76819
2.77174
2.77417
2.7765
2.77912
2.77979
2.78123
2.78157
2.78121
2.78051
2.77802
2.77933
2.78247
2.77887
2.78759
2.80259
0.999999
1
1
1.00002
1.00003
1.00029
1.00053
1.0021
1.0033
1.01132
1.01925
1.0463
1.12853
1.31963
1.78833
2.619
2.74058
2.72146
2.69401
2.68877
2.69512
2.69983
2.70897
2.71423
2.71777
2.72323
2.72632
2.73196
2.73837
2.74305
2.75056
2.75543
2.75991
2.76493
2.76725
2.77107
2.77322
2.77564
2.77834
2.7786
2.77969
2.77975
2.77923
2.77945
2.77773
2.77827
2.77975
2.77438
2.78841
2.79958
0.999999
1
1
1.00002
1.00003
1.00029
1.00053
1.00204
1.00321
1.01098
1.0187
1.04484
1.1256
1.31122
1.78017
2.61357
2.73955
2.71992
2.69566
2.68944
2.69528
2.6996
2.70843
2.71282
2.71681
2.72261
2.72651
2.7331
2.73919
2.74397
2.75075
2.75483
2.75923
2.76329
2.76607
2.76969
2.77181
2.77442
2.77659
2.77739
2.7782
2.77785
2.77697
2.7762
2.77479
2.7773
2.77761
2.77434
2.78637
2.79973
0.999999
1
1
1.00002
1.00003
1.00029
1.00051
1.00198
1.0031
1.01061
1.01807
1.04321
1.12253
1.30236
1.7712
2.606
2.73811
2.71633
2.6987
2.69005
2.69418
2.69854
2.70746
2.71231
2.71725
2.72356
2.72744
2.73429
2.73959
2.7438
2.74991
2.75316
2.75768
2.76157
2.76443
2.76817
2.77025
2.77311
2.77521
2.77552
2.77643
2.77668
2.77609
2.77465
2.77164
2.77369
2.77544
2.7693
2.78715
2.79601
0.999999
1
1
1.00002
1.00003
1.00028
1.0005
1.00191
1.00297
1.01019
1.01737
1.04139
1.11927
1.29305
1.76144
2.5963
2.73778
2.71004
2.69864
2.68961
2.69316
2.69952
2.70849
2.71353
2.71868
2.72425
2.72793
2.73418
2.73841
2.74248
2.74797
2.75129
2.75586
2.75968
2.76286
2.76649
2.76838
2.77112
2.77283
2.77317
2.77341
2.77297
2.7726
2.77211
2.76951
2.77111
2.77065
2.7692
2.7825
2.79532
0.999999
1
1
1.00002
1.00003
1.00027
1.00047
1.00181
1.00278
1.00954
1.01654
1.03921
1.11624
1.28353
1.75203
2.59169
2.73197
2.70129
2.70046
2.6929
2.6955
2.70105
2.70864
2.71327
2.71856
2.72375
2.72664
2.73273
2.73657
2.74055
2.74612
2.74941
2.75406
2.75764
2.76102
2.7647
2.76658
2.76933
2.77113
2.7717
2.77163
2.77071
2.76961
2.76873
2.76721
2.7685
2.76823
2.76264
2.78314
2.78891
0.999999
1
1
1.00002
1.00003
1.00026
1.00044
1.00167
1.00256
1.00854
1.01552
1.03659
1.11302
1.27343
1.74135
2.58479
2.72102
2.70904
2.70087
2.6916
2.69391
2.70014
2.70752
2.71183
2.71736
2.72204
2.7252
2.73114
2.73471
2.73885
2.74415
2.74721
2.75203
2.75548
2.75802
2.7618
2.76303
2.76519
2.76664
2.76738
2.76782
2.76741
2.7664
2.76467
2.76207
2.76432
2.76353
2.76234
2.7753
2.78855
1
1
1
1.00002
1.00003
1.00023
1.00039
1.00149
1.00227
1.00735
1.01428
1.03323
1.10965
1.26226
1.72911
2.56832
2.71453
2.71197
2.69997
2.69122
2.69327
2.69937
2.70643
2.71088
2.71624
2.72084
2.72393
2.72963
2.73319
2.73753
2.74246
2.74576
2.75036
2.75369
2.75678
2.76001
2.76191
2.76396
2.76429
2.76402
2.76362
2.76309
2.76236
2.76089
2.75828
2.75906
2.758
2.75411
2.77605
2.77953
1
1
1
1.00002
1.00003
1.0002
1.00033
1.00126
1.00191
1.00596
1.01303
1.02952
1.10602
1.24983
1.7144
2.54701
2.70883
2.70923
2.7002
2.69137
2.69318
2.69917
2.70586
2.70993
2.71583
2.71954
2.72267
2.72804
2.73107
2.73508
2.73976
2.74257
2.74657
2.74937
2.75211
2.7548
2.75653
2.75894
2.76052
2.76039
2.75944
2.75802
2.75702
2.7557
2.75315
2.75393
2.75295
2.7514
2.76334
2.77811
1
1
1
1.00001
1.00003
1.00016
1.00027
1.001
1.00154
1.00443
1.01185
1.0269
1.10069
1.23541
1.69392
2.52308
2.69832
2.70958
2.70072
2.6916
2.69307
2.69906
2.70517
2.70934
2.71469
2.71869
2.72156
2.72709
2.73
2.73409
2.73853
2.74083
2.74527
2.74744
2.74966
2.75182
2.75233
2.75307
2.75415
2.75481
2.75453
2.75316
2.75088
2.74897
2.7473
2.7472
2.74351
2.74171
2.76496
2.76482
1
1
1
1.00001
1.00002
1.00014
1.00024
1.00082
1.00148
1.00348
1.01166
1.02271
1.09434
1.22004
1.67087
2.49306
2.68617
2.71162
2.70236
2.69257
2.69345
2.69926
2.70487
2.70898
2.71422
2.71743
2.71984
2.72447
2.72696
2.73061
2.73473
2.73735
2.74083
2.74371
2.74602
2.74867
2.74986
2.74954
2.74876
2.74783
2.74696
2.74617
2.74546
2.74214
2.73833
2.73859
2.7382
2.73509
2.74374
2.76175
1
1
1
1.00001
1.00002
1.00012
1.0002
1.00067
1.0013
1.00277
1.0103
1.01619
1.08681
1.19595
1.64369
2.44713
2.67158
2.71405
2.70368
2.69142
2.69185
2.69779
2.70368
2.70802
2.71343
2.71656
2.71933
2.72368
2.72606
2.72912
2.732
2.73383
2.73625
2.73781
2.73903
2.74104
2.74295
2.74439
2.74418
2.74276
2.74027
2.73726
2.73423
2.73407
2.73091
2.72777
2.72294
2.72308
2.74266
2.74196
1
1
1
1.00001
1.00003
1.00009
1.00016
1.0006
1.00059
1.00395
1.00107
1.02748
1.06323
1.23562
1.54847
2.21933
2.6495
2.7249
2.71295
2.69614
2.69211
2.69684
2.7008
2.70429
2.7087
2.71109
2.71345
2.71843
2.72202
2.72618
2.72956
2.7317
2.73371
2.73585
2.73578
2.73542
2.73506
2.73492
2.73484
2.73434
2.73392
2.73141
2.72708
2.71966
2.71788
2.71614
2.71381
2.7055
2.71423
2.73331
1
1
1
1.00001
1.00003
1.00006
1.00018
1.00047
1.00059
1.00365
1.00171
1.02477
1.05803
1.20449
1.4723
2.09817
2.60011
2.72264
2.71104
2.69152
2.68704
2.69192
2.69564
2.6994
2.70356
2.70535
2.7069
2.70962
2.71226
2.71638
2.72104
2.72405
2.72699
2.72876
2.73149
2.73176
2.73076
2.72902
2.72605
2.72331
2.71895
2.71882
2.71693
2.71229
2.70177
2.69764
2.69134
2.69046
2.69925
2.69857
1
1
1
1.00001
1.00003
1.00005
1.00017
1.00036
1.00051
1.00249
1.00354
1.02011
1.05185
1.17112
1.40128
1.95734
2.54176
2.70901
2.69158
2.66962
2.66833
2.67749
2.68313
2.68823
2.69329
2.69652
2.69859
2.70136
2.70291
2.70493
2.70824
2.71096
2.71345
2.7156
2.71737
2.72007
2.72152
2.72117
2.71969
2.71624
2.71076
2.70127
2.69863
2.694
2.68906
2.67807
2.66829
2.65252
2.65429
2.66454
1
1
1
1.00001
1.00003
1.00005
1.0001
1.00033
1.00042
1.00238
1.00137
1.01642
1.04465
1.13875
1.34197
1.79644
2.55809
2.71196
2.68596
2.6611
2.65823
2.66769
2.67437
2.68083
2.68551
2.68967
2.69339
2.69762
2.70022
2.70192
2.70309
2.70407
2.70469
2.70486
2.70474
2.7049
2.70559
2.70573
2.7056
2.70432
2.70103
2.69328
2.68146
2.67326
2.65967
2.6519
2.63526
2.61427
2.59445
2.52149
1
1
1
1
1.00001
1.00001
1.00007
1.00012
1.00058
1.0006
1.00515
1.0045
1.04449
1.11015
1.36721
1.97124
2.45283
2.70191
2.67711
2.66624
2.66345
2.66609
2.67329
2.67789
2.68051
2.68361
2.6873
2.69115
2.69436
2.69588
2.69597
2.69574
2.69506
2.69407
2.69203
2.69056
2.68735
2.6843
2.68091
2.67873
2.67515
2.67078
2.66037
2.64706
2.6298
2.60118
2.57828
2.52557
2.47272
2.38238
1
1
1
1
1.00001
1.00001
1.00007
1.00011
1.00055
1.00071
1.00422
1.00347
1.03773
1.09978
1.3198
1.84898
2.38061
2.66767
2.66454
2.65527
2.65142
2.65376
2.66045
2.66505
2.66775
2.67225
2.67753
2.68248
2.68601
2.68723
2.68715
2.68648
2.68512
2.68379
2.68043
2.67798
2.67265
2.66811
2.66028
2.6528
2.64505
2.63564
2.62792
2.61122
2.59639
2.56702
2.52706
2.48145
2.38777
2.3238
1
1
1
1
1.00001
1.00001
1.00007
1.00014
1.00059
1.00077
1.00469
1.00295
1.03167
1.08367
1.27532
1.69048
2.29113
2.64407
2.67445
2.66576
2.65486
2.65557
2.65913
2.66208
2.66359
2.66682
2.66995
2.67406
2.6772
2.6785
2.67847
2.67793
2.67657
2.6744
2.67216
2.6677
2.66384
2.65542
2.64898
2.6351
2.62524
2.60764
2.59261
2.57477
2.55031
2.52903
2.48548
2.4508
2.37545
2.32775
1
1
1
1
1.00001
1.00001
1.00007
1.0001
1.00053
1.00068
1.00474
1.00188
1.02733
1.0663
1.22792
1.54269
2.17751
2.60636
2.68264
2.66908
2.65145
2.64538
2.6472
2.65003
2.65212
2.65226
2.65181
2.65211
2.653
2.65481
2.6568
2.65819
2.65815
2.65738
2.65583
2.65229
2.6479
2.64197
2.63293
2.62421
2.60817
2.59571
2.57099
2.55459
2.52152
2.50078
2.45945
2.42854
2.37634
2.33625
1
1
1
1
1.00001
1.00001
1.00004
1.0001
1.00034
1.00035
1.00261
1.00515
1.01966
1.05399
1.16891
1.38812
1.94122
2.52538
2.69366
2.67043
2.65592
2.6395
2.64135
2.6411
2.64101
2.64132
2.64204
2.64207
2.6417
2.64046
2.63945
2.63831
2.63713
2.6357
2.63349
2.63117
2.62629
2.62206
2.61324
2.60656
2.59231
2.58203
2.55974
2.54463
2.51348
2.4913
2.45448
2.42412
2.38263
2.34563
1
1
1
1
1
1.00001
1.00003
1.00013
1.00023
1.00102
1.0013
1.00781
1.00365
1.04699
1.11581
1.39416
2.01011
2.46179
2.68513
2.66189
2.65133
2.64002
2.63747
2.63792
2.638
2.63857
2.63963
2.63947
2.63855
2.63664
2.63295
2.62984
2.62537
2.62229
2.61716
2.61382
2.60711
2.6026
2.5931
2.58693
2.57359
2.56516
2.5465
2.53426
2.51064
2.48876
2.46089
2.42946
2.3971
2.36441
1
1
1
1
1
1.00001
1.00001
1.00008
1.00013
1.00069
1.00061
1.00445
1.00935
1.03788
1.10223
1.32238
1.88033
2.37443
2.65894
2.6487
2.64144
2.62744
2.62756
2.62906
2.63216
2.63461
2.63547
2.63527
2.63427
2.63235
2.62788
2.62466
2.6188
2.61529
2.60836
2.60416
2.59554
2.59018
2.57945
2.57151
2.55891
2.54768
2.53351
2.51837
2.5021
2.48301
2.46219
2.43815
2.41213
2.38688
1
1
1
1
1
1.00001
1.00001
1.00008
1.00013
1.00069
1.00081
1.00557
1.00172
1.0338
1.08232
1.26724
1.68128
2.26312
2.62907
2.65765
2.64572
2.62792
2.62299
2.62412
2.62635
2.62939
2.63059
2.63034
2.62906
2.62732
2.62314
2.6202
2.61424
2.6107
2.60359
2.59927
2.59088
2.58448
2.57495
2.56553
2.55401
2.54148
2.52759
2.51256
2.49614
2.47897
2.46035
2.44123
2.4198
2.39992
1
1
1
1
1
1.00001
1.00003
1.00005
1.00014
1.00036
1.001
1.00249
1.00624
1.02658
1.06266
1.21062
1.51072
2.09469
2.56827
2.66359
2.64577
2.62922
2.62076
2.61632
2.61518
2.61377
2.61268
2.61062
2.60845
2.60769
2.60631
2.60508
2.60192
2.59939
2.5939
2.58968
2.58227
2.57585
2.56719
2.55862
2.54847
2.53751
2.52511
2.51169
2.49657
2.48085
2.46373
2.44637
2.42818
2.41076
1
1
1
1
1
1
1.00001
1.00002
1.00013
1.00019
1.00103
1.00146
1.00965
1.00386
1.05977
1.12539
1.4724
2.10705
2.52773
2.67765
2.65031
2.62876
2.61225
2.61021
2.61121
2.61158
2.61103
2.60955
2.60609
2.60321
2.59878
2.59582
2.59154
2.58787
2.58317
2.5782
2.57244
2.5654
2.55796
2.54926
2.54015
2.53014
2.51945
2.5078
2.49566
2.48171
2.46801
2.45282
2.43745
2.4225
1
1
1
1
1
1
1.00001
1.00001
1.0001
1.00016
1.0009
1.00109
1.00733
1.00259
1.04543
1.11106
1.3545
1.96101
2.41212
2.65007
2.62715
2.62045
2.60536
2.60194
2.60262
2.60514
2.60657
2.60622
2.60443
2.60159
2.59731
2.59333
2.58859
2.58362
2.57844
2.57272
2.56685
2.55994
2.55256
2.54418
2.53523
2.52557
2.51544
2.50445
2.4931
2.48143
2.46928
2.45622
2.44286
2.43026
1
1
1
1
1
1
1
1.00004
1.00004
1.00034
1.00058
1.00279
1.0024
1.01113
1.01555
1.09648
1.22604
1.70026
2.48954
2.64997
2.64421
2.62597
2.60605
2.59755
2.59569
2.59548
2.59548
2.59527
2.59491
2.59434
2.59295
2.59005
2.58607
2.58138
2.57646
2.57092
2.56533
2.55886
2.55184
2.54388
2.53536
2.52585
2.51605
2.50541
2.4949
2.48349
2.47211
2.46024
2.44809
2.4368
1
1
1
1
1
1
1.00001
1
1.00007
1.00011
1.00058
1.00079
1.0053
1.00213
1.03062
1.0669
1.23011
1.56401
2.14265
2.59913
2.6701
2.6485
2.62705
2.61102
2.60356
2.60094
2.59715
2.59397
2.59072
2.58665
2.58304
2.57953
2.5761
2.57187
2.5678
2.56328
2.55847
2.55386
2.54895
2.54274
2.53566
2.52755
2.51905
2.50954
2.49972
2.48914
2.47843
2.46735
2.45613
2.44563
1
1
1
1
1
1
1
1.00001
1.00001
1.00013
1.00017
1.00112
1.00145
1.01048
1.00296
1.06535
1.13178
1.51042
2.16591
2.52631
2.67043
2.64828
2.63267
2.61637
2.60822
2.60494
2.60211
2.59853
2.59473
2.58978
2.58496
2.58005
2.57529
2.57011
2.56484
2.55927
2.55424
2.54845
2.54304
2.53766
2.53212
2.52584
2.51882
2.51103
2.50279
2.49381
2.48458
2.47487
2.46495
2.45573
1
1
1
1
1
1
1
1.00001
1.00001
1.00011
1.00016
1.001
1.00122
1.00862
1.00269
1.04937
1.1121
1.37207
1.97679
2.42302
2.64098
2.61757
2.61128
2.5982
2.59552
2.59561
2.59518
2.59396
2.59161
2.58767
2.58363
2.57926
2.57492
2.57023
2.56549
2.56018
2.55462
2.54894
2.54319
2.53732
2.53128
2.52478
2.51819
2.51105
2.50364
2.49555
2.4874
2.47881
2.47009
2.46199
1
1
1
1
1
1
1
1
1.00002
1.00002
1.00018
1.0003
1.0016
1.00164
1.01159
1.01832
1.09722
1.23766
1.70965
2.48717
2.64655
2.64061
2.62069
2.59998
2.59236
2.59111
2.58975
2.58696
2.58354
2.5798
2.57628
2.5729
2.57005
2.56749
2.56435
2.56051
2.55611
2.55124
2.54566
2.5395
2.53346
2.52685
2.52016
2.51279
2.50562
2.49786
2.49022
2.48213
2.47406
2.4665
1
1
1
1
1
1
1
1
1.00003
1.00005
1.00022
1.0004
1.00182
1.00184
1.01288
1.00384
1.075
1.18348
1.62521
2.38995
2.61022
2.66513
2.64925
2.6278
2.61306
2.60593
2.60096
2.59502
2.58873
2.58246
2.57682
2.57184
2.56798
2.56473
2.56174
2.55865
2.55498
2.55073
2.54582
2.5406
2.53496
2.52902
2.52287
2.51631
2.50945
2.50231
2.49492
2.4874
2.47958
2.47249
1
1
1
1
1
1
1
1.00001
1.00002
1.0001
1.00011
1.00084
1.00141
1.00734
1.00696
1.02285
1.04806
1.17504
1.41522
1.96773
2.50991
2.66545
2.64316
2.63043
2.60925
2.60176
2.59622
2.59266
2.58663
2.5803
2.57449
2.56877
2.564
2.55966
2.5562
2.55287
2.54958
2.54621
2.54229
2.53828
2.53371
2.52876
2.52318
2.5176
2.51155
2.50545
2.49895
2.49247
2.4856
2.47943
1
1
1
1
1
1
1
1.00001
1.00001
1.00007
1.00007
1.00056
1.00092
1.00474
1.00443
1.01576
1.02974
1.12392
1.2988
1.76921
2.52642
2.66928
2.63671
2.62788
2.60592
2.59577
2.59307
2.59182
2.58896
2.58407
2.5785
2.57272
2.5673
2.56204
2.55728
2.55298
2.54876
2.5447
2.54046
2.53631
2.53167
2.52723
2.52235
2.51735
2.51197
2.50642
2.50056
2.49471
2.48857
2.48305
1
1
1
1
1
1
1
1
1.00002
1.00002
1.00013
1.00023
1.00104
1.00135
1.00818
1.00455
1.04262
1.10195
1.30661
1.80513
2.33163
2.65682
2.65701
2.6379
2.61504
2.60404
2.60066
2.59943
2.59809
2.59601
2.59222
2.58721
2.58115
2.57457
2.56789
2.56147
2.55533
2.54966
2.54432
2.53949
2.53452
2.52964
2.52458
2.51939
2.514
2.50854
2.50287
2.49714
2.4912
2.48577
1
1
1
1
1
1
1
1
1.00002
1.00003
1.00015
1.00013
1.00128
1.00213
1.01053
1.0107
1.03168
1.08096
1.2555
1.65727
2.22038
2.58694
2.64238
2.62542
2.60904
2.59651
2.59302
2.59263
2.59212
2.59112
2.58988
2.5874
2.58414
2.58034
2.57592
2.57111
2.56585
2.56046
2.55481
2.549
2.54334
2.53763
2.5321
2.52639
2.52074
2.51488
2.50905
2.50305
2.49706
2.49145
1
1
1
1
1
1
1
1
1
1.00002
1.00002
1.00019
1.00026
1.00169
1.00196
1.01323
1.00468
1.07719
1.16493
1.58049
2.28595
2.56408
2.65685
2.63404
2.61666
2.60023
2.59436
2.59285
2.59148
2.58951
2.58709
2.58477
2.58225
2.5793
2.57596
2.5723
2.56849
2.5644
2.56019
2.55567
2.55098
2.54614
2.54102
2.53592
2.53041
2.52496
2.51918
2.51333
2.50733
2.50162
1
1
1
1
1
1
1
1
1
1.00002
1.00002
1.00013
1.00018
1.00111
1.00146
1.0112
1.00649
1.06524
1.14267
1.49752
2.18627
2.52062
2.66343
2.63974
2.6201
2.60481
2.59956
2.59773
2.59586
2.59316
2.58997
2.58666
2.58344
2.58004
2.57671
2.57331
2.56979
2.56629
2.56255
2.55882
2.55486
2.55088
2.54676
2.54249
2.53821
2.53362
2.52903
2.5241
2.51903
2.51422
1
1
1
1
1
1
1
1
1
1.00002
1.00001
1.00014
1.00019
1.00116
1.00133
1.00877
1.00434
1.04994
1.11907
1.39654
2.01726
2.45613
2.64857
2.62323
2.60784
2.59252
2.58875
2.58873
2.58827
2.58707
2.58484
2.58204
2.57927
2.57626
2.57327
2.5701
2.56669
2.56332
2.55973
2.55625
2.55266
2.54905
2.54548
2.54162
2.5379
2.53376
2.52965
2.52534
2.52074
2.51659
1
1
1
1
1
1
1
1
1
1.00001
1.00004
1.00003
1.00035
1.00058
1.003
1.00263
1.01333
1.0161
1.10528
1.26075
1.74944
2.53166
2.6493
2.64084
2.61877
2.59589
2.58804
2.58599
2.58504
2.58271
2.57983
2.57684
2.57359
2.5703
2.56666
2.56315
2.5593
2.55564
2.55181
2.5481
2.54451
2.54079
2.53735
2.53355
2.52998
2.52605
2.52208
2.51799
2.51359
2.50974
1
1
1
1
1
1
1
1
1
1
1.00003
1.00003
1.00023
1.00037
1.002
1.00205
1.01418
1.00787
1.09244
1.21291
1.68348
2.45722
2.63771
2.6618
2.64696
2.62386
2.61144
2.60578
2.60173
2.59723
2.59223
2.587
2.58172
2.57686
2.57189
2.56733
2.56263
2.55821
2.55375
2.54944
2.54531
2.54108
2.53712
2.53284
2.52871
2.52427
2.51981
2.51527
2.51049
2.50629
1
1
1
1
1
1
1
1
1
1
1.00002
1.00001
1.00021
1.00031
1.00187
1.0021
1.01446
1.00602
1.07939
1.18613
1.60954
2.37755
2.60082
2.67157
2.65338
2.6355
2.62209
2.6171
2.61477
2.61206
2.60867
2.60496
2.6008
2.59659
2.59184
2.58706
2.58184
2.57664
2.57135
2.56605
2.56091
2.55564
2.55064
2.54542
2.54046
2.53529
2.5302
2.52506
2.51979
2.51505
1
1
1
1
1
1
1
1
1
1.00001
1.00001
1.00009
1.00006
1.00075
1.00116
1.00659
1.0042
1.02326
1.04828
1.18712
1.43594
2.02724
2.52936
2.67873
2.65427
2.63601
2.61732
2.61065
2.60884
2.6072
2.6048
2.60189
2.5987
2.59554
2.59197
2.58833
2.58442
2.58026
2.57595
2.57143
2.56688
2.56221
2.5576
2.55286
2.54819
2.54347
2.53867
2.53397
2.52903
2.52457
1
1
1
1
1
1
1
1
1
1
1.00001
1.00004
1.00003
1.0003
1.00044
1.0032
1.00251
1.01859
1.03621
1.13609
1.33839
1.8105
2.54763
2.68833
2.65709
2.62865
2.60518
2.59675
2.59513
2.59435
2.59283
2.59068
2.58836
2.58621
2.58399
2.58164
2.57891
2.57588
2.57248
2.56891
2.56501
2.56101
2.55688
2.55261
2.54831
2.54392
2.5395
2.53506
2.53054
2.52639
1
1
1
1
1
1
1
1
1
1
1
1.00003
1.00003
1.00023
1.00036
1.00219
1.00211
1.01532
1.024
1.11934
1.29762
1.79346
2.57626
2.70456
2.66591
2.6447
2.61755
2.60675
2.60374
2.60179
2.5991
2.59561
2.59191
2.58849
2.5852
2.58213
2.57892
2.57564
2.57206
2.56842
2.56458
2.56069
2.55668
2.5527
2.54857
2.54451
2.54034
2.53624
2.53206
2.52823
1
1
1
1
1
1
1
1
1
1
1.00001
1.00004
1.00003
1.00034
1.0005
1.00293
1.00238
1.01239
1.0112
1.10589
1.26557
1.76761
2.56983
2.68936
2.66878
2.6526
2.62617
2.6141
2.6105
2.60801
2.60528
2.60148
2.59772
2.59411
2.59056
2.58712
2.58343
2.57972
2.5758
2.57178
2.56772
2.56367
2.55952
2.55554
2.55147
2.54754
2.54355
2.53964
2.5357
2.53215
1
1
1
1
1
1
1
1
1
1
1
1.00003
1.00003
1.00024
1.00038
1.00217
1.00188
1.01358
1.00762
1.09448
1.2439
1.74021
2.5402
2.67967
2.67728
2.65811
2.63348
2.62161
2.61829
2.61529
2.61237
2.60827
2.60422
2.60019
2.59623
2.5923
2.58829
2.58411
2.5799
2.57552
2.57119
2.5668
2.56248
2.5582
2.55399
2.54981
2.54574
2.54166
2.53766
2.53397
1
1
1
1
1
1
1
1
1
1
1.00001
1.00004
1.00003
1.00029
1.00046
1.00259
1.00243
1.01867
1.00243
1.0964
1.22849
1.70953
2.50917
2.67049
2.6807
2.66343
2.63867
2.62671
2.62329
2.62051
2.61796
2.61403
2.61027
2.60604
2.60206
2.59783
2.59377
2.58944
2.58528
2.58088
2.57666
2.57222
2.56799
2.56359
2.55939
2.55508
2.55093
2.54674
2.54261
2.53882
1
1
1
1
1
1
1
1
1
1
1
1.00003
1.00002
1.00024
1.00039
1.00223
1.00221
1.01713
1.00725
1.09014
1.2236
1.67701
2.4753
2.65554
2.68336
2.66613
2.64232
2.62976
2.62642
2.6236
2.62103
2.61698
2.61312
2.60876
2.60483
2.60048
2.59656
2.59222
2.58822
2.58397
2.57989
2.57574
2.57163
2.56756
2.56343
2.55941
2.55528
2.5513
2.54716
2.5435
1
1
1
1
1
1
1
1
1
1
1
1.00003
1.00001
1.00029
1.00043
1.00285
1.00187
1.01836
1.00372
1.08676
1.19653
1.65616
2.43938
2.64038
2.68679
2.66878
2.64673
2.63338
2.62885
2.62565
2.62261
2.61865
2.61453
2.61024
2.60596
2.60164
2.59742
2.59322
2.58905
2.58503
2.58087
2.57696
2.57274
2.56893
2.56467
2.56087
2.55663
2.55281
2.54863
2.54508
1
1
1
1
1
1
1
1
1
1
1
1.00002
1.00002
1.0002
1.00025
1.0016
1.00189
1.0147
1.00686
1.08473
1.19269
1.62492
2.4003
2.63209
2.6955
2.67668
2.65362
2.63926
2.6336
2.63058
2.62669
2.62259
2.61762
2.613
2.60816
2.60384
2.59928
2.59535
2.59103
2.58731
2.58303
2.5793
2.57501
2.57118
2.56692
2.563
2.55883
2.55487
2.5507
2.54703
1
1
1
1
1
1
1
1
1
1
1.00001
1.00001
1.00006
1.00005
1.00049
1.00065
1.00519
1.00339
1.02971
1.06336
1.21879
1.54146
2.12121
2.59643
2.69673
2.67248
2.64756
2.63032
2.62354
2.62157
2.61881
2.6155
2.61144
2.60707
2.60252
2.59826
2.59359
2.58955
2.58506
2.5811
2.57692
2.57297
2.56903
2.56512
2.56121
2.55736
2.55336
2.54954
2.54547
2.54196
1
1
1
1
1
1
1
1
1
1
1.00001
1.00001
1.00005
1.00007
1.00042
1.0005
1.00407
1.00051
1.02338
1.05196
1.18349
1.45386
1.99412
2.55057
2.70266
2.66935
2.64147
2.6181
2.60907
2.60636
2.60368
2.60018
2.59596
2.59168
2.58761
2.58379
2.58015
2.57664
2.57304
2.56954
2.56589
2.56235
2.5587
2.55515
2.55148
2.54789
2.54419
2.54058
2.53688
2.5335
1
1
1
1
1
1
1
1
1
1
1
1.00002
1.00002
1.00015
1.00019
1.00125
1.00161
1.01364
1.00309
1.08167
1.16109
1.60517
2.3438
2.63404
2.70862
2.69016
2.66055
2.64673
2.64094
2.63747
2.63271
2.62728
2.62119
2.61553
2.60973
2.60473
2.59935
2.59466
2.58972
2.58514
2.58058
2.57621
2.57193
2.56782
2.56364
2.55972
2.5556
2.55177
2.54768
2.54412
1
1
1
1
1
1
1
1
1
1
1.00001
1
1.00005
1.00005
1.0004
1.00047
1.0039
1.0013
1.02258
1.04665
1.18398
1.44326
1.97997
2.55898
2.71247
2.68122
2.65115
2.62818
2.62014
2.6175
2.61396
2.61017
2.6053
2.60052
2.59583
2.59085
2.58613
2.58141
2.57675
2.57261
2.56828
2.56447
2.56039
2.5566
2.5526
2.54874
2.54479
2.54094
2.53708
2.53352
2.13447
2.65115
2.70047
2.98615
3.07524
3.02062
3.00955
2.99761
2.99737
2.99868
2.99897
2.99722
2.99654
2.99563
2.9955
2.99367
2.99206
2.98919
2.98535
2.98205
2.9784
2.97439
2.97041
2.96611
2.95929
2.95572
2.94875
2.94286
2.93616
2.92923
2.92126
2.91362
2.90545
2.89746
2.88913
2.88092
2.87234
2.863
2.85281
2.84335
2.83367
2.8242
2.81447
2.80491
2.79511
2.78557
2.77605
2.76643
2.75716
2.74766
2.73851
2.72931
2.72037
2.71147
2.70274
2.69419
2.68593
2.67782
2.67004
2.6625
2.65525
2.64838
2.64186
2.63583
2.63019
2.62513
2.62039
2.61649
2.61285
2.61021
2.60796
2.6066
2.60585
2.60599
2.60648
2.60722
2.60817
2.61016
2.61297
2.61685
2.62082
2.62507
2.62913
2.63329
2.63693
2.64107
2.64386
2.64723
2.64899
2.6513
2.65223
2.65379
2.65424
2.65483
2.65513
2.65532
2.6553
2.65529
2.655
2.653
2.15998
2.44695
2.53764
2.73323
2.85707
2.95234
3.00717
3.05706
3.06947
3.09585
3.11883
3.12803
3.14344
3.14073
3.13329
3.11922
3.09749
3.07157
3.0418
3.01108
2.983
2.95526
2.92814
2.90186
2.87593
2.85141
2.82728
2.80494
2.78361
2.76405
2.74568
2.72845
2.71256
2.69749
2.68388
2.67092
2.65863
2.64617
2.63336
2.62103
2.60872
2.59675
2.58498
2.57343
2.5625
2.55201
2.54208
2.53261
2.52376
2.51525
2.5074
2.49954
2.49245
2.48512
2.47835
2.47142
2.46462
2.45788
2.45078
2.44405
2.43676
2.42993
2.42279
2.41628
2.40991
2.40417
2.39897
2.3942
2.39031
2.38677
2.38403
2.38193
2.38047
2.37969
2.37954
2.37918
2.37935
2.38008
2.38172
2.38438
2.3874
2.39066
2.39414
2.39753
2.40112
2.40427
2.40746
2.41016
2.41237
2.41432
2.41539
2.41647
2.41659
2.41651
2.41626
2.41558
2.41502
2.41403
2.41322
2.40963
2.2248
2.27958
2.36891
2.43152
2.48372
2.54125
2.59367
2.64175
2.67438
2.70124
2.72146
2.73308
2.7355
2.73353
2.72811
2.721
2.70944
2.69686
2.68395
2.67113
2.65853
2.64634
2.63472
2.6235
2.61235
2.60083
2.58912
2.57757
2.56676
2.55684
2.54786
2.53954
2.53112
2.52258
2.51391
2.50523
2.49661
2.48712
2.47723
2.46685
2.45677
2.44632
2.43567
2.42442
2.413
2.4011
2.38918
2.37719
2.36535
2.35395
2.34295
2.33258
2.32291
2.31383
2.30575
2.29832
2.29191
2.28638
2.2816
2.27773
2.27447
2.27194
2.2697
2.268
2.2664
2.26492
2.26418
2.26313
2.26298
2.26313
2.26354
2.26438
2.26554
2.26729
2.26885
2.27009
2.27145
2.27269
2.27506
2.27696
2.27949
2.28128
2.28338
2.28469
2.28598
2.28671
2.2872
2.28726
2.28709
2.28658
2.2859
2.28498
2.28365
2.28234
2.28105
2.27992
2.27881
2.27827
2.27783
2.27584
2.2618
2.2513
2.27705
2.30653
2.32909
2.35046
2.36993
2.39097
2.40888
2.42378
2.4347
2.44188
2.44473
2.44532
2.44609
2.44631
2.44644
2.44645
2.4465
2.44669
2.44664
2.44677
2.44654
2.44647
2.44645
2.44658
2.44724
2.44828
2.44842
2.4482
2.44757
2.44628
2.44457
2.44192
2.43867
2.43438
2.42994
2.42386
2.41724
2.40931
2.40163
2.39348
2.38524
2.37621
2.3669
2.35651
2.34598
2.33444
2.32284
2.31057
2.29845
2.28618
2.27433
2.26281
2.25179
2.24152
2.23192
2.22315
2.21529
2.20811
2.20174
2.19623
2.19127
2.18686
2.18334
2.18028
2.17727
2.17544
2.17526
2.17561
2.17668
2.17898
2.18276
2.18736
2.19209
2.19722
2.20147
2.20677
2.21216
2.21743
2.22256
2.22748
2.23165
2.23549
2.23862
2.2408
2.24261
2.24359
2.2436
2.24331
2.24256
2.24095
2.23954
2.23665
2.23499
2.23156
2.22978
2.2261
2.22443
2.21816
2.28003
2.25554
2.24875
2.24983
2.2525
2.25507
2.25867
2.26332
2.26954
2.27565
2.28019
2.28272
2.28382
2.28549
2.28809
2.29137
2.29444
2.29766
2.30108
2.30425
2.3069
2.31012
2.31252
2.3152
2.31708
2.31951
2.32019
2.3211
2.32094
2.32056
2.31988
2.31848
2.31704
2.3148
2.31326
2.31144
2.31022
2.30813
2.30577
2.30232
2.29908
2.29521
2.29153
2.28708
2.28253
2.27735
2.2716
2.26526
2.25811
2.25044
2.24204
2.23337
2.22425
2.21516
2.2062
2.19757
2.18961
2.18211
2.17542
2.16916
2.16353
2.1583
2.15352
2.14924
2.14543
2.1423
2.13979
2.13789
2.13635
2.13533
2.13428
2.13373
2.13327
2.13329
2.13339
2.13355
2.13412
2.13533
2.13759
2.14004
2.14288
2.14632
2.14924
2.15285
2.15545
2.15853
2.16055
2.16277
2.16393
2.16525
2.16566
2.16615
2.16602
2.16574
2.16536
2.16493
2.16465
2.1644
2.16443
2.16245
2.3033
2.26938
2.25022
2.2349
2.2228
2.21352
2.20575
2.20083
2.19769
2.19687
2.19698
2.19739
2.19745
2.19736
2.19817
2.20031
2.20373
2.20714
2.21172
2.21527
2.2204
2.22406
2.22909
2.23282
2.2371
2.2402
2.24376
2.24639
2.24849
2.25049
2.25141
2.25144
2.25117
2.25053
2.24952
2.24851
2.24742
2.24605
2.24407
2.24172
2.23937
2.23707
2.23491
2.23278
2.23058
2.22815
2.22512
2.22139
2.2165
2.21063
2.20363
2.19586
2.18758
2.17897
2.17052
2.16214
2.15429
2.14682
2.13998
2.13368
2.12801
2.12281
2.11823
2.114
2.11017
2.10678
2.10341
2.1008
2.09811
2.09646
2.09488
2.0946
2.09493
2.09556
2.09699
2.09792
2.09984
2.10224
2.10525
2.10836
2.11179
2.11524
2.11875
2.12202
2.12518
2.128
2.13041
2.13266
2.13414
2.13545
2.1362
2.13632
2.13606
2.13533
2.13476
2.13345
2.13271
2.13116
2.13065
2.12715
2.33328
2.29817
2.26574
2.24236
2.22113
2.20327
2.18804
2.17599
2.16639
2.15964
2.15519
2.15197
2.15068
2.14968
2.14943
2.14941
2.15183
2.15568
2.16038
2.16546
2.17113
2.1769
2.18239
2.18795
2.1926
2.19809
2.20128
2.20562
2.20795
2.21082
2.21179
2.21344
2.21367
2.21361
2.21338
2.2129
2.21214
2.21092
2.20897
2.2062
2.20315
2.20023
2.19758
2.19517
2.19272
2.19037
2.18791
2.18538
2.18257
2.17924
2.17532
2.17057
2.16514
2.15904
2.15244
2.1457
2.13874
2.13223
2.12572
2.12003
2.11436
2.10952
2.10477
2.10043
2.09652
2.09253
2.08924
2.0859
2.08289
2.08038
2.07809
2.07631
2.07515
2.07449
2.07343
2.07336
2.07378
2.07468
2.07653
2.07852
2.08125
2.08421
2.08754
2.09102
2.09442
2.09787
2.10085
2.10389
2.10604
2.10844
2.10955
2.11115
2.11151
2.11168
2.11169
2.11151
2.11128
2.1107
2.11059
2.10798
2.35682
2.32511
2.29372
2.2634
2.23643
2.21317
2.19269
2.17541
2.16154
2.15008
2.14188
2.13549
2.13139
2.12903
2.1278
2.12787
2.12817
2.13023
2.13457
2.13976
2.14613
2.15158
2.1578
2.16309
2.16886
2.17295
2.17794
2.18142
2.18438
2.187
2.18879
2.19043
2.19081
2.19079
2.19068
2.19046
2.18996
2.18886
2.18691
2.18448
2.18148
2.17819
2.17469
2.17128
2.16795
2.16484
2.16174
2.15876
2.15577
2.1525
2.14922
2.14528
2.14136
2.13678
2.13217
2.12726
2.12226
2.11736
2.11242
2.10784
2.10319
2.09911
2.09493
2.09112
2.08762
2.08392
2.08081
2.07767
2.07467
2.07212
2.06978
2.06804
2.06615
2.06541
2.06402
2.06301
2.06308
2.06354
2.06457
2.06621
2.06833
2.07084
2.07382
2.07682
2.08015
2.0833
2.08619
2.08895
2.09109
2.09266
2.09405
2.09456
2.09446
2.0941
2.09371
2.09268
2.09202
2.09057
2.09006
2.08648
2.37498
2.3471
2.3193
2.28953
2.26175
2.23526
2.21193
2.19102
2.17315
2.15827
2.14591
2.13688
2.12974
2.12519
2.12202
2.12078
2.12102
2.12174
2.12334
2.1277
2.13254
2.13823
2.14312
2.14815
2.15273
2.15692
2.16097
2.16385
2.16732
2.16908
2.17138
2.17212
2.17312
2.17303
2.17298
2.17282
2.17239
2.17148
2.16974
2.16734
2.1644
2.16122
2.15754
2.15381
2.14985
2.14604
2.14228
2.13868
2.13521
2.13176
2.12854
2.1251
2.12208
2.11856
2.11561
2.11211
2.10891
2.10552
2.10199
2.09856
2.09497
2.09145
2.08805
2.08464
2.08149
2.07846
2.07557
2.07293
2.07073
2.06807
2.0668
2.06485
2.06362
2.06262
2.06149
2.06028
2.06023
2.06051
2.0612
2.0624
2.06392
2.06577
2.06774
2.07006
2.07219
2.07438
2.07632
2.07767
2.0789
2.07936
2.0793
2.07898
2.07826
2.07699
2.07615
2.07443
2.07338
2.07158
2.07101
2.06758
2.39176
2.36756
2.34169
2.31397
2.28611
2.25945
2.23457
2.21221
2.19219
2.17522
2.16079
2.14903
2.13956
2.13267
2.12767
2.12452
2.12273
2.12216
2.12241
2.12294
2.12555
2.12896
2.13318
2.13751
2.14151
2.14518
2.14903
2.15165
2.15495
2.15662
2.15897
2.15953
2.16064
2.16037
2.16029
2.16013
2.15975
2.15889
2.15756
2.15561
2.15321
2.15032
2.14696
2.14329
2.13932
2.13524
2.13105
2.12682
2.12265
2.11852
2.11457
2.11082
2.10738
2.10411
2.10129