/*--------------------------------*- C++ -*----------------------------------*\
| =========                 |                                                 |
| \\      /  F ield         | OpenFOAM: The Open Source CFD Toolbox           |
|  \\    /   O peration     | Version:  2112                                  |
|   \\  /    A nd           | Website:  www.openfoam.com                      |
|    \\/     M anipulation  |                                                 |
\*---------------------------------------------------------------------------*/
FoamFile
{
    version     2.0;
    format      ascii;
    arch        "LSB;label=32;scalar=64";
    class       volVectorField;
    location    "10.0005";
    object      U;
}
// * * * * * * * * * * * * * * * * * * * * * * * * * * * * * * * * * * * * * //

dimensions      [0 1 -1 0 0 0 0];

internalField   nonuniform List<vector> 
7000
(
(3 -6.73786e-07 0.000805018)
(3 -1.33709e-06 0.000764317)
(3 -1.90875e-06 0.000723836)
(2.99999 -2.51952e-06 0.000683751)
(2.99995 -4.1504e-06 0.000644276)
(2.99981 -6.68959e-06 0.000606449)
(2.99954 -8.06199e-06 0.000570395)
(2.99877 -1.35852e-05 0.000543887)
(2.99733 -1.06252e-05 0.000524568)
(2.99309 -5.39562e-05 0.00056952)
(2.98677 3.88639e-06 0.000604874)
(2.95564 -0.000722606 0.0013554)
(2.90118 -0.000599162 0.00203887)
(2.71116 -0.00263133 0.00670211)
(2.14279 -0.0148661 0.0135395)
(1.14434 -0.0237056 0.0228752)
(0.430515 -0.0200123 0.00799732)
(0.618085 -0.00718177 -0.00170583)
(0.740062 -0.003891 -0.00118445)
(0.757214 -0.00435062 2.44872e-05)
(0.735146 -0.00543675 0.000415185)
(0.704088 -0.0052378 0.000413598)
(0.678446 -0.00462489 0.000221125)
(0.660245 -0.00393667 8.57356e-07)
(0.644085 -0.00331979 -0.000150679)
(0.62705 -0.00275662 -0.000266613)
(0.608834 -0.00219611 -0.000380888)
(0.589915 -0.00160247 -0.00050295)
(0.570511 -0.000972657 -0.000630233)
(0.550605 -0.000312207 -0.000758815)
(0.530136 0.000381523 -0.000888792)
(0.50899 0.00109361 -0.00102066)
(0.487179 0.00182033 -0.00115454)
(0.464716 0.00254577 -0.00129208)
(0.441647 0.00325274 -0.00143113)
(0.418108 0.00393803 -0.00157216)
(0.39414 0.00459101 -0.00171512)
(0.369814 0.00522129 -0.00185892)
(0.345187 0.00583965 -0.00200444)
(0.320278 0.00645453 -0.00215042)
(0.295101 0.00708906 -0.00229776)
(0.269568 0.00776177 -0.00244617)
(0.24364 0.00850558 -0.00259447)
(0.217215 0.00936218 -0.00274371)
(0.1901 0.0103678 -0.0028936)
(0.162148 0.0116272 -0.00304491)
(0.132515 0.0132298 -0.00320199)
(0.101514 0.0154201 -0.00335482)
(0.0654942 0.0191552 -0.00351332)
(0.0326571 0.027167 -0.00370193)
(3 -8.5063e-07 0.000777207)
(3 -1.72244e-06 0.000737862)
(3 -2.54544e-06 0.000698734)
(2.99999 -3.27225e-06 0.000659997)
(2.99995 -6.57173e-06 0.000621845)
(2.99982 -9.81618e-06 0.000585256)
(2.99955 -9.25244e-06 0.000550338)
(2.9988 -6.05926e-06 0.000524445)
(2.99739 2.39536e-05 0.000505325)
(2.99325 3.74265e-05 0.000546719)
(2.98707 0.000251116 0.00058007)
(2.95678 -0.000271542 0.0012824)
(2.90493 0.00103105 0.00189354)
(2.71792 0.00132423 0.0063859)
(2.1644 -0.00582768 0.012752)
(1.17705 -0.00337369 0.022254)
(0.436417 0.00726027 0.00796061)
(0.609537 0.023195 -0.00145427)
(0.72917 0.0236551 -0.00110046)
(0.747232 0.0204029 1.18374e-05)
(0.726431 0.0175344 0.000381075)
(0.696133 0.0176626 0.000385732)
(0.670229 0.0185289 0.000213628)
(0.651608 0.0192254 3.741e-06)
(0.635107 0.0196754 -0.000143725)
(0.617755 0.020046 -0.000256701)
(0.599187 0.0204443 -0.000367129)
(0.579883 0.0209242 -0.000484459)
(0.560091 0.0214648 -0.00060673)
(0.539838 0.0220592 -0.000730437)
(0.519092 0.0227187 -0.000855825)
(0.497768 0.0234072 -0.000983032)
(0.475901 0.0241318 -0.00111196)
(0.453492 0.0248634 -0.00124406)
(0.430566 0.0255803 -0.00137725)
(0.407217 0.0262848 -0.00151238)
(0.383438 0.0269529 -0.00164938)
(0.359269 0.0276056 -0.00178727)
(0.334727 0.0282561 -0.0019269)
(0.309824 0.0289132 -0.00206693)
(0.284568 0.0296166 -0.00220844)
(0.258875 0.0303931 -0.00235077)
(0.232729 0.0312908 -0.00249292)
(0.206031 0.0323839 -0.00263586)
(0.178631 0.0337363 -0.00277924)
(0.150419 0.0355575 -0.00292417)
(0.120533 0.0379792 -0.00307319)
(0.0897668 0.0413391 -0.00321677)
(0.0545888 0.0467307 -0.00336916)
(0.0248504 0.05635 -0.0035369)
(3 -6.09729e-07 0.000748283)
(3 -1.39191e-06 0.000710352)
(3 -2.50995e-06 0.000672635)
(2.99999 -4.08408e-06 0.00063531)
(2.99995 -8.13978e-06 0.000598539)
(2.99982 -1.18328e-05 0.000563256)
(2.99955 -1.27758e-05 0.000529557)
(2.99881 -1.20946e-05 0.000504432)
(2.99743 1.07434e-05 0.000485732)
(2.99336 1.26657e-05 0.000524452)
(2.98723 0.000174829 0.000556533)
(2.9574 -0.000352873 0.00122066)
(2.90674 0.000265449 0.00178975)
(2.72123 -0.00162388 0.00610193)
(2.17314 -0.010526 0.0121773)
(1.18351 -0.0188123 0.0216145)
(0.423316 -0.00977032 0.00774131)
(0.595987 0.0099013 -0.00134422)
(0.715108 0.0135012 -0.00101766)
(0.734159 0.0119404 5.59775e-06)
(0.714821 0.010289 0.000347861)
(0.685572 0.0115701 0.000356212)
(0.659627 0.013824 0.000204232)
(0.640752 0.0158867 6.11529e-06)
(0.624155 0.017624 -0.00013713)
(0.606812 0.0192459 -0.000247224)
(0.588283 0.0208934 -0.000353647)
(0.569007 0.0226348 -0.000466209)
(0.549224 0.0244428 -0.00058323)
(0.528997 0.0263187 -0.000701823)
(0.508291 0.0282709 -0.000822485)
(0.487042 0.0302469 -0.00094443)
(0.46531 0.0322499 -0.00106807)
(0.443083 0.0342342 -0.00119432)
(0.420391 0.0361803 -0.00132126)
(0.397291 0.0380932 -0.00145035)
(0.37375 0.0399466 -0.00158092)
(0.349799 0.041773 -0.00171252)
(0.325425 0.0435843 -0.00184599)
(0.300639 0.0454004 -0.00197951)
(0.275449 0.0472765 -0.00211449)
(0.249766 0.0492523 -0.00225037)
(0.223602 0.0514116 -0.00238593)
(0.196877 0.0538555 -0.00252254)
(0.169528 0.0566971 -0.00265909)
(0.141476 0.0602136 -0.00279802)
(0.111906 0.0645842 -0.00293944)
(0.0821497 0.0701629 -0.00307442)
(0.0488162 0.0778717 -0.00321958)
(0.0207826 0.0895991 -0.00337585)
(3 -6.94646e-07 0.0007182)
(3 -1.63855e-06 0.000681745)
(3 -3.72174e-06 0.000645502)
(2.99999 -6.86424e-06 0.00060964)
(2.99995 -1.0894e-05 0.000574302)
(2.99982 -1.37982e-05 0.000540377)
(2.99956 -1.2517e-05 0.000507937)
(2.99884 -7.22999e-06 0.000483565)
(2.99749 2.68969e-05 0.000465203)
(2.9935 5.30732e-05 0.00050081)
(2.9875 0.000273459 0.00053026)
(2.95824 -4.59067e-05 0.00115503)
(2.90906 0.000582424 0.00167826)
(2.72619 -0.000613317 0.00578007)
(2.18878 -0.00791881 0.0114921)
(1.2104 -0.0119568 0.02075)
(0.447255 0.00846964 0.00756918)
(0.601597 0.0292819 -0.00112447)
(0.715082 0.0324605 -0.000926483)
(0.733591 0.0303906 3.85073e-06)
(0.715185 0.0284876 0.000317319)
(0.686632 0.0296703 0.000327775)
(0.660108 0.0318278 0.000194637)
(0.640162 0.0337543 9.34052e-06)
(0.622601 0.035352 -0.000129144)
(0.604466 0.0368728 -0.000236262)
(0.585222 0.0384742 -0.000338641)
(0.565246 0.040204 -0.000446263)
(0.54478 0.0420295 -0.000558021)
(0.523926 0.0439571 -0.000671517)
(0.50266 0.0459888 -0.000787095)
(0.480936 0.0480871 -0.000903566)
(0.45882 0.0502542 -0.00102169)
(0.436284 0.0524468 -0.00114204)
(0.413356 0.0546568 -0.00126296)
(0.390062 0.0568836 -0.00138609)
(0.366359 0.0591067 -0.00151034)
(0.342272 0.0613584 -0.00163573)
(0.317765 0.0636422 -0.00176287)
(0.292864 0.0659844 -0.0018899)
(0.267573 0.0684431 -0.00201843)
(0.241817 0.071073 -0.00214729)
(0.215634 0.0739955 -0.00227627)
(0.188948 0.0773355 -0.00240615)
(0.161791 0.081222 -0.00253578)
(0.134135 0.08593 -0.00266824)
(0.105193 0.091665 -0.00280137)
(0.0766272 0.0987575 -0.00292747)
(0.0452301 0.107828 -0.00306682)
(0.0185096 0.120428 -0.00321043)
(3 1.2538e-07 0.000686906)
(3 3.35165e-07 0.000651992)
(3 -3.61289e-06 0.000617287)
(2.99999 -8.09935e-06 0.000582947)
(2.99995 -1.28366e-05 0.000549102)
(2.99982 -1.55392e-05 0.000516595)
(2.99957 -1.32215e-05 0.000485471)
(2.99886 -5.32687e-06 0.000461904)
(2.99755 3.33241e-05 0.000443919)
(2.99365 6.84617e-05 0.000476452)
(2.98781 0.000301776 0.000502671)
(2.95899 3.59072e-05 0.00109191)
(2.91134 0.00058668 0.00156643)
(2.73065 -0.000540767 0.00546963)
(2.20154 -0.00820925 0.0108498)
(1.22754 -0.0135841 0.0199573)
(0.45167 0.00337057 0.00733438)
(0.596959 0.0281737 -0.000965654)
(0.706996 0.0310199 -0.000830581)
(0.726239 0.029768 1.8628e-06)
(0.709837 0.0291133 0.000284339)
(0.682936 0.0320315 0.000297076)
(0.656658 0.035578 0.000183608)
(0.63651 0.0386832 1.10648e-05)
(0.618855 0.0414042 -0.000122561)
(0.600754 0.0440385 -0.000226413)
(0.58156 0.046743 -0.000324472)
(0.561579 0.0495476 -0.000426952)
(0.541061 0.0524171 -0.000533305)
(0.520143 0.0553601 -0.000641557)
(0.4988 0.0583662 -0.000751631)
(0.476997 0.0614086 -0.000862252)
(0.454789 0.0644899 -0.000974528)
(0.432136 0.0675751 -0.0010885)
(0.409068 0.0706699 -0.00120326)
(0.385593 0.0737706 -0.0013201)
(0.36168 0.0768671 -0.00143782)
(0.337359 0.0799905 -0.001557)
(0.312595 0.0831412 -0.00167746)
(0.287436 0.0863534 -0.00179795)
(0.261897 0.0896788 -0.00191997)
(0.235934 0.0931813 -0.00204203)
(0.20962 0.0969829 -0.00216437)
(0.182882 0.101232 -0.0022869)
(0.155825 0.106106 -0.00240842)
(0.128463 0.111865 -0.00253353)
(0.100077 0.118701 -0.00265994)
(0.0725345 0.126874 -0.00277979)
(0.0426954 0.136827 -0.00291063)
(0.0169827 0.149687 -0.00304599)
(3 5.33247e-07 0.000654347)
(3 1.28958e-06 0.000621047)
(3 -2.05752e-06 0.000587947)
(2.99999 -6.51483e-06 0.000555186)
(2.99995 -1.13204e-05 0.000522898)
(2.99982 -1.43486e-05 0.000491869)
(2.99958 -1.13522e-05 0.00046212)
(2.99889 -1.6747e-06 0.000439407)
(2.99761 4.27409e-05 0.000421847)
(2.99381 9.0049e-05 0.000451301)
(2.98814 0.000351616 0.000474534)
(2.95984 0.000146988 0.00102583)
(2.91374 0.00086121 0.0014545)
(2.73562 -6.20676e-05 0.00514414)
(2.21668 -0.00651357 0.0101676)
(1.25218 -0.00972143 0.0190535)
(0.470565 0.0142621 0.00708809)
(0.598775 0.0416415 -0.000772662)
(0.701661 0.0405403 -0.000728581)
(0.721695 0.039624 -9.26721e-06)
(0.707166 0.0400224 0.000249851)
(0.681404 0.0442332 0.000268898)
(0.65458 0.0483751 0.000176683)
(0.633647 0.0517168 1.48855e-05)
(0.615522 0.0546389 -0.000114837)
(0.597217 0.0575515 -0.00021552)
(0.577938 0.0605951 -0.000309137)
(0.557919 0.0637674 -0.000406425)
(0.537413 0.0670289 -0.000507331)
(0.516568 0.0703967 -0.000610122)
(0.495331 0.0738591 -0.000714473)
(0.473656 0.0774053 -0.00081909)
(0.451564 0.081036 -0.000925237)
(0.428993 0.0847196 -0.00103293)
(0.405965 0.088463 -0.00114132)
(0.382468 0.0922531 -0.00125184)
(0.358486 0.0960827 -0.00136296)
(0.334047 0.0999695 -0.00147562)
(0.309123 0.103904 -0.00158946)
(0.283778 0.107918 -0.00170305)
(0.258032 0.112054 -0.00181806)
(0.231863 0.116381 -0.00193309)
(0.205378 0.121009 -0.00204847)
(0.178548 0.12607 -0.00216479)
(0.15155 0.131762 -0.00227992)
(0.124423 0.138352 -0.002397)
(0.0964698 0.146007 -0.00251419)
(0.0696605 0.154958 -0.00262479)
(0.0409357 0.16554 -0.00275227)
(0.0159882 0.178429 -0.00287535)
(3 2.50379e-07 0.000620472)
(3 5.34194e-07 0.000588848)
(3 1.70206e-07 0.000557423)
(2.99998 -2.33187e-06 0.00052632)
(2.99994 -5.53932e-06 0.000495658)
(2.99983 -8.00881e-06 0.000466169)
(2.99959 -3.57275e-06 0.000437856)
(2.99892 8.01824e-06 0.000416039)
(2.99768 5.96116e-05 0.000398931)
(2.99399 0.000122318 0.000425243)
(2.98851 0.000422339 0.000445149)
(2.96074 0.000319674 0.000959103)
(2.91632 0.00110775 0.0013407)
(2.74089 0.000524831 0.00481248)
(2.23238 -0.00520707 0.00947833)
(1.27744 -0.00755056 0.0181095)
(0.489161 0.019152 0.00681461)
(0.598735 0.0490773 -0.00056927)
(0.69358 0.0454868 -0.000614572)
(0.716693 0.0455047 -3.78164e-05)
(0.704582 0.0471844 0.000211756)
(0.679989 0.0526055 0.00024078)
(0.652382 0.0578521 0.000171438)
(0.630606 0.0619032 1.87105e-05)
(0.612142 0.0654485 -0.000108125)
(0.593833 0.0690554 -0.000205619)
(0.574657 0.0728223 -0.000294493)
(0.554755 0.0767062 -0.000386229)
(0.534396 0.0806687 -0.000481315)
(0.513733 0.0847439 -0.000578346)
(0.492695 0.0889276 -0.000676543)
(0.471224 0.0932177 -0.000774941)
(0.449309 0.0976145 -0.000874819)
(0.426882 0.102092 -0.000975783)
(0.403959 0.106658 -0.00107785)
(0.380518 0.111293 -0.00118161)
(0.356551 0.115988 -0.00128601)
(0.33208 0.12075 -0.00139193)
(0.307079 0.125565 -0.00149858)
(0.281626 0.130453 -0.00160557)
(0.255746 0.135443 -0.00171345)
(0.229438 0.140605 -0.00182123)
(0.202811 0.146058 -0.00192927)
(0.175869 0.151919 -0.00203768)
(0.148843 0.158362 -0.00214586)
(0.121788 0.165639 -0.00225699)
(0.0941017 0.173899 -0.00236563)
(0.0678088 0.183364 -0.00247064)
(0.0398089 0.19439 -0.00258799)
(0.0152778 0.207222 -0.00270515)
(3 1.33963e-07 0.000585221)
(3 2.46149e-07 0.000555346)
(3 8.1527e-07 0.000525667)
(2.99998 -4.404e-07 0.000496295)
(2.99994 -2.11266e-06 0.000467332)
(2.99983 -2.73672e-06 0.000439451)
(2.9996 4.79985e-06 0.000412641)
(2.99895 2.10946e-05 0.000391768)
(2.99776 8.39214e-05 0.000375151)
(2.99419 0.000168556 0.000398283)
(2.98893 0.000514603 0.000414747)
(2.96172 0.000513139 0.000890968)
(2.91908 0.00146059 0.00122621)
(2.74654 0.00116896 0.00447251)
(2.24911 -0.00359588 0.0087759)
(1.30538 -0.00479817 0.0170995)
(0.510918 0.0261359 0.00651978)
(0.599177 0.0572289 -0.000365078)
(0.684741 0.0538324 -0.000499481)
(0.711153 0.0548847 -6.72775e-05)
(0.701374 0.0575499 0.000174468)
(0.678036 0.0631986 0.000212416)
(0.64969 0.0694356 0.00016624)
(0.627006 0.0739001 2.40614e-05)
(0.60841 0.0778201 -0.000101085)
(0.590388 0.0818942 -0.000195718)
(0.571547 0.0861729 -0.000279394)
(0.551945 0.0905859 -0.000365234)
(0.531879 0.0951177 -0.000454309)
(0.511515 0.0998043 -0.000545329)
(0.490758 0.104646 -0.000637274)
(0.46955 0.109643 -0.000729265)
(0.447866 0.114794 -0.000822752)
(0.425643 0.120078 -0.000917141)
(0.402894 0.125495 -0.0010126)
(0.379586 0.131022 -0.00110955)
(0.355719 0.13664 -0.00120705)
(0.331305 0.142343 -0.00130604)
(0.306319 0.148111 -0.00140556)
(0.280835 0.153951 -0.00150516)
(0.25488 0.159873 -0.00160587)
(0.228483 0.165922 -0.00170684)
(0.201755 0.1722 -0.00180786)
(0.174708 0.178821 -0.0019085)
(0.147621 0.185952 -0.00200821)
(0.120538 0.19384 -0.00211141)
(0.0929136 0.202594 -0.00221352)
(0.0668373 0.212453 -0.00230888)
(0.0392253 0.223779 -0.00242288)
(0.0149115 0.236495 -0.00252819)
(3 2.32058e-08 0.000548534)
(3 -9.37232e-09 0.000520484)
(3 7.47669e-07 0.000492627)
(2.99998 5.06042e-08 0.00046506)
(2.99995 -4.24024e-07 0.000437869)
(2.99983 1.4102e-06 0.000411664)
(2.99961 1.41265e-05 0.000386424)
(2.999 3.93763e-05 0.000366543)
(2.99786 0.000125072 0.000350443)
(2.99442 0.000273176 0.000370401)
(2.98941 0.000643048 0.00038332)
(2.96279 0.00090918 0.000821405)
(2.92203 0.00189634 0.00111154)
(2.75258 0.00215028 0.00412557)
(2.26672 -0.00225735 0.00806332)
(1.33558 -0.00197354 0.0160274)
(0.533579 0.0336702 0.00620822)
(0.598766 0.0640558 -0.000167106)
(0.674415 0.0633346 -0.000387373)
(0.704457 0.065712 -9.15868e-05)
(0.697067 0.0694361 0.000143956)
(0.675535 0.0745898 0.000182728)
(0.646988 0.0808392 0.000156121)
(0.623408 0.085657 3.05333e-05)
(0.604908 0.0901321 -9.4033e-05)
(0.587342 0.0947817 -0.000185469)
(0.568931 0.0996338 -0.000263727)
(0.549686 0.104641 -0.000343498)
(0.529958 0.109807 -0.00042644)
(0.509919 0.115167 -0.000511281)
(0.489475 0.120726 -0.000596784)
(0.468571 0.126489 -0.00068243)
(0.447173 0.132456 -0.000769358)
(0.42522 0.138606 -0.000857037)
(0.402721 0.144932 -0.000945768)
(0.379632 0.151411 -0.00103567)
(0.355955 0.158013 -0.001126)
(0.33169 0.164721 -0.00121771)
(0.306809 0.171508 -0.00130975)
(0.281381 0.178365 -0.00140201)
(0.255421 0.185295 -0.00149489)
(0.228968 0.192314 -0.00158797)
(0.20214 0.199488 -0.00168159)
(0.17496 0.206905 -0.00177532)
(0.147739 0.214718 -0.00186786)
(0.120517 0.22316 -0.00196302)
(0.0928124 0.232349 -0.00205595)
(0.0667091 0.242497 -0.00214755)
(0.0391383 0.254073 -0.00224964)
(0.0147141 0.266651 -0.00235045)
(3 -6.98638e-08 0.000510348)
(3 -2.27081e-07 0.000484204)
(3 6.94889e-07 0.000458247)
(2.99998 5.15872e-07 0.000432564)
(2.99995 1.51103e-06 0.000407219)
(2.99984 6.28682e-06 0.000382756)
(2.99963 2.64594e-05 0.000359148)
(2.99905 6.59495e-05 0.000340264)
(2.99799 0.000187804 0.000324425)
(2.99468 0.000429366 0.00034195)
(2.99003 0.000852849 0.000349595)
(2.96399 0.00147605 0.000752033)
(2.92526 0.00251244 0.000995993)
(2.75884 0.00347844 0.00378129)
(2.28492 -0.000377497 0.00734052)
(1.36766 0.00222567 0.0149205)
(0.555689 0.0447755 0.00586944)
(0.59779 0.0689093 1.30301e-05)
(0.665261 0.0737325 -0.000287122)
(0.698432 0.0778041 -0.00010495)
(0.692933 0.0822654 0.000120368)
(0.672561 0.0868586 0.000160414)
(0.644328 0.0923429 0.000142283)
(0.620386 0.0975678 3.15027e-05)
(0.60196 0.102734 -8.72375e-05)
(0.584724 0.108004 -0.000174114)
(0.56668 0.113427 -0.000247043)
(0.547788 0.119028 -0.000320909)
(0.528421 0.124836 -0.000397677)
(0.508754 0.130888 -0.000476213)
(0.488687 0.137191 -0.000555285)
(0.468167 0.143754 -0.000634411)
(0.447145 0.150575 -0.000714636)
(0.425558 0.157638 -0.000795388)
(0.40341 0.164929 -0.000877163)
(0.380642 0.172423 -0.000959894)
(0.357251 0.180084 -0.00104295)
(0.333229 0.187882 -0.00112723)
(0.308542 0.195776 -0.00121185)
(0.283248 0.203738 -0.00129671)
(0.257352 0.211748 -0.00138184)
(0.230895 0.219817 -0.00146703)
(0.203986 0.227984 -0.00155254)
(0.176656 0.236298 -0.00163834)
(0.149216 0.244875 -0.00172389)
(0.121725 0.253911 -0.00181106)
(0.0937548 0.2635 -0.00189647)
(0.0673736 0.273933 -0.00197785)
(0.0395495 0.285692 -0.00207682)
(0.0148109 0.298098 -0.00216453)
(3 -1.2223e-07 0.000470594)
(3 -3.40348e-07 0.000446442)
(3 5.59303e-07 0.000422469)
(2.99998 8.12758e-07 0.000398749)
(2.99995 3.40776e-06 0.000375332)
(2.99985 1.12331e-05 0.000352679)
(2.99966 3.95821e-05 0.000330763)
(2.99913 9.51217e-05 0.000312895)
(2.99817 0.000258005 0.000297292)
(2.99501 0.000587027 0.000312376)
(2.9908 0.00116203 0.00031458)
(2.96536 0.00211601 0.000681613)
(2.92885 0.00337678 0.000880214)
(2.76578 0.00515438 0.00343054)
(2.30486 0.00295337 0.00660134)
(1.40492 0.00805065 0.0137242)
(0.578895 0.058877 0.00553816)
(0.596302 0.0753108 0.000176671)
(0.659787 0.0844629 -0.000230075)
(0.69324 0.0901228 -9.56198e-05)
(0.68861 0.0948856 0.000104476)
(0.668963 0.0993817 0.00014161)
(0.641266 0.104487 0.000126356)
(0.617394 0.110014 2.82185e-05)
(0.599072 0.115735 -8.08542e-05)
(0.582109 0.121554 -0.000161698)
(0.564443 0.127518 -0.000229363)
(0.545974 0.133699 -0.000297462)
(0.527061 0.140148 -0.000368041)
(0.507865 0.1469 -0.000440158)
(0.488285 0.153963 -0.000512601)
(0.468262 0.161346 -0.00058502)
(0.447739 0.169051 -0.000658422)
(0.426648 0.177062 -0.000732149)
(0.404982 0.185365 -0.000806524)
(0.382667 0.19393 -0.000881924)
(0.359689 0.202721 -0.000957296)
(0.336024 0.211699 -0.0010337)
(0.311627 0.220817 -0.00111042)
(0.286541 0.230019 -0.00118754)
(0.260773 0.239255 -0.00126507)
(0.234358 0.248513 -0.00134266)
(0.207378 0.257798 -0.00142032)
(0.179867 0.267127 -0.00149774)
(0.152132 0.276583 -0.00157482)
(0.124205 0.286338 -0.00165452)
(0.0957682 0.29644 -0.00173191)
(0.0688587 0.307151 -0.00180871)
(0.0404335 0.31914 -0.00189416)
(0.0150174 0.331415 -0.00197933)
(3 -1.0908e-07 0.000429204)
(3 -2.98364e-07 0.000407133)
(3 4.38745e-07 0.000385233)
(2.99998 1.03252e-06 0.000363561)
(2.99996 4.93289e-06 0.000342154)
(2.99987 1.55084e-05 0.000321389)
(2.9997 5.08831e-05 0.00030124)
(2.99922 0.00012127 0.000284423)
(2.9984 0.000320567 0.000269048)
(2.99545 0.000732146 0.000281391)
(2.99179 0.00145565 0.000278131)
(2.96698 0.00270698 0.000610428)
(2.93296 0.004299 0.000763972)
(2.77376 0.0067364 0.00307093)
(2.32666 0.00655146 0.00585856)
(1.44782 0.0146921 0.0124249)
(0.605203 0.0740644 0.00520843)
(0.593997 0.0864367 0.000331957)
(0.654762 0.0956496 -0.000191643)
(0.687913 0.102234 -8.3052e-05)
(0.683725 0.107482 9.2613e-05)
(0.664646 0.112251 0.000124912)
(0.637558 0.117312 0.000110561)
(0.614052 0.123037 2.32674e-05)
(0.59599 0.129162 -7.48653e-05)
(0.579366 0.135451 -0.000148672)
(0.562147 0.141917 -0.000210797)
(0.544195 0.148651 -0.000273054)
(0.525842 0.15572 -0.000337367)
(0.507228 0.16316 -0.000402938)
(0.488252 0.170984 -0.000468628)
(0.468851 0.179204 -0.000534301)
(0.448956 0.187824 -0.000600668)
(0.428495 0.196829 -0.000667254)
(0.407443 0.206202 -0.000734476)
(0.385722 0.21591 -0.000802278)
(0.3633 0.225912 -0.000870328)
(0.340139 0.236157 -0.000939016)
(0.316176 0.246596 -0.00100758)
(0.291416 0.257167 -0.00107637)
(0.26586 0.267795 -0.00114552)
(0.239535 0.278427 -0.00121498)
(0.212492 0.289031 -0.00128465)
(0.18476 0.299578 -0.00135413)
(0.15665 0.310107 -0.00142322)
(0.128178 0.320754 -0.001494)
(0.0990212 0.331525 -0.00156331)
(0.0712587 0.342712 -0.00163095)
(0.0419353 0.354976 -0.00171325)
(0.0155828 0.367157 -0.00178441)
(3 -8.36346e-08 0.000386103)
(3 -2.30098e-07 0.000366209)
(3 3.6291e-07 0.000346473)
(2.99999 1.18183e-06 0.000326939)
(2.99996 5.92661e-06 0.000307634)
(2.99989 1.8249e-05 0.000288847)
(2.99974 5.80681e-05 0.000270544)
(2.99934 0.000138138 0.000254863)
(2.99868 0.000362676 0.00023977)
(2.99596 0.00082679 0.00024945)
(2.99293 0.00160693 0.000241005)
(2.96884 0.00286352 0.000537479)
(2.93743 0.0052237 0.000650436)
(2.78257 0.00714695 0.00270271)
(2.35191 0.0103712 0.00510437)
(1.49789 0.0228825 0.0110626)
(0.635514 0.0916648 0.00486291)
(0.590498 0.100472 0.000480129)
(0.64936 0.107839 -0.000160924)
(0.682929 0.114526 -7.60422e-05)
(0.679023 0.120189 8.10002e-05)
(0.660195 0.125228 0.000109629)
(0.633563 0.130371 9.54797e-05)
(0.610496 0.136281 1.77796e-05)
(0.592767 0.142744 -6.91184e-05)
(0.576519 0.14946 -0.000135138)
(0.559794 0.156407 -0.000191279)
(0.542439 0.16368 -0.000247491)
(0.52475 0.171356 -0.000305343)
(0.506842 0.179477 -0.00036416)
(0.488606 0.188065 -0.000422979)
(0.469975 0.197132 -0.00048164)
(0.450868 0.206688 -0.000540762)
(0.431202 0.216725 -0.000599964)
(0.410935 0.227231 -0.000659628)
(0.389971 0.238172 -0.000719633)
(0.36826 0.249503 -0.000779838)
(0.345749 0.261159 -0.0008407)
(0.322366 0.273075 -0.000901718)
(0.298079 0.285177 -0.000962545)
(0.272854 0.297388 -0.00102335)
(0.246705 0.309625 -0.00108424)
(0.219648 0.321814 -0.00114553)
(0.19168 0.333881 -0.00120679)
(0.163081 0.345802 -0.00126769)
(0.133866 0.357649 -0.00133016)
(0.103792 0.369359 -0.00139153)
(0.0748603 0.381174 -0.00145266)
(0.0441179 0.393926 -0.0015207)
(0.0162899 0.406123 -0.00159022)
(3 -6.39642e-08 0.000341213)
(3 -1.83199e-07 0.000323595)
(3 3.31556e-07 0.000306122)
(2.99999 9.95074e-07 0.000288823)
(2.99997 4.99753e-06 0.000271718)
(2.99991 1.54583e-05 0.000255013)
(2.99979 4.96476e-05 0.000238674)
(2.99946 0.000115631 0.00022428)
(2.99898 0.000319714 0.000209767)
(2.99649 0.000586443 0.000217238)
(2.99401 0.00156102 0.000206173)
(2.97106 0.00268801 0.000459363)
(2.94179 0.00589829 0.000547229)
(2.79233 0.0077543 0.00231386)
(2.383 0.0149501 0.00432963)
(1.5566 0.0327828 0.00966309)
(0.669262 0.112968 0.00448922)
(0.583669 0.117044 0.000615585)
(0.641564 0.12185 -0.000135234)
(0.676679 0.128112 -7.34742e-05)
(0.673386 0.134064 6.81522e-05)
(0.654825 0.139275 9.45952e-05)
(0.628717 0.144474 8.06179e-05)
(0.606247 0.150437 1.21504e-05)
(0.589011 0.157027 -6.33928e-05)
(0.573261 0.163968 -0.000121201)
(0.55714 0.171235 -0.000170875)
(0.540501 0.178921 -0.000220748)
(0.523612 0.187108 -0.000271958)
(0.506562 0.195841 -0.000323924)
(0.489229 0.205145 -0.000375759)
(0.471544 0.215034 -0.000427317)
(0.453414 0.22552 -0.000479317)
(0.434746 0.236603 -0.000531103)
(0.41548 0.248268 -0.000583184)
(0.395503 0.260495 -0.000635435)
(0.374729 0.273244 -0.000687534)
(0.353084 0.286451 -0.000739935)
(0.330477 0.300042 -0.00079266)
(0.306846 0.313918 -0.000845535)
(0.282127 0.327981 -0.000898334)
(0.256283 0.342129 -0.000950925)
(0.229292 0.356261 -0.00100334)
(0.201122 0.370249 -0.00105597)
(0.171993 0.383999 -0.00110883)
(0.141868 0.397497 -0.0011624)
(0.110495 0.410609 -0.00121432)
(0.0799387 0.423518 -0.00126734)
(0.0473558 0.436997 -0.00133181)
(0.0175664 0.449354 -0.00138583)
(3 -3.05123e-09 0.000294452)
(3 -1.41065e-07 0.000279216)
(3 3.02153e-07 0.000264109)
(2.99999 6.42831e-07 0.000249152)
(2.99997 3.30072e-06 0.000234357)
(2.99992 1.05497e-05 0.000219873)
(2.99983 3.51205e-05 0.000205681)
(2.99955 8.10588e-05 0.000192922)
(2.99909 0.000233824 0.00018053)
(2.99702 0.000317044 0.000183152)
(2.99523 0.00154648 0.000169138)
(2.97348 0.0023492 0.000381435)
(2.94696 0.00697427 0.000445763)
(2.80356 0.00975308 0.00192376)
(2.41951 0.0211917 0.00355493)
(1.62461 0.0427001 0.00821339)
(0.704283 0.139998 0.00408816)
(0.569006 0.134476 0.000729865)
(0.628175 0.134067 -0.000116424)
(0.666933 0.139172 -7.53029e-05)
(0.664958 0.145724 5.4131e-05)
(0.646791 0.15154 8.0196e-05)
(0.621341 0.157376 6.68738e-05)
(0.599702 0.1638 7.59314e-06)
(0.583282 0.170773 -5.69129e-05)
(0.568385 0.178095 -0.000106485)
(0.553214 0.185769 -0.000149384)
(0.537625 0.193903 -0.000192504)
(0.521859 0.202602 -0.000236748)
(0.505974 0.211935 -0.000281539)
(0.489845 0.221941 -0.000326173)
(0.473392 0.232652 -0.000370548)
(0.456519 0.244085 -0.00041503)
(0.439121 0.256253 -0.000459458)
(0.421126 0.269141 -0.000503944)
(0.402414 0.282731 -0.000548595)
(0.382871 0.296991 -0.000593063)
(0.362387 0.311869 -0.000637299)
(0.340843 0.327306 -0.000681472)
(0.318135 0.343203 -0.000725666)
(0.294163 0.359446 -0.00076994)
(0.268855 0.375913 -0.000814326)
(0.242106 0.39246 -0.000858771)
(0.21381 0.408924 -0.00090241)
(0.184116 0.425124 -0.000945957)
(0.15296 0.44097 -0.000990991)
(0.120054 0.456194 -0.00103582)
(0.0873436 0.470778 -0.00108004)
(0.0519863 0.485554 -0.00112918)
(0.019203 0.49846 -0.00118261)
(3 1.14567e-07 0.000245734)
(3 -1.15092e-07 0.000232991)
(3 -1.71314e-08 0.000220359)
(2.99999 -1.67902e-07 0.000207852)
(2.99998 2.69201e-06 0.000195478)
(2.99993 8.16404e-06 0.000183339)
(2.99985 3.1468e-05 0.000171425)
(2.99963 7.09283e-05 0.000160508)
(2.99922 0.00020436 0.000150097)
(2.99762 0.00033946 0.000148644)
(2.99628 0.00262039 0.000136788)
(2.97666 -0.00246628 0.000297106)
(2.95344 0.0188183 0.000342111)
(2.81694 -0.0175506 0.00152912)
(2.46054 0.069684 0.00281567)
(1.70242 0.0416097 0.00665711)
(0.753984 0.191026 0.0036477)
(0.552403 0.166812 0.000823486)
(0.614945 0.154995 -0.000109601)
(0.659728 0.156098 -8.61932e-05)
(0.659384 0.161592 3.557e-05)
(0.640965 0.166697 6.40903e-05)
(0.61548 0.172106 5.27634e-05)
(0.593942 0.178114 3.84173e-06)
(0.577832 0.184838 -4.97023e-05)
(0.563468 0.192131 -9.0946e-05)
(0.549061 0.199951 -0.000126775)
(0.534453 0.208373 -0.00016282)
(0.519852 0.217483 -0.00019984)
(0.505266 0.227343 -0.000237246)
(0.49054 0.238003 -0.000274421)
(0.475571 0.249504 -0.000311332)
(0.460246 0.261877 -0.000348196)
(0.444435 0.275151 -0.000384851)
(0.428031 0.289328 -0.000421413)
(0.410906 0.304393 -0.000458072)
(0.392928 0.320321 -0.000494734)
(0.373967 0.337068 -0.000531354)
(0.353861 0.354581 -0.000567635)
(0.332459 0.372778 -0.000603599)
(0.309618 0.391554 -0.000639274)
(0.28519 0.410796 -0.000674709)
(0.259012 0.430377 -0.000710056)
(0.230853 0.450079 -0.000745989)
(0.200734 0.469609 -0.000781152)
(0.168509 0.488815 -0.000816361)
(0.133663 0.507324 -0.000851037)
(0.09806 0.524807 -0.000887742)
(0.0591048 0.541804 -0.000931307)
(0.0221532 0.555918 -0.00096939)
(3 3.52746e-08 0.000194969)
(3 -4.688e-10 0.000184835)
(3 -2.72378e-07 0.000174792)
(2.99999 -9.07404e-07 0.000164847)
(2.99998 1.5083e-06 0.00015501)
(2.99995 3.50215e-06 0.000145333)
(2.99988 2.57044e-05 0.000135843)
(2.9997 4.43816e-05 0.00012694)
(2.99936 0.000146339 0.000118591)
(2.9991 0.000286455 0.000108906)
(2.99335 0.00165296 0.000137931)
(2.98831 -0.00263085 0.00013254)
(2.93816 0.0140063 0.000481315)
(2.84364 -0.0194237 0.000768343)
(2.55614 0.0579717 0.00237045)
(1.66963 0.0455759 0.00470821)
(0.853458 0.220372 0.00302011)
(0.546469 0.180266 0.000927832)
(0.616399 0.16238 -0.000108295)
(0.670604 0.16507 -0.000101826)
(0.671847 0.173577 1.68887e-05)
(0.651708 0.180622 4.92138e-05)
(0.624532 0.186977 4.04118e-05)
(0.601335 0.193093 1.63645e-06)
(0.583823 0.199607 -4.12926e-05)
(0.568342 0.206698 -7.41169e-05)
(0.553149 0.214422 -0.000102469)
(0.538124 0.222868 -0.000131049)
(0.523454 0.232122 -0.000160455)
(0.509131 0.24226 -0.000190226)
(0.494992 0.25337 -0.000219837)
(0.480903 0.265508 -0.0002492)
(0.466721 0.278715 -0.000278401)
(0.452281 0.293026 -0.000307481)
(0.437419 0.308461 -0.00033618)
(0.421962 0.325026 -0.000364691)
(0.405738 0.342715 -0.000393097)
(0.38857 0.361493 -0.000421431)
(0.370251 0.381335 -0.000449654)
(0.350567 0.402238 -0.000477686)
(0.329321 0.423967 -0.000505627)
(0.306336 0.446503 -0.000533107)
(0.281299 0.469813 -0.000559964)
(0.253769 0.493656 -0.000585798)
(0.223637 0.517785 -0.000612645)
(0.190628 0.54191 -0.000639541)
(0.153853 0.565477 -0.000666141)
(0.114692 0.587895 -0.000691758)
(0.0703192 0.609351 -0.000722353)
(0.026632 0.62625 -0.000757099)
(3 -3.61946e-08 0.000142059)
(3 2.9706e-08 0.000134658)
(3 -3.16935e-07 0.000127326)
(2.99999 -7.47895e-07 0.000120063)
(2.99998 3.64031e-07 0.000112886)
(2.99996 1.93038e-06 0.000105798)
(2.99989 1.67096e-05 9.88881e-05)
(2.99974 2.5973e-05 9.23144e-05)
(2.99943 0.000117333 8.61543e-05)
(2.99906 5.53414e-05 8.09763e-05)
(2.9941 -0.000131372 9.63108e-05)
(2.98938 0.00114557 9.4914e-05)
(2.94589 0.000626277 0.000310631)
(2.8682 0.014526 0.000472197)
(2.61483 0.0352203 0.00156189)
(1.80034 0.107706 0.00314743)
(0.945371 0.279456 0.002525)
(0.533707 0.209914 0.000899241)
(0.622844 0.17832 -0.000115715)
(0.694415 0.177901 -0.000112444)
(0.700816 0.186867 1.30066e-06)
(0.680741 0.194702 3.63462e-05)
(0.653032 0.202487 3.07113e-05)
(0.62869 0.20922 2.06371e-06)
(0.60977 0.215816 -3.04378e-05)
(0.592641 0.222832 -5.50238e-05)
(0.57559 0.230463 -7.57937e-05)
(0.558623 0.238806 -9.64718e-05)
(0.54209 0.247971 -0.000117805)
(0.526154 0.25809 -0.000139554)
(0.510767 0.269301 -0.000161311)
(0.495844 0.281709 -0.00018284)
(0.481283 0.295397 -0.000204226)
(0.466943 0.310433 -0.000225395)
(0.452651 0.326866 -0.000246517)
(0.438188 0.344725 -0.000267292)
(0.423314 0.364087 -0.000287776)
(0.407808 0.384846 -0.000308062)
(0.391472 0.407017 -0.000328166)
(0.373796 0.430757 -0.000347814)
(0.35453 0.455906 -0.000367028)
(0.333675 0.482429 -0.000386937)
(0.310634 0.510294 -0.000406264)