/*--------------------------------*- C++ -*----------------------------------*\
| =========                 |                                                 |
| \\      /  F ield         | OpenFOAM: The Open Source CFD Toolbox           |
|  \\    /   O peration     | Version:  2112                                  |
|   \\  /    A nd           | Website:  www.openfoam.com                      |
|    \\/     M anipulation  |                                                 |
\*---------------------------------------------------------------------------*/
FoamFile
{
    version     2.0;
    format      ascii;
    arch        "LSB;label=32;scalar=64";
    class       volScalarField;
    location    "17";
    object      p;
}
// * * * * * * * * * * * * * * * * * * * * * * * * * * * * * * * * * * * * * //

dimensions      [0 2 -2 0 0 0 0];

internalField   nonuniform List<scalar> 
400
(
1.2818122e-06
-0.00067128009
-0.0013835182
-0.0019406361
-0.0022177046
-0.0021540091
-0.0017251592
-0.00092348391
0.00023815214
0.0017100861
0.0033898684
0.0051146689
0.0066758762
0.007851505
0.0084609006
0.0084264031
0.0078163871
0.0068477907
0.0058647571
0.0053024672
0.00065914672
-3.9044375e-05
-0.00056800244
-0.00093877592
-0.0011088135
-0.0010376753
-0.00070336733
-9.2981067e-05
0.00079175336
0.0019188763
0.0032122665
0.0045573544
0.0057845958
0.0067189232
0.0072171961
0.0072174745
0.0067731149
0.0060561397
0.005314045
0.0047420781
0.0014247835
0.00044197478
-0.00011509086
-0.00045154614
-0.00061290351
-0.00058268336
-0.0003442297
0.00012229302
0.00083116295
0.0017727047
0.0028971277
0.0041010034
0.0052310771
0.0061138426
0.0065968304
0.0066007818
0.0061590532
0.005425027
0.0045974202
0.0037520002
0.0020150633
0.0006828765
1.8170612e-05
-0.00035724555
-0.00056970009
-0.00062443541
-0.00050766791
-0.00018794073
0.00037141835
0.0011874552
0.0022330558
0.0034205834
0.0045945083
0.0055600856
0.0061267554
0.0061698892
0.0056871337
0.0048207697
0.0037511981
0.0024776583
0.0021680124
0.00049725932
-0.00029487649
-0.00074708154
-0.0010563297
-0.0012429914
-0.0012900839
-0.0011482621
-0.00075169259
-4.9521922e-05
0.00096070886
0.0022139808
0.003548358
0.0047362529
0.0055254165
0.0057135188
0.005233067
0.0042055861
0.0028103828
0.0009883875
0.0016547546
-0.00031323819
-0.001237275
-0.0017974981
-0.0022504781
-0.0026252614
-0.0028954632
-0.0029874239
-0.0027984483
-0.002233286
-0.0012465674
0.00013543692
0.0017490864
0.0033313928
0.0045457878
0.005069866
0.0047216426
0.0035705112
0.0017941412
-0.00072106892
0.00028809899
-0.0019180361
-0.0029711654
-0.0036691977
-0.00431763
-0.0049499366
-0.0055261956
-0.0059433769
-0.0060538611
-0.0057018246
-0.0047699297
-0.0032529307
-0.0012609288
0.00091246697
0.0028281037
0.0039915748
0.0040297422
0.0028924326
0.00072032659
-0.002675177
-0.0020748197
-0.0044491531
-0.0056244461
-0.0064895451
-0.0073895486
-0.0083616451
-0.0093519724
-0.01022601
-0.010784477
-0.010797815
-0.010056049
-0.0084544418
-0.0060336987
-0.0030765898
-0.00012020543
0.0021182425
0.0029691306
0.0021408032
-0.00036065012
-0.0048668007
-0.0055217853
-0.0079893788
-0.0092748579
-0.01033024
-0.011533743
-0.012930268
-0.014456558
-0.015949168
-0.017154432
-0.017757342
-0.017429027
-0.015910388
-0.013114172
-0.009243546
-0.0048915366
-0.0010233014
0.0012755221
0.0012835591
-0.001328128
-0.0071954121
-0.010073581
-0.012561528
-0.01393278
-0.01517958
-0.016713156
-0.018596383
-0.020766812
-0.023040222
-0.025112122
-0.026576024
-0.026958594
-0.025802119
-0.022835192
-0.018064635
-0.012042189
-0.0059440518
-0.0013637349
0.00030699515
-0.0019409658
-0.0093756082
-0.015680621
-0.018127963
-0.019532829
-0.020921523
-0.022751596
-0.025122635
-0.027988528
-0.031156672
-0.034280627
-0.036865184
-0.038282047
-0.037832017
-0.03505405
-0.02959041
-0.021812439
-0.012976662
-0.0051771739
-0.00070881765
-0.0017576722
-0.010785492
-0.022238232
-0.024607758
-0.025940113
-0.027328956
-0.029317305
-0.032071246
-0.035579694
-0.039654132
-0.043915637
-0.047788861
-0.050517377
-0.051223836
-0.048944581
-0.043132009
-0.033758487
-0.021916961
-0.010028668
-0.00140824
-3.2801644e-06
-0.010219032
-0.029635003
-0.031917948
-0.032972712
-0.034073421
-0.035932292
-0.03882321
-0.042786061
-0.047640801
-0.052978704
-0.058151055
-0.062271467
-0.064252983
-0.06286323
-0.057101146
-0.046466719
-0.031640122
-0.015029939
-0.00085741622
0.0046530353
-0.0055155511
-0.037859209
-0.040042161
-0.04043385
-0.040745982
-0.04200791
-0.044644946
-0.048748874
-0.054133558
-0.060344579
-0.066653343
-0.072048638
-0.075256696
-0.074800638
-0.069259624
-0.057619762
-0.039953944
-0.018241233
0.0027950757
0.014450599
0.0069124685
-0.047223568
-0.049127942
-0.048134429
-0.046876109
-0.046898905
-0.048791256
-0.052659711
-0.058266276
-0.065065459
-0.072220915
-0.078584821
-0.082702077
-0.082871107
-0.077301639
-0.064517475
-0.043929505
-0.016743214
0.012507319
0.032942827
0.032412424
-0.058889993
-0.059633801
-0.055878358
-0.0519357
-0.049966713
-0.050623513
-0.053921142
-0.05948667
-0.066602251
-0.074275276
-0.081181391
-0.085670514
-0.085824282
-0.079516303
-0.064871756
-0.040686096
-0.007238464
0.03214166
0.064983693
0.077751022
-0.076220469
-0.072608426
-0.063511681
-0.055431325
-0.050720799
-0.049776546
-0.052306091
-0.057656837
-0.06488328
-0.072765979
-0.079770629
-0.084028967
-0.083385377
-0.075344498
-0.057599976
-0.028373864
0.012933693
0.065396919
0.11555198
0.15150648
-0.10808738
-0.089552164
-0.071230644
-0.057230426
-0.049069384
-0.046326543
-0.04807223
-0.053196148
-0.060427045
-0.068287753
-0.07501948
-0.078519925
-0.076383504
-0.065806019
-0.043863688
-0.0078182055
0.044392934
0.11299717
0.18837957
0.27185979
-0.17684185
-0.10828644
-0.076200371
-0.054649747
-0.042990707
-0.038995388
-0.040566425
-0.045922447
-0.053434731
-0.061430916
-0.068020232
-0.070956037
-0.067546101
-0.054736412
-0.029147161
0.013563698
0.078146
0.17006292
0.28949399
0.47421685
-0.37207995
-0.12470561
-0.054971255
-0.031961423
-0.022062399
-0.020298502
-0.024356055
-0.031953079
-0.041255346
-0.050633886
-0.058309777
-0.062180888
-0.059777098
-0.048053073
-0.022656522
0.021474709
0.092818113
0.21015159
0.40288713
0.77640805
)
;

boundaryField
{
    movingWall
    {
        type            zeroGradient;
    }
    fixedWalls
    {
        type            zeroGradient;
    }
    frontAndBack
    {
        type            empty;
    }
}


// ************************************************************************* //
