/*--------------------------------*- C++ -*----------------------------------*\
| =========                 |                                                 |
| \\      /  F ield         | OpenFOAM: The Open Source CFD Toolbox           |
|  \\    /   O peration     | Version:  2112                                  |
|   \\  /    A nd           | Website:  www.openfoam.com                      |
|    \\/     M anipulation  |                                                 |
\*---------------------------------------------------------------------------*/
FoamFile
{
    version     2.0;
    format      ascii;
    arch        "LSB;label=32;scalar=64";
    class       surfaceScalarField;
    location    "17";
    object      phi;
}
// * * * * * * * * * * * * * * * * * * * * * * * * * * * * * * * * * * * * * //

dimensions      [0 3 -1 0 0 0 0];

oriented        oriented;

internalField   nonuniform List<scalar> 
760
(
1.268939e-05
-1.2704296e-05
-2.8729e-05
4.1418376e-05
-0.00012228057
9.3551552e-05
-0.00025036106
0.00012808047
-0.00039601246
0.00014565138
-0.00054530028
0.00014928781
-0.00068615419
0.0001408539
-0.00080675275
0.00012059854
-0.00089479863
8.8045881e-05
-0.00093823255
4.3433911e-05
-0.00092712428
-1.1108275e-05
-0.00085673143
-7.0392863e-05
-0.00073032826
-0.00012640318
-0.00056127571
-0.00016905255
-0.00037272888
-0.00018854684
-0.00019447039
-0.0001782585
-5.6534539e-05
-0.00013793587
1.9598565e-05
-7.6133115e-05
3.040256e-05
-1.0804002e-05
3.0402554e-05
-4.3180648e-05
3.0476341e-05
-0.00020453472
0.00020277241
-0.00046824048
0.00035725728
-0.00080055595
0.00046039591
-0.001167124
0.00051221943
-0.001536149
0.00051831278
-0.0018778611
0.000482566
-0.0021632646
0.00040600201
-0.0023640971
0.00028887839
-0.0024549008
0.00013423758
-0.002417719
-4.8290144e-05
-0.0022449863
-0.00024312554
-0.0019472568
-0.00042413266
-0.001554253
-0.00056205638
-0.0011141881
-0.00062861176
-0.000687412
-0.00060503464
-0.00033451126
-0.00049083663
-0.00010090449
-0.00030973989
-1.5595016e-06
-0.00011014901
2.884305e-05
-0.00011000628
0.0001404826
-0.00040294893
0.00049571502
-0.0008312142
0.00078552252
-0.0013453348
0.00097451648
-0.0018982021
0.0010650867
-0.0024460754
0.0010661861
-0.0029474336
0.00098392418
-0.0033619512
0.00082051955
-0.0036511867
0.00057811395
-0.0037816146
0.00026466547
-0.00372916
-0.00010074481
-0.0034852228
-0.00048706277
-0.0030627863
-0.00084656912
-0.0024996231
-0.0011252196
-0.0018579837
-0.0012702511
-0.0012180002
-0.0012450182
-0.00066367354
-0.0010451633
-0.00026307452
-0.00071033892
-4.7958474e-05
-0.00032526506
-1.9115425e-05
-0.00017340019
0.00031388276
-0.00059315844
0.00091547322
-0.001177433
0.0013697971
-0.0018579633
0.0016550467
-0.002576356
0.0017834794
-0.0032806204
0.0017704505
-0.0039219936
0.0016252974
-0.0044532562
0.0013517821
-0.0048293394
0.00095419715
-0.0050103172
0.00044564325
-0.0049663844
-0.00014467762
-0.0046836503
-0.0007697968
-0.0041716871
-0.0013585324
-0.0034686063
-0.0018283004
-0.0026436374
-0.00209522
-0.0017929674
-0.0020956882
-0.0010257301
-0.0018124006
-0.00044017098
-0.001295898
-9.6717471e-05
-0.00066871857
-0.00011583289
-0.00022974069
0.00054362343
-0.00076489796
0.0014506304
-0.0014911504
0.0020960495
-0.0023220405
0.0024859368
-0.003189465
0.0026509038
-0.0040359955
0.002616981
-0.004809087
0.0023983888
-0.0054579298
0.0020006249
-0.0059331052
0.0014293725
-0.0061887412
0.00070127928
-0.0061873736
-0.0001460452
-0.0059046376
-0.0010525328
-0.0053396033
-0.0019235667
-0.0045224578
-0.0026454459
-0.0035224867
-0.0030951911
-0.0024494801
-0.0031686948
-0.0014423582
-0.0028195224
-0.00064115607
-0.0020971002
-0.00014882138
-0.0011610533
-0.00026465427
-0.00027723299
0.0008208564
-0.00091134302
0.0020847404
-0.0017603502
0.0029450566
-0.0027222414
0.0034478281
-0.0037214647
0.003650127
-0.0046977904
0.0035933068
-0.0055978615
0.0032984599
-0.0063700755
0.0027728389
-0.0069625705
0.0020218676
-0.0073236802
0.001062389
-0.0074063501
-6.3375176e-05
-0.0071706674
-0.0012882155
-0.0065979794
-0.0024962547
-0.0057009204
-0.0035425049
-0.0045394314
-0.00425668
-0.0032314343
-0.0044766919
-0.0019487803
-0.0041021764
-0.00088718067
-0.0031586998
-0.00021156924
-0.0018366647
-0.0004762235
-0.00031404767
0.001134904
-0.0010261263
0.002796819
-0.0019731147
0.003892045
-0.0030411723
0.0045158856
-0.0041499571
0.0047589118
-0.005239031
0.0046823807
-0.0062570408
0.0043164697
-0.0071544122
0.0036702102
-0.0078792132
0.0027466687
-0.0083756874
0.0015588633
-0.0085842674
0.00014520489
-0.0084502685
-0.0014222144
-0.0079285508
-0.0030179724
-0.0070041487
-0.0044669069
-0.0057143898
-0.0055464389
-0.004173107
-0.0060179746
-0.0025815511
-0.0056937322
-0.0012039667
-0.0045362842
-0.00029446923
-0.0027461621
-0.00077069271
-0.00033818511
0.0014730891
-0.0011029716
0.0035616055
-0.0021172695
0.0049063429
-0.0032593517
0.0056579679
-0.0044467083
0.0059462684
-0.0056211273
0.0058567998
-0.0067360106
0.0054313531
-0.0077469599
0.0046811596
-0.008605333
0.0036050419
-0.0092542059
0.0022077362
-0.0096259935
0.00051699257
-0.0096482334
-0.0013999744
-0.0092480818
-0.0034181239
-0.0083731452
-0.0053418435
-0.0070214051
-0.006898179
-0.0052813055
-0.0077580741
-0.0033673349
-0.0076077028
-0.0016171981
-0.006286421
-0.00040822416
-0.003955136
-0.0011789169
-0.00034810636
0.0018211955
-0.0011370577
0.0043505569
-0.0021824961
0.0059517813
-0.0033581877
0.0068336595
-0.004581683
0.0071697637
-0.0057991587
0.0070742755
-0.0069714562
0.0066036507
-0.0080628839
0.0057725874
-0.0090326381
0.0045747961
-0.0098281912
0.0030032894
-0.010380488
0.0010692892
-0.010603765
-0.0011766971
-0.010400053
-0.0036218353
-0.0096742234
-0.0060676734
-0.0083680797
-0.0082043226
-0.0065152008
-0.009610953
-0.0043095443
-0.0098133593
-0.0021481408
-0.0084478245
-0.00056487161
-0.0055384051
-0.0017437884
-0.00034390598
0.0021651015
-0.0011277642
0.0051344151
-0.0021645271
0.0069885442
-0.0033256285
0.0079947609
-0.0045304485
0.0083745838
-0.0057315299
0.0082753569
-0.0068997702
0.0077718911
-0.008011916
0.0068847333
-0.0090403636
0.0056032438
-0.0099445168
0.0039074428
-0.010662958
0.0017877308
-0.011106314
-0.00073334131
-0.011162989
-0.0035651603
-0.010696695
-0.0065339675
-0.0095821746
-0.0093188424
-0.0077663906
-0.011426737
-0.0053711972
-0.012208553
-0.0028069968
-0.011012025
-0.00077830925
-0.0075670926
-0.0025220977
-0.00032890528
0.0024940067
-0.0010824033
0.0058879131
-0.0020707315
0.0079768725
-0.0031635364
0.0090875658
-0.0042838012
0.0094948487
-0.0053927426
0.0093842984
-0.0064740363
0.0088531848
-0.0075204649
0.007931162
-0.0085228637
0.0066056427
-0.0094603182
0.0048448975
-0.010291326
0.0026187383
-0.010933204
-9.1462743e-05
-0.011283164
-0.0032152003
-0.011173534
-0.0066435972
-0.010415553
-0.010076823
-0.0088465292
-0.012995761
-0.0064555437
-0.014599538
-0.0035813735
-0.013886195
-0.0010641632
-0.010084303
-0.0035862608
-0.00031181016
0.0028058169
-0.0010207461
0.0065968491
-0.0019262063
0.0088823328
-0.0028950907
0.01005645
-0.0038570607
0.010456819
-0.0047857831
0.010313021
-0.0056810343
0.0097484361
-0.0065547755
0.0088049033
-0.0074202583
0.0074711258
-0.0082822318
0.0057068712
-0.0091255752
0.0034620819
-0.009909061
0.00069202325
-0.010527623
-0.0025966381
-0.010827292
-0.006343928
-0.010573789
-0.010330325
-0.0094932453
-0.014076305
-0.0073910793
-0.016701704
-0.004418824
-0.01685845
-0.0014371617
-0.013065965
-0.0050234224
-0.00031009691
0.0031159139
-0.00098051644
0.0072672687
-0.0017793067
0.0096811231
-0.0025697257
0.010846869
-0.0032950505
0.011182144
-0.00394844
0.010966411
-0.0045505951
0.010350591
-0.0051354824
0.0093897907
-0.005740675
0.0080763184
-0.0063993174
0.0063655138
-0.0071309326
0.0041936972
-0.0079310456
0.0014921365
-0.0087395323
-0.0017881512
-0.0094309814
-0.0056524788
-0.0097690568
-0.0099922498
-0.0094006435
-0.014444718
-0.0079307064
-0.018171641
-0.0052061662
-0.01958299
-0.0019025847
-0.016369546
-0.0069260072
-0.00035611881
0.0034720327
-0.0010242236
0.0079353736
-0.0017046238
0.010361523
-0.0022613541
0.0114036
-0.0026664238
0.011587213
-0.0029448377
0.011244824
-0.0031451791
0.010550933
-0.003325874
0.0095704858
-0.0035482496
0.0082986942
-0.0038721249
0.0066893893
-0.004350244
0.0046718165
-0.0050194177
0.0021613103
-0.0058775814
-0.00092998733
-0.0068586972
-0.0046713629
-0.0077770005
-0.0090739464
-0.0082663564
-0.013955362
-0.0077690481
-0.018668949
-0.0057512164
-0.021600822
-0.0024366793
-0.019684084
-0.0093626864
-0.00050835684
0.0039803896
-0.0012459117
0.0086729284
-0.0017963781
0.01091199
-0.0020487032
0.011655925
-0.0020333963
0.011571906
-0.0018264678
0.011037896
-0.0015133444
0.01023781
-0.0011790812
0.0092362228
-0.00090596314
0.0080255763
-0.00077496333
0.0065583896
-0.00086469764
0.004761551
-0.0012485059
0.0025451187
-0.0019838982
-0.00019459487
-0.0030828283
-0.0035724327
-0.0044608546
-0.00769592
-0.005828134
-0.012588083
-0.0065665999
-0.017930483
-0.0057686635
-0.022398758
-0.002951275
-0.022501472
-0.012313961
-0.0008686523
0.004849042
-0.0017632793
0.0095675553
-0.0021218874
0.011270598
-0.0019376122
0.01147165
-0.0013518965
0.010986191
-0.00051732993
0.010203329
0.00043579029
0.0092846895
0.001398305
0.0082737081
0.00227106
0.0071528215
0.0029596321
0.0058698176
0.0033679333
0.0043532499
0.00339567
0.0025173821
0.0029375182
0.00026355698
0.0019086938
-0.0025436083
0.00026889109
-0.0060561173
-0.0018548142
-0.010464377
-0.0039520738
-0.015833224
-0.004861104
-0.021489728
-0.0032547867
-0.024107789
-0.015568748
-0.0015911607
0.0064402028
-0.0026111029
0.010587498
-0.0025136068
0.011173102
-0.0015906058
0.010548649
-0.00017307687
0.0095686622
0.0014917259
0.0085385268
0.0032317086
0.0075447069
0.0049219903
0.0065834264
0.0064617463
0.0056130656
0.0077562952
0.0045752687
0.0087063822
0.0034031631
0.0092004759
0.0020232884
0.0091024401
0.00036159288
0.0082743081
-0.0017154763
0.0065647956
-0.0043466048
0.0039036928
-0.0078032745
0.00055855589
-0.012488087
-0.0024683108
-0.018462862
-0.0030274132
-0.023548687
-0.018596161
-0.0027183891
0.0091585918
-0.0031499947
0.011019104
-0.0018032899
0.0098263965
0.00046622015
0.0082791385
0.0030887533
0.0069461288
0.0057729778
0.0058543024
0.0083619429
0.0049557418
0.010759369
0.0041860002
0.012892447
0.003479988
0.014689648
0.0027780679
0.016067407
0.0020254036
0.01692245
0.001168246
0.017119
0.00016504272
0.016490239
-0.0010867156
0.014816365
-0.00267273
0.011846281
-0.004833191
0.0074352024
-0.008077008
0.0022627386
-0.013290398
-0.0012725541
-0.020013394
-0.019868715
-0.0024132548
0.011571846
2.806407e-05
0.0085777856
0.0042550709
0.0055993901
0.0084159299
0.0041182797
0.012231144
0.0031309151
0.015655778
0.0024296683
0.018685941
0.0019255787
0.021328503
0.0015434378
0.02358277
0.0012257215
0.025428519
0.0009323187
0.02681952
0.00063440245
0.027676625
0.00031114141
0.027899741
-5.8073502e-05
0.027346876
-0.00053385057
0.025771383
-0.0010972364
0.022842873
-0.0019046814
0.018054648
-0.0032887828
0.011113506
-0.006349256
0.0033886412
-0.01228853
-0.016480074
0.011571846
0.020149631
0.025749021
0.029867301
0.032998216
0.035427884
0.037353463
0.038896901
0.040122622
0.041054941
0.041689344
0.042000485
0.041942412
0.041408561
0.040311325
0.038406643
0.03511786
0.028768604
0.016480074
)
;

boundaryField
{
    movingWall
    {
        type            calculated;
        value           uniform 0;
    }
    fixedWalls
    {
        type            calculated;
        value           uniform 0;
    }
    frontAndBack
    {
        type            empty;
        value           nonuniform List<scalar> 0();
    }
}


// ************************************************************************* //
