/*--------------------------------*- C++ -*----------------------------------*\
| =========                 |                                                 |
| \\      /  F ield         | OpenFOAM: The Open Source CFD Toolbox           |
|  \\    /   O peration     | Version:  2112                                  |
|   \\  /    A nd           | Website:  www.openfoam.com                      |
|    \\/     M anipulation  |                                                 |
\*---------------------------------------------------------------------------*/
FoamFile
{
    version     2.0;
    format      ascii;
    arch        "LSB;label=32;scalar=64";
    class       surfaceScalarField;
    location    "17";
    object      phi_0;
}
// * * * * * * * * * * * * * * * * * * * * * * * * * * * * * * * * * * * * * //

dimensions      [0 3 -1 0 0 0 0];

oriented        oriented;

internalField   nonuniform List<scalar> 
760
(
1.2689399e-05
-1.2704216e-05
-2.872899e-05
4.1418376e-05
-0.00012228049
9.3551482e-05
-0.00025036085
0.00012808035
-0.0003960121
0.00014565123
-0.00054529977
0.00014928765
-0.00068615353
0.00014085376
-0.00080675196
0.00012059842
-0.00089479777
8.8045801e-05
-0.00093823167
4.3433888e-05
-0.00092712344
-1.1108227e-05
-0.0008567307
-7.0392747e-05
-0.00073032769
-0.00012640301
-0.00056127534
-0.00016905236
-0.00037272871
-0.00018854665
-0.00019447038
-0.00017825834
-5.653461e-05
-0.00013793577
1.9598478e-05
-7.6133094e-05
3.0402512e-05
-1.0804039e-05
3.0402508e-05
-4.3180596e-05
3.0476369e-05
-0.00020453451
0.00020277225
-0.00046823998
0.00035725693
-0.00080055509
0.00046039543
-0.0011671228
0.00051221888
-0.0015361473
0.00051831222
-0.0018778591
0.00048256549
-0.0021632623
0.00040600161
-0.0023640947
0.00028887815
-0.0024548983
0.00013423754
-0.0024177166
-4.8289957e-05
-0.0022449842
-0.00024312514
-0.0019472552
-0.00042413208
-0.0015542518
-0.00056205571
-0.0011141874
-0.00062861111
-0.00068741166
-0.00060503409
-0.00033451118
-0.00049083627
-0.00010090454
-0.00030973974
-1.559541e-06
-0.00011014904
2.8842967e-05
-0.00011000614
0.00014048249
-0.00040294844
0.00049571451
-0.00083121321
0.00078552166
-0.0013453332
0.0009745154
-0.0018981999
0.0010650855
-0.0024460726
0.0010661849
-0.0029474303
0.00098392316
-0.0033619475
0.00082051877
-0.0036511828
0.00057811352
-0.0037816107
0.00026466544
-0.0037291563
-0.0001007444
-0.0034852195
-0.00048706195
-0.0030627836
-0.00084656798
-0.002499621
-0.0011252183
-0.0018579824
-0.0012702498
-0.0012179994
-0.001245017
-0.0006636732
-0.0010451625
-0.00026307444
-0.0007103385
-4.7958485e-05
-0.00032526499
-1.9115515e-05
-0.00017339996
0.00031388244
-0.00059315768
0.00091547218
-0.0011774315
0.0013697955
-0.001857961
0.0016550448
-0.0025763529
0.0017834774
-0.0032806166
0.0017704486
-0.0039219892
0.0016252957
-0.0044532513
0.0013517809
-0.0048293343
0.00095419651
-0.0050103121
0.00044564326
-0.0049663796
-0.00014467693
-0.004683646
-0.00076979548
-0.0041716834
-0.0013585306
-0.0034686035
-0.0018282983
-0.0026436353
-0.0020952179
-0.0017929661
-0.0020956862
-0.0010257294
-0.0018123992
-0.00044017074
-0.0012958972
-9.6717436e-05
-0.0006687183
-0.00011583294
-0.00022974038
0.00054362279
-0.00076489696
0.0014506287
-0.0014911485
0.002096047
-0.0023220377
0.002485934
-0.0031894612
0.0026509009
-0.0040359909
0.0026169783
-0.0048090817
0.0023983865
-0.0054579241
0.0020006232
-0.0059330992
0.0014293717
-0.0061887353
0.00070127933
-0.006187368
-0.00014604421
-0.0059046324
-0.001052531
-0.0053395988
-0.0019235641
-0.0045224542
-0.0026454429
-0.003522484
-0.0030951881
-0.0024494783
-0.003168692
-0.0014423573
-0.0028195202
-0.00064115566
-0.0020970988
-0.0001488213
-0.0011610526
-0.00026465423
-0.00027723263
0.00082085539
-0.00091134188
0.0020847379
-0.001760348
0.0029450532
-0.0027222383
0.0034478242
-0.0037214605
0.0036501231
-0.0046977854
0.0035933032
-0.0055978558
0.0032984569
-0.0063700693
0.0027728367
-0.0069625641
0.0020218665
-0.0073236737
0.001062389
-0.007406344
-6.3373916e-05
-0.0071706618
-0.0012882132
-0.0065979744
-0.0024962515
-0.0057009162
-0.0035425011
-0.0045394282
-0.004256676
-0.0032314321
-0.0044766881
-0.001948779
-0.0041021733
-0.00088718008
-0.0031586977
-0.00021156911
-0.0018366636
-0.00047622332
-0.00031404729
0.0011349027
-0.0010261251
0.0027968157
-0.0019731125
0.0038920406
-0.0030411691
0.0045158807
-0.0041499529
0.0047589069
-0.005239026
0.0046823763
-0.0062570352
0.0043164661
-0.007154406
0.0036702077
-0.0078792068
0.0027466673
-0.0083756811
0.0015588633
-0.0085842613
0.00014520633
-0.0084502627
-0.0014222117
-0.0079285455
-0.0030179686
-0.0070041442
-0.0044669024
-0.0057143862
-0.005546434
-0.0041731044
-0.0060179698
-0.0025815495
-0.0056937281
-0.0012039659
-0.0045362812
-0.00029446904
-0.0027461605
-0.00077069235
-0.00033818475
0.0014730874
-0.0011029706
0.0035616015
-0.0021172675
0.0049063375
-0.0032593488
0.005657962
-0.0044467045
0.0059462626
-0.0056211227
0.0058567946
-0.0067360055
0.0054313488
-0.0077469544
0.0046811567
-0.0086053274
0.0036050404
-0.0092542002
0.0022077362
-0.0096259879
0.00051699414
-0.0096482281
-0.0013999714
-0.009248077
-0.0034181197
-0.0083731409
-0.0053418384
-0.0070214015
-0.0068981734
-0.0052813027
-0.0077580685
-0.0033673331
-0.0076076977
-0.0016171972
-0.0062864171
-0.00040822392
-0.0039551337
-0.0011789162
-0.00034810608
0.0018211935
-0.0011370569
0.0043505523
-0.0021824945
0.0059517752
-0.0033581854
0.0068336528
-0.0045816799
0.0071697572
-0.0057991551
0.0070742698
-0.0069714522
0.006603646
-0.0080628797
0.0057725842
-0.0090326338
0.0045747945
-0.0098281869
0.0030032895
-0.010380483
0.0010692908
-0.010603761
-0.001176694
-0.010400049
-0.0036218309
-0.0096742198
-0.006067668
-0.0083680765
-0.0082043166
-0.0065151982
-0.0096109467
-0.0043095425
-0.0098133534
-0.0021481398
-0.0084478197
-0.00056487131
-0.0055384021
-0.0017437875
-0.00034390583
0.0021650993
-0.0011277637
0.0051344101
-0.0021645261
0.0069885377
-0.003325627
0.0079947537
-0.0045304466
0.0083745769
-0.0057315276
0.0082753508
-0.0068997677
0.0077718863
-0.0080119135
0.00688473
-0.0090403611
0.0056032422
-0.0099445144
0.003907443
-0.010662956
0.0017877325
-0.011106312
-0.00073333816
-0.011162986
-0.0035651559
-0.010696692
-0.0065339621
-0.0095821723
-0.0093188363
-0.0077663885
-0.01142673
-0.0053711955
-0.012208546
-0.0028069958
-0.011012019
-0.00077830893
-0.007567089
-0.0025220964
-0.00032890528
0.0024940046
-0.0010824032
0.005887908
-0.0020707312
0.0079768658
-0.0031635359
0.0090875585
-0.0042838007
0.0094948417
-0.005392742
0.0093842923
-0.0064740357
0.0088531801
-0.0075204644
0.0079311588
-0.0085228634
0.0066056413
-0.009460318
0.0048448978
-0.010291326
0.0026187402
-0.010933204
-9.1459671e-05
-0.011283163
-0.0032151961
-0.011173533
-0.0066435921
-0.010415553
-0.010076817
-0.0088465281
-0.012995755
-0.0064555426
-0.014599532
-0.0035813726
-0.013886189
-0.0010641628
-0.010084299
-0.0035862592
-0.0003118103
0.0028058149
-0.0010207465
0.0065968442
-0.0019262069
0.0088823263
-0.0028950914
0.010056443
-0.0038570617
0.010456812
-0.0047857843
0.010313015
-0.0056810357
0.0097484316
-0.0065547772
0.0088049004
-0.0074202603
0.0074711246
-0.008282234
0.0057068716
-0.0091255775
0.0034620838
-0.0099090633
0.00069202633
-0.010527625
-0.0025966341
-0.010827294
-0.0063439234
-0.01057379
-0.01033032
-0.0094932455
-0.014076299
-0.007391079
-0.016701698
-0.0044188235
-0.016858445
-0.0014371614
-0.013065961
-0.0050234206
-0.00031009718
0.0031159121
-0.00098051727
0.0072672644
-0.0017793082
0.0096811172
-0.0025697277
0.010846863
-0.0032950529
0.011182137
-0.0039484429
0.010966405
-0.0045505986
0.010350587
-0.0051354863
0.0093897883
-0.005740679
0.0080763176
-0.0063993217
0.0063655145
-0.0071309369
0.0041936992
-0.0079310499
0.0014921395
-0.0087395363
-0.0017881476
-0.0094309847
-0.0056524748
-0.0097690594
-0.0099922455
-0.0094006451
-0.014444714
-0.0079307071
-0.018171636
-0.0052061662
-0.019582986
-0.0019025846
-0.016369542
-0.0069260052
-0.00035611922
0.0034720314
-0.0010242248
0.00793537
-0.0017046259
0.010361518
-0.0022613572
0.011403594
-0.0026664276
0.011587208
-0.0029448421
0.01124482
-0.0031451842
0.010550929
-0.0033258795
0.0095704837
-0.0035482553
0.0082986936
-0.0038721307
0.0066893901
-0.0043502499
0.0046718185
-0.0050194233
0.0021613131
-0.0058775867
-0.00092998409
-0.0068587019
-0.0046713594
-0.0077770043
-0.0090739429
-0.0082663592
-0.013955359
-0.0077690498
-0.018668945
-0.0057512171
-0.021600818
-0.0024366793
-0.01968408
-0.0093626845
-0.00050835741
0.0039803888
-0.0012459131
0.0086729258
-0.0017963807
0.010911986
-0.0020487071
0.01165592
-0.0020334012
0.011571902
-0.0018264734
0.011037892
-0.0015133506
0.010237807
-0.0011790878
0.009236221
-0.00090596996
0.0080255758
-0.00077497009
0.0065583904
-0.00086470419
0.0047615527
-0.0012485121
0.0025451211
-0.001983904
-0.00019459207
-0.0030828335
-0.0035724299
-0.0044608591
-0.0076959173
-0.0058281375
-0.01258808
-0.0065666022
-0.017930481
-0.0057686647
-0.022398756
-0.0029512752
-0.022501469
-0.01231396
-0.00086865295
0.0048490417
-0.001763281
0.009567554
-0.00212189
0.011270595
-0.0019376163
0.011471647
-0.0013519019
0.010986187
-0.0005173362
0.010203326
0.00043578348
0.0092846873
0.0013982979
0.0082737067
0.0022710528
0.0071528211
0.0029596251
0.0058698182
0.0033679266
0.0043532513
0.0033956638
0.002517384
0.0029375126
0.00026355921
0.0019086888
-0.002543606
0.00026888677
-0.0060561152
-0.0018548177
-0.010464376
-0.0039520764
-0.015833222
-0.0048611055
-0.021489727
-0.0032547871
-0.024107788
-0.015568747
-0.0015911611
0.0064402028
-0.0026111046
0.010587497
-0.0025136093
0.0111731
-0.0015906095
0.010548647
-0.00017308182
0.0095686597
0.0014917199
0.0085385246
0.0032317021
0.0075447052
0.0049219835
0.0065834254
0.0064617395
0.0056130653
0.0077562887
0.0045752691
0.008706376
0.003403164
0.0092004704
0.0020232898
0.0091024352
0.00036159445
0.0082743039
-0.0017154746
0.006564792
-0.0043466033
0.0039036898
-0.0078032734
0.00055855373
-0.012488086
-0.0024683122
-0.018462861
-0.0030274138
-0.023548686
-0.018596161
-0.0027183889
0.0091585918
-0.0031499958
0.011019104
-0.0018032916
0.0098263964
0.00046621762
0.0082791379
0.0030887498
0.0069461277
0.0057729733
0.0058543011
0.0083619377
0.0049557408
0.010759364
0.0041859995
0.012892441
0.0034799878
0.014689642
0.002778068
0.016067402
0.0020254041
0.016922445
0.0011682468
0.017118996
0.00016504363
0.016490236
-0.0010867146
0.014816362
-0.0026727292
0.011846279
-0.0048331904
0.0074352009
-0.0080770077
0.0022627376
-0.013290398
-0.0012725545
-0.020013394
-0.019868715
-0.002413254
0.011571846
2.8064004e-05
0.0085777852
0.0042550703
0.0055993896
0.0084159287
0.0041182794
0.012231142
0.0031309147
0.015655775
0.0024296679
0.018685937
0.0019255783
0.021328499
0.0015434375
0.023582766
0.0012257214
0.025428515
0.00093231877
0.026819517
0.00063440265
0.027676622
0.0003111417
0.027899739
-5.8073106e-05
0.027346874
-0.00053385025
0.025771381
-0.0010972361
0.022842872
-0.0019046813
0.018054647
-0.0032887828
0.011113505
-0.006349256
0.0033886411
-0.01228853
-0.016480074
0.011571846
0.020149632
0.025749022
0.029867301
0.032998216
0.035427884
0.037353462
0.038896899
0.040122621
0.04105494
0.041689342
0.042000484
0.041942411
0.041408561
0.040311324
0.038406643
0.03511786
0.028768604
0.016480074
)
;

boundaryField
{
    movingWall
    {
        type            calculated;
        value           uniform 0;
    }
    fixedWalls
    {
        type            calculated;
        value           uniform 0;
    }
    frontAndBack
    {
        type            empty;
        value           nonuniform List<scalar> 0();
    }
}


// ************************************************************************* //
