/*--------------------------------*- C++ -*----------------------------------*\
| =========                 |                                                 |
| \\      /  F ield         | OpenFOAM: The Open Source CFD Toolbox           |
|  \\    /   O peration     | Version:  2112                                  |
|   \\  /    A nd           | Website:  www.openfoam.com                      |
|    \\/     M anipulation  |                                                 |
\*---------------------------------------------------------------------------*/
FoamFile
{
    version     2.0;
    format      ascii;
    arch        "LSB;label=32;scalar=64";
    class       volVectorField;
    location    "17";
    object      U;
}
// * * * * * * * * * * * * * * * * * * * * * * * * * * * * * * * * * * * * * //

dimensions      [0 1 -1 0 0 0 0];

internalField   nonuniform List<vector> 
400
(
(0.00028426492 -0.00028139788 0)
(0.00011043286 7.994927e-05 0)
(-0.0013271779 0.00047795892 0)
(-0.0036214554 0.00073581041 0)
(-0.0064226838 0.00086737223 0)
(-0.0094299403 0.00090710689 0)
(-0.012385901 0.00087470427 0)
(-0.015053845 0.00077138538 0)
(-0.017191575 0.000588382 0)
(-0.018549684 0.00032003635 0)
(-0.018899486 -2.4783178e-05 0)
(-0.018083291 -0.00041815563 0)
(-0.016077546 -0.00079954005 0)
(-0.013047261 -0.0010928606 0)
(-0.0093654288 -0.0012209945 0)
(-0.0055773442 -0.0011293163 0)
(-0.0023004869 -0.00081279639 0)
(-8.3285548e-05 -0.00033800432 0)
(0.00075988179 0.00015219516 0)
(0.00040934618 0.00038924599 0)
(-8.6125997e-05 -0.00012357204 0)
(-0.0018690682 0.0017869543 0)
(-0.0063054685 0.0036254002 0)
(-0.0124504 0.0048615828 0)
(-0.019596929 0.0054974778 0)
(-0.027101741 0.0056195886 0)
(-0.034352278 0.0052850199 0)
(-0.040761086 0.0045035488 0)
(-0.045749566 0.0032656806 0)
(-0.048766966 0.0015895042 0)
(-0.049357945 -0.00043516718 0)
(-0.047245915 -0.0026174449 0)
(-0.042445341 -0.0046634414 0)
(-0.035356413 -0.0062176269 0)
(-0.02677522 -0.0069363189 0)
(-0.017825422 -0.0065912411 0)
(-0.0097748946 -0.00517916 0)
(-0.0037463501 -0.0029992765 0)
(-0.00038901086 -0.00066574992 0)
(0.00028976848 0.00078328003 0)
(-0.00058799016 0.0014334453 0)
(-0.0042419722 0.0063763322 0)
(-0.011756134 0.010638501 0)
(-0.021464214 0.013480927 0)
(-0.032359458 0.014895341 0)
(-0.043579021 0.015014435 0)
(-0.054276378 0.013933507 0)
(-0.063629884 0.011682162 0)
(-0.070842117 0.0082801266 0)
(-0.075174295 0.003828469 0)
(-0.076025906 -0.0014049455 0)
(-0.07304528 -0.0069336092 0)
(-0.066255969 -0.012068861 0)
(-0.056160875 -0.015996907 0)
(-0.043774739 -0.017939423 0)
(-0.030565404 -0.017377152 0)
(-0.018248762 -0.014288082 0)
(-0.0084173606 -0.009311472 0)
(-0.0021511292 -0.0037619055 0)
(-2.049195e-06 0.00031658528 0)
(-0.0010528257 0.0042995827 0)
(-0.0065133808 0.013562974 0)
(-0.016995308 0.020859775 0)
(-0.030024263 0.025555976 0)
(-0.044290993 0.027755829 0)
(-0.058771855 0.027682507 0)
(-0.072472595 0.02548287 0)
(-0.084430039 0.021214822 0)
(-0.093710855 0.014943114 0)
(-0.099445787 0.0068782758 0)
(-0.10091227 -0.0024993812 0)
(-0.097646345 -0.012374687 0)
(-0.089578687 -0.021600211 0)
(-0.077170483 -0.028818773 0)
(-0.061496282 -0.032700021 0)
(-0.044247742 -0.032294656 0)
(-0.027558869 -0.027442078 0)
(-0.013580321 -0.019078653 0)
(-0.0040260426 -0.0092702402 0)
(-0.00026774516 -0.0011085393 0)
(-0.0014555011 0.0083632575 0)
(-0.0085470326 0.023176225 0)
(-0.021741215 0.034044353 0)
(-0.03778399 0.040754499 0)
(-0.055084917 0.043692824 0)
(-0.072504286 0.043250577 0)
(-0.088966319 0.039654254 0)
(-0.10343822 0.032996053 0)
(-0.11491071 0.023381417 0)
(-0.12241504 0.011116785 0)
(-0.12509404 -0.0031259578 0)
(-0.12230008 -0.018213694 0)
(-0.11374397 -0.032533787 0)
(-0.099683578 -0.044123516 0)
(-0.081089095 -0.05095697 0)
(-0.059768307 -0.051432862 0)
(-0.038286304 -0.045007222 0)
(-0.019518122 -0.032751671 0)
(-0.0060916871 -0.017490432 0)
(-0.00051099201 -0.003522159 0)
(-0.0017884891 0.013472434 0)
(-0.01026733 0.034953126 0)
(-0.02579975 0.049897841 0)
(-0.044457186 0.058782478 0)
(-0.064414346 0.062445826 0)
(-0.084460713 0.06153925 0)
(-0.10349683 0.056406267 0)
(-0.12048164 0.047175159 0)
(-0.13438078 0.033966697 0)
(-0.14415037 0.017132508 0)
(-0.14878043 -0.002531921 0)
(-0.14737163 -0.023628854 0)
(-0.13929158 -0.044132194 0)
(-0.12441879 -0.061429868 0)
(-0.10341816 -0.072629528 0)
(-0.078046018 -0.075162062 0)
(-0.051254591 -0.067697212 0)
(-0.02680622 -0.051117915 0)
(-0.00861129 -0.028962831 0)
(-0.00078698563 -0.0070518827 0)
(-0.0020415652 0.019432126 0)
(-0.011603169 0.04851825 0)
(-0.028989861 0.067983858 0)
(-0.049747936 0.079209821 0)
(-0.071878067 0.083641176 0)
(-0.094145133 0.082282886 0)
(-0.11548032 0.0756374 0)
(-0.13489326 0.063868155 0)
(-0.15138031 0.047071502 0)
(-0.1638614 0.025567961 0)
(-0.17116938 0.00016792416 0)
(-0.17213264 -0.027601389 0)
(-0.16569552 -0.055383492 0)
(-0.15117423 -0.079930429 0)
(-0.12868584 -0.097334867 0)
(-0.099658726 -0.10368296 0)
(-0.06723425 -0.096272979 0)
(-0.036115029 -0.075211014 0)
(-0.011928351 -0.044535136 0)
(-0.0011706651 -0.01200062 0)
(-0.0022008573 0.026007615 0)
(-0.012482436 0.063406031 0)
(-0.031134449 0.087746389 0)
(-0.053345562 0.10147031 0)
(-0.077005302 0.10675741 0)
(-0.10089663 0.10505593 0)
(-0.12403224 0.097073594 0)
(-0.14553219 0.083011089 0)
(-0.16448905 0.062896951 0)
(-0.17985503 0.036930992 0)
(-0.19037856 0.0058010913 0)
(-0.19463575 -0.029022892 0)
(-0.1911176 -0.06500337 0)
(-0.1784728 -0.098373273 0)
(-0.15601024 -0.12415806 0)
(-0.12443314 -0.13674362 0)
(-0.086638251 -0.13131224 0)
(-0.048058949 -0.10622034 0)
(-0.016427618 -0.065386282 0)
(-0.001753563 -0.018876752 0)
(-0.0022553808 0.032926329 0)
(-0.012851921 0.079072437 0)
(-0.032094564 0.10851381 0)
(-0.05497461 0.12484109 0)
(-0.07932489 0.13107019 0)
(-0.10398188 0.12917898 0)
(-0.1280862 0.12013491 0)
(-0.15092975 0.10419 0)
(-0.17178136 0.081272542 0)
(-0.18972862 0.051375724 0)
(-0.20356035 0.014921372 0)
(-0.21171363 -0.02686481 0)
(-0.21231034 -0.07151644 0)
(-0.2033242 -0.1150066 0)
(-0.18305009 -0.15142542 0)
(-0.15100701 -0.17326299 0)
(-0.10915725 -0.17280163 0)
(-0.063021187 -0.14522794 0)
(-0.022522907 -0.092968547 0)
(-0.0026586428 -0.028419523 0)
(-0.0022084625 0.039896761 0)
(-0.012716035 0.094926348 0)
(-0.031838611 0.12951664 0)
(-0.05449224 0.14843294 0)
(-0.078493711 0.15561063 0)
(-0.10276318 0.15364442 0)
(-0.12661262 0.14382843 0)
(-0.14956729 0.12650126 0)
(-0.17116154 0.10148651 0)
(-0.19074659 0.068517373 0)
(-0.20731825 0.027633779 0)
(-0.21936908 -0.020382651 0)
(-0.22487921 -0.073445647 0)
(-0.22129796 -0.12766877 0)
(-0.20584617 -0.17659794 0)
(-0.17646802 -0.21096826 0)
(-0.13333947 -0.21959039 0)
(-0.080894198 -0.19273501 0)
(-0.030639653 -0.12884044 0)
(-0.0040696584 -0.041633207 0)
(-0.0020933726 0.046655195 0)
(-0.012189619 0.1103998 0)
(-0.030535638 0.14994106 0)
(-0.052016355 0.17121614 0)
(-0.074463146 0.17916656 0)
(-0.096917673 0.17709834 0)
(-0.11891178 0.16671186 0)
(-0.14026453 0.14849071 0)
(-0.16086065 0.12218677 0)
(-0.18044243 0.087273286 0)
(-0.19840266 0.043359148 0)
(-0.21353664 -0.0093778967 0)
(-0.22401405 -0.069660677 0)
(-0.22708152 -0.13411401 0)
(-0.21908703 -0.19643121 0)
(-0.19626273 -0.24622848 0)
(-0.15621488 -0.26883665 0)
(-0.10070236 -0.24796721 0)
(-0.04114386 -0.17432056 0)
(-0.0062701263 -0.059828863 0)
(-0.0019965606 0.053049601 0)
(-0.011566426 0.12506498 0)
(-0.028662727 0.16902052 0)
(-0.048059101 0.19208229 0)
(-0.067641584 0.20033081 0)
(-0.086647777 0.19789038 0)
(-0.10490068 0.18694987 0)
(-0.12257524 0.16820729 0)
(-0.13997087 0.14140421 0)
(-0.15730538 0.10580035 0)
(-0.17452398 0.060578655 0)
(-0.19109228 0.0052372438 0)
(-0.20560968 -0.059907371 0)
(-0.21551252 -0.13259002 0)
(-0.21690589 -0.20750775 0)
(-0.20458003 -0.27429627 0)
(-0.17317448 -0.31569518 0)
(-0.12016914 -0.30805861 0)
(-0.054145817 -0.22986783 0)
(-0.0096743815 -0.084646937 0)
(-0.0021000323 0.059177218 0)
(-0.011416799 0.13879875 0)
(-0.027119486 0.1861502 0)
(-0.043631063 0.20992164 0)
(-0.058989375 0.21757703 0)
(-0.072787774 0.21417664 0)
(-0.085261606 0.20245759 0)
(-0.097014361 0.18338413 0)
(-0.10880314 0.15675241 0)
(-0.12136586 0.12168837 0)
(-0.13527008 0.077022499 0)
(-0.15071889 0.021629158 0)
(-0.16713744 -0.045096949 0)
(-0.18275378 -0.1225003 0)
(-0.19406476 -0.20710892 0)
(-0.19524291 -0.29009614 0)
(-0.17829843 -0.35356537 0)
(-0.13540644 -0.3674185 0)
(-0.069088316 -0.29413687 0)
(-0.014794577 -0.11797743 0)
(-0.0027682929 0.065614253 0)
(-0.012743813 0.15198394 0)
(-0.027336163 0.20097687 0)
(-0.040254073 0.22366089 0)
(-0.049941191 0.2293088 0)
(-0.056658694 0.22401859 0)
(-0.061250098 0.21106645 0)
(-0.0648353 0.19167328 0)
(-0.068641276 0.16571778 0)
(-0.073896325 0.13227627 0)
(-0.081749721 0.08996745 0)
(-0.093141256 0.037210581 0)
(-0.10848943 -0.027466585 0)
(-0.12723226 -0.10496284 0)
(-0.14707014 -0.19420668 0)
(-0.16281593 -0.2894718 0)
(-0.16509903 -0.37508382 0)
(-0.14090546 -0.41771073 0)
(-0.084062231 -0.36279941 0)
(-0.022011403 -0.16156682 0)
(-0.0047202847 0.073830849 0)
(-0.017225856 0.16571519 0)
(-0.031292019 0.21336184 0)
(-0.03969521 0.23215523 0)
(-0.041899407 0.2337838 0)
(-0.03937034 0.22537853 0)
(-0.03383439 0.21060054 0)
(-0.027024002 0.19080383 0)
(-0.02061665 0.16589618 0)
(-0.016240318 0.1349422 0)
(-0.015500859 0.09647773 0)
(-0.019949112 0.048699577 0)
(-0.03094076 -0.010401669 0)
(-0.049254561 -0.082909055 0)
(-0.074417001 -0.170132 0)
(-0.10329143 -0.27049176 0)
(-0.12726543 -0.3736843 0)
(-0.12974132 -0.44867601 0)
(-0.094916924 -0.42749535 0)
(-0.030930799 -0.21612139 0)
(-0.0093006882 0.086950268 0)
(-0.027435661 0.18184617 0)
(-0.040989819 0.22302175 0)
(-0.042692448 0.23377525 0)
(-0.034422787 0.22878773 0)
(-0.019643656 0.21591016 0)
(-0.0012621401 0.19877039 0)
(0.018320163 0.17855909 0)
(0.037045465 0.15508214 0)
(0.053029929 0.12736189 0)
(0.064396817 0.093942064 0)
(0.069207713 0.053022639 0)
(0.065393726 0.0024718213 0)
(0.051028109 -0.060330047 0)
(0.024625896 -0.13836805 0)
(-0.013716419 -0.23416384 0)
(-0.058765146 -0.3451633 0)
(-0.093518324 -0.44953274 0)
(-0.094473029 -0.47558048 0)
(-0.03921664 -0.28047759 0)
(-0.018580788 0.11087144 0)
(-0.046042552 0.20177314 0)
(-0.055237127 0.22792454 0)
(-0.043996476 0.22500807 0)
(-0.019388448 0.21060261 0)
(0.012313729 0.19227055 0)
(0.046970694 0.17277755 0)
(0.081730083 0.15264941 0)
(0.1144132 0.13135141 0)
(0.14312893 0.10779716 0)
(0.16599374 0.080595817 0)
(0.1809599 0.048118215 0)
(0.18555702 0.0084562807 0)
(0.17714897 -0.040810507 0)
(0.15274506 -0.10317 0)
(0.10947674 -0.18390121 0)
(0.047230758 -0.28855076 0)
(-0.02144611 -0.41050673 0)
(-0.072256148 -0.49101291 0)
(-0.041148197 -0.35053967 0)
(-0.033352267 0.15561653 0)
(-0.068602914 0.22040383 0)
(-0.055191418 0.21728906 0)
(-0.016086271 0.19531911 0)
(0.034499771 0.17091719 0)
(0.088492891 0.14848851 0)
(0.14175082 0.12860756 0)
(0.19194932 0.11057425 0)
(0.23752008 0.093296292 0)
(0.27709969 0.075575816 0)
(0.30919874 0.056183995 0)
(0.33202567 0.033827159 0)
(0.34316029 0.0070318635 0)
(0.3398159 -0.025905908 0)
(0.31812194 -0.067737812 0)
(0.27326884 -0.12410503 0)
(0.20044065 -0.20584533 0)
(0.10213502 -0.32506778 0)
(-0.012389745 -0.45457022 0)
(-0.023757289 -0.4086394 0)
(-0.033080783 0.23907426 0)
(-0.042646581 0.21792083 0)
(0.042206862 0.16426567 0)
(0.12760215 0.12783389 0)
(0.2076928 0.10143283 0)
(0.28027346 0.081655347 0)
(0.34486225 0.066645703 0)
(0.40157011 0.054701385 0)
(0.45053654 0.044398793 0)
(0.49160609 0.034640257 0)
(0.52414824 0.024551799 0)
(0.54697397 0.013383533 0)
(0.55821216 0.00040183013 0)
(0.55570132 -0.015135233 0)
(0.53552028 -0.034967384 0)
(0.49244246 -0.062486958 0)
(0.41796988 -0.10694703 0)
(0.30410399 -0.19317525 0)
(0.12313669 -0.33691893 0)
(0.052373834 -0.39437902 0)
(0.24299965 0.15257518 0)
(0.30529723 0.1185434 0)
(0.45481333 0.076108355 0)
(0.5600094 0.050840039 0)
(0.6322325 0.035125652 0)
(0.68654682 0.024811754 0)
(0.72943438 0.017959586 0)
(0.76379122 0.013255577 0)
(0.79127351 0.0097620877 0)
(0.8127456 0.0068544968 0)
(0.82840598 0.0041188637 0)
(0.83793949 0.0012773297 0)
(0.84056746 -0.0018437909 0)
(0.83497362 -0.0053258338 0)
(0.81886611 -0.0098285893 0)
(0.78942856 -0.016232519 0)
(0.73784313 -0.026935639 0)
(0.6531679 -0.051286596 0)
(0.45609778 -0.11374612 0)
(0.31788989 -0.1720601 0)
)
;

boundaryField
{
    movingWall
    {
        type            fixedValue;
        value           uniform (1 0 0);
    }
    fixedWalls
    {
        type            fixedValue;
        value           uniform (0 0 0);
    }
    frontAndBack
    {
        type            empty;
    }
}


// ************************************************************************* //
