/*--------------------------------*- C++ -*----------------------------------*\
| =========                 |                                                 |
| \\      /  F ield         | OpenFOAM: The Open Source CFD Toolbox           |
|  \\    /   O peration     | Version:  2112                                  |
|   \\  /    A nd           | Website:  www.openfoam.com                      |
|    \\/     M anipulation  |                                                 |
\*---------------------------------------------------------------------------*/
FoamFile
{
    version     2.0;
    format      ascii;
    arch        "LSB;label=32;scalar=64";
    class       volVectorField;
    location    "17";
    object      U_0;
}
// * * * * * * * * * * * * * * * * * * * * * * * * * * * * * * * * * * * * * //

dimensions      [0 1 -1 0 0 0 0];

internalField   nonuniform List<vector> 
400
(
(0.00028426499 -0.00028139683 0)
(0.00011043288 7.9949741e-05 0)
(-0.0013271772 0.0004779588 0)
(-0.0036214526 0.00073580986 0)
(-0.0064226781 0.00086737142 0)
(-0.0094299315 0.00090710598 0)
(-0.012385889 0.00087470337 0)
(-0.015053831 0.00077138458 0)
(-0.017191558 0.0005883814 0)
(-0.018549667 0.00032003609 0)
(-0.018899469 -2.4782983e-05 0)
(-0.018083276 -0.00041815496 0)
(-0.016077533 -0.00079953903 0)
(-0.013047251 -0.0010928594 0)
(-0.0093654236 -0.0012209933 0)
(-0.0055773426 -0.0011293154 0)
(-0.0023004878 -0.00081279594 0)
(-8.3287388e-05 -0.00033800441 0)
(0.00075988033 0.00015219463 0)
(0.00040934567 0.00038924551 0)
(-8.6125804e-05 -0.00012357048 0)
(-0.0018690662 0.0017869536 0)
(-0.006305462 0.0036253971 0)
(-0.012450386 0.0048615781 0)
(-0.019596907 0.0054974721 0)
(-0.027101712 0.0056195826 0)
(-0.03435224 0.0052850143 0)
(-0.040761042 0.0045035442 0)
(-0.045749518 0.0032656777 0)
(-0.048766916 0.0015895034 0)
(-0.049357896 -0.00043516542 0)
(-0.047245871 -0.0026174407 0)
(-0.042445304 -0.0046634352 0)
(-0.035356385 -0.0062176197 0)
(-0.026775201 -0.0069363118 0)
(-0.017825412 -0.0065912353 0)
(-0.0097748912 -0.0051791564 0)
(-0.0037463504 -0.0029992755 0)
(-0.00038901225 -0.00066575099 0)
(0.00028976781 0.00078327865 0)
(-0.0005879894 0.001433445 0)
(-0.004241967 0.0063763263 0)
(-0.011756119 0.01063849 0)
(-0.021464189 0.013480912 0)
(-0.03235942 0.014895324 0)
(-0.043578971 0.015014419 0)
(-0.054276316 0.013933492 0)
(-0.063629813 0.011682151 0)
(-0.07084204 0.00828012 0)
(-0.075174216 0.0038284681 0)
(-0.076025829 -0.0014049401 0)
(-0.07304521 -0.0069335976 0)
(-0.066255909 -0.012068845 0)
(-0.056160827 -0.015996889 0)
(-0.043774705 -0.017939404 0)
(-0.030565383 -0.017377136 0)
(-0.018248751 -0.014288071 0)
(-0.0084173572 -0.0093114671 0)
(-0.0021511292 -0.0037619056 0)
(-2.0496057e-06 0.00031658337 0)
(-0.0010528243 0.0042995788 0)
(-0.0065133723 0.01356296 0)
(-0.016995286 0.020859751 0)
(-0.030024225 0.025555947 0)
(-0.044290939 0.027755798 0)
(-0.058771785 0.027682477 0)
(-0.072472511 0.025482843 0)
(-0.084429944 0.021214802 0)
(-0.093710754 0.014943104 0)
(-0.099445683 0.0068782755 0)
(-0.10091217 -0.0024993705 0)
(-0.097646253 -0.012374666 0)
(-0.089578606 -0.021600182 0)
(-0.077170418 -0.028818739 0)
(-0.061496233 -0.032699987 0)
(-0.044247709 -0.032294627 0)
(-0.02755885 -0.027442057 0)
(-0.013580313 -0.019078641 0)
(-0.0040260409 -0.0092702374 0)
(-0.00026774528 -0.001108541 0)
(-0.0014554991 0.0083632481 0)
(-0.0085470213 0.023176198 0)
(-0.021741187 0.034044313 0)
(-0.037783943 0.040754452 0)
(-0.05508485 0.043692775 0)
(-0.072504202 0.043250531 0)
(-0.088966218 0.039654215 0)
(-0.10343811 0.032996024 0)
(-0.11491059 0.023381402 0)
(-0.12241491 0.011116785 0)
(-0.12509392 -0.0031259411 0)
(-0.12229997 -0.018213663 0)
(-0.11374388 -0.032533744 0)
(-0.099683497 -0.044123465 0)
(-0.081089032 -0.050956918 0)
(-0.059768263 -0.051432815 0)
(-0.038286277 -0.045007186 0)
(-0.019518109 -0.032751649 0)
(-0.0060916835 -0.017490424 0)
(-0.00051099183 -0.0035221594 0)
(-0.0017884867 0.013472417 0)
(-0.010267317 0.034953084 0)
(-0.025799718 0.049897782 0)
(-0.044457134 0.058782411 0)
(-0.064414272 0.062445758 0)
(-0.08446062 0.061539186 0)
(-0.10349672 0.056406213 0)
(-0.12048152 0.04717512 0)
(-0.13438065 0.033966677 0)
(-0.14415024 0.01713251 0)
(-0.1487803 -0.0025318987 0)
(-0.14737151 -0.023628812 0)
(-0.13929147 -0.044132137 0)
(-0.1244187 -0.061429801 0)
(-0.10341809 -0.072629457 0)
(-0.078045963 -0.075161996 0)
(-0.051254556 -0.067697159 0)
(-0.026806202 -0.05111788 0)
(-0.0086112844 -0.028962815 0)
(-0.00078698512 -0.0070518808 0)
(-0.0020415625 0.019432102 0)
(-0.011603155 0.048518192 0)
(-0.028989828 0.067983779 0)
(-0.049747882 0.079209733 0)
(-0.071877992 0.083641087 0)
(-0.09414504 0.082282805 0)
(-0.11548021 0.075637333 0)
(-0.13489314 0.063868107 0)
(-0.15138018 0.047071477 0)
(-0.16386127 0.025567962 0)
(-0.17116925 0.00016795136 0)
(-0.17213252 -0.027601338 0)
(-0.16569541 -0.055383421 0)
(-0.15117414 -0.079930345 0)
(-0.12868576 -0.097334777 0)
(-0.099658664 -0.10368287 0)
(-0.067234208 -0.096272906 0)
(-0.036115007 -0.075210963 0)
(-0.011928343 -0.044535109 0)
(-0.0011706643 -0.012000615 0)
(-0.0022008549 0.026007583 0)
(-0.012482424 0.063405957 0)
(-0.031134419 0.087746291 0)
(-0.053345512 0.1014702 0)
(-0.077005234 0.1067573 0)
(-0.10089655 0.10505583 0)
(-0.12403214 0.097073515 0)
(-0.14553209 0.083011034 0)
(-0.16448894 0.062896922 0)
(-0.17985492 0.036930993 0)
(-0.19037844 0.005801122 0)
(-0.19463565 -0.029022834 0)
(-0.1911175 -0.065003289 0)
(-0.17847271 -0.098373175 0)
(-0.15601016 -0.12415795 0)
(-0.12443307 -0.13674352 0)
(-0.086638205 -0.13131215 0)
(-0.048058923 -0.10622027 0)
(-0.016427608 -0.065386243 0)
(-0.0017535617 -0.018876742 0)
(-0.002255379 0.032926292 0)
(-0.012851911 0.079072349 0)
(-0.03209454 0.1085137 0)
(-0.05497457 0.12484097 0)
(-0.079324835 0.13107007 0)
(-0.10398181 0.12917887 0)
(-0.12808612 0.12013482 0)
(-0.15092967 0.10418994 0)
(-0.17178128 0.081272511 0)
(-0.18972853 0.051375725 0)
(-0.20356026 0.014921405 0)
(-0.21171354 -0.026864748 0)
(-0.21231026 -0.071516353 0)
(-0.20332412 -0.1150065 0)
(-0.18305002 -0.1514253 0)
(-0.15100695 -0.17326287 0)
(-0.1091572 -0.17280151 0)
(-0.063021159 -0.14522785 0)
(-0.022522896 -0.092968494 0)
(-0.002658641 -0.028419508 0)
(-0.0022084616 0.03989672 0)
(-0.01271603 0.094926251 0)
(-0.031838596 0.12951651 0)
(-0.054492214 0.1484328 0)
(-0.078493676 0.15561049 0)
(-0.10276313 0.1536443 0)
(-0.12661257 0.14382833 0)
(-0.14956724 0.12650119 0)
(-0.17116149 0.10148647 0)
(-0.19074654 0.068517375 0)
(-0.2073182 0.027633814 0)
(-0.21936904 -0.020382587 0)
(-0.22487917 -0.073445558 0)
(-0.22129791 -0.12766866 0)
(-0.20584613 -0.17659782 0)
(-0.17646797 -0.21096813 0)
(-0.13333943 -0.21959027 0)
(-0.080894171 -0.19273491 0)
(-0.030639641 -0.12884037 0)
(-0.0040696562 -0.041633185 0)
(-0.0020933728 0.046655152 0)
(-0.012189619 0.1103997 0)
(-0.030535635 0.14994093 0)
(-0.052016348 0.17121599 0)
(-0.074463136 0.17916642 0)
(-0.096917661 0.17709821 0)
(-0.11891176 0.16671176 0)
(-0.14026452 0.14849065 0)
(-0.16086064 0.12218674 0)
(-0.18044243 0.08727329 0)
(-0.19840266 0.043359185 0)
(-0.21353664 -0.0093778321 0)
(-0.22401405 -0.06966059 0)
(-0.22708151 -0.13411391 0)
(-0.21908702 -0.19643109 0)
(-0.19626271 -0.24622835 0)
(-0.15621486 -0.26883652 0)
(-0.10070234 -0.24796709 0)
(-0.041143848 -0.17432048 0)
(-0.0062701236 -0.059828835 0)
(-0.0019965619 0.053049559 0)
(-0.011566431 0.12506488 0)
(-0.028662737 0.16902039 0)
(-0.048059115 0.19208215 0)
(-0.067641601 0.20033067 0)
(-0.086647798 0.19789026 0)
(-0.10490071 0.18694978 0)
(-0.12257527 0.16820723 0)
(-0.1399709 0.14140418 0)
(-0.15730542 0.10580036 0)
(-0.17452402 0.060578693 0)
(-0.19109233 0.0052373071 0)
(-0.20560972 -0.059907288 0)
(-0.21551255 -0.13258993 0)
(-0.21690592 -0.20750764 0)
(-0.20458004 -0.27429615 0)
(-0.17317447 -0.31569505 0)
(-0.12016913 -0.30805849 0)
(-0.054145808 -0.22986774 0)
(-0.0096743787 -0.084646902 0)
(-0.0021000345 0.05917718 0)
(-0.011416809 0.13879866 0)
(-0.027119509 0.18615007 0)
(-0.043631097 0.20992151 0)
(-0.058989418 0.21757689 0)
(-0.072787828 0.21417653 0)
(-0.08526167 0.20245751 0)
(-0.097014434 0.18338407 0)
(-0.10880322 0.15675239 0)
(-0.12136594 0.12168838 0)
(-0.13527017 0.077022538 0)
(-0.15071897 0.021629218 0)
(-0.16713753 -0.045096873 0)
(-0.18275386 -0.12250022 0)
(-0.19406482 -0.20710883 0)
(-0.19524295 -0.29009604 0)
(-0.17829846 -0.35356526 0)
(-0.13540645 -0.36741839 0)
(-0.069088312 -0.29413679 0)
(-0.014794574 -0.11797739 0)
(-0.002768296 0.065614222 0)
(-0.012743827 0.15198386 0)
(-0.027336196 0.20097676 0)
(-0.040254126 0.22366076 0)
(-0.04994126 0.22930868 0)
(-0.056658777 0.22401848 0)
(-0.061250194 0.21106637 0)
(-0.064835406 0.19167324 0)
(-0.068641389 0.16571777 0)
(-0.073896442 0.13227629 0)
(-0.081749839 0.089967489 0)
(-0.093141372 0.037210638 0)
(-0.10848954 -0.027466517 0)
(-0.12723237 -0.10496277 0)
(-0.14707023 -0.1942066 0)
(-0.16281599 -0.28947172 0)
(-0.16509907 -0.37508374 0)
(-0.14090548 -0.41771064 0)
(-0.084062234 -0.36279933 0)
(-0.022011401 -0.16156678 0)
(-0.004720289 0.073830829 0)
(-0.017225874 0.16571513 0)
(-0.031292059 0.21336175 0)
(-0.039695276 0.23215513 0)
(-0.041899496 0.2337837 0)
(-0.039370446 0.22537844 0)
(-0.033834509 0.21060048 0)
(-0.027024131 0.19080379 0)
(-0.020616786 0.16589617 0)
(-0.016240455 0.13494221 0)
(-0.015500994 0.096477768 0)
(-0.019949241 0.048699629 0)
(-0.030940881 -0.010401609 0)
(-0.049254672 -0.082908992 0)
(-0.074417099 -0.17013194 0)
(-0.10329151 -0.2704917 0)
(-0.12726549 -0.37368424 0)
(-0.12974135 -0.44867594 0)
(-0.094916935 -0.42749528 0)
(-0.0309308 -0.21612135 0)
(-0.0093006929 0.086950259 0)
(-0.027435682 0.18184613 0)
(-0.040989862 0.22302168 0)
(-0.042692517 0.23377517 0)
(-0.034422884 0.22878765 0)
(-0.019643774 0.21591009 0)
(-0.0012622717 0.19877034 0)
(0.018320023 0.17855906 0)
(0.037045321 0.15508213 0)
(0.053029786 0.12736191 0)
(0.064396679 0.093942096 0)
(0.069207584 0.053022684 0)
(0.065393608 0.0024718721 0)
(0.051028003 -0.060329996 0)
(0.024625802 -0.13836801 0)
(-0.013716498 -0.2341638 0)
(-0.058765207 -0.34516326 0)
(-0.093518364 -0.4495327 0)
(-0.094473045 -0.47558044 0)
(-0.039216643 -0.28047757 0)
(-0.01858079 0.11087144 0)
(-0.046042571 0.20177313 0)
(-0.055237168 0.2279245 0)
(-0.043996538 0.22500801 0)
(-0.019388535 0.21060255 0)
(0.012313619 0.1922705 0)
(0.046970569 0.17277751 0)
(0.081729948 0.15264938 0)
(0.11441306 0.13135141 0)
(0.1431288 0.10779717 0)
(0.16599361 0.08059584 0)
(0.18095978 0.048118249 0)
(0.18555691 0.0084563196 0)
(0.17714888 -0.040810468 0)
(0.15274498 -0.10316996 0)
(0.10947667 -0.18390119 0)
(0.047230705 -0.28855074 0)
(-0.021446147 -0.41050671 0)
(-0.072256166 -0.49101289 0)
(-0.041148201 -0.35053966 0)
(-0.033352263 0.15561653 0)
(-0.068602921 0.22040383 0)
(-0.055191446 0.21728905 0)
(-0.016086314 0.19531908 0)
(0.03449971 0.17091715 0)
(0.08849281 0.14848848 0)
(0.14175072 0.12860754 0)
(0.19194922 0.11057423 0)
(0.23751996 0.093296285 0)
(0.27709957 0.07557582 0)
(0.30919863 0.056184009 0)
(0.33202557 0.03382718 0)
(0.34316021 0.0070318891 0)
(0.33981583 -0.025905883 0)
(0.31812189 -0.06773779 0)
(0.27326879 -0.12410502 0)
(0.20044061 -0.20584532 0)
(0.10213499 -0.32506777 0)
(-0.012389758 -0.45457022 0)
(-0.023757292 -0.40863939 0)
(-0.033080775 0.23907426 0)
(-0.042646572 0.21792083 0)
(0.042206857 0.16426567 0)
(0.12760213 0.12783388 0)
(0.20769277 0.10143282 0)
(0.28027341 0.081655332 0)
(0.34486219 0.066645689 0)
(0.40157004 0.054701376 0)
(0.45053646 0.044398789 0)
(0.49160601 0.034640259 0)
(0.52414816 0.024551805 0)
(0.5469739 0.013383543 0)
(0.5582121 0.00040184166 0)
(0.55570128 -0.015135221 0)
(0.53552025 -0.034967374 0)
(0.49244243 -0.062486951 0)
(0.41796987 -0.10694703 0)
(0.30410398 -0.19317524 0)
(0.12313668 -0.33691893 0)
(0.052373832 -0.39437902 0)
(0.24299965 0.15257517 0)
(0.30529724 0.1185434 0)
(0.45481334 0.076108354 0)
(0.5600094 0.050840039 0)
(0.63223249 0.03512565 0)
(0.68654681 0.024811751 0)
(0.72943436 0.017959583 0)
(0.76379119 0.013255575 0)
(0.79127347 0.009762087 0)
(0.81274557 0.0068544975 0)
(0.82840595 0.0041188656 0)
(0.83793946 0.0012773323 0)
(0.84056744 -0.0018437886 0)
(0.83497361 -0.0053258314 0)
(0.8188661 -0.0098285872 0)
(0.78942856 -0.016232518 0)
(0.73784313 -0.026935639 0)
(0.6531679 -0.051286596 0)
(0.45609778 -0.11374612 0)
(0.31788989 -0.1720601 0)
)
;

boundaryField
{
    movingWall
    {
        type            fixedValue;
        value           uniform (1 0 0);
    }
    fixedWalls
    {
        type            fixedValue;
        value           uniform (0 0 0);
    }
    frontAndBack
    {
        type            empty;
    }
}


// ************************************************************************* //
