/*--------------------------------*- C++ -*----------------------------------*\
| =========                 |                                                 |
| \\      /  F ield         | OpenFOAM: The Open Source CFD Toolbox           |
|  \\    /   O peration     | Version:  2112                                  |
|   \\  /    A nd           | Website:  www.openfoam.com                      |
|    \\/     M anipulation  |                                                 |
\*---------------------------------------------------------------------------*/
FoamFile
{
    version     2.0;
    format      ascii;
    arch        "LSB;label=32;scalar=64";
    class       volScalarField;
    location    "5.5";
    object      p;
}
// * * * * * * * * * * * * * * * * * * * * * * * * * * * * * * * * * * * * * //

dimensions      [0 2 -2 0 0 0 0];

internalField   nonuniform List<scalar> 
8800
(
0.488521
0.441026
0.402815
0.374419
0.354233
0.340133
0.330251
0.32339
0.319
0.317074
0.317955
0.321454
0.327252
0.335658
0.347544
0.364458
0.388533
0.421882
0.463916
0.522541
0.318922
0.326887
0.335412
0.339466
0.338828
0.334685
0.329044
0.323626
0.319267
0.316477
0.315986
0.318133
0.322034
0.327178
0.332981
0.338211
0.340832
0.339299
0.332835
0.323372
0.296567
0.303282
0.308673
0.312581
0.315255
0.316417
0.316009
0.314622
0.313145
0.312415
0.312915
0.31446
0.316279
0.317491
0.317285
0.315383
0.312163
0.307543
0.301705
0.297969
0.295615
0.298188
0.302158
0.305541
0.307811
0.309161
0.309787
0.309762
0.309353
0.309102
0.309524
0.310326
0.310868
0.310775
0.309927
0.308287
0.305528
0.301705
0.298248
0.297218
0.296842
0.297434
0.298687
0.300128
0.301665
0.303164
0.304206
0.304779
0.30503
0.305216
0.305538
0.305821
0.305776
0.305224
0.304113
0.30263
0.301246
0.29987
0.298966
0.298736
0.294918
0.295174
0.295802
0.296571
0.297343
0.298077
0.298752
0.29933
0.299778
0.30015
0.300484
0.300658
0.300571
0.300235
0.299728
0.299103
0.298411
0.297721
0.297292
0.2972
0.292025
0.292136
0.292419
0.29285
0.293386
0.294007
0.294654
0.295272
0.295837
0.296357
0.29675
0.296914
0.29684
0.296568
0.296174
0.295751
0.295364
0.29505
0.29488
0.294838
0.288292
0.288353
0.288508
0.288749
0.289067
0.28947
0.289955
0.290507
0.291101
0.29171
0.292213
0.292494
0.292569
0.292505
0.292367
0.292205
0.292047
0.291915
0.291841
0.291818
0.284231
0.284271
0.284377
0.284551
0.284801
0.285141
0.285582
0.286128
0.286775
0.287499
0.288147
0.288572
0.288793
0.288871
0.288866
0.288821
0.288763
0.28871
0.288677
0.288663
0.279889
0.279913
0.279995
0.280133
0.280345
0.280653
0.281086
0.281657
0.282389
0.283259
0.284095
0.284699
0.28508
0.285302
0.285418
0.285471
0.285488
0.285487
0.285481
0.285473
0.275292
0.275316
0.275387
0.275517
0.275726
0.276045
0.27651
0.277155
0.278011
0.279081
0.280152
0.28097
0.281524
0.281885
0.282107
0.282238
0.282309
0.282343
0.282355
0.282349
0.270424
0.270444
0.270522
0.270665
0.270897
0.271257
0.271793
0.272557
0.273595
0.274927
0.276292
0.277365
0.278126
0.278633
0.27896
0.279163
0.279282
0.279347
0.279373
0.279369
0.265265
0.265285
0.265374
0.265539
0.265813
0.266243
0.26689
0.267825
0.269113
0.270786
0.272527
0.273919
0.274909
0.275585
0.276028
0.276308
0.276475
0.276568
0.276608
0.276604
0.259741
0.259765
0.259872
0.260074
0.260411
0.260943
0.261747
0.262914
0.264531
0.266646
0.268859
0.270637
0.271913
0.272789
0.273367
0.273735
0.273958
0.274082
0.274136
0.274133
0.253768
0.253798
0.253932
0.254186
0.254609
0.255279
0.256293
0.257768
0.259816
0.262495
0.265306
0.267568
0.269195
0.270315
0.271056
0.271528
0.271815
0.271977
0.272047
0.272043
0.247227
0.247264
0.247436
0.247759
0.248299
0.249152
0.250445
0.252322
0.254926
0.25833
0.261895
0.264762
0.266825
0.268245
0.269186
0.269786
0.270151
0.270356
0.270446
0.270441
0.239956
0.240004
0.240225
0.240641
0.241336
0.242434
0.244091
0.246493
0.249815
0.254143
0.258661
0.262285
0.26489
0.266682
0.26787
0.268627
0.269088
0.269348
0.26946
0.269454
0.231739
0.231802
0.232091
0.232633
0.233535
0.234955
0.237094
0.240181
0.244429
0.249935
0.255653
0.260223
0.263502
0.265756
0.267248
0.2682
0.26878
0.269106
0.269248
0.269239
0.222287
0.222372
0.222753
0.223466
0.224647
0.2265
0.229276
0.233261
0.238706
0.245711
0.252934
0.258683
0.262798
0.265624
0.267495
0.268689
0.269415
0.269824
0.270001
0.26999
0.211202
0.211319
0.211828
0.212777
0.214342
0.216782
0.220414
0.225584
0.23258
0.241485
0.250587
0.257792
0.262941
0.266475
0.268817
0.270312
0.271222
0.271734
0.271955
0.271941
0.197932
0.198097
0.198789
0.200073
0.202178
0.205435
0.210233
0.216979
0.225986
0.23729
0.248714
0.257705
0.264122
0.268533
0.271461
0.273335
0.274476
0.275119
0.275396
0.275377
0.18169
0.18193
0.18289
0.184669
0.187568
0.191993
0.19841
0.207275
0.218886
0.233189
0.247442
0.258594
0.266558
0.272054
0.27572
0.278075
0.279514
0.280323
0.28067
0.280648
0.161285
0.16164
0.163023
0.165594
0.169723
0.175885
0.184603
0.196336
0.211298
0.22929
0.246924
0.260644
0.270472
0.27731
0.281919
0.284906
0.286739
0.287767
0.288205
0.288178
0.13477
0.135304
0.137452
0.141434
0.147598
0.156441
0.168491
0.184106
0.20332
0.22575
0.247318
0.264013
0.276049
0.284543
0.290377
0.294235
0.296641
0.297993
0.298561
0.298526
0.0987144
0.099659
0.103505
0.11025
0.119944
0.13303
0.149907
0.170683
0.195148
0.222748
0.248743
0.268774
0.283357
0.293866
0.301311
0.306437
0.309784
0.311747
0.312588
0.312529
0.0464149
0.0492166
0.0575762
0.0700251
0.0859377
0.105642
0.129234
0.156532
0.187158
0.220503
0.251259
0.274871
0.292264
0.305129
0.314629
0.321572
0.326525
0.329782
0.331409
0.331358
-0.0339205
-0.0202013
-0.000756181
0.0220047
0.0474398
0.0760197
0.107733
0.142416
0.179754
0.219255
0.255129
0.2827
0.303358
0.319137
0.331399
0.341077
0.348803
0.35486
0.359123
0.360271
-0.119045
-0.0900231
-0.0587583
-0.025591
0.00956225
0.0468855
0.0865403
0.128517
0.172666
0.218739
0.260483
0.292869
0.31759
0.337005
0.35265
0.365587
0.376473
0.386045
0.395038
0.396711
-0.179862
-0.148591
-0.109522
-0.0682056
-0.0250079
0.0200668
0.0669759
0.115673
0.166094
0.218133
0.265013
0.301321
0.329042
0.350786
0.368197
0.382374
0.39409
0.403848
0.411543
0.413201
-0.22605
-0.192749
-0.149429
-0.102979
-0.0541533
-0.00327151
0.049397
0.103662
0.159396
0.216514
0.267698
0.307124
0.336963
0.360057
0.378247
0.392793
0.404609
0.414309
0.421958
0.423697
-0.260498
-0.226782
-0.180688
-0.13085
-0.0781812
-0.0230934
0.0339993
0.0927382
0.152894
0.21436
0.269253
0.311286
0.342801
0.366908
0.385639
0.400408
0.412221
0.421768
0.429101
0.430843
-0.287463
-0.25362
-0.205986
-0.153744
-0.0981673
-0.0398715
0.020621
0.0828573
0.146548
0.21161
0.269733
0.314139
0.347219
0.372271
0.391512
0.406495
0.418343
0.427811
0.43494
0.436687
-0.30966
-0.275659
-0.226935
-0.172963
-0.115286
-0.0545529
0.00855915
0.0735
0.139995
0.208096
0.269212
0.316012
0.350761
0.376877
0.396732
0.412017
0.423965
0.433391
0.440361
0.442121
-0.328708
-0.294406
-0.244765
-0.18941
-0.130102
-0.0675377
-0.00246621
0.0644907
0.133117
0.203738
0.267719
0.317108
0.35381
0.381246
0.401911
0.417636
0.429781
0.439233
0.446109
0.447887
-0.345401
-0.310755
-0.260261
-0.20379
-0.143162
-0.0791869
-0.0126985
0.0556361
0.125729
0.198354
0.265155
0.317486
0.356601
0.385756
0.407519
0.423884
0.436341
0.445899
0.45271
0.45449
-0.360369
-0.325224
-0.273926
-0.2165
-0.154816
-0.0897776
-0.0223283
0.0468032
0.117691
0.191756
0.261337
0.3171
0.35926
0.390683
0.413952
0.431216
0.444142
0.453913
0.46072
0.462509
-0.37371
-0.338154
-0.286081
-0.227807
-0.165262
-0.0994389
-0.0314404
0.0379291
0.108901
0.183738
0.255995
0.31579
0.361815
0.396239
0.421551
0.440074
0.453687
0.463799
0.470625
0.472463
-0.385861
-0.349747
-0.297052
-0.237935
-0.174648
-0.108264
-0.0400631
0.0290044
0.0993083
0.174087
0.248798
0.31328
0.364194
0.402566
0.430632
0.450876
0.465474
0.476018
0.482898
0.48485
-0.39696
-0.36013
-0.306856
-0.247023
-0.183072
-0.116291
-0.0481755
0.0200867
0.088914
0.162636
0.23935
0.309213
0.366242
0.409748
0.441456
0.46401
0.47992
0.491116
0.498172
0.500165
-0.407068
-0.369881
-0.315689
-0.255157
-0.190604
-0.123536
-0.0557307
0.0112698
0.0777908
0.14925
0.227229
0.303125
0.367697
0.417801
0.454274
0.479858
0.497501
0.509541
0.516916
0.519008
-0.416368
-0.378685
-0.323681
-0.262418
-0.197297
-0.130007
-0.0626764
0.00269044
0.0660745
0.133867
0.212001
0.294462
0.368223
0.426681
0.469217
0.498706
0.518642
0.531848
0.539637
0.541619
-0.425078
-0.38666
-0.330901
-0.268895
-0.203195
-0.135707
-0.0689456
-0.00551116
0.0539628
0.116498
0.193244
0.282599
0.367429
0.436188
0.48638
0.520806
0.543666
0.558418
0.566753
0.568469
-0.433105
-0.393944
-0.337412
-0.274658
-0.208363
-0.140648
-0.0744753
-0.0131787
0.0416853
0.0972677
0.170546
0.266834
0.364771
0.446053
0.505622
0.54622
0.572644
0.58917
0.598021
0.599384
-0.440561
-0.400664
-0.343319
-0.279783
-0.212852
-0.144872
-0.0792378
-0.0201588
0.0295036
0.0763704
0.143587
0.24645
0.35969
0.455887
0.526565
0.574998
0.606003
0.62439
0.633353
0.633983
-0.447677
-0.406892
-0.348691
-0.284343
-0.216733
-0.148411
-0.083221
-0.0263232
0.0177242
0.0540692
0.112145
0.22063
0.351479
0.465243
0.548899
0.606435
0.643653
0.664467
0.671924
0.670702
-0.454352
-0.412692
-0.353576
-0.288396
-0.220076
-0.151319
-0.0864213
-0.0315837
0.00663387
0.0307221
0.0759319
0.188451
0.339273
0.4739
0.572063
0.638833
0.684131
0.71069
0.715028
0.707355
-0.460823
-0.418129
-0.358015
-0.292013
-0.222967
-0.153669
-0.0888981
-0.0359229
-0.00366558
0.00635946
0.0338783
0.147777
0.321943
0.481998
0.593485
0.668441
0.7227
0.763431
0.774277
0.747434
-0.467084
-0.423194
-0.362062
-0.295322
-0.225544
-0.155583
-0.0907542
-0.0394231
-0.0132782
-0.0198392
-0.0165159
0.0928195
0.295382
0.489368
0.614058
0.690735
0.744878
0.779518
0.782017
0.743572
-0.472964
-0.427735
-0.365576
-0.298315
-0.227745
-0.156993
-0.0919927
-0.041899
-0.02169
-0.0469689
-0.0762676
0.0192674
0.261016
0.499093
0.629419
0.687
0.719572
0.724443
0.652248
0.599977
-0.477636
-0.431277
-0.368155
-0.300477
-0.229128
-0.157644
-0.0925156
-0.0431861
-0.0285219
-0.0742656
-0.147719
-0.0822543
0.202616
0.499377
0.635945
0.654029
0.658236
0.601348
0.504424
0.441305
-0.540893
-0.431291
-0.371061
-0.302776
-0.230871
-0.158604
-0.0922573
-0.0427491
-0.0327552
-0.100923
-0.235611
-0.226869
0.100149
0.493102
0.642301
0.611208
0.536304
0.433658
0.316738
0.252159
-0.449844
-0.432546
-0.374852
-0.30597
-0.232899
-0.158844
-0.0914433
-0.0420497
-0.0379097
-0.137297
-0.398132
-0.588523
-0.203327
0.365861
0.52007
0.329126
0.149133
0.0359918
-0.0703332
-0.00274888
-0.478713
-0.43992
-0.379106
-0.309844
-0.235493
-0.160013
-0.0903686
-0.0392764
-0.0359377
-0.151395
-0.520071
-0.977475
-0.6064
0.100424
0.217377
0.000309142
-0.190616
-0.321669
-0.459358
-0.333473
-0.494186
-0.449833
-0.385866
-0.314982
-0.238905
-0.161612
-0.0894892
-0.0359371
-0.0314387
-0.163235
-0.665145
-1.51465
-1.14991
-0.356319
-0.22643
-0.415947
-0.598711
-0.74678
-0.948305
-0.773457
-0.508615
-0.459741
-0.39315
-0.319931
-0.241921
-0.162537
-0.0879445
-0.0312765
-0.0239067
-0.167037
-0.800499
-2.04343
-1.79513
-0.867546
-0.729412
-0.864996
-1.07384
-1.26573
-1.55109
-1.43373
-0.521025
-0.469578
-0.400598
-0.325082
-0.244986
-0.163287
-0.0859023
-0.025194
-0.0125856
-0.156711
-0.876306
-2.41737
-2.24713
-1.32383
-1.15793
-1.26212
-1.51317
-1.80785
-2.19802
-2.51664
-0.532404
-0.479508
-0.408589
-0.330938
-0.248586
-0.16439
-0.0837537
-0.0183226
0.00191705
-0.131523
-0.86361
-2.49475
-2.37076
-1.61165
-1.45923
-1.55993
-1.78054
-2.08171
-2.24558
-2.62798
-0.544115
-0.489987
-0.417419
-0.337706
-0.253029
-0.166126
-0.0818405
-0.0109712
0.0195939
-0.0918132
-0.763316
-2.25501
-2.17881
-1.6788
-1.64501
-1.7772
-1.85545
-1.96551
-2.09849
-2.15597
-0.55653
-0.50139
-0.427272
-0.345532
-0.258532
-0.168692
-0.0805766
-0.00339782
0.0394909
-0.0369811
-0.574054
-1.71035
-1.7239
-1.55451
-1.72482
-1.99503
-1.99503
-1.75333
-1.88893
-1.96647
-0.570264
-0.514108
-0.438394
-0.35466
-0.265242
-0.17243
-0.0802148
0.00362207
0.0603825
0.0265823
-0.326618
-1.03288
-1.14146
-1.27545
-1.70615
-2.32858
-2.63819
-2.2867
-2.2396
-2.29923
-0.586087
-0.528605
-0.451179
-0.365373
-0.273496
-0.177644
-0.0812116
0.00930279
0.0802889
0.0910554
-0.0784693
-0.40392
-0.600848
-0.916755
-1.60989
-2.74364
-4.02277
-4.03629
-3.5242
-3.23912
-0.604358
-0.545326
-0.465999
-0.378006
-0.283614
-0.184648
-0.0841759
0.0130382
0.0978878
0.148774
0.119466
0.035084
-0.14329
-0.516025
-1.27458
-2.46731
-3.7314
-3.83042
-3.36602
-3.06153
-0.625295
-0.564613
-0.483173
-0.392842
-0.295836
-0.193819
-0.0891647
0.0143195
0.11136
0.194456
0.252588
0.282117
0.179163
-0.0775039
-0.528434
-1.10791
-1.57907
-1.68678
-1.54689
-1.45224
-0.649204
-0.586759
-0.502903
-0.410045
-0.310276
-0.205141
-0.0966996
0.0125936
0.120644
0.227703
0.332595
0.415483
0.402505
0.307659
0.151512
-0.00588844
-0.0865284
-0.0687174
-0.0357956
-0.0257045
-0.676119
-0.611703
-0.525143
-0.429576
-0.327015
-0.2188
-0.106456
0.00845781
0.125621
0.249766
0.379151
0.489614
0.541561
0.552001
0.546942
0.554854
0.595032
0.642905
0.669236
0.674767
-0.705505
-0.6391
-0.549678
-0.451207
-0.345621
-0.234166
-0.11814
0.00186083
0.126662
0.263324
0.40689
0.533695
0.623927
0.690655
0.749787
0.810269
0.870761
0.920332
0.946775
0.951754
-0.736093
-0.66795
-0.575705
-0.474154
-0.36554
-0.250898
-0.131157
-0.0065365
0.124651
0.270299
0.422593
0.558444
0.667291
0.755912
0.832703
0.901467
0.961113
1.00698
1.03346
1.03909
-0.767194
-0.697269
-0.602099
-0.497523
-0.385758
-0.267911
-0.144707
-0.0160635
0.120594
0.272317
0.429636
0.568874
0.683651
0.777886
0.855972
0.920876
0.973822
1.01473
1.04043
1.0465
-0.79632
-0.724787
-0.627233
-0.519561
-0.404857
-0.284103
-0.157859
-0.0256557
0.115347
0.271162
0.430606
0.569417
0.683496
0.776104
0.8509
0.911014
0.958939
0.996319
1.0205
1.02703
-0.819995
-0.748214
-0.648555
-0.538314
-0.421107
-0.297969
-0.169266
-0.0343836
0.10935
0.267947
0.426651
0.562536
0.673136
0.762113
0.833226
0.889937
0.935086
0.970661
0.992929
0.999722
-0.835349
-0.764013
-0.663291
-0.551086
-0.432269
-0.307714
-0.17757
-0.0413886
0.10335
0.261597
0.41764
0.549331
0.655397
0.740352
0.808171
0.862271
0.905476
0.939596
0.961222
0.968131
-0.83803
-0.767914
-0.667776
-0.555024
-0.435849
-0.311205
-0.181458
-0.046062
0.0973834
0.252925
0.403958
0.530143
0.630991
0.711865
0.776624
0.828507
0.870186
0.902949
0.924243
0.931397
-0.82179
-0.755108
-0.657207
-0.545894
-0.428783
-0.306712
-0.179871
-0.0477999
0.0916564
0.241525
0.385393
0.504538
0.599498
0.675887
0.737498
0.787202
0.827463
0.859013
0.880147
0.887581
-0.778952
-0.718108
-0.625968
-0.519581
-0.40789
-0.291811
-0.17136
-0.0458784
0.0861801
0.227263
0.361395
0.471559
0.559313
0.63028
0.688096
0.735226
0.773634
0.804259
0.825288
0.833099
-0.704073
-0.652643
-0.567946
-0.471731
-0.370293
-0.264664
-0.154657
-0.0396894
0.0813646
0.210247
0.331729
0.430477
0.508804
0.572182
0.624297
0.667345
0.702455
0.730772
0.751913
0.759741
-0.589324
-0.551539
-0.480463
-0.399532
-0.314183
-0.224055
-0.128901
-0.0284316
0.077984
0.191194
0.296974
0.381606
0.447577
0.499889
0.542124
0.577033
0.605757
0.628081
0.643429
0.648575
-0.416531
-0.398023
-0.354822
-0.300414
-0.239287
-0.170774
-0.0952341
-0.0123743
0.0778384
0.175377
0.266877
0.339485
0.395074
0.438077
0.47132
0.496603
0.516035
0.531979
0.544123
0.54754
-0.243052
-0.237642
-0.218893
-0.191506
-0.155486
-0.11051
-0.0560692
0.0077905
0.0808937
0.16261
0.240396
0.301887
0.348032
0.382262
0.407401
0.425868
0.439082
0.447488
0.452045
0.453102
-0.11853
-0.116897
-0.110465
-0.0984038
-0.0797194
-0.0528084
-0.0163427
0.030371
0.0872734
0.153527
0.217884
0.268715
0.306215
0.333392
0.352526
0.365186
0.372974
0.377591
0.379916
0.380238
-0.0398514
-0.040622
-0.0398626
-0.034852
-0.0245167
-0.00767149
0.0169912
0.0507367
0.094172
0.146818
0.199082
0.240423
0.270449
0.29143
0.305481
0.314581
0.320144
0.323036
0.324037
0.324094
0.00508727
0.0045595
0.00450751
0.00672204
0.0126189
0.0236095
0.040993
0.065877
0.099039
0.14039
0.182119
0.2152
0.239059
0.255644
0.266717
0.27365
0.277589
0.279528
0.280223
0.28029
0.0328529
0.0326988
0.0329313
0.0346691
0.0387418
0.0462732
0.0585694
0.0769173
0.102215
0.134562
0.167702
0.194069
0.212996
0.225955
0.234395
0.239611
0.242616
0.244136
0.244712
0.244781
0.0512349
0.0512159
0.0515099
0.0528385
0.0558798
0.0614676
0.0705975
0.0843496
0.103653
0.128806
0.154895
0.175714
0.190602
0.200756
0.207373
0.211459
0.213793
0.214967
0.215416
0.21547
0.0631493
0.0631994
0.0635458
0.0646483
0.066984
0.0711862
0.078063
0.0885155
0.103346
0.1229
0.143373
0.159769
0.171492
0.179466
0.184638
0.187818
0.18964
0.190563
0.190921
0.190963
0.0706226
0.0706907
0.0710218
0.0719328
0.0737694
0.0770093
0.0822675
0.0902662
0.10169
0.116886
0.132905
0.14577
0.154967
0.161213
0.165261
0.167749
0.169173
0.169894
0.170172
0.170203
0.0747998
0.0748651
0.0751522
0.0758848
0.0773243
0.079833
0.0838866
0.0900509
0.0988831
0.110693
0.123207
0.133282
0.140488
0.14538
0.148547
0.150492
0.151604
0.152165
0.15238
0.152403
0.0764702
0.0765265
0.0767627
0.0773449
0.0784729
0.0804223
0.0835592
0.088327
0.0951694
0.104352
0.114118
0.121996
0.127633
0.13146
0.133935
0.135452
0.136317
0.136752
0.136918
0.136934
0.0762068
0.0762531
0.0764429
0.0769019
0.0777829
0.0792991
0.0817331
0.0854289
0.090739
0.0978813
0.105496
0.111648
0.116052
0.11904
0.120971
0.122155
0.122829
0.123165
0.123292
0.123303
0.074447
0.074484
0.0746338
0.074993
0.0756802
0.0768592
0.0787491
0.0816183
0.0857424
0.0912983
0.0972329
0.102032
0.105469
0.1078
0.109306
0.110227
0.11075
0.11101
0.111107
0.111116
0.0715252
0.0715546
0.0716726
0.0719534
0.0724883
0.0734049
0.0748734
0.0771015
0.0803055
0.0846264
0.0892468
0.0929872
0.0956666
0.0974835
0.0986563
0.0993731
0.0997787
0.0999786
0.100052
0.100058
0.0677031
0.067726
0.0678177
0.068036
0.0684521
0.0691647
0.0703051
0.0720354
0.0745244
0.0778835
0.0814795
0.0843916
0.0864771
0.087891
0.0888029
0.089359
0.0896731
0.0898283
0.0898853
0.0898895
0.0631804
0.0631982
0.0632696
0.0634392
0.0637623
0.0643151
0.0651996
0.0665422
0.0684745
0.0710837
0.0738782
0.0761421
0.0777632
0.0788616
0.0795693
0.0800013
0.0802451
0.0803645
0.0804076
0.0804106
0.0581148
0.0581284
0.0581835
0.0583147
0.0585644
0.0589924
0.059678
0.0607189
0.0622165
0.0642392
0.0664073
0.0681634
0.0694204
0.0702726
0.0708219
0.0711562
0.0713437
0.0714352
0.071468
0.0714701
0.0526278
0.0526381
0.0526804
0.0527815
0.0529746
0.0533053
0.0538345
0.0546381
0.0557957
0.0573604
0.0590377
0.0603971
0.0613708
0.0620299
0.0624531
0.0627098
0.0628541
0.0629242
0.0629491
0.0629504
0.0468158
0.0468236
0.0468558
0.0469329
0.0470802
0.0473336
0.0477405
0.0483588
0.0492495
0.0504542
0.0517453
0.0527918
0.0535411
0.0540475
0.0543731
0.0545709
0.0546811
0.054734
0.0547525
0.0547535
0.0407531
0.0407588
0.0407823
0.0408402
0.040952
0.0411452
0.041456
0.0419285
0.0426093
0.0435298
0.0445169
0.0453157
0.0458861
0.0462719
0.0465198
0.0466702
0.0467545
0.0467951
0.0468091
0.0468096
0.034497
0.034501
0.0345182
0.0345614
0.0346457
0.0347909
0.0350242
0.0353795
0.0358922
0.0365861
0.0373302
0.0379333
0.0383647
0.0386564
0.0388434
0.0389556
0.0390172
0.0390463
0.0390558
0.039056
0.0280955
0.0280981
0.0281102
0.0281412
0.0282025
0.0283092
0.028481
0.0287428
0.0291209
0.0296329
0.0301826
0.0306279
0.0309458
0.0311592
0.0312946
0.0313763
0.0314212
0.0314419
0.0314484
0.0314487
0.0215846
0.021586
0.0215938
0.0216152
0.0216581
0.0217327
0.0218536
0.0220387
0.0223067
0.0226691
0.0230572
0.0233707
0.0235943
0.0237451
0.0238418
0.0238993
0.0239305
0.0239446
0.0239487
0.0239487
0.0149966
0.0149972
0.0150022
0.0150158
0.0150429
0.0150908
0.0151691
0.0152893
0.0154632
0.0156989
0.0159523
0.0161578
0.0163044
0.0164031
0.0164649
0.0165007
0.0165192
0.0165265
0.0165278
0.0165276
0.00835416
0.00835435
0.00835657
0.0083631
0.00837709
0.00840285
0.00844504
0.00850926
0.00860198
0.00872817
0.00886268
0.00897125
0.0090471
0.0090969
0.00912876
0.00914785
0.00915742
0.00916092
0.00916148
0.00916154
0.00167282
0.00167129
0.00166902
0.00166873
0.00167075
0.00167487
0.00168157
0.00169234
0.00170829
0.00173013
0.00175881
0.00178475
0.00180343
0.00181659
0.00182544
0.00183065
0.00183349
0.00183456
0.00183352
0.00183123
-0.998286
-0.666995
-0.316469
-0.0365634
0.185911
0.364388
0.515998
0.647365
0.715818
0.68432
-0.40276
-0.195892
0.010885
0.187661
0.336643
0.461279
0.563306
0.637545
0.673031
0.673313
-0.0306472
0.0977734
0.228627
0.344378
0.443473
0.525733
0.590474
0.635573
0.662378
0.66982
0.206182
0.29007
0.375884
0.452423
0.518978
0.575068
0.619661
0.650989
0.671568
0.680921
0.368699
0.422522
0.481407
0.53613
0.584812
0.625728
0.657989
0.68091
0.697243
0.708019
0.486441
0.526718
0.57093
0.612834
0.649088
0.679691
0.704463
0.72399
0.738942
0.751689
0.580089
0.611115
0.648121
0.682319
0.713945
0.742367
0.766577
0.785355
0.798546
0.812601
0.661207
0.693931
0.730703
0.765277
0.797005
0.824434
0.846756
0.864002
0.875782
0.891353
0.755317
0.79096
0.830473
0.865776
0.89669
0.923152
0.945286
0.962152
0.972704
0.989019
0.870052
0.910006
0.950693
0.986024
1.01622
1.04131
1.06135
1.07661
1.08759
1.10541
1.01693
1.05632
1.09313
1.12457
1.15036
1.17253
1.19169
1.20726
1.2195
1.23726
1.19213
1.22454
1.25107
1.27365
1.29398
1.31282
1.33056
1.34703
1.36255
1.38064
1.38137
1.39892
1.41428
1.43059
1.44644
1.46111
1.47444
1.48843
1.50604
1.52613
1.56374
1.5731
1.58468
1.59565
1.60515
1.61474
1.62544
1.63684
1.64828
1.66367
1.77059
1.77433
1.75949
1.74491
1.73875
1.74444
1.76304
1.79336
1.82544
1.85205
2.0775
1.94276
1.86602
1.82321
1.80564
1.80983
1.83706
1.89352
1.99637
2.22082
0.378834
0.376964
0.372907
0.364989
0.353479
0.342121
0.332653
0.325432
0.320308
0.317274
0.316754
0.318985
0.323342
0.32969
0.338162
0.348783
0.36058
0.370847
0.376323
0.379001
0.302205
0.308263
0.315438
0.320965
0.324359
0.325001
0.323211
0.32016
0.317146
0.315031
0.31468
0.316413
0.319335
0.322707
0.325428
0.326177
0.3242
0.319663
0.313443
0.306152
0.294989
0.29704
0.301852
0.306258
0.309158
0.310917
0.311782
0.311757
0.311083
0.310424
0.310429
0.31121
0.312301
0.312939
0.312698
0.311496
0.309285
0.3057
0.300835
0.29715
0.296735
0.297226
0.299204
0.301823
0.304207
0.306092
0.307288
0.307848
0.307904
0.307774
0.307914
0.308446
0.308879
0.308842
0.308132
0.306757
0.304652
0.302208
0.299768
0.29854
0.29602
0.296144
0.296688
0.297577
0.298481
0.299459
0.300413
0.301181
0.301707
0.302056
0.302373
0.302647
0.302675
0.302354
0.301707
0.300856
0.300003
0.299166
0.298428
0.298137
0.293619
0.293683
0.294001
0.294566
0.295234
0.295949
0.296646
0.297276
0.297818
0.298287
0.298699
0.298972
0.299015
0.298821
0.298426
0.297896
0.297315
0.296751
0.296321
0.296159
0.290211
0.29024
0.290367
0.290615
0.290958
0.291396
0.29192
0.292498
0.293091
0.293668
0.294188
0.294526
0.294622
0.294522
0.294304
0.294043
0.293793
0.293576
0.293426
0.293371
0.286299
0.286317
0.286405
0.286573
0.286815
0.287139
0.28755
0.28805
0.288631
0.289275
0.289913
0.290382
0.290624
0.290696
0.290662
0.290573
0.290466
0.290365
0.29029
0.290259
0.282091
0.282099
0.282161
0.282281
0.282467
0.282736
0.283109
0.283602
0.284224
0.284966
0.285756
0.286393
0.286791
0.287006
0.287104
0.287133
0.287126
0.287105
0.287083
0.287071
0.277624
0.277632
0.277676
0.277779
0.277945
0.278199
0.278567
0.279094
0.279786
0.280664
0.281652
0.282498
0.283079
0.283449
0.283672
0.283799
0.283865
0.283894
0.283904
0.283903
0.272891
0.272893
0.272944
0.273047
0.273219
0.273491
0.273901
0.274492
0.275308
0.276377
0.277618
0.278722
0.279504
0.280043
0.280389
0.280604
0.280732
0.280802
0.280834
0.280842
0.267885
0.267886
0.267939
0.268053
0.26825
0.268565
0.269047
0.269754
0.270746
0.27207
0.273638
0.275058
0.276102
0.276817
0.277294
0.277599
0.277785
0.277893
0.277947
0.277961
0.262553
0.262553
0.262614
0.26275
0.262986
0.263369
0.263957
0.264828
0.266063
0.267724
0.26971
0.271527
0.272867
0.273804
0.274433
0.274839
0.275091
0.275238
0.275314
0.275334
0.256818
0.256816
0.256892
0.257061
0.257355
0.257831
0.258568
0.259661
0.261215
0.263314
0.265833
0.268146
0.269858
0.27106
0.27187
0.272396
0.272723
0.272916
0.273015
0.273043
0.250578
0.250576
0.250672
0.250885
0.251258
0.251862
0.252796
0.254183
0.256155
0.258819
0.262015
0.264952
0.267126
0.268654
0.269686
0.270357
0.270775
0.271021
0.271149
0.271185
0.243695
0.243692
0.243815
0.244089
0.244566
0.24534
0.246536
0.248308
0.250822
0.254212
0.258268
0.261989
0.26474
0.266673
0.267978
0.268827
0.269357
0.269669
0.269831
0.269876
0.235982
0.235978
0.236139
0.236494
0.237112
0.238111
0.239651
0.241927
0.245145
0.249466
0.254614
0.259318
0.262788
0.265224
0.266867
0.267936
0.268603
0.268997
0.269201
0.269257
0.227191
0.227187
0.227399
0.227863
0.22867
0.22997
0.231967
0.234905
0.239039
0.244554
0.251082
0.257017
0.261382
0.264441
0.266505
0.267846
0.268684
0.269178
0.269433
0.269503
0.216983
0.21698
0.217263
0.217879
0.218944
0.220652
0.223261
0.227076
0.232403
0.239449
0.247716
0.255183
0.260657
0.264489
0.267073
0.268753
0.269802
0.270421
0.270741
0.270827
0.204889
0.204888
0.205275
0.206108
0.207534
0.209803
0.213245
0.218234
0.225125
0.234131
0.244577
0.253936
0.260775
0.26556
0.268788
0.27089
0.272204
0.272981
0.273383
0.273491
0.190235
0.190238
0.190785
0.191942
0.193889
0.196954
0.201555
0.208137
0.217091
0.228599
0.241746
0.253417
0.26192
0.267876
0.271906
0.274538
0.27619
0.27717
0.277679
0.277815
0.172017
0.172036
0.172851
0.174517
0.177242
0.181474
0.187733
0.196517
0.2082
0.222878
0.239329
0.253777
0.264287
0.271679
0.276712
0.280023
0.282115
0.28337
0.284031
0.284208
0.148706
0.148781
0.15008
0.152574
0.156527
0.16256
0.171275
0.183137
0.198417
0.217052
0.237458
0.255172
0.268059
0.277197
0.283498
0.2877
0.290397
0.292049
0.292944
0.293189
0.117778
0.118029
0.120276
0.124248
0.130338
0.139349
0.151795
0.167952
0.187881
0.21132
0.236315
0.257747
0.273372
0.2846
0.292508
0.297923
0.301499
0.303759
0.305035
0.305404
0.0744611
0.0751933
0.0797095
0.0868442
0.0971212
0.111239
0.12929
0.151261
0.176982
0.206019
0.236117
0.26161
0.280267
0.293911
0.303816
0.31089
0.315813
0.319113
0.321107
0.321669
0.0102608
0.0127856
0.0233748
0.0377598
0.0561563
0.0784403
0.104335
0.133692
0.166223
0.201456
0.236959
0.26667
0.288516
0.304802
0.317043
0.326265
0.333183
0.338351
0.341871
0.342496
-0.0679503
-0.0623278
-0.042517
-0.0162201
0.0126883
0.0442977
0.0786614
0.115756
0.155404
0.197307
0.238965
0.27387
0.29996
0.319993
0.335703
0.348237
0.358406
0.366765
0.371921
0.373961
-0.146561
-0.133046
-0.103015
-0.0667669
-0.0283046
0.0121645
0.0546081
0.0990551
0.145495
0.193804
0.241465
0.281413
0.311449
0.334761
0.353325
0.368378
0.380693
0.390839
0.398124
0.40194
-0.200733
-0.186289
-0.1514
-0.108911
-0.0636803
-0.0163912
0.032748
0.0835957
0.136046
0.190003
0.242812
0.286851
0.319827
0.345236
0.365211
0.381116
0.393863
0.404127
0.411457
0.415108
-0.241366
-0.226717
-0.188536
-0.14207
-0.0924716
-0.0403801
0.0137539
0.0696128
0.126977
0.185721
0.242969
0.29048
0.325766
0.352638
0.37348
0.389859
0.402816
0.413099
0.420501
0.4242
-0.272112
-0.257673
-0.217944
-0.168755
-0.116003
-0.0604229
-0.0025017
0.0573125
0.118656
0.181359
0.242362
0.292853
0.330124
0.358238
0.379791
0.396519
0.409613
0.419888
0.427351
0.431074
-0.296888
-0.282586
-0.241638
-0.190757
-0.135738
-0.0774869
-0.016648
0.0461956
0.110649
0.176562
0.240825
0.294106
0.333333
0.362715
0.38502
0.40215
0.41542
0.425738
0.433287
0.437024
-0.317666
-0.303378
-0.261537
-0.209297
-0.152592
-0.0923603
-0.0293159
0.0358574
0.102711
0.171209
0.238367
0.294426
0.335781
0.366632
0.389855
0.407507
0.421045
0.431462
0.439118
0.442865
-0.335693
-0.32132
-0.278705
-0.225291
-0.167218
-0.10544
-0.0407455
0.0261094
0.0946769
0.165138
0.234878
0.29385
0.337686
0.37036
0.394787
0.413166
0.427103
0.437716
0.445459
0.449272
-0.351623
-0.337177
-0.293731
-0.239322
-0.180132
-0.117141
-0.0512365
0.0167478
0.0863882
0.158186
0.230183
0.292303
0.339137
0.374155
0.400195
0.41958
0.434089
0.444993
0.452868
0.456733
-0.365921
-0.351278
-0.307042
-0.251789
-0.191623
-0.127688
-0.060937
0.00767365
0.0777399
0.150176
0.224048
0.289608
0.340116
0.378185
0.406393
0.427165
0.442483
0.453817
0.461917
0.465864
-0.378805
-0.363942
-0.318934
-0.26291
-0.201926
-0.137224
-0.0699295
-0.0011485
0.0686949
0.140983
0.216196
0.285486
0.340513
0.382528
0.413639
0.436305
0.452756
0.464686
0.473067
0.477072
-0.390576
-0.375426
-0.32968
-0.272853
-0.211153
-0.14585
-0.0782585
-0.00971186
0.0592669
0.130513
0.206335
0.279561
0.340092
0.387189
0.422134
0.447353
0.46534
0.478118
0.48685
0.490959
-0.401317
-0.385837
-0.339409
-0.281793
-0.219401
-0.153597
-0.0859136
-0.0179503
0.0495223
0.118735
0.194172
0.271388
0.338521
0.392088
0.432048
0.460623
0.480646
0.494555
0.503823
0.508043
-0.411198
-0.395377
-0.348173
-0.289831
-0.226766
-0.160512
-0.0928607
-0.0257849
0.039595
0.105679
0.179438
0.260454
0.335382
0.397067
0.443473
0.476418
0.499096
0.514479
0.524427
0.528886
-0.420257
-0.404182
-0.356159
-0.297048
-0.233308
-0.166631
-0.0990744
-0.0330983
0.0296289
0.0914609
0.161923
0.24619
0.330167
0.401888
0.456441
0.494996
0.521069
0.53829
0.549106
0.553744
-0.428704
-0.412198
-0.363386
-0.303512
-0.239092
-0.171983
-0.104549
-0.0397791
0.0198492
0.0762362
0.141479
0.227998
0.322271
0.406284
0.470842
0.516297
0.546723
0.56628
0.57817
0.582982
-0.436465
-0.419622
-0.369985
-0.309314
-0.244186
-0.176602
-0.109272
-0.0457479
0.0104696
0.06028
0.118039
0.205273
0.311044
0.409702
0.486293
0.540308
0.576191
0.598678
0.61174
0.616582
-0.443797
-0.426544
-0.376032
-0.31453
-0.248666
-0.180565
-0.113245
-0.0509345
0.00169345
0.0439108
0.0916374
0.177285
0.295844
0.411601
0.502613
0.566753
0.609223
0.635433
0.649073
0.653092
-0.450683
-0.432983
-0.381602
-0.319227
-0.252588
-0.183915
-0.116503
-0.0552692
-0.00628712
0.0274831
0.0624033
0.143432
0.275644
0.411672
0.519048
0.594533
0.645491
0.677326
0.691263
0.691
-0.457299
-0.439123
-0.386721
-0.323448
-0.256034
-0.186726
-0.119087
-0.0587583
-0.0132971
0.0113686
0.0305604
0.102935
0.24943
0.409621
0.535125
0.621282
0.680965
0.722367
0.742682
0.731598
-0.463669
-0.444976
-0.39143
-0.327268
-0.259109
-0.189104
-0.121096
-0.0614745
-0.019443
-0.00479877