/*--------------------------------*- C++ -*----------------------------------*\
| =========                 |                                                 |
| \\      /  F ield         | OpenFOAM: The Open Source CFD Toolbox           |
|  \\    /   O peration     | Version:  2112                                  |
|   \\  /    A nd           | Website:  www.openfoam.com                      |
|    \\/     M anipulation  |                                                 |
\*---------------------------------------------------------------------------*/
FoamFile
{
    version     2.0;
    format      ascii;
    arch        "LSB;label=32;scalar=64";
    class       volVectorField;
    location    "5.5";
    object      U;
}
// * * * * * * * * * * * * * * * * * * * * * * * * * * * * * * * * * * * * * //

dimensions      [0 1 -1 0 0 0 0];

internalField   nonuniform List<vector> 
8800
(
(0.979455 -0.0913971 0)
(1.00196 -0.0588981 0)
(0.999911 -0.0325871 0)
(1.00021 -0.0169035 0)
(0.999555 -0.00898846 0)
(0.999495 -0.0051434 0)
(0.999791 -0.00312245 0)
(0.999974 -0.00188746 0)
(1.00009 -0.000899122 0)
(1.00005 -0.000111979 0)
(1.00009 0.000552603 0)
(1.00004 0.00145326 0)
(0.999885 0.0024972 0)
(0.999657 0.00402067 0)
(0.999369 0.00674376 0)
(0.999849 0.0122743 0)
(1.00035 0.023557 0)
(0.99894 0.0433543 0)
(1.00655 0.0792089 0)
(0.774985 0.0478829 0)
(0.361547 -0.0142448 0)
(1.04835 -0.0703671 0)
(1.08923 -0.0627574 0)
(1.04848 -0.0463111 0)
(1.02433 -0.0331084 0)
(1.01194 -0.0222867 0)
(1.00579 -0.014262 0)
(1.00269 -0.00866093 0)
(1.00138 -0.00485707 0)
(1.00106 -0.00200782 0)
(1.00109 0.000923297 0)
(1.00109 0.0036897 0)
(1.00185 0.00691179 0)
(1.00391 0.0114703 0)
(1.00839 0.018218 0)
(1.01705 0.0275105 0)
(1.03465 0.0397508 0)
(1.06715 0.0537259 0)
(1.09614 0.0685259 0)
(0.848099 0.0545129 0)
(0.228209 -0.00099268 0)
(1.08021 -0.0430505 0)
(1.10116 -0.0425028 0)
(1.0652 -0.0351576 0)
(1.04044 -0.0285701 0)
(1.02419 -0.0221749 0)
(1.01445 -0.0162121 0)
(1.00904 -0.0106178 0)
(1.00608 -0.0054915 0)
(1.00497 -0.000798444 0)
(1.0053 0.00368952 0)
(1.00731 0.0084707 0)
(1.01119 0.0137278 0)
(1.01844 0.0194672 0)
(1.03119 0.0255052 0)
(1.05134 0.0320655 0)
(1.08169 0.0388408 0)
(1.10872 0.0444762 0)
(0.953518 0.0348425 0)
(0.228006 0.000998677 0)
(0.203441 0.000129505 0)
(1.03266 -0.0171184 0)
(1.09578 -0.0257821 0)
(1.0683 -0.0281313 0)
(1.04492 -0.0268325 0)
(1.03018 -0.023442 0)
(1.02028 -0.0186797 0)
(1.01391 -0.0132412 0)
(1.01021 -0.00737611 0)
(1.00856 -0.00107583 0)
(1.00905 0.00522234 0)
(1.01158 0.0112375 0)
(1.01651 0.0167698 0)
(1.02447 0.0218036 0)
(1.03652 0.0257641 0)
(1.05492 0.0282666 0)
(1.08339 0.0276841 0)
(1.09066 0.0229118 0)
(0.873348 0.00960014 0)
(0.203104 -0.000123084 0)
(0.20212 5.71718e-05 0)
(0.997233 -0.0060699 0)
(1.07577 -0.015292 0)
(1.06322 -0.0213095 0)
(1.04755 -0.023147 0)
(1.03515 -0.0219855 0)
(1.02606 -0.0186757 0)
(1.01961 -0.0137787 0)
(1.01541 -0.00780167 0)
(1.0133 -0.000908863 0)
(1.01389 0.00609608 0)
(1.01688 0.0123503 0)
(1.02207 0.0176273 0)
(1.02967 0.0215717 0)
(1.04024 0.0237304 0)
(1.05436 0.0232802 0)
(1.07132 0.0192185 0)
(1.06169 0.0111394 0)
(0.840548 0.00216667 0)
(0.201593 -5.09177e-05 0)
(0.201522 1.96001e-05 0)
(0.976668 -0.00272942 0)
(1.05594 -0.00870913 0)
(1.05341 -0.0139857 0)
(1.04529 -0.0167205 0)
(1.03765 -0.0170445 0)
(1.03105 -0.0152458 0)
(1.02564 -0.011725 0)
(1.0217 -0.00681949 0)
(1.01974 -0.000545015 0)
(1.0202 0.00600468 0)
(1.02296 0.0114555 0)
(1.02744 0.0154205 0)
(1.03333 0.0178286 0)
(1.04039 0.0183506 0)
(1.04829 0.0165605 0)
(1.05567 0.0122394 0)
(1.03847 0.00593989 0)
(0.826498 0.000989663 0)
(0.200751 -9.81821e-06 0)
(0.201507 1.57926e-05 0)
(0.966826 -0.0010979 0)
(1.04375 -0.00401519 0)
(1.04558 -0.00719301 0)
(1.04185 -0.00952382 0)
(1.03744 -0.0105699 0)
(1.03293 -0.0101146 0)
(1.02872 -0.00811195 0)
(1.02534 -0.00462634 0)
(1.02359 0.000151693 0)
(1.02386 0.00512742 0)
(1.02618 0.00903044 0)
(1.02958 0.011448 0)
(1.0338 0.0122705 0)
(1.03818 0.0115678 0)
(1.04219 0.00948205 0)
(1.04469 0.00634572 0)
(1.02536 0.00279793 0)
(0.820216 0.00045595 0)
(0.200465 -3.42848e-06 0)
(0.201444 7.67642e-06 0)
(0.96249 -0.000522557 0)
(1.03776 -0.00186675 0)
(1.04088 -0.00349084 0)
(1.03923 -0.00489657 0)
(1.0369 -0.00572 0)
(1.03416 -0.00570097 0)
(1.03128 -0.00461901 0)
(1.02872 -0.00236616 0)
(1.0272 0.000879896 0)
(1.02724 0.00424924 0)
(1.02883 0.0066445 0)
(1.03102 0.00784156 0)
(1.03356 0.00787524 0)
(1.03591 0.0069564 0)
(1.03777 0.00537011 0)
(1.0384 0.00344414 0)
(1.01888 0.00156176 0)
(0.817012 0.000337994 0)
(0.20011 7.61544e-06 0)
(0.201499 9.29546e-06 0)
(0.96052 -0.000161902 0)
(1.03492 -0.000756462 0)
(1.03841 -0.00151866 0)
(1.03759 -0.00223129 0)
(1.03627 -0.00269385 0)
(1.03455 -0.00270403 0)
(1.03256 -0.00204969 0)
(1.03063 -0.000594096 0)
(1.02928 0.00155275 0)
(1.02906 0.00372923 0)
(1.02995 0.00510346 0)
(1.03125 0.00555259 0)
(1.03268 0.00525031 0)
(1.03391 0.0044105 0)
(1.0348 0.00328094 0)
(1.03476 0.00207931 0)
(1.01534 0.000986955 0)
(0.815019 0.000251323 0)
(0.199784 8.76186e-06 0)
(0.20168 1.46557e-05 0)
(0.959791 5.78736e-05 0)
(1.03371 -0.000144235 0)
(1.03733 -0.000433792 0)
(1.03687 -0.000696417 0)
(1.03606 -0.000832008 0)
(1.03491 -0.000716326 0)
(1.03349 -0.000203406 0)
(1.03199 0.000803067 0)
(1.03073 0.00223999 0)
(1.03023 0.00359105 0)
(1.03053 0.00427385 0)
(1.03114 0.00432601 0)
(1.03183 0.00389121 0)
(1.03241 0.00316194 0)
(1.03281 0.00231934 0)
(1.03248 0.00148815 0)
(1.01313 0.00075438 0)
(0.813589 0.000228045 0)
(0.199465 1.19685e-05 0)
(0.201966 1.61558e-05 0)
(0.959813 0.000203199 0)
(1.03341 0.000239107 0)
(1.03706 0.000250537 0)
(1.03676 0.000294028 0)
(1.03618 0.000422141 0)
(1.03534 0.000703271 0)
(1.03422 0.00121704 0)
(1.03292 0.00201066 0)
(1.03166 0.00301093 0)
(1.03086 0.00382099 0)
(1.03062 0.00413206 0)
(1.03075 0.00385752 0)
(1.03096 0.00331869 0)
(1.03116 0.00263836 0)
(1.03129 0.00192872 0)
(1.03081 0.001263 0)
(1.01149 0.00068226 0)
(0.812359 0.000235462 0)
(0.199111 1.52969e-05 0)
(0.202348 2.0879e-05 0)
(0.96032 0.000347908 0)
(1.03372 0.000558951 0)
(1.03737 0.000778836 0)
(1.03713 0.00105112 0)
(1.03664 0.00140003 0)
(1.03592 0.00185758 0)
(1.03491 0.00245173 0)
(1.03366 0.00317662 0)
(1.03227 0.00392568 0)
(1.03114 0.00436265 0)
(1.03051 0.00428526 0)
(1.03018 0.00388093 0)
(1.03005 0.00324946 0)
(1.02999 0.00254966 0)
(1.02995 0.00186718 0)
(1.02938 0.00124667 0)
(1.01005 0.000707272 0)
(0.811137 0.0002671 0)
(0.198695 1.9499e-05 0)
(0.202859 2.6915e-05 0)
(0.961278 0.000492722 0)
(1.03449 0.000858573 0)
(1.03813 0.00126159 0)
(1.03789 0.00173591 0)
(1.03742 0.00229483 0)
(1.03669 0.0029435 0)
(1.03566 0.00367217 0)
(1.03431 0.00442585 0)
(1.03268 0.00505286 0)
(1.03117 0.0052424 0)
(1.03012 0.0049193 0)
(1.02944 0.00430332 0)
(1.02903 0.0035436 0)
(1.02877 0.00276136 0)
(1.0286 0.00202713 0)
(1.02796 0.00137284 0)
(1.00859 0.000804546 0)
(0.809784 0.000320026 0)
(0.198184 2.47247e-05 0)
(0.203523 3.42898e-05 0)
(0.962674 0.000656146 0)
(1.03571 0.00118063 0)
(1.03931 0.00176805 0)
(1.03904 0.002451 0)
(1.03852 0.00323277 0)
(1.03771 0.00410192 0)
(1.03655 0.00501559 0)
(1.03497 0.00587313 0)
(1.03297 0.00646655 0)
(1.031 0.00647873 0)
(1.02951 0.00593601 0)
(1.02849 0.00509456 0)
(1.02782 0.00415118 0)
(1.02738 0.00322165 0)
(1.02711 0.00236832 0)
(1.02639 0.00161704 0)
(1.00697 0.000964674 0)
(0.808185 0.000394146 0)
(0.197551 3.13112e-05 0)
(0.204378 4.40565e-05 0)
(0.964559 0.000857482 0)
(1.03741 0.00156263 0)
(1.04094 0.00235724 0)
(1.04061 0.003275 0)
(1.03999 0.0043152 0)
(1.03903 0.0054488 0)
(1.03763 0.00660427 0)
(1.0357 0.00763113 0)
(1.03321 0.00825491 0)
(1.03066 0.00812241 0)
(1.02867 0.00734011 0)
(1.02728 0.00624153 0)
(1.02633 0.00505768 0)
(1.02572 0.00391735 0)
(1.02533 0.00288268 0)
(1.02454 0.00197662 0)
(1.00503 0.00118969 0)
(0.806227 0.000492522 0)
(0.196755 3.95617e-05 0)
(0.205482 5.68628e-05 0)
(0.967036 0.00111244 0)
(1.03966 0.00203637 0)
(1.04312 0.00307965 0)
(1.04269 0.00428166 0)
(1.04191 0.00563576 0)
(1.04072 0.00709781 0)
(1.03897 0.00856239 0)
(1.03655 0.00982433 0)
(1.0334 0.0105274 0)
(1.03015 0.0102568 0)
(1.02756 0.00919796 0)
(1.02573 0.00778285 0)
(1.02448 0.00628807 0)
(1.02367 0.00486336 0)
(1.02315 0.00357948 0)
(1.02229 0.00245918 0)
(1.00266 0.00148629 0)
(0.803789 0.000618515 0)
(0.195753 4.97747e-05 0)
(0.206911 7.37925e-05 0)
(0.970255 0.001441 0)
(1.04259 0.00264031 0)
(1.04594 0.00399469 0)
(1.04538 0.0055512 0)
(1.04439 0.00729887 0)
(1.04288 0.00917303 0)
(1.04066 0.0110305 0)
(1.03759 0.012599 0)
(1.03359 0.0134208 0)
(1.02943 0.0129968 0)
(1.02612 0.0116014 0)
(1.02376 0.00978712 0)
(1.02215 0.00789323 0)
(1.0211 0.00609984 0)
(1.02044 0.00448877 0)
(1.01947 0.00308534 0)
(0.999696 0.00186781 0)
(0.80073 0.000778865 0)
(0.194493 6.26001e-05 0)
(0.208767 9.63165e-05 0)
(0.974421 0.00186956 0)
(1.04639 0.00342215 0)
(1.0496 0.00517449 0)
(1.04886 0.00718298 0)
(1.04758 0.00942959 0)
(1.04563 0.011826 0)
(1.04279 0.0141795 0)
(1.03886 0.0161339 0)
(1.03376 0.0171057 0)
(1.02847 0.0164906 0)
(1.02426 0.0146718 0)
(1.02126 0.0123513 0)
(1.01921 0.00994799 0)
(1.01787 0.00768262 0)
(1.01702 0.00565238 0)
(1.01594 0.00388616 0)
(0.995974 0.00235304 0)
(0.796877 0.000980609 0)
(0.192908 7.85212e-05 0)
(0.211192 0.000126716 0)
(0.979813 0.00243645 0)
(1.05129 0.00444915 0)
(1.05432 0.00671721 0)
(1.05333 0.00930687 0)
(1.05166 0.0121924 0)
(1.04913 0.0152513 0)
(1.04546 0.0182262 0)
(1.04041 0.0206542 0)
(1.0339 0.0217964 0)
(1.02719 0.0209255 0)
(1.02186 0.0185648 0)
(1.01807 0.0156019 0)
(1.01548 0.0125541 0)
(1.01379 0.00969003 0)
(1.01272 0.00712726 0)
(1.0115 0.00489926 0)
(0.991282 0.00296571 0)
(0.792018 0.00123439 0)
(0.190916 9.8292e-05 0)
(0.214386 0.000168546 0)
(0.986799 0.00319817 0)
(1.05762 0.00582105 0)
(1.06039 0.00876569 0)
(1.05906 0.0121075 0)
(1.05686 0.0158107 0)
(1.05354 0.0197082 0)
(1.04877 0.023454 0)
(1.04227 0.026447 0)
(1.03397 0.0277599 0)
(1.02549 0.026533 0)
(1.01878 0.0234772 0)
(1.01401 0.0197019 0)
(1.01076 0.0158418 0)
(1.00863 0.0122237 0)
(1.00729 0.00898997 0)
(1.00589 0.00617797 0)
(0.985364 0.00373593 0)
(0.785897 0.00155099 0)
(0.188419 0.000122673 0)
(0.21865 0.000228973 0)
(0.995878 0.00425163 0)
(1.06578 0.00770273 0)
(1.06821 0.0115366 0)
(1.06641 0.015845 0)
(1.06347 0.0205946 0)
(1.05907 0.0255495 0)
(1.05282 0.0302362 0)
(1.04445 0.0338755 0)
(1.03389 0.0353225 0)
(1.02322 0.0335929 0)
(1.01482 0.0296454 0)
(1.00886 0.024852 0)
(1.00479 0.0199788 0)
(1.00212 0.015421 0)
(1.00044 0.0113487 0)
(0.99882 0.00780242 0)
(0.977907 0.00471442 0)
(0.778183 0.0019521 0)
(0.185289 0.000153645 0)
(0.224463 0.000324865 0)
(1.00776 0.00578756 0)
(1.07636 0.0103763 0)
(1.07834 0.0153472 0)
(1.07584 0.02088 0)
(1.07181 0.0269676 0)
(1.06589 0.0332507 0)
(1.05767 0.039058 0)
(1.04686 0.04339 0)
(1.0335 0.0448708 0)
(1.02016 0.0424307 0)
(1.00974 0.0373528 0)
(1.00232 0.0313017 0)
(0.997246 0.0251836 0)
(0.99391 0.0194714 0)
(0.991817 0.0143659 0)
(0.989927 0.00990374 0)
(0.968515 0.00598694 0)
(0.76844 0.00247219 0)
(0.181354 0.000195093 0)
(0.232644 0.000490004 0)
(1.02357 0.00816605 0)
(1.09043 0.0142585 0)
(1.09173 0.0206009 0)
(1.08807 0.0276903 0)
(1.08237 0.0355268 0)
(1.07426 0.0434663 0)
(1.06334 0.0505488 0)
(1.04939 0.0555342 0)
(1.03258 0.0568464 0)
(1.01608 0.053413 0)
(1.00325 0.0469295 0)
(0.994096 0.0393638 0)
(0.987774 0.0317521 0)
(0.983586 0.0246524 0)
(0.980956 0.0183034 0)
(0.978731 0.0127245 0)
(0.956671 0.00774284 0)
(0.756054 0.00319749 0)
(0.176362 0.000257514 0)
(0.244618 0.000778025 0)
(1.04522 0.0120193 0)
(1.10979 0.0199462 0)
(1.10983 0.0279785 0)
(1.10418 0.0372107 0)
(1.09586 0.0473561 0)
(1.08456 0.0572323 0)
(1.06995 0.0655768 0)
(1.05198 0.0709737 0)
(1.03099 0.0717403 0)
(1.0108 0.0669411 0)
(0.995178 0.058757 0)
(0.98394 0.0494321 0)
(0.976053 0.0400923 0)
(0.97072 0.0313776 0)
(0.967298 0.0235761 0)
(0.964553 0.0166894 0)
(0.941669 0.0103697 0)
(0.740231 0.0043266 0)
(0.169944 0.000359176 0)
(0.26285 0.00131008 0)
(1.07557 0.01874 0)
(1.13656 0.0289485 0)
(1.13413 0.0394709 0)
(1.12516 0.0517413 0)
(1.11288 0.064556 0)
(1.09705 0.0761885 0)
(1.07755 0.0853006 0)
(1.05458 0.090474 0)
(1.02868 0.0900447 0)
(1.00429 0.0833864 0)
(0.985468 0.0732075 0)
(0.971764 0.0619371 0)
(0.961892 0.0507082 0)
(0.954939 0.0401949 0)
(0.950214 0.030738 0)
(0.946485 0.0223379 0)
(0.922624 0.0143726 0)
(0.72022 0.00613184 0)
(0.161693 0.000506047 0)
(0.290609 0.00260304 0)
(1.11914 0.032328 0)
(1.17276 0.0453963 0)
(1.16535 0.0594011 0)
(1.1509 0.0749427 0)
(1.1327 0.0897002 0)
(1.11075 0.102017 0)
(1.08522 0.110746 0)
(1.05651 0.114602 0)
(1.02521 0.112066 0)
(0.996288 0.102949 0)
(0.974003 0.090492 0)
(0.957501 0.0771891 0)
(0.945224 0.064072 0)
(0.93609 0.0517364 0)
(0.929361 0.0405308 0)
(0.923807 0.0303811 0)
(0.898658 0.020496 0)
(0.694994 0.00869452 0)
(0.151775 0.000644367 0)
(0.331748 0.0112727 -4.97292e-21)
(1.1769 0.0608932 -2.62268e-21)
(1.2179 0.0773986 1.94242e-22)
(1.20109 0.0942461 0)
(1.17833 0.110739 -5.11539e-35)
(1.15229 0.125075 8.76416e-22)
(1.12313 0.136171 -2.34715e-21)
(1.09099 0.143041 0)
(1.05618 0.144516 6.5524e-35)
(1.01917 0.139178 -4.52782e-21)
(0.985389 0.12734 0)
(0.959213 0.112667 -6.11221e-21)
(0.939372 0.09759 -1.85117e-20)
(0.924003 0.0830059 -8.91178e-21)
(0.91182 0.0694588 -2.77607e-21)
(0.901968 0.0573582 -1.67773e-21)
(0.893166 0.0466094 0)
(0.865695 0.0361392 1.21307e-21)
(0.661021 0.0219224 1.43624e-21)
(0.141582 0.0043244 2.57912e-20)
(0.351245 0.0307149 -1.70959e-20)
(1.22531 0.110855 5.04751e-22)
(1.25873 0.128757 -5.77924e-22)
(1.23348 0.14335 0)
(1.20261 0.157723 -9.0197e-22)
(1.16909 0.169941 -2.04014e-21)
(1.13291 0.178839 -1.96597e-21)
(1.09416 0.183338 -9.55781e-21)
(1.05305 0.182344 0)
(1.00984 0.1745 1.90495e-20)
(0.970317 0.160576 2.03258e-20)
(0.939165 0.144615 6.36444e-21)
(0.91487 0.128926 2.4679e-20)
(0.895261 0.1142 3.61218e-20)
(0.878933 0.100933 0)
(0.864846 0.0895667 5.34674e-20)
(0.851584 0.0802932 7.8464e-20)
(0.820857 0.0714552 8.794e-20)
(0.633015 0.0524866 -1.02826e-19)
(0.140158 0.0120182 -1.89773e-21)
(0.337513 0.0495417 0)
(1.2549 0.175815 -5.36377e-21)
(1.28917 0.192793 0)
(1.25793 0.203124 6.10012e-21)
(1.22084 0.213039 0)
(1.18112 0.22107 -1.01379e-21)
(1.13892 0.226146 3.3331e-21)
(1.09438 0.227215 -1.64055e-20)
(1.04766 0.223078 -1.42182e-21)
(0.998925 0.212404 9.32036e-21)
(0.954451 0.196431 4.606e-20)
(0.919334 0.179448 -1.67551e-22)
(0.891784 0.163662 -1.8259e-20)
(0.869445 0.149636 -3.48738e-20)
(0.850879 0.13764 4.23085e-20)
(0.83508 0.12788 -7.58042e-20)
(0.820843 0.120354 -1.03479e-20)
(0.792891 0.112892 0)
(0.620977 0.0880197 6.80849e-22)
(0.144108 0.0209275 0)
(0.323715 0.0657708 -1.4674e-19)
(1.26864 0.244521 5.82559e-20)
(1.30649 0.261449 2.86226e-20)
(1.27203 0.267283 -4.56981e-21)
(1.23101 0.272181 6.63773e-21)
(1.18709 0.275465 6.77144e-22)
(1.14052 0.276162 6.1419e-21)
(1.09156 0.273195 0)
(1.04043 0.265396 -3.96698e-20)
(0.987339 0.251555 0)
(0.939061 0.233357 -2.3313e-20)
(0.901066 0.215313 -3.18002e-20)
(0.871465 0.199345 -2.00544e-20)
(0.847779 0.185668 -2.55874e-20)
(0.828431 0.174296 0)
(0.812329 0.165291 0)
(0.798172 0.158585 -6.84003e-20)
(0.77156 0.15117 1.36572e-20)
(0.608873 0.119034 -8.08653e-21)
(0.143495 0.0285175 -9.46148e-21)
(0.313203 0.0803842 1.0878e-19)
(1.27119 0.312279 0)
(1.31328 0.329772 -8.0546e-20)
(1.27723 0.331427 -1.80688e-20)
(1.23402 0.331782 -1.09281e-20)
(1.18747 0.330526 0)
(1.13789 0.326849 3.25436e-21)
(1.08559 0.319738 1.61099e-20)
(1.03098 0.308136 1.83423e-20)
(0.974379 0.290936 4.44788e-20)
(0.923151 0.270315 0)
(0.883134 0.250946 -6.80693e-20)
(0.852273 0.234405 -4.29393e-20)
(0.827877 0.220589 -2.57009e-20)
(0.808243 0.209317 1.67159e-19)
(0.792158 0.200395 2.04086e-20)
(0.778284 0.193748 9.78164e-20)
(0.752685 0.185771 -4.74389e-19)
(0.596288 0.147079 2.84765e-19)
(0.142021 0.0355136 -3.44079e-19)
(0.305888 0.0941399 1.14316e-19)
(1.26701 0.376562 -2.03969e-20)
(1.31247 0.395714 1.42975e-20)
(1.27575 0.393763 3.67268e-20)
(1.23124 0.390036 1.99472e-20)
(1.18297 0.384669 1.55875e-21)
(1.13129 0.376897 -3.95332e-21)
(1.0766 0.365766 1.45564e-20)
(1.01944 0.350355 -3.92322e-20)
(0.960268 0.32972 0)
(0.906899 0.306522 -2.95522e-20)
(0.865477 0.285589 -1.28628e-21)
(0.833815 0.268115 -4.74152e-20)
(0.809058 0.253783 0)
(0.789365 0.24217 -3.61544e-20)
(0.773422 0.232988 -8.75569e-20)
(0.759812 0.226032 2.42041e-19)
(0.735006 0.217327 -2.4273e-19)
(0.583976 0.172564 3.47319e-19)
(0.140047 0.0418709 -3.61989e-19)
(0.300446 0.107084 -5.39908e-22)
(1.25915 0.436674 2.47825e-20)
(1.30648 0.457998 6.93193e-20)
(1.26949 0.453237 -2.30681e-20)
(1.22428 0.446072 1.13249e-20)
(1.1749 0.437045 0)
(1.12176 0.425466 8.95609e-22)
(1.06536 0.410553 -1.37786e-20)
(1.00631 0.391437 -1.87816e-20)
(0.945214 0.367371 0)
(0.890279 0.341507 -2.8443e-20)
(0.847854 0.318803 -3.88542e-20)
(0.815671 0.300153 5.12113e-20)
(0.790737 0.285006 -3.27273e-20)
(0.771093 0.272783 -1.57305e-19)
(0.755358 0.263075 9.6578e-20)
(0.742058 0.255623 3.05781e-20)
(0.717968 0.246081 0)
(0.571682 0.195737 -3.34578e-19)
(0.137729 0.0476497 -1.22692e-20)
(0.296112 0.119429 1.83863e-20)
(1.24945 0.492724 -2.82603e-20)
(1.29705 0.516438 -3.72251e-20)
(1.25982 0.509365 -6.76663e-20)
(1.21415 0.499279 5.66472e-20)
(1.16403 0.487055 -2.41523e-20)
(1.10985 0.472071 -1.32499e-21)
(1.05221 0.453614 -2.11606e-20)
(0.991799 0.430952 1.48467e-20)
(0.929359 0.40351 -1.03766e-19)
(0.873307 0.374983 -3.39776e-20)
(0.830152 0.350402 0)
(0.797619 0.330402 5.53405e-20)
(0.772597 0.314211 6.81447e-20)
(0.753066 0.301161 8.39754e-20)
(0.737576 0.290781 -1.04732e-19)
(0.724593 0.282683 -3.15335e-20)
(0.701205 0.272193 3.77009e-20)
(0.559355 0.216748 0)
(0.135189 0.052883 -2.67195e-20)
(0.292478 0.131263 -2.10117e-19)
(1.23859 0.545307 1.30028e-19)
(1.28536 0.571245 3.94919e-20)
(1.24788 0.562198 -5.11755e-20)
(1.20183 0.549579 3.44731e-20)
(1.15112 0.534509 -3.09542e-21)
(1.09615 0.516426 -2.62135e-22)
(1.03759 0.494665 -7.90691e-21)
(0.976253 0.468624 -3.20898e-20)
(0.912906 0.437935 -2.52029e-22)
(0.856104 0.406817 -9.94737e-20)
(0.812394 0.380362 9.59312e-20)
(0.779542 0.358904 -6.12225e-20)
(0.754445 0.341502 7.62595e-20)
(0.735035 0.327461 0)
(0.719785 0.31622 -5.66088e-20)
(0.707168 0.307353 -1.50737e-21)
(0.684525 0.29574 -1.63953e-19)
(0.546921 0.235795 -2.44266e-20)
(0.132338 0.0575378 0)
(0.289462 0.142492 0)
(1.22692 0.594837 1.36077e-19)
(1.27211 0.622646 9.24483e-20)
(1.23436 0.611847 5.74586e-20)
(1.18801 0.597049 3.13415e-20)
(1.13678 0.579441 0)
(1.08116 0.558478 5.86547e-21)
(1.02186 0.533601 -1.02967e-21)
(0.959878 0.504317 6.64439e-20)
(0.896052 0.470505 -1.26038e-20)
(0.838829 0.436927 -7.1814e-20)
(0.794651 0.408707 4.75482e-20)
(0.761417 0.385768 -1.8735e-21)
(0.736173 0.367031 7.97582e-20)
(0.716809 0.35181 5.25818e-20)
(0.701803 0.339548 -1.23248e-19)
(0.689547 0.329774 1.49614e-19)
(0.667675 0.316971 4.49803e-20)
(0.534229 0.252856 1.87643e-19)
(0.12907 0.061542 -5.01697e-19)
(0.28705 0.153414 -5.23006e-20)
(1.21487 0.641602 7.82748e-20)
(1.25803 0.670844 -5.78025e-20)
(1.2198 0.658572 -6.57802e-20)
(1.17313 0.641817 0)
(1.12142 0.621922 2.31904e-20)
(1.06522 0.598298 -1.32457e-20)
(1.00531 0.570379 1.3265e-20)
(0.942908 0.537914 0)
(0.878978 0.501085 -1.83891e-19)
(0.821665 0.465313 1.88904e-19)
(0.777075 0.435566 0)
(0.743294 0.411238 7.13427e-20)
(0.717672 0.391053 -2.1138e-21)
(0.698232 0.374453 -1.65926e-19)
(0.683385 0.360948 6.52885e-20)
(0.6715 0.350093 0)
(0.650438 0.336036 2.44041e-19)
(0.521047 0.268096 0)
(0.125379 0.064906 -2.39989e-19)
(0.285217 0.164071 5.73047e-20)
(1.20271 0.685795 8.9191e-20)
(1.2435 0.716061 -5.96053e-20)
(1.20468 0.702553 0)
(1.15759 0.684081 4.24639e-20)
(1.10537 0.662088 0)
(1.0486 0.635954 2.27344e-20)
(0.988163 0.605067 -1.58378e-21)
(0.925507 0.569387 8.70079e-21)
(0.861829 0.529612 -8.8751e-20)
(0.804854 0.49196 1.80119e-20)
(0.759897 0.461125 0)
(0.725262 0.43559 -1.49693e-19)
(0.698877 0.413897 2.34219e-21)
(0.679089 0.395653 0)
(0.66426 0.380632 2.91517e-21)
(0.652719 0.36841 2.21878e-19)
(0.632507 0.352941 -2.15878e-19)
(0.507219 0.281432 6.40646e-20)
(0.121048 0.0674878 0)
(0.283682 0.174348 0)
(1.1906 0.727592 9.81687e-20)
(1.22869 0.758755 6.94088e-20)
(1.18936 0.744023 -2.14923e-21)
(1.14173 0.724025 2.76095e-20)
(1.08887 0.700098 5.03084e-20)
(1.03148 0.671537 -5.95735e-21)
(0.970545 0.637746 -5.1562e-21)
(0.90783 0.59875 4.17169e-20)
(0.844756 0.555977 -1.29862e-19)
(0.788658 0.51682 2.46236e-22)
(0.74339 0.485534 -5.89378e-20)
(0.707484 0.459183 2.44084e-19)
(0.67977 0.435987 -3.06646e-21)
(0.659144 0.415866 -1.32087e-19)
(0.644043 0.39892 -2.43521e-19)
(0.632773 0.384979 0)
(0.613492 0.367714 0)
(0.492299 0.29285 7.20835e-20)
(0.115924 0.0689783 -4.17537e-20)
(0.282862 0.184387 6.92372e-20)
(1.17894 0.767039 -2.0889e-19)
(1.2139 0.799042 -7.25159e-20)
(1.17399 0.783211 0)
(1.12578 0.761836 -7.11993e-22)
(1.0722 0.736099 6.11609e-20)
(1.01402 0.705215 -2.49959e-20)
(0.952542 0.668487 8.2903e-21)
(0.889903 0.626095 4.67195e-20)
(0.827921 0.580104 -9.49782e-20)
(0.773319 0.53981 -1.41613e-19)
(0.727983 0.508943 1.53344e-19)
(0.690275 0.482464 0)
(0.660341 0.457852 -5.9044e-20)
(0.638072 0.435512 -1.46765e-19)
(0.622292 0.416212 -1.78863e-19)
(0.61114 0.400122 -2.19557e-19)
(0.592678 0.380521 6.64809e-20)
(0.475742 0.301949 -3.88898e-20)
(0.109399 0.0694125 9.04174e-22)
(0.282156 0.194391 0)
(1.16761 0.804546 0)
(1.19942 0.837116 9.22384e-22)
(1.15877 0.820312 0)
(1.10988 0.797692 -9.82926e-20)
(1.0555 0.770275 -5.36928e-20)
(0.996442 0.737137 0)
(0.934229 0.697428 -1.11432e-21)
(0.871713 0.651423 6.485e-20)
(0.811343 0.601981 -2.06235e-19)
(0.759157 0.560751 0)
(0.714198 0.531473 -9.28663e-20)
(0.674028 0.506 -4.3517e-21)
(0.640644 0.480427 -3.81286e-21)
(0.615792 0.455451 1.57737e-19)
(0.598742 0.432705 -3.82516e-22)
(0.587213 0.413814 -4.85685e-19)
(0.569197 0.391233 1.48184e-19)
(0.456589 0.308498 4.44928e-20)
(0.101185 0.0682319 0)
(0.281707 0.204349 -2.48267e-19)
(1.15648 0.840235 -1.24212e-19)
(1.18528 0.873175 -1.74806e-19)
(1.14385 0.855495 2.30445e-19)
(1.0942 0.831743 -1.79268e-19)
(1.03888 0.802771 0)
(0.978842 0.767465 -2.18494e-20)
(0.915741 0.724735 1.14274e-21)
(0.853182 0.674811 1.96903e-21)
(0.794957 0.621519 1.46253e-20)
(0.746457 0.57938 1.53836e-19)
(0.702634 0.553183 -3.03238e-20)
(0.65935 0.530327 -1.45431e-19)
(0.621063 0.50461 -7.17352e-20)
(0.591822 0.476672 9.02504e-20)
(0.572366 0.449423 -1.51414e-22)
(0.559685 0.426161 1.37358e-19)
(0.54293 0.399853 -3.2772e-19)
(0.434247 0.3116 3.9751e-19)
(0.0908715 0.0649662 5.69276e-20)
(0.281322 0.214054 8.99499e-20)
(1.14578 0.874194 -6.57792e-20)
(1.17159 0.907338 4.38565e-21)
(1.12934 0.888899 1.26629e-19)
(1.07886 0.86414 4.17458e-20)
(1.02248 0.833725 1.01908e-19)
(0.961295 0.796336 -1.08124e-20)
(0.89716 0.750577 8.59856e-21)
(0.834364 0.696422 -4.77312e-20)
(0.778573 0.638571 -9.5113e-20)
(0.735384 0.595389 0)
(0.694063 0.573953 -1.30694e-19)
(0.647131 0.556337 2.09789e-19)
(0.601747 0.531903 0)
(0.565895 0.499743 -1.94615e-19)
(0.541973 0.468245 1.25998e-19)
(0.528201 0.437976 -1.51885e-19)
(0.512837 0.406762 -1.87036e-19)
(0.406292 0.310943 -3.32471e-19)
(0.0774714 0.0587766 -2.60176e-19)
(0.281447 0.223733 -9.73208e-20)
(1.13555 0.906528 7.02609e-20)
(1.15845 0.939757 1.57828e-19)
(1.11533 0.920642 1.72749e-19)
(1.06394 0.894993 -8.38792e-20)
(1.00642 0.863273 6.71313e-20)
(0.943914 0.823924 -3.14647e-20)
(0.878494 0.775128 1.49694e-20)
(0.815279 0.716441 -2.00598e-20)
(0.762008 0.653107 7.06061e-20)
(0.725681 0.608389 2.60836e-19)
(0.689179 0.593381 0)
(0.638306 0.584579 0)
(0.583171 0.563273 -8.43417e-20)
(0.537244 0.527042 0)
(0.504867 0.489291 2.8065e-19)
(0.489826 0.451808 3.42904e-19)
(0.474895 0.412277 0)
(0.370121 0.305512 0)
(0.0603941 0.0491301 2.9518e-19)
(0.281525 0.232959 1.05986e-19)
(1.12582 0.937379 8.29842e-20)
(1.14588 0.970556 1.11761e-19)
(1.10189 0.95084 -1.49335e-19)
(1.04952 0.924408 -9.13358e-20)
(0.990778 0.891516 -8.74407e-20)
(0.92682 0.85036 4.47576e-20)
(0.859809 0.798582 -1.95733e-22)
(0.795818 0.735066 -1.55051e-21)
(0.745111 0.665239 -1.19664e-20)
(0.717059 0.61769 1.14168e-19)
(0.6887 0.611484 0)
(0.634821 0.615152 2.05878e-19)
(0.566291 0.599146 1.7624e-19)
(0.503882 0.564287 4.89672e-19)
(0.463811 0.513899 1.54536e-19)
(0.443419 0.462988 -1.99216e-19)
(0.428099 0.409759 -1.19e-19)
(0.324886 0.290648 0)
(0.0407814 0.0350978 3.34494e-19)
(0.282217 0.242472 -2.28779e-19)
(1.11655 0.966781 0)
(1.1339 0.999816 1.21841e-19)
(1.08904 0.979565 -1.19009e-19)
(1.03569 0.952467 9.98117e-20)
(0.975642 0.91855 1.25705e-19)
(0.910098 0.875766 -1.00336e-19)
(0.841209 0.821135 3.9221e-22)
(0.775904 0.752515 0)
(0.727617 0.675021 -2.81912e-20)
(0.709933 0.622737 -1.5457e-19)
(0.693769 0.626533 1.18918e-20)
(0.638541 0.648801 2.68448e-19)
(0.552535 0.640755 0)
(0.470679 0.605203 3.3886e-19)
(0.412938 0.552743 0)
(0.380615 0.488151 0)
(0.363247 0.400881 -1.3963e-19)
(0.271309 0.255544 0)
(0.0413075 0.0246087 9.27114e-20)
(0.282713 0.251498 -2.46753e-19)
(1.10768 0.994911 0)
(1.12245 1.02767 1.96529e-19)
(1.07679 1.007 0)
(1.02243 0.979395 -5.24982e-20)
(0.96099 0.944646 0)
(0.893756 0.900523 -7.76873e-21)
(0.822598 0.84326 -3.17317e-21)
(0.755359 0.769344 -4.74407e-23)
(0.708758 0.682821 -9.05173e-22)
(0.703726 0.622781 1.52215e-21)
(0.705081 0.638743 9.47623e-20)
(0.651152 0.684349 2.54854e-19)
(0.539709 0.699336 4.38794e-20)
(0.437442 0.668386 2.74867e-19)
(0.35933 0.599353 0)
(0.300292 0.509518 4.56667e-19)
(0.263938 0.381711 -2.79539e-19)
(0.144065 0.194903 3.27446e-19)
(-0.0514876 0.420271 -3.94324e-19)
(0.283487 0.260541 1.99724e-19)
(1.099 1.02191 3.01835e-19)
(1.11143 1.05438 0)
(1.06501 1.03354 9.64363e-22)
(1.00955 1.00573 1.41458e-19)
(0.946538 0.970473 -2.3003e-19)
(0.87737 0.925448 -4.16142e-20)
(0.803324 0.865816 0)
(0.733059 0.786368 -6.58297e-21)
(0.686864 0.688779 1.17809e-21)
(0.697747 0.617003 0)
(0.725368 0.645478 0)
(0.6759 0.729056 2.09135e-19)
(0.546811 0.760043 -1.49238e-19)
(0.417574 0.732277 -2.83133e-19)
(0.296774 0.675513 0)
(0.187876 0.568889 2.37678e-19)
(0.0771417 0.642153 -2.85878e-19)
(0.0740876 1.84225 -1.57587e-19)
(0.10201 2.78456 -1.95622e-19)
(0.284327 0.268598 -1.44531e-19)
(1.09032 1.04779 -3.74887e-19)
(1.10078 1.07978 1.08829e-19)
(1.05379 1.05903 9.69477e-20)
(0.997149 1.03125 0)
(0.932459 0.99579 -1.60404e-19)
(0.861281 0.950421 -6.75209e-20)
(0.783746 0.888658 2.18795e-21)
(0.709211 0.803789 -2.37481e-21)
(0.661867 0.692863 -5.16747e-20)
(0.69044 0.603017 -6.58762e-20)
(0.757757 0.642371 -3.66843e-21)
(0.72185 0.765451 1.85143e-19)
(0.556979 0.850844 -3.51537e-19)
(0.371365 0.855357 -4.43328e-19)
(0.223535 0.774533 0)
(0.1249 0.995617 0)
(0.179663 2.47571 1.23738e-19)
(0.178981 3.13001 0)
(0.17322 3.31206 2.90793e-19)
(0.288622 0.275178 0)
(1.08121 1.07226 0)
(1.0904 1.10356 0)
(1.04288 1.08326 2.71067e-20)
(0.985035 1.05578 1.19136e-19)
(0.918644 1.02051 -1.15639e-19)
(0.845526 0.975549 -4.5458e-20)
(0.763908 0.912028 2.37812e-21)
(0.683725 0.821989 -2.45613e-20)
(0.633293 0.695233 -1.62558e-20)
(0.679361 0.578187 -3.24135e-19)
(0.80146 0.622701 1.05948e-21)
(0.79607 0.820728 1.05683e-20)
(0.586053 0.977104 5.46471e-20)
(0.334361 0.973753 -6.17711e-21)
(0.184235 1.09978 1.7596e-21)
(0.240641 2.53138 -6.0827e-19)
(0.266849 3.2119 -2.28856e-19)
(0.239445 3.35746 1.07766e-19)
(0.214986 3.38647 -1.10265e-19)
(0.179662 0.213905 8.10839e-20)
(1.0698 1.09466 0)
(1.08108 1.12605 -2.05786e-19)
(1.03281 1.1068 -2.43277e-19)
(0.973878 1.07994 2.45225e-19)
(0.905879 1.04518 1.2115e-19)
(0.831845 1.00015 5.07637e-20)
(0.746162 0.938122 -3.67782e-20)
(0.65785 0.847072 2.37001e-20)
(0.599813 0.705617 0)
(0.65999 0.548894 -2.80197e-19)
(0.851076 0.563979 1.13749e-19)
(0.941437 0.812517 0)
(0.687937 1.09795 4.02561e-20)
(0.357526 1.14979 1.41303e-19)
(0.221236 2.067 -1.60659e-19)
(0.368319 3.21156 1.72013e-19)
(0.337359 3.36614 8.09777e-20)
(0.281274 3.40885 8.94888e-20)
(0.243394 3.43087 1.06225e-19)
(0.351147 0.336439 -1.36432e-19)
(1.04932 1.10811 0)
(1.06868 1.15941 2.07477e-19)
(1.01665 1.14174 2.43751e-19)
(0.955266 1.11591 -2.44702e-19)
(0.883765 1.08174 -1.20565e-19)
(0.802747 1.03598 -7.18054e-20)
(0.710206 0.970641 -2.45578e-21)
(0.612271 0.870428 -3.046e-20)
(0.53992 0.699066 -1.61498e-19)
(0.617713 0.462301 -2.22688e-20)
(0.995009 0.404669 -3.81209e-19)
(1.19744 0.948513 -3.00681e-20)
(0.884532 1.4296 -2.26024e-20)
(0.502785 1.96939 -1.14619e-19)
(0.535966 3.1541 7.26107e-20)
(0.502544 3.41507 -5.75322e-20)
(0.428338 3.46957 -3.23605e-20)
(0.357656 3.51483 2.02994e-20)
(0.264947 3.50127 3.11757e-22)
(0.341775 0.336032 0)
(1.04899 1.1333 5.8753e-20)
(1.06013 1.18381 -4.17359e-20)
(1.00702 1.16682 -2.76876e-20)
(0.943977 1.14171 -1.56339e-19)
(0.870479 1.1082 1.16232e-19)
(0.785998 1.06273 4.44672e-20)
(0.687829 0.99728 -2.21436e-21)
(0.578962 0.8933 3.27981e-20)
(0.484505 0.696384 -7.62235e-21)
(0.550235 0.341286 1.15435e-18)
(1.02015 0.334527 -6.94144e-20)
(1.39291 1.16231 6.62292e-20)
(1.01514 1.8011 -1.64421e-20)
(0.668954 2.57327 5.00068e-20)
(0.692003 3.40432 1.13177e-20)
(0.56403 3.53173 -1.04255e-19)
(0.490869 3.5733 -1.07411e-19)
(0.389292 3.62487 1.29837e-19)
(0.288974 3.59572 5.8036e-20)
(0.323141 0.333485 1.50113e-19)
(1.04661 1.16254 3.90307e-19)
(1.05184 1.21099 -1.1496e-19)
(0.997126 1.19422 -1.0154e-19)
(0.932319 1.16967 0)
(0.856783 1.13683 1.64735e-19)
(0.768878 1.09207 6.55388e-20)
(0.664894 1.02747 -1.90267e-21)
(0.543379 0.921661 4.73691e-21)
(0.41962 0.707451 2.13523e-19)
(0.434978 0.291566 7.63044e-19)
(0.908206 0.405314 9.24636e-19)
(1.48209 1.4995 9.13188e-19)
(1.14245 2.27235 -2.35443e-19)
(0.826199 3.13127 -1.11588e-19)
(0.788095 3.59107 0)
(0.630837 3.63733 0)
(0.538107 3.70576 1.33425e-19)
(0.428644 3.76127 0)
(0.298013 3.72455 2.03003e-19)
(0.310165 0.335091 -2.20218e-19)
(1.04205 1.19415 -3.24688e-19)
(1.04267 1.24046 0)
(0.986253 1.22348 1.49565e-21)
(0.91978 1.19937 -1.50231e-19)
(0.842205 1.16725 2.39284e-19)
(0.751103 1.12376 4.00577e-20)
(0.641268 1.06108 -2.63114e-21)