/*--------------------------------*- C++ -*----------------------------------*\
| =========                 |                                                 |
| \\      /  F ield         | OpenFOAM: The Open Source CFD Toolbox           |
|  \\    /   O peration     | Version:  2112                                  |
|   \\  /    A nd           | Website:  www.openfoam.com                      |
|    \\/     M anipulation  |                                                 |
\*---------------------------------------------------------------------------*/
FoamFile
{
    version     2.0;
    format      ascii;
    arch        "LSB;label=32;scalar=64";
    class       volScalarField;
    location    "40";
    object      T;
}
// * * * * * * * * * * * * * * * * * * * * * * * * * * * * * * * * * * * * * //

dimensions      [0 0 0 1 0 0 0];

internalField   nonuniform List<scalar> 
10000
(
0.998128
1.00296
0.998195
0.998943
0.999079
0.998989
0.998945
0.998192
1.00291
0.99816
0.990581
0.997049
0.992634
0.993928
0.994204
0.99413
0.993928
0.992614
0.996857
0.99071
0.991777
0.996161
0.993162
0.993957
0.994187
0.994249
0.99398
0.993192
0.996055
0.991806
0.994606
0.997358
0.995486
0.995739
0.995822
0.995913
0.995787
0.995559
0.99747
0.994554
0.995871
0.997754
0.996797
0.996894
0.996915
0.996966
0.996935
0.996842
0.997928
0.995868
0.996421
0.9977
0.997247
0.997339
0.997357
0.997387
0.997371
0.997271
0.99781
0.996421
0.996905
0.997741
0.997506
0.997602
0.997627
0.997644
0.997621
0.99752
0.997774
0.996881
0.99727
0.997812
0.997705
0.997796
0.997828
0.997834
0.997803
0.997706
0.997823
0.997254
0.997477
0.997838
0.997802
0.997888
0.997925
0.997924
0.997888
0.997798
0.997843
0.997464
0.997563
0.997815
0.99782
0.997897
0.997933
0.99793
0.997893
0.997811
0.997819
0.997551
0.997558
0.997735
0.997752
0.997834
0.997855
0.997867
0.997835
0.99774
0.997762
0.997511
0.997465
0.997596
0.997612
0.997708
0.997713
0.997742
0.997712
0.997598
0.997645
0.99737
0.997267
0.997388
0.997425
0.997509
0.997527
0.997543
0.997507
0.997406
0.99741
0.997206
0.996936
0.997062
0.997121
0.997206
0.997238
0.997246
0.997204
0.997105
0.99706
0.996918
0.996407
0.996609
0.996684
0.996767
0.996827
0.996799
0.99674
0.996666
0.996571
0.996456
0.995609
0.995941
0.996022
0.996131
0.99622
0.996151
0.996076
0.996003
0.995884
0.995723
0.994601
0.994914
0.995051
0.995232
0.995328
0.995305
0.995223
0.995057
0.994893
0.994726
0.993268
0.993492
0.993754
0.993977
0.994088
0.994131
0.994037
0.993802
0.993508
0.993456
0.991262
0.991595
0.991977
0.992245
0.992401
0.992462
0.992345
0.992099
0.991682
0.991623
0.988473
0.989072
0.98959
0.989932
0.990208
0.990249
0.990113
0.98986
0.989261
0.989251
0.98492
0.985679
0.986389
0.986909
0.98731
0.987413
0.98728
0.986938
0.986175
0.986245
0.980157
0.981126
0.982088
0.98289
0.983446
0.983707
0.983608
0.983146
0.98224
0.982299
0.973616
0.975068
0.976361
0.97751
0.97836
0.978839
0.978851
0.97835
0.977177
0.977299
0.96483
0.966945
0.968713
0.970361
0.971679
0.972538
0.972815
0.972374
0.970816
0.971086
0.952999
0.955996
0.958439
0.960805
0.962829
0.964344
0.965167
0.965004
0.962929
0.963333
0.93692
0.941087
0.944465
0.947819
0.950885
0.953482
0.95535
0.955998
0.953371
0.953655
0.914842
0.920502
0.925109
0.929758
0.934284
0.938544
0.942255
0.944783
0.941832
0.940805
0.884328
0.891756
0.897815
0.903999
0.910395
0.917044
0.923849
0.930722
0.930663
0.926819
0.842163
0.851403
0.858872
0.866512
0.874868
0.884341
0.895166
0.909097
0.918321
0.911727
0.784674
0.795301
0.803509
0.811842
0.821557
0.833745
0.849946
0.876732
0.933706
0.974066
1.00288
1.0083
1.00333
1.00423
1.00442
1.00441
1.00423
1.00336
1.00821
1.0029
0.996785
1.00553
1.00108
1.00251
1.00289
1.00294
1.00251
1.0012
1.00547
0.996829
0.996161
1.00292
1.00037
1.00099
1.00123
1.0012
1.00098
1.00044
1.00303
0.996073
0.997484
1.00148
1.00004
1.00006
1.00009
0.999991
1.00001
0.999963
1.00142
0.997537
0.997925
1.00012
0.999292
0.999192
0.999153
0.99909
0.999153
0.9992
0.999992
0.998006
0.99781
0.999124
0.99874
0.998654
0.9986
0.998572
0.998634
0.998689
0.9991
0.99787
0.997747
0.99856
0.998445
0.998389
0.998345
0.998335
0.998382
0.998424
0.998637
0.997814
0.997792
0.998324
0.998283
0.998255
0.998228
0.998225
0.998253
0.998277
0.998392
0.997847
0.99782
0.998189
0.998172
0.998164
0.998155
0.998153
0.998165
0.998175
0.998234
0.997861
0.997803
0.99807
0.998068
0.998074
0.99808
0.998077
0.998076
0.998074
0.998097
0.997836
0.997741
0.99794
0.997986
0.997976
0.998018
0.997988
0.997974
0.997988
0.997972
0.997792
0.997624
0.99778
0.997881
0.997841
0.997929
0.997857
0.997835
0.997882
0.997819
0.997698
0.997411
0.997539
0.997632
0.997625
0.997695
0.997648
0.997624
0.99763
0.997563
0.997465
0.997068
0.997196
0.997283
0.997316
0.997361
0.99734
0.99731
0.997273
0.997197
0.997117
0.996587
0.996724
0.996772
0.996861
0.996878
0.996924
0.99689
0.996761
0.996684
0.996622
0.995869
0.996083
0.996097
0.99623
0.996217
0.99636
0.996312
0.996089
0.995994
0.995948
0.994794
0.995173
0.995259
0.995355
0.995378
0.99545
0.995378
0.995237
0.995039
0.995001
0.993386
0.993767
0.993992
0.994133
0.994232
0.994186
0.994086
0.993965
0.993689
0.993649
0.991543
0.991929
0.992274
0.992519
0.992691
0.992634
0.992515
0.992281
0.991945
0.991909
0.988995
0.989576
0.989939
0.990337
0.990497
0.990568
0.990431
0.990025
0.989627
0.989611
0.985418
0.986245
0.986757
0.987282
0.987528
0.987682
0.987526
0.987029
0.986457
0.986584
0.980615
0.981796
0.982603
0.983235
0.983714
0.9839
0.983766
0.983267
0.982419
0.982782
0.974319
0.976007
0.977108
0.978
0.978745
0.979118
0.979077
0.978526
0.977419
0.978038
0.965882
0.968281
0.969768
0.971068
0.972207
0.972938
0.973128
0.972576
0.971144
0.972116
0.954486
0.95785
0.959882
0.96177
0.963524
0.964867
0.965549
0.965191
0.963326
0.964692
0.938974
0.943604
0.946386
0.949098
0.951782
0.954135
0.955794
0.956111
0.95379
0.955374
0.917615
0.923864
0.927619
0.931415
0.935419
0.939337
0.942764
0.944776
0.942128
0.942769
0.887953
0.896104
0.900992
0.90606
0.911757
0.917925
0.924299
0.930376
0.930817
0.9292
0.846621
0.856718
0.86265
0.868873
0.876326
0.885146
0.895273
0.908766
0.91641
0.913705
0.789565
0.80113
0.807436
0.814029
0.822596
0.833876
0.848937
0.876335
0.934588
0.967193
0.998206
1.00337
0.998075
0.998867
0.999052
0.999069
0.998844
0.998073
1.00337
0.998191
0.992631
1.00115
0.996223
0.997543
0.997988
0.99806
0.997573
0.996349
1.00122
0.992602
0.99318
1.00039
0.997462
0.997964
0.998286
0.998319
0.998023
0.997608
1.00043
0.993199
0.995498
1.00002
0.998677
0.998681
0.998794
0.998795
0.998712
0.998704
0.999907
0.99561
0.996799
0.999254
0.998788
0.998762
0.99878
0.998775
0.998771
0.998767
0.999145
0.996913
0.997252
0.998713
0.998648
0.998654
0.998638
0.998631
0.998653
0.998614
0.998654
0.997341
0.997517
0.998434
0.99851
0.99854
0.998525
0.998519
0.998533
0.998474
0.998408
0.997573
0.997717
0.998282
0.99838
0.998422
0.99842
0.998416
0.998413
0.998353
0.998271
0.997745
0.997811
0.998173
0.998262
0.998309
0.998318
0.998316
0.998301
0.998246
0.998171
0.99783
0.997819
0.998068
0.998146
0.998192
0.99821
0.998209
0.998189
0.998137
0.998069
0.997836
0.997769
0.997945
0.998018
0.998059
0.998086
0.998083
0.998059
0.998013
0.997948
0.997782
0.997653
0.997785
0.997858
0.997894
0.99793
0.997923
0.997896
0.997853
0.997788
0.997669
0.997449
0.997561
0.997636
0.997676
0.997713
0.997706
0.997678
0.99763
0.99756
0.997474
0.997125
0.997243
0.997326
0.997376
0.99741
0.997403
0.99737
0.997315
0.997235
0.997175
0.996646
0.996788
0.996877
0.996947
0.996978
0.996976
0.996935
0.99686
0.996771
0.996729
0.995961
0.996147
0.996245
0.996338
0.996375
0.996383
0.99633
0.996226
0.996114
0.99609
0.994997
0.995237
0.995367
0.995481
0.995539
0.995552
0.995483
0.995354
0.995199
0.995197
0.993648
0.993952
0.99415
0.994294
0.994386
0.994399
0.994317
0.994153
0.993939
0.993971
0.9918
0.992217
0.992496
0.992693
0.992822
0.992841
0.992746
0.992534
0.992257
0.992338
0.9893
0.989889
0.990262
0.990544
0.990721
0.99077
0.99066
0.990383
0.990025
0.990188
0.985924
0.986755
0.987264
0.987661
0.987928
0.98803
0.987913
0.987568
0.987091
0.987396
0.981397
0.98257
0.983269
0.983822
0.98424
0.984435
0.984343
0.983937
0.983302
0.983829
0.975337
0.976992
0.977954
0.978739
0.979386
0.979759
0.979755
0.979307
0.978469
0.979316
0.967194
0.969542
0.970866
0.971998
0.973002
0.973694
0.973903
0.973482
0.972376
0.973644
0.956208
0.959523
0.961344
0.962982
0.964537
0.965783
0.966443
0.966226
0.96476
0.966481
0.941263
0.945862
0.94836
0.95071
0.953092
0.955257
0.956812
0.957239
0.955399
0.957402
0.920677
0.926919
0.930281
0.933563
0.937109
0.940699
0.943872
0.945895
0.943884
0.945034
0.891979
0.900162
0.904506
0.908864
0.913888
0.919492
0.925357
0.931219
0.93249
0.93208
0.851663
0.861866
0.86705
0.872312
0.878819
0.886728
0.896015
0.908869
0.917459
0.917038
0.795241
0.807036
0.812341
0.817677
0.82496
0.834893
0.848601
0.874453
0.93437
0.972083
0.998956
1.00425
0.998854
0.999668
0.999874
0.999876
0.999648
0.998834
1.00425
0.998936
0.993941
1.00252
0.997518
0.998788
0.999231
0.999258
0.998792
0.99758
1.00256
0.993877
0.99399
1.00098
0.997962
0.998333
0.998625
0.99865
0.998363
0.998062
1.00097
0.993977
0.995751
1.00005
0.998695
0.998591
0.998673
0.998685
0.998619
0.998731
0.999945
0.995863
0.996902
0.999185
0.99877
0.998694
0.998689
0.998692
0.998708
0.998767
0.999086
0.997034
0.997355
0.998644
0.998655
0.998665
0.998641
0.998641
0.998673
0.998638
0.998588
0.997462
0.997611
0.998381
0.998538
0.998602
0.998592
0.998591
0.998604
0.998518
0.998356
0.997691
0.997795
0.998249
0.998419
0.998502
0.998513
0.998512
0.998501
0.998404
0.998242
0.997852
0.997883
0.998163
0.998307
0.99839
0.998413
0.998412
0.998388
0.998297
0.99816
0.997927
0.997891
0.998077
0.998196
0.998271
0.998299
0.998299
0.998268
0.998189
0.998076
0.997928
0.99784
0.997968
0.998071
0.998135
0.998167
0.998165
0.998133
0.998065
0.997972
0.997872
0.997725
0.997819
0.997911
0.997967
0.998
0.997997
0.997966
0.997907
0.997825
0.997756
0.997522
0.997606
0.997691
0.997744
0.997777
0.997774
0.997743
0.997686
0.99761
0.997564
0.997206
0.997299
0.997382
0.997438
0.997472
0.99747
0.997437
0.997376
0.997297
0.997269
0.996739
0.996859
0.996944
0.99701
0.997047
0.997048
0.99701
0.996938
0.99685
0.996835
0.996073
0.996231
0.996332
0.996413
0.996456
0.996463
0.996417
0.996327
0.99622
0.996219
0.995139
0.995346
0.995482
0.995582
0.995639
0.995648
0.995591
0.995481
0.995344
0.995363
0.993843
0.994117
0.994305
0.994435
0.994517
0.994529
0.994459
0.994318
0.994139
0.99419
0.992068
0.992446
0.992698
0.992875
0.992992
0.993015
0.992932
0.99275
0.992517
0.992619
0.989655
0.99019
0.990526
0.990773
0.99094
0.99099
0.990896
0.990662
0.990359
0.990545
0.986386
0.987154
0.98761
0.987958
0.988206
0.988306
0.988211
0.98792
0.987516
0.987842
0.981995
0.983105
0.983727
0.984218
0.984597
0.984787
0.984717
0.984371
0.983831
0.984372
0.976137
0.977707
0.978572
0.97927
0.979852
0.980207
0.98022
0.979842
0.979118
0.979967
0.968278
0.970502
0.971704
0.972705
0.97361
0.97426
0.974471
0.974121
0.973151
0.974405
0.957675
0.960829
0.962471
0.96392
0.965321
0.966483
0.967111
0.966953
0.965646
0.967336
0.94324
0.947632
0.949875
0.95195
0.954092
0.956101
0.95756
0.958012
0.956358
0.958327
0.92331
0.929299
0.932304
0.935187
0.938366
0.941683
0.944642
0.946617
0.944908
0.946114
0.895399
0.903285
0.907138
0.910928
0.915408
0.920558
0.926043
0.931762
0.933339
0.933292
0.855862
0.865737
0.870263
0.87475
0.880474
0.887645
0.896248
0.90849
0.917602
0.91836
0.799811
0.811296
0.815759
0.820094
0.826324
0.835171
0.847787
0.872681
0.933359
0.973296
0.998948
1.00449
0.999068
0.999827
1.00004
1.00004
0.999813
0.999056
1.0045
0.998933
0.994057
1.00301
0.998051
0.999242
0.999663
0.999674
0.999246
0.998104
1.00306
0.994013
0.994329
1.00105
0.998282
0.998645
0.998932
0.998947
0.99867
0.998374
1.00106
0.994324
0.995934
0.999941
0.998772
0.998649
0.998723
0.998735
0.998675
0.998813
0.999861
0.996038
0.996965
0.999086
0.998762
0.998669
0.998651
0.998657
0.998683
0.998763
0.999004
0.997095
0.997382
0.998573
0.998624
0.998631
0.998597
0.9986
0.99864
0.998611
0.998521
0.997501
0.997636
0.998334
0.998515
0.998587
0.998574
0.998576
0.998592
0.9985
0.998309
0.997727
0.997823
0.998224
0.998412
0.99851
0.998521
0.998522
0.998512
0.998404
0.998215
0.997891
0.997911
0.998162
0.998312
0.998412
0.998438
0.998437
0.998412
0.998309
0.998151
0.997968
0.997926
0.998087
0.998213
0.9983
0.998332
0.998332
0.998299
0.998208
0.99808
0.997969
0.997879
0.997979
0.998096
0.998167
0.998201
0.9982
0.998165
0.998088
0.997984
0.997912
0.997761
0.997837
0.997939
0.998
0.998033
0.998031
0.997997
0.997931
0.997843
0.997798
0.997559
0.997628
0.997719
0.997777
0.997809
0.997809
0.997776
0.997714
0.997634
0.997605
0.997245
0.997326
0.997408
0.997471
0.997505
0.997505
0.997471
0.997409
0.997329
0.997314
0.996783
0.996902
0.996975
0.997046
0.997085
0.997087
0.997049
0.996979
0.996893
0.996888
0.996131
0.996293
0.996378
0.996458
0.996502
0.996506
0.996463
0.996379
0.996277
0.996286
0.995223
0.995419
0.99555
0.99564
0.995696
0.995703
0.99565
0.995547
0.99542
0.995449
0.993959
0.994209
0.994397
0.994512
0.994589
0.994601
0.994537
0.994405
0.994241
0.994303
0.992216
0.992572
0.992817
0.992977
0.993085
0.993109
0.993032
0.992864
0.992649
0.992763
0.989848
0.990357
0.990677
0.990904
0.991061
0.99111
0.991024
0.990809
0.990526
0.990725
0.986631
0.987406
0.987811
0.988131
0.988364
0.98846
0.988374
0.988106
0.987729
0.988065
0.982311
0.983477
0.983999
0.984448
0.984801
0.984983
0.984921
0.984603
0.984097
0.984645
0.976595
0.978135
0.978927
0.97957
0.980114
0.980455
0.980472
0.98012
0.979437
0.980292
0.968908
0.971028
0.972172
0.973099
0.973945
0.974567
0.974771
0.974445
0.973516
0.974778
0.958498
0.961585
0.963096
0.964436
0.965748
0.966855
0.967458
0.967314
0.96605
0.967746
0.944346
0.948632
0.950705
0.952625
0.954629
0.956544
0.957941
0.958389
0.95678
0.95876
0.924777
0.930613
0.9334
0.936054
0.939027
0.942188
0.945028
0.946963
0.945323
0.946575
0.897306
0.904975
0.908543
0.912014
0.916187
0.921083
0.926351
0.931965
0.933645
0.933757
0.858187
0.867799
0.871955
0.876003
0.881291
0.888071
0.896331
0.908334
0.917535
0.918733
0.802289
0.813543
0.817513
0.821279
0.826929
0.835211
0.847298
0.871612
0.932315
0.972486
0.999089
1.00442
0.999042
0.999864
1.00008
1.00008
0.99985
0.999029
1.00443
0.999071
0.994203
1.00289
0.997967
0.999218
0.999661
0.999667
0.99922
0.99802
1.00295
0.994139
0.994172
1.00125
0.998298
0.998628
0.998912
0.998925
0.998651
0.998385
1.00126
0.994154
0.995813
1.00012
0.998811
0.998681
0.998751
0.998763
0.998704
0.998847
1.00003
0.995917
0.996919
0.999166
0.998784
0.998691
0.998671
0.998677
0.998702
0.998784
0.999079
0.997053
0.997363
0.998606
0.998636
0.998641
0.998605
0.998609
0.998648
0.998621
0.998549
0.997487
0.997626
0.99835
0.99852
0.998592
0.998577
0.998579
0.998595
0.998504
0.998317
0.997724
0.9978
0.998263
0.998415
0.998512
0.998523
0.998523
0.998513
0.998403
0.998216
0.997892
0.997874
0.99824
0.998319
0.998414
0.998439
0.998438
0.998412
0.998308
0.998151
0.997969
0.997923
0.998109
0.998217
0.998302
0.998334
0.998332
0.998299
0.998207
0.99808
0.99797
0.997905
0.997929
0.998094
0.998167
0.9982
0.998201
0.998165
0.998086
0.997985
0.997914
0.997775
0.997797
0.997935
0.997999
0.998032
0.998031
0.997997
0.997929
0.997844
0.997797
0.997567
0.99761
0.997714
0.997776
0.997809
0.997809
0.997776
0.997714
0.997634
0.997605
0.997237
0.997352
0.997408
0.997472
0.997505
0.997506
0.997472
0.997409
0.99733
0.997314
0.99674
0.997003
0.996986
0.997051
0.997088
0.997087
0.99705
0.996981
0.996895
0.99689
0.996093
0.996386
0.996391
0.996463
0.996506
0.996507
0.996463
0.996381
0.996279
0.996289
0.995237
0.995392
0.995552
0.995642
0.995699
0.995705
0.995652
0.995549
0.995422
0.995453
0.994
0.994117
0.994391
0.994513
0.994592
0.994604
0.994541
0.99441
0.994246
0.994308
0.992245
0.992508
0.992808
0.992977
0.993087
0.993113
0.993037
0.992869
0.992654
0.992768
0.98986
0.990333
0.990672
0.990905
0.991064
0.991115
0.991029
0.990815
0.990531
0.990731
0.986648
0.98738
0.987813
0.988135
0.98837
0.988467
0.988381
0.988115
0.987738
0.988076
0.982352
0.983417
0.984005
0.984454
0.98481
0.984994
0.984932
0.984615
0.984111
0.984659
0.976618
0.978125
0.978942
0.979582
0.980128
0.980469
0.980485
0.980134
0.979453
0.980306
0.96892
0.971069
0.972194
0.973118
0.973963
0.974584
0.974789
0.974463
0.973536
0.974794
0.958534
0.961591
0.963124
0.964462
0.965771
0.966879
0.96748
0.967338
0.966074
0.967766
0.944387
0.948661
0.950747
0.952658
0.954661
0.956576
0.957971
0.958418
0.956814
0.958796
0.924833
0.930678
0.933458
0.936104
0.939074
0.942233
0.945071
0.947003
0.94535
0.946595
0.897378
0.905092
0.908634
0.912089
0.916257
0.921142
0.926389
0.931965
0.933714
0.933984
0.858293
0.867981
0.872092
0.876126
0.881408
0.888187
0.896461
0.908563
0.917614
0.918354
0.802466
0.813772
0.817719
0.821474
0.82712
0.835402
0.847498
0.871787
0.932715
0.973676
0.99893
1.00425
0.99886
0.999652
0.999853
0.99985
0.999636
0.998842
1.00425
0.99891
0.99389
1.00254
0.997556
0.998791
0.999227
0.999229
0.998788
0.997598
1.00259
0.993824
0.993945
1.00101
0.998003
0.998352
0.998639
0.998648
0.99837
0.998084
1.00101
0.99392
0.995773
1.00004
0.998698
0.998606
0.998688
0.998698
0.998625
0.99873
0.999943
0.995872
0.996928
0.999166
0.99876
0.998697
0.998693
0.998698
0.998707
0.998758
0.999073
0.997061
0.997364
0.99864
0.998646
0.998667
0.998644
0.998647
0.998672
0.998631
0.99858
0.997484
0.997609
0.998387
0.998529
0.998601
0.998594
0.998595
0.998603
0.99851
0.998351
0.997705
0.997783
0.998261
0.998409
0.998501
0.998512
0.998513
0.998499
0.998396
0.998238
0.99786
0.99787
0.998181
0.9983
0.998388
0.998412
0.998411
0.998386
0.998291
0.99816
0.99793
0.997887
0.998089
0.998195
0.998271
0.9983
0.998298
0.998268
0.998185
0.998078
0.997932
0.997842
0.99797
0.998074
0.998137
0.998167
0.998165
0.998133
0.998062
0.997973
0.997877
0.997731
0.99782
0.997914
0.99797
0.997999
0.997999
0.997967
0.997905
0.997827
0.997761
0.997528
0.997605
0.997691
0.997746
0.997776
0.997777
0.997746
0.997686
0.997612
0.997568
0.997202
0.997302
0.997377
0.997439
0.997472
0.997473
0.997439
0.997377
0.9973
0.997273
0.996725
0.996877
0.996941
0.997013
0.997051
0.997051
0.997013
0.996943
0.996855
0.99684
0.996063
0.996253
0.996336
0.996418
0.996464
0.996465
0.99642
0.996333
0.996226
0.996226
0.995148
0.995353
0.995493
0.995589
0.995648
0.995653
0.995597
0.995487
0.995351
0.995373
0.993871
0.994116
0.99432
0.994445
0.994527
0.994538
0.994469
0.994328
0.994152
0.994206
0.992077
0.992478
0.992714
0.992888
0.993004
0.993029
0.992946
0.992765
0.992533
0.992635
0.989633
0.990277
0.990547
0.99079
0.990957
0.991006
0.990912
0.990682
0.990376
0.99056
0.986396
0.987196
0.987638
0.98798
0.988229
0.988328
0.988233
0.987947
0.987542
0.987864
0.982054
0.983077
0.983763
0.984247
0.984627
0.984817
0.984748
0.984407
0.983869
0.984404
0.976205
0.977698
0.978616
0.979309
0.979892
0.980247
0.980261
0.979885
0.979167
0.980009
0.968353
0.970535
0.971758
0.972759
0.973662
0.974312
0.974523
0.974175
0.973208
0.974463
0.957767
0.960892
0.962547
0.963994
0.965391
0.966551
0.967177
0.967024
0.965716
0.967406
0.943362
0.947737
0.949984
0.952053
0.954189
0.956192
0.957645
0.958101
0.95645
0.958412
0.923485
0.92946
0.93246
0.935334
0.938504
0.94181
0.944759
0.946732
0.945016
0.946206
0.895653
0.903532
0.907372
0.91115
0.915614
0.920738
0.926182
0.931901
0.933477
0.933422
0.856236
0.866118
0.870625
0.8751
0.880803
0.887942
0.896485
0.908732
0.917753
0.918382
0.800359
0.811866
0.81632
0.820647
0.82686
0.835677
0.848223
0.873024
0.933635
0.973334
0.998197
1.00336
0.998081
0.998856
0.99905
0.999047
0.998842
0.998068
1.00337
0.998178
0.992607
1.00118
0.996331
0.997574
0.998008
0.998018
0.99759
0.996402
1.00127
0.992555
0.993173
1.00044
0.997586
0.998039
0.998351
0.998367
0.998078
0.997703
1.0005
0.993159
0.995535
0.999983
0.998688
0.998707
0.998817
0.998826
0.998724
0.998721
0.999879
0.995626
0.996815
0.999207
0.998754
0.99875
0.998768
0.998771
0.998753
0.998745
0.999093
0.996938
0.99725
0.998687
0.998606
0.998631
0.998617
0.998618
0.998629
0.998578
0.998608
0.997357
0.997507
0.99843
0.998469
0.998517
0.998505
0.998504
0.998511
0.998437
0.998372
0.997581
0.997686
0.998281
0.998349
0.998404
0.998405
0.998404
0.998397
0.998323
0.998249
0.997747
0.99778
0.99818
0.998248
0.998299
0.99831
0.998308
0.998292
0.998227
0.99816
0.997827
0.997808
0.998086
0.998145
0.998192
0.99821
0.998208
0.998186
0.998129
0.998069
0.997839
0.997769
0.997957
0.998023
0.998068
0.998089
0.998088
0.998063
0.998011
0.997955
0.997796
0.99766
0.997793
0.997869
0.997909
0.997932
0.997931
0.997905
0.997855
0.997797
0.997687
0.997457
0.997565
0.997645
0.99769
0.997716
0.997715
0.997687
0.997634
0.99757
0.997494
0.997132
0.997249
0.997324
0.997381
0.997413
0.997413
0.99738
0.997319
0.997243
0.997191
0.996656
0.996812
0.996876
0.996948
0.996986
0.996985
0.996945
0.996871
0.996777
0.996746
0.995967
0.996168
0.996252
0.99634
0.996387
0.996387
0.996336
0.996242
0.996123
0.996108
0.995
0.995238
0.995385
0.995491
0.995553
0.995556
0.995491
0.995369
0.995213
0.995216
0.99367
0.993956
0.994176
0.994317
0.994406
0.994414
0.994334
0.994172
0.993966
0.993998
0.991831
0.992238
0.992518
0.992717
0.992846
0.992867
0.99277
0.992559
0.992286
0.992367
0.989324
0.989931
0.990285
0.990565
0.990751
0.990798
0.990685
0.990415
0.990055
0.990218
0.985951
0.986795
0.987298
0.987685
0.987962
0.98806
0.987943
0.987607
0.987131
0.987431
0.98144
0.982601
0.983318
0.983861
0.984279
0.984475
0.984384
0.983983
0.983355
0.983869
0.975402
0.977038
0.97802
0.9788
0.979444
0.979818
0.979814
0.979369
0.978539
0.979371
0.967286
0.969615
0.970956
0.972087
0.973086
0.973779
0.973987
0.97357
0.972467
0.973731
0.956339
0.959633
0.961468
0.963106
0.964654
0.965897
0.966555
0.966342
0.964874
0.966603
0.941447
0.946032
0.948534
0.95088
0.953252
0.955409
0.956958
0.957388
0.95555
0.957574
0.92094
0.927172
0.93053
0.933802
0.937333
0.94091
0.944069
0.94609
0.944071
0.945269
0.892359
0.90054
0.904876
0.909216
0.914218
0.91979
0.925612
0.931476
0.932761
0.932472
0.852224
0.862433
0.867608
0.872854
0.879333
0.887204
0.896444
0.909357
0.91782
0.917346
0.796065
0.807884
0.813189
0.818518
0.825778
0.835675
0.849275
0.875204
0.935185
0.972567
1.0029
1.0082
1.00335
1.00423
1.00441
1.00441
1.00424
1.00337
1.00823
1.00288
0.996834
1.00544
1.00118
1.00253
1.00292
1.00293
1.00255
1.00126
1.00556
0.996772
0.996028
1.00309
1.00042
1.00099
1.00127
1.00128
1.00101
1.0005
1.0031
0.995997
0.997416
1.00155
0.999919
0.999973
1.00006
1.00006
0.999949
0.999884
1.0013
0.997516
0.997916
1.00004
0.999144
0.999101
0.999102
0.999096
0.999077
0.999096
0.999874
0.99803
0.997838
0.999083
0.998648
0.998594
0.998562
0.998559
0.998581
0.998609
0.999038
0.997918
0.997764
0.998684
0.998408
0.998363
0.998327
0.998324
0.998353
0.998372
0.998614
0.997857
0.997842
0.998411
0.998272
0.998247
0.998221
0.998219
0.99824
0.998248
0.998387
0.997877
0.997907
0.998232
0.998177
0.998165
0.998154
0.998153
0.99816
0.998158
0.998234
0.99788
0.997808
0.998149
0.998083
0.998084
0.998084
0.998083
0.998078
0.998069
0.998103
0.997848
0.997715
0.997942
0.997961
0.997977
0.997987
0.997986
0.997974
0.997956
0.997962
0.997776
0.997632
0.997694
0.997804
0.997828
0.997845
0.997845
0.997828
0.997799
0.997781
0.997645
0.997423
0.997476
0.997579
0.997614
0.997638
0.997638
0.997615
0.997572
0.997529
0.997431
0.997086
0.997218
0.997256
0.997307
0.997337
0.997336
0.997304
0.997245
0.997176
0.997104
0.996566
0.996855
0.996803
0.996871
0.996907
0.996903
0.996859
0.99678
0.99668
0.996623
0.995803
0.996153
0.996154
0.996247
0.996295
0.99629
0.996232
0.996126
0.995986
0.995936
0.994813
0.995036
0.995243
0.995367
0.995436
0.995435
0.99536
0.995215
0.995025
0.994985
0.993474
0.993643
0.993987
0.994152
0.994252
0.994258
0.994163
0.99397
0.993714
0.993688
0.991569
0.991936
0.992277
0.992504
0.992648
0.992666
0.992548
0.992295
0.99195
0.991947
0.988954
0.989623
0.989971
0.990288
0.990496
0.990538
0.990397
0.99007
0.989609
0.989656
0.985433
0.986312
0.986869
0.987319
0.987628
0.987724
0.987574
0.987162
0.986548
0.986693
0.980737
0.981875
0.982736
0.983371
0.983842
0.984044
0.983916
0.983418
0.982605
0.982913
0.97447
0.976103
0.977243
0.978148
0.978874
0.979269
0.979232
0.978667
0.977591
0.978158
0.966055
0.968401
0.969916
0.971223
0.972348
0.973087
0.973277
0.97272
0.971297
0.972228
0.954696
0.958011
0.96006
0.961952
0.963693
0.965033
0.965712
0.965356
0.963475
0.964794
0.939238
0.943833
0.946621
0.949327
0.951997
0.954339
0.955986
0.956307
0.953953
0.955471
0.91798
0.924193
0.927946
0.931726
0.935711
0.939614
0.943007
0.94502
0.942297
0.942851
0.888468
0.89658
0.901466
0.906515
0.912185
0.918311
0.924612
0.930714
0.931055
0.929395
0.847371
0.857427
0.863354
0.869565
0.876985
0.885741
0.895812
0.909379
0.916523
0.913469
0.790638
0.802176
0.808489
0.815084
0.82361
0.834832
0.849741
0.87736
0.934892
0.967634
0.998171
1.0029
0.998205
0.998933
0.999073
0.999069
0.99892
0.998186
1.00289
0.998174
0.99075
0.996841
0.992608
0.993858
0.994127
0.994119
0.99383
0.992567
0.996778
0.990741
0.991769
0.996077
0.993168
0.993915
0.994099
0.994094
0.993899
0.993157
0.995998
0.991781
0.994457
0.997562
0.995569
0.995823
0.995873
0.995882
0.995845
0.995616
0.997512
0.994568
0.99582
0.998036
0.996878
0.997013
0.997021
0.997032
0.99704
0.996929
0.998026
0.995914
0.996394
0.997879
0.997314
0.997443
0.997455
0.997464
0.997468
0.99735
0.997914
0.996461
0.996832
0.997832
0.997555
0.997674
0.997699
0.997704
0.997692
0.997573
0.997853
0.996909
0.997211
0.997873
0.997728
0.997838
0.997876
0.997879
0.997849
0.99774
0.997873
0.997278
0.997392
0.997889
0.997813
0.997915
0.997958
0.99796
0.997918
0.997822
0.997875
0.997492
0.99752
0.997842
0.997831
0.997922
0.997961
0.99796
0.997919
0.997833
0.997842
0.997581
0.997634
0.997728
0.997795
0.997869
0.997901
0.997902
0.997864
0.997785
0.997768
0.997582
0.997558
0.997586
0.997691
0.997748
0.997781
0.997782
0.997745
0.99767
0.997634
0.997495
0.997331
0.997389
0.997487
0.997546
0.997584
0.997584
0.997546
0.997472
0.997415
0.997306
0.99693
0.997104
0.99716
0.99724
0.997285
0.997285
0.997242
0.997163
0.997081
0.99699
0.996332
0.996682
0.996689
0.996797
0.99685
0.996848
0.996797
0.996702
0.99659
0.996507
0.995676
0.995956
0.996028
0.99616
0.996223
0.996222
0.996161
0.996042
0.995889
0.995802
0.994775
0.994883
0.995108
0.99526
0.995343
0.995346
0.995271
0.995119
0.994913
0.994815
0.993349
0.993494
0.993822
0.994014
0.994133
0.994145
0.99405
0.993855
0.993578
0.993465
0.991283
0.991667
0.992042
0.992318
0.992491
0.992521
0.992402
0.992153
0.991779
0.991657
0.988508
0.989199
0.989636
0.990035
0.990287
0.99035
0.990212
0.989898
0.989398
0.989276
0.984977
0.985761
0.986418
0.986984
0.987358
0.987484
0.987347
0.986958
0.986296
0.986197
0.980229
0.981152
0.982141
0.982934
0.983497
0.983744
0.983643
0.983188
0.982309
0.982272
0.973714
0.975112
0.976448
0.977579
0.978436
0.978903
0.978914
0.978423
0.977255
0.977332
0.96497
0.967042
0.968838
0.970481
0.971798
0.97265
0.972923
0.972485
0.970926
0.971171
0.953197
0.956156
0.958616
0.960982
0.963
0.964508
0.965322
0.965162
0.963077
0.963464
0.937196
0.941326
0.944719
0.948071
0.951125
0.953708
0.955564
0.956217
0.953567
0.953842
0.915237
0.920862
0.925479
0.930118
0.934622
0.938863
0.942551
0.945088
0.942092
0.941059
0.884895
0.892291
0.898355
0.904524
0.910888
0.917503
0.924259
0.931174
0.931084
0.927257
0.842987
0.852206
0.859676
0.867302
0.875623
0.885044
0.895798
0.909807
0.918888
0.912186
0.78585
0.796471
0.804695
0.813035
0.822722
0.834859
0.850958
0.877862
0.934889
0.974425
0.708606
0.71938
0.726688
0.733772
0.742521
0.753962
0.769433
0.786821
0.842627
0.901098
0.612783
0.621669
0.62567
0.628842
0.633791
0.641812
0.655206
0.672606
0.713406
0.799646
0.500269
0.505025
0.503322
0.500174
0.498705
0.50064
0.507947
0.521655
0.544843
0.595171
0.379549
0.378789
0.370436
0.360292
0.351463
0.345499
0.343329
0.345321
0.350979
0.364498
0.263321
0.257604
0.244374
0.229739
0.216497
0.205573
0.197195
0.191219
0.187272
0.186525
0.164676
0.156404
0.142244
0.127749
0.114862
0.103977
0.0949384
0.0873997
0.0810934
0.0764225
0.0917502
0.0838555
0.072299
0.0613001
0.0519412
0.0442295
0.0378477
0.0324353
0.0277757
0.0240848
0.0451849
0.0394339
0.0319435
0.0253116
0.0199785
0.0157841
0.0124336
0.00968307
0.00739255
0.00569726
0.0195922
0.0162568
0.0123088
0.00905061
0.0065904
0.0047636
0.00338724
0.00231986
0.00150362
0.00100245
0.00749469
0.00591029
0.00418221
0.00284685
0.00190261
0.00124716
0.000789707
0.000463512
0.000246873
0.00015795
0.712881
0.724614
0.729667
0.734659
0.741944
0.752149
0.766353
0.780702
0.84086
0.897907
0.614626
0.624465
0.625847
0.626497
0.629465
0.635493
0.646943
0.661027
0.699442
0.792054
0.497601
0.503197
0.49867
0.492672
0.488716
0.488012
0.4924
0.502523
0.520312
0.569888
0.371267
0.371113
0.360238
0.34749
0.336336
0.327819
0.322527
0.320545
0.320577
0.328352
0.250671
0.245389
0.230791
0.214957
0.200678
0.188557
0.178616
0.170488
0.163518
0.15924
0.151225
0.143465
0.129409
0.115161
0.102558
0.0918261
0.0827098
0.0747109
0.0675434
0.0618869
0.0809039
0.0736116
0.0630303
0.0530608
0.0446116
0.0376417
0.0317792
0.0266289
0.0221051
0.0186365
0.0381678
0.0330412
0.0266364
0.0210289
0.0165297
0.0129931
0.0101085
0.00767268
0.00564658
0.00432993
0.0158559
0.0130029
0.009819
0.0072221
0.00526148
0.00380311
0.00267895
0.00177633
0.00112534
0.000800057
0.00582682
0.00452419
0.00319665
0.00218341
0.00146579
0.000964062
0.000607805
0.000340981
0.000183563
0.000136266
0.717948
0.730098
0.733876
0.737271
0.742898
0.751325
0.763267
0.774195
0.834232
0.894891
0.616805
0.627221
0.627102
0.625826
0.626713
0.630416
0.638854
0.649855
0.682929
0.777502
0.494057
0.500321
0.4943
0.48629
0.480022
0.476508
0.477294
0.482929
0.494457
0.537574
0.3604
0.360891
0.349027
0.33487
0.32195
0.311145
0.302827
0.296859
0.2915
0.293084
0.234251
0.229613
0.215378
0.199646
0.185079
0.172236
0.161114
0.151324
0.142188
0.135541
0.134213
0.127318
0.114737
0.101854
0.090226
0.0800969
0.0712727
0.0633595
0.056173
0.0505237
0.06759
0.0613451
0.0526129
0.0443621
0.0372468
0.031273
0.0261537
0.0216284
0.0176678