/*--------------------------------*- C++ -*----------------------------------*\
| =========                 |                                                 |
| \\      /  F ield         | OpenFOAM: The Open Source CFD Toolbox           |
|  \\    /   O peration     | Version:  2112                                  |
|   \\  /    A nd           | Website:  www.openfoam.com                      |
|    \\/     M anipulation  |                                                 |
\*---------------------------------------------------------------------------*/
FoamFile
{
    version     2.0;
    format      ascii;
    arch        "LSB;label=32;scalar=64";
    class       volScalarField;
    location    "1";
    object      T;
}
// * * * * * * * * * * * * * * * * * * * * * * * * * * * * * * * * * * * * * //

dimensions      [0 0 0 1 0 0 0];

internalField   nonuniform List<scalar> 
1000
(
2.99925e-195
4.20467e-195
8.78342e-195
2.30355e-194
6.54833e-194
1.90487e-193
5.57461e-193
1.6337e-192
4.78863e-192
1.40343e-191
4.11217e-191
1.20461e-190
3.52786e-190
1.03292e-189
3.02349e-189
8.84791e-189
2.58857e-188
7.57124e-188
2.21392e-187
6.47205e-187
1.89151e-186
5.52666e-186
1.61436e-185
4.71438e-185
1.37636e-184
4.01722e-184
1.1722e-183
3.4195e-183
9.97253e-183
2.90758e-182
8.47499e-182
2.46961e-181
7.19448e-181
2.09533e-180
6.10076e-180
1.77581e-179
5.16759e-179
1.50335e-178
4.37229e-178
1.27127e-177
3.69524e-177
1.07381e-176
3.11951e-176
9.05989e-176
2.63048e-175
7.63525e-175
2.21558e-174
6.42724e-174
1.86396e-173
5.40408e-173
1.56632e-172
4.53849e-172
1.31467e-171
3.80707e-171
1.10214e-170
3.18973e-170
9.22873e-170
2.66931e-169
7.71837e-169
2.23111e-168
6.4474e-168
1.86259e-167
5.37916e-167
1.55303e-166
4.48241e-166
1.29333e-165
3.73054e-165
1.07572e-164
3.10091e-164
8.93602e-164
2.57432e-163
7.41382e-163
2.13444e-162
6.14311e-162
1.76747e-161
5.08367e-161
1.46171e-160
4.20151e-160
1.20728e-159
3.46792e-159
9.95833e-159
2.85865e-158
8.20338e-158
2.35331e-157
6.74873e-157
1.93472e-156
5.54459e-156
1.58845e-155
4.54916e-155
1.30239e-154
3.72736e-154
1.06638e-153
3.04982e-153
8.7194e-153
2.492e-152
7.11963e-152
2.03336e-151
5.80523e-151
1.6568e-150
4.72681e-150
1.34806e-149
3.84324e-149
1.09529e-148
3.12035e-148
8.88629e-148
2.52976e-147
7.19914e-147
2.04796e-146
5.82375e-146
1.65548e-145
4.70416e-145
1.33622e-144
3.79414e-144
1.07692e-143
3.05556e-143
8.66627e-143
2.45702e-142
6.96334e-142
1.97269e-141
5.58643e-141
1.58139e-140
4.47483e-140
1.26574e-139
3.57881e-139
1.01149e-138
2.85769e-138
8.07037e-138
2.27823e-137
6.42878e-137
1.81336e-136
5.11283e-136
1.441e-135
4.05962e-135
1.14322e-134
3.21807e-134
9.05484e-134
2.54674e-133
7.15989e-133
2.01208e-132
5.65198e-132
1.58698e-131
4.45406e-131
1.24956e-130
3.50403e-130
9.82181e-130
2.75186e-129
7.70677e-129
2.15738e-128
6.03657e-128
1.68835e-127
4.71996e-127
1.31893e-126
3.68392e-126
1.02849e-125
2.87009e-125
8.00558e-125
2.23198e-124
6.21996e-124
1.73254e-123
4.82369e-123
1.34237e-122
3.73387e-122
1.03811e-121
2.88482e-121
8.01289e-121
2.2246e-120
6.17312e-120
1.71217e-119
4.74657e-119
1.31522e-118
3.64256e-118
1.00832e-117
2.78982e-117
7.71501e-117
2.13245e-116
5.8912e-116
1.6267e-115
4.48944e-115
1.23838e-114
3.41423e-114
9.4082e-114
2.59117e-113
7.13275e-113
1.96242e-112
5.3963e-112
1.4831e-111
4.07394e-111
1.11847e-110
3.06904e-110
8.41674e-110
2.30701e-109
6.31999e-109
1.73039e-108
4.73515e-108
1.29503e-107
3.53985e-107
9.67041e-107
2.64034e-106
7.20489e-106
1.96493e-105
5.35571e-105
1.45894e-104
3.97195e-104
1.08073e-103
2.93883e-103
7.98687e-103
2.16931e-102
5.88851e-102
1.59746e-101
4.33102e-101
1.17351e-100
3.17776e-100
8.59977e-100
2.32586e-99
6.28654e-99
1.69812e-98
4.58407e-98
1.23669e-97
3.33421e-97
8.98355e-97
2.41893e-96
6.50906e-96
1.75037e-95
4.7039e-95
1.26328e-94
3.39043e-94
9.09325e-94
2.43721e-93
6.5279e-93
1.74727e-92
4.67358e-92
1.24923e-91
3.33682e-91
8.90683e-91
2.3758e-90
6.33272e-90
1.6868e-89
4.48981e-89
1.19421e-88
3.1741e-88
8.43033e-88
2.23744e-87
5.93391e-87
1.57256e-86
4.1644e-86
1.10197e-85
2.91382e-85
7.69885e-85
2.03262e-84
5.36234e-84
1.41357e-83
3.72341e-83
9.79996e-83
2.57731e-82
6.77272e-82
1.77833e-81
4.66567e-81
1.22311e-80
3.20376e-80
8.38493e-80
2.19271e-79
5.72929e-79
1.49575e-78
3.90166e-78
1.01689e-77
2.64804e-77
6.88974e-77
1.79104e-76
4.6519e-76
1.20718e-75
3.12992e-75
8.10785e-75
2.09841e-74
5.42602e-74
1.40178e-73
3.61808e-73
9.32991e-73
2.40366e-72
6.18677e-72
1.59091e-71
4.0871e-71
1.04899e-70
2.68971e-70
6.89004e-70
1.76325e-69
4.50793e-69
1.15136e-68
2.93773e-68
7.48816e-68
1.90677e-67
4.85042e-67
1.23257e-66
3.12893e-66
7.93462e-66
2.01001e-65
5.08641e-65
1.28576e-64
3.24669e-64
8.18937e-64
2.06341e-63
5.19327e-63
1.30561e-62
3.2787e-62
8.22431e-62
2.06064e-61
5.15713e-61
1.28917e-60
3.21891e-60
8.0278e-60
1.99972e-59
4.97536e-59
1.23639e-58
3.06875e-58
7.60739e-58
1.88354e-57
4.6577e-57
1.15034e-56
2.83745e-56
6.99001e-56
1.71976e-55
4.22568e-55
1.03694e-54
2.54122e-54
6.21941e-54
1.52011e-53
3.71031e-53
9.04386e-53
2.2014e-52
5.35104e-52
1.29888e-51
3.14837e-51
7.62048e-51
1.84184e-50
4.4452e-50
1.07126e-49
2.57781e-49
6.19386e-49
1.48599e-48
3.55967e-48
8.51405e-48
2.03324e-47
4.84801e-47
1.15412e-46
2.74313e-46
6.50941e-46
1.54217e-45
3.64761e-45
8.61324e-45
2.03048e-44
4.77854e-44
1.12267e-43
2.63306e-43
6.16475e-43
1.44081e-42
3.36145e-42
7.82831e-42
1.8198e-41
4.22266e-41
9.78016e-41
2.26097e-40
5.21707e-40
1.20152e-39
2.76185e-39
6.33613e-39
1.45076e-38
3.31516e-38
7.56037e-38
1.72068e-37
3.90813e-37
8.85806e-37
2.00354e-36
4.5221e-36
1.01848e-35
2.28891e-35
5.13279e-35
1.14847e-34
2.56399e-34
5.71125e-34
1.26927e-33
2.81434e-33
6.22563e-33
1.37393e-32
3.02489e-32
6.64363e-32
1.45559e-31
3.18129e-31
6.93553e-31
1.5082e-30
3.27135e-30
7.07737e-30
1.52714e-29
3.28653e-29
7.05395e-29
1.5099e-28
3.22311e-28
6.86112e-28
1.45645e-27
3.08291e-27
6.50694e-27
1.36939e-26
2.87342e-26
6.0114e-26
1.25383e-25
2.60722e-25
5.4047e-25
1.11688e-24
2.30071e-24
4.72416e-24
9.66889e-24
1.97242e-23
4.0103e-23
8.12623e-23
1.64104e-22
3.30254e-22
6.62303e-22
1.32351e-21
2.63536e-21
5.22846e-21
1.0335e-20
2.03531e-20
3.99313e-20
7.80439e-20
1.51944e-19
2.94667e-19
5.69191e-19
1.09507e-18
2.09828e-18
4.00403e-18
7.60897e-18
1.43987e-17
2.71313e-17
5.0903e-17
9.50866e-17
1.76838e-16
3.27408e-16
6.03444e-16
1.10712e-15
2.02182e-15
3.67498e-15
6.64827e-15
1.19696e-14
2.1446e-14
3.82371e-14
6.78377e-14
1.19752e-13
2.10328e-13
3.67528e-13
6.3891e-13
1.1049e-12
1.90072e-12
3.2524e-12
5.53551e-12
9.37037e-12
1.57755e-11
2.64127e-11
4.39771e-11
7.28127e-11
1.19876e-10
1.96239e-10
3.1941e-10
5.16897e-10
8.31639e-10
1.33023e-09
2.11525e-09
3.34369e-09
5.25423e-09
8.20723e-09
1.27431e-08
1.9667e-08
3.01699e-08
4.60015e-08
6.9715e-08
1.0501e-07
1.57209e-07
2.33919e-07
3.45931e-07
5.08449e-07
7.42742e-07
1.07836e-06
1.55604e-06
2.23159e-06
3.1809e-06
4.5064e-06
6.34542e-06
8.88072e-06
1.23538e-05
1.70816e-05
2.34769e-05
3.20736e-05
4.35575e-05
5.88029e-05
7.89167e-05
0.000105291
0.000139661
0.00018418
0.000241497
0.000314846
0.000408152
0.000526141
0.000674467
0.00085984
0.00109017
0.00137473
0.00172426
0.00215119
0.00266973
0.00329605
0.0040484
0.00494721
0.0060152
0.00727744
0.00876139
0.0104969
0.0125159
0.014853
0.0175444
0.0206282
0.0241442
0.0281333
0.0326372
0.0376978
0.0433572
0.0496563
0.056635
0.0643312
0.0727802
0.082014
0.092061
0.102945
0.114684
0.127293
0.140777
0.155138
0.17037
0.18646
0.203387
0.221124
0.239638
0.258886
0.278823
0.299393
0.320539
0.342194
0.364292
0.386758
0.409519
0.432497
0.455613
0.478787
0.501942
0.524999
0.547883
0.57052
0.592841
0.614779
0.636273
0.657266
0.677707
0.697548
0.71675
0.735278
0.753103
0.7702
0.786554
0.802151
0.816985
0.831053
0.844359
0.85691
0.868716
0.879792
0.890157
0.89983
0.908835
0.917195
0.924939
0.932093
0.938686
0.944748
0.950307
0.955393
0.960036
0.964263
0.968103
0.971584
0.97473
0.977568
0.980122
0.982413
0.984464
0.986293
0.98792
0.989361
0.990631
0.991743
0.99271
0.993542
0.994247
0.994832
0.9953
0.995656
0.995899
0.996028
0.996039
0.995925
0.995679
0.995289
0.994741
0.994018
0.993102
0.991971
0.9906
0.988961
0.987024
0.984758
0.982127
0.979094
0.975622
0.97167
0.967198
0.962164
0.956527
0.950247
0.943284
0.935601
0.927164
0.917939
0.9079
0.897023
0.885289
0.872685
0.859204
0.844847
0.829617
0.81353
0.796605
0.778869
0.760357
0.741109
0.721173
0.700604
0.679459
0.657804
0.635707
0.61324
0.59048
0.567502
0.544387
0.521212
0.498058
0.475001
0.452117
0.42948
0.407159
0.385221
0.363727
0.342734
0.322293
0.302452
0.28325
0.264722
0.246897
0.2298
0.213446
0.197849
0.183015
0.168947
0.155641
0.14309
0.131284
0.120208
0.109843
0.10017
0.0911653
0.0828043
0.0750606
0.0679062
0.0613128
0.0552509
0.0496913
0.0446045
0.0399611
0.0357325
0.0318904
0.0284075
0.0252574
0.0224145
0.0198547
0.0175547
0.0154926
0.0136479
0.012001
0.0105339
0.00922967
0.00807256
0.00704809
0.00614288
0.00534464
0.00464212
0.00402504
0.00348407
0.00301073
0.00259734
0.002237
0.00192347
0.00165118
0.00141514
0.00121088
0.00103445
0.000882329
0.000751391
0.000638885
0.000542382
0.000459747
0.000389107
0.000328823
0.00027746
0.000233771
0.00019667
0.000165213
0.000138586
0.000116082
9.7093e-05
8.10944e-05
6.76362e-05
5.63323e-05
4.68524e-05
3.89139e-05
3.22762e-05
2.67343e-05
2.2114e-05
1.82677e-05
1.50703e-05
1.24162e-05
1.02161e-05
8.3949e-06
6.88947e-06
5.64677e-06
4.62233e-06
3.77898e-06
3.08563e-06
2.51637e-06
2.04959e-06
1.66736e-06
1.35476e-06
1.09944e-06
8.91169e-07
7.21494e-07
5.83435e-07
4.71241e-07
3.8018e-07
3.06361e-07
2.46592e-07
1.98258e-07
1.59218e-07
1.27722e-07
1.02343e-07
8.19157e-08
6.54939e-08
5.23072e-08
4.17303e-08
3.32564e-08
2.6475e-08
2.1054e-08
1.67255e-08
1.3273e-08
1.05222e-08
8.33297e-09
6.59247e-09
5.2102e-09
4.11361e-09
3.24457e-09
2.55657e-09
2.01248e-09
1.58262e-09
1.24337e-09
9.75894e-10
7.65223e-10
5.99457e-10
4.69156e-10
3.66831e-10
2.86556e-10
2.2364e-10
1.74376e-10
1.3584e-10
1.05723e-10
8.22095e-11
6.38679e-11
4.95742e-11
3.84452e-11
2.97884e-11
2.30606e-11
1.78368e-11
1.37844e-11
1.06435e-11
8.21129e-12
6.3295e-12
4.87486e-12
3.75138e-12
2.88442e-12
2.21598e-12
1.70105e-12
1.30471e-12
9.99907e-13
7.65692e-13
5.85869e-13
4.47921e-13
3.42183e-13
2.61201e-13
1.99228e-13
1.51841e-13
1.15636e-13
8.79961e-14
6.69118e-14
5.08408e-14
3.86007e-14
2.92855e-14
2.22017e-14
1.6819e-14
1.27319e-14
9.63095e-15
7.27997e-15
5.4989e-15
4.1506e-15
3.13066e-15
2.35967e-15
1.7773e-15
1.33772e-15
1.00616e-15
7.56258e-16
5.68031e-16
4.2636e-16
3.19804e-16
2.39717e-16
1.79564e-16
1.34416e-16
1.00552e-16
7.517e-17
5.61581e-17
4.19271e-17
3.12821e-17
2.33246e-17
1.73802e-17
1.29424e-17
9.63165e-18
7.16326e-18
5.32411e-18
3.95468e-18
2.93566e-18
2.17786e-18
1.61469e-18
1.19641e-18
8.85945e-19
6.55648e-19
4.84922e-19
3.58438e-19
2.64787e-19
1.95489e-19
1.44241e-19
1.06366e-19
7.83907e-20
5.77395e-20
4.25041e-20
3.12708e-20
2.29931e-20
1.68971e-20
1.24102e-20
9.10966e-21
6.68316e-21
4.90027e-21
3.59102e-21
2.63013e-21
1.92529e-21
1.40858e-21
1.02998e-21
7.52735e-22
5.49822e-22
4.01394e-22
2.92879e-22
2.13588e-22
1.55681e-22
1.13414e-22
8.25795e-23
6.0097e-23
4.37128e-23
3.17791e-23
2.30916e-23
1.67704e-23
1.21735e-23
8.8322e-24
6.40478e-24
4.64219e-24
3.363e-24
2.43509e-24
1.76235e-24
1.27484e-24
9.21738e-25
6.66116e-25
4.81153e-25
3.47383e-25
2.50684e-25
1.80816e-25
1.3036e-25
9.3939e-26
6.7662e-26
4.87126e-26
3.50539e-26
2.52134e-26
1.8127e-26
1.30264e-26
9.3567e-27
6.71777e-27
4.82094e-27
3.45815e-27
2.47948e-27
1.77699e-27
1.27297e-27
9.11506e-28
6.52395e-28
4.66736e-28
3.33767e-28
2.38577e-28
1.70461e-28
1.21741e-28
8.69087e-29
6.20162e-29
4.42347e-29
3.15383e-29
2.24766e-29
1.60119e-29
1.14018e-29
8.11569e-30
5.77429e-30
4.1067e-30
2.91952e-30
2.07468e-30
1.47373e-30
1.04642e-30
7.42718e-31
5.26947e-31
3.73712e-31
2.64933e-31
1.87743e-31
1.3299e-31
9.41686e-32
6.66537e-32
4.716e-32
3.33546e-32
2.35815e-32
1.66656e-32
1.17735e-32
8.31427e-33
5.8692e-33
4.14163e-33
2.92146e-33
2.06e-33
1.45202e-33
1.0231e-33
7.20616e-34
5.07376e-34
3.57107e-34
2.51251e-34
1.76709e-34
1.24238e-34
8.73162e-35
6.1345e-35
4.30833e-35
3.02471e-35
2.12278e-35
1.48928e-35
1.04446e-35
7.32246e-36
5.13182e-36
3.5953e-36
2.51796e-36
1.76284e-36
1.23376e-36
8.63174e-37
6.03697e-37
4.22078e-37
2.94999e-37
2.06112e-37
1.43959e-37
1.00515e-37
7.01586e-38
4.89538e-38
3.41467e-38
2.38105e-38
1.65977e-38
1.1566e-38
8.05714e-39
5.61096e-39
3.90621e-39
2.71856e-39
1.89148e-39
1.31585e-39
9.15859e-40
6.39595e-40
4.53793e-40
3.4439e-40
)
;

boundaryField
{
    sides
    {
        type            zeroGradient;
    }
    empty
    {
        type            empty;
    }
}


// ************************************************************************* //
