/*--------------------------------*- C++ -*----------------------------------*\
| =========                 |                                                 |
| \\      /  F ield         | OpenFOAM: The Open Source CFD Toolbox           |
|  \\    /   O peration     | Version:  2112                                  |
|   \\  /    A nd           | Website:  www.openfoam.com                      |
|    \\/     M anipulation  |                                                 |
\*---------------------------------------------------------------------------*/
FoamFile
{
    version     2.0;
    format      ascii;
    arch        "LSB;label=32;scalar=64";
    class       volScalarField;
    location    "40";
    object      T;
}
// * * * * * * * * * * * * * * * * * * * * * * * * * * * * * * * * * * * * * //

dimensions      [0 0 0 1 0 0 0];

internalField   nonuniform List<scalar> 
10000
(
8.42961e-15
7.44899e-15
6.38164e-15
5.49703e-15
4.78757e-15
4.29305e-15
4.03283e-15
3.99929e-15
4.21613e-15
4.55245e-15
5.04824e-14
4.43229e-14
3.7854e-14
3.24494e-14
2.81618e-14
2.52106e-14
2.36893e-14
2.35598e-14
2.4893e-14
2.70369e-14
1.76456e-13
1.53458e-13
1.29832e-13
1.10214e-13
9.50427e-14
8.48323e-14
7.97678e-14
7.98174e-14
8.49872e-14
9.30848e-14
5.57577e-13
4.81948e-13
4.03518e-13
3.38796e-13
2.8992e-13
2.57789e-13
2.42612e-13
2.443e-13
2.62233e-13
2.88669e-13
1.69691e-12
1.46185e-12
1.21316e-12
1.0084e-12
8.5636e-13
7.58296e-13
7.13889e-13
7.22265e-13
7.79811e-13
8.6039e-13
5.06473e-12
4.35452e-12
3.5891e-12
2.95835e-12
2.4949e-12
2.19995e-12
2.0698e-12
2.09974e-12
2.27445e-12
2.51069e-12
1.49146e-11
1.28074e-11
1.05047e-11
8.60154e-12
7.21043e-12
6.33116e-12
5.94602e-12
6.03524e-12
6.54342e-12
7.21777e-12
4.34337e-11
3.72713e-11
3.04692e-11
2.48242e-11
2.07035e-11
1.81008e-11
1.69495e-11
1.71775e-11
1.86038e-11
2.0488e-11
1.25263e-10
1.07457e-10
8.7653e-11
7.11483e-11
5.90809e-11
5.14262e-11
4.79604e-11
4.84438e-11
5.23226e-11
5.74899e-11
3.58128e-10
3.07212e-10
2.50248e-10
2.02567e-10
1.67578e-10
1.452e-10
1.34733e-10
1.35429e-10
1.45671e-10
1.59595e-10
1.01575e-09
8.71489e-10
7.0935e-10
5.73008e-10
4.72447e-10
4.07408e-10
3.75805e-10
3.75402e-10
4.01642e-10
4.38513e-10
2.85943e-09
2.45418e-09
1.99697e-09
1.6106e-09
1.3239e-09
1.13592e-09
1.04076e-09
1.03195e-09
1.09693e-09
1.19286e-09
7.99223e-09
6.86285e-09
5.58434e-09
4.4984e-09
3.68718e-09
3.14702e-09
2.86175e-09
2.81329e-09
2.96752e-09
3.21258e-09
2.21847e-08
1.90605e-08
1.55128e-08
1.24851e-08
1.02058e-08
8.66345e-09
7.81313e-09
7.60575e-09
7.95226e-09
8.56413e-09
6.11632e-08
5.25842e-08
4.28126e-08
3.44366e-08
2.80771e-08
2.37005e-08
2.11817e-08
2.03915e-08
2.11068e-08
2.25943e-08
1.67484e-07
1.44095e-07
1.17393e-07
9.44041e-08
7.67818e-08
6.44413e-08
5.70286e-08
5.42168e-08
5.54766e-08
5.89753e-08
4.5546e-07
3.92158e-07
3.19846e-07
2.57256e-07
2.08764e-07
1.74176e-07
1.52504e-07
1.42963e-07
1.44358e-07
1.52242e-07
1.22955e-06
1.05986e-06
8.65885e-07
6.96913e-07
5.64486e-07
4.6806e-07
4.05114e-07
3.73897e-07
3.71785e-07
3.88461e-07
3.29327e-06
2.84365e-06
2.32846e-06
1.87678e-06
1.51822e-06
1.25103e-06
1.0694e-06
9.69929e-07
9.47465e-07
9.78955e-07
8.74667e-06
7.56906e-06
6.21674e-06
5.0234e-06
4.06193e-06
3.32714e-06
2.80681e-06
2.49622e-06
2.3884e-06
2.43518e-06
2.30101e-05
1.99644e-05
1.6467e-05
1.33584e-05
1.08089e-05
8.80689e-06
7.32808e-06
6.37549e-06
5.9542e-06
5.97414e-06
5.98446e-05
5.21081e-05
4.32304e-05
3.52692e-05
2.86039e-05
2.32064e-05
1.90417e-05
1.61701e-05
1.46781e-05
1.44405e-05
0.000153513
0.000134333
0.000112321
9.23651e-05
7.52533e-05
6.08898e-05
4.92886e-05
4.07754e-05
3.57925e-05
3.43694e-05
0.000387251
0.000341099
0.000288163
0.000239552
0.000196642
0.000159091
0.000127227
0.000102401
8.64321e-05
8.05027e-05
0.000956629
0.000849904
0.000727642
0.000613656
0.000509419
0.000413629
0.000327769
0.00025672
0.000207148
0.000185552
0.00230179
0.00206782
0.00180037
0.00154653
0.00130418
0.00106817
0.000843063
0.000644536
0.000494861
0.000421387
0.00535937
0.00488211
0.00433891
0.0038126
0.00328284
0.00272976
0.00216289
0.00162636
0.0011873
0.000946231
0.0119834
0.0111021
0.010108
0.00912233
0.00806243
0.00685841
0.00551559
0.00413809
0.00290322
0.0021292
0.0255147
0.0241059
0.0225499
0.0209675
0.0191091
0.0167608
0.0138636
0.0105976
0.00735655
0.00493243
0.0512772
0.0495047
0.0476516
0.0457141
0.0430883
0.0392371
0.0338827
0.0271641
0.0201511
0.013487
7.56482e-15
6.71155e-15
5.77199e-15
4.98652e-15
4.35166e-15
3.90781e-15
3.67004e-15
3.6342e-15
3.8178e-15
4.10117e-15
4.50072e-14
3.97911e-14
3.41521e-14
2.93679e-14
2.5543e-14
2.29009e-14
2.15149e-14
2.13667e-14
2.24755e-14
2.42082e-14
1.55821e-13
1.36829e-13
1.16544e-13
9.92733e-14
8.58061e-14
7.66937e-14
7.21305e-14
7.206e-14
7.62641e-14
8.26093e-14
4.89168e-13
4.27578e-13
3.60971e-13
3.04363e-13
2.61141e-13
2.32529e-13
2.18888e-13
2.19866e-13
2.34144e-13
2.54697e-13
1.48328e-12
1.29304e-12
1.08356e-12
9.05521e-13
7.71404e-13
6.84187e-13
6.44028e-13
6.49266e-13
6.94366e-13
7.56624e-13
4.41794e-12
3.84526e-12
3.20478e-12
2.6588e-12
2.25058e-12
1.98806e-12
1.86936e-12
1.88758e-12
2.02272e-12
2.20418e-12
1.29962e-11
1.12999e-11
9.38096e-12
7.73907e-12
6.51526e-12
5.73158e-12
5.37731e-12
5.42729e-12
5.81595e-12
6.33273e-12
3.78342e-11
3.28755e-11
2.72171e-11
2.2359e-11
1.87372e-11
1.64143e-11
1.53482e-11
1.54554e-11
1.65345e-11
1.79774e-11
1.0912e-10
9.47873e-11
7.83302e-11
6.41485e-11
5.35486e-11
4.6708e-11
4.34854e-11
4.36199e-11
4.65211e-11
5.04738e-11
3.12068e-10
2.71056e-10
2.23743e-10
1.8281e-10
1.52085e-10
1.32066e-10
1.22316e-10
1.22058e-10
1.29615e-10
1.40247e-10
8.85526e-10
7.69232e-10
6.34585e-10
5.1757e-10
4.29274e-10
3.71035e-10
3.41592e-10
3.38717e-10
3.57738e-10
3.85827e-10
2.49435e-09
2.16733e-09
1.7875e-09
1.45589e-09
1.20412e-09
1.03571e-09
9.47162e-10
9.32244e-10
9.78255e-10
1.05105e-09
6.97669e-09
6.06428e-09
5.0012e-09
4.0693e-09
3.35635e-09
2.87255e-09
2.60767e-09
2.54473e-09
2.65053e-09
2.83519e-09
1.9381e-08
1.68545e-08
1.39023e-08
1.13033e-08
9.29842e-09
7.91675e-09
7.12904e-09
6.8903e-09
7.11574e-09
7.57302e-09
5.34809e-08
4.65355e-08
3.83983e-08
3.12051e-08
2.56057e-08
2.16839e-08
1.9356e-08
1.85064e-08
1.89268e-08
2.00266e-08
1.46588e-07
1.27641e-07
1.05392e-07
8.56338e-08
7.01027e-08
5.90347e-08
5.21979e-08
4.9309e-08
4.98706e-08
5.24182e-08
3.99022e-07
3.4776e-07
2.87473e-07
2.33619e-07
1.90862e-07
1.59778e-07
1.39825e-07
1.30342e-07
1.30146e-07
1.35743e-07
1.07848e-06
9.40906e-07
7.79089e-07
6.33651e-07
5.1685e-07
4.30092e-07
3.72225e-07
3.41815e-07
3.36314e-07
3.47617e-07
2.89297e-06
2.52782e-06
2.09783e-06
1.70891e-06
1.39239e-06
1.15198e-06
9.8524e-07
8.89572e-07
8.60487e-07
8.79955e-07
7.69629e-06
6.73954e-06
5.61022e-06
4.58204e-06
3.73197e-06
3.07093e-06
2.59375e-06
2.29807e-06
2.17928e-06
2.2004e-06
2.02848e-05
1.78125e-05
1.48928e-05
1.22109e-05
9.95458e-06
8.15107e-06
6.79532e-06
5.89631e-06
5.46259e-06
5.43185e-06
5.28968e-05
4.66227e-05
3.92143e-05
3.23339e-05
2.64289e-05
2.15558e-05
1.77358e-05
1.5041e-05
1.35571e-05
1.32307e-05
0.000136201
0.000120644
0.000102271
8.50042e-05
6.98136e-05
5.68212e-05
4.61668e-05
3.8192e-05
3.33344e-05
3.17792e-05
0.000345226
0.000307812
0.000263624
0.000221513
0.000183337
0.000149297
0.000119973
9.67112e-05
8.12984e-05
7.52413e-05
0.000858049
0.000771675
0.000669671
0.000570818
0.000477881
0.000390823
0.000311592
0.000244878
0.000197165
0.000175616
0.00208085
0.0018922
0.00166945
0.00144926
0.0012328
0.00101773
0.000809304
0.000622162
0.000477689
0.000404588
0.00489313
0.00451167
0.00406129
0.00360563
0.00313236
0.0026273
0.00210057
0.00159217
0.00116505
0.000922867
0.0110748
0.0103844
0.00956976
0.00872318
0.00778013
0.00668091
0.00542957
0.00411699
0.00290265
0.00211123
0.0239236
0.0228733
0.021638
0.0203122
0.0186844
0.0165559
0.0138563
0.0107403
0.00749164
0.00496152
0.0488781
0.0477427
0.0464218
0.0449334
0.0427502
0.0393512
0.0344172
0.0280668
0.0210457
0.0136601
6.70545e-15
5.97435e-15
5.158e-15
4.47121e-15
3.91217e-15
3.51826e-15
3.30393e-15
3.26602e-15
3.42091e-15
3.66073e-15
3.97719e-14
3.53472e-14
3.04796e-14
2.63101e-14
2.29487e-14
2.06061e-14
1.93584e-14
1.91855e-14
2.01049e-14
2.15502e-14
1.364e-13
1.20619e-13
1.03362e-13
8.84538e-14
7.671e-14
6.86861e-14
6.45888e-14
6.43524e-14
6.77336e-14
7.28926e-14
4.23899e-13
3.73629e-13
3.18035e-13
2.69788e-13
2.32428e-13
2.07405e-13
1.95134e-13
1.95249e-13
2.06333e-13
2.22572e-13
1.27463e-12
1.12184e-12
9.49883e-13
7.99943e-13
6.8489e-13
6.08912e-13
5.72601e-13
5.74183e-13
6.08072e-13
6.56022e-13
3.77269e-12
3.31943e-12
2.80022e-12
2.34485e-12
1.99678e-12
1.76851e-12
1.66028e-12
1.66505e-12
1.76361e-12
1.90036e-12
1.10505e-11
9.722e-12
8.1806e-12
6.82153e-12
5.78284e-12
5.10178e-12
4.77604e-12
4.78133e-12
5.05707e-12
5.43998e-12
3.20824e-11
2.82249e-11
2.37104e-11
1.9711e-11
1.66469e-11
1.46278e-11
1.36415e-11
1.36114e-11
1.4357e-11
1.54123e-11
9.23883e-11
8.12874e-11
6.82151e-11
5.65826e-11
4.76318e-11
4.16832e-11
3.86923e-11
3.84306e-11
4.03811e-11
4.32415e-11
2.64039e-10
2.32357e-10
1.94875e-10
1.61373e-10
1.35452e-10
1.18034e-10
1.08981e-10
1.07637e-10
1.12563e-10
1.20183e-10
7.49187e-10
6.59473e-10
5.52932e-10
4.57277e-10
3.82796e-10
3.32105e-10
3.04809e-10
2.99088e-10
3.11025e-10
3.3096e-10
2.11106e-09
1.85891e-09
1.55847e-09
1.28752e-09
1.07506e-09
9.28431e-10
8.46566e-10
8.24544e-10
8.51945e-10
9.03085e-10
5.9086e-09
5.20505e-09
4.36424e-09
3.60253e-09
3.0006e-09
2.57903e-09
2.33496e-09
2.25544e-09
2.31343e-09
2.44169e-09
1.64287e-08
1.44797e-08
1.2144e-08
1.00183e-08
8.32443e-09
7.11949e-09
6.3963e-09
6.12182e-09
6.22761e-09
6.54075e-09
4.53824e-08
4.00215e-08
3.35819e-08
2.76932e-08
2.29586e-08
1.95347e-08
1.74051e-08
1.64888e-08
1.66181e-08
1.73569e-08
1.24548e-07
1.09911e-07
9.22949e-08
7.61053e-08
6.2962e-08
5.32894e-08
4.70563e-08
4.40762e-08
4.39539e-08
4.56175e-08
3.39556e-07
2.99898e-07
2.52117e-07
2.07964e-07
1.7174e-07
1.44574e-07
1.26439e-07
1.16946e-07
1.15221e-07
1.1871e-07
9.19402e-07
8.12917e-07
6.84521e-07
5.65156e-07
4.66074e-07
3.90245e-07
3.37796e-07
3.08064e-07
2.99335e-07
3.05786e-07
2.47155e-06
2.18866e-06
1.84721e-06
1.52766e-06
1.25884e-06
1.04856e-06
8.97758e-07
8.05974e-07
7.70675e-07
7.79431e-07
6.59294e-06
5.85028e-06
4.95341e-06
4.1077e-06
3.38518e-06
2.80608e-06
2.3751e-06
2.09532e-06
1.96647e-06
1.96518e-06
1.74374e-05
1.5515e-05
1.31945e-05
1.09868e-05
9.06651e-06
7.48438e-06
6.26048e-06
5.41714e-06
4.97389e-06
4.89922e-06
4.56716e-05
4.07831e-05
3.48899e-05
2.92244e-05
2.41901e-05
1.99098e-05
1.64596e-05
1.39435e-05
1.24769e-05
1.20723e-05
0.00011824
0.000106092
9.14787e-05
7.72561e-05
6.42889e-05
5.28545e-05
4.32171e-05
3.57866e-05
3.10655e-05
2.93922e-05
0.000301777
0.000272512
0.0002374
0.000202721
0.000170097
0.00014007
0.000113479
9.1782e-05
7.68939e-05
7.06894e-05
0.000756642
0.000689033
0.000608187
0.000526908
0.000447438
0.000370464
0.000298368
0.000235908
0.000189733
0.000167967
0.00185511
0.00170773
0.00153224
0.00135196
0.00116702
0.000976497
0.00078609
0.000609841
0.000468918
0.000394767
0.00442154
0.004126
0.00377589
0.0034066
0.00300391
0.00255631
0.00207337
0.00159122
0.00116968
0.000920416
0.0101718
0.00964968
0.00903561
0.00836576
0.00757289
0.00660211
0.00545297
0.00420037
0.00298618
0.00215694
0.0223977
0.0216585
0.0207989
0.0198132
0.018488
0.0166329
0.0141646
0.0111834
0.00790245
0.00520139
0.0467671
0.0461808
0.0455165
0.0446409
0.0430341
0.0401929
0.0357717
0.0297425
0.0227094
0.0147477
6.12666e-15
5.47406e-15
4.74092e-15
4.12245e-15
3.61613e-15
3.25647e-15
3.05782e-15
3.01783e-15
3.15349e-15
3.36704e-15
3.61784e-14
3.22493e-14
2.79071e-14
2.41704e-14
2.11393e-14
1.90088e-14
1.7856e-14
1.76648e-14
1.84599e-14
1.97402e-14
1.22974e-13
1.09097e-13
9.38897e-14
8.06698e-14
7.01807e-14
6.2946e-14
5.91756e-14
5.88256e-14
6.16943e-14
6.62138e-14
3.78426e-13
3.34864e-13
2.86629e-13
2.44403e-13
2.11379e-13
1.88997e-13
1.77717e-13
1.77255e-13
1.86398e-13
2.00321e-13
1.12801e-12
9.97656e-13
8.50753e-13
7.21179e-13
6.20429e-13
5.52855e-13
5.19374e-13
5.18513e-13
5.45552e-13
5.85698e-13
3.31525e-12
2.93414e-12
2.49666e-12
2.10752e-12
1.80508e-12
1.6028e-12
1.50244e-12
1.49819e-12
1.57405e-12
1.68589e-12
9.65957e-12
8.55647e-12
7.2724e-12
6.1213e-12
5.22405e-12
4.62178e-12
4.31801e-12
4.2932e-12
4.49778e-12
4.8043e-12
2.79432e-11
2.47713e-11
2.10426e-11
1.76773e-11
1.50411e-11
1.32572e-11
1.23339e-11
1.22112e-11
1.2744e-11
1.35734e-11
8.02886e-11
7.12247e-11
6.04925e-11
5.07477e-11
4.30662e-11
3.78117e-11
3.50068e-11
3.4479e-11
3.58174e-11
3.80308e-11
2.29182e-10
2.03437e-10
1.72786e-10
1.44798e-10
1.22582e-10
1.07194e-10
9.87058e-11
9.66379e-11
9.98626e-11
1.05681e-10
6.49988e-10
5.77306e-10
4.90386e-10
4.10593e-10
3.46787e-10
3.01991e-10
2.76442e-10
2.68854e-10
2.76202e-10
2.91242e-10
1.8317e-09
1.62777e-09
1.38296e-09
1.15708e-09
9.75037e-10
8.45413e-10
7.68986e-10
7.42417e-10
7.57779e-10
7.95906e-10
5.12919e-09
4.56061e-09
3.87578e-09
3.24073e-09
2.72477e-09
2.35192e-09
2.12476e-09
2.03492e-09
2.06218e-09
2.1566e-09
1.42727e-08
1.26976e-08
1.07951e-08
9.02213e-09
7.56926e-09
6.50311e-09
5.83223e-09
5.53663e-09
5.5662e-09
5.79329e-09
3.94671e-08
3.51327e-08
2.98854e-08
2.49709e-08
2.09068e-08
1.7876e-08
1.59068e-08
1.4955e-08
1.49014e-08
1.54264e-08
1.08449e-07
9.6606e-08
8.22449e-08
6.87235e-08
5.74315e-08
4.88657e-08
4.31197e-08
4.01087e-08
3.95656e-08
4.07117e-08
2.96106e-07
2.63997e-07
2.25019e-07
1.88114e-07
1.56961e-07
1.32893e-07
1.16221e-07
1.06834e-07
1.04192e-07
1.06468e-07
8.03216e-07
7.16929e-07
6.12107e-07
5.12253e-07
4.26952e-07
3.59732e-07
3.11622e-07
2.82713e-07
2.72145e-07
2.7586e-07
2.16409e-06
1.93451e-06
1.65556e-06
1.38805e-06
1.1564e-06
9.69841e-07
8.31749e-07
7.43643e-07
7.05134e-07
7.0802e-07
5.78886e-06
5.185e-06
4.45185e-06
3.74341e-06
3.12022e-06
2.60599e-06
2.21171e-06
1.94561e-06
1.81275e-06
1.7997e-06
1.53636e-05
1.37971e-05
1.18992e-05
1.00491e-05
8.39117e-06
6.98477e-06
5.86529e-06
5.06795e-06
4.62554e-06
4.52949e-06
4.04129e-05
3.64198e-05
3.15987e-05
2.68504e-05
2.25001e-05
1.869e-05
1.55318e-05
1.316e-05
1.17225e-05
1.12847e-05
0.000105189
9.52398e-05
8.32902e-05
7.13746e-05
6.0161e-05
4.99659e-05
4.11288e-05
3.41254e-05
2.95353e-05
2.78227e-05
0.000270282
0.000246251
0.000217583
0.000188566
0.000160344
0.000133522
0.000109072
8.85711e-05
7.41056e-05
6.78703e-05
0.000683375
0.000627757
0.000561973
0.000494176
0.000425466
0.000356583
0.000290063
0.000230761
0.000185672
0.000163811
0.00169283
0.0015716
0.00142989
0.00128052
0.001121
0.000950298
0.000773958
0.000605559
0.000466703
0.000391555
0.00408528
0.00384362
0.00356559
0.00326386
0.00291868
0.00251789
0.00206923
0.00160547
0.00118556
0.000929485
0.00953761
0.00911973
0.00865072
0.00812037
0.00745092
0.00658567
0.00551727
0.00430623
0.00308341
0.00221925
0.0213609
0.0208108
0.0202243
0.0195079
0.0184311
0.0168009
0.0145161
0.0116288
0.0083043
0.00545697
0.0454526
0.0451928
0.0450037
0.0446088
0.0434661
0.041075
0.0370569
0.0312748
0.0242112
0.0157776
5.81281e-15
5.20214e-15
4.51321e-15
3.93087e-15
3.45322e-15
3.11234e-15
2.92236e-15
2.882e-15
3.00768e-15
3.20705e-15
3.4244e-14
3.05777e-14
2.65109e-14
2.30042e-14
2.0152e-14
1.8137e-14
1.70359e-14
1.68374e-14
1.75697e-14
1.87618e-14
1.15908e-13
1.02963e-13
8.88262e-14
7.65008e-14
6.66831e-14
5.98698e-14
5.62723e-14
5.58637e-14
5.84709e-14
6.26881e-14
3.54791e-13
3.14466e-13
2.69958e-13
2.30867e-13
2.00144e-13
1.79164e-13
1.6841e-13
1.67667e-13
1.7587e-13
1.88721e-13
1.05227e-12
9.32618e-13
7.98147e-13
6.79092e-13
5.85906e-13
5.22808e-13
4.90849e-13
4.88836e-13
5.12666e-13
5.49255e-13
3.0796e-12
2.73252e-12
2.33526e-12
1.9802e-12
1.7019e-12
1.51353e-12
1.41749e-12
1.40902e-12
1.47438e-12
1.57504e-12
8.94358e-12
7.94614e-12
6.7884e-12
5.74426e-12
4.92191e-12
4.36196e-12
4.07054e-12
4.03176e-12
4.20345e-12
4.47586e-12
2.58117e-11
2.29606e-11
1.96178e-11
1.65789e-11
1.41695e-11
1.25124e-11
1.16251e-11
1.14598e-11
1.18941e-11
1.26225e-11
7.4052e-11
6.59415e-11
5.63605e-11
4.75884e-11
4.05807e-11
3.57016e-11
3.30046e-11
3.23546e-11
3.34097e-11
3.53333e-11
2.11196e-10
1.88232e-10
1.6095e-10
1.35806e-10
1.1556e-10
1.01273e-10
9.31139e-11
9.07179e-11
9.31556e-11
9.81649e-11
5.98733e-10
5.34059e-10
4.56841e-10
3.85236e-10
3.2711e-10
2.85518e-10
2.60986e-10
2.52568e-10
2.57798e-10
2.70638e-10
1.68718e-09
1.50603e-09
1.28877e-09
1.08616e-09
9.2033e-10
7.99957e-10
7.26686e-10
6.98158e-10
7.07991e-10
7.40281e-10
4.72566e-09
4.22101e-09
3.6135e-09
3.04394e-09
2.57382e-09
2.22751e-09
2.01012e-09
1.91608e-09
1.92932e-09
2.00862e-09
1.31561e-08
1.17583e-08
1.00706e-08
8.48016e-09
7.1559e-09
6.16547e-09
5.52465e-09
5.22133e-09
5.21658e-09
5.40541e-09
3.64041e-08
3.25555e-08
2.78995e-08
2.34897e-08
1.97837e-08
1.69676e-08
1.50902e-08
1.4129e-08
1.39945e-08
1.44253e-08
1.00116e-07
8.95919e-08
7.68451e-08
6.47074e-08
5.44055e-08
4.6445e-08
4.09763e-08
3.79744e-08
3.72499e-08
3.81711e-08
2.73618e-07
2.45067e-07
2.10462e-07
1.77317e-07
1.4888e-07
1.26507e-07
1.10665e-07
1.01402e-07
9.83814e-08
1.0014e-07
7.43061e-07
6.66313e-07
5.73219e-07
4.83496e-07
4.05585e-07
3.4308e-07
2.9742e-07
2.69126e-07
2.57854e-07
2.60431e-07
2.00482e-06
1.80053e-06
1.55269e-06
1.31223e-06
1.10052e-06
9.26975e-07
7.96029e-07
7.10337e-07
6.70798e-07
6.71344e-07
5.37228e-06
4.8344e-06
4.18279e-06
3.5458e-06
2.97597e-06
2.49733e-06
2.12362e-06
1.86595e-06
1.73259e-06
1.71516e-06
1.42896e-05
1.28925e-05
1.12048e-05
9.54109e-06
8.02438e-06
6.71443e-06
5.65327e-06
4.88324e-06
4.44512e-06
4.34207e-06
3.76914e-05
3.41239e-05
2.98356e-05
2.55662e-05
2.15848e-05
1.80331e-05
1.50375e-05
1.27492e-05
1.13357e-05
1.08901e-05
9.84412e-05
8.95261e-05
7.89058e-05
6.81984e-05
5.79332e-05
4.84202e-05
4.00274e-05
3.32664e-05
2.87637e-05
2.70512e-05
0.000253999
0.000232423
0.000206979
0.000180937
0.000155104
0.000130049
0.000106785
8.69516e-05
7.2743e-05
6.65331e-05
0.000645502
0.00059553
0.000537267
0.000476577
0.000413727
0.000349317
0.000285881
0.000228317
0.000183848
0.000162009
0.00160905
0.00150003
0.00137524
0.00124221
0.00109659
0.000936885
0.000768322
0.000604189
0.000466432
0.000390849
0.00391209
0.00369535
0.00345349
0.0031876
0.00287397
0.00249922
0.00206953
0.00161565
0.00119632
0.00093665
0.00921286
0.00884255
0.00844635
0.00799003
0.00738825
0.0065817
0.00555798
0.00436912
0.00314076
0.00225759
0.0208376
0.0203728
0.0199227
0.0193481
0.0184063
0.0169006
0.0147173
0.0118811
0.00852965
0.00560245
0.0448198
0.0447064
0.0447495
0.0446014
0.0437051
0.0415584
0.0377614
0.0321076
0.0250171
0.016313
5.79595e-15
5.18739e-15
4.5015e-15
3.92135e-15
3.44469e-15
3.10435e-15
2.91453e-15
2.87344e-15
2.99783e-15
3.19622e-15
3.41412e-14
3.04904e-14
2.6441e-14
2.2945e-14
2.00987e-14
1.80872e-14
1.69872e-14
1.67863e-14
1.75113e-14
1.86957e-14
1.15536e-13
1.02701e-13
8.85988e-14
7.62986e-14
6.64995e-14
5.96987e-14
5.61068e-14
5.56956e-14
5.82907e-14
6.24509e-14
3.53717e-13
3.13642e-13
2.69253e-13
2.30256e-13
1.99594e-13
1.78652e-13
1.67911e-13
1.6715e-13
1.75306e-13
1.88031e-13
1.04922e-12
9.30094e-13
7.9601e-13
6.77253e-13
5.84267e-13
5.21287e-13
4.89363e-13
4.87285e-13
5.10954e-13
5.47279e-13
3.07082e-12
2.72501e-12
2.32886e-12
1.97469e-12
1.69701e-12
1.50902e-12
1.41309e-12
1.40443e-12
1.46932e-12
1.56934e-12
8.91823e-12
7.92399e-12
6.76925e-12
5.72773e-12
4.90732e-12
4.34855e-12
4.05749e-12
4.01821e-12
4.18865e-12
4.45945e-12
2.57386e-11
2.28961e-11
1.95607e-11
1.65295e-11
1.41261e-11
1.24728e-11
1.15867e-11
1.14202e-11
1.18512e-11
1.25756e-11
7.38441e-11
6.57538e-11
5.61914e-11
4.7442e-11
4.04527e-11
3.55853e-11
3.28926e-11
3.224e-11
3.32869e-11
3.52002e-11
2.10607e-10
1.8767e-10
1.60454e-10
1.35378e-10
1.15186e-10
1.00936e-10
9.27916e-11
9.03906e-11
9.28077e-11
9.77913e-11
5.97028e-10
5.32404e-10
4.55404e-10
3.83998e-10
3.26035e-10
2.84552e-10
2.6007e-10
2.51646e-10
2.56827e-10
2.69601e-10
1.6822e-09
1.50136e-09
1.28468e-09
1.08263e-09
9.17271e-10
7.97226e-10
7.24118e-10
6.95595e-10
7.05312e-10
7.37439e-10
4.71149e-09
4.20795e-09
3.60195e-09
3.03397e-09
2.56521e-09
2.21987e-09
2.003e-09
1.90905e-09
1.92204e-09
2.00094e-09
1.31168e-08
1.17223e-08
1.00382e-08
8.45224e-09
7.13187e-09
6.1443e-09
5.50511e-09
5.20226e-09
5.19701e-09
5.38488e-09
3.62971e-08
3.24576e-08
2.78094e-08
2.3412e-08
1.97172e-08
1.69095e-08
1.50371e-08
1.40779e-08
1.39426e-08
1.43712e-08
9.98299e-08
8.93167e-08
7.65944e-08
6.44924e-08
5.42226e-08
4.62866e-08
4.08337e-08
3.78389e-08
3.71139e-08
3.80303e-08
2.7284e-07
2.44279e-07
2.09771e-07
1.76728e-07
1.48382e-07
1.2608e-07
1.10285e-07
1.01047e-07
9.80295e-08
9.97785e-08
7.40882e-07
6.6414e-07
5.71342e-07
4.81898e-07
4.04239e-07
3.41937e-07
2.96419e-07
2.68205e-07
2.56955e-07
2.59517e-07
1.99875e-06
1.79473e-06
1.54764e-06
1.30793e-06
1.09692e-06
9.2394e-07
7.9341e-07
7.07971e-07
6.68529e-07
6.69059e-07
5.35577e-06
4.81894e-06
4.16924e-06
3.5343e-06
2.96636e-06
2.48932e-06
2.11681e-06
1.85993e-06
1.72694e-06
1.70953e-06
1.42451e-05
1.28508e-05
1.11687e-05
9.51045e-06
7.99888e-06
6.69337e-06
5.63568e-06
4.86804e-06
4.43116e-06
4.32838e-06
3.75715e-05
3.40123e-05
2.97401e-05
2.54851e-05
2.15174e-05
1.79779e-05
1.49922e-05
1.2711e-05
1.13016e-05
1.08572e-05
9.81186e-05
8.92392e-05
7.86565e-05
6.79854e-05
5.77561e-05
4.82758e-05
3.99109e-05
3.31707e-05
2.86809e-05
2.69728e-05
0.000253162
0.000231689
0.000206333
0.000180382
0.00015464
0.000129672
0.000106486
8.6713e-05
7.25437e-05
6.63495e-05
0.000643395
0.000593639
0.000535617
0.000475144
0.000412518
0.000348336
0.000285112
0.000227722
0.000183372
0.000161585
0.00160384
0.00149539
0.00137111
0.00123856
0.00109346
0.000934331
0.000766336
0.000602698
0.000465299
0.000389892
0.00389981
0.0036843
0.00344339
0.00317844
0.00286596
0.00249257
0.00206437
0.00161187
0.0011936
0.0009345
0.00918527
0.00881731
0.00842243
0.00796766
0.00736806
0.0065645
0.00554437
0.0043592
0.00313438
0.00225338
0.0207794
0.020318
0.0198685
0.0192957
0.0183573
0.0168574
0.0146824
0.0118574
0.00851472
0.00559008
0.0447052
0.0445934
0.0446348
0.0444861
0.0435922
0.041454
0.0376725
0.0320399
0.0249878
0.016328
6.07513e-15
5.43282e-15
4.7067e-15
4.09217e-15
3.58864e-15
3.23076e-15
3.03299e-15
2.99264e-15
3.12572e-15
3.33462e-15
3.58719e-14
3.20072e-14
2.77058e-14
2.39922e-14
2.09777e-14
1.88575e-14
1.77098e-14
1.75161e-14
1.82962e-14
1.95471e-14
1.21937e-13
1.08276e-13
9.32068e-14
8.007e-14
6.96386e-14
6.24403e-14
5.86848e-14
5.83225e-14
6.11373e-14
6.55563e-14
3.75302e-13
3.32306e-13
2.84502e-13
2.42559e-13
2.09724e-13
1.87458e-13
1.76217e-13
1.75701e-13
1.84668e-13
1.98319e-13
1.11884e-12
9.89957e-13
8.44303e-13
7.1562e-13
6.15474e-13
5.48264e-13
5.1489e-13
5.13845e-13
5.40362e-13
5.79778e-13
3.28859e-12
2.91122e-12
2.47723e-12
2.0908e-12
1.79027e-12
1.58914e-12
1.48911e-12
1.48429e-12
1.5587e-12
1.66862e-12
9.58215e-12
8.48847e-12
7.21398e-12
6.07106e-12
5.17981e-12
4.58116e-12
4.27846e-12
4.25212e-12
4.45278e-12
4.75438e-12
2.77185e-11
2.45703e-11
2.0868e-11
1.75272e-11
1.49095e-11
1.3137e-11
1.22174e-11
1.20909e-11
1.26134e-11
1.34303e-11
7.96382e-11
7.06339e-11
5.99759e-11
5.03033e-11
4.26781e-11
3.74592e-11
3.46674e-11
3.41307e-11
3.54429e-11
3.76245e-11
2.27304e-10
2.01714e-10
1.71276e-10
1.43498e-10
1.2145e-10
1.06172e-10
9.77289e-11
9.5643e-11
9.88021e-11
1.0454e-10
6.4458e-10
5.72333e-10
4.86025e-10
4.0684e-10
3.43529e-10
2.99066e-10
2.73666e-10
2.66051e-10
2.73238e-10
2.88076e-10
1.81625e-09
1.6136e-09
1.37052e-09
1.14637e-09
9.65768e-10
8.37138e-10
7.61199e-10
7.34628e-10
7.4961e-10
7.87231e-10
5.08545e-09
4.52055e-09
3.84058e-09
3.21047e-09
2.69867e-09
2.32876e-09
2.10316e-09
2.01355e-09
2.03996e-09
2.13314e-09
1.41502e-08
1.25852e-08
1.06962e-08
8.93725e-09
7.49639e-09
6.43892e-09
5.77296e-09
5.47865e-09
5.50652e-09
5.73061e-09
3.91273e-08
3.48194e-08
2.96092e-08
2.47345e-08
2.0705e-08
1.76996e-08
1.57458e-08
1.47995e-08
1.4743e-08
1.52611e-08
1.07514e-07
9.5737e-08
8.14798e-08
6.80705e-08
5.68771e-08
4.83857e-08
4.26869e-08
3.96962e-08
3.91505e-08
4.02816e-08
2.9354e-07
2.6161e-07
2.22924e-07
1.86327e-07
1.55451e-07
1.31598e-07
1.15069e-07
1.05752e-07
1.03118e-07
1.05365e-07
7.96215e-07
7.10452e-07
6.06424e-07
5.07412e-07
4.22876e-07
3.56268e-07
3.08584e-07
2.79909e-07
2.69405e-07
2.73068e-07
2.14518e-06
1.91714e-06
1.64026e-06
1.37503e-06
1.14548e-06
9.60645e-07
8.238e-07
7.36448e-07
6.98224e-07
7.01053e-07
5.73849e-06
5.13869e-06
4.41087e-06
3.70861e-06
3.09118e-06
2.58175e-06
2.19109e-06
1.92733e-06
1.79554e-06
1.78255e-06
1.52306e-05
1.36728e-05
1.17901e-05
9.95658e-06
8.31424e-06
6.92116e-06
5.81209e-06
5.02186e-06
4.58316e-06
4.48784e-06
4.00601e-05
3.60895e-05
3.13108e-05
2.66059e-05
2.22971e-05
1.85236e-05
1.5395e-05
1.30444e-05
1.1619e-05
1.11847e-05
0.000104258
9.43813e-05
8.25388e-05
7.07339e-05
5.96284e-05
4.95319e-05
4.0778e-05
3.38368e-05
2.92849e-05
2.75855e-05
0.000267877
0.00024405
0.000215644
0.000186903
0.000158955
0.000132394
0.000108174
8.78535e-05
7.35045e-05
6.73157e-05
0.00067733
0.000622213
0.00055705
0.000489903
0.000421867
0.000353659
0.000287765
0.00022898
0.00018424
0.000162531
0.00167809
0.00155799
0.00141763
0.00126969
0.00111174
0.000942729
0.000768058
0.000601115
0.000463298
0.000388639
0.00405069
0.0038112
0.00353577
0.00323691
0.00289514
0.00249836
0.00205399
0.00159427
0.00117742
0.000922898
0.00946014
0.0090456
0.00858064
0.00805513
0.00739218
0.0065356
0.00547757
0.00427746
0.00306354
0.00220437
0.0211969
0.02065
0.0200672
0.0193564
0.0182894
0.0166756
0.0144134
0.0115538
0.00825366
0.00542165
0.0451287
0.0448662
0.0446738
0.044278
0.0431433
0.0407758
0.0367993
0.0310741
0.02407
0.0156818
6.62043e-15
5.90716e-15
5.10217e-15
4.42149e-15
3.86696e-15
3.47586e-15
3.26309e-15
3.22478e-15
3.37589e-15
3.60863e-15
3.92657e-14
3.49539e-14
3.01527e-14
2.60181e-14
2.26828e-14
2.03562e-14
1.91181e-14
1.89428e-14
1.98397e-14
2.1239e-14
1.34678e-13
1.19278e-13
1.02244e-13
8.74658e-14
7.58141e-14
6.78495e-14
6.37785e-14
6.35273e-14
6.68248e-14
7.18205e-14
4.18667e-13
3.69378e-13
3.14487e-13
2.66704e-13
2.29654e-13
2.04827e-13
1.92628e-13
1.92665e-13
2.03467e-13
2.19247e-13
1.25918e-12
1.10885e-12
9.38973e-13
7.90538e-13
6.76506e-13
6.01152e-13
5.65044e-13
5.66338e-13
5.99358e-13
6.46054e-13
3.72758e-12
3.2804e-12
2.76707e-12
2.3164e-12
1.97163e-12
1.74534e-12
1.6377e-12
1.64152e-12
1.73757e-12
1.87102e-12
1.09191e-11
9.60572e-12
8.08072e-12
6.73598e-12
5.7077e-12
5.03291e-12
4.70901e-12
4.71153e-12
4.98034e-12
5.35476e-12
3.17e-11
2.78806e-11
2.34124e-11
1.94558e-11
1.64238e-11
1.44244e-11
1.34444e-11
1.34069e-11
1.4134e-11
1.51676e-11
9.12788e-11
8.0278e-11
6.73363e-11
5.58293e-11
4.69757e-11
4.10882e-11
3.81187e-11
3.78393e-11
3.97418e-11
4.25464e-11
2.60837e-10
2.29425e-10
1.92311e-10
1.59174e-10
1.33543e-10
1.16312e-10
1.07331e-10
1.05949e-10
1.10754e-10
1.18232e-10
7.39994e-10
6.51022e-10
5.45533e-10
4.50933e-10
3.77299e-10
3.27176e-10
3.00124e-10
2.94335e-10
3.05973e-10
3.25548e-10
2.08482e-09
1.83483e-09
1.53737e-09
1.26943e-09
1.05942e-09
9.14485e-10
8.33423e-10
8.11336e-10
8.38025e-10
8.88258e-10
5.83429e-09
5.137e-09
4.30457e-09
3.55137e-09
2.95654e-09
2.53997e-09
2.29848e-09
2.21918e-09
2.27555e-09
2.40158e-09
1.62202e-08
1.42885e-08
1.19762e-08
9.87464e-09
8.20133e-09
7.01111e-09
6.29608e-09
6.02338e-09
6.12579e-09
6.43357e-09
4.48024e-08
3.9487e-08
3.31126e-08
2.72927e-08
2.26174e-08
1.92367e-08
1.71326e-08
1.62246e-08
1.63477e-08
1.70741e-08
1.22942e-07
1.08424e-07
9.09932e-08
7.49979e-08
6.20241e-08
5.24775e-08
4.63229e-08
4.33748e-08
4.3245e-08
4.48814e-08
3.35127e-07
2.95811e-07
2.4855e-07
2.04934e-07
1.69184e-07
1.42383e-07
1.24487e-07
1.15107e-07
1.13388e-07
1.16822e-07
9.07312e-07
8.0184e-07
6.74856e-07
5.56953e-07
4.59175e-07
3.84383e-07
3.32645e-07
3.03296e-07
2.94661e-07
3.01015e-07
2.439e-06
2.1589e-06
1.82121e-06
1.50562e-06
1.24039e-06
1.033e-06
8.8429e-07
7.93753e-07
7.58905e-07
7.67546e-07
6.50647e-06
5.77087e-06
4.88396e-06
4.04892e-06
3.33622e-06
2.76516e-06
2.34022e-06
2.06434e-06
1.93723e-06
1.93601e-06
1.72094e-05
1.53046e-05
1.30105e-05
1.08311e-05
8.9372e-06
7.37739e-06
6.17081e-06
5.33926e-06
4.90212e-06
4.82862e-06
4.5073e-05
4.02309e-05
3.44065e-05
2.88146e-05
2.38502e-05
1.96309e-05
1.62299e-05
1.37488e-05
1.23022e-05
1.19034e-05
0.000116685
0.000104664
9.02245e-05
7.61883e-05
6.34018e-05
5.21312e-05
4.2631e-05
3.53028e-05
3.06446e-05
2.89932e-05
0.000297818
0.000268875
0.000234192
0.00019997
0.000167801
0.000138204
0.000111988
9.05861e-05
7.58881e-05
6.97604e-05
0.000746811
0.000679963
0.000600116
0.00051991
0.000441547
0.000365669
0.000294585
0.000232955
0.000187344
0.000165831
0.00183143
0.0016857
0.00151235
0.00133443
0.00115205
0.000964226
0.000776473
0.000602527
0.000463256
0.000389918
0.00436658
0.00407416
0.00372815
0.00336354
0.00296634
0.00252507
0.00204886
0.00157296
0.00115617
0.000909511
0.0100499
0.00953261
0.00892501
0.00826303
0.00748058
0.00652341
0.0053903
0.00415417
0.00295338
0.00213252
0.0221426
0.0214077
0.0205547
0.0195783
0.018269
0.0164396
0.0140062
0.0110664
0.00782
0.00514408
0.0462692
0.0456789
0.045011
0.0441361
0.0425433
0.0397397
0.0353803
0.0294406
0.0224902
0.0145963
7.44388e-15
6.61647e-15
5.6939e-15
4.91698e-15
4.28819e-15
3.84835e-15
3.61296e-15
3.5768e-15
3.75563e-15
4.02988e-15
4.42883e-14
3.92361e-14
3.36933e-14
2.89584e-14
2.51693e-14
2.25491e-14
2.1179e-14
2.10286e-14
2.21092e-14
2.37822e-14
1.5336e-13
1.34959e-13
1.14957e-13
9.78699e-14
8.45356e-14
7.55079e-14
7.09867e-14
7.08995e-14
7.49979e-14
8.11285e-14
4.81764e-13
4.21555e-13
3.5586e-13
2.99935e-13
2.57177e-13
2.28867e-13
2.15322e-13
2.16199e-13
2.30101e-13
2.50055e-13
1.46154e-12
1.27427e-12
1.06775e-12
8.91986e-13
7.59403e-13
6.73135e-13
6.33265e-13
6.38091e-13
6.81989e-13
7.42596e-13
4.35436e-12
3.78903e-12
3.157e-12
2.61803e-12
2.21472e-12
1.95515e-12
1.83729e-12
1.85411e-12
1.98567e-12
2.16268e-12
1.28112e-11
1.11349e-11
9.23838e-12
7.61746e-12
6.4089e-12
5.63435e-12
5.2827e-12
5.32844e-12
5.70693e-12
6.21189e-12
3.73003e-11
3.23893e-11
2.67955e-11
2.19992e-11
1.84238e-11
1.61291e-11
1.50716e-11
1.51672e-11
1.62187e-11
1.76305e-11
1.0758e-10
9.33703e-11
7.70956e-11
6.30932e-11
5.26317e-11
4.58779e-11
4.26843e-11
4.27901e-11
4.56186e-11
4.94903e-11