/*--------------------------------*- C++ -*----------------------------------*\
| =========                 |                                                 |
| \\      /  F ield         | OpenFOAM: The Open Source CFD Toolbox           |
|  \\    /   O peration     | Version:  2112                                  |
|   \\  /    A nd           | Website:  www.openfoam.com                      |
|    \\/     M anipulation  |                                                 |
\*---------------------------------------------------------------------------*/
FoamFile
{
    version     2.0;
    format      ascii;
    arch        "LSB;label=32;scalar=64";
    class       volScalarField;
    location    "8";
    object      p;
}
// * * * * * * * * * * * * * * * * * * * * * * * * * * * * * * * * * * * * * //

dimensions      [0 2 -2 0 0 0 0];

internalField   nonuniform List<scalar> 
400
(
4.5261114e-07
-0.00065261269
-0.0013360454
-0.0018632568
-0.002112192
-0.0020243375
-0.0015772182
-0.00076492188
0.00039858133
0.0018639964
0.0035313078
0.0052423372
0.0067942003
0.0079704298
0.0085936759
0.0085857048
0.0080102894
0.0070778037
0.006118404
0.0055644592
0.00064090787
-3.7018207e-05
-0.00054343413
-0.00088986779
-0.0010347055
-0.00093895011
-0.00058241393
4.572561e-05
0.00094198256
0.0020738334
0.0033662643
0.0047076534
0.0059329099
0.0068714655
0.0073830339
0.0074054932
0.0069887385
0.0062989687
0.005575894
0.0050129118
0.0013766561
0.00042413999
-0.00010953389
-0.00042228112
-0.00055736913
-0.00049904005
-0.00023255246
0.00025918807
0.00098772112
0.001941598
0.0030710552
0.0042754274
0.0054054284
0.0062923225
0.0067871128
0.0068111506
0.0063950852
0.0056870562
0.0048797674
0.004045982
0.0019386006
0.00064779257
9.8353873e-06
-0.00033955809
-0.00052148233
-0.00054142547
-0.00038796792
-3.3444754e-05
0.00055473197
0.0013905072
0.0024457736
0.0036352919
0.0048075695
0.0057736181
0.0063477019
0.0064072933
0.0059484849
0.0051087951
0.0040632373
0.0028093814
0.0020753811
0.00045570869
-0.00030570224
-0.00072750162
-0.00099896559
-0.0011406937
-0.0011389701
-0.00094968738
-0.00051276751
0.0002178166
0.0012420355
0.0024975445
0.0038258376
0.0050063705
0.0057937366
0.0059901699
0.0055287703
0.0045273038
0.0031600144
0.0013671752
0.0015682382
-0.00034241604
-0.0012318061
-0.0017553811
-0.0021604025
-0.0024766243
-0.0026822643
-0.0027107217
-0.0024671087
-0.0018632857
-0.0008591477
0.00052648899
0.0021273616
0.003689804
0.0048868955
0.0054043699
0.0050644076
0.0039347804
0.0021886627
-0.00028743425
0.00023716905
-0.0019101699
-0.0029252712
-0.0035789045
-0.0041666992
-0.0047237344
-0.0052163278
-0.0055505994
-0.0055890306
-0.0051839361
-0.0042213056
-0.0027064653
-0.00073722569
0.0013994562
0.0032755874
0.0044091627
0.0044363899
0.003309429
0.001166162
-0.0021811058
-0.0020577863
-0.0043773386
-0.005512201
-0.006324285
-0.0071493781
-0.0080274692
-0.0089127392
-0.0096819483
-0.010148246
-0.010093127
-0.0093142568
-0.0077104589
-0.0053204383
-0.0024185796
0.0004712866
0.0026486873
0.0034597552
0.0026214755
0.00014114985
-0.0043102315
-0.0054065891
-0.0078290023
-0.0090731794
-0.010067169
-0.011181455
-0.012465063
-0.013864597
-0.015229994
-0.016322307
-0.0168402
-0.016464714
-0.014940934
-0.012181241
-0.0083824256
-0.0041243346
-0.00035231985
0.0018698976
0.0018377473
-0.00076916731
-0.0065803034
-0.0098373794
-0.01229498
-0.013626395
-0.014805362
-0.016237684
-0.017991603
-0.020016261
-0.0221429
-0.024084077
-0.025449368
-0.025775747
-0.024607622
-0.021683002
-0.016997179
-0.011090664
-0.0051203031
-0.00065464231
0.00093899643
-0.0013297703
-0.0087153027
-0.015312362
-0.017748617
-0.019118515
-0.020437093
-0.022158963
-0.02438994
-0.027097075
-0.030105369
-0.033087607
-0.035566148
-0.036920456
-0.036441847
-0.033728246
-0.028361164
-0.020711208
-0.012021927
-0.0043651749
-8.2942419e-06
-0.0011091206
-0.010106268
-0.021741462
-0.024122304
-0.025429105
-0.026752083
-0.028633047
-0.031244379
-0.034589563
-0.038500164
-0.042618582
-0.046388007
-0.049068751
-0.049802585
-0.04755782
-0.04183994
-0.032595264
-0.020901005
-0.0091627749
-0.00067246108
0.00065309968
-0.009562298
-0.029028663
-0.031346629
-0.032390737
-0.033438276
-0.035199888
-0.037954478
-0.041757698
-0.046452507
-0.051654646
-0.056735839
-0.060823046
-0.062833663
-0.061521156
-0.055871736
-0.04536731
-0.030676638
-0.014200851
-0.00015087595
0.0052690086
-0.004936184
-0.037176713
-0.03941733
-0.039819202
-0.040100087
-0.041283665
-0.043797407
-0.047750123
-0.052982628
-0.059069182
-0.065305233
-0.070693138
-0.073959438
-0.073612865
-0.068209832
-0.05671028
-0.039170339
-0.017564266
0.0033812455
0.014959582
0.007354368
-0.046511502
-0.048492397
-0.047535477
-0.046275843
-0.04624467
-0.048028511
-0.051752568
-0.057212475
-0.063894821
-0.070992226
-0.077371708
-0.081578095
-0.081892209
-0.076495622
-0.063876627
-0.043418685
-0.016319493
0.012878671
0.033271364
0.032667053
-0.058207304
-0.05904026
-0.055351803
-0.051441343
-0.049441836
-0.049999396
-0.053149782
-0.05856762
-0.065563277
-0.073183007
-0.080119281
-0.08472116
-0.085051186
-0.078950601
-0.064504925
-0.040469406
-0.007114149
0.032244106
0.065079683
0.077795065
-0.075635212
-0.072117363
-0.063117775
-0.055098415
-0.050371571
-0.049323854
-0.051698208
-0.056884235
-0.063980758
-0.071805188
-0.078841955
-0.083222294
-0.082770949
-0.074962896
-0.057445368
-0.028402109
0.012787269
0.06526163
0.11541923
0.15134587
-0.1076513
-0.089210297
-0.071007749
-0.057082935
-0.048903975
-0.04604671
-0.04761945
-0.052561055
-0.059648115
-0.067439771
-0.074196356
-0.07781499
-0.075869061
-0.065528337
-0.043825773
-0.0079798554
0.044104921
0.11267733
0.18807545
0.27153952
-0.17654826
-0.10806148
-0.076122584
-0.05464714
-0.042963814
-0.03884571
-0.040233648
-0.045397085
-0.052754467
-0.060668863
-0.067269114
-0.070311207
-0.067092379
-0.05448914
-0.02912725
0.013383106
0.077829229
0.16968395
0.28910926
0.47384565
-0.37178925
-0.12451201
-0.054922976
-0.032008805
-0.022102453
-0.020228916
-0.024110433
-0.031513704
-0.0406508
-0.049928518
-0.057588093
-0.061528816
-0.05926814
-0.047765768
-0.022591817
0.021345788
0.092546053
0.20980613
0.40252571
0.77605419
)
;

boundaryField
{
    movingWall
    {
        type            zeroGradient;
    }
    fixedWalls
    {
        type            zeroGradient;
    }
    frontAndBack
    {
        type            empty;
    }
}


// ************************************************************************* //
