/*--------------------------------*- C++ -*----------------------------------*\
| =========                 |                                                 |
| \\      /  F ield         | OpenFOAM: The Open Source CFD Toolbox           |
|  \\    /   O peration     | Version:  2112                                  |
|   \\  /    A nd           | Website:  www.openfoam.com                      |
|    \\/     M anipulation  |                                                 |
\*---------------------------------------------------------------------------*/
FoamFile
{
    version     2.0;
    format      ascii;
    arch        "LSB;label=32;scalar=64";
    class       volVectorField;
    location    "8";
    object      U;
}
// * * * * * * * * * * * * * * * * * * * * * * * * * * * * * * * * * * * * * //

dimensions      [0 1 -1 0 0 0 0];

internalField   nonuniform List<vector> 
400
(
(0.00027303082 -0.00026988088 0)
(9.3193008e-05 8.3681185e-05 0)
(-0.0013179575 0.00047108331 0)
(-0.003559798 0.00072123245 0)
(-0.0062932303 0.00084826877 0)
(-0.0092257612 0.00088584662 0)
(-0.012107602 0.00085332668 0)
(-0.014709582 0.00075223725 0)
(-0.016797571 0.00057428093 0)
(-0.018130123 0.00031386178 0)
(-0.01848483 -2.0832953e-05 0)
(-0.017706445 -0.00040340549 0)
(-0.015768368 -0.00077560299 0)
(-0.012826544 -0.0010637858 0)
(-0.0092396821 -0.0011926463 0)
(-0.0055364824 -0.0011079801 0)
(-0.002319625 -0.00080311956 0)
(-0.00012635134 -0.00034080613 0)
(0.00072528175 0.0001393335 0)
(0.00039715815 0.00037741379 0)
(-8.8444499e-05 -0.00010564224 0)
(-0.0018339365 0.0017577492 0)
(-0.0061601169 0.0035444768 0)
(-0.012144739 0.0047440488 0)
(-0.019102541 0.0053601452 0)
(-0.026410298 0.0054774269 0)
(-0.033474872 0.0051521448 0)
(-0.039727806 0.0043945543 0)
(-0.044608671 0.0031953545 0)
(-0.047582054 0.0015706949 0)
(-0.048202149 -0.00039487392 0)
(-0.046193098 -0.0025191409 0)
(-0.04155942 -0.0045184011 0)
(-0.034680767 -0.006047155 0)
(-0.02632432 -0.0067686031 0)
(-0.017581247 -0.0064553771 0)
(-0.0096898106 -0.0050971378 0)
(-0.003753071 -0.0029779056 0)
(-0.00042209567 -0.00069325511 0)
(0.00027379147 0.00074867554 0)
(-0.00057364367 0.0014164069 0)
(-0.0041276659 0.0062282148 0)
(-0.011431239 0.010368815 0)
(-0.020868197 0.013129782 0)
(-0.031464413 0.014505513 0)
(-0.042385225 0.014625829 0)
(-0.052811598 0.013584241 0)
(-0.061947821 0.011409615 0)
(-0.069019315 0.00811892 0)
(-0.073304488 0.0038053584 0)
(-0.074211515 -0.0012777565 0)
(-0.071385629 -0.0066643755 0)
(-0.064835106 -0.011687723 0)
(-0.055036958 -0.015554573 0)
(-0.042971018 -0.017500213 0)
(-0.030065689 -0.017006839 0)
(-0.017999221 -0.014037917 0)
(-0.0083368681 -0.0092018615 0)
(-0.002151867 -0.0037704209 0)
(-1.2111769e-05 0.00026719172 0)
(-0.0010205493 0.0041991763 0)
(-0.0063171925 0.013206029 0)
(-0.016490608 0.020296885 0)
(-0.02914705 0.02486621 0)
(-0.043021482 0.027017137 0)
(-0.057124299 0.026966735 0)
(-0.070493188 0.02485756 0)
(-0.082193516 0.020743561 0)
(-0.091315111 0.014681257 0)
(-0.097004226 0.0068649141 0)
(-0.09854425 -0.0022505459 0)
(-0.095464962 -0.011882798 0)
(-0.087679905 -0.020917232 0)
(-0.075624686 -0.028027426 0)
(-0.060339167 -0.031903947 0)
(-0.043473977 -0.031601354 0)
(-0.027120264 -0.026939443 0)
(-0.013392516 -0.018809135 0)
(-0.0039856234 -0.0092099536 0)
(-0.00027088772 -0.0011535151 0)
(-0.0014079153 0.0081356852 0)
(-0.0082818564 0.022529201 0)
(-0.021087539 0.033097788 0)
(-0.036678969 0.039640889 0)
(-0.053519983 0.042532858 0)
(-0.070508513 0.042151978 0)
(-0.086601958 0.038715477 0)
(-0.10079504 0.032306204 0)
(-0.11209859 0.023014048 0)
(-0.11955559 0.011119983 0)
(-0.12231234 -0.002739475 0)
(-0.11971301 -0.017475228 0)
(-0.11145234 -0.031515228 0)
(-0.097768381 -0.042936541 0)
(-0.079602069 -0.049742364 0)
(-0.058723127 -0.050341375 0)
(-0.037651056 -0.04417053 0)
(-0.019214822 -0.032246327 0)
(-0.0060067494 -0.017305302 0)
(-0.00050705922 -0.0035389133 0)
(-0.0017307972 0.013084309 0)
(-0.0099576505 0.033955929 0)
(-0.025052207 0.048503119 0)
(-0.043212928 0.057187775 0)
(-0.062675714 0.060819926 0)
(-0.082269084 0.060027156 0)
(-0.10092541 0.055135964 0)
(-0.11762743 0.046257787 0)
(-0.13135575 0.033489238 0)
(-0.14107299 0.017146816 0)
(-0.14577095 -0.0020175627 0)
(-0.14454074 -0.022648937 0)
(-0.1367367 -0.042775827 0)
(-0.1222276 -0.059831514 0)
(-0.10165861 -0.070960578 0)
(-0.076756276 -0.073614348 0)
(-0.050429239 -0.0664522 0)
(-0.0263854 -0.05030096 0)
(-0.0084798202 -0.028594548 0)
(-0.0007756612 -0.0070164914 0)
(-0.0019808091 0.018866364 0)
(-0.011281754 0.047142274 0)
(-0.028220913 0.066113316 0)
(-0.048478172 0.07711386 0)
(-0.070118232 0.081539138 0)
(-0.091944536 0.080356243 0)
(-0.11291704 0.074040229 0)
(-0.13206417 0.06272847 0)
(-0.14839165 0.046484399 0)
(-0.16082 0.025586056 0)
(-0.16817235 0.00079542822 0)
(-0.16927458 -0.026407373 0)
(-0.16306813 -0.053720145 0)
(-0.14886036 -0.077943241 0)
(-0.12676249 -0.095213726 0)
(-0.098188352 -0.10165226 0)
(-0.066246098 -0.094565039 0)
(-0.035582142 -0.074014364 0)
(-0.011748749 -0.043925767 0)
(-0.0011509185 -0.011887941 0)
(-0.0021451417 0.025267262 0)
(-0.012186679 0.061660638 0)
(-0.030426081 0.085415619 0)
(-0.052177687 0.098895235 0)
(-0.075393426 0.10420739 0)
(-0.098892973 0.10274645 0)
(-0.12171386 0.095180226 0)
(-0.14298913 0.081672659 0)
(-0.16181375 0.062210653 0)
(-0.17713393 0.036946134 0)
(-0.18768678 0.0065155977 0)
(-0.1920399 -0.027664527 0)
(-0.18868143 -0.063097359 0)
(-0.17626245 -0.096063891 0)
(-0.15409902 -0.12163745 0)
(-0.12289947 -0.13425211 0)
(-0.085548276 -0.12912416 0)
(-0.047433797 -0.10459598 0)
(-0.016200614 -0.064483412 0)
(-0.0017238187 -0.018660594 0)
(-0.0022128467 0.032036017 0)
(-0.012619492 0.07700733 0)
(-0.031529348 0.10578383 0)
(-0.054036603 0.12185289 0)
(-0.078030357 0.12813986 0)
(-0.102381 0.12655251 0)
(-0.12625 0.11800435 0)
(-0.14893676 0.10269864 0)
(-0.16970612 0.080512498 0)
(-0.18763364 0.051385041 0)
(-0.20149146 0.015684418 0)
(-0.20970017 -0.025409743 0)
(-0.21037735 -0.069459977 0)
(-0.20150454 -0.11248483 0)
(-0.18139333 -0.14861604 0)
(-0.14958939 -0.1703981 0)
(-0.10807287 -0.170175 0)
(-0.062347816 -0.14316628 0)
(-0.022255321 -0.091734726 0)
(-0.0026173307 -0.028074253 0)
(-0.0021860894 0.038901509 0)
(-0.012580082 0.092629566 0)
(-0.031490066 0.12649164 0)
(-0.053898424 0.14513912 0)
(-0.077667579 0.15240482 0)
(-0.10174788 0.15079909 0)
(-0.12546845 0.14154758 0)
(-0.14835762 0.12492704 0)
(-0.16994095 0.10069962 0)
(-0.18955314 0.068538019 0)
(-0.20616632 0.028427039 0)
(-0.21824098 -0.018892082 0)
(-0.22375582 -0.071340184 0)
(-0.22017174 -0.12507457 0)
(-0.20472222 -0.1736634 0)
(-0.17539514 -0.20788921 0)
(-0.1324172 -0.21664387 0)
(-0.080249647 -0.19028723 0)
(-0.030349321 -0.12726792 0)
(-0.0040161687 -0.041137721 0)
(-0.0020958981 0.045616503 0)
(-0.01217428 0.10799125 0)
(-0.030459035 0.14676157 0)
(-0.051853559 0.16775884 0)
(-0.074219619 0.1758203 0)
(-0.096623863 0.1741574 0)
(-0.11861156 0.16438848 0)
(-0.14000179 0.14692214 0)
(-0.16066798 0.1214384 0)
(-0.18033414 0.087345081 0)
(-0.19836541 0.044200837 0)
(-0.21350178 -0.007851365 0)
(-0.22392501 -0.06758952 0)
(-0.22689278 -0.13159418 0)
(-0.21874585 -0.19356556 0)
(-0.19576802 -0.24315236 0)
(-0.15564063 -0.26576869 0)
(-0.1001968 -0.2452636 0)
(-0.040864456 -0.17244989 0)
(-0.0062063252 -0.059173424 0)
(-0.0020258433 0.052039295 0)
(-0.011683645 0.12268596 0)
(-0.028887929 0.16585215 0)
(-0.048375522 0.18862709 0)
(-0.06804295 0.19699747 0)
(-0.087144965 0.19498885 0)
(-0.10551321 0.18469706 0)
(-0.12332014 0.16673313 0)
(-0.1408522 0.1407567 0)
(-0.15830448 0.10595513 0)
(-0.1755969 0.061457677 0)
(-0.19219737 0.0067259118 0)
(-0.20665513 -0.057959893 0)
(-0.21636742 -0.13027364 0)
(-0.21748391 -0.20489482 0)
(-0.20482829 -0.27145642 0)
(-0.17311467 -0.31275709 0)
(-0.1199278 -0.30530785 0)
(-0.053928584 -0.22780413 0)
(-0.009606691 -0.083842592 0)
(-0.0021549805 0.058270065 0)
(-0.011664864 0.13659858 0)
(-0.027646683 0.18316916 0)
(-0.044429389 0.20664324 0)
(-0.060037399 0.21441367 0)
(-0.074069848 0.21144528 0)
(-0.086764058 0.20037579 0)
(-0.098719244 0.18207399 0)
(-0.11068235 0.15624636 0)
(-0.12337598 0.12193957 0)
(-0.13735211 0.07792057 0)
(-0.15280471 0.023027545 0)
(-0.16912902 -0.043319537 0)
(-0.18453105 -0.12046113 0)
(-0.19551029 -0.20487253 0)
(-0.19625484 -0.2876808 0)
(-0.17883373 -0.35100205 0)
(-0.13552971 -0.36487346 0)
(-0.06899554 -0.29205184 0)
(-0.014735981 -0.11706599 0)
(-0.0028448783 0.064880403 0)
(-0.01310648 0.150105 0)
(-0.028132853 0.19835336 0)
(-0.041486694 0.2207274 0)
(-0.05157202 0.22646153 0)
(-0.058640588 0.22156947 0)
(-0.063528656 0.20922872 0)
(-0.06735007 0.19056352 0)
(-0.07132646 0.16535954 0)
(-0.076681426 0.1326138 0)
(-0.084561879 0.090881666 0)
(-0.095906392 0.038546873 0)
(-0.11112335 -0.025859039 0)
(-0.12964041 -0.10321351 0)
(-0.14914314 -0.19238457 0)
(-0.16443553 -0.28757275 0)
(-0.16617256 -0.37306314 0)
(-0.14141918 -0.41560306 0)
(-0.084146996 -0.3609055 0)
(-0.021981235 -0.16062641 0)
(-0.0048105194 0.073327501 0)
(-0.017668906 0.16427579 0)
(-0.032286198 0.21124123 0)
(-0.041254456 0.22971124 0)
(-0.04397321 0.23137401 0)
(-0.041881241 0.2232945 0)
(-0.036685737 0.20904443 0)
(-0.030112321 0.18989028 0)
(-0.023838639 0.16564735 0)
(-0.019497556 0.13530799 0)
(-0.018707236 0.097347784 0)
(-0.023032656 0.049924716 0)
(-0.033838515 -0.008980757 0)
(-0.051909183 -0.081434502 0)
(-0.076757474 -0.16869166 0)
(-0.10522136 -0.26909267 0)
(-0.12868083 -0.37225143 0)
(-0.13056576 -0.44714696 0)
(-0.095190532 -0.42598857 0)
(-0.030948119 -0.21525829 0)
(-0.0093892961 0.086708053 0)
(-0.027896753 0.18091629 0)
(-0.042052388 0.22149915 0)
(-0.044386219 0.23192015 0)
(-0.036696435 0.22689781 0)
(-0.022402971 0.21424034 0)
(-0.004378978 0.19750758 0)
(0.014979703 0.17781091 0)
(0.033611493 0.15488111 0)
(0.049626265 0.12767513 0)
(0.061122162 0.094681947 0)
(0.066133849 0.054061803 0)
(0.062569266 0.0036640626 0)
(0.048479266 -0.059125073 0)
(0.022378794 -0.13725545 0)
(-0.015613641 -0.23317851 0)
(-0.060246781 -0.34424975 0)
(-0.094481618 -0.44859105 0)
(-0.094877019 -0.47456982 0)
(-0.039284422 -0.27979713 0)
(-0.018641494 0.11086814 0)
(-0.046418391 0.20133654 0)
(-0.056159718 0.22700699 0)
(-0.045519707 0.22376521 0)
(-0.021486238 0.2092581 0)
(0.0097242764 0.19103239 0)
(0.044014527 0.17180707 0)
(0.078546747 0.15204387 0)
(0.11114622 0.13115551 0)
(0.13991382 0.10799897 0)
(0.1629419 0.081136396 0)
(0.17815206 0.048902462 0)
(0.18304585 0.0093670126 0)
(0.17494902 -0.039896251 0)
(0.15085652 -0.10235565 0)
(0.10789827 -0.18324412 0)
(0.045953843 -0.28803608 0)
(-0.022337164 -0.41002361 0)
(-0.07267229 -0.49047403 0)
(-0.041240414 -0.35011114 0)
(-0.033354645 0.15575787 0)
(-0.068767214 0.22032881 0)
(-0.055722861 0.21688031 0)
(-0.017079302 0.19463377 0)
(0.033013941 0.17009915 0)
(0.086544463 0.14768846 0)
(0.13942545 0.12794617 0)
(0.18936602 0.11013347 0)
(0.23481505 0.093119471 0)
(0.27441045 0.075665703 0)
(0.30664772 0.05650811 0)
(0.32970831 0.034325957 0)
(0.34114144 0.0076306322 0)
(0.33811693 -0.025309324 0)
(0.31673943 -0.067220205 0)
(0.27216869 -0.12372138 0)
(0.19957789 -0.20561001 0)
(0.10151164 -0.32488954 0)
(-0.012712044 -0.45437691 0)
(-0.023839693 -0.40846747 0)
(-0.033037131 0.23921537 0)
(-0.042571483 0.21801497 0)
(0.04216201 0.16418782 0)
(0.12728808 0.12759028 0)
(0.20702451 0.10108835 0)
(0.27921977 0.081290063 0)
(0.34345617 0.06632911 0)
(0.3998943 0.054483478 0)
(0.44870447 0.044307214 0)
(0.48974387 0.034679576 0)
(0.52237693 0.024705529 0)
(0.54540013 0.013618139 0)
(0.55688407 0.00067006201 0)
(0.55464782 -0.014864635 0)
(0.53474748 -0.03473472 0)
(0.49190474 -0.062326896 0)
(0.41760078 -0.10687044 0)
(0.30384838 -0.19315014 0)
(0.12298848 -0.33690286 0)
(0.052325301 -0.39436415 0)
(0.24304948 0.15262393 0)
(0.30543209 0.11861164 0)
(0.45496537 0.076135916 0)
(0.56008155 0.050820237 0)
(0.63214001 0.035069766 0)
(0.68624586 0.024740189 0)
(0.72893016 0.017893016 0)
(0.76312839 0.013209984 0)
(0.790521 0.009746706 0)
(0.81198155 0.0068713619 0)
(0.82770307 0.0041627239 0)
(0.83735513 0.001337777 0)
(0.84014003 -0.0017920972 0)
(0.83472047 -0.0052716795 0)
(0.81875368 -0.0097805192 0)
(0.78941414 -0.016202968 0)
(0.73787625 -0.026927034 0)
(0.65320093 -0.051292481 0)
(0.45611134 -0.1137579 0)
(0.31789022 -0.17207016 0)
)
;

boundaryField
{
    movingWall
    {
        type            fixedValue;
        value           uniform (1 0 0);
    }
    fixedWalls
    {
        type            fixedValue;
        value           uniform (0 0 0);
    }
    frontAndBack
    {
        type            empty;
    }
}


// ************************************************************************* //
