/*--------------------------------*- C++ -*----------------------------------*\
| =========                 |                                                 |
| \\      /  F ield         | OpenFOAM: The Open Source CFD Toolbox           |
|  \\    /   O peration     | Version:  2112                                  |
|   \\  /    A nd           | Website:  www.openfoam.com                      |
|    \\/     M anipulation  |                                                 |
\*---------------------------------------------------------------------------*/
FoamFile
{
    version     2.0;
    format      ascii;
    arch        "LSB;label=32;scalar=64";
    class       volVectorField;
    location    "8";
    object      U_0;
}
// * * * * * * * * * * * * * * * * * * * * * * * * * * * * * * * * * * * * * //

dimensions      [0 1 -1 0 0 0 0];

internalField   nonuniform List<vector> 
400
(
(0.0002730306 -0.00026975973 0)
(9.3200891e-05 8.3723938e-05 0)
(-0.0013178427 0.00047105683 0)
(-0.0035594194 0.00072115993 0)
(-0.0062924961 0.00084816916 0)
(-0.0092246319 0.00088573358 0)
(-0.012106078 0.00085321233 0)
(-0.014707704 0.00075213476 0)
(-0.016795425 0.00057420563 0)
(-0.018127839 0.00031382925 0)
(-0.018482573 -2.0810817e-05 0)
(-0.017704395 -0.00040332497 0)
(-0.015766686 -0.00077547261 0)
(-0.012825344 -0.0010636274 0)
(-0.0092389989 -0.0011924918 0)
(-0.0055362613 -0.0011078637 0)
(-0.0023197304 -0.00080306652 0)
(-0.00012658632 -0.00034082092 0)
(0.00072509408 0.00013926421 0)
(0.0003970925 0.00037735161 0)
(-8.8433449e-05 -0.00010544704 0)
(-0.001833698 0.0017576401 0)
(-0.0061592886 0.0035440664 0)
(-0.012143055 0.0047434296 0)
(-0.019099845 0.0053594121 0)
(-0.026406542 0.005476663 0)
(-0.033470114 0.0051514286 0)
(-0.039722203 0.0043939658 0)
(-0.044602481 0.0031949743 0)
(-0.047575623 0.0015705931 0)
(-0.048195874 -0.00039465555 0)
(-0.04618738 -0.0025186076 0)
(-0.041554607 -0.0045176134 0)
(-0.034677096 -0.0060462282 0)
(-0.026321871 -0.0067676905 0)
(-0.017579922 -0.006454637 0)
(-0.0096893501 -0.0050966898 0)
(-0.0037531085 -0.0029777866 0)
(-0.00042227333 -0.00069340095 0)
(0.00027370684 0.00074849226 0)
(-0.00057355559 0.0014163794 0)
(-0.0041270252 0.006227463 0)
(-0.011429462 0.010367392 0)
(-0.02086496 0.013127905 0)
(-0.031459564 0.014503418 0)
(-0.042378762 0.014623732 0)
(-0.052803666 0.013582351 0)
(-0.061938707 0.011408136 0)
(-0.069009429 0.0081180409 0)
(-0.073294339 0.0038052266 0)
(-0.07420166 -0.0012770723 0)
(-0.071376609 -0.0066629186 0)
(-0.06482738 -0.011685656 0)
(-0.055030845 -0.01555217 0)
(-0.042966646 -0.017497825 0)
(-0.030062972 -0.017004823 0)
(-0.017997865 -0.014036553 0)
(-0.0083364302 -0.0092012605 0)
(-0.0021518692 -0.0037704615 0)
(-1.2165184e-05 0.0002669281 0)
(-0.0010203701 0.0041986811 0)
(-0.0063161228 0.013204145 0)
(-0.016487875 0.020293879 0)
(-0.029142306 0.024862506 0)
(-0.043014617 0.027013154 0)
(-0.057115385 0.026962863 0)
(-0.070482469 0.024854166 0)
(-0.082181392 0.020740994 0)
(-0.091302109 0.01467982 0)
(-0.096990961 0.0068648245 0)
(-0.098531373 -0.0022492094 0)
(-0.095453092 -0.011880137 0)
(-0.087669567 -0.020913527 0)
(-0.075616268 -0.028023127 0)
(-0.060332866 -0.031899618 0)
(-0.043469764 -0.03159758 0)
(-0.027117877 -0.026936705 0)
(-0.013391493 -0.018807664 0)
(-0.0039854023 -0.0092096217 0)
(-0.00027090435 -0.0011537569 0)
(-0.001407656 0.0081344945 0)
(-0.0082804207 0.022525749 0)
(-0.021084008 0.033092709 0)
(-0.036672999 0.039634891 0)
(-0.053511521 0.04252659 0)
(-0.070497711 0.042146021 0)
(-0.086589144 0.03871037 0)
(-0.10078069 0.032302434 0)
(-0.11208331 0.023012021 0)
(-0.11954003 0.011119968 0)
(-0.1222972 -0.0027373999 0)
(-0.11969891 -0.017471235 0)
(-0.11143985 -0.031509702 0)
(-0.097757937 -0.04293009 0)
(-0.07959396 -0.049735756 0)
(-0.058717428 -0.050335432 0)
(-0.037647594 -0.044165973 0)
(-0.019213169 -0.032243574 0)
(-0.0060062872 -0.017304294 0)
(-0.00050703833 -0.0035390054 0)
(-0.0017304842 0.013082248 0)
(-0.0099559766 0.033950585 0)
(-0.02504817 0.048495617 0)
(-0.043206203 0.057179171 0)
(-0.062666307 0.060811125 0)
(-0.082257208 0.060018943 0)
(-0.10091145 0.055129037 0)
(-0.11761192 0.046252759 0)
(-0.13133929 0.03348659 0)
(-0.14105621 0.017146837 0)
(-0.14575453 -0.0020148183 0)
(-0.14452528 -0.022643642 0)
(-0.13672275 -0.042768465 0)
(-0.12221563 -0.05982282 0)
(-0.101649 -0.07095149 0)
(-0.076749234 -0.073605916 0)
(-0.050424735 -0.066445416 0)
(-0.026383105 -0.050296509 0)
(-0.0084791058 -0.028592544 0)
(-0.00077560094 -0.0070163023 0)
(-0.0019804796 0.018863341 0)
(-0.011280016 0.047134882 0)
(-0.028216756 0.066103239 0)
(-0.048471302 0.077102536 0)
(-0.070108697 0.081527744 0)
(-0.091932594 0.080345761 0)
(-0.11290311 0.074031503 0)
(-0.13204877 0.062722206 0)
(-0.14837535 0.046481128 0)
(-0.16080339 0.025586077 0)
(-0.16815596 0.00079877367 0)
(-0.16925894 -0.026400918 0)
(-0.16305374 -0.053711109 0)
(-0.14884769 -0.077932422 0)
(-0.12675197 -0.095202164 0)
(-0.09818031 -0.10164119 0)
(-0.066240698 -0.094555724 0)
(-0.035579234 -0.074007841 0)
(-0.011747772 -0.043922451 0)
(-0.0011508126 -0.011887332 0)
(-0.002144839 0.025263291 0)
(-0.012185077 0.061651246 0)
(-0.030422245 0.085403046 0)
(-0.052171357 0.098881305 0)
(-0.075384678 0.10419355 0)
(-0.09888208 0.10273387 0)
(-0.12170124 0.095169862 0)
(-0.14297525 0.081665285 0)
(-0.16179912 0.062206817 0)
(-0.17711904 0.036946123 0)
(-0.18767203 0.0065194155 0)
(-0.19202565 -0.027657179 0)
(-0.18866805 -0.063086995 0)
(-0.17625031 -0.096051303 0)
(-0.15408853 -0.12162369 0)
(-0.12289106 -0.1342385 0)
(-0.085542309 -0.12911222 0)
(-0.047430382 -0.10458712 0)
(-0.016199378 -0.064478492 0)
(-0.0017236577 -0.018659418 0)
(-0.0022126144 0.032031229 0)
(-0.012618229 0.076996202 0)
(-0.031526278 0.10576908 0)
(-0.054031506 0.12183671 0)
(-0.078023316 0.12812394 0)
(-0.10237227 0.12653818 0)
(-0.12623997 0.11799267 0)
(-0.14892585 0.1026904 0)
(-0.16969474 0.080508233 0)
(-0.18762212 0.051384975 0)
(-0.20148008 0.015688477 0)
(-0.20968907 -0.025401894 0)
(-0.21036668 -0.069448794 0)
(-0.20149451 -0.11247106 0)
(-0.1813842 -0.14860069 0)
(-0.14958159 -0.17038244 0)
(-0.10806692 -0.17016065 0)
(-0.06234413 -0.14315502 0)
(-0.02225386 -0.091727992 0)
(-0.0026171052 -0.02807237 0)
(-0.0021859655 0.038896146 0)
(-0.012579337 0.092617176 0)
(-0.031488163 0.12647529 0)
(-0.053895184 0.14512127 0)
(-0.077663069 0.15238739 0)
(-0.10174232 0.15078355 0)
(-0.12546217 0.14153505 0)
(-0.14835096 0.12491833 0)
(-0.16993421 0.10069518 0)
(-0.18954654 0.068537992 0)
(-0.20615995 0.028431239 0)
(-0.2182347 -0.018884066 0)
(-0.22374953 -0.071328723 0)
(-0.22016547 -0.1250604 0)
(-0.20471599 -0.17364733 0)
(-0.17538921 -0.20787235 0)
(-0.13241212 -0.21662774 0)
(-0.080246108 -0.19027385 0)
(-0.030347729 -0.12725933 0)
(-0.0040158753 -0.041135014 0)
(-0.0020959087 0.045610897 0)
(-0.012174187 0.10797824 0)
(-0.030458601 0.14674437 0)
(-0.051852653 0.16774009 0)
(-0.074218269 0.17580209 0)
(-0.096622229 0.17414132 0)
(-0.11860988 0.1643757 0)
(-0.1400003 0.14691344 0)
(-0.16066686 0.12143416 0)
(-0.18033351 0.087345349 0)
(-0.19836519 0.044205384 0)
(-0.21350148 -0.0078429616 0)
(-0.22392437 -0.067578174 0)
(-0.22689164 -0.13158038 0)
(-0.21874389 -0.19354985 0)
(-0.19576524 -0.24313549 0)
(-0.15563744 -0.26575187 0)
(-0.10019401 -0.24524879 0)
(-0.040862919 -0.17243966 0)
(-0.0062059744 -0.059169842 0)
(-0.0020259991 0.052033838 0)
(-0.01168427 0.1226731 0)
(-0.028889132 0.16583501 0)
(-0.048377217 0.18860835 0)
(-0.068045106 0.19697932 0)
(-0.08714764 0.19497298 0)
(-0.1055165 0.18468466 0)
(-0.12332415 0.16672494 0)
(-0.14085695 0.14075301 0)
(-0.15830985 0.10595585 0)
(-0.17560264 0.061462434 0)
(-0.19220336 0.0067340962 0)
(-0.20666086 -0.057949243 0)
(-0.21637205 -0.13026096 0)
(-0.21748701 -0.20488049 0)
(-0.2048296 -0.27144083 0)
(-0.1731143 -0.31274097 0)
(-0.11992645 -0.30529277 0)
(-0.053927383 -0.22779283 0)
(-0.0096063188 -0.083838194 0)
(-0.0021552762 0.058265163 0)
(-0.0116662 0.13658669 0)
(-0.027649528 0.18315304 0)
(-0.044433707 0.20662546 0)
(-0.06004308 0.21439645 0)
(-0.074076808 0.21143034 0)
(-0.086772225 0.20036432 0)
(-0.098728525 0.1820667 0)
(-0.11069259 0.15624343 0)
(-0.12338693 0.12194079 0)
(-0.13736345 0.077925341 0)
(-0.1528161 0.023035046 0)
(-0.16913992 -0.043309884 0)
(-0.18454076 -0.12044999 0)
(-0.19551818 -0.20486027 0)
(-0.19626035 -0.28766754 0)
(-0.17883663 -0.35098798 0)
(-0.13553036 -0.36485949 0)
(-0.068995019 -0.29204041 0)
(-0.014735659 -0.117061 0)
(-0.0028452923 0.064876439 0)
(-0.013108441 0.15009486 0)
(-0.028137165 0.19833917 0)
(-0.041493376 0.2207115 0)
(-0.051580877 0.22644604 0)
(-0.05865137 0.22155608 0)
(-0.063541072 0.2092186 0)
(-0.067363795 0.19055733 0)
(-0.071341137 0.16535744 0)
(-0.076696663 0.1326155 0)
(-0.084577272 0.090886536 0)
(-0.095921545 0.038554068 0)
(-0.1111378 -0.025850311 0)
(-0.12965361 -0.10320396 0)
(-0.1491545 -0.19237459 0)
(-0.1644444 -0.28756233 0)
(-0.16617843 -0.37305204 0)
(-0.14142197 -0.41559148 0)
(-0.08414745 -0.3608951 0)
(-0.021981069 -0.16062125 0)
(-0.0048110078 0.073324787 0)
(-0.017671304 0.16426803 0)
(-0.032291583 0.21122978 0)
(-0.041262912 0.22969801 0)
(-0.043984475 0.23136091 0)
(-0.041894903 0.22328312 0)
(-0.036701277 0.20903587 0)
(-0.030129183 0.18988519 0)
(-0.023856262 0.16564586 0)
(-0.019515394 0.13530987 0)
(-0.018724814 0.097352431 0)
(-0.02304958 0.049931329 0)
(-0.033854433 -0.0089730384 0)
(-0.051923768 -0.081426463 0)
(-0.076770332 -0.16868378 0)
(-0.10523195 -0.269085 0)
(-0.12868859 -0.37224356 0)
(-0.13057028 -0.44713855 0)
(-0.095192026 -0.42598029 0)
(-0.030948213 -0.21525355 0)
(-0.009389775 0.086706755 0)
(-0.027899245 0.18091129 0)
(-0.042058138 0.22149094 0)
(-0.044395395 0.23191012 0)
(-0.03670877 0.22688756 0)
(-0.022417966 0.21423124 0)
(-0.0043959393 0.19750064 0)
(0.01496149 0.17780675 0)
(0.033592728 0.15487991 0)
(0.049607639 0.12767674 0)
(0.06110422 0.0946859 0)
(0.066116989 0.054067411 0)
(0.062553756 0.0036705318 0)
(0.048465257 -0.059118513 0)
(0.02236644 -0.13724937 0)
(-0.015624068 -0.23317312 0)
(-0.060254921 -0.34424473 0)
(-0.094486908 -0.44858587 0)
(-0.094879233 -0.47456426 0)
(-0.039284792 -0.27979338 0)
(-0.01864182 0.11086814 0)
(-0.046420416 0.2013342 0)
(-0.056164696 0.22700206 0)
(-0.045527938 0.2237585 0)
(-0.021497586 0.20925082 0)
(0.0097102442 0.19102566 0)
(0.043998477 0.17180176 0)
(0.078529431 0.15204051 0)
(0.11112841 0.13115438 0)
(0.13989626 0.108 0)
(0.16292522 0.081139284 0)
(0.17813669 0.048906692 0)
(0.18303209 0.009371947 0)
(0.17493694 -0.039891282 0)
(0.15084615 -0.10235122 0)
(0.1078896 -0.18324053 0)
(0.045946822 -0.28803326 0)
(-0.022342065 -0.41002095 0)
(-0.072674574 -0.49047106 0)
(-0.041240919 -0.35010879 0)
(-0.033354654 0.15575864 0)
(-0.06876809 0.22032842 0)
(-0.055725712 0.21687813 0)
(-0.01708464 0.19463009 0)
(0.033005939 0.17009474 0)
(0.086533948 0.14768412 0)
(0.13941288 0.12794257 0)
(0.18935201 0.11013104 0)
(0.23480036 0.093118473 0)
(0.27439581 0.075666155 0)
(0.30663381 0.056509841 0)
(0.32969566 0.034328647 0)
(0.3411304 0.0076338751 0)
(0.33810763 -0.025306085 0)
(0.31673185 -0.067217389 0)
(0.27216265 -0.12371929 0)
(0.19957315 -0.20560873 0)
(0.10150821 -0.32488856 0)
(-0.012713816 -0.45437585 0)
(-0.023840146 -0.40846652 0)
(-0.033036894 0.23921614 0)
(-0.042571069 0.21801548 0)
(0.04216179 0.16418741 0)
(0.12728642 0.12758898 0)
(0.20702094 0.1010865 0)
(0.27921412 0.081288089 0)
(0.3434486 0.066327391 0)
(0.39988526 0.054482286 0)
(0.44869456 0.044306703 0)
(0.48973377 0.034679774 0)
(0.52236731 0.02470635 0)
(0.54539157 0.013619401 0)
(0.55687683 0.00067150732 0)
(0.55464207 -0.01486317 0)
(0.53474325 -0.034733455 0)
(0.49190179 -0.062326024 0)
(0.41759875 -0.10687003 0)
(0.30384697 -0.19315 0)
(0.12298767 -0.33690277 0)
(0.052325033 -0.39436407 0)
(0.24304975 0.15262419 0)
(0.30543282 0.11861201 0)
(0.4549662 0.076136068 0)
(0.56008196 0.050820134 0)
(0.63213954 0.035069467 0)
(0.68624427 0.024739803 0)
(0.72892747 0.017892656 0)
(0.76312484 0.013209735 0)
(0.79051695 0.0097466198 0)
(0.81197741 0.0068714499 0)
(0.82769925 0.0041629582 0)
(0.83735195 0.0013381015 0)
(0.8401377 -0.0017918227 0)
(0.83471909 -0.0052713886 0)
(0.81875306 -0.0097802577 0)
(0.78941405 -0.016202806 0)
(0.73787643 -0.026926986 0)
(0.65320111 -0.051292512 0)
(0.45611142 -0.11375797 0)
(0.31789022 -0.17207021 0)
)
;

boundaryField
{
    movingWall
    {
        type            fixedValue;
        value           uniform (1 0 0);
    }
    fixedWalls
    {
        type            fixedValue;
        value           uniform (0 0 0);
    }
    frontAndBack
    {
        type            empty;
    }
}


// ************************************************************************* //
