/*--------------------------------*- C++ -*----------------------------------*\
| =========                 |                                                 |
| \\      /  F ield         | OpenFOAM: The Open Source CFD Toolbox           |
|  \\    /   O peration     | Version:  2112                                  |
|   \\  /    A nd           | Website:  www.openfoam.com                      |
|    \\/     M anipulation  |                                                 |
\*---------------------------------------------------------------------------*/
FoamFile
{
    version     2.0;
    format      ascii;
    arch        "LSB;label=32;scalar=64";
    class       volScalarField;
    location    "45";
    object      T;
}
// * * * * * * * * * * * * * * * * * * * * * * * * * * * * * * * * * * * * * //

dimensions      [0 0 0 1 0 0 0];

internalField   nonuniform List<scalar> 
10000
(
2.11342e-14
1.87732e-14
1.62125e-14
1.40972e-14
1.23935e-14
1.11999e-14
1.05694e-14
1.04893e-14
1.10339e-14
1.18793e-14
1.24449e-13
1.09905e-13
9.4654e-14
8.19266e-14
7.17845e-14
6.47695e-14
6.11415e-14
6.08435e-14
6.41241e-14
6.94012e-14
4.20231e-13
3.67814e-13
3.13937e-13
2.6916e-13
2.34384e-13
2.10885e-13
1.99216e-13
1.99428e-13
2.11722e-13
2.30942e-13
1.27191e-12
1.1067e-12
9.35001e-13
7.92953e-13
6.85253e-13
6.14245e-13
5.80787e-13
5.85055e-13
6.26019e-13
6.8613e-13
3.69606e-12
3.20508e-12
2.68387e-12
2.25319e-12
1.93215e-12
1.72471e-12
1.63138e-12
1.65124e-12
1.77718e-12
1.95235e-12
1.05274e-11
9.10928e-12
7.57443e-12
6.30418e-12
5.36733e-12
4.77047e-12
4.50964e-12
4.57756e-12
4.94359e-12
5.43445e-12
2.96008e-11
2.55761e-11
2.11568e-11
1.74867e-11
1.4794e-11
1.30912e-11
1.23538e-11
1.25491e-11
1.35684e-11
1.49081e-11
8.23918e-11
7.11221e-11
5.86185e-11
4.81888e-11
4.05462e-11
3.57174e-11
3.36068e-11
3.40934e-11
3.68338e-11
4.04158e-11
2.2739e-10
1.96177e-10
1.61273e-10
1.32029e-10
1.10564e-10
9.69426e-11
9.08451e-11
9.18746e-11
9.90196e-11
1.08428e-10
6.22968e-10
5.37297e-10
4.4092e-10
3.59803e-10
3.00041e-10
2.618e-10
2.44093e-10
2.45714e-10
2.63821e-10
2.88131e-10
1.69557e-09
1.46226e-09
1.19855e-09
9.75553e-10
8.10403e-10
7.03514e-10
6.52017e-10
6.52421e-10
6.97016e-10
7.58819e-10
4.58749e-09
3.9565e-09
3.24055e-09
2.63212e-09
2.17875e-09
1.8812e-09
1.73162e-09
1.72024e-09
1.82657e-09
1.98118e-09
1.2343e-08
1.06473e-08
8.71677e-09
7.06766e-09
5.83048e-09
5.00572e-09
4.57258e-09
4.50464e-09
4.74822e-09
5.12855e-09
3.30359e-08
2.85049e-08
2.33301e-08
1.88888e-08
1.55309e-08
1.32556e-08
1.20069e-08
1.17151e-08
1.22448e-08
1.31608e-08
8.79726e-08
7.59329e-08
6.2141e-08
5.02516e-08
4.11863e-08
3.49383e-08
3.13555e-08
3.02607e-08
3.13239e-08
3.34763e-08
2.33091e-07
2.01271e-07
1.64734e-07
1.33102e-07
1.08753e-07
9.16771e-08
8.1451e-08
7.76391e-08
7.94793e-08
8.43815e-08
6.14444e-07
5.30799e-07
4.34702e-07
3.51068e-07
2.86009e-07
2.39541e-07
2.10506e-07
1.9788e-07
1.99982e-07
2.10705e-07
1.61087e-06
1.39268e-06
1.14186e-06
9.22189e-07
7.49369e-07
6.23389e-07
5.4136e-07
5.01066e-07
4.98864e-07
5.20948e-07
4.19786e-06
3.63426e-06
2.98487e-06
2.41253e-06
1.95656e-06
1.6165e-06
1.38595e-06
1.26066e-06
1.23351e-06
1.27431e-06
1.08677e-05
9.42602e-06
7.76127e-06
6.2847e-06
5.09118e-06
4.17867e-06
3.5343e-06
3.15231e-06
3.02231e-06
3.0823e-06
2.79196e-05
2.42713e-05
2.00587e-05
1.6296e-05
1.32014e-05
1.07714e-05
8.98203e-06
7.83656e-06
7.3363e-06
7.36598e-06
7.10395e-05
6.19559e-05
5.14749e-05
4.20315e-05
3.41065e-05
2.76931e-05
2.27616e-05
1.93811e-05
1.76407e-05
1.7375e-05
0.000178596
0.000156484
0.000130968
0.00010773
8.77676e-05
7.10329e-05
5.75687e-05
4.77432e-05
4.20332e-05
4.04266e-05
0.000442288
0.000389963
0.000329606
0.000273943
0.000224747
0.000181781
0.000145477
0.000117343
9.93539e-05
9.27296e-05
0.00107435
0.000955158
0.000817816
0.000689247
0.000571603
0.000463794
0.000367613
0.000288436
0.000233472
0.000209661
0.00254574
0.00228795
0.00199144
0.00170892
0.00143922
0.00117753
0.000929208
0.000711312
0.000547765
0.000467818
0.00584549
0.00532589
0.00473044
0.00415126
0.00356891
0.00296378
0.00234701
0.00176617
0.00129272
0.00103365
0.0129064
0.0119567
0.0108768
0.0098016
0.00864828
0.0073461
0.00590285
0.00442973
0.003114
0.00229162
0.0271676
0.0256613
0.0239797
0.0222617
0.0202538
0.017738
0.0146568
0.0112015
0.00778465
0.00523564
0.0540366
0.0521469
0.0501356
0.0480197
0.0451853
0.041085
0.035438
0.028395
0.0210714
0.0141326
1.90597e-14
1.69947e-14
1.4729e-14
1.28417e-14
1.13102e-14
1.02345e-14
9.65598e-15
9.57025e-15
1.00347e-14
1.07513e-14
1.11571e-13
9.91929e-14
8.58233e-14
7.44964e-14
6.54028e-14
5.90937e-14
5.57733e-14
5.54315e-14
5.81801e-14
6.24672e-14
3.73387e-13
3.29867e-13
2.83339e-13
2.43685e-13
2.12645e-13
1.91565e-13
1.81005e-13
1.80944e-13
1.91015e-13
2.06156e-13
1.12305e-12
9.8774e-13
8.41055e-13
7.16081e-13
6.20309e-13
5.56746e-13
5.26544e-13
5.29222e-13
5.62078e-13
6.09101e-13
3.25149e-12
2.85181e-12
2.41021e-12
2.03362e-12
1.74892e-12
1.56348e-12
1.4787e-12
1.49178e-12
1.59121e-12
1.72742e-12
9.24049e-12
8.09048e-12
6.79906e-12
5.69363e-12
4.86424e-12
4.33044e-12
4.09143e-12
4.13494e-12
4.42014e-12
4.79952e-12
2.59494e-11
2.26916e-11
1.89895e-11
1.58073e-11
1.34271e-11
1.19024e-11
1.12208e-11
1.13374e-11
1.21227e-11
1.31555e-11
7.21879e-11
6.30716e-11
5.26179e-11
4.35988e-11
3.68509e-11
3.25222e-11
3.0558e-11
3.08117e-11
3.29005e-11
3.56594e-11
1.99195e-10
1.73942e-10
1.44796e-10
1.19553e-10
1.00616e-10
8.83922e-11
8.26937e-11
8.30771e-11
8.84615e-11
9.56996e-11
5.45763e-10
4.76416e-10
3.95992e-10
3.26051e-10
2.73354e-10
2.39005e-10
2.22429e-10
2.22349e-10
2.35814e-10
2.54481e-10
1.48579e-09
1.29681e-09
1.07683e-09
8.84635e-10
7.39056e-10
6.42969e-10
5.94768e-10
5.9092e-10
6.23513e-10
6.70853e-10
4.02138e-09
3.50987e-09
2.91252e-09
2.38819e-09
1.98854e-09
1.72098e-09
1.58119e-09
1.55965e-09
1.63562e-09
1.75358e-09
1.08247e-08
9.44878e-09
7.83679e-09
6.41608e-09
5.32484e-09
4.58352e-09
4.17973e-09
4.08841e-09
4.25723e-09
4.54536e-09
2.89875e-08
2.53078e-08
2.09843e-08
1.71576e-08
1.41938e-08
1.21488e-08
1.09877e-08
1.06464e-08
1.09956e-08
1.16838e-08
7.72398e-08
6.74533e-08
5.59235e-08
4.56768e-08
3.76686e-08
3.20525e-08
2.87304e-08
2.75422e-08
2.81802e-08
2.97799e-08
2.04792e-07
1.78916e-07
1.48361e-07
1.21081e-07
9.95545e-08
8.41951e-08
7.47353e-08
7.07949e-08
7.16586e-08
7.52479e-08
5.40218e-07
4.72238e-07
3.91839e-07
3.19641e-07
2.62109e-07
2.20236e-07
1.9343e-07
1.80829e-07
1.80768e-07
1.88426e-07
1.41755e-06
1.24005e-06
1.03011e-06
8.40452e-07
6.87602e-07
5.73966e-07
4.98374e-07
4.58998e-07
4.52304e-07
4.67385e-07
3.69852e-06
3.23933e-06
2.69559e-06
2.20133e-06
1.79778e-06
1.4911e-06
1.27899e-06
1.1582e-06
1.12245e-06
1.14798e-06
9.58802e-06
8.41319e-06
7.01869e-06
5.74298e-06
4.68522e-06
3.86256e-06
3.27051e-06
2.90611e-06
2.76206e-06
2.79022e-06
2.46707e-05
2.17009e-05
1.81739e-05
1.49193e-05
1.21743e-05
9.98114e-06
8.33801e-06
7.25525e-06
6.73872e-06
6.70687e-06
6.29202e-05
5.55344e-05
4.67637e-05
3.85824e-05
3.15468e-05
2.57466e-05
2.12171e-05
1.80408e-05
1.6307e-05
1.59353e-05
0.00015873
0.000140752
0.000119396
9.92435e-05
8.14883e-05
6.63281e-05
5.39482e-05
4.47359e-05
3.91643e-05
3.74026e-05
0.000394857
0.000352341
0.000301828
0.000253499
0.000209653
0.00017065
0.000137209
0.000110831
9.34605e-05
8.66873e-05
0.00096474
0.000868064
0.000753184
0.000641436
0.000536368
0.000438268
0.000349442
0.000275067
0.00022216
0.000198402
0.00230337
0.00209506
0.00184745
0.0016018
0.00136051
0.00112177
0.000891705
0.000686264
0.000528437
0.00044894
0.0053401
0.00492383
0.00442865
0.00392591
0.00340472
0.00285152
0.00227812
0.00172771
0.00126737
0.00100733
0.0119318
0.0111857
0.0102973
0.0093708
0.00834235
0.00715204
0.00580641
0.00440281
0.00310985
0.00226997
0.0254754
0.0243476
0.0230045
0.0215575
0.0197929
0.0175086
0.0146356
0.0113393
0.00791713
0.00526049
0.0515003
0.0502767
0.048821
0.0471732
0.0447996
0.0411695
0.0359596
0.0293016
0.021975
0.0142956
1.70126e-14
1.52294e-14
1.32452e-14
1.15828e-14
1.02248e-14
9.26417e-15
8.73999e-15
8.64952e-15
9.04601e-15
9.65787e-15
9.93214e-14
8.87359e-14
7.71005e-14
6.71526e-14
5.91035e-14
5.34729e-14
5.04679e-14
5.00687e-14
5.23757e-14
5.59838e-14
3.29413e-13
2.92958e-13
2.53038e-13
2.18533e-13
1.91264e-13
1.72576e-13
1.63041e-13
1.626e-13
1.70797e-13
1.83219e-13
9.81098e-13
8.69734e-13
7.46284e-13
6.38915e-13
5.55514e-13
4.99547e-13
4.72222e-13
4.72964e-13
4.98763e-13
5.36254e-13
2.81684e-12
2.49318e-12
2.12777e-12
1.80816e-12
1.56216e-12
1.39955e-12
1.32243e-12
1.32757e-12
1.40313e-12
1.50898e-12
7.95405e-12
7.03653e-12
5.98155e-12
5.0528e-12
4.34076e-12
3.87363e-12
3.65432e-12
3.66967e-12
3.88003e-12
4.16844e-12
2.2236e-11
1.96651e-11
1.66694e-11
1.4017e-11
1.19837e-11
1.06505e-11
1.00196e-11
1.00462e-11
1.06097e-11
1.13815e-11
6.16732e-11
5.45293e-11
4.61301e-11
3.86565e-11
3.29125e-11
2.9128e-11
2.72982e-11
2.72861e-11
2.87462e-11
3.07805e-11
1.69871e-10
1.50173e-10
1.26867e-10
1.06031e-10
8.99474e-11
7.92581e-11
7.39334e-11
7.35786e-11
7.72424e-11
8.25214e-11
4.64962e-10
4.1103e-10
3.46908e-10
2.89321e-10
2.44617e-10
2.14571e-10
1.99078e-10
1.97051e-10
2.05941e-10
2.1942e-10
1.26533e-09
1.1186e-09
9.43465e-10
7.85456e-10
6.62003e-10
5.77943e-10
5.32982e-10
5.24208e-10
5.44952e-10
5.788e-10
3.42477e-09
3.02793e-09
2.55264e-09
2.12188e-09
1.78292e-09
1.54883e-09
1.41886e-09
1.38542e-09
1.43142e-09
1.51488e-09
9.22178e-09
8.15453e-09
6.87235e-09
5.705e-09
4.77923e-09
4.1303e-09
3.75631e-09
3.638e-09
3.73257e-09
3.9341e-09
2.47083e-08
2.18537e-08
1.84146e-08
1.5269e-08
1.27534e-08
1.09622e-08
9.89126e-09
9.49304e-09
9.66274e-09
1.01373e-08
6.5883e-08
5.82888e-08
4.91171e-08
4.06881e-08
3.38871e-08
2.89642e-08
2.59121e-08
2.46184e-08
2.48337e-08
2.5916e-08
1.74835e-07
1.54743e-07
1.3043e-07
1.07975e-07
8.96827e-08
7.62086e-08
6.75515e-08
6.34597e-08
6.336e-08
6.57219e-08
4.61724e-07
4.0888e-07
3.4486e-07
2.8541e-07
2.36477e-07
1.99753e-07
1.75308e-07
1.62631e-07
1.60475e-07
1.65294e-07
1.21324e-06
1.07525e-06
9.07923e-07
7.51618e-07
6.21479e-07
5.21839e-07
4.53123e-07
4.14479e-07
4.03471e-07
4.12193e-07
3.17092e-06
2.81369e-06
2.3801e-06
1.9724e-06
1.6285e-06
1.35946e-06
1.16714e-06
1.05092e-06
1.00703e-06
1.01887e-06
8.23887e-06
7.32342e-06
6.21156e-06
5.15835e-06
4.25642e-06
3.53384e-06
2.99796e-06
2.65241e-06
2.49531e-06
2.49552e-06
2.12638e-05
1.89464e-05
1.61328e-05
1.34442e-05
1.11011e-05
9.17262e-06
7.68661e-06
6.66932e-06
6.13993e-06
6.05444e-06
5.44461e-05
4.86726e-05
4.1671e-05
3.49116e-05
2.8897e-05
2.37918e-05
1.96947e-05
1.67259e-05
1.50097e-05
1.45446e-05
0.000138043
0.000123963
0.000106919
9.02659e-05
7.50703e-05
6.17037e-05
5.04926e-05
4.19034e-05
3.64854e-05
3.45851e-05
0.00034563
0.000312282
0.00027201
0.000232086
0.000194523
0.000160063
0.000129711
0.000105102
8.83234e-05
8.1383e-05
0.000851532
0.000775662
0.000684303
0.000592125
0.000502065
0.000415199
0.00033432
0.00026469
0.000213517
0.000189535
0.00205464
0.00189149
0.0016957
0.00149388
0.00128721
0.00107542
0.000865134
0.000671705
0.000517898
0.000437358
0.0048264
0.00450301
0.00411638
0.00370724
0.0032625
0.00277152
0.00224557
0.0017238
0.00127
0.00100278
0.0109574
0.0103912
0.00971738
0.00897998
0.00811209
0.00705899
0.00582268
0.00448387
0.00319275
0.00231432
0.0238401
0.0230411
0.0220955
0.0210079
0.0195626
0.0175666
0.0149377
0.0117852
0.00833358
0.00550277
0.0492406
0.0485917
0.0478227
0.046815
0.0450419
0.0419919
0.0373158
0.0309947
0.0236634
0.0154
1.56489e-14
1.4045e-14
1.22491e-14
1.07409e-14
9.50244e-15
8.61972e-15
8.13139e-15
8.036e-15
8.38732e-15
8.93682e-15
9.09797e-14
8.15049e-14
7.1042e-14
6.20578e-14
5.47474e-14
4.95929e-14
4.68022e-14
4.63605e-14
4.83795e-14
5.16039e-14
2.99157e-13
2.66831e-13
2.31362e-13
2.00521e-13
1.75984e-13
1.59022e-13
1.50202e-13
1.49501e-13
1.5654e-13
1.67523e-13
8.82388e-13
7.85077e-13
6.77079e-13
5.82357e-13
5.08093e-13
4.57699e-13
4.32447e-13
4.31897e-13
4.53439e-13
4.8588e-13
2.51141e-12
2.233e-12
1.9183e-12
1.63996e-12
1.423e-12
1.27745e-12
1.20594e-12
1.20576e-12
1.26679e-12
1.35623e-12
7.04082e-12
6.26317e-12
5.36736e-12
4.56784e-12
3.94491e-12
3.52843e-12
3.32386e-12
3.32021e-12
3.48418e-12
3.72216e-12
1.95755e-11
1.74244e-11
1.49104e-11
1.26483e-11
1.08805e-11
9.6946e-12
9.10261e-12
9.06816e-12
9.49168e-12
1.01148e-11
5.4085e-11
4.81681e-11
4.11823e-11
3.48523e-11
2.98804e-11
2.65178e-11
2.47941e-11
2.46013e-11
2.56588e-11
2.72707e-11
1.48596e-10
1.32402e-10
1.1314e-10
9.55774e-11
8.16948e-11
7.22018e-11
6.71777e-11
6.63217e-11
6.88731e-11
7.29899e-11
4.06119e-10
3.62007e-10
3.09239e-10
2.60845e-10
2.22321e-10
1.95641e-10
1.8103e-10
1.77687e-10
1.83604e-10
1.93974e-10
1.10435e-09
9.84742e-10
8.40997e-10
7.08449e-10
6.02139e-10
5.27491e-10
4.85175e-10
4.73122e-10
4.86149e-10
5.11865e-10
2.98836e-09
2.66552e-09
2.27601e-09
1.91496e-09
1.6231e-09
1.4152e-09
1.29324e-09
1.25205e-09
1.27854e-09
1.34119e-09
8.04784e-09
7.18053e-09
6.13047e-09
5.15222e-09
4.35493e-09
3.77848e-09
3.42877e-09
3.29331e-09
3.33981e-09
3.48916e-09
2.15721e-08
1.9253e-08
1.64371e-08
1.38005e-08
1.16332e-08
1.00418e-08
9.04401e-09
8.61114e-09
8.66563e-09
9.01202e-09
5.75581e-08
5.13876e-08
4.38769e-08
3.68093e-08
3.09466e-08
2.6572e-08
2.3739e-08
2.2386e-08
2.23335e-08
2.31077e-08
1.52874e-07
1.36542e-07
1.16628e-07
9.77904e-08
8.20115e-08
7.00366e-08
6.20285e-08
5.7873e-08
5.7175e-08
5.88142e-08
4.04169e-07
3.61199e-07
3.08741e-07
2.58839e-07
2.16597e-07
1.83955e-07
1.61414e-07
1.48828e-07
1.45403e-07
1.48576e-07
1.06351e-06
9.51237e-07
8.1406e-07
6.82782e-07
5.70349e-07
4.81756e-07
4.1856e-07
3.80869e-07
3.6737e-07
3.7248e-07
2.78466e-06
2.49369e-06
2.13806e-06
1.79547e-06
1.49814e-06
1.25881e-06
1.0823e-06
9.70478e-07
9.22301e-07
9.26587e-07
7.25231e-06
6.50546e-06
5.5932e-06
4.70779e-06
3.92748e-06
3.2843e-06
2.79314e-06
2.46393e-06
2.30138e-06
2.28678e-06
1.87742e-05
1.68801e-05
1.45708e-05
1.23101e-05
1.02814e-05
8.56348e-06
7.20223e-06
6.23927e-06
5.70993e-06
5.59804e-06
4.82573e-05
4.35285e-05
3.77816e-05
3.20983e-05
2.68872e-05
2.23344e-05
1.85797e-05
1.57792e-05
1.40956e-05
1.35902e-05
0.00012296
0.000111399
9.74185e-05
8.3423e-05
7.02498e-05
5.83123e-05
4.80235e-05
3.99257e-05
3.46575e-05
3.27105e-05
0.000309819
0.000282376
0.000249392
0.000215883
0.000183311
0.000152485
0.00012456
0.000101309
8.50139e-05
7.80407e-05
0.000769433
0.000706895
0.000632315
0.000555179
0.000477128
0.000399291
0.000324638
0.00025855
0.000208624
0.000184559
0.00187512
0.00174065
0.00158198
0.00141415
0.00123543
0.00104544
0.000850641
0.000665927
0.000514542
0.000433027
0.00445842
0.00419342
0.003885
0.00354916
0.00316681
0.00272656
0.00223785
0.00173629
0.00128482
0.00101072
0.0102692
0.00981469
0.00929638
0.00870846
0.00797268
0.00703244
0.00588266
0.00458909
0.00329045
0.00237648
0.0227198
0.0221214
0.0214651
0.0206627
0.0194799
0.0177213
0.0152863
0.0122346
0.00874144
0.00576197
0.0478118
0.0475054
0.0472345
0.0467296
0.045441
0.04286
0.038604
0.0325429
0.0251867
0.0164457
1.49103e-14
1.34021e-14
1.17063e-14
1.02791e-14
9.10557e-15
8.26552e-15
7.79701e-15
7.70091e-15
8.02877e-15
8.54444e-15
8.64919e-14
7.76077e-14
6.77586e-14
5.9285e-14
5.2374e-14
4.74785e-14
4.48043e-14
4.43463e-14
4.62197e-14
4.92379e-14
2.83248e-13
2.52933e-13
2.1979e-13
1.90889e-13
1.67813e-13
1.51771e-13
1.43327e-13
1.4249e-13
1.48937e-13
1.59244e-13
8.31101e-13
7.4054e-13
6.40364e-13
5.52227e-13
4.82805e-13
4.35366e-13
4.11208e-13
4.10027e-13
4.29506e-13
4.59623e-13
2.35357e-12
2.09669e-12
1.80712e-12
1.55009e-12
1.34849e-12
1.212e-12
1.14351e-12
1.14081e-12
1.19504e-12
1.27702e-12
6.5699e-12
5.85813e-12
5.04057e-12
4.30754e-12
3.73177e-12
3.34236e-12
3.1459e-12
3.13331e-12
3.27582e-12
3.4912e-12
1.82041e-11
1.62495e-11
1.39719e-11
1.19105e-11
1.02835e-11
9.1767e-12
8.60664e-12
8.5436e-12
8.90237e-12
9.45912e-12
5.01705e-11
4.48273e-11
3.85359e-11
3.27949e-11
2.82328e-11
2.50978e-11
2.34351e-11
2.31579e-11
2.40287e-11
2.54518e-11
1.37608e-10
1.23054e-10
1.05784e-10
8.99086e-11
7.7196e-11
6.83506e-11
6.35016e-11
6.24131e-11
6.44477e-11
6.80431e-11
3.75691e-10
3.3618e-10
2.89018e-10
2.45373e-10
2.10138e-10
1.85285e-10
1.71191e-10
1.67244e-10
1.71779e-10
1.80748e-10
1.02099e-09
9.14137e-10
7.85937e-10
6.66549e-10
5.69374e-10
4.99846e-10
4.59077e-10
4.45542e-10
4.54989e-10
4.77042e-10
2.76208e-09
2.47423e-09
2.12726e-09
1.80227e-09
1.53554e-09
1.34189e-09
1.2246e-09
1.18e-09
1.19748e-09
1.25077e-09
7.43863e-09
6.66612e-09
5.73133e-09
4.85101e-09
4.12232e-09
3.5854e-09
3.24975e-09
3.10707e-09
3.13154e-09
3.25747e-09
1.99441e-08
1.78792e-08
1.53727e-08
1.30001e-08
1.10188e-08
9.53656e-09
8.58099e-09
8.13474e-09
8.13699e-09
8.42616e-09
5.32375e-08
4.77416e-08
4.1056e-08
3.46949e-08
2.93341e-08
2.52594e-08
2.25519e-08
2.11806e-08
2.10087e-08
2.16466e-08
1.41481e-07
1.26927e-07
1.09198e-07
9.22388e-08
7.78059e-08
6.66518e-08
5.9014e-08
5.48592e-08
5.39008e-08
5.52242e-08
3.74314e-07
3.36004e-07
2.89298e-07
2.44359e-07
2.05705e-07
1.75299e-07
1.53839e-07
1.41392e-07
1.37436e-07
1.39903e-07
9.8581e-07
8.85705e-07
7.63553e-07
6.4529e-07
5.42363e-07
4.5983e-07
3.99754e-07
3.628e-07
3.48328e-07
3.51927e-07
2.58413e-06
2.32463e-06
2.00789e-06
1.69918e-06
1.42688e-06
1.20387e-06
1.03626e-06
9.27355e-07
8.77747e-07
8.78995e-07
6.74007e-06
6.07351e-06
5.26081e-06
4.46289e-06
3.74799e-06
3.14844e-06
2.68237e-06
2.36327e-06
2.19984e-06
2.17966e-06
1.74819e-05
1.57898e-05
1.37318e-05
1.16944e-05
9.83518e-06
8.23294e-06
6.94146e-06
6.01088e-06
5.48618e-06
5.36549e-06
4.50474e-05
4.08162e-05
3.56939e-05
3.05733e-05
2.5796e-05
2.15471e-05
1.79833e-05
1.52805e-05
1.36245e-05
1.31091e-05
0.000115143
0.000104771
9.23211e-05
7.97193e-05
6.76412e-05
5.64911e-05
4.6715e-05
3.88967e-05
3.37291e-05
3.17816e-05
0.000291264
0.000266595
0.000237264
0.000207129
0.000177269
0.000148448
0.00012187
9.93778e-05
8.33784e-05
7.64358e-05
0.000726895
0.000670647
0.000604461
0.000535263
0.000463757
0.000390916
0.000319711
0.000255579
0.000206366
0.000182342
0.0017822
0.00166116
0.00152111
0.00137127
0.00120785
0.00102996
0.000843733
0.000663768
0.000513687
0.000431769
0.00426836
0.00403044
0.00376131
0.00346441
0.00311631
0.00270431
0.00223621
0.00174556
0.00129505
0.00101736
0.0099156
0.00951215
0.00907202
0.00856353
0.00790025
0.00702285
0.00592098
0.00465163
0.00334809
0.00241485
0.0221516
0.0216439
0.0211323
0.0204801
0.0194403
0.0178132
0.0154857
0.012489
0.00896988
0.00590942
0.0471169
0.0469643
0.0469372
0.0466911
0.0456601
0.0433342
0.0393089
0.0333829
0.0260027
0.0169881
1.48706e-14
1.33672e-14
1.16785e-14
1.02566e-14
9.08525e-15
8.24633e-15
7.7781e-15
7.68004e-15
8.00466e-15
8.51801e-15
8.62528e-14
7.74037e-14
6.75952e-14
5.9146e-14
5.22481e-14
4.73598e-14
4.46878e-14
4.42232e-14
4.60788e-14
4.90786e-14
2.82404e-13
2.52347e-13
2.19277e-13
1.90428e-13
1.67391e-13
1.51374e-13
1.42942e-13
1.42099e-13
1.48519e-13
1.58686e-13
8.28773e-13
7.38769e-13
6.38837e-13
5.50891e-13
4.81592e-13
4.34229e-13
4.10094e-13
4.08868e-13
4.28246e-13
4.58069e-13
2.34728e-12
2.09148e-12
1.80269e-12
1.54625e-12
1.34503e-12
1.20877e-12
1.14033e-12
1.13748e-12
1.19137e-12
1.27277e-12
6.5526e-12
5.84329e-12
5.02785e-12
4.29651e-12
3.7219e-12
3.33317e-12
3.13686e-12
3.12386e-12
3.2654e-12
3.47946e-12
1.81563e-11
1.62077e-11
1.39355e-11
1.18789e-11
1.02553e-11
9.15057e-12
8.58103e-12
8.51692e-12
8.87318e-12
9.42678e-12
5.00386e-11
4.47105e-11
3.84319e-11
3.27041e-11
2.81523e-11
2.50237e-11
2.33628e-11
2.30831e-11
2.39476e-11
2.53632e-11
1.37248e-10
1.22728e-10
1.05488e-10
8.96505e-11
7.69683e-11
6.8142e-11
6.32995e-11
6.22054e-11
6.42247e-11
6.78017e-11
3.74714e-10
3.3524e-10
2.88183e-10
2.44646e-10
2.095e-10
1.84704e-10
1.70632e-10
1.66674e-10
1.71173e-10
1.80098e-10
1.01827e-09
9.11471e-10
7.83611e-10
6.6453e-10
5.67607e-10
4.98247e-10
4.57551e-10
4.43998e-10
4.5336e-10
4.75305e-10
2.75441e-09
2.46697e-09
2.12087e-09
1.79673e-09
1.5307e-09
1.33754e-09
1.22048e-09
1.17587e-09
1.19316e-09
1.24618e-09
7.41753e-09
6.64657e-09
5.71395e-09
4.83592e-09
4.1092e-09
3.57366e-09
3.23875e-09
3.09616e-09
3.12021e-09
3.24552e-09
1.98874e-08
1.78272e-08
1.53257e-08
1.29593e-08
1.09835e-08
9.5052e-09
8.55188e-09
8.10621e-09
8.10764e-09
8.39538e-09
5.30881e-08
4.76049e-08
4.09293e-08
3.45851e-08
2.92395e-08
2.51762e-08
2.24756e-08
2.11068e-08
2.09335e-08
2.15681e-08
1.41095e-07
1.26554e-07
1.08856e-07
9.19444e-08
7.75543e-08
6.64327e-08
5.88156e-08
5.46697e-08
5.37103e-08
5.50268e-08
3.73293e-07
3.34964e-07
2.88384e-07
2.43576e-07
2.05041e-07
1.74727e-07
1.53328e-07
1.40911e-07
1.36958e-07
1.39412e-07
9.8303e-07
8.82918e-07
7.61139e-07
6.43228e-07
5.40622e-07
4.58344e-07
3.98447e-07
3.61591e-07
3.47146e-07
3.50723e-07
2.57657e-06
2.3174e-06
2.00156e-06
1.69379e-06
1.42234e-06
1.20004e-06
1.03294e-06
9.24341e-07
8.74848e-07
8.76072e-07
6.72002e-06
6.05469e-06
5.24428e-06
4.44882e-06
3.73622e-06
3.13859e-06
2.67398e-06
2.35581e-06
2.19281e-06
2.17266e-06
1.74292e-05
1.57402e-05
1.36887e-05
1.16578e-05
9.8047e-06
8.2077e-06
6.92032e-06
5.99254e-06
5.46929e-06
5.34891e-06
4.49079e-05
4.06861e-05
3.55825e-05
3.04786e-05
2.57173e-05
2.14825e-05
1.79302e-05
1.52355e-05
1.35842e-05
1.30702e-05
0.000114775
0.000104443
9.20361e-05
7.94758e-05
6.74386e-05
5.6326e-05
4.65814e-05
3.87867e-05
3.36335e-05
3.1691e-05
0.000290325
0.000265771
0.000236539
0.000206507
0.000176748
0.000148025
0.000121534
9.91092e-05
8.31533e-05
7.62279e-05
0.000724569
0.000668559
0.000602641
0.000533683
0.000462426
0.000389836
0.000318863
0.000254922
0.000205839
0.000181871
0.00177654
0.00165611
0.00151662
0.00136731
0.00120446
0.00102719
0.000841585
0.000662151
0.000512454
0.000430724
0.00425517
0.00401858
0.00375048
0.00345462
0.00310776
0.00269723
0.00223072
0.00174153
0.00129215
0.00101505
0.00988634
0.00948542
0.00904672
0.0085399
0.00787898
0.00700476
0.00590668
0.0046412
0.00334137
0.0024104
0.0220906
0.0215865
0.0210757
0.0204254
0.0193892
0.0177682
0.0154495
0.0124644
0.00895435
0.00589643
0.046998
0.0468473
0.0468185
0.0465719
0.0455437
0.0432266
0.0392176
0.0333134
0.0259727
0.0170036
1.55275e-14
1.39479e-14
1.21684e-14
1.06688e-14
9.43649e-15
8.55758e-15
8.07113e-15
7.9748e-15
8.31977e-15
8.85772e-15
9.02677e-14
8.0944e-14
7.05742e-14
6.16401e-14
5.4365e-14
4.92321e-14
4.64522e-14
4.60044e-14
4.7987e-14
5.11396e-14
2.96825e-13
2.64988e-13
2.29824e-13
1.99158e-13
1.74741e-13
1.57854e-13
1.49062e-13
1.48331e-13
1.55245e-13
1.6599e-13
8.75657e-13
7.79561e-13
6.72474e-13
5.78335e-13
5.04448e-13
4.54283e-13
4.29099e-13
4.2842e-13
4.49566e-13
4.81397e-13
2.49253e-12
2.21711e-12
1.90493e-12
1.62835e-12
1.41256e-12
1.26768e-12
1.19635e-12
1.19575e-12
1.25566e-12
1.34353e-12
6.98836e-12
6.21797e-12
5.32883e-12
4.53443e-12
3.91506e-12
3.50065e-12
3.29657e-12
3.29168e-12
3.45264e-12
3.68667e-12
1.94299e-11
1.7296e-11
1.47995e-11
1.25521e-11
1.07951e-11
9.6155e-12
9.0251e-12
8.98734e-12
9.40308e-12
1.00165e-11
5.36802e-11
4.78043e-11
4.08644e-11
3.45767e-11
2.96367e-11
2.62934e-11
2.45753e-11
2.43743e-11
2.54123e-11
2.70008e-11
1.47472e-10
1.31376e-10
1.12237e-10
9.47945e-11
8.10052e-11
7.15705e-11
6.65658e-11
6.56914e-11
6.81947e-11
7.22544e-11
4.03001e-10
3.59129e-10
3.06701e-10
2.58645e-10
2.2039e-10
1.93883e-10
1.79339e-10
1.75958e-10
1.81759e-10
1.9199e-10
1.09571e-09
9.76751e-10
8.33946e-10
7.02337e-10
5.96792e-10
5.22653e-10
4.80555e-10
4.68437e-10
4.81189e-10
5.06571e-10
2.96456e-09
2.64357e-09
2.25663e-09
1.89817e-09
1.60846e-09
1.40203e-09
1.28076e-09
1.23952e-09
1.26538e-09
1.32722e-09
7.98279e-09
7.12067e-09
6.07758e-09
5.10646e-09
4.31519e-09
3.74297e-09
3.39544e-09
3.26019e-09
3.30533e-09
3.45275e-09
2.13959e-08
1.90908e-08
1.62935e-08
1.36766e-08
1.15261e-08
9.94682e-09
8.95581e-09
8.52448e-09
8.57625e-09
8.91818e-09
5.70852e-08
5.09498e-08
4.3489e-08
3.64756e-08
3.066e-08
2.63201e-08
2.35076e-08
2.21615e-08
2.21044e-08
2.28686e-08
1.51612e-07
1.35365e-07
1.15587e-07
9.68973e-08
8.12494e-08
6.93731e-08
6.14271e-08
5.72972e-08
5.65942e-08
5.82121e-08
4.00804e-07
3.58057e-07
3.05971e-07
2.56468e-07
2.14585e-07
1.82221e-07
1.59864e-07
1.47366e-07
1.43948e-07
1.4708e-07
1.05458e-06
9.42945e-07
8.06761e-07
6.76542e-07
5.65075e-07
4.77256e-07
4.14594e-07
3.77193e-07
3.63768e-07
3.68808e-07
2.76113e-06
2.47204e-06
2.11892e-06
1.77914e-06
1.4844e-06
1.2472e-06
1.07223e-06
9.6132e-07
9.13479e-07
9.17685e-07
7.19115e-06
6.44913e-06
5.54321e-06
4.66525e-06
3.89189e-06
3.25452e-06
2.76771e-06
2.4413e-06
2.28001e-06
2.26546e-06
1.86163e-05
1.67323e-05
1.44408e-05
1.21997e-05
1.01895e-05
8.48729e-06
7.13832e-06
6.18371e-06
5.65867e-06
5.54759e-06
4.78472e-05
4.31438e-05
3.74459e-05
3.1813e-05
2.66501e-05
2.21398e-05
1.84194e-05
1.56433e-05
1.39736e-05
1.3472e-05
0.000121897
0.000110419
9.65596e-05
8.26904e-05
6.96407e-05
5.78158e-05
4.76214e-05
3.9594e-05
3.43687e-05
3.24364e-05
0.000307123
0.000279906
0.000247217
0.000214016
0.000181753
0.00015122
0.000123552
0.000100501
8.43353e-05
7.74131e-05
0.000762763
0.000700774
0.000626882
0.000550468
0.000473163
0.000396072
0.000322107
0.000256584
0.000207037
0.000183138
0.00185909
0.00172585
0.00156865
0.00140239
0.0012254
0.00103724
0.000844254
0.00066111
0.000510839
0.000429846
0.00442131
0.00415864
0.00385304
0.00352033
0.00314167
0.00270573
0.00222161
0.00172434
0.00127611
0.00100365
0.0101871
0.00973614
0.00922222
0.00863956
0.00791075
0.00697975
0.00584091
0.00455883
0.0032695
0.00236073
0.022548
0.0219529
0.0213008
0.0205045
0.0193322
0.0175909
0.0151797
0.0121568
0.00868876
0.00572508
0.0474759
0.0471669
0.046893
0.0463879
0.045108
0.0425519
0.0383391
0.0323365
0.0250415
0.0163469
1.68128e-14
1.5072e-14
1.3114e-14
1.14649e-14
1.01167e-14
9.16196e-15
8.64112e-15
8.5496e-15
8.93694e-15
9.53136e-15
9.81499e-14
8.78285e-14
7.6344e-14
6.64707e-14
5.84766e-14
5.28787e-14
4.98943e-14
4.94893e-14
5.17424e-14
5.5239e-14
3.25557e-13
2.89961e-13
2.5053e-13
2.16297e-13
1.89217e-13
1.70649e-13
1.61166e-13
1.60689e-13
1.68692e-13
1.80731e-13
9.69862e-13
8.60601e-13
7.38627e-13
6.32205e-13
5.4942e-13
4.93837e-13
4.66642e-13
4.67204e-13
4.92372e-13
5.28837e-13
2.78513e-12
2.46645e-12
2.10522e-12
1.78855e-12
1.54452e-12
1.38309e-12
1.30631e-12
1.31079e-12
1.38449e-12
1.48767e-12
7.86558e-12
6.95972e-12
5.91594e-12
4.99605e-12
4.29012e-12
3.82659e-12
3.6082e-12
3.62148e-12
3.82668e-12
4.10837e-12
2.19898e-11
1.94461e-11
1.648e-11
1.38535e-11
1.18388e-11
1.05166e-11
9.88847e-12
9.90922e-12
1.04591e-11
1.12143e-11
6.09866e-11
5.39077e-11
4.55887e-11
3.81891e-11
3.25003e-11
2.87491e-11
2.69286e-11
2.69014e-11
2.83264e-11
3.03204e-11
1.6796e-10
1.48425e-10
1.25334e-10
1.04707e-10
8.87843e-11
7.81947e-11
7.29015e-11
7.25112e-11
7.60875e-11
8.12673e-11
4.59663e-10
4.06149e-10
3.42611e-10
2.85608e-10
2.41365e-10
2.11615e-10
1.96229e-10
1.94125e-10
2.02802e-10
2.16039e-10
1.25069e-09
1.10506e-09
9.31533e-10
7.7515e-10
6.53002e-10
5.69811e-10
5.25204e-10
5.16285e-10
5.36524e-10
5.6978e-10
3.38449e-09
2.99075e-09
2.51986e-09
2.09358e-09
1.75826e-09
1.52669e-09
1.39786e-09
1.36423e-09
1.40907e-09
1.49109e-09
9.11162e-09
8.05315e-09
6.78293e-09
5.62783e-09
4.71229e-09
4.07055e-09
3.70016e-09
3.58196e-09
3.67396e-09
3.87207e-09
2.44094e-08
2.15784e-08
1.81716e-08
1.50597e-08
1.25729e-08
1.08022e-08
9.74245e-09
9.34627e-09
9.51069e-09
9.97733e-09
6.50779e-08
5.75438e-08
4.84595e-08
4.01238e-08
3.34035e-08
2.85391e-08
2.55212e-08
2.42379e-08
2.44435e-08
2.55081e-08
1.72673e-07
1.52733e-07
1.28662e-07
1.06463e-07
8.83957e-08
7.50882e-08
6.65342e-08
6.24827e-08
6.23706e-08
6.46945e-08
4.55929e-07
4.03512e-07
3.40155e-07
2.81397e-07
2.33076e-07
1.96824e-07
1.72686e-07
1.60149e-07
1.57997e-07
1.6274e-07
1.19785e-06
1.06109e-06
8.95529e-07
7.41061e-07
6.12566e-07
5.14233e-07
4.4641e-07
4.0824e-07
3.9734e-07
4.05932e-07
3.1305e-06
2.77664e-06
2.34762e-06
1.9448e-06
1.60531e-06
1.33984e-06
1.15008e-06
1.03538e-06
9.92029e-07
1.00372e-06
8.13402e-06
7.22693e-06
6.12694e-06
5.08656e-06
4.19648e-06
3.48361e-06
2.95499e-06
2.61411e-06
2.45906e-06
2.45933e-06
2.09935e-05
1.86964e-05
1.59137e-05
1.32585e-05
1.09466e-05
9.04454e-06
7.57897e-06
6.5755e-06
6.05323e-06
5.96904e-06
5.37508e-05
4.80301e-05
4.11077e-05
3.44337e-05
2.85001e-05
2.34658e-05
1.94255e-05
1.64971e-05
1.48038e-05
1.43452e-05
0.000136271
0.000122332
0.000105486
8.90455e-05
7.40562e-05
6.08762e-05
4.9821e-05
4.13475e-05
3.60002e-05
3.41244e-05
0.000341195
0.000308203
0.000268411
0.000229
0.000191949
0.000157971
0.000128038
0.000103756
8.71882e-05
8.03322e-05
0.000840691
0.000765655
0.000675398
0.00058441
0.000495575
0.00040992
0.000330153
0.000261431
0.000210873
0.000187165
0.00202891
0.00186754
0.00167408
0.00147484
0.00127097
0.00106213
0.000854719
0.000663774
0.00051174
0.000432067
0.00476745
0.0044474
0.00406522
0.00366115
0.00322236
0.00273818
0.00221942
0.0017043
0.00125554
0.000991072
0.0108283
0.0102671
0.00960033
0.00887144
0.00801474
0.0069761
0.00575673
0.00443525
0.00315815
0.00228847
0.0235727
0.0227784
0.02184
0.0207626
0.0193343
0.0173653
0.014773
0.0116636
0.00824772
0.00544286
0.0487241
0.0480714
0.0472994
0.0462932
0.0445354
0.0415249
0.036913
0.0306841
0.0234379
0.0152437
1.87762e-14
1.67726e-14
1.45461e-14
1.26774e-14
1.11588e-14
1.00915e-14
9.51821e-15
9.43164e-15
9.88469e-15
1.05789e-14
1.09912e-13
9.7916e-14
8.4765e-14
7.35428e-14
6.4524e-14
5.82592e-14
5.49739e-14
5.46266e-14
5.7309e-14
6.14517e-14
3.67887e-13
3.25706e-13
2.79788e-13
2.40516e-13
2.09748e-13
1.88839e-13
1.78363e-13
1.78263e-13
1.88094e-13
2.02734e-13
1.1072e-12
9.74851e-13
8.30049e-13
7.06463e-13
6.11618e-13
5.4865e-13
5.18622e-13
5.21065e-13
5.53091e-13
5.98789e-13
3.20704e-12
2.81329e-12
2.37758e-12
2.00545e-12
1.72371e-12
1.54008e-12
1.45579e-12
1.46795e-12
1.56482e-12
1.69756e-12
9.11632e-12
7.98013e-12
6.70466e-12
5.61243e-12
4.79215e-12
4.26373e-12
4.02608e-12
4.06656e-12
4.34448e-12
4.71491e-12
2.56039e-11
2.2382e-11
1.87199e-11
1.55754e-11
1.32224e-11
1.17137e-11
1.10361e-11
1.11439e-11
1.19094e-11
1.29195e-11
7.12333e-11
6.21971e-11
5.18538e-11
4.29414e-11
3.62732e-11
3.19922e-11
3.00407e-11
3.02712e-11
3.23081e-11
3.50098e-11
1.96556e-10
1.71497e-10
1.4265e-10
1.17703e-10
9.89948e-11
8.69127e-11
8.12569e-11
8.1584e-11
8.68375e-11
9.39327e-11
5.38428e-10