/*--------------------------------*- C++ -*----------------------------------*\
| =========                 |                                                 |
| \\      /  F ield         | OpenFOAM: The Open Source CFD Toolbox           |
|  \\    /   O peration     | Version:  2112                                  |
|   \\  /    A nd           | Website:  www.openfoam.com                      |
|    \\/     M anipulation  |                                                 |
\*---------------------------------------------------------------------------*/
FoamFile
{
    version     2.0;
    format      ascii;
    arch        "LSB;label=32;scalar=64";
    class       volScalarField;
    location    "55";
    object      T;
}
// * * * * * * * * * * * * * * * * * * * * * * * * * * * * * * * * * * * * * //

dimensions      [0 0 0 1 0 0 0];

internalField   nonuniform List<scalar> 
10000
(
5.38275e-14
4.80847e-14
4.19549e-14
3.69593e-14
3.29517e-14
3.01646e-14
2.87369e-14
2.86495e-14
3.01414e-14
3.23854e-14
3.10854e-13
2.76344e-13
2.40567e-13
2.11015e-13
1.87545e-13
1.71436e-13
1.63368e-13
1.63279e-13
1.72025e-13
1.85666e-13
1.00771e-12
8.88611e-13
7.67081e-13
6.66732e-13
5.89048e-13
5.37003e-13
5.12076e-13
5.14695e-13
5.45898e-13
5.93331e-13
2.89588e-12
2.53957e-12
2.17068e-12
1.86652e-12
1.63658e-12
1.4864e-12
1.4186e-12
1.43447e-12
1.53275e-12
1.67318e-12
7.95489e-12
6.95248e-12
5.8899e-12
5.01274e-12
4.36045e-12
3.94316e-12
3.76436e-12
3.82434e-12
4.10956e-12
4.49617e-12
2.14047e-11
1.8663e-11
1.56949e-11
1.32371e-11
1.14276e-11
1.02865e-11
9.81306e-12
9.99795e-12
1.07813e-11
1.18051e-11
5.69234e-11
4.95441e-11
4.14299e-11
3.46801e-11
2.97335e-11
2.6636e-11
2.5362e-11
2.58611e-11
2.7926e-11
3.05707e-11
1.50153e-10
1.30517e-10
1.08683e-10
9.04248e-11
7.7053e-11
6.86813e-11
6.51926e-11
6.63966e-11
7.16628e-11
7.8367e-11
3.93651e-10
3.41846e-10
2.83756e-10
2.34937e-10
1.99102e-10
1.76545e-10
1.66862e-10
1.69438e-10
1.82494e-10
1.99223e-10
1.02707e-09
8.91288e-10
7.38054e-10
6.08641e-10
5.13239e-10
4.52607e-10
4.25506e-10
4.30118e-10
4.61663e-10
5.02828e-10
2.66929e-09
2.31523e-09
1.91367e-09
1.57285e-09
1.32016e-09
1.15751e-09
1.08137e-09
1.08665e-09
1.16094e-09
1.26084e-09
6.91473e-09
5.99545e-09
4.9486e-09
4.05548e-09
3.38893e-09
2.95335e-09
2.73932e-09
2.73308e-09
2.90303e-09
3.1422e-09
1.7862e-08
1.54838e-08
1.2766e-08
1.04349e-08
8.68276e-09
7.51836e-09
6.91761e-09
6.84452e-09
7.21952e-09
7.78418e-09
4.60247e-08
3.98907e-08
3.28577e-08
2.67964e-08
2.22037e-08
1.90984e-08
1.74169e-08
1.70679e-08
1.78575e-08
1.91664e-08
1.18313e-07
1.02537e-07
8.43932e-08
6.8686e-08
5.66807e-08
4.84175e-08
4.37274e-08
4.23843e-08
4.3931e-08
4.68992e-08
3.03432e-07
2.62969e-07
2.16319e-07
1.75761e-07
1.44462e-07
1.22527e-07
1.09493e-07
1.04817e-07
1.07474e-07
1.14019e-07
7.76279e-07
6.72782e-07
5.53395e-07
4.49061e-07
3.67688e-07
3.09588e-07
2.73495e-07
2.58172e-07
2.61409e-07
2.75317e-07
1.98021e-06
1.71686e-06
1.41291e-06
1.14564e-06
9.34819e-07
7.81157e-07
6.81555e-07
6.33393e-07
6.31977e-07
6.59918e-07
5.03348e-06
4.36837e-06
3.59899e-06
2.91822e-06
2.37452e-06
1.96904e-06
1.69514e-06
1.54791e-06
1.51823e-06
1.5689e-06
1.27407e-05
1.10736e-05
9.14093e-06
7.42018e-06
6.02612e-06
4.96035e-06
4.21013e-06
3.76892e-06
3.62299e-06
3.69724e-06
3.20744e-05
2.79315e-05
2.31293e-05
1.88243e-05
1.52764e-05
1.24913e-05
1.04463e-05
9.14527e-06
8.58547e-06
8.62857e-06
8.01416e-05
6.99925e-05
5.82371e-05
4.76089e-05
3.86744e-05
3.14479e-05
2.59068e-05
2.21277e-05
2.01997e-05
1.99213e-05
0.000198238
0.000173886
0.000145677
0.000119905
9.7735e-05
7.91665e-05
6.42695e-05
5.3446e-05
4.71952e-05
4.5465e-05
0.000483903
0.000427009
0.00036113
0.00030019
0.000246279
0.000199258
0.000159646
0.00012907
0.000109609
0.000102499
0.0011605
0.00103236
0.000884117
0.000744951
0.00061755
0.000501009
0.000397366
0.000312355
0.000253558
0.000228205
0.00271897
0.00244452
0.00212757
0.00182476
0.0015357
0.00125588
0.00099124
0.000759818
0.000586649
0.000502265
0.00618116
0.00563269
0.00500137
0.00438568
0.00376704
0.00312611
0.00247521
0.00186422
0.00136751
0.00109634
0.0135276
0.0125321
0.0113946
0.0102589
0.00904262
0.00767455
0.00616428
0.00462772
0.00325856
0.00240435
0.0282535
0.0266833
0.024919
0.023111
0.0210044
0.0183786
0.0151773
0.0115994
0.00806902
0.00543957
0.0558094
0.0538442
0.0517301
0.0494974
0.0465275
0.0422668
0.0364329
0.0291842
0.0216648
0.0145533
4.87755e-14
4.37301e-14
3.8279e-14
3.38018e-14
3.01838e-14
2.7663e-14
2.63467e-14
2.62364e-14
2.75235e-14
2.94425e-14
2.8029e-13
2.5078e-13
2.1924e-13
1.92797e-13
1.71648e-13
1.57096e-13
1.49673e-13
1.4943e-13
1.56853e-13
1.68034e-13
9.0134e-13
8.01933e-13
6.96348e-13
6.06927e-13
5.3719e-13
4.90255e-13
4.67594e-13
4.69429e-13
4.95336e-13
5.33049e-13
2.57516e-12
2.28161e-12
1.96452e-12
1.69522e-12
1.48953e-12
1.35434e-12
1.29287e-12
1.30474e-12
1.38462e-12
1.49563e-12
7.04838e-12
6.22735e-12
5.32154e-12
4.54992e-12
3.96816e-12
3.59314e-12
3.42985e-12
3.47408e-12
3.70227e-12
4.00614e-12
1.892e-11
1.66834e-11
1.41716e-11
1.20206e-11
1.04101e-11
9.38432e-12
8.94774e-12
9.07967e-12
9.6982e-12
1.04978e-11
5.02385e-11
4.42309e-11
3.73966e-11
3.15134e-11
2.71189e-11
2.43322e-11
2.31461e-11
2.34843e-11
2.50966e-11
2.71557e-11
1.32404e-10
1.16433e-10
9.80839e-11
8.22183e-11
7.03575e-11
6.28184e-11
5.95473e-11
6.02998e-11
6.43685e-11
6.95817e-11
3.46948e-10
3.04817e-10
2.56071e-10
2.13738e-10
1.81987e-10
1.61657e-10
1.52541e-10
1.53925e-10
1.63901e-10
1.76891e-10
9.04982e-10
7.94529e-10
6.66062e-10
5.53997e-10
4.69534e-10
4.14852e-10
3.89308e-10
3.90923e-10
4.14722e-10
4.46614e-10
2.35176e-09
2.06363e-09
1.72717e-09
1.43223e-09
1.20864e-09
1.06187e-09
9.90166e-10
9.88262e-10
1.0434e-09
1.12059e-09
6.09228e-09
5.34376e-09
4.46669e-09
3.69405e-09
3.10441e-09
2.7113e-09
2.5102e-09
2.48744e-09
2.61095e-09
2.79499e-09
1.5739e-08
1.38012e-08
1.15229e-08
9.50738e-09
7.95678e-09
6.90669e-09
6.344e-09
6.23409e-09
6.49923e-09
6.9306e-09
4.05616e-08
3.55606e-08
2.96625e-08
2.44223e-08
2.03558e-08
1.75561e-08
1.59865e-08
1.55612e-08
1.60952e-08
1.70867e-08
1.04298e-07
9.14266e-08
7.62051e-08
6.26248e-08
5.19882e-08
4.454e-08
4.0176e-08
3.86897e-08
3.96545e-08
4.18791e-08
2.67574e-07
2.34556e-07
1.95413e-07
1.60332e-07
1.32585e-07
1.12805e-07
1.00712e-07
9.58269e-08
9.7189e-08
1.02023e-07
6.84772e-07
6.00392e-07
5.00201e-07
4.09882e-07
3.37741e-07
2.85262e-07
2.51854e-07
2.36468e-07
2.36915e-07
2.46944e-07
1.74774e-06
1.5329e-06
1.27776e-06
1.0464e-06
8.59508e-07
7.20602e-07
6.28611e-07
5.8136e-07
5.74287e-07
5.93597e-07
4.44645e-06
3.9031e-06
3.25718e-06
2.66787e-06
2.18565e-06
1.81926e-06
1.56679e-06
1.42445e-06
1.38415e-06
1.41644e-06
1.12665e-05
9.90462e-06
8.28169e-06
6.79173e-06
5.55382e-06
4.59136e-06
3.90094e-06
3.47919e-06
3.31607e-06
3.35282e-06
2.83988e-05
2.50188e-05
2.09888e-05
1.72575e-05
1.4105e-05
1.15875e-05
9.7071e-06
8.47545e-06
7.89533e-06
7.86726e-06
7.11024e-05
6.28334e-05
5.29753e-05
4.37503e-05
3.58058e-05
2.92617e-05
2.41666e-05
2.06119e-05
1.86876e-05
1.82887e-05
0.000176436
0.000156599
0.000132944
0.000110554
9.08066e-05
7.39658e-05
6.0256e-05
5.01001e-05
4.39948e-05
4.20901e-05
0.000432504
0.000386196
0.000330957
0.00027796
0.000229849
0.000187123
0.000150608
0.000121925
0.000103124
9.58467e-05
0.00104304
0.000938935
0.000814711
0.000693562
0.00057964
0.000473502
0.00037773
0.000297847
0.000241243
0.000215943
0.00246176
0.00223964
0.00197447
0.00171075
0.00145184
0.00119636
0.000951063
0.000732832
0.000565737
0.000481855
0.00564935
0.00520925
0.00468317
0.00414782
0.00359348
0.0030071
0.00240174
0.00182272
0.0013399
0.00106787
0.0125094
0.0117259
0.0107878
0.00980709
0.00872088
0.00746931
0.00606071
0.00459668
0.00325179
0.00238006
0.0264961
0.0253172
0.0239027
0.0223749
0.0205196
0.0181328
0.0151467
0.0117334
0.00819931
0.00546133
0.0531862
0.0519053
0.0503612
0.0486087
0.0461108
0.0423314
0.0369452
0.030092
0.022573
0.0147093
4.38762e-14
3.94802e-14
3.46645e-14
3.06884e-14
2.74566e-14
2.51902e-14
2.39903e-14
2.38609e-14
2.49787e-14
2.66368e-14
2.5159e-13
2.2612e-13
1.9842e-13
1.74998e-13
1.56132e-13
1.43053e-13
1.36293e-13
1.3587e-13
1.42217e-13
1.51745e-13
8.02325e-13
7.18271e-13
6.2682e-13
5.48313e-13
4.86545e-13
4.44626e-13
4.24031e-13
4.24841e-13
4.46333e-13
4.7768e-13
2.27082e-12
2.02689e-12
1.75753e-12
1.52411e-12
1.34351e-12
1.2236e-12
1.16755e-12
1.17465e-12
1.23861e-12
1.32831e-12
6.16418e-12
5.49292e-12
4.73668e-12
4.07622e-12
3.56954e-12
3.2383e-12
3.08847e-12
3.11445e-12
3.29136e-12
3.53074e-12
1.64381e-11
1.46371e-11
1.25677e-11
1.07461e-11
9.35314e-12
8.44925e-12
8.04472e-12
8.11569e-12
8.58137e-12
9.19745e-12
4.34376e-11
3.86552e-11
3.30806e-11
2.81404e-11
2.43606e-11
2.19078e-11
2.07981e-11
2.0952e-11
2.21337e-11
2.36928e-11
1.14094e-10
1.01474e-10
8.66207e-11
7.3383e-11
6.32222e-11
5.65898e-11
5.35095e-11
5.37451e-11
5.66528e-11
6.05466e-11
2.98291e-10
2.65173e-10
2.25919e-10
1.90753e-10
1.63627e-10
1.45744e-10
1.37137e-10
1.37154e-10
1.44103e-10
1.53696e-10
7.76943e-10
6.90414e-10
5.87311e-10
4.94486e-10
4.22439e-10
3.74341e-10
3.50239e-10
3.48407e-10
3.64526e-10
3.87839e-10
2.01729e-09
1.79205e-09
1.52252e-09
1.27867e-09
1.08808e-09
9.59011e-10
8.91557e-10
8.81295e-10
9.1741e-10
9.73262e-10
5.22343e-09
4.63899e-09
3.93704e-09
3.29893e-09
2.79638e-09
2.45081e-09
2.26243e-09
2.22022e-09
2.2976e-09
2.42935e-09
1.34921e-08
1.19801e-08
1.01579e-08
8.49362e-09
7.17213e-09
6.24879e-09
5.72428e-09
5.57164e-09
5.72692e-09
6.03215e-09
3.47726e-08
3.08714e-08
2.61557e-08
2.18278e-08
1.83616e-08
1.58993e-08
1.44435e-08
1.39301e-08
1.42081e-08
1.48999e-08
8.94294e-08
7.93902e-08
6.72234e-08
5.60031e-08
4.6934e-08
4.038e-08
3.6352e-08
3.4703e-08
3.50851e-08
3.66086e-08
2.29518e-07
2.03758e-07
1.72473e-07
1.43477e-07
1.19812e-07
1.02399e-07
9.12872e-08
8.61574e-08
8.6232e-08
8.94554e-08
5.87763e-07
5.21883e-07
4.4177e-07
3.67114e-07
3.05545e-07
2.59375e-07
2.28807e-07
2.13213e-07
2.10936e-07
2.17347e-07
1.50149e-06
1.33377e-06
1.12964e-06
9.38294e-07
7.7867e-07
6.5653e-07
5.72668e-07
5.26064e-07
5.13512e-07
5.24933e-07
3.82467e-06
3.40045e-06
2.88352e-06
2.39583e-06
1.98369e-06
1.66147e-06
1.43201e-06
1.29459e-06
1.24413e-06
1.25985e-06
9.70847e-06
8.64377e-06
7.34551e-06
6.11168e-06
5.05337e-06
4.20614e-06
3.57999e-06
3.17912e-06
2.99983e-06
3.00344e-06
2.45351e-05
2.18898e-05
1.86652e-05
1.55742e-05
1.28768e-05
1.06588e-05
8.95557e-06
7.7965e-06
7.19977e-06
7.10928e-06
6.1646e-05
5.5165e-05
4.72732e-05
3.96317e-05
3.28255e-05
2.70558e-05
2.24413e-05
1.91152e-05
1.72072e-05
1.67012e-05
0.000153678
0.000138106
0.000119177
0.00010063
8.36964e-05
6.88265e-05
5.63991e-05
4.69238e-05
4.09823e-05
3.89209e-05
0.000379028
0.000342628
0.000298479
0.000254596
0.000213304
0.000175507
0.000142341
0.000115572
9.74101e-05
8.99472e-05
0.000921413
0.000839552
0.000740518
0.000640356
0.000542536
0.000448449
0.000361198
0.000286406
0.000231672
0.000206139
0.00219708
0.00202279
0.00181257
0.00159538
0.00137323
0.00114635
0.000922059
0.000716612
0.000553861
0.000468938
0.00510715
0.00476458
0.00435261
0.00391572
0.00344178
0.00292081
0.00236536
0.00181661
0.001341
0.00106173
0.0114878
0.0108918
0.0101774
0.00939394
0.0084751
0.00736649
0.00607186
0.00467582
0.00333393
0.00242323
0.0247898
0.0239513
0.022948
0.0217921
0.0202668
0.0181778
0.0154439
0.0121804
0.0086187
0.00570466
0.0508319
0.0501418
0.0493032
0.0482078
0.0463255
0.0431403
0.0383008
0.0317944
0.0242754
0.0158231
4.06714e-14
3.66813e-14
3.22839e-14
2.86462e-14
2.5676e-14
2.35791e-14
2.24545e-14
2.23081e-14
2.33149e-14
2.48206e-14
2.32318e-13
2.09307e-13
1.84168e-13
1.6283e-13
1.45557e-13
1.33498e-13
1.27183e-13
1.26629e-13
1.32281e-13
1.40894e-13
7.34815e-13
6.5955e-13
5.77516e-13
5.06708e-13
4.50668e-13
4.1234e-13
3.93166e-13
3.9328e-13
4.12075e-13
4.40124e-13
2.06024e-12
1.84497e-12
1.60707e-12
1.39928e-12
1.23713e-12
1.12836e-12
1.0762e-12
1.08012e-12
1.13455e-12
1.21314e-12
5.54414e-12
4.96108e-12
4.30374e-12
3.72357e-12
3.27314e-12
2.9745e-12
2.83447e-12
2.84815e-12
2.99397e-12
3.19879e-12
1.46764e-11
1.31356e-11
1.1363e-11
9.78198e-12
8.55424e-12
7.74284e-12
7.36212e-12
7.39157e-12
7.76249e-12
8.27736e-12
3.85588e-11
3.4522e-11
2.98052e-11
2.55599e-11
2.22511e-11
2.00551e-11
1.9004e-11
1.90313e-11
1.99405e-11
2.12152e-11
1.00851e-10
9.03127e-11
7.78639e-11
6.65732e-11
5.77224e-11
5.17936e-11
4.88639e-11
4.87435e-11
5.09043e-11
5.40278e-11
2.62898e-10
2.3546e-10
2.02787e-10
1.72953e-10
1.49401e-10
1.33429e-10
1.25233e-10
1.24308e-10
1.29289e-10
1.36861e-10
6.83428e-10
6.12145e-10
5.26734e-10
4.48258e-10
3.85831e-10
3.42893e-10
3.1997e-10
3.15773e-10
3.26866e-10
3.45013e-10
1.77232e-09
1.58748e-09
1.36489e-09
1.15918e-09
9.94217e-10
8.79031e-10
8.15063e-10
7.99133e-10
8.22761e-10
8.65691e-10
4.58592e-09
4.10751e-09
3.52891e-09
2.99124e-09
2.55646e-09
2.24811e-09
2.07017e-09
2.01502e-09
2.06212e-09
2.16215e-09
1.18416e-08
1.06057e-08
9.10538e-09
7.70377e-09
6.56058e-09
5.73683e-09
5.24352e-09
5.06299e-09
5.14653e-09
5.37532e-09
3.05172e-08
2.73309e-08
2.34502e-08
1.9806e-08
1.68071e-08
1.46107e-08
1.32476e-08
1.26786e-08
1.27908e-08
1.33016e-08
7.84988e-08
7.03017e-08
6.02915e-08
5.08427e-08
4.29944e-08
3.71492e-08
3.33941e-08
3.16482e-08
3.16575e-08
3.27608e-08
2.01542e-07
1.80508e-07
1.54772e-07
1.30348e-07
1.09861e-07
9.43348e-08
8.40183e-08
7.87657e-08
7.80318e-08
8.03002e-08
5.16437e-07
4.62648e-07
3.96738e-07
3.33838e-07
2.80511e-07
2.3935e-07
2.11075e-07
1.95506e-07
1.91558e-07
1.95856e-07
1.32051e-06
1.18357e-06
1.01559e-06
8.54322e-07
7.15995e-07
6.07109e-07
5.29784e-07
4.8415e-07
4.68383e-07
4.75286e-07
3.36829e-06
3.0216e-06
2.59619e-06
2.18505e-06
1.82774e-06
1.54044e-06
1.32939e-06
1.1968e-06
1.14086e-06
1.14735e-06
8.56629e-06
7.69514e-06
6.6266e-06
5.58629e-06
4.66837e-06
3.91269e-06
3.33781e-06
2.95515e-06
2.76876e-06
2.75463e-06
2.17046e-05
1.95371e-05
1.68829e-05
1.42767e-05
1.19359e-05
9.95657e-06
8.39416e-06
7.2956e-06
6.69747e-06
6.57587e-06
5.4723e-05
4.94028e-05
4.29081e-05
3.64669e-05
3.05575e-05
2.54043e-05
2.11712e-05
1.80311e-05
1.61572e-05
1.56042e-05
0.000137046
0.000124235
0.000108669
9.3045e-05
7.8337e-05
6.50397e-05
5.36258e-05
4.46891e-05
3.89097e-05
3.67943e-05
0.000340033
0.000310026
0.000273781
0.000236864
0.000200995
0.000167145
0.000136616
0.000111321
9.3685e-05
8.61854e-05
0.000832988
0.000765406
0.000684372
0.000600359
0.000515437
0.000431045
0.000350481
0.000279505
0.000226127
0.000200518
0.00200553
0.00186168
0.00169089
0.00150982
0.00131737
0.00111366
0.000905832
0.000709698
0.000549617
0.000463734
0.00471763
0.00443648
0.00410683
0.00374712
0.00333884
0.00287127
0.00235504
0.00182774
0.00135493
0.00106874
0.0107638
0.0102844
0.00973227
0.00910486
0.00832383
0.0073329
0.00612862
0.00478025
0.00343163
0.00248503
0.0236153
0.0229847
0.0222811
0.0214205
0.0201668
0.0183232
0.0157899
0.0126317
0.00902983
0.00596576
0.0493301
0.0489924
0.0486663
0.0480876
0.0467026
0.0439981
0.0395894
0.033351
0.0258109
0.016878
3.89428e-14
3.51694e-14
3.09929e-14
2.75316e-14
2.47027e-14
2.2698e-14
2.16152e-14
2.14649e-14
2.24142e-14
2.38366e-14
2.21985e-13
2.00282e-13
1.76477e-13
1.56237e-13
1.39822e-13
1.28315e-13
1.22241e-13
1.21635e-13
1.26937e-13
1.35054e-13
6.9944e-13
6.28408e-13
5.51292e-13
4.8455e-13
4.31565e-13
3.95142e-13
3.76711e-13
3.76458e-13
3.93866e-13
4.20385e-13
1.95107e-12
1.74946e-12
1.52744e-12
1.33296e-12
1.18057e-12
1.07769e-12
1.02757e-12
1.02992e-12
1.07973e-12
1.15324e-12
5.22406e-12
4.68271e-12
4.07423e-12
3.53541e-12
3.11467e-12
2.83336e-12
2.69856e-12
2.70635e-12
2.83762e-12
3.02681e-12
1.3768e-11
1.23492e-11
1.0722e-11
9.26472e-12
8.12436e-12
7.36235e-12
6.99474e-12
7.00445e-12
7.33148e-12
7.80108e-12
3.60422e-11
3.23533e-11
2.80567e-11
2.41687e-11
2.11095e-11
1.90514e-11
1.80335e-11
1.80008e-11
1.87836e-11
1.99315e-11
9.40119e-11
8.44442e-11
7.31759e-11
6.28879e-11
5.47324e-11
4.91832e-11
4.63412e-11
4.60522e-11
4.78651e-11
5.0644e-11
2.44591e-10
2.19808e-10
1.90375e-10
1.63291e-10
1.4164e-10
1.26702e-10
1.18749e-10
1.1738e-10
1.21442e-10
1.28105e-10
6.34989e-10
5.70843e-10
4.94172e-10
4.23111e-10
3.65808e-10
3.25672e-10
3.03449e-10
2.98145e-10
3.06888e-10
3.22701e-10
1.64524e-09
1.47939e-09
1.28006e-09
1.09408e-09
9.42788e-10
8.35155e-10
7.73248e-10
7.54699e-10
7.72496e-10
8.09579e-10
4.25473e-09
3.82646e-09
3.3091e-09
2.82344e-09
2.42485e-09
2.13679e-09
1.96497e-09
1.90396e-09
1.93697e-09
2.02267e-09
1.09834e-08
9.87855e-09
8.53817e-09
7.27276e-09
6.22487e-09
5.45548e-09
4.98034e-09
4.78762e-09
4.83799e-09
5.03232e-09
2.83039e-08
2.54572e-08
2.19917e-08
1.87023e-08
1.59534e-08
1.39024e-08
1.25929e-08
1.20011e-08
1.20374e-08
1.2467e-08
7.2815e-08
6.54917e-08
5.65539e-08
4.80255e-08
4.08308e-08
3.53736e-08
3.17755e-08
2.99952e-08
2.98366e-08
3.07528e-08
1.87001e-07
1.68204e-07
1.45227e-07
1.23182e-07
1.04398e-07
8.9905e-08
8.00432e-08
7.47692e-08
7.36792e-08
7.55278e-08
4.79373e-07
4.31294e-07
3.72461e-07
3.15677e-07
2.66775e-07
2.2836e-07
2.0139e-07
1.85945e-07
1.81287e-07
1.84673e-07
1.22645e-06
1.10406e-06
9.54129e-07
8.0852e-07
6.81638e-07
5.80026e-07
5.06402e-07
4.61562e-07
4.44512e-07
4.4951e-07
3.13096e-06
2.82115e-06
2.44142e-06
2.07019e-06
1.74237e-06
1.47424e-06
1.27358e-06
1.14424e-06
1.0864e-06
1.08914e-06
7.97231e-06
7.19341e-06
6.2396e-06
5.30029e-06
4.45796e-06
3.75261e-06
3.20653e-06
2.83521e-06
2.64739e-06
2.6265e-06
2.02332e-05
1.82937e-05
1.59241e-05
1.35712e-05
1.14228e-05
9.57471e-06
8.09118e-06
7.02878e-06
6.43521e-06
6.30304e-06
5.11269e-05
4.63602e-05
4.05618e-05
3.47487e-05
2.93241e-05
2.45102e-05
2.04898e-05
1.7458e-05
1.56138e-05
1.50488e-05
0.000128414
0.000116906
0.000103024
8.89334e-05
7.54315e-05
6.30012e-05
5.21513e-05
4.35215e-05
3.78517e-05
3.57346e-05
0.000319797
0.000292798
0.000260519
0.00022727
0.000194348
0.000162678
0.000133613
0.000109144
9.18302e-05
8.43641e-05
0.000787103
0.000726268
0.000654247
0.000578762
0.000500875
0.000421851
0.000344993
0.000276125
0.000223529
0.000197973
0.00190624
0.00177665
0.00162565
0.00146373
0.00128754
0.00109669
0.000897986
0.000706935
0.000548301
0.000462039
0.00451608
0.00426345
0.00397521
0.00365653
0.00328433
0.00284649
0.00235199
0.00183629
0.00136471
0.00107493
0.0103909
0.00996493
0.00949455
0.00895012
0.00824478
0.00731939
0.00616515
0.00484235
0.00348928
0.00252326
0.0230178
0.0224812
0.0219279
0.021223
0.0201173
0.0184097
0.0159877
0.012887
0.00925993
0.00611421
0.0485953
0.0484162
0.0483412
0.0480289
0.0469085
0.0444657
0.0402938
0.0341949
0.0266327
0.0174243
3.88513e-14
3.5088e-14
3.09283e-14
2.74793e-14
2.4655e-14
2.26526e-14
2.157e-14
2.14144e-14
2.23552e-14
2.37721e-14
2.2144e-13
1.99813e-13
1.76101e-13
1.55915e-13
1.39528e-13
1.28035e-13
1.21964e-13
1.2134e-13
1.26596e-13
1.34669e-13
6.97564e-13
6.27128e-13
5.50156e-13
4.83517e-13
4.30605e-13
3.94232e-13
3.75822e-13
3.75555e-13
3.92905e-13
4.1907e-13
1.94617e-12
1.74575e-12
1.52421e-12
1.3301e-12
1.17794e-12
1.0752e-12
1.02512e-12
1.02736e-12
1.07695e-12
1.14976e-12
5.21154e-12
4.67232e-12
4.06531e-12
3.52759e-12
3.10755e-12
2.82663e-12
2.6919e-12
2.69935e-12
2.82989e-12
3.0178e-12
1.37354e-11
1.23211e-11
1.06978e-11
9.24343e-12
8.10509e-12
7.34421e-12
6.97676e-12
6.98557e-12
7.31061e-12
7.77748e-12
3.5957e-11
3.2278e-11
2.79906e-11
2.41106e-11
2.10571e-11
1.90024e-11
1.79851e-11
1.79501e-11
1.8728e-11
1.98697e-11
9.37877e-11
8.42445e-11
7.29958e-11
6.27293e-11
5.45902e-11
4.90508e-11
4.6211e-11
4.59167e-11
4.7718e-11
5.04828e-11
2.44008e-10
2.19277e-10
1.89886e-10
1.6286e-10
1.41256e-10
1.26347e-10
1.18402e-10
1.17022e-10
1.21056e-10
1.27687e-10
6.33476e-10
5.69372e-10
4.9285e-10
4.21951e-10
3.6478e-10
3.24726e-10
3.02531e-10
2.97204e-10
3.05884e-10
3.21623e-10
1.64119e-09
1.47538e-09
1.27653e-09
1.09099e-09
9.40058e-10
8.3266e-10
7.70847e-10
7.52257e-10
7.69913e-10
8.06823e-10
4.24373e-09
3.81596e-09
3.29979e-09
2.8153e-09
2.41767e-09
2.13027e-09
1.95875e-09
1.8977e-09
1.9304e-09
2.01569e-09
1.09542e-08
9.85129e-09
8.51378e-09
7.25143e-09
6.20615e-09
5.43859e-09
4.96439e-09
4.77171e-09
4.82143e-09
5.01483e-09
2.8228e-08
2.53873e-08
2.19281e-08
1.86467e-08
1.59048e-08
1.38589e-08
1.25523e-08
1.19611e-08
1.19961e-08
1.24236e-08
7.26212e-08
6.53137e-08
5.63878e-08
4.78806e-08
4.07051e-08
3.52622e-08
3.16725e-08
2.9895e-08
2.97343e-08
3.0646e-08
1.86514e-07
1.67733e-07
1.44793e-07
1.22805e-07
1.04074e-07
8.9621e-08
7.97845e-08
7.45207e-08
7.34284e-08
7.52677e-08
4.78124e-07
4.30013e-07
3.71329e-07
3.14703e-07
2.65944e-07
2.2764e-07
2.00743e-07
1.85333e-07
1.80678e-07
1.84046e-07
1.22312e-06
1.10071e-06
9.51217e-07
8.06023e-07
6.79519e-07
5.7821e-07
5.04796e-07
4.60069e-07
4.43046e-07
4.48015e-07
3.12212e-06
2.81265e-06
2.43397e-06
2.06381e-06
1.73698e-06
1.46968e-06
1.26961e-06
1.14062e-06
1.0829e-06
1.0856e-06
7.94931e-06
7.17175e-06
6.22053e-06
5.28403e-06
4.44431e-06
3.74115e-06
3.19673e-06
2.82647e-06
2.63912e-06
2.61824e-06
2.01739e-05
1.82377e-05
1.58754e-05
1.35298e-05
1.13882e-05
9.54599e-06
8.06704e-06
7.00775e-06
6.41579e-06
6.28392e-06
5.09725e-05
4.62158e-05
4.0438e-05
3.46434e-05
2.92364e-05
2.44382e-05
2.04304e-05
1.74075e-05
1.55684e-05
1.50048e-05
0.000128012
0.000116548
0.000102712
8.86668e-05
7.52095e-05
6.28201e-05
5.20045e-05
4.34002e-05
3.77461e-05
3.56343e-05
0.000318785
0.000291909
0.000259736
0.000226598
0.000193787
0.000162222
0.000133249
0.000108853
9.15855e-05
8.41377e-05
0.000784625
0.000724041
0.000652306
0.000577079
0.000499457
0.0004207
0.00034409
0.000275425
0.000222965
0.000197468
0.00190026
0.00177133
0.00162092
0.00145955
0.00128397
0.00109378
0.000895726
0.000705232
0.000546999
0.000460932
0.0045023
0.00425107
0.00396391
0.00364631
0.00327542
0.00283911
0.00234628
0.00183209
0.00136167
0.00107251
0.0103606
0.00993724
0.00946836
0.00892569
0.00822282
0.00730073
0.00615041
0.0048316
0.00348233
0.00251865
0.022955
0.0224222
0.0218697
0.0211669
0.0200649
0.0183637
0.0159507
0.0128618
0.00924401
0.00610083
0.0484739
0.0482967
0.0482201
0.0479074
0.0467901
0.0443563
0.0402009
0.0341243
0.0266022
0.0174402
4.03886e-14
3.64556e-14
3.20953e-14
2.84762e-14
2.55185e-14
2.34292e-14
2.23084e-14
2.21596e-14
2.31505e-14
2.46265e-14
2.30684e-13
2.08021e-13
1.8309e-13
1.61857e-13
1.44656e-13
1.32638e-13
1.26345e-13
1.25776e-13
1.31339e-13
1.3977e-13
7.29657e-13
6.55471e-13
5.74092e-13
5.0364e-13
4.47835e-13
4.09649e-13
3.90527e-13
3.90568e-13
4.09066e-13
4.36539e-13
2.04608e-12
1.83331e-12
1.59727e-12
1.39063e-12
1.2292e-12
1.12085e-12
1.0688e-12
1.07241e-12
1.12595e-12
1.20314e-12
5.50653e-12
4.92922e-12
4.27675e-12
3.69987e-12
3.25156e-12
2.95413e-12
2.81432e-12
2.82705e-12
2.97045e-12
3.17189e-12
1.45774e-11
1.30497e-11
1.12891e-11
9.7173e-12
8.49577e-12
7.68785e-12
7.30769e-12
7.33447e-12
7.69922e-12
8.20602e-12
3.82982e-11
3.42903e-11
2.96032e-11
2.5383e-11
2.20921e-11
1.99064e-11
1.88571e-11
1.88775e-11
1.97715e-11
2.10276e-11
1.00162e-10
8.96879e-11
7.73129e-11
6.60907e-11
5.7291e-11
5.13922e-11
4.84693e-11
4.83322e-11
5.04566e-11
5.35371e-11
2.61072e-10
2.33779e-10
2.01294e-10
1.71645e-10
1.48237e-10
1.32352e-10
1.24181e-10
1.23218e-10
1.28114e-10
1.35586e-10
6.78582e-10
6.07633e-10
5.22719e-10
4.44744e-10
3.82716e-10
3.40029e-10
3.17191e-10
3.12917e-10
3.23811e-10
3.41726e-10
1.75943e-09
1.57546e-09
1.35419e-09
1.14983e-09
9.85955e-10
8.71483e-10
8.07796e-10
7.91724e-10
8.149e-10
8.57294e-10
4.55175e-09
4.07577e-09
3.50066e-09
2.96656e-09
2.53475e-09
2.22841e-09
2.05136e-09
1.99601e-09
2.04211e-09
2.1409e-09
1.17515e-08
1.05223e-08
9.03115e-09
7.63905e-09
6.5039e-09
5.68575e-09
5.19521e-09
5.01471e-09
5.09612e-09
5.32207e-09
3.02814e-08
2.71125e-08
2.32557e-08
1.96369e-08
1.66598e-08
1.44791e-08
1.31244e-08
1.25569e-08
1.26649e-08
1.31693e-08
7.78853e-08
6.97309e-08
5.97828e-08
5.04023e-08
4.26135e-08
3.6812e-08
3.30823e-08
3.1344e-08
3.13461e-08
3.24354e-08
1.99951e-07
1.79018e-07
1.53447e-07
1.29206e-07
1.0888e-07
9.34751e-08
8.3234e-08
7.80109e-08
7.72681e-08
7.95077e-08
5.1231e-07
4.58776e-07
3.93311e-07
3.30891e-07
2.77997e-07
2.3717e-07
2.09115e-07
1.93648e-07
1.89703e-07
1.93947e-07
1.30982e-06
1.1736e-06
1.00679e-06
8.46766e-07
7.09581e-07
6.01609e-07
5.24912e-07
4.79612e-07
4.63922e-07
4.70732e-07
3.34074e-06
2.99618e-06
2.57365e-06
2.16575e-06
1.81145e-06
1.52661e-06
1.31734e-06
1.18579e-06
1.13023e-06
1.1366e-06
8.49614e-06
7.63037e-06
6.56897e-06
5.53712e-06
4.62713e-06
3.87804e-06
3.30812e-06
2.92862e-06
2.74363e-06
2.72951e-06
2.15269e-05
1.93702e-05
1.67358e-05
1.41516e-05
1.18315e-05
9.86986e-06
8.32119e-06
7.23192e-06
6.63855e-06
6.51777e-06
5.42689e-05
4.89758e-05
4.2535e-05
3.61494e-05
3.02934e-05
2.51871e-05
2.09917e-05
1.78785e-05
1.60197e-05
1.54709e-05
0.000135886
0.000123163
0.00010773
9.22429e-05
7.76697e-05
6.44952e-05
5.3184e-05
4.43236e-05
3.85906e-05
3.64909e-05
0.000337128
0.000307362
0.000271433
0.00023485
0.000199314
0.00016578
0.000135526
0.000110446
9.29475e-05
8.55019e-05
0.000825883
0.000758882
0.000678581
0.000595339
0.000511214
0.000427617
0.000347784
0.000277406
0.000224429
0.000198994
0.00198863
0.00184607
0.00167683
0.00149744
0.00130681
0.00110504
0.000899112
0.000704622
0.000545705
0.000460366
0.00467886
0.00440014
0.00407346
0.00371705
0.00331265
0.00284958
0.00233814
0.0018153
0.00134583
0.00106134
0.0106787
0.010203
0.0096555
0.00903361
0.00825988
0.00727854
0.00608557
0.00474903
0.00340999
0.00246871
0.0234386
0.0228114
0.0221123
0.0212582
0.0200155
0.0181897
0.0156808
0.012552
0.00897588
0.00592786
0.048987
0.0486468
0.0483178
0.0477393
0.0463636
0.0436847
0.0393201
0.0331414
0.0256634
0.0167773
4.34053e-14
3.91095e-14
3.43545e-14
3.04069e-14
2.71955e-14
2.4941e-14
2.3748e-14
2.36159e-14
2.47113e-14
2.6325e-14
2.48871e-13
2.24017e-13
1.96659e-13
1.73394e-13
1.54639e-13
1.41624e-13
1.34907e-13
1.3447e-13
1.40686e-13
1.49935e-13
7.93711e-13
7.11577e-13
6.2119e-13
5.43239e-13
4.81844e-13
4.40155e-13
4.19657e-13
4.20383e-13
4.41423e-13
4.71847e-13
2.24696e-12
2.00743e-12
1.74112e-12
1.50958e-12
1.33016e-12
1.21096e-12
1.15513e-12
1.16182e-12
1.22436e-12
1.31173e-12
6.10046e-12
5.43891e-12
4.69081e-12
4.03596e-12
3.53289e-12
3.20373e-12
3.05439e-12
3.07892e-12
3.25187e-12
3.48551e-12
1.62699e-11
1.44902e-11
1.24412e-11
1.06356e-11
9.25343e-12
8.35567e-12
7.95228e-12
8.0188e-12
8.47403e-12
9.07648e-12
4.2994e-11
3.82577e-11
3.27341e-11
2.78384e-11
2.409e-11
2.1655e-11
2.05487e-11
2.06904e-11
2.18457e-11
2.33732e-11
1.12918e-10
1.00402e-10
8.56787e-11
7.2562e-11
6.24904e-11
5.59101e-11
5.2841e-11
5.30463e-11
5.58895e-11
5.97097e-11
2.95173e-10
2.62299e-10
2.23378e-10
1.88537e-10
1.61659e-10
1.43927e-10
1.35359e-10
1.35306e-10
1.42102e-10
1.51523e-10
7.68681e-10
6.82744e-10
5.80501e-10
4.88548e-10
4.17186e-10
3.69519e-10
3.45554e-10
3.43572e-10
3.59331e-10
3.82243e-10
1.9954e-09
1.77166e-09
1.5044e-09
1.26289e-09
1.07416e-09
9.4632e-10
8.7932e-10
8.68766e-10
9.04061e-10
9.58977e-10
5.16553e-09
4.58518e-09
3.88925e-09
3.25732e-09
2.75981e-09
2.41767e-09
2.23076e-09
2.18809e-09
2.26365e-09
2.39322e-09
1.33395e-08
1.18388e-08
1.00324e-08
8.38448e-09
7.07667e-09
6.16286e-09
5.64292e-09
5.49002e-09
5.64136e-09
5.94159e-09
3.43724e-08
3.05008e-08
2.58265e-08
2.15424e-08
1.81135e-08
1.56777e-08
1.42358e-08
1.37242e-08
1.39943e-08
1.46748e-08
8.8385e-08
7.84191e-08
6.63614e-08
5.52586e-08
4.62917e-08
3.98114e-08
3.58255e-08
3.41878e-08
3.45555e-08
3.60547e-08
2.26794e-07
2.01214e-07
1.70225e-07
1.41544e-07
1.18156e-07
1.00949e-07
8.99616e-08
8.4878e-08
8.49327e-08
8.81053e-08
5.80655e-07
5.15271e-07
4.35951e-07
3.62128e-07
3.01298e-07
2.55695e-07
2.25493e-07
2.10062e-07
2.07781e-07
2.14093e-07
1.48305e-06
1.31677e-06
1.1147e-06
9.25516e-07
7.67835e-07
6.4724e-07
5.64427e-07
5.18369e-07
5.05928e-07
5.1718e-07
3.77734e-06
3.35694e-06
2.84528e-06
2.36321e-06
1.9562e-06
1.63812e-06
1.41162e-06
1.27593e-06
1.22606e-06
1.24157e-06
9.5882e-06
8.53283e-06
7.24797e-06
6.02872e-06
4.98392e-06
4.14774e-06
3.52985e-06
3.13425e-06
2.95723e-06
2.96085e-06
2.42306e-05
2.16077e-05
1.84175e-05
1.53638e-05
1.27015e-05
1.05131e-05
8.83271e-06
7.68905e-06
7.10017e-06
7.01103e-06
6.08758e-05
5.44521e-05
4.66472e-05
3.90999e-05
3.23833e-05
2.6692e-05
2.21402e-05
1.88584e-05
1.69755e-05
1.64763e-05
0.000151744
0.000136324
0.00011761
9.92939e-05
8.25854e-05
6.79191e-05
5.56612e-05
4.63115e-05
4.04463e-05
3.84112e-05
0.000374249
0.00033823
0.000294595
0.000251266
0.000210526
0.000173248
0.000140533
0.000114114
9.61769e-05
8.88035e-05
0.000909866
0.000828885
0.000731026
0.000632134
0.000535624
0.000442827
0.000356756
0.000282927
0.000228841
0.000203596
0.00216994
0.00199753
0.00178978
0.00157533
0.00135613
0.00113237
0.000911097
0.000708254
0.000547356
0.000463337
0.00504558
0.00470648
0.00429918
0.00386764
0.00339994
0.0028861
0.00233814
0.0017963
0.0013259
0.00104947
0.011354
0.0107633
0.0100562
0.00928169
0.00837452
0.00728093
0.00600382
0.00462563
0.00329817
0.00239643
0.0245148
0.0236811
0.0226855
0.0215403
0.0200328
0.0179716
0.0152753
0.0120558
0.00853073
0.00564312
0.0503042
0.0496103
0.0487692
0.0476758
0.0458097
0.0426651
0.0378911
0.0314787
0.0240462
0.0156639
4.80915e-14
4.3195e-14
3.78378e-14
3.34018e-14
2.98111e-14
2.73077e-14
2.60025e-14
2.589e-14
2.71493e-14
2.90118e-14
2.76357e-13
2.47758e-13
2.1673e-13
1.90514e-13
1.6952e-13
1.55055e-13
1.47708e-13
1.47451e-13
1.54716e-13
1.65539e-13
8.8882e-13
7.92488e-13
6.88251e-13
5.99632e-13
5.30445e-13
4.83842e-13
4.61345e-13
4.63085e-13
4.88439e-13
5.24966e-13
2.54097e-12
2.25378e-12
1.94062e-12
1.67416e-12
1.47028e-12
1.33623e-12
1.27502e-12
1.28634e-12
1.3644e-12
1.47246e-12
6.95782e-12
6.1486e-12
5.25445e-12
4.4915e-12
3.91528e-12
3.54355e-12
3.38094e-12
3.42311e-12
3.64596e-12
3.94253e-12
1.86811e-11
1.647e-11
1.3988e-11
1.18613e-11
1.02671e-11
9.25059e-12
8.81575e-12
8.94119e-12
9.54516e-12
1.0327e-11
4.96094e-11
4.36648e-11
3.68999e-11
3.10823e-11
2.67344e-11
2.3974e-11
2.27927e-11
2.31128e-11
2.46872e-11
2.67037e-11
1.30756e-10
1.14915e-10
9.67477e-11
8.10584e-11
6.93273e-11
6.18633e-11
5.86076e-11
5.93141e-11
6.32885e-11
6.83994e-11
3.42614e-10
3.00778e-10
2.52499e-10
2.10632e-10
1.79238e-10
1.59122e-10
1.50058e-10
1.51334e-10
1.61082e-10
1.73829e-10
8.93482e-10