/*--------------------------------*- C++ -*----------------------------------*\
| =========                 |                                                 |
| \\      /  F ield         | OpenFOAM: The Open Source CFD Toolbox           |
|  \\    /   O peration     | Version:  2112                                  |
|   \\  /    A nd           | Website:  www.openfoam.com                      |
|    \\/     M anipulation  |                                                 |
\*---------------------------------------------------------------------------*/
FoamFile
{
    version     2.0;
    format      ascii;
    arch        "LSB;label=32;scalar=64";
    class       volScalarField;
    location    "8.5";
    object      p;
}
// * * * * * * * * * * * * * * * * * * * * * * * * * * * * * * * * * * * * * //

dimensions      [0 2 -2 0 0 0 0];

internalField   nonuniform List<scalar> 
8800
(
0.41319
0.365501
0.327031
0.298269
0.277689
0.263178
0.252931
0.245764
0.24115
0.239107
0.240075
0.24379
0.249891
0.25866
0.270956
0.288286
0.312735
0.346426
0.388706
0.447401
0.243974
0.251692
0.259548
0.263094
0.261883
0.257181
0.251117
0.245459
0.241073
0.238366
0.237927
0.240015
0.243915
0.249233
0.255397
0.261149
0.264359
0.263342
0.257514
0.248597
0.22196
0.22834
0.23295
0.236462
0.239028
0.240146
0.23949
0.237713
0.235845
0.234863
0.235541
0.237469
0.239717
0.241265
0.241208
0.239368
0.236387
0.23238
0.227389
0.223574
0.215727
0.218595
0.222171
0.225372
0.227552
0.229013
0.229994
0.230421
0.230407
0.230426
0.230765
0.231282
0.231461
0.230994
0.229944
0.228283
0.225671
0.222134
0.219041
0.217572
0.21164
0.212982
0.215874
0.218982
0.2217
0.223842
0.225279
0.226139
0.226612
0.226908
0.227263
0.227444
0.227177
0.226325
0.22472
0.222399
0.219571
0.216449
0.214342
0.213825
0.211123
0.211652
0.212968
0.214497
0.216085
0.217695
0.219166
0.220415
0.221352
0.222003
0.222292
0.22215
0.221547
0.220531
0.219259
0.217752
0.216293
0.214845
0.213949
0.213759
0.209968
0.210225
0.210976
0.212006
0.213123
0.214131
0.215297
0.216363
0.217285
0.218011
0.218397
0.218352
0.217933
0.217201
0.216407
0.215524
0.214603
0.213753
0.213289
0.213206
0.207815
0.207924
0.208293
0.208875
0.209511
0.210495
0.2114
0.212375
0.21333
0.214166
0.214669
0.214745
0.214498
0.214095
0.213435
0.212891
0.212459
0.212047
0.211853
0.211818
0.204915
0.204978
0.205217
0.205628
0.206135
0.206749
0.207476
0.208312
0.209223
0.210135
0.210812
0.211126
0.211163
0.211031
0.210812
0.21055
0.210272
0.210041
0.209942
0.209923
0.20164
0.201675
0.201836
0.202126
0.202526
0.203054
0.203729
0.204556
0.205521
0.206572
0.207463
0.208007
0.208263
0.208331
0.20829
0.208196
0.20808
0.207983
0.207944
0.207932
0.197983
0.19801
0.198128
0.198352
0.198686
0.199159
0.199806
0.200652
0.201713
0.202955
0.204112
0.204927
0.205432
0.205718
0.205862
0.20592
0.205929
0.205921
0.205918
0.20591
0.193965
0.193991
0.194096
0.1943
0.194621
0.195094
0.195794
0.196728
0.197955
0.199467
0.200956
0.202084
0.202833
0.203322
0.203623
0.2038
0.203897
0.203947
0.203968
0.203961
0.189561
0.189582
0.189698
0.189914
0.190263
0.190795
0.191575
0.192672
0.194146
0.196014
0.19791
0.199383
0.20044
0.201142
0.201599
0.201886
0.202058
0.202155
0.202194
0.202188
0.184736
0.18476
0.184891
0.185141
0.185548
0.186177
0.18711
0.18844
0.190255
0.192591
0.195004
0.196929
0.198298
0.199238
0.199861
0.200259
0.200504
0.200644
0.200701
0.200695
0.179406
0.179434
0.179594
0.179898
0.180395
0.181167
0.182318
0.18397
0.186237
0.189176
0.192235
0.194688
0.196453
0.197671
0.198484
0.199008
0.199333
0.199519
0.199595
0.199588
0.173452
0.173487
0.173687
0.174069
0.174693
0.175662
0.177109
0.179188
0.182046
0.185758
0.189628
0.192737
0.19498
0.196533
0.197571
0.198242
0.19866
0.198898
0.198996
0.198988
0.166712
0.166756
0.167012
0.167498
0.168293
0.169527
0.171367
0.174006
0.17763
0.182326
0.187214
0.191138
0.193968
0.195928
0.19724
0.198089
0.198617
0.198919
0.199043
0.199032
0.158964
0.159022
0.159352
0.159979
0.161004
0.16259
0.164948
0.16832
0.172931
0.178879
0.185044
0.189978
0.193532
0.195992
0.197638
0.198704
0.199367
0.199747
0.199902
0.199888
0.149911
0.14999
0.150421
0.151238
0.152572
0.154629
0.157674
0.162004
0.167887
0.175423
0.183183
0.189367
0.193812
0.196886
0.198943
0.200276
0.201104
0.201577
0.20177
0.201753
0.13915
0.139257
0.139825
0.140904
0.142664
0.145361
0.149322
0.154911
0.162434
0.171977
0.181718
0.189439
0.194977
0.198806
0.201369
0.203029
0.204059
0.204646
0.204886
0.204864
0.12611
0.126256
0.127018
0.128473
0.130834
0.134416
0.139617
0.146874
0.156516
0.168583
0.180762
0.190355
0.197225
0.201978
0.205166
0.207232
0.208512
0.209237
0.209532
0.209506
0.109966
0.11017
0.111217
0.113235
0.116474
0.121306
0.128214
0.137704
0.150088
0.165304
0.180446
0.192296
0.200777
0.206662
0.210625
0.213204
0.2148
0.215697
0.21606
0.216025
0.0895111
0.0898038
0.0912957
0.0941931
0.0987448
0.10539
0.114719
0.127228
0.143139
0.162235
0.180919
0.195441
0.205851
0.213121
0.218061
0.221306
0.22333
0.224465
0.224915
0.224864
0.0628586
0.0633089
0.0655811
0.0699603
0.0765894
0.0859983
0.0988058
0.115386
0.13577
0.159539
0.182351
0.199964
0.212642
0.221596
0.227779
0.231921
0.23456
0.23606
0.236647
0.236569
0.0266893
0.0275014
0.0314403
0.038617
0.0488172
0.0626136
0.0804331
0.102386
0.12827
0.157481
0.184937
0.206005
0.221274
0.232244
0.240012
0.245387
0.248953
0.251051
0.251887
0.251779
-0.0255419
-0.0231695
-0.0149207
-0.0019804
0.0145984
0.0352076
0.059946
0.0886934
0.121067
0.156359
0.188824
0.213595
0.231702
0.244993
0.254737
0.261819
0.266835
0.270039
0.271428
0.271288
-0.104551
-0.0929058
-0.0739923
-0.050736
-0.0245678
0.00505115
0.0382337
0.0748155
0.114407
0.156354
0.194307
0.223234
0.244679
0.260872
0.273292
0.282964
0.290519
0.296094
0.299239
0.299787
-0.188658
-0.16351
-0.133217
-0.0996709
-0.0637487
-0.0250724
0.0165109
0.0609893
0.108128
0.157425
0.201864
0.235987
0.261729
0.281694
0.297589
0.31056
0.321322
0.330818
0.337497
0.338308
-0.252169
-0.224809
-0.186494
-0.144715
-0.100341
-0.0534307
-0.00394947
0.0480481
0.102361
0.158559
0.208916
0.247479
0.27656
0.299128
0.317049
0.331552
0.343402
0.35315
0.359147
0.360026
-0.302889
-0.273477
-0.230659
-0.183248
-0.132674
-0.079211
-0.02303
0.035644
0.0964823
0.158943
0.214436
0.256558
0.287987
0.31203
0.3308
0.345732
0.357784
0.367489
0.373503
0.374464
-0.343378
-0.313497
-0.267538
-0.215966
-0.160718
-0.102112
-0.0404542
0.023906
0.0905057
0.158639
0.218806
0.264021
0.297317
0.322432
0.341753
0.35688
0.368903
0.3783
0.384268
0.385281
-0.377389
-0.347335
-0.299226
-0.244484
-0.185536
-0.122743
-0.0564575
0.0128946
0.0847242
0.158107
0.222581
0.270586
0.305525
0.331528
0.351251
0.366477
0.378433
0.387679
0.393522
0.394551
-0.406931
-0.376898
-0.327254
-0.270064
-0.20809
-0.141768
-0.0715005
0.00224643
0.0788007
0.157082
0.225724
0.276489
0.313066
0.339968
0.360127
0.375505
0.387437
0.396581
0.40229
0.403321
-0.433513
-0.40344
-0.352614
-0.293487
-0.229083
-0.159839
-0.0861415
-0.00846623
0.0724978
0.155561
0.228413
0.28206
0.320391
0.348287
0.368956
0.384542
0.396497
0.40557
0.41116
0.412185
-0.458014
-0.427854
-0.376113
-0.315409
-0.248985
-0.177263
-0.100571
-0.0193491
0.0657563
0.153502
0.230693
0.287444
0.32774
0.356798
0.378094
0.39397
0.40601
0.415003
0.420479
0.421539
-0.48118
-0.450823
-0.398293
-0.33627
-0.268155
-0.194304
-0.115002
-0.030593
0.0583934
0.150783
0.232523
0.292692
0.335251
0.3657
0.387779
0.404043
0.41622
0.425215
0.430521
0.431651
-0.503269
-0.472672
-0.419471
-0.356395
-0.286859
-0.211203
-0.129628
-0.042339
0.0503041
0.147302
0.233823
0.297777
0.342968
0.375099
0.398169
0.414954
0.427345
0.436374
0.441538
0.442667
-0.524601
-0.493677
-0.439867
-0.375941
-0.305195
-0.228025
-0.1445
-0.054657
0.0413969
0.142933
0.234454
0.302604
0.350848
0.385021
0.409346
0.426824
0.439537
0.448643
0.453696
0.454779
-0.545203
-0.51396
-0.459679
-0.394968
-0.323225
-0.244807
-0.159643
-0.0675755
0.031613
0.137586
0.234278
0.307008
0.358768
0.395403
0.421309
0.439708
0.452891
0.462137
0.467121
0.46807
-0.565119
-0.533624
-0.478893
-0.413503
-0.34095
-0.261532
-0.175043
-0.0810861
0.0209273
0.131177
0.233133
0.310788
0.366518
0.406095
0.433989
0.453602
0.467455
0.476972
0.481909
0.482644
-0.584358
-0.552575
-0.497457
-0.431493
-0.358345
-0.278149
-0.190637
-0.0951391
0.00935604
0.123649
0.230894
0.313704
0.373826
0.416873
0.447263
0.468469
0.483197
0.493079
0.498018
0.498518
-0.602976
-0.57074
-0.515354
-0.448915
-0.375323
-0.294595
-0.206346
-0.10967
-0.00305539
0.114972
0.227428
0.315497
0.380351
0.427421
0.460874
0.484171
0.500075
0.51046
0.515384
0.515632
-0.620785
-0.588278
-0.532509
-0.465731
-0.391821
-0.310773
-0.222086
-0.124578
-0.0162429
0.105192
0.222635
0.315941
0.385694
0.437221
0.474435
0.500455
0.517962
0.528946
0.533739
0.533698
-0.637718
-0.605042
-0.548869
-0.481863
-0.407768
-0.326605
-0.237746
-0.139766
-0.0301045
0.0943453
0.216509
0.314876
0.38941
0.445582
0.487318
0.517089
0.536885
0.548422
0.552752
0.55233
-0.65384
-0.620852
-0.564435
-0.497255
-0.423103
-0.342003
-0.25323
-0.155117
-0.0445379
0.0825221
0.209077
0.312149
0.391104
0.451719
0.498573
0.533529
0.557137
0.569435
0.572034
0.57086
-0.669038
-0.635806
-0.579137
-0.511847
-0.437768
-0.356889
-0.268438
-0.170514
-0.0594137
0.0698517
0.200411
0.307747
0.390444
0.454926
0.506941
0.548458
0.578709
0.594289
0.593104
0.589005
-0.683424
-0.649893
-0.592993
-0.525671
-0.451796
-0.371308
-0.283426
-0.186026
-0.0748236
0.05624
0.190451
0.301467
0.387343
0.454601
0.510474
0.558951
0.599279
0.626503
0.627508
0.602636
-0.69696
-0.663146
-0.606098
-0.538887
-0.465422
-0.385546
-0.298579
-0.202146
-0.0913805
0.0409519
0.178536
0.292696
0.381055
0.449503
0.505995
0.558983
0.606321
0.636891
0.629266
0.598207
-0.709542
-0.675591
-0.618301
-0.551278
-0.478378
-0.399285
-0.313652
-0.218528
-0.108749
0.0242672
0.164955
0.281704
0.371205
0.439515
0.489766
0.538895
0.577041
0.588909
0.524749
0.476566
-0.720556
-0.687365
-0.629248
-0.562279
-0.490166
-0.41218
-0.328397
-0.235038
-0.126895
0.00617425
0.14976
0.268789
0.357901
0.42574
0.464226
0.489546
0.510417
0.470478
0.390345
0.337107
-0.773393
-0.695227
-0.63938
-0.573211
-0.502091
-0.425377
-0.342967
-0.251987
-0.146245
-0.013779
0.132406
0.253306
0.339136
0.408656
0.423143
0.416571
0.384664
0.313582
0.21896
0.166853
-0.721042
-0.707951
-0.651904
-0.588285
-0.518271
-0.44335
-0.364318
-0.277274
-0.175358
-0.0436157
0.10674
0.227676
0.303328
0.352326
0.351984
0.210611
0.0761435
-0.0150165
-0.108716
-0.0540138
-0.74662
-0.719148
-0.663706
-0.600374
-0.53103
-0.45756
-0.380151
-0.296229
-0.19862
-0.0699966
0.0835525
0.206218
0.273379
0.291016
0.217503
0.0192559
-0.161941
-0.289903
-0.426833
-0.331543
-0.764087
-0.732217
-0.676956
-0.613252
-0.544526
-0.472442
-0.397237
-0.317249
-0.224839
-0.0996068
0.0557105
0.18112
0.236953
0.222242
0.0703525
-0.199585
-0.429687
-0.605706
-0.80716
-0.704741
-0.779909
-0.745996
-0.689833
-0.625634
-0.557441
-0.486766
-0.41427
-0.338706
-0.251929
-0.130739
0.0293939
0.158385
0.19944
0.138833
-0.104778
-0.429976
-0.732934
-0.996889
-1.29525
-1.2528
-0.793634
-0.759282
-0.702466
-0.637941
-0.570326
-0.501182
-0.431718
-0.361156
-0.281122
-0.166372
-0.00185042
0.136121
0.160576
0.0424862
-0.276411
-0.651914
-1.03145
-1.3821
-1.79463
-2.16046
-0.806325
-0.771959
-0.714916
-0.650317
-0.583277
-0.51574
-0.449534
-0.384777
-0.312864
-0.207509
-0.0381598
0.110804
0.120736
-0.0529853
-0.434498
-0.835605
-1.24695
-1.60155
-1.77263
-2.05489
-0.818464
-0.784137
-0.727121
-0.662653
-0.596284
-0.530496
-0.467943
-0.409921
-0.348246
-0.25613
-0.0819019
0.0841623
0.0866886
-0.165899
-0.57744
-0.983155
-1.34627
-1.58051
-1.64206
-1.68979
-0.830259
-0.79601
-0.738937
-0.674681
-0.609088
-0.545207
-0.486796
-0.436664
-0.390377
-0.314497
-0.142117
0.0506321
0.0411329
-0.296706
-0.704123
-1.10692
-1.44837
-1.55931
-1.56678
-1.5929
-0.841706
-0.807282
-0.750149
-0.686089
-0.621271
-0.55943
-0.505572
-0.464786
-0.437306
-0.38962
-0.230972
-0.0102477
-0.0474129
-0.439753
-0.828531
-1.21306
-1.62446
-1.71702
-1.64605
-1.62771
-0.852625
-0.817723
-0.76042
-0.696485
-0.632363
-0.572532
-0.523476
-0.493427
-0.490169
-0.489626
-0.374655
-0.137964
-0.18898
-0.606519
-0.956457
-1.24983
-1.6518
-1.77558
-1.60509
-1.55667
-0.862553
-0.827038
-0.769383
-0.705398
-0.641771
-0.583718
-0.539469
-0.521443
-0.549538
-0.628101
-0.6161
-0.38601
-0.42892
-0.816439
-1.0639
-1.09821
-1.06332
-1.25956
-1.37606
-1.39434
-0.870949
-0.834768
-0.776591
-0.712301
-0.648807
-0.592074
-0.552171
-0.546814
-0.613351
-0.817565
-1.00676
-0.782258
-0.773026
-1.09207
-1.26765
-1.11059
-0.979472
-1.20317
-1.40706
-1.47666
-0.877531
-0.840506
-0.781548
-0.716618
-0.652736
-0.596511
-0.559864
-0.5667
-0.674301
-1.04428
-1.56449
-1.33594
-1.212
-1.48202
-1.90558
-2.14099
-2.17763
-2.14521
-2.08787
-2.08496
-0.88193
-0.84381
-0.783804
-0.717798
-0.652846
-0.595936
-0.560391
-0.575515
-0.718407
-1.25986
-2.18469
-1.94245
-1.63563
-1.91865
-2.67176
-3.5408
-3.74694
-3.45648
-3.11808
-2.95778
-0.883743
-0.84436
-0.782982
-0.715433
-0.648583
-0.58946
-0.551906
-0.567989
-0.730247
-1.3732
-2.56354
-2.21617
-1.70885
-1.90916
-2.7508
-3.82859
-3.9584
-3.42152
-2.94072
-2.73872
-0.882681
-0.842032
-0.778893
-0.709358
-0.639731
-0.576685
-0.533264
-0.540136
-0.687263
-1.30051
-2.42675
-1.8945
-1.17714
-0.958107
-1.16239
-1.54021
-1.55662
-1.24806
-1.00754
-0.916666
-0.878992
-0.836834
-0.771715
-0.699726
-0.626484
-0.557892
-0.504939
-0.492132
-0.587297
-1.01231
-1.71356
-1.07101
-0.277219
0.208945
0.461963
0.569026
0.678747
0.757295
0.798239
0.807112
-0.873018
-0.829188
-0.761801
-0.68692
-0.609583
-0.534356
-0.46917
-0.429747
-0.452049
-0.621399
-0.773928
-0.205047
0.412222
0.838266
1.12134
1.31152
1.42261
1.47572
1.49262
1.49294
-0.86441
-0.819292
-0.749385
-0.671562
-0.589918
-0.507731
-0.429685
-0.362924
-0.317248
-0.28732
-0.131805
0.301278
0.7336
1.0632
1.27922
1.42483
1.51689
1.56908
1.59337
1.59738
-0.85146
-0.806035
-0.73448
-0.65377
-0.568218
-0.479739
-0.390266
-0.300801
-0.206829
-0.0760538
0.171549
0.508293
0.813116
1.05555
1.2218
1.3355
1.41298
1.46397
1.49191
1.4975
-0.833627
-0.788197
-0.715772
-0.632949
-0.544374
-0.45113
-0.353217
-0.248259
-0.126638
0.0434924
0.291132
0.561036
0.791465
0.972423
1.1038
1.19799
1.26585
1.31403
1.34041
1.34689
-0.806158
-0.762357
-0.690875
-0.60708
-0.517115
-0.421473
-0.318893
-0.205802
-0.0722411
0.105491
0.329204
0.548191
0.730147
0.872507
0.979943
1.06033
1.12063
1.16475
1.18876
1.19541
-0.762984
-0.72256
-0.656282
-0.573124
-0.48438
-0.38904
-0.286057
-0.171446
-0.0368893
0.133087
0.327951
0.50709
0.653553
0.768874
0.858325
0.927375
0.980695
1.01997
1.04259
1.04992
-0.702871
-0.668493
-0.604745
-0.527236
-0.442645
-0.351974
-0.25283
-0.142337
-0.0145582
0.139836
0.305665
0.45162
0.569213
0.662241
0.73558
0.79361
0.83898
0.873009
0.895541
0.902696
-0.6133
-0.590143
-0.533887
-0.464815
-0.388987
-0.306742
-0.216341
-0.115505
-0.000459732
0.134066
0.272544
0.388702
0.480291
0.551905
0.60797
0.652424
0.687998
0.714964
0.731567
0.736172
-0.48352
-0.472001
-0.433431
-0.380434
-0.320083
-0.252526
-0.176257
-0.089714
0.00967598
0.124875
0.241239
0.337538
0.411961
0.468823
0.511982
0.544517
0.568856
0.587641
0.600264
0.603357
-0.34296
-0.338603
-0.316413
-0.282621
-0.241218
-0.191386
-0.132264
-0.0623209
0.0201205
0.116701
0.213503
0.292685
0.352869
0.39779
0.430594
0.454014
0.470495
0.481393
0.487169
0.488315
-0.217372
-0.215163
-0.204897
-0.186817
-0.161887
-0.128955
-0.086604
-0.0333127
0.0321868
0.110701
0.189866
0.254216
0.302313
0.337105
0.361647
0.378443
0.389215
0.395581
0.398688
0.399137
-0.117851
-0.117944
-0.114638
-0.10681
-0.0935153
-0.0731517
-0.0443595
-0.00543216
0.0450385
0.107489
0.171156
0.222587
0.26049
0.287474
0.305819
0.317558
0.324766
0.328717
0.330287
0.330342
-0.0488509
-0.0497147
-0.0505076
-0.0485973
-0.0422728
-0.0299885
-0.0104016
0.0177515
0.055935
0.104696
0.155162
0.195929
0.225579
0.246061
0.259619
0.268255
0.273235
0.275658
0.276502
0.276442
-0.00588951
-0.00671734
-0.0082715
-0.00844377
-0.00571177
0.00136323
0.0145792
0.0350588
0.0639422
0.101699
0.14117
0.172972
0.195951
0.21183
0.222229
0.2285
0.231888
0.233415
0.233863
0.233799
0.0197316
0.0192073
0.0181157
0.017844
0.0195375
0.0241931
0.0330737
0.0478402
0.0694733
0.0985236
0.129309
0.154192
0.172057
0.184105
0.191716
0.19642
0.198834
0.199854
0.200121
0.200066
0.0357446
0.0354503
0.034829
0.0347166
0.0359358
0.0393275
0.0458767
0.0568069
0.0730703
0.095271
0.119029
0.138208
0.151882
0.161099
0.166987
0.170424
0.172203
0.172919
0.173096
0.173051
0.0461053
0.0459405
0.0455851
0.0455991
0.0465468
0.0490298
0.0538318
0.0619603
0.0743251
0.091324
0.109627
0.124448
0.135021
0.142103
0.146552
0.149121
0.150444
0.150968
0.151096
0.15106
0.0524829
0.0523923
0.0521987
0.0522924
0.0530845
0.0550187
0.0586662
0.0647052
0.0741558
0.087166
0.101245
0.112639
0.120733
0.12615
0.12951
0.13145
0.132435
0.132814
0.132902
0.132872
0.0559374
0.0558855
0.0557848
0.0559096
0.056557
0.0580587
0.0608547
0.0654869
0.0726331
0.0826169
0.0934256
0.102175
0.10839
0.112544
0.115094
0.116559
0.117294
0.117571
0.117632
0.117606
0.0572335
0.0572031
0.0571604
0.0572994
0.0578368
0.0590181
0.0611731
0.064715
0.0700793
0.0778209
0.0861274
0.092841
0.0976276
0.100762
0.102699
0.103806
0.104356
0.104558
0.104599
0.104576
0.0569302
0.0569111
0.056897
0.0570295
0.0574675
0.0583965
0.0600656
0.062789
0.0668894
0.0728452
0.0792046
0.0843324
0.0880094
0.0903803
0.0918531
0.0926924
0.0931058
0.0932527
0.093279
0.0932601
0.055412
0.0553991
0.0553974
0.0555131
0.0558645
0.056592
0.0578859
0.0599855
0.0631507
0.0676059
0.072534
0.0764883
0.0792595
0.0810813
0.082205
0.0828403
0.0831497
0.0832563
0.0832729
0.0832573
0.0529594
0.0529501
0.0529528
0.0530482
0.0533258
0.0538932
0.0548946
0.0565143
0.0589522
0.0623604
0.0660882
0.0691039
0.071227
0.0726228
0.0734799
0.0739618
0.0741934
0.07427
0.0742798
0.0742668
0.0497832
0.0497761
0.0497792
0.0498549
0.0500716
0.050511
0.0512836
0.0525292
0.0543996
0.0570016
0.0598369
0.0621334
0.0637527
0.0648166
0.0654678
0.0658317
0.0660045
0.0660595
0.066065
0.0660544
0.0460462
0.0460406
0.0460428
0.0461012
0.046268
0.046606
0.0471993
0.0481542
0.0495845
0.0515677
0.0537273
0.0554765
0.0567044
0.0575115
0.0580046
0.0582787
0.058407
0.0584456
0.0584479
0.0584392
0.0418759
0.0418712
0.0418722
0.0419164
0.0420437
0.0423018
0.0427552
0.0434838
0.0445738
0.0460832
0.0477224
0.0490502
0.0499811
0.0505915
0.050963
0.0511678
0.051262
0.0512889
0.0512892
0.0512822
0.0373727
0.0373685
0.0373684
0.037401
0.037497
0.0376923
0.0380356
0.0385877
0.0394149
0.0405601
0.0418012
0.0428012
0.0435052
0.0439646
0.0442426
0.0443943
0.0444626
0.0444801
0.0444789
0.0444734
0.032615
0.0326115
0.0326103
0.0326334
0.0327039
0.0328492
0.0331065
0.0335219
0.0341447
0.0350058
0.0359364
0.0366869
0.037214
0.0375574
0.0377647
0.0378771
0.0379266
0.037938
0.037936
0.0379314
0.0276639
0.0276608
0.0276583
0.0276736
0.0277243
0.027831
0.0280213
0.02833
0.0287925
0.0294323
0.030124
0.0306807
0.03107
0.0313225
0.0314737
0.0315545
0.031589
0.0315958
0.0315932
0.0315895
0.0225664
0.0225636
0.0225604
0.0225698
0.0226049
0.022681
0.0228183
0.0230417
0.0233773
0.0238424
0.0243451
0.0247499
0.0250328
0.0252152
0.0253231
0.0253793
0.0254016
0.0254041
0.0254009
0.025398
0.0173599
0.0173573
0.0173533
0.0173577
0.0173802
0.017432
0.0175267
0.0176821
0.0179168
0.0182422
0.0185941
0.0188767
0.0190731
0.0191987
0.019272
0.0193094
0.0193231
0.0193229
0.0193196
0.0193173
0.0120746
0.0120723
0.0120679
0.0120686
0.0120816
0.0121135
0.0121737
0.0122735
0.0124251
0.012635
0.0128617
0.0130431
0.0131692
0.0132492
0.0132954
0.0133178
0.0133245
0.0133222
0.0133188
0.0133171
0.00673184
0.00673015
0.00672632
0.00672541
0.00673107
0.0067471
0.00677874
0.00683085
0.0069105
0.00702159
0.00714187
0.00723878
0.00730612
0.00734784
0.00737095
0.00738102
0.0073825
0.00737911
0.00737591
0.0073747
0.00135166
0.00135136
0.00134984
0.00134615
0.00134519
0.00134694
0.00135159
0.00135989
0.00137295
0.00139196
0.00141611
0.00143884
0.00145538
0.00146625
0.0014726
0.00147593
0.00147647
0.00147355
0.00147053
0.00146977
-0.915642
-0.634491
-0.329727
-0.0860601
0.110809
0.271064
0.408463
0.525588
0.582249
0.557635
-0.420088
-0.236449
-0.048629
0.111967
0.248428
0.363596
0.458311
0.526779
0.562336
0.571276
-0.0933208
0.0252922
0.148708
0.258491
0.353471
0.433429
0.497082
0.543153
0.574173
0.589586
0.127625
0.207648
0.293359
0.370373
0.437677
0.494455
0.54035
0.575752
0.602689
0.619326
0.289736
0.346738
0.406712
0.463329
0.513103
0.555905
0.59175
0.620638
0.643455
0.660238
0.416082
0.457981
0.504284
0.548281
0.587804
0.622627
0.652448
0.676859
0.696284
0.713046
0.522332
0.555947
0.595719
0.632847
0.667146
0.697828
0.724233
0.745785
0.762314
0.779114
0.619174
0.651491
0.68905
0.724235
0.756457
0.785193
0.809746
0.829389
0.843457
0.860392
0.719552
0.754747
0.79355
0.828996
0.860678
0.888208
0.911199
0.929214
0.941563
0.958961
0.837923
0.876689
0.9167
0.952069
0.982379
1.00795
1.02899
1.04534
1.05716
1.07526
0.98475
1.02395
1.06073
1.09214
1.11838
1.14095
1.16041
1.17624
1.18891
1.20698
1.16079
1.19298
1.21951
1.24228
1.26262
1.28163
1.29961
1.31632
1.33185
1.34998
1.35016
1.36758
1.38286
1.39924
1.41535
1.4301
1.44346
1.45753
1.47518
1.49539
1.53229
1.54188
1.55355
1.56449
1.57389
1.58362
1.59453
1.606
1.61744
1.6328
1.73966
1.74337
1.72855
1.71399
1.70788
1.71353
1.73205
1.76237
1.79451
1.82117
2.0462
1.91142
1.83486
1.79239
1.77486
1.77901
1.80638
1.86281
1.96557
2.18998
0.303686
0.301684
0.297259
0.288839
0.276896
0.265133
0.255312
0.247785
0.242449
0.239314
0.238808
0.241119
0.245675
0.252318
0.261135
0.27215
0.28439
0.295107
0.301095
0.303976
0.227495
0.233415
0.240065
0.24503
0.247962
0.248099
0.245808
0.242393
0.23916
0.236952
0.236606
0.238438
0.241565
0.245243
0.248438
0.249726
0.248228
0.244197
0.238539
0.231712
0.218796
0.221122
0.224972
0.228579
0.231163
0.233042
0.234156
0.23425
0.233568
0.232873
0.232887
0.233755
0.234914
0.235543
0.235107
0.233703
0.231578
0.228572
0.224705
0.221475
0.213054
0.213971
0.21665
0.220266
0.223303
0.22544
0.226856
0.227744
0.228209
0.228398
0.22865
0.229024
0.229143
0.228774
0.227852
0.226247
0.223775
0.220421
0.217064
0.215352
0.211293
0.211589
0.21304
0.215338
0.217596
0.219775
0.221669
0.223064
0.223984
0.224579
0.224983
0.225153
0.224916
0.22414
0.222746
0.220864
0.218736
0.21651
0.214512
0.213756
0.210675
0.210798
0.211448
0.212569
0.213787
0.215013
0.216217
0.217407
0.218459
0.219283
0.219807
0.219923
0.219602
0.218922
0.218036
0.217033
0.21593
0.214845
0.213946
0.213631
0.20902
0.209072
0.209418
0.21012
0.210967
0.211939
0.213001
0.214095
0.2151
0.215979
0.216613
0.216828
0.216634
0.216115
0.215392
0.214681
0.213964
0.213266
0.212781
0.212634
0.20642
0.206442
0.206612
0.207008
0.207523
0.208148
0.208898
0.209746
0.210666
0.211577
0.21233
0.212722
0.212752
0.212557
0.212246
0.211878
0.211531
0.211183
0.210961
0.210904
0.203325
0.203337
0.203451
0.203729
0.204134
0.204647
0.205287
0.206051
0.206934
0.2079
0.208807
0.209416
0.209688
0.209734
0.209639
0.209472
0.20928
0.209089
0.208973
0.208943
0.199856
0.19986
0.199938
0.200132
0.200434
0.200854
0.201421
0.20216
0.203081
0.204165
0.205278
0.206139
0.206654
0.206921
0.207032
0.20705
0.207017
0.206966
0.206934
0.206925
0.196021
0.196025
0.196085
0.19625
0.196511
0.196902
0.197466
0.198233
0.19924
0.200497
0.201883
0.203046
0.203835
0.204328
0.204624
0.204789
0.204872
0.204908
0.204924
0.204926
0.191813
0.191813
0.191881
0.192036
0.192299
0.192708
0.193316
0.194176
0.195346
0.196859
0.198595
0.200126
0.201191
0.201936
0.202412
0.20271
0.202889
0.202991
0.203042
0.203054
0.187205
0.187203
0.187275
0.187449
0.187746
0.188212
0.188914
0.189931
0.191342
0.193204
0.195388
0.197351
0.198795
0.199784
0.20045
0.200881
0.201149
0.201308
0.201389
0.201409
0.182141
0.182137
0.182224
0.182429
0.182783
0.183344
0.184194
0.185437
0.18718
0.189504
0.19226
0.194772
0.196625
0.197923
0.198802
0.199377
0.19974
0.199958
0.20007
0.200097
0.176517
0.176511
0.176619
0.176874
0.177312
0.178008
0.179067
0.18062
0.182803
0.185727
0.189209
0.192397
0.194757
0.196421
0.197551
0.198294
0.198765
0.199049
0.199194
0.19923
0.170195
0.170187
0.170324
0.170647
0.171202
0.172083
0.173423
0.175386
0.178147
0.181843
0.186245
0.190275
0.19326
0.195367
0.196801
0.197745
0.198344
0.198706
0.198891
0.198937
0.162984
0.162975
0.163152
0.163567
0.16428
0.165408
0.16712
0.169623
0.173135
0.177823
0.183387
0.188467
0.192224
0.194876
0.196679
0.197867
0.198623
0.199079
0.199313
0.199369
0.154628
0.154615
0.154847
0.155389
0.156315
0.157772
0.159978
0.163191
0.167679
0.173635
0.180663
0.187051
0.191763
0.195083
0.197341
0.198828
0.199775
0.200347
0.20064
0.20071
0.144772
0.144756
0.145066
0.145783
0.146998
0.148898
0.151763
0.155915
0.161673
0.169252
0.17812
0.186127
0.192013
0.196156
0.198972
0.200828
0.202012
0.202729
0.203095
0.203181
0.132931
0.132913
0.133336
0.134301
0.135912
0.138416
0.142173
0.147578
0.154998
0.164649
0.175815
0.185817
0.19314
0.19829
0.201793
0.204105
0.205585
0.206486
0.206947
0.207052
0.11843
0.118414
0.119011
0.120333
0.122498
0.125846
0.130838
0.137937
0.147538
0.159829
0.173838
0.186265
0.195333
0.201712
0.20606
0.20894
0.210792
0.211931
0.212519
0.21265
0.100282
0.100279
0.101155
0.103012
0.105996
0.110581
0.117341
0.126755
0.139221
0.154841
0.172315
0.187646
0.198803
0.206672
0.212064
0.215654
0.217979
0.219426
0.220184
0.220355
0.076936
0.0769709
0.0783317
0.0810507
0.0853423
0.0918525
0.101193
0.113824
0.130046
0.149807
0.171419
0.190147
0.203758
0.213417
0.220103
0.224603
0.227543
0.229392
0.230377
0.230608
0.0458417
0.0459963
0.0482591
0.0525238
0.0590938
0.0687282
0.0819284
0.0990176
0.120104
0.14491
0.171334
0.19393
0.210351
0.222125
0.230422
0.236126
0.239932
0.242362
0.243675
0.24399
0.00244461
0.00295653
0.0072852
0.014792
0.0256149
0.0404181
0.0593576
0.0825003
0.109682
0.140417
0.172241
0.199084
0.218616
0.232819
0.243085
0.250405
0.255505
0.258932
0.260851
0.26127
-0.0616012
-0.0593249
-0.0492792
-0.0347322
-0.0158756
0.00717428
0.0341878
0.0650295
0.0993946
0.136734
0.17433
0.205617
0.228428
0.245273
0.257809
0.267163
0.274103
0.279145
0.282216
0.282633
-0.138582
-0.134442
-0.115873
-0.0897119
-0.0602193
-0.0276155
0.00816631
0.0471497
0.0891711
0.133798
0.178137
0.215024
0.242295
0.262975
0.278976
0.291557
0.301628
0.309556
0.313342
0.315062
-0.217332
-0.206139
-0.178316
-0.142146
-0.103082
-0.0613866
-0.0170535
0.0299813
0.0796057
0.131495
0.182595
0.22507
0.25665
0.280875
0.299961
0.315301
0.327766
0.337844
0.344251
0.347194
-0.27514
-0.262892
-0.230166
-0.187531
-0.141257
-0.0921651
-0.0404369
0.0138159
0.0704329
0.129068
0.18634
0.233597
0.268497
0.29506
0.315737
0.332081
0.345116
0.355453
0.362185
0.365227
-0.321193
-0.308644
-0.272572
-0.225448
-0.174089
-0.11943
-0.0617543
-0.00134702
0.0614463
0.126125
0.188877
0.240233
0.27775
0.305915
0.327524
0.34437
0.357617
0.367998
0.374847
0.37772
-0.358613
-0.346245
-0.308212
-0.257762
-0.202472
-0.143419
-0.0809397
-0.0153785
0.0528189
0.123013
0.190868
0.245955
0.285729
0.315194
0.337482
0.354611
0.367908
0.378202
0.385039
0.387838
-0.39064
-0.378488
-0.339089
-0.286175
-0.227797
-0.165144
-0.098581
-0.028508
0.0445375
0.119766
0.192353
0.250939
0.292839
0.323511
0.346416
0.363811
0.377177
0.387439
0.394324
0.397063
-0.418891
-0.4069
-0.366555
-0.311736
-0.250906
-0.185281
-0.115257
-0.0412789
0.0361157
0.11606
0.193283
0.255413
0.299504
0.331448
0.355031
0.37274
0.386212
0.396464
0.403393
0.40607
-0.444591
-0.432681
-0.391607
-0.335264
-0.272462
-0.204409
-0.131445
-0.053984
0.0274209
0.111889
0.193741
0.259555
0.306012
0.339376
0.363749
0.38185
0.395486
0.405752
0.412737
0.415348
-0.468549
-0.456663
-0.414965
-0.357373
-0.292915
-0.222797
-0.147301
-0.0667732
0.0183117
0.107116
0.193659
0.263404
0.312504
0.347518
0.372844
0.391449
0.405311
0.415648
0.422605
0.425157
-0.491243
-0.479365
-0.437099
-0.378476
-0.312652
-0.240778
-0.163097
-0.0798541
0.00861577
0.101619
0.192951
0.266939
0.319029
0.355992
0.382492
0.401741
0.415913
0.426365
0.433341
0.435843
-0.513074
-0.501087
-0.458292
-0.398812
-0.331858
-0.258506
-0.178954
-0.0933226
-0.00175732
0.095288
0.191505
0.270068
0.325553
0.364833
0.392785
0.412865
0.427467
0.43809
0.445087
0.447548
-0.534164
-0.522022
-0.478707
-0.418543
-0.35061
-0.276037
-0.194915
-0.107218
-0.0128658
0.0880302
0.189194
0.272647
0.331967
0.373989
0.403744
0.424901
0.440081
0.450971
0.457996
0.460425
-0.554536
-0.542237
-0.498478
-0.43771
-0.368957
-0.29339
-0.210984
-0.121555
-0.0247298
0.0797745
0.185889
0.274512
0.338089
0.383329
0.415305
0.437862
0.453819
0.465071
0.472163
0.474609
-0.57426
-0.561743
-0.517585
-0.456306
-0.386876
-0.310541
-0.227124
-0.136289
-0.0373388
0.0705058
0.181467
0.275463
0.343685
0.392633
0.427315
0.451653
0.468676
0.480466
0.487708
0.490067
-0.593238
-0.580554
-0.536059
-0.474271
-0.404339
-0.327417
-0.243263
-0.151353
-0.0506482
0.0602123
0.175862
0.275305
0.348473
0.401568
0.439496
0.466106
0.484555
0.497127
0.50462
0.506861
-0.61154
-0.598673
-0.553835
-0.49159
-0.421289
-0.343959
-0.259321
-0.166662
-0.0645732
0.0489228
0.16904
0.273885
0.352137
0.409722
0.451495
0.481043
0.50133
0.514855
0.5226
0.524691
-0.628937
-0.615951
-0.57081
-0.50819
-0.437639
-0.360077
-0.27521
-0.182116
-0.079031
0.0367222
0.160989
0.271071
0.354315
0.416636
0.462814
0.496114
0.518976
0.533707
0.541563
0.54334
-0.645527
-0.632406
-0.586915
-0.52405
-0.453334
-0.375711
-0.290823
-0.197614
-0.0939029
0.0236998
0.151752
0.266751
0.354751
0.42175
0.472738
0.510707
0.53735
0.553794
0.561235
0.562205
-0.661217
-0.647968
-0.602168
-0.539102
-0.468307
-0.390777
-0.306075
-0.213029
-0.109072
0.00994567
0.141431
0.260956
0.353235
0.424464
0.480193
0.523712
0.556066
0.576155
0.582508
0.580529
-0.676081
-0.662655
-0.616526
-0.553297
-0.482528
-0.405213
-0.320884
-0.228273
-0.124421
-0.00438834
0.130141
0.253764
0.349775
0.424171
0.483687
0.533086
0.573299
0.601558
0.610454
0.59963
-0.690056
-0.676495
-0.630077
-0.56676
-0.496168
-0.419268
-0.335566
-0.243761
-0.140486
-0.0199413
0.117263