/*--------------------------------*- C++ -*----------------------------------*\
| =========                 |                                                 |
| \\      /  F ield         | OpenFOAM: The Open Source CFD Toolbox           |
|  \\    /   O peration     | Version:  2112                                  |
|   \\  /    A nd           | Website:  www.openfoam.com                      |
|    \\/     M anipulation  |                                                 |
\*---------------------------------------------------------------------------*/
FoamFile
{
    version     2.0;
    format      ascii;
    arch        "LSB;label=32;scalar=64";
    class       surfaceScalarField;
    location    "8.5";
    object      phi;
}
// * * * * * * * * * * * * * * * * * * * * * * * * * * * * * * * * * * * * * //

dimensions      [0 3 -1 0 0 0 0];

oriented        oriented;

internalField   nonuniform List<scalar> 
17370
(
-0.0915565
0.096045
0.284522
-0.0776559
0.0594852
0.364946
-0.0430718
0.0316207
0.427619
-0.0223152
0.0162669
0.5053
-0.0116613
0.00873557
0.602328
-0.00643777
0.00488105
0.720614
-0.00359195
0.00269707
0.863801
-0.00193595
0.00138671
1.036
-0.000912061
0.000565667
1.24285
-0.000257621
-3.39303e-05
1.49148
0.000321362
-0.000640738
1.49151
0.000987494
-0.00145999
1.24316
0.00200582
-0.00276292
1.03639
0.00365573
-0.00494263
0.864193
0.00649545
-0.00878643
0.721348
0.0117046
-0.016302
0.603812
0.0223438
-0.0316432
0.508739
0.0430897
-0.0594991
0.432578
0.0776669
-0.0960512
0.36516
0.0915641
0.197447
-0.127306
0.088352
0.0389541
-0.36462
0.354334
-0.0711867
0.0814722
-0.446788
0.454571
-0.0790209
0.0712381
-0.5212
0.5295
-0.0632377
0.054937
-0.612917
0.620875
-0.0473769
0.0394191
-0.726894
0.733427
-0.0326735
0.0261408
-0.867416
0.872008
-0.0210855
0.0164941
-1.03842
1.04156
-0.0130074
0.00986997
-1.24459
1.24685
-0.00745933
0.00519276
-1.49273
1.49461
-0.00334578
0.0014584
-1.49258
1.4943
0.000238051
-0.00195407
-1.24401
1.24582
0.00381531
-0.00563472
-1.0375
1.03988
0.00786936
-0.0102465
-0.866079
0.869527
0.0133464
-0.0167941
-0.724413
0.729442
0.02135
-0.0263788
-0.608892
0.615621
0.0328925
-0.0396219
-0.515208
0.522747
0.0475589
-0.0550976
-0.440061
0.448032
0.0633713
-0.0713428
-0.374971
0.377416
0.0790872
-0.0815319
-0.257223
0.224964
0.0712294
-0.0389701
-0.0693886
0.0602092
0.00917941
-0.0497466
0.0560303
-0.375083
0.368799
-0.0550014
0.0512179
-0.453897
0.45768
-0.046159
0.0419514
-0.527788
0.531995
-0.0376845
0.0338905
-0.620867
0.624661
-0.0297563
0.0258384
-0.734469
0.738386
-0.0215891
0.0178465
-0.873612
0.877355
-0.0140539
0.0108841
-1.04299
1.04616
-0.00772493
0.00503042
-1.24821
1.25091
-0.00221296
-0.000400321
-1.49637
1.49898
0.0029937
-0.00578374
-1.49688
1.49967
0.00843903
-0.0115456
-1.24967
1.25278
0.0146708
-0.0184171
-1.04529
1.04904
0.0221249
-0.0263301
-0.876875
0.88108
0.0302062
-0.0342869
-0.739008
0.743088
0.0380326
-0.0422539
-0.626252
0.630473
0.0464277
-0.0514576
-0.535152
0.540182
0.0552118
-0.0562065
-0.458266
0.459261
0.0498755
-0.0305865
-0.337629
0.31834
0.00920098
-0.0693258
0.0601248
-0.0549178
0.0513599
0.00355784
-0.0292889
0.0384364
-0.360371
0.351223
-0.0413195
0.0403612
-0.459786
0.460744
-0.0372446
0.0341193
-0.535736
0.538861
-0.0307059
0.0277124
-0.627977
0.630971
-0.0245602
0.0218823
-0.741423
0.744101
-0.0190471
0.016513
-0.880344
0.882878
-0.0136999
0.0111016
-1.04904
1.05164
-0.00820125
0.00550081
-1.25368
1.25638
-0.00240015
-0.000648653
-1.502
1.50505
0.00367583
-0.00672477
-1.50274
1.50579
0.00937214
-0.0122118
-1.25579
1.25863
0.0147412
-0.0174614
-1.0522
1.05492
0.0199061
-0.0226507
-0.884286
0.887031
0.0252632
-0.0283512
-0.74644
0.749528
0.0312564
-0.0345941
-0.634356
0.637694
0.0376658
-0.0407248
-0.544365
0.547424
0.0416254
-0.0386678
-0.458093
0.455136
0.0294431
-0.014168
-0.300553
0.285278
0.00358261
-0.0548089
0.0512263
-0.04903
0.0478029
0.00122704
-0.0134409
0.0208261
-0.342496
0.335111
-0.025591
0.0270462
-0.4605
0.459045
-0.0268972
0.025962
-0.541036
0.541971
-0.024778
0.0234783
-0.633186
0.634486
-0.0218995
0.0202326
-0.746424
0.748091
-0.018141
0.0160229
-0.885244
0.887362
-0.0135171
0.0110702
-1.05412
1.05657
-0.00823973
0.00549983
-1.25903
1.26177
-0.00231508
-0.000796675
-1.50801
1.51112
0.00388454
-0.00701374
-1.50879
1.51191
0.00968475
-0.0124175
-1.26137
1.2641
0.0147675
-0.0171688
-1.05748
1.05988
0.0191916
-0.0211736
-0.889507
0.891489
0.0227649
-0.0243222
-0.751919
0.753476
0.0255348
-0.0265942
-0.640062
0.641121
0.0274432
-0.0275016
-0.549094
0.549152
0.0259661
-0.0211065
-0.450895
0.446035
0.013631
-0.00535959
-0.273374
0.265103
0.00125979
-0.0488707
0.0476109
-0.0472926
0.0470624
0.000230189
-0.00517396
0.00997492
-0.329195
0.324394
-0.014954
0.0182015
-0.456615
0.453367
-0.0204399
0.0213608
-0.541842
0.540921
-0.0217776
0.0217562
-0.634976
0.634997
-0.0210935
0.0200547
-0.749282
0.750321
-0.0185149
0.0167604
-0.889199
0.890953
-0.0144586
0.0120316
-1.05898
1.0614
-0.00901603
0.00597906
-1.26466
1.2677
-0.00239385
-0.00110082
-1.51444
1.51794
0.00458204
-0.0080984
-1.51525
1.51877
0.0110216
-0.0138907
-1.26688
1.26975
0.0161893
-0.0183467
-1.06209
1.06425
0.019976
-0.0213943
-0.893013
0.894432
0.0223327
-0.0228192
-0.754355
0.754841
0.0226519
-0.0221451
-0.641152
0.640645
0.0211219
-0.0187722
-0.547903
0.545553
0.0154219
-0.010322
-0.440992
0.435892
0.005407
-0.00164936
-0.259643
0.255885
0.000268837
-0.047063
0.0467941
-0.0469398
0.0469038
3.59807e-05
-0.00231533
0.00546365
-0.320454
0.317306
-0.0100199
0.0141419
-0.449493
0.445371
-0.0178585
0.020277
-0.539197
0.536779
-0.0216168
0.0218694
-0.634854
0.634602
-0.0215983
0.0208589
-0.751255
0.751994
-0.0194515
0.0176704
-0.892762
0.894543
-0.0152349
0.0126398
-1.06393
1.06653
-0.00942433
0.00617737
-1.27086
1.27411
-0.00227137
-0.00160072
-1.52163
1.5255
0.00543417
-0.00922479
-1.52244
1.52623
0.0123207
-0.0153319
-1.27271
1.27573
0.0177136
-0.0199072
-1.06646
1.06866
0.0214535
-0.0226148
-0.895814
0.896975
0.0231394
-0.0232678
-0.754919
0.755047
0.0228674
-0.0213395
-0.6398
0.638272
0.018774
-0.0148998
-0.54228
0.538406
0.0106318
-0.00591143
-0.430848
0.426128
0.00261423
-0.000681275
-0.253185
0.251252
8.40295e-05
-0.0466296
0.0465456
-0.0469113
0.04692
-8.73345e-06
-0.00103486
0.00284487
-0.314878
0.313068
-0.00601995
0.00941588
-0.441441
0.438045
-0.0129156
0.0155246
-0.534075
0.531466
-0.0174668
0.0184909
-0.633858
0.632834
-0.0187415
0.0183068
-0.752622
0.753057
-0.0172423
0.015798
-0.896263
0.897707
-0.0137222
0.0114181
-1.06905
1.07136
-0.00848307
0.00544511
-1.27732
1.28036
-0.001684
-0.00210378
-1.52942
1.53321
0.00583391
-0.00944832
-1.53002
1.53363
0.0123417
-0.0150728
-1.27867
1.2814
0.0171224
-0.0189066
-1.07074
1.07252
0.0201056
-0.0209166
-0.897986
0.898797
0.0211098
-0.0205629
-0.754948
0.754401
0.0192589
-0.0170263
-0.636174
0.633941
0.0141681
-0.0104179
-0.53438
0.530629
0.00680644
-0.00340736
-0.421992
0.418593
0.00140505
-0.000369364
-0.249858
0.248822
5.24444e-05
-0.0464982
0.0464458
-0.0469276
0.0469494
-2.17818e-05
-0.000396654
0.00128067
-0.311772
0.310888
-0.00300744
0.00505112
-0.435329
0.433285
-0.00738673
0.00929161
-0.529158
0.527253
-0.0109175
0.0119461
-0.631768
0.63074
-0.0125393
0.0126049
-0.753204
0.753138
-0.0121646
0.0113175
-0.898846
0.899693
-0.00991366
0.00822486
-1.07336
1.07505
-0.00594489
0.00349918
-1.28313
1.28558
-0.000429505
-0.00267712
-1.53671
1.53982
0.00571461
-0.00860019
-1.53693
1.53982
0.0108289
-0.0128191
-1.2838
1.28579
0.0141829
-0.0151933
-1.07392
1.07493
0.0156774
-0.0157299
-0.899199
0.899252
0.015321
-0.0143534
-0.753586
0.752618
0.0130001
-0.0110401
-0.6318
0.62984
0.00884862
-0.00621922
-0.527399
0.524769
0.00392497
-0.00193937
-0.415945
0.413959
0.000834176
-0.00025458
-0.248045
0.247466
5.05089e-05
-0.0463884
0.0463379
-0.0469861
0.0470318
-4.56367e-05
-1.12965e-06
0.000347438
-0.31032
0.309974
-0.00112227
0.00212059
-0.431826
0.430828
-0.00335699
0.00444602
-0.525774
0.524685
-0.00547905
0.00621219
-0.629833
0.6291
-0.00673737
0.00693713
-0.752962
0.752762
-0.00681987
0.00639027
-0.900295
0.900724
-0.00554863
0.00444028
-1.07643
1.07754
-0.00285377
0.00109488
-1.28768
1.28943
0.00112113
-0.00334671
-1.54248
1.5447
0.00549314
-0.00747025
-1.54224
1.54422
0.00889558
-0.0100456
-1.28735
1.2885
0.010741
-0.0111006
-1.07559
1.07595
0.0110807
-0.0107076
-0.899042
0.898669
0.0100726
-0.00909128
-0.751604
0.750623
0.00796769
-0.00653936
-0.628137
0.626709
0.00511457
-0.00353647
-0.522713
0.521134
0.00224373
-0.00115995
-0.412496
0.411413
0.000544698
-0.0001904
-0.247025
0.246671
4.42035e-05
-0.046294
0.0462498
-0.0470848
0.0471477
-6.29614e-05
0.000215057
-0.000159232
-0.309787
0.309731
-0.000116555
0.000521309
-0.430173
0.429768
-0.00105908
0.00155993
-0.523923
0.523423
-0.00206042
0.00243052
-0.628554
0.628184
-0.00270419
0.00280634
-0.752596
0.752493
-0.00272345
0.0024459
-0.901051
0.901328
-0.00189388
0.0011536
-1.07844
1.07918
-7.37679e-05
-0.00113834
-1.29089
1.29211
0.00264734
-0.0041386
-1.54653
1.54803
0.00553561
-0.00673884
-1.54579
1.54699
0.00752923
-0.00806729
-1.28931
1.28984
0.00827909
-0.0082341
-1.07608
1.07603
0.0079568
-0.00744159
-0.898203
0.897688
0.00681009
-0.00598336
-0.749714
0.748887
0.00514
-0.00416008
-0.625528
0.624548
0.00325261
-0.00229937
-0.51992
0.518967
0.00153632
-0.000882382
-0.410588
0.409934
0.000474483
-0.00019598
-0.246366
0.246087
5.43725e-05
-0.0462011
0.0461467
-0.0472182
0.0472965
-7.82495e-05
0.000386725
-0.000475711
-0.309756
0.309845
0.000480051
-0.000400661
-0.429549
0.42947
0.000261982
-0.000127944
-0.523127
0.522992
1.60613e-06
7.32291e-05
-0.627971
0.627896
-8.90171e-05
2.4052e-05
-0.752471
0.752536
0.000158016
-0.000443476
-0.901595
0.901881
0.000907197
-0.00147774
-1.07982
1.08039
0.00226814
-0.0031224
-1.29311
1.29397
0.00415573
-0.00513456
-1.54923
1.55021
0.00599082
-0.00666272
-1.5479
1.54857
0.00700708
-0.00709948
-1.29014
1.29023
0.00702371
-0.00674769
-1.07586
1.07558
0.00635486
-0.00580153
-0.89715
0.896596
0.00521722
-0.00452365
-0.748135
0.747442
0.00386636
-0.0031449
-0.62372
0.622999
0.00250532
-0.00184918
-0.518193
0.517537
0.00131886
-0.000837345
-0.409388
0.408907
0.000498523
-0.00022789
-0.245819
0.245548
6.90783e-05
-0.0460856
0.0460165
-0.0473831
0.0474803
-9.72036e-05
0.000533559
-0.00074735
-0.310001
0.310215
0.000921555
-0.00103977
-0.4295
0.429618
0.00114868
-0.00125251
-0.52299
0.523093
0.00138626
-0.00153738
-0.627942
0.628093
0.00174515
-0.0019838
-0.752689
0.752928
0.00231095
-0.00267992
-0.902201
0.90257
0.00317064
-0.00369979
-1.08092
1.08145
0.00436348
-0.0050264
-1.29471
1.29537
0.005772
-0.00641465
-1.55101
1.55165
0.00690215
-0.00718371
-1.54903
1.54932
0.00723505
-0.00710921
-1.2902
1.29008
0.00680818
-0.00636744
-1.07522
1.07478
0.0058803
-0.00528663
-0.896025
0.895431
0.00471389
-0.00407446
-0.746785
0.746146
0.00349573
-0.00288153
-0.622346
0.621732
0.00234878
-0.00180503
-0.516953
0.51641
0.00135467
-0.00091925
-0.408459
0.408024
0.000580409
-0.000279702
-0.245266
0.244965
8.84739e-05
-0.0459383
0.0458498
-0.0475905
0.0477148
-0.000124297
0.000711243
-0.00103012
-0.310481
0.3108
0.00134716
-0.00161502
-0.429814
0.430082
0.00190591
-0.00218708
-0.52329
0.523571
0.00252242
-0.00285854
-0.62834
0.628676
0.00326373
-0.00367156
-0.753251
0.753659
0.00416335
-0.00465529
-0.902997
0.903489
0.00524017
-0.00580936
-1.08199
1.08256
0.00645637
-0.00704199
-1.29598
1.29657
0.00763171
-0.0080615
-1.55217
1.5526
0.00829676
-0.00830338
-1.54945
1.54945
0.00812039
-0.00775845
-1.28983
1.28947
0.00731519
-0.00673894
-1.07427
1.07369
0.00616129
-0.00550057
-0.894809
0.894148
0.00489079
-0.00423256
-0.745505
0.744847
0.00365141
-0.00304534
-0.621132
0.620526
0.0025247
-0.00199228
-0.515881
0.515349
0.00154123
-0.00108431
-0.407584
0.407127
0.000705083
-0.000348327
-0.24464
0.244283
0.000112293
-0.0457501
0.0456378
-0.0478549
0.0480129
-0.000157917
0.00092186
-0.00135536
-0.311174
0.311607
0.00181195
-0.00221986
-0.430419
0.430827
0.00267702
-0.00312049
-0.523933
0.524377
0.00364271
-0.00415529
-0.6291
0.629612
0.00475637
-0.005341
-0.754153
0.754738
0.00601774
-0.00666354
-0.904054
0.904699
0.00739111
-0.00805779
-1.08317
1.08384
0.00876452
-0.00935212
-1.29715
1.29774
0.00987725
-0.0101797
-1.55296
1.55326
0.010237
-0.010033
-1.54935
1.54915
0.00965393
-0.00908732
-1.28901
1.28844
0.00847839
-0.00774324
-1.07304
1.07231
0.00704169
-0.00626485
-0.893436
0.892659
0.00556546
-0.00482412
-0.744155
0.743414
0.00417818
-0.00351061
-0.619896
0.619229
0.00293959
-0.00235418
-0.514797
0.514211
0.00185071
-0.001326
-0.406642
0.406117
0.000874605
-0.000437066
-0.243889
0.243451
0.000142068
-0.0455114
0.0453694
-0.0481918
0.0483938
-0.000201975
0.00118884
-0.00175866
-0.312105
0.312675
0.00237221
-0.00293145
-0.431307
0.431867
0.00356489
-0.00418016
-0.524903
0.525518
0.0049014
-0.0056044
-0.630217
0.63092
0.00642074
-0.00720469
-0.755419
0.756202
0.00809754
-0.00893223
-0.905435
0.906269
0.00984871
-0.0106619
-1.08457
1.08539
0.0114884
-0.0121361
-1.29835
1.299
0.0126596
-0.0128873
-1.55352
1.55375
0.0128062
-0.0124118
-1.54885
1.54845
0.0118439
-0.0110624
-1.28777
1.28699
0.0102605
-0.00932787
-1.07148
1.07055
0.00845863
-0.00751268
-0.891805
0.890859
0.00667197
-0.00578903
-0.742609
0.741726
0.00502483
-0.00423858
-0.618509
0.617722
0.00356743
-0.00287821
-0.51358
0.512891
0.00228048
-0.00164804
-0.405543
0.404911
0.00109402
-0.000549336
-0.242964
0.242419
0.000179103
-0.0452098
0.0450307
-0.0486243
0.0488839
-0.000259619
0.00153287
-0.00227313
-0.313324
0.314065
0.0030776
-0.00381687
-0.432508
0.433248
0.00465709
-0.005473
-0.526228
0.527043
0.00642645
-0.00735235
-0.63173
0.632656
0.00842246
-0.00944412
-0.757101
0.758122
0.0105987
-0.0116674
-0.907215
0.908284
0.0128252
-0.0138345
-1.08629
1.0873
0.014835
-0.0155899
-1.29969
1.30045
0.0161558
-0.0163375
-1.55395
1.55413
0.01613
-0.0155368
-1.54796
1.54737
0.0147576
-0.0137286
-1.28609
1.28506
0.012695
-0.0115129
-1.0695
1.06831
0.0104242
-0.00925019
-0.889806
0.888632
0.0082137
-0.00713035
-0.74075
0.739667
0.00619578
-0.00523624
-0.616857
0.615897
0.00441785
-0.00357645
-0.512132
0.511291
0.00284356
-0.00206241
-0.40421
0.403429
0.00137247
-0.000690168
-0.24181
0.241128
0.000225139
-0.0448299
0.0446047
-0.0491825
0.0495185
-0.000335992
0.00198298
-0.00294274
-0.314905
0.315865
0.00399022
-0.00495567
-0.434084
0.435049
0.00605185
-0.00711402
-0.527973
0.529035
0.00835048
-0.00954803
-0.633714
0.634912
0.0109282
-0.0122422
-0.759286
0.7606
0.0137212
-0.0150824
-0.909491
0.910852
0.0165451
-0.0178057
-1.08843
1.08969
0.0190349
-0.0199383
-1.30127
1.30217
0.0205778
-0.0207245
-1.5543
1.55444
0.0203804
-0.0195583
-1.54666
1.54584
0.0185254
-0.0171929
-1.28389
1.28255
0.0158717
-0.0143739
-1.06698
1.06548
0.0130038
-0.0115337
-0.887318
0.885848
0.0102403
-0.00889198
-0.738459
0.73711
0.00773062
-0.00653919
-0.614831
0.613639
0.00552301
-0.00447728
-0.510357
0.509311
0.00356443
-0.00258839
-0.402558
0.401582
0.00172359
-0.000866663
-0.240364
0.239507
0.000282528
-0.044353
0.0440704
-0.0499074
0.0503473
-0.000439959
0.00258312
-0.00383178
-0.316949
0.318197
0.00519725
-0.00645365
-0.436128
0.437384
0.00787156
-0.00923882
-0.530242
0.531609
0.010823
-0.0123554
-0.636285
0.637818
0.0141206
-0.0158007
-0.762097
0.763777
0.017688
-0.0194183
-0.912386
0.914116
0.0212655
-0.0228429
-1.09109
1.09267
0.0243597
-0.0254499
-1.30316
1.30425
0.0261836
-0.0262894
-1.55457
1.55468
0.0257784
-0.0246738
-1.54489
1.54378
0.0233258
-0.0216133
-1.28104
1.27933
0.0199305
-0.0180348
-1.0638
1.0619
0.0163087
-0.0144628
-0.884195
0.88235
0.0128429
-0.0111562
-0.735599
0.733912
0.00970399
-0.00821326
-0.61231
0.610819
0.00694004
-0.00562756
-0.50815
0.506837
0.00448025
-0.0032527
-0.400494
0.399266
0.00216524
-0.00108809
-0.238548
0.237471
0.00035457
-0.0437558
0.0434012
-0.0508546
0.0514419
-0.00058721
0.00340551
-0.00504143
-0.319597
0.321233
0.00682507
-0.00844994
-0.438777
0.440402
0.0102611
-0.0119959
-0.533188
0.534923
0.0140015
-0.0159484
-0.639604
0.641551
0.0182004
-0.0203499
-0.765695
0.767845
0.0227629
-0.0249663
-0.916049
0.918253
0.027301
-0.0292735
-1.09441
1.09638
0.0311426
-0.0324549
-1.30544
1.30675
0.0332912
-0.0333318
-1.55475
1.55479
0.0326011
-0.0311363
-1.54251
1.54104
0.0293908
-0.0272002
-1.27739
1.2752
0.0250642
-0.0226696
-1.05976
1.05736
0.0204981
-0.0181827
-0.880265
0.87795
0.0161553
-0.0140465
-0.73201
0.729902
0.0122302
-0.0103621
-0.609154
0.607285
0.00876109
-0.00710415
-0.505389
0.503732
0.00565224
-0.00409906
-0.397906
0.396352
0.00272694
-0.00137031
-0.236268
0.234911
0.000447387
-0.0430109
0.0425635
-0.0521051
0.0529043
-0.000799284
0.00455401
-0.00671035
-0.323045
0.325202
0.00903025
-0.0111007
-0.442228
0.444299
0.013374
-0.0155422
-0.537022
0.53919
0.018066
-0.0205447
-0.643881
0.64636
0.023439
-0.0262112
-0.77028
0.773052
0.0293145
-0.0321265
-0.920664
0.923476
0.0350732
-0.0375273
-1.09852
1.10097
0.03981
-0.0413676
-1.30814
1.30969
0.0422929
-0.042218
-1.55476
1.55468
0.0411872
-0.0392563
-1.53935
1.53741
0.037007
-0.0342181
-1.27271
1.26992
0.0315176
-0.0285041
-1.05466
1.05164
0.025782
-0.0228888
-0.875316
0.872423
0.0203623
-0.0177387
-0.7275
0.724876
0.015478
-0.0131462
-0.605191
0.602859
0.0111358
-0.00903817
-0.501927
0.49983
0.00718787
-0.0052042
-0.39466
0.392676
0.00345952
-0.00174011
-0.233411
0.231692
0.000571382
-0.0420855
0.0415141
-0.0537848
0.0548878
-0.00110308
0.00617446
-0.00903341
-0.327578
0.330437
0.0120398
-0.0146549
-0.446754
0.449369
0.0174898
-0.020209
-0.542014
0.544734
0.0234282
-0.026639
-0.649377
0.652588
0.0304168
-0.0340169
-0.776106
0.779707
0.0380019
-0.0415614
-0.926445
0.930005
0.0452312
-0.048229
-1.10354
1.10654
0.0509495
-0.0527348
-1.31127
1.31306
0.0536845
-0.0533971
-1.55446
1.55417
0.0519452
-0.0494067
-1.53517
1.53263
0.0465228
-0.0429911
-1.26676
1.26322
0.0395956
-0.0358233
-1.04822
1.04445
0.0324273
-0.02883
-0.869099
0.865501
0.0256992
-0.0224581
-0.721833
0.718592
0.0196684
-0.0167861
-0.600209
0.597327
0.0142824
-0.0116368
-0.497581
0.494936
0.00926843
-0.00670291
-0.390594
0.388029
0.00445042
-0.00223915
-0.229838
0.227626
0.000740445
-0.040939
0.0401985
-0.056093
0.0576541
-0.0015611
0.00858905
-0.0124446
-0.333596
0.337452
0.0163787
-0.0197152
-0.45271
0.456046
0.0233026
-0.0267944
-0.548515
0.552006
0.0310073
-0.0352364
-0.656437
0.660666
0.0401787
-0.0448153
-0.783492
0.788129
0.0498456
-0.054239
-0.933641
0.938035
0.05867
-0.0622003
-1.10958
1.11311
0.065297
-0.0672128
-1.31478
1.3167
0.068038
-0.0673707
-1.55362
1.55296
0.0653203
-0.0619908
-1.52967
1.52634
0.0583148
-0.0538743
-1.25922
1.25478
0.0496367
-0.0449475
-1.04016
1.03548
0.0407344
-0.0362803
-0.861328
0.856873
0.0324145
-0.0284274
-0.714736
0.710749
0.0250068
-0.0214787
-0.593949
0.59042
0.0183986
-0.0151011
-0.49211
0.488813
0.0120859
-0.00875261
-0.385493
0.38216
0.00580306
-0.00290873
-0.225369
0.222475
0.000961495
-0.0395133
0.0385518
-0.0593469
0.0616989
-0.00235206
0.0125823
-0.0178885
-0.34171
0.347016
0.0230483
-0.0273272
-0.460639
0.464918
0.0319421
-0.03653
-0.557031
0.561619
0.0421277
-0.0476921
-0.665527
0.671092
0.0540515
-0.0598481
-0.792834
0.798631
0.0659773
-0.0711958
-0.942436
0.947654
0.0763226
-0.0802763
-1.1166
1.12055
0.0835793
-0.0854303
-1.31842
1.32027
0.0858867
-0.0845945
-1.55189
1.5506
0.0817114
-0.0773693
-1.52246
1.51812
0.0727225
-0.0671966
-1.24976
1.24424
0.0619662
-0.0561984
-1.03017
1.0244
0.051018
-0.0455358
-0.851698
0.846216
0.0407736
-0.0358648
-0.705911
0.701002
0.031662
-0.0273401
-0.586112
0.581791
0.0235642
-0.0194971
-0.485208
0.481141
0.0157124
-0.0114423
-0.379033
0.374763
0.00759205
-0.00378103
-0.219737
0.215926
0.00123474
-0.0377175
0.0364827
-0.0641276
0.0680046
-0.00387704
0.0196861
-0.027106
-0.352997
0.360417
0.0338847
-0.0394648
-0.471392
0.476972
0.0455414
-0.0516697
-0.568256
0.574384
0.0590633
-0.0661737
-0.677215
0.684325
0.0739974
-0.0808878
-0.804408
0.811299
0.0879616
-0.093811
-0.952775
0.958624
0.0993615
-0.103444
-1.12427
1.12836
0.106593
-0.108032
-1.32172
1.32315
0.107739
-0.10549
-1.54871
1.54646
0.101489
-0.0958924
-1.51309
1.50749
0.0901006
-0.0833357
-1.23806
1.23129
0.0769919
-0.0700246
-1.01795
1.01099
0.0637667
-0.0571245
-0.839922
0.83328
0.0513279
-0.0453271
-0.695053
0.689052
0.0401709
-0.0348601
-0.576377
0.571067
0.0302182
-0.025204
-0.476502
0.471487
0.0204544
-0.0150134
-0.37075
0.365309
0.00999633
-0.00496211
-0.212506
0.207472
0.00159392
-0.035421
0.0338271
-0.0716663
0.0789373
-0.00727102
0.0336352
-0.0444534
-0.369512
0.38033
0.0534419
-0.0606012
-0.486141
0.493301
0.0685859
-0.0765894
-0.582923
0.590926
0.085859
-0.094309
-0.69182
0.70027
0.103198
-0.110728
-0.818027
0.825557
0.118175
-0.124068
-0.964112
0.970006
0.129364
-0.132938
-1.13187
1.13544
0.135267
-0.13571
-1.32386
1.3243
0.134108
-0.130453
-1.54334
1.53968
0.124988
-0.11789
-1.50104
1.49394
0.110802
-0.102702
-1.2238
1.2157
0.0951942
-0.0870056
-1.00331
0.995122
0.0796668
-0.0718714
-0.825805
0.81801
0.0650449
-0.0579395
-0.681912
0.674806
0.0517953
-0.0454446
-0.564407
0.558056
0.0398903
-0.0338419
-0.465528
0.459479
0.0278895
-0.0206528
-0.359997
0.35276
0.0136807
-0.00661677
-0.202932
0.195868
0.00202854
-0.0324691
0.0304406
-0.0861205
0.0891524
-0.00303186
0.0213798
-0.0306401
-0.39438
0.40364
0.0391371
-0.0469044
-0.505904
0.513672
0.0562197
-0.0659769
-0.600844
0.610601
0.0766925
-0.0862566
-0.708439
0.718003
0.0969039
-0.106325
-0.832368
0.841789
0.116107
-0.124496
-0.975001
0.983389
0.132837
-0.139522
-1.13798
1.14466
0.145484
-0.149401
-1.32362
1.32754
0.151525
-0.150981
-1.53485
1.5343
0.147632
-0.141863
-1.48581
1.48004
0.135021
-0.126272
-1.2068
1.19805
0.117657
-0.107249
-0.986224
0.975816
0.0976284
-0.0869707
-0.809413
0.798756
0.07737
-0.0671057
-0.666557
0.656293
0.0577826
-0.0481938
-0.550168
0.540579
0.0399588
-0.0307805
-0.451974
0.442796
0.0223359
-0.01352
-0.345673
0.336857
0.00685505
-0.00214639
-0.189373
0.184664
0.000130577
-0.0285148
0.0283843
-0.0963347
0.0922099
0.0041248
-0.00237668
-0.00298713
-0.416124
0.421487
0.010418
-0.017479
-0.525419
0.53248
0.026337
-0.0347608
-0.62051
0.628934
0.0443184
-0.0530341
-0.727548
0.736264
0.0623292
-0.0707563
-0.850758
0.859185
0.0795271
-0.0867867
-0.991517
0.998777
0.0942415
-0.0999378
-1.15124
1.15693
0.105024
-0.108152
-1.3313
1.33443
0.109338
-0.108192
-1.53317
1.53202
0.104435
-0.0984714
-1.47374
1.46777
0.0914782
-0.0828406
-1.18907
1.18043
0.0745136
-0.0649756
-0.965404
0.955866
0.0560318
-0.0460978
-0.787623
0.777689
0.0372101
-0.0280903
-0.644525
0.635405
0.0203141
-0.0123162
-0.528718
0.52072
0.00548276
0.00110803
-0.431046
0.424455
-0.00589793
0.00894147
-0.326517
0.323474
-0.00874558
0.00593142
-0.177848
0.180663
-0.00256367
-0.0269668
0.0295305
-0.0942136
0.0901287
0.00408494
-0.00941228
0.00720317
-0.430627
0.432836
-0.00239757
-0.00330171
-0.541943
0.547642
0.0104549
-0.0175558
-0.637543
0.644644
0.0255758
-0.0329364
-0.744502
0.751863
0.0410104
-0.0482034
-0.866981
0.874174
0.0554958
-0.0619048
-1.00591
1.01232
0.0683316
-0.0733674
-1.1623
1.16734
0.0775243
-0.0799476
-1.33707
1.3395
0.0809055
-0.0796496
-1.53049
1.52924
0.0760989
-0.0707235
-1.4617
1.45632
0.0646134
-0.0573764
-1.17226
1.16502
0.05021
-0.0423725
-0.946705
0.938867
0.0351793
-0.0273451
-0.768666
0.760832
0.0206702
-0.0138567
-0.626317
0.619504
0.00829342
-0.00263808
-0.511542
0.505887
-0.00169358
0.00548035
-0.41597
0.412183
-0.00789541
0.00854636
-0.31693
0.316279
-0.0069039
0.00400579
-0.178055
0.180953
-0.00162013
-0.0294984
0.0311185
-0.0908681
0.0871382
0.00372987
-0.0112642
0.0108857
-0.439694
0.440073
-0.00772048
0.00317284
-0.554806
0.559353
0.00284262
-0.00859283
-0.651458
0.657208
0.0152472
-0.0213931
-0.758938
0.765084
0.0281161
-0.0341479
-0.880917
0.886949
0.0406588
-0.0460422
-1.01836
1.02374
0.0516746
-0.0557174
-1.1721
1.17614
0.0594071
-0.0616072
-1.34192
1.34412
0.0624057
-0.0611186
-1.52792
1.52663
0.0582043
-0.0537905
-1.45096
1.44655
0.0487397
-0.0425219
-1.1582
1.15198
0.0367416
-0.030534
-0.931453
0.925245
0.0247668
-0.0188663
-0.753719
0.747818
0.0135574
-0.0084079
-0.612585
0.607436
0.00424828
-0.00042529
-0.499391
0.495568
-0.00231568
0.00461414
-0.406014
0.403715
-0.00599351
0.00592126
-0.311516
0.311588
-0.00463762
0.00268084
-0.178634
0.180591
-0.00112107
-0.0305223
0.0316434
-0.087904
0.0849278
0.00297615
-0.0106979
0.0114782
-0.445453
0.444672
-0.00899707
0.00545065
-0.565258
0.568805
-0.000702626
-0.00431336
-0.662931
0.667947
0.00973644
-0.0150039
-0.770829
0.776097
0.0206777
-0.0258016
-0.892612
0.897736
0.031297
-0.0360502
-1.02903
1.03378
0.0408158
-0.0446017
-1.18016
1.18394
0.0478914
-0.0498952
-1.34615
1.34816
0.050723
-0.0497223
-1.5255
1.5245
0.0473494
-0.0435295
-1.44194
1.43812
0.03932
-0.0342816
-1.14623
1.14119
0.0295182
-0.0243176
-0.919281
0.914081
0.0197075
-0.0149096
-0.742158
0.73736
0.0107988
-0.00672234
-0.602316
0.59824
0.00353389
-0.000653384
-0.490695
0.487815
-0.00152748
0.00319595
-0.399126
0.397457
-0.00400808
0.00420254
-0.30767
0.307476
-0.00343443
0.00193432
-0.177821
0.179322
-0.000865711
-0.0307874
0.0316531
-0.0857225
0.0833463
0.00237614
-0.0092899
0.0101955
-0.449109
0.448203
-0.0087857
0.00581931
-0.57324
0.576206
-0.00151179
-0.00260709
-0.672462
0.676581
0.00711708
-0.0115598
-0.780822
0.785264
0.0164595
-0.0209231
-0.902565
0.907029
0.0258592
-0.0299752
-1.03828
1.0424
0.0342745
-0.0377502
-1.18754
1.19102
0.0407866
-0.0427002
-1.35008
1.352
0.0435857
-0.0431762
-1.52366
1.52325
0.0411928
-0.038095
-1.43422
1.43112
0.0344703
-0.0301219
-1.13632
1.13197
0.0262312
-0.0216501
-0.909095
0.904514
0.0176489
-0.0136301
-0.732747
0.728728
0.0101225
-0.00662741
-0.594223
0.590728
0.003834
-0.001132
-0.483961
0.481259
-0.000601072
0.00204014
-0.393673
0.392234
-0.00301942
0.00327491
-0.303939
0.303684
-0.00267006
0.00157071
-0.176432
0.177531
-0.000691992
-0.0306716
0.0313636
-0.0842948
0.0825127
0.0017821
-0.00749231
0.00847907
-0.451721
0.450734
-0.00723947
0.00497554
-0.580116
0.58238
-0.00124204
-0.00231115
-0.680471
0.684024
0.0064576
-0.0101443
-0.789489
0.793176
0.0143115
-0.0181655
-0.911503
0.915357
0.0227764
-0.0264668
-1.04656
1.05025
0.0302708
-0.0336009
-1.19437
1.1977
0.0368736
-0.0387779
-1.35405
1.35595
0.0399269
-0.0397175
-1.52266
1.52245
0.0384008
-0.0355416
-1.42804
1.42518
0.0325221
-0.0288131
-1.12768
1.12397
0.025239
-0.0212988
-0.900152
0.896212
0.0176578
-0.0138448
-0.724598
0.720785
0.01086
-0.00756154
-0.587094
0.583795
0.00483728
-0.00242278
-0.477884
0.475469
0.000601177
0.000995715
-0.388959
0.387362
-0.0018971
0.00228601
-0.300579
0.30019
-0.00194249
0.00118674
-0.174804
0.17556
-0.000550736
-0.0303512
0.0309019
-0.0835889
0.0822048
0.00138415
-0.00587525
0.00683225
-0.453775
0.452818
-0.00565374
0.00355276
-0.585889
0.58799
-0.000312719
-0.00271437
-0.687398
0.690425
0.00611449
-0.00957191
-0.79693
0.800388
0.013299
-0.0172066
-0.919056
0.922963
0.021064
-0.0245409
-1.05405
1.05752
0.0284465
-0.0315566
-1.20095
1.20406
0.0344326
-0.0368264
-1.35786
1.36025
0.0382994
-0.0385239
-1.52244
1.52267
0.0375134
-0.0353267
-1.42264
1.42046
0.0326715
-0.0292872
-1.12006
1.11668
0.0260523
-0.0223458
-0.892222
0.888516
0.0189167
-0.0154329
-0.717052
0.713568
0.0122748
-0.00913808
-0.580333
0.577197
0.00656237
-0.00395974
-0.472372
0.469769
0.00197656
-0.000503055
-0.38424
0.382767
-0.000539717
0.00121775
-0.297169
0.296491
-0.00125128
0.00081237
-0.172931
0.17337
-0.000421092
-0.0298954
0.0303165
-0.0834915
0.0823143
0.00117725
-0.00434475
0.00497983
-0.455703
0.455068
-0.00403425
0.00205449
-0.59096
0.59294
0.000713364
-0.00351857
-0.693567
0.696372
0.0066744
-0.00968976
-0.803738
0.806753
0.0134606
-0.0165695
-0.926357
0.929466
0.0203358
-0.0235942
-1.06116
1.06442
0.0273612
-0.0306476
-1.20719
1.21048
0.0338143
-0.0360585
-1.36248
1.36472
0.0379635
-0.0386885
-1.52293
1.52366
0.0383772
-0.0365154
-1.41825
1.41639
0.0342383
-0.0311203
-1.11341
1.11029
0.0280893
-0.0244573
-0.884608
0.880976
0.0211953
-0.0176247
-0.70985
0.706279
0.0144706
-0.0112292
-0.573836
0.570595
0.00845939
-0.00593983
-0.466689
0.464169
0.00375517
-0.00204273
-0.379519
0.377806
0.000708631
0.0001773
-0.293533
0.292647
-0.000491499
0.000515284
-0.170678
0.170654
-0.000299624
-0.0292533
0.0295529
-0.0836381
0.0827573
0.00088074
-0.00316641
0.00329953
-0.457836
0.457703
-0.00258081
0.000692079
-0.595173
0.597062
0.00164261
-0.00424272
-0.699058
0.701658
0.00716215
-0.0102336
-0.809701
0.812772
0.0133628
-0.0165629
-0.932779
0.935979
0.0202343
-0.0232457
-1.0681
1.07111
0.0270513
-0.0302738
-1.21361
1.21684
0.0335091
-0.0362931
-1.36743
1.37021
0.0387445
-0.0398532
-1.52452
1.52563
0.039874
-0.0387294
-1.41477
1.41363
0.0369232
-0.034014
-1.10706
1.10415
0.0310257
-0.0276379
-0.877235
0.873847
0.0240365
-0.0205481
-0.702435
0.698946
0.0173109
-0.0138643
-0.567318
0.563871
0.0110842
-0.00824274
-0.460848
0.458007
0.00593254
-0.00376483
-0.374781
0.372613
0.00226995
-0.0010804
-0.289602
0.288412
0.000270616
0.000162107
-0.168014
0.167582
-0.000211802
-0.0283717
0.0285835
-0.0841209
0.0833449
0.000775988
-0.00231734
0.0024608
-0.460147
0.460003
-0.00127817
-0.00026905
-0.599306
0.600853
0.00265305
-0.00506216
-0.703925
0.706334
0.00777355
-0.0104119
-0.815574
0.818213
0.0135868
-0.0164257
-0.939176
0.942015
0.0199775
-0.0233417
-1.07456
1.07792
0.0267567
-0.0302634
-1.22014
1.22365
0.0338975
-0.03681
-1.37299
1.3759
0.039696
-0.0416679
-1.52706
1.52903
0.0422441
-0.0417936
-1.41245
1.412
0.0401978
-0.0376405
-1.10128
1.09873
0.0348803
-0.0314005
-0.870037
0.866557
0.0278931
-0.024207
-0.694927
0.691241
0.020822
-0.0171112
-0.56021
0.556499
0.0140062
-0.0109782
-0.454662
0.451634
0.00825344
-0.00579575
-0.369453
0.366995
0.00393698
-0.00238159
-0.285157
0.283602
0.00124675
-0.000306135
-0.164915
0.163975
-6.24877e-05
-0.0273232
0.0273857
-0.0847506
0.0841051
0.00064552
-0.0014612
0.00140887
-0.462536
0.462588
-0.000455436
-0.00126325
-0.602889
0.604608
0.00346229
-0.00564711
-0.708435
0.71062
0.00836947
-0.0108047
-0.820846
0.823282
0.0137653
-0.0166497
-0.945285
0.948169
0.020028
-0.0232883
-1.08114
1.0844
0.0268518
-0.0303496
-1.22711