/*--------------------------------*- C++ -*----------------------------------*\
| =========                 |                                                 |
| \\      /  F ield         | OpenFOAM: The Open Source CFD Toolbox           |
|  \\    /   O peration     | Version:  2112                                  |
|   \\  /    A nd           | Website:  www.openfoam.com                      |
|    \\/     M anipulation  |                                                 |
\*---------------------------------------------------------------------------*/
FoamFile
{
    version     2.0;
    format      ascii;
    arch        "LSB;label=32;scalar=64";
    class       volVectorField;
    location    "8.5";
    object      U;
}
// * * * * * * * * * * * * * * * * * * * * * * * * * * * * * * * * * * * * * //

dimensions      [0 1 -1 0 0 0 0];

internalField   nonuniform List<vector> 
8800
(
(0.979649 -0.0914637 0)
(1.00204 -0.0588662 0)
(0.999281 -0.0321135 0)
(0.999911 -0.0165148 0)
(1.00027 -0.0088195 0)
(1.00031 -0.00492922 0)
(1.00021 -0.00273825 0)
(1.00012 -0.0014465 0)
(1.00004 -0.000640233 0)
(1.00004 -0.000117288 0)
(1.00002 0.000413507 0)
(1.00009 0.00106358 0)
(1.00018 0.0020787 0)
(1.00025 0.00374396 0)
(1.00034 0.0066265 0)
(1.00013 0.0120349 0)
(0.999626 0.0231035 0)
(0.998884 0.0431939 0)
(1.00679 0.0790861 0)
(0.774944 0.0478392 0)
(0.359905 -0.0146798 0)
(1.04727 -0.071881 0)
(1.08916 -0.0655981 0)
(1.05033 -0.0504023 0)
(1.02576 -0.0368845 0)
(1.01238 -0.0248155 0)
(1.00635 -0.0159061 0)
(1.00353 -0.00980022 0)
(1.00206 -0.00544017 0)
(1.00139 -0.00204689 0)
(1.00131 0.000911996 0)
(1.00165 0.00406911 0)
(1.00268 0.00778713 0)
(1.00468 0.0128423 0)
(1.00873 0.0201684 0)
(1.01792 0.0307097 0)
(1.03651 0.043854 0)
(1.0684 0.0575201 0)
(1.0954 0.0703703 0)
(0.847081 0.0553796 0)
(0.220465 -0.00121798 0)
(1.07676 -0.0481305 0)
(1.0989 -0.0462708 0)
(1.06423 -0.0378941 0)
(1.03978 -0.0308649 0)
(1.02324 -0.023831 0)
(1.01325 -0.016789 0)
(1.00783 -0.0105716 0)
(1.00515 -0.00540635 0)
(1.00406 -0.00076612 0)
(1.00437 0.00373798 0)
(1.00611 0.00847004 0)
(1.00993 0.0140509 0)
(1.01736 0.0206904 0)
(1.03041 0.0277512 0)
(1.05067 0.0345689 0)
(1.07987 0.0418327 0)
(1.10603 0.0491299 0)
(0.946837 0.0394238 0)
(0.220211 0.00122518 0)
(0.182518 -0.000513295 0)
(1.02613 -0.0314454 0)
(1.10678 -0.0359941 0)
(1.07727 -0.0306674 0)
(1.05195 -0.0250753 0)
(1.03496 -0.0199669 0)
(1.02333 -0.0152895 0)
(1.01552 -0.0106249 0)
(1.0109 -0.00584594 0)
(1.00893 -0.00075407 0)
(1.00952 0.00445498 0)
(1.01267 0.00922977 0)
(1.01871 0.0138276 0)
(1.02825 0.018282 0)
(1.04219 0.0229649 0)
(1.06292 0.0282171 0)
(1.09393 0.0340089 0)
(1.09823 0.0365266 0)
(0.842469 0.0200035 0)
(0.1821 0.00052236 0)
(0.166974 -0.000174969 0)
(0.976303 -0.0157455 0)
(1.10564 -0.0234273 0)
(1.085 -0.0228638 0)
(1.05688 -0.020922 0)
(1.03843 -0.0182362 0)
(1.02637 -0.0147207 0)
(1.01852 -0.0105734 0)
(1.01379 -0.00588794 0)
(1.01181 -0.000628629 0)
(1.01225 0.00466896 0)
(1.01543 0.00950029 0)
(1.02154 0.0137409 0)
(1.03123 0.0174174 0)
(1.04604 0.0203495 0)
(1.06911 0.0225954 0)
(1.10026 0.0240209 0)
(1.07816 0.0217336 0)
(0.774397 0.007795 0)
(0.166369 0.000184344 0)
(0.163094 1.29855e-05 0)
(0.941709 -0.00661642 0)
(1.09394 -0.0148233 0)
(1.08516 -0.0182797 0)
(1.05983 -0.0189553 0)
(1.04363 -0.0179047 0)
(1.03221 -0.0153107 0)
(1.02442 -0.011466 0)
(1.01945 -0.00646232 0)
(1.01707 -0.000538899 0)
(1.01767 0.00545402 0)
(1.02109 0.0107624 0)
(1.0272 0.0149678 0)
(1.03651 0.0179621 0)
(1.05003 0.0196837 0)
(1.07004 0.0195245 0)
(1.09553 0.0175823 0)
(1.05363 0.0117033 0)
(0.74237 0.00251183 0)
(0.162236 -2.47816e-06 0)
(0.162298 2.8488e-05 0)
(0.918997 -0.00314654 0)
(1.07507 -0.0107005 0)
(1.07766 -0.0167344 0)
(1.05888 -0.0190164 0)
(1.04522 -0.0184898 0)
(1.03546 -0.0161441 0)
(1.02862 -0.0120849 0)
(1.02402 -0.00675175 0)
(1.0216 -0.0002826 0)
(1.02211 0.00633658 0)
(1.02525 0.0119767 0)
(1.03067 0.0163319 0)
(1.03873 0.0191894 0)
(1.0499 0.0201551 0)
(1.06654 0.0194726 0)
(1.08198 0.0149878 0)
(1.02928 0.00723973 0)
(0.726853 0.00104824 0)
(0.161143 -1.6045e-05 0)
(0.162315 2.23642e-05 0)
(0.904969 -0.00145847 0)
(1.05626 -0.00674532 0)
(1.06707 -0.0124833 0)
(1.05677 -0.0157376 0)
(1.04715 -0.0161477 0)
(1.03961 -0.0143932 0)
(1.0336 -0.0109338 0)
(1.02922 -0.00605506 0)
(1.02685 0.000185578 0)
(1.02719 0.00663601 0)
(1.03005 0.0119102 0)
(1.03483 0.0156641 0)
(1.04125 0.0178443 0)
(1.04976 0.0183229 0)
(1.05988 0.0159668 0)
(1.066 0.01093 0)
(1.00942 0.00431563 0)
(0.718774 0.000550253 0)
(0.160781 -2.63873e-06 0)
(0.162396 1.67753e-05 0)
(0.897532 -0.000595299 0)
(1.0432 -0.0034895 0)
(1.05778 -0.00734118 0)
(1.0531 -0.0100285 0)
(1.04752 -0.0109982 0)
(1.04227 -0.010257 0)
(1.03758 -0.00791934 0)
(1.03384 -0.00412807 0)
(1.03172 0.000977952 0)
(1.0318 0.00623432 0)
(1.03404 0.0103031 0)
(1.0376 0.0128056 0)
(1.0422 0.0137129 0)
(1.04737 0.0129981 0)
(1.05263 0.0105652 0)
(1.05303 0.00662629 0)
(0.996715 0.00243663 0)
(0.714332 0.000361166 0)
(0.160411 5.91473e-06 0)
(0.162645 2.04591e-05 0)
(0.894242 -8.36124e-05 0)
(1.03618 -0.00138677 0)
(1.05185 -0.00343004 0)
(1.05008 -0.00513173 0)
(1.04701 -0.00599393 0)
(1.04361 -0.005791 0)
(1.04015 -0.0043851 0)
(1.0371 -0.00174114 0)
(1.03517 0.00193185 0)
(1.03493 0.0056496 0)
(1.03645 0.00825866 0)
(1.03878 0.00953918 0)
(1.04168 0.00952043 0)
(1.04455 0.00838441 0)
(1.04695 0.00635476 0)
(1.0448 0.00377494 0)
(0.989678 0.00141119 0)
(0.711782 0.000262806 0)
(0.160102 7.97571e-06 0)
(0.16302 2.23557e-05 0)
(0.893177 0.000203264 0)
(1.03304 -0.000260355 0)
(1.04881 -0.00115142 0)
(1.04827 -0.00197682 0)
(1.04656 -0.00242616 0)
(1.04439 -0.00228387 0)
(1.04193 -0.00136034 0)
(1.0395 0.000437209 0)
(1.03768 0.00293526 0)
(1.03708 0.00535314 0)
(1.03779 0.00680792 0)
(1.03906 0.00720831 0)
(1.04061 0.00672505 0)
(1.04202 0.00558538 0)
(1.04301 0.00405859 0)
(1.03994 0.00241108 0)
(0.985718 0.00101527 0)
(0.710028 0.000260457 0)
(0.159767 1.34254e-05 0)
(0.163508 2.49725e-05 0)
(0.893324 0.000383975 0)
(1.03199 0.00038816 0)
(1.04762 0.000163364 0)
(1.04756 -4.43054e-05 0)
(1.0465 -6.75964e-05 0)
(1.04501 0.000233484 0)
(1.04315 0.00100341 0)
(1.04111 0.00231397 0)
(1.03929 0.00402286 0)
(1.03828 0.00550522 0)
(1.03825 0.00617186 0)
(1.03871 0.0060005 0)
(1.03935 0.00529722 0)
(1.03993 0.00424298 0)
(1.04025 0.0030507 0)
(1.03684 0.00188766 0)
(0.983093 0.000917716 0)
(0.708478 0.000296289 0)
(0.159344 1.9105e-05 0)
(0.16411 3.06332e-05 0)
(0.894233 0.000565721 0)
(1.03214 0.000854891 0)
(1.04761 0.00103803 0)
(1.04771 0.00125999 0)
(1.04693 0.00160378 0)
(1.04576 0.00214516 0)
(1.04419 0.00295661 0)
(1.04231 0.0040532 0)
(1.04035 0.00528141 0)
(1.03891 0.00613085 0)
(1.0382 0.00626059 0)
(1.038 0.00574177 0)
(1.03803 0.00485506 0)
(1.0381 0.00381879 0)
(1.03807 0.00276905 0)
(1.0345 0.00179979 0)
(0.980942 0.000976681 0)
(0.706852 0.000359374 0)
(0.158803 2.56726e-05 0)
(0.164873 3.85497e-05 0)
(0.895765 0.000760949 0)
(1.03308 0.00128647 0)
(1.0484 0.00177218 0)
(1.04854 0.00232799 0)
(1.04783 0.00299814 0)
(1.04675 0.0038103 0)
(1.04524 0.0047748 0)
(1.0433 0.00583973 0)
(1.04105 0.00680562 0)
(1.03908 0.0072137 0)
(1.03779 0.00688569 0)
(1.03702 0.00610186 0)
(1.03658 0.00506381 0)
(1.03631 0.00395918 0)
(1.03606 0.00290484 0)
(1.03238 0.00195739 0)
(0.978828 0.00113337 0)
(0.704972 0.000445108 0)
(0.158112 3.3245e-05 0)
(0.165843 4.85772e-05 0)
(0.897925 0.000991175 0)
(1.0347 0.00174903 0)
(1.04986 0.00251069 0)
(1.04996 0.00337687 0)
(1.04921 0.00437077 0)
(1.04806 0.00548788 0)
(1.04642 0.00668591 0)
(1.04423 0.00784596 0)
(1.04153 0.00869966 0)
(1.03894 0.00879913 0)
(1.03704 0.00812623 0)
(1.03575 0.00703623 0)
(1.03492 0.0057719 0)
(1.03438 0.00450552 0)
(1.03395 0.00333354 0)
(1.03017 0.00229429 0)
(0.976492 0.00137473 0)
(0.702699 0.000557176 0)
(0.157237 4.2397e-05 0)
(0.167082 6.19237e-05 0)
(0.900796 0.00128069 0)
(1.03701 0.00229979 0)
(1.05197 0.00335431 0)
(1.05198 0.00455087 0)
(1.05111 0.00590076 0)
(1.04977 0.00737401 0)
(1.04784 0.00888226 0)
(1.04521 0.0102364 0)
(1.04188 0.011082 0)
(1.03853 0.010943 0)
(1.03595 0.00993377 0)
(1.03415 0.00849317 0)
(1.03293 0.00692422 0)
(1.03213 0.00540182 0)
(1.03155 0.00401536 0)
(1.02763 0.00279364 0)
(0.973733 0.00170221 0)
(0.699885 0.000699742 0)
(0.156132 5.35734e-05 0)
(0.168671 7.95194e-05 0)
(0.904532 0.00165238 0)
(1.04008 0.00298917 0)
(1.05479 0.00438737 0)
(1.05467 0.00596939 0)
(1.05359 0.00773871 0)
(1.05195 0.0096437 0)
(1.04958 0.0115483 0)
(1.04632 0.0131863 0)
(1.04214 0.0140964 0)
(1.03785 0.0137395 0)
(1.03449 0.0123524 0)
(1.0321 0.010494 0)
(1.03048 0.00852775 0)
(1.02941 0.00665045 0)
(1.02865 0.00495494 0)
(1.02459 0.00346508 0)
(0.97036 0.00212692 0)
(0.696368 0.000879108 0)
(0.15474 6.73198e-05 0)
(0.170725 0.000103028 0)
(0.909353 0.00213749 0)
(1.04407 0.00387887 0)
(1.05847 0.00570273 0)
(1.05815 0.00775423 0)
(1.05679 0.0100363 0)
(1.05472 0.012476 0)
(1.05172 0.0148817 0)
(1.04761 0.0168933 0)
(1.04232 0.0179188 0)
(1.03688 0.0173276 0)
(1.03257 0.0154867 0)
(1.02951 0.0131097 0)
(1.02742 0.0106344 0)
(1.02604 0.00829176 0)
(1.02508 0.00618468 0)
(1.02084 0.00433477 0)
(0.966168 0.00266811 0)
(0.691955 0.00110435 0)
(0.152994 8.43329e-05 0)
(0.173401 0.00013559 0)
(0.915568 0.00278277 0)
(1.04917 0.00505392 0)
(1.06319 0.00741304 0)
(1.06261 0.0100408 0)
(1.06085 0.0129596 0)
(1.05817 0.0160728 0)
(1.05434 0.0191106 0)
(1.04912 0.0215928 0)
(1.04242 0.0227671 0)
(1.03553 0.0218892 0)
(1.03009 0.0194841 0)
(1.02621 0.0164552 0)
(1.02356 0.0133357 0)
(1.02182 0.0104009 0)
(1.02063 0.00776603 0)
(1.01618 0.00544826 0)
(0.960918 0.00335355 0)
(0.686405 0.00138703 0)
(0.150806 0.000105688 0)
(0.176924 0.000183086 0)
(0.923627 0.00366414 0)
(1.05575 0.00663206 0)
(1.06929 0.00964523 0)
(1.06834 0.0129692 0)
(1.066 0.0166938 0)
(1.0625 0.0206737 0)
(1.05754 0.0245128 0)
(1.05085 0.0275719 0)
(1.04236 0.0289088 0)
(1.0337 0.027654 0)
(1.02686 0.0245355 0)
(1.022 0.0206881 0)
(1.01869 0.0167623 0)
(1.01651 0.0130886 0)
(1.01506 0.00979325 0)
(1.01034 0.00687926 0)
(0.95431 0.00422876 0)
(0.679404 0.00174632 0)
(0.148065 0.000133619 0)
(0.181629 0.000253459 0)
(0.934201 0.00489069 0)
(1.06439 0.00875226 0)
(1.07735 0.01253 0)
(1.07582 0.0167079 0)
(1.07262 0.0214964 0)
(1.06795 0.0266129 0)
(1.06148 0.031458 0)
(1.05288 0.0351962 0)
(1.04211 0.0366738 0)
(1.03125 0.0349038 0)
(1.02274 0.0308799 0)
(1.01668 0.0260123 0)
(1.01255 0.0210889 0)
(1.00985 0.0165098 0)
(1.00806 0.0124087 0)
(1.003 0.0087515 0)
(0.945961 0.00537486 0)
(0.670532 0.00221459 0)
(0.144627 0.000172022 0)
(0.188024 0.0003559 0)
(0.948246 0.00661646 0)
(1.07594 0.0116201 0)
(1.08811 0.0163204 0)
(1.08568 0.0216495 0)
(1.08127 0.0279028 0)
(1.07497 0.034464 0)
(1.06642 0.0404998 0)
(1.0553 0.0449596 0)
(1.04166 0.0464738 0)
(1.0281 0.0439801 0)
(1.01753 0.0388109 0)
(1.01002 0.0326842 0)
(1.00487 0.0265383 0)
(1.00148 0.0208629 0)
(0.999264 0.0158022 0)
(0.993772 0.0112518 0)
(0.93541 0.00693399 0)
(0.659255 0.00284531 0)
(0.140306 0.000225589 0)
(0.196929 0.000511794 0)
(0.966957 0.00918082 0)
(1.09124 0.0157157 0)
(1.10232 0.0216531 0)
(1.09862 0.0286371 0)
(1.09251 0.0368066 0)
(1.084 0.0450895 0)
(1.07264 0.0523824 0)
(1.05822 0.0574674 0)
(1.04097 0.0587762 0)
(1.02414 0.055252 0)
(1.0111 0.0486477 0)
(1.0018 0.0409908 0)
(0.995362 0.0333598 0)
(0.991058 0.0263491 0)
(0.988202 0.0201435 0)
(0.982136 0.0145507 0)
(0.92219 0.00906351 0)
(0.645051 0.00370039 0)
(0.134891 0.000293955 0)
(0.209698 0.000783021 0)
(0.991897 0.0133666 0)
(1.11126 0.0218858 0)
(1.1208 0.0295602 0)
(1.11523 0.0388454 0)
(1.10667 0.0493309 0)
(1.095 0.059426 0)
(1.0799 0.0678791 0)
(1.06137 0.0733142 0)
(1.03979 0.0740174 0)
(1.01911 0.0690543 0)
(1.00317 0.0606826 0)
(0.991732 0.0512155 0)
(0.983689 0.0418225 0)
(0.978167 0.0331806 0)
(0.974399 0.0255532 0)
(0.967556 0.0186976 0)
(0.905817 0.0118292 0)
(0.62753 0.00483313 0)
(0.12816 0.00037131 0)
(0.228618 0.00130507 0)
(1.02615 0.0205853 0)
(1.13806 0.0316613 0)
(1.14489 0.0419706 0)
(1.13604 0.0542005 0)
(1.12352 0.06709 0)
(1.10733 0.0787704 0)
(1.08742 0.0879443 0)
(1.06394 0.0931388 0)
(1.03745 0.0926053 0)
(1.01252 0.0857026 0)
(0.993362 0.0752378 0)
(0.979463 0.0637361 0)
(0.969482 0.0523759 0)
(0.962408 0.0418467 0)
(0.957401 0.0324863 0)
(0.94945 0.0240354 0)
(0.885382 0.0154548 0)
(0.605986 0.0063663 0)
(0.119806 0.000463258 0)
(0.257109 0.00251065 0)
(1.07537 0.0342905 0)
(1.17419 0.0488804 0)
(1.17584 0.0627994 0)
(1.16127 0.0780664 0)
(1.14268 0.0927409 0)
(1.12035 0.105067 0)
(1.09443 0.11383 0)
(1.06524 0.117665 0)
(1.03338 0.114948 0)
(1.00396 0.105491 0)
(0.981392 0.0926515 0)
(0.964797 0.0790222 0)
(0.952546 0.0656885 0)
(0.943501 0.0532736 0)
(0.936733 0.0421104 0)
(0.927014 0.0319634 0)
(0.859312 0.0211636 0)
(0.578843 0.00859794 0)
(0.109948 0.000542448 0)
(0.298083 0.0101538 -1.53387e-20)
(1.14056 0.062593 -1.17101e-20)
(1.21946 0.0803545 3.28692e-21)
(1.21126 0.0977469 0)
(1.18863 0.114206 1.36349e-35)
(1.16247 0.128621 -3.2997e-23)
(1.13295 0.139815 -9.42457e-22)
(1.10024 0.146738 0)
(1.06473 0.148161 4.18744e-35)
(1.02699 0.142571 -3.29217e-21)
(0.992606 0.130242 0)
(0.966122 0.115025 -4.85835e-21)
(0.946229 0.0994636 -1.49457e-20)
(0.930974 0.0845032 -7.26313e-21)
(0.919033 0.0707506 -2.30304e-21)
(0.909304 0.0585219 -1.40035e-21)
(0.896433 0.0475226 0)
(0.824982 0.035114 1.01646e-21)
(0.543476 0.0188177 1.20577e-21)
(0.100052 0.003095 2.14728e-20)
(0.320929 0.0281953 -2.71352e-20)
(1.1931 0.110555 5.16673e-22)
(1.26075 0.131019 -1.53359e-21)
(1.24336 0.146902 0)
(1.21297 0.161442 2.81846e-21)
(1.17947 0.173835 1.90387e-21)
(1.143 0.182927 -4.4724e-22)
(1.10364 0.18765 -4.94065e-21)
(1.06162 0.186734 0)
(1.01731 0.17864 1.38527e-20)
(0.976869 0.164025 1.56025e-20)
(0.945204 0.147158 5.06939e-21)
(0.920724 0.130559 2.03082e-20)
(0.901184 0.114997 3.02262e-20)
(0.885071 0.100995 0)
(0.8711 0.089 4.54573e-20)
(0.853385 0.078584 6.70024e-20)
(0.782947 0.0655979 7.51461e-20)
(0.519337 0.0427209 -8.81133e-20)
(0.0984706 0.0085059 -1.59912e-21)
(0.311005 0.0453871 0)
(1.22343 0.172401 -7.92953e-21)
(1.29162 0.194033 0)
(1.26811 0.205982 1.29816e-20)
(1.23149 0.216593 0)
(1.19179 0.225257 7.61946e-21)
(1.14926 0.230944 4.07589e-23)
(1.10397 0.232426 -6.35291e-21)
(1.0561 0.228407 -1.53499e-21)
(1.00592 0.217411 6.5645e-21)
(0.960093 0.200576 3.64857e-20)
(0.924048 0.182519 -2.46522e-22)
(0.89596 0.165632 -1.52755e-20)
(0.873321 0.150535 -2.98984e-20)
(0.854566 0.137543 3.64812e-20)
(0.838451 0.126879 -6.56667e-20)
(0.82005 0.118192 -9.05224e-21)
(0.75703 0.105121 0)
(0.517243 0.072741 4.1801e-22)
(0.105291 0.015268 0)
(0.297857 0.0600272 -1.97203e-19)
(1.23639 0.237144 8.09141e-20)
(1.31044 0.26135 4.29754e-20)
(1.28357 0.269616 -8.3793e-21)
(1.24291 0.275771 1.28767e-20)
(1.1988 0.280149 -1.81879e-20)
(1.15162 0.281803 -9.79927e-22)
(1.1015 0.279533 0)
(1.04871 0.272024 -2.40042e-20)
(0.993589 0.257865 0)
(0.943491 0.238685 -1.83579e-20)
(0.904257 0.21936 -2.64619e-20)
(0.87386 0.202078 -1.70749e-20)
(0.849641 0.187174 -2.22187e-20)
(0.829886 0.174728 0)
(0.813228 0.164829 0)
(0.795506 0.156979 -6.05684e-20)
(0.738451 0.143263 1.21418e-20)
(0.512466 0.100416 -7.13221e-21)
(0.106645 0.0212023 -8.3551e-21)
(0.28612 0.0729676 1.43723e-19)
(1.23784 0.300924 0)
(1.31954 0.328866 -1.19065e-19)
(1.29092 0.333868 -3.11447e-20)
(1.24759 0.335821 -2.45177e-20)
(1.20041 0.336044 0)
(1.14984 0.33365 -4.74854e-21)
(1.09609 0.327523 4.51111e-21)
(1.03947 0.316388 9.81606e-21)
(0.980341 0.298885 3.29916e-20)
(0.926688 0.277125 0)
(0.884959 0.256208 -5.73846e-20)
(0.853006 0.238092 -3.70677e-20)
(0.827893 0.222899 -2.24086e-20)
(0.807739 0.210474 1.48223e-19)
(0.79112 0.20072 1.82426e-20)
(0.774181 0.192872 8.74568e-20)
(0.720848 0.177682 -4.2532e-19)
(0.503633 0.124741 2.5464e-19)
(0.105764 0.0264304 -3.07889e-19)
(0.276724 0.0847284 1.50223e-19)
(1.23199 0.361857 -2.78111e-20)
(1.32135 0.394762 2.07237e-20)
(1.29191 0.396934 5.68411e-20)
(1.24686 0.395011 3.56376e-20)
(1.19756 0.391292 1.57974e-21)
(1.14448 0.38502 4.65885e-21)
(1.08789 0.375188 1.84739e-21)
(1.02813 0.360532 -2.13478e-20)
(0.965657 0.339653 0)
(0.909151 0.315094 -2.43849e-20)
(0.865559 0.292235 -1.49383e-21)
(0.832564 0.272879 -4.15776e-20)
(0.807013 0.256903 0)
(0.786849 0.243953 -3.23418e-20)
(0.770526 0.233758 -7.88502e-20)
(0.754268 0.225389 2.19128e-19)
(0.70323 0.208333 -2.19844e-19)
(0.492854 0.146336 3.13774e-19)
(0.103708 0.0309908 -3.27271e-19)
(0.269549 0.0956712 -4.7929e-22)
(1.22192 0.419352 3.36609e-20)
(1.31777 0.457897 9.85016e-20)
(1.28806 0.45769 -3.44993e-20)
(1.24187 0.452266 2.02895e-20)
(1.19109 0.444954 0)
(1.1362 0.435135 1.08911e-20)
(1.07746 0.421829 8.49278e-23)
(1.01525 0.403825 -9.06602e-21)
(0.95008 0.37966 0)
(0.891156 0.352184 -2.33925e-20)
(0.845984 0.327118 -3.37175e-20)
(0.812201 0.30613 4.55176e-20)
(0.786391 0.288944 -2.93616e-20)
(0.766317 0.275071 -1.4278e-19)
(0.750306 0.264087 8.80901e-20)
(0.7346 0.254922 2.81215e-20)
(0.685335 0.235919 0)
(0.480971 0.165556 -3.05127e-19)
(0.10098 0.0349203 -1.12287e-20)
(0.264133 0.106148 2.42878e-20)
(1.20952 0.473233 -3.84719e-20)
(1.31017 0.517591 -5.36297e-20)
(1.2805 0.515395 -1.06462e-19)
(1.23367 0.506947 9.7515e-20)
(1.18197 0.496461 -5.43906e-20)
(1.12587 0.483456 -2.34214e-20)
(1.06551 0.467003 1.30395e-21)
(1.00127 0.445898 1.0635e-20)
(0.933708 0.41861 -7.92399e-20)
(0.872593 0.388177 -2.92591e-20)
(0.825992 0.360658 0)
(0.79151 0.337715 4.99372e-20)
(0.76553 0.318975 6.21389e-20)
(0.745607 0.303851 7.67968e-20)
(0.729951 0.29182 -9.64889e-20)
(0.714782 0.281665 -2.91547e-20)
(0.66699 0.260651 3.47167e-20)
(0.468067 0.182477 0)
(0.0977419 0.0382211 -2.45951e-20)
(0.259997 0.116261 -2.79469e-19)
(1.19603 0.523599 1.7586e-19)
(1.29974 0.573597 5.87011e-20)
(1.27026 0.569717 -8.0879e-20)
(1.22313 0.558661 5.78228e-20)
(1.17088 0.545443 -3.74726e-21)
(1.11392 0.529649 2.38152e-20)
(1.05236 0.510411 2.42323e-23)
(0.98645 0.486492 -1.60438e-20)
(0.916757 0.456313 1.00369e-22)
(0.853546 0.422985 -8.63034e-20)
(0.805511 0.392847 8.69991e-20)
(0.770306 0.367665 -5.63848e-20)
(0.744144 0.347044 7.06026e-20)
(0.724391 0.330384 0)
(0.709115 0.317085 -5.27246e-20)
(0.694488 0.305708 -1.33095e-21)
(0.648052 0.28263 -1.52704e-19)
(0.454241 0.197229 -2.26129e-20)
(0.0940129 0.0408991 0)
(0.256755 0.125983 0)
(1.1821 0.570649 1.89215e-19)
(1.28733 0.625906 1.36146e-19)
(1.25811 0.620613 9.09286e-20)
(1.21094 0.607314 5.63684e-20)
(1.15841 0.591736 0)
(1.1009 0.573525 2.01695e-20)
(1.03844 0.551847 -1.33698e-21)
(0.971193 0.525518 3.31795e-20)
(0.899523 0.492731 -9.29266e-21)
(0.834164 0.456641 -6.35359e-20)
(0.784525 0.423787 4.32647e-20)
(0.748458 0.396096 -2.09413e-21)
(0.722027 0.373288 7.46165e-20)
(0.702432 0.354806 4.91694e-20)
(0.68756 0.339999 -1.15278e-19)
(0.673529 0.32724 1.40199e-19)
(0.628319 0.301715 4.21871e-20)
(0.439274 0.2097 1.74927e-19)
(0.089668 0.0427439 -4.67751e-19)
(0.254191 0.135411 -7.07943e-20)
(1.16813 0.61458 1.08731e-19)
(1.27366 0.674616 -8.40386e-20)
(1.24472 0.668144 -1.04902e-19)
(1.19768 0.652924 0)
(1.1451 0.635298 4.60595e-20)
(1.0873 0.614995 -6.01305e-20)
(1.02416 0.591239 -6.05803e-21)
(0.955775 0.562876 0)
(0.882286 0.527872 -1.46984e-19)
(0.814601 0.489236 1.74003e-19)
(0.763084 0.453646 0)
(0.725881 0.423205 6.76096e-20)
(0.699018 0.397884 -2.18449e-21)
(0.679499 0.377279 -1.56752e-19)
(0.665037 0.360688 6.15338e-20)
(0.651602 0.346327 0)
(0.607514 0.318231 2.29694e-19)
(0.423077 0.219899 0)
(0.08481 0.0438875 -2.24581e-19)
(0.252051 0.144538 7.84873e-20)
(1.15435 0.655604 1.23862e-19)
(1.2592 0.719889 -8.80447e-20)
(1.23056 0.71241 0)
(1.18373 0.695528 7.65901e-20)
(1.13128 0.676115 0)
(1.0734 0.654016 7.63907e-20)
(1.00984 0.628538 1.04972e-20)
(0.940479 0.598531 1.81077e-21)
(0.865271 0.561813 -7.24089e-20)
(0.795087 0.520925 1.66242e-20)
(0.741266 0.48265 0)
(0.702554 0.449282 -1.44798e-19)
(0.675004 0.421098 2.28759e-21)
(0.65541 0.39799 0)
(0.641313 0.379316 2.5261e-21)
(0.628473 0.363098 2.09597e-19)
(0.5854 0.33214 -2.03296e-19)
(0.405446 0.227713 6.00856e-20)
(0.0792772 0.0442268 0)
(0.250008 0.153201 0)
(1.14088 0.693772 1.37926e-19)
(1.24441 0.761888 1.02609e-19)
(1.21595 0.753568 -2.00032e-21)
(1.16945 0.735212 4.72022e-20)
(1.11726 0.714228 1.09333e-19)
(1.05948 0.690596 -2.53863e-20)
(0.995732 0.663723 6.58217e-21)
(0.925581 0.632504 1.55185e-20)
(0.848654 0.594555 -1.11513e-19)
(0.775804 0.551871 -3.54507e-21)
(0.719225 0.511082 -5.84062e-20)
(0.678516 0.474666 2.39405e-19)
(0.649879 0.443317 -2.81176e-21)
(0.630045 0.417217 -1.26111e-19)
(0.616192 0.395963 -2.30547e-19)
(0.603844 0.377613 0)
(0.561751 0.343496 0)
(0.386164 0.233012 6.70707e-20)
(0.0730133 0.0436485 -3.91216e-20)
(0.24834 0.161511 9.66541e-20)
(1.12766 0.729338 -3.00351e-19)
(1.22948 0.80092 -1.09654e-19)
(1.20118 0.791787 0)
(1.15506 0.772081 -1.42937e-21)
(1.10325 0.749708 1.29792e-19)
(1.04576 0.724778 -8.18964e-20)
(0.982014 0.696797 -4.81713e-20)
(0.911306 0.664769 1.08656e-20)
(0.832646 0.626145 -8.36758e-20)
(0.756893 0.582277 -1.47953e-19)
(0.697166 0.539255 1.56285e-19)
(0.653842 0.499787 0)
(0.623514 0.464929 -5.72434e-20)
(0.602961 0.435306 -1.39738e-19)
(0.589284 0.411077 -1.69025e-19)
(0.577451 0.38992 -2.06057e-19)
(0.536349 0.352207 6.2087e-20)
(0.364814 0.235508 -3.63572e-20)
(0.0659545 0.0420304 6.73118e-22)
(0.246606 0.169377 0)
(1.11483 0.762643 0)
(1.21455 0.837092 2.2139e-21)
(1.18636 0.827214 0)
(1.14076 0.806265 -1.76279e-19)
(1.08943 0.78265 -1.1363e-19)
(1.03239 0.756608 0)
(0.968844 0.727767 -9.89039e-21)
(0.897788 0.695311 2.85183e-21)
(0.817492 0.656612 -1.91931e-19)
(0.738595 0.612178 0)
(0.675311 0.567455 -1.00939e-19)
(0.628592 0.525062 -3.33302e-21)
(0.595625 0.48645 -2.74758e-21)
(0.573632 0.452559 1.50898e-19)
(0.560124 0.424967 -2.36143e-22)
(0.549255 0.400317 -4.52577e-19)
(0.50881 0.358211 1.37081e-19)
(0.341048 0.234775 4.08913e-20)
(0.0579914 0.0391916 0)
(0.244805 0.176766 -3.52628e-19)
(1.10231 0.793698 -1.82753e-19)
(1.19973 0.870622 -2.72185e-19)
(1.17168 0.859988 3.83822e-19)
(1.12665 0.837885 -3.29128e-19)
(1.07591 0.813155 0)
(1.01946 0.786159 -6.8242e-20)
(0.956348 0.756673 1.9507e-20)
(0.885153 0.724131 3.7277e-21)
(0.803436 0.685913 1.56567e-20)
(0.721343 0.641583 1.85334e-19)
(0.653924 0.595888 -3.44054e-20)
(0.602975 0.550694 -1.5047e-19)
(0.566121 0.508025 -6.96419e-20)
(0.542436 0.469952 8.49949e-20)
(0.528644 0.437601 -1.60006e-22)
(0.51827 0.409069 1.26097e-19)
(0.47774 0.361507 -3.00128e-19)
(0.313875 0.230551 3.60721e-19)
(0.0491371 0.0351413 5.19743e-20)
(0.24283 0.18368 1.28935e-19)
(1.09017 0.822895 -9.94561e-20)
(1.18511 0.901714 5.33025e-21)
(1.15725 0.890291 2.15558e-19)
(1.11279 0.867097 7.61773e-20)
(1.06276 0.84133 2.26451e-19)
(1.00707 0.813508 -2.91511e-20)
(0.944579 0.783561 9.14941e-20)
(0.873538 0.75123 2.35535e-20)
(0.790648 0.713983 -1.00334e-19)
(0.705358 0.670653 0)
(0.633136 0.624611 -1.57473e-19)
(0.577361 0.576824 2.20637e-19)
(0.535955 0.53057 0)
(0.510018 0.487815 -1.83052e-19)
(0.495138 0.449637 1.14908e-19)
(0.484136 0.415432 -1.37744e-19)
(0.44326 0.360964 -1.67615e-19)
(0.282664 0.221733 -2.97311e-19)
(0.0391633 0.0296207 -2.32294e-19)
(0.241019 0.190243 -1.41055e-19)
(1.07828 0.850271 1.06317e-19)
(1.1707 0.930477 2.51424e-19)
(1.14312 0.918246 2.95336e-19)
(1.09929 0.894033 -1.59964e-19)
(1.05003 0.867302 1.55259e-19)
(0.995236 0.838733 -9.16004e-20)
(0.933592 0.808479 1.09998e-19)
(0.862987 0.776606 2.16835e-20)
(0.77927 0.740826 9.11171e-20)
(0.690679 0.699351 3.94183e-19)
(0.613194 0.65354 0)
(0.552295 0.604125 0)
(0.50649 0.555115 -8.09442e-20)
(0.47542 0.506348 0)
(0.457762 0.462132 2.52329e-19)
(0.44569 0.421232 3.05017e-19)
(0.404384 0.356901 0)
(0.247012 0.207798 0)
(0.0283133 0.0226841 2.57366e-19)
(0.239062 0.196261 1.54866e-19)
(1.06659 0.875721 1.25887e-19)
(1.15663 0.957046 1.80283e-19)
(1.12932 0.944021 -2.62115e-19)
(1.08617 0.918833 -1.77488e-19)
(1.03776 0.891188 -2.04414e-19)
(0.983979 0.861924 1.35675e-19)
(0.923382 0.831471 1.19076e-21)
(0.853529 0.800261 -4.79641e-21)
(0.769301 0.766453 -6.41571e-21)
(0.677444 0.727613 1.99897e-19)
(0.594642 0.682911 0)
(0.52813 0.632841 2.25804e-19)
(0.476778 0.581036 1.71401e-19)
(0.43887 0.528444 4.43734e-19)
(0.415562 0.474615 1.36832e-19)
(0.401308 0.422926 -1.71919e-19)
(0.360453 0.346101 -1.022e-19)
(0.208937 0.187112 0)
(0.0184887 0.0150751 2.8457e-19)
(0.237403 0.202206 -3.38916e-19)
(1.05518 0.899388 0)
(1.1429 0.981555 2.00021e-19)
(1.11589 0.967749 -2.13913e-19)
(1.07348 0.941629 1.99448e-19)
(1.02596 0.913116 2.96243e-19)
(0.97327 0.883172 -3.11799e-19)
(0.913901 0.852595 4.31777e-21)
(0.845101 0.8222 0)
(0.760707 0.790794 -7.57438e-20)
(0.666097 0.755178 -4.12953e-19)
(0.577869 0.712461 2.15148e-20)
(0.504549 0.663374 3.09173e-19)
(0.444923 0.610913 0)
(0.398912 0.552415 2.99903e-19)
(0.366569 0.492491 0)
(0.346459 0.424505 0)
(0.306599 0.322098 -1.16131e-19)
(0.175708 0.15129 0)
(0.0273888 0.0141789 7.7754e-20)
(0.235592 0.207515 -3.68612e-19)
(1.04404 0.921492 0)
(1.12949 1.00422 3.22817e-19)
(1.1028 0.989675 0)
(1.06114 0.962687 -1.07585e-19)
(1.01453 0.933365 0)
(0.962992 0.90278 -2.27227e-20)
(0.904975 0.872123 -1.89215e-20)
(0.837464 0.842704 -4.24179e-21)
(0.753336 0.814148 -6.73678e-20)
(0.656535 0.782526 1.03462e-20)
(0.563156 0.742748 1.80866e-19)
(0.482193 0.695759 3.00069e-19)
(0.413215 0.641208 4.33024e-20)
(0.356704 0.584036 2.3431e-19)
(0.312382 0.515358 0)
(0.273123 0.430031 3.79228e-19)
(0.224805 0.278996 -2.30277e-19)
(0.0995243 0.119761 2.68529e-19)
(-0.0602111 0.365673 -3.18764e-19)
(0.233912 0.212641 2.99553e-19)
(1.03301 0.9422 4.7163e-19)
(1.11629 1.02536 0)
(1.0899 1.01018 3.90145e-21)
(1.04896 0.982472 2.9073e-19)
(1.00321 0.952458 -5.68228e-19)
(0.952863 0.921283 -1.36075e-19)
(0.896284 0.890568 0)
(0.830299 0.862392 -5.42852e-20)
(0.747098 0.837494 -4.43761e-22)
(0.648403 0.81131 0)
(0.549202 0.776897 0)
(0.460247 0.732218 2.64186e-19)
(0.379136 0.67935 -1.35663e-19)
(0.310226 0.623836 -2.32303e-19)
(0.250444 0.560095 0)
(0.16826 0.451389 1.92912e-19)
(0.0629974 0.506218 -2.33224e-19)
(0.0561439 1.66754 -1.24162e-19)
(0.0960332 2.70124 -1.57505e-19)
(0.232241 0.216961 -2.18225e-19)
(1.02225 0.961655 -5.92028e-19)
(1.10331 1.04495 1.84515e-19)
(1.07722 1.02917 1.78934e-19)
(1.03698 1.00084 0)
(0.992023 0.97021 -4.0534e-19)
(0.942991 0.938465 -2.25846e-19)
(0.887921 0.907558 1.21695e-20)
(0.82379 0.880791 -7.75018e-21)
(0.742379 0.860149 3.80396e-20)
(0.641719 0.84086 1.83488e-19)
(0.536431 0.812663 1.89741e-19)
(0.440044 0.772511 2.60285e-19)
(0.349559 0.718357 -3.09258e-19)
(0.267754 0.678633 -3.41057e-19)
(0.193285 0.620894 0)
(0.103616 0.847144 0)
(0.158678 2.37209 9.99639e-20)
(0.167647 3.13184 0)
(0.166446 3.35604 2.32011e-19)
(0.233093 0.221182 0)
(1.01178 0.979861 0)
(1.09042 1.06286 0)
(1.0645 1.04648 4.93905e-20)
(1.02495 1.01767 2.58701e-19)
(0.980774 0.98657 -3.07615e-19)
(0.933228 0.954233 -1.61299e-19)
(0.87979 0.923255 1.3653e-20)
(0.818015 0.898136 -1.06696e-19)
(0.739207 0.882108 -1.13331e-20)
(0.637284 0.870803 3.30368e-19)
(0.52532 0.850073 -2.26795e-20)
(0.420368 0.815628 2.93977e-20)
(0.321428 0.762678 4.40173e-20)
(0.240895 0.731511 1.44291e-21)
(0.16485 0.947317 1.66464e-21)
(0.20916 2.47102 -4.6942e-19)
(0.242317 3.24859 -1.78885e-19)
(0.220693 3.41703 8.25844e-20)
(0.198094 3.44765 -8.33813e-20)
(0.14409 0.175295 1.23315e-19)
(0.993756 0.999855 0)
(1.07794 1.07939 -3.58542e-19)
(1.05248 1.06286 -4.60722e-19)
(1.01359 1.03375 5.33795e-19)
(0.970229 1.00213 3.25883e-19)
(0.923486 0.968664 1.89296e-19)
(0.87188 0.937946 -2.23376e-19)
(0.813454 0.914286 1.06448e-19)
(0.737975 0.903285 0)
(0.635972 0.901357 1.39026e-19)
(0.518386 0.888994 -1.4368e-19)
(0.405033 0.862049 0)
(0.298818 0.809949 3.88188e-20)
(0.235617 0.890001 9.08915e-20)
(0.207862 2.05914 -1.11436e-19)
(0.316608 3.27585 1.22873e-19)
(0.296005 3.44067 5.6876e-20)
(0.249436 3.4743 6.54074e-20)
(0.217414 3.48883 7.22483e-20)
(0.276184 0.257725 -2.26443e-19)
(0.971408 1.00011 0)
(1.05683 1.09805 3.62413e-19)
(1.03433 1.08566 4.70892e-19)
(0.995541 1.05592 -5.45259e-19)
(0.953029 1.02345 -3.42714e-19)
(0.90839 0.990139 -2.85501e-19)
(0.860625 0.958965 -1.69843e-20)
(0.807313 0.93678 -1.46357e-19)
(0.737447 0.933672 -4.86711e-20)
(0.634651 0.950692 4.61931e-21)
(0.50596 0.959568 1.19379e-19)
(0.375722 0.943795 2.52682e-20)
(0.281922 1.02393 -3.44933e-20)
(0.319584 1.99044 -7.70223e-20)
(0.409235 3.25736 4.54385e-20)
(0.400663 3.48311 -3.26812e-20)
(0.354223 3.51976 -1.76281e-20)
(0.304308 3.55683 2.68239e-20)
(0.231837 3.54743 1.45122e-21)
(0.262442 0.252759 0)
(0.965554 1.01699 9.51432e-20)
(1.04562 1.11525 -7.15217e-20)
(1.02231 1.10198 -5.21221e-20)
(0.98372 1.07179 -3.56207e-19)
(0.942011 1.03859 3.3391e-19)
(0.898447 1.00418 1.91478e-19)
(0.853168 0.972218 -1.77062e-20)
(0.804756 0.951078 1.7902e-19)
(0.742072 0.95464 -1.7372e-20)
(0.641094 0.985055 -1.84017e-19)
(0.503319 1.00956 1.75233e-20)
(0.366141 1.00859 -2.26432e-20)
(0.329877 1.33659 -2.8125e-20)
(0.447374 2.83107 1.99452e-20)
(0.507684 3.45481 2.22008e-23)
(0.450064 3.56162 -9.45232e-20)
(0.406505 3.59765 -9.59938e-20)
(0.329221 3.63726 1.1881e-19)
(0.251802 3.62464 5.41999e-20)
(0.244041 0.248678 2.32661e-19)
(0.957202 1.03681 6.35787e-19)
(1.03355 1.1336 -2.03007e-19)
(1.00918 1.11913 -1.97494e-19)
(0.970895 1.08816 0)
(0.93 1.05391 4.83105e-19)
(0.887868 1.01823 2.89767e-19)
(0.845617 0.98539 -1.85122e-20)
(0.802897 0.965226 1.91379e-20)
(0.749321 0.974685 1.30968e-19)
(0.656877 1.02061 -5.34443e-20)
(0.509904 1.06408 -1.26237e-19)
(0.366508 1.10307 -1.57521e-19)
(0.415726 1.81787 1.53883e-19)
(0.570402 3.26334 4.82072e-20)
(0.585783 3.54448 0)
(0.518735 3.61687 0)
(0.459654 3.69294 1.12416e-19)
(0.372174 3.76176 0)
(0.269222 3.73199 2.17552e-19)
(0.23085 0.247787 -3.37394e-19)
(0.947014 1.058 -5.25725e-19)
(1.01958 1.1526 0)
(0.994327 1.1366 3.70374e-21)
(0.95642 1.10452 -3.41886e-19)
(0.916341 1.06888 7.12866e-19)
(0.875912 1.03159 1.93801e-19)
(0.836988 0.997163 -2.15797e-20)
(0.800611 0.976654 1.94228e-19)