/*--------------------------------*- C++ -*----------------------------------*\
| =========                 |                                                 |
| \\      /  F ield         | OpenFOAM: The Open Source CFD Toolbox           |
|  \\    /   O peration     | Version:  2112                                  |
|   \\  /    A nd           | Website:  www.openfoam.com                      |
|    \\/     M anipulation  |                                                 |
\*---------------------------------------------------------------------------*/
FoamFile
{
    version     2.0;
    format      ascii;
    arch        "LSB;label=32;scalar=64";
    class       volScalarField;
    location    "60";
    object      T;
}
// * * * * * * * * * * * * * * * * * * * * * * * * * * * * * * * * * * * * * //

dimensions      [0 0 0 1 0 0 0];

internalField   nonuniform List<scalar> 
10000
(
6.6286e-14
5.93659e-14
5.19891e-14
4.60044e-14
4.1212e-14
3.78921e-14
3.62173e-14
3.61689e-14
3.80613e-14
4.08724e-14
3.80848e-13
3.39479e-13
2.96646e-13
2.6139e-13
2.33437e-13
2.14329e-13
2.04912e-13
2.05136e-13
2.16146e-13
2.33104e-13
1.22142e-12
1.08012e-12
9.36033e-13
8.17331e-13
7.25599e-13
6.64413e-13
6.35622e-13
6.39849e-13
6.78569e-13
7.3677e-13
3.46182e-12
3.04463e-12
2.6126e-12
2.25683e-12
1.98831e-12
1.81375e-12
1.73651e-12
1.75843e-12
1.87841e-12
2.04811e-12
9.36754e-12
8.21012e-12
6.98208e-12
5.96886e-12
5.21643e-12
4.73734e-12
4.53649e-12
4.61498e-12
4.95752e-12
5.41737e-12
2.48276e-11
2.17051e-11
1.83203e-11
1.55174e-11
1.34561e-11
1.21621e-11
1.1637e-11
1.18718e-11
1.27978e-11
1.3997e-11
6.50699e-11
5.67752e-11
4.76401e-11
4.00383e-11
3.44723e-11
3.10017e-11
2.9604e-11
3.02257e-11
3.26304e-11
3.56827e-11
1.69293e-10
1.47491e-10
1.23208e-10
1.02891e-10
8.80201e-11
7.87451e-11
7.49518e-11
7.64352e-11
8.24821e-11
9.01123e-11
4.38158e-10
3.81293e-10
3.17424e-10
2.63708e-10
2.24295e-10
1.99566e-10
1.89116e-10
1.92285e-10
2.07081e-10
2.25874e-10
1.12968e-09
9.82198e-10
8.15492e-10
6.74582e-10
5.70728e-10
5.04901e-10
4.75852e-10
4.81632e-10
5.16951e-10
5.62632e-10
2.90405e-09
2.52319e-09
2.09054e-09
1.72302e-09
1.45053e-09
1.27552e-09
1.19441e-09
1.20178e-09
1.28404e-09
1.39366e-09
7.44815e-09
6.46795e-09
5.34999e-09
4.39535e-09
3.68279e-09
3.21793e-09
2.99124e-09
2.98818e-09
3.17451e-09
3.43424e-09
1.90663e-08
1.65506e-08
1.36713e-08
1.11995e-08
9.34115e-09
8.10766e-09
7.47487e-09
7.40499e-09
7.81256e-09
8.41998e-09
4.87274e-08
4.22847e-08
3.48875e-08
2.85065e-08
2.36699e-08
2.04024e-08
1.86405e-08
1.82888e-08
1.91406e-08
2.05367e-08
1.24344e-07
1.07879e-07
8.89178e-08
7.24885e-08
5.99261e-08
5.12844e-08
4.6394e-08
4.50205e-08
4.66806e-08
4.98222e-08
3.16811e-07
2.74819e-07
2.26347e-07
1.84168e-07
1.51603e-07
1.2879e-07
1.15261e-07
1.1046e-07
1.13308e-07
1.20188e-07
8.05792e-07
6.9892e-07
5.75498e-07
4.67547e-07
3.83312e-07
3.2318e-07
2.8588e-07
2.70143e-07
2.73657e-07
2.88192e-07
2.04492e-06
1.77418e-06
1.46136e-06
1.18606e-06
9.68814e-07
8.10476e-07
7.0795e-07
6.58559e-07
6.57417e-07
6.86475e-07
5.17448e-06
4.49331e-06
3.70457e-06
3.00614e-06
2.44808e-06
2.0319e-06
1.75097e-06
1.60033e-06
1.57048e-06
1.62298e-06
1.30457e-05
1.13441e-05
9.36959e-06
7.61032e-06
6.18444e-06
5.09434e-06
4.32742e-06
3.87709e-06
3.72904e-06
3.80593e-06
3.2729e-05
2.85127e-05
2.36211e-05
1.9233e-05
1.56153e-05
1.27753e-05
1.0691e-05
9.36638e-06
8.79805e-06
8.84382e-06
8.15322e-05
7.12292e-05
5.92858e-05
4.84813e-05
3.93954e-05
3.20466e-05
2.6414e-05
2.25755e-05
2.06203e-05
2.03409e-05
0.000201155
0.000176488
0.000147892
0.000121752
9.92591e-05
8.04215e-05
6.53144e-05
5.43451e-05
4.80162e-05
4.62692e-05
0.000489925
0.000432403
0.000365749
0.00030406
0.000249476
0.000201874
0.000161788
0.000130862
0.000111191
0.000104012
0.00117268
0.00104333
0.000893592
0.000752956
0.000624191
0.000506426
0.000401734
0.000315904
0.000256568
0.000230999
0.00274293
0.00246629
0.00214659
0.00184102
0.0015493
0.00126699
0.00100011
0.00076682
0.000592323
0.000507326
0.00622669
0.0056745
0.00503844
0.00441789
0.00379437
0.00314861
0.00249309
0.00187802
0.00137815
0.00110533
0.0136104
0.0126092
0.0114641
0.0103206
0.00909594
0.00771914
0.00619996
0.00465495
0.00327866
0.00242017
0.0283959
0.0268179
0.025043
0.0232235
0.0211041
0.018464
0.015247
0.011653
0.00810769
0.0054676
0.0560386
0.0540644
0.0519374
0.0496901
0.0467029
0.0424216
0.0365637
0.0292885
0.0217438
0.01461
6.01945e-14
5.41012e-14
4.75277e-14
4.21543e-14
3.78203e-14
3.48134e-14
3.32663e-14
3.31855e-14
3.48247e-14
3.72344e-14
3.44191e-13
3.08746e-13
2.70909e-13
2.39301e-13
2.14066e-13
1.96781e-13
1.88099e-13
1.88113e-13
1.97497e-13
2.11428e-13
1.09519e-12
9.77037e-13
8.51598e-13
7.45599e-13
6.63089e-13
6.07814e-13
5.81604e-13
5.8482e-13
6.17109e-13
6.6349e-13
3.08626e-12
2.74187e-12
2.36976e-12
2.05411e-12
1.81345e-12
1.65602e-12
1.5859e-12
1.60286e-12
1.70081e-12
1.8353e-12
8.32083e-12
7.37094e-12
6.32207e-12
5.42903e-12
4.75672e-12
4.32544e-12
4.14171e-12
4.20117e-12
4.47641e-12
4.83883e-12
2.19979e-11
1.94458e-11
1.65763e-11
1.4119e-11
1.22813e-11
1.11163e-11
1.06311e-11
1.08031e-11
1.15374e-11
1.24763e-11
5.75564e-11
5.07918e-11
4.30853e-11
3.64489e-11
3.14967e-11
2.83697e-11
2.70655e-11
2.74996e-11
2.93849e-11
3.17672e-11
1.4959e-10
1.31828e-10
1.11391e-10
9.3711e-11
8.05026e-11
7.21391e-11
6.85738e-11
6.95379e-11
7.42292e-11
8.01759e-11
3.86908e-10
3.40595e-10
2.86925e-10
2.40285e-10
2.05321e-10
1.83006e-10
1.73146e-10
1.74962e-10
1.86315e-10
2.00937e-10
9.97119e-10
8.7699e-10
7.37053e-10
6.14889e-10
5.22841e-10
4.63407e-10
4.35969e-10
4.38387e-10
4.65145e-10
5.00608e-10
2.56263e-09
2.25231e-09
1.88939e-09
1.571e-09
1.32965e-09
1.17156e-09
1.09504e-09
1.09443e-09
1.15575e-09
1.24061e-09
6.57162e-09
5.77259e-09
4.83498e-09
4.0083e-09
3.3774e-09
2.95746e-09
2.74414e-09
2.7229e-09
2.85894e-09
3.05917e-09
1.68218e-08
1.47698e-08
1.23538e-08
1.02148e-08
8.56878e-09
7.45544e-09
6.86199e-09
6.75189e-09
7.04155e-09
7.5064e-09
4.29928e-08
3.77351e-08
3.15263e-08
2.60052e-08
2.17195e-08
1.87714e-08
1.7125e-08
1.66903e-08
1.72701e-08
1.83294e-08
1.09725e-07
9.62808e-08
8.03614e-08
6.61464e-08
5.50088e-08
4.72141e-08
4.26598e-08
4.11309e-08
4.2176e-08
4.45344e-08
2.79622e-07
2.45331e-07
2.04631e-07
1.68123e-07
1.39236e-07
1.18652e-07
1.0609e-07
1.0106e-07
1.02548e-07
1.07638e-07
7.11363e-07
6.24173e-07
5.20529e-07
4.27024e-07
3.52304e-07
2.97962e-07
2.63416e-07
2.47587e-07
2.48188e-07
2.58689e-07
1.80609e-06
1.58508e-06
1.32234e-06
1.08391e-06
8.91222e-07
7.48022e-07
6.53282e-07
6.04777e-07
5.97756e-07
6.17881e-07
4.57367e-06
4.01691e-06
3.3544e-06
2.74951e-06
2.25434e-06
1.87812e-06
1.61907e-06
1.47333e-06
1.43248e-06
1.46605e-06
1.1542e-05
1.01512e-05
8.49239e-06
6.96844e-06
5.70179e-06
4.717e-06
4.01096e-06
3.58029e-06
3.41446e-06
3.45285e-06
2.89905e-05
2.55491e-05
2.14424e-05
1.76377e-05
1.44221e-05
1.18542e-05
9.9371e-06
8.68269e-06
8.09324e-06
8.06618e-06
7.23613e-05
6.39638e-05
5.39444e-05
4.45631e-05
3.64816e-05
2.9825e-05
2.46446e-05
2.10332e-05
1.90809e-05
1.86784e-05
0.000179083
0.000158983
0.000134995
0.000112278
9.22385e-05
7.51499e-05
6.12441e-05
5.09496e-05
4.47667e-05
4.28417e-05
0.000437986
0.000391154
0.000335248
0.000281585
0.000232861
0.000189599
0.000152641
0.000123626
0.000104621
9.72715e-05
0.00105417
0.000949061
0.000823547
0.000701086
0.000585921
0.000478651
0.000381898
0.000301238
0.000244113
0.000218596
0.00248378
0.00225984
0.00199229
0.00172611
0.00146477
0.00120698
0.000959577
0.000739575
0.000571195
0.000486704
0.0056915
0.00524832
0.00471814
0.00417843
0.0036196
0.00302873
0.00241904
0.00183613
0.00135025
0.00107658
0.0125867
0.0117985
0.0108539
0.00986608
0.00877222
0.0075125
0.0060955
0.00462341
0.00327156
0.00239555
0.0266305
0.0254454
0.0240217
0.0224835
0.0206164
0.0182162
0.0152152
0.0117866
0.00823773
0.00548898
0.053405
0.0521173
0.0505621
0.0487963
0.0462826
0.042484
0.037075
0.0301966
0.0226527
0.014765
5.4291e-14
4.89677e-14
4.31446e-14
3.83604e-14
3.448e-14
3.17709e-14
3.03578e-14
3.02497e-14
3.16807e-14
3.37703e-14
3.09799e-13
2.79125e-13
2.458e-13
2.17731e-13
1.95166e-13
1.79595e-13
1.71675e-13
1.71447e-13
1.79516e-13
1.91431e-13
9.77718e-13
8.77545e-13
7.68588e-13
6.75277e-13
6.02017e-13
5.52541e-13
5.2867e-13
5.30581e-13
5.57525e-13
5.96221e-13
2.72967e-12
2.44273e-12
2.12577e-12
1.85146e-12
1.63964e-12
1.49971e-12
1.43561e-12
1.4467e-12
1.52559e-12
1.63468e-12
7.29865e-12
6.52004e-12
5.64214e-12
4.87589e-12
4.28903e-12
3.90729e-12
3.73822e-12
3.77564e-12
3.99033e-12
4.27692e-12
1.91671e-11
1.71072e-11
1.47376e-11
1.26519e-11
1.10591e-11
1.00305e-11
9.57947e-12
9.67915e-12
1.02354e-11
1.09616e-11
4.98998e-11
4.4503e-11
3.82035e-11
3.26199e-11
2.83522e-11
2.55949e-11
2.43703e-11
2.4589e-11
2.59797e-11
2.77899e-11
1.29228e-10
1.15166e-10
9.85907e-11
8.38123e-11
7.2478e-11
6.51079e-11
6.17385e-11
6.21072e-11
6.54815e-11
6.99383e-11
3.33423e-10
2.9695e-10
2.53656e-10
2.1485e-10
1.84933e-10
1.65273e-10
1.55933e-10
1.56194e-10
1.64156e-10
1.7499e-10
8.57872e-10
7.63607e-10
6.5112e-10
5.49783e-10
4.71157e-10
4.18806e-10
3.92842e-10
3.91385e-10
4.09637e-10
4.35639e-10
2.20244e-09
1.95948e-09
1.66834e-09
1.40475e-09
1.19877e-09
1.05957e-09
9.87399e-10
9.77494e-10
1.01797e-09
1.07955e-09
5.64431e-09
5.01957e-09
4.26819e-09
3.58462e-09
3.04629e-09
2.6767e-09
2.47646e-09
2.43378e-09
2.51979e-09
2.66352e-09
1.44431e-08
1.28399e-08
1.09054e-08
9.13709e-09
7.73286e-09
6.75289e-09
6.19875e-09
6.0419e-09
6.21346e-09
6.54327e-09
3.69086e-08
3.28026e-08
2.78331e-08
2.32686e-08
1.96121e-08
1.70169e-08
1.54876e-08
1.49571e-08
1.5264e-08
1.6005e-08
9.42001e-08
8.37032e-08
7.09662e-08
5.92107e-08
4.97062e-08
4.28416e-08
3.86331e-08
3.69274e-08
3.73556e-08
3.8975e-08
2.40114e-07
2.13336e-07
1.80778e-07
1.50578e-07
1.25922e-07
1.07787e-07
9.62345e-08
9.09349e-08
9.10685e-08
9.44722e-08
6.11166e-07
5.43037e-07
4.60097e-07
3.82749e-07
3.18936e-07
2.71094e-07
2.3946e-07
2.23387e-07
2.21139e-07
2.27872e-07
1.55287e-06
1.38023e-06
1.16987e-06
9.72534e-07
8.07858e-07
6.8187e-07
5.95448e-07
5.47549e-07
5.34822e-07
5.46776e-07
3.93682e-06
3.50185e-06
2.97131e-06
2.47042e-06
2.04698e-06
1.71595e-06
1.48039e-06
1.33957e-06
1.28818e-06
1.30466e-06
9.95161e-06
8.86375e-06
7.53599e-06
6.27332e-06
5.18992e-06
4.32266e-06
3.68209e-06
3.27252e-06
3.08993e-06
3.09428e-06
2.50582e-05
2.23636e-05
1.9076e-05
1.59226e-05
1.317e-05
1.09068e-05
9.16975e-06
7.98884e-06
7.38201e-06
7.29104e-06
6.27615e-05
5.61772e-05
4.81525e-05
4.03781e-05
3.34519e-05
2.75812e-05
2.28883e-05
1.95083e-05
1.75717e-05
1.70599e-05
0.000156031
0.000140247
0.000121044
0.000102218
8.50278e-05
6.99352e-05
5.73277e-05
4.77217e-05
4.17034e-05
3.96187e-05
0.00038392
0.000347097
0.000302397
0.000257947
0.000216117
0.000177837
0.000144264
0.000117183
9.88215e-05
9.12834e-05
0.000931399
0.000848726
0.000748628
0.000647346
0.000548432
0.000453323
0.000365169
0.000289646
0.000234408
0.000208656
0.00221698
0.00204122
0.00182903
0.00160974
0.00138544
0.00115648
0.000930242
0.000723126
0.000559132
0.000473599
0.00514559
0.00480053
0.00438519
0.00394456
0.00346666
0.00294162
0.00238216
0.00182973
0.00135114
0.00107022
0.011559
0.0109593
0.0102396
0.00945006
0.00852445
0.00740843
0.006106
0.0047023
0.0033536
0.00243855
0.0249153
0.0240719
0.0230613
0.0218965
0.0203608
0.0182595
0.0155119
0.0122337
0.00865752
0.00573246
0.051039
0.050344
0.0494968
0.0483902
0.0464939
0.0432912
0.0384306
0.0319002
0.024357
0.0158801
5.04481e-14
4.56043e-14
4.02729e-14
3.58853e-14
3.23109e-14
2.97991e-14
2.84724e-14
2.83409e-14
2.9636e-14
3.15396e-14
2.86789e-13
2.59004e-13
2.2868e-13
2.03042e-13
1.82336e-13
1.67948e-13
1.60534e-13
1.60135e-13
1.67357e-13
1.78164e-13
8.97798e-13
8.07853e-13
7.0985e-13
6.25468e-13
5.58844e-13
5.13508e-13
4.91241e-13
4.92266e-13
5.15956e-13
5.50705e-13
2.48316e-12
2.22925e-12
1.94857e-12
1.70375e-12
1.51313e-12
1.38593e-12
1.32615e-12
1.33329e-12
1.40082e-12
1.49674e-12
6.58194e-12
5.90387e-12
5.13886e-12
4.46414e-12
3.94127e-12
3.59641e-12
3.43798e-12
3.4605e-12
3.63852e-12
3.88463e-12
1.71569e-11
1.53903e-11
1.33557e-11
1.15416e-11
1.01349e-11
9.20985e-12
8.78406e-12
8.83431e-12
9.2802e-12
9.88923e-12
4.4403e-11
3.98375e-11
3.44961e-11
2.96884e-11
2.59458e-11
2.34729e-11
2.23091e-11
2.23795e-11
2.34567e-11
2.49419e-11
1.14488e-10
1.02722e-10
8.88036e-11
7.61766e-11
6.62876e-11
5.96888e-11
5.6474e-11
5.64311e-11
5.89569e-11
6.25441e-11
2.94477e-10
2.64207e-10
2.2811e-10
1.95134e-10
1.69122e-10
1.51537e-10
1.42618e-10
1.41803e-10
1.47555e-10
1.56134e-10
7.56068e-10
6.78287e-10
5.84959e-10
4.99164e-10
4.30948e-10
3.8415e-10
3.59393e-10
3.55266e-10
3.67941e-10
3.88242e-10
1.93837e-09
1.73871e-09
1.49793e-09
1.27528e-09
1.09679e-09
9.72404e-10
9.03816e-10
8.87576e-10
9.14345e-10
9.61817e-10
4.96325e-09
4.4512e-09
3.83107e-09
3.25443e-09
2.78819e-09
2.45805e-09
2.26855e-09
2.21153e-09
2.26461e-09
2.37405e-09
1.26941e-08
1.13823e-08
9.78759e-09
8.29682e-09
7.08087e-09
6.20572e-09
5.68374e-09
5.49618e-09
5.59044e-09
5.83833e-09
3.24326e-08
2.90756e-08
2.49817e-08
2.11345e-08
1.79682e-08
1.56512e-08
1.42175e-08
1.36259e-08
1.37556e-08
1.43042e-08
8.27781e-08
7.41993e-08
6.37101e-08
5.3802e-08
4.55702e-08
3.94432e-08
3.55157e-08
3.37033e-08
3.3736e-08
3.49119e-08
2.1105e-07
1.89168e-07
1.62361e-07
1.36904e-07
1.15543e-07
9.93609e-08
8.86263e-08
8.31879e-08
8.24691e-08
8.48715e-08
5.37448e-07
4.81782e-07
4.13495e-07
3.4828e-07
2.92974e-07
2.50295e-07
2.21014e-07
2.04944e-07
2.00944e-07
2.05475e-07
1.36668e-06
1.22561e-06
1.05239e-06
8.85975e-07
7.43186e-07
6.30809e-07
5.51079e-07
5.04133e-07
4.88047e-07
4.95315e-07
3.46912e-06
3.11346e-06
2.67657e-06
2.25407e-06
1.88677e-06
1.59148e-06
1.37473e-06
1.23877e-06
1.18166e-06
1.18861e-06
8.78514e-06
7.89461e-06
6.80121e-06
5.73603e-06
4.79591e-06
4.02206e-06
3.43374e-06
3.04259e-06
2.85257e-06
2.83867e-06
2.21762e-05
1.99673e-05
1.72599e-05
1.45999e-05
1.22102e-05
1.01899e-05
8.59606e-06
7.47646e-06
6.86789e-06
6.745e-06
5.57306e-05
5.03236e-05
4.37168e-05
3.71608e-05
3.11451e-05
2.59002e-05
2.15942e-05
1.84027e-05
1.65002e-05
1.59403e-05
0.000139176
0.000126187
0.00011039
9.45254e-05
7.95896e-05
6.60901e-05
5.4509e-05
4.5448e-05
3.95932e-05
3.74532e-05
0.000344479
0.000314116
0.000277405
0.000239999
0.000203652
0.000169363
0.000138455
0.000112864
9.50341e-05
8.74585e-05
0.000842109
0.000773842
0.000691909
0.000606928
0.000521032
0.00043571
0.000354306
0.000282636
0.000228769
0.000202941
0.00202382
0.00187873
0.00170628
0.00152339
0.00132903
0.00112341
0.000913775
0.000716052
0.000554761
0.000468269
0.00475323
0.00446998
0.0041375
0.00377456
0.00336276
0.00289146
0.00237148
0.00184067
0.00136494
0.0010771
0.0108304
0.0103479
0.00979136
0.0091587
0.00837164
0.00737392
0.00616233
0.00480662
0.00345129
0.0025003
0.0237339
0.0230993
0.0223898
0.0215215
0.0202586
0.0184037
0.0158576
0.0126853
0.00906907
0.00599379
0.0495281
0.0491868
0.0488537
0.0482657
0.0468682
0.0441477
0.0397193
0.0334579
0.0258941
0.0169361
4.83759e-14
4.37883e-14
3.87165e-14
3.4535e-14
3.11258e-14
2.87215e-14
2.74425e-14
2.73051e-14
2.85298e-14
3.03318e-14
2.74454e-13
2.48208e-13
2.19446e-13
1.95088e-13
1.75381e-13
1.61634e-13
1.54496e-13
1.54025e-13
1.6082e-13
1.71026e-13
8.55935e-13
7.70904e-13
6.78624e-13
5.98961e-13
5.35872e-13
4.92733e-13
4.71301e-13
4.71859e-13
4.93872e-13
5.26797e-13
2.3554e-12
2.11719e-12
1.85481e-12
1.6253e-12
1.44589e-12
1.32542e-12
1.26789e-12
1.27308e-12
1.33509e-12
1.42502e-12
6.2119e-12
5.58133e-12
4.87204e-12
4.24445e-12
3.75536e-12
3.43009e-12
3.27733e-12
3.29269e-12
3.45355e-12
3.68139e-12
1.61199e-11
1.44909e-11
1.26204e-11
1.09458e-11
9.63756e-12
8.76772e-12
8.35585e-12
8.3825e-12
8.77725e-12
9.33398e-12
4.15662e-11
3.73884e-11
3.25162e-11
2.81074e-11
2.4643e-11
2.23228e-11
2.11937e-11
2.11934e-11
2.21251e-11
2.34654e-11
1.06871e-10
9.61756e-11
8.35614e-11
7.20425e-11
6.29208e-11
5.6738e-11
5.36138e-11
5.3375e-11
5.55053e-11
5.87033e-11
2.74321e-10
2.46948e-10
2.14394e-10
1.84428e-10
1.60493e-10
1.44031e-10
1.35361e-10
1.34037e-10
1.38756e-10
1.46321e-10
7.03301e-10
6.33237e-10
5.49374e-10
4.71614e-10
4.08945e-10
3.65162e-10
3.41125e-10
3.35741e-10
3.45805e-10
3.63531e-10
1.80129e-09
1.62198e-09
1.40617e-09
1.20471e-09
1.04088e-09
9.24564e-10
8.58099e-10
8.38915e-10
8.59272e-10
9.00355e-10
4.60923e-09
4.15047e-09
3.59552e-09
3.07427e-09
2.64653e-09
2.33789e-09
2.15472e-09
2.09117e-09
2.1289e-09
2.22283e-09
1.17842e-08
1.06106e-08
9.18493e-09
7.8381e-09
6.7228e-09
5.90487e-09
5.40166e-09
5.20056e-09
5.25902e-09
5.46993e-09
3.01033e-08
2.71021e-08
2.34439e-08
1.99691e-08
1.70651e-08
1.49001e-08
1.35218e-08
1.29049e-08
1.29533e-08
1.34155e-08
7.68358e-08
6.91672e-08
5.97961e-08
5.0848e-08
4.32979e-08
3.75746e-08
3.38089e-08
3.19577e-08
3.18118e-08
3.27902e-08
1.95938e-07
1.76372e-07
1.52427e-07
1.29436e-07
1.09842e-07
9.47305e-08
8.44638e-08
7.89971e-08
7.79017e-08
7.98636e-08
4.99126e-07
4.49347e-07
3.88362e-07
3.29461e-07
2.78722e-07
2.38876e-07
2.10934e-07
1.94981e-07
1.90233e-07
1.93811e-07
1.26986e-06
1.14374e-06
9.89065e-07
8.38745e-07
7.07721e-07
6.02817e-07
5.26877e-07
4.80723e-07
4.63291e-07
4.68581e-07
3.22583e-06
2.90789e-06
2.51777e-06
2.13613e-06
1.79903e-06
1.52338e-06
1.31723e-06
1.18456e-06
1.12545e-06
1.12852e-06
8.17833e-06
7.38188e-06
6.40556e-06
5.44347e-06
4.58051e-06
3.85803e-06
3.29905e-06
2.91941e-06
2.72783e-06
2.70695e-06
2.06776e-05
1.87006e-05
1.62827e-05
1.38806e-05
1.16867e-05
9.79997e-06
8.28631e-06
7.20339e-06
6.59929e-06
6.46552e-06
5.20774e-05
4.7232e-05
4.13319e-05
3.54137e-05
2.98902e-05
2.49899e-05
2.08997e-05
1.78179e-05
1.59453e-05
1.5373e-05
0.000130427
0.000118757
0.000104665
9.03544e-05
7.66406e-05
6.40194e-05
5.30096e-05
4.42591e-05
3.85152e-05
3.63732e-05
0.000324007
0.000296683
0.000263983
0.000230285
0.000196919
0.000164834
0.000135406
0.000110651
9.31465e-05
8.56045e-05
0.000795765
0.000734305
0.000661469
0.000585098
0.000506304
0.0004264
0.000348738
0.000279198
0.000226121
0.000200347
0.00192367
0.00179295
0.00164045
0.00147686
0.0012989
0.00110624
0.0009058
0.000713204
0.000553379
0.00046651
0.00455017
0.00429563
0.00400483
0.0036832
0.00330771
0.00286634
0.00236824
0.00184912
0.00137466
0.00108322
0.010455
0.0100262
0.00955189
0.00900268
0.00829172
0.0073599
0.00619864
0.00486867
0.00350894
0.00253851
0.0231327
0.0225926
0.0220339
0.0213221
0.0202078
0.0184896
0.0160551
0.0129407
0.00929938
0.00614237
0.0487883
0.0486062
0.0485251
0.0482043
0.0470725
0.0446145
0.0404236
0.0343023
0.0267165
0.0174829
4.82653e-14
4.36898e-14
3.86386e-14
3.44719e-14
3.10681e-14
2.86663e-14
2.73874e-14
2.72431e-14
2.84572e-14
3.02525e-14
2.73798e-13
2.47643e-13
2.18994e-13
1.94701e-13
1.75025e-13
1.61294e-13
1.54158e-13
1.53664e-13
1.60403e-13
1.70554e-13
8.53695e-13
7.69388e-13
6.77275e-13
5.97729e-13
5.34724e-13
4.91639e-13
4.7023e-13
4.70768e-13
4.92713e-13
5.25201e-13
2.34963e-12
2.11285e-12
1.85102e-12
1.62194e-12
1.44278e-12
1.32247e-12
1.26497e-12
1.27003e-12
1.33178e-12
1.42085e-12
6.19741e-12
5.56933e-12
4.86173e-12
4.23538e-12
3.74707e-12
3.42222e-12
3.26951e-12
3.28445e-12
3.44444e-12
3.67077e-12
1.60828e-11
1.44588e-11
1.25927e-11
1.09215e-11
9.61543e-12
8.74681e-12
8.33506e-12
8.36059e-12
8.75303e-12
9.30659e-12
4.14702e-11
3.73037e-11
3.24417e-11
2.80418e-11
2.45837e-11
2.2267e-11
2.11384e-11
2.11354e-11
2.20614e-11
2.33947e-11
1.06622e-10
9.59538e-11
8.33612e-11
7.18657e-11
6.27618e-11
5.65894e-11
5.34671e-11
5.32219e-11
5.53389e-11
5.85212e-11
2.7368e-10
2.46365e-10
2.13856e-10
1.83953e-10
1.60068e-10
1.43637e-10
1.34975e-10
1.33637e-10
1.38324e-10
1.45854e-10
7.01657e-10
6.31639e-10
5.47937e-10
4.7035e-10
4.07819e-10
3.64124e-10
3.40115e-10
3.34703e-10
3.44696e-10
3.62341e-10
1.79694e-09
1.61766e-09
1.40237e-09
1.20138e-09
1.03792e-09
9.21854e-10
8.55484e-10
8.36249e-10
8.56449e-10
8.97344e-10
4.5975e-09
4.13927e-09
3.58558e-09
3.06555e-09
2.63883e-09
2.33088e-09
2.14801e-09
2.08439e-09
2.12179e-09
2.21528e-09
1.17533e-08
1.05818e-08
9.15909e-09
7.81545e-09
6.70288e-09
5.88686e-09
5.3846e-09
5.18352e-09
5.24126e-09
5.45118e-09
3.00235e-08
2.70287e-08
2.33769e-08
1.99105e-08
1.70137e-08
1.48541e-08
1.34787e-08
1.28623e-08
1.29093e-08
1.33694e-08
7.66335e-08
6.89815e-08
5.96226e-08
5.06964e-08
4.31661e-08
3.74576e-08
3.37006e-08
3.18521e-08
3.17039e-08
3.26775e-08
1.95432e-07
1.75883e-07
1.51975e-07
1.29044e-07
1.09504e-07
9.44342e-08
8.41933e-08
7.87369e-08
7.76389e-08
7.95911e-08
4.97836e-07
4.48024e-07
3.87193e-07
3.28454e-07
2.77862e-07
2.3813e-07
2.10263e-07
1.94344e-07
1.89599e-07
1.93159e-07
1.26645e-06
1.14029e-06
9.8607e-07
8.36174e-07
7.05538e-07
6.00943e-07
5.25217e-07
4.79178e-07
4.61773e-07
4.67033e-07
3.21678e-06
2.89918e-06
2.51014e-06
2.1296e-06
1.79351e-06
1.51869e-06
1.31314e-06
1.18083e-06
1.12185e-06
1.12488e-06
8.15487e-06
7.35978e-06
6.38609e-06
5.42686e-06
4.56656e-06
3.84631e-06
3.28901e-06
2.91045e-06
2.71935e-06
2.69848e-06
2.06172e-05
1.86436e-05
1.62332e-05
1.38384e-05
1.16515e-05
9.77071e-06
8.2617e-06
7.18194e-06
6.57946e-06
6.446e-06
5.19208e-05
4.70855e-05
4.12063e-05
3.53067e-05
2.98012e-05
2.49167e-05
2.08393e-05
1.77665e-05
1.58991e-05
1.53282e-05
0.00013002
0.000118395
0.000104349
9.00845e-05
7.64159e-05
6.3836e-05
5.28608e-05
4.41363e-05
3.8408e-05
3.62714e-05
0.000322985
0.000295786
0.000263193
0.000229606
0.000196352
0.000164373
0.000135039
0.000110357
9.28989e-05
8.53754e-05
0.000793266
0.00073206
0.000659513
0.000583401
0.000504875
0.000425241
0.000347828
0.000278491
0.000225551
0.000199836
0.00191766
0.00178759
0.00163569
0.00147265
0.00129531
0.00110332
0.000903524
0.000711489
0.000552067
0.000465395
0.00453631
0.00428318
0.00399347
0.00367293
0.00329876
0.00285893
0.0023625
0.0018449
0.0013716
0.00108079
0.0104246
0.00999843
0.00952559
0.00897816
0.00826967
0.00734117
0.00618384
0.00485787
0.00350196
0.00253387
0.0230697
0.0225334
0.0219755
0.0212658
0.0201553
0.0184434
0.016018
0.0129155
0.00928342
0.00612894
0.0486665
0.0484864
0.0484038
0.0480826
0.0469538
0.0445049
0.0403306
0.0342316
0.026686
0.0174989
5.01072e-14
4.53329e-14
4.00461e-14
3.568e-14
3.212e-14
2.96167e-14
2.8294e-14
2.81593e-14
2.94347e-14
3.13016e-14
2.8483e-13
2.57467e-13
2.27391e-13
2.01875e-13
1.81249e-13
1.66907e-13
1.59517e-13
1.59097e-13
1.66209e-13
1.76793e-13
8.91678e-13
8.03028e-13
7.05797e-13
6.21825e-13
5.55464e-13
5.10285e-13
4.8807e-13
4.89001e-13
5.1233e-13
5.46377e-13
2.46658e-12
2.21564e-12
1.93712e-12
1.69361e-12
1.50379e-12
1.37705e-12
1.31736e-12
1.32412e-12
1.39057e-12
1.48483e-12
6.53853e-12
5.86715e-12
5.10773e-12
4.43673e-12
3.9162e-12
3.57265e-12
3.41439e-12
3.43574e-12
3.61089e-12
3.85303e-12
1.70442e-11
1.52927e-11
1.32717e-11
1.14678e-11
1.00679e-11
9.14658e-12
8.72121e-12
8.7682e-12
9.20687e-12
9.80659e-12
4.41104e-11
3.95776e-11
3.42692e-11
2.94891e-11
2.5766e-11
2.3304e-11
2.21418e-11
2.22038e-11
2.32635e-11
2.47274e-11
1.13724e-10
1.0203e-10
8.8192e-11
7.56395e-11
6.58057e-11
5.92386e-11
5.60299e-11
5.59671e-11
5.84515e-11
6.19903e-11
2.92477e-10
2.62364e-10
2.2647e-10
1.93695e-10
1.67836e-10
1.50344e-10
1.41447e-10
1.40589e-10
1.46244e-10
1.54713e-10
7.50813e-10
6.73393e-10
5.80596e-10
4.95336e-10
4.27544e-10
3.81009e-10
3.56336e-10
3.52117e-10
3.6457e-10
3.84619e-10
1.92453e-09
1.72579e-09
1.48642e-09
1.26519e-09
1.08785e-09
9.64213e-10
8.95906e-10
8.79495e-10
9.05764e-10
9.52655e-10
4.92687e-09
4.41738e-09
3.80093e-09
3.22804e-09
2.76491e-09
2.43686e-09
2.24827e-09
2.191e-09
2.24298e-09
2.35109e-09
1.25989e-08
1.12941e-08
9.70902e-09
8.22818e-09
7.02062e-09
6.15128e-09
5.63213e-09
5.4445e-09
5.53644e-09
5.78129e-09
3.21851e-08
2.88463e-08
2.47772e-08
2.09565e-08
1.78129e-08
1.5512e-08
1.4087e-08
1.34968e-08
1.36219e-08
1.41637e-08
8.21383e-08
7.3604e-08
6.3179e-08
5.33414e-08
4.51713e-08
3.90891e-08
3.51877e-08
3.33828e-08
3.34076e-08
3.45689e-08
2.09401e-07
1.87622e-07
1.60986e-07
1.35716e-07
1.14521e-07
9.84643e-08
8.78068e-08
8.23981e-08
8.16692e-08
8.40415e-08
5.3319e-07
4.77786e-07
4.09956e-07
3.45233e-07
2.9037e-07
2.48035e-07
2.18979e-07
2.03012e-07
1.99013e-07
2.03487e-07
1.3557e-06
1.21537e-06
1.04334e-06
8.782e-07
7.36579e-07
6.25136e-07
5.46047e-07
4.9944e-07
4.8343e-07
4.90602e-07
3.44094e-06
3.08745e-06
2.65349e-06
2.2343e-06
1.87007e-06
1.57728e-06
1.36234e-06
1.22744e-06
1.17071e-06
1.17754e-06
8.7136e-06
7.82856e-06
6.74241e-06
5.68584e-06
4.75378e-06
3.98665e-06
3.40335e-06
3.01542e-06
2.8268e-06
2.81292e-06
2.19955e-05
1.97977e-05
1.71103e-05
1.44726e-05
1.2104e-05
1.01016e-05
8.52167e-06
7.4115e-06
6.80772e-06
6.68567e-06
5.52701e-05
4.98906e-05
4.33383e-05
3.68386e-05
3.0877e-05
2.56797e-05
2.14119e-05
1.82475e-05
1.63603e-05
1.58046e-05
0.000138003
0.000125102
0.000109439
9.37136e-05
7.89142e-05
6.55387e-05
5.40614e-05
4.50775e-05
3.92695e-05
3.71453e-05
0.000341546
0.000311426
0.000275035
0.000237964
0.000201954
0.000167984
0.000137354
0.00011198
9.42881e-05
8.67669e-05
0.000834947
0.000767265
0.000686071
0.000601867
0.000516776
0.000432254
0.000351587
0.000280518
0.000227055
0.000201401
0.00200681
0.00186301
0.00169213
0.00151092
0.0013184
0.00111474
0.000907011
0.000710942
0.00055082
0.000464875
0.00471426
0.00443346
0.00410396
0.00374434
0.00333644
0.00286966
0.00235449
0.00182816
0.00135579
0.00106965
0.010745
0.0102661
0.00971427
0.00908717
0.00830743
0.00731935
0.00611912
0.00477528
0.00342956
0.0024839
0.0235566
0.0229255
0.0222204
0.0213587
0.0201068
0.0182699
0.0157481
0.0126054
0.00901496
0.00595576
0.0491841
0.0488403
0.0485045
0.0479166
0.0465285
0.0438337
0.0394495
0.0332479
0.0257462
0.0168352
5.37279e-14
4.85259e-14
4.27746e-14
3.80231e-14
3.41656e-14
3.14695e-14
3.0064e-14
2.99521e-14
3.13554e-14
3.33902e-14
3.06565e-13
2.76633e-13
2.43713e-13
2.15819e-13
1.93379e-13
1.77876e-13
1.70003e-13
1.69756e-13
1.77664e-13
1.89236e-13
9.67572e-13
8.69689e-13
7.61975e-13
6.6929e-13
5.96441e-13
5.47214e-13
5.23444e-13
5.25245e-13
5.51641e-13
5.89218e-13
2.70193e-12
2.42015e-12
2.10671e-12
1.83452e-12
1.624e-12
1.48483e-12
1.42094e-12
1.4315e-12
1.50871e-12
1.61502e-12
7.22558e-12
6.45815e-12
5.5895e-12
4.82953e-12
4.24662e-12
3.86712e-12
3.69849e-12
3.73411e-12
3.94412e-12
4.22399e-12
1.89769e-11
1.6941e-11
1.45943e-11
1.25263e-11
1.09453e-11
9.9232e-12
9.47309e-12
9.56738e-12
1.01115e-11
1.08219e-11
4.94045e-11
4.40591e-11
3.78158e-11
3.22807e-11
2.80471e-11
2.53088e-11
2.4087e-11
2.42911e-11
2.56514e-11
2.74256e-11
1.27931e-10
1.13982e-10
9.75484e-11
8.29009e-11
7.16627e-11
6.43475e-11
6.09882e-11
6.13211e-11
6.46221e-11
6.89964e-11
3.30021e-10
2.93811e-10
2.50875e-10
2.12417e-10
1.82765e-10
1.63264e-10
1.53961e-10
1.5414e-10
1.61928e-10
1.72573e-10
8.48949e-10
7.55315e-10
6.43742e-10
5.4333e-10
4.6543e-10
4.1353e-10
3.877e-10
3.86067e-10
4.03919e-10
4.29483e-10
2.17901e-09
1.93764e-09
1.64889e-09
1.38776e-09
1.18374e-09
1.04582e-09
9.74106e-10
9.63857e-10
1.00343e-09
1.064e-09
5.58284e-09
4.9624e-09
4.21731e-09
3.54021e-09
3.00715e-09
2.64113e-09
2.44238e-09
2.39915e-09
2.48314e-09
2.62454e-09
1.42822e-08
1.26909e-08
1.07728e-08
9.02153e-09
7.63154e-09
6.66143e-09
6.11195e-09
5.95466e-09
6.12193e-09
6.44642e-09
3.64897e-08
3.24144e-08
2.74877e-08
2.29685e-08
1.93507e-08
1.67828e-08
1.52678e-08
1.47388e-08
1.50371e-08
1.57662e-08
9.31134e-08
8.26922e-08
7.00674e-08
5.84332e-08
4.90341e-08
4.22453e-08
3.80798e-08
3.63851e-08
3.67978e-08
3.83916e-08
2.37295e-07
2.10702e-07
1.78447e-07
1.48571e-07
1.24199e-07
1.06275e-07
9.48507e-08
8.95974e-08
8.97091e-08
9.30597e-08
6.03843e-07
5.36221e-07
4.54093e-07
3.77598e-07
3.14542e-07
2.67281e-07
2.36021e-07
2.20113e-07
2.17858e-07
2.24488e-07
1.53396e-06
1.36277e-06
1.15452e-06
9.59395e-07
7.96704e-07
6.72294e-07
5.86942e-07
5.39597e-07
5.26978e-07
5.38757e-07
3.88844e-06
3.45737e-06
2.93218e-06
2.43702e-06
2.01881e-06
1.692e-06
1.45945e-06
1.32039e-06
1.26958e-06
1.28585e-06
9.82907e-06
8.75069e-06
7.43654e-06
6.18868e-06
5.11901e-06
4.26298e-06
3.6308e-06
3.22657e-06
3.04627e-06
3.05063e-06
2.47489e-05
2.2077e-05
1.88241e-05
1.57086e-05
1.29916e-05
1.07584e-05
9.04453e-06
7.87923e-06
7.28034e-06
7.19074e-06
6.1981e-05
5.54545e-05
4.75179e-05
3.98387e-05
3.30032e-05
2.72119e-05
2.25824e-05
1.92472e-05
1.7336e-05
1.68312e-05
0.000154075
0.000138444
0.000119458
0.000100866
8.39034e-05
6.90166e-05
5.65803e-05
4.7101e-05
4.11598e-05
3.91016e-05
0.000379097
0.000342656
0.000298476
0.000254584
0.000213311
0.000175555
0.000142437
0.000115709
9.7574e-05
9.01262e-05
0.000919763
0.000837976
0.000739061
0.000639059
0.000541464
0.000447655
0.00036069
0.000286137
0.000231552
0.000206088
0.00218967
0.00201579
0.0018061
0.00158956
0.00136824
0.0011424
0.000919207
0.00071471
0.000552579
0.000467954
0.00508369
0.00474213
0.00433148
0.00389623
0.00342461
0.00290673
0.00235479
0.0018093
0.00133595
0.00105788
0.0114247
0.0108303
0.0101179
0.00933736
0.00842347
0.00732254
0.00603769
0.00465191
0.00331768
0.00241163
0.0246394
0.0238009
0.0227979
0.0216439
0.020126
0.0180528
0.0153428
0.0121088
0.00856926
0.00567069
0.05051
0.0498113
0.0489615
0.047857
0.0459769
0.042815
0.0380201
0.0315838
0.0241272
0.0157205
5.93857e-14
5.34704e-14
4.70072e-14
4.16799e-14
3.73758e-14
3.43878e-14
3.28529e-14
3.27688e-14
3.43739e-14
3.67141e-14
3.39562e-13
3.05202e-13
2.67962e-13
2.36605e-13
2.1154e-13
1.94344e-13
1.85748e-13
1.85743e-13
1.94934e-13
2.08426e-13
1.08059e-12
9.66066e-13
8.42163e-13
7.37051e-13
6.55144e-13
6.00226e-13
5.74189e-13
5.77281e-13
6.08903e-13
6.5385e-13
3.04689e-12
2.70987e-12
2.34218e-12
2.02968e-12
1.79101e-12
1.63483e-12
1.56494e-12
1.58122e-12
1.67699e-12
1.80798e-12
8.21794e-12
7.28136e-12
6.24551e-12
5.36208e-12
4.69584e-12
4.26809e-12
4.08497e-12
4.14193e-12
4.41088e-12
4.76478e-12
2.17301e-11
1.92062e-11
1.63693e-11
1.39386e-11
1.21186e-11
1.09636e-11
1.04799e-11
1.06442e-11
1.13616e-11
1.228e-11
5.68598e-11
5.01636e-11
4.25319e-11
3.59668e-11
3.10648e-11
2.79658e-11
2.66656e-11
2.70783e-11
2.89204e-11
3.12542e-11
1.47785e-10
1.30162e-10
1.0992e-10
9.24283e-11
7.93589e-11
7.10746e-11
6.75231e-11
6.84336e-11
7.3018e-11
7.88503e-11
3.82213e-10
3.36207e-10
2.83032e-10
2.36887e-10
2.02301e-10
1.80211e-10
1.70401e-10
1.72091e-10
1.83189e-10
1.97543e-10