/*--------------------------------*- C++ -*----------------------------------*\
| =========                 |                                                 |
| \\      /  F ield         | OpenFOAM: The Open Source CFD Toolbox           |
|  \\    /   O peration     | Version:  2112                                  |
|   \\  /    A nd           | Website:  www.openfoam.com                      |
|    \\/     M anipulation  |                                                 |
\*---------------------------------------------------------------------------*/
FoamFile
{
    version     2.0;
    format      ascii;
    arch        "LSB;label=32;scalar=64";
    class       volScalarField;
    location    "55";
    object      T;
}
// * * * * * * * * * * * * * * * * * * * * * * * * * * * * * * * * * * * * * //

dimensions      [0 0 0 1 0 0 0];

internalField   nonuniform List<scalar> 
10000
(
0.998128
1.00296
0.998195
0.998943
0.999079
0.998989
0.998945
0.998192
1.00291
0.99816
0.990582
0.99705
0.992635
0.993929
0.994205
0.99413
0.993929
0.992615
0.996858
0.990711
0.99178
0.996164
0.993165
0.993959
0.994189
0.994251
0.993982
0.993194
0.996058
0.991809
0.994612
0.997364
0.995491
0.995744
0.995827
0.995918
0.995792
0.995564
0.997475
0.99456
0.995883
0.997766
0.996807
0.996904
0.996925
0.996976
0.996945
0.996852
0.99794
0.99588
0.996444
0.997722
0.997267
0.997358
0.997376
0.997406
0.99739
0.997291
0.997832
0.996444
0.996946
0.99778
0.997541
0.997636
0.997659
0.997677
0.997655
0.997555
0.997813
0.996922
0.997341
0.997879
0.997767
0.997854
0.997885
0.99789
0.997861
0.997768
0.997889
0.997324
0.997595
0.997949
0.997905
0.997986
0.998019
0.998018
0.997985
0.9979
0.997954
0.997581
0.997755
0.997995
0.997988
0.998056
0.998087
0.998084
0.998052
0.997978
0.997999
0.997742
0.997863
0.998022
0.99802
0.998088
0.998101
0.998113
0.998087
0.998006
0.998047
0.997813
0.99794
0.998044
0.998032
0.998105
0.998098
0.998127
0.998107
0.998014
0.998089
0.997839
0.997993
0.998075
0.998069
0.998119
0.998119
0.998133
0.998113
0.998043
0.998088
0.997922
0.998026
0.998096
0.998091
0.998127
0.998132
0.998138
0.998117
0.998063
0.998078
0.997989
0.998019
0.998141
0.998124
0.998136
0.998156
0.998123
0.998094
0.998083
0.998073
0.998033
0.997958
0.998175
0.998127
0.998134
0.998164
0.998087
0.998053
0.998066
0.998063
0.998007
0.997975
0.998128
0.998083
0.998119
0.998132
0.998093
0.998064
0.998012
0.998005
0.997981
0.998051
0.998053
0.998063
0.998083
0.998072
0.998086
0.998057
0.997971
0.997884
0.998024
0.997957
0.997988
0.998023
0.998007
0.997987
0.997995
0.997951
0.997893
0.997741
0.997931
0.997737
0.997927
0.997972
0.997918
0.997938
0.997884
0.997819
0.99779
0.99752
0.997826
0.997603
0.997812
0.997878
0.99785
0.997877
0.997811
0.997726
0.997632
0.997259
0.997718
0.997356
0.997587
0.997676
0.997718
0.997725
0.997694
0.997574
0.997352
0.996881
0.997397
0.996727
0.997202
0.99732
0.997413
0.997456
0.997434
0.997281
0.996946
0.996202
0.996834
0.995637
0.996471
0.996664
0.996854
0.996986
0.997007
0.996843
0.996373
0.995138
0.995924
0.993747
0.995089
0.995449
0.99582
0.996117
0.996269
0.996167
0.995573
0.993525
0.994348
0.990365
0.992449
0.993131
0.993809
0.994411
0.994865
0.995023
0.994509
0.991279
0.991675
0.984197
0.987345
0.98859
0.98977
0.990904
0.99195
0.99277
0.992937
0.98821
0.986542
0.97298
0.977579
0.979676
0.9816
0.983577
0.985705
0.988041
0.990825
0.987149
0.981086
0.952966
0.959342
0.962516
0.965315
0.968353
0.971996
0.976552
0.984246
0.987416
0.975684
0.918697
0.926875
0.930912
0.934275
0.938242
0.943775
0.952402
0.971364
1.02273
1.05718
1.00288
1.0083
1.00333
1.00423
1.00442
1.00441
1.00423
1.00336
1.00821
1.0029
0.996786
1.00553
1.00108
1.00251
1.0029
1.00294
1.00251
1.0012
1.00547
0.99683
0.996163
1.00292
1.00037
1.001
1.00123
1.0012
1.00098
1.00045
1.00304
0.996076
0.99749
1.00149
1.00004
1.00007
1.00009
0.999996
1.00002
0.999968
1.00142
0.997542
0.997937
1.00013
0.999302
0.999202
0.999162
0.999099
0.999162
0.99921
1
0.998017
0.997831
0.999144
0.998759
0.998672
0.998618
0.998589
0.998652
0.998708
0.99912
0.997892
0.997785
0.998596
0.998479
0.998421
0.998376
0.998366
0.998414
0.998457
0.998673
0.997852
0.997858
0.998386
0.998341
0.99831
0.998282
0.998278
0.998308
0.998336
0.998455
0.997913
0.997931
0.998294
0.99827
0.998257
0.998245
0.998243
0.998257
0.998273
0.998338
0.997972
0.997984
0.998241
0.998229
0.998226
0.998228
0.998225
0.998227
0.998233
0.998267
0.998015
0.998028
0.998213
0.998242
0.998219
0.998253
0.998223
0.998215
0.998242
0.998242
0.998077
0.998073
0.998206
0.998282
0.998222
0.998299
0.998226
0.998214
0.99828
0.998241
0.998141
0.998098
0.998192
0.998248
0.998211
0.998264
0.998216
0.998206
0.998239
0.998208
0.998143
0.998102
0.998182
0.998213
0.998202
0.998223
0.998199
0.998189
0.998191
0.998167
0.998134
0.998119
0.998186
0.998154
0.99818
0.99816
0.998202
0.998195
0.998122
0.998118
0.998122
0.998104
0.998219
0.99812
0.998162
0.998095
0.99823
0.998219
0.998073
0.998079
0.998124
0.99801
0.998251
0.998178
0.998144
0.99809
0.998147
0.998123
0.998084
0.998023
0.998109
0.997952
0.998141
0.998145
0.998104
0.998092
0.998018
0.997976
0.997989
0.997893
0.998019
0.997944
0.998067
0.998108
0.998098
0.998109
0.998002
0.997948
0.997881
0.997777
0.997957
0.997863
0.99809
0.998035
0.998078
0.998003
0.997985
0.997911
0.997703
0.997594
0.997852
0.997572
0.997923
0.997866
0.997896
0.997798
0.997796
0.997679
0.9974
0.99717
0.997637
0.99711
0.997655
0.997691
0.997633
0.997607
0.99752
0.997361
0.997071
0.9966
0.997367
0.996509
0.997356
0.997415
0.997347
0.997347
0.99725
0.997047
0.996633
0.995894
0.996967
0.995493
0.996791
0.996879
0.996848
0.996888
0.996833
0.996599
0.995997
0.994831
0.996265
0.993698
0.995645
0.995822
0.995881
0.996028
0.996089
0.99589
0.995096
0.993211
0.994955
0.99048
0.993338
0.993711
0.993959
0.994342
0.994675
0.994705
0.993885
0.99094
0.992614
0.984594
0.988731
0.989467
0.990052
0.990874
0.991755
0.99243
0.992148
0.987737
0.987742
0.973823
0.979646
0.980955
0.982056
0.98359
0.985472
0.987582
0.989694
0.986583
0.982775
0.954376
0.962217
0.964239
0.96592
0.968345
0.971623
0.97575
0.98325
0.984775
0.977014
0.920518
0.930338
0.932809
0.934694
0.937805
0.942749
0.950535
0.970568
1.02339
1.04891
0.998207
1.00337
0.998075
0.998867
0.999053
0.99907
0.998844
0.998073
1.00337
0.998191
0.992632
1.00115
0.996224
0.997544
0.997988
0.998061
0.997574
0.996349
1.00122
0.992603
0.993182
1.00039
0.997464
0.997966
0.998288
0.998321
0.998025
0.99761
1.00043
0.993201
0.995503
1.00002
0.998682
0.998686
0.998798
0.998799
0.998717
0.998708
0.999912
0.995615
0.99681
0.999264
0.998797
0.998771
0.998789
0.998784
0.99878
0.998777
0.999155
0.996924
0.997272
0.998732
0.998666
0.998671
0.998654
0.998648
0.99867
0.998631
0.998673
0.997361
0.997553
0.998468
0.998542
0.99857
0.998554
0.998548
0.998563
0.998506
0.998441
0.997609
0.997779
0.998341
0.998435
0.998474
0.998471
0.998467
0.998465
0.998408
0.998329
0.997806
0.997914
0.998272
0.998355
0.998397
0.998404
0.998401
0.998389
0.998338
0.998268
0.997933
0.997988
0.998228
0.998297
0.998336
0.99835
0.998349
0.998332
0.998287
0.998228
0.998003
0.998037
0.998201
0.99826
0.99829
0.998311
0.998307
0.998289
0.998253
0.998202
0.998048
0.998073
0.998186
0.998237
0.998257
0.998283
0.998275
0.998257
0.99823
0.998185
0.998084
0.998093
0.998177
0.99822
0.998235
0.998258
0.998249
0.998233
0.998209
0.998168
0.998109
0.998096
0.998174
0.99821
0.998222
0.998235
0.998226
0.99821
0.998189
0.998152
0.998131
0.998088
0.998171
0.998193
0.998208
0.998209
0.998202
0.998185
0.998157
0.998129
0.998142
0.99807
0.998173
0.998175
0.99819
0.99818
0.998181
0.998159
0.998121
0.998094
0.998146
0.998036
0.99816
0.998156
0.998158
0.998149
0.998149
0.99812
0.998078
0.998038
0.998141
0.997971
0.998113
0.998124
0.998111
0.998106
0.998094
0.998061
0.99801
0.997949
0.99812
0.997869
0.998066
0.998086
0.998063
0.998051
0.998025
0.997985
0.997914
0.997833
0.998096
0.997722
0.998013
0.99803
0.998005
0.997975
0.997944
0.997885
0.997777
0.997662
0.998058
0.997484
0.997913
0.997938
0.997905
0.997868
0.997828
0.997741
0.997579
0.997391
0.997985
0.997107
0.997743
0.997783
0.997736
0.997706
0.997654
0.99753
0.997296
0.996978
0.997852
0.996496
0.997438
0.997509
0.997456
0.99744
0.997387
0.997224
0.99688
0.996347
0.997584
0.995461
0.996876
0.997002
0.996969
0.99699
0.996966
0.996774
0.99628
0.99538
0.997044
0.993688
0.995805
0.996035
0.996067
0.996179
0.996252
0.996086
0.995433
0.993902
0.995935
0.990576
0.993685
0.994115
0.994293
0.994599
0.994909
0.994941
0.99427
0.991784
0.993818
0.984956
0.98944
0.990212
0.990655
0.991318
0.99211
0.992703
0.99253
0.988771
0.989225
0.974671
0.980955
0.982238
0.983079
0.984317
0.985955
0.987814
0.98988
0.987662
0.985012
0.955918
0.964369
0.966226
0.967457
0.96937
0.972126
0.975762
0.982874
0.985464
0.979941
0.922659
0.933286
0.935359
0.936505
0.93878
0.942791
0.949632
0.968411
1.02318
1.05387
0.998956
1.00425
0.998854
0.999669
0.999874
0.999876
0.999649
0.998835
1.00425
0.998936
0.993942
1.00252
0.997519
0.998789
0.999232
0.999259
0.998793
0.997581
1.00256
0.993878
0.993992
1.00098
0.997964
0.998335
0.998627
0.998651
0.998365
0.998064
1.00097
0.993979
0.995756
1.00006
0.9987
0.998595
0.998677
0.998689
0.998623
0.998735
0.99995
0.995868
0.996912
0.999195
0.998779
0.998702
0.998698
0.9987
0.998717
0.998776
0.999096
0.997044
0.997374
0.998662
0.998671
0.998681
0.998656
0.998657
0.998689
0.998655
0.998605
0.997481
0.997645
0.998413
0.998568
0.99863
0.99862
0.99862
0.998632
0.998548
0.998388
0.997724
0.997854
0.998304
0.998471
0.998552
0.998561
0.99856
0.998551
0.998456
0.998297
0.99791
0.997981
0.998256
0.998395
0.998474
0.998494
0.998494
0.998472
0.998385
0.998253
0.998023
0.99805
0.998229
0.99834
0.998409
0.998433
0.998433
0.998406
0.998332
0.998227
0.998086
0.998094
0.998211
0.998302
0.998356
0.998383
0.99838
0.998353
0.998295
0.998213
0.998123
0.998122
0.998201
0.998274
0.998315
0.99834
0.998336
0.998312
0.998267
0.998203
0.998149
0.998133
0.998193
0.99825
0.998281
0.998302
0.998298
0.998277
0.99824
0.998189
0.998167
0.998129
0.998187
0.998229
0.998253
0.998269
0.998264
0.998246
0.998214
0.998172
0.998178
0.998112
0.998181
0.998208
0.998226
0.998236
0.998233
0.998215
0.998184
0.998149
0.998182
0.998084
0.99817
0.998187
0.9982
0.998203
0.998203
0.998184
0.99815
0.998117
0.998182
0.998042
0.998148
0.998166
0.99817
0.998168
0.998165
0.998142
0.998107
0.998069
0.998179
0.997977
0.99811
0.998135
0.998129
0.998125
0.998114
0.998086
0.998043
0.997995
0.998168
0.997881
0.998066
0.998094
0.998078
0.99807
0.998052
0.998015
0.997955
0.997891
0.998154
0.997732
0.998004
0.998032
0.99801
0.997993
0.997969
0.997918
0.997828
0.997736
0.998128
0.997484
0.997899
0.997933
0.997904
0.997882
0.997853
0.997778
0.997643
0.997489
0.998071
0.997093
0.997731
0.997778
0.997741
0.997719
0.997683
0.997577
0.997375
0.997108
0.997957
0.99649
0.997434
0.99752
0.997478
0.997466
0.997431
0.997289
0.996988
0.996524
0.99772
0.995495
0.996897
0.997051
0.997021
0.997041
0.997035
0.996865
0.996425
0.995617
0.997222
0.9938
0.9959
0.99615
0.996173
0.996271
0.996354
0.996202
0.995609
0.994203
0.996159
0.990836
0.993919
0.994352
0.994495
0.994756
0.995053
0.995077
0.994461
0.992143
0.994094
0.985471
0.989924
0.990665
0.991019
0.991576
0.992301
0.992828
0.99268
0.989229
0.98969
0.975588
0.98184
0.983025
0.98368
0.984705
0.986169
0.987868
0.989926
0.988043
0.985702
0.957338
0.965762
0.967412
0.968304
0.969821
0.972184
0.975431
0.982119
0.98531
0.980917
0.924381
0.935027
0.936727
0.937323
0.938947
0.942244
0.948336
0.966421
1.02214
1.05503
0.998948
1.00449
0.999069
0.999827
1.00004
1.00004
0.999814
0.999057
1.0045
0.998933
0.994058
1.00301
0.998052
0.999243
0.999664
0.999675
0.999247
0.998105
1.00306
0.994014
0.994331
1.00105
0.998284
0.998647
0.998934
0.998949
0.998672
0.998376
1.00106
0.994326
0.995939
0.999946
0.998776
0.998653
0.998727
0.99874
0.99868
0.998818
0.999866
0.996042
0.996975
0.999096
0.99877
0.998678
0.99866
0.998666
0.998692
0.998772
0.999013
0.997105
0.997401
0.99859
0.99864
0.998647
0.998612
0.998616
0.998656
0.998627
0.998539
0.997519
0.997669
0.998365
0.998544
0.998616
0.998602
0.998603
0.99862
0.99853
0.99834
0.99776
0.997879
0.998278
0.998462
0.998559
0.998569
0.998569
0.99856
0.998454
0.998268
0.997947
0.998006
0.998252
0.998398
0.998494
0.998518
0.998517
0.998494
0.998394
0.99824
0.998062
0.99808
0.998235
0.998353
0.998435
0.998464
0.998464
0.998433
0.998348
0.998227
0.998122
0.998125
0.998216
0.998321
0.998383
0.998412
0.998411
0.99838
0.998312
0.998219
0.998156
0.998147
0.998208
0.998293
0.99834
0.998365
0.998363
0.998336
0.998282
0.99821
0.99818
0.998153
0.998199
0.998265
0.998302
0.998323
0.998322
0.998298
0.998255
0.998198
0.998192
0.998143
0.998191
0.998236
0.998268
0.998286
0.998284
0.998263
0.998227
0.998182
0.998198
0.99812
0.998191
0.99821
0.998238
0.998251
0.998249
0.99823
0.998197
0.998159
0.9982
0.99809
0.998185
0.998193
0.99821
0.998217
0.998214
0.998195
0.998163
0.998128
0.998199
0.998053
0.998154
0.998177
0.998179
0.998179
0.998174
0.998153
0.998119
0.998083
0.998197
0.997993
0.998111
0.998149
0.998138
0.998135
0.998126
0.998099
0.998057
0.998014
0.998189
0.997893
0.998068
0.998105
0.998087
0.998079
0.998064
0.998029
0.997972
0.997913
0.998177
0.99774
0.998004
0.998038
0.998016
0.998002
0.997982
0.997933
0.99785
0.997761
0.998153
0.997482
0.997927
0.997941
0.997911
0.997893
0.997866
0.997796
0.99767
0.997523
0.998101
0.99708
0.997804
0.997793
0.997752
0.997732
0.9977
0.997599
0.99741
0.997156
0.997994
0.996516
0.997468
0.997539
0.997495
0.997482
0.997453
0.997318
0.997029
0.996584
0.997767
0.995559
0.996909
0.997082
0.99705
0.997066
0.997064
0.996899
0.996475
0.995687
0.99728
0.993891
0.995992
0.996211
0.996223
0.99631
0.996392
0.996241
0.995665
0.994284
0.996227
0.991011
0.994074
0.994469
0.994588
0.994819
0.995104
0.995116
0.994513
0.992231
0.994174
0.985786
0.99019
0.990881
0.991177
0.991675
0.992362
0.992851
0.992706
0.989327
0.989811
0.976126
0.982282
0.983388
0.983935
0.984841
0.986211
0.987816
0.989842
0.988077
0.985872
0.958132
0.966428
0.967946
0.96864
0.969941
0.972111
0.975184
0.981743
0.985053
0.981072
0.92527
0.935837
0.937287
0.93756
0.938833
0.941781
0.947546
0.965184
1.02099
1.05403
0.999089
1.00442
0.999043
0.999864
1.00008
1.00008
0.99985
0.99903
1.00443
0.999071
0.994204
1.00289
0.997967
0.999219
0.999662
0.999668
0.999221
0.998021
1.00295
0.99414
0.994174
1.00125
0.9983
0.99863
0.998914
0.998926
0.998653
0.998387
1.00126
0.994156
0.995818
1.00012
0.998816
0.998685
0.998755
0.998767
0.998708
0.998851
1.00003
0.995922
0.996928
0.999175
0.998793
0.998699
0.998679
0.998686
0.998711
0.998793
0.999089
0.997063
0.997381
0.998623
0.998652
0.998656
0.99862
0.998624
0.998664
0.998638
0.998566
0.997505
0.997659
0.998381
0.998549
0.99862
0.998604
0.998606
0.998623
0.998533
0.998348
0.997757
0.997857
0.998316
0.998466
0.998561
0.99857
0.998571
0.998561
0.998454
0.99827
0.997948
0.997969
0.99833
0.998405
0.998496
0.998519
0.998518
0.998493
0.998393
0.998241
0.998063
0.998077
0.998257
0.998357
0.998436
0.998465
0.998463
0.998433
0.998347
0.998227
0.998123
0.998151
0.998166
0.998319
0.998383
0.998411
0.998411
0.99838
0.99831
0.998219
0.998158
0.998161
0.998168
0.998289
0.998339
0.998364
0.998363
0.998336
0.99828
0.99821
0.998179
0.99816
0.998181
0.99826
0.998301
0.998322
0.998321
0.998298
0.998254
0.998198
0.998191
0.998134
0.998216
0.998236
0.998269
0.998285
0.998284
0.998263
0.998227
0.998182
0.998198
0.998076
0.998292
0.998221
0.998242
0.998253
0.998249
0.99823
0.998198
0.99816
0.9982
0.998051
0.998277
0.998205
0.998214
0.998219
0.998214
0.998195
0.998164
0.998129
0.9982
0.998066
0.998125
0.998179
0.998179
0.998181
0.998175
0.998154
0.998119
0.998083
0.998199
0.998032
0.998017
0.998141
0.998136
0.998135
0.998126
0.998101
0.998059
0.998015
0.998191
0.997918
0.998001
0.998093
0.998084
0.998078
0.998065
0.99803
0.997974
0.997914
0.998178
0.997748
0.997976
0.998029
0.998012
0.998001
0.997982
0.997933
0.997851
0.997761
0.998153
0.997494
0.997894
0.997936
0.997909
0.997892
0.997866
0.997796
0.997672
0.997525
0.998104
0.997113
0.997736
0.997791
0.99775
0.997733
0.997701
0.997601
0.997413
0.99716
0.997998
0.996526
0.997446
0.997542
0.997495
0.997484
0.997456
0.99732
0.997032
0.996588
0.997768
0.995554
0.996934
0.997088
0.997053
0.997068
0.997066
0.996902
0.996478
0.995691
0.99728
0.993903
0.995976
0.996218
0.996229
0.996313
0.996395
0.996245
0.99567
0.994288
0.996227
0.991019
0.994071
0.994482
0.994593
0.994825
0.995111
0.995122
0.99452
0.992243
0.994188
0.985799
0.990216
0.990902
0.99119
0.991688
0.992375
0.992865
0.992718
0.989326
0.989804
0.976143
0.982351
0.983433
0.983965
0.984867
0.986231
0.987818
0.989807
0.988117
0.986078
0.958174
0.966557
0.968027
0.968707
0.970007
0.972181
0.975275
0.981948
0.985102
0.980628
0.925382
0.936009
0.937434
0.937698
0.938969
0.941922
0.947704
0.965324
1.02139
1.0553
0.99893
1.00425
0.99886
0.999652
0.999853
0.99985
0.999636
0.998842
1.00425
0.998911
0.993891
1.00254
0.997556
0.998792
0.999227
0.99923
0.998789
0.997599
1.00259
0.993825
0.993948
1.00101
0.998005
0.998354
0.99864
0.99865
0.998372
0.998086
1.00101
0.993922
0.995778
1.00004
0.998703
0.99861
0.998692
0.998702
0.998629
0.998734
0.999947
0.995877
0.996939
0.999175
0.998769
0.998706
0.998701
0.998706
0.998716
0.998767
0.999082
0.997071
0.997383
0.998657
0.998663
0.998683
0.998659
0.998663
0.998688
0.998648
0.998598
0.997502
0.997643
0.998419
0.998559
0.99863
0.998622
0.998623
0.998632
0.99854
0.998383
0.997739
0.997841
0.998317
0.998461
0.99855
0.998561
0.998561
0.998549
0.998448
0.998293
0.997917
0.997967
0.998274
0.998388
0.998472
0.998494
0.998493
0.998469
0.998379
0.998252
0.998026
0.998046
0.998241
0.998339
0.998408
0.998434
0.998432
0.998405
0.998328
0.998229
0.998089
0.998096
0.998213
0.998305
0.998358
0.998382
0.99838
0.998353
0.998291
0.998214
0.998129
0.998128
0.998201
0.998277
0.998317
0.998338
0.998337
0.998313
0.998264
0.998203
0.998154
0.998139
0.998192
0.99825
0.998283
0.9983
0.9983
0.998278
0.998239
0.99819
0.99817
0.998124
0.998188
0.998224
0.998253
0.998267
0.998266
0.998247
0.998213
0.998174
0.99818
0.998097
0.998198
0.998203
0.998227
0.998238
0.998234
0.998216
0.998186
0.998151
0.998184
0.998072
0.998189
0.998188
0.998202
0.998207
0.998202
0.998183
0.998153
0.998118
0.998184
0.998047
0.99815
0.998173
0.998172
0.998172
0.998164
0.998142
0.998107
0.99807
0.998182
0.998
0.998104
0.998144
0.998133
0.998128
0.998117
0.998089
0.998045
0.998
0.998175
0.997882
0.99809
0.9981
0.998081
0.998072
0.998055
0.998018
0.997958
0.997895
0.998157
0.997698
0.998079
0.99804
0.998013
0.997996
0.997971
0.997919
0.997832
0.997736
0.998125
0.997478
0.997924
0.997942
0.997907
0.997886
0.997854
0.997779
0.997649
0.997492
0.99807
0.99713
0.997677
0.997788
0.997744
0.997723
0.997686
0.997581
0.997383
0.997118
0.997959
0.996526
0.99739
0.997528
0.997483
0.99747
0.997436
0.997294
0.996994
0.996535
0.997724
0.995523
0.996882
0.997058
0.997029
0.997047
0.997042
0.996871
0.996433
0.995627
0.997232
0.993828
0.995898
0.996162
0.996185
0.996281
0.996363
0.996212
0.995624
0.994216
0.996171
0.990869
0.993936
0.994376
0.994517
0.994774
0.99507
0.995092
0.994482
0.992166
0.99411
0.98553
0.989971
0.990711
0.99106
0.991614
0.992335
0.992858
0.992713
0.989258
0.9897
0.975696
0.981943
0.98312
0.983769
0.984785
0.986233
0.9879
0.989969
0.98809
0.98574
0.957543
0.965974
0.967609
0.968495
0.969999
0.972341
0.975541
0.982252
0.985355
0.980825
0.924758
0.935425
0.937117
0.937709
0.939322
0.9426
0.948637
0.966641
1.0223
1.05493
0.998197
1.00336
0.998081
0.998856
0.99905
0.999048
0.998842
0.998068
1.00337
0.998178
0.992608
1.00118
0.996332
0.997575
0.998009
0.998018
0.997591
0.996403
1.00127
0.992555
0.993175
1.00045
0.997588
0.998041
0.998353
0.998369
0.99808
0.997705
1.0005
0.993161
0.99554
0.999988
0.998693
0.998711
0.998821
0.99883
0.998728
0.998726
0.999884
0.995632
0.996825
0.999217
0.998764
0.998759
0.998776
0.99878
0.998762
0.998755
0.999103
0.996949
0.99727
0.998706
0.998623
0.998648
0.998634
0.998635
0.998646
0.998596
0.998627
0.997377
0.997543
0.998464
0.998501
0.998547
0.998535
0.998534
0.998541
0.998468
0.998406
0.997617
0.997747
0.998339
0.998404
0.998456
0.998456
0.998454
0.998449
0.998377
0.998307
0.997808
0.997883
0.998278
0.99834
0.998386
0.998395
0.998393
0.998379
0.998318
0.998257
0.997929
0.997976
0.998246
0.998295
0.998336
0.99835
0.998347
0.998329
0.998278
0.998227
0.998006
0.998037
0.998212
0.998265
0.998298
0.998313
0.998312
0.998292
0.998251
0.998208
0.998061
0.998079
0.998193
0.998247
0.998271
0.998284
0.998282
0.998264
0.998231
0.998193
0.998101
0.9981
0.99818
0.998228
0.998247
0.998259
0.998257
0.998241
0.998211
0.998176
0.998127
0.998102
0.998178
0.998206
0.998226
0.998236
0.998233
0.998217
0.99819
0.998157
0.998144
0.998095
0.998192
0.998189
0.998206
0.998213
0.998208
0.998191
0.998163
0.998131
0.998154
0.998071
0.998189
0.998177
0.998186
0.998187
0.998179
0.998159
0.99813
0.998095
0.998156
0.998033
0.998155
0.998166
0.998161
0.998156
0.998144
0.998119
0.998083
0.998042
0.998148
0.997983
0.998108
0.99814
0.998123
0.998114
0.998097
0.998065
0.998016
0.997961
0.998132
0.997886
0.998073
0.998093
0.998072
0.998058
0.998034
0.997991
0.99792
0.997842
0.998104
0.997727
0.998034
0.998031
0.998003
0.997983
0.997948
0.997885
0.997782
0.997664
0.998059
0.997484
0.997924
0.997941
0.997898
0.997871
0.997826
0.997737
0.997583
0.997394
0.997982
0.997111
0.997733
0.99779
0.997732
0.997702
0.99765
0.997526
0.997295
0.996983
0.997842
0.996507
0.997428
0.997518
0.99746
0.99744
0.997388
0.997225
0.996882
0.996356
0.997576
0.995478
0.996872
0.997016
0.996981
0.996998
0.996976
0.996784
0.996293
0.995393
0.997053
0.993716
0.995812
0.996057
0.99609
0.996197
0.99627
0.996105
0.995457
0.993922
0.995963
0.990622
0.993718
0.994155
0.994332
0.994633
0.994942
0.994972
0.994307
0.991823
0.993878
0.985042
0.989516
0.990288
0.990726
0.991383
0.99217
0.99276
0.992591
0.988826
0.98933
0.97483
0.981113
0.982391
0.983222
0.984447
0.986068
0.987898
0.98998
0.987783
0.985261
0.956225
0.96468
0.966531
0.967752
0.969649
0.972383
0.975993
0.98319
0.985655
0.980077
0.923228
0.933875
0.935946
0.937088
0.939347
0.943339
0.950087
0.968981
1.02383
1.05416
1.0029
1.0082
1.00335
1.00423
1.00441
1.00441
1.00424
1.00337
1.00823
1.00288
0.996835
1.00544
1.00118
1.00253
1.00292
1.00293
1.00256
1.00126
1.00556
0.996773
0.996031
1.00309
1.00042
1.00099
1.00128
1.00128
1.00101
1.0005
1.0031
0.996
0.997421
1.00155
0.999924
0.999978
1.00007
1.00006
0.999954
0.999889
1.0013
0.997522
0.997927
1.00005
0.999154
0.99911
0.999111
0.999105
0.999086
0.999106
0.999885
0.998041
0.99786
0.999103
0.998667
0.998612
0.99858
0.998577
0.998599
0.998627
0.999058
0.997939
0.997802
0.99872
0.998442
0.998395
0.998358
0.998355
0.998385
0.998406
0.99865
0.997895
0.997908
0.998473
0.99833
0.998302
0.998275
0.998272
0.998295
0.998306
0.998449
0.997942
0.998018
0.998337
0.998275
0.998258
0.998244
0.998242
0.998252
0.998256
0.998338
0.99799
0.997989
0.99832
0.998243
0.998235
0.998231
0.99823
0.998229
0.998227
0.998272
0.998026
0.998002
0.998214
0.998217
0.99822
0.998223
0.998221
0.998215
0.998209
0.998231
0.99806
0.998079
0.998119
0.998204
0.998208
0.998214
0.998213
0.998206
0.998194
0.998201
0.998087
0.998109
0.998128
0.998193
0.998198
0.998205
0.998204
0.998194
0.998179
0.998172
0.998105
0.998118
0.998201
0.998184
0.99819
0.998195
0.998191
0.998179
0.998159
0.998142
0.998116
0.998095
0.998313
0.998181
0.998185
0.998184
0.998175
0.998159
0.998135
0.998107
0.998116
0.998033
0.998284
0.99817
0.998172
0.998166
0.998153
0.998131
0.998101
0.998062
0.998103
0.998021
0.998105
0.998152
0.998146
0.998137
0.99812
0.998092
0.998049
0.997995
0.998079
0.998027
0.998004
0.998125
0.998107
0.998095
0.998073
0.998036
0.997975
0.997898
0.998037
0.997951
0.998055
0.99809
0.998061
0.998042
0.99801
0.997956
0.997868
0.997754
0.997967
0.997796
0.99811
0.998038
0.997998
0.997969
0.997922
0.997842
0.997712
0.997538
0.997859
0.997551
0.997952
0.997937
0.997891
0.997855
0.997793
0.997681
0.997485
0.997212
0.997695
0.997183
0.997681
0.997768
0.997713
0.997678
0.997605
0.997451
0.997159
0.996723
0.997433
0.996591
0.997378
0.997475
0.997419
0.997399
0.997325
0.997124
0.996695
0.995986
0.997005
0.995571
0.996812
0.996926
0.996902
0.996928
0.996883
0.996649
0.996041
0.994882
0.996273
0.99378
0.995673
0.995867
0.995931
0.996067
0.996128
0.995928
0.995137
0.993236
0.99493
0.990574
0.993394
0.993773
0.994018
0.994391
0.994719
0.994742
0.993929
0.990953
0.992558
0.984741
0.988838
0.989575
0.990147
0.990958
0.991833
0.992483
0.99221
0.987724
0.987638
0.974073
0.97985
0.981158
0.982244
0.983762
0.985615
0.987664
0.989816
0.986605
0.982754
0.954827
0.962614
0.96463
0.966304
0.968703
0.97193
0.97602
0.98362
0.984609
0.976487
0.9213
0.931074
0.933545
0.935433
0.938504
0.9434
0.95104
0.971333
1.02334
1.04904
0.998171
1.0029
0.998205
0.998933
0.999073
0.999069
0.99892
0.998186
1.00289
0.998174
0.990751
0.996842
0.992608
0.993859
0.994128
0.994119
0.99383
0.992567
0.996779
0.990742
0.991771
0.996079
0.993171
0.993917
0.994101
0.994096
0.993902
0.993159
0.996
0.991784
0.994463
0.997568
0.995574
0.995828
0.995878
0.995887
0.99585
0.995621
0.997518
0.994574
0.995832
0.998047
0.996889
0.997023
0.99703
0.997041
0.99705
0.99694
0.998037
0.995927
0.996417
0.997901
0.997334
0.997462
0.997473
0.997483
0.997486
0.99737
0.997936
0.996484
0.996873
0.99787
0.997591
0.997707
0.997731
0.997737
0.997726
0.997608
0.997891
0.99695
0.997282
0.997939
0.99779
0.997896
0.997932
0.997935
0.997907
0.997801
0.997938
0.997348
0.99751
0.998
0.997916
0.998012
0.998052
0.998054
0.998015
0.997925
0.997985
0.997609
0.997712
0.998023
0.997999
0.998081
0.998114
0.998113
0.998076
0.998
0.998021
0.997771
0.997938
0.998015
0.998063
0.998122
0.998147
0.998146
0.998116
0.998051
0.998052
0.997883
0.998032
0.998034
0.998109
0.998144
0.998164
0.998165
0.998138
0.998084
0.998076
0.997962
0.998055
0.998074
0.998128
0.998154
0.998174
0.998172
0.998149
0.998106
0.99809
0.998018
0.998018
0.998135
0.998127
0.998158
0.998176
0.998173
0.998152
0.998116
0.998094
0.998057
0.997941
0.998209
0.998124
0.99816
0.998173
0.998166
0.998145
0.998113
0.998084
0.998077
0.998018
0.998184
0.998125
0.998154
0.998159
0.998149
0.998128
0.998094
0.998056
0.998075
0.99814
0.998086
0.998129
0.998135
0.998133
0.998119
0.998097
0.998059
0.998009
0.998053
0.998117
0.998039
0.998114
0.998102
0.998098
0.99808
0.998049
0.998002
0.997931
0.998009
0.997957
0.998037
0.998064
0.998055
0.99805
0.998026
0.997978
0.997916
0.997806
0.997931
0.997741
0.998023
0.997983
0.997985
0.997979
0.997946
0.997877
0.997785
0.997614
0.997806
0.997618
0.997849
0.997859
0.997874
0.997873
0.997829
0.997737
0.997594
0.997322
0.99761
0.997368
0.99755
0.997663
0.997693
0.997706
0.997659
0.997536
0.997319
0.996874
0.997293
0.996743
0.997162
0.997318
0.997392
0.997441
0.997406
0.99725
0.996925
0.996185
0.996772
0.995667
0.996456
0.996674
0.996856
0.996987
0.997002
0.996834
0.996368
0.995132
0.995892
0.993799
0.995102
0.995476
0.995846
0.996139
0.996286
0.996177
0.995588
0.99353
0.994336
0.99045
0.992496
0.993193
0.993868
0.994463
0.994909
0.99506
0.994556
0.991304
0.991692
0.984351
0.987462
0.988717
0.989888
0.991006
0.992043
0.992851
0.993036
0.988266
0.986597
0.973256
0.977818
0.97992
0.98183
0.983783
0.98589
0.988189
0.991033
0.987333
0.981297
0.953466
0.959814
0.962983
0.965767
0.968775
0.972376
0.976877
0.984676
0.987703
0.97587
0.919564
0.927722
0.931765
0.935128
0.939065
0.94455
0.953079
0.972188
1.02361
1.05716
0.863441
0.872621
0.876333
0.878805
0.881991
0.88669
0.89409
0.901391
0.950183
1.00158
0.781054
0.789288
0.790306
0.789336
0.789303
0.791421
0.798142
0.807435
0.841694
0.926499
0.669516
0.67398
0.669177
0.661684
0.655344
0.65216
0.65442
0.663187
0.681729
0.731002
0.534522
0.532699
0.519877
0.503971
0.489145
0.477463
0.470115
0.467519
0.468847
0.479186
0.390493
0.382024
0.362254
0.339962
0.319231
0.301458
0.287007
0.275687
0.266964
0.26235
0.256975
0.244364
0.222441
0.19967
0.179102
0.161427
0.14647
0.133741
0.12287
0.114424
0.150405
0.137763
0.119013
0.100951
0.0854057
0.0724659
0.0616663
0.0524572
0.0445182
0.038181
0.0776353
0.0679624
0.0552111
0.0437998
0.0345374
0.0272009
0.0213158
0.0164838
0.0124793
0.00952074
0.0352033
0.0293219
0.0222816
0.0164133
0.0119455
0.00860958
0.00609119
0.00414322
0.0026647
0.0017642
0.0140531
0.0111315
0.00791097
0.00539838
0.00360784
0.00235895
0.00148656
0.000866893
0.000458742
0.000294853
0.864858
0.875776
0.877447
0.87799
0.87996
0.883734
0.890224
0.894599
0.948598
0.997755
0.780204
0.790224
0.788618
0.785088
0.783169
0.783452
0.788521
0.794681
0.826938
0.91895
0.663747
0.66987
0.661939
0.651254
0.642233
0.636279
0.635591
0.640833
0.653937
0.703153
0.521784
0.521252
0.505362
0.486252
0.468655
0.45399
0.443046
0.435941
0.430875
0.434804
0.371523
0.363962
0.342389
0.318536
0.296523
0.277306
0.260973
0.247047
0.234645
0.225786
0.23617
0.224462
0.202745
0.180404
0.160358
0.143047
0.128142
0.114931
0.103033
0.0934363
0.13288
0.121238
0.104042
0.0876405
0.0735924
0.061902
0.0520057
0.0433018
0.0356779
0.0297947
0.0657714
0.0571413
0.0462006
0.036517
0.0286791
0.0224794
0.0174077
0.0131369
0.00960254
0.00729441
0.0285959
0.0235515
0.0178487
0.0131499
0.00957456
0.00690195
0.00483993
0.00319252
0.00200934
0.00141706
0.0109731
0.00856212
0.00607548
0.00415892
0.00279148
0.00183138
0.0011497
0.000642065
0.000343466
0.000254948
0.866634
0.87862
0.879556
0.878943
0.879634
0.882002
0.88658
0.88772
0.941995
0.994926
0.779263
0.790557
0.787831
0.782625
0.778813
0.776959
0.77919
0.782595
0.80944
0.904256
0.656451
0.663926
0.654653
0.641938
0.630507
0.62158
0.61708
0.617643
0.624175
0.666721
0.505207
0.50589
0.489012
0.468337
0.448714
0.431383
0.416898
0.405143
0.393777
0.39057
0.346798
0.340302
0.319393
0.295858
0.273641
0.253645
0.235939
0.220037
0.205041
0.193402
0.209635
0.199267
0.179828
0.159643
0.1412
0.124955
0.110667
0.0977835
0.0860746
0.0767254
0.11116
0.101178
0.0869507
0.0733515
0.0615159
0.0515088
0.0428928
0.0352771
0.0286337
0.0237159
0.0517017
0.0446842
0.0362718
0.0288525
0.022757
0.017855
0.0137704
0.0103011