/*--------------------------------*- C++ -*----------------------------------*\
| =========                 |                                                 |
| \\      /  F ield         | OpenFOAM: The Open Source CFD Toolbox           |
|  \\    /   O peration     | Version:  2112                                  |
|   \\  /    A nd           | Website:  www.openfoam.com                      |
|    \\/     M anipulation  |                                                 |
\*---------------------------------------------------------------------------*/
FoamFile
{
    version     2.0;
    format      ascii;
    arch        "LSB;label=32;scalar=64";
    class       surfaceScalarField;
    location    "0.02";
    object      phi;
}
// * * * * * * * * * * * * * * * * * * * * * * * * * * * * * * * * * * * * * //

dimensions      [1 0 -1 0 0 0 0];

oriented        oriented;

internalField   nonuniform List<scalar> 
999
(
5.8744121e-12
9.3627328e-12
1.7217783e-11
7.0354833e-12
5.3526072e-12
-3.006706e-12
-6.092904e-12
1.3165913e-11
8.0002671e-13
-1.0539569e-11
1.8762325e-11
7.4276141e-12
-2.1669333e-12
-6.0167427e-12
7.7295947e-12
2.1912472e-11
2.2795099e-11
2.2327695e-11
2.881273e-11
4.1944226e-11
3.1977088e-11
1.6164847e-13
4.251266e-12
4.6180837e-12
5.0850435e-12
1.1681767e-12
-3.9555026e-12
-4.390599e-12
-1.025513e-12
1.1329382e-11
-3.6290304e-11
-1.2219226e-11
-1.340239e-11
-2.7394309e-11
-2.2526425e-11
-1.7909008e-11
-2.7972957e-11
-2.1827429e-11
-1.8281821e-11
-1.4121593e-11
-1.1578849e-11
9.9334985e-12
-6.0838001e-12
5.152323e-12
1.492495e-11
2.8880009e-11
1.269973e-11
2.5668689e-11
2.0227597e-11
6.1117333e-11
1.8613333e-11
3.9448667e-11
3.5951686e-11
3.3519965e-11
1.3057111e-11
1.7814084e-11
6.3975492e-12
3.4366954e-12
1.1272205e-11
6.9568795e-12
3.2317482e-12
1.9493296e-12
1.3691492e-11
3.0810021e-11
7.6765261e-12
3.544276e-12
3.4259262e-12
2.2024604e-12
8.6839425e-12
-7.5306428e-12
-1.4550916e-11
-1.2826296e-11
-2.319922e-11
-1.0124901e-11
-2.5966673e-11
-1.4880985e-11
-1.1096457e-11
9.4857455e-13
3.4826586e-12
1.5966783e-11
1.9971691e-11
1.2151391e-11
5.8175686e-12
3.3223424e-12
1.210454e-11
1.2657875e-11
1.0470402e-11
1.421363e-11
4.1808779e-12
6.6736616e-12
9.697021e-12
9.9584785e-12
1.5229151e-11
1.1212808e-11
1.1337598e-12
-2.1210034e-11
-7.3155926e-12
-1.00151e-11
-2.3570035e-13
-1.8683055e-11
-1.7557289e-11
-3.1173619e-11
-2.6625591e-11
-2.1741275e-11
-4.0000003e-11
-2.3075986e-11
-2.8569147e-11
-1.8044788e-11
-2.6201263e-12
-1.4699797e-11
-1.4084067e-11
2.7372549e-12
-1.154099e-11
-9.7535313e-12
1.3020363e-11
5.0810467e-12
1.5285995e-11
3.0414671e-11
2.4300562e-11
2.1408209e-11
1.6682988e-11
6.3535843e-12
1.3504753e-12
-1.4758639e-11
-1.9428126e-11
-1.6407542e-11
-1.2181589e-11
4.5103921e-12
-8.6379792e-12
5.4392046e-12
9.7288844e-12
4.0154546e-12
-2.1254998e-11
-1.5433321e-11
-2.1684876e-11
-3.4430014e-11
-2.7839953e-11
-1.0548451e-11
-1.0527135e-12
4.4347859e-12
5.9400262e-12
-1.8827606e-11
8.4018348e-12
3.2343017e-12
-2.7715497e-11
-2.9336533e-11
-1.7227775e-11
-7.9181106e-12
3.1568081e-12
9.3747232e-13
9.0705221e-12
-2.5390801e-12
1.6026069e-12
2.5399349e-11
2.0718982e-12
-1.2236656e-11
-2.0708768e-11
2.3190339e-12
-3.3897329e-12
1.2613244e-11
1.9976798e-11
1.5494717e-11
1.774314e-11
-2.1684876e-12
2.8839153e-12
3.5477399e-11
2.0417446e-11
1.3061996e-11
1.73217e-11
-1.6979751e-11
-1.4580781e-11
-1.8759772e-11
2.1642133e-11
-7.6383344e-13
6.6397998e-12
1.9804158e-12
-1.3154478e-11
-1.7669088e-11
-2.4421132e-11
-2.0319968e-11
-2.2155611e-11
-2.8824054e-11
-1.8733459e-11
-1.2271961e-11
-1.0348167e-11
-4.2079673e-12
-1.1306511e-11
5.1718629e-12
-6.7358341e-12
-1.0789147e-12
2.9412028e-12
1.2878587e-11
3.1524783e-12
2.8607117e-12
-6.5550898e-12
-1.8532953e-11
-2.2253865e-11
-1.4255264e-13
-1.59599e-11
-1.5349055e-11
-9.7160058e-12
-1.1698864e-11
1.7319479e-12
9.4027008e-12
-1.9632962e-11
-1.3816726e-11
-3.4194869e-12
1.5654145e-12
2.4078517e-12
1.5768054e-11
1.8492541e-11
2.8681502e-12
-7.5406348e-12
2.484013e-12
1.3327117e-12
-1.3320123e-11
-4.1211479e-12
-8.4678931e-12
-1.0839774e-11
-7.0634609e-12
-1.1934231e-11
-1.1854961e-12
-2.0514701e-12
4.7650772e-12
-1.6050272e-11
-2.1835644e-11
-1.3456347e-11
4.6351811e-13
4.8856474e-12
-7.3691053e-12
-7.0152772e-12
-6.3711258e-12
-1.7993163e-11
-8.2023277e-12
-9.3198782e-12
-8.8418162e-12
-4.2665871e-12
-9.4897423e-12
-1.6439072e-11
-8.9290797e-12
-3.7139181e-12
-5.7331917e-13
-1.6072921e-11
1.2418511e-11
4.1171511e-12
1.8432367e-11
2.3139046e-11
3.9491632e-11
2.8474778e-11
1.0366374e-11
1.9807267e-11
1.4005241e-11
1.1529111e-11
-5.082379e-12
6.9697581e-12
1.2691403e-11
9.224177e-12
1.1586176e-11
1.346856e-11
1.2789769e-12
1.0111911e-12
-6.4870331e-12
1.5468293e-11
1.4738655e-11
2.8427705e-11
1.2001511e-12
1.3143264e-11
1.0691781e-11
1.2635337e-11
5.4103388e-12
-2.5069502e-11
-2.6520119e-11
-2.2569724e-11
-2.3493318e-11
-3.9560577e-11
-9.1422425e-12
-1.0161871e-11
-9.9484865e-12
-4.6065374e-12
-7.1467277e-12
-8.0289109e-12
-1.3940404e-11
-2.3125946e-12
-8.7250207e-12
3.0182523e-12
-2.5743851e-12
-4.1024961e-12
1.7319479e-12
-2.1634916e-12
2.4713787e-11
2.1761037e-11
2.1407986e-11
2.1562752e-12
7.352563e-12
1.0234036e-11
1.1545653e-11
8.8414831e-12
1.8097968e-11
6.5386585e-12
-1.7440493e-12
-3.076206e-12
-1.082423e-11
-2.2122526e-11
-1.8619328e-11
-1.1877832e-11
-8.0340179e-12
-1.9877877e-11
-7.5270901e-12
-5.8586469e-12
1.4723112e-11
1.432876e-11
2.0891733e-11
2.3891999e-13
4.7650772e-13
1.5825119e-12
1.2451373e-11
1.3800072e-11
2.321543e-11
-5.709877e-12
-1.8332003e-12
1.6736501e-11
2.1566637e-11
-1.7694735e-12
-4.7114534e-12
-3.0955238e-12
4.1189274e-13
-1.6505242e-11
-1.7133406e-11
-7.7318152e-12
-1.1422641e-11
-1.6235013e-11
-5.9356964e-12
1.0418666e-11
2.5988101e-12
1.5402124e-12
2.4342528e-11
2.2411184e-11
2.0930591e-11
-1.8714141e-11
-8.2772678e-12
-7.7813311e-12
-6.7879036e-13
1.2414292e-11
-8.9928065e-14
2.249001e-11
1.3841261e-11
2.1429192e-11
2.1437074e-11
8.1931129e-12
8.2199803e-12
2.8343994e-13
-9.9247277e-12
-1.87802e-11
-1.6473378e-11
-4.8687721e-12
-5.3190785e-12
-9.2912344e-12
-2.6483593e-11
-4.3678394e-12
-9.5004005e-12
2.0536906e-12
-7.4458217e-12
1.5471624e-11
-1.4987567e-11
-2.0399904e-11
-5.7315264e-12
-3.1869285e-11
-2.5951352e-11
-1.4636736e-11
7.9725115e-12
1.1610712e-12
1.5356605e-12
-1.2829515e-11
-1.4484414e-11
-2.6202596e-11
-3.1435743e-11
-1.7682078e-11
-3.5032643e-11
-1.1530998e-11
9.2648111e-13
2.976952e-12
4.0836223e-12
-2.3850366e-11
-7.397194e-12
1.242717e-11
1.8422375e-11
1.0420997e-11
1.3888002e-11
1.1034174e-11
4.6631587e-12
-2.3581137e-13
4.8696602e-12
5.2058358e-12
2.0857649e-11
2.6908031e-11
2.8198555e-11
2.1515678e-11
2.1580071e-11
1.0015544e-11
6.7184036e-12
1.3075541e-11
6.1681771e-12
5.9561245e-12
4.1439074e-12
1.7486679e-11
7.0573547e-12
2.6311398e-11
2.7597924e-12
1.2810197e-11
5.5861982e-12
-4.7212234e-12
1.2106205e-11
5.894174e-12
6.8189898e-13
-1.1049273e-11
6.750156e-14
2.6190161e-12
-6.9050321e-12
1.1583179e-11
-7.7515772e-13
-4.7511994e-12
-2.6050273e-11
-2.4462099e-11
-2.2867597e-11
1.9412805e-11
1.7033486e-11
3.670253e-11
9.2228669e-11
1.5625934e-10
3.1379688e-10
6.0262828e-10
1.0916271e-09
1.9368446e-09
3.3914977e-09
5.9953195e-09
1.0444922e-08
1.8209925e-08
3.1518754e-08
5.429426e-08
9.2979965e-08
1.5832146e-07
2.6803177e-07
4.5103285e-07
7.5432801e-07
1.2535644e-06
2.0696391e-06
3.3939981e-06
5.5270494e-06
8.9360339e-06
1.4340171e-05
2.2835655e-05
3.6074677e-05
5.6519411e-05
8.779473e-05
0.00013516911
0.00020619616
0.00031154943
0.00046607874
0.00069010403
0.0010109388
0.0014645996
0.0020976064
0.0029687163
0.0041503621
0.0057295062
0.007807577
0.010499158
0.013929164
0.018228365
0.023527318
0.029949006
0.037600706
0.046565797
0.056896314
0.068607018
0.081671593
0.096021357
0.11154656
0.12810007
0.14550297
0.16355171
0.18202587
0.20069606
0.21933021
0.23770532
0.2555902
0.27283579
0.28910935
0.3046071
0.31853553
0.33167885
0.34330987
0.35303286
0.36267541
0.36971335
0.37572616
0.38110414
0.38500625
0.38763101
0.38920977
0.39060122
0.39112216
0.39106348
0.39069346
0.3902306
0.38944199
0.38907609
0.38781565
0.38749106
0.38539529
0.38136584
0.37510433
0.36571939
0.35377128
0.33993256
0.32512956
0.31043246
0.2965566
0.28413544
0.27353255
0.26457331
0.25727789
0.25122772
0.2459867
0.24123765
0.23644563
0.23124233
0.22505351
0.21763489
0.20860769
0.19733571
0.18349962
0.16688824
0.14749286
0.12563413
0.10210498
0.078265229
0.0559546
0.037058327
0.022776111
0.013136601
0.0072312584
0.0038628026
0.0020275424
0.0010538162
0.00054463167
0.00028046278
0.00014403735
7.3798602e-05
3.7724726e-05
1.9239515e-05
9.7886291e-06
4.9679454e-06
2.5149515e-06
1.2698554e-06
6.3948226e-07
3.2117463e-07
1.6087069e-07
8.0358737e-08
4.0030788e-08
1.9884111e-08
9.8493712e-09
4.8684223e-09
2.3961748e-09
1.1782429e-09
5.771507e-10
2.8087796e-10
1.3709479e-10
6.7224504e-11
2.8711478e-11
1.1644158e-11
6.8867828e-12
5.5404292e-13
-9.6792019e-13
-1.1081414e-12
1.4355878e-12
1.3376522e-12
1.2335827e-12
3.7789216e-13
3.3911762e-13
4.2015003e-13
-1.0874079e-12
2.5689312e-12
4.0419612e-12
-2.9881653e-13
5.1009197e-13
1.8413188e-12
1.000186e-12
1.4203916e-13
3.1363939e-12
3.6159131e-12
3.8321429e-12
2.9061198e-12
5.3072824e-13
6.2129468e-13
2.5263125e-13
-2.2216951e-13
-3.460357e-12
-1.0802748e-12
1.3177376e-12
-2.1636581e-12
7.6415263e-13
-1.6911611e-12
5.8046623e-13
-8.1938623e-13
-4.4339532e-14
1.6044249e-12
1.1082246e-12
-3.513162e-13
2.2988556e-13
-1.4481333e-12
1.5022567e-12
-9.6644914e-14
-2.5185548e-12
-4.111031e-12
-3.2514685e-12
-4.5289605e-12
-2.9843766e-12
-4.7667981e-12
-2.6208757e-12
-3.6154274e-12
-4.2332804e-12
-3.9898501e-12
-2.2499086e-12
-1.1666085e-12
-1.6264767e-12
-1.9373669e-12
-3.9711012e-12
-2.2749858e-13
3.2937542e-13
4.6390669e-13
-1.8886004e-12
-5.8261729e-13
-1.1680101e-12
-9.642287e-13
-1.2356782e-13
1.814271e-12
-3.9856868e-12
1.7202767e-12
2.6040836e-12
2.5353469e-12
3.0037778e-12
3.5302594e-12
-2.1191382e-12
1.6992519e-12
-6.7967854e-13
-1.4819534e-12
-1.0457607e-12
-2.9882902e-12
-3.4030279e-12
-1.8433588e-12
1.3334195e-12
1.7876256e-12
4.1916748e-12
3.9323961e-12
-1.1085577e-13
-2.9865693e-12
-6.0705607e-13
3.5101921e-12
3.8188619e-12
1.0537959e-12
1.4511031e-12
2.0099894e-12
1.7848223e-13
-2.6186137e-12
-2.8262809e-12
1.2586737e-12
4.4955428e-12
2.4886204e-12
-7.1938289e-13
-4.6232462e-12
-5.028894e-13
9.6395114e-14
2.9719283e-13
-1.9532431e-12
-1.1162321e-12
-1.7552626e-13
-7.632367e-13
-5.7988336e-13
1.4741125e-12
-3.2320674e-12
-5.4645594e-12
-4.6538606e-12
-9.0938368e-13
-4.4984572e-12
-3.4362374e-12
-1.9444446e-12
-3.7839731e-12
-4.7090665e-12
-2.2025159e-12
-1.4490215e-12
-1.4543505e-12
2.8398117e-12
-1.1506907e-12
-4.1605608e-14
-6.0469685e-13
2.1028873e-12
2.2384455e-12
-3.7883724e-12
-5.177192e-12
-1.4502149e-12
-6.5378258e-14
-1.2492785e-13
2.4545643e-12
2.6504215e-12
1.5488721e-12
1.3747337e-13
1.417727e-12
1.4185597e-12
3.0746239e-12
6.4609013e-12
1.6889129e-12
7.1501277e-12
5.8735794e-12
8.8770657e-12
9.2590796e-12
9.6714442e-12
7.7325646e-12
5.5496163e-12
1.8478552e-12
3.9518527e-12
1.2898016e-13
-1.0875745e-12
-2.9995451e-12
-1.3780643e-12
-1.9810403e-12
-2.9371228e-12
-4.54492e-12
-3.6820269e-12
-5.928813e-12
-1.2897738e-12
-3.4744291e-12
-2.9688751e-12
-2.6304653e-12
-2.4092811e-12
-2.3320929e-12
-2.4001356e-12
-4.0233233e-12
-4.8582804e-12
-7.5532636e-13
-3.9017956e-12
-3.8049841e-12
-2.4205082e-12
-1.9249741e-12
-2.9515557e-12
-7.9157514e-13
-1.7792434e-12
-2.5909552e-12
-2.913586e-12
-3.4088704e-12
-2.0554392e-12
2.5381225e-12
2.014458e-12
3.0213887e-12
4.2604809e-14
3.5726422e-12
1.1712159e-12
7.8193008e-13
1.8096913e-12
-6.9509676e-13
-5.6118443e-12
-4.4894921e-12
-1.4402507e-12
-1.0436929e-12
3.0051517e-12
6.3701822e-13
2.6543073e-12
-2.0821678e-12
-1.3238022e-13
-5.0322246e-13
-1.5294987e-12
-5.1682825e-12
2.0961705e-12
-3.3386488e-12
-3.9883097e-12
-5.3658328e-12
-5.1800647e-12
-7.9167228e-13
-7.6720574e-13
-1.0441925e-12
-1.5698276e-12
-3.1989689e-13
6.3625494e-13
-3.1045999e-13
1.9937385e-12
9.8673847e-13
8.0881135e-13
-1.3165025e-12
3.738676e-14
1.5433071e-12
2.2694069e-12
1.0992735e-12
-1.5644014e-12
-3.2751579e-14
-4.5919518e-12
-4.1114334e-12
-4.5226184e-12
-4.3669235e-12
-5.6001037e-13
1.3630763e-13
1.2190665e-12
4.0829562e-12
1.923392e-12
9.3557107e-13
-1.1367296e-13
-7.804174e-13
-2.1162933e-12
-5.4835025e-12
-5.4863059e-12
-4.2908732e-12
-3.8757886e-12
-9.7492847e-13
1.6872892e-12
-9.5196073e-13
3.947051e-12
-2.0068669e-13
3.1258329e-13
2.4478058e-12
2.0651675e-12
6.4923067e-13
-6.3268835e-13
-3.7927994e-14
-1.1254192e-12
-1.7624791e-14
-4.4476922e-13
-1.9178131e-12
-2.3948343e-12
-2.0917712e-12
-2.2809393e-12
1.435102e-12
6.6985306e-13
1.9127616e-12
-2.8479163e-12
-5.3365784e-12
-5.0991572e-12
-5.4983379e-12
-4.5392856e-13
-8.815032e-13
-3.9734188e-12
-1.8363366e-12
2.4771851e-14
6.7407191e-13
-8.1354368e-13
-1.2187612e-12
-1.8378493e-12
1.7675028e-12
-1.4182128e-12
1.2179979e-12
2.1446733e-12
1.9896584e-12
1.1324414e-12
3.1884356e-12
2.9046765e-12
6.2909539e-12
4.2671283e-12
2.3482605e-12
2.2742502e-12
3.4513226e-12
-1.6890517e-12
1.7233437e-13
-7.2875039e-13
-5.8156258e-13
1.3080786e-12
1.5250995e-12
-3.3404807e-12
-6.1770034e-14
-2.5568159e-12
-1.4641066e-14
1.1050882e-12
1.9055035e-12
-3.1339931e-12
1.89182e-13
-2.0250468e-13
4.7750692e-13
1.1100704e-12
1.0175333e-12
-4.4146631e-13
-5.7284733e-13
-9.9667496e-13
-2.172873e-12
-2.5410507e-12
6.3138383e-13
2.504677e-12
3.7615744e-13
-2.1245228e-12
2.579742e-13
1.5286383e-13
2.5201646e-12
2.358988e-12
-2.3775704e-12
-4.1260884e-12
-2.4021896e-12
-4.1606441e-12
-1.5114715e-12
-2.2472302e-12
-2.9884428e-12
-6.3532513e-13
-1.6654872e-12
-3.4864056e-12
-1.7325447e-12
-1.8802321e-12
1.026762e-12
5.4696525e-13
2.5604657e-12
-1.0051127e-12
-2.3781532e-12
-2.2378904e-12
-4.1530113e-12
-3.8591491e-12
-1.3471446e-12
-5.7725075e-12
-5.7395755e-12
-4.5951576e-12
-1.9021035e-12
-6.0056127e-13
-1.8100105e-12
-8.9471486e-13
2.6884744e-12
2.1720264e-12
4.7717663e-12
3.3626157e-12
3.8841291e-12
-7.7887696e-13
1.1356194e-13
-8.0671581e-13
5.3408666e-13
-1.1432383e-12
2.3724633e-12
-3.8194725e-12
-3.162054e-12
-7.2487849e-13
-2.5388719e-12
-1.1055462e-12
7.1583017e-13
-3.1330633e-12
-1.1917273e-12
2.4151514e-12
1.0106499e-12
6.4845906e-12
1.9605012e-12
-1.7079393e-13
3.1433883e-12
-1.4402368e-13
1.5659973e-12
3.3913705e-12
2.9131975e-12
3.9299813e-12
-7.8710649e-13
-6.5804306e-13
9.6866959e-15
-3.6713133e-12
-1.9832747e-12
4.3230697e-13
-1.1671358e-12
-1.0521722e-12
-1.526515e-12
-8.4232621e-13
1.0391271e-12
-1.0047518e-13
-2.2055968e-13
-8.35082e-13
4.426598e-13
1.5847046e-12
-9.4203811e-13
7.9454499e-13
-1.7992968e-12
1.1339402e-12
2.951514e-12
3.9640929e-12
6.7845729e-13
5.0545679e-12
3.2171626e-12
-6.9855233e-13
7.4457107e-13
-2.92881e-12
2.459144e-14
-2.3411828e-14
-1.4969692e-12
-3.3834047e-13
5.8099359e-13
-1.1542295e-12
-2.2493674e-12
-1.0512285e-12
-2.1990604e-12
-2.4093921e-12
8.8130891e-13
-8.4865448e-13
4.1369685e-13
-1.1887713e-13
4.0754899e-13
3.4200559e-12
6.6836398e-12
2.3567259e-13
4.9901194e-12
4.4063919e-12
2.7183256e-12
5.4641153e-12
4.8805127e-12
1.8190449e-12
)
;

boundaryField
{
    sides
    {
        type            calculated;
        value           nonuniform List<scalar> 2(4.2694043e-22 1.8200862e-21);
    }
    emptywalls
    {
        type            empty;
        value           nonuniform List<scalar> 0();
    }
}


// ************************************************************************* //
