/*--------------------------------*- C++ -*----------------------------------*\
| =========                 |                                                 |
| \\      /  F ield         | OpenFOAM: The Open Source CFD Toolbox           |
|  \\    /   O peration     | Version:  2112                                  |
|   \\  /    A nd           | Website:  www.openfoam.com                      |
|    \\/     M anipulation  |                                                 |
\*---------------------------------------------------------------------------*/
FoamFile
{
    version     2.0;
    format      ascii;
    arch        "LSB;label=32;scalar=64";
    class       volVectorField;
    location    "0.02";
    object      U;
}
// * * * * * * * * * * * * * * * * * * * * * * * * * * * * * * * * * * * * * //

dimensions      [0 1 -1 0 0 0 0];

internalField   nonuniform List<vector> 
1000
(
(-1.8222503e-21 0 0)
(5.885397e-12 0 0)
(1.1555377e-11 0 0)
(1.3732667e-11 0 0)
(3.5093631e-12 0 0)
(3.5459328e-12 0 0)
(-7.0213938e-12 0 0)
(3.7220012e-12 0 0)
(7.8123677e-12 0 0)
(-6.2106345e-12 0 0)
(3.1414424e-12 0 0)
(3.7874711e-12 0 0)
(8.2692118e-12 0 0)
(-1.0809309e-11 0 0)
(-1.3221802e-12 0 0)
(1.8973258e-11 0 0)
(1.0873668e-11 0 0)
(2.8232855e-11 0 0)
(2.4028333e-11 0 0)
(3.0898001e-11 0 0)
(3.4468277e-11 0 0)
(2.0081133e-11 0 0)
(3.7280035e-12 0 0)
(2.5258699e-12 0 0)
(1.7425657e-12 0 0)
(7.2209157e-12 0 0)
(-4.3302374e-12 0 0)
(-3.5691641e-12 0 0)
(-1.4580107e-12 0 0)
(4.2231959e-12 0 0)
(-3.0960914e-12 0 0)
(-6.3105622e-12 0 0)
(-9.837043e-12 0 0)
(-2.2956027e-11 0 0)
(-1.4980041e-11 0 0)
(-2.802822e-11 0 0)
(-7.3179534e-12 0 0)
(-3.4467165e-11 0 0)
(-1.0239088e-11 0 0)
(-1.7995212e-11 0 0)
(-1.1973984e-11 0 0)
(-7.7242223e-12 0 0)
(-1.0098256e-11 0 0)
(3.3023938e-12 0 0)
(4.1582818e-12 0 0)
(1.8954362e-11 0 0)
(1.81077e-11 0 0)
(1.5300609e-11 0 0)
(2.8827641e-11 0 0)
(5.5979076e-11 0 0)
(3.9297263e-11 0 0)
(1.7174115e-11 0 0)
(3.4088907e-11 0 0)
(3.2512183e-11 0 0)
(1.624053e-11 0 0)
(6.7143857e-12 0 0)
(8.6319082e-12 0 0)
(2.4479508e-12 0 0)
(7.0288411e-12 0 0)
(9.1701173e-12 0 0)
(5.046071e-12 0 0)
(5.267935e-12 0 0)
(9.9171852e-12 0 0)
(1.7040174e-11 0 0)
(1.4484737e-11 0 0)
(6.8822286e-12 0 0)
(-1.0359579e-13 0 0)
(6.6889313e-12 0 0)
(-2.278774e-12 0 0)
(3.3332947e-12 0 0)
(-8.2782153e-12 0 0)
(-1.6305e-11 0 0)
(-2.4570099e-11 0 0)
(-1.3623958e-11 0 0)
(-2.0492293e-11 0 0)
(-1.7486125e-11 0 0)
(-1.9736332e-11 0 0)
(3.2270312e-12 0 0)
(-4.5154205e-12 0 0)
(1.6983041e-11 0 0)
(7.2077995e-12 0 0)
(1.4102144e-11 0 0)
(7.3226219e-12 0 0)
(3.3052838e-12 0 0)
(-2.6291323e-12 0 0)
(1.7786242e-11 0 0)
(8.6738134e-12 0 0)
(1.445906e-11 0 0)
(7.7418959e-12 0 0)
(-1.9443107e-12 0 0)
(1.0338238e-11 0 0)
(9.111539e-12 0 0)
(1.2199961e-11 0 0)
(1.1030062e-11 0 0)
(3.1531136e-12 0 0)
(-1.7722439e-12 0 0)
(-5.7093286e-12 0 0)
(-1.3553153e-11 0 0)
(3.3570817e-12 0 0)
(-9.3639703e-12 0 0)
(-1.7294828e-11 0 0)
(-1.8904676e-11 0 0)
(-2.1599723e-11 0 0)
(-2.6651685e-11 0 0)
(-2.1118869e-11 0 0)
(-2.2091247e-11 0 0)
(-2.0686701e-11 0 0)
(-3.0944019e-11 0 0)
(-9.0611861e-12 0 0)
(-1.4065797e-11 0 0)
(-7.8194816e-12 0 0)
(-9.5570453e-12 0 0)
(4.5542133e-12 0 0)
(-1.2400038e-11 0 0)
(7.8984011e-12 0 0)
(8.2404228e-12 0 0)
(6.4399457e-12 0 0)
(2.4101917e-11 0 0)
(3.1765227e-11 0 0)
(1.858533e-11 0 0)
(1.6064906e-11 0 0)
(1.7093306e-11 0 0)
(1.0026117e-13 0 0)
(-2.5473227e-12 0 0)
(-1.8794189e-11 0 0)
(-2.7154325e-11 0 0)
(1.8605004e-12 0 0)
(-7.4558959e-12 0 0)
(-9.5203644e-13 0 0)
(5.75568e-12 0 0)
(3.2352566e-12 0 0)
(5.7071056e-12 0 0)
(4.5845584e-12 0 0)
(-3.0755835e-11 0 0)
(-1.1888618e-11 0 0)
(-2.3029834e-11 0 0)
(-2.805045e-11 0 0)
(-1.5801471e-11 0 0)
(-2.9887164e-12 0 0)
(8.8078655e-13 0 0)
(-5.5132525e-13 0 0)
(9.3358483e-13 0 0)
(7.0740809e-12 0 0)
(3.048962e-12 0 0)
(-4.639024e-12 0 0)
(-2.6708374e-11 0 0)
(-2.6853986e-11 0 0)
(5.6709804e-12 0 0)
(-1.8012441e-11 0 0)
(9.2362541e-12 0 0)
(4.3499117e-12 0 0)
(6.4487269e-12 0 0)
(1.7395645e-12 0 0)
(6.9582582e-14 0 0)
(9.3800877e-12 0 0)
(-4.2555418e-12 0 0)
(-1.8723495e-11 0 0)
(-9.8616081e-13 0 0)
(-6.1408296e-12 0 0)
(5.2006866e-12 0 0)
(1.9446109e-11 0 0)
(3.6640898e-12 0 0)
(1.7158998e-11 0 0)
(1.540176e-11 0 0)
(-1.5928409e-12 0 0)
(1.3358966e-11 0 0)
(2.8081796e-11 0 0)
(3.5736102e-12 0 0)
(1.3496575e-11 0 0)
(4.2995589e-12 0 0)
(-1.0358579e-11 0 0)
(-2.2263981e-11 0 0)
(5.4552299e-12 0 0)
(1.2395703e-11 0 0)
(1.7270041e-12 0 0)
(1.1321508e-11 0 0)
(-1.3329399e-11 0 0)
(-1.8017887e-11 0 0)
(-2.07116e-11 0 0)
(-1.7215353e-11 0 0)
(-2.276084e-11 0 0)
(-2.6538752e-11 0 0)
(-1.4395258e-11 0 0)
(-1.2552653e-11 0 0)
(-1.3797581e-11 0 0)
(2.5858933e-12 0 0)
(-1.3102756e-11 0 0)
(7.1558905e-12 0 0)
(-4.6444706e-12 0 0)
(8.6524718e-12 0 0)
(-1.1283494e-11 0 0)
(1.7225135e-11 0 0)
(1.9864382e-12 0 0)
(5.9418634e-12 0 0)
(-2.1352738e-13 0 0)
(-1.3045623e-11 0 0)
(-1.5167669e-11 0 0)
(-1.6220967e-11 0 0)
(1.077563e-11 0 0)
(-3.0819081e-11 0 0)
(2.1324949e-12 0 0)
(-1.8090804e-11 0 0)
(7.5362604e-13 0 0)
(3.0889775e-12 0 0)
(1.3798693e-12 0 0)
(-2.0027668e-11 0 0)
(-4.7336163e-12 0 0)
(-3.041737e-12 0 0)
(4.8049774e-12 0 0)
(1.0877781e-11 0 0)
(1.4072355e-11 0 0)
(9.9016236e-12 0 0)
(-6.3446865e-12 0 0)
(-2.8802298e-12 0 0)
(3.3429651e-12 0 0)
(-6.7426189e-13 0 0)
(-4.4874096e-12 0 0)
(-9.2564841e-12 0 0)
(-5.3398518e-12 0 0)
(-1.1064853e-11 0 0)
(-1.5008496e-11 0 0)
(-8.9685945e-12 0 0)
(6.5945614e-12 0 0)
(1.7563488e-12 0 0)
(-5.5592704e-12 0 0)
(-2.1724104e-11 0 0)
(-1.0630796e-11 0 0)
(-1.2789634e-11 0 0)
(1.5020278e-11 0 0)
(-9.1680053e-12 0 0)
(9.4080986e-13 0 0)
(-1.4738058e-11 0 0)
(1.1014278e-12 0 0)
(-1.7296385e-11 0 0)
(-1.5201015e-11 0 0)
(-3.0758613e-12 0 0)
(-8.8403225e-12 0 0)
(-2.2697705e-13 0 0)
(-1.7632404e-11 0 0)
(-7.2538174e-12 0 0)
(-5.0032766e-12 0 0)
(-3.5641621e-12 0 0)
(-2.8235411e-12 0 0)
(6.1888482e-12 0 0)
(6.574887e-12 0 0)
(6.8115345e-12 0 0)
(1.3111092e-11 0 0)
(2.3287712e-11 0 0)
(2.6083242e-11 0 0)
(2.3693203e-11 0 0)
(3.0658575e-12 0 0)
(1.8337233e-11 0 0)
(1.0419158e-11 0 0)
(-2.1797355e-13 0 0)
(-4.1905165e-12 0 0)
(1.4223413e-11 0 0)
(4.0315659e-12 0 0)
(1.3148218e-11 0 0)
(1.5974871e-11 0 0)
(1.1605396e-11 0 0)
(-3.9476444e-12 0 0)
(-5.2208056e-12 0 0)
(1.3905179e-11 0 0)
(8.7977504e-12 0 0)
(1.8463616e-11 0 0)
(-5.3133971e-12 0 0)
(1.2950141e-11 0 0)
(5.2469268e-12 0 0)
(1.6004772e-11 0 0)
(3.597953e-12 0 0)
(4.3201224e-12 0 0)
(-2.8504627e-11 0 0)
(-1.4355909e-11 0 0)
(-2.1727661e-11 0 0)
(-1.7985986e-11 0 0)
(-2.2907898e-11 0 0)
(-1.7258926e-12 0 0)
(-5.9981075e-12 0 0)
(-1.102695e-11 0 0)
(6.8986795e-12 0 0)
(-1.8003437e-11 0 0)
(-1.0104814e-11 0 0)
(-1.7760231e-11 0 0)
(-1.0856884e-11 0 0)
(-5.8367114e-12 0 0)
(9.8215925e-13 0 0)
(-6.8115345e-12 0 0)
(7.3761983e-12 0 0)
(-1.1753232e-11 0 0)
(1.8425156e-11 0 0)
(1.5859938e-11 0 0)
(2.3614839e-11 0 0)
(1.1947196e-11 0 0)
(8.8126451e-12 0 0)
(-2.44017e-12 0 0)
(1.5647633e-11 0 0)
(1.5990989e-11 0 0)
(8.2743249e-12 0 0)
(1.3857827e-11 0 0)
(-1.0582999e-12 0 0)
(7.1094279e-13 0 0)
(-1.155082e-11 0 0)
(-9.8911751e-12 0 0)
(-2.3557039e-11 0 0)
(-3.260044e-12 0 0)
(-1.5482903e-11 0 0)
(-7.0771933e-12 0 0)
(-1.4441387e-11 0 0)
(-5.4318875e-12 0 0)
(4.7527349e-12 0 0)
(1.6851101e-11 0 0)
(1.5319283e-11 0 0)
(2.3817028e-12 0 0)
(6.3740313e-12 0 0)
(-6.6788163e-12 0 0)
(1.2022559e-11 0 0)
(1.0092253e-11 0 0)
(1.8947804e-11 0 0)
(1.0497411e-12 0 0)
(-2.2400923e-12 0 0)
(2.4031556e-12 0 0)
(1.7236806e-11 0 0)
(8.2495375e-12 0 0)
(5.2131358e-14 0 0)
(-6.2065217e-12 0 0)
(8.1242666e-13 0 0)
(-9.9088486e-12 0 0)
(-1.8094139e-11 0 0)
(-6.7239449e-12 0 0)
(-1.3465897e-11 0 0)
(-2.1545257e-11 0 0)
(-1.7806916e-13 0 0)
(-6.0699131e-12 0 0)
(3.8130366e-12 0 0)
(2.8005322e-12 0 0)
(1.0597449e-11 0 0)
(2.0826089e-11 0 0)
(2.2391252e-11 0 0)
(4.9542576e-12 0 0)
(-1.6626347e-11 0 0)
(-7.7667944e-12 0 0)
(-9.4003178e-13 0 0)
(2.7664078e-12 0 0)
(4.68293e-13 0 0)
(8.1707291e-12 0 0)
(1.943955e-11 0 0)
(1.5906845e-11 0 0)
(1.6269986e-11 0 0)
(1.499927e-11 0 0)
(7.5768318e-12 0 0)
(4.4611772e-12 0 0)
(-1.1081637e-11 0 0)
(-8.7595133e-12 0 0)
(-1.1844045e-11 0 0)
(-6.9449197e-12 0 0)
(-1.3268487e-12 0 0)
(-6.6199045e-12 0 0)
(-2.7979534e-11 0 0)
(-8.7645153e-12 0 0)
(-9.4488922e-12 0 0)
(4.9374733e-13 0 0)
(3.8503844e-13 0 0)
(-6.1135968e-12 0 0)
(-6.2151918e-12 0 0)
(-1.3116761e-11 0 0)
(-6.2590977e-12 0 0)
(-2.3276819e-11 0 0)
(-2.4195509e-11 0 0)
(-1.7105755e-11 0 0)
(-9.053183e-12 0 0)
(6.6314646e-12 0 0)
(-5.868057e-12 0 0)
(2.6307996e-12 0 0)
(-1.3048401e-11 0 0)
(-1.7227802e-11 0 0)
(-2.7852596e-11 0 0)
(-1.9197012e-11 0 0)
(-3.1579154e-11 0 0)
(-1.9907732e-11 0 0)
(-1.0090364e-11 0 0)
(1.1259929e-12 0 0)
(9.6717566e-12 0 0)
(-7.5259231e-12 0 0)
(-1.9996433e-11 0 0)
(1.1113983e-11 0 0)
(5.5430418e-12 0 0)
(1.9084857e-11 0 0)
(-2.5396531e-12 0 0)
(1.2596115e-11 0 0)
(4.3223455e-12 0 0)
(1.8171502e-12 0 0)
(3.3581932e-12 0 0)
(2.8511074e-12 0 0)
(1.278052e-11 0 0)
(2.2910232e-11 0 0)
(2.9470446e-11 0 0)
(1.6390255e-11 0 0)
(2.1695315e-11 0 0)
(2.7286598e-11 0 0)
(-4.7767442e-12 0 0)
(1.2821647e-11 0 0)
(-4.3639172e-13 0 0)
(8.7839673e-12 0 0)
(1.1468899e-12 0 0)
(1.8414374e-11 0 0)
(1.8769068e-11 0 0)
(1.4848656e-11 0 0)
(5.634633e-12 0 0)
(6.2905544e-12 0 0)
(9.3713065e-12 0 0)
(7.9686506e-13 0 0)
(6.9199099e-12 0 0)
(7.7583467e-12 0 0)
(-7.8508271e-13 0 0)
(-5.1575588e-12 0 0)
(-3.5078069e-12 0 0)
(1.0845323e-12 0 0)
(-7.5857241e-12 0 0)
(6.5513223e-12 0 0)
(-1.9490904e-12 0 0)
(5.4298868e-12 0 0)
(-2.2360907e-11 0 0)
(-1.4657026e-11 0 0)
(-2.4499293e-11 0 0)
(-5.4677904e-12 0 0)
(2.1000935e-11 0 0)
(2.6897114e-11 0 0)
(5.0075894e-11 0 0)
(1.2708103e-10 0 0)
(2.3471205e-10 0 0)
(4.5389418e-10 0 0)
(8.3827626e-10 0 0)
(1.5123956e-09 0 0)
(2.6582264e-09 0 0)
(4.6743026e-09 0 0)
(8.2114624e-09 0 0)
(1.429389e-08 0 0)
(2.4803354e-08 0 0)
(4.2823371e-08 0 0)
(7.3486577e-08 0 0)
(1.2540566e-07 0 0)
(2.1276895e-07 0 0)
(3.5885121e-07 0 0)
(6.0158144e-07 0 0)
(1.0021645e-06 0 0)
(1.6587347e-06 0 0)
(2.7272628e-06 0 0)
(4.4533522e-06 0 0)
(7.2203555e-06 0 0)
(1.1620881e-05 0 0)
(1.8561735e-05 0 0)
(2.9415954e-05 0 0)
(4.6239357e-05 0 0)
(7.2074041e-05 0 0)
(0.0001113658 0 0)
(0.00017052669 0 0)
(0.00025867618 0 0)
(0.00038859285 0 0)
(0.00057790177 0 0)
(0.00085050663 0 0)
(0.00123825 0 0)
(0.0017827472 0 0)
(0.00253729 0 0)
(0.0035686628 0 0)
(0.0049586584 0 0)
(0.0068050445 0 0)
(0.0092217181 0 0)
(0.01233782 0 0)
(0.016295657 0 0)
(0.021247404 0 0)
(0.027350708 0 0)
(0.03476347 0 0)
(0.043638204 0 0)
(0.054116431 0 0)
(0.066323572 0 0)
(0.080364738 0 0)
(0.09632166 0 0)
(0.11425088 0 0)
(0.13418313 0 0)
(0.1561239 0 0)
(0.18005464 0 0)
(0.20593445 0 0)
(0.23370161 0 0)
(0.26327486 0 0)
(0.29455422 0 0)
(0.32741962 0 0)
(0.36173542 0 0)
(0.39732784 0 0)
(0.43404982 0 0)
(0.47159137 0 0)
(0.50992087 0 0)
(0.54840657 0 0)
(0.5872828 0 0)
(0.62578008 0 0)
(0.66366337 0 0)
(0.70089858 0 0)
(0.7366868 0 0)
(0.77070135 0 0)
(0.80254597 0 0)
(0.83166475 0 0)
(0.85733521 0 0)
(0.87900754 0 0)
(0.89640986 0 0)
(0.90947948 0 0)
(0.91831627 0 0)
(0.92320489 0 0)
(0.92626513 0 0)
(0.92713808 0 0)
(0.92751584 0 0)
(0.9281928 0 0)
(0.92761235 0 0)
(0.927483 0 0)
(0.92748951 0 0)
(0.92711787 0 0)
(0.92674614 0 0)
(0.92631724 0 0)
(0.92591715 0 0)
(0.9255154 0 0)
(0.92504849 0 0)
(0.92443672 0 0)
(0.92347865 0 0)
(0.92208355 0 0)
(0.92000133 0 0)
(0.91703738 0 0)
(0.91286452 0 0)
(0.9069877 0 0)
(0.89920225 0 0)
(0.88855238 0 0)
(0.87437325 0 0)
(0.85624965 0 0)
(0.83243149 0 0)
(0.80135316 0 0)
(0.76166151 0 0)
(0.71160916 0 0)
(0.64951441 0 0)
(0.57425646 0 0)
(0.48622408 0 0)
(0.3887479 0 0)
(0.28928796 0 0)
(0.19847474 0 0)
(0.12571436 0 0)
(0.074423765 0 0)
(0.041867329 0 0)
(0.022725394 0 0)
(0.012051374 0 0)
(0.0063008184 0 0)
(0.003266446 0 0)
(0.0016844313 0 0)
(0.00086543067 0 0)
(0.00044334345 0 0)
(0.00022652378 0 0)
(0.00011545084 0 0)
(5.8693936e-05 0 0)
(2.97638e-05 0 0)
(1.5054413e-05 0 0)
(7.5944979e-06 0 0)
(3.8210176e-06 0 0)
(1.9173158e-06 0 0)
(9.5945751e-07 0 0)
(4.788309e-07 0 0)
(2.3829821e-07 0 0)
(1.1825147e-07 0 0)
(5.8536441e-08 0 0)
(2.8887135e-08 0 0)
(1.4213713e-08 0 0)
(6.9873148e-09 0 0)
(3.4003177e-09 0 0)
(1.6612208e-09 0 0)
(8.0358721e-10 0 0)
(3.8289179e-10 0 0)
(1.4126402e-10 0 0)
(7.7055323e-11 0 0)
(4.0057944e-13 0 0)
(1.030285e-11 0 0)
(-1.106172e-11 0 0)
(-5.7565119e-12 0 0)
(5.3629251e-12 0 0)
(2.0623237e-11 0 0)
(-2.8138236e-12 0 0)
(7.1121997e-12 0 0)
(-1.6877836e-12 0 0)
(1.1891848e-11 0 0)
(-4.6966246e-12 0 0)
(3.9259116e-11 0 0)
(6.3042701e-12 0 0)
(3.2443716e-12 0 0)
(7.5264314e-12 0 0)
(9.8413344e-12 0 0)
(2.4937152e-12 0 0)
(5.3357314e-12 0 0)
(2.942766e-11 0 0)
(2.323394e-11 0 0)
(2.6851365e-11 0 0)
(8.3277013e-12 0 0)
(5.548841e-12 0 0)
(1.4196096e-11 0 0)
(-1.3341659e-11 0 0)
(8.7384922e-12 0 0)
(-1.9094841e-11 0 0)
(3.2370459e-12 0 0)
(-1.5223684e-11 0 0)
(-7.0208511e-12 0 0)
(-1.3550884e-11 0 0)
(-1.2201634e-12 0 0)
(-6.3196984e-12 0 0)
(1.9128806e-12 0 0)
(3.789244e-12 0 0)
(7.0481558e-12 0 0)
(5.384347e-13 0 0)
(2.9042842e-12 0 0)
(-1.8988953e-12 0 0)
(1.0459019e-12 0 0)
(4.0974759e-12 0 0)
(-7.8317776e-13 0 0)
(-3.512146e-11 0 0)
(-2.2289487e-11 0 0)
(-2.689321e-11 0 0)
(-3.0765589e-11 0 0)
(-1.9609523e-11 0 0)
(-2.5923228e-11 0 0)
(-9.8737448e-12 0 0)
(-4.3970836e-11 0 0)
(-1.840612e-11 0 0)
(-1.0231591e-11 0 0)
(-1.329704e-11 0 0)
(-1.6617664e-11 0 0)
(-1.1374059e-11 0 0)
(-3.026689e-11 0 0)
(-1.3425904e-11 0 0)
(8.1806335e-12 0 0)
(-5.3310696e-13 0 0)
(5.6357498e-12 0 0)
(-1.743969e-11 0 0)
(-1.4674593e-12 0 0)
(-1.1869094e-11 0 0)
(-3.5547124e-12 0 0)
(4.2972661e-12 0 0)
(-2.252524e-12 0 0)
(-1.1803053e-11 0 0)
(3.0206398e-11 0 0)
(7.3556108e-12 0 0)
(3.3400378e-11 0 0)
(2.3909786e-11 0 0)
(1.1713924e-11 0 0)
(1.7893547e-11 0 0)
(-1.8666069e-11 0 0)
(5.589354e-12 0 0)
(-2.527391e-11 0 0)
(-6.4431243e-12 0 0)
(-3.7227471e-11 0 0)
(-4.5342396e-12 0 0)
(-1.0939071e-11 0 0)
(1.4059017e-11 0 0)
(1.7952485e-11 0 0)
(3.8654195e-11 0 0)
(5.7302062e-12 0 0)
(-6.859798e-12 0 0)
(-3.2562924e-11 0 0)
(2.0928583e-11 0 0)
(3.8520891e-11 0 0)
(8.7186242e-12 0 0)
(8.8831182e-12 0 0)
(1.6341066e-11 0 0)
(7.6283245e-12 0 0)
(-1.0865037e-11 0 0)
(-1.8623004e-11 0 0)
(-3.0940849e-12 0 0)
(1.9114932e-11 0 0)
(2.9061489e-11 0 0)
(7.6559621e-12 0 0)
(-1.8325427e-11 0 0)
(-7.9838401e-12 0 0)
(1.4193987e-12 0 0)
(4.7692151e-12 0 0)
(-1.7781332e-12 0 0)
(-1.1825363e-12 0 0)
(-1.2294204e-11 0 0)
(5.160804e-12 0 0)
(-6.43036e-12 0 0)
(-1.3280501e-12 0 0)
(-2.1257682e-11 0 0)
(-3.2969275e-11 0 0)
(-3.6031615e-11 0 0)
(-3.3517033e-11 0 0)
(-1.8544197e-11 0 0)
(-3.3542784e-11 0 0)
(-1.6893819e-11 0 0)
(-7.536421e-12 0 0)
(-4.1870485e-11 0 0)
(-8.804423e-12 0 0)
(-2.6220028e-11 0 0)
(7.2356256e-12 0 0)
(-1.7642144e-11 0 0)
(1.0506636e-11 0 0)
(-5.5864682e-12 0 0)
(-6.2760775e-12 0 0)
(1.1812709e-11 0 0)
(1.6080118e-11 0 0)
(-1.1487939e-11 0 0)
(-3.5267196e-11 0 0)
(-1.7901206e-11 0 0)
(-6.3178115e-12 0 0)
(-3.7704859e-13 0 0)
(1.3153524e-11 0 0)
(1.1523568e-11 0 0)
(1.1332991e-11 0 0)
(1.6516992e-11 0 0)
(-5.1152962e-12 0 0)
(1.5071621e-11 0 0)
(2.5667053e-11 0 0)
(3.4832652e-11 0 0)
(2.9279149e-11 0 0)
(4.2678415e-11 0 0)
(3.8874409e-11 0 0)
(5.0396978e-11 0 0)
(7.1469521e-11 0 0)
(5.7958817e-11 0 0)
(6.5549292e-11 0 0)
(3.7501961e-11 0 0)
(4.022155e-11 0 0)
(2.6326027e-11 0 0)
(1.4080328e-11 0 0)
(-8.497523e-12 0 0)
(-1.6443625e-11 0 0)
(-4.259972e-12 0 0)
(-2.4156416e-11 0 0)
(-3.1974209e-12 0 0)
(-2.2268399e-11 0 0)
(-4.0451974e-11 0 0)
(-3.4524531e-11 0 0)
(-1.3483289e-11 0 0)
(-9.3507383e-12 0 0)
(-3.0991684e-11 0 0)
(-1.0340366e-11 0 0)
(-3.6635093e-11 0 0)
(-7.3535019e-12 0 0)
(-2.9797716e-11 0 0)
(-2.0007661e-11 0 0)
(-3.0483662e-11 0 0)
(-2.2242426e-11 0 0)
(-8.7904377e-12 0 0)
(-3.1626906e-11 0 0)
(-4.1254465e-11 0 0)
(-2.706403e-11 0 0)
(-4.361976e-12 0 0)
(-1.4777374e-11 0 0)
(-2.7188677e-11 0 0)
(1.2305969e-12 0 0)
(-2.4495172e-11 0 0)
(-2.6384743e-11 0 0)
(-1.2703885e-11 0 0)
(-1.0904107e-11 0 0)
(2.0866537e-11 0 0)
(1.217999e-11 0 0)
(2.2971327e-11 0 0)
(2.8313052e-11 0 0)
(2.3163681e-11 0 0)
(4.2043637e-12 0 0)
(2.8855261e-12 0 0)
(2.0122207e-12 0 0)
(-2.0625568e-11 0 0)
(-4.461527e-11 0 0)
(-1.9099059e-11 0 0)
(-1.1246304e-11 0 0)
(2.3408424e-11 0 0)
(1.872523e-11 0 0)
(3.6025067e-11 0 0)
(-1.653797e-11 0 0)
(-5.8546311e-12 0 0)
(7.9145795e-12 0 0)
(-1.7760132e-11 0 0)
(-6.1503206e-12 0 0)
(-1.0715417e-12 0 0)
(-2.2613814e-11 0 0)
(-2.1105952e-11 0 0)
(-5.3609161e-11 0 0)
(-1.7344013e-11 0 0)
(-2.7717455e-11 0 0)
(2.7602132e-12 0 0)
(-1.3208244e-11 0 0)
(-2.3585238e-12 0 0)
(-2.3508208e-11 0 0)
(1.6880833e-11 0 0)
(-7.5044545e-12 0 0)
(2.3406426e-11 0 0)
(1.2180878e-11 0 0)
(1.52925e-11 0 0)
(-4.3979382e-12 0 0)
(-1.2728414e-11 0 0)
(-4.3182441e-12 0 0)
(2.3599778e-11 0 0)
(1.6540412e-11 0 0)
(-7.9734066e-12 0 0)
(-1.0978474e-11 0 0)
(-5.9547482e-12 0 0)
(-5.5119908e-13 0 0)
(-4.6800531e-11 0 0)
(-3.0782793e-11 0 0)
(-2.0092794e-11 0 0)
(-3.0046233e-12 0 0)
(1.090444e-11 0 0)
(7.4995707e-12 0 0)
(1.7045771e-11 0 0)
(1.2588783e-11 0 0)
(-3.152468e-12 0 0)
(3.6168694e-12 0 0)
(-1.4312307e-11 0 0)
(-2.843226e-11 0 0)
(-1.5141659e-11 0 0)
(-6.2227335e-11 0 0)
(-1.206944e-11 0 0)
(-1.9349352e-11 0 0)
(4.0957002e-14 0 0)
(1.1343091e-11 0 0)
(1.4425965e-12 0 0)
(9.6798373e-13 0 0)
(5.2766823e-12 0 0)
(2.7534425e-12 0 0)
(2.7143946e-11 0 0)
(1.3013004e-12 0 0)
(6.0051397e-12 0 0)
(-7.1498268e-12 0 0)
(-2.7121525e-12 0 0)
(-1.8247509e-12 0 0)
(1.5428246e-12 0 0)
(-8.906538e-12 0 0)
(-9.5162313e-12 0 0)
(-1.9084297e-11 0 0)
(-1.0003497e-11 0 0)
(-9.0571577e-12 0 0)
(2.4065845e-12 0 0)
(2.178202e-11 0 0)
(-1.2315404e-11 0 0)
(-2.3701006e-11 0 0)
(-4.3971058e-11 0 0)
(-3.1346312e-11 0 0)
(-1.5227568e-11 0 0)
(7.966414e-12 0 0)
(-2.0053613e-11 0 0)
(-2.3652057e-11 0 0)
(-3.4793471e-12 0 0)
(4.3064787e-12 0 0)
(-6.490297e-12 0 0)
(-6.5873063e-12 0 0)
(-5.3983324e-12 0 0)
(-7.433973e-12 0 0)
(-7.3457323e-12 0 0)
(2.1564693e-11 0 0)
(-8.1660932e-12 0 0)
(2.0816811e-11 0 0)
(7.0377223e-12 0 0)
(1.6618552e-11 0 0)
(2.1092189e-11 0 0)
(2.0294693e-11 0 0)
(3.8554411e-11 0 0)
(1.4443392e-11 0 0)
(2.44793e-11 0 0)
(1.4907904e-11 0 0)
(1.6824114e-11 0 0)
(-1.3150083e-11 0 0)
(1.2501319e-12 0 0)
(-1.1300136e-11 0 0)
(-1.0272548e-12 0 0)
(1.9955271e-11 0 0)
(-8.0417793e-12 0 0)
(-8.3581138e-12 0 0)
(-1.4617875e-11 0 0)
(-4.1264455e-12 0 0)
(4.8850934e-12 0 0)
(7.4488462e-12 0 0)
(6.3737527e-12 0 0)
(-4.9241635e-12 0 0)
(6.7306003e-12 0 0)
(-4.1109062e-12 0 0)
(7.4559499e-12 0 0)
(7.0588113e-12 0 0)
(-2.4998199e-12 0 0)
(-3.2065224e-12 0 0)
(-4.4908407e-12 0 0)
(-1.0897337e-11 0 0)
(-2.8654916e-11 0 0)
(1.7470547e-12 0 0)
(8.2801956e-12 0 0)
(6.1778473e-12 0 0)
(-1.6094214e-13 0 0)
(-2.4371635e-11 0 0)
(-9.8387815e-12 0 0)
(1.5961243e-11 0 0)
(2.3641956e-11 0 0)
(1.8196451e-12 0 0)
(-3.2553711e-11 0 0)
(-5.9983691e-12 0 0)
(-2.696136e-11 0 0)
(-1.3961342e-11 0 0)
(-4.5846311e-12 0 0)
(-2.2830475e-11 0 0)
(1.6527093e-13 0 0)
(-1.0962269e-11 0 0)
(-1.375245e-11 0 0)
(-3.188064e-11 0 0)
(2.0179924e-12 0 0)
(-7.5903643e-12 0 0)
(1.6807909e-11 0 0)
(2.9379155e-12 0 0)
(8.6548023e-12 0 0)
(-1.7061865e-11 0 0)
(-2.4445113e-11 0 0)
(-3.3807728e-11 0 0)
(-1.5500282e-11 0 0)
(-2.076198e-11 0 0)
(-2.2329113e-11 0 0)
(-4.0630232e-11 0 0)
(-4.3055463e-11 0 0)
(-2.1764594e-11 0 0)
(1.6545962e-12 0 0)
(-1.083074e-11 0 0)
(-2.3649615e-12 0 0)
(-6.1040359e-12 0 0)
(2.1835409e-11 0 0)
(2.5418425e-11 0 0)
(2.2769206e-11 0 0)
(3.1986529e-11 0 0)
(1.6308434e-11 0 0)
(1.1888629e-12 0 0)
(-5.8736112e-12 0 0)
(-1.5943261e-12 0 0)
(9.2276454e-12 0 0)
(3.1926481e-12 0 0)
(-2.1413962e-11 0 0)
(-2.1460358e-11 0 0)
(-9.6694038e-12 0 0)
(-2.0786288e-11 0 0)
(-1.0294969e-11 0 0)
(-2.7329085e-12 0 0)
(-1.880448e-11 0 0)
(-9.1239764e-12 0 0)
(1.1654431e-12 0 0)
(9.2523971e-12 0 0)
(2.1578345e-11 0 0)
(3.0653262e-11 0 0)
(8.7622451e-12 0 0)
(2.1720529e-12 0 0)
(8.6662348e-12 0 0)
(3.1148409e-12 0 0)
(1.1548098e-11 0 0)
(1.9886344e-11 0 0)
(3.0007385e-11 0 0)
(7.7856038e-12 0 0)
(1.084306e-12 0 0)
(-3.2711213e-12 0 0)
(-2.3664599e-11 0 0)
(-1.29958e-11 0 0)
(-6.6354779e-12 0 0)
(7.2138707e-12 0 0)
(-1.0414954e-11 0 0)
(-1.0538158e-11 0 0)
(-1.2007172e-11 0 0)
(-2.2206685e-12 0 0)
(6.0833909e-12 0 0)
(-5.8608468e-12 0 0)
(-5.2247368e-12 0 0)
(-3.9873693e-12 0 0)
(2.0332542e-11 0 0)
(-6.3081549e-12 0 0)
(1.8547416e-11 0 0)
(-2.0842895e-11 0 0)
(1.9311947e-12 0 0)
(1.9772796e-11 0 0)
(2.2712599e-11 0 0)
(2.175072e-11 0 0)
(-2.6026009e-12 0 0)
(2.8300732e-11 0 0)
(8.8739056e-12 0 0)
(1.2666035e-11 0 0)
(-6.757128e-12 0 0)
(-6.2915057e-12 0 0)
(6.5031724e-13 0 0)
(-1.024813e-12 0 0)
(-1.0828409e-11 0 0)
(5.2530405e-12 0 0)
(-8.8830072e-12 0 0)
(-1.3301812e-11 0 0)
(-6.2378954e-12 0 0)
(-2.8382535e-11 0 0)
(-3.8803706e-13 0 0)
(-2.450061e-11 0 0)
(5.8485264e-12 0 0)
(-9.726788e-12 0 0)
(9.3400829e-12 0 0)
(3.5898977e-12 0 0)
(2.1741618e-12 0 0)
(3.3932486e-11 0 0)
(2.5227958e-11 0 0)
(1.3540562e-11 0 0)
(3.7621502e-11 0 0)
(3.5021454e-11 0 0)
(3.4527195e-11 0 0)
(3.6858525e-11 0 0)
(1.9541817e-11 0 0)
(3.4146706e-21 0 0)
)
;

boundaryField
{
    sides
    {
        type            zeroGradient;
    }
    emptywalls
    {
        type            empty;
    }
}


// ************************************************************************* //
