/*--------------------------------*- C++ -*----------------------------------*\
| =========                 |                                                 |
| \\      /  F ield         | OpenFOAM: The Open Source CFD Toolbox           |
|  \\    /   O peration     | Version:  2112                                  |
|   \\  /    A nd           | Website:  www.openfoam.com                      |
|    \\/     M anipulation  |                                                 |
\*---------------------------------------------------------------------------*/
FoamFile
{
    version     2.0;
    format      ascii;
    arch        "LSB;label=32;scalar=64";
    class       volScalarField;
    location    "4";
    object      T;
}
// * * * * * * * * * * * * * * * * * * * * * * * * * * * * * * * * * * * * * //

dimensions      [0 0 0 1 0 0 0];

internalField   nonuniform List<scalar> 
1000
(
0
0
0
0
0
0
0
0
0
0
0
0
0
0
0
0
0
0
0
0
0
0
0
0
0
0
0
0
0
0
0
0
0
0
0
0
0
0
0
0
0
0
0
0
0
0
0
0
0
0
0
0
0
0
0
0
0
0
0
0
0
0
0
0
0
0
0
0
0
0
0
0
0
0
0
0
0
0
0
0
0
0
0
0
0
0
0
0
0
0
0
0
0
0
0
0
0
0
0
-2.96439e-323
1.92686e-321
-1.128e-319
6.45068e-318
-3.60756e-316
1.97366e-314
-1.05664e-312
5.53753e-311
-2.84166e-309
1.42831e-307
-7.0338e-306
3.39465e-304
-1.60603e-302
7.45033e-301
-3.38975e-299
1.51298e-297
-6.62637e-296
2.84832e-294
-1.20189e-292
4.97966e-291
-2.02618e-289
8.09811e-288
-3.17981e-286
1.2269e-284
-4.65251e-283
1.73424e-281
-6.35546e-280
2.29019e-278
-8.11622e-277
2.82916e-275
-9.70175e-274
3.27335e-272
-1.08679e-270
3.55116e-269
-1.14215e-267
3.61626e-266
-1.12729e-264
3.46023e-263
-1.04596e-261
3.11402e-260
-9.13206e-259
2.63819e-257
-7.50895e-256
2.10588e-254
-5.81984e-253
1.5851e-251
-4.25509e-250
1.12593e-248
-2.93697e-247
7.5529e-246
-1.9151e-244
4.78814e-243
-1.18053e-241
2.87047e-240
-6.88387e-239
1.62834e-237
-3.79946e-236
8.7457e-235
-1.98606e-233
4.44984e-232
-9.83736e-231
2.14596e-229
-4.61957e-228
9.81395e-227
-2.05765e-225
4.25806e-224
-8.69735e-223
1.75356e-221
-3.49006e-220
6.8572e-219
-1.3301e-217
2.5472e-216
-4.81621e-215
8.99142e-214
-1.65749e-212
3.01711e-211
-5.42333e-210
9.62702e-209
-1.68766e-207
2.92186e-206
-4.99611e-205
8.43754e-204
-1.40742e-202
2.31884e-201
-3.7737e-200
6.06635e-199
-9.63298e-198
1.51105e-196
-2.34149e-195
3.58436e-194
-5.42056e-193
8.09842e-192
-1.19533e-190
1.74306e-189
-2.51122e-188
3.57446e-187
-5.02683e-186
6.98461e-185
-9.5887e-184
1.30062e-182
-1.74309e-181
2.30819e-180
-3.02e-179
3.90418e-178
-4.98702e-177
6.29422e-176
-7.84935e-175
9.672e-174
-1.17758e-172
1.41662e-171
-1.68386e-170
1.97762e-169
-2.2949e-168
2.63128e-167
-2.98089e-166
3.33654e-165
-3.68991e-164
4.03177e-163
-4.35243e-162
4.64212e-161
-4.89149e-160
5.09213e-159
-5.23698e-158
5.3208e-157
-5.34044e-156
5.29504e-155
-5.18612e-154
5.01746e-153
-4.79491e-152
4.52602e-151
-4.21967e-150
3.88553e-149
-3.53358e-148
3.17361e-147
-2.8148e-146
2.46535e-145
-2.13219e-144
1.82082e-143
-1.53524e-142
1.27801e-141
-1.0503e-140
8.52092e-140
-6.82381e-139
5.39392e-138
-4.20813e-137
3.24003e-136
-2.46178e-135
1.84567e-134
-1.36531e-133
9.96401e-133
-7.17343e-132
5.09408e-131
-3.56784e-130
2.46433e-129
-1.6784e-128
1.12705e-127
-7.46083e-127
4.86821e-126
-3.13061e-125
1.98381e-124
-1.23855e-123
7.61733e-123
-4.61408e-122
2.75222e-121
-1.61625e-120
9.34271e-120
-5.31467e-119
2.97451e-118
-1.6375e-117
8.86443e-117
-4.71737e-116
2.46712e-115
-1.26758e-114
6.39571e-114
-3.16782e-113
1.53957e-112
-7.33832e-112
3.42864e-111
-1.56935e-110
7.0325e-110
-3.083e-109
1.32115e-108
-5.52895e-108
2.25722e-107
-8.97847e-107
3.47446e-106
-1.30576e-105
4.75546e-105
-1.67383e-104
5.67442e-104
-1.84434e-103
5.71093e-103
-1.669e-102
4.53506e-102
-1.11522e-101
2.33961e-101
-3.46774e-101
-6.05594e-102
3.14373e-100
-1.59679e-99
5.73871e-99
-1.66162e-98
3.85185e-98
-6.15334e-98
1.85326e-99
4.72577e-97
-2.30613e-96
7.40181e-96
-1.73528e-95
2.47217e-95
1.74621e-95
-2.67292e-94
1.08067e-93
-2.84376e-93
4.55736e-93
1.09322e-93
-3.83194e-92
1.56142e-91
-3.81895e-91
4.66532e-91
8.23665e-91
-6.71475e-90
2.12638e-89
-3.7288e-89
-2.89868e-90
2.73117e-88
-1.0325e-87
2.035e-87
-5.2237e-88
-1.20471e-86
4.78162e-86
-9.15254e-86
4.42452e-87
6.00441e-85
-2.12862e-84
3.34868e-84
2.69046e-84
-3.11342e-83
8.58366e-83
-7.85215e-83
-3.02833e-82
1.47552e-81
-2.7117e-81
-9.84023e-82
2.02708e-80
-5.52743e-80
3.7865e-80
2.34355e-79
-9.18836e-79
1.18809e-78
2.29967e-78
-1.37224e-77
2.37953e-77
1.86817e-77
-1.93945e-76
4.00179e-76
1.1838e-76
-2.68738e-75
6.09859e-75
6.41037e-76
-3.73598e-74
8.66724e-74
1.04475e-74
-5.25614e-73
1.15508e-72
3.79699e-73
-7.43105e-72
1.42386e-71
1.10111e-71
-1.03453e-70
1.55899e-70
2.52855e-70
-1.37659e-69
1.36003e-69
4.8693e-69
-1.68239e-68
5.52231e-69
8.0553e-68
-1.77324e-67
-1.11647e-67
1.14131e-66
-1.38915e-66
-3.65156e-66
1.3393e-65
-2.8893e-66
-6.49699e-65
1.17392e-64
1.53082e-64
-8.33467e-64
4.55921e-64
3.56865e-63
-7.38101e-63
-7.66945e-63
4.73955e-62
-2.494e-62
-2.0255e-61
3.80966e-61
5.21363e-61
-2.49619e-60
4.20854e-61
1.16079e-59
-1.51185e-59
-3.91111e-59
1.14114e-58
6.71093e-59
-6.08365e-58
2.83586e-58
2.58252e-57
-3.72756e-57
-8.64021e-57
2.48163e-56
1.87511e-56
-1.29209e-55
1.70302e-56
5.74143e-55
-5.02413e-55
-2.22696e-54
3.78471e-54
7.43566e-54
-2.15438e-53
-1.97587e-53
1.06414e-52
2.72361e-53
-4.78984e-52
1.24556e-52
2.01217e-51
-1.45536e-51
-8.00011e-51
9.46684e-51
3.03877e-50
-5.0917e-50
-1.11086e-49
2.4783e-49
3.93546e-49
-1.13277e-48
-1.36218e-48
4.95791e-48
4.65819e-48
-2.10254e-47
-1.59926e-47
8.70532e-47
5.63275e-47
-3.5362e-46
-2.08417e-46
1.41323e-45
8.23923e-46
-5.56211e-45
-3.4823e-45
2.15419e-44
1.54859e-44
-8.18909e-44
-7.0775e-44
3.04162e-43
3.25251e-43
-1.0959e-42
-1.47863e-42
3.78795e-42
6.57513e-42
-1.23338e-41
-2.83682e-41
3.65706e-41
1.17953e-40
-9.11781e-41
-4.69361e-40
1.39749e-40
1.77184e-39
2.98816e-40
-6.26473e-39
-4.18505e-39
2.03061e-38
2.58563e-38
-5.7826e-38
-1.25017e-37
1.29326e-37
5.19299e-37
-1.21514e-37
-1.8905e-36
-8.58719e-37
5.94034e-36
7.21612e-36
-1.50712e-35
-3.60538e-35
2.33649e-35
1.40823e-34
3.56455e-35
-4.44135e-34
-4.97745e-34
1.04937e-33
2.58877e-33
-1.12475e-33
-9.58564e-33
-5.36811e-33
2.62139e-32
4.32753e-32
-4.18622e-32
-1.82786e-31
-5.46882e-32
5.29562e-31
7.43907e-31
-8.76297e-31
-3.33643e-30
-9.90128e-31
9.38732e-30
1.40356e-29
-1.28044e-29
-5.91307e-29
-3.2151e-29
1.43409e-28
2.78679e-28
-8.72027e-29
-9.65742e-28
-9.92701e-28
1.62588e-27
5.18324e-27
2.11282e-27
-1.26978e-26
-2.39685e-26
4.25112e-27
7.74144e-26
9.87908e-26
-8.51044e-26
-4.16432e-25
-3.70082e-25
6.61741e-25
2.08658e-24
1.2857e-24
-4.04725e-24
-1.00701e-23
-4.3314e-24
2.19459e-23
4.79192e-23
1.58079e-23
-1.10033e-22
-2.28197e-22
-7.34483e-23
5.17315e-22
1.09294e-21
4.4457e-22
-2.27019e-21
-5.23406e-21
-3.0122e-21
9.05503e-21
2.46636e-20
2.0114e-20
-3.05126e-20
-1.11447e-19
-1.25305e-19
6.61716e-20
4.64573e-19
7.11009e-19
1.22775e-19
-1.66762e-18
-3.596e-18
-2.65396e-18
4.28123e-18
1.56165e-17
2.02073e-17
-8.72247e-20
-5.33204e-17
-1.09763e-16
-8.85422e-17
1.0115e-16
4.43478e-16
6.7802e-16
2.99601e-16
-1.10694e-15
-3.16715e-15
-4.0543e-15
-7.70173e-16
8.66827e-15
2.12153e-14
2.53527e-14
3.14858e-15
-5.71006e-14
-1.37975e-13
-1.72095e-13
-4.9476e-14
3.17355e-13
8.64193e-13
1.23433e-12
7.57317e-13
-1.27503e-12
-4.92549e-12
-8.66557e-12
-8.73776e-12
1.81336e-13
2.19785e-11
5.35181e-11
7.81594e-11
6.28439e-11
-3.43753e-11
-2.39714e-10
-5.20827e-10
-7.37234e-10
-6.13749e-10
2.15674e-10
2.04164e-09
4.76317e-09
7.46325e-09
8.0332e-09
3.1472e-09
-1.09945e-08
-3.67298e-08
-7.16012e-08
-1.03966e-07
-1.08805e-07
-4.61953e-08
1.33834e-07
4.75546e-07
9.86612e-07
1.59012e-06
2.06252e-06
1.96874e-06
6.17695e-07
-2.92433e-06
-9.70874e-06
-2.05998e-05
-3.57108e-05
-5.34991e-05
-6.94469e-05
-7.4275e-05
-5.16776e-05
2.43876e-05
0.000192751
0.000508257
0.00104493
0.00189879
0.00318998
0.00506389
0.00769092
0.0112647
0.0159985
0.0221198
0.0298633
0.0394626
0.0511398
0.0650963
0.0815014
0.100484
0.122121
0.146436
0.17339
0.202879
0.234739
0.268746
0.304622
0.342043
0.380653
0.420067
0.459891
0.499728
0.539192
0.577918
0.615571
0.651852
0.686506
0.719324
0.750142
0.778848
0.805371
0.829688
0.851811
0.871787
0.889692
0.905626
0.919705
0.932058
0.942825
0.952145
0.960161
0.96701
0.972825
0.977732
0.981847
0.985278
0.98812
0.990462
0.99238
0.993942
0.995207
0.996226
0.997043
0.997694
0.99821
0.998616
0.998936
0.999185
0.999379
0.999528
0.999644
0.999732
0.999799
0.99985
0.999889
0.999918
0.999939
0.999955
0.999967
0.999976
0.999983
0.999988
0.999991
0.999994
0.999995
0.999997
0.999998
0.999998
0.999999
0.999999
0.999998
0.999998
0.999998
0.999998
0.999999
1
1.00001
1.00002
1.00004
1.00005
1.00007
1.00007
1.00005
0.999976
0.999807
0.999492
0.998955
0.998101
0.99681
0.994936
0.992309
0.988735
0.984002
0.97788
0.970137
0.960537
0.94886
0.934904
0.918499
0.899516
0.877879
0.853564
0.82661
0.797121
0.765261
0.731254
0.695378
0.657957
0.619347
0.579933
0.540109
0.500272
0.460808
0.422082
0.384429
0.348148
0.313494
0.280676
0.249858
0.221152
0.194629
0.170312
0.148189
0.128213
0.110308
0.0943742
0.0802954
0.0679417
0.0571753
0.0478549
0.0398392
0.03299
0.0271746
0.0222677
0.0181526
0.0147224
0.01188
0.00953841
0.00762039
0.00605822
0.00479294
0.00377372
0.00295714
0.00230638
0.00179047
0.00138359
0.00106431
0.000815032
0.000621366
0.000471638
0.000356433
0.000268212
0.000200969
0.000149951
0.00011142
8.24491e-05
6.07632e-05
4.46011e-05
3.26077e-05
2.37456e-05
1.72247e-05
1.24465e-05
8.95956e-06
6.42521e-06
4.59057e-06
3.26771e-06
2.31757e-06
1.63778e-06
1.15325e-06
8.09199e-07
5.65806e-07
3.94254e-07
2.73777e-07
1.89472e-07
1.30688e-07
8.98426e-08
6.15606e-08
4.20446e-08
2.86233e-08
1.94243e-08
1.31402e-08
8.86134e-09
5.95738e-09
3.99285e-09
2.66805e-09
1.77747e-09
1.18065e-09
7.81917e-10
5.16341e-10
3.39985e-10
2.23225e-10
1.46149e-10
9.54191e-11
6.21253e-11
4.03374e-11
2.61195e-11
1.68675e-11
1.08637e-11
6.97839e-12
4.47089e-12
2.85697e-12
1.82096e-12
1.15767e-12
7.34135e-13
4.64386e-13
2.93025e-13
1.84444e-13
1.15815e-13
7.25465e-14
4.53347e-14
2.82627e-14
1.75783e-14
1.09076e-14
6.75272e-15
4.17094e-15
2.57042e-15
1.58051e-15
9.69666e-16
5.93591e-16
3.62577e-16
2.20988e-16
1.34401e-16
8.1566e-17
4.93963e-17
2.98516e-17
1.80027e-17
1.08345e-17
6.50714e-18
3.90022e-18
2.33299e-18
1.39274e-18
8.29781e-19
4.93405e-19
2.92818e-19
1.7344e-19
1.02534e-19
6.05008e-20
3.56314e-20
2.09455e-20
1.22897e-20
7.19761e-21
4.20767e-21
2.45531e-21
1.43017e-21
8.31557e-22
4.82643e-22
2.79637e-22
1.61735e-22
9.33816e-23
5.38233e-23
3.09697e-23
1.77896e-23
1.02016e-23
5.84037e-24
3.33805e-24
1.90472e-24
1.08508e-24
6.17142e-25
3.50437e-25
1.98674e-25
1.12456e-25
6.35535e-26
3.58605e-26
2.02032e-26
1.13646e-26
6.38296e-27
3.57957e-27
2.00439e-27
1.12069e-27
6.25662e-28
3.48781e-28
1.94146e-28
1.07912e-28
5.98942e-29
3.31951e-29
1.83714e-29
1.0153e-29
5.60321e-30
3.08795e-30
1.69942e-30
9.33964e-31
5.12584e-31
2.80936e-31
1.53767e-31
8.40495e-32
4.58804e-32
2.50117e-32
1.36171e-32
7.4039e-33
4.02041e-33
2.18031e-33
1.18089e-33
6.38771e-34
3.45089e-34
1.86196e-34
1.00338e-34
5.40033e-35
2.90295e-35
1.55856e-35
8.35755e-36
4.47618e-36
2.39448e-36
1.27937e-36
6.82754e-37
3.6393e-37
1.93759e-37
1.03038e-37
5.47303e-38
2.90374e-38
1.53883e-38
8.14564e-39
4.30694e-39
2.2747e-39
1.20003e-39
6.32376e-40
3.32873e-40
1.75027e-40
9.19295e-41
4.82318e-41
2.52779e-41
1.32338e-41
6.92088e-42
3.61558e-42
1.88684e-42
9.83641e-43
5.12253e-43
2.66491e-43
1.38494e-43
7.19008e-44
3.72901e-44
1.93203e-44
9.99985e-45
5.17057e-45
2.67086e-45
1.37826e-45
7.10531e-46
3.65939e-46
1.88283e-46
9.67814e-47
4.96996e-47
2.54975e-47
1.30686e-47
6.69183e-48
3.42336e-48
1.74965e-48
8.93399e-49
4.55759e-49
2.32287e-49
1.18281e-49
6.01736e-50
3.05846e-50
1.55313e-50
7.87991e-51
3.99435e-51
2.02294e-51
1.02362e-51
5.17496e-52
2.61394e-52
1.31921e-52
6.64996e-53
3.37194e-53
1.45776e-53
)
;

boundaryField
{
    sides
    {
        type            zeroGradient;
    }
    empty
    {
        type            empty;
    }
}


// ************************************************************************* //
