/*--------------------------------*- C++ -*----------------------------------*\
| =========                 |                                                 |
| \\      /  F ield         | OpenFOAM: The Open Source CFD Toolbox           |
|  \\    /   O peration     | Version:  2112                                  |
|   \\  /    A nd           | Website:  www.openfoam.com                      |
|    \\/     M anipulation  |                                                 |
\*---------------------------------------------------------------------------*/
FoamFile
{
    version     2.0;
    format      ascii;
    arch        "LSB;label=32;scalar=64";
    class       volScalarField;
    location    "50";
    object      p;
}
// * * * * * * * * * * * * * * * * * * * * * * * * * * * * * * * * * * * * * //

dimensions      [0 2 -2 0 0 0 0];

internalField   nonuniform List<scalar> 
400
(
2.5596453e-10
-0.00067287572
-0.0013853535
-0.0019427118
-0.0022200054
-0.0021565022
-0.0017277973
-0.0009262068
0.00023541266
0.0017073965
0.0033872778
0.0051121909
0.0066734766
0.0078491049
0.0084583957
0.0084236918
0.0078134016
0.0068445151
0.0058612894
0.0052989298
0.00065783893
-4.0528418e-05
-0.00056966195
-0.00094062757
-0.0011108657
-0.0010399241
-0.0007057934
-9.5547629e-05
0.00078909541
0.0019161791
0.0032095756
0.004554695
0.0057819567
0.0067162542
0.0072144238
0.0072145292
0.0067699543
0.0060527649
0.0053105187
0.0047384742
0.0014236964
0.00044064663
-0.00011660322
-0.0004532459
-0.00061481074
-0.00058481374
-0.00034658343
0.00011973931
0.00082845426
0.0017698971
0.0028942758
0.0040981428
0.0052282168
0.0061109542
0.0065938553
0.0065976564
0.0061557337
0.0054215068
0.0045937378
0.0037482238
0.0020141912
0.00068168124
1.6764633e-05
-0.00035885772
-0.00057155308
-0.00062656315
-0.00051008706
-0.00019063664
0.00036849532
0.0011843782
0.0022299004
0.0034174054
0.0045913399
0.005556918
0.0061235391
0.0061665538
0.0056836175
0.0048170464
0.0037472847
0.0024735902
0.0021672615
0.00049611087
-0.00029626592
-0.00074871242
-0.0010582602
-0.0012452768
-0.0012927551
-0.0011513092
-0.00075505657
-5.3103645e-05
0.00095702165
0.002210275
0.0035446951
0.0047326462
0.0055218291
0.0057098737
0.005229278
0.0042015948
0.0028061734
0.000983951
0.0016539521
-0.00031448797
-0.0012387957
-0.0017993094
-0.0022526716
-0.0026279197
-0.0028986313
-0.0029910916
-0.0028025442
-0.0022376809
-0.0012510957
0.00013089318
0.00174464
0.0033270954
0.0045416253
0.0050657608
0.0047174791
0.0035661832
0.0017895788
-0.00072593584
0.00028701458
-0.0019195808
-0.0029730077
-0.0036713904
-0.0043203054
-0.0049532124
-0.0055301353
-0.0059479688
-0.006059017
-0.0057073937
-0.0047757247
-0.0032587027
-0.0012665193
0.00090716176
0.0028231065
0.0039868159
0.0040250759
0.002887691
0.00071536258
-0.002680517
-0.0020764396
-0.0044512029
-0.0056268146
-0.006492331
-0.0073929264
-0.0083657719
-0.0093569386
-0.010231805
-0.010790993
-0.010804865
-0.010063383
-0.0084617805
-0.006040782
-0.0030832324
-0.00012632479
0.0021126037
0.002963808
0.0021355632
-0.00036605218
-0.0048726288
-0.0055241778
-0.0079921247
-0.0092779329
-0.0103338
-0.011538004
-0.01293542
-0.014462721
-0.015956345
-0.017162493
-0.01776606
-0.017438108
-0.015919498
-0.013122979
-0.0092517768
-0.0048990255
-0.0010300341
0.0012693908
0.0012777443
-0.0013339774
-0.0072016968
-0.010076925
-0.012565107
-0.013936678
-0.015184019
-0.016718391
-0.018602627
-0.020774204
-0.023048783
-0.025121714
-0.02658638
-0.026969376
-0.025812968
-0.022845703
-0.018074474
-0.012051114
-0.0059519738
-0.0013707589
0.00030057413
-0.0019472228
-0.0093822446
-0.015685002
-0.018132427
-0.019537571
-0.020926826
-0.022757758
-0.02512989
-0.027997012
-0.031166414
-0.034291493
-0.036876881
-0.038294206
-0.03784431
-0.035065886
-0.0296015
-0.021822525
-0.012985601
-0.0051849971
-0.00071577095
-0.0017642193
-0.010792275
-0.022243615
-0.024613057
-0.025945613
-0.027334974
-0.029324183
-0.032079258
-0.035588963
-0.039664665
-0.043927295
-0.047801337
-0.050530225
-0.051236514
-0.04895691
-0.043143578
-0.033769045
-0.021926369
-0.010036906
-0.0014154652
-9.8870289e-06
-0.010225639
-0.029641231
-0.031923918
-0.032978776
-0.034079889
-0.035939527
-0.038831552
-0.042795655
-0.047651615
-0.052990561
-0.05816362
-0.062284283
-0.064265566
-0.06287519
-0.057112217
-0.04647677
-0.031649113
-0.015037885
-0.00086441081
0.0046467439
-0.0055215563
-0.037866019
-0.040048531
-0.04044017
-0.040752549
-0.042015062
-0.044653091
-0.048758235
-0.054144101
-0.060356068
-0.066665379
-0.072060719
-0.075268313
-0.074811392
-0.069269296
-0.057628334
-0.039961533
-0.018247993
0.0027890189
0.014445139
0.0069075306
-0.047230611
-0.049134367
-0.048140595
-0.04688234
-0.046905528
-0.048798708
-0.052668315
-0.058276051
-0.065076142
-0.072232033
-0.0785958
-0.08271235
-0.082880238
-0.077309419
-0.064523965
-0.043934978
-0.016748008
0.01250293
0.032938769
0.032408939
-0.058896836
-0.0596399
-0.055883893
-0.051941083
-0.049972366
-0.050629905
-0.053928665
-0.059495366
-0.066611894
-0.074285334
-0.081191203
-0.085679436
-0.085831827
-0.079522222
-0.064876125
-0.040689289
-0.0072409384
0.032139357
0.064981437
0.077749169
-0.076226573
-0.072613798
-0.063516146
-0.055435368
-0.050725058
-0.049781642
-0.052312373
-0.057664392
-0.06489185
-0.072775005
-0.079779402
-0.084036781
-0.083391686
-0.075348991
-0.057602699
-0.028375162
0.012933311
0.065396463
0.1155515
0.15150621
-0.10809227
-0.089556471
-0.071233865
-0.057232984
-0.04907213
-0.046330239
-0.048077295
-0.053202637
-0.060434653
-0.068295897
-0.075027428
-0.078526948
-0.07638904
-0.065809706
-0.043865507
-0.0078184699
0.044393653
0.11299814
0.18838041
0.27186076
-0.17684549
-0.1082898
-0.076202598
-0.054651294
-0.042992406
-0.038998053
-0.040570539
-0.045928075
-0.05344157
-0.061438391
-0.068027618
-0.070962591
-0.067551166
-0.054739865
-0.029148841
0.013563579
0.07814694
0.17006434
0.28949545
0.47421821
-0.37208345
-0.12470848
-0.054973108
-0.031962563
-0.022063594
-0.020300553
-0.024359487
-0.031958031
-0.041261592
-0.050640919
-0.058316934
-0.062187497
-0.059782587
-0.048056841
-0.022658556
0.021474184
0.092818703
0.21015275
0.40288841
0.77640927
)
;

boundaryField
{
    movingWall
    {
        type            zeroGradient;
    }
    fixedWalls
    {
        type            zeroGradient;
    }
    frontAndBack
    {
        type            empty;
    }
}


// ************************************************************************* //
