/*--------------------------------*- C++ -*----------------------------------*\
| =========                 |                                                 |
| \\      /  F ield         | OpenFOAM: The Open Source CFD Toolbox           |
|  \\    /   O peration     | Version:  2112                                  |
|   \\  /    A nd           | Website:  www.openfoam.com                      |
|    \\/     M anipulation  |                                                 |
\*---------------------------------------------------------------------------*/
FoamFile
{
    version     2.0;
    format      ascii;
    arch        "LSB;label=32;scalar=64";
    class       volScalarField;
    location    "4.5";
    object      Ma;
}
// * * * * * * * * * * * * * * * * * * * * * * * * * * * * * * * * * * * * * //

dimensions      [0 0 0 0 0 0 0];

internalField   nonuniform List<scalar> 
7000
(
3.00001
3
3
3
3
3
3
2.99999
2.99999
2.99994
2.99989
2.99928
2.99869
2.9952
2.99248
2.97483
2.95398
2.86512
2.64574
2.17856
1.30496
0.595315
0.25573
0.340854
0.400876
0.408009
0.392007
0.368015
0.346602
0.33039
0.315784
0.300341
0.283862
0.266763
0.249347
0.231658
0.213718
0.195503
0.177115
0.1586
0.140132
0.121824
0.103895
0.0866322
0.0703349
0.0552637
0.0416136
0.0294964
0.0172039
0.00987352
3.00001
3
3
3
3
3
3
2.99999
2.99999
2.99994
2.9999
2.99931
2.99875
2.99544
2.99285
2.97616
2.95571
2.86879
2.66108
2.20812
1.34659
0.619845
0.270368
0.350605
0.411129
0.419288
0.404183
0.38109
0.360317
0.344847
0.330833
0.316068
0.300171
0.283711
0.266833
0.249734
0.232306
0.214622
0.196706
0.178617
0.160451
0.142304
0.124321
0.10651
0.0890818
0.0720884
0.0557581
0.0405643
0.0259503
0.0174091
3.00001
3
3
3
3
3
3
3
2.99999
2.99994
2.9999
2.99934
2.9988
2.99565
2.99315
2.97729
2.95686
2.86976
2.67384
2.23893
1.38919
0.640405
0.27615
0.361037
0.425953
0.435315
0.420325
0.397214
0.376646
0.36132
0.347508
0.332758
0.31705
0.300675
0.284053
0.267053
0.249856
0.232241
0.214491
0.196448
0.178361
0.160106
0.141941
0.123771
0.105751
0.0879981
0.0707263
0.0547072
0.0401666
0.0320352
3.00001
3
3
3
3
3
3
3
2.99999
2.99994
2.9999
2.99936
2.99885
2.99587
2.9935
2.97877
2.95903
2.87676
2.68704
2.26912
1.44295
0.671428
0.290561
0.37683
0.444008
0.453192
0.437437
0.413904
0.393281
0.377913
0.363903
0.348908
0.332966
0.316433
0.299696
0.282695
0.265471
0.247952
0.230166
0.212216
0.194042
0.175853
0.157532
0.139354
0.121196
0.103389
0.0862041
0.0704858
0.0569147
0.0494626
3.00001
3
3
3
3
3
3
3
2.99999
2.99994
2.9999
2.99936
2.99885
2.996
2.99375
2.98042
2.96143
2.89159
2.69686
2.29932
1.49952
0.702219
0.304242
0.390824
0.459226
0.467276
0.449957
0.425295
0.403972
0.388127
0.373676
0.35846
0.342378
0.325901
0.30925
0.292527
0.275597
0.258541
0.241217
0.223796
0.206186
0.188501
0.170805
0.153102
0.135685
0.118558
0.10239
0.0879797
0.0759859
0.0696172
3.00001
3
3
3
3
3
3
3
3
2.99995
2.9999
2.99938
2.99887
2.99613
2.9937
2.98084
2.96071
2.88101
2.71964
2.31587
1.57337
0.724159
0.300728
0.389526
0.457514
0.464189
0.445885
0.421033
0.399997
0.384724
0.370845
0.356542
0.341384
0.326055
0.310469
0.29493
0.279115
0.263252
0.247114
0.23089
0.214549
0.198116
0.181756
0.165427
0.149395
0.133971
0.119492
0.107049
0.0971188
0.0921142
3.00001
3
3
3
3
3
3
3
2.99999
2.99997
2.99975
2.99947
2.99797
2.99662
2.98799
2.98569
2.96541
2.90474
2.71825
2.33638
1.57207
0.729332
0.275234
0.371569
0.440737
0.448277
0.431584
0.408352
0.388777
0.374614
0.36184
0.348656
0.334864
0.320828
0.306768
0.29261
0.278417
0.26401
0.249588
0.234925
0.220378
0.20568
0.19116
0.176874
0.162912
0.149639
0.137613
0.12743
0.119636
0.11603
3.00001
3
3
3
3
3
3
3
3
2.99996
2.99991
2.9995
2.99905
2.99695
2.99508
2.98536
2.96835
2.90122
2.73743
2.36244
1.60729
0.751674
0.279583
0.367786
0.431773
0.438334
0.422431
0.399915
0.380782
0.366636
0.354192
0.341444
0.328392
0.315216
0.302219
0.289273
0.276392
0.263506
0.25064
0.237844
0.2251
0.212613
0.200158
0.188231
0.176847
0.166174
0.1566
0.149016
0.143348
0.141164
3.00001
3
3
3
3
3
3
3.00001
2.99999
2.99997
2.99981
2.99954
2.99868
2.99715
2.99346
2.98539
2.96839
2.91653
2.747
2.38462
1.62288
0.771638
0.287633
0.365104
0.423413
0.430922
0.416692
0.395211
0.375959
0.361617
0.349229
0.336701
0.324025
0.311389
0.299091
0.287034
0.275224
0.263641
0.252232
0.241146
0.230283
0.219873
0.209862
0.200222
0.191437
0.183598
0.176818
0.171453
0.167899
0.166911
3.00001
3.00001
3
3
3
3
3
3
2.99999
2.99997
2.99978
2.99956
2.99836
2.99744
2.99069
2.98885
2.96956
2.92515
2.76308
2.40648
1.65039
0.802628
0.31039
0.368514
0.417048
0.427647
0.415354
0.394609
0.374527
0.359769
0.347327
0.334958
0.322481
0.310245
0.298414
0.287071
0.276045
0.265593
0.255462
0.245937
0.236877
0.22842
0.220759
0.213759
0.207419
0.202009
0.197866
0.195078
0.193289
0.193694
3.00001
3.00001
3
3
3
3
3
3
2.99999
2.99997
2.99979
2.99959
2.99848
2.99766
2.99159
2.99051
2.9728
2.93426
2.77607
2.43487
1.68547
0.840624
0.33851
0.373675
0.412043
0.426635
0.416557
0.396532
0.375614
0.360512
0.348135
0.335969
0.323735
0.311902
0.300528
0.289848
0.279613
0.270099
0.261174
0.253
0.245639
0.238974
0.233241
0.228591
0.224917
0.222095
0.220126
0.219247
0.219461
0.220801
3.00001
3.00001
3
3
3
3
3
3
2.99999
2.99998
2.99982
2.99965
2.99872
2.99798
2.9929
2.99245
2.97605
2.94383
2.79541
2.46358
1.72452
0.884973
0.368055
0.376324
0.411665
0.427525
0.419044
0.399814
0.378747
0.36372
0.351496
0.339701
0.327758
0.316385
0.305515
0.29543
0.285978
0.277341
0.269546
0.262641
0.256855
0.252054
0.248254
0.245507
0.243873
0.243309
0.243773
0.245076
0.246529
0.249196
3.00001
3.00001
3.00001
3
3
3
3
3
2.99999
2.99998
2.99985
2.9997
2.99894
2.99821
2.9942
2.99287
2.98008
2.95404
2.81738
2.49599
1.77052
0.941532
0.403844
0.381653
0.414031
0.430047
0.422393
0.40405
0.383362
0.36873
0.356878
0.345565
0.334211
0.323388
0.31323
0.303825
0.29527
0.287578
0.280896
0.27519
0.270651
0.267441
0.265486
0.264834
0.265266
0.266621
0.268729
0.27168
0.275088
0.278386
3.00001
3.00001
3.00001
3.00001
3
3
3
3
2.99999
2.99998
2.99987
2.99973
2.99908
2.99843
2.99472
2.99623
2.97771
2.96917
2.83515
2.53297
1.82485
1.00875
0.444736
0.38587
0.415608
0.432115
0.425467
0.408334
0.38873
0.374768
0.363629
0.353012
0.342532
0.332522
0.32326
0.314707
0.307092
0.300452
0.294996
0.290736
0.287636
0.285824
0.285393
0.286298
0.288625
0.292032
0.296269
0.301008
0.305279
0.310009
3.00001
3.00001
3.00001
3.00001
3.00001
3
3.00001
3
3
2.99997
2.99992
2.99966
2.99937
2.99826
2.99558
2.9936
2.97254
2.97174
2.83702
2.56749
1.89504
1.08408
0.48288
0.379622
0.40893
0.427862
0.423548
0.408937
0.391634
0.379192
0.369477
0.360316
0.351363
0.342775
0.33493
0.327712
0.321358
0.315916
0.311601
0.308695
0.307206
0.307098
0.308441
0.311184
0.315087
0.320178
0.325976
0.332426
0.338833
0.343966
3.00001
3.00001
3.00001
3.00001
3.00001
3.00001
3.00001
3
3
2.99997
2.99993
2.99972
2.99952
2.99852
2.99664
2.99454
2.97812
2.97384
2.85725
2.60858
1.97741
1.17922
0.541581
0.377208
0.404276
0.424843
0.422558
0.410171
0.394571
0.382921
0.374538
0.366976
0.359851
0.35307
0.347049
0.341729
0.337232
0.333662
0.331008
0.3296
0.329571
0.331114
0.334186
0.338828
0.344978
0.352208
0.36029
0.368695
0.376141
0.38327
3.00001
3.00001
3.00001
3.00001
3.00001
3.00001
3.00001
3
3
2.99994
2.99989
2.9996
2.99931
2.9978
2.99612
2.98628
2.98497
2.95821
2.88061
2.63275
2.17278
1.27698
0.656912
0.398613
0.418925
0.43825
0.43677
0.423411
0.406984
0.393531
0.384448
0.377165
0.370776
0.365235
0.360558
0.356891
0.354164
0.352606
0.352138
0.352877
0.354979
0.358592
0.363757
0.370571
0.378782
0.388536
0.399099
0.410426
0.421274
0.429289
3.00001
3.00001
3.00001
3.00001
3.00001
3.00001
3.00001
3.00001
3
2.99999
2.99993
2.99987
2.99959
2.99921
2.99826
2.99426
2.99421
2.96523
2.9019
2.71563
2.32643
1.50708
0.795485
0.454021
0.462773
0.478194
0.477203
0.460393
0.440025
0.421222
0.407994
0.398056
0.39004
0.383709
0.379103
0.376017
0.374421
0.374183
0.375502
0.378272
0.382582
0.388628
0.396487
0.406453
0.418285
0.431446
0.446277
0.461782
0.476646
0.490156
3.00001
3.00001
3.00001
3.00001
3.00001
3.00001
3.00001
3.00001
3
2.99999
2.99994
2.9999
2.99967
2.99938
2.99867
2.99521
2.99432
2.97187
2.93337
2.77704
2.43704
1.70613
0.901746
0.478124
0.482734
0.5045
0.511617
0.498485
0.47904
0.458403
0.442294
0.429677
0.419202
0.410851
0.404787
0.401091
0.399607
0.400182
0.402727
0.407284
0.414046
0.422764
0.433725
0.446969
0.463002
0.481811
0.502711
0.526881
0.55242
0.576734
3.00001
3.00001
3.00001
3.00001
3.00001
3.00001
3.00001
3.00001
3
3
2.99998
2.99994
2.9999
2.99947
2.99895
2.99532
2.99429
2.97056
2.96785
2.81931
2.52926
1.82558
1.02068
0.512594
0.472382
0.501209
0.518363
0.515107
0.502901
0.487316
0.473651
0.462307
0.452276
0.443468
0.436551
0.431883
0.429672
0.429966
0.433252
0.439393
0.448202
0.459947
0.474402
0.492513
0.514176
0.540666
0.572938
0.611998
0.664459
0.752785
3.00001
3.00001
3.00001
3.00001
3.00001
3.00001
3.00001
3.00001
3
3
2.99998
2.99996
2.99982
2.99971
2.99832
2.9964
2.98274
2.98434
2.95122
2.85174
2.56774
2.05736
1.14869
0.635688
0.481572
0.500016
0.518306
0.524604
0.519741
0.511053
0.502413
0.495832
0.490089
0.484841
0.480339
0.477051
0.475651
0.477203
0.481756
0.48927
0.499921
0.514396
0.533393
0.557083
0.587563
0.62583
0.675552
0.743314
0.840638
0.971899
3.00001
3.00001
3.00001
3.00001
3.00001
3.00001
3.00001
3.00001
3.00001
3
3
2.99999
2.99994
2.9999
2.99938
2.99871
2.9935
2.99126
2.96172
2.90028
2.70811
2.31681
1.49013
0.824868
0.527334
0.53078
0.549007
0.55985
0.55653
0.548254
0.539663
0.533238
0.528931
0.525505
0.522968
0.522085
0.52356
0.527372
0.533858
0.543026
0.556321
0.573508
0.596044
0.624881
0.660645
0.707595
0.766258
0.843959
0.954479
1.07165
3.00001
3.00001
3.00001
3.00001
3.00001
3.00001
3.00001
3.00001
3.00001
3.00001
3
2.99999
2.99993
2.99987
2.99937
2.99874
2.99455
2.99422
2.98105
2.95826
2.81624
2.48533
1.76376
0.980011
0.550561
0.540391
0.569956
0.592503
0.595314
0.58949
0.582176
0.576202
0.572342
0.569793
0.568803
0.570312
0.573798
0.579177
0.587025
0.59821
0.6129
0.632909
0.657283
0.689124
0.727694
0.775419
0.835379
0.904622
0.997247
1.08108
3.00001
3.00001
3.00001
3.00001
3.00001
3.00001
3.00001
3.00001
3.00001
3.00001
3
3
2.99996
2.99993
2.99957
2.99908
2.9958
2.99453
2.97305
2.97133
2.84055
2.57419
1.95742
1.18117
0.629199
0.542564
0.57481
0.602694
0.612568
0.612113
0.609317
0.607302
0.606871
0.607387
0.610116
0.615113
0.62119
0.629016
0.638708
0.651617
0.667626
0.687991
0.713514
0.743863
0.782272
0.825603
0.880313
0.938661
1.01246
1.07883
3.00001
3.00001
3.00001
3.00001
3.00001
3.00001
3.00001
3.00001
3.00001
3.00001
3
3
2.99996
2.99995
2.9997
2.99946
2.99741
2.99606
2.97993
2.98322
2.88002
2.68975
2.14976
1.43153
0.770952
0.583
0.592504
0.610718
0.624299
0.627505
0.627527
0.628298
0.63081
0.635042
0.641855
0.650556
0.659759
0.670447
0.682992
0.697813
0.715907
0.736502
0.762092
0.790521
0.825879
0.864019
0.910825
0.960183
1.01881
1.07416
3.00001
3.00001
3.00001
3.00001
3.00001
3.00001
3.00001
3.00001
3.00001
3.00001
3
2.99999
2.99998
2.9999
2.99984
2.99919
2.99831
2.99218
2.99267
2.96537
2.96106
2.81688
2.49067
1.82298
1.05964
0.659441
0.623733
0.638425
0.652371
0.655846
0.655421
0.65565
0.658336
0.66414
0.672434
0.68199
0.692886
0.705004
0.719597
0.735661
0.755244
0.77622
0.801744
0.82887
0.861171
0.896015
0.935537
0.978689
1.02636
1.073
3.00001
3.00001
3.00001
3.00001
3.00001
3.00001
3.00001
3.00001
3.00001
3.00001
3.00001
3
2.99999
2.99995
2.99991
2.99961
2.99918
2.99638
2.99508
2.97693
2.97533
2.86424
2.63764
2.07876
1.34721
0.775897
0.645777
0.655504
0.671822
0.684165
0.686739
0.687011
0.689578
0.695181
0.703023
0.712446
0.723623
0.736235
0.751158
0.767587
0.786988
0.807922
0.832229
0.858569
0.888091
0.920355
0.955464
0.993473
1.03509
1.07518
3.00001
3.00001
3.00001
3.00001
3.00001
3.00001
3.00001
3.00001
3.00001
3.00001
3.00001
3
3
2.99997
2.99994
2.9997
2.9994
2.99723
2.9962
2.98232
2.98193
2.91137
2.75702
2.41748
1.78556
0.987617
0.695514
0.677003
0.695058
0.710651
0.715958
0.716864
0.719342
0.724346
0.732217
0.741463
0.753077
0.76572
0.780815
0.79697
0.815701
0.835766
0.858359
0.882806
0.909627
0.938874
0.970357
1.00424
1.04122
1.07679
3.00001
3.00001
3.00001
3.00001
3.00001
3.00001
3.00001
3.00001
3.00001
3.00001
3.00001
3.00001
3
2.99999
2.99998
2.99987
2.99978
2.9989
2.99818
2.99111
2.98913
2.94846
2.85823
2.60791
2.11916
1.27821
0.839967
0.726778
0.726598
0.736081
0.744398
0.746517
0.748063
0.752007
0.759019
0.768061
0.77949
0.792374
0.807232
0.823651
0.841705
0.861585
0.88274
0.905893
0.930234
0.956492
0.984529
1.01448
1.04723
1.07884
3.00001
3.00001
3.00001
3.00001
3.00001
3.00001
3.00001
3.00001
3.00001
3.00001
3.00001
3
3
2.99999
2.99997
2.99989
2.9998
2.99929
2.99834
2.9952
2.98902
2.9653
2.92188
2.77384
2.45352
1.82532
1.08992
0.804976
0.765679
0.76931
0.775806
0.779973
0.781314
0.783666
0.78878
0.79628
0.806133
0.817849
0.831442
0.8469
0.863864
0.882759
0.902961
0.924806
0.948043
0.972666
0.998741
1.02602
1.0553
1.08327
3.00001
3.00001
3.00001
3.00001
3.00001
3.00001
3.00001
3.00001
3.00001
3.00001
3.00001
3.00001
3.00001
3
2.99999
2.99999
2.9999
2.99983
2.99919
2.99861
2.99305
2.99088
2.95904
2.88953
2.67675
2.25682
1.47284
0.980154
0.816719
0.800799
0.806019
0.813078
0.817818
0.821152
0.825394
0.831416
0.839238
0.849009
0.860374
0.873773
0.888603
0.905123
0.923151
0.94266
0.963701
0.986047
1.0099
1.03493
1.0621
1.08799
3.00001
3.00001
3.00001
3.00001
3.00001
3.00001
3.00001
3.00001
3.00001
3.00001
3.00001
3.00001
3.00001
3
3
2.99997
2.99996
2.99978
2.99957
2.9978
2.99722
2.98594
2.98885
2.92926
2.81686
2.55932
1.99468
1.26642
0.92542
0.840131
0.834523
0.840508
0.849257
0.855755
0.86067
0.866414
0.87344
0.882095
0.892038
0.90348
0.916362
0.930653
0.94647
0.963584
0.982166
1.00201
1.02329
1.04581
1.0702
1.09374
3.00001
3.00001
3.00001
3.00001
3.00001
3.00001
3.00001
3.00001
3.00001
3.00001
3.00001
3.00001
3.00001
3.00001
3
3
2.99996
2.99993
2.99966
2.99935
2.99715
2.9962
2.98267
2.98397
2.91121
2.76079
2.43752
1.80937
1.13321
0.889583
0.859273
0.866739
0.878168
0.889458
0.897016
0.902573
0.908392
0.915048
0.923134
0.932319
0.943152
0.955182
0.968826
0.983768
1.00018
1.01794
1.03705
1.05742
1.07959
1.10103
3.00001
3.00001
3.00001
3.00001
3.00001
3.00001
3.00001
3.00001
3.00001
3.00001
3.00001
3.00001
3.00001
3.00001
3.00001
3
2.99999
2.99994
2.99991
2.99955
2.99925
2.99645
2.99519
2.97742
2.98692
2.8769
2.69504
2.19921
1.54081
1.0012
0.881925
0.879034
0.894484
0.911087
0.924201
0.932408
0.938652
0.945087
0.952208
0.960482
0.969624
0.980087
0.9915
1.00437
1.01835
1.03377
1.05057
1.06854
1.08851
1.10793
3.00001
3.00001
3.00001
3.00001
3.00001
3.00001
3.00001
3.00001
3.00001
3.00001
3.00001
3.00001
3.00001
3.00001
3.00001
3
3
2.99998
2.99997
2.99981
2.99964
2.99834
2.99763
2.98876
2.99082
2.9358
2.84358
2.58939
2.07494
1.3302
1.00402
0.930683
0.926688
0.934745
0.945129
0.953636
0.959817
0.965892
0.97308
0.981369
0.990878
1.00103
1.01239
1.02423
1.0375
1.05121
1.06646
1.08238
1.10045
1.11763
3.00001
3.00001
3.00001
3.00001
3.00001
3.00001
3.00001
3.00001
3.00001
3.00001
3.00001
3.00001
3.00001
3.00001
3.00001
3
3
2.99998
2.99997
2.99987
2.99979
2.99922
2.99863
2.99532
2.99013
2.97101
2.93076
2.796
2.54113
1.95903
1.30076
1.03492
0.977685
0.968748
0.969151
0.973392
0.978468
0.984368
0.991048
0.998374
1.00701
1.0164
1.02716
1.03866
1.05136
1.065
1.07973
1.09549
1.11251
1.12929
3.00001
3.00001
3.00001
3.00001
3.00001
3.00001
3.00001
3.00001
3.00001
3.00001
3.00001
3.00001
3.00001
3.00001
3.00001
3.00001
3
3
2.99999
2.99997
2.99983
2.99978
2.99891
2.99787
2.9904
2.99195
2.95928
2.96565
2.8009
2.52363
1.90352
1.31975
1.06046
1.01282
1.00298
1.00236
1.007
1.01242
1.01789
1.02353
1.03046
1.0382
1.04735
1.05755
1.06896
1.0813
1.09469
1.10924
1.12502
1.14063
3.00001
3.00001
3.00001
3.00001
3.00001
3.00001
3.00001
3.00001
3.00001
3.00001
3.00001
3.00001
3.00001
3.00001
3.00001
3.00001
3.00001
3.00001
3
2.99999
2.99997
2.99988
2.99979
2.99918
2.99852
2.99385
2.9939
2.96691
2.92195
2.79232
2.48373
1.86299
1.31989
1.07335
1.02937
1.02461
1.02731
1.03475
1.04306
1.05065
1.05771
1.06567
1.07414
1.08385
1.09402
1.10541
1.11717
1.13005
1.1439
1.15775
3.00001
3.00001
3.00001
3.00001
3.00001
3.00001
3.00001
3.00001
3.00001
3.00001
3.00001
3.00001
3.00001
3.00001
3.00001
3.00001
3.00001
3.00001
3.00001
3
3
2.99995
2.99993
2.99967
2.99942
2.99718
2.99617
2.98238
2.98978
2.90124
2.76456
2.38766
1.78716
1.20866
1.05192
1.02798
1.03357
1.04366
1.05555
1.06705
1.07724
1.08707
1.09666
1.10667
1.11694
1.12783
1.1392
1.15133
1.16459
1.17773
3.00001
3.00001
3.00001
3.00001
3.00001
3.00001
3.00001
3.00001
3.00001
3.00001
3.00001
3.00001
3.00001
3.00001
3.00001
3.00001
3.00001
3.00001
3.00001
3
3
2.99999
2.99991
2.99989
2.99971
2.99942
2.99744
2.99642
2.98294
2.98097
2.89988
2.7545
2.34269
1.7271
1.17938
1.05954
1.0424
1.04982
1.06018
1.07403
1.08796
1.09964
1.11005
1.12021
1.13048
1.14125
1.15257
1.16453
1.17768
1.19066
3.00001
3.00001
3.00001
3.00001
3.00001
3.00001
3.00001
3.00001
3.00001
3.00001
3.00001
3.00001
3.00001
3.00001
3.00001
3.00001
3.00001
3.00001
3.00001
3.00001
3
3
2.99998
2.99997
2.99985
2.99982
2.99887
2.99842
2.99131
2.99021
2.95794
2.92622
2.72114
2.35747
1.68349
1.27225
1.12135
1.09472
1.09137
1.09564
1.1041
1.11435
1.12397
1.13355
1.14299
1.15295
1.16365
1.17504
1.18782
1.2005
3.00001
3.00001
3.00001
3.00001
3.00001
3.00001
3.00001
3.00001
3.00001
3.00001
3.00001
3.00001
3.00001
3.00001
3.00001
3.00001
3.00001
3.00001
3.00001
3.00001
3
3
2.99999
2.99998
2.99992
2.99986
2.99942
2.99918
2.99679
2.99412
2.98236
2.96496
2.89059
2.7611
2.37723
1.78628
1.35972
1.18798
1.14039
1.13057
1.13057
1.13656
1.14539
1.15387
1.1623
1.17098
1.18024
1.19037
1.20169
1.2131
3.00001
3.00001
3.00001
3.00001
3.00001
3.00001
3.00001
3.00001
3.00001
3.00001
3.00001
3.00001
3.00001
3.00001
3.00001
3.00001
3.00001
3.00001
3.00001
3.00001
3.00001
3.00001
3.00001
3
2.99999
2.99994
2.99992
2.99958
2.99938
2.9971
2.99515
2.98635
2.96977
2.89558
2.76717
2.40445
1.91111
1.38281
1.20134
1.15907
1.15383
1.15646
1.16308
1.17173
1.18004
1.18812
1.19687
1.20593
1.21633
1.22612
3.00001
3.00001
3.00001
3.00001
3.00001
3.00001
3.00001
3.00001
3.00001
3.00001
3.00001
3.00001
3.00001
3.00001
3.00001
3.00001
3.00001
3.00001
3.00001
3.00001
3.00001
3.00001
3
3
2.99999
2.99998
2.9999
2.99985
2.99939
2.99919
2.99676
2.99572
2.98378
2.96978
2.89797
2.80499
2.52795
2.015
1.498
1.24687
1.20206
1.19265
1.19253
1.19651
1.20359
1.21095
1.21846
1.2262
1.23434
1.24219
3.00001
3.00001
3.00001
3.00001
3.00001
3.00001
3.00001
3.00001
3.00001
3.00001
3.00001
3.00001
3.00001
3.00001
3.00001
3.00001
3.00001
3.00001
3.00001
3.00001
3.00001
3.00001
3.00001
3
3
2.99999
2.99999
2.99993
2.99989
2.99962
2.99928
2.99751
2.99587
2.98725
2.97381
2.91565
2.84251
2.59128
2.14957
1.62218
1.30023
1.23094
1.21727
1.21613
1.21985
1.2275
1.23589
1.24399
1.25094
1.25643
3.00001
3.00001
3.00001
3.00001
3.00001
3.00001
3.00001
3.00001
3.00001
3.00001
3.00001
3.00001
3.00001
3.00001
3.00001
3.00001
3.00001
3.00001
3.00001
3.00001
3.00001
3.00001
3.00001
3.00001
3
3
2.99999
2.99999
2.99995
2.9999
2.99953
2.99952
2.99841
2.9971
2.98609
2.98317
2.95274
2.89506
2.67075
2.28128
1.77239
1.425
1.28998
1.2529
1.24565
1.2467
1.25091
1.25749
1.26218
1.26328
3.00001
3.00001
3.00001
3.00001
3.00001
3.00001
3.00001
3.00001
3.00001
3.00001
3.00001
3.00001
3.00001
3.00001
3.00001
3.00001
3.00001
3.00001
3.00001
3.00001
3.00001
3.00001
3.00001
3.00001
3.00001
3.00001
3
3
2.99999
2.99996
2.99994
2.99976
2.99962
2.99872
2.9976
2.99323
2.98577
2.9572
2.90657
2.76889
2.44378
2.00465
1.54155
1.33841
1.28577
1.27373
1.27104
1.2713
1.26951
1.26388
3.00001
3.00001
3.00001
3.00001
3.00001
3.00001
3.00001
3.00001
3.00001
3.00001
3.00001
3.00001
3.00001
3.00001
3.00001
3.00001
3.00001
3.00001
3.00001
3.00001
3.00001
3.00001
3.00001
3.00001
3.00001
3.00001
3.00001
3
3
2.99998
2.99997
2.99991
2.99987
2.99936
2.9991
2.99731
2.99595
2.97999
2.97929
2.92893
2.88259
2.58351
2.19474
1.71284
1.44692
1.34195
1.30716
1.29486
1.28301
1.26278
3.00001
3.00001
3.00001
3.00001
3.00001
3.00001
3.00001
3.00001
3.00001
3.00001
3.00001
3.00001
3.00001
3.00001
3.00001
3.00001
3.00001
3.00001
3.00001
3.00001
3.00001
3.00001
3.00001
3.00001
3.00001
3.00001
3.00001
3.00001
3.00001
3
3
2.99999
2.99997
2.99993
2.99974
2.99987
2.99858
3.00285
2.99478
2.98509
2.94266
2.89979
2.74463
2.42545
2.02529
1.61076
1.40467
1.34274
1.30318
1.25208
3.00001
3.00001
3.00001
3.00001
3.00001
3.00001
3.00001
3.00001
3.00001
3.00001
3.00001
3.00001
3.00001
3.00001
3.00001
3.00001
3.00001
3.00001
3.00001
3.00001
3.00001
3.00001
3.00001
3.00001
3.00001
3.00001
3.00001
3.00001
3.00001
3.00001
3
3
2.99998
2.99997
2.99987
2.99977
2.99922
2.99924
2.99656
3.0018
2.99136
2.97443
2.91675
2.84997
2.64742
2.27669
1.86618
1.50624
1.33297
1.20564
3.00001
3.00001
3.00001
3.00001
3.00001
3.00001
3.00001
3.00001
3.00001
3.00001
3.00001
3.00001
3.00001
3.00001
3.00001
3.00001
3.00001
3.00001
3.00001
3.00001
3.00001
3.00001
3.00001
3.00001
3.00001
3.00001
3.00001
3.00001
3.00001
3.00001
3.00001
3.00001
3
3
2.99997
2.99996
2.99981
2.99978
2.99903
2.99877
2.99479
2.99331
2.9742
2.95565
2.88019
2.75261
2.47583
2.01346
1.55674
1.08104
3.00001
3.00001
3.00001
3.00001
3.00001
3.00001
3.00001
3.00001
3.00001
3.00001
3.00001
3.00001
3.00001
3.00001
3.00001
3.00001
3.00001
3.00001
3.00001
3.00001
3.00001
3.00001
3.00001
3.00001
3.00001
3.00001
3.00001
3.00001
3.00001
3.00001
3.00001
3.00001
3
3
2.99999
2.99999
2.99992
2.9999
2.99959
2.99952
2.9979
2.99722
2.98951
2.98199
2.94268
2.89751
2.65101
2.33183
1.63196
0.73116
3.00001
3.00001
3.00001
3.00001
3.00001
3.00001
3.00001
3.00001
3.00001
3.00001
3.00001
3.00001
3.00001
3.00001
3.00001
3.00001
3.00001
3.00001
3.00001
3.00001
3.00001
3.00001
3.00001
3.00001
3.00001
3.00001
3.00001
3.00001
3.00001
3.00001
3.00001
3.00001
3.00001
3.00001
3
3
2.99995
2.99994
2.99972
2.99969
2.99851
2.99816
2.99222
2.98861
2.95937
2.91591
2.69933
2.37983
1.61668
0.61121
3.00001
3.00001
3.00001
3.00001
3.00001
3.00001
3.00001
3.00001
3.00001
3.00001
3.00001
3.00001
3.00001
3.00001
3.00001
3.00001
3.00001
3.00001
3.00001
3.00001
3.00001
3.00001
3.00001
3.00001
3.00001
3.00001
3.00001
3.00001
3.00001
3.00001
3.00001
3.00001
3.00001
3.00001
3
3
2.99996
2.99995
2.99977
2.99973
2.99875
2.9984
2.99329
2.99096
2.9635
2.92365
2.69377
2.35507
1.57451
0.560086
3.00001
3.00001
3.00001
3.00001
3.00001
3.00001
3.00001
3.00001
3.00001
3.00001
3.00001
3.00001
3.00001
3.00001
3.00001
3.00001
3.00001
3.00001
3.00001
3.00001
3.00001
3.00001
3.00001
3.00001
3.00001
3.00001
3.00001
3.00001
3.00001
3.00001
3.00001
3.00001
3.00001
3.00001
3
3
2.99996
2.99995
2.99978
2.99975
2.99879
2.99839
2.99319
2.98923
2.96538
2.91866
2.76762
2.37185
1.62136
0.559843
3.00001
3.00001
3.00001
3.00001
3.00001
3.00001
3.00001
3.00001
3.00001
3.00001
3.00001
3.00001
3.00001
3.00001
3.00001
3.00001
3.00001
3.00001
3.00001
3.00001
3.00001
3.00001
3.00001
3.00001
3.00001
3.00001
3.00001
3.00001
3.00001
3.00001
3.00001
3.00001
3.00001
3.00001
3
3
2.99997
2.99996
2.99979
2.99976
2.99879
2.99855
2.99385
2.99034
2.96478
2.9209
2.69707
2.33878
1.54432
0.516899
3.00001
3.00001
3.00001
3.00001
3.00001
3.00001
3.00001
3.00001
3.00001
3.00001
3.00001
3.00001
3.00001
3.00001
3.00001
3.00001
3.00001
3.00001
3.00001
3.00001
3.00001
3.00001
3.00001
3.00001
3.00001
3.00001
3.00001
3.00001
3.00001
3.00001
3.00001
3.00001
3.00001
3.00001
3.00001
3
2.99999
2.99998
2.99988
3.00006
3.00016
3.00224
3.00099
3.01356
2.95063
3.18114
2.86719
2.47106
1.60607
0.861109
3.00001
3.00001
3.00001
3.00001
3.00001
3.00001
3.00001
3.00001
3.00001
3.00001
3.00001
3.00001
3.00001
3.00001
3.00001
3.00001
3.00001
3.00001
3.00001
3.00001
3.00001
3.00001
3.00001
3.00001
3.00001
3.00001
3.00001
3.00001
3.00001
3.00001
3.00001
3.00001
3.00001
3.00001
3.00001
3
2.99999
2.99998
2.99986
3.00006
3.00023
3.00284
3.00178
3.01466
2.95312
3.18324
2.87255
2.48112
1.61318
0.864015
3.00001
3.00001
3.00001
3.00001
3.00001
3.00001
3.00001
3.00001
3.00001
3.00001
3.00001
3.00001
3.00001
3.00001
3.00001
3.00001
3.00001
3.00001
3.00001
3.00001
3.00001
3.00001
3.00001
3.00001
3.00001
3.00001
3.00001
3.00001
3.00001
3.00001
3.00001
3.00001
3.00001
3.00001
3
3
2.99997
2.99996
2.99982
2.99979
2.99897
2.99863
2.99479
2.9891
2.95766
2.93928
2.68478
2.2939
1.48478
0.470257
3.00001
3.00001
3.00001
3.00001
3.00001
3.00001
3.00001
3.00001
3.00001
3.00001
3.00001
3.00001
3.00001
3.00001
3.00001
3.00001
3.00001
3.00001
3.00001
3.00001
3.00001
3.00001
3.00001
3.00001
3.00001
3.00001
3.00001
3.00001
3.00001
3.00001
3.00001
3.00001
3.00001
3.00001
3.00001
3
2.99999
2.99998
2.99986
3.00005
3.00023
3.00276
3.00173
3.01456
2.95272
3.18324
2.8715
2.47696
1.60935
0.860054
1.31305
0.880172
0.268188
0.30328
0.424315
0.502331
0.536582
0.574371
0.626215
0.671203
0.700899
0.725165
0.747663
0.77136
0.791001
0.808939
0.824312
0.837894
0.846495
0.851722
0.855417
0.851395
0.833384
0.797219
0.74498
0.682399
0.615449
0.546906
0.479331
0.414408
0.35421
0.298199
0.246716
0.197226
0.151097
0.10814
0.0680877
0.035345
0.0275352
0.0557447
0.0887403
0.120233
0.150702
0.178626
0.205214
0.232525
0.260793
0.287784
0.314094
0.339111
0.363772
0.387519
0.410956
0.433568
0.455987
0.47756
0.499073
0.519721
0.540378
0.560181
0.580053
0.59912
0.618248
0.636634
0.65511
0.672817
0.690732
0.707792
0.725175
0.741652
0.758501
0.774441
0.790762
0.806152
0.821938
0.836743
0.851984
0.866179
0.880844
0.894426
0.90849
0.921445
0.93488
0.947188
0.959945
0.97155
0.983561
0.99437
1.00549
1.01541
1.02542
1.03429
1.04286
1.0504
1.05681
1.06153
1.06571
1.06904
1.07133
1.07946
1.2254
0.97335
0.556387
0.401792
0.248914
0.0783136
0.15955
0.275798
0.386714
0.455885
0.489758
0.510831
0.532929
0.557996
0.580249
0.598263
0.614349
0.629291
0.640231
0.645819
0.648368
0.64263
0.62062
0.576036
0.516173
0.44765
0.377581
0.309519
0.243986
0.184656
0.132809
0.0889352
0.0619333
0.0615785
0.0867274
0.117895
0.150331
0.181099
0.210084
0.238385
0.266628
0.294302
0.320853
0.346097
0.369596
0.393606
0.418385
0.443039
0.466203
0.48891
0.510616
0.532169
0.553015
0.573606
0.593705
0.613402
0.632797
0.651688
0.670398
0.688566
0.706644
0.724145
0.741656
0.75853
0.775551
0.791826
0.8084
0.824108
0.840241
0.855429
0.871115
0.885827
0.901043
0.915305
0.930013
0.943827
0.95799
0.971336
0.98494
0.997774
1.01084
1.02308
1.03562
1.04723
1.05921
1.07012
1.08145
1.09161
1.10213
1.11147
1.12097
1.12935
1.13758
1.14473
1.15105
1.1557
1.16005
1.16355
1.16615
1.1741
1.17778
1.0868
0.920739
0.784539
0.67105
0.526943
0.397585
0.293089
0.192734
0.0997927
0.0622592
0.144633
0.217741
0.280666
0.32479
0.355304
0.375029
0.389681
0.400214
0.402803
0.399224
0.386798
0.357499
0.312377
0.249829
0.190571
0.14053
0.115014
0.115754
0.138315
0.169267
0.202391
0.234534
0.264245
0.293055
0.321334
0.347969
0.373661
0.397646
0.421206
0.444104
0.466775
0.488756
0.509729
0.529256
0.548757
0.569372
0.59027
0.610388
0.629502
0.648437
0.666667
0.685083
0.702664
0.72051
0.737484
0.754729
0.771153
0.78789
0.803812
0.820091
0.835554
0.851394
0.866404
0.881833
0.896397
0.911444
0.925574
0.940251
0.953995
0.968258
0.981689
0.995484
1.00862
1.02193
1.03475
1.04757
1.05999
1.07235
1.08429
1.09621
1.1076
1.11908
1.12986
1.14083
1.15095
1.16132
1.17075
1.18035
1.18902
1.19769
1.20546
1.21303
1.21973
1.22566
1.23015
1.23449
1.23798
1.24072
1.24812
1.17225
1.15961
1.09497
1.02634
0.951263
0.864783
0.761687
0.675201
0.595697
0.508888
0.420657
0.337015
0.26374
0.195643
0.132433
0.0764957
0.0347819
0.0531905
0.0910501
0.112144
0.115847
0.100216
0.0766188
0.0831819
0.138975
0.190925
0.242937
0.29028
0.330705
0.366574
0.398999
0.427936
0.454802
0.478699
0.501797
0.523183
0.544114
0.563517
0.582416
0.60015
0.617876
0.634837
0.652091
0.667922
0.683261
0.697677
0.713562
0.729777
0.746253
0.761689
0.777165
0.792132
0.807349
0.822062
0.837065
0.851429
0.866141
0.880168
0.894555
0.908332
0.922376
0.935981
0.949693
0.963107
0.976543
0.989725
1.00292
1.01589
1.02882
1.04158
1.05421
1.06674
1.07901
1.09127
1.10316
1.11513
1.12664
1.13824
1.14941
1.16056
1.17141
1.18199
1.19246
1.20239
1.21235
1.22161
1.23085
1.23944
1.24788
1.25572
1.2634
1.27031
1.27711
1.2831
1.28863
1.29287
1.29715
1.30071
1.30374
1.31092
1.16789
1.19048
1.18101
1.15908
1.12409
1.07866
1.02121
0.962884
0.901401
0.833914
0.757036
0.683703
0.620568
0.561205
0.502732
0.445605
0.391049
0.34113
0.296731
0.261459
0.243756
0.233611
0.260984
0.321317
0.38517
0.445266
0.498995
0.539146
0.570312
0.595847
0.617652
0.637047
0.655111
0.671856
0.687898
0.703259
0.718423
0.732833
0.747127
0.760638
0.774167
0.787168
0.800303
0.812615
0.824234
0.835154
0.84675
0.859209
0.872164
0.884555
0.896704
0.908786
0.920823
0.933016
0.945112
0.957328
0.969418
0.98155
0.99358
1.00559
1.01756
1.02948
1.04139
1.05319
1.06495
1.07656
1.08807
1.09947
1.11071
1.12193
1.13296
1.14405
1.15487
1.16578
1.17638
1.18704
1.1974
1.20767
1.21785
1.22759
1.23756
1.24683
1.25651
1.26536
1.27456
1.28296
1.29147
1.29921
1.30683
1.31372
1.32032
1.32646
1.33206
1.33744
1.34242
1.34654
1.35059
1.35404
1.35747
1.36377
1.16145
1.19994
1.21892
1.22607
1.22257
1.20779
1.1826
1.15224
1.11415
1.07064
1.02014
0.966723
0.910479
0.857114
0.803482
0.751823
0.699477
0.650691
0.606801
0.570904
0.545732
0.527408
0.534294
0.573282
0.629168
0.683468
0.733729
0.772779
0.797829
0.811277
0.818793
0.825061
0.831741
0.839062
0.846978
0.855107
0.863542
0.871939
0.880704
0.889413
0.898658
0.907878
0.917766
0.927309
0.936525
0.944841
0.953608
0.962994
0.973503
0.98365
0.993857
1.00377
1.01379
1.02386
1.03388
1.04416
1.0543
1.06482
1.07514
1.08579
1.09623
1.10688
1.11738
1.12808
1.13866
1.14938
1.15994
1.1705
1.18087
1.19118
1.20132
1.21144
1.2214
1.23128
1.24106
1.25055
1.26015
1.26922
1.27865
1.2873
1.29639
1.30452
1.31301
1.32056
1.32834
1.33534
1.34245
1.3489
1.35533
1.36119
1.36687
1.37203
1.37717
1.38168
1.38649
1.39069
1.39508
1.39881
1.4024
1.40842
1.15629
1.20125
1.23435
1.25846
1.27469
1.28047
1.27865
1.26906
1.25278
1.23033
1.20117
1.1682
1.12995
1.08945
1.04508
1.00035
0.953923
0.908323
0.865162
0.826252
0.78824
0.753704
0.745882
0.77906
0.833169
0.888587
0.936298
0.973495