/*--------------------------------*- C++ -*----------------------------------*\
| =========                 |                                                 |
| \\      /  F ield         | OpenFOAM: The Open Source CFD Toolbox           |
|  \\    /   O peration     | Version:  2112                                  |
|   \\  /    A nd           | Website:  www.openfoam.com                      |
|    \\/     M anipulation  |                                                 |
\*---------------------------------------------------------------------------*/
FoamFile
{
    version     2.0;
    format      ascii;
    arch        "LSB;label=32;scalar=64";
    class       volScalarField;
    location    "4.5";
    object      p;
}
// * * * * * * * * * * * * * * * * * * * * * * * * * * * * * * * * * * * * * //

dimensions      [1 -1 -2 0 0 0 0];

internalField   nonuniform List<scalar> 
7000
(
0.999998
1
1.00001
1.00001
1.00001
1.00001
1.00001
1.00001
1.00003
1.00003
1.00015
1.0004
1.00129
1.00258
1.0076
1.01296
1.04692
1.0624
1.38435
1.63151
3.46601
7.1766
11.7661
11.3243
10.757
10.6301
10.685
10.819
10.9624
11.0681
11.1538
11.237
11.3216
11.4057
11.4876
11.5671
11.6439
11.7174
11.7871
11.8522
11.9123
11.967
12.0161
12.0593
12.0965
12.1274
12.1522
12.1708
12.1833
12.1914
1
1.00001
1.00001
1.00001
1.00001
1.00001
1.00001
1.00001
1.00003
1.00003
1.00015
1.00038
1.00123
1.00245
1.00728
1.01229
1.04567
1.06103
1.36709
1.6079
3.36488
6.95042
11.7347
11.3346
10.7548
10.6193
10.673
10.8071
10.9528
11.0592
11.1451
11.2286
11.3134
11.3978
11.4801
11.56
11.6372
11.7113
11.7816
11.8473
11.9081
11.9635
12.0135
12.0575
12.0957
12.1276
12.1535
12.1731
12.1864
12.1951
1
1.00001
1.00001
1.00001
1.00001
1.00001
1.00001
1.00001
1.00003
1.00003
1.00014
1.00036
1.00118
1.00235
1.00705
1.01177
1.04532
1.06147
1.35056
1.5872
3.27388
6.72922
11.8278
11.4043
10.7661
10.6121
10.666
10.8029
10.9514
11.0573
11.1418
11.2243
11.3086
11.3924
11.4743
11.5537
11.6306
11.7044
11.7746
11.8403
11.9014
11.9574
12.0081
12.0531
12.0924
12.1255
12.1525
12.1732
12.1873
12.1969
1
1.00001
1.00001
1.00001
1.00001
1.00001
1.00001
1.00001
1.00003
1.00003
1.00014
1.00035
1.00113
1.00224
1.00671
1.01098
1.04325
1.05656
1.3381
1.54339
3.17552
6.42971
11.8981
11.4469
10.7487
10.5831
10.6407
10.7848
10.9368
11.0426
11.1266
11.2089
11.2932
11.377
11.4588
11.5383
11.6153
11.6893
11.7598
11.8261
11.8879
11.9449
11.9968
12.0433
12.0841
12.1189
12.1475
12.1696
12.1848
12.1956
1
1
1.00001
1.00001
1.00001
1.00001
1.00001
1.00001
1.00002
1.00003
1.00014
1.00035
1.00112
1.0022
1.00637
1.01003
1.03971
1.04513
1.32983
1.4807
3.07332
6.10914
11.977
11.5031
10.744
10.5663
10.6254
10.7732
10.9256
11.0298
11.1123
11.1935
11.2768
11.3597
11.4406
11.5194
11.5957
11.6694
11.7397
11.8062
11.8684
11.9261
11.9791
12.027
12.0694
12.1059
12.1362
12.16
12.1767
12.1889
1
1
1.00001
1.00001
1.00001
1.00001
1.00001
1.00001
1.00002
1.00003
1.00014
1.00034
1.00109
1.00215
1.00636
1.01003
1.04201
1.05615
1.29819
1.50592
2.93462
5.8263
12.0017
11.4951
10.7194
10.545
10.6056
10.7548
10.905
11.0079
11.0898
11.1706
11.253
11.3351
11.4152
11.4934
11.5691
11.6423
11.7123
11.7788
11.8413
11.8996
11.9536
12.0026
12.0464
12.0844
12.1163
12.1416
12.1595
12.1729
1
1
1.00001
1.00001
1.00001
1.00001
1.00001
1.00001
1.00001
1.00004
1.00015
1.00051
1.00111
1.00325
1.0063
1.01971
1.02919
1.02555
1.30983
1.42393
2.95262
5.61115
11.9384
11.4166
10.6803
10.5269
10.5882
10.7355
10.8813
10.9826
11.0641
11.144
11.2252
11.3059
11.3848
11.4617
11.5364
11.6086
11.6779
11.7438
11.8063
11.8648
11.9192
11.9692
12.0141
12.0533
12.0864
12.1129
12.1317
12.146
1
1
1.00001
1.00001
1.00001
1.00001
1.00001
1.00001
1.00001
1.00003
1.00012
1.00029
1.00089
1.00177
1.00506
1.00764
1.03435
1.03832
1.2895
1.40675
2.88813
5.40814
11.7867
11.328
10.6517
10.5147
10.5729
10.7127
10.854
10.9542
11.0351
11.1136
11.1933
11.2723
11.3496
11.4249
11.498
11.5687
11.6367
11.7016
11.7633
11.8215
11.8758
11.9259
11.9713
12.0113
12.0452
12.0725
12.0916
12.1062
1
1
1.00001
1.00001
1.00001
1.00001
1.00001
1.00001
1.00001
1.00003
1.00012
1.00035
1.00088
1.0019
1.00485
1.00931
1.0284
1.02469
1.28261
1.3616
2.84768
5.2455
11.5851
11.2243
10.6348
10.5005
10.5522
10.6812
10.8215
10.9223
11.0024
11.0794
11.1573
11.2345
11.3099
11.3832
11.4542
11.523
11.589
11.6523
11.7125
11.7696
11.8233
11.8729
11.918
11.9579
11.992
12.0196
12.0391
12.0541
1
1
1
1.00001
1.00001
1.00001
1.00001
1.00001
1.00001
1.00004
1.00013
1.00042
1.00089
1.00258
1.00473
1.01475
1.02344
1.02616
1.25828
1.3283
2.78875
5.0575
11.3342
11.0966
10.646
10.4862
10.5261
10.641
10.7843
10.887
10.9661
11.0412
11.1171
11.1924
11.2655
11.3365
11.405
11.4713
11.5349
11.5959
11.6541
11.7092
11.7611
11.8094
11.8536
11.8928
11.9262
11.9534
11.9725
11.9871
1
1
1
1.00001
1.00001
1.00001
1.00001
1.00001
1.00001
1.00004
1.00012
1.0004
1.00084
1.00238
1.00432
1.0137
1.02004
1.01867
1.24639
1.29532
2.72348
4.85164
11.0423
10.9612
10.6633
10.4692
10.4959
10.5956
10.743
10.8476
10.9254
10.9984
11.0722
11.1453
11.2159
11.284
11.3497
11.413
11.4737
11.5318
11.5873
11.6399
11.6895
11.7355
11.7776
11.815
11.8474
11.8738
11.8923
11.9068
1
1
1
1.00001
1.00001
1.00001
1.00001
1.00001
1.00001
1.00004
1.0001
1.00034
1.00071
1.00204
1.00371
1.01155
1.0165
1.01742
1.2223
1.26012
2.65398
4.62293
10.686
10.8804
10.6403
10.4403
10.4609
10.5506
10.6983
10.8033
10.8795
10.9504
11.0219
11.0923
11.1601
11.2252
11.2875
11.3474
11.4047
11.4593
11.5112
11.5605
11.6068
11.65
11.6894
11.7243
11.7542
11.7789
11.7963
11.8099
1
1
1
1
1.00001
1.00001
1
1.00001
1.00001
1.00004
1.00009
1.00029
1.0006
1.00173
1.0032
1.00919
1.01403
1.02003
1.19714
1.22225
2.57305
4.37606
10.2565
10.8151
10.6058
10.4055
10.4229
10.5058
10.6502
10.7536
10.8281
10.8967
10.9655
11.0328
11.0973
11.1586
11.2172
11.2731
11.3264
11.3771
11.425
11.4701
11.5121
11.551
11.5866
11.6184
11.6457
11.6684
11.684
11.697
1
1
1
1
1
1
1
1.00001
1.00001
1.00003
1.00008
1.00026
1.00053
1.00149
1.00287
1.00855
1.00986
1.01026
1.17522
1.17948
2.48223
4.10116
9.739
10.7493
10.5735
10.3697
10.3839
10.4597
10.5981
10.6985
10.7708
10.8367
10.9022
10.9658
11.0264
11.0836
11.1378
11.1891
11.2375
11.2832
11.3261
11.3662
11.4033
11.4373
11.4678
11.4947
11.5177
11.5373
11.5509
11.5627
1
1
1
1
1
1
1
1
1.00001
1.00003
1.00009
1.0002
1.00058
1.00111
1.00307
1.00693
1.0151
1.01688
1.16379
1.16506
2.37118
3.79029
9.11234
10.6787
10.5386
10.3294
10.341
10.4095
10.5399
10.6372
10.7074
10.7699
10.8312
10.8904
10.9462
10.9986
11.0478
11.0939
11.1367
11.1764
11.2131
11.2465
11.2768
11.3042
11.3284
11.3497
11.3676
11.3826
11.393
11.4038
1
1
1
1
1
1
1
1
1.00001
1.00002
1.00008
1.00016
1.00047
1.00086
1.00252
1.00509
1.01234
1.01808
1.13211
1.16274
2.20605
3.4671
8.37307
10.666
10.5421
10.3038
10.3036
10.3575
10.474
10.571
10.6394
10.6975
10.7535
10.8071
10.8571
10.9034
10.9462
10.9856
11.0216
11.0541
11.0831
11.1084
11.1303
11.1486
11.1637
11.1759
11.1856
11.1943
11.2001
11.2085
1
1
1
1
1
1
1
1
1.00001
1.00004
1.00011
1.00022
1.00066
1.00123
1.00387
1.00705
1.02228
1.03347
1.03489
1.38838
1.58742
3.52419
7.20192
10.704
10.5921
10.3205
10.2651
10.3059
10.4043
10.5011
10.5676
10.6203
10.6695
10.7163
10.7595
10.7985
10.8335
10.8646
10.8916
10.9144
10.933
10.9475
10.9579
10.9642
10.9665
10.966
10.9634
10.9604
10.9574
10.9623
1
1
1
1
1
1
1
1
1.00001
1.00002
1.00004
1.00013
1.00024
1.00068
1.00126
1.00372
1.00552
1.029
1.03212
1.30356
1.43769
3.00518
5.84906
10.7232
10.6665
10.3848
10.2338
10.2549
10.3268
10.4249
10.4907
10.5376
10.5792
10.618
10.6528
10.683
10.7086
10.7295
10.7453
10.7564
10.7618
10.7611
10.7559
10.744
10.7265
10.7048
10.6804
10.6565
10.635
10.6295
1
1
1
1
1
1
1
1
1.00001
1.00002
1.00004
1.0001
1.00018
1.00056
1.00089
1.00335
1.00545
1.02191
1.01979
1.24875
1.2916
2.69564
4.73575
10.4677
10.6367
10.4031
10.1849
10.1896
10.2372
10.3331
10.4006
10.4438
10.4786
10.5095
10.5356
10.556
10.5706
10.5793
10.5812
10.5777
10.567
10.5462
10.5179
10.4803
10.4336
10.3775
10.3125
10.244
10.1768
10.1357
1
1
1
1
1
1
1
1
1
1.00001
1.00002
1.00005
1.00006
1.00047
1.0006
1.00312
1.00721
1.01427
1.02249
1.17837
1.19697
2.47904
4.05461
9.55784
10.4961
10.342
10.11
10.097
10.134
10.2172
10.2873
10.3295
10.3589
10.3826
10.4005
10.4112
10.4143
10.411
10.3992
10.3753
10.3413
10.2963
10.2378
10.1638
10.0713
9.95741
9.81904
9.65481
9.47009
9.27909
1
1
1
1
1
1
1
1
1
1
1.00002
1.00004
1.00011
1.00016
1.00143
1.0016
1.01154
1.02942
1.04249
1.03397
1.475
1.7349
3.88857
8.03061
10.3591
10.2917
10.0897
9.99763
10.0152
10.0693
10.1368
10.1778
10.2014
10.2166
10.2249
10.2244
10.2177
10.1986
10.1621
10.1143
10.0525
9.97296
9.87109
9.7406
9.57257
9.35091
9.0479
8.60722
7.91526
6.50996
1
1
1
1
1
1
1
1
1
1
1.00001
1.00001
1.00005
1.00004
1.00055
1.00064
1.00422
1.00758
1.03186
1.03685
1.3169
1.44268
3.04518
5.89411
10.3281
10.3595
10.1612
9.94385
9.90749
9.92576
9.96857
10.0023
10.0162
10.0176
10.014
10.0009
9.97163
9.9251
9.86564
9.79025
9.69508
9.5742
9.42117
9.22618
8.97448
8.6451
8.20228
7.59634
6.78743
5.57075
1
1
1
1
1
1
1
1
1
1
1.00001
1.00001
1.00006
1.0001
1.00051
1.00063
1.00407
1.00957
1.01179
1.01551
1.20011
1.21303
2.58422
4.36269
9.83116
10.3095
10.1111
9.81617
9.72439
9.7342
9.76373
9.7927
9.79749
9.79251
9.77624
9.74104
9.68883
9.62311
9.54167
9.44022
9.31391
9.15819
8.96478
8.72587
8.42858
8.05837
7.59846
7.02934
6.37126
5.58615
1
1
1
1
1
1
1
1
1
1
1.00001
1.00001
1.00004
1.00004
1.00036
1.00042
1.00292
1.00633
1.01363
1.01889
1.15278
1.18497
2.25637
3.51388
8.32524
10.0061
9.88385
9.60958
9.49446
9.50226
9.52978
9.55936
9.56011
9.5512
9.52417
9.46941
9.4004
9.31881
9.21952
9.09846
8.95071
8.77266
8.55924
8.30444
8.00206
7.6452
7.23255
6.75775
6.2405
5.65623
1
1
1
1
1
1
1
1
1
1
1
1
1.00003
1.00005
1.00023
1.00027
1.00202
1.00357
1.0114
1.01253
1.10718
1.09475
2.02929
2.71859
6.62138
9.66314
9.65689
9.51261
9.33931
9.3099
9.3201
9.33939
9.33618
9.31919
9.27728
9.20686
9.12571
9.03211
8.92037
8.78647
8.62766
8.44114
8.22448
7.97382
7.68938
7.36519
7.00667
6.61107
6.19207
5.7362
1
1
1
1
1
1
1
1
1
1
1
1.00001
1.00002
1.00007
1.00013
1.00064
1.00086
1.00538
1.01421
1.01516
1.02315
1.18491
1.24662
2.44597
4.06664
8.92649
9.63871
9.51169
9.27803
9.18302
9.16778
9.16239
9.14643
9.1096
9.04522
8.96678
8.87781
8.77481
8.65478
8.51381
8.3518
8.16549
7.9554
7.71872
7.45592
7.16671
6.85292
6.51649
6.16513
5.78258
1
1
1
1
1
1
1
1
1
1
1
1.00001
1.00001
1.00005
1.00005
1.00035
1.00036
1.00259
1.00548
1.01215
1.01775
1.12476
1.14403
2.0852
3.03762
7.11867
9.42962
9.41016
9.2504
9.05317
8.98453
8.9678
8.94304
8.89599
8.82916
8.74804
8.65411
8.54569
8.42148
8.27861
8.11791
7.93699
7.73638
7.51578
7.2754
7.01604
6.73904
6.44579
6.14144
5.81202
1
1
1
1
1
1
1
1
1
1
1
1
1.00001
1.00003
1.00004
1.00024
1.0003
1.00199
1.00426
1.00934
1.01418
1.08413
1.09785
1.66488
2.07874
4.63217
8.79873
9.28346
9.16599
8.92754
8.81214
8.77743
8.75028
8.7026
8.63512
8.55165
8.4545
8.34337
8.21789
8.07641
7.91937
7.74586
7.55629
7.35073
7.12923
6.89397
6.64608
6.38625
6.1179
5.82792
1
1
1
1
1
1
1
1
1
1
1
1
1
1.00001
1.00003
1.0001
1.0001
1.00094
1.00147
1.00527
1.00919
1.04331
1.04697
1.43828
1.62512
3.60143
7.03961
8.94305
8.97808
8.87706
8.70142
8.61895
8.57848
8.5304
8.46333
8.37788
8.27832
8.16604
8.04097
7.90261
7.75081
7.58573
7.40764
7.21725
7.01561
6.80214
6.57748
6.34155
6.09797
5.83796
1
1
1
1
1
1
1
1
1
1
1
1
1.00001
1.00001
1.00004
1.00006
1.00024
1.00032
1.0017
1.00193
1.01235
1.0145
1.08002
1.07696
1.63424
2.01263
4.30609
8.08835
8.84788
8.79914
8.66055
8.52296
8.44551
8.38348
8.31034
8.22089
8.11872
8.00599
7.88291
7.74902
7.60331
7.44654
7.27928
7.10202
6.91523
6.71926
6.51492
6.30326
6.08597
5.85071
1
1
1
1
1
1
1
1
1
1
1
1
1
1
1.00001
1.00002
1.00008
1.00011
1.0007
1.00101
1.0042
1.00804
1.03232
1.03402
1.35779
1.48275
3.12014
5.86662
8.37749
8.70492
8.6344
8.47908
8.34851
8.25836
8.17717
8.08691
7.98417
7.87042
7.74683
7.61429
7.4737
7.32475
7.16742
7.00186
6.82856
6.64796
6.46059
6.26624
6.06662
5.85165
1
1
1
1
1
1
1
1
1
1
1
1
1
1
1.00001
1.00002
1.00003
1.00018
1.00018
1.00152
1.00344
1.00691
1.0105
1.06457
1.06385
1.51292
1.74359
3.74919
7.00848
8.45171
8.53414
8.4536
8.28219
8.14106
8.03741
7.94188
7.84015
7.72976
7.61151
7.48611
7.35376
7.21431
7.06774
6.91429
6.75412
6.58745
6.41452
6.23541
6.05157
5.85383
1
1
1
1
1
1
1
1
1
1
1
1
1
1
1.00001
1.00001
1.00004
1.00005
1.00029
1.00033
1.00195
1.00455
1.00864
1.01417
1.08106
1.09314
1.65675
1.98381
4.2924
7.74807
8.42093
8.3782
8.24074
8.04777
7.9064
7.80015
7.7018
7.59882
7.48897
7.37202
7.24857
7.11869
6.98251
6.84009
6.69166
6.53743
6.37765
6.21218
6.04219
5.85883
1
1
1
1
1
1
1
1
1
1
1
1
1
1
1
1.00001
1.00001
1.00005
1.00008
1.00034
1.00041
1.00255
1.0049
1.01217
1.01233
1.10795
1.09237
1.97934
2.49469
5.77042
7.95109
8.2035
8.13184
7.96147
7.78051
7.65805
7.5657
7.4769
7.38077
7.27553
7.16213
7.04176
6.91502
6.78234
6.64381
6.49925
6.34953
6.19526
6.03857
5.86707
1
1
1
1
1
1
1
1
1
1
1
1
1
1
1
1
1
1.00002
1.00003
1.00016
1.00017
1.00129
1.00221
1.00656
1.00818
1.05479
1.05234
1.48177
1.60122
3.535
6.45213
7.76507
7.90102
7.84103
7.69957
7.56179
7.46111
7.3789
7.29495
7.20186
7.09918
6.98816
6.87008
6.74569
6.61575
6.48102
6.34131
6.19535
6.0439
5.88261
1
1
1
1
1
1
1
1
1
1
1
1
1
1
1
1
1.00001
1.00001
1.00004
1.00007
1.00026
1.00034
1.00157
1.00188
1.01041
1.01392
1.06871
1.07752
1.53224
1.77393
3.66933
6.58493
7.58835
7.71718
7.67453
7.57139
7.46139
7.35528
7.25602
7.15815
7.05767
6.95235
6.84097
6.72339
6.59945
6.46976
6.33491
6.19477
6.05078
5.89587
1
1
1
1
1
1
1
1
1
1
1
1
1
1
1
1
1
1
1.00002
1.00003
1.00012
1.00021
1.00078
1.00099
1.00704
1.01617
1.02032
1.01599
1.21071
1.19695
2.31122
3.5832
6.63462
7.54838
7.65786
7.61784
7.51653
7.38131
7.26669
7.16105
7.05505
6.9462
6.83271
6.71388
6.59016
6.46205
6.32935
6.19255
6.05284
5.90364
1
1
1
1
1
1
1
1
1
1
1
1
1
1
1
1
1
1
1
1.00002
1.00002
1.0001
1.00016
1.00062
1.00098
1.00426
1.00506
1.02878
1.04556
1.21531
1.25465
2.32743
3.82085
6.66499
7.52267
7.59272
7.54784
7.43922
7.29427
7.16124
7.04485
6.93078
6.81473
6.69553
6.57283
6.4469
6.31857
6.18668
6.05163
5.90774
1
1
1
1
1
1
1
1
1
1
1
1
1
1
1
1
1
1
1
1.00001
1.00001
1.00004
1.00006
1.00026
1.00022
1.00216
1.00376
1.01013
1.00988
1.0836
1.06881
1.77653
1.86497
4.46014
6.7918
7.416
7.44489
7.39396
7.27265
7.13538
7.00773
6.88886
6.77322
6.65745
6.53955
6.41955
6.29721
6.17259
6.04497
5.90622
1
1
1
1
1
1
1
1
1
1
1
1
1
1
1
1
1
1
1
1
1.00001
1.00001
1.00008
1.00018
1.00023
1.00031
1.00194
1.00352
1.00977
1.01586
1.08101
1.06809
1.83697
1.95866
4.70154
6.72561
7.21998
7.23882
7.19339
7.08008
6.92897
6.80028
6.68753
6.58197
6.47803
6.37205
6.26252
6.1483
6.0303
5.90161
1
1
1
1
1
1
1
1
1
1
1
1
1
1
1
1
1
1
1
1
1
1
1.00002
1.00003
1.0001
1.00018
1.00081
1.00095
1.00603
1.01174
1.02736
1.0374
1.30196
1.33875
2.64681
4.46711
6.41388
6.97052
7.06049
7.0283
6.93727
6.80565
6.68481
6.57168
6.46405
6.35802
6.25135
6.14194
6.02945
5.90442
1
1
1
1
1
1
1
1
1
1
1
1
1
1
1
1
1
1
1
1
1
1
1.00001
1.00003
1.00004
1.00018
1.00025
1.00097
1.00157
1.00594
1.00952
1.03649
1.03968
1.2802
1.31179
2.49154
4.11248
6.03722
6.76502
6.92197
6.90268
6.83201
6.70182
6.57842
6.46684
6.36048
6.25482
6.1467
6.03546
5.91512
1
1
1
1
1
1
1
1
1
1
1
1
1
1
1
1
1
1
1
1
1
1
1
1.00001
1.00001
1.00005
1.00007
1.00031
1.0004
1.00203
1.00488
1.00931
1.02298
1.0912
1.08921
1.72019
1.85276
3.57209
5.79293
6.60435
6.78487
6.77291
6.71308
6.59375
6.47478
6.3648
6.25856
6.15191
6.04482
5.93095
1
1
1
1
1
1
1
1
1
1
1
1
1
1
1
1
1
1
1
1
1
1
1
1.00001
1.00001
1.00004
1.00005
1.00019
1.00028
1.00099
1.00144
1.00544
1.00642
1.0336
1.05065
1.20396
1.22514
2.14724
3.01307
5.54168
6.40372
6.63446
6.63445
6.5919
6.49722
6.37988
6.26926
6.16329
6.06042
5.95632
1
1
1
1
1
1
1
1
1
1
1
1
1
1
1
1
1
1
1
1
1
1
1
1
1
1.00001
1.00003
1.00003
1.00014
1.00015
1.00089
1.00096
1.00477
1.00543
1.02791
1.04513
1.15949
1.18097
2.01389
2.45846
4.8825
6.07754
6.42524
6.4956
6.46957
6.4015
6.29396
6.1873
6.08968
6.00094
1
1
1
1
1
1
1
1
1
1
1
1
1
1
1
1
1
1
1
1
1
1
1
1
1
1
1.00002
1.00004
1.00005
1.00005
1.00037
1.00081
1.00106
1.00123
1.00986
1.02224
1.03375
1.0581
1.36622
1.41268
2.54169
4.09814
5.55011
6.16986
6.354
6.34935
6.31181
6.23775
6.15272
6.08554
1
1
1
1
1
1
1
1
1
1
1
1
1
1
1
1
1
1
1
1
1
1
1
1
1
1
1
1
1.00002
1.00002
1.00009
1.00011
1.00046
1.00062
1.00254
1.00312
1.0144
1.02343
1.08844
1.0661
1.66494
1.72222
3.263
5.07669
5.89816
6.16432
6.23769
6.23042
6.21836
6.22673
1
1
1
1
1
1
1
1
1
1
1
1
1
1
1
1
1
1
1
1
1
1
1
1
1
1
1
1
1
1.00002
1.00005
1.00008
1.00009
1.00045
1.00089
1.0019
1.00194
1.01429
1.03504
1.05087
1.04051
1.49065
1.48594
2.75882
4.23068
5.38977
5.93191
6.13203
6.21235
6.32767
1
1
1
1
1
1
1
1
1
1
1
1
1
1
1
1
1
1
1
1
1
1
1
1
1
1
1
1
1
1
1
1.00002
1.00002
1.00009
1.00015
1.00052
1.00032
1.00156
1.00231
0.998895
1.04825
1.11415
1.1025
1.64594
1.83198
3.11685
4.84344
5.64905
6.09433
6.4844
1
1
1
1
1
1
1
1
1
1
1
1
1
1
1
1
1
1
1
1
1
1
1
1
1
1
1
1
1
1
1
1.00001
1.00001
1.00005
1.00006
1.00026
1.0004
1.00127
1.00134
1.00444
1.00464
1.0002
1.07181
1.17359
1.15556
1.83079
2.18469
3.70727
5.41288
6.3395
1
1
1
1
1
1
1
1
1
1
1
1
1
1
1
1
1
1
1
1
1
1
1
1
1
1
1
1
1
1
1
1
1
1.00001
1.00002
1.00006
1.00008
1.00032
1.00039
1.00168
1.00188
1.00928
1.00872
1.05029
1.05622
1.27525
1.25408
2.27171
2.9859
5.32747
1
1
1
1
1
1
1
1
1
1
1
1
1
1
1
1
1
1
1
1
1
1
1
1
1
1
1
1
1
1
1
1
1
1.00001
1.00001
1.00003
1.00004
1.00014
1.00018
1.0007
1.00079
1.00353
1.00467
1.0189
1.02924
1.10941
1.15727
1.82623
2.04466
5.43659
1
1
1
1
1
1
1
1
1
1
1
1
1
1
1
1
1
1
1
1
1
1
1
1
1
1
1
1
1
1
1
1
1
1
1
1.00002
1.00002
1.00009
1.00011
1.00047
1.00054
1.00246
1.00305
1.01288
1.01566
1.09432
1.05786
1.85883
1.80201
5.94955
1
1
1
1
1
1
1
1
1
1
1
1
1
1
1
1
1
1
1
1
1
1
1
1
1
1
1
1
1
1
1
1
1
1
1
1.00001
1.00002
1.00007
1.0001
1.00039
1.00045
1.00203
1.00292
1.01021
1.01472
1.08155
1.04491
1.88055
1.85065
6.25033
1
1
1
1
1
1
1
1
1
1
1
1
1
1
1
1
1
1
1
1
1
1
1
1
1
1
1
1
1
1
1
1
1
1
1
1.00001
1.00002
1.00007
1.00009
1.00037
1.00042
1.00212
1.00229
1.01258
1.01229
1.0819
1.06435
1.7886
1.90337
5.922
1
1
1
1
1
1
1
1
1
1
1
1
1
1
1
1
1
1
1
1
1
1
1
1
1
1
1
1
1
1
1
1
1
1
1
1.00001
1.00001
1.00006
1.00008
1.00036
1.00045
1.0019
1.00254
1.00972
1.01469
1.08511
1.03595
1.90278
1.91267
6.56417
1
1
1
1
1
1
1
1
1
1
1
1
1
1
1
1
1
1
1
1
1
1
1
1
1
1
1
1
1
1
1
1
1
1
1
1
1.00001
1.00002
1.00008
1.00015
1.00023
0.998508
0.996848
0.998094
0.98463
1.01936
1.07586
0.936778
2.85274
4.42777
1
1
1
1
1
1
1
1
1
1
1
1
1
1
1
1
1
1
1
1
1
1
1
1
1
1
1
1
1
1
1
1
1
1
1
1
1.00001
1.00002
1.00009
1.00017
1.00031
0.997974
0.995658
0.996611
0.982473
1.01581
1.06935
0.927835
2.82843
4.37248
1
1
1
1
1
1
1
1
1
1
1
1
1
1
1
1
1
1
1
1
1
1
1
1
1
1
1
1
1
1
1
1
1
1
1
1.00001
1.00001
1.00006
1.00008
1.00027
1.00049
1.00151
1.00207
1.01187
1.02139
1.08503
1.05492
1.91632
2.00363
6.78427
1
1
1
1
1
1
1
1
1
1
1
1
1
1
1
1
1
1
1
1
1
1
1
1
1
1
1
1
1
1
1
1
1
1
1
1
1.00001
1.00002
1.00008
1.00017
1.0003
0.998047
0.995846
0.996724
0.982675
1.01627
1.0706
0.929068
2.83924
4.38691
2.50636
2.51327
3.69181
3.51945
3.27574
3.16063
3.08365
2.95194
2.81533
2.71777
2.6491
2.58658
2.52362
2.46843
2.42436
2.38829
2.35407
2.33364
2.32451
2.32163
2.32154
2.35266
2.42469
2.54231
2.70119
2.88624
3.08323
3.28341
3.47883
3.65992
3.8217
3.96462
4.08843
4.19968
4.29397
4.37257
4.43758
4.48875
4.53472
4.56964
4.592
4.6056
4.61119
4.6108
4.6069
4.59646
4.5767
4.55334
4.52594
4.49606
4.46284
4.42721
4.38876
4.34834
4.30564
4.26153
4.21569
4.16892
4.12093
4.0724
4.02305
3.97343
3.92332
3.87313
3.8227
3.7724
3.72209
3.67208
3.62228
3.57294
3.52399
3.47564
3.42783
3.38073
3.33431
3.2887
3.24392
3.20005
3.15714
3.11524
3.07445
3.0348
2.99642
2.95935
2.92374
2.88964
2.85726
2.82668
2.79815
2.77182
2.74799
2.72692
2.70892
2.69469
2.68403
2.68348
2.68467
2.68818
2.69603
2.71255
3.35363
3.39505
3.70108
3.50024
3.27056
3.21075
3.1547
2.96203
2.7912
2.68271
2.62895
2.57941
2.52362
2.4696
2.4255
2.39174
2.36264
2.33808
2.32625
2.32221
2.32194
2.34718
2.41035
2.52314
2.68328
2.86996
3.06765
3.26619
3.46028
3.64034
3.80058
3.94301
4.06505
4.18083
4.27713
4.35697
4.42276
4.47671
4.52236
4.55755
4.58126
4.59532
4.60171
4.60135
4.59846
4.58974
4.57107
4.54559
4.51825
4.48851
4.4561
4.42069
4.38275
4.34256
4.30035
4.25652
4.21113
4.16464
4.11704
4.06874
4.01972
3.97031
3.92047
3.87047
3.82029
3.77016
3.72006
3.67019
3.62056
3.57133
3.52252
3.47425
3.42658
3.37956
3.33329
3.28781
3.2432
3.19949
3.15679
3.11511
3.07458
3.0352
2.99713
2.96038
2.92515
2.89145
2.85955
2.82948
2.80154
2.77586
2.75273
2.73241
2.71515
2.70167
2.69148
2.69115
2.69232
2.69576
2.70346
2.71982
4.36497
3.98335
3.84149
3.55417
3.30728
3.16823
3.07319
2.92781
2.78507
2.70219
2.65115
2.60134
2.52706
2.46412
2.41371
2.38006
2.35763
2.33922
2.32611
2.32108
2.32073
2.34016
2.39381
2.49564
2.6509
2.83713
3.03106
3.22494
3.42614
3.61044
3.77566
3.92075
4.04736
4.16135
4.25776
4.33826
4.40539
4.46021
4.50552
4.54063
4.56546
4.58052
4.58743
4.58722
4.58508
4.57818
4.56236
4.53579
4.50748
4.47779
4.44573
4.411
4.37357
4.33394
4.2922
4.24886
4.20397
4.15795
4.11083
4.06295
4.01437
3.96532
3.91587
3.8662
3.81638
3.76653
3.71676
3.66714
3.61778
3.56876
3.52019
3.47213
3.42469
3.37792
3.33193
3.28676
3.2425
3.19918
3.15691
3.11573
3.07573
3.03693
2.99949
2.96343
2.92898
2.89615
2.86522
2.83625
2.80953
2.78518
2.76349
2.74467
2.72889
2.71676
2.70771
2.70729
2.70827
2.71123
2.71788
2.73237
4.78928
4.29109
4.01976
3.6853
3.39739
3.20575
3.08339
2.93
2.78642
2.68674
2.62416
2.57564
2.51705
2.46155
2.41625
2.38559
2.36536
2.34741
2.32674
2.31177
2.3058
2.32074
2.36957
2.46156
2.61522
2.79844
2.9942
3.19395
3.39105
3.57379
3.73703
3.88195
4.00916
4.12349
4.22209
4.30592
4.37529
4.43257
4.47873
4.515
4.54089
4.55737
4.56523
4.56517
4.56365
4.55846
4.5461
4.52115
4.49174
4.46145
4.42963
4.39564
4.35909
4.32026
4.27931
4.23668
4.19253
4.14719
4.10077
4.05353
4.00559
3.95713
3.90827
3.85914
3.80985
3.7605
3.71118
3.662
3.61305
3.56442
3.51622
3.46855
3.42151
3.37519
3.32967
3.28506
3.24137
3.19875
3.15721
3.11684
3.07774
3.03993
3.00358
2.96872
2.93558
2.90423
2.87493
2.84778
2.82304
2.80083
2.78137
2.76479
2.75117
2.74082
2.73326
2.73184
2.73247
2.73438
2.73886
2.74914
5.02222
4.52726
4.18038
3.84689
3.54
3.29707
3.12312
2.96099
2.81529
2.71175
2.64263
2.58279
2.52045
2.46364
2.41736
2.38504
2.36257
2.34287
2.32619
2.31592
2.31769
2.33241
2.37615
2.46887
2.60548
2.77308
2.94173
3.12785
3.32023
3.50531
3.67334
3.82311
3.95458
4.07066
4.17175
4.25876
4.33174
4.39239
4.44126
4.47971
4.50769
4.52618
4.53568
4.53658
4.53551
4.53164
4.52206
4.50196
4.47271
4.44191
4.41009
4.37663
4.34097
4.30309
4.26312
4.22138
4.17811
4.13359
4.088
4.04155
3.99439
3.94667
3.89853
3.85008
3.80144
3.75272
3.70401
3.6554
3.60701
3.55894
3.5113
3.46424
3.41783
3.3722
3.32745
3.28364
3.24087
3.19924
3.15881
3.11959
3.08179
3.04538
3.01062
2.97751
2.94635
2.91718
2.89027
2.86571
2.84372
2.82437
2.80774
2.79385
2.78256
2.77383
2.76723
2.76354
2.76249
2.76262
2.7635
2.76702
5.17816
4.71847
4.34804
4.00743
3.69063
3.42764
3.2116
3.03413
2.88255
2.76547
2.6762
2.60354
2.53856
2.48154
2.43408
2.40057
2.37675
2.35952
2.3484
2.34855
2.35501
2.37887
2.43664
2.53213
2.64127
2.77083
2.91752
3.05613
3.20765
3.38568
3.56172
3.72908
3.87634
4.00235
4.10921
4.19949
4.27515
4.3387
4.3908
4.43228
4.46336
4.48483
4.49702
4.50007
4.49935
4.49659
4.48959
4.47459
4.44813
4.41796
4.38622
4.35308
4.3182
4.28135
4.24252
4.20192
4.15975
4.11629
4.07171
4.02625
3.98002
3.93323
3.88596
3.83838
3.79056
3.74265
3.6947
3.64685
3.59919
3.55188
3.50502
3.4588
3.4133
3.36865
3.32499
3.28229
3.24074
3.20048
3.16157
3.12393
3.08791
3.05349
3.02097
2.99034
2.96189
2.93566
2.91191
2.89066
2.87204
2.85599
2.84241
2.83106
2.82159
2.81356
2.8065
2.8002
2.79467
2.78968
2.78518
2.78573
5.28805
4.86924
4.50397
4.16131
3.84343
3.5656
3.32935
3.13653
2.97217
2.83776
2.73101
2.64579
2.57489
2.51433
2.46401
2.42732
2.40564
2.39804
2.39943
2.40751
2.43234
2.49122
2.60639
2.69834
2.76889
2.84125
2.92241
3.02575
3.11027
3.22075
3.37472
3.56193
3.74005
3.89687
4.02595
4.12886
4.21085
4.27804
4.33267
4.37659
4.4108
4.43567
4.45128
4.45769
4.45739
4.4557
4.45096
4.44051
4.41929
4.39093
4.35971
4.3269
4.29258
4.25667
4.21897
4.17963
4.1387
4.09648
4.05306
4.00872
3.96355
3.91779
3.87152
3.82491
3.77805
3.73106
3.68403
3.63708
3.59037
3.54402
3.49824
3.45314
3.40877
3.36551
3.32332
3.28229
3.24262
3.20405
3.16708
3.13165
3.09807
3.0663
3.03667
3.00923
2.98419
2.96162
2.94159
2.9241
2.90902
2.89612
2.88501
2.87518
2.86603
2.85693
2.84734
2.83685
2.82556
2.81426
2.80182
2.79468
5.36705
4.98895
4.64052
4.30405
3.98864
3.70352
3.45621
3.24725
3.06884
2.92052
2.80054
2.70255
2.62404
2.55797
2.5061
2.46955
2.4584
2.46047
2.47028
2.49863
2.56552
2.70725
2.87086
2.94897
2.97686
2.99169
3.00216
3.02382
3.07236
3.12787
3.20542
3.33138
3.51171
3.70481
3.87892
4.01889
4.12602
4.20667
4.26716
4.3137
4.3503
4.37793
4.3969
4.40747
4.40922
4.40842
4.40557
4.39857
4.38382
4.35912
4.32947
4.29739
4.26366
4.22856
4.19197
4.15395
4.11442
4.07359
4.0315
3.98843
3.94449
3.8999
3.8548
3.80932
3.76359
3.71769
3.67178
3.62596
3.58047
3.53538
3.49101
3.44735
3.4049
3.36325
3.32297
3.28391
3.24628
3.21007
3.17566
3.14305
3.11254
3.08422
3.05828
3.03476
3.01375
2.99526
2.97918
2.96529
2.95322
2.9424
2.93225
2.92202
2.91104
2.89867
2.88456
2.86851
2.85084
2.83124
2.80895
2.79482
5.42509
5.07995
4.75487
4.43255
4.12395
3.83831
3.58463
3.36386
3.1748
3.0145
2.8818
2.77121
2.68467
2.61252
2.55968
2.53136
2.53274
2.54166
2.56911
2.63562
2.77861
3.05365
3.22419
3.25244
3.24388
3.21527
3.15209
3.08463
3.08381
3.0975
3.13447
3.1998
3.30544
3.45044
3.64047
3.82497
3.98219
4.10119
4.18547
4.24379
4.28543
4.31574
4.33689
4.35032
4.35592
4.35566
4.35419
4.35007
4.34081
4.32201
4.29525
4.26479
4.2321
4.19795
4.16246
4.12573
4.08763
4.04827
4.00767
3.96601
3.92348
3.88022
3.83647
3.79225
3.74784
3.70319
3.65864
3.61417
3.57023
3.52681
3.48434
3.44266
3.40219
3.36285
3.32494
3.28831
3.25341
3.22027
3.18917
3.16023
3.13364
3.10959
3.08789
3.06871
3.05198
3.03747
3.02481
3.01345
3.00278
2.99198
2.98041
2.9673
2.95215
2.93456
2.91461
2.89139
2.86467
2.83671
2.80957
2.78978
5.47146
5.15348
4.85086
4.54362
4.2461
3.9657
3.71066
3.48337
3.28567
3.1149
2.97154
2.85076
2.75451
2.67745
2.6274
2.61977
2.62589
2.6491
2.70981
2.84655
3.1333
3.48218
3.59945
3.59035
3.55401
3.46848
3.32069
3.20141
3.13094
3.11699
3.12517
3.15303
3.20943
3.28771
3.39513
3.56137
3.7488
3.91828
4.05057
4.14396
4.20636
4.24686
4.27322
4.2888
4.29751
4.29881
4.29817
4.29587
4.2902
4.27818
4.25596
4.22853
4.19785
4.16511
4.13088
4.09542
4.05874
4.02085
3.98182
3.94169
3.90074
3.85896
3.81675
3.77399
3.7311
3.68794
3.64501
3.60234
3.56041
3.51911
3.47885
3.43954
3.40164
3.36503
3.32988
3.29645
3.265
3.23567
3.20865
3.18407
3.16206
3.14237
3.12526
3.11037
3.0974
3.08579
3.07493
3.06396
3.05231
3.03892
3.02352
3.00538
2.98457
2.96006
2.93153
2.90034
2.86799
2.83629
2.80613
2.78157
5.50528
5.21261
4.93121
4.64203
4.35663
4.08289
3.83103
3.60136
3.39772
3.21934
3.06673
2.93786
2.83517
2.75473
2.72263
2.72644
2.74448
2.79512
2.91247
3.15918
3.64059
3.93919
3.95292
3.92797
3.85306
3.69368
3.50564
3.35615
3.24963
3.1845
3.15976
3.16323
3.18055
3.22015
3.2728
3.36047
3.48599
3.6583
3.82924
3.97465
4.08215
4.1535
4.19723
4.2219
4.23483
4.23884
4.23849
4.23711
4.23357
4.22584
4.21014
4.1871
4.15969
4.12928
4.09684
4.06283
4.02763
3.99122
3.95384
3.91538
3.87619
3.83616
3.79572
3.75472
3.71361
3.67236
3.63158
3.59119
3.55162
3.51286
3.47529
3.43906
3.40427
3.37091
3.33945
3.31009
3.283
3.25833
3.23617
3.21656
3.19929
3.18423
3.17112
3.15945
3.14856
3.13766
3.12596
3.11263
3.09708
3.07872
3.05748
3.03231
3.0029
2.97043
2.93613
2.90123
2.86621
2.83149
2.79905
2.77117
5.53408
5.26145
4.99935
4.72785
4.4556
4.19183
3.94261
3.71345
3.50748
3.32467
3.16581
3.03184
2.92717
2.85266
2.85292
2.86457
2.90559
3.00926
3.23635
3.70244
4.18041
4.30687
4.28927
4.22855
4.09215
3.88037
3.68718
3.52898
3.40393
3.31093
3.24669
3.2064
3.20182
3.20806
3.22843
3.26686
3.32605
3.42062
3.56622
3.73103
3.88308
4.00277
4.08524
4.1354
4.16242
4.17414
4.1755
4.1748
4.17261
4.16762
4.15732
4.13956
4.11661
4.08966
4.05987
4.02791
3.99451
3.95978
3.92415
3.88751
3.85025
3.81222
3.7738
3.73488
3.69596
3.65718
3.61896
3.58133
3.54463
3.50903
3.47495
3.44226
3.41112
3.38201
3.35513
3.33062
3.3086
3.2891
3.27204
3.25723
3.24421
3.23273
3.22206
3.21143
3.20002
3.18695
3.17157
3.15334
3.13193
3.10642
3.07648
3.04333
3.00805
2.97181
2.93481
2.89726
2.85984
2.82317
2.78941
2.75962
5.56084
5.30674
5.0609
4.80371
4.54385
4.28916
4.0461
3.82031
3.61307
3.42777
3.2676
3.135
3.03381
2.99894
3.00753
3.04196
3.13302
3.33675
3.75946
4.33817
4.59697
4.59117
4.55357
4.45754
4.26287
4.05257
3.8676
3.71079
3.57787
3.46662
3.37518
3.30382
3.25523
3.22614
3.22709
3.23562
3.25609
3.29771
3.36705
3.48146
3.62859
3.77916
3.90765
4.00184
4.06181
4.09441
4.10801
4.10882
4.10793
4.1052
4.09913
4.08677
4.06841
4.04548
4.01917
3.99011
3.95913
3.92653
3.89295
3.8584
3.82328
3.78753
3.75144
3.71508
3.67892
3.64312
3.60798
3.57371
3.54062
3.5091
3.47896
3.45048
3.42416
3.40019
3.37865
3.3596
3.34298
3.32858
3.31609
3.30493
3.29471
3.28455
3.27361
3.261
3.24601
3.22811
3.20677
3.18116
3.15095
3.11741
3.08158
3.04448
3.00623
2.96711
2.9276
2.88824
2.84956
2.81206
2.77799
2.74772
5.58715
5.34615
5.11379
4.87047
4.62211
4.37674
4.14032
3.91896
3.71485
3.5333
3.3764
3.25191
3.18194
3.18649
3.21307
3.29127
3.47344
3.85523
4.48499
4.82182
4.84731
4.82355
4.75225
4.60042
4.40071
4.21415
4.04657
3.89513
3.75813
3.63486
3.52553
3.43124
3.35301
3.29132
3.25068
3.23429
3.23693
3.24653
3.27045
3.31947
3.40027
3.52821
3.6688
3.80123
3.90665
3.97805
4.01868
4.03658
4.03931
4.03845
4.0356
4.02906
4.01583
3.99704
3.97459
3.94899
3.9211
3.89133
3.86032
3.82832
3.79571
3.7626
3.7293
3.69605
3.66321
3.63099
3.59968
3.56957
3.54114
3.51402
3.48871
3.46566
3.44499
3.42675
3.41089
3.39723
3.38545
3.37503
3.36544
3.35595
3.34569
3.33377
3.31938
3.30202
3.28098
3.25551
3.22536
3.19169
3.15568
3.11801
3.07886
3.03858
2.99767
2.95669
2.91593
2.8759
2.8371
2.79993
2.76646
2.73697
5.61393
5.38023
5.1587
4.92757
4.69015