/*--------------------------------*- C++ -*----------------------------------*\
| =========                 |                                                 |
| \\      /  F ield         | OpenFOAM: The Open Source CFD Toolbox           |
|  \\    /   O peration     | Version:  2112                                  |
|   \\  /    A nd           | Website:  www.openfoam.com                      |
|    \\/     M anipulation  |                                                 |
\*---------------------------------------------------------------------------*/
FoamFile
{
    version     2.0;
    format      ascii;
    arch        "LSB;label=32;scalar=64";
    class       surfaceScalarField;
    location    "4.5";
    object      phi;
}
// * * * * * * * * * * * * * * * * * * * * * * * * * * * * * * * * * * * * * //

dimensions      [1 0 -1 0 0 0 0];

oriented        oriented;

internalField   nonuniform List<scalar> 
13790
(
0.00290515
5.65529e-09
0.00290514
2.88611e-09
0.00290514
1.03158e-09
0.00290514
5.44756e-11
0.00290514
4.99495e-10
0.00290514
7.81717e-10
0.00290514
1.03244e-09
0.00290514
1.03893e-09
0.00290514
1.75195e-09
0.00290514
8.19945e-10
0.00290514
1.93511e-09
0.00290514
6.53768e-09
0.00290514
3.65643e-08
0.0029051
8.17609e-08
0.00290488
2.48492e-07
0.00290459
4.75543e-07
0.00290231
9.5723e-07
0.0029016
-7.02825e-07
0.002897
8.02686e-06
0.00286301
-7.86653e-08
0.00285397
3.30712e-05
0.00263254
0.000205364
0.0025635
8.3648e-05
0.00254133
3.08599e-05
0.00249961
4.24214e-05
0.0024361
6.09935e-05
0.00236082
7.25354e-05
0.00227954
7.94238e-05
0.0021982
8.16541e-05
0.00211418
8.5027e-05
0.00202533
8.96487e-05
0.00193117
9.41173e-05
0.00183219
9.84722e-05
0.00172892
0.000102622
0.0016215
0.000106852
0.0015104
0.000110828
0.00139562
0.00011468
0.00127764
0.000118005
0.00115686
0.000120827
0.00103415
0.000122805
0.000910426
0.000123875
0.000787055
0.000123447
0.000666419
0.000120951
0.000549978
0.000117049
0.000440237
0.000110434
0.000338735
0.000102175
0.000245895
9.35098e-05
0.000160652
8.58235e-05
7.97065e-05
8.15183e-05
8.02907e-05
0.00301309
6.47697e-09
0.00301309
4.74859e-09
0.00301309
3.36198e-09
0.00301309
2.40263e-09
0.00301308
2.21921e-09
0.00301308
2.17662e-09
0.00301308
2.11645e-09
0.00301308
1.78115e-09
0.00301308
2.97699e-09
0.00301308
1.75233e-09
0.00301308
4.03833e-09
0.00301308
1.10877e-08
0.00301309
4.41918e-08
0.0030131
1.07318e-07
0.00301298
2.65392e-07
0.00301276
6.10728e-07
0.00301048
8.79354e-07
0.00300885
-4.64298e-07
0.00301135
1.01526e-05
0.00296546
6.95968e-06
0.00295914
6.61342e-05
0.00282104
0.000321234
0.00274695
0.000171885
0.00271425
7.23977e-05
0.00266801
8.92628e-05
0.00260425
0.000122352
0.0025308
0.000143469
0.00245364
0.000154993
0.00237515
0.000160761
0.00229279
0.00016856
0.00220555
0.000177878
0.00211256
0.000187274
0.00201451
0.000196128
0.0019115
0.000205033
0.00180432
0.000213608
0.00169291
0.000222191
0.00157768
0.000229995
0.00145863
0.000237311
0.00133625
0.000243363
0.00121081
0.000248219
0.00108351
0.000251142
0.000955132
0.000252013
0.000826117
0.000250242
0.000698317
0.000245148
0.000571736
0.000237475
0.000448305
0.000226189
0.000328156
0.000214344
0.000212621
0.000202004
0.000102911
0.000191851
0.000183843
0.00312505
6.80767e-09
0.00312504
6.03965e-09
0.00312504
5.3212e-09
0.00312504
4.61422e-09
0.00312504
4.08777e-09
0.00312504
3.57948e-09
0.00312504
3.07512e-09
0.00312503
2.29968e-09
0.00312503
4.09012e-09
0.00312503
2.50805e-09
0.00312504
2.05219e-09
0.00312505
4.68637e-09
0.00312504
2.87435e-08
0.00312511
6.72246e-08
0.0031249
2.2502e-07
0.00312464
5.1843e-07
0.0031214
1.12872e-06
0.00311769
1.54741e-06
0.00312645
7.1713e-06
0.00308429
2.15995e-05
0.00309551
7.35254e-05
0.00299922
0.000394399
0.00295332
0.000229765
0.00292633
0.000107139
0.00287359
0.000141834
0.00280796
0.000185526
0.00273408
0.000214895
0.00265863
0.000229201
0.00257976
0.000240499
0.00249584
0.000253903
0.00240616
0.000268556
0.00231083
0.000282668
0.00220998
0.000296468
0.00210441
0.000309967
0.00199385
0.000323623
0.00187912
0.000336669
0.00175946
0.000349467
0.00163606
0.000360675
0.00150834
0.000371221
0.00137761
0.000379182
0.0012431
0.000385809
0.00110681
0.000388635
0.000967873
0.000389508
0.00082786
0.000385435
0.000687244
0.000378511
0.000546089
0.000367967
0.000406208
0.000354943
0.000267319
0.000341565
0.000131152
0.000328642
0.000315584
0.00324116
6.63939e-09
0.00324116
6.41442e-09
0.00324116
6.29238e-09
0.00324115
6.23201e-09
0.00324115
5.67299e-09
0.00324115
5.04853e-09
0.00324115
4.35096e-09
0.00324115
3.13788e-09
0.00324115
5.76551e-09
0.00324115
3.65994e-09
0.00324115
-4.15025e-10
0.00324116
-6.45168e-09
0.00324119
-9.87174e-10
0.00324128
-5.64351e-09
0.00324127
9.97017e-08
0.00324129
3.18029e-07
0.00323951
1.08214e-06
0.00323897
1.40991e-06
0.00324317
5.49992e-06
0.00322464
2.54111e-05
0.00323582
6.96549e-05
0.00323208
0.000380647
0.003232
0.000239878
0.00317705
0.00016799
0.00310159
0.000216375
0.00302547
0.000259269
0.00295114
0.000286861
0.00287434
0.000304881
0.00279235
0.000322985
0.00270378
0.000343512
0.00260892
0.000364143
0.00250821
0.000383465
0.002402
0.000402256
0.00229101
0.000420569
0.00217545
0.000439027
0.0020553
0.000456898
0.00193047
0.000474393
0.00180063
0.000490491
0.00166664
0.000505263
0.00152791
0.000517977
0.00138598
0.000527911
0.0012396
0.000535319
0.00109132
0.000538197
0.000938759
0.000538409
0.000785052
0.000532659
0.000628808
0.000524787
0.000471098
0.000513237
0.000313977
0.000499225
0.000156614
0.000486538
0.000472695
0.00336158
6.4121e-09
0.00336158
6.44408e-09
0.00336158
6.80406e-09
0.00336158
7.24873e-09
0.00336158
6.82358e-09
0.00336158
6.34928e-09
0.00336158
5.80029e-09
0.00336158
4.73201e-09
0.00336157
9.64851e-09
0.00336157
6.16757e-09
0.00336157
1.37626e-09
0.00336159
-2.67048e-08
0.0033617
-3.21121e-08
0.0033619
-1.88496e-07
0.00336256
-2.52608e-07
0.00336476
-1.39536e-06
0.0033692
-1.02805e-06
0.00337516
-2.29417e-06
0.00335918
1.48188e-05
0.00338822
-5.6037e-07
0.00338526
7.11756e-05
0.003479
0.000271031
0.00351991
0.000209583
0.00342577
0.000266082
0.00331936
0.000321185
0.00322907
0.000347459
0.00314541
0.000368424
0.00306155
0.000387609
0.00297136
0.000413526
0.00287498
0.000440686
0.00277346
0.00046619
0.00266674
0.000489951
0.00255503
0.000513066
0.00243872
0.000535894
0.00231849
0.000558634
0.0021939
0.000581191
0.00206499
0.000603085
0.00193097
0.000624242
0.00179231
0.000643548
0.00164872
0.000661353
0.0015004
0.000676033
0.00134779
0.000687974
0.0011902
0.000696012
0.00102955
0.000699379
0.000863162
0.000699382
0.000695236
0.000693133
0.000523626
0.000685407
0.000349459
0.000673851
0.000174972
0.000661393
0.000647988
0.00348648
6.11809e-09
0.00348648
6.21258e-09
0.00348648
6.81748e-09
0.00348648
7.39129e-09
0.00348648
7.54807e-09
0.00348648
7.37987e-09
0.00348648
7.15165e-09
0.00348648
6.37295e-09
0.00348647
1.45962e-08
0.00348647
3.94121e-09
0.00348647
3.90698e-09
0.00348652
-6.94085e-08
0.00348652
-2.32786e-08
0.0034868
-4.67181e-07
0.00348661
-6.84171e-08
0.00348889
-3.77531e-06
0.00348329
3.90297e-06
0.00346927
1.1523e-05
0.00348055
4.40001e-06
0.00343504
3.34078e-05
0.00351787
-2.64132e-06
0.00364703
0.000120808
0.00365995
0.000200196
0.00353186
0.000391623
0.00341079
0.000437567
0.00331149
0.000443106
0.00322185
0.000455239
0.00313273
0.000475479
0.0030396
0.000506676
0.00294248
0.000538167
0.0028422
0.000566577
0.00273741
0.000594157
0.00262826
0.000620917
0.00251436
0.000648467
0.00239649
0.000675605
0.00227373
0.00070348
0.00214622
0.000730262
0.002013
0.000756988
0.00187423
0.000781669
0.00173002
0.000804988
0.00158
0.000825696
0.00142482
0.000843097
0.00126336
0.000857612
0.00109619
0.000866798
0.000924158
0.000871689
0.000745114
0.000872383
0.000563673
0.000867088
0.000378299
0.000859516
0.000190019
0.000849989
0.000838268
0.00361602
5.74677e-09
0.00361602
6.0241e-09
0.00361602
6.46098e-09
0.00361602
7.52549e-09
0.00361602
7.61994e-09
0.00361602
7.7073e-09
0.00361602
7.54597e-09
0.00361602
7.15837e-09
0.00361603
5.1545e-09
0.00361602
1.34148e-08
0.00361601
1.89885e-08
0.00361586
8.2152e-08
0.00361573
1.2855e-07
0.00361478
6.1753e-07
0.00361367
8.54783e-07
0.00359985
4.85863e-06
0.00360525
1.85253e-06
0.00366959
9.5789e-07
0.00361805
9.36807e-06
0.0036344
1.13794e-05
0.0036286
2.79425e-06
0.00366356
7.30901e-05
0.00358142
0.00028025
0.00348632
0.000483007
0.00339484
0.000526036
0.00331133
0.000525337
0.00323066
0.000535016
0.00314342
0.000562774
0.00305228
0.000598377
0.00295845
0.0006325
0.00286135
0.000663747
0.00276044
0.000694545
0.00265482
0.000725523
0.00254519
0.000757114
0.00243093
0.000789373
0.00231234
0.000821796
0.00218789
0.000854521
0.00205817
0.000886262
0.00192137
0.000917768
0.00177909
0.000946675
0.00162948
0.000974719
0.00147371
0.000998461
0.00131162
0.00101957
0.0011415
0.001037
0.000964536
0.00104859
0.000782164
0.00105479
0.000591743
0.00105755
0.000397572
0.00105379
0.000199737
0.00104788
0.00103806
0.00375038
5.47077e-09
0.00375038
5.57411e-09
0.00375038
6.27119e-09
0.00375038
6.93961e-09
0.00375038
7.85964e-09
0.00375038
8.40758e-09
0.00375037
8.93533e-09
0.00375037
9.35882e-09
0.00375036
1.22796e-08
0.00375038
3.53623e-09
0.00375039
1.98551e-09
0.00375051
-2.2096e-08
0.00375064
3.90024e-09
0.00375126
-1.02221e-08
0.00375201
1.70618e-07
0.00375653
-2.26579e-08
0.00375553
2.9037e-06
0.0037527
3.92297e-06
0.00375649
5.83649e-06
0.00374813
1.89609e-05
0.00374091
6.37846e-06
0.00376118
4.67447e-05
0.0036544
0.000380314
0.00352579
0.000606849
0.00343754
0.000611708
0.00335578
0.000606102
0.00327102
0.00061916
0.00317743
0.000656382
0.00308099
0.000695355
0.00298352
0.000729995
0.00288378
0.000763243
0.00278104
0.000796384
0.00267472
0.000830734
0.00256509
0.00086578
0.00245181
0.000902305
0.00233407
0.000939344
0.0022113
0.000977072
0.00208267
0.00101457
0.00194821
0.00105158
0.00180687
0.00108767
0.00165959
0.00112168
0.00150344
0.00115437
0.00134116
0.00118168
0.00117133
0.00120683
0.000992071
0.00122776
0.00080439
0.00124218
0.00061218
0.00124963
0.000411976
0.00125388
0.000208057
0.00125176
0.00124604
0.00388972
5.10849e-09
0.00388972
5.23258e-09
0.00388972
5.84015e-09
0.00388972
6.59933e-09
0.00388972
7.44324e-09
0.00388972
7.76199e-09
0.00388972
7.90518e-09
0.00388973
7.81618e-09
0.00388972
8.47602e-09
0.00388975
2.10673e-09
0.00388973
-1.37934e-09
0.00388991
-3.83287e-08
0.0038896
-3.60836e-08
0.00389088
-3.6554e-07
0.00388926
-1.70088e-07
0.00389773
-2.97018e-06
0.00389295
1.0434e-06
0.00394943
1.9622e-06
0.00389897
1.0736e-05
0.00389361
1.74517e-05
0.00387563
2.04684e-05
0.00384751
7.11844e-05
0.00371818
0.000499673
0.00357199
0.000747648
0.00350405
0.000677571
0.00342238
0.000686976
0.00333249
0.000708603
0.00323191
0.00075695
0.00312987
0.000797622
0.00302703
0.000832637
0.00292217
0.000867421
0.00281473
0.000902744
0.00270464
0.00093971
0.00259186
0.000977808
0.00247609
0.00101773
0.00235653
0.00105875
0.00223261
0.00110078
0.00210327
0.00114363
0.00196837
0.00118594
0.00182706
0.00122852
0.00167935
0.00126916
0.00152445
0.00130907
0.00135967
0.00134633
0.00118863
0.00137781
0.00100992
0.00140625
0.000821441
0.00143032
0.000622887
0.00144778
0.000420641
0.00145587
0.000211409
0.00146075
0.00145712
0.00403424
4.74013e-09
0.00403424
4.85121e-09
0.00403424
5.40879e-09
0.00403425
6.14226e-09
0.00403425
7.12525e-09
0.00403425
7.23732e-09
0.00403425
7.17611e-09
0.00403425
6.48474e-09
0.00403425
4.87895e-09
0.00403425
4.21834e-09
0.00403425
8.45555e-09
0.00403419
2.24048e-08
0.00403416
5.35844e-08
0.00403357
1.2811e-07
0.00403323
3.02261e-07
0.00403433
4.086e-07
0.00403013
2.15341e-06
0.00399499
3.79245e-06
0.00402499
1.0521e-05
0.0040231
1.74585e-05
0.00401598
2.80767e-05
0.003989
9.55437e-05
0.00385808
0.00062159
0.00373102
0.00087017
0.00362721
0.000779626
0.00352451
0.000789102
0.00341898
0.00081365
0.00331099
0.000864536
0.00320257
0.00090585
0.00309268
0.000941901
0.00298112
0.000978029
0.00286739
0.00101523
0.0027518
0.00105423
0.00263382
0.00109514
0.00251337
0.00113779
0.00238908
0.00118261
0.00226151
0.001228
0.00212915
0.00127574
0.00199173
0.00132304
0.00184848
0.00137159
0.00169855
0.00141888
0.00154293
0.00146472
0.00137911
0.00151014
0.00120453
0.00155247
0.00102162
0.00158885
0.000832446
0.001619
0.000634786
0.001645
0.000427008
0.00166324
0.000216195
0.00167116
0.00167302
0.00418414
4.35145e-09
0.00418414
4.45315e-09
0.00418414
4.955e-09
0.00418414
5.63472e-09
0.00418414
6.46009e-09
0.00418414
7.12686e-09
0.00418414
7.69757e-09
0.00418414
6.59975e-09
0.00418414
5.0706e-09
0.00418414
6.61018e-09
0.00418413
1.43225e-08
0.00418412
4.46956e-08
0.00418404
1.04338e-07
0.00418402
2.88647e-07
0.0041837
5.46884e-07
0.00417908
1.71002e-06
0.00418034
3.40396e-06
0.00421475
3.48618e-06
0.00418183
1.2507e-05
0.0041814
1.9809e-05
0.00416953
3.58572e-05
0.00413907
0.000120723
0.00397372
0.000778415
0.00393005
0.00091428
0.00377554
0.00093301
0.00364563
0.000918959
0.00352232
0.000936944
0.00340906
0.000977386
0.00329452
0.00101991
0.00317756
0.00105797
0.00305911
0.00109543
0.00293892
0.00113427
0.00281749
0.00117488
0.00269387
0.00121836
0.00256818
0.00126333
0.00243909
0.00131146
0.00230635
0.00136052
0.0021695
0.00141231
0.00202743
0.00146476
0.00188033
0.0015184
0.00172593
0.00157301
0.00156484
0.00162549
0.00139835
0.0016767
0.00122415
0.00172667
0.00103949
0.00177328
0.000844223
0.00181376
0.000641926
0.00184661
0.000434521
0.00187017
0.00021819
0.00188708
0.00189063
0.0043396
3.92636e-09
0.0043396
4.05915e-09
0.0043396
4.46053e-09
0.0043396
5.13456e-09
0.0043396
5.69084e-09
0.0043396
6.8091e-09
0.0043396
7.78172e-09
0.0043396
6.51417e-09
0.0043396
5.19232e-09
0.0043396
6.51348e-09
0.0043396
1.33885e-08
0.00433959
4.07362e-08
0.00433966
9.54715e-08
0.0043395
2.63496e-07
0.00434011
4.71708e-07
0.00434251
1.66855e-06
0.00434187
2.60175e-06
0.00431063
1.65746e-06
0.00433838
1.32772e-05
0.0043352
2.17443e-05
0.00432323
4.81681e-05
0.00429849
0.00014297
0.0041422
0.00092795
0.00402222
0.00103152
0.00390512
0.00105043
0.00377473
0.00105035
0.00364673
0.00106595
0.00352665
0.00109789
0.00340693
0.00113936
0.00328394
0.00117983
0.00315947
0.00121867
0.00303289
0.00125954
0.00290509
0.00130173
0.00277533
0.00134768
0.0026431
0.00139525
0.00250798
0.00144619
0.00236914
0.00149908
0.00222655
0.00155462
0.002079
0.00161203
0.00192715
0.0016703
0.00176934
0.00173073
0.00160351
0.00179127
0.00142975
0.00185051
0.00124883
0.0019077
0.00106067
0.00196124
0.000864441
0.00200943
0.000658441
0.00205201
0.000442316
0.00208568
0.000224165
0.0021047
0.0021142
0.00450084
3.49408e-09
0.00450084
3.63528e-09
0.00450084
3.96329e-09
0.00450084
4.59541e-09
0.00450084
5.15575e-09
0.00450084
5.83783e-09
0.00450084
6.37068e-09
0.00450084
7.34235e-09
0.00450084
6.48026e-09
0.00450084
7.68183e-09
0.00450084
9.8674e-09
0.00450084
2.94432e-08
0.00450096
6.05731e-08
0.00450067
1.81497e-07
0.00450227
3.09754e-07
0.0045058
8.07895e-07
0.00450699
2.55787e-06
0.00443458
2.03554e-06
0.00449821
1.08711e-05
0.00450185
1.79719e-05
0.00449982
4.99309e-05
0.0044786
0.000163032
0.00432803
0.00106973
0.00417715
0.00118193
0.00404271
0.00118488
0.00391028
0.00118342
0.00378129
0.00119572
0.00365674
0.00122286
0.00353266
0.00126336
0.00340565
0.00130602
0.00327668
0.00134658
0.00314595
0.00138927
0.00301296
0.00143393
0.00287808
0.00148204
0.00274018
0.00153281
0.00259964
0.00158622
0.00245542
0.00164308
0.00230695
0.00170272
0.00215285
0.00176567
0.00199297
0.00182985
0.00182839
0.00189513
0.00165773
0.00196186
0.00147997
0.00202843
0.00129321
0.00209448
0.00109658
0.00215768
0.000890657
0.00221479
0.000678152
0.00226382
0.000459275
0.002304
0.000230134
0.00233324
0.00234365
0.00466807
3.05409e-09
0.00466807
3.18518e-09
0.00466807
3.45168e-09
0.00466807
4.02873e-09
0.00466807
4.55169e-09
0.00466807
4.89744e-09
0.00466807
5.0062e-09
0.00466807
7.52073e-09
0.00466807
6.73929e-09
0.00466807
9.71972e-09
0.00466808
3.84671e-09
0.00466806
3.8859e-08
0.00466817
2.02155e-08
0.00466787
2.20503e-07
0.00466888
1.30075e-07
0.00466909
1.03559e-06
0.00467063
-1.71383e-07
0.00465614
-3.44593e-06
0.00467744
5.22315e-06
0.00469324
3.47346e-06
0.00468786
5.67279e-05
0.00465828
0.000186119
0.00450427
0.00121558
0.00432605
0.00135811
0.00417503
0.00133453
0.00404104
0.00131708
0.00391389
0.00132296
0.00379051
0.0013462
0.00366488
0.00138881
0.00353659
0.00143358
0.00340617
0.00147622
0.00327368
0.00152085
0.0031381
0.00156888
0.00299968
0.00162001
0.00285737
0.00167469
0.00271153
0.00173141
0.00256244
0.00179187
0.00240974
0.00185527
0.00225232
0.00192292
0.0020877
0.00199435
0.0019153
0.00206725
0.00173572
0.00214114
0.00154858
0.00221564
0.00135448
0.00228871
0.00115154
0.00236018
0.000938646
0.00242709
0.000714855
0.00248708
0.000480802
0.0025374
0.000244098
0.00256942
0.0025873
0.00484151
2.61355e-09
0.00484151
2.69559e-09
0.00484151
2.94816e-09
0.00484151
3.39357e-09
0.00484151
3.87284e-09
0.00484151
4.3869e-09
0.00484151
4.56067e-09
0.00484151
5.14149e-09
0.00484152
4.13359e-09
0.00484152
3.65042e-09
0.00484152
1.44982e-09
0.00484154
1.10654e-08
0.00484156
1.14816e-08
0.0048417
8.57538e-08
0.00484129
3.5735e-08
0.00484288
5.74245e-07
0.00483837
-5.27188e-07
0.00487896
-3.596e-06
0.00482583
1.24435e-05
0.00493499
-1.27132e-05
0.00482239
0.000104162
0.00472406
0.000223642
0.00457066
0.00139388
0.00437441
0.00155419
0.00423203
0.00147547
0.00411119
0.00143714
0.00400338
0.00143047
0.00389155
0.00145789
0.00377223
0.00150799
0.00365135
0.00155389
0.00352801
0.00159891
0.00340145
0.00164665
0.00327036
0.0016993
0.00313481
0.00175501
0.00299379
0.00181524
0.00284678
0.00187781
0.00269415
0.00194408
0.00253595
0.00201318
0.00237365
0.00208511
0.00220606
0.00216194
0.00203077
0.00224244
0.00184644
0.00232528
0.00165229
0.00240966
0.00144675
0.00249429
0.00123094
0.0025758
0.0010041
0.0026533
0.000767671
0.00272278
0.00052143
0.00278311
0.000261568
0.00282885
0.00284834
0.00502139
2.15452e-09
0.00502139
2.18921e-09
0.00502139
2.4218e-09
0.0050214
2.74665e-09
0.0050214
3.19523e-09
0.0050214
3.73805e-09
0.0050214
3.52197e-09
0.0050214
2.98743e-09
0.0050214
6.00708e-10
0.00502141
-2.23933e-09
0.00502142
-5.39077e-09
0.00502144
-1.45848e-08
0.00502148
-2.16059e-08
0.00502157
-6.90284e-08
0.0050219
-1.9815e-07
0.00502296
-2.843e-07
0.00502412
-1.79111e-06
0.00498483
-6.66119e-06
0.00501812
3.35637e-05
0.00478652
-6.70496e-05
0.00494339
0.000239401
0.00498059
0.0001611
0.00469911
0.00166258
0.00446869
0.00178465
0.00430852
0.00163484
0.00420325
0.00154151
0.00408566
0.0015477
0.00397892
0.00156434
0.0038699
0.00161707
0.00375671
0.00166668
0.00364073
0.00171438
0.00352194
0.00176474
0.00339898
0.00182159
0.00327094
0.00188245
0.0031376
0.00194799
0.00299746
0.00201741
0.00285026
0.0020909
0.00269414
0.00216895
0.00252946
0.0022495
0.00235711
0.00233408
0.00217718
0.0024222
0.00198781
0.00251447
0.00178796
0.00260935
0.00157643
0.00270566
0.00135028
0.00280144
0.00110928
0.0028938
0.000851877
0.00297983
0.000578237
0.00305632
0.000295839
0.00311074
0.00314363
0.00520796
1.67399e-09
0.00520796
1.66012e-09
0.00520796
1.89052e-09
0.00520797
2.08231e-09
0.00520797
2.44893e-09
0.00520797
2.57088e-09
0.00520797
3.25554e-09
0.00520797
3.30592e-09
0.00520796
5.43421e-09
0.00520795
8.2119e-09
0.00520792
2.94308e-08
0.00520785
5.09137e-08
0.00520765
1.82397e-07
0.0052072
2.88351e-07
0.00520616
1.06142e-06
0.0052039
1.65296e-06
0.00519363
6.11712e-06
0.00518291
3.87961e-06
0.00523156
9.54358e-06
0.00510438
1.33322e-05
0.00529838
8.67063e-05
0.00506234
0.000380123
0.00514062
0.00156587
0.00490084
0.00202443
0.00465463
0.00188144
0.00449805
0.00169827
0.00434769
0.00169816
0.00420744
0.00170455
0.00407035
0.00175438
0.00393897
0.00179796
0.00381161
0.00184161
0.00368574
0.00188995
0.00356037
0.00194632
0.00343239
0.00200982
0.00330082
0.00207887
0.00316443
0.0021532
0.00302278
0.00223232
0.00287439
0.00231722
0.00271649
0.00240722
0.00254856
0.00250173
0.00236957
0.00260083
0.00217852
0.00270515
0.00197428
0.00281327
0.0017537
0.00292605
0.00151622
0.00303879
0.00125876
0.00315067
0.000980134
0.00325776
0.000677885
0.00335809
0.000345422
0.0034428
0.00348853
0.00540147
1.14512e-09
0.00540147
1.14963e-09
0.00540147
1.31671e-09
0.00540147
1.48195e-09
0.00540147
1.74973e-09
0.00540147
1.88773e-09
0.00540147
2.21994e-09
0.00540147
2.27004e-09
0.00540147
3.12537e-09
0.00540148
5.87301e-09
0.00540149
1.5513e-08
0.00540151
3.64119e-08
0.00540157
9.61572e-08
0.00540173
1.88181e-07
0.00540198
5.00889e-07
0.00540428
8.96408e-07
0.00540066
1.97418e-06
0.00540986
5.50886e-06
0.00530391
6.00873e-06
0.00539603
3.16449e-05
0.00538861
7.94234e-05
0.00550031
0.000264826
0.00603393
0.00102307
0.00574271
0.00231509
0.00543385
0.00219112
0.00513688
0.00199715
0.00489687
0.00193871
0.00468058
0.00192094
0.00448608
0.00194898
0.00430239
0.00198171
0.00413087
0.00201326
0.00397082
0.00204994
0.00382012
0.00209658
0.00367584
0.00215372
0.00353382
0.00222043
0.0033914
0.00229506
0.003246
0.00237731
0.00309718
0.0024659
0.00294208
0.00256236
0.00277919
0.00266458
0.00260666
0.00277317
0.00242201
0.00288945
0.00222131
0.00301348
0.00200262
0.00314423
0.00175884
0.00328213
0.00148804
0.00342108
0.00118348
0.00356203
0.000838153
0.00370308
0.000448586
0.00383223
0.00393675
0.00560216
5.95037e-10
0.00560216
6.68948e-10
0.00560216
7.78512e-10
0.00560216
9.69775e-10
0.00560216
1.12214e-09
0.00560216
1.37036e-09
0.00560216
1.45905e-09
0.00560216
1.77764e-09
0.00560216
2.60293e-09
0.00560216
6.15892e-09
0.00560216
1.2222e-08
0.00560217
3.12698e-08
0.00560218
7.03943e-08
0.00560228
9.51351e-08
0.00560285
1.73102e-07
0.00560273
2.27181e-07
0.00560793
-4.85793e-07
0.00560814
1.48509e-06
0.00566042
-1.91835e-06
0.00562241
2.72401e-05
0.00566823
3.79519e-05
0.00573418
0.000186748
0.00619564
0.000555563
0.00616911
0.00233242
0.0059656
0.00239197
0.00567126
0.00229225
0.00543603
0.00217401
0.00520524
0.00215163
0.00499303
0.00216098
0.00477974
0.00219479
0.00457201
0.00222107
0.00437446
0.00224749
0.00418905
0.00228173
0.00401559
0.00232685
0.00385216
0.00238324
0.00369574
0.00245084
0.0035429
0.00252953
0.00339187
0.0026165
0.00324093
0.00271304
0.00308269
0.00282267
0.00291368
0.00294218
0.0027339
0.00306912
0.00254139
0.00320571
0.00233129
0.00335386
0.00209819
0.00351473
0.00182868
0.00369022
0.00151571
0.0038747
0.00113959
0.00407885
0.000657444
0.0043139
0.00459383
0.00581031
1.05476e-10
0.00581031
2.07386e-10
0.00581031
3.12278e-10
0.00581031
4.77343e-10
0.00581031
6.11744e-10
0.00581031
8.32274e-10
0.00581031
1.02524e-09
0.00581031
1.58318e-09
0.00581031
1.79166e-09
0.00581031
4.48956e-09
0.0058103
5.39323e-09
0.00581036
1.39765e-08
0.00581033
1.68416e-08
0.00581031
1.35192e-07
0.00581088
-3.24608e-08
0.00580887
4.78665e-07
0.0058096
-6.19483e-07
0.00580665
-1.84495e-06
0.00580317
-6.77976e-06
0.0057794
3.83998e-05
0.00605201
-3.26377e-05
0.00572282
0.000254568
0.00601911
0.000361629
0.00604809
0.00226657
0.00593001
0.00250318
0.00580003
0.00242148
0.00567261
0.00230129
0.00552197
0.0023018
0.00536421
0.00231833
0.00519176
0.00236676
0.00500554
0.00240732
0.00481276
0.00244047
0.00461962
0.00247497
0.00443094
0.00251542
0.0042494
0.00256471
0.00407671
0.00262318
0.0039148
0.00269089
0.00375893
0.00277185
0.00360239
0.00286907
0.00344828
0.00297634
0.00329519
0.00309489
0.00313545
0.00322857
0.00296686
0.00337405
0.00278414
0.00353643
0.00258145
0.00371696
0.00234931
0.00392176
0.0020641
0.00415952
0.00170088
0.00444179
0.00121457
0.00479995
0.005808
0.00840003
8.56276e-12
0.00840003
3.72053e-11
0.00840003
8.15509e-11
0.00840003
1.45884e-10
0.00840003
2.28307e-10
0.00840003
3.25354e-10
0.00840003
4.75349e-10
0.00840003
6.66469e-10
0.00840003
1.34175e-09
0.00840004
2.02828e-09
0.00840003
5.37025e-09
0.00840003
1.25888e-08
0.0084
2.05313e-08
0.00840022
4.98184e-08
0.00839973
2.11346e-07
0.00840143
4.37914e-07
0.00839416
1.77897e-06
0.00837305
4.83486e-06
0.0083688
4.69909e-06
0.00859344
1.12252e-05
0.00834447
4.06583e-05
0.00843664
0.000122632
0.00826252
0.000562292
0.00844705
0.00205164
0.00827374
0.00267764
0.00812955
0.00256779
0.00800896
0.00242319
0.00786345
0.0024466
0.00771005
0.00247102
0.00755223
0.00252373
0.00737263
0.00258674
0.00717447
0.00263875
0.00696362
0.00268566
0.00674465
0.00273416
0.00652489
0.002784
0.00630989
0.00283801
0.00609649
0.00290402
0.00588732
0.00298069
0.00569095
0.00306512
0.00550572
0.00316112
0.00532966
0.00327053
0.00516721
0.00339058
0.00501453
0.00352604
0.00487765
0.00367269
0.00476335
0.00383091
0.00468125
0.00400321
0.00467644
0.00416366
0.00481135
0.00430639
0.00527247
0.00433844
0.0039266
0.00715325
0.00840003
1.09802e-12
0.00840003
5.58557e-12
0.00840003
1.53989e-11
0.00840003
3.1571e-11
0.00840003
6.03185e-11
0.00840003
9.34341e-11
0.00840003
1.59494e-10
0.00840003
2.13894e-10
0.00840003
4.56867e-10
0.00840003
7.50668e-10
0.00840004
1.57116e-09
0.00840007
3.78321e-09
0.00840008
7.12107e-09
0.00840025
7.43581e-09
0.00840032
7.50377e-08
0.00840051
1.48815e-07
0.00840179
6.02488e-07
0.00839866
1.44556e-06
0.00840494
7.10471e-06
0.00831729
1.02639e-05
0.00839871
4.22683e-05
0.00841284
9.73038e-05
0.00863249
0.000336267
0.00952378
0.00111946
0.00921569
0.00298878
0.00895682
0.0028315
0.00862619
0.00275757
0.00839146
0.00268301
0.00817802
0.002686
0.00797723
0.00272543
0.00778502
0.00277989
0.00759326
0.00283141
0.00740101
0.00287832
0.00721303
0.00292222
0.00702778
0.00296912
0.00684241
0.00302304
0.00666409
0.00308178
0.00649996
0.00314435
0.00634828
0.0032165
0.00621335
0.00329579
0.00609829
0.00338536
0.00600464
0.00348388
0.00594553
0.00358487
0.00592172
0.00369596
0.00595707
0.00379496
0.00607277
0.00388692
0.00629247
0.00394296
0.006674
0.00392373
0.00716939
0.00384175
0.00344927
0.00764508
0.00840003
1.57963e-13
0.00840003
8.91735e-13
0.00840003
3.03232e-12
0.00840003
6.89861e-12
0.00840003
1.57857e-11
0.00840003
2.7746e-11
0.00840003
5.99669e-11
0.00840003
1.05059e-10
0.00840003
2.18518e-10
0.00840003
3.76114e-10
0.00840003
1.57405e-09
0.00840004
2.52179e-09
0.00840003
9.22774e-09
0.00840022
1.70799e-08
0.00839975
5.86809e-08
0.00840067
1.02222e-07
0.00840154
4.1027e-07
0.00840391
1.06489e-06
0.00841092
1.41615e-06
0.00828977
2.09199e-06
0.00842154
1.94164e-05
0.00848066
3.38618e-05
0.00862787
0.000192115
0.00916927
0.000572836
0.00942207
0.00272442
0.00921492
0.00303723
0.0089658
0.00300691
0.00879054
0.00285693
0.00860635
0.00286847
0.00841846
0.00291203
0.00823425
0.00296346
0.00805213
0.00301377
0.00787416
0.00305692
0.00769935
0.00309768
0.00753108
0.00313788
0.00737166
0.00318258
0.00722471
0.00322854
0.00709022
0.00327835
0.00697613
0.00333001
0.00688313
0.0033882
0.00682188
0.00344617
0.00679309
0.00351235
0.00680362
0.00357403
0.0068663
0.00363283
0.00697648
0.00368408
0.0071611
0.00370155
0.00739784
0.00370535
0.00769555
0.00362486
0.00800516
0.00353064
0.00323073
0.00822166
0.00840003
4.21093e-14
0.00840003
1.91686e-13
0.00840003
7.57476e-13
0.00840003
1.58238e-12
0.00840003
3.75484e-12
0.00840003
6.9663e-12
0.00840003
1.48726e-11
0.00840003
1.70754e-11
0.00840003
1.21622e-10
0.00840003
1.4671e-10
0.00840003
7.42566e-10
0.00840005
1.45179e-09
0.00839999
3.77539e-09
0.00840024
2.51817e-09
0.00839971
3.98386e-08
0.00840017
5.4705e-08
0.00840028
3.23162e-07
0.00839978
1.00196e-06
0.00839915
1.26038e-06
0.00835564
1.15266e-06
0.00841874
1.56921e-05
0.00805567
2.79917e-05
0.00848574
0.00015928
0.00853397
0.000433586
0.00897493
0.00229467
0.00895591
0.00305461
0.00883711
0.00312375
0.00869692
0.00299513
0.00858788
0.00297464
0.00848615
0.00301097
0.0083842
0.00306273
0.00827835
0.00311811
0.00817014
0.0031644
0.00805915
0.00320822
0.00794646
0.00325037
0.00783825
0.00329088
0.00773835
0.00332841
0.00764793
0.00336834
0.0075719
0.00340538
0.00751693
0.0034424
0.00748511
0.00347704
0.00749132
0.00350538
0.00752945
0.00353528
0.00761701
0.00354482
0.00774319
0.00355715
0.00791634
0.00352747
0.00812263
0.00349776
0.00834271
0.00340329
0.00857172
0.00329966
0.00310435
0.00869586
0.00840003
2.38701e-14
0.00840003
1.2231e-14
0.00840003
2.4827e-13
0.00840003
3.13397e-14
0.00840003
1.94021e-12
0.00840003
-3.81968e-13
0.00840003
1.05306e-11
0.00840003
-4.75451e-12
0.00840003
5.1206e-11
0.00840003
-7.0736e-11
0.00840003
6.94561e-10
0.00840003
-6.78598e-10
0.00840004
3.13039e-09
0.00839998
-2.07833e-09
0.00840008
3.15609e-08
0.0083998
-3.47129e-08
0.00839968
3.43899e-07
0.0084007
2.15753e-07
0.00840332
5.20927e-07
0.00842742
6.33217e-07
0.00838907
2.18973e-05
0.00871766
4.31191e-06
0.00831815
0.000227757
0.00851524
0.000286888
0.00916578
0.00159362
0.00894873
0.00326944
0.00882982
0.00324221
0.0086695
0.00315593
0.00856127
0.00308131
0.00848804
0.00308171
0.00843091
0.0031172
0.0083776
0.00316951
0.00832325
0.00321719
0.00826599
0.00326455
0.0082085
0.00330751
0.00815764
0.00334133
0.00811318
0.00337275
0.00807917
0.00340219
0.00805344
0.00343061
0.0080452
0.00345009
0.00805054
0.00347086
0.0080809
0.0034741
0.00813445
0.00348084
0.00821699
0.00346139
0.00832922
0.00344399
0.00846313
0.00339243
0.00862466
0.00333465
0.00878563
0.00324045
0.00895348
0.00312946
0.00297201
0.00908301
0.00840003
2.9581e-15
0.00840003
3.3522e-14
0.00840003
9.4188e-14
0.00840003
3.62328e-13
0.00840003
8.8533e-13
0.00840003
3.16412e-12
0.00840003
7.18684e-12
0.00840003
2.54413e-11
0.00840003
6.13887e-11
0.00840003
1.56528e-10
0.00840002
4.03466e-10
0.00840003
1.61641e-09
0.00840001
4.32553e-09
0.00840007
1.20004e-08
0.0083997
2.73702e-08
0.00840048
8.61171e-08
0.00839655
1.92364e-07
0.00839688
7.60825e-07
0.00838254
2.221e-06
0.00838954
2.42586e-06
0.00822511
6.38012e-06
0.0084761
2.01221e-05
0.0080137
5.84577e-05
0.00862751
0.000233269
0.0095441
0.000677519
0.00976939
0.00300599
0.00944201
0.00356941
0.00911937
0.00347784
0.00896995
0.0032293
0.0088513
0.00319857
0.00874595
0.00322062
0.00866118
0.00325257
0.00858741
0.00328943
0.00852714
0.00332424
0.0084837
0.00335029
0.00845198
0.00337238
0.00843065
0.00339357
0.00842351
0.00340874
0.00842926
0.00342423
0.00845078
0.00342781
0.00848731
0.00343343
0.00853952
0.00342091
0.00860931
0.00340977
0.00869228
0.00337738
0.00879519
0.00333984
0.00890434
0.00328217
0.00902755
0.00320998
0.00914703
0.00311927
0.00926379
0.00301049
0.00287009