/*--------------------------------*- C++ -*----------------------------------*\
| =========                 |                                                 |
| \\      /  F ield         | OpenFOAM: The Open Source CFD Toolbox           |
|  \\    /   O peration     | Version:  2112                                  |
|   \\  /    A nd           | Website:  www.openfoam.com                      |
|    \\/     M anipulation  |                                                 |
\*---------------------------------------------------------------------------*/
FoamFile
{
    version     2.0;
    format      ascii;
    arch        "LSB;label=32;scalar=64";
    class       volVectorField;
    location    "4.5";
    object      U;
}
// * * * * * * * * * * * * * * * * * * * * * * * * * * * * * * * * * * * * * //

dimensions      [0 1 -1 0 0 0 0];

internalField   nonuniform List<vector> 
7000
(
(3 -5.82103e-07 0.000805021)
(3 -1.36495e-06 0.000764326)
(3 -1.92045e-06 0.000723861)
(3 -2.17039e-06 0.000683627)
(3 -1.89629e-06 0.000643625)
(3 -1.59565e-06 0.000603867)
(3 -1.30217e-06 0.000564354)
(3 -1.10934e-06 0.000525164)
(2.99999 -7.52164e-07 0.000486175)
(2.99998 -1.03491e-06 0.000447788)
(2.99993 -1.03955e-06 0.000410201)
(2.9998 -1.59171e-06 0.000375116)
(2.99953 3.66553e-06 0.000341648)
(2.99876 5.54952e-06 0.000322364)
(2.99753 4.32393e-05 0.000303859)
(2.99273 3.05806e-05 0.00040327)
(2.98723 0.000202024 0.00041525)
(2.94543 -0.000960098 0.001793)
(2.87887 0.000568559 0.00266165)
(2.63866 -0.00489418 0.00979622)
(1.85703 -0.0101549 0.0193384)
(0.959713 -0.00247214 0.0187324)
(0.422072 -0.0168303 0.00627533)
(0.561381 -0.0133732 -0.00186284)
(0.657583 -0.00911686 -0.00152042)
(0.66884 -0.00637992 -0.000584891)
(0.643643 -0.00477536 -0.000255957)
(0.605206 -0.00363397 -0.000229734)
(0.570823 -0.00279243 -0.000407335)
(0.544826 -0.00175588 -0.000633834)
(0.521244 -0.000610275 -0.000800726)
(0.496294 0.000501485 -0.000934165)
(0.469544 0.00157297 -0.00106668)
(0.441701 0.0026289 -0.00120681)
(0.413247 0.00369134 -0.00135179)
(0.384288 0.00474837 -0.00149957)
(0.354817 0.0057886 -0.00165004)
(0.324842 0.00678802 -0.00180406)
(0.294471 0.00772031 -0.00196091)
(0.263845 0.00855525 -0.00212058)
(0.233182 0.00925441 -0.00228119)
(0.202758 0.0097692 -0.00244346)
(0.172919 0.0100188 -0.00260638)
(0.144121 0.0099866 -0.00276841)
(0.116886 0.00966465 -0.00292865)
(0.0916891 0.00914795 -0.00308798)
(0.0687981 0.00866365 -0.00324364)
(0.0483603 0.0084751 -0.00339885)
(0.0270499 0.00892366 -0.00354947)
(0.012406 0.0101922 -0.00369913)
(3 -6.04016e-07 0.000777211)
(3 -1.3983e-06 0.00073787)
(3 -1.91929e-06 0.000698757)
(3 -2.10682e-06 0.000659871)
(3 -1.71841e-06 0.000621218)
(3 -1.31819e-06 0.000582808)
(3 -9.46387e-07 0.000544638)
(3 -7.16127e-07 0.000506781)
(2.99999 -2.49543e-08 0.000469128)
(2.99998 -2.5268e-07 0.000432045)
(2.99994 9.10479e-07 0.000395706)
(2.99981 4.23198e-06 0.000361696)
(2.99956 2.27578e-05 0.000329161)
(2.99882 5.4276e-05 0.000309879)
(2.99766 0.000163883 0.000290764)
(2.99302 0.00031827 0.000384718)
(2.98773 0.00068969 0.000397272)
(2.94793 -0.000262481 0.00165451)
(2.88403 0.00569532 0.00247673)
(2.65419 0.00324895 0.00906441)
(1.90277 0.0237857 0.0181594)
(0.994142 0.0691501 0.0185022)
(0.445482 0.0333885 0.00639314)
(0.577342 0.0204973 -0.00174409)
(0.674054 0.0211336 -0.00149488)
(0.686824 0.0242733 -0.000577583)
(0.663001 0.0262736 -0.00024688)
(0.62587 0.0272417 -0.000215677)
(0.592608 0.0273851 -0.000384895)
(0.567709 0.0278188 -0.000605057)
(0.54514 0.0285328 -0.000765538)
(0.521168 0.0293074 -0.000892317)
(0.495383 0.0300693 -0.0010186)
(0.468471 0.0308637 -0.00115167)
(0.440888 0.0316857 -0.00128979)
(0.412746 0.0325377 -0.00142972)
(0.384035 0.0333684 -0.00157266)
(0.354765 0.0341664 -0.00171823)
(0.32502 0.034875 -0.00186672)
(0.29491 0.0354579 -0.00201771)
(0.264582 0.0358467 -0.00217044)
(0.234209 0.0359547 -0.0023245)
(0.203985 0.0356653 -0.00247833)
(0.174059 0.0348877 -0.00263435)
(0.144655 0.0336004 -0.00278882)
(0.115928 0.0318065 -0.00294395)
(0.0880731 0.0297338 -0.00309586)
(0.0616618 0.0276771 -0.00324669)
(0.0343536 0.0261226 -0.00339523)
(0.0142857 0.0250297 -0.00353935)
(3 -4.1346e-08 0.000748287)
(3 -8.87151e-08 0.00071036)
(3 -1.26713e-07 0.000672657)
(3 -1.77956e-07 0.000635179)
(3 -1.35781e-07 0.000597931)
(3 -9.89002e-08 0.000560922)
(3 -8.15499e-08 0.00052415)
(3 -2.09131e-07 0.000487681)
(2.99999 3.81456e-07 0.000451419)
(2.99998 2.07768e-08 0.000415697)
(2.99994 7.5041e-07 0.000380666)
(2.99981 3.40208e-06 0.000347813)
(2.99958 1.9458e-05 0.000316301)
(2.99887 4.65454e-05 0.000297368)
(2.99778 0.000147052 0.00027797)
(2.99321 0.000287812 0.000369403)
(2.98791 0.000642984 0.000386097)
(2.95032 6.49745e-06 0.00151898)
(2.88811 0.00474849 0.00230202)
(2.66765 0.00581165 0.00835283)
(1.9509 0.0238725 0.0169748)
(1.0239 0.0793805 0.0185271)
(0.455608 0.022667 0.00648378)
(0.594553 0.00468085 -0.00178194)
(0.697882 0.00914479 -0.00154628)
(0.712567 0.0164684 -0.000580201)
(0.688912 0.021777 -0.000230514)
(0.651904 0.0247749 -0.000196923)
(0.618904 0.0268066 -0.000363661)
(0.594301 0.0292524 -0.000579836)
(0.571882 0.032033 -0.000732828)
(0.547985 0.0348618 -0.000852638)
(0.522312 0.0376478 -0.000971754)
(0.495543 0.0404452 -0.00109844)
(0.468113 0.0432402 -0.00122889)
(0.440082 0.0460114 -0.00136231)
(0.411431 0.0486872 -0.0014972)
(0.382131 0.0512149 -0.00163622)
(0.352248 0.0535418 -0.00177631)
(0.321859 0.0555805 -0.00191984)
(0.291081 0.0572835 -0.00206316)
(0.260012 0.0585109 -0.00220955)
(0.228801 0.0591907 -0.00235473)
(0.197538 0.0591897 -0.00250304)
(0.166284 0.0584961 -0.00265128)
(0.135132 0.057164 -0.00279938)
(0.104126 0.0553868 -0.0029467)
(0.0738525 0.0535072 -0.00309177)
(0.0421951 0.0519348 -0.00323527)
(0.0172499 0.0504626 -0.00337824)
(3 -4.7246e-09 0.000718202)
(3 4.75755e-08 0.00068175)
(3 9.30628e-08 0.000645518)
(3 1.13514e-07 0.000609508)
(3 1.08118e-07 0.000573724)
(3 9.36417e-08 0.000538174)
(3 6.22257e-08 0.000502858)
(3 -1.14393e-07 0.000467832)
(2.99999 7.66529e-07 0.000433019)
(2.99998 2.80478e-07 0.00039872)
(2.99994 -6.82772e-07 0.000365059)
(2.99982 -1.95024e-06 0.000333409)
(2.9996 2.98783e-06 0.000302983)
(2.99893 6.46124e-06 0.000284014)
(2.99791 7.65367e-05 0.000263826)
(2.99351 0.000174086 0.000347013)
(2.98857 0.000700413 0.000353058)
(2.95237 0.00129972 0.00141184)
(2.89479 0.00324381 0.00205573)
(2.68337 0.0131519 0.00771515)
(2.00465 0.027267 0.0155814)
(1.06907 0.0913207 0.0186294)
(0.47835 0.0356513 0.00660385)
(0.619672 0.0226551 -0.00181477)
(0.72599 0.0301009 -0.00157849)
(0.740159 0.0377962 -0.00056411)
(0.715226 0.0428794 -0.000202122)
(0.677556 0.0455635 -0.000170581)
(0.644519 0.0478146 -0.000340283)
(0.619822 0.050589 -0.000551996)
(0.597026 0.053611 -0.000697718)
(0.572608 0.0566089 -0.000810675)
(0.546414 0.0595969 -0.00092353)
(0.519181 0.0626432 -0.00104369)
(0.491339 0.0657867 -0.0011674)
(0.462956 0.0689797 -0.00129336)
(0.43397 0.0721834 -0.00142116)
(0.404344 0.0752929 -0.0015519)
(0.374058 0.0782633 -0.00168519)
(0.343179 0.0809611 -0.00181991)
(0.311746 0.0833201 -0.00195699)
(0.279861 0.0852118 -0.00209357)
(0.247587 0.0865336 -0.00223315)
(0.215036 0.0871973 -0.00237128)
(0.182202 0.0871162 -0.0025133)
(0.14914 0.0863432 -0.00265381)
(0.115879 0.084992 -0.00279428)
(0.0829167 0.0832936 -0.00293539)
(0.0482061 0.0817022 -0.00307249)
(0.0197967 0.0799929 -0.00320853)
(3 2.06317e-08 0.000686908)
(3 1.97395e-07 0.000651993)
(3 4.27183e-07 0.000617296)
(3 7.20278e-07 0.000582816)
(3 7.47417e-07 0.000548558)
(3 7.24078e-07 0.000514529)
(3 6.45265e-07 0.000480729)
(3 3.79754e-07 0.000447205)
(2.99999 1.49939e-06 0.000413904)
(2.99998 9.11233e-07 0.000381106)
(2.99994 -4.54681e-07 0.000348903)
(2.99982 -3.55275e-06 0.000318561)
(2.9996 -1.87756e-06 0.000289375)
(2.99895 -8.76978e-06 0.000270175)
(2.998 2.09325e-05 0.00024864)
(2.99378 3.36156e-05 0.000318892)
(2.98955 2.12077e-05 0.000295746)
(2.95389 -0.00154939 0.0013295)
(2.90302 0.00464086 0.00177068)
(2.69966 0.00211777 0.007134)
(2.05792 0.0268453 0.014224)
(1.11595 0.0827732 0.0188673)
(0.500897 0.0339886 0.00671975)
(0.642026 0.0305685 -0.00182623)
(0.749846 0.039092 -0.00160008)
(0.762128 0.0455013 -0.000550655)
(0.734739 0.0500227 -0.000183942)
(0.695204 0.0533828 -0.000155648)
(0.66094 0.0573431 -0.00032421)
(0.635197 0.0619368 -0.000527694)
(0.611476 0.0666005 -0.000665224)
(0.586362 0.0711034 -0.000771403)
(0.559712 0.0755405 -0.000878155)
(0.532206 0.0799825 -0.000991542)
(0.504213 0.0844828 -0.00110861)
(0.475777 0.0889957 -0.00122714)
(0.44681 0.0935001 -0.00134789)
(0.417254 0.097902 -0.00147046)
(0.387049 0.102139 -0.00159611)
(0.356187 0.106099 -0.0017226)
(0.324679 0.109664 -0.00185128)
(0.292531 0.112744 -0.00198058)
(0.259813 0.115199 -0.00211074)
(0.226532 0.116943 -0.00224322)
(0.192749 0.117927 -0.00237448)
(0.158424 0.118128 -0.00251038)
(0.123632 0.117663 -0.00264273)
(0.0888744 0.116674 -0.00277601)
(0.051947 0.115556 -0.00290901)
(0.0212832 0.114107 -0.00304044)
(3 2.985e-08 0.00065435)
(3 1.97929e-07 0.000621041)
(3 5.18478e-07 0.000587944)
(3 8.24975e-07 0.000555061)
(3 9.80732e-07 0.000522394)
(3 1.08379e-06 0.00048995)
(3 1.18224e-06 0.00045773)
(3 1.07815e-06 0.000425768)
(2.99999 4.71907e-06 0.000394038)
(2.99998 1.54734e-06 0.000362787)
(2.99994 -3.50172e-07 0.000332084)
(2.99983 -3.87265e-05 0.000303112)
(2.99961 -4.04275e-05 0.000275277)
(2.99898 -0.000280144 0.000257195)
(2.99806 -0.000250553 0.000236798)
(2.9937 -0.00223247 0.000311936)
(2.98855 -2.48337e-05 0.000322771)
(2.95713 0.00210496 0.00113179)
(2.90353 0.00482859 0.0017485)
(2.71315 0.0067399 0.00629116)
(2.12151 0.00880962 0.012703)
(1.15867 0.0484332 0.0192839)
(0.495901 0.0234148 0.00672948)
(0.639263 0.0430291 -0.00179657)
(0.746198 0.05634 -0.00153999)
(0.756301 0.0618042 -0.000517231)
(0.727386 0.0655068 -0.000170473)
(0.687243 0.069014 -0.000148258)
(0.653209 0.0738915 -0.000312301)
(0.62793 0.0793122 -0.000503374)
(0.604909 0.0845975 -0.000632939)
(0.580783 0.0896996 -0.000733425)
(0.555337 0.0947875 -0.000834889)
(0.529133 0.0999688 -0.000941554)
(0.502447 0.10527 -0.00105211)
(0.475274 0.110675 -0.00116325)
(0.447507 0.11613 -0.00127696)
(0.419065 0.121582 -0.00139166)
(0.389892 0.126924 -0.00150943)
(0.359938 0.132072 -0.00162799)
(0.329209 0.136869 -0.00174803)
(0.297659 0.141216 -0.00186935)
(0.2653 0.144984 -0.00199034)
(0.232144 0.148036 -0.00211398)
(0.1982 0.15031 -0.00223828)
(0.16349 0.151817 -0.00236278)
(0.127973 0.15258 -0.00249058)
(0.092308 0.152695 -0.00261603)
(0.0541754 0.152523 -0.00273981)
(0.0221728 0.151875 -0.00286251)
(3 1.53008e-08 0.000620474)
(3 2.30671e-07 0.00058884)
(3 5.32672e-07 0.000557414)
(3 9.83353e-07 0.000526195)
(3 1.2127e-06 0.000495187)
(3 1.37531e-06 0.000464394)
(3 1.45997e-06 0.000433821)
(3 1.37971e-06 0.000403466)
(2.99999 2.80942e-06 0.00037343)
(2.99998 3.25409e-06 0.000343803)
(2.99992 5.78188e-06 0.000315093)
(2.99981 9.89859e-06 0.000287197)
(2.99947 3.55607e-05 0.00026378)
(2.99886 7.51101e-05 0.000243155)
(2.9969 0.000245308 0.000254142)
(2.99418 0.000500628 0.000248769)
(2.99333 0.00196316 0.000163562)
(2.95873 0.0038279 0.00116927)
(2.91278 0.00346308 0.00147429)
(2.7206 0.0126796 0.00617024)
(2.13315 -0.00361901 0.0118102)
(1.17663 0.0216086 0.0190309)
(0.453754 0.0270475 0.00660096)
(0.608277 0.0602603 -0.0016851)
(0.717218 0.0735132 -0.00138735)
(0.728903 0.0767606 -0.000462322)
(0.70241 0.0792033 -0.000162655)
(0.664574 0.0830463 -0.000147849)
(0.632588 0.088623 -0.000302352)
(0.608835 0.0946672 -0.000478023)
(0.587252 0.100587 -0.000599594)
(0.564686 0.106462 -0.000695542)
(0.540916 0.112439 -0.000791474)
(0.516443 0.118618 -0.00089233)
(0.491494 0.124983 -0.000995704)
(0.466015 0.131522 -0.00110055)
(0.439883 0.13816 -0.00120625)
(0.412991 0.144852 -0.00131425)
(0.38528 0.151502 -0.00142292)
(0.356681 0.15801 -0.00153438)
(0.327178 0.164251 -0.00164501)
(0.296729 0.170065 -0.00175885)
(0.265275 0.175361 -0.00187201)
(0.232814 0.179989 -0.00198554)
(0.199358 0.183846 -0.00210196)
(0.164916 0.186867 -0.00221966)
(0.129449 0.189123 -0.00233542)
(0.0935663 0.190608 -0.00245459)
(0.0549717 0.191649 -0.00257155)
(0.0224528 0.192098 -0.00268844)
(3 1.57372e-08 0.000585223)
(3 2.17853e-07 0.000555339)
(3 5.20003e-07 0.000525654)
(3 9.65059e-07 0.000496173)
(3 1.31196e-06 0.000466896)
(3 1.6265e-06 0.000437825)
(3 1.90739e-06 0.000408968)
(3 2.14976e-06 0.000380334)
(3 2.30716e-06 0.000351933)
(2.99998 2.98173e-06 0.000323941)
(2.99995 4.77959e-06 0.000296397)
(2.99986 2.48018e-05 0.000270109)
(2.99968 4.95003e-05 0.000244731)
(2.99917 0.000243708 0.000226076)
(2.99849 0.000420463 0.000204841)
(2.99491 0.00198682 0.000256958)
(2.99156 0.00170447 0.00023605)
(2.96024 0.000277729 0.00100833)
(2.91729 0.00334441 0.00129135)
(2.73078 0.00518367 0.00564356)
(2.16934 0.00232261 0.0107334)
(1.21487 0.0161424 0.0183998)
(0.459489 0.0433753 0.00641336)
(0.599724 0.0779725 -0.00145441)
(0.700935 0.0866217 -0.00121708)
(0.711163 0.0888769 -0.000419264)
(0.685611 0.0916143 -0.000165708)
(0.648665 0.097079 -0.000152903)
(0.616751 0.103539 -0.000290211)
(0.592763 0.110068 -0.00045109)
(0.571177 0.11653 -0.000565402)
(0.54893 0.123093 -0.000656642)
(0.525742 0.129873 -0.000746776)
(0.502062 0.136945 -0.000841343)
(0.47808 0.144304 -0.000937915)
(0.453704 0.151925 -0.00103584)
(0.428769 0.159753 -0.00113469)
(0.403147 0.167713 -0.00123508)
(0.376729 0.175739 -0.00133674)
(0.349434 0.183702 -0.0014392)
(0.321182 0.19151 -0.0015429)
(0.291929 0.198986 -0.00164612)
(0.261593 0.205988 -0.00175312)
(0.230112 0.212386 -0.00185797)
(0.197476 0.218071 -0.00196361)
(0.163691 0.222914 -0.00207217)
(0.128722 0.226852 -0.00218294)
(0.0932965 0.229916 -0.00228991)
(0.0549224 0.232306 -0.0023981)
(0.0224375 0.233922 -0.00250382)
(3 2.6994e-08 0.000548536)
(3 1.83598e-07 0.000520478)
(3 5.26575e-07 0.000492613)
(3 8.75141e-07 0.000464943)
(3 1.37283e-06 0.00043747)
(3 1.78864e-06 0.000410196)
(3 2.22644e-06 0.000383125)
(3 2.65814e-06 0.000356258)
(2.99999 4.27012e-06 0.000329663)
(2.99998 4.94953e-07 0.000303415)
(2.99994 -2.6775e-06 0.000277709)
(2.99984 -3.14592e-05 0.000252888)
(2.99962 -3.85369e-05 0.000229409)
(2.99912 -0.000210894 0.000211043)
(2.99812 -0.000176942 0.000196574)
(2.99519 -0.00161477 0.000222485)
(2.9932 0.000379498 0.000173372)
(2.96196 0.00130315 0.000939678)
(2.92386 0.0047583 0.00111418)
(2.74021 0.00949404 0.00525517)
(2.18793 0.00448639 0.00986414)
(1.24662 0.015696 0.017356)
(0.470989 0.0581774 0.00615231)
(0.592325 0.0967817 -0.00117069)
(0.685639 0.0983926 -0.00103993)
(0.697402 0.100868 -0.000396698)
(0.674149 0.104948 -0.000174171)
(0.638233 0.112539 -0.000155239)
(0.605606 0.119716 -0.000270882)
(0.580871 0.126485 -0.000420999)
(0.558884 0.133321 -0.000529981)
(0.536449 0.14042 -0.000616104)
(0.513215 0.147847 -0.000700216)
(0.489644 0.155648 -0.000788268)
(0.465935 0.16385 -0.000878189)
(0.442002 0.17242 -0.000969266)
(0.417658 0.181338 -0.00106102)
(0.392771 0.190508 -0.00115377)
(0.367202 0.199874 -0.00124788)
(0.340848 0.209303 -0.00134216)
(0.313603 0.218701 -0.00143799)
(0.285349 0.227926 -0.0015332)
(0.256023 0.236798 -0.00162975)
(0.225535 0.245138 -0.00172965)
(0.19384 0.252771 -0.00182744)
(0.160904 0.25959 -0.00192463)
(0.126654 0.265467 -0.00202348)
(0.0918535 0.270292 -0.00212663)
(0.0540278 0.2742 -0.00222448)
(0.0220043 0.27705 -0.00232463)
(3 1.51134e-08 0.000510349)
(3 1.82529e-07 0.000484198)
(3 4.69556e-07 0.000458233)
(3 8.60464e-07 0.000432455)
(3 1.31486e-06 0.000406865)
(3 1.50094e-06 0.000381464)
(3 1.58572e-06 0.000356258)
(3 1.50713e-06 0.000331244)
(2.99999 1.11199e-06 0.000306505)
(2.99998 7.56543e-08 0.000282076)
(2.99993 9.9626e-07 0.00025829)
(2.99984 -1.7177e-06 0.000235058)
(2.99958 9.93711e-06 0.000214803)
(2.99912 -4.56147e-05 0.000195704)
(2.99762 4.73858e-05 0.000196191)
(2.99545 -0.000616521 0.000191939)
(2.99455 0.000973278 0.000150295)
(2.96486 0.00124289 0.000818952)
(2.93024 0.00606901 0.000940042)
(2.75015 0.00840639 0.0048232)
(2.21692 0.00904997 0.00890217)
(1.2942 0.0249612 0.0161943)
(0.505856 0.0775526 0.00587368)
(0.593966 0.117158 -0.000829598)
(0.673195 0.112545 -0.000846405)
(0.68982 0.115258 -0.00040768)
(0.669417 0.12032 -0.000188652)
(0.634006 0.129309 -0.000154611)
(0.599565 0.136923 -0.000245063)
(0.573644 0.143937 -0.000388759)
(0.55106 0.151166 -0.000493703)
(0.528195 0.158769 -0.000574145)
(0.504585 0.16678 -0.000651985)
(0.480729 0.175226 -0.000733286)
(0.456847 0.18417 -0.000816654)
(0.432872 0.19359 -0.000900586)
(0.408621 0.203475 -0.000985664)
(0.383964 0.21375 -0.00107046)
(0.35877 0.224359 -0.00115696)
(0.332917 0.235206 -0.00124307)
(0.306312 0.246155 -0.00133068)
(0.278787 0.257094 -0.00141869)
(0.25023 0.267839 -0.0015055)
(0.220531 0.278216 -0.00159386)
(0.189626 0.287984 -0.0016853)
(0.157496 0.296919 -0.00177763)
(0.124069 0.3048 -0.00186633)
(0.0901194 0.31153 -0.00195532)
(0.0529975 0.31705 -0.00204689)
(0.0215608 0.321222 -0.00213439)
(3 1.841e-08 0.000470595)
(3 1.62165e-07 0.000446438)
(3 4.38712e-07 0.000422457)
(3 7.84622e-07 0.000398653)
(3 1.26444e-06 0.000375028)
(3 1.55674e-06 0.000351583)
(3 1.79888e-06 0.00032832)
(3 1.65948e-06 0.000305241)
(2.99999 1.22762e-06 0.000282415)
(2.99998 1.73379e-06 0.000259869)
(2.99994 4.58573e-06 0.000237893)
(2.99985 1.67321e-05 0.000216421)
(2.99961 4.04606e-05 0.000197419)
(2.9992 0.000121377 0.000179355)
(2.99783 0.000239228 0.000178469)
(2.99597 0.000723023 0.000168882)
(2.99544 0.00180085 0.000120773)
(2.96731 0.00195344 0.000724437)
(2.93625 0.00667466 0.000801573)
(2.76162 0.0091921 0.00431784)
(2.25242 0.0122391 0.00790394)
(1.35188 0.0328671 0.0149478)
(0.548714 0.0991734 0.00558552)
(0.598388 0.130332 -0.000478592)
(0.662141 0.129891 -0.000663585)
(0.68483 0.133842 -0.000420971)
(0.667816 0.139197 -0.000200689)
(0.63313 0.147773 -0.000151781)
(0.596896 0.155389 -0.000218353)
(0.569941 0.162712 -0.000355819)
(0.546905 0.170366 -0.00045604)
(0.523687 0.178444 -0.000530532)
(0.499709 0.186989 -0.000601993)
(0.475511 0.196033 -0.000676537)
(0.451333 0.205647 -0.000753236)
(0.427105 0.215833 -0.000829758)
(0.40267 0.226582 -0.00090719)
(0.377915 0.237866 -0.000984358)
(0.352746 0.24963 -0.00106261)
(0.327016 0.261821 -0.00114095)
(0.300644 0.274301 -0.00121962)
(0.273481 0.286941 -0.00130025)
(0.245394 0.29954 -0.00138096)
(0.216286 0.311881 -0.00146036)
(0.186019 0.323767 -0.00153992)
(0.154474 0.334934 -0.00162141)
(0.121598 0.34502 -0.0017046)
(0.0883336 0.353702 -0.00178811)
(0.0519123 0.360905 -0.00186661)
(0.0210162 0.366354 -0.0019487)
(3 9.77169e-09 0.000429205)
(3 1.50982e-07 0.000407131)
(3 3.90244e-07 0.000385222)
(3 7.22408e-07 0.000363479)
(3 1.07411e-06 0.000341905)
(3 1.58686e-06 0.0003205)
(3 2.12084e-06 0.000299267)
(3 1.73686e-06 0.000278204)
(2.99999 1.25343e-06 0.000257365)
(2.99998 2.11739e-06 0.000236773)
(2.99995 5.92621e-06 0.000216659)
(2.99987 2.13665e-05 0.000196949)
(2.99967 5.2176e-05 0.000179235)
(2.99932 0.000150485 0.000162288)
(2.99816 0.000279834 0.000158234)
(2.99668 0.000916956 0.000146733)
(2.99636 0.00177845 0.000112159)
(2.97038 0.00103571 0.000610044)
(2.94329 0.00721444 0.00064932)
(2.77396 0.0102319 0.0038471)
(2.29167 0.0166111 0.0068869)
(1.41983 0.0416812 0.0136084)
(0.591558 0.124574 0.00533138)
(0.600202 0.143126 -0.000154967)
(0.657206 0.149204 -0.000558043)
(0.681619 0.154685 -0.000392949)
(0.66691 0.16005 -0.000195949)
(0.63336 0.167367 -0.000145295)
(0.596469 0.174846 -0.000196602)
(0.568985 0.18259 -0.000322956)
(0.545722 0.190736 -0.000416138)
(0.52234 0.199319 -0.000484186)
(0.498168 0.208417 -0.000549441)
(0.473742 0.21809 -0.000617184)
(0.449323 0.228386 -0.000686995)
(0.424834 0.239341 -0.000756482)
(0.400151 0.250949 -0.000826331)
(0.375175 0.26322 -0.000896057)
(0.349845 0.276097 -0.000966137)
(0.324038 0.289548 -0.00103663)
(0.297652 0.303481 -0.00110644)
(0.270551 0.317777 -0.00117713)
(0.242577 0.332259 -0.00124896)
(0.213658 0.346651 -0.00132174)
(0.183733 0.360662 -0.00139474)
(0.152656 0.373987 -0.00146734)
(0.120182 0.386269 -0.00153813)
(0.087275 0.397038 -0.00160936)
(0.0512486 0.405987 -0.00168385)
(0.0206815 0.412774 -0.00175332)
(3 3.70296e-09 0.000386103)
(3 1.39796e-07 0.000366207)
(3 3.44248e-07 0.000346464)
(3 6.57034e-07 0.000326875)
(3 9.57009e-07 0.000307441)
(3 1.45482e-06 0.000288163)
(3 1.96168e-06 0.000269051)
(3 1.98227e-06 0.00025009)
(2.99999 1.62372e-06 0.000231323)
(2.99999 2.13656e-06 0.000212777)
(2.99995 4.5997e-06 0.000194622)
(2.99989 1.62029e-05 0.000176793)
(2.99972 3.79517e-05 0.000160523)
(2.99941 0.000113075 0.000144993)
(2.99849 0.000198705 0.000137777)
(2.99718 0.000616722 0.000127683)
(2.99635 0.00153151 0.000111644)
(2.97329 0.00137955 0.000492937)
(2.95118 0.00781095 0.000496332)
(2.78812 0.011647 0.0033546)
(2.33564 0.0217763 0.00587784)
(1.50138 0.0517914 0.0120913)
(0.644371 0.151878 0.00508921)
(0.603775 0.163683 0.000162535)
(0.656003 0.170096 -0.000476913)
(0.680589 0.175871 -0.000355116)
(0.667059 0.181015 -0.000183089)
(0.634678 0.187494 -0.000137247)
(0.597995 0.194987 -0.000178793)
(0.57039 0.20324 -0.000290692)
(0.547068 0.211956 -0.000374646)
(0.5237 0.221134 -0.000436102)
(0.499558 0.230878 -0.000494767)
(0.475117 0.241273 -0.000555717)
(0.450636 0.252342 -0.000618091)
(0.42603 0.264138 -0.000680408)
(0.401184 0.276668 -0.000742276)
(0.376006 0.289971 -0.000804099)
(0.350444 0.304019 -0.000865813)
(0.324433 0.31877 -0.000928331)
(0.297882 0.334161 -0.000991104)
(0.270683 0.35007 -0.00105347)
(0.242678 0.366352 -0.00111599)
(0.213722 0.38278 -0.00117818)
(0.183716 0.399029 -0.00124135)
(0.152591 0.414684 -0.00130596)
(0.120124 0.429255 -0.00137132)
(0.0872872 0.442121 -0.00143506)
(0.0512827 0.452905 -0.00149559)
(0.0205312 0.461011 -0.00156043)
(3 -7.48273e-10 0.000341213)
(3 1.24679e-07 0.000323594)
(3 2.98157e-07 0.000306115)
(3 5.85712e-07 0.000288776)
(3 8.86006e-07 0.000271579)
(3 1.15481e-06 0.000254522)
(3 1.33159e-06 0.000237615)
(3 2.358e-06 0.000220848)
(3 2.28513e-06 0.000204253)
(2.99999 3.49865e-06 0.000187846)
(2.99996 2.21956e-06 0.00017176)
(2.99991 1.59364e-05 0.000155959)
(2.99976 1.38338e-05 0.000141322)
(2.99948 9.68323e-05 0.000127507)
(2.99862 8.51423e-05 0.00012084)
(2.99783 0.000427221 0.0001052)
(2.99779 0.00040971 8.0794e-05)
(2.97705 -0.000702492 0.000397882)
(2.95913 0.00424318 0.000376928)
(2.80329 0.00365596 0.00284951)
(2.38573 0.0211275 0.00487237)
(1.59647 0.0590001 0.0104796)
(0.703535 0.180241 0.00482059)
(0.603557 0.188115 0.000471326)
(0.651979 0.193144 -0.000399528)
(0.677566 0.19845 -0.000317426)
(0.665517 0.203077 -0.000167884)
(0.634971 0.208985 -0.000129051)
(0.599485 0.216544 -0.000162528)
(0.572431 0.22511 -0.000258297)
(0.549509 0.234226 -0.000331605)
(0.526598 0.243941 -0.000386241)
(0.502923 0.254355 -0.000438055)
(0.478871 0.265537 -0.000491802)
(0.454675 0.277478 -0.000546501)
(0.430264 0.290215 -0.000601415)
(0.40553 0.303762 -0.000655787)
(0.380398 0.31816 -0.000709891)
(0.354785 0.333437 -0.000763217)
(0.328649 0.349577 -0.000816386)
(0.301911 0.366531 -0.000870226)
(0.274464 0.384205 -0.000924568)
(0.246217 0.402425 -0.000979184)
(0.217045 0.420949 -0.00103414)
(0.186811 0.439467 -0.00108815)
(0.155397 0.457542 -0.00114229)
(0.12245 0.474606 -0.00119599)
(0.0889845 0.489844 -0.00124992)
(0.0523595 0.502586 -0.00130643)
(0.020861 0.5121 -0.00135842)
(3 -8.49858e-11 0.000294452)
(3 1.05419e-07 0.000279216)
(3 2.57181e-07 0.000264104)
(3 5.0184e-07 0.000249117)
(3 7.62779e-07 0.000234255)
(3 9.96321e-07 0.000219519)
(3 1.17972e-06 0.00020491)
(3 2.08096e-06 0.000190434)
(3 2.12638e-06 0.000176101)
(2.99999 3.34778e-06 0.000161955)
(2.99997 3.11992e-06 0.000147982)
(2.99991 1.59431e-05 0.000134482)
(2.9998 1.97526e-05 0.000121315)
(2.9995 0.000101534 0.000110133)
(2.99882 0.000121643 0.000102083)
(2.99745 0.000570194 9.91264e-05)
(2.99605 7.78068e-05 8.35267e-05)
(2.97784 -0.00157575 0.000310242)
(2.96148 0.00371224 0.000292011)
(2.81458 0.000639058 0.00225449)
(2.44705 0.0265713 0.0038271)
(1.70016 0.0693176 0.00884678)
(0.755257 0.215611 0.00453837)
(0.584994 0.212435 0.000754596)
(0.634695 0.212725 -0.000326862)
(0.664848 0.217032 -0.00027871)
(0.656288 0.221658 -0.000150217)
(0.62936 0.228287 -0.000119616)
(0.596607 0.237188 -0.000145483)
(0.571269 0.246505 -0.000224203)
(0.549875 0.256226 -0.000287143)
(0.528508 0.266682 -0.000334888)
(0.506272 0.277981 -0.000379501)
(0.483464 0.290153 -0.000425457)
(0.460291 0.303187 -0.000471927)
(0.436707 0.317104 -0.000518651)
(0.41261 0.331927 -0.000565053)
(0.387964 0.347674 -0.000611562)
(0.362702 0.364387 -0.000657828)
(0.336761 0.38207 -0.000703112)
(0.310102 0.400722 -0.000747965)
(0.28261 0.420305 -0.000792934)
(0.254131 0.440668 -0.000837766)
(0.224561 0.461589 -0.000882828)
(0.193763 0.482738 -0.00092901)
(0.161639 0.503601 -0.000975122)
(0.127807 0.523484 -0.0010216)
(0.0931688 0.541411 -0.00106664)
(0.0550302 0.556513 -0.00110989)
(0.0217104 0.56759 -0.00115747)
(3 3.34001e-09 0.000245734)
(3 8.36154e-08 0.000232991)
(3 2.18211e-07 0.000220355)
(3 4.08871e-07 0.000207826)
(3 6.47124e-07 0.000195404)
(3 9.72235e-07 0.000183091)
(3 1.03619e-06 0.000170887)
(3 9.38921e-07 0.000158797)
(3 -5.93762e-08 0.000146827)
(2.99999 -1.61425e-06 0.000135006)
(2.99997 -4.79877e-06 0.000123322)
(2.99992 -1.00857e-05 0.000111985)
(2.99984 -2.40278e-05 0.000100843)
(2.99959 -4.81699e-05 9.12111e-05)
(2.9991 -0.000177789 8.29043e-05)
(2.99789 -0.000229984 7.95838e-05)
(2.99665 -0.00132072 7.37552e-05)
(2.98168 -0.0037098 0.000217587)
(2.96763 0.0133536 0.000239976)
(2.83139 -0.0230838 0.00172182)
(2.5116 0.0867191 0.0028527)
(1.82345 0.0745685 0.00705)
(0.825921 0.288054 0.00420477)
(0.562309 0.25679 0.000987995)
(0.615717 0.242014 -0.000278205)
(0.652371 0.237624 -0.00025281)
(0.647521 0.240889 -0.000138261)
(0.624256 0.247236 -0.000113465)
(0.593325 0.257148 -0.000127216)
(0.568642 0.267033 -0.000186745)
(0.548709 0.277307 -0.000241002)
(0.529291 0.288569 -0.000282214)
(0.509046 0.30092 -0.000319407)
(0.488126 0.314289 -0.000357381)
(0.466692 0.328642 -0.000395648)
(0.444683 0.343989 -0.000433853)
(0.421958 0.360372 -0.000471658)
(0.398458 0.377804 -0.000509239)
(0.374119 0.396334 -0.000547098)
(0.348876 0.415976 -0.000584684)
(0.322697 0.436743 -0.000622066)
(0.295468 0.458593 -0.000658779)
(0.267047 0.481436 -0.000695173)
(0.237308 0.505136 -0.000731275)
(0.206031 0.529425 -0.000767034)
(0.17298 0.553725 -0.000803235)
(0.13766 0.577226 -0.000839138)
(0.100929 0.598739 -0.000875357)
(0.0601341 0.616914 -0.000913353)
(0.0236419 0.630084 -0.000948352)
(3 7.44158e-09 0.000194968)
(3 6.10115e-08 0.000184835)
(3 1.79977e-07 0.000174789)
(3 3.1461e-07 0.00016483)
(3 5.16655e-07 0.00015496)
(3 7.03119e-07 0.000145179)
(3 8.54829e-07 0.000135486)
(3 7.95021e-07 0.000125889)
(2.99999 8.47561e-07 0.000116389)
(2.99998 6.72013e-07 0.000107022)
(2.99996 4.40681e-06 9.77723e-05)
(2.99989 6.00897e-06 8.88787e-05)
(2.99978 3.2405e-05 8.01974e-05)
(2.99939 3.66572e-05 7.3445e-05)
(2.9987 0.000175271 6.73296e-05)
(2.99647 0.000235343 7.26244e-05)
(2.9934 0.000949519 7.28007e-05)
(2.99259 -0.000930864 4.98076e-05)
(2.9483 0.0115341 0.000448429)
(2.88127 -0.0164616 0.000619575)
(2.62888 0.0731733 0.00241318)
(1.84037 0.0886838 0.00466723)
(1.00002 0.329168 0.00364824)
(0.585013 0.291764 0.00123897)
(0.630153 0.270153 -0.000226606)
(0.668507 0.256093 -0.000234348)
(0.664809 0.258933 -0.000136128)
(0.639631 0.264995 -0.000101384)
(0.606119 0.275946 -0.000106751)
(0.577621 0.286509 -0.000147327)
(0.555709 0.29733 -0.000192115)
(0.535878 0.30935 -0.000226287)
(0.51602 0.32276 -0.000255977)
(0.49596 0.337434 -0.000285673)
(0.475742 0.353295 -0.000315945)
(0.455201 0.370317 -0.000346094)
(0.434063 0.388523 -0.000375935)
(0.412149 0.407938 -0.000405198)
(0.389326 0.428629 -0.000434293)
(0.365439 0.450616 -0.00046312)
(0.340365 0.473973 -0.000491641)
(0.313944 0.498718 -0.00051973)
(0.28605 0.524706 -0.00054748)
(0.256537 0.551983 -0.000575036)
(0.225008 0.580329 -0.000602829)
(0.191073 0.609184 -0.000629898)
(0.154123 0.637673 -0.000657305)
(0.114573 0.664393 -0.000683711)
(0.0694362 0.687498 -0.000709607)
(0.0272584 0.704028 -0.000739609)
(3 9.16748e-09 0.000142059)
(3 4.27855e-08 0.000134658)
(3 1.41381e-07 0.000127322)
(3 2.33863e-07 0.000120053)
(3 3.87503e-07 0.00011285)
(3 4.54359e-07 0.000105713)
(3 7.74244e-07 9.8643e-05)
(3 9.58341e-07 9.16414e-05)
(3 2.10628e-06 8.47126e-05)
(2.99999 4.23969e-06 7.78559e-05)
(2.99998 1.41421e-05 7.10999e-05)
(2.99996 2.91359e-05 6.44303e-05)
(2.99989 9.05563e-05 5.80269e-05)
(2.99977 0.000170257 5.17857e-05)
(2.9994 0.000544674 4.68433e-05)
(2.99887 0.000981437 4.14697e-05)
(2.99577 0.00297896 5.22897e-05)
(2.99351 0.00417494 4.74444e-05)
(2.95867 0.0040277 0.000258923)
(2.91082 0.020073 0.000335443)
(2.71189 0.0443221 0.00143232)
(2.06845 0.129515 0.0028021)
(1.19931 0.339924 0.00326251)
(0.664743 0.327877 0.00126524)
(0.686654 0.312297 -0.000148307)
(0.722036 0.294171 -0.000197327)
(0.720678 0.292969 -0.000130962)
(0.691323 0.295545 -8.60111e-05)
(0.651619 0.304087 -8.35855e-05)
(0.614075 0.313046 -0.000105527)
(0.585039 0.322519 -0.000139926)
(0.560287 0.333601 -0.00016645)
(0.537023 0.346646 -0.000188337)
(0.514721 0.361554 -0.000209744)
(0.493321 0.378194 -0.000231442)
(0.472522 0.39648 -0.000253208)
(0.45189 0.416359 -0.000274764)
(0.431045 0.437821 -0.000296249)
(0.409622 0.460907 -0.000317269)
(0.387348 0.48553 -0.000338006)
(0.364024 0.511809 -0.000358551)
(0.339161 0.540035 -0.000378358)
(0.312655 0.570063 -0.000397725)
(0.284346 0.601956 -0.000416449)
(0.253471 0.635636 -0.000434423)
(0.219346 0.670861 -0.000452764)
(0.181012 0.706921 -0.00047039)
(0.138209 0.742173 -0.000488238)
(0.0868673 0.774214 -0.000506462)
(0.0349089 0.798371 -0.00052423)
(3 3.92793e-09 8.6904e-05)
(3 3.62141e-08 8.23652e-05)
(3 9.48932e-08 7.78681e-05)
(3 1.76766e-07 7.34125e-05)
(3 2.75491e-07 6.89987e-05)
(3 3.90794e-07 6.46267e-05)
(3 4.6902e-07 6.02969e-05)
(3 5.08033e-07 5.60099e-05)
(3 7.89112e-07 5.17675e-05)
(2.99999 2.16176e-06 4.75693e-05)
(2.99998 5.1927e-06 4.34298e-05)