/*--------------------------------*- C++ -*----------------------------------*\
| =========                 |                                                 |
| \\      /  F ield         | OpenFOAM: The Open Source CFD Toolbox           |
|  \\    /   O peration     | Version:  2112                                  |
|   \\  /    A nd           | Website:  www.openfoam.com                      |
|    \\/     M anipulation  |                                                 |
\*---------------------------------------------------------------------------*/
FoamFile
{
    version     2.0;
    format      ascii;
    arch        "LSB;label=32;scalar=64";
    class       volScalarField;
    location    "19.5";
    object      p;
}
// * * * * * * * * * * * * * * * * * * * * * * * * * * * * * * * * * * * * * //

dimensions      [0 2 -2 0 0 0 0];

internalField   nonuniform List<scalar> 
8800
(
0.411297
0.363516
0.324836
0.295849
0.274992
0.260165
0.249566
0.242071
0.237208
0.235047
0.236148
0.240155
0.246632
0.255811
0.268488
0.286148
0.310872
0.344773
0.387285
0.445983
0.242533
0.250212
0.257705
0.261021
0.259528
0.254463
0.247991
0.241917
0.237163
0.234239
0.233814
0.236129
0.240437
0.246223
0.252858
0.259036
0.262605
0.261828
0.256349
0.247626
0.220924
0.227095
0.231242
0.234214
0.236286
0.236909
0.23581
0.233696
0.231633
0.230604
0.23138
0.233552
0.236157
0.238175
0.238647
0.23734
0.234906
0.231441
0.226848
0.223077
0.215092
0.217754
0.220549
0.223002
0.224687
0.225888
0.226652
0.226767
0.226414
0.226225
0.226771
0.227713
0.228328
0.228189
0.227404
0.226159
0.224213
0.221534
0.219066
0.217561
0.209703
0.211139
0.21299
0.215111
0.216976
0.218381
0.219401
0.22019
0.220751
0.221179
0.22158
0.221787
0.22162
0.221094
0.220175
0.218721
0.216837
0.214829
0.213436
0.21261
0.204665
0.205593
0.206941
0.208652
0.210432
0.212089
0.213469
0.214561
0.215461
0.216183
0.216584
0.216579
0.216205
0.215425
0.214213
0.212705
0.211101
0.209613
0.208684
0.208149
0.199851
0.200512
0.201621
0.203134
0.204752
0.206404
0.208002
0.209407
0.210555
0.211445
0.211934
0.211901
0.211367
0.210396
0.209146
0.207787
0.206397
0.205164
0.204456
0.204085
0.19539
0.195876
0.196833
0.198251
0.199792
0.201355
0.202942
0.204502
0.205901
0.207018
0.207605
0.207554
0.206975
0.206059
0.204968
0.203753
0.202481
0.201404
0.200842
0.200579
0.191251
0.1916
0.192434
0.193748
0.195223
0.196731
0.198238
0.199736
0.201207
0.20251
0.203266
0.203368
0.203016
0.202341
0.201424
0.200345
0.199214
0.198279
0.197835
0.197657
0.187604
0.18782
0.188563
0.189836
0.191278
0.19279
0.194392
0.196018
0.197603
0.199058
0.200065
0.200415
0.200221
0.199625
0.198805
0.197859
0.196826
0.19599
0.195653
0.19556
0.184702
0.184816
0.185348
0.186367
0.187568
0.188848
0.190229
0.191777
0.193455
0.19515
0.196446
0.197108
0.197272
0.197122
0.196709
0.196111
0.195406
0.194862
0.194675
0.194632
0.182067
0.182141
0.18248
0.183196
0.184154
0.185309
0.186675
0.188268
0.190072
0.192022
0.193706
0.194769
0.195279
0.195409
0.19532
0.195095
0.194796
0.194581
0.194505
0.194468
0.178946
0.179017
0.179264
0.179771
0.180533
0.181536
0.182863
0.184546
0.186596
0.188944
0.191089
0.192581
0.193527
0.194023
0.194295
0.194443
0.194491
0.194503
0.194481
0.194441
0.174946
0.175005
0.175252
0.175719
0.176426
0.177448
0.178875
0.180743
0.183106
0.185941
0.18867
0.190703
0.192053
0.192999
0.193586
0.193996
0.194271
0.194386
0.194392
0.194352
0.170119
0.170169
0.170441
0.171012
0.171815
0.172992
0.174668
0.1769
0.17975
0.183222
0.186653
0.189285
0.19114
0.192404
0.193282
0.19388
0.194246
0.194397
0.194432
0.194398
0.164569
0.164605
0.164916
0.165635
0.166655
0.168033
0.170049
0.172724
0.176178
0.180467
0.184785
0.188176
0.190606
0.192313
0.193473
0.194261
0.194689
0.194892
0.194965
0.194937
0.158337
0.158369
0.158698
0.159539
0.160869
0.162571
0.165016
0.168264
0.172515
0.177826
0.183233
0.187532
0.190657
0.19286
0.194365
0.195334
0.195897
0.19619
0.196301
0.196273
0.151258
0.151285
0.151681
0.152612
0.154156
0.156361
0.159317
0.163321
0.168588
0.175195
0.181942
0.187351
0.191294
0.194073
0.196015
0.19727
0.198034
0.198451
0.1986
0.198565
0.142976
0.143011
0.143502
0.144604
0.14643
0.149076
0.152757
0.15777
0.164348
0.172589
0.181001
0.187743
0.192664
0.196193
0.198614
0.200228
0.201242
0.201798
0.201983
0.201939
0.132961
0.133005
0.133607
0.13498
0.137237
0.140531
0.145156
0.151454
0.159713
0.170013
0.180468
0.188814
0.194943
0.199295
0.202315
0.204354
0.205654
0.206359
0.206586
0.206529
0.120686
0.12075
0.121535
0.123281
0.126144
0.130331
0.136212
0.144211
0.154634
0.167503
0.180446
0.190733
0.198247
0.203594
0.207324
0.20986
0.211485
0.212356
0.212634
0.212561
0.105344
0.105431
0.106475
0.108788
0.112563
0.11802
0.125643
0.135906
0.149091
0.165129
0.181053
0.193612
0.202762
0.209289
0.213861
0.216991
0.219003
0.220066
0.220401
0.220309
0.0857875
0.0859137
0.0873698
0.0905716
0.0957137
0.10303
0.113097
0.126386
0.143096
0.163003
0.182441
0.197638
0.208691
0.216599
0.222173
0.226022
0.228517
0.229836
0.230231
0.230112
0.0602687
0.06048
0.0626365
0.0672987
0.0745778
0.0846876
0.0982416
0.115596
0.13676
0.161294
0.18478
0.202971
0.216197
0.225713
0.232485
0.237213
0.2403
0.241922
0.242391
0.242238
0.0257305
0.0261492
0.0297135
0.03711
0.0479866
0.0624623
0.0810054
0.103713
0.130343
0.160249
0.18826
0.209748
0.22539
0.236749
0.244952
0.250783
0.254639
0.25665
0.257198
0.256994
-0.0237338
-0.0222519
-0.0150111
-0.00205902
0.0151188
0.0363265
0.0617399
0.0912006
0.124272
0.160175
0.193049
0.218035
0.236267
0.249668
0.259547
0.266754
0.271647
0.274225
0.274884
0.274604
-0.0975286
-0.088882
-0.0722465
-0.0492235
-0.0225935
0.0075756
0.0413958
0.0786565
0.118905
0.161387
0.199605
0.228528
0.2498
0.265714
0.2778
0.287028
0.293599
0.297299
0.298371
0.298273
-0.176458
-0.156892
-0.130265
-0.0968706
-0.0605498
-0.0212833
0.02103
0.0662878
0.114138
0.163973
0.208618
0.242606
0.26795
0.287313
0.302449
0.314402
0.323391
0.329221
0.331311
0.331372
-0.239853
-0.217704
-0.182945
-0.141212
-0.0963781
-0.0486856
0.00173313
0.0547099
0.109892
0.166697
0.21727
0.255746
0.284552
0.306711
0.324132
0.337942
0.348501
0.355435
0.357183
0.35749
-0.291366
-0.267179
-0.227503
-0.179872
-0.128367
-0.073738
-0.0162875
0.0436457
0.105575
0.168811
0.224691
0.266952
0.298441
0.322548
0.341404
0.356334
0.367688
0.37494
0.377084
0.377472
-0.333558
-0.308517
-0.265357
-0.213175
-0.156447
-0.0961887
-0.0328082
0.0331782
0.101114
0.170128
0.230683
0.276088
0.309591
0.334992
0.354683
0.370148
0.381781
0.389194
0.39163
0.392
-0.369513
-0.343982
-0.298333
-0.242476
-0.181473
-0.116496
-0.0480391
0.0232518
0.0965471
0.170772
0.235503
0.28359
0.318705
0.345034
0.36519
0.380809
0.392458
0.399837
0.402431
0.402768
-0.401156
-0.375367
-0.327782
-0.268926
-0.204342
-0.135282
-0.0623713
0.013644
0.0918118
0.17083
0.239455
0.290051
0.326616
0.35368
0.374128
0.389764
0.401354
0.408688
0.41139
0.41171
-0.429947
-0.403919
-0.35474
-0.293359
-0.225697
-0.153088
-0.0762261
0.00407472
0.0867463
0.170327
0.242709
0.295706
0.333643
0.361425
0.382186
0.397899
0.409454
0.416657
0.419451
0.419763
-0.456731
-0.430486
-0.379957
-0.316394
-0.24605
-0.170308
-0.0899022
-0.00569707
0.0811749
0.169102
0.245171
0.300657
0.340095
0.368726
0.389894
0.40575
0.417316
0.424382
0.427156
0.427555
-0.482206
-0.455684
-0.40391
-0.338451
-0.265721
-0.187203
-0.103628
-0.0158639
0.074925
0.167057
0.246943
0.305127
0.34625
0.375871
0.397572
0.413665
0.425284
0.432258
0.434947
0.435346
-0.50664
-0.479812
-0.426903
-0.359819
-0.284963
-0.203973
-0.117545
-0.026527
0.06795
0.164234
0.248015
0.309101
0.352173
0.382996
0.405401
0.421859
0.433605
0.440534
0.443083
0.443409
-0.530372
-0.503159
-0.449352
-0.380672
-0.303916
-0.220715
-0.131715
-0.0377159
0.060218
0.160501
0.248262
0.312519
0.357846
0.390149
0.413454
0.430416
0.442363
0.449279
0.451663
0.451894
-0.553447
-0.52578
-0.471227
-0.401089
-0.32265
-0.237482
-0.146178
-0.0494785
0.0516347
0.155758
0.247597
0.31531
0.363219
0.397302
0.421738
0.439358
0.451587
0.458501
0.46075
0.46083
-0.575938
-0.547901
-0.49252
-0.421122
-0.341194
-0.254286
-0.160942
-0.0618377
0.0421848
0.14997
0.245894
0.317324
0.36819
0.404398
0.43022
0.448656
0.461226
0.468091
0.470194
0.470135
-0.597919
-0.569443
-0.513284
-0.440767
-0.359533
-0.27109
-0.175963
-0.0747349
0.0319118
0.143094
0.243032
0.318376
0.372586
0.411336
0.438853
0.458262
0.47121
0.477979
0.479873
0.479691
-0.61942
-0.590431
-0.533531
-0.46
-0.377609
-0.287844
-0.191169
-0.0880978
0.0208475
0.135105
0.23891
0.318273
0.376169
0.417952
0.447585
0.468167
0.481473
0.488047
0.489654
0.489364
-0.640268
-0.610808
-0.553206
-0.478783
-0.395381
-0.304471
-0.206486
-0.101848
0.00906673
0.126048
0.233443
0.316819
0.378676
0.424027
0.456371
0.478432
0.491975
0.498093
0.499303
0.498906
-0.660421
-0.630523
-0.572277
-0.497056
-0.412781
-0.320903
-0.221819
-0.115892
-0.00333026
0.11597
0.226591
0.313828
0.379787
0.429214
0.465094
0.489293
0.502962
0.508022
0.508529
0.508054
-0.679952
-0.649535
-0.590714
-0.514779
-0.429744
-0.337058
-0.237076
-0.130114
-0.0162322
0.104966
0.218351
0.309172
0.379163
0.432996
0.473403
0.501071
0.515333
0.518326
0.517122
0.516581
-0.698688
-0.667834
-0.608461
-0.531889
-0.446214
-0.352855
-0.252158
-0.144398
-0.0295099
0.0931637
0.208777
0.302758
0.376518
0.434677
0.480451
0.51362
0.530726
0.531769
0.526535
0.524762
-0.716721
-0.685413
-0.625543
-0.548415
-0.462225
-0.368341
-0.267124
-0.158805
-0.0432283
0.0804967
0.197757
0.294348
0.371546
0.433433
0.484681
0.525478
0.549586
0.554219
0.544528
0.523978
-0.733994
-0.702282
-0.642083
-0.564536
-0.478056
-0.383835
-0.282378
-0.17381
-0.0579311
0.0662992
0.18458
0.283054
0.363443
0.428077
0.482892
0.531484
0.562703
0.565354
0.549468
0.525466
-0.750357
-0.718616
-0.657911
-0.580004
-0.493428
-0.399003
-0.297694
-0.189083
-0.0732856
0.0508986
0.169464
0.268699
0.351804
0.418101
0.470312
0.519741
0.549481
0.542388
0.471437
0.430967
-0.765216
-0.735449
-0.672671
-0.594257
-0.507653
-0.413387
-0.312792
-0.204407
-0.0890741
0.0344513
0.152445
0.251212
0.335907
0.403972
0.447138
0.477998
0.493136
0.448094
0.372697
0.32399
-0.818844
-0.749732
-0.686074
-0.608685
-0.522118
-0.428329
-0.327735
-0.220031
-0.105611
0.0165934
0.133078
0.230294
0.313249
0.387361
0.397299
0.408683
0.379347
0.313546
0.230243
0.183339
-0.779416
-0.76434
-0.705251
-0.629169
-0.542913
-0.449628
-0.350244
-0.243714
-0.131085
-0.0115771
0.101041
0.194245
0.268585
0.33762
0.342316
0.22784
0.115335
0.0374726
-0.043432
-0.00139082
-0.808289
-0.780404
-0.721047
-0.644932
-0.55916
-0.4663
-0.366919
-0.261345
-0.150266
-0.0333034
0.0755056
0.163863
0.230596
0.267947
0.21821
0.0601445
-0.0843383
-0.187488
-0.302058
-0.234666
-0.830292
-0.799229
-0.739181
-0.662696
-0.577077
-0.484452
-0.385405
-0.280963
-0.171715
-0.0577841
0.0465736
0.128768
0.185764
0.193827
0.0792673
-0.124618
-0.302866
-0.44069
-0.606416
-0.547141
-0.851417
-0.818894
-0.757925
-0.680745
-0.595056
-0.502659
-0.404312
-0.30111
-0.193861
-0.0832879
0.0158856
0.0912962
0.134616
0.104425
-0.0732017
-0.310347
-0.539639
-0.746251
-0.981466
-0.975516
-0.871507
-0.838868
-0.777224
-0.69945
-0.613673
-0.521564
-0.424009
-0.322141
-0.217106
-0.110215
-0.0167545
0.0512766
0.0775428
0.007922
-0.220276
-0.479566
-0.752068
-0.997563
-1.30415
-1.6674
-0.891642
-0.859262
-0.797287
-0.719165
-0.633297
-0.541433
-0.44459
-0.344059
-0.241301
-0.138247
-0.0506501
0.00941795
0.0189751
-0.101918
-0.350022
-0.611378
-0.879659
-1.10782
-1.19914
-1.33949
-0.912494
-0.880411
-0.818373
-0.740165
-0.654314
-0.562772
-0.466716
-0.367665
-0.267463
-0.168689
-0.087449
-0.0367462
-0.0509118
-0.222482
-0.464024
-0.706907
-0.922095
-1.05482
-1.08055
-1.107
-0.934402
-0.902605
-0.84061
-0.762463
-0.676776
-0.585691
-0.490614
-0.393297
-0.296024
-0.202119
-0.127698
-0.0877758
-0.130056
-0.333467
-0.566721
-0.783802
-0.951584
-1.02083
-1.03689
-1.04057
-0.957537
-0.925815
-0.864025
-0.785976
-0.700563
-0.610102
-0.51619
-0.420868
-0.3269
-0.238426
-0.171287
-0.144523
-0.212293
-0.437565
-0.662488
-0.861883
-0.990074
-1.00968
-1.01212
-1.01238
-0.981811
-0.950045
-0.888529
-0.81063
-0.725592
-0.635882
-0.543311
-0.450224
-0.359913
-0.277361
-0.218234
-0.203877
-0.300058
-0.536347
-0.747958
-0.932053
-0.989666
-0.99921
-0.999909
-0.999312
-1.00694
-0.975198
-0.913888
-0.836264
-0.751679
-0.662847
-0.571782
-0.481136
-0.39481
-0.318516
-0.268075
-0.262749
-0.40371
-0.632899
-0.819147
-0.976391
-1.01908
-0.996433
-0.98869
-0.986824
-1.03235
-1.00091
-0.939805
-0.862569
-0.778545
-0.690698
-0.601263
-0.513231
-0.431097
-0.361403
-0.319899
-0.329484
-0.506667
-0.736705
-0.867586
-0.943618
-0.961648
-0.973132
-0.976175
-0.975714
-1.05762
-1.02665
-0.965935
-0.889135
-0.805752
-0.718969
-0.63126
-0.545949
-0.468034
-0.405374
-0.372354
-0.403297
-0.602408
-0.853366
-0.955703
-0.874981
-0.949041
-0.972395
-0.977415
-0.979421
-1.08194
-1.05145
-0.991672
-0.915385
-0.832708
-0.747059
-0.661086
-0.578484
-0.504629
-0.449184
-0.42459
-0.474049
-0.702134
-0.987123
-1.2824
-1.20488
-1.12808
-1.07468
-1.05184
-1.04397
-1.10437
-1.07469
-1.01614
-0.940526
-0.858672
-0.774177
-0.689849
-0.609738
-0.539681
-0.490702
-0.475706
-0.539628
-0.798429
-1.09006
-1.66924
-1.91912
-1.42959
-1.28987
-1.25465
-1.23636
-1.12366
-1.09535
-1.03815
-0.963682
-0.882769
-0.799351
-0.716473
-0.63834
-0.5716
-0.527132
-0.52337
-0.593935
-0.839194
-0.882848
-0.684108
-0.769218
-1.18095
-1.40265
-1.37529
-1.36956
-1.1386
-1.11214
-1.05694
-0.983688
-0.903851
-0.821477
-0.739712
-0.662768
-0.598
-0.556559
-0.564431
-0.637243
-0.839297
-0.740308
-0.355962
-0.571387
-1.10052
-1.33747
-1.31148
-1.34745
-1.14802
-1.12397
-1.07127
-0.999578
-0.920795
-0.839338
-0.75825
-0.681514
-0.616255
-0.57635
-0.588619
-0.701675
-1.1375
-1.81163
-2.55803
-3.11886
-3.0872
-2.63278
-2.1743
-2.03565
-1.15056
-1.12959
-1.08015
-1.01033
-0.932622
-0.851833
-0.770722
-0.693016
-0.624594
-0.578894
-0.584965
-0.743397
-1.40272
-2.4862
-3.53405
-4.11801
-4.07895
-3.71571
-3.2486
-2.95751
-1.14548
-1.12819
-1.0827
-1.01528
-0.938562
-0.858158
-0.77636
-0.696099
-0.621664
-0.561139
-0.54344
-0.608124
-1.09938
-1.71744
-2.40134
-2.615
-2.40038
-2.01696
-1.68804
-1.50866
-1.13213
-1.11822
-1.0782
-1.01393
-0.938344
-0.857977
-0.774957
-0.690841
-0.606958
-0.526193
-0.448683
-0.357105
-0.369674
-0.266573
-0.0115902
0.311735
0.70278
1.01768
1.19854
1.26351
-1.11131
-1.10126
-1.06688
-1.00633
-0.931794
-0.851553
-0.767366
-0.67942
-0.586203
-0.481349
-0.360664
-0.235765
0.0560678
0.572081
1.22107
1.86435
2.32763
2.60116
2.72288
2.75765
-1.08414
-1.07781
-1.04952
-0.992794
-0.919063
-0.839769
-0.755664
-0.665813
-0.565996
-0.446588
-0.315325
-0.171043
0.026996
0.576767
1.24709
1.83659
2.24924
2.47968
2.58763
2.62162
-1.0507
-1.04752
-1.0255
-0.971912
-0.900688
-0.823303
-0.741744
-0.653796
-0.554192
-0.433209
-0.300038
-0.174971
-0.0568972
0.318555
0.834245
1.26262
1.57975
1.76681
1.86271
1.89685
-1.00647
-1.00511
-0.988545
-0.940892
-0.874058
-0.801492
-0.72647
-0.646119
-0.553463
-0.436572
-0.30339
-0.198124
-0.127019
0.0855187
0.416601
0.700145
0.914874
1.05034
1.12028
1.1435
-0.935468
-0.934965
-0.923186
-0.886831
-0.832706
-0.773004
-0.711485
-0.644779
-0.563388
-0.452766
-0.314473
-0.192592
-0.103618
0.0236557
0.241309
0.415112
0.548025
0.633744
0.683903
0.697537
-0.848896
-0.847448
-0.839437
-0.817023
-0.781522
-0.740586
-0.697463
-0.649632
-0.586729
-0.487671
-0.352744
-0.213529
-0.102393
-0.00790406
0.106578
0.214381
0.293516
0.345462
0.369204
0.375019
-0.778491
-0.776648
-0.771438
-0.759766
-0.740361
-0.717229
-0.693139
-0.667177
-0.631574
-0.561453
-0.433596
-0.279699
-0.145673
-0.0879805
-0.0339057
0.0332931
0.0929036
0.133469
0.154457
0.157138
-0.740204
-0.738902
-0.736365
-0.73148
-0.723559
-0.715578
-0.711455
-0.714252
-0.722991
-0.72137
-0.63511
-0.46123
-0.297553
-0.238199
-0.192785
-0.124077
-0.0656292
-0.0228404
-0.00156539
-0.00124616
-0.725543
-0.725524
-0.725552
-0.725516
-0.726814
-0.733565
-0.752766
-0.796207
-0.881956
-1.01181
-1.03063
-0.811062
-0.579893
-0.481685
-0.397223
-0.302519
-0.217394
-0.159609
-0.134236
-0.135877
-0.713838
-0.715098
-0.717676
-0.722461
-0.732936
-0.755241
-0.801373
-0.897602
-1.09824
-1.44134
-1.63202
-1.35276
-0.977342
-0.777725
-0.645031
-0.496898
-0.374965
-0.293767
-0.264514
-0.268396
-0.687457
-0.689774
-0.694495
-0.703392
-0.721259
-0.756671
-0.825804
-0.972091
-1.28955
-1.86034
-2.25274
-1.92299
-1.39262
-1.08647
-0.876638
-0.684941
-0.543249
-0.465559
-0.44538
-0.448415
-0.63378
-0.636582
-0.642236
-0.653022
-0.674195
-0.71507
-0.794229
-0.961257
-1.32308
-1.97769
-2.38532
-2.05008
-1.55212
-1.25645
-1.01153
-0.834645
-0.73553
-0.693253
-0.67901
-0.677377
-0.549844
-0.552368
-0.557495
-0.567275
-0.586385
-0.622975
-0.694237
-0.842358
-1.16231
-1.7186
-2.02345
-1.75526
-1.43044
-1.18538
-0.977836
-0.875822
-0.847941
-0.842871
-0.83132
-0.825505
-0.443767
-0.44548
-0.449045
-0.455778
-0.469224
-0.494821
-0.54423
-0.645433
-0.861859
-1.23661
-1.44904
-1.3107
-1.10058
-0.899351
-0.788081
-0.765137
-0.788067
-0.79677
-0.792039
-0.78742
-0.33049
-0.331248
-0.332987
-0.336303
-0.343192
-0.356342
-0.381394
-0.4316
-0.536836
-0.725876
-0.845416
-0.759298
-0.644045
-0.546885
-0.542521
-0.582676
-0.61299
-0.623335
-0.623712
-0.622473
-0.225198
-0.225203
-0.225546
-0.226277
-0.228089
-0.231667
-0.238432
-0.251651
-0.278098
-0.319266
-0.339856
-0.294987
-0.270589
-0.293014
-0.352047
-0.399301
-0.422341
-0.430599
-0.433626
-0.433736
-0.138043
-0.137642
-0.137246
-0.136647
-0.135724
-0.13405
-0.131081
-0.125961
-0.117127
-0.0997959
-0.0765022
-0.0516095
-0.0895083
-0.154392
-0.20891
-0.243484
-0.261106
-0.268873
-0.27243
-0.273318
-0.0726832
-0.0721688
-0.0715821
-0.0706662
-0.0689291
-0.065561
-0.0594725
-0.0490553
-0.0322638
-0.00792721
0.0103254
0.0101884
-0.0255837
-0.0750887
-0.114013
-0.137908
-0.149433
-0.155348
-0.158523
-0.159515
-0.0277435
-0.0272891
-0.0268046
-0.0261026
-0.024606
-0.0214854
-0.0157976
-0.00629894
0.00804071
0.025787
0.0343063
0.0247789
-0.00166049
-0.0331544
-0.0578426
-0.073
-0.0809529
-0.0850174
-0.0872451
-0.0879795
0.000698124
0.00102894
0.00132233
0.00164982
0.00255677
0.00473374
0.0088556
0.0156121
0.0251962
0.0354815
0.0374605
0.0268673
0.00833214
-0.0111332
-0.0262573
-0.035809
-0.0410151
-0.0437131
-0.0451476
-0.0456179
0.0170608
0.0172692
0.0173866
0.0173814
0.0177211
0.0189223
0.0214225
0.0255671
0.0311411
0.0361297
0.0347966
0.0257647
0.0131162
0.000916817
-0.00847525
-0.0146055
-0.0181002
-0.0199211
-0.0208347
-0.0211251
0.0251795
0.0252945
0.0252831
0.0250511
0.0249772
0.0254181
0.0266392
0.0287727
0.0315094
0.0333036
0.0307398
0.0237196
0.0151556
0.0073204
0.00131449
-0.00273038
-0.00513641
-0.00639277
-0.00698568
-0.00716834
0.0279456
0.0279993
0.0279107
0.0275616
0.027251
0.0272004
0.0275804
0.0284191
0.0294142
0.0294668
0.0266586
0.0213569
0.0154951
0.0103223
0.00635771
0.00361481
0.00192361
0.00103934
0.000651454
0.000532748
0.0273654
0.027383
0.0272603
0.026881
0.0264564
0.0261331
0.0260135
0.0260832
0.0261027
0.0253253
0.0227168
0.0187637
0.014697
0.0111987
0.00851313
0.00661556
0.00541329
0.004786
0.00452224
0.00444385
0.0247623
0.0247614
0.0246347
0.0242758
0.0238279
0.0233914
0.0230256
0.0227016
0.0222421
0.0211601
0.0189324
0.0160103
0.0131582
0.0107505
0.00889852
0.00756864
0.00670887
0.00626132
0.00608059
0.00602986
0.0209721
0.0209638
0.0208506
0.0205388
0.0201254
0.0196787
0.0192341
0.0187634
0.0181418
0.0170562
0.0152603
0.0131297
0.0111316
0.00946749
0.00818468
0.00725181
0.00663983
0.00632266
0.00620008
0.00616691
0.0164989
0.0164893
0.016398
0.0161462
0.0157969
0.0154034
0.0149846
0.0145188
0.0139224
0.0130005
0.01165
0.0101524
0.00878659
0.00765861
0.00678523
0.00614199
0.0057144
0.0054941
0.00541241
0.00539021
0.0116355
0.0116273
0.0115603
0.0113725
0.0111063
0.0108053
0.0104798
0.0101138
0.00965444
0.00898658
0.0080735
0.00710407
0.00623617
0.00552141
0.0049627
0.00454289
0.00425809
0.00411207
0.00406019
0.00404528
0.0065469
0.00654079
0.00649884
0.0063793
0.00621431
0.00603484
0.00584325
0.0056295
0.00536522
0.00499256
0.00450074
0.00399116
0.0035401
0.00316845
0.00287391
0.00264478
0.00248235
0.00239888
0.00236955
0.0023589
0.0013461
0.00135089
0.00137736
0.00139588
0.00136976
0.00132343
0.00127077
0.00121382
0.00114635
0.00105883
0.000943264
0.000814347
0.000697515
0.000598586
0.000518534
0.000457074
0.000420031
0.000420622
0.000444683
0.000457479
-0.700614
-0.483198
-0.235902
-0.0321779
0.133185
0.266197
0.378201
0.472532
0.515318
0.492775
-0.30981
-0.159595
-0.00267381
0.132613
0.247415
0.343485
0.421559
0.477251
0.506092
0.517481
-0.0407328
0.0592576
0.164601
0.258221
0.338953
0.406675
0.460504
0.499819
0.527556
0.544783
0.148794
0.217624
0.29143
0.358427
0.416665
0.465975
0.506233
0.537996
0.563198
0.581013
0.292362
0.34219
0.395191
0.445342
0.489525
0.527862
0.560369
0.587083
0.608959
0.626507
0.408091
0.445161
0.487463
0.527159
0.563284
0.595397
0.623227
0.646373
0.665204
0.68242
0.50764
0.538681
0.575599
0.610235
0.642375
0.671368
0.696556
0.717336
0.733511
0.750556
0.600509
0.631198
0.667009
0.700602
0.731561
0.759305
0.783098
0.802274
0.816115
0.833171
0.698497
0.73253
0.770292
0.804854
0.835756
0.862677
0.885227
0.902951
0.915156
0.932598
0.815213
0.853355
0.892722
0.927627
0.957505
0.982706
1.00345
1.01964
1.03133
1.04945
0.961251
1.00016
1.03649
1.06753
1.09353
1.1159
1.13518
1.1509
1.16347
1.18151
1.13661
1.16864
1.19505
1.21766
1.23783
1.25671
1.27456
1.29114
1.30658
1.32468
1.32558
1.34294
1.35819
1.37457
1.39057
1.40519
1.41848
1.43248
1.45008
1.47026
1.50773
1.51719
1.52879
1.53965
1.54898
1.55865
1.56953
1.58095
1.59235
1.60773
1.71494
1.71865
1.70373
1.68895
1.68275
1.68848
1.70698
1.73733
1.76953
1.7962
2.02129
1.88643
1.80985
1.76759
1.75019
1.75416
1.7816
1.83802
1.94065
2.16502
0.301892
0.299769
0.295283
0.286665
0.274451
0.262333
0.252112
0.24421
0.238559
0.235227
0.234724
0.237264
0.24218
0.249246
0.258507
0.269948
0.282526
0.293508
0.299598
0.30263
0.226324
0.232173
0.238524
0.243037
0.245526
0.24522
0.242496
0.238688
0.23515
0.2328
0.23249
0.234487
0.23795
0.242061
0.245725
0.247495
0.24647
0.242914
0.237693
0.23105
0.217884
0.220182
0.223605
0.226631
0.228739
0.230266
0.231047
0.230736
0.229675
0.228695
0.228694
0.229897
0.231494
0.232599
0.232603
0.231569
0.229901
0.227468
0.224138
0.221188
0.212348
0.213432
0.215305
0.217752
0.219844
0.221329
0.222386
0.223143
0.223517
0.223646
0.22394
0.22448
0.224809
0.224636
0.224016
0.222979
0.22134
0.219105
0.216904
0.215486
0.20715
0.207804
0.208967
0.210781
0.212681
0.214421
0.215797
0.216837
0.217676
0.218351
0.218854
0.219093
0.218981
0.218527
0.21768
0.216355
0.214678
0.212915
0.211442
0.210627
0.202228
0.20267
0.203526
0.204982
0.206643
0.208327
0.209939
0.211339
0.212486
0.213423
0.214068
0.214263
0.214001
0.213307
0.212207
0.210845
0.209377
0.207945
0.206829
0.206279
0.197569
0.197875
0.198566
0.199868
0.201428
0.203036
0.204672
0.206253
0.20764
0.208757
0.209538
0.209811
0.209511
0.20872
0.207605
0.206344
0.205025
0.203733
0.202802
0.202406
0.193284
0.193499
0.194061
0.195222
0.196679
0.198188
0.199695
0.201225
0.202758
0.204155
0.205137
0.205424
0.205121
0.204457
0.203578
0.202524
0.20135
0.200218
0.199449
0.199158
0.189336
0.189462
0.189931
0.19103
0.192453
0.193962
0.195532
0.197101
0.198613
0.200045
0.201201
0.201774
0.201766
0.201304
0.200505
0.199526
0.198447
0.197403
0.196738
0.196542
0.186071
0.186123
0.186472
0.187424
0.188719
0.190089
0.191537
0.193092
0.194756
0.196411
0.197816
0.19862
0.198784
0.198537
0.198014
0.197304
0.196446
0.195594
0.195101
0.194993
0.183399
0.183422
0.183641
0.184297
0.185294
0.186424
0.187702
0.189145
0.190757
0.192527
0.194228
0.195426
0.196037
0.196212
0.196082
0.19574
0.195283
0.194818
0.194579
0.194525
0.180603
0.180624
0.180782
0.181218
0.181951
0.182921
0.184121
0.185616
0.187417
0.189478
0.191569
0.193174
0.194124
0.194589
0.194754
0.194773
0.194697
0.194592
0.194531
0.194493
0.177057
0.177076
0.177224
0.177572
0.178145
0.178984
0.180145
0.181681
0.183645
0.186033
0.188611
0.190752
0.192197
0.193133
0.193673
0.194049
0.194298
0.194437
0.194466
0.194439
0.172632
0.172641
0.172793
0.173169
0.173786
0.174697
0.175989
0.177771
0.180089
0.182964
0.186165
0.188916
0.190842
0.192122
0.19306
0.193671
0.194105
0.194336
0.1944
0.194387
0.167435
0.167432
0.167579
0.168052
0.168804
0.169879
0.171428
0.173535
0.176305
0.179812
0.183794
0.187301
0.189832
0.191606
0.192835
0.193682
0.194236
0.194517
0.194623
0.194634
0.161555
0.161532
0.161697
0.162231
0.163165
0.164597
0.166404
0.168975
0.172349
0.176656
0.181603
0.186034
0.1893
0.191621
0.193226
0.194333
0.194984
0.195347
0.195514
0.195544
0.15493
0.154893
0.155088
0.155698
0.156798
0.158512
0.160858
0.163939
0.168086
0.173413
0.179577
0.185152
0.189283
0.192242
0.194303
0.195702
0.196571
0.197076
0.197316
0.197356
0.147297
0.147252
0.147488
0.14823
0.149555
0.151538
0.154365
0.158227
0.163384
0.170021
0.177711
0.184673
0.189862
0.193572
0.196207
0.197979
0.199129
0.199821
0.200139
0.200188
0.138206
0.138155
0.138454
0.139358
0.14096
0.143388
0.146867
0.15169
0.158159
0.166467
0.176053
0.184713
0.19115
0.195819
0.199081
0.201317
0.202801
0.203707
0.20411
0.20417
0.127119
0.127055
0.127459
0.128598
0.130598
0.133648
0.138043
0.144153
0.152317
0.162731
0.174662
0.18537
0.193341
0.199078
0.203109
0.20589
0.207758
0.208905
0.209406
0.209477
0.113376
0.113298
0.113855
0.115358
0.117951
0.121883
0.127545
0.13537
0.145734
0.158814
0.173617
0.186786
0.196533
0.20355
0.208497
0.211923
0.214239
0.215665
0.216286
0.216369
0.096045
0.0959606
0.0967591
0.0988009
0.102253
0.107468
0.114913
0.125075
0.13833
0.154756
0.173025
0.189091
0.200922
0.209443
0.21547
0.219666
0.222518
0.224277
0.225042
0.225136
0.0736894
0.0736095
0.0748064
0.0776985
0.0824896
0.0896584
0.0997014
0.113096
0.130115
0.150673
0.173047
0.192455
0.206678
0.216943
0.224249
0.229376
0.232888
0.23505
0.235978
0.236088
0.0439701
0.0439426
0.0458677
0.0502473
0.0573185
0.0675984
0.0815059
0.0993538
0.121214
0.146777
0.17389
0.197052
0.213955
0.226206
0.235012
0.241273
0.245609
0.24828
0.249409
0.249531
0.00271283
0.00290109
0.00645453
0.0139101
0.0251659
0.0405621
0.0601871
0.0840486
0.111956
0.14338
0.175781
0.203023
0.222834
0.237286
0.247827
0.255469
0.260877
0.264209
0.265569
0.265693
-0.0579009
-0.0563729
-0.0478097
-0.0338036
-0.0148327
0.00872027
0.036353
0.0678669
0.102915
0.140874
0.17892
0.210413
0.233256
0.250047
0.262502
0.271762
0.27847
0.282685
0.284375
0.284519
-0.130395
-0.127909
-0.111855
-0.0873761
-0.0578338
-0.0247805
0.0116253
0.0513339
0.0940855
0.139338
0.184058
0.221003
0.248067
0.268333
0.283747
0.295574
0.304564
0.310049
0.311809
0.312249
-0.205016
-0.19704
-0.173364
-0.138849
-0.099662
-0.0574211
-0.0123349
0.0355411
0.0860023
0.138591
0.190083
0.232565
0.263866
0.287604
0.306023
0.320483
0.331678
0.338305
0.341393
0.342296
-0.263362
-0.253878
-0.225332
-0.184146
-0.137482
-0.0875396
-0.0347825
0.0205948
0.0782744
0.137753
0.19551
0.242909
0.277761
0.304184
0.324684
0.340782
0.353189
0.361274
0.36538
0.366475
-0.31064
-0.30061
-0.268651
-0.222678
-0.170413
-0.114413
-0.0552843
0.00660243
0.0707426
0.136475
0.19986
0.251491
0.289172
0.31752
0.339356
0.356432
0.369619
0.378504
0.382975
0.384137
-0.349894
-0.339754
-0.305677
-0.255996
-0.199227
-0.1383
-0.0738625
-0.00639779
0.0634291
0.134763
0.203181
0.258473
0.298413
0.328144
0.350812
0.36836
0.381785
0.390959
0.39548
0.396739
-0.383936
-0.373799
-0.338147
-0.285515
-0.225087
-0.16001
-0.0909871
-0.0186359
0.0562567
0.132675
0.205681
0.264266
0.306194
0.33706
0.360298
0.378049
0.391502
0.40069
0.405198
0.40649
-0.414323
-0.404224
-0.367395
-0.312325
-0.248833
-0.180185
-0.107155
-0.0304555
0.0490418
0.130153
0.207516
0.269269
0.313054
0.344916
0.368615
0.386534
0.399992
0.409197
0.413728
0.414897
-0.442258
-0.432165
-0.394364
-0.337225
-0.271121
-0.19937
-0.122801
-0.0421716
0.0415606
0.127103
0.208652
0.273488
0.319147
0.352069
0.376313
0.394457
0.407975
0.417169
0.421725
0.422728
-0.468506
-0.458391
-0.419744
-0.360824
-0.292409
-0.21791
-0.138192
-0.0540194
0.0336119
0.123334
0.208972
0.277024
0.324749
0.358902
0.383804
0.402258
0.415885
0.425065
0.42961
0.430516
-0.493527
-0.48338
-0.44397
-0.383479
-0.313001
-0.236072
-0.153546
-0.0661685
0.0250604
0.118773
0.208558
0.279996
0.329969
0.365547
0.391282
0.410179
0.424006
0.433208
0.437721
0.438599
-0.51771
-0.507453
-0.467252
-0.405462
-0.333127
-0.254028
-0.16898
-0.0786972
0.0158751
0.113421
0.207316
0.28232
0.334819
0.372075
0.398865
0.41837
0.432509
0.441791
0.446195
0.447064
-0.541228
-0.530789
-0.489941
-0.426883
-0.352881
-0.271858
-0.184551
-0.0916348
0.00600678
0.107156
0.205115
0.283901
0.339271
0.378517
0.406595
0.426882
0.44144
0.450847
0.455148
0.455982
-0.56411
-0.553477
-0.512051
-0.447806
-0.372337
-0.289601
-0.200291
-0.105022
-0.00460328
0.0999114
0.201887
0.284625
0.343189
0.384791
0.414437
0.435698
0.450787
0.46035
0.464537
0.465257
-0.586488
-0.575616
-0.533575
-0.46826
-0.391504
-0.307258
-0.21618
-0.118839
-0.0159279
0.0917033
0.197538
0.284347
0.346412
0.390761
0.422326
0.444779
0.460493
0.47021
0.474251
0.474836
-0.608284
-0.597179
-0.554547
-0.488257
-0.41035
-0.32478
-0.232162
-0.133016
-0.0279035
0.0825262
0.191999
0.282904
0.348757
0.396275
0.430178
0.454092
0.470517
0.480342
0.484179
0.484589
-0.629515
-0.618157
-0.574932
-0.507766
-0.428836
-0.342117
-0.248173
-0.147469
-0.0404698
0.072415
0.185236
0.280145
0.349972
0.401109
0.437885
0.463642
0.480847
0.490615
0.49409
0.494307
-0.650036
-0.638491
-0.594681
-0.526733
-0.446907
-0.359188
-0.264134
-0.162123
-0.0535364
0.0614535
0.17724
0.275946
0.349808
0.404937
0.445251
0.473485
0.491621
0.500983
0.503773
0.50374
-0.66994
-0.658129
-0.61377
-0.545125
-0.464515
-0.375945
-0.279951
-0.176883
-0.0669943
0.0497445
0.168051
0.270218
0.348025
0.407361
0.451917
0.483666
0.503337
0.511804
0.51307
0.512584
-0.689102
-0.677028
-0.632172
-0.562892
-0.481584
-0.392306
-0.295541
-0.191621
-0.0807212
0.0373783
0.157753
0.262916
0.344418
0.407903
0.457232
0.493913
0.516801
0.524585
0.522657
0.52048
-0.707549