/*--------------------------------*- C++ -*----------------------------------*\
| =========                 |                                                 |
| \\      /  F ield         | OpenFOAM: The Open Source CFD Toolbox           |
|  \\    /   O peration     | Version:  2112                                  |
|   \\  /    A nd           | Website:  www.openfoam.com                      |
|    \\/     M anipulation  |                                                 |
\*---------------------------------------------------------------------------*/
FoamFile
{
    version     2.0;
    format      ascii;
    arch        "LSB;label=32;scalar=64";
    class       surfaceScalarField;
    location    "19.5";
    object      phi;
}
// * * * * * * * * * * * * * * * * * * * * * * * * * * * * * * * * * * * * * //

dimensions      [0 3 -1 0 0 0 0];

oriented        oriented;

internalField   nonuniform List<scalar> 
17370
(
-0.0916058
0.0960123
0.284604
-0.0775991
0.0594252
0.364949
-0.0430442
0.0316179
0.427594
-0.0223041
0.0162405
0.505315
-0.0116337
0.00874889
0.602287
-0.00653322
0.00505295
0.720538
-0.00382862
0.00296519
0.86377
-0.00221423
0.00165519
1.03601
-0.00114209
0.000733611
1.24291
-0.000329492
-5.69755e-05
1.49158
0.000438529
-0.000847647
1.4916
0.00125307
-0.00176101
1.2432
0.00231416
-0.00305754
1.03638
0.00391359
-0.0051294
0.864122
0.0066027
-0.00881121
0.721266
0.0116876
-0.0162825
0.603809
0.022334
-0.0316346
0.50874
0.0430478
-0.0594209
0.432541
0.0775964
-0.0960095
0.365189
0.0916146
0.197396
-0.127099
0.0880367
0.0390619
-0.364363
0.354039
-0.0714605
0.081785
-0.446648
0.454259
-0.0791612
0.0715501
-0.521013
0.529111
-0.0636925
0.0555941
-0.613001
0.620753
-0.0482202
0.0404672
-0.72717
0.733693
-0.0338665
0.0273437
-0.867564
0.872425
-0.0221274
0.017267
-1.03854
1.04186
-0.0135707
0.0102465
-1.24469
1.24707
-0.00771409
0.00533693
-1.49282
1.49477
-0.00341216
0.00145846
-1.49268
1.49443
0.000295628
-0.00205339
-1.24409
1.24599
0.00398484
-0.00588542
-1.03759
1.04009
0.00823088
-0.0107337
-0.866176
0.86984
0.0140248
-0.0176887
-0.724609
0.729788
0.0225119
-0.0276912
-0.609091
0.61566
0.0341741
-0.040743
-0.515141
0.522484
0.0484639
-0.0558068
-0.439878
0.44769
0.0638594
-0.0716707
-0.374732
0.377367
0.0792147
-0.0818497
-0.256937
0.224507
0.0715108
-0.0390803
-0.0688331
0.059239
0.00959405
-0.0520073
0.0588054
-0.374848
0.36805
-0.0579313
0.0540642
-0.45394
0.457807
-0.0485485
0.0439633
-0.527596
0.532182
-0.0393923
0.0354842
-0.620775
0.624684
-0.0312838
0.0273281
-0.734648
0.738604
-0.0230344
0.019214
-0.873939
0.877759
-0.0152537
0.0118792
-1.04331
1.04668
-0.00845667
0.00550292
-1.24856
1.25151
-0.00236892
-0.000559742
-1.49682
1.49975
0.00347284
-0.00657337
-1.49731
1.50041
0.00947927
-0.0128426
-1.25003
1.25339
0.0161564
-0.020045
-1.04567
1.04956
0.023798
-0.0280177
-0.877195
0.881414
0.0319097
-0.0360479
-0.739028
0.743166
0.0399024
-0.0444197
-0.626012
0.630529
0.0489611
-0.0544351
-0.535054
0.540528
0.0582562
-0.0590782
-0.458141
0.458963
0.0522064
-0.0319285
-0.336883
0.316605
0.00962917
-0.0687438
0.0591147
-0.0534696
0.0493843
0.00408531
-0.0330716
0.0434417
-0.35864
0.34827
-0.0470968
0.0465141
-0.45962
0.460202
-0.0436002
0.0403961
-0.536161
0.539365
-0.0367167
0.0333565
-0.628368
0.631728
-0.0297196
0.0264901
-0.741948
0.745178
-0.0230561
0.0199059
-0.881193
0.884343
-0.0164001
0.0131407
-1.05005
1.05331
-0.00955817
0.00627587
-1.25471
1.25799
-0.00263537
-0.000829214
-1.50302
1.50648
0.00427717
-0.00786537
-1.50385
1.50743
0.0110775
-0.0145669
-1.2569
1.26039
0.0177345
-0.0211369
-1.05321
1.05661
0.024194
-0.0275293
-0.884996
0.888331
0.0306737
-0.0342213
-0.746869
0.750416
0.0375038
-0.0411019
-0.634706
0.638304
0.0442366
-0.047074
-0.544737
0.547575
0.0475801
-0.0438236
-0.457152
0.453396
0.0333335
-0.0161986
-0.297418
0.280283
0.0041249
-0.053309
0.0491841
-0.0462481
0.0437379
0.00251021
-0.022706
0.032905
-0.33777
0.327572
-0.0385313
0.0394408
-0.459934
0.459024
-0.0381889
0.0359035
-0.541936
0.544221
-0.0333142
0.0308139
-0.63465
0.63715
-0.0278834
0.0250887
-0.748255
0.75105
-0.0219283
0.0190099
-0.88739
0.890308
-0.0157809
0.0127881
-1.05643
1.05942
-0.00941151
0.00619683
-1.26126
1.26448
-0.00248822
-0.00113792
-1.51006
1.51369
0.00473853
-0.00837556
-1.51108
1.51472
0.0114985
-0.0147506
-1.26378
1.26703
0.017617
-0.0207015
-1.05984
1.06292
0.0234909
-0.0265176
-0.891577
0.894604
0.0291918
-0.0319939
-0.75365
0.756452
0.0343839
-0.0368653
-0.641243
0.643724
0.0390657
-0.0402096
-0.549412
0.550556
0.0391901
-0.0334062
-0.448401
0.442617
0.0230366
-0.0100964
-0.265335
0.252395
0.00255844
-0.0460049
0.0434465
-0.0416758
0.0399487
0.00172702
-0.0163649
0.0253729
-0.317906
0.308898
-0.0317501
0.0337507
-0.457552
0.455551
-0.0332383
0.0314842
-0.546268
0.548022
-0.029227
0.0271174
-0.639386
0.641496
-0.0247821
0.0225714
-0.753509
0.75572
-0.0200014
0.0175013
-0.893032
0.895532
-0.0145901
0.0117995
-1.06231
1.0651
-0.00859342
0.00552006
-1.26762
1.27069
-0.00195863
-0.00151416
-1.51727
1.52074
0.00495677
-0.00842291
-1.51828
1.52175
0.0113706
-0.0144148
-1.27017
1.27322
0.017044
-0.0197688
-1.06584
1.06857
0.0220978
-0.0244804
-0.897299
0.899681
0.0265281
-0.0287075
-0.758852
0.761031
0.0306763
-0.0327915
-0.646005
0.64812
0.0344141
-0.0347706
-0.551277
0.551634
0.0325989
-0.0259954
-0.436324
0.42972
0.0167661
-0.00705869
-0.241202
0.231494
0.00178504
-0.0413311
0.0395461
-0.0384819
0.0372327
0.00124921
-0.0120297
0.0195543
-0.300612
0.293088
-0.025955
0.0287402
-0.4531
0.450314
-0.0289819
0.0279621
-0.549413
0.550433
-0.026139
0.0243546
-0.643464
0.645249
-0.0222864
0.0202751
-0.757817
0.759828
-0.0179371
0.0156658
-0.897881
0.900152
-0.0130202
0.0104485
-1.06779
1.07037
-0.00746708
0.00459622
-1.27368
1.27655
-0.00128297
-0.00192738
-1.52408
1.52729
0.00509881
-0.00829375
-1.52509
1.52828
0.011005
-0.0137734
-1.27614
1.27891
0.0161305
-0.0185383
-1.07112
1.07353
0.020591
-0.0226956
-0.90189
0.903995
0.0245025
-0.0263597
-0.763066
0.764923
0.0279704
-0.0296234
-0.650012
0.651665
0.0304659
-0.0300229
-0.551581
0.551138
0.0270085
-0.0203121
-0.422986
0.41629
0.0125135
-0.00518303
-0.223056
0.215725
0.00131964
-0.0380152
0.0366956
-0.0361811
0.0353016
0.000879503
-0.00866882
0.0146244
-0.286353
0.280398
-0.0204256
0.0234611
-0.44734
0.444305
-0.0241844
0.0236184
-0.551168
0.551734
-0.0221182
0.0205976
-0.64687
0.648391
-0.0188159
0.0170809
-0.761711
0.763446
-0.0150665
0.0131238
-0.902289
0.904231
-0.0108738
0.00867908
-1.07276
1.07496
-0.00609466
0.0035428
-1.27928
1.28183
-0.000512328
-0.00248543
-1.53041
1.53341
0.00542757
-0.0082979
-1.53133
1.53421
0.0106433
-0.0129574
-1.28147
1.28378
0.0148878
-0.016834
-1.07573
1.07767
0.0184995
-0.0202188
-0.905929
0.907648
0.0216887
-0.0231834
-0.76659
0.768085
0.0244705
-0.0257334
-0.653106
0.654368
0.0260674
-0.0250582
-0.550376
0.549367
0.0217137
-0.0155378
-0.409792
0.403616
0.00925062
-0.00378372
-0.209385
0.203918
0.000965255
-0.035566
0.0346007
-0.0345645
0.033954
0.000610415
-0.00603561
0.0105532
-0.275178
0.270661
-0.0154867
0.0184469
-0.441289
0.438328
-0.0194725
0.0190931
-0.552209
0.552589
-0.0178478
0.0165058
-0.649849
0.651191
-0.0150239
0.0136532
-0.765014
0.766385
-0.0120587
0.0104734
-0.905984
0.907569
-0.00855245
0.00663907
-1.07698
1.0789
-0.00436156
0.00211812
-1.2842
1.28644
0.000533369
-0.00312633
-1.53621
1.5388
0.00565257
-0.00810581
-1.53685
1.53931
0.0100909
-0.012027
-1.28588
1.28782
0.0135899
-0.015105
-1.07939
1.0809
0.0163114
-0.0174973
-0.909121
0.910307
0.0185385
-0.019703
-0.769433
0.770597
0.020767
-0.0217034
-0.655478
0.656414
0.0217859
-0.0203941
-0.548154
0.546762
0.0170441
-0.0116511
-0.397821
0.392428
0.00673696
-0.00274134
-0.199216
0.195221
0.000716465
-0.0337686
0.0330522
-0.0334737
0.0331345
0.000339163
-0.0035272
0.00661663
-0.26685
0.26376
-0.0105465
0.0133545
-0.435435
0.432627
-0.0147795
0.0148675
-0.552784
0.552696
-0.0142072
0.0133045
-0.652334
0.653237
-0.0121934
0.0110819
-0.767596
0.768708
-0.00975033
0.0083851
-0.909017
0.910382
-0.00671794
0.00501051
-1.0807
1.08241
-0.00292802
0.000849845
-1.28861
1.29069
0.00158434
-0.0039281
-1.54125
1.5436
0.00619156
-0.00838513
-1.54163
1.54382
0.0101269
-0.0117578
-1.28962
1.29125
0.0130291
-0.0142138
-1.08223
1.08342
0.0151507
-0.0160434
-0.911295
0.912188
0.0167393
-0.0173955
-0.771505
0.772161
0.0179084
-0.0181527
-0.657065
0.65731
0.0176575
-0.0157312
-0.545137
0.543211
0.0124213
-0.00793467
-0.387461
0.382975
0.00437563
-0.00175002
-0.191919
0.189294
0.000469931
-0.0324555
0.0319855
-0.0329321
0.0328479
8.41806e-05
-0.00145618
0.00322438
-0.26137
0.259602
-0.00594925
0.00833536
-0.429969
0.427583
-0.0100274
0.0106256
-0.552305
0.551707
-0.0105615
0.0100442
-0.653922
0.65444
-0.00923967
0.00834284
-0.76975
0.770647
-0.00717098
0.00593681
-0.911698
0.912933
-0.00441597
0.00287492
-1.08402
1.08556
-0.0010337
-0.000788022
-1.29263
1.29445
0.00292307
-0.00497543
-1.5458
1.54785
0.00691907
-0.00872477
-1.54584
1.54764
0.0101078
-0.0113917
-1.29272
1.294
0.0123697
-0.0132423
-1.08448
1.08535
0.0138658
-0.0143878
-0.912943
0.913465
0.0147483
-0.0150029
-0.7726
0.772854
0.0150488
-0.014576
-0.657129
0.656656
0.0134844
-0.011201
-0.541026
0.538743
0.00823046
-0.0048503
-0.379031
0.375651
0.00251213
-0.000955396
-0.187272
0.185715
0.000246775
-0.0316405
0.0313937
-0.0328443
0.0328967
-5.23803e-05
-0.000382765
0.00130652
-0.258323
0.2574
-0.00295147
0.00456225
-0.425571
0.423961
-0.00583979
0.00635501
-0.551094
0.550578
-0.00637848
0.00604427
-0.654847
0.655181
-0.00545457
0.00476801
-0.771434
0.772121
-0.00387676
0.00290261
-0.914043
0.915017
-0.00165537
0.00038644
-1.08697
1.08824
0.00115679
-0.00268691
-1.29611
1.29764
0.00449728
-0.00624303
-1.54974
1.55149
0.00784692
-0.00924355
-1.54924
1.55064
0.0102238
-0.0110396
-1.29505
1.29587
0.0115724
-0.011949
-1.08596
1.08633
0.0121618
-0.0122678
-0.913752
0.913858
0.0122809
-0.0122384
-0.772948
0.772905
0.0120441
-0.011376
-0.656049
0.655381
0.0102361
-0.00820507
-0.536542
0.534511
0.00585226
-0.00337285
-0.372782
0.370303
0.00172198
-0.000636214
-0.184469
0.183383
0.00015216
-0.0312152
0.031063
-0.0329789
0.0330751
-9.62089e-05
-2.10836e-05
0.000608438
-0.256687
0.256099
-0.00172434
0.00281665
-0.422665
0.421573
-0.00362671
0.00386844
-0.550238
0.549996
-0.0036875
0.00323297
-0.655555
0.65601
-0.00253363
0.00187188
-0.772836
0.773498
-0.00106627
0.000205332
-0.915919
0.91678
0.000873456
-0.00198695
-1.08936
1.09048
0.00334781
-0.00470597
-1.29901
1.30037
0.00629348
-0.00778125
-1.55306
1.55454
0.00909747
-0.0101693
-1.55186
1.55293
0.0108602
-0.0114076
-1.29651
1.29706
0.0117559
-0.0119663
-1.08664
1.08685
0.0120206
-0.0119503
-0.913845
0.913775
0.0117583
-0.0114051
-0.77265
0.772296
0.0109721
-0.0102561
-0.65467
0.653954
0.00919388
-0.00740282
-0.532655
0.530864
0.0053568
-0.00318232
-0.368059
0.365885
0.00168405
-0.000648638
-0.182364
0.181328
0.000161003
-0.0309229
0.0307619
-0.0331735
0.0332829
-0.000109401
0.000201246
0.000255819
-0.255583
0.255126
-0.0012902
0.00240266
-0.420541
0.419428
-0.00329348
0.00353609
-0.549842
0.549599
-0.00330024
0.0027547
-0.656569
0.657115
-0.00209183
0.00138916
-0.774238
0.774941
-0.000488683
-0.000494674
-0.917661
0.918644
0.00177395
-0.00311308
-1.09158
1.09292
0.00475561
-0.00636593
-1.30174
1.30336
0.00817744
-0.0098027
-1.55602
1.55764
0.011226
-0.0123909
-1.55403
1.55519
0.0131224
-0.0136068
-1.29751
1.29799
0.0137463
-0.0136378
-1.08691
1.08681
0.0134079
-0.0131672
-0.913615
0.913374
0.0129483
-0.0126389
-0.771875
0.771565
0.0122774
-0.01147
-0.653233
0.652426
0.0101848
-0.0080685
-0.529041
0.526924
0.00577787
-0.00344785
-0.363682
0.361352
0.00187087
-0.000762261
-0.180274
0.179166
0.00020682
-0.0305943
0.0303875
-0.0334072
0.0335511
-0.000143938
0.000529385
-0.000300086
-0.254754
0.254525
-0.000604445
0.00190439
-0.418243
0.416943
-0.00336432
0.00422547
-0.549133
0.548271
-0.00442952
0.0042641
-0.657472
0.657637
-0.00365058
0.0028385
-0.775865
0.776677
-0.00165862
0.00026574
-0.919788
0.921181
0.00154076
-0.00340297
-1.0944
1.09626
0.00563574
-0.00779666
-1.30514
1.30731
0.0102253
-0.0124156
-1.55949
1.56168
0.0143296
-0.0159355
-1.5566
1.5582
0.0169914
-0.0178185
-1.29865
1.29948
0.0182946
-0.0185427
-1.08681
1.08706
0.0185609
-0.0182737
-0.912977
0.91269
0.0177376
-0.0170182
-0.771024
0.770305
0.0160072
-0.0142431
-0.651306
0.649541
0.0119615
-0.00891089
-0.524449
0.521399
0.00613325
-0.00362022
-0.358951
0.356438
0.00200762
-0.00086277
-0.178062
0.176917
0.000252723
-0.0301799
0.0299272
-0.0337267
0.0339281
-0.000201403
0.00111255
-0.00127334
-0.254509
0.25467
0.000781087
0.000379256
-0.415731
0.414571
-0.00215157
0.00362866
-0.54709
0.545613
-0.0045461
0.00459691
-0.657593
0.657542
-0.00421793
0.00352333
-0.777637
0.778332
-0.0021592
0.000407718
-0.922702
0.924454
0.00195467
-0.00437389
-1.09829
1.10071
0.00722668
-0.00994317
-1.30968
1.31239
0.0129756
-0.0157086
-1.56412
1.56686
0.0181125
-0.0201349
-1.56009
1.56211
0.0215033
-0.0225621
-1.30051
1.30157
0.0232196
-0.0235917
-1.08735
1.08772
0.0235354
-0.0230748
-0.912156
0.911696
0.0223621
-0.0209699
-0.769249
0.767857
0.0189023
-0.0159369
-0.647206
0.64424
0.0126677
-0.00897631
-0.51806
0.514369
0.00605554
-0.00362407
-0.354022
0.35159
0.00208105
-0.000935202
-0.175821
0.174675
0.000285918
-0.029687
0.0294011
-0.0341857
0.0344738
-0.000288092
0.00176124
-0.00242757
-0.255046
0.255712
0.00265134
-0.00212613
-0.413779
0.413254
0.000755199
0.00072299
-0.54409
0.542612
-0.00202405
0.00258378
-0.657151
0.656591
-0.00233473
0.00148603
-0.779282
0.780131
0.000170542
-0.00222694
-0.926274
0.92833
0.00487943
-0.00754979
-1.10313
1.10581
0.0106653
-0.0136051
-1.31517
1.31811
0.0168557
-0.0197283
-1.56967
1.57254
0.022176
-0.0241563
-1.56419
1.56617
0.0253929
-0.0262614
-1.30267
1.30354
0.0266413
-0.0266298
-1.08784
1.08783
0.0262709
-0.0255283
-0.910948
0.910205
0.0242208
-0.0219896
-0.765952
0.763721
0.0192225
-0.0156434
-0.64094
0.637361
0.0121461
-0.00856349
-0.510805
0.507223
0.00590473
-0.00370317
-0.349397
0.347196
0.00222196
-0.00103162
-0.17358
0.17239
0.000320745
-0.029131
0.0288102
-0.0348374
0.0352396
-0.000402216
0.00251917
-0.00368685
-0.256654
0.257822
0.00465823
-0.00501986
-0.413295
0.413657
0.00466473
-0.00394097
-0.541645
0.540921
0.0031819
-0.00287683
-0.65608
0.655775
0.00325775
-0.00430256
-0.781081
0.782126
0.00604967
-0.00807223
-0.930181
0.932204
0.0106555
-0.0132559
-1.1083
1.1109
0.0162792
-0.0190951
-1.32091
1.32372
0.0221193
-0.0246708
-1.57522
1.57778
0.026685
-0.0281117
-1.56791
1.56933
0.0287929
-0.0289867
-1.30419
1.30438
0.0287441
-0.0281373
-1.08744
1.08683
0.0272479
-0.0257076
-0.908939
0.907399
0.0237723
-0.0211171
-0.761107
0.758451
0.0182469
-0.0147993
-0.633858
0.630411
0.0116529
-0.00853366
-0.504049
0.50093
0.00618247
-0.00409536
-0.34522
0.343133
0.0025479
-0.00120718
-0.171216
0.169875
0.000377867
-0.028502
0.0281241
-0.0357217
0.0362597
-0.000538002
0.00337829
-0.00506092
-0.259312
0.260994
0.0067604
-0.00792637
-0.414454
0.41562
0.00859373
-0.00886335
-0.540975
0.541245
0.00910029
-0.00957256
-0.655957
0.65643
0.0105612
-0.0119138
-0.78312
0.784473
0.0138274
-0.015885
-0.933993
0.936051
0.0184172
-0.0209038
-1.11327
1.11576
0.0237243
-0.0262591
-1.32628
1.32882
0.0288241
-0.0307904
-1.57997
1.58194
0.032105
-0.032722
-1.57035
1.57097
0.0326278
-0.0319277
-1.3042
1.3035
0.0309373
-0.029486
-1.08567
1.08422
0.0277931
-0.025608
-0.905318
0.903133
0.023362
-0.0206343
-0.755615
0.752888
0.0179268
-0.0148467
-0.627228
0.624148
0.0120947
-0.00930234
-0.498246
0.495454
0.00704169
-0.00482508
-0.341199
0.338982
0.0030564
-0.00145855
-0.168517
0.166919
0.000455949
-0.0277596
0.0273036
-0.0368756
0.037579
-0.000703332
0.00441471
-0.00667078
-0.262986
0.265242
0.00908735
-0.0110095
-0.417254
0.419176
0.0125977
-0.0137407
-0.542304
0.543447
0.0149243
-0.0162252
-0.657441
0.658742
0.0180034
-0.0199252
-0.785883
0.787805
0.0223054
-0.0246642
-0.937994
0.940353
0.0273955
-0.0299379
-1.11806
1.12061
0.0326634
-0.0349525
-1.33108
1.33337
0.0370455
-0.0383696
-1.58349
1.58482
0.038884
-0.0385464
-1.57108
1.57075
0.037595
-0.0360495
-1.30238
1.30084
0.0342967
-0.0320501
-1.08222
1.07997
0.0297668
-0.0271285
-0.900542
0.897904
0.0246287
-0.0218224
-0.749951
0.747145
0.0192038
-0.0163131
-0.621261
0.61837
0.0137011
-0.0109062
-0.493005
0.49021
0.00845268
-0.00589551
-0.336859
0.334302
0.00376838
-0.00180231
-0.165272
0.163306
0.000563168
-0.0268605
0.0262973
-0.0383758
0.0393178
-0.000941981
0.00583031
-0.008803
-0.26783
0.270803
0.0120288
-0.0146852
-0.421585
0.424242
0.0170838
-0.0190102
-0.545441
0.547367
0.0210971
-0.0232536
-0.660624
0.66278
0.0259184
-0.0285717
-0.78982
0.792473
0.0316442
-0.0345161
-0.942654
0.945526
0.0376569
-0.0404168
-1.12301
1.12577
0.0431952
-0.0453471
-1.33543
1.33758
0.0470617
-0.0478036
-1.58574
1.58649
0.047564
-0.046334
-1.56991
1.56868
0.0445635
-0.042131
-1.29881
1.29638
0.0395907
-0.0365968
-1.07726
1.07426
0.033772
-0.0306607
-0.894837
0.891726
0.0278477
-0.0248243
-0.744014
0.74099
0.022093
-0.0191058
-0.615503
0.612516
0.0163403
-0.0132362
-0.487673
0.484569
0.0103839
-0.00728981
-0.331803
0.328709
0.00466572
-0.00222821
-0.161285
0.158847
0.000694473
-0.025757
0.0250625
-0.0403456
0.0416323
-0.00128669
0.00782616
-0.0117622
-0.274118
0.278054
0.0160016
-0.0194784
-0.427494
0.430971
0.0226963
-0.0253871
-0.550309
0.553
0.0283905
-0.0314357
-0.665542
0.668587
0.0350888
-0.0386008
-0.795223
0.798735
0.0425213
-0.0460516
-0.94838
0.95191
0.0497617
-0.0528789
-1.12846
1.13158
0.0558394
-0.0579406
-1.33952
1.34163
0.0593341
-0.0595193
-1.58683
1.58702
0.0585318
-0.0564083
-1.56694
1.56482
0.0538001
-0.0504574
-1.29346
1.29011
0.0471349
-0.0433631
-1.07079
1.06702
0.0399115
-0.0362097
-0.888097
0.884395
0.0329461
-0.0295161
-0.737477
0.734047
0.0264631
-0.0231277
-0.609368
0.606033
0.0199794
-0.0163354
-0.481659
0.478015
0.0128664
-0.00905075
-0.325669
0.321853
0.00579085
-0.00275998
-0.156361
0.15333
0.000856899
-0.0244078
0.0235509
-0.0429893
0.0447811
-0.00179179
0.0107032
-0.0159461
-0.282316
0.287559
0.0214599
-0.0258977
-0.435298
0.439736
0.0300398
-0.0335939
-0.557025
0.560579
0.037659
-0.0417501
-0.672304
0.676395
0.0465576
-0.0510625
-0.802333
0.806838
0.0559648
-0.0602688
-0.955438
0.959742
0.0646555
-0.0681957
-1.13462
1.13816
0.071366
-0.0734014
-1.3435
1.34554
0.0744208
-0.0739768
-1.58676
1.58632
0.0721588
-0.0690481
-1.56214
1.55903
0.065524
-0.0611951
-1.28624
1.28191
0.0570165
-0.0523637
-1.06271
1.05806
0.0481678
-0.0437246
-0.880065
0.875621
0.039854
-0.0358291
-0.729941
0.725916
0.0322701
-0.0283771
-0.602335
0.598442
0.024653
-0.0202703
-0.474473
0.470091
0.0159933
-0.0112092
-0.318133
0.313349
0.00712854
-0.00336022
-0.150293
0.146524
0.00102944
-0.0227594
0.02173
-0.0466292
0.0492385
-0.00260936
0.0151183
-0.0221752
-0.293146
0.300203
0.0293391
-0.0349725
-0.445531
0.451164
0.0402519
-0.0448929
-0.565898
0.570539
0.0503215
-0.0556991
-0.681195
0.686572
0.0618601
-0.0674749
-0.811402
0.817017
0.0734239
-0.0785002
-0.964007
0.969083
0.0835051
-0.0873724
-1.14155
1.14542
0.0906133
-0.0924343
-1.34725
1.34907
0.0928955
-0.0916413
-1.58534
1.58408
0.0888196
-0.0845554
-1.55528
1.55101
0.0799826
-0.0745368
-1.27699
1.27154
0.0693845
-0.0637172
-1.0528
1.04714
0.0586472
-0.053308
-0.870436
0.865097
0.0486793
-0.0438867
-0.721024
0.716232
0.0396594
-0.0350219
-0.593971
0.589334
0.0305302
-0.0251695
-0.465696
0.460335
0.0198667
-0.0138801
-0.308745
0.302758
0.0087604
-0.00409002
-0.142815
0.138144
0.00123781
-0.0207749
0.0195371
-0.0518413
0.0559029
-0.00406153
0.0223885
-0.0320792
-0.307756
0.317447
0.0415055
-0.0487481
-0.459065
0.466308
0.0554843
-0.0615424
-0.577526
0.583584
0.06871
-0.0755814
-0.692639
0.699511
0.0831584
-0.089829
-0.822623
0.829294
0.0966729
-0.102313
-0.974016
0.979656
0.107641
-0.111529
-1.14896
1.15285
0.114484
-0.11576
-1.35038
1.35165
0.115305
-0.112929
-1.58211
1.57973
0.108834
-0.103187
-1.54597
1.54032
0.0973966
-0.0906785
-1.26541
1.25869
0.0844257
-0.077615
-1.04078
1.03397
0.0715574
-0.0651937
-0.85891
0.852546
0.0596825
-0.0539773
-0.710383
0.704677
0.0489451
-0.0433989
-0.58386
0.578314
0.0379652
-0.0313705
-0.454821
0.448226
0.0247653
-0.0172632
-0.297015
0.289513
0.0108278
-0.00499313
-0.133623
0.127789
0.0014838
-0.0184021
0.0169183
-0.0597456
0.0669428
-0.00719726
0.0358595
-0.0497538
-0.328344
0.342238
0.0623658
-0.0715025
-0.477115
0.486252
0.0798692
-0.0875661
-0.592661
0.600358
0.0965583
-0.104768
-0.706842
0.715052
0.113399
-0.120683
-0.835764
0.843048
0.127852
-0.133484
-0.984895
0.990527
0.138492
-0.141796
-1.15611
1.15942
0.14383
-0.143991
-1.3521
1.35226
0.14208
-0.138135
-1.57637
1.57242
0.132419
-0.125127
-1.53372
1.52643
0.117935
-0.109803
-1.25118
1.24305
0.102343
-0.0942991
-1.02641
1.01836
0.0871858
-0.0797426
-0.845253
0.837809
0.0733038
-0.066632
-0.697736
0.691064
0.0607297
-0.0541563
-0.571627
0.565054
0.0475189
-0.0393308
-0.441232
0.433044
0.031055
-0.0216375
-0.282226
0.272809
0.0135102
-0.00615528
-0.122332
0.114978
0.0017583
-0.0155982
0.0138399
-0.0738419
0.0774473
-0.00360538
0.0258061
-0.037855
-0.359096
0.371145
0.0487713
-0.0573079
-0.500451
0.508987
0.0662282
-0.0757492
-0.611128
0.620649
0.0863729
-0.0959011
-0.722925
0.732453
0.106513
-0.115887
-0.849561
0.858935
0.125609
-0.133934
-0.995229
1.00355
0.142193
-0.148792
-1.16162
1.16822
0.154636
-0.158417
-1.3512
1.35498
0.160359
-0.159604
-1.56719
1.56644
0.156021
-0.15002
-1.51799
1.51199
0.14301
-0.134156
-1.23403
1.22517
0.125548
-0.115278
-1.00952
0.999253
0.105948
-0.0958065
-0.829386
0.819244
0.0868458
-0.0773963
-0.683001
0.673551
0.0686934
-0.0592896
-0.556903
0.547499
0.0501205
-0.0385966
-0.424169
0.412645
0.0279673
-0.017273
-0.26334
0.252646
0.00934131
-0.00350071
-0.108282
0.102441
0.000731014
-0.0124053
0.0116743
-0.0845496
0.0819187
0.00263087
0.00350981
-0.0107036
-0.386112
0.393306
0.0189412
-0.0256648
-0.522307
0.52903
0.0341006
-0.0424767
-0.63107
0.639446
0.0521202
-0.0609142
-0.741874
0.750668
0.0702659
-0.0787422
-0.867816
0.876293
0.087551
-0.0948169
-1.01159
1.01886
0.102235
-0.107827
-1.17466
1.18026
0.112721
-0.115581
-1.35848
1.36134
0.116351
-0.114698
-1.56482
1.56317
0.110345
-0.103708
-1.50512
1.49848
0.0960699
-0.0867191
-1.21575
1.2064
0.0777649
-0.0675736
-0.988567
0.978376
0.0580911
-0.0476571
-0.807941
0.797507
0.0384506
-0.0291646
-0.6615
0.652214
0.0213305
-0.0133507
-0.534966
0.526986
0.0064365
-0.000183536
-0.400441
0.394188
-0.00326363
0.0048313
-0.241036
0.239468
-0.00457597
0.00293088
-0.0957662
0.0974113
-0.001216
-0.0103007
0.0115167
-0.0846207
0.0814234
0.00319736
-0.00483185
0.00137942
-0.403623
0.407075
0.00385914
-0.00917768
-0.539781
0.5451
0.016224
-0.0234727
-0.648374
0.655622
0.031734
-0.0392983
-0.758949
0.766513
0.047566
-0.0549085
-0.884129
0.891472
0.0623239
-0.0688159
-1.02597
1.03246
0.0752843
-0.0802841
-1.18548
1.19048
0.0842692
-0.086395
-1.36365
1.36577
0.0868266
-0.0848482
-1.56096
1.55898
0.0803802
-0.0738862
-1.49137
1.48487
0.0666594
-0.058129
-1.19709
1.18856
0.0496941
-0.040423
-0.968021
0.958749
0.0318517
-0.0224898
-0.787218
0.777856
0.0144372
-0.00623509
-0.641577
0.633375
-0.000452763
0.00695007
-0.516352
0.509855
-0.0116474
0.014731
-0.386096
0.383013
-0.0147803
0.0122974
-0.234439
0.236922
-0.00887426
0.00473136
-0.0973165
0.101459
-0.00164768
-0.0116695
0.0133171
-0.0826614
0.0796057
0.00305574
-0.00768361
0.00642126
-0.414577
0.415839
-0.00322219
-0.000913621
-0.553442
0.557578
0.00706586
-0.0131049
-0.662805
0.668844
0.0201521
-0.0266365
-0.773809
0.780293
0.0336898
-0.039987
-0.898416
0.904713
0.0467455
-0.0523024
-1.0386
1.04415
0.0580524
-0.0621064
-1.19516
1.19921
0.0656742
-0.0675792
-1.36782
1.36973
0.067804
-0.0657009
-1.5568
1.5547
0.0617395
-0.0560254
-1.47815
1.47244
0.0496616
-0.0419002
-1.18016
1.1724
0.0346356
-0.0267527
-0.949575
0.941692
0.0194087
-0.011761
-0.768832
0.761184
0.00487633
0.0018688
-0.624334
0.617588
-0.00726096
0.0119646
-0.501495
0.496791
-0.0149378
0.0165292
-0.376975
0.375384
-0.0155921
0.0120841
-0.234987
0.238495
-0.00848163
0.00434942
-0.102994
0.107126
-0.00145944
-0.0138544
0.0153138
-0.0806612
0.0780953
0.00256598
-0.00811519
0.00816398
-0.421679
0.421631
-0.00570865
0.00243419
-0.564606
0.567881
0.00253255
-0.0078978
-0.675024
0.68039
0.0138203
-0.0195454
-0.786382
0.792108
0.0256766
-0.0311849
-0.9107
0.916208
0.0370539
-0.0420878
-1.04967
1.0547
0.0470703
-0.0509473
-1.20323
1.20711
0.0541818
-0.0559468
-1.37141
1.37318
0.0562388
-0.0544319
-1.55267
1.55086
0.0510117
-0.0459067
-1.4664
1.46129
0.0404279
-0.0339178
-1.16501
1.1585
0.0277715
-0.0210229
-0.933967
0.927219
0.014997
-0.00866524
-0.753655
0.747323
0.00322133
0.00214528
-0.610498
0.605132
-0.00623319
0.00960297
-0.490275
0.486905
-0.0116127
0.0123823
-0.371173
0.370403
-0.0111984
0.00841654
-0.237191
0.239973
-0.00573553
0.00286593
-0.108077
0.110947
-0.000997537
-0.0156293
0.0166268
-0.0790175
0.0768765
0.00214099
-0.00753599
0.00783151
-0.426374
0.426079
-0.00642501
0.00364029
-0.573397
0.576181
0.000988465
-0.00558806
-0.685441
0.690041
0.0107356
-0.0157523
-0.797299
0.802316
0.0212505
-0.0262321
-0.921498
0.92648
0.0316844
-0.0361941
-1.05955
1.06406
0.0408171
-0.0444574
-1.21082
1.21446
0.0474941
-0.0492106
-1.37482
1.37653
0.0496154
-0.0484711
-1.54917
1.54802
0.0455092
-0.0412353
-1.45601
1.45174
0.036482
-0.030853
-1.15214
1.14651
0.025788
-0.0199312
-0.920711
0.914854
0.0148064
-0.00962231
-0.741211
0.736027
0.00513857
-0.000750174
-0.599653
0.595265
-0.0025983
0.00545278
-0.481884
0.479029
-0.00680657
0.00736494
-0.367087
0.366529
-0.0068143
0.00499612
-0.238222
0.24004
-0.00328776
0.00169022
-0.110858
0.112455
-0.000618748
-0.0165429
0.0171617
-0.0778478
0.0761996
0.0016482
-0.00635402
0.00680509
-0.429808
0.429357
-0.00552868
0.00336336
-0.581199
0.583365
0.000804096
-0.00497808
-0.694556
0.69873
0.00990714
-0.0142877
-0.807148
0.811529
0.0191857
-0.0236742
-0.931539
0.936027
0.0289268
-0.0331199
-1.06869
1.07288
0.0373559
-0.0409426
-1.21802
1.22161
0.044307
-0.0460742
-1.37839
1.38016
0.0467978
-0.0459135
-1.54664
1.54576
0.0436989
-0.0397613
-1.44742
1.44348
0.0357433
-0.0309529
-1.14091
1.13612
0.0264243
-0.0214795
-0.909248
0.904303
0.0169577
-0.0122497
-0.730761
0.726053
0.00854414
-0.00461073
-0.590588
0.586654
0.0015183
0.000958696
-0.47486
0.472383
-0.00242283
0.00332262
-0.363532
0.362632
-0.00326822
0.00246884
-0.237909
0.238709
-0.00166446
0.00091929
-0.111516
0.112261
-0.000397441
-0.0167913
0.0171887
-0.0772396
0.0759467
0.00129289
-0.0051148
0.00560002
-0.432541
0.432056
-0.0043355
0.00222002
-0.588033
0.590149
0.00161747
-0.00537311
-0.702811
0.706567
0.00965285
-0.0139113
-0.816012
0.82027
0.0184907
-0.0231532
-0.940424
0.945086
0.0277639
-0.0318468
-1.07724
1.08132
0.0362972
-0.03975
-1.22516
1.22862
0.0427912
-0.0451119
-1.38194
1.38426
0.0462004
-0.0457884
-1.54503
1.54462
0.0439352
-0.0407307
-1.43982
1.43662
0.0371421
-0.0327735
-1.13105
1.12668
0.028716
-0.024195
-0.89924
0.894719
0.0200786
-0.0159069
-0.721421
0.717249
0.0122002
-0.00859673
-0.582429
0.578826
0.00576922
-0.0031492
-0.468701
0.466081
0.00142197
-0.000434063
-0.359511
0.358523
-0.000142506
0.000376126
-0.236151
0.235917
-0.000435391
0.000367649
-0.110639
0.110707
-0.00024633
-0.0166276
0.0168739
-0.0771739
0.0760881
0.00108582
-0.00376672
0.00403777
-0.435088
0.434817
-0.0029651
0.000788677
-0.594296
0.596473
0.00276492
-0.00640718
-0.710526
0.714169
0.0105364
-0.0144357
-0.824458
0.828357
0.0191619
-0.0231036
-0.949275
0.953216
0.0277289
-0.0316883
-1.08562
1.08958
0.0360975
-0.0398156
-1.23213
1.23585
0.0432302
-0.0454455
-1.38643
1.38865
0.046997
-0.0470923
-1.54422
1.54431
0.0459381
-0.0430768
-1.43334
1.43047
0.0398979
-0.0358459
-1.12238
1.11833
0.0320596
-0.0277184
-0.889885
0.885543
0.0238957
-0.0197781
-0.712804
0.708686
0.016192
-0.012579
-0.574871
0.571258
0.00960584
-0.00705644
-0.462475
0.459925
0.00501962
-0.0035792
-0.355
0.353559
0.00239667
-0.00138511
-0.233066
0.232055
0.000624435
-1.39184e-05
-0.108553
0.107942
-0.000145777
-0.0161006
0.0162464
-0.0773715
0.0766062
0.000765355
-0.00259162
0.00245728
-0.437836
0.43797
-0.00153744
-0.000762965
-0.599793
0.602094
0.00399137
-0.00750807
-0.717758
0.721274
0.0114775
-0.0155151
-0.832231
0.836269
0.0196774
-0.023797
-0.957422
0.961542
0.0284171
-0.0322123
-1.09401
1.0978
0.036758
-0.0404862
-1.23943
1.24316
0.0440282
-0.046827
-1.39132
1.39412
0.0489336
-0.0493778
-1.54449
1.54494
0.0485137
-0.0463444
-1.42777
1.4256
0.0436456
-0.0398428
-1.11413
1.11032
0.0361376
-0.0320849
-0.881004
0.876951
0.0279862
-0.0240373
-0.704219
0.70027
0.0204451
-0.0166939
-0.567482
0.563731
0.0137261
-0.010798
-0.456107
0.453179
0.00849394
-0.00637143
-0.349972
0.34785
0.00475553
-0.00305217
-0.228812
0.227108
0.00156922
-0.000417371
-0.105512
0.10436
-3.13432e-05
-0.0153175
0.0153489
-0.0779635
0.0773418
0.000621688
-0.00164283
0.00156787
-0.440804
0.440879
-0.000176309
-0.00207884
-0.605305
0.60756
0.00541194
-0.0087863
-0.724511
0.727885
0.0126065
-0.0162711
-0.840073
0.843737
0.0205689
-0.0244024
-0.965721
0.969555
0.0289948
-0.0332339
-1.10209
1.10632
0.0374629
-0.0415471
-1.24698
1.25107
0.0455504
-0.0485029
-1.39689
1.39984
0.0510495
-0.0523117
-1.54565
1.54691
0.0519061
-0.0503183
-1.42328
1.42169
0.0477545
-0.0442716
-1.10646
1.10297
0.0407967
-0.0366687
-0.872393
0.868265
0.0326834
-0.0285816
-0.695703
0.691601
0.0248881
-0.020917
-0.559649
0.555678
0.0176453
-0.0144916
-0.449369
0.446215
0.0116613
-0.00903406
-0.343956
0.341329
0.00684213
-0.00453195
-0.223372
0.221061
0.00257095
-0.000918003
-0.101664
0.100011
0.000136408
-0.014369
0.0142325
-0.078793
0.0783295
0.000463572
-0.000642943
0.000400992
-0.443925
0.444167
0.00100117
-0.00343689
-0.610538
0.612973
0.00663997
-0.00984684
-0.731013
0.73422
0.0137448
-0.0172697
-0.847447
0.850972
0.0214276
-0.0253872
-0.973895
0.977855
0.0298968
-0.034115
-1.11046
1.11468
0.0385794
-0.0427169
-1.25512
1.25926
0.0469421
-0.0506672
-1.40313
1.40685
0.0537029
-0.055307
-1.54816
1.54977
0.0556186
-0.0543569
-1.42001
1.41874
0.0522881
-0.0492106
-1.09934