/*--------------------------------*- C++ -*----------------------------------*\
| =========                 |                                                 |
| \\      /  F ield         | OpenFOAM: The Open Source CFD Toolbox           |
|  \\    /   O peration     | Version:  2112                                  |
|   \\  /    A nd           | Website:  www.openfoam.com                      |
|    \\/     M anipulation  |                                                 |
\*---------------------------------------------------------------------------*/
FoamFile
{
    version     2.0;
    format      ascii;
    arch        "LSB;label=32;scalar=64";
    class       volVectorField;
    location    "19.5";
    object      U;
}
// * * * * * * * * * * * * * * * * * * * * * * * * * * * * * * * * * * * * * //

dimensions      [0 1 -1 0 0 0 0];

internalField   nonuniform List<vector> 
8800
(
(0.980122 -0.0915193 0)
(1.00234 -0.058737 0)
(0.999616 -0.0321279 0)
(0.999997 -0.0165047 0)
(1.00003 -0.00880095 0)
(1.00002 -0.00504833 0)
(1.00002 -0.00296563 0)
(1 -0.0016914 0)
(0.999998 -0.000820035 0)
(1.00005 -0.000132396 0)
(0.999997 0.000560608 0)
(1 0.00131776 0)
(1.00001 0.00234715 0)
(1.00002 0.00394596 0)
(1.00002 0.00668813 0)
(1.00004 0.0120123 0)
(0.999883 0.0230848 0)
(0.999094 0.0431633 0)
(1.00719 0.0790376 0)
(0.775016 0.0478402 0)
(0.359033 -0.0147458 0)
(1.04653 -0.0724538 0)
(1.0885 -0.0659932 0)
(1.04949 -0.0508896 0)
(1.02557 -0.037692 0)
(1.01272 -0.0259048 0)
(1.0065 -0.0166877 0)
(1.00357 -0.0102035 0)
(1.00217 -0.00560591 0)
(1.00153 -0.00208474 0)
(1.00142 0.00100952 0)
(1.00176 0.00424852 0)
(1.00271 0.00815136 0)
(1.00473 0.0135203 0)
(1.00901 0.0212572 0)
(1.01804 0.0317639 0)
(1.03594 0.0445373 0)
(1.06753 0.0579946 0)
(1.0948 0.0699975 0)
(0.845818 0.0554833 0)
(0.217908 -0.00137321 0)
(1.07577 -0.0505342 0)
(1.09945 -0.0487866 0)
(1.06437 -0.0398168 0)
(1.03981 -0.0323139 0)
(1.02369 -0.0251278 0)
(1.01396 -0.0180092 0)
(1.00846 -0.0115268 0)
(1.00561 -0.00592586 0)
(1.00445 -0.000752624 0)
(1.00478 0.0042754 0)
(1.00665 0.00948842 0)
(1.01061 0.0154085 0)
(1.01794 0.0221347 0)
(1.03055 0.0292199 0)
(1.0506 0.0363617 0)
(1.08024 0.044231 0)
(1.10595 0.0516505 0)
(0.943765 0.0408742 0)
(0.217541 0.00138755 0)
(0.176909 -0.000621827 0)
(1.01973 -0.0352797 0)
(1.10588 -0.0411912 0)
(1.07809 -0.0361944 0)
(1.05235 -0.030142 0)
(1.03497 -0.0242489 0)
(1.02312 -0.0185008 0)
(1.01535 -0.0126414 0)
(1.01079 -0.00673417 0)
(1.00881 -0.000746253 0)
(1.00937 0.00516936 0)
(1.01245 0.0109551 0)
(1.01841 0.0166895 0)
(1.02804 0.0223004 0)
(1.04235 0.0279339 0)
(1.0634 0.0337925 0)
(1.09435 0.0397211 0)
(1.09508 0.0413265 0)
(0.831466 0.022557 0)
(0.176288 0.000633818 0)
(0.155243 -0.000453269 0)
(0.959074 -0.0253227 0)
(1.10452 -0.0345616 0)
(1.08791 -0.032112 0)
(1.06108 -0.0276963 0)
(1.043 -0.0228104 0)
(1.03058 -0.0176289 0)
(1.02198 -0.0122947 0)
(1.01641 -0.00668993 0)
(1.01378 -0.000567337 0)
(1.0145 0.00562497 0)
(1.0184 0.0112853 0)
(1.02528 0.0165033 0)
(1.03554 0.0215186 0)
(1.05039 0.0263718 0)
(1.07233 0.0308055 0)
(1.10153 0.0347196 0)
(1.07098 0.0331438 0)
(0.745179 0.0140905 0)
(0.154321 0.000466661 0)
(0.14096 -0.000321292 0)
(0.903264 -0.0186936 0)
(1.09737 -0.0292283 0)
(1.09612 -0.0282019 0)
(1.0685 -0.0243681 0)
(1.04943 -0.0204638 0)
(1.03641 -0.0161634 0)
(1.02742 -0.0113595 0)
(1.02153 -0.00606889 0)
(1.01867 -0.000175963 0)
(1.01937 0.00575924 0)
(1.02346 0.0111057 0)
(1.03059 0.0158565 0)
(1.04123 0.0200952 0)
(1.05684 0.0238749 0)
(1.08 0.0274496 0)
(1.1044 0.0303898 0)
(1.04065 0.0268136 0)
(0.680572 0.00974786 0)
(0.139671 0.000337074 0)
(0.130808 -0.000238559 0)
(0.855465 -0.0139089 0)
(1.08557 -0.0245195 0)
(1.1017 -0.0248864 0)
(1.07516 -0.0218278 0)
(1.05539 -0.0184192 0)
(1.04182 -0.0145305 0)
(1.03244 -0.0101076 0)
(1.02625 -0.00517237 0)
(1.02315 0.000298314 0)
(1.02382 0.0057586 0)
(1.02802 0.0106686 0)
(1.03539 0.0149647 0)
(1.04643 0.0187227 0)
(1.06262 0.0219932 0)
(1.08633 0.0249145 0)
(1.10417 0.0267219 0)
(1.00827 0.0215753 0)
(0.631899 0.00709301 0)
(0.129076 0.000258038 0)
(0.12353 -0.000168522 0)
(0.81661 -0.0101036 0)
(1.07124 -0.0197484 0)
(1.10455 -0.020929 0)
(1.08047 -0.0184721 0)
(1.06058 -0.0155115 0)
(1.04679 -0.0121824 0)
(1.037 -0.00845305 0)
(1.03045 -0.00415768 0)
(1.02713 0.000860289 0)
(1.02771 0.00593472 0)
(1.03201 0.0101988 0)
(1.03963 0.0137179 0)
(1.05093 0.0167248 0)
(1.06719 0.019397 0)
(1.09102 0.0217802 0)
(1.10106 0.0227235 0)
(0.977016 0.0168759 0)
(0.59532 0.0051521 0)
(0.121259 0.000192638 0)
(0.118414 -0.000125313 0)
(0.786506 -0.00708763 0)
(1.05677 -0.0153204 0)
(1.10656 -0.0169316 0)
(1.08545 -0.0148388 0)
(1.06508 -0.0124098 0)
(1.05112 -0.00975202 0)
(1.0414 -0.00656733 0)
(1.03483 -0.00279966 0)
(1.0314 0.00159438 0)
(1.0318 0.00595752 0)
(1.03593 0.00956864 0)
(1.04333 0.0124135 0)
(1.05452 0.0146383 0)
(1.07107 0.0165179 0)
(1.09485 0.0184736 0)
(1.09627 0.0188598 0)
(0.949179 0.0129048 0)
(0.568197 0.00369571 0)
(0.115482 0.000156054 0)
(0.11513 -7.22558e-05 0)
(0.764599 -0.00421374 0)
(1.04291 -0.0108043 0)
(1.1073 -0.0130752 0)
(1.08912 -0.0119084 0)
(1.06817 -0.0100693 0)
(1.05395 -0.00786579 0)
(1.04416 -0.00509704 0)
(1.03756 -0.00163347 0)
(1.03401 0.002403 0)
(1.03421 0.00630756 0)
(1.0381 0.00948932 0)
(1.04529 0.011808 0)
(1.05646 0.0135083 0)
(1.07342 0.0147751 0)
(1.09694 0.0157249 0)
(1.08976 0.0149951 0)
(0.925362 0.00902827 0)
(0.549218 0.00233374 0)
(0.111388 0.000110987 0)
(0.113749 -4.90444e-06 0)
(0.750834 -0.0018402 0)
(1.03015 -0.00642288 0)
(1.10575 -0.00917019 0)
(1.09149 -0.00897173 0)
(1.07127 -0.00762599 0)
(1.05742 -0.0057065 0)
(1.04784 -0.00316521 0)
(1.04127 -0.000106888 0)
(1.0375 0.00342625 0)
(1.03748 0.00679156 0)
(1.04106 0.00931129 0)
(1.04787 0.011118 0)
(1.05848 0.0122442 0)
(1.07474 0.0129293 0)
(1.09637 0.0129548 0)
(1.081 0.0110905 0)
(0.906394 0.00566494 0)
(0.53755 0.00128922 0)
(0.109007 5.4082e-05 0)
(0.113712 3.07595e-05 0)
(0.743435 -0.000599319 0)
(1.02045 -0.00335998 0)
(1.10324 -0.00544703 0)
(1.09278 -0.00544727 0)
(1.07328 -0.004432 0)
(1.05966 -0.00296792 0)
(1.05016 -0.000900593 0)
(1.04357 0.00166233 0)
(1.03968 0.00465516 0)
(1.03925 0.00742769 0)
(1.04239 0.00923163 0)
(1.04874 0.0102212 0)
(1.05903 0.0106104 0)
(1.07497 0.0106372 0)
(1.09429 0.0102599 0)
(1.07211 0.00824517 0)
(0.892522 0.00394493 0)
(0.530292 0.000882978 0)
(0.107734 2.65703e-05 0)
(0.114269 4.43431e-05 0)
(0.739302 -0.000178419 0)
(1.01418 -0.00204335 0)
(1.10181 -0.00334497 0)
(1.09396 -0.0030438 0)
(1.07526 -0.00192335 0)
(1.06183 -0.000565692 0)
(1.05247 0.00122662 0)
(1.04585 0.0034778 0)
(1.0418 0.00609934 0)
(1.0409 0.00838117 0)
(1.0435 0.00965738 0)
(1.04934 0.0102829 0)
(1.05899 0.0104336 0)
(1.07429 0.0100594 0)
(1.09188 0.00927981 0)
(1.06456 0.00737801 0)
(0.881621 0.00366835 0)
(0.524323 0.00089736 0)
(0.106713 3.04654e-05 0)
(0.114955 4.25061e-05 0)
(0.736322 7.84509e-05 0)
(1.00919 -0.00165737 0)
(1.10118 -0.00308887 0)
(1.09586 -0.00262581 0)
(1.07728 -0.00151406 0)
(1.06391 -2.07148e-05 0)
(1.05472 0.00210172 0)
(1.04818 0.00481527 0)
(1.04385 0.00779453 0)
(1.04238 0.0102645 0)
(1.04425 0.0116021 0)
(1.04948 0.0119308 0)
(1.05862 0.011486 0)
(1.07322 0.0111317 0)
(1.08947 0.010401 0)
(1.05709 0.00810132 0)
(0.87087 0.00394536 0)
(0.518122 0.00102861 0)
(0.105484 4.82645e-05 0)
(0.115804 4.72036e-05 0)
(0.734139 0.000473583 0)
(1.0034 -0.00107418 0)
(1.09929 -0.00350002 0)
(1.09709 -0.00384454 0)
(1.07971 -0.0028826 0)
(1.06662 -0.000869676 0)
(1.05762 0.00213473 0)
(1.05102 0.00581615 0)
(1.04627 0.00982114 0)
(1.04415 0.0131445 0)
(1.04523 0.015103 0)
(1.04943 0.0159995 0)
(1.05778 0.0160286 0)
(1.07175 0.0151055 0)
(1.0856 0.0133257 0)
(1.04692 0.00918751 0)
(0.859079 0.0041077 0)
(0.511576 0.00113856 0)
(0.103952 6.74087e-05 0)
(0.116984 5.59822e-05 0)
(0.734009 0.00116227 0)
(0.997397 0.000301961 0)
(1.09456 -0.00264761 0)
(1.09713 -0.00402588 0)
(1.0822 -0.00348 0)
(1.07034 -0.00119847 0)
(1.06179 0.00272958 0)
(1.05505 0.0074361 0)
(1.04968 0.0124487 0)
(1.04673 0.016602 0)
(1.04688 0.0191262 0)
(1.05014 0.0203462 0)
(1.05675 0.0202515 0)
(1.06888 0.0189736 0)
(1.07765 0.0154168 0)
(1.03323 0.00941698 0)
(0.847139 0.00404202 0)
(0.505017 0.00122048 0)
(0.102171 8.02663e-05 0)
(0.118704 7.90141e-05 0)
(0.736093 0.00186219 0)
(0.993319 0.00220739 0)
(1.08837 -4.87665e-05 0)
(1.09618 -0.00220845 0)
(1.08459 -0.00177394 0)
(1.07473 0.000990036 0)
(1.06668 0.00536089 0)
(1.05961 0.0105113 0)
(1.05348 0.0158737 0)
(1.04949 0.0201061 0)
(1.04856 0.0224344 0)
(1.05044 0.0231592 0)
(1.0552 0.0225438 0)
(1.06364 0.0202313 0)
(1.06649 0.0153024 0)
(1.01861 0.00893209 0)
(0.836233 0.00403809 0)
(0.498437 0.00134336 0)
(0.100173 9.05943e-05 0)
(0.121161 0.000113986 0)
(0.74141 0.00275654 0)
(0.993236 0.00436809 0)
(1.08413 0.00371026 0)
(1.09454 0.0025333 0)
(1.08725 0.00317187 0)
(1.07931 0.00605557 0)
(1.07167 0.0103228 0)
(1.06419 0.0153154 0)
(1.05712 0.0202981 0)
(1.05182 0.0237961 0)
(1.04953 0.0250864 0)
(1.04978 0.0246837 0)
(1.05247 0.0230902 0)
(1.05651 0.0196061 0)
(1.05468 0.0144271 0)
(1.00549 0.00868308 0)
(0.826312 0.00437904 0)
(0.491346 0.00157388 0)
(0.0978808 0.00010639 0)
(0.124485 0.000155202 0)
(0.749959 0.00370098 0)
(0.996774 0.00645481 0)
(1.08378 0.00756199 0)
(1.09502 0.00799678 0)
(1.09031 0.00966343 0)
(1.08374 0.0128135 0)
(1.07638 0.0169934 0)
(1.06837 0.0216454 0)
(1.06006 0.0258603 0)
(1.05314 0.0281461 0)
(1.04912 0.0280421 0)
(1.04758 0.026254 0)
(1.04776 0.0232239 0)
(1.04878 0.0191594 0)
(1.04394 0.0142579 0)
(0.994228 0.00923149 0)
(0.816485 0.00511131 0)
(0.483114 0.00190418 0)
(0.0951569 0.000127203 0)
(0.12881 0.000204272 0)
(0.761528 0.00483808 0)
(1.0043 0.00879694 0)
(1.08737 0.0114294 0)
(1.09827 0.0134046 0)
(1.09459 0.016383 0)
(1.08858 0.0203041 0)
(1.08106 0.0248064 0)
(1.07213 0.0292913 0)
(1.06217 0.0327168 0)
(1.05328 0.0336232 0)
(1.04726 0.0319571 0)
(1.04375 0.0288238 0)
(1.04192 0.0247032 0)
(1.04084 0.0201761 0)
(1.03423 0.0154228 0)
(0.983801 0.0106593 0)
(0.805606 0.0062139 0)
(0.473113 0.00235639 0)
(0.0918314 0.000156541 0)
(0.134485 0.000278003 0)
(0.776659 0.0063843 0)
(1.01537 0.0116651 0)
(1.09442 0.0156554 0)
(1.10436 0.0191522 0)
(1.10063 0.0235719 0)
(1.09435 0.028633 0)
(1.08601 0.0338023 0)
(1.07559 0.0383658 0)
(1.06348 0.0411585 0)
(1.05217 0.0407627 0)
(1.04399 0.0376091 0)
(1.03856 0.0330504 0)
(1.03501 0.027944 0)
(1.03243 0.0228446 0)
(1.02465 0.0178782 0)
(0.972906 0.0128441 0)
(0.792706 0.00767072 0)
(0.460785 0.00291735 0)
(0.0877481 0.00019201 0)
(0.141997 0.000386822 0)
(0.796268 0.00855645 0)
(1.03026 0.0154797 0)
(1.10491 0.0208466 0)
(1.11335 0.0258782 0)
(1.10875 0.0319009 0)
(1.10136 0.0383516 0)
(1.09142 0.0444535 0)
(1.07884 0.0493157 0)
(1.06399 0.051572 0)
(1.04986 0.0498875 0)
(1.0393 0.0452221 0)
(1.03193 0.0392357 0)
(1.02686 0.0329915 0)
(1.02308 0.0270714 0)
(1.01426 0.0215142 0)
(0.960487 0.0157873 0)
(0.776931 0.00953493 0)
(0.445546 0.00361328 0)
(0.0827605 0.000235761 0)
(0.15211 0.000547387 0)
(0.821594 0.011676 0)
(1.04972 0.0206423 0)
(1.11919 0.0275566 0)
(1.12554 0.0343735 0)
(1.11929 0.0422687 0)
(1.1099 0.0503357 0)
(1.0975 0.0575552 0)
(1.08196 0.0627642 0)
(1.06368 0.064402 0)
(1.04627 0.0612874 0)
(1.03307 0.0549617 0)
(1.0237 0.0474143 0)
(1.01712 0.0398149 0)
(1.01223 0.0327896 0)
(1.00227 0.0263077 0)
(0.945672 0.0195386 0)
(0.757758 0.0118535 0)
(0.426977 0.00442325 0)
(0.0767559 0.000276936 0)
(0.166105 0.00081365 0)
(0.854647 0.016401 0)
(1.07504 0.0279978 0)
(1.13791 0.0367587 0)
(1.14147 0.0459138 0)
(1.13265 0.0560027 0)
(1.12023 0.0658013 0)
(1.10429 0.0740515 0)
(1.08485 0.079387 0)
(1.06243 0.0801074 0)
(1.04126 0.0752603 0)
(1.02517 0.0670242 0)
(1.01365 0.0576971 0)
(1.00546 0.0485033 0)
(0.999346 0.0400951 0)
(0.987981 0.0323872 0)
(0.927643 0.0242348 0)
(0.734408 0.0147151 0)
(0.404511 0.00540999 0)
(0.0695923 0.000325779 0)
(0.186215 0.00129109 0)
(0.898823 0.0240031 0)
(1.10849 0.0392276 0)
(1.16235 0.0502994 0)
(1.16169 0.0624916 0)
(1.14886 0.0749193 0)
(1.13204 0.0862157 0)
(1.11138 0.0950233 0)
(1.08713 0.0999041 0)
(1.05992 0.0991187 0)
(1.0346 0.0920661 0)
(1.01539 0.0815976 0)
(1.00154 0.0702523 0)
(0.991565 0.0592492 0)
(0.984003 0.04923 0)
(0.970758 0.0400294 0)
(0.905461 0.0301657 0)
(0.705745 0.0183458 0)
(0.377386 0.00665176 0)
(0.0611565 0.000377226 0)
(0.215874 0.00237184 0)
(0.959846 0.0375404 0)
(1.1522 0.0581171 0)
(1.1938 0.0719965 0)
(1.18613 0.0872525 0)
(1.16731 0.101469 0)
(1.14452 0.11333 0)
(1.118 0.121625 0)
(1.08813 0.124991 0)
(1.05564 0.121791 0)
(1.02593 0.111904 0)
(1.00347 0.0988466 0)
(0.987165 0.0852831 0)
(0.975216 0.0723454 0)
(0.965895 0.0606153 0)
(0.950072 0.049812 0)
(0.878094 0.037766 0)
(0.670638 0.0229964 0)
(0.345583 0.00829032 0)
(0.0517079 0.000411384 0)
(0.256881 0.00899631 -1.43526e-20)
(1.04197 0.065479 -1.12099e-20)
(1.20437 0.090649 3.18543e-21)
(1.22994 0.107566 0)
(1.21243 0.124051 1.21609e-35)
(1.18607 0.138048 -8.38363e-24)
(1.15621 0.148769 -1.00989e-21)
(1.12308 0.15517 0)
(1.08705 0.15599 4.33711e-35)
(1.04877 0.149684 -3.39346e-21)
(1.01418 0.136621 0)
(0.987983 0.120873 -4.96934e-21)
(0.968705 0.105106 -1.52589e-20)
(0.954212 0.0903602 -7.40149e-21)
(0.94241 0.077228 -2.33964e-21)
(0.923116 0.0651421 -1.41868e-21)
(0.842735 0.0508524 0)
(0.62565 0.0316608 1.01804e-21)
(0.308053 0.0128161 1.20663e-21)
(0.0431116 0.00144666 2.13807e-20)
(0.28361 0.02529 -2.53969e-20)
(1.10859 0.110152 5.07055e-22)
(1.24872 0.138682 -1.493e-21)
(1.26232 0.156666 0)
(1.236 0.171447 2.64234e-21)
(1.20229 0.183678 1.70606e-21)
(1.16544 0.19248 -5.39239e-22)
(1.12557 0.196743 -5.3183e-21)
(1.08298 0.195095 0)
(1.03813 0.185938 1.43966e-20)
(0.997472 0.170083 1.61256e-20)
(0.966207 0.152073 5.22991e-21)
(0.942651 0.13452 2.08123e-20)
(0.924381 0.118249 3.07828e-20)
(0.908733 0.103764 0)
(0.883745 0.0904822 4.59385e-20)
(0.797713 0.0739408 6.70986e-20)
(0.579334 0.0495849 7.49006e-20)
(0.279921 0.0232782 -8.66933e-20)
(0.0380669 0.00327237 -1.59485e-21)
(0.28071 0.0410508 0)
(1.1476 0.167782 -7.68916e-21)
(1.281 0.198976 0)
(1.2874 0.215472 1.26716e-20)
(1.25435 0.226786 0)
(1.21434 0.235578 7.09035e-21)
(1.17121 0.241118 2.93016e-22)
(1.12514 0.242224 -7.29529e-21)
(1.07642 0.237424 -1.55608e-21)
(1.0255 0.225082 6.92867e-21)
(0.979306 0.206439 3.78779e-20)
(0.94348 0.186495 -2.924e-22)
(0.916106 0.167751 -1.56958e-20)
(0.894518 0.150823 -3.0638e-20)
(0.875938 0.135926 3.72275e-20)
(0.848898 0.122144 -6.70018e-20)
(0.768307 0.103441 -9.18271e-21)
(0.566241 0.0741088 0)
(0.288685 0.0379814 1.05783e-22)
(0.0436247 0.00617689 0)
(0.271923 0.0547344 -1.89948e-19)
(1.1661 0.228376 7.85619e-20)
(1.30186 0.264589 4.23093e-20)
(1.3039 0.27902 -8.21404e-21)
(1.26612 0.286485 1.25781e-20)
(1.22136 0.291227 -1.67898e-20)
(1.17322 0.292909 -2.79087e-22)
(1.12193 0.290293 0)
(1.06783 0.281917 -2.62684e-20)
(1.01148 0.266114 0)
(0.960497 0.244669 -1.92875e-20)
(0.920882 0.222901 -2.74883e-20)
(0.890494 0.203185 -1.76644e-20)
(0.866475 0.185901 -2.29107e-20)
(0.846048 0.170978 0)
(0.818925 0.157083 0)
(0.7456 0.137753 -6.20549e-20)
(0.565176 0.103517 1.23986e-20)
(0.30281 0.0563248 -7.2174e-21)
(0.0505386 0.00990274 -8.42935e-21)
(0.263079 0.0669651 1.39902e-19)
(1.17185 0.288478 0)
(1.31324 0.331028 -1.18058e-19)
(1.31271 0.343784 -3.06598e-20)
(1.27164 0.347528 -2.37479e-20)
(1.22338 0.348306 0)
(1.17134 0.346093 -3.91258e-21)
(1.11585 0.339634 6.02801e-21)
(1.05732 0.327498 1.11877e-20)
(0.996338 0.308092 3.5447e-20)
(0.941354 0.283726 0)
(0.898757 0.260094 -6.00261e-20)
(0.866211 0.239352 -3.86323e-20)
(0.840628 0.221677 -2.33367e-20)
(0.819215 0.206791 1.53856e-19)
(0.79289 0.193084 1.8933e-20)
(0.726642 0.173303 9.05126e-20)
(0.562873 0.133907 -4.36998e-19)
(0.310746 0.0751308 2.59669e-19)
(0.0549989 0.0136738 -3.13821e-19)
(0.255288 0.0779817 1.47348e-19)
(1.16965 0.346152 -2.74409e-20)
(1.31755 0.396465 2.06902e-20)
(1.31541 0.407915 5.64913e-20)
(1.27201 0.408168 3.50118e-20)
(1.22111 0.40524 1.66669e-21)
(1.16602 0.399303 3.64654e-21)
(1.10712 0.38912 3.76627e-21)
(1.04492 0.37326 -2.47109e-20)
(0.980081 0.350195 0)
(0.921739 0.322738 -2.56448e-20)
(0.876909 0.29704 -1.51539e-21)
(0.842883 0.275045 -4.3358e-20)
(0.816359 0.256708 0)
(0.794598 0.241565 -3.36166e-20)
(0.769495 0.227719 -8.19464e-20)
(0.709173 0.206917 2.26961e-19)
(0.556421 0.162069 -2.25855e-19)
(0.3117 0.091777 3.20643e-19)
(0.0565172 0.0168592 -3.34361e-19)
(0.249003 0.0882042 -4.22644e-22)
(1.16267 0.400848 3.34846e-20)
(1.31661 0.459681 9.86371e-20)
(1.31348 0.470246 -3.44687e-20)
(1.26838 0.467404 1.99428e-20)
(1.21541 0.461097 0)
(1.15788 0.451682 9.85677e-21)
(1.09617 0.437962 -2.17514e-21)
(1.03083 0.418522 -1.09954e-20)
(0.962725 0.391796 0)
(0.901539 0.361102 -2.49316e-20)
(0.854829 0.333038 -3.54492e-20)
(0.819712 0.309464 4.75122e-20)
(0.792728 0.290074 -3.05567e-20)
(0.771073 0.274206 -1.48335e-19)
(0.747249 0.259789 9.14025e-20)
(0.691204 0.237336 2.89121e-20)
(0.545795 0.186798 0)
(0.307461 0.105729 -3.12014e-19)
(0.0560947 0.0193824 -1.14738e-20)
(0.244112 0.0979431 2.40866e-20)
(1.15293 0.452434 -3.84556e-20)
(1.31183 0.520142 -5.39042e-20)
(1.30804 0.530171 -1.06206e-19)
(1.26165 0.524622 9.63353e-20)
(1.20707 0.515282 -5.23363e-20)
(1.14756 0.502681 -2.07861e-20)
(1.08347 0.485677 -2.69354e-21)
(1.01542 0.462833 1.18567e-20)
(0.944337 0.432507 -8.6761e-20)
(0.880643 0.398481 -3.09228e-20)
(0.832405 0.367723 0)
(0.796583 0.342185 5.20313e-20)
(0.769439 0.321384 6.45298e-20)
(0.748059 0.304454 7.96554e-20)
(0.725304 0.288986 -9.97993e-20)
(0.672179 0.264516 -3.00714e-20)
(0.531677 0.208211 3.56169e-20)
(0.299286 0.117025 0)
(0.0544719 0.0212849 -2.50123e-20)
(0.240401 0.10733 -2.79138e-19)
(1.14183 0.501051 1.7591e-19)
(1.30436 0.577605 5.92548e-20)
(1.30003 0.587357 -8.09152e-20)
(1.25263 0.579457 5.74067e-20)
(1.19677 0.567424 -3.89364e-21)
(1.13561 0.551965 2.05626e-20)
(1.06949 0.531958 -1.54071e-21)
(0.999036 0.505924 -1.99678e-20)
(0.925262 0.472159 1.70398e-22)
(0.859284 0.434721 -9.19018e-20)
(0.809624 0.401075 9.08059e-20)
(0.773218 0.373208 -5.84327e-20)
(0.746004 0.350631 7.29124e-20)
(0.724934 0.332279 0)
(0.70302 0.315412 -5.42221e-20)
(0.651823 0.288409 -1.22184e-21)
(0.514793 0.226241 -1.55908e-19)
(0.288138 0.125823 -2.30202e-20)
(0.0518112 0.0225217 0)
(0.237675 0.116471 0)
(1.13014 0.546926 1.9085e-19)
(1.29496 0.632016 1.37912e-19)
(1.29017 0.641671 9.11819e-20)
(1.24193 0.631728 5.54992e-20)
(1.18503 0.61732 0)
(1.12252 0.59931 1.86268e-20)
(1.05466 0.5766 -1.21113e-21)
(0.982045 0.547652 4.23052e-20)
(0.90579 0.510602 -1.0494e-20)
(0.837442 0.469745 -6.74891e-20)
(0.786242 0.433054 4.53352e-20)
(0.749209 0.402594 -1.96111e-21)
(0.721995 0.377888 7.67679e-20)
(0.701244 0.357785 5.03909e-20)
(0.680002 0.339198 -1.18159e-19)
(0.629981 0.309175 1.43079e-19)
(0.495492 0.240988 4.27242e-20)
(0.274635 0.132228 1.76551e-19)
(0.0483843 0.0230702 -4.7278e-19)
(0.235816 0.125485 -7.14637e-20)
(1.11842 0.590239 1.09958e-19)
(1.28428 0.683427 -8.56647e-20)
(1.279 0.693097 -1.05599e-19)
(1.2301 0.681348 0)
(1.17236 0.66485 4.48822e-20)
(1.10869 0.644593 -5.41457e-20)
(1.0393 0.619475 -1.80833e-21)
(0.964703 0.587901 0)
(0.88596 0.547819 -1.64224e-19)
(0.815251 0.503592 1.8422e-19)
(0.762441 0.463678 0)
(0.72453 0.430334 6.92966e-20)
(0.697243 0.40315 -1.97401e-21)
(0.676813 0.380995 -1.59445e-19)
(0.656089 0.360384 6.27274e-20)
(0.60665 0.326941 0)
(0.474123 0.252565 2.31767e-19)
(0.259212 0.136283 0)
(0.0444269 0.0230431 -2.25428e-19)
(0.234623 0.134402 7.96288e-20)
(1.10693 0.631233 1.25508e-19)
(1.27287 0.731837 -8.98208e-20)
(1.26698 0.741664 0)
(1.21752 0.728318 7.58903e-20)
(1.15909 0.709981 0)
(1.09445 0.687743 7.01334e-20)
(1.02368 0.660514 8.32891e-21)
(0.947215 0.62663 3.78759e-21)
(0.866063 0.583792 -8.11217e-20)
(0.792887 0.536388 1.77863e-20)
(0.738295 0.493203 0)
(0.699331 0.45673 -1.47415e-19)
(0.671714 0.426745 2.04467e-21)
(0.651513 0.402225 0)
(0.631101 0.379236 2.43823e-21)
(0.581671 0.341869 2.10932e-19)
(0.450628 0.260906 -2.03002e-19)
(0.241992 0.137954 5.99444e-20)
(0.0399449 0.0223678 0)
(0.233753 0.143095 0)
(1.09582 0.669994 1.40252e-19)
(1.26098 0.77742 1.05133e-19)
(1.25442 0.787438 -2.20504e-21)
(1.20453 0.772666 4.72975e-20)
(1.14553 0.752715 1.0565e-19)
(1.08006 0.728753 -2.27175e-20)
(1.00807 0.699699 3.87086e-21)
(0.929878 0.663822 2.45203e-20)
(0.84633 0.618579 -1.26105e-19)
(0.770472 0.568206 -3.13721e-21)
(0.713764 0.521755 -5.99945e-20)
(0.673546 0.482013 2.41866e-19)
(0.645367 0.449021 -2.44415e-21)
(0.62525 0.421781 -1.25932e-19)
(0.604924 0.396008 -2.30457e-19)
(0.554996 0.354125 0)
(0.425053 0.266166 0)
(0.223059 0.137139 6.58069e-20)
(0.035124 0.0210638 -3.85065e-20)
(0.233445 0.151667 9.88646e-20)
(1.08526 0.706506 -3.06982e-19)
(1.24881 0.820287 -1.12592e-19)
(1.24162 0.830486 0)
(1.19139 0.814453 -1.51525e-21)
(1.13194 0.79309 1.26291e-19)
(1.06576 0.767639 -7.49584e-20)
(0.992701 0.737033 -3.64294e-20)
(0.912893 0.699484 2.3651e-20)
(0.826931 0.652194 -9.64739e-20)
(0.748213 0.599183 -1.55684e-19)
(0.688975 0.549554 1.59945e-19)
(0.647082 0.506345 0)
(0.618137 0.470013 -5.66479e-20)
(0.597941 0.439777 -1.38424e-19)
(0.577449 0.410766 -1.67149e-19)
(0.526522 0.363666 -2.03039e-19)
(0.397285 0.26819 6.07195e-20)
(0.202355 0.133534 -3.56176e-20)
(0.0299109 0.0190898 4.16682e-22)
(0.233181 0.160029 0)
(1.07541 0.740871 0)
(1.23661 0.860551 2.48795e-21)
(1.22877 0.8709 0)
(1.17828 0.85376 -1.77148e-19)
(1.11847 0.83116 -1.11156e-19)
(1.05174 0.804427 0)
(0.977731 0.772525 -8.30756e-21)
(0.896403 0.73361 2.64023e-20)
(0.808061 0.684674 -2.21564e-19)
(0.726288 0.629401 0)
(0.664132 0.576795 -1.02448e-19)
(0.620007 0.53008 -3.00038e-21)
(0.589888 0.490105 -2.478e-21)
(0.569423 0.456425 1.47827e-19)
(0.548574 0.423616 -4.13304e-22)
(0.496127 0.370438 -4.41401e-19)
(0.367095 0.266714 1.32387e-19)
(0.179948 0.127159 3.92894e-20)
(0.0243419 0.0164832 0)
(0.232921 0.168138 -3.63122e-19)
(1.06599 0.773467 -1.88325e-19)
(1.22448 0.898323 -2.81482e-19)
(1.21603 0.908792 3.93235e-19)
(1.16535 0.890657 -3.31582e-19)
(1.10529 0.866986 0)
(1.0381 0.83916 -6.29031e-20)
(0.96328 0.806194 1.57429e-20)
(0.880564 0.76622 3.71334e-21)
(0.7899 0.716048 1.76363e-20)
(0.704887 0.658953 1.946e-19)
(0.639405 0.603694 -3.49711e-20)
(0.592528 0.553507 -1.49371e-19)
(0.560624 0.509602 -6.74136e-20)
(0.539563 0.471923 8.24348e-20)
(0.518102 0.4345 -3.3223e-22)
(0.463713 0.374206 1.21184e-19)
(0.334357 0.261437 -2.87385e-19)
(0.156 0.117907 3.42135e-19)
(0.0187014 0.013416 4.9574e-20)
(0.232549 0.175917 1.33273e-19)
(1.05699 0.804318 -1.03004e-19)
(1.21254 0.933727 5.93812e-21)
(1.20351 0.944287 2.21837e-19)
(1.15271 0.925253 7.73042e-20)
(1.09248 0.900639 2.21405e-19)
(1.02496 0.871888 -2.75658e-20)
(0.949459 0.838067 7.4525e-20)
(0.86549 0.797314 -6.65059e-21)
(0.772578 0.746305 -1.19611e-19)
(0.684218 0.687894 0)
(0.61501 0.630403 -1.57656e-19)
(0.564724 0.576955 2.16998e-19)
(0.530277 0.528884 0)
(0.508087 0.486462 -1.76487e-19)
(0.485744 0.443255 1.09556e-19)
(0.429196 0.374458 -1.31045e-19)
(0.299828 0.252131 -1.57462e-19)
(0.131511 0.10623 -2.78597e-19)
(0.0131871 0.0100169 -2.17367e-19)
(0.232364 0.183452 -1.46447e-19)
(1.04825 0.833427 1.10124e-19)
(1.20087 0.96685 2.62023e-19)
(1.19129 0.977473 3.04743e-19)
(1.14044 0.957639 -1.61849e-19)
(1.08013 0.932206 1.5226e-19)
(1.01239 0.902667 -8.58333e-20)
(0.936335 0.868186 9.09404e-20)
(0.851248 0.82691 2.30248e-21)
(0.756214 0.775449 1.12864e-19)
(0.664466 0.716248 4.12238e-19)
(0.591205 0.657067 0)
(0.536836 0.600722 0)
(0.498823 0.548458 -7.8023e-20)
(0.47455 0.500429 0)
(0.450849 0.449484 2.38731e-19)
(0.392311 0.370057 2.8657e-19)
(0.264315 0.237941 0)
(0.107804 0.0923592 0)
(0.00824408 0.00662978 2.36721e-19)
(0.231896 0.190499 1.61383e-19)
(1.0398 0.860814 1.31604e-19)
(1.18951 0.997821 1.88239e-19)
(1.17943 1.00848 -2.71685e-19)
(1.12861 0.987917 -1.8018e-19)
(1.06829 0.961763 -2.01428e-19)
(1.00043 0.931561 1.2695e-19)
(0.923951 0.896581 3.7708e-22)
(0.837898 0.855012 -4.76532e-21)
(0.740892 0.803457 -5.97774e-21)
(0.645799 0.744008 2.08556e-19)
(0.568244 0.683735 0)
(0.509213 0.625059 2.19141e-19)
(0.466416 0.568917 1.64467e-19)
(0.438417 0.514535 4.21108e-19)
(0.41209 0.452997 1.28879e-19)
(0.352057 0.358925 -1.5827e-19)
(0.229627 0.216483 -9.29236e-20)
(0.0888441 0.0763026 0)
(0.00521776 0.00387536 2.5735e-19)
(0.231632 0.197457 -3.54736e-19)
(1.03163 0.886589 0)
(1.17848 1.02671 2.10056e-19)
(1.16796 1.03739 -2.22385e-19)
(1.11724 1.01618 2.03551e-19)
(1.05698 0.989398 2.93509e-19)
(0.989119 0.958628 -2.92988e-19)
(0.912328 0.923291 3.43386e-21)
(0.825466 0.881629 0)
(0.726673 0.830288 -1.02527e-19)
(0.628365 0.771127 -4.30491e-19)
(0.546388 0.710416 2.13661e-20)
(0.482248 0.650114 2.97689e-19)
(0.433415 0.590928 0)
(0.399218 0.530031 2.84405e-19)
(0.367326 0.454624 0)
(0.304647 0.33856 0)
(0.196005 0.179611 -1.03562e-19)
(0.0886495 0.0479999 0)
(0.0253837 0.0108993 6.95466e-20)
(0.231054 0.203784 -3.87407e-19)
(1.02369 0.911058 0)
(1.16777 1.05373 3.39873e-19)
(1.15686 1.06444 0)
(1.10631 1.04269 -1.10297e-19)
(1.04616 1.01538 0)
(0.97838 0.984173 -2.17594e-20)
(0.901372 0.948647 -1.55609e-20)
(0.813836 0.907113 -1.43325e-21)
(0.713417 0.856319 -9.84723e-20)
(0.612044 0.798009 1.11267e-20)
(0.525549 0.737648 1.76977e-19)
(0.455866 0.676399 2.88118e-19)
(0.399695 0.615465 4.13361e-20)
(0.356024 0.54908 2.2273e-19)
(0.313219 0.4577 0)
(0.2384 0.310729 3.46128e-19)
(0.137486 0.114152 -2.04862e-19)
(0.055232 0.0574046 2.3568e-19)
(-0.0659913 0.397073 -2.75855e-19)
(0.230476 0.209841 3.15669e-19)
(1.01577 0.93412 4.99382e-19)
(1.15729 1.0792 0)
(1.146 1.09004 4.81116e-21)
(1.09565 1.06798 2.99321e-19)
(1.03557 1.04038 -5.6624e-19)
(0.967939 1.00896 -1.28536e-19)
(0.890722 0.973547 0)
(0.802545 0.932511 -3.25901e-20)
(0.700542 0.882809 -2.50192e-21)
(0.596047 0.826095 0)
(0.504753 0.767167 0)
(0.428932 0.705834 2.52352e-19)
(0.364331 0.64448 -1.29246e-19)
(0.307068 0.575709 -2.22084e-19)
(0.245427 0.470406 0)
(0.132904 0.292408 1.7617e-19)
(0.0233149 0.434311 -2.06751e-19)
(0.0453255 1.78061 -1.0694e-19)
(0.0795625 2.75551 -1.39036e-19)
(0.22979 0.215057 -2.30845e-19)
(1.00813 0.955899 -6.29769e-19)
(1.14704 1.1031 1.95697e-19)
(1.13538 1.11403 1.88323e-19)
(1.08531 1.09185 0)
(1.02527 1.06409 -4.04922e-19)
(0.957963 1.03268 -2.14657e-19)
(0.880534 0.997576 1.02049e-20)
(0.791819 0.957314 -4.41724e-21)
(0.688375 0.90913 7.0724e-20)
(0.580914 0.854654 1.88814e-19)
(0.484924 0.798339 1.80445e-19)
(0.402679 0.737934 2.471e-19)
(0.329715 0.676285 -2.94258e-19)
(0.258575 0.611568 -3.28086e-19)
(0.169893 0.502342 0)
(0.0722353 0.803907 0)
(0.13013 2.46998 9.12873e-20)
(0.134463 3.1642 0)
(0.13635 3.37282 2.07935e-19)
(0.231452 0.220077 0)
(1.00128 0.9765 0)
(1.13681 1.12529 0)
(1.12478 1.13622 5.23936e-20)
(1.07497 1.11408 2.66944e-19)
(1.01504 1.08642 -3.08499e-19)
(0.948348 1.05524 -1.53462e-19)
(0.870763 1.02063 1.15328e-20)
(0.781621 0.981391 -7.3568e-20)
(0.676936 0.935135 -1.01955e-20)
(0.566766 0.883532 3.36505e-19)
(0.466365 0.830871 -2.12158e-20)
(0.377681 0.773097 2.76213e-20)
(0.297477 0.708344 4.18734e-20)
(0.215477 0.653938 7.33554e-22)
(0.136198 0.905184 1.70044e-21)
(0.177581 2.60351 -4.54405e-19)
(0.198168 3.26678 -1.7051e-19)
(0.180895 3.4236 7.86966e-20)
(0.162193 3.45034 -8.0327e-20)
(0.149425 0.177601 1.31739e-19)
(0.988079 0.998899 0)
(1.12637 1.14596 -3.8186e-19)
(1.11497 1.15722 -4.85287e-19)
(1.06537 1.13544 5.55444e-19)
(1.00576 1.10796 3.27458e-19)
(0.938998 1.07674 1.79212e-19)
(0.861501 1.04284 -1.96041e-19)
(0.772121 1.00486 7.77222e-20)
(0.666565 0.960834 0)
(0.554137 0.912625 1.41913e-19)
(0.449807 0.864244 -1.33117e-19)
(0.354832 0.812998 0)
(0.268295 0.743944 3.64878e-20)
(0.198174 0.838992 8.77029e-20)
(0.185302 2.26105 -1.09218e-19)
(0.270556 3.30413 1.21504e-19)
(0.246488 3.44429 5.74467e-20)
(0.205899 3.47071 6.49782e-20)
(0.17842 3.48311 7.77261e-20)
(0.272287 0.254927 -2.45177e-19)
(0.970831 1.00537 0)
(1.10694 1.16853 3.91698e-19)
(1.10115 1.18812 5.03728e-19)
(1.04987 1.16656 -5.71002e-19)
(0.990099 1.1396 -3.47497e-19)
(0.922893 1.10976 -2.75224e-19)
(0.84523 1.07702 -1.45363e-20)
(0.755187 1.04121 -1.09744e-19)
(0.647897 1.00117 -9.80804e-21)
(0.531976 0.959699 5.03938e-21)
(0.421658 0.919992 1.0007e-19)
(0.314372 0.882925 2.20999e-20)
(0.245175 0.979137 -3.22616e-20)
(0.274705 2.14619 -7.63624e-20)
(0.349964 3.30259 5.13384e-20)
(0.337501 3.48415 -4.35203e-20)
(0.295238 3.51023 -2.39607e-20)
(0.252283 3.54173 1.20955e-20)
(0.19091 3.53337 2.16023e-22)
(0.258959 0.250719 0)
(0.967033 1.02557 1.03013e-19)
(1.09869 1.19018 -7.76198e-20)
(1.09121 1.20976 -5.61861e-20)
(1.04024 1.18824 -3.75039e-19)
(0.98069 1.16149 3.3927e-19)
(0.913384 1.13177 1.85069e-19)
(0.835936 1.09981 -1.52138e-20)
(0.746011 1.06548 1.35201e-19)
(0.638462 1.02833 -1.41902e-20)
(0.521461 0.991797 -1.66448e-19)
(0.409151 0.958874 1.41626e-20)
(0.303987 0.944362 -1.88362e-20)
(0.290102 1.37673 -2.62305e-20)
(0.387604 2.98246 1.87471e-20)
(0.426703 3.47228 8.71515e-22)
(0.377068 3.55174 -4.65623e-20)
(0.334771 3.57967 -6.02282e-20)
(0.277122 3.60643 8.76183e-20)
(0.206782 3.60062 3.67377e-20)
(0.241848 0.248121 2.52575e-19)
(0.961357 1.04817 6.9357e-19)
(1.08977 1.21361 -2.2169e-19)
(1.08084 1.23277 -2.13356e-19)
(1.03012 1.21108 0)
(0.970856 1.18433 4.96056e-19)
(0.903764 1.15481 2.82049e-19)
(0.826817 1.12356 -1.59707e-20)
(0.737339 1.09075 1.40729e-20)
(0.630036 1.05659 7.78714e-20)
(0.512703 1.02514 -4.2512e-20)
(0.400196 0.999829 -9.24876e-20)
(0.310142 1.04785 -1.20128e-19)
(0.368606 1.96096 1.34106e-19)
(0.487124 3.34284 5.7335e-20)
(0.484135 3.54765 0)
(0.424932 3.6011 0)
(0.384933 3.65321 8.21904e-20)
(0.3073 3.72763 0)
(0.220519 3.69362 1.80394e-19)
(0.230069 0.248533 -3.68658e-19)
(0.953722 1.07159 -5.76972e-19)
(1.07938 1.23801 0)
(1.06923 1.25649 5.51371e-21)
(1.01882 1.23439 -3.64796e-19)
(0.959967 1.20749 7.36648e-19)
(0.893427 1.17816 1.89505e-19)
(0.817202 1.14753 -1.9731e-20)
(0.728441 1.11612 1.49681e-19)
(0.62182 1.08485 -8.03423e-21)
(0.504974 1.05858 0)