-4.995 	348.432 	6.02017e-09 	100000
-4.985 	348.432 	6.02017e-09 	100000
-4.975 	348.432 	6.02017e-09 	100000
-4.965 	348.432 	6.02017e-09 	100000
-4.955 	348.432 	6.02017e-09 	100000
-4.945 	348.432 	7.08185e-09 	100000
-4.935 	348.432 	9.20521e-09 	100000
-4.925 	348.432 	1.13286e-08 	100000
-4.915 	348.432 	1.34519e-08 	100000
-4.905 	348.432 	1.55753e-08 	100000
-4.895 	348.432 	1.76987e-08 	100000
-4.885 	348.432 	1.9822e-08 	100000
-4.875 	348.432 	2.19454e-08 	100000
-4.865 	348.432 	2.40688e-08 	100000
-4.855 	348.432 	2.61921e-08 	100000
-4.845 	348.432 	3.08568e-08 	100000
-4.835 	348.432 	3.80628e-08 	100000
-4.825 	348.432 	4.52687e-08 	100000
-4.815 	348.432 	5.24747e-08 	100000
-4.805 	348.432 	5.96807e-08 	100000
-4.795 	348.432 	6.68866e-08 	100000
-4.785 	348.432 	7.40926e-08 	100000
-4.775 	348.432 	8.12986e-08 	100000
-4.765 	348.432 	8.85045e-08 	100000
-4.755 	348.432 	9.57105e-08 	100000
-4.745 	348.432 	1.12201e-07 	100000
-4.735 	348.432 	1.37976e-07 	100000
-4.725 	348.432 	1.63751e-07 	100000
-4.715 	348.432 	1.89527e-07 	100000
-4.705 	348.432 	2.15302e-07 	100000
-4.695 	348.432 	2.41077e-07 	100000
-4.685 	348.432 	2.66852e-07 	100000
-4.675 	348.432 	2.92627e-07 	100000
-4.665 	348.432 	3.18402e-07 	100000
-4.655 	348.432 	3.44177e-07 	100000
-4.645 	348.432 	4.017e-07 	100000
-4.635 	348.432 	4.90969e-07 	100000
-4.625 	348.432 	5.80239e-07 	100000
-4.615 	348.432 	6.69508e-07 	100000
-4.605 	348.432 	7.58778e-07 	100000
-4.595 	348.432 	8.48047e-07 	100000
-4.585 	348.432 	9.37317e-07 	100000
-4.575 	348.432 	1.02659e-06 	100000
-4.565 	348.432 	1.11586e-06 	100000
-4.555 	348.432 	1.20513e-06 	100000
-4.545 	348.432 	1.4001e-06 	100000
-4.535 	348.432 	1.70079e-06 	100000
-4.525 	348.432 	2.00147e-06 	100000
-4.515 	348.432 	2.30216e-06 	100000
-4.505 	348.432 	2.60284e-06 	100000
-4.495 	348.432 	2.90353e-06 	100000
-4.485 	348.432 	3.20421e-06 	100000
-4.475 	348.432 	3.5049e-06 	100000
-4.465 	348.432 	3.80558e-06 	100000
-4.455 	348.432 	4.10627e-06 	100000
-4.445 	348.432 	4.74845e-06 	100000
-4.435 	348.432 	5.73214e-06 	100000
-4.425 	348.432 	6.71583e-06 	100000
-4.415 	348.432 	7.69952e-06 	100000
-4.405 	348.432 	8.68321e-06 	100000
-4.395 	348.432 	9.6669e-06 	100000
-4.385 	348.432 	1.06506e-05 	100000
-4.375 	348.432 	1.16343e-05 	100000
-4.365 	348.432 	1.2618e-05 	100000
-4.355 	348.432 	1.36017e-05 	100000
-4.345 	348.432 	1.56545e-05 	100000
-4.335 	348.432 	1.87765e-05 	100000
-4.325 	348.432 	2.18986e-05 	100000
-4.315 	348.432 	2.50206e-05 	100000
-4.305 	348.432 	2.81426e-05 	100000
-4.295 	348.432 	3.12647e-05 	100000
-4.285 	348.432 	3.43867e-05 	100000
-4.275 	348.432 	3.75087e-05 	100000
-4.265 	348.432 	4.06308e-05 	100000
-4.255 	348.432 	4.37528e-05 	100000
-4.245 	348.432 	5.0114e-05 	100000
-4.235 	348.432 	5.97144e-05 	100000
-4.225 	348.432 	6.93148e-05 	100000
-4.215 	348.432 	7.89153e-05 	100000
-4.205 	348.432 	8.85157e-05 	100000
-4.195 	348.432 	9.81161e-05 	99999.9
-4.185 	348.432 	0.000107717 	99999.9
-4.175 	348.432 	0.000117317 	99999.9
-4.165 	348.432 	0.000126917 	99999.9
-4.155 	348.432 	0.000136518 	99999.9
-4.145 	348.432 	0.000155599 	99999.9
-4.135 	348.432 	0.000184161 	99999.9
-4.125 	348.432 	0.000212723 	99999.9
-4.115 	348.432 	0.000241285 	99999.9
-4.105 	348.432 	0.000269847 	99999.9
-4.095 	348.432 	0.00029841 	99999.8
-4.085 	348.432 	0.000326972 	99999.8
-4.075 	348.432 	0.000355534 	99999.8
-4.065 	348.432 	0.000384096 	99999.8
-4.055 	348.432 	0.000412658 	99999.8
-4.045 	348.432 	0.00046798 	99999.8
-4.035 	348.432 	0.000550061 	99999.8
-4.025 	348.432 	0.000632142 	99999.8
-4.015 	348.432 	0.000714223 	99999.7
-4.005 	348.432 	0.000796304 	99999.7
-3.995 	348.432 	0.000878385 	99999.7
-3.985 	348.432 	0.000960466 	99999.7
-3.975 	348.432 	0.00104255 	99999.7
-3.965 	348.432 	0.00112463 	99999.6
-3.955 	348.432 	0.00120671 	99999.6
-3.945 	348.432 	0.00136147 	99999.6
-3.935 	348.432 	0.0015889 	99999.5
-3.925 	348.432 	0.00181634 	99999.4
-3.915 	348.432 	0.00204377 	99999.3
-3.905 	348.432 	0.00227121 	99999.2
-3.895 	348.431 	0.00249864 	99999.1
-3.885 	348.431 	0.00272608 	99999
-3.875 	348.431 	0.00295351 	99998.9
-3.865 	348.431 	0.00318095 	99998.8
-3.855 	348.431 	0.00340838 	99998.7
-3.845 	348.431 	0.00382528 	99998.6
-3.835 	348.431 	0.00443164 	99998.4
-3.825 	348.43 	0.005038 	99998.2
-3.815 	348.43 	0.00564437 	99997.9
-3.805 	348.43 	0.00625073 	99997.7
-3.795 	348.43 	0.00685709 	99997.5
-3.785 	348.43 	0.00746345 	99997.3
-3.775 	348.429 	0.00806981 	99997.1
-3.765 	348.429 	0.00867618 	99996.8
-3.755 	348.429 	0.00928254 	99996.6
-3.745 	348.429 	0.0103616 	99996.2
-3.735 	348.428 	0.0119134 	99995.7
-3.725 	348.427 	0.0134651 	99995.1
-3.715 	348.427 	0.0150169 	99994.5
-3.705 	348.426 	0.0165687 	99994
-3.695 	348.426 	0.0181204 	99993.4
-3.685 	348.425 	0.0196722 	99992.9
-3.675 	348.424 	0.021224 	99992.3
-3.665 	348.424 	0.0227757 	99991.7
-3.655 	348.423 	0.0243275 	99991.2
-3.645 	348.422 	0.027004 	99990.2
-3.635 	348.421 	0.0308051 	99988.8
-3.625 	348.419 	0.0346063 	99987.5
-3.615 	348.418 	0.0384074 	99986.1
-3.605 	348.417 	0.0422086 	99984.7
-3.595 	348.415 	0.0460097 	99983.3
-3.585 	348.414 	0.0498109 	99981.9
-3.575 	348.412 	0.053612 	99980.6
-3.565 	348.411 	0.0574132 	99979.2
-3.555 	348.41 	0.0612143 	99977.8
-3.545 	348.407 	0.0675562 	99975.5
-3.535 	348.404 	0.0764387 	99972.3
-3.525 	348.401 	0.0853212 	99969
-3.515 	348.398 	0.0942037 	99965.8
-3.505 	348.395 	0.103086 	99962.6
-3.495 	348.391 	0.111969 	99959.3
-3.485 	348.388 	0.120851 	99956.1
-3.475 	348.385 	0.129734 	99952.9
-3.465 	348.382 	0.138616 	99949.6
-3.455 	348.379 	0.147499 	99946.4
-3.445 	348.373 	0.161801 	99941.2
-3.435 	348.366 	0.181523 	99934
-3.425 	348.359 	0.201245 	99926.8
-3.415 	348.352 	0.220968 	99919.6
-3.405 	348.345 	0.24069 	99912.4
-3.395 	348.337 	0.260412 	99905.1
-3.385 	348.33 	0.280134 	99897.9
-3.375 	348.323 	0.299856 	99890.7
-3.365 	348.316 	0.319579 	99883.5
-3.355 	348.309 	0.339301 	99876.3
-3.345 	348.297 	0.369871 	99865.1
-3.335 	348.282 	0.411288 	99849.9
-3.325 	348.267 	0.452705 	99834.8
-3.315 	348.252 	0.494122 	99819.6
-3.305 	348.237 	0.535539 	99804.4
-3.295 	348.221 	0.576957 	99789.2
-3.285 	348.206 	0.618374 	99774
-3.275 	348.191 	0.659791 	99758.9
-3.265 	348.176 	0.701208 	99743.7
-3.255 	348.161 	0.742625 	99728.5
-3.245 	348.138 	0.80425 	99705.9
-3.235 	348.108 	0.886083 	99675.8
-3.225 	348.078 	0.967915 	99645.7
-3.215 	348.048 	1.04975 	99615.6
-3.205 	348.018 	1.13158 	99585.5
-3.195 	347.988 	1.21341 	99555.4
-3.185 	347.958 	1.29525 	99525.3
-3.175 	347.928 	1.37708 	99495.2
-3.165 	347.898 	1.45891 	99465.1
-3.155 	347.868 	1.54074 	99435
-3.145 	347.825 	1.65706 	99392.2
-3.135 	347.769 	1.80787 	99336.5
-3.125 	347.714 	1.95868 	99280.9
-3.115 	347.658 	2.10948 	99225.2
-3.105 	347.602 	2.26029 	99169.6
-3.095 	347.546 	2.4111 	99113.9
-3.085 	347.49 	2.56191 	99058.3
-3.075 	347.435 	2.71271 	99002.6
-3.065 	347.379 	2.86352 	98947
-3.055 	347.323 	3.01433 	98891.3
-3.045 	347.247 	3.21663 	98816.2
-3.035 	347.152 	3.47042 	98721.5
-3.025 	347.057 	3.72422 	98626.9
-3.015 	346.961 	3.97801 	98532.2
-3.005 	346.866 	4.23181 	98437.5
-2.995 	346.77 	4.4856 	98342.9
-2.985 	346.675 	4.7394 	98248.2
-2.975 	346.58 	4.99319 	98153.6
-2.965 	346.484 	5.24699 	98058.9
-2.955 	346.389 	5.50078 	97964.2
-2.945 	346.269 	5.81665 	97846.2
-2.935 	346.126 	6.19459 	97704.8
-2.925 	345.982 	6.57252 	97563.4
-2.915 	345.838 	6.95046 	97422
-2.905 	345.695 	7.3284 	97280.6
-2.895 	345.551 	7.70634 	97139.2
-2.885 	345.408 	8.08428 	96997.8
-2.875 	345.264 	8.46221 	96856.4
-2.865 	345.12 	8.84015 	96715
-2.855 	344.977 	9.21809 	96573.6
-2.845 	344.81 	9.65881 	96410.8
-2.835 	344.621 	10.1623 	96226.7
-2.825 	344.432 	10.6658 	96042.6
-2.815 	344.243 	11.1693 	95858.5
-2.805 	344.054 	11.6728 	95674.4
-2.795 	343.864 	12.1763 	95490.3
-2.785 	343.675 	12.6798 	95306.2
-2.775 	343.486 	13.1833 	95122.1
-2.765 	343.297 	13.6868 	94938
-2.755 	343.108 	14.1903 	94753.9
-2.745 	342.897 	14.7534 	94550.3
-2.735 	342.664 	15.3761 	94327.4
-2.725 	342.432 	15.9987 	94104.4
-2.715 	342.199 	16.6213 	93881.5
-2.705 	341.967 	17.244 	93658.5
-2.695 	341.734 	17.8666 	93435.6
-2.685 	341.502 	18.4893 	93212.6
-2.675 	341.269 	19.1119 	92989.7
-2.665 	341.037 	19.7345 	92766.7
-2.655 	340.804 	20.3572 	92543.8
-2.645 	340.553 	21.033 	92304.9
-2.635 	340.282 	21.7619 	92050.2
-2.625 	340.012 	22.4909 	91795.5
-2.615 	339.741 	23.2198 	91540.7
-2.605 	339.47 	23.9488 	91286
-2.595 	339.2 	24.6777 	91031.3
-2.585 	338.929 	25.4067 	90776.6
-2.575 	338.659 	26.1356 	90521.8
-2.565 	338.388 	26.8646 	90267.1
-2.555 	338.117 	27.5935 	90012.4
-2.545 	337.832 	28.3658 	89746.4
-2.535 	337.531 	29.1815 	89469.2
-2.525 	337.23 	29.9971 	89192
-2.515 	336.93 	30.8128 	88914.7
-2.505 	336.629 	31.6284 	88637.5
-2.495 	336.328 	32.4441 	88360.3
-2.485 	336.027 	33.2597 	88083.1
-2.475 	335.727 	34.0754 	87805.9
-2.465 	335.426 	34.891 	87528.6
-2.455 	335.125 	35.7067 	87251.4
-2.445 	334.814 	36.5553 	86967.4
-2.435 	334.491 	37.4369 	86676.6
-2.425 	334.168 	38.3185 	86385.9
-2.415 	333.845 	39.2001 	86095.1
-2.405 	333.522 	40.0817 	85804.3
-2.395 	333.199 	40.9634 	85513.5
-2.385 	332.876 	41.845 	85222.7
-2.375 	332.553 	42.7266 	84932
-2.365 	332.23 	43.6082 	84641.2
-2.355 	331.907 	44.4898 	84350.4
-2.345 	331.577 	45.3954 	84056.5
-2.335 	331.239 	46.325 	83759.4
-2.325 	330.901 	47.2545 	83462.4
-2.315 	330.563 	48.1841 	83165.4
-2.305 	330.225 	49.1137 	82868.3
-2.295 	329.887 	50.0433 	82571.3
-2.285 	329.549 	50.9729 	82274.2
-2.275 	329.211 	51.9024 	81977.2
-2.265 	328.873 	52.832 	81680.2
-2.255 	328.535 	53.7616 	81383.1
-2.245 	328.192 	54.7082 	81085.6
-2.235 	327.844 	55.6719 	80787.6
-2.225 	327.496 	56.6355 	80489.6
-2.215 	327.148 	57.5991 	80191.6
-2.205 	326.8 	58.5628 	79893.6
-2.195 	326.451 	59.5264 	79595.6
-2.185 	326.103 	60.4901 	79297.6
-2.175 	325.755 	61.4537 	78999.6
-2.165 	325.407 	62.4173 	78701.6
-2.155 	325.059 	63.381 	78403.6
-2.145 	324.708 	64.3566 	78107
-2.135 	324.354 	65.3441 	77811.7
-2.125 	323.999 	66.3316 	77516.4
-2.115 	323.645 	67.3192 	77221.1
-2.105 	323.291 	68.3067 	76925.8
-2.095 	322.936 	69.2943 	76630.5
-2.085 	322.582 	70.2818 	76335.2
-2.075 	322.228 	71.2693 	76039.9
-2.065 	321.873 	72.2569 	75744.6
-2.055 	321.519 	73.2444 	75449.3
-2.045 	321.163 	74.2403 	75156.5
-2.035 	320.805 	75.2446 	74866.3
-2.025 	320.448 	76.2488 	74576.1
-2.015 	320.09 	77.253 	74285.9
-2.005 	319.732 	78.2573 	73995.7
-1.995 	319.374 	79.2615 	73705.5
-1.985 	319.016 	80.2658 	73415.3
-1.975 	318.659 	81.27 	73125.1
-1.965 	318.301 	82.2742 	72834.9
-1.955 	317.943 	83.2785 	72544.7
-1.945 	317.584 	84.2884 	72257.9
-1.935 	317.225 	85.3041 	71974.4
-1.925 	316.865 	86.3197 	71690.9
-1.915 	316.505 	87.3354 	71407.4
-1.905 	316.146 	88.351 	71123.9
-1.895 	315.786 	89.3667 	70840.4
-1.885 	315.427 	90.3823 	70556.9
-1.875 	315.067 	91.398 	70273.4
-1.865 	314.707 	92.4136 	69989.9
-1.855 	314.348 	93.4293 	69706.4
-1.845 	313.988 	94.4487 	69426.8
-1.835 	313.628 	95.4719 	69151.1
-1.825 	313.269 	96.4951 	68875.3
-1.815 	312.909 	97.5183 	68599.6
-1.805 	312.549 	98.5415 	68323.8
-1.795 	312.19 	99.5646 	68048.1
-1.785 	311.83 	100.588 	67772.3
-1.775 	311.47 	101.611 	67496.6
-1.765 	311.111 	102.634 	67220.8
-1.755 	310.751 	103.657 	66945.1
-1.745 	310.391 	104.683 	66673.5
-1.735 	310.032 	105.71 	66406.2
-1.725 	309.673 	106.737 	66138.9
-1.715 	309.313 	107.765 	65871.5
-1.705 	308.954 	108.792 	65604.2
-1.695 	308.595 	109.82 	65336.8
-1.685 	308.236 	110.847 	65069.5
-1.675 	307.876 	111.874 	64802.2
-1.665 	307.517 	112.902 	64534.8
-1.655 	307.158 	113.929 	64267.5
-1.645 	306.8 	114.958 	64004.6
-1.635 	306.444 	115.988 	63746.3
-1.625 	306.089 	117.017 	63487.9
-1.615 	305.733 	118.047 	63229.6
-1.605 	305.377 	119.077 	62971.2
-1.595 	305.022 	120.107 	62712.9
-1.585 	304.666 	121.137 	62454.5
-1.575 	304.31 	122.166 	62196.2
-1.565 	303.955 	123.196 	61937.8
-1.555 	303.599 	124.226 	61679.5
-1.545 	303.241 	125.255 	61425.6
-1.535 	302.881 	126.283 	61176.1
-1.525 	302.521 	127.31 	60926.7
-1.515 	302.16 	128.338 	60677.3
-1.505 	301.8 	129.366 	60427.8
-1.495 	301.44 	130.394 	60178.4
-1.485 	301.08 	131.422 	59928.9
-1.475 	300.72 	132.449 	59679.5
-1.465 	300.359 	133.477 	59430.1
-1.455 	299.999 	134.505 	59180.6
-1.445 	299.652 	135.533 	58936.2
-1.435 	299.319 	136.561 	58696.9
-1.425 	298.986 	137.59 	58457.5
-1.415 	298.653 	138.618 	58218.1
-1.405 	298.32 	139.646 	57978.8
-1.395 	297.986 	140.675 	57739.4
-1.385 	297.653 	141.703 	57500.1
-1.375 	297.32 	142.731 	57260.7
-1.365 	296.987 	143.76 	57021.3
-1.355 	296.654 	144.788 	56782
-1.345 	296.29 	145.811 	56546.7
-1.335 	295.896 	146.829 	56315.6
-1.325 	295.502 	147.846 	56084.4
-1.315 	295.108 	148.864 	55853.3
-1.305 	294.714 	149.882 	55622.1
-1.295 	294.32 	150.9 	55391
-1.285 	293.926 	151.918 	55159.8
-1.275 	293.532 	152.935 	54928.7
-1.265 	293.138 	153.953 	54697.5
-1.255 	292.744 	154.971 	54466.4
-1.245 	292.422 	155.989 	54241.1
-1.235 	292.172 	157.006 	54021.8
-1.225 	291.922 	158.024 	53802.4
-1.215 	291.672 	159.042 	53583
-1.205 	291.422 	160.059 	53363.7
-1.195 	291.173 	161.077 	53144.3
-1.185 	290.923 	162.094 	52925
-1.175 	290.673 	163.112 	52705.6
-1.165 	290.423 	164.13 	52486.2
-1.155 	290.173 	165.147 	52266.9
-1.145 	289.816 	166.158 	52051.2
-1.135 	289.352 	167.161 	51839.2
-1.125 	288.889 	168.164 	51627.2
-1.115 	288.425 	169.167 	51415.2
-1.105 	287.961 	170.17 	51203.2
-1.095 	287.498 	171.173 	50991.2
-1.085 	287.034 	172.176 	50779.2
-1.075 	286.57 	173.179 	50567.2
-1.065 	286.107 	174.182 	50355.2
-1.055 	285.643 	175.185 	50143.2
-1.045 	285.293 	176.182 	49936.9
-1.035 	285.057 	177.172 	49736.4
-1.025 	284.82 	178.162 	49535.9
-1.015 	284.584 	179.153 	49335.3
-1.005 	284.348 	180.143 	49134.8
-0.995 	284.111 	181.133 	48934.2
-0.985 	283.875 	182.123 	48733.7
-0.975 	283.639 	183.113 	48533.2
-0.965 	283.402 	184.104 	48332.6
-0.955 	283.166 	185.094 	48132.1
-0.945 	282.898 	186.08 	47936.3
-0.935 	282.599 	187.063 	47745.3
-0.925 	282.299 	188.045 	47554.3
-0.915 	281.999 	189.028 	47363.3
-0.905 	281.7 	190.011 	47172.3
-0.895 	281.4 	190.993 	46981.4
-0.885 	281.101 	191.976 	46790.4
-0.875 	280.801 	192.958 	46599.4
-0.865 	280.501 	193.941 	46408.4
-0.855 	280.202 	194.924 	46217.4
-0.845 	279.835 	195.894 	46031
-0.835 	279.401 	196.852 	45849.2
-0.825 	278.968 	197.81 	45667.4
-0.815 	278.534 	198.768 	45485.6
-0.805 	278.1 	199.726 	45303.8
-0.795 	277.666 	200.684 	45121.9
-0.785 	277.232 	201.642 	44940.1
-0.775 	276.799 	202.6 	44758.3
-0.765 	276.365 	203.558 	44576.5
-0.755 	275.931 	204.516 	44394.7
-0.745 	275.586 	205.463 	44218.2
-0.735 	275.33 	206.4 	44046.9
-0.725 	275.074 	207.337 	43875.6
-0.715 	274.817 	208.274 	43704.4
-0.705 	274.561 	209.211 	43533.1
-0.695 	274.305 	210.148 	43361.8
-0.685 	274.049 	211.085 	43190.5
-0.675 	273.793 	212.022 	43019.3
-0.665 	273.536 	212.959 	42848
-0.655 	273.28 	213.896 	42676.7
-0.645 	273.058 	214.822 	42510.7
-0.635 	272.87 	215.739 	42349.8
-0.625 	272.682 	216.655 	42188.9
-0.615 	272.494 	217.572 	42028
-0.605 	272.306 	218.488 	41867.1
-0.595 	272.118 	219.405 	41706.2
-0.585 	271.93 	220.321 	41545.3
-0.575 	271.742 	221.238 	41384.4
-0.565 	271.554 	222.154 	41223.5
-0.555 	271.366 	223.071 	41062.6
-0.545 	271.096 	223.971 	40906.9
-0.535 	270.744 	224.854 	40756.4
-0.525 	270.392 	225.737 	40605.9
-0.515 	270.04 	226.621 	40455.3
-0.505 	269.688 	227.504 	40304.8
-0.495 	269.335 	228.388 	40154.2
-0.485 	268.983 	229.271 	40003.7
-0.475 	268.631 	230.154 	39853.2
-0.465 	268.279 	231.038 	39702.6
-0.455 	267.927 	231.921 	39552.1
-0.445 	267.563 	232.786 	39406.9
-0.435 	267.188 	233.632 	39267
-0.425 	266.812 	234.478 	39127.1
-0.415 	266.436 	235.324 	38987.2
-0.405 	266.061 	236.17 	38847.3
-0.395 	265.685 	237.016 	38707.5
-0.385 	265.31 	237.862 	38567.6
-0.375 	264.934 	238.708 	38427.7
-0.365 	264.558 	239.554 	38287.8
-0.355 	264.183 	240.4 	38147.9
-0.345 	263.895 	241.227 	38013.3
-0.335 	263.696 	242.035 	37884
-0.325 	263.497 	242.844 	37754.6
-0.315 	263.298 	243.652 	37625.3
-0.305 	263.099 	244.46 	37495.9
-0.295 	262.9 	245.269 	37366.6
-0.285 	262.701 	246.077 	37237.2
-0.275 	262.502 	246.885 	37107.9
-0.265 	262.303 	247.694 	36978.5
-0.255 	262.104 	248.502 	36849.2
-0.245 	261.95 	249.286 	36725.3
-0.235 	261.843 	250.046 	36606.9
-0.225 	261.736 	250.807 	36488.6
-0.215 	261.629 	251.567 	36370.2
-0.205 	261.522 	252.327 	36251.8
-0.195 	261.414 	253.088 	36133.4
-0.185 	261.307 	253.848 	36015
-0.175 	261.2 	254.608 	35896.7
-0.165 	261.093 	255.369 	35778.3
-0.155 	260.986 	256.129 	35659.9
-0.145 	260.828 	256.859 	35547.7
-0.135 	260.619 	257.559 	35441.7
-0.125 	260.411 	258.259 	35335.8
-0.115 	260.203 	258.959 	35229.8
-0.105 	259.994 	259.659 	35123.8
-0.095 	259.786 	260.358 	35017.8
-0.085 	259.577 	261.058 	34911.8
-0.075 	259.369 	261.758 	34805.9
-0.065 	259.161 	262.458 	34699.9
-0.055 	258.952 	263.158 	34593.9
-0.045 	258.689 	263.827 	34494.1
-0.035 	258.372 	264.466 	34400.4
-0.025 	258.054 	265.105 	34306.8
-0.015 	257.737 	265.743 	34213.1
-0.005 	257.419 	266.382 	34119.5
0.005 	257.102 	267.021 	34025.8
0.015 	256.784 	267.66 	33932.2
0.025 	256.467 	268.298 	33838.5
0.035 	256.149 	268.937 	33744.9
0.045 	255.832 	269.576 	33651.2
0.055 	255.551 	270.179 	33563.4
0.065 	255.306 	270.748 	33481.3
0.075 	255.062 	271.316 	33399.2
0.085 	254.817 	271.884 	33317.1
0.095 	254.572 	272.453 	33235
0.105 	254.328 	273.021 	33153
0.115 	254.083 	273.59 	33070.9
0.125 	253.839 	274.158 	32988.8
0.135 	253.594 	274.726 	32906.7
0.145 	253.349 	275.295 	32824.6
0.155 	253.188 	275.828 	32749
0.165 	253.111 	276.325 	32679.7
0.175 	253.034 	276.823 	32610.4
0.185 	252.957 	277.321 	32541.1
0.195 	252.88 	277.818 	32471.8
0.205 	252.802 	278.316 	32402.5
0.215 	252.725 	278.813 	32333.2
0.225 	252.648 	279.311 	32263.9
0.235 	252.571 	279.809 	32194.6
0.245 	252.494 	280.306 	32125.3
0.255 	252.456 	280.757 	32062.2
0.265 	252.458 	281.162 	32005.4
0.275 	252.46 	281.567 	31948.7
0.285 	252.462 	281.971 	31891.9
0.295 	252.464 	282.376 	31835.1
0.305 	252.465 	282.781 	31778.3
0.315 	252.467 	283.186 	31721.5
0.325 	252.469 	283.59 	31664.8
0.335 	252.471 	283.995 	31608
0.345 	252.473 	284.4 	31551.2
0.355 	252.461 	284.751 	31499.6
0.365 	252.435 	285.05 	31453.3
0.375 	252.409 	285.348 	31407
0.385 	252.383 	285.647 	31360.7
0.395 	252.357 	285.946 	31314.4
0.405 	252.33 	286.244 	31268
0.415 	252.304 	286.543 	31221.7
0.425 	252.278 	286.841 	31175.4
0.435 	252.252 	287.14 	31129.1
0.445 	252.226 	287.439 	31082.8
0.455 	252.156 	287.706 	31046.3
0.465 	252.041 	287.942 	31019.6
0.475 	251.926 	288.177 	30993
0.485 	251.811 	288.413 	30966.3
0.495 	251.696 	288.649 	30939.6
0.505 	251.581 	288.884 	30913
0.515 	251.466 	289.12 	30886.3
0.525 	251.351 	289.356 	30859.7
0.535 	251.236 	289.591 	30833
0.545 	251.121 	289.827 	30806.3
0.555 	251.002 	290.026 	30780.7
0.565 	250.88 	290.187 	30756
0.575 	250.758 	290.348 	30731.4
0.585 	250.636 	290.509 	30706.8
0.595 	250.514 	290.67 	30682.1
0.605 	250.392 	290.831 	30657.5
0.615 	250.27 	290.992 	30632.8
0.625 	250.148 	291.153 	30608.2
0.635 	250.026 	291.314 	30583.6
0.645 	249.904 	291.475 	30558.9
0.655 	249.831 	291.605 	30541
0.665 	249.807 	291.703 	30529.7
0.675 	249.783 	291.802 	30518.4
0.685 	249.759 	291.9 	30507.1
0.695 	249.735 	291.998 	30495.8
0.705 	249.711 	292.097 	30484.5
0.715 	249.687 	292.195 	30473.2
0.725 	249.663 	292.293 	30461.9
0.735 	249.639 	292.392 	30450.6
0.745 	249.615 	292.49 	30439.3
0.755 	249.615 	292.568 	30430.1
0.765 	249.639 	292.626 	30423.1
0.775 	249.664 	292.684 	30416.2
0.785 	249.688 	292.743 	30409.2
0.795 	249.712 	292.801 	30402.2
0.805 	249.737 	292.859 	30395.3
0.815 	249.761 	292.917 	30388.3
0.825 	249.785 	292.975 	30381.3
0.835 	249.81 	293.034 	30374.4
0.845 	249.834 	293.092 	30367.4
0.855 	249.891 	293.126 	30361.3
0.865 	249.981 	293.137 	30356
0.875 	250.071 	293.147 	30350.8
0.885 	250.161 	293.158 	30345.6
0.895 	250.251 	293.168 	30340.3
0.905 	250.341 	293.179 	30335.1
0.915 	250.431 	293.189 	30329.8
0.925 	250.521 	293.2 	30324.6
0.935 	250.611 	293.21 	30319.4
0.945 	250.701 	293.221 	30314.1
0.955 	250.788 	293.225 	30311.5
0.965 	250.873 	293.222 	30311.5
0.975 	250.958 	293.22 	30311.6
0.985 	251.043 	293.217 	30311.6
0.995 	251.128 	293.215 	30311.6
1.005 	251.213 	293.212 	30311.7
1.015 	251.298 	293.21 	30311.7
1.025 	251.383 	293.207 	30311.7
1.035 	251.468 	293.205 	30311.8
1.045 	251.553 	293.202 	30311.8
1.055 	251.605 	293.201 	30311.8
1.065 	251.623 	293.202 	30311.8
1.075 	251.641 	293.203 	30311.8
1.085 	251.659 	293.203 	30311.8
1.095 	251.677 	293.204 	30311.8
1.105 	251.696 	293.205 	30311.7
1.115 	251.714 	293.206 	30311.7
1.125 	251.732 	293.206 	30311.7
1.135 	251.75 	293.207 	30311.7
1.145 	251.768 	293.208 	30311.7
1.155 	251.763 	293.209 	30311.6
1.165 	251.734 	293.211 	30311.3
1.175 	251.705 	293.213 	30311.1
1.185 	251.677 	293.215 	30310.8
1.195 	251.648 	293.217 	30310.5
1.205 	251.619 	293.219 	30310.3
1.215 	251.59 	293.221 	30310
1.225 	251.562 	293.223 	30309.8
1.235 	251.533 	293.225 	30309.5
1.245 	251.504 	293.227 	30309.2
1.255 	251.436 	293.231 	30309.2
1.265 	251.327 	293.236 	30309.4
1.275 	251.218 	293.241 	30309.6
1.285 	251.109 	293.247 	30309.8
1.295 	251 	293.252 	30310
1.305 	250.891 	293.258 	30310.2
1.315 	250.782 	293.263 	30310.4
1.325 	250.673 	293.268 	30310.6
1.335 	250.564 	293.274 	30310.8
1.345 	250.455 	293.279 	30311
1.355 	250.357 	293.287 	30311.1
1.365 	250.27 	293.296 	30311.1
1.375 	250.183 	293.306 	30311.2
1.385 	250.096 	293.316 	30311.2
1.395 	250.009 	293.325 	30311.2
1.405 	249.922 	293.335 	30311.3
1.415 	249.835 	293.344 	30311.3
1.425 	249.748 	293.354 	30311.3
1.435 	249.661 	293.364 	30311.4
1.445 	249.574 	293.373 	30311.4
1.455 	249.519 	293.384 	30311.5
1.465 	249.498 	293.397 	30311.8
1.475 	249.476 	293.41 	30312.1
1.485 	249.454 	293.423 	30312.4
1.495 	249.433 	293.436 	30312.7
1.505 	249.411 	293.449 	30313
1.515 	249.39 	293.462 	30313.3
1.525 	249.368 	293.475 	30313.6
1.535 	249.346 	293.488 	30313.9
1.545 	249.325 	293.501 	30314.2
1.555 	249.348 	293.517 	30314.6
1.565 	249.417 	293.538 	30315.1
1.575 	249.486 	293.559 	30315.6
1.585 	249.555 	293.58 	30316.2
1.595 	249.624 	293.601 	30316.7
1.605 	249.692 	293.622 	30317.3
1.615 	249.761 	293.643 	30317.8
1.625 	249.83 	293.664 	30318.3
1.635 	249.899 	293.685 	30318.9
1.645 	249.968 	293.706 	30319.4
1.655 	250.3 	293.731 	30319.8
1.665 	250.897 	293.76 	30319.8
1.675 	251.494 	293.788 	30319.9
1.685 	252.091 	293.817 	30320
1.695 	252.688 	293.845 	30320.2
1.705 	253.285 	293.874 	30320.2
1.715 	253.882 	293.902 	30320.4
1.725 	254.479 	293.931 	30320.5
1.735 	255.076 	293.959 	30320.6
1.745 	255.673 	293.988 	30320.7
1.755 	257.102 	294 	30318.7
1.765 	259.363 	293.997 	30314.6
1.775 	261.623 	293.994 	30310.6
1.785 	263.884 	293.99 	30306.5
1.795 	266.145 	293.987 	30302.4
1.805 	268.405 	293.984 	30298.4
1.815 	270.666 	293.981 	30294.3
1.825 	272.926 	293.977 	30290.3
1.835 	275.187 	293.974 	30286.2
1.845 	277.448 	293.971 	30282.1
1.855 	280.247 	293.949 	30279.3
1.865 	283.585 	293.908 	30277.8
1.875 	286.923 	293.867 	30276.3
1.885 	290.261 	293.826 	30274.8
1.895 	293.599 	293.785 	30273.3
1.905 	296.938 	293.744 	30271.7
1.915 	300.276 	293.703 	30270.2
1.925 	303.614 	293.662 	30268.7
1.935 	306.952 	293.621 	30267.2
1.945 	310.29 	293.58 	30265.7
1.955 	313.453 	293.545 	30265
1.965 	316.442 	293.514 	30265.2
1.975 	319.43 	293.483 	30265.4
1.985 	322.418 	293.453 	30265.6
1.995 	325.407 	293.422 	30265.8
2.005 	328.395 	293.391 	30265.9
2.015 	331.384 	293.36 	30266.1
2.025 	334.372 	293.33 	30266.3
2.035 	337.36 	293.299 	30266.5
2.045 	340.349 	293.268 	30266.7
2.055 	343.023 	293.249 	30267.3
2.065 	345.383 	293.24 	30268.4
2.075 	347.742 	293.232 	30269.4
2.085 	350.102 	293.223 	30270.5
2.095 	352.462 	293.214 	30271.6
2.105 	354.821 	293.206 	30272.6
2.115 	357.181 	293.197 	30273.7
2.125 	359.541 	293.189 	30274.7
2.135 	361.9 	293.18 	30275.8
2.145 	364.26 	293.171 	30276.9
2.155 	366.279 	293.17 	30277.3
2.165 	367.956 	293.177 	30277
2.175 	369.634 	293.183 	30276.8
2.185 	371.312 	293.189 	30276.5
2.195 	372.989 	293.196 	30276.3
2.205 	374.667 	293.202 	30276
2.215 	376.344 	293.209 	30275.8
2.225 	378.022 	293.215 	30275.5
2.235 	379.7 	293.221 	30275.3
2.245 	381.377 	293.228 	30275
2.255 	382.753 	293.236 	30274.4
2.265 	383.828 	293.247 	30273.5
2.275 	384.902 	293.258 	30272.5
2.285 	385.977 	293.268 	30271.6
2.295 	387.051 	293.279 	30270.6
2.305 	388.126 	293.29 	30269.7
2.315 	389.2 	293.301 	30268.7
2.325 	390.275 	293.311 	30267.8
2.335 	391.349 	293.322 	30266.8
2.345 	392.424 	293.333 	30265.9
2.355 	393.257 	293.341 	30265.4
2.365 	393.848 	293.348 	30265.3
2.375 	394.44 	293.355 	30265.2
2.385 	395.031 	293.362 	30265.2
2.395 	395.623 	293.369 	30265.1
2.405 	396.214 	293.375 	30265
2.415 	396.806 	293.382 	30264.9
2.425 	397.397 	293.389 	30264.9
2.435 	397.989 	293.396 	30264.8
2.445 	398.58 	293.403 	30264.7
2.455 	399 	293.404 	30264.8
2.465 	399.248 	293.4 	30264.9
2.475 	399.495 	293.397 	30265.1
2.485 	399.743 	293.393 	30265.2
2.495 	399.991 	293.389 	30265.3
2.505 	400.238 	293.385 	30265.5
2.515 	400.486 	293.381 	30265.6
2.525 	400.734 	293.378 	30265.8
2.535 	400.981 	293.374 	30265.9
2.545 	401.229 	293.37 	30266
2.555 	401.376 	293.36 	30265.7
2.565 	401.423 	293.343 	30265
2.575 	401.47 	293.327 	30264.3
2.585 	401.517 	293.311 	30263.6
2.595 	401.564 	293.294 	30262.9
2.605 	401.61 	293.278 	30262.2
2.615 	401.657 	293.261 	30261.5
2.625 	401.704 	293.245 	30260.8
2.635 	401.751 	293.229 	30260.1
2.645 	401.798 	293.212 	30259.4
2.655 	401.791 	293.193 	30258.6
2.665 	401.731 	293.171 	30257.9
2.675 	401.671 	293.149 	30257.1
2.685 	401.611 	293.127 	30256.4
2.695 	401.551 	293.105 	30255.6
2.705 	401.492 	293.084 	30254.9
2.715 	401.432 	293.062 	30254.1
2.725 	401.372 	293.04 	30253.4
2.735 	401.312 	293.018 	30252.6
2.745 	401.252 	292.996 	30251.9
2.755 	401.121 	292.973 	30251.4
2.765 	400.919 	292.95 	30251.2
2.775 	400.718 	292.926 	30251
2.785 	400.516 	292.903 	30250.9
2.795 	400.314 	292.879 	30250.7
2.805 	400.112 	292.856 	30250.5
2.815 	399.91 	292.832 	30250.3
2.825 	399.709 	292.809 	30250.2
2.835 	399.507 	292.785 	30250
2.845 	399.305 	292.762 	30249.8
2.855 	399.116 	292.735 	30248.1
2.865 	398.939 	292.704 	30244.9
2.875 	398.762 	292.674 	30241.7
2.885 	398.586 	292.644 	30238.5
2.895 	398.409 	292.613 	30235.3
2.905 	398.232 	292.583 	30232.1
2.915 	398.055 	292.552 	30228.9
2.925 	397.879 	292.522 	30225.7
2.935 	397.702 	292.492 	30222.5
2.945 	397.525 	292.461 	30219.3
2.955 	397.392 	292.428 	30216.6
2.965 	397.302 	292.391 	30214.5
2.975 	397.213 	292.354 	30212.4
2.985 	397.123 	292.317 	30210.3
2.995 	397.033 	292.28 	30208.2
3.005 	396.944 	292.243 	30206
3.015 	396.854 	292.206 	30203.9
3.025 	396.764 	292.169 	30201.8
3.035 	396.675 	292.132 	30199.7
3.045 	396.585 	292.095 	30197.6
3.055 	396.526 	292.057 	30196.3
3.065 	396.497 	292.019 	30195.8
3.075 	396.468 	291.98 	30195.3
3.085 	396.44 	291.942 	30194.9
3.095 	396.411 	291.904 	30194.4
3.105 	396.382 	291.865 	30193.9
3.115 	396.353 	291.827 	30193.4
3.125 	396.325 	291.789 	30193
3.135 	396.296 	291.75 	30192.5
3.145 	396.267 	291.712 	30192
3.155 	396.256 	291.67 	30191.7
3.165 	396.262 	291.623 	30191.4
3.175 	396.267 	291.576 	30191.1
3.185 	396.273 	291.529 	30190.8
3.195 	396.279 	291.482 	30190.5
3.205 	396.284 	291.435 	30190.2
3.215 	396.29 	291.388 	30189.9
3.225 	396.296 	291.341 	30189.6
3.235 	396.301 	291.294 	30189.3
3.245 	396.307 	291.247 	30189
3.255 	396.306 	291.183 	30184.7
3.265 	396.299 	291.103 	30176.4
3.275 	396.292 	291.023 	30168.2
3.285 	396.284 	290.943 	30159.9
3.295 	396.277 	290.863 	30151.7
3.305 	396.269 	290.782 	30143.4
3.315 	396.262 	290.702 	30135.2
3.325 	396.255 	290.622 	30126.9
3.335 	396.247 	290.542 	30118.7
3.345 	396.24 	290.462 	30110.4
3.355 	396.226 	290.358 	30101
3.365 	396.206 	290.229 	30090.4
3.375 	396.185 	290.1 	30079.7
3.385 	396.165 	289.972 	30069.1
3.395 	396.145 	289.843 	30058.5
3.405 	396.124 	289.714 	30047.8
3.415 	396.104 	289.585 	30037.2
3.425 	396.084 	289.457 	30026.6
3.435 	396.063 	289.328 	30015.9
3.445 	396.043 	289.199 	30005.3
3.455 	396.001 	289.025 	29991.1
3.465 	395.938 	288.805 	29973.3
3.475 	395.874 	288.585 	29955.5
3.485 	395.81 	288.365 	29937.6
3.495 	395.747 	288.145 	29919.8
3.505 	395.683 	287.926 	29902
3.515 	395.62 	287.706 	29884.2
3.525 	395.556 	287.486 	29866.4
3.535 	395.492 	287.266 	29848.5
3.545 	395.429 	287.046 	29830.7
3.555 	395.306 	286.705 	29804.6
3.565 	395.124 	286.243 	29770.2
3.575 	394.942 	285.781 	29735.8
3.585 	394.76 	285.319 	29701.3
3.595 	394.578 	284.857 	29666.9
3.605 	394.397 	284.395 	29632.5
3.615 	394.215 	283.933 	29598.1
3.625 	394.033 	283.471 	29563.7
3.635 	393.851 	283.009 	29529.2
3.645 	393.669 	282.547 	29494.8
3.655 	393.396 	281.76 	29437.1
3.665 	393.032 	280.648 	29356.1
3.675 	392.668 	279.537 	29275.2
3.685 	392.303 	278.425 	29194.2
3.695 	391.939 	277.313 	29113.2
3.705 	391.575 	276.202 	29032.2
3.715 	391.211 	275.09 	28951.2
3.725 	390.847 	273.978 	28870.3
3.735 	390.482 	272.867 	28789.3
3.745 	390.118 	271.755 	28708.3
3.755 	389.507 	269.675 	28549.8
3.765 	388.648 	266.628 	28313.8
3.775 	387.789 	263.581 	28077.7
3.785 	386.931 	260.533 	27841.7
3.795 	386.072 	257.486 	27605.7
3.805 	385.213 	254.438 	27369.6
3.815 	384.354 	251.391 	27133.6
3.825 	383.496 	248.344 	26897.6
3.835 	382.637 	245.296 	26661.5
3.845 	381.778 	242.249 	26425.5
3.855 	379.432 	236.427 	25896.5
3.865 	375.598 	227.832 	25074.5
3.875 	371.765 	219.236 	24252.6