/*--------------------------------*- C++ -*----------------------------------*\
| =========                 |                                                 |
| \\      /  F ield         | OpenFOAM: The Open Source CFD Toolbox           |
|  \\    /   O peration     | Version:  2112                                  |
|   \\  /    A nd           | Website:  www.openfoam.com                      |
|    \\/     M anipulation  |                                                 |
\*---------------------------------------------------------------------------*/
FoamFile
{
    version     2.0;
    format      ascii;
    arch        "LSB;label=32;scalar=64";
    class       volScalarField;
    location    "35";
    object      T;
}
// * * * * * * * * * * * * * * * * * * * * * * * * * * * * * * * * * * * * * //

dimensions      [0 0 0 1 0 0 0];

internalField   nonuniform List<scalar> 
10000
(
0.998127
1.00296
0.998194
0.998942
0.999079
0.998988
0.998945
0.998192
1.00291
0.99816
0.990577
0.997047
0.992631
0.993926
0.994202
0.994127
0.993926
0.992611
0.996854
0.990707
0.991769
0.996153
0.993155
0.99395
0.99418
0.994242
0.993973
0.993185
0.996048
0.991798
0.994588
0.997341
0.99547
0.995724
0.995807
0.995898
0.995772
0.995543
0.997453
0.994535
0.995834
0.99772
0.996765
0.996864
0.996886
0.996937
0.996906
0.99681
0.997895
0.995832
0.996354
0.997638
0.997189
0.997283
0.997304
0.997334
0.997316
0.997213
0.997748
0.996354
0.996787
0.99763
0.997403
0.997505
0.997532
0.997549
0.997524
0.997417
0.997664
0.996763
0.99707
0.997624
0.99753
0.99763
0.997668
0.997673
0.997637
0.997532
0.997636
0.997055
0.997148
0.997529
0.997513
0.997615
0.99766
0.997659
0.997616
0.997511
0.997536
0.997137
0.997038
0.99732
0.997357
0.997458
0.997508
0.997505
0.997457
0.99735
0.997328
0.99703
0.996741
0.996962
0.997028
0.997148
0.997189
0.997202
0.997151
0.99702
0.996994
0.9967
0.99622
0.996417
0.996506
0.996657
0.996692
0.996722
0.996665
0.996499
0.996475
0.996137
0.995411
0.995625
0.995767
0.995931
0.995993
0.996011
0.995937
0.99576
0.995664
0.995369
0.99422
0.994478
0.994683
0.994882
0.994977
0.99499
0.994894
0.99469
0.994505
0.994236
0.992505
0.992888
0.993166
0.993409
0.993556
0.993537
0.993406
0.993188
0.992903
0.992614
0.9901
0.990676
0.991034
0.991361
0.991572
0.991518
0.99135
0.991085
0.990712
0.99032
0.986949
0.987588
0.988095
0.98857
0.988835
0.988838
0.988639
0.988224
0.987729
0.98726
0.982806
0.983461
0.984211
0.984826
0.985167
0.985254
0.985018
0.984472
0.983757
0.983319
0.97718
0.978068
0.979085
0.979869
0.980339
0.980478
0.980199
0.979574
0.978636
0.978095
0.969796
0.971099
0.972433
0.973449
0.974149
0.974323
0.974021
0.973326
0.972105
0.971507
0.960493
0.962138
0.963884
0.965277
0.966252
0.966578
0.966302
0.965475
0.963998
0.963373
0.948649
0.950719
0.952981
0.954903
0.956236
0.956863
0.956694
0.955749
0.954065
0.953335
0.933523
0.936315
0.939221
0.941795
0.943697
0.944763
0.944861
0.943955
0.942007
0.941273
0.91449
0.918205
0.921942
0.925385
0.928114
0.929892
0.930535
0.929895
0.927687
0.927094
0.890652
0.895509
0.900306
0.904894
0.908784
0.911688
0.91333
0.913369
0.910974
0.910621
0.860832
0.867079
0.873184
0.879215
0.884686
0.889289
0.892647
0.894162
0.891856
0.891709
0.823549
0.831399
0.839024
0.846763
0.854258
0.861257
0.867342
0.871707
0.870165
0.869467
0.777052
0.786581
0.795755
0.805288
0.81512
0.825229
0.835397
0.84526
0.848031
0.846007
0.719444
0.730409
0.740794
0.751756
0.763745
0.777169
0.792212
0.810212
0.823626
0.821302
0.649149
0.660827
0.671435
0.682724
0.695849
0.71194
0.732501
0.763336
0.821326
0.863987
1.00288
1.0083
1.00332
1.00423
1.00442
1.00441
1.00423
1.00336
1.00821
1.0029
0.996782
1.00552
1.00107
1.0025
1.00289
1.00294
1.00251
1.00119
1.00547
0.996826
0.996153
1.00291
1.00036
1.00099
1.00122
1.00119
1.00097
1.00044
1.00303
0.996066
0.997467
1.00147
1.00002
1.00005
1.00007
0.999978
0.999998
0.999948
1.0014
0.99752
0.997891
1.00009
0.999263
0.999164
0.999126
0.999063
0.999124
0.999171
0.999961
0.997972
0.997747
0.999065
0.998685
0.998601
0.998549
0.998521
0.998582
0.998634
0.999041
0.997808
0.997636
0.998455
0.998347
0.998297
0.998255
0.998245
0.99829
0.998327
0.998533
0.997704
0.997604
0.998146
0.998116
0.998097
0.998075
0.998071
0.998096
0.998112
0.998216
0.997661
0.997511
0.997896
0.997897
0.997903
0.997902
0.9979
0.997905
0.997902
0.997943
0.997554
0.997308
0.9976
0.997627
0.997654
0.997673
0.99767
0.997658
0.997635
0.997631
0.997344
0.996968
0.997206
0.997294
0.997318
0.997377
0.997349
0.997318
0.9973
0.997243
0.997026
0.996445
0.996657
0.996821
0.996831
0.996946
0.996875
0.996829
0.996829
0.996705
0.996529
0.995648
0.995856
0.996041
0.996106
0.996215
0.996171
0.996112
0.99605
0.995896
0.995721
0.994483
0.994725
0.99494
0.995075
0.995178
0.995161
0.995083
0.994951
0.994753
0.994564
0.992865
0.993159
0.993386
0.993617
0.993714
0.993768
0.993669
0.993412
0.993168
0.992956
0.990602
0.991029
0.991287
0.991615
0.991714
0.99187
0.991738
0.991345
0.991026
0.990779
0.987465
0.988128
0.98854
0.988901
0.989078
0.989174
0.988996
0.988632
0.988143
0.987843
0.983349
0.984102
0.984759
0.985253
0.985563
0.98556
0.985331
0.984931
0.984284
0.983908
0.978006
0.978875
0.979782
0.980492
0.980951
0.980968
0.980703
0.98013
0.979335
0.978878
0.971006
0.972202
0.97329
0.974297
0.974847
0.975041
0.974755
0.973956
0.973007
0.972477
0.961856
0.963455
0.96489
0.966204
0.966981
0.967342
0.967059
0.966132
0.964927
0.964443
0.950177
0.952315
0.954278
0.95593
0.957127
0.957658
0.957467
0.956539
0.955006
0.954665
0.935521
0.938372
0.94091
0.943107
0.944826
0.945752
0.945802
0.944898
0.943113
0.94296
0.917081
0.920863
0.924111
0.927061
0.929514
0.931112
0.931659
0.930952
0.928963
0.929145
0.893928
0.898891
0.903037
0.906979
0.91048
0.913136
0.914607
0.91448
0.912367
0.91303
0.864908
0.871306
0.876552
0.881754
0.886702
0.890958
0.894045
0.895236
0.893278
0.894448
0.828514
0.836589
0.843092
0.849786
0.8566
0.863125
0.868826
0.872652
0.871421
0.872371
0.782915
0.792752
0.80051
0.808751
0.817721
0.827194
0.836793
0.845811
0.849038
0.849178
0.726007
0.737369
0.746033
0.755451
0.76639
0.778997
0.793189
0.810604
0.822595
0.823977
0.65583
0.667955
0.676581
0.686084
0.697957
0.712999
0.732295
0.763407
0.822526
0.85876
0.998206
1.00337
0.998074
0.998866
0.999052
0.999069
0.998844
0.998073
1.00337
0.998191
0.992628
1.00114
0.996221
0.997541
0.997985
0.998058
0.997571
0.996346
1.00122
0.9926
0.993173
1.00038
0.997456
0.997958
0.99828
0.998313
0.998017
0.997601
1.00042
0.993192
0.995482
1
0.998663
0.998668
0.998781
0.998781
0.998699
0.99869
0.999892
0.995594
0.996767
0.999224
0.99876
0.998735
0.998755
0.998749
0.998745
0.998739
0.999116
0.996882
0.997193
0.998658
0.998596
0.998605
0.99859
0.998583
0.998604
0.998562
0.9986
0.997283
0.997414
0.998336
0.998418
0.998452
0.998439
0.998434
0.998446
0.998383
0.99831
0.997471
0.997542
0.998116
0.998223
0.998273
0.998275
0.998271
0.998264
0.998197
0.998105
0.997571
0.997523
0.997899
0.998003
0.998061
0.998077
0.998075
0.998055
0.997988
0.997897
0.997543
0.997357
0.997627
0.997728
0.997794
0.997822
0.997821
0.997791
0.997722
0.997631
0.997376
0.997045
0.997254
0.997363
0.997432
0.997475
0.997472
0.997434
0.997361
0.997261
0.997063
0.996546
0.996725
0.996851
0.99693
0.996989
0.996983
0.996936
0.996853
0.996736
0.996571
0.995789
0.995969
0.996121
0.996223
0.996295
0.99629
0.996232
0.996126
0.995983
0.995831
0.994686
0.9949
0.995091
0.995228
0.995312
0.995309
0.995235
0.9951
0.994917
0.994765
0.993126
0.993399
0.99364
0.993832
0.993933
0.993938
0.993842
0.993657
0.993427
0.99326
0.990968
0.991333
0.991637
0.991899
0.992033
0.992054
0.991928
0.991679
0.991378
0.991185
0.988032
0.988512
0.988919
0.989261
0.989454
0.989489
0.989329
0.98901
0.988609
0.988385
0.984088
0.984707
0.985272
0.985721
0.985998
0.986049
0.985857
0.985454
0.984927
0.984673
0.978878
0.979704
0.980463
0.981063
0.981444
0.98153
0.98131
0.980808
0.980141
0.979863
0.972094
0.973205
0.974197
0.975008
0.975529
0.975691
0.975453
0.974839
0.974013
0.973735
0.96334
0.964828
0.966126
0.967212
0.967947
0.968238
0.968017
0.967302
0.966286
0.966064
0.952162
0.95415
0.955843
0.957287
0.958343
0.958851
0.958719
0.957948
0.956728
0.956646
0.937999
0.940646
0.942846
0.944775
0.946293
0.94717
0.947262
0.946521
0.945106
0.945279
0.920135
0.923664
0.926508
0.929093
0.931277
0.932761
0.933312
0.932783
0.931212
0.931786
0.897687
0.902363
0.906013
0.909468
0.912598
0.915048
0.916453
0.916487
0.914848
0.915954
0.869511
0.875606
0.880239
0.884802
0.889235
0.893153
0.896051
0.897334
0.895902
0.897572
0.834102
0.841866
0.84761
0.853479
0.859588
0.86559
0.870902
0.874675
0.874082
0.875616
0.789543
0.799081
0.805912
0.813116
0.821144
0.829826
0.838737
0.847425
0.851435
0.852818
0.733517
0.744634
0.752179
0.760327
0.770059
0.781525
0.794666
0.811297
0.824132
0.827784
0.663618
0.675602
0.682912
0.690911
0.701296
0.714805
0.732558
0.762019
0.82255
0.863644
0.998955
1.00425
0.998854
0.999668
0.999874
0.999875
0.999648
0.998834
1.00425
0.998935
0.993938
1.00252
0.997516
0.998786
0.999229
0.999256
0.99879
0.997577
1.00255
0.993875
0.993983
1.00097
0.997956
0.998327
0.99862
0.998644
0.998358
0.998056
1.00096
0.99397
0.995736
1.00004
0.998682
0.998578
0.99866
0.998672
0.998606
0.998718
0.999931
0.995848
0.996872
0.999157
0.998744
0.998668
0.998664
0.998667
0.998683
0.998741
0.999058
0.997004
0.997299
0.998591
0.998605
0.998618
0.998595
0.998595
0.998626
0.998589
0.998535
0.997407
0.997513
0.998288
0.99845
0.998518
0.99851
0.99851
0.99852
0.99843
0.998264
0.997594
0.99763
0.998091
0.99827
0.99836
0.998374
0.998373
0.998359
0.998255
0.998085
0.997687
0.99761
0.997902
0.99806
0.998154
0.998182
0.998181
0.998152
0.998051
0.997901
0.997655
0.997452
0.997658
0.997797
0.997889
0.997926
0.997926
0.997887
0.997792
0.997659
0.997493
0.997153
0.997309
0.997444
0.997533
0.997579
0.997577
0.997532
0.997442
0.997318
0.99719
0.996672
0.996808
0.996946
0.997039
0.997093
0.997091
0.997041
0.996948
0.996822
0.996712
0.995942
0.996085
0.996237
0.996343
0.996407
0.996406
0.996349
0.996242
0.996102
0.995999
0.994879
0.995055
0.995232
0.995365
0.995443
0.995444
0.995375
0.995245
0.995077
0.994968
0.993373
0.993609
0.993825
0.993998
0.994097
0.994104
0.994018
0.993851
0.993641
0.993516
0.991291
0.991606
0.991886
0.992114
0.992243
0.992261
0.992152
0.991936
0.991666
0.991517
0.988456
0.988874
0.989251
0.98955
0.989726
0.989756
0.989619
0.989344
0.988994
0.988818
0.984652
0.985204
0.985712
0.986109
0.986354
0.986401
0.986236
0.985888
0.985436
0.985235
0.979624
0.980362
0.981034
0.981564
0.981905
0.981989
0.981798
0.981364
0.980792
0.980576
0.973056
0.974053
0.974931
0.975643
0.976115
0.976268
0.976066
0.975539
0.974826
0.974621
0.964563
0.965913
0.967061
0.968016
0.968682
0.968955
0.968772
0.968161
0.967285
0.96714
0.953702
0.955534
0.95703
0.958307
0.959258
0.959733
0.959636
0.958977
0.957924
0.957918
0.939944
0.942396
0.94435
0.946061
0.947425
0.948242
0.948354
0.94773
0.946503
0.946745
0.922588
0.925863
0.928404
0.930697
0.932664
0.934042
0.934582
0.93416
0.932793
0.933423
0.900756
0.905121
0.908377
0.911445
0.914273
0.916543
0.917878
0.917988
0.916564
0.917709
0.873312
0.879032
0.88316
0.887214
0.891223
0.894852
0.89758
0.898876
0.897668
0.899373
0.838732
0.84606
0.851169
0.856373
0.861895
0.867451
0.872436
0.876111
0.87583
0.877488
0.795031
0.804083
0.810127
0.81648
0.823721
0.831743
0.840116
0.84857
0.852876
0.854683
0.739698
0.750299
0.756898
0.763996
0.772706
0.78322
0.795496
0.811412
0.824711
0.829559
0.669922
0.681413
0.687632
0.694401
0.703537
0.715783
0.732278
0.760662
0.821815
0.865078
0.998947
1.00449
0.999068
0.999826
1.00004
1.00004
0.999813
0.999056
1.0045
0.998932
0.994054
1.003
0.998049
0.99924
0.999661
0.999672
0.999244
0.998102
1.00305
0.99401
0.994322
1.00104
0.998276
0.99864
0.998927
0.998942
0.998665
0.998368
1.00105
0.994317
0.99592
0.999927
0.998759
0.998636
0.99871
0.998723
0.998663
0.9988
0.999847
0.996023
0.996936
0.999059
0.998736
0.998645
0.998627
0.998633
0.998659
0.998737
0.998976
0.997066
0.997328
0.998522
0.998576
0.998585
0.998552
0.998556
0.998594
0.998563
0.998471
0.997448
0.997541
0.998243
0.99843
0.998506
0.998495
0.998497
0.998511
0.998415
0.998219
0.997633
0.997662
0.998071
0.998266
0.998371
0.998385
0.998386
0.998373
0.998259
0.998062
0.997731
0.997646
0.997909
0.998071
0.998181
0.998212
0.998212
0.998181
0.998069
0.997898
0.997705
0.9975
0.997679
0.997824
0.997927
0.997967
0.997968
0.997927
0.997821
0.997675
0.997546
0.997211
0.997338
0.997484
0.997579
0.997625
0.997625
0.997579
0.99748
0.997347
0.99725
0.996737
0.996852
0.996997
0.997092
0.997144
0.997144
0.997093
0.996994
0.996866
0.996783
0.996021
0.996145
0.996298
0.996405
0.996466
0.996468
0.996411
0.996303
0.996164
0.996082
0.994977
0.995136
0.995306
0.995439
0.995514
0.995517
0.995451
0.995324
0.995162
0.995072
0.993501
0.993727
0.993922
0.994092
0.994188
0.994195
0.994114
0.993956
0.993757
0.99365
0.991461
0.991771
0.992021
0.992237
0.992361
0.992376
0.992275
0.992075
0.991822
0.991692
0.98869
0.989083
0.989437
0.989712
0.989878
0.989904
0.989779
0.989525
0.9892
0.989047
0.984966
0.985477
0.985961
0.986323
0.986552
0.986597
0.986445
0.986124
0.985707
0.985533
0.980028
0.980722
0.981355
0.981843
0.982159
0.982241
0.982067
0.981666
0.981136
0.980952
0.973576
0.974519
0.97534
0.975999
0.97644
0.976587
0.976403
0.975917
0.975255
0.975085
0.965219
0.96654
0.967587
0.968471
0.969095
0.969354
0.96919
0.968627
0.967812
0.967704
0.954525
0.956368
0.957704
0.958884
0.959772
0.960225
0.960143
0.959537
0.958554
0.958585
0.94102
0.943389
0.945196
0.946783
0.948059
0.948837
0.948955
0.948381
0.947232
0.94751
0.923958
0.92707
0.92946
0.931591
0.933436
0.934748
0.935274
0.934893
0.933602
0.93427
0.902449
0.906675
0.909691
0.912544
0.915199
0.917361
0.918647
0.91878
0.917426
0.918608
0.875412
0.880946
0.884777
0.888548
0.892315
0.895774
0.898398
0.899682
0.89854
0.900285
0.841292
0.848384
0.85313
0.857959
0.86315
0.868451
0.87325
0.876859
0.876657
0.878389
0.798075
0.806827
0.812432
0.818309
0.825104
0.832753
0.84082
0.849122
0.853529
0.855524
0.743122
0.75338
0.759459
0.765965
0.774101
0.784099
0.795925
0.811538
0.824914
0.830223
0.673379
0.68456
0.69016
0.696234
0.704676
0.716249
0.732113
0.759863
0.821013
0.864581
0.999088
1.00442
0.999042
0.999864
1.00008
1.00007
0.99985
0.999029
1.00443
0.99907
0.994201
1.00289
0.997964
0.999216
0.999659
0.999665
0.999218
0.998018
1.00295
0.994137
0.994165
1.00124
0.998292
0.998622
0.998907
0.998919
0.998645
0.998379
1.00125
0.994147
0.995798
1.0001
0.998798
0.998669
0.998739
0.998751
0.998691
0.998834
1.00002
0.995902
0.996889
0.999138
0.998759
0.998666
0.998647
0.998653
0.998678
0.998758
0.999052
0.997024
0.997309
0.998555
0.998588
0.998595
0.99856
0.998564
0.998603
0.998573
0.998498
0.997434
0.997532
0.99826
0.998435
0.99851
0.998498
0.9985
0.998514
0.998419
0.998227
0.99763
0.997639
0.998109
0.99827
0.998373
0.998387
0.998387
0.998374
0.998258
0.998063
0.997732
0.997609
0.997986
0.998078
0.998183
0.998214
0.998213
0.998181
0.998068
0.997899
0.997705
0.997497
0.997701
0.997829
0.997928
0.997969
0.997968
0.997927
0.997821
0.997675
0.997547
0.997237
0.997289
0.997483
0.997578
0.997625
0.997626
0.997579
0.997478
0.997349
0.997251
0.996751
0.996813
0.996994
0.997091
0.997143
0.997144
0.997094
0.996994
0.996867
0.996783
0.996029
0.996128
0.996294
0.996405
0.996466
0.996468
0.996412
0.996303
0.996165
0.996083
0.99497
0.995163
0.995307
0.995441
0.995515
0.995519
0.995452
0.995325
0.995164
0.995074
0.993458
0.993829
0.993934
0.994098
0.994191
0.994198
0.994115
0.99396
0.993761
0.993654
0.991424
0.991865
0.992036
0.992244
0.992366
0.992379
0.992278
0.992079
0.991827
0.991698
0.988705
0.989059
0.989443
0.989717
0.989884
0.98991
0.989785
0.989531
0.989207
0.989055
0.985009
0.985388
0.985959
0.986328
0.986559
0.986605
0.986455
0.986133
0.985717
0.985543
0.980061
0.980664
0.981352
0.981849
0.982168
0.982251
0.982078
0.981678
0.981148
0.980964
0.973593
0.974502
0.975342
0.976008
0.976452
0.9766
0.976416
0.975933
0.97527
0.975102
0.965244
0.966523
0.967598
0.968485
0.96911
0.969371
0.969208
0.968648
0.967833
0.967727
0.954576
0.956322
0.957722
0.958904
0.959795
0.960248
0.960168
0.959563
0.958583
0.958614
0.941057
0.943395
0.945226
0.946811
0.94809
0.948868
0.948986
0.948413
0.947266
0.947543
0.92399
0.927129
0.929501
0.93163
0.933474
0.934785
0.935311
0.934932
0.933643
0.934308
0.90251
0.906707
0.909743
0.912594
0.915247
0.917408
0.918693
0.918827
0.917475
0.918653
0.875484
0.881004
0.884847
0.88861
0.892375
0.895833
0.898455
0.899738
0.898601
0.900348
0.841385
0.848481
0.853221
0.858042
0.863229
0.868527
0.873323
0.876928
0.876713
0.87844
0.798189
0.806977
0.812558
0.81842
0.825209
0.832846
0.840892
0.849157
0.853626
0.855765
0.743268
0.753592
0.75963
0.766122
0.774252
0.784246
0.796082
0.81178
0.82502
0.829918
0.673584
0.68481
0.69039
0.696455
0.704892
0.716463
0.732331
0.760056
0.821398
0.865663
0.99893
1.00425
0.998859
0.999652
0.999853
0.99985
0.999635
0.998841
1.00425
0.99891
0.993888
1.00253
0.997553
0.998789
0.999224
0.999227
0.998786
0.997596
1.00259
0.993822
0.993939
1.001
0.997997
0.998346
0.998633
0.998642
0.998364
0.998078
1.00101
0.993913
0.995758
1.00002
0.998685
0.998593
0.998675
0.998686
0.998612
0.998716
0.999928
0.995857
0.996899
0.999137
0.998733
0.998672
0.998668
0.998673
0.998682
0.998731
0.999045
0.997031
0.997309
0.998587
0.998597
0.99862
0.998598
0.998601
0.998625
0.998582
0.998528
0.997429
0.997512
0.998294
0.998442
0.998518
0.998512
0.998514
0.99852
0.998423
0.998259
0.997608
0.997617
0.998104
0.99826
0.998358
0.998373
0.998374
0.998357
0.998247
0.998081
0.997695
0.997597
0.997921
0.998053
0.998152
0.998181
0.998181
0.99815
0.998045
0.997901
0.997659
0.997448
0.99767
0.997797
0.997889
0.997927
0.997926
0.997887
0.997789
0.997662
0.997497
0.997156
0.997312
0.997448
0.997536
0.997579
0.997578
0.997534
0.997439
0.99732
0.997197
0.996679
0.99681
0.996951
0.997043
0.997093
0.997094
0.997044
0.996947
0.996825
0.996719
0.99595
0.996086
0.996239
0.996348
0.996408
0.996411
0.996354
0.996245
0.996107
0.996006
0.994877
0.995061
0.995231
0.995369
0.995446
0.99545
0.995381
0.99525
0.995084
0.994977
0.993363
0.993631
0.993827
0.994006
0.994106
0.994112
0.994026
0.993861
0.993652
0.993528
0.991286
0.991634
0.991896
0.992125
0.992257
0.992271
0.992163
0.99195
0.991681
0.991533
0.988472
0.988889
0.98927
0.989566
0.989744
0.98977
0.989635
0.989362
0.989013
0.98884
0.98469
0.985214
0.985738
0.986132
0.986377
0.986425
0.986261
0.985914
0.985466
0.985268
0.979646
0.980409
0.981065
0.981594
0.981934
0.98202
0.981831
0.981399
0.98083
0.980614
0.973053
0.974158
0.974972
0.975682
0.976155
0.976308
0.976107
0.975585
0.974872
0.974665
0.964597
0.965982
0.967117
0.968067
0.968735
0.969007
0.968827
0.968223
0.967347
0.9672
0.953791
0.955542
0.957101
0.958374
0.959326
0.959802
0.959708
0.959055
0.958006
0.957996
0.940054
0.942433
0.94444
0.946148
0.947513
0.94833
0.948445
0.947825
0.946605
0.946842
0.922717
0.925953
0.928516
0.930809
0.932776
0.934154
0.934694
0.934276
0.932913
0.933545
0.900918
0.905255
0.908523
0.91159
0.914415
0.916682
0.918014
0.91813
0.916707
0.917853
0.873518
0.879221
0.883353
0.887401
0.891403
0.895024
0.897745
0.899044
0.897841
0.899541
0.839004
0.846319
0.851422
0.856616
0.862127
0.867669
0.87264
0.876312
0.876026
0.877671
0.795389
0.804435
0.810466
0.816806
0.824029
0.832022
0.840352
0.848801
0.853106
0.854909
0.74017
0.750778
0.757361
0.764446
0.773135
0.783614
0.795827
0.81174
0.824956
0.829694
0.67054
0.682053
0.688266
0.695029
0.704149
0.716363
0.732789
0.761082
0.822176
0.865239
0.998196
1.00336
0.99808
0.998855
0.999049
0.999047
0.998842
0.998067
1.00337
0.998177
0.992605
1.00117
0.996329
0.997572
0.998006
0.998015
0.997588
0.9964
1.00127
0.992552
0.993166
1.00044
0.99758
0.998033
0.998345
0.998361
0.998071
0.997696
1.00049
0.993152
0.995519
0.999969
0.998674
0.998693
0.998804
0.998813
0.99871
0.998707
0.999864
0.995611
0.996783
0.999178
0.998727
0.998723
0.998742
0.998745
0.998727
0.998718
0.999064
0.996907
0.997192
0.998632
0.998554
0.998582
0.99857
0.99857
0.99858
0.998527
0.998553
0.997299
0.997404
0.998333
0.998378
0.998429
0.99842
0.998419
0.998424
0.998346
0.998275
0.997479
0.997511
0.998115
0.998193
0.998255
0.99826
0.998259
0.998248
0.998167
0.998083
0.997573
0.997491
0.997906
0.997989
0.998052
0.99807
0.998068
0.998045
0.997969
0.997887
0.997541
0.997346
0.997645
0.997728
0.997794
0.997823
0.997821
0.99779
0.997714
0.997631
0.997381
0.997046
0.997266
0.997369
0.997442
0.99748
0.997479
0.99744
0.997361
0.99727
0.997079
0.996554
0.996734
0.996864
0.996947
0.996993
0.996994
0.996947
0.996857
0.996748
0.996593
0.995801
0.995977
0.996133
0.99624
0.996301
0.996303
0.996245
0.996135
0.995997
0.995856
0.994697
0.99491
0.995093
0.995239
0.99532
0.995324
0.99525
0.99511
0.994931
0.994788
0.993141
0.993429
0.993645
0.99384
0.993948
0.993956
0.99386
0.993677
0.993443
0.993287
0.990982
0.991362
0.991654
0.991911
0.992056
0.99207
0.991946
0.991707
0.991401
0.991218
0.988047
0.988526
0.988951
0.989286
0.989484
0.989509
0.989354
0.989043
0.988642
0.988424
0.984126
0.984729
0.985318
0.985764
0.986039
0.986087
0.985899
0.9855
0.98498
0.984728
0.978932
0.97975
0.980511
0.981115
0.981498
0.981587
0.981367
0.980867
0.980206
0.97993
0.972149
0.973279
0.974254
0.975066
0.975598
0.975759
0.975521
0.974916
0.97409
0.973813
0.963407
0.964911
0.966206
0.967284
0.968031
0.968321
0.968101
0.967399
0.966386
0.96616
0.952257
0.954237
0.955952
0.957388
0.958447
0.958957
0.958828
0.958065
0.956854
0.956761
0.938132
0.940764
0.942989
0.944914
0.946431
0.94731
0.947404
0.946669
0.945265
0.945424
0.920314
0.923828
0.926693
0.929278
0.931458
0.932943
0.933495
0.932972
0.931406
0.931979
0.897925
0.902584
0.906251
0.909706
0.912831
0.915277
0.91668
0.91672
0.915081
0.916197
0.869823
0.875908
0.880547
0.885105
0.889529
0.893437
0.896327
0.897614
0.896185
0.897877
0.834512
0.842269
0.848011
0.853869
0.859963
0.865948
0.871244
0.875011
0.874413
0.875994
0.790079
0.799619
0.806443
0.813631
0.821635
0.830282
0.839146
0.847831
0.851855
0.853351
0.734224
0.745351
0.752892
0.761025
0.77073
0.782154
0.795244
0.811918
0.824643
0.828252
0.664542
0.676555
0.683871
0.691867
0.702232
0.715705
0.733355
0.762874
0.823472
0.864289
1.0029
1.0082
1.00335
1.00423
1.00441
1.00441
1.00424
1.00337
1.00823
1.00288
0.996831
1.00544
1.00117
1.00253
1.00292
1.00293
1.00255
1.00126
1.00556
0.996769
0.996021
1.00308
1.00042
1.00098
1.00127
1.00128
1.001
1.00049
1.00309
0.99599
0.997399
1.00153
0.999904
0.999959
1.00005
1.00004
0.999935
0.999869
1.00128
0.997499
0.997882
1.00001
0.999115
0.999073
0.999074
0.999069
0.999049
0.999067
0.999843
0.997996
0.997776
0.999024
0.998593
0.998542
0.998511
0.998509
0.998529
0.998554
0.99898
0.997856
0.997653
0.99858
0.998311
0.998271
0.998237
0.998234
0.998261
0.998275
0.99851
0.997747
0.997654
0.998234
0.998106
0.998089
0.998068
0.998066
0.998083
0.998083
0.998211
0.99769
0.997599
0.99794
0.997903
0.997905
0.997901
0.9979
0.997901
0.997886
0.997944
0.997574
0.997314
0.997681
0.997643
0.997666
0.997678
0.997677
0.997662
0.997631
0.997638
0.997358
0.996943
0.997209
0.997272
0.997321
0.997349
0.997349
0.997321
0.997271
0.997235
0.997012
0.996454
0.996574
0.996747
0.996821
0.996865
0.996867
0.996826
0.996749
0.996671
0.99648
0.995663
0.995798
0.995992
0.996099
0.996163
0.996166
0.996108
0.995998
0.995869
0.995692
0.994506
0.994752
0.99492
0.995073
0.99516
0.995164
0.995084
0.994932
0.994741
0.99456
0.992851
0.993297
0.993426
0.993637
0.993753
0.993758
0.99365
0.993444
0.993177
0.992971
0.990547
0.99111
0.991356
0.991647
0.991807
0.991817
0.991676
0.9914
0.991038
0.990788
0.987499
0.988009
0.988544
0.988933
0.989157
0.989182
0.989001
0.988637
0.988157
0.987855
0.983458
0.984004
0.98478
0.9853
0.985612
0.985663
0.985441
0.984971
0.984346
0.983984
0.978061
0.978914
0.979821
0.980516
0.980949
0.981042
0.980781
0.980191
0.979389
0.978966
0.971007
0.972292
0.97337
0.9743
0.974899
0.975068
0.974781
0.974063
0.973053
0.972587
0.961924
0.96358
0.965062
0.966307
0.967148
0.967456
0.967182
0.966341
0.965098
0.964631
0.950366
0.952468
0.95449
0.956148
0.957342
0.957889
0.957707
0.956783
0.955287
0.954894
0.935757
0.938561
0.941144
0.943358
0.945062
0.946012
0.946068
0.945153
0.943401
0.943198
0.917361
0.9211
0.924381
0.927343
0.929784
0.931393
0.931941
0.931232
0.929252
0.929396
0.89427
0.899192
0.903362
0.907311
0.910802
0.913456
0.914924
0.914801
0.912674
0.913294
0.865328
0.8717
0.876958
0.882158
0.887093
0.891337
0.894412
0.895606
0.89362
0.894731
0.829053
0.837103
0.84361
0.850292
0.857088
0.863595
0.869263
0.873088
0.87179
0.872661
0.783612
0.793422
0.801184
0.809411
0.818356
0.827787
0.837316
0.846353
0.849493
0.849595
0.726918
0.738256
0.746924
0.756336
0.767247
0.779794
0.793931
0.811411
0.822963
0.824032
0.657004
0.66912
0.677763
0.687277
0.69912
0.714113
0.733275
0.764585
0.82311
0.859461
0.99817
1.0029
0.998205
0.998932
0.999072
0.999068
0.99892
0.998186
1.00289
0.998173
0.990747
0.996838
0.992605
0.993856
0.994125
0.994116
0.993827
0.992564
0.996775
0.990738
0.99176
0.996069
0.993161
0.993908
0.994092
0.994087
0.993893
0.99315
0.99599
0.991773
0.994439
0.997545
0.995553
0.995808
0.995859
0.995867
0.99583
0.9956
0.997496
0.99455
0.995784
0.998002
0.996847
0.996984
0.996992
0.997003
0.99701
0.996898
0.997992
0.995879
0.996327
0.997817
0.997256
0.997388
0.997402
0.997411
0.997413
0.997292
0.997852
0.996394
0.996714
0.997722
0.997453
0.997576
0.997604
0.99761
0.997596
0.997471
0.997743
0.996793
0.997012
0.997686
0.997554
0.997672
0.997715
0.997719
0.997684
0.997566
0.997686
0.99708
0.997064
0.997581
0.997525
0.997643
0.997694
0.997696
0.997647
0.997536
0.997569
0.997167
0.996997
0.997349
0.99737
0.997485
0.997537
0.997537
0.997483
0.997375
0.997352
0.997062
0.996818
0.996957
0.997074
0.997185
0.997237
0.997239
0.997183
0.997069
0.997004
0.996774
0.996316
0.99641
0.996587
0.9967
0.996762
0.996766
0.996702
0.996575
0.996469
0.996267
0.995479
0.995631
0.995833
0.995973
0.996055
0.996058
0.995982
0.995833
0.995676
0.995476
0.99422
0.994525
0.994729
0.994925
0.995033
0.995038
0.994942
0.994758
0.994537
0.99432
0.992439
0.99297
0.993182
0.99345
0.993591
0.993599
0.993477
0.99324
0.992937
0.992682
0.990178
0.990705
0.991056
0.991406
0.991594
0.991609
0.991455
0.991146
0.990738
0.990422
0.987139
0.987576
0.988174
0.988622
0.988875
0.988906
0.988715
0.988317
0.98778
0.987381
0.982912
0.983489
0.984309
0.984895
0.985247
0.985306
0.985071
0.984567
0.983869
0.983372
0.977237
0.978176
0.979192
0.979987
0.980475
0.980586
0.980308
0.979684
0.97879
0.978187
0.969878
0.971275
0.972536
0.973612
0.974291
0.97449
0.974189
0.973437
0.972315
0.971608
0.960612
0.962288
0.963989
0.965431
0.966383
0.966735
0.966458
0.965589
0.964211
0.963422
0.948801
0.950833
0.953129
0.955047
0.956392
0.957009
0.956841
0.955905
0.954249
0.953424
0.933721
0.936469
0.939424
0.941988
0.9439
0.944958
0.945058
0.944164
0.942222
0.941444
0.914754
0.918435
0.922207
0.925652
0.928384
0.930158
0.930799
0.930164
0.927956
0.927337
0.890999
0.895826
0.900647
0.905242
0.90913
0.912029
0.913664
0.913707
0.911301
0.910932
0.86128
0.867499
0.873628
0.879662
0.885124
0.889715
0.893061
0.894581
0.892253
0.892096
0.824134
0.831959
0.839602
0.847338
0.854814
0.861795
0.867857
0.872229
0.870645
0.869941
0.777813
0.787321
0.796511
0.806037
0.815843
0.82592
0.83604
0.84594
0.848683
0.846672
0.720437
0.731394
0.741793
0.752753
0.764717
0.778095
0.793073
0.811143
0.824434
0.822011
0.650424
0.66211
0.67275
0.684058
0.697171
0.713224
0.733701
0.764649
0.822714
0.864663
0.565679
0.576699
0.585772
0.595287
0.606951
0.621883
0.641483
0.664307
0.721413
0.781283
0.470707
0.479273
0.4847
0.490032
0.497476
0.508282
0.524542
0.545458
0.587379
0.66873
0.369075
0.373599
0.373734
0.373201
0.37445
0.378917
0.38826
0.403461
0.42731
0.474314
0.26872
0.26861
0.263318
0.257016
0.251979
0.24936
0.249889
0.253902
0.261147
0.27502
0.178952
0.17515
0.166343
0.156752
0.14829
0.14158
0.136778
0.133789
0.132369
0.133426
0.107541
0.102095
0.0928628
0.0835159
0.0753127
0.0684859
0.062916
0.0583638
0.0546437
0.0520482
0.0576763
0.0526512
0.0453614
0.0384848
0.0326834
0.0279399
0.0240403
0.0207468
0.0179139
0.0156877
0.0273978
0.0238653
0.0193039
0.0152966
0.0120954
0.00958992
0.00759356
0.00595312
0.00458024
0.00356269
0.0114809
0.00950264
0.00717999
0.00527681
0.00384794
0.0027906
0.00199435
0.0013748
0.000897613
0.000603043
0.00425207
0.00334312
0.0023594
0.00160444
0.00107341
0.000705802
0.000449113
0.000265268
0.000142242
9.12709e-05
0.57138
0.582853
0.589732
0.597229
0.607405
0.621016
0.639229
0.659149
0.719813
0.778948
0.473866
0.482878
0.48593
0.48899
0.494582
0.503487
0.517803
0.535556
0.57505
0.661878
0.368213
0.37311
0.370858
0.367928
0.367034
0.369185
0.375897
0.387801
0.406732
0.45268
0.263387
0.263522
0.256234
0.247885
0.24098
0.23628
0.234234
0.234929
0.237468
0.246463
0.170507
0.166899
0.157064
0.146559
0.137277
0.129609
0.123555
0.118848
0.115018
0.113231
0.098748
0.093593
0.0843991
0.0751836
0.0671246
0.0603417
0.0546482
0.0496978
0.0452841
0.0418841
0.0508099
0.0461526
0.0394795
0.0332493
0.0280106
0.0237174
0.0201226
0.0169648
0.0141819
0.012061
0.0231028
0.0199532
0.0160604
0.0126791
0.009983
0.00787269
0.00615374
0.00469716
0.00347911
0.00269115
0.00926956
0.00757973
0.00571185
0.00419948
0.00306381
0.00222158
0.0015721
0.00104781
0.000668034
0.000479017
0.00329641
0.00255081
0.00179764
0.00122682
0.000824554
0.000543963
0.000344475
0.000194174
0.000105227
7.85894e-05
0.578133
0.589628
0.59502
0.600792
0.609216
0.620962
0.636858
0.653467
0.713785
0.77626
0.477614
0.486795
0.488282
0.489458
0.493051
0.49973
0.511186
0.525907
0.560498
0.648679
0.366919
0.372094
0.368424
0.363692
0.360763
0.360456
0.364011
0.371928
0.3853
0.425436
0.256347
0.256803
0.248631
0.239092
0.230726
0.224153
0.219633
0.217055
0.215161
0.219006
0.15959
0.156366
0.146708
0.136186
0.126604
0.118316
0.111293
0.105243
0.0996674
0.09594
0.0876986
0.0830992
0.0748581
0.0665078
0.0590435
0.0525995
0.0470298
0.0420567
0.0375416
0.0340494
0.042441
0.0384509
0.0329483
0.0277937
0.0233786
0.0196908
0.0165402