/*--------------------------------*- C++ -*----------------------------------*\
| =========                 |                                                 |
| \\      /  F ield         | OpenFOAM: The Open Source CFD Toolbox           |
|  \\    /   O peration     | Version:  2112                                  |
|   \\  /    A nd           | Website:  www.openfoam.com                      |
|    \\/     M anipulation  |                                                 |
\*---------------------------------------------------------------------------*/
FoamFile
{
    version     2.0;
    format      ascii;
    arch        "LSB;label=32;scalar=64";
    class       volScalarField;
    location    "1.0005";
    object      Ma;
}
// * * * * * * * * * * * * * * * * * * * * * * * * * * * * * * * * * * * * * //

dimensions      [0 0 0 0 0 0 0];

internalField   nonuniform List<scalar> 
7000
(
3.00001
3
3
3
3
3
3
3
3
3
3
3
2.99999
2.99983
2.9996
2.99847
2.99598
2.99439
2.97202
2.9675
2.82014
2.4917
1.75213
0.93135
0.374141
0.336362
0.365242
0.37593
0.359441
0.331312
0.302246
0.281889
0.266359
0.252293
0.238265
0.22364
0.20854
0.193653
0.179261
0.164784
0.150324
0.136228
0.120892
0.104515
0.0896417
0.0749597
0.0593622
0.0468312
0.0316009
0.0143121
3.00001
3
3
3
3
3
3
3
3
3
3
3
2.99999
2.99984
2.99964
2.99854
2.99624
2.99472
2.97344
2.96459
2.82446
2.49599
1.77979
0.954082
0.378724
0.329257
0.359985
0.373581
0.360183
0.334651
0.306893
0.286526
0.270244
0.2553
0.24053
0.225323
0.209679
0.194208
0.179245
0.164342
0.149685
0.135604
0.120358
0.104196
0.0894412
0.0747269
0.0593363
0.0474735
0.0350923
0.0236648
3.00001
3
3
3
3
3
3
3
3
3
3
3
2.99999
2.99983
2.99964
2.99853
2.99621
2.9946
2.97197
2.97207
2.82506
2.52248
1.79437
0.970004
0.383103
0.322593
0.354909
0.370383
0.358095
0.333439
0.306282
0.286449
0.270629
0.256059
0.241563
0.22658
0.211154
0.195898
0.181115
0.166387
0.15193
0.138116
0.123132
0.10736
0.0930587
0.0789237
0.0648797
0.0549525
0.0459336
0.0383495
3.00001
3
3
3
3
3
3
3
3
3
3
3
2.99999
2.99984
2.99966
2.99858
2.99647
2.9943
2.97263
2.96731
2.83175
2.53775
1.81699
0.995594
0.395341
0.319941
0.352977
0.37003
0.358575
0.334708
0.308251
0.288877
0.273309
0.258857
0.244426
0.22948
0.214079
0.19888
0.184238
0.169779
0.155695
0.142352
0.127906
0.112804
0.0992695
0.0861618
0.0738583
0.0658161
0.059083
0.0532762
3.00001
3
3
3
3
3
3
3
3
3
3
3
2.99999
2.99984
2.99969
2.9986
2.99704
2.99372
2.97392
2.97027
2.83663
2.54054
1.84649
1.02775
0.411848
0.318154
0.352246
0.371486
0.361238
0.338426
0.312865
0.293956
0.278451
0.263836
0.249248
0.23422
0.218815
0.203692
0.189231
0.175092
0.16142
0.148594
0.134771
0.1204
0.107764
0.095803
0.0852073
0.0787662
0.0735242
0.0688168
3.00001
3
3
3
3
3
3
3
3
3
3
3
2.99999
2.99985
2.99971
2.99868
2.99759
2.99345
2.97634
2.9723
2.84354
2.57313
1.87603
1.06635
0.431796
0.31633
0.352348
0.374412
0.365569
0.343868
0.31921
0.300688
0.285139
0.270294
0.255525
0.240396
0.224986
0.209991
0.195811
0.182111
0.168976
0.156764
0.143693
0.130198
0.118491
0.107672
0.0985548
0.0933046
0.0890268
0.0851585
3.00001
3
3
3
3
3
3
3
3
3
3
3
2.99999
2.99985
2.99972
2.99875
2.99778
2.99374
2.97722
2.97753
2.84738
2.5961
1.91146
1.11788
0.456339
0.31435
0.353152
0.378591
0.370958
0.350158
0.32617
0.307933
0.292378
0.277487
0.262764
0.247737
0.232466
0.217697
0.203907
0.190777
0.178314
0.166835
0.154618
0.141965
0.131137
0.121399
0.11357
0.109234
0.105689
0.102338
3.00001
3
3
3
3
3
3
3
3
3
3
3
2.99999
2.99985
2.99973
2.99879
2.99796
2.99384
2.97876
2.97928
2.85654
2.62278
1.95972
1.17845
0.484505
0.312214
0.355077
0.384252
0.377825
0.357948
0.334503
0.316351
0.300703
0.285839
0.271298
0.256515
0.241517
0.227093
0.213789
0.201303
0.189566
0.17885
0.167535
0.155785
0.145823
0.136966
0.130121
0.126493
0.123354
0.120465
3.00001
3
3
3
3
3
3
3
3
3
3
3
2.99999
2.99986
2.99974
2.99887
2.99808
2.99425
2.9805
2.98145
2.86648
2.6534
2.01801
1.25209
0.518874
0.312878
0.359999
0.392279
0.386785
0.367831
0.344856
0.326497
0.31056
0.295729
0.281454
0.267019
0.25236
0.238312
0.225538
0.213758
0.202797
0.192916
0.182489
0.171501
0.162367
0.154256
0.14818
0.145071
0.142447
0.139677
3.00001
3.00001
3
3
3
3
3
3
3
3
3.00001
3
2.99999
2.99986
2.99974
2.99896
2.99804
2.99488
2.98208
2.98325
2.877
2.6838
2.08919
1.34688
0.563053
0.320791
0.36982
0.402776
0.397676
0.379685
0.357462
0.338423
0.322053
0.307307
0.293356
0.279294
0.265077
0.25157
0.239442
0.228393
0.218183
0.209068
0.199467
0.189181
0.180709
0.173359
0.167962
0.165221
0.162667
0.160146
3.00001
3.00001
3
3
3
3
3
3
3
3
3.00001
3
2.99999
2.99986
2.99975
2.99904
2.99787
2.99597
2.98284
2.98335
2.88998
2.71201
2.18876
1.46203
0.624606
0.340313
0.384602
0.413393
0.408992
0.392764
0.372072
0.352188
0.335329
0.320652
0.307071
0.293522
0.279736
0.266644
0.25513
0.244899
0.235538
0.227331
0.21856
0.208984
0.201058
0.19428
0.189455
0.18709
0.185004
0.182458
3.00001
3.00001
3
3
3
3
3
3
3
3
3
3
2.99999
2.99987
2.99976
2.99911
2.99801
2.99635
2.98405
2.985
2.90225
2.72593
2.32102
1.58541
0.709892
0.371696
0.398376
0.418678
0.420094
0.407447
0.388676
0.367998
0.350652
0.336071
0.322758
0.309537
0.296276
0.283861
0.273132
0.263759
0.255239
0.24786
0.239888
0.231002
0.223647
0.217394
0.213052
0.210994
0.208865
0.206236
3.00001
3.00001
3.00001
3
3
3
3
3
3
3
3
2.99999
2.99999
2.99988
2.99978
2.99918
2.99828
2.99647
2.98595
2.98345
2.91732
2.76157
2.41748
1.7197
0.810321
0.421156
0.402593
0.419254
0.431584
0.423988
0.407294
0.386402
0.368446
0.353661
0.340468
0.327521
0.314678
0.302877
0.292972
0.284554
0.276965
0.270472
0.263416
0.255231
0.248476
0.242805
0.238997
0.237314
0.235672
0.233169
3.00001
3.00001
3.00001
3.00001
3
3
3
3
3
3
3
3
2.99997
2.99988
2.99972
2.99917
2.99829
2.99627
2.98731
2.98719
2.92783
2.79823
2.50236
1.86612
0.950452
0.491561
0.396254
0.420281
0.445686
0.444026
0.428677
0.407796
0.388985
0.373539
0.359912
0.347154
0.334803
0.323506
0.314417
0.307082
0.300599
0.29528
0.289362
0.282054
0.27592
0.270952
0.267684
0.266497
0.265194
0.262263
3.00001
3.00001
3.00001
3.00001
3.00001
3
3
3
3
3.00001
3
3
2.99995
2.9999
2.99957
2.9993
2.99752
2.9962
2.98626
2.984
2.9437
2.83794
2.58205
2.0151
1.12437
0.580596
0.402143
0.436456
0.471276
0.471148
0.453813
0.430937
0.410233
0.39366
0.379607
0.367054
0.355579
0.345223
0.337326
0.331343
0.32619
0.322293
0.317737
0.311599
0.306351
0.302461
0.300233
0.299695
0.299006
0.29665
3.00001
3.00001
3.00001
3.00001
3.00001
3.00001
3.00001
3.00001
3
3.00001
3
3
2.99996
2.99993
2.99969
2.9995
2.9982
2.99719
2.98887
2.98664
2.96004
2.8879
2.66234
2.17208
1.35114
0.686207
0.421375
0.460657
0.497695
0.495554
0.475546
0.450613
0.428516
0.411636
0.397829
0.38604
0.375814
0.367184
0.361238
0.35714
0.35378
0.351698
0.348865
0.344315
0.340299
0.337803
0.336933
0.338139
0.33892
0.335934
3.00001
3.00001
3.00001
3.00001
3.00001
3.00001
3.00001
3.00001
3.00001
3.00001
3
3
2.99997
2.99994
2.99979
2.99967
2.99887
2.99759
2.99593
2.98182
2.97839
2.89543
2.71709
2.2421
1.52085
0.684547
0.382709
0.442426
0.484564
0.488548
0.473779
0.454088
0.436085
0.422529
0.411579
0.402524
0.394778
0.388645
0.3853
0.383661
0.382709
0.383031
0.382488
0.380509
0.378728
0.378648
0.380247
0.383165
0.38638
0.385535
3.00001
3.00001
3.00001
3.00001
3.00001
3.00001
3.00001
3.00001
3.00001
3.00001
3
3
2.99998
2.99996
2.99985
2.99975
2.99922
2.99799
2.99694
2.98464
2.98573
2.91331
2.75333
2.38698
1.68921
0.772665
0.416689
0.439448
0.464784
0.47385
0.465168
0.451807
0.438778
0.429781
0.42299
0.417771
0.413367
0.410252
0.409871
0.411019
0.412847
0.416442
0.419338
0.420905
0.42252
0.426173
0.431668
0.439871
0.447023
0.449134
3.00001
3.00001
3.00001
3.00001
3.00001
3.00001
3.00001
3.00001
3.00001
3.00001
3
3
2.99999
2.99997
2.99992
2.99982
2.99956
2.99817
2.99629
2.98262
2.98078
2.93296
2.8042
2.49239
1.87521
0.93554
0.511073
0.444614
0.463417
0.475768
0.472271
0.462332
0.451889
0.444942
0.440614
0.437728
0.435646
0.435248
0.437191
0.440843
0.445635
0.452561
0.459809
0.466004
0.472552
0.482169
0.495249
0.511047
0.53086
0.546871
3.00001
3.00001
3.00001
3.00001
3.00001
3.00001
3.00001
3.00001
3.00001
3.00001
3
3
2.99999
2.99999
2.99995
2.99979
2.99955
2.99794
2.99679
2.98541
2.98159
2.95037
2.85822
2.60346
2.0692
1.1916
0.649896
0.474618
0.48858
0.502504
0.502632
0.493572
0.483145
0.474871
0.469911
0.467187
0.465678
0.466487
0.46994
0.475939
0.483331
0.49325
0.505291
0.517007
0.530226
0.547268
0.571505
0.607203
0.654909
0.729746
3.00001
3.00001
3.00001
3.00001
3.00001
3.00001
3.00001
3.00001
3.00001
3.00001
3.00001
3.00001
3
3
2.99996
2.99994
2.99968
2.9994
2.99716
2.99604
2.9811
2.98524
2.89237
2.72234
2.24417
1.53866
0.751138
0.490947
0.507346
0.527956
0.536252
0.531573
0.524099
0.517279
0.513869
0.512217
0.511786
0.514611
0.52073
0.529311
0.539983
0.553832
0.571351
0.591424
0.614989
0.645887
0.688791
0.751102
0.861544
0.991653
3.00001
3.00001
3.00001
3.00001
3.00001
3.00001
3.00001
3.00001
3.00001
3.00001
3.00001
3.00001
3
3
2.99998
2.99997
2.99981
2.99961
2.99816
2.99734
2.98602
2.98842
2.92337
2.7885
2.44495
1.8108
0.897186
0.541952
0.523986
0.548332
0.562484
0.56354
0.559003
0.555025
0.554062
0.554809
0.557262
0.563051
0.571767
0.582712
0.596584
0.614706
0.637102
0.665279
0.698084
0.740353
0.796421
0.871095
0.992824
1.13164
3.00001
3.00001
3.00001
3.00001
3.00001
3.00001
3.00001
3.00001
3.00001
3.00001
3.00001
3.00001
3.00001
3
2.99999
2.99998
2.99991
2.99984
2.99914
2.99846
2.99126
2.993
2.94879
2.86699
2.62149
2.10467
1.22357
0.729738
0.582491
0.585759
0.597555
0.606218
0.606153
0.603552
0.602588
0.604707
0.609634
0.616624
0.626638
0.639465
0.655404
0.675742
0.701722
0.733158
0.773048
0.819275
0.879574
0.952138
1.05418
1.16561
3.00001
3.00001
3.00001
3.00001
3.00001
3.00001
3.00001
3.00001
3.00001
3.00001
3.00001
3.00001
3.00001
3
2.99999
2.99998
2.99988
2.99983
2.99909
2.99833
2.99107
2.99446
2.95649
2.96913
2.7857
2.43913
1.71193
0.967834
0.60909
0.598467
0.619322
0.639572
0.64566
0.646053
0.647127
0.651306
0.658503
0.667806
0.678801
0.692771
0.710082
0.731154
0.757979
0.790514
0.830836
0.87791
0.934588
1.00117
1.08539
1.17287
3.00001
3.00001
3.00001
3.00001
3.00001
3.00001
3.00001
3.00001
3.00001
3.00001
3.00001
3.00001
3.00001
3
3
2.99998
2.99996
2.99983
2.99969
2.99886
2.99751
2.99181
2.98193
2.9418
2.85827
2.6022
1.96988
1.20478
0.703186
0.624936
0.642307
0.663706
0.675445
0.678673
0.681503
0.687352
0.696286
0.707666
0.72142
0.73787
0.757231
0.779987
0.80633
0.83846
0.876372
0.92061
0.972066
1.03117
1.10203
1.1746
3.00001
3.00001
3.00001
3.00001
3.00001
3.00001
3.00001
3.00001
3.00001
3.00001
3.00001
3.00001
3.00001
3.00001
3
2.99999
2.99998
2.99986
2.99978
2.99902
2.99797
2.99062
2.99453
2.95265
2.9697
2.77798
2.42142
1.68697
0.982098
0.68247
0.673032
0.692719
0.708999
0.714994
0.718408
0.724058
0.732828
0.744176
0.757868
0.774394
0.794027
0.817097
0.843578
0.874048
0.909911
0.950649
0.996656
1.04918
1.11001
1.17223
3.00001
3.00001
3.00001
3.00001
3.00001
3.00001
3.00001
3.00001
3.00001
3.00001
3.00001
3.00001
3.00001
3.00001
3.00001
3
3
2.99995
2.99989
2.99962
2.9989
2.99738
2.99236
2.98202
2.94658
2.86391
2.63982
2.021
1.30131
0.783187
0.698745
0.711451
0.729464
0.744059
0.7503
0.755952
0.765341
0.778149
0.792931
0.809401
0.828318
0.849899
0.874338
0.901993
0.934148
0.971613
1.01274
1.06003
1.11333
1.16794
3.00001
3.00001
3.00001
3.00001
3.00001
3.00001
3.00001
3.00001
3.00001
3.00001
3.00001
3.00001
3.00001
3.00001
3.00001
3
3
2.99997
2.99995
2.99977
2.99955
2.9979
2.99714
2.98604
2.98195
2.92236
2.77501
2.4386
1.79941
1.01914
0.758794
0.740973
0.756396
0.772105
0.781122
0.786603
0.79419
0.805746
0.820476
0.837584
0.856827
0.877823
0.901575
0.927101
0.9554
0.988126
1.02495
1.06643
1.11394
1.16156
3.00001
3.00001
3.00001
3.00001
3.00001
3.00001
3.00001
3.00001
3.00001
3.00001
3.00001
3.00001
3.00001
3.00001
3.00001
3
3
2.99998
2.99995
2.99975
2.99974
2.99941
2.99896
2.99511
2.99284
2.96346
2.91247
2.69017
2.22587
1.43143
0.953268
0.807351
0.797734
0.806283
0.816502
0.825325
0.832998
0.842272
0.855126
0.87099
0.889037
0.909697
0.931637
0.956324
0.981479
1.00922
1.04032
1.0763
1.11836
1.16016
3.00001
3.00001
3.00001
3.00001
3.00001
3.00001
3.00001
3.00001
3.00001
3.00001
3.00001
3.00001
3.00001
3.00001
3.00001
3.00001
3
3
2.99999
2.99994
2.99985
2.99956
2.99813
2.99776
2.98667
2.98078
2.94442
2.84368
2.57911
2.00315
1.2517
0.935252
0.856403
0.846134
0.853027
0.862926
0.873133
0.883661
0.895431
0.909991
0.925867
0.944619
0.964757
0.987182
1.01164
1.03749
1.06542
1.09498
1.13033
1.16592
3.00001
3.00001
3.00001
3.00001
3.00001
3.00001
3.00001
3.00001
3.00001
3.00001
3.00001
3.00001
3.00001
3.00001
3.00001
3.00001
3.00001
3.00001
3
2.99999
2.99992
2.99987
2.9994
2.99824
2.99679
2.9872
2.97455
2.92531
2.81308
2.50427
1.88369
1.22344
0.937659
0.902983
0.897768
0.902397
0.911997
0.921604
0.93189
0.945079
0.959881
0.976914
0.995597
1.01599
1.03852
1.06238
1.08875
1.11662
1.14792
1.17957
3.00001
3.00001
3.00001
3.00001
3.00001
3.00001
3.00001
3.00001
3.00001
3.00001
3.00001
3.00001
3.00001
3.00001
3.00001
3.00001
3.00001
3
3
2.99999
2.99994
2.99992
2.99959
2.99938
2.99759
2.99639
2.98555
2.97429
2.92216
2.79248
2.45445
1.78048
1.18576
0.958457
0.932519
0.93621
0.94751
0.959051
0.968497
0.97798
0.98926
1.00332
1.02001
1.03853
1.05919
1.08158
1.10581
1.13194
1.16112
1.19004
3.00001
3.00001
3.00001
3.00001
3.00001
3.00001
3.00001
3.00001
3.00001
3.00001
3.00001
3.00001
3.00001
3.00001
3.00001
3.00001
3.00001
3.00001
3
3
2.99999
2.99993
2.99988
2.99957
2.9993
2.99775
2.99547
2.99298
2.96387
2.89625
2.76809
2.36876
1.68803
1.17175
0.988214
0.967876
0.972805
0.985769
1.00085
1.0123
1.02195
1.0328
1.04583
1.06151
1.0795
1.09939
1.12103
1.14476
1.17161
1.19854
3.00001
3.00001
3.00001
3.00001
3.00001
3.00001
3.00001
3.00001
3.00001
3.00001
3.00001
3.00001
3.00001
3.00001
3.00001
3.00001
3.00001
3.00001
3.00001
3
2.99999
2.99998
2.99991
2.99988
2.99955
2.9991
2.99718
2.99469
2.98422
2.96324
2.89021
2.73275
2.30863
1.64578
1.1938
1.02991
1.00636
1.0107
1.02351
1.03827
1.0512
1.06384
1.07599
1.08926
1.10391
1.12108
1.13965
1.16031
1.18416
1.2082
3.00001
3.00001
3.00001
3.00001
3.00001
3.00001
3.00001
3.00001
3.00001
3.00001
3.00001
3.00001
3.00001
3.00001
3.00001
3.00001
3.00001
3.00001
3.00001
3.00001
3
3
2.99999
2.99994
2.99994
2.99963
2.99941
2.99702
2.9961
2.9776
2.98743
2.87849
2.71192
2.24788
1.63889
1.16073
1.05093
1.03348
1.04139
1.05492
1.07107
1.0856
1.09816
1.11108
1.12573
1.14079
1.15946
1.17799
1.19941
1.22108
3.00001
3.00001
3.00001
3.00001
3.00001
3.00001
3.00001
3.00001
3.00001
3.00001
3.00001
3.00001
3.00001
3.00001
3.00001
3.00001
3.00001
3.00001
3.00001
3.00001
3.00001
3
3
2.99999
2.99996
2.99993
2.99973
2.99945
2.99763
2.99661
2.9832
2.98893
2.88594
2.72645
2.26888
1.65412
1.16754
1.0819
1.06861
1.07545
1.08601
1.10052
1.11567
1.12985
1.14429
1.15895
1.17505
1.19419
1.21528
1.23821
3.00001
3.00001
3.00001
3.00001
3.00001
3.00001
3.00001
3.00001
3.00001
3.00001
3.00001
3.00001
3.00001
3.00001
3.00001
3.00001
3.00001
3.00001
3.00001
3.00001
3.00001
3
3
2.99999
2.99999
2.99993
2.99988
2.9996
2.99915
2.9973
2.99435
2.98365
2.95916
2.88124
2.73514
2.34924
1.69984
1.30465
1.15954
1.13448
1.13181
1.13769
1.14939
1.16271
1.1753
1.18815
1.2013
1.21679
1.2349
1.25459
3.00001
3.00001
3.00001
3.00001
3.00001
3.00001
3.00001
3.00001
3.00001
3.00001
3.00001
3.00001
3.00001
3.00001
3.00001
3.00001
3.00001
3.00001
3.00001
3.00001
3.00001
3.00001
3.00001
3.00001
3
3
2.99996
2.99991
2.99973
2.99921
2.99797
2.99582
2.98313
2.9737
2.91561
2.7824
2.44859
1.8847
1.43133
1.22122
1.17802
1.17317
1.17833
1.18997
1.20322
1.21662
1.22974
1.24335
1.25822
1.27363
3.00001
3.00001
3.00001
3.00001
3.00001
3.00001
3.00001
3.00001
3.00001
3.00001
3.00001
3.00001
3.00001
3.00001
3.00001
3.00001
3.00001
3.00001
3.00001
3.00001
3.00001
3.00001
3.00001
3.00001
3
3
2.99998
2.99996
2.99985
2.99978
2.99953
2.9979
2.99701
2.98463
2.98101
2.92618
2.83007
2.48775
2.023
1.48987
1.27628
1.2241
1.21868
1.22176
1.22901
1.24046
1.25493
1.26851
1.2853
1.30007
3.00001
3.00001
3.00001
3.00001
3.00001
3.00001
3.00001
3.00001
3.00001
3.00001
3.00001
3.00001
3.00001
3.00001
3.00001
3.00001
3.00001
3.00001
3.00001
3.00001
3.00001
3.00001
3.00001
3.00001
3.00001
3
3
2.99998
2.99998
2.99987
2.99982
2.99923
2.99887
2.99529
2.99273
2.97448
2.95036
2.8436
2.64952
2.21076
1.70247
1.41009
1.3018
1.27089
1.26699
1.27077
1.28089
1.2934
1.30717
1.32454
3.00001
3.00001
3.00001
3.00001
3.00001
3.00001
3.00001
3.00001
3.00001
3.00001
3.00001
3.00001
3.00001
3.00001
3.00001
3.00001
3.00001
3.00001
3.00001
3.00001
3.00001
3.00001
3.00001
3.00001
3.00001
3.00001
3.00001
3
3
2.99999
2.99993
2.99992
2.99962
2.99966
2.99772
2.99666
2.98492
2.96165
2.91114
2.76521
2.43387
1.99146
1.5567
1.36462
1.32268
1.31484
1.31686
1.32274
1.33374
1.34891
3.00001
3.00001
3.00001
3.00001
3.00001
3.00001
3.00001
3.00001
3.00001
3.00001
3.00001
3.00001
3.00001
3.00001
3.00001
3.00001
3.00001
3.00001
3.00001
3.00001
3.00001
3.00001
3.00001
3.00001
3.00001
3.00001
3.00001
3.00001
3
3
2.99998
2.99997
2.99987
2.9998
2.9994
2.99825
2.99703
2.98486
2.98383
2.94832
2.87925
2.63616
2.24866
1.80062
1.52236
1.40195
1.37163
1.36674
1.37128
1.38024
3.00001
3.00001
3.00001
3.00001
3.00001
3.00001
3.00001
3.00001
3.00001
3.00001
3.00001
3.00001
3.00001
3.00001
3.00001
3.00001
3.00001
3.00001
3.00001
3.00001
3.00001
3.00001
3.00001
3.00001
3.00001
3.00001
3.00001
3.00001
3.00001
3.00001
3
3
2.99999
2.99994
2.9999
2.99967
2.99946
2.99744
2.99745
2.98761
3.00378
2.91604
2.80499
2.52358
2.1482
1.73842
1.52437
1.44566
1.42649
1.42631
3.00001
3.00001
3.00001
3.00001
3.00001
3.00001
3.00001
3.00001
3.00001
3.00001
3.00001
3.00001
3.00001
3.00001
3.00001
3.00001
3.00001
3.00001
3.00001
3.00001
3.00001
3.00001
3.00001
3.00001
3.00001
3.00001
3.00001
3.00001
3.00001
3.00001
3.00001
3.00001
3
3
2.99997
2.99994
2.99978
2.99971
2.99875
2.99814
2.99235
2.9881
2.95682
2.9097
2.77342
2.47386
2.12797
1.77694
1.57056
1.51515
3.00001
3.00001
3.00001
3.00001
3.00001
3.00001
3.00001
3.00001
3.00001
3.00001
3.00001
3.00001
3.00001
3.00001
3.00001
3.00001
3.00001
3.00001
3.00001
3.00001
3.00001
3.00001
3.00001
3.00001
3.00001
3.00001
3.00001
3.00001
3.00001
3.00001
3.00001
3.00001
3.00001
3
3
2.99999
2.99999
2.99987
2.99989
2.9994
2.99831
2.99715
2.98836
2.98612
2.93392
2.92451
2.7546
2.50449
2.17636
1.88116
3.00001
3.00001
3.00001
3.00001
3.00001
3.00001
3.00001
3.00001
3.00001
3.00001
3.00001
3.00001
3.00001
3.00001
3.00001
3.00001
3.00001
3.00001
3.00001
3.00001
3.00001
3.00001
3.00001
3.00001
3.00001
3.00001
3.00001
3.00001
3.00001
3.00001
3.00001
3.00001
3.00001
3.00001
3
3
2.99999
2.99999
2.99992
2.99991
2.99952
2.99944
2.99742
2.99704
2.98754
2.98712
2.96269
2.92242
2.75015
2.50228
3.00001
3.00001
3.00001
3.00001
3.00001
3.00001
3.00001
3.00001
3.00001
3.00001
3.00001
3.00001
3.00001
3.00001
3.00001
3.00001
3.00001
3.00001
3.00001
3.00001
3.00001
3.00001
3.00001
3.00001
3.00001
3.00001
3.00001
3.00001
3.00001
3.00001
3.00001
3.00001
3.00001
3.00001
3.00001
3.00001
3
3
2.99998
2.99998
2.99987
2.99986
2.99928
2.99907
2.99611
2.99475
2.97976
2.97476
2.92702
2.86442
3.00001
3.00001
3.00001
3.00001
3.00001
3.00001
3.00001
3.00001
3.00001
3.00001
3.00001
3.00001
3.00001
3.00001
3.00001
3.00001
3.00001
3.00001
3.00001
3.00001
3.00001
3.00001
3.00001
3.00001
3.00001
3.00001
3.00001
3.00001
3.00001
3.00001
3.00001
3.00001
3.00001
3.00001
3.00001
3.00001
3.00001
3.00001
3.00001
3
3
3.00001
3.00009
3.00001
3.00067
2.99756
3.0107
2.99117
2.97256
2.89823
3.00001
3.00001
3.00001
3.00001
3.00001
3.00001
3.00001
3.00001
3.00001
3.00001
3.00001
3.00001
3.00001
3.00001
3.00001
3.00001
3.00001
3.00001
3.00001
3.00001
3.00001
3.00001
3.00001
3.00001
3.00001
3.00001
3.00001
3.00001
3.00001
3.00001
3.00001
3.00001
3.00001
3.00001
3.00001
3.00001
3.00001
3.00001
3.00001
3
3.00001
3.00001
3.0001
3.00008
3.00057
2.99931
3.00531
2.99683
2.98911
2.9546
3.00001
3.00001
3.00001
3.00001
3.00001
3.00001
3.00001
3.00001
3.00001
3.00001
3.00001
3.00001
3.00001
3.00001
3.00001
3.00001
3.00001
3.00001
3.00001
3.00001
3.00001
3.00001
3.00001
3.00001
3.00001
3.00001
3.00001
3.00001
3.00001
3.00001
3.00001
3.00001
3.00001
3.00001
3.00001
3.00001
3.00001
3.00001
3.00001
3.00001
3.00001
3.00001
3.00005
3.00005
3.00026
2.99971
3.00233
2.99854
2.99488
2.9801
3.00001
3.00001
3.00001
3.00001
3.00001
3.00001
3.00001
3.00001
3.00001
3.00001
3.00001
3.00001
3.00001
3.00001
3.00001
3.00001
3.00001
3.00001
3.00001
3.00001
3.00001
3.00001
3.00001
3.00001
3.00001
3.00001
3.00001
3.00001
3.00001
3.00001
3.00001
3.00001
3.00001
3.00001
3.00001
3.00001
3.00001
3.00001
3.00001
3.00001
3.00001
3.00001
3.00003
3.00003
3.00012
2.99989
3.00102
2.99938
2.99786
2.99133
3.00001
3.00001
3.00001
3.00001
3.00001
3.00001
3.00001
3.00001
3.00001
3.00001
3.00001
3.00001
3.00001
3.00001
3.00001
3.00001
3.00001
3.00001
3.00001
3.00001
3.00001
3.00001
3.00001
3.00001
3.00001
3.00001
3.00001
3.00001
3.00001
3.00001
3.00001
3.00001
3.00001
3.00001
3.00001
3.00001
3.00001
3.00001
3.00001
3.00001
3.00001
3.00001
3.00002
3.00001
3.00005
2.99995
3.00045
2.99972
2.99904
2.99619
3.00001
3.00001
3.00001
3.00001
3.00001
3.00001
3.00001
3.00001
3.00001
3.00001
3.00001
3.00001
3.00001
3.00001
3.00001
3.00001
3.00001
3.00001
3.00001
3.00001
3.00001
3.00001
3.00001
3.00001
3.00001
3.00001
3.00001
3.00001
3.00001
3.00001
3.00001
3.00001
3.00001
3.00001
3.00001
3.00001
3.00001
3.00001
3.00001
3.00001
3.00001
3.00001
3.00001
3.00001
3.00003
2.99998
3.0002
2.99989
2.9996
2.99836
3.00001
3.00001
3.00001
3.00001
3.00001
3.00001
3.00001
3.00001
3.00001
3.00001
3.00001
3.00001
3.00001
3.00001
3.00001
3.00001
3.00001
3.00001
3.00001
3.00001
3.00001
3.00001
3.00001
3.00001
3.00001
3.00001
3.00001
3.00001
3.00001
3.00001
3.00001
3.00001
3.00001
3.00001
3.00001
3.00001
3.00001
3.00001
3.00001
3.00001
3.00001
3.00001
3.00001
3.00001
3.00001
2.99999
3.00008
2.99995
2.99982
2.99929
3.00001
3.00001
3.00001
3.00001
3.00001
3.00001
3.00001
3.00001
3.00001
3.00001
3.00001
3.00001
3.00001
3.00001
3.00001
3.00001
3.00001
3.00001
3.00001
3.00001
3.00001
3.00001
3.00001
3.00001
3.00001
3.00001
3.00001
3.00001
3.00001
3.00001
3.00001
3.00001
3.00001
3.00001
3.00001
3.00001
3.00001
3.00001
3.00001
3.00001
3.00001
3.00001
3.00001
3.00001
3.00001
3
3.00005
2.99999
2.99994
2.9997
3.00001
3.00001
3.00001
3.00001
3.00001
3.00001
3.00001
3.00001
3.00001
3.00001
3.00001
3.00001
3.00001
3.00001
3.00001
3.00001
3.00001
3.00001
3.00001
3.00001
3.00001
3.00001
3.00001
3.00001
3.00001
3.00001
3.00001
3.00001
3.00001
3.00001
3.00001
3.00001
3.00001
3.00001
3.00001
3.00001
3.00001
3.00001
3.00001
3.00001
3.00001
3.00001
3.00001
3.00001
3.00001
3.00001
3.00002
3
2.99998
2.99988
3.00001
3.00001
3.00001
3.00001
3.00001
3.00001
3.00001
3.00001
3.00001
3.00001
3.00001
3.00001
3.00001
3.00001
3.00001
3.00001
3.00001
3.00001
3.00001
3.00001
3.00001
3.00001
3.00001
3.00001
3.00001
3.00001
3.00001
3.00001
3.00001
3.00001
3.00001
3.00001
3.00001
3.00001
3.00001
3.00001
3.00001
3.00001
3.00001
3.00001
3.00001
3.00001
3.00001
3.00001
3.00001
3.00001
3
3
2.99999
2.99998
3.00001
3.00001
3.00001
3.00001
3.00001
3.00001
3.00001
3.00001
3.00001
3.00001
3.00001
3.00001
3.00001
3.00001
3.00001
3.00001
3.00001
3.00001
3.00001
3.00001
3.00001
3.00001
3.00001
3.00001
3.00001
3.00001
3.00001
3.00001
3.00001
3.00001
3.00001
3.00001
3.00001
3.00001
3.00001
3.00001
3.00001
3.00001
3.00001
3.00001
3.00001
3.00001
3.00001
3.00001
3.00001
3.00001
3.00001
3.00001
3
3
3.00001
3.00001
3.00001
3.00001
3.00001
3.00001
3.00001
3.00001
3.00001
3.00001
3.00001
3.00001
3.00001
3.00001
3.00001
3.00001
3.00001
3.00001
3.00001
3.00001
3.00001
3.00001
3.00001
3.00001
3.00001
3.00001
3.00001
3.00001
3.00001
3.00001
3.00001
3.00001
3.00001
3.00001
3.00001
3.00001
3.00001
3.00001
3.00001
3.00001
3.00001
3.00001
3.00001
3.00001
3.00001
3.00001
3.00001
3.00001
3.00001
3
3.00001
3.00001
3.00001
3.00001
3.00001
3.00001
3.00001
3.00001
3.00001
3.00001
3.00001
3.00001
3.00001
3.00001
3.00001
3.00001
3.00001
3.00001
3.00001
3.00001
3.00001
3.00001
3.00001
3.00001
3.00001
3.00001
3.00001
3.00001
3.00001
3.00001
3.00001
3.00001
3.00001
3.00001
3.00001
3.00001
3.00001
3.00001
3.00001
3.00001
3.00001
3.00001
3.00001
3.00001
3.00001
3.00001
3.00001
3.00001
3.00001
3
1.44887
1.61487
1.65472
1.6075
1.51364
1.41116
1.30352
1.20844
1.17554
1.17344
1.17941
1.18303
1.18347
1.18387
1.18331
1.18135
1.18242
1.18647
1.19206
1.19794
1.20485
1.21278
1.22134
1.2299
1.23818
1.24633
1.25443
1.26249
1.27049
1.27843
1.28626
1.29401
1.30183
1.30988
1.31813
1.32656
1.33518
1.34392
1.35274
1.36158
1.3704
1.37919
1.38791
1.3966
1.40523
1.41395
1.42263
1.43146
1.44012
1.44889
1.45715
1.46543
1.47299
1.48056
1.48741
1.49437
1.50076
1.50722
1.51317
1.519
1.52447
1.52963
1.53457
1.53888
1.54314
1.54668
1.55034
1.55342
1.55638
1.55872
1.56114
1.56296
1.56481
1.5662
1.56771
1.56873
1.56981
1.57041
1.57108
1.57104
1.57139
1.57166
1.57296
1.57474
1.57785
1.58314
1.58596
1.59214
1.59517
1.6011
1.60412
1.61077
1.61523
1.62527
1.63335
1.65195
1.66591
1.69724
1.71522
1.76755
1.41747
1.51922
1.55785
1.57489
1.59272
1.62366
1.65762
1.66193
1.64993
1.62453
1.58779
1.56643
1.55416
1.55831
1.56212
1.5667
1.5711
1.57459
1.57819
1.58192
1.5859
1.59044
1.59582
1.60192
1.60836
1.61459
1.62049
1.62598
1.63132
1.6366
1.64193
1.64737
1.65299
1.65879
1.66479
1.67099
1.67735
1.68387
1.69051
1.69724
1.70402
1.71086
1.71785
1.72509
1.73244
1.73978
1.74696
1.75394
1.76064
1.76717
1.77353
1.77979
1.78606
1.79234
1.79857
1.80465
1.81045
1.81597
1.82116
1.82593
1.8303
1.8343
1.83791
1.84115
1.8441
1.84678
1.84912
1.85108
1.85274
1.85424
1.85554
1.85642
1.857
1.85738
1.85756
1.85741
1.85703
1.85641
1.85557
1.85437
1.8527
1.8511
1.84935
1.84787
1.84644
1.84603
1.84567
1.84758
1.84835
1.85243
1.85436
1.85975
1.86169
1.86717
1.86937
1.8755
1.87861
1.88693
1.89067
1.90647
1.37183
1.46309
1.53785
1.61286
1.695
1.77327
1.82731
1.84213
1.84158
1.83122
1.80614
1.78081
1.75811
1.74845
1.74144
1.74439
1.74729
1.75058
1.75446
1.75856
1.76274
1.7673
1.77224
1.77744
1.7828
1.78797
1.79254
1.79673
1.80091
1.80521
1.80976
1.8146
1.81968
1.82489
1.83018
1.83552
1.84088
1.84625
1.85165
1.85715
1.86281
1.86864
1.87464
1.88079
1.88702
1.89327
1.8995
1.90565
1.91166
1.91749
1.92312
1.92849
1.93365
1.93869
1.94367
1.94854
1.95327
1.95805
1.9629
1.96748
1.97171
1.97553
1.97892
1.98191
1.98462
1.98699
1.98901
1.99076
1.99215
1.99327
1.99416
1.99463
1.99499
1.99497
1.99482
1.99442
1.99371
1.99273
1.9916
1.99004
1.9879
1.98584
1.98367
1.98178
1.97977
1.97822
1.97698
1.97736
1.97724
1.9798
1.98063
1.98435
1.98529
1.98899
1.98986
1.99383
1.99513
2.00057
2.00284
2.01708
1.34698
1.44038
1.52304
1.60158
1.67407
1.74137
1.7994
1.85317
1.89143
1.91282
1.91571
1.91539
1.90548
1.89396
1.87806
1.87023
1.86269
1.86439
1.86714
1.87006
1.87388
1.87835
1.88277
1.88718
1.89169
1.89611
1.9005
1.90497
1.90965
1.9146
1.91973
1.92497
1.93028
1.93559
1.94074
1.94561
1.95042
1.95522
1.96009
1.96514
1.97038
1.97577
1.98126
1.98679
1.99229
1.99771
2.00304
2.00825
2.01328
2.01813
2.02278
2.02726
2.0316
2.03583
2.03992
2.04382
2.04759
2.0512
2.0546
2.05781
2.06084
2.06365
2.0662
2.06848
2.07053
2.07236
2.07395
2.07535
2.07657
2.07758
2.07837
2.07888
2.07911
2.07915
2.07908
2.07868
2.07767
2.07673
2.07555
2.07419
2.0724
2.07074
2.06902
2.06745
2.066
2.06557
2.06495
2.06616
2.06619
2.06867
2.0691
2.07182
2.07205
2.07472
2.07509
2.0783
2.07952
2.08514
2.08763
2.10254
1.32308
1.41502
1.49713
1.57469
1.64666
1.71441
1.77781
1.83701
1.8913
1.93694
1.96375
1.97854
1.98145
1.98169
1.97536
1.96802
1.95761
1.95202
1.9452
1.94511
1.94598
1.9476
1.94962
1.9531
1.95767
1.96243
1.96726
1.97214
1.97739
1.98323
1.98924
1.99526
2.00119
2.00696
2.01254
2.01807
2.02363
2.02899
2.03409
2.03925
2.04444
2.04957
2.05461
2.05954
2.0644
2.06928
2.07427
2.07941
2.08461
2.08984
2.09495
2.09981
2.10432
2.10829
2.11175
2.1148
2.11744
2.11984
2.12211
2.12425
2.12627
2.12817
2.12994
2.13154
2.13305
2.13435
2.13563
2.13683
2.13783
2.13869
2.13945
2.13989
2.14023
2.13999
2.13945
2.13908
2.13855
2.1375
2.13638
2.13537
2.13409
2.13294
2.13166
2.13061
2.12979
2.1301
2.13
2.13171
2.13198
2.13395
2.13407
2.13586
2.13576
2.13764
2.138
2.14112
2.14292
2.14997
2.15384
2.17248
1.30276
1.38714
1.46498
1.54034
1.61274
1.68081
1.74435
1.80387
1.85737
1.9072
1.95258
1.99031
2.01484
2.0316
2.03699
2.03787
2.03628
2.03109
2.02164
2.01652
2.00897
2.00818
2.00859
2.00935
2.0114
2.01557
2.02048
2.02568
2.03142
2.0376
2.04395
2.05019
2.05619
2.06193
2.06749
2.07299
2.07853
2.08411
2.08941
2.0942
2.09889
2.10368
2.10872
2.11406
2.11969
2.12562
2.13178
2.138
2.14415
2.1502
2.15609
2.16167
2.16667
2.17064
2.17376
2.1763
2.17849
2.18049
2.18244
2.18434
2.18627
2.18817
2.18996
2.19153
2.19295
2.19404
2.19496
2.19565
2.19606
2.19619
2.19621
2.19588
2.19547
2.1949
2.19405
2.19319
2.19257
2.19247
2.19178
2.19128
2.19068
2.19008
2.18942
2.18919
2.18877
2.18938
2.1893
2.19071
2.19076
2.19232
2.19225
2.19386
2.19404
2.19626
2.19731
2.20172
2.2047
2.21409
2.21938
2.24059
1.28393
1.36245
1.43517
1.50545
1.57386
1.6402
1.70402
1.76469
1.82199
1.87573
1.92545
1.97147
2.01168
2.0428
2.0632
2.07686
2.08101
2.08237
2.08063
2.07768
2.07036
2.0659
2.05866
2.05704
2.0562
2.0575
2.06034
2.06435
2.06988
2.07656
2.0834
2.0902
2.09677
2.10294
2.1086
2.11395
2.11929
2.12448
2.12909
2.13337
2.13799
2.14309
2.14872
2.1548
2.16109
2.16764
2.17467
2.18164
2.18807
2.19409
2.19982
2.20492
2.20892
2.21207
2.21485
2.21744
2.22003
2.22255
2.225
2.22742
2.22969
2.23173
2.23351
2.2349
2.23595
2.23662
2.23704
2.2372
2.23699
2.23663
2.23623
2.23561
2.23502
2.23447
2.23391
2.23351
2.23317
2.23318
2.23325
2.23325
2.23291
2.23257
2.23202
2.23168
2.23127
2.23163
2.23159
2.2328
2.23302
2.23479
2.23524
2.23756
2.2386
2.24247
2.24504
2.25241
2.25763
2.2711
2.27827
2.30369
1.26531
1.34005
1.41018
1.47766
1.5426
1.60563
1.66714
1.72618
1.78335
1.83733
1.88855
1.9365
1.98081
2.02167
2.0576
2.08372
2.10245
2.11497
2.11943
2.12043
2.11836
2.11528
2.1091
2.10327
2.09803
2.09677
2.09822
2.10057
2.10407
2.10963
2.11653
2.12406
2.13158
2.13853
2.14454
2.14989
2.15507
2.15977
2.16382
2.16805