/*--------------------------------*- C++ -*----------------------------------*\
| =========                 |                                                 |
| \\      /  F ield         | OpenFOAM: The Open Source CFD Toolbox           |
|  \\    /   O peration     | Version:  2112                                  |
|   \\  /    A nd           | Website:  www.openfoam.com                      |
|    \\/     M anipulation  |                                                 |
\*---------------------------------------------------------------------------*/
FoamFile
{
    version     2.0;
    format      ascii;
    arch        "LSB;label=32;scalar=64";
    class       surfaceScalarField;
    location    "1.0005";
    object      phi;
}
// * * * * * * * * * * * * * * * * * * * * * * * * * * * * * * * * * * * * * //

dimensions      [1 0 -1 0 0 0 0];

oriented        oriented;

internalField   nonuniform List<scalar> 
13790
(
0.00290515
5.66336e-09
0.00290514
2.87621e-09
0.00290514
1.05547e-09
0.00290514
2.21353e-10
0.00290514
4.11416e-10
0.00290514
7.97916e-10
0.00290514
1.10323e-09
0.00290514
1.32333e-09
0.00290514
1.4447e-09
0.00290514
1.47486e-09
0.00290514
1.44432e-09
0.00290514
1.24093e-09
0.00290513
7.46107e-10
0.00290513
2.64681e-10
0.00290513
9.26899e-09
0.00290479
2.48772e-08
0.00290587
5.24362e-08
0.002904
1.78394e-07
0.00290821
4.59685e-07
0.00287454
-2.47441e-06
0.00289424
3.14474e-06
0.00290807
-1.37138e-05
0.00291068
-3.58465e-06
0.00288418
-2.05106e-05
0.0026801
9.71361e-05
0.00254984
0.000122138
0.00239519
0.000151123
0.00224646
0.000156124
0.00211373
0.000146288
0.00200072
0.000127614
0.00189897
0.000108934
0.00179947
9.59592e-05
0.00170688
8.80465e-05
0.00161969
8.42419e-05
0.00152911
8.25131e-05
0.00143171
8.15237e-05
0.00133367
8.1437e-05
0.00124144
8.33382e-05
0.00115285
8.78357e-05
0.00106334
9.40947e-05
0.000971895
0.000100796
0.000873147
0.000106086
0.000764883
0.000108185
0.000660736
0.00010719
0.000558019
0.000107464
0.000454902
0.000106536
0.000354152
0.000106249
0.000243137
0.000114289
0.000116889
0.000117733
0.000117588
0.00301309
6.48412e-09
0.00301309
4.74487e-09
0.00301309
3.37425e-09
0.00301309
2.44389e-09
0.00301308
2.3008e-09
0.00301308
2.38496e-09
0.00301308
2.49631e-09
0.00301308
2.56005e-09
0.00301308
2.67104e-09
0.00301308
2.7631e-09
0.00301308
2.74595e-09
0.00301308
2.58322e-09
0.00301307
2.98618e-10
0.00301308
-3.6792e-09
0.00301307
-3.10384e-09
0.00301277
-1.07656e-10
0.00301392
-2.6003e-08
0.00301212
7.41291e-08
0.0030188
-1.64491e-07
0.00294699
4.30398e-07
0.0030241
-1.51748e-06
0.00279951
1.87382e-06
0.00300103
-1.78845e-05
0.0029519
-9.69973e-06
0.00273261
0.000204611
0.00259392
0.00025359
0.00245503
0.000287154
0.00232416
0.000296304
0.00220643
0.000278976
0.00210069
0.000248694
0.00199835
0.000218317
0.00189246
0.000196915
0.00179114
0.000183409
0.00169515
0.000176188
0.00159669
0.000172442
0.00149191
0.000170438
0.00138625
0.000170605
0.00128611
0.000174702
0.00118981
0.000183514
0.00109355
0.000195142
0.000996586
0.000207284
0.000893043
0.000216667
0.000780541
0.000220502
0.000671415
0.000219761
0.000562712
0.00022089
0.000453257
0.000219572
0.000344495
0.000220862
0.000230416
0.000231095
0.000106492
0.000232993
0.000224783
0.00312505
6.81497e-09
0.00312504
6.03603e-09
0.00312504
5.33538e-09
0.00312504
4.57876e-09
0.00312504
4.25506e-09
0.00312504
4.10206e-09
0.00312503
3.99279e-09
0.00312503
3.89459e-09
0.00312503
3.78969e-09
0.00312503
3.66729e-09
0.00312503
3.53501e-09
0.00312503
3.20811e-09
0.00312503
1.92262e-09
0.00312502
-8.33562e-10
0.00312501
5.76819e-09
0.00312483
1.32614e-08
0.00312493
4.18202e-08
0.00312431
2.40326e-07
0.00312164
-2.44837e-08
0.00317847
-3.98719e-06
0.00312416
2.65462e-06
0.00314834
-5.30004e-06
0.00311499
-9.11865e-07
0.0030283
1.02251e-05
0.00279283
0.000331007
0.00265539
0.000387956
0.0025192
0.000423132
0.00239491
0.000433378
0.002279
0.000410916
0.00217238
0.000368681
0.00206865
0.000327776
0.00196187
0.000297797
0.00185996
0.000279196
0.00176247
0.000268962
0.00166174
0.000263641
0.00155433
0.000261245
0.00144582
0.00026255
0.0013423
0.000269837
0.00124179
0.000283706
0.00114081
0.000301265
0.00103885
0.000319082
0.000930108
0.000332835
0.000811844
0.000338232
0.00069684
0.000338522
0.00058174
0.00034047
0.000466164
0.000338835
0.00035195
0.00034133
0.000233657
0.000351763
0.000108561
0.000349184
0.000333755
0.00324116
6.64763e-09
0.00324116
6.41522e-09
0.00324116
6.30502e-09
0.00324115
6.11242e-09
0.00324115
5.88184e-09
0.00324115
5.67908e-09
0.00324115
5.48751e-09
0.00324115
5.30421e-09
0.00324115
5.12568e-09
0.00324115
4.95456e-09
0.00324115
4.7798e-09
0.00324115
4.38375e-09
0.00324114
3.67606e-09
0.00324114
1.713e-09
0.0032411
1.50192e-08
0.00324102
3.91054e-08
0.0032407
8.41467e-08
0.00324088
4.60422e-07
0.00323247
3.10294e-07
0.00327498
-1.27356e-06
0.00322428
3.18571e-06
0.00328829
-8.215e-06
0.00321627
1.56296e-05
0.00311773
3.19126e-05
0.00287814
0.000470528
0.0027315
0.000535684
0.00259305
0.000565021
0.0024715
0.00057019
0.002361
0.000538548
0.00225548
0.000486517
0.00215132
0.000436345
0.00204343
0.000399423
0.0019396
0.00037654
0.00183927
0.000363913
0.00173486
0.000357777
0.00162309
0.000355853
0.00150981
0.000359037
0.00140133
0.000369991
0.00129583
0.000389114
0.00119
0.000412574
0.00108322
0.000435982
0.000969936
0.000454136
0.000846072
0.000461428
0.000725507
0.000462881
0.00060479
0.000465371
0.000483697
0.000463896
0.000363964
0.000467366
0.000240746
0.000477027
0.000112535
0.000468483
0.000446328
0.00336158
6.41317e-09
0.00336158
6.46865e-09
0.00336158
6.77652e-09
0.00336158
7.10682e-09
0.00336158
7.09024e-09
0.00336158
7.00829e-09
0.00336158
6.86021e-09
0.00336158
6.6713e-09
0.00336157
6.45566e-09
0.00336157
6.23906e-09
0.00336157
6.03079e-09
0.00336157
5.65987e-09
0.00336157
4.40787e-09
0.00336158
1.49874e-09
0.00336153
1.01956e-08
0.0033614
2.02299e-08
0.0033614
1.06348e-07
0.0033592
7.00456e-07
0.00335724
1.34644e-07
0.00334384
5.23244e-07
0.00336321
2.66474e-06
0.00314431
6.35961e-06
0.00334162
1.49852e-05
0.00324722
6.56704e-05
0.00297595
0.000619496
0.00282075
0.000696865
0.0026812
0.000712478
0.0025647
0.000705305
0.00246176
0.000660204
0.00236082
0.000598187
0.00225774
0.000542733
0.00214826
0.000502758
0.00204046
0.00047762
0.00193505
0.000463463
0.00182521
0.000456912
0.00170783
0.000455805
0.00158861
0.000461303
0.0014739
0.00047637
0.00136198
0.000501134
0.00124963
0.000530691
0.00113628
0.000559718
0.00101672
0.000582513
0.000885489
0.000591545
0.000758167
0.000593801
0.000630592
0.000596983
0.000503688
0.000594814
0.000378815
0.000598621
0.000250657
0.00060708
0.000117177
0.000593029
0.000563154
0.00348648
6.12859e-09
0.00348648
6.23556e-09
0.00348648
6.78208e-09
0.00348648
7.36437e-09
0.00348648
7.77857e-09
0.00348648
7.89102e-09
0.00348648
7.87688e-09
0.00348648
7.77843e-09
0.00348648
7.62014e-09
0.00348648
7.44123e-09
0.00348648
7.26934e-09
0.00348648
6.97141e-09
0.00348647
5.47e-09
0.00348647
2.69307e-09
0.00348644
8.72141e-09
0.00348644
1.21228e-08
0.0034864
7.05842e-08
0.00348608
2.14805e-07
0.00348557
4.7256e-07
0.00353064
-1.32817e-06
0.00347838
6.12526e-06
0.00356326
3.2117e-06
0.00346431
3.19964e-05
0.00334836
9.36697e-05
0.00307535
0.000769633
0.00291541
0.000871482
0.00277821
0.000864571
0.0026694
0.000836514
0.00257473
0.000773962
0.00247978
0.000703571
0.00237769
0.000647502
0.00226582
0.000608697
0.00215309
0.000583276
0.00204185
0.000568394
0.0019259
0.000561799
0.00180218
0.000561768
0.0016765
0.000569917
0.00155519
0.000589469
0.00143647
0.000620182
0.00131707
0.000656121
0.00119649
0.000690847
0.00107028
0.000717995
0.000931747
0.000729216
0.000796861
0.000732325
0.000661941
0.000735758
0.000527825
0.000733052
0.000396185
0.000736761
0.00026149
0.000743513
0.000122729
0.000722708
0.000685227
0.00361602
5.82429e-09
0.00361602
5.92422e-09
0.00361602
6.60093e-09
0.00361602
7.27796e-09
0.00361602
8.1032e-09
0.00361602
8.36987e-09
0.00361602
8.52454e-09
0.00361602
8.56859e-09
0.00361602
8.52547e-09
0.00361602
8.43987e-09
0.00361602
8.34664e-09
0.00361602
8.13701e-09
0.00361602
6.43975e-09
0.00361602
3.56107e-09
0.00361599
6.47082e-09
0.00361598
6.88129e-09
0.00361595
4.86712e-08
0.00361535
1.56786e-07
0.00361665
3.28899e-07
0.00363335
-5.0864e-07
0.00360133
5.65523e-06
0.00376672
5.6409e-06
0.00355171
3.58207e-05
0.00350565
0.000120204
0.00318323
0.000932615
0.00301594
0.00106363
0.00288538
0.00101996
0.00278555
0.000962021
0.00269828
0.000879504
0.00260708
0.000803955
0.00250415
0.000751898
0.00238932
0.000717124
0.00227238
0.000692643
0.00215653
0.000677661
0.00203572
0.000671765
0.00190632
0.000673709
0.00177391
0.000685301
0.00164531
0.000709896
0.00151916
0.00074692
0.00139222
0.000789404
0.00126401
0.000829954
0.0011305
0.000861836
0.000983312
0.000875398
0.000839696
0.000878738
0.000697289
0.000881532
0.000556135
0.00087848
0.00041684
0.000882373
0.000275563
0.000886279
0.000128967
0.00085995
0.000813355
0.00375038
5.48964e-09
0.00375038
5.57839e-09
0.00375038
6.26581e-09
0.00375038
6.97496e-09
0.00375038
7.94423e-09
0.00375038
8.41908e-09
0.00375038
8.74577e-09
0.00375038
8.94751e-09
0.00375038
9.04325e-09
0.00375038
9.07492e-09
0.00375038
9.07531e-09
0.00375038
8.93039e-09
0.00375037
7.41058e-09
0.00375037
5.23389e-09
0.00375035
9.47747e-09
0.00375032
1.4173e-08
0.00375025
6.38532e-08
0.00374999
1.01088e-07
0.00375104
4.29387e-07
0.00376545
9.03503e-08
0.00373525
5.63e-06
0.00390775
5.14471e-06
0.00368698
4.02804e-05
0.00363336
0.000152098
0.00328969
0.00109936
0.0031226
0.00127082
0.00300681
0.00117446
0.00291898
0.00107897
0.00283892
0.00097679
0.00274947
0.000900995
0.00264269
0.000857546
0.00252388
0.000829173
0.00240263
0.000805916
0.00228256
0.000791064
0.00215753
0.0007866
0.00202296
0.000791724
0.00188387
0.000807968
0.00174748
0.000838464
0.00161299
0.000882309
0.00147726
0.000931608
0.00134018
0.000977915
0.00119857
0.00101438
0.00104292
0.00103055
0.000890033
0.00103429
0.000738069
0.00103732
0.000588292
0.00103245
0.000441028
0.0010353
0.000290501
0.00103793
0.000136498
0.00100445
0.000948891
0.00388972
5.12829e-09
0.00388972
5.22138e-09
0.00388972
5.86844e-09
0.00388972
6.58028e-09
0.00388972
7.56119e-09
0.00388972
8.16322e-09
0.00388972
8.6263e-09
0.00388972
8.94953e-09
0.00388972
9.14422e-09
0.00388972
9.24093e-09
0.00388972
9.27079e-09
0.00388972
9.15763e-09
0.00388972
7.4298e-09
0.00388972
5.88455e-09
0.00388971
7.71437e-09
0.00388968
1.52534e-08
0.00388959
5.32699e-08
0.00388953
9.30827e-09
0.00389048
4.21331e-07
0.00390183
9.03993e-07
0.00387935
4.52132e-06
0.00405843
1.15867e-06
0.00383675
5.0552e-05
0.00376071
0.000188461
0.00342019
0.00125331
0.00326233
0.00149085
0.00315945
0.00133362
0.00308189
0.00118691
0.00300365
0.00107126
0.00291203
0.000995873
0.0027987
0.000969062
0.00267449
0.000946418
0.00254823
0.000923507
0.00242376
0.000908646
0.00229476
0.000906503
0.0021548
0.000916349
0.00200791
0.000938821
0.00186226
0.000976441
0.00171827
0.00102779
0.00157295
0.001084
0.00142662
0.00113596
0.00127599
0.00117728
0.00111038
0.00119609
0.000947683
0.0011989
0.000785209
0.00120273
0.000625138
0.00119613
0.000468568
0.00119732
0.000310214
0.00119698
0.000144939
0.00115944
0.00109262
0.00403424
4.74232e-09
0.00403424
4.8564e-09
0.00403424
5.42308e-09
0.00403425
6.13279e-09
0.00403425
7.0374e-09
0.00403425
7.73749e-09
0.00403425
8.25638e-09
0.00403425
8.60806e-09
0.00403425
8.8037e-09
0.00403425
8.83298e-09
0.00403425
8.69753e-09
0.00403425
8.28122e-09
0.00403425
6.81804e-09
0.00403425
6.54104e-09
0.00403424
9.36807e-09
0.00403422
1.84614e-08
0.00403407
4.84391e-08
0.00403455
-7.45286e-08
0.00403509
5.14444e-07
0.00404417
1.33423e-06
0.00402929
3.21924e-06
0.00420222
-1.37678e-06
0.0039885
6.90043e-05
0.00392274
0.000204859
0.00361482
0.00136069
0.00347149
0.00172098
0.00335817
0.00151669
0.00328316
0.00129319
0.00319434
0.00117589
0.00309285
0.001099
0.002973
0.00108558
0.00284346
0.00106788
0.002712
0.00104491
0.00258285
0.0010304
0.00244911
0.00103186
0.00230325
0.00104842
0.00214873
0.001079
0.0019937
0.00112499
0.00183906
0.00118434
0.00168231
0.00124765
0.00152487
0.0013049
0.00136361
0.00135084
0.0011869
0.00137218
0.00101254
0.00137396
0.000840292
0.00137689
0.000669333
0.00137044
0.000500878
0.00137092
0.000329936
0.00136843
0.000154756
0.00132347
0.00124583
0.00418414
4.34534e-09
0.00418414
4.47068e-09
0.00418414
4.9531e-09
0.00418414
5.65546e-09
0.00418414
6.42875e-09
0.00418414
7.27311e-09
0.00418414
7.70621e-09
0.00418414
7.99535e-09
0.00418414
8.10374e-09
0.00418414
7.9964e-09
0.00418414
7.44547e-09
0.00418415
6.30675e-09
0.00418414
5.15818e-09
0.00418414
4.64716e-09
0.00418413
9.93453e-09
0.00418409
1.80413e-08
0.00418403
6.34339e-08
0.00418435
1.05181e-07
0.00418197
4.39608e-07
0.00419333
8.43982e-07
0.00418792
3.12605e-06
0.00434862
-4.86587e-06
0.00414663
8.92933e-05
0.00411112
0.000188933
0.00394457
0.00132383
0.00377621
0.00197649
0.00360039
0.00175554
0.0035119
0.00140981
0.00340964
0.00129063
0.0032942
0.00121909
0.00316717
0.00120952
0.00303333
0.00119272
0.00289649
0.00116938
0.00276202
0.00115616
0.00262368
0.00116353
0.00247067
0.00118952
0.00230473
0.00123023
0.00213662
0.00128539
0.00196987
0.00135286
0.00180162
0.00142287
0.0016339
0.0014853
0.00146243
0.00153634
0.00127456
0.00155994
0.00108716
0.00156146
0.000902514
0.00156344
0.000720002
0.00155616
0.000539767
0.00155594
0.000357607
0.00155133
0.000167418
0.00150235
0.00141161
0.0043396
3.94429e-09
0.0043396
4.05427e-09
0.0043396
4.47777e-09
0.0043396
5.12586e-09
0.0043396
5.80395e-09
0.0043396
6.61982e-09
0.0043396
7.03796e-09
0.0043396
7.32501e-09
0.0043396
7.47824e-09
0.0043396
7.49389e-09
0.0043396
6.53369e-09
0.0043396
5.05545e-09
0.0043396
3.23545e-09
0.00433961
-1.20101e-09
0.0043396
5.68201e-10
0.0043396
-4.71302e-09
0.00433966
2.65604e-08
0.0043391
1.14377e-07
0.00434132
2.60243e-07
0.00432341
-3.26866e-07
0.00433985
4.74001e-06
0.00420306
3.84473e-06
0.00433617
6.60606e-05
0.00426413
0.000164298
0.00445075
0.000904409
0.00408577
0.00233354
0.00389189
0.00197234
0.0037655
0.00157948
0.00364131
0.0014301
0.00350933
0.00135701
0.00338404
0.00133224
0.00324793
0.00131906
0.00310633
0.00129646
0.00296473
0.00128775
0.00281773
0.00130376
0.00265524
0.00134123
0.00247829
0.00139408
0.00229747
0.00145997
0.00211765
0.00153593
0.00193658
0.00161216
0.00175726
0.00167883
0.00157462
0.00173382
0.00137573
0.00175955
0.00117457
0.00176075
0.000976422
0.00176341
0.000779963
0.00175589
0.000585002
0.0017557
0.000386256
0.00175076
0.000180894
0.00169447
0.00159018
0.00450084
3.53462e-09
0.00450084
3.60463e-09
0.00450084
4.00524e-09
0.00450084
4.54245e-09
0.00450084
5.19791e-09
0.00450084
5.82834e-09
0.00450084
6.43894e-09
0.00450084
6.87702e-09
0.00450084
7.22107e-09
0.00450084
7.38981e-09
0.00450084
8.27302e-09
0.00450084
5.40546e-09
0.00450083
2.07934e-09
0.00450084
-1.00703e-08
0.00450084
-1.49893e-08
0.00450091
-5.46321e-08
0.00450098
-5.98648e-08
0.00450068
-1.59799e-07
0.00450069
-1.27784e-07
0.00449242
-1.23976e-06
0.00450214
3.55199e-06
0.00438609
6.25841e-06
0.00447715
5.95187e-05
0.00448705
0.000129697
0.00453884
0.000702306
0.00425324
0.00241658
0.00414281
0.00211316
0.00401543
0.00175134
0.00389055
0.00157287
0.00375257
0.00150376
0.00362727
0.00145681
0.00349471
0.0014404
0.00334599
0.00142686
0.00319254
0.00142854
0.0030334
0.00145747
0.00285746
0.00150892
0.00266551
0.0015744
0.00246991
0.00164902
0.00227658
0.00173133
0.00208304
0.00181239
0.00189256
0.00188239
0.00169942
0.00194163
0.00149055
0.0019707
0.00127477
0.00197197
0.0010628
0.00197584
0.000851397
0.00196954
0.000640296
0.00196976
0.000425533
0.00196474
0.000200616
0.00190681
0.00178787
0.00466807
3.09326e-09
0.00466807
3.15475e-09
0.00466807
3.49595e-09
0.00466807
3.96525e-09
0.00466807
4.53397e-09
0.00466807
5.08339e-09
0.00466807
5.68351e-09
0.00466807
6.10856e-09
0.00466807
6.46423e-09
0.00466807
6.77786e-09
0.00466807
7.35308e-09
0.00466808
4.94842e-09
0.00466805
4.70847e-09
0.00466811
-8.2828e-09
0.00466801
5.68045e-09
0.00466818
-7.88734e-08
0.00466805
7.04797e-09
0.00466796
-4.47154e-07
0.00466946
-1.35299e-08
0.00465682
-3.3518e-06
0.00466869
4.99108e-06
0.00456205
9.72128e-06
0.00463839
5.54506e-05
0.00462926
0.000123127
0.00457738
0.000606199
0.00437721
0.00230318
0.00431983
0.00221318
0.00426833
0.00185759
0.00417105
0.00168965
0.00405495
0.00162393
0.00392684
0.00158257
0.00378199
0.00157125
0.00361512
0.00157199
0.00344066
0.00158896
0.00326335
0.0016322
0.00307188
0.00169742
0.00286142
0.00177338
0.00264838
0.0018525
0.00244187
0.0019375
0.00223812
0.00202101
0.00203996
0.00209361
0.00184006
0.00215826
0.0016229
0.00219235
0.0013922
0.00219586
0.00116518
0.00220146
0.000936476
0.00219947
0.000706648
0.00220233
0.000470334
0.00219967
0.000221707
0.00213978
0.00200452
0.00484151
2.63067e-09
0.00484151
2.68828e-09
0.00484151
2.96211e-09
0.00484151
3.37812e-09
0.00484151
3.83465e-09
0.00484151
4.33438e-09
0.00484151
4.83604e-09
0.00484151
5.16126e-09
0.00484151
5.40737e-09
0.00484151
5.50746e-09
0.00484152
5.3819e-09
0.00484152
5.79756e-09
0.00484151
8.05621e-09
0.00484148
1.73572e-08
0.00484145
3.89956e-08
0.00484127
9.55738e-08
0.00484106
2.25391e-07
0.00484152
4.67335e-07
0.00484194
1.13496e-06
0.00483968
6.41966e-07
0.00484058
8.64496e-06
0.00475174
9.29602e-06
0.004796
5.87637e-05
0.00479313
9.81159e-05
0.00474699
0.00052602
0.00471262
0.00201747
0.00475709
0.00222789
0.00468604
0.001981
0.00456372
0.00182431
0.00442311
0.00176141
0.00426812
0.0017311
0.0040869
0.00173471
0.00388698
0.00175026
0.00368574
0.00178153
0.00348629
0.00183459
0.00327958
0.00190561
0.00305464
0.0019854
0.00282916
0.00206564
0.00261388
0.00215161
0.00240405
0.00223647
0.00220175
0.00231113
0.00199888
0.00238207
0.00177556
0.00242265
0.00153255
0.00243139
0.00129117
0.00243976
0.00104524
0.00244551
0.000792214
0.00245647
0.000530258
0.00246128
0.000254007
0.00240471
0.00225385
0.00502139
2.15462e-09
0.00502139
2.19268e-09
0.00502139
2.42139e-09
0.0050214
2.75386e-09
0.0050214
3.13871e-09
0.0050214
3.54985e-09
0.0050214
3.95853e-09
0.0050214
4.33653e-09
0.0050214
4.63889e-09
0.0050214
4.50022e-09
0.0050214
4.22732e-09
0.0050214
4.83292e-09
0.0050214
6.74838e-09
0.0050214
1.76578e-08
0.0050214
3.7079e-08
0.00502134
1.11409e-07
0.0050212
2.57631e-07
0.00502076
6.66893e-07
0.00502051
1.34842e-06
0.00500543
4.15612e-06
0.00500409
9.46015e-06
0.00509883
-1.16154e-05
0.0049592
9.91171e-05
0.00507407
-3.40784e-05
0.0050445
0.00042859
0.0053615
0.00132353
0.00538996
0.00222582
0.00516284
0.00223372
0.00494905
0.00204574
0.00475887
0.00194683
0.00455587
0.00192576
0.00433663
0.00193714
0.0041119
0.00196266
0.00389299
0.00199982
0.00367836
0.00205318
0.00346188
0.00212182
0.00323225
0.00219766
0.00300766
0.00227607
0.00279458
0.00236277
0.00258665
0.00244953
0.00238662
0.00252778
0.00218503
0.00260662
0.00195746
0.00265703
0.00170399
0.00267628
0.00144709
0.00269184
0.00118252
0.00270948
0.000907771
0.00273281
0.000614125
0.0027535
0.000294133
0.00271214
0.00254184
0.00520796
1.65811e-09
0.00520796
1.6772e-09
0.00520796
1.87112e-09
0.00520797
2.11665e-09
0.00520797
2.45257e-09
0.00520797
2.75649e-09
0.00520797
3.12855e-09
0.00520797
3.45365e-09
0.00520797
3.77907e-09
0.00520797
3.96166e-09
0.00520797
3.83067e-09
0.00520797
4.2392e-09
0.00520797
6.27962e-09
0.00520797
1.3117e-08
0.00520798
2.83926e-08
0.005208
6.68936e-08
0.00520811
1.41578e-07
0.00520829
3.29852e-07
0.0052092
5.16561e-07
0.00521006
1.62141e-06
0.00520343
2.54449e-06
0.00520914
4.2032e-08
0.00513168
1.68725e-05
0.00517719
5.24454e-05
0.00533982
0.000166299
0.00532841
0.00102978
0.00520572
0.00233019
0.00503537
0.00239576
0.00491475
0.00216671
0.00475453
0.00210095
0.00458936
0.00208693
0.00440133
0.00211691
0.00420558
0.00215392
0.00400888
0.00219801
0.00381088
0.0022521
0.00360839
0.00231934
0.00339017
0.00239136
0.00317998
0.00246756
0.00298091
0.00255542
0.00278493
0.00264525
0.00259613
0.00273008
0.00240305
0.00282126
0.00217915
0.00288674
0.00192261
0.00292538
0.00165452
0.00295598
0.00137064
0.00299541
0.00106372
0.00304156
0.000732066
0.00308379
0.000362765
0.00306555
0.00289448
0.00540147
1.1322e-09
0.00540147
1.16107e-09
0.00540147
1.30273e-09
0.00540147
1.50523e-09
0.00540147
1.75126e-09
0.00540147
2.01837e-09
0.00540147
2.29456e-09
0.00540147
2.57848e-09
0.00540147
2.80323e-09
0.00540147
3.17895e-09
0.00540147
3.22289e-09
0.00540147
3.75926e-09
0.00540147
5.42587e-09
0.00540147
1.20488e-08
0.00540148
2.33729e-08
0.00540147
6.29294e-08
0.00540146
1.24317e-07
0.00540163
1.37865e-07
0.00540113
4.44339e-07
0.00540356
-2.90155e-07
0.00539584
-4.01694e-06
0.005404
3.41901e-06
0.00527202
6.58089e-06
0.0053755
6.39021e-05
0.00535713
0.000146404
0.00548598
0.000742136
0.00514578
0.00251165
0.00500887
0.00248536
0.00484635
0.00233699
0.00468859
0.00225367
0.00454255
0.00222856
0.00439637
0.00225819
0.00424415
0.0023066
0.00408645
0.0023593
0.00392281
0.00241835
0.00374995
0.00248743
0.00355591
0.00255827
0.00336802
0.00263576
0.00318958
0.00272599
0.00301322
0.0028185
0.00284552
0.00290969
0.0026748
0.00301673
0.00246035
0.0031069
0.00220916
0.00316872
0.00193316
0.00322223
0.00163494
0.00329296
0.00130415
0.00337687
0.000919846
0.0034712
0.000468635
0.00350486
0.00335133
0.00560216
5.98577e-10
0.00560216
6.6334e-10
0.00560216
7.85466e-10
0.00560216
9.58871e-10
0.00560216
1.14402e-09
0.00560216
1.36845e-09
0.00560216
1.57906e-09
0.00560216
1.83155e-09
0.00560216
2.01594e-09
0.00560216
2.24741e-09
0.00560216
2.4805e-09
0.00560217
3.12788e-09
0.00560217
4.52992e-09
0.00560217
8.4935e-09
0.0056022
1.84388e-08
0.00560214
2.51675e-08
0.00560253
4.06093e-08
0.0056022
8.85539e-08
0.00560194
-3.13023e-07
0.00560825
1.08021e-06
0.0056181
-4.51984e-07
0.00562237
7.81372e-06
0.00547904
8.48508e-06
0.00556509
6.69591e-05
0.00556738
0.000121703
0.00553629
0.000661938
0.00532005
0.00249441
0.00513433
0.00266448
0.00498294
0.00250243
0.00485687
0.00239125
0.00470796
0.00238806
0.00457186
0.00240562
0.00443051
0.00246355
0.00428657
0.0025187
0.00413708
0.00257814
0.00397537
0.00264597
0.00380002
0.00271603
0.00363003
0.00279567
0.00347148
0.00288435
0.00331252
0.002982
0.00315597
0.00308211
0.00300636
0.00319726
0.00281474
0.00331167
0.00258435
0.0034013
0.00231583
0.00348149
0.00202139
0.00358397
0.00167616
0.00372128
0.00125686
0.00389004
0.000700592
0.0040521
0.00404031
0.00581031
1.11581e-10
0.00581031
2.02498e-10
0.00581031
3.19305e-10
0.00581031
4.68021e-10
0.00581031
6.26839e-10
0.00581031
8.15803e-10
0.00581031
9.99762e-10
0.00581031
1.21808e-09
0.00581031
1.42208e-09
0.00581031
1.71683e-09
0.00581031
2.00465e-09
0.00581031
3.11934e-09
0.00581031
3.58148e-09
0.00581033
8.75838e-09
0.00581017
9.04394e-09
0.0058104
4.54084e-08
0.00580956
2.12156e-08
0.0058103
3.36323e-07
0.00580825
4.23229e-07
0.00580921
1.26566e-06
0.00581493
4.93409e-06
0.00579836
1.16941e-05
0.0057113
-3.82085e-07
0.0057507
0.00010178
0.00581578
3.51926e-05
0.00579482
0.000590139
0.00595349
0.00205721
0.00577233
0.00283724
0.00552849
0.00275634
0.00535191
0.00258389
0.00519015
0.0025582
0.0050235
0.00257554
0.00486125
0.00262882
0.00469941
0.00268723
0.00453509
0.00274648
0.00436238
0.0028116
0.00419147
0.00287704
0.00403027
0.00295565
0.00387533
0.00305036
0.00372279
0.0031511
0.00357795
0.00325142
0.00345336
0.00337108
0.00329212
0.0035006
0.00309058
0.00361429
0.00284756
0.00372155
0.00258044
0.00384853
0.00227596
0.0040248
0.00187863
0.00428729
0.00128002
0.0046435
0.00530884
0.00840003
9.20756e-12
0.00840003
3.75647e-11
0.00840003
8.2081e-11
0.00840003
1.47221e-10
0.00840003
2.28402e-10
0.00840003
3.27948e-10
0.00840003
4.41278e-10
0.00840003
5.73039e-10
0.00840003
7.18003e-10
0.00840004
8.72946e-10
0.00840004
1.13185e-09
0.00840004
1.43637e-09
0.00840004
2.46392e-09
0.00840005
3.90189e-09
0.00840002
7.75939e-09
0.00840019
1.61933e-08
0.00839998
4.32058e-08
0.00840082
1.18176e-07
0.00840047
3.62877e-07
0.00840192
7.79607e-07
0.00840416
2.07773e-06
0.00844434
3.59085e-06
0.00840596
8.42921e-06
0.00877621
2.45331e-05
0.00836662
9.9915e-05
0.0086323
0.00022855
0.00896526
0.00125828
0.00857505
0.00324492
0.0082905
0.0030442
0.00799352
0.00287518
0.00774736
0.00278863
0.00752661
0.00279195
0.00733302
0.00282341
0.00713719
0.00288667
0.00693213
0.00294979
0.00671405
0.00300749
0.00650564
0.00306717
0.00631164
0.00314338
0.00613274
0.00323091
0.00596877
0.0033228
0.00582425
0.00341991
0.0057105
0.00353167
0.00558968
0.00365341
0.00543957
0.00377707
0.00527588
0.00388153
0.00513366
0.00398568
0.00506973
0.00408478
0.00520243
0.0041541
0.00563601
0.00420931
0.00369622
0.00724004
0.00840003
1.05128e-12
0.00840003
5.62069e-12
0.00840003
1.49862e-11
0.00840003
3.20181e-11
0.00840003
5.73456e-11
0.00840003
9.39825e-11
0.00840003
1.4378e-10
0.00840003
2.03082e-10
0.00840003
2.79169e-10
0.00840003
3.68484e-10
0.00840003
4.85432e-10
0.00840004
5.96479e-10
0.00840004
9.81967e-10
0.00840004
1.43246e-09
0.00840003
3.98259e-09
0.00840014
6.74816e-09
0.00839996
2.9686e-08
0.00840046
4.38572e-08
0.00840081
2.2057e-07
0.00839862
6.48433e-07
0.00839977
9.0897e-07
0.00841218
1.43194e-06
0.00838165
7.65221e-06
0.00860242
1.32288e-05
0.00839163
7.81669e-05
0.00842597
0.000175128
0.00866452
0.000887068
0.00855089
0.00316787
0.00839169
0.00320689
0.00816142
0.00311368
0.00801894
0.0029357
0.00785677
0.0029428
0.00768872
0.00297547
0.00753676
0.00303162
0.0073865
0.00309455
0.00721963
0.00315658
0.00704882
0.00321899
0.00690001
0.00328404
0.00676842
0.00335742
0.00665485
0.00343522
0.00657574
0.00351553
0.00653448
0.00360374
0.00652227
0.00369734
0.00652108
0.00379
0.00653264
0.00386643
0.00660139
0.0039051
0.00676235
0.003912
0.00707586
0.00383178
0.00757876
0.00370449
0.00326906
0.00800592
0.00840003
1.28721e-13
0.00840003
8.60136e-13
0.00840003
2.59333e-12
0.00840003
6.54882e-12
0.00840003
1.31758e-11
0.00840003
2.46515e-11
0.00840003
4.02237e-11
0.00840003
6.22318e-11
0.00840003
8.82879e-11
0.00840003
1.17242e-10
0.00840003
1.51871e-10
0.00840003
1.73391e-10
0.00840003
2.97193e-10
0.00840003
3.35751e-10
0.00840003
1.08779e-09
0.00840006
3.36511e-09
0.00840002
4.84696e-09
0.00840021
4.21505e-09
0.00840035
6.08374e-08
0.00839957
1.91218e-07
0.00840437
2.58478e-07
0.00841513
-9.85584e-08
0.00839533
5.87724e-06
0.00855721
8.78547e-06
0.0084138
6.23492e-05
0.00835131
0.000143379
0.00852621
0.000605908
0.0092444
0.00199735
0.0090338
0.00341449
0.008878
0.0032935
0.0086401
0.0032139
0.00848291
0.00311773
0.00831957
0.00313821
0.00815887
0.00318938
0.00800623
0.00324667
0.00785101
0.00330721
0.00769113
0.00336233
0.00755105
0.00341151
0.00743924
0.00346219
0.00735174
0.00351619
0.00729672
0.00356804
0.00729673
0.00361801
0.00733809
0.00367054
0.00742806
0.00371246
0.00754525
0.00374932
0.00769587
0.00373901
0.00789402
0.00369369
0.00813208
0.00357351
0.00842063
0.00339957
0.00303693
0.00864234
0.00840003
2.25241e-14
0.00840003
1.53051e-13
0.00840003
4.87932e-13
0.00840003
1.24734e-12
0.00840003
2.72605e-12
0.00840003
5.52647e-12
0.00840003
1.01e-11
0.00840003
1.75082e-11
0.00840003
2.85104e-11
0.00840003
4.39608e-11
0.00840003
7.03883e-11
0.00840003
9.02135e-11
0.00840003
2.07331e-10
0.00840004
2.36763e-10
0.00840002
1.19171e-09
0.00840004
1.86182e-09
0.00840002
1.05501e-08
0.00840008
1.92205e-08
0.00840015
8.47697e-08
0.00840212
1.04653e-07
0.00839871
8.99082e-07
0.00839302
2.52014e-06
0.00839954
2.10922e-06
0.00855501
1.05811e-06
0.00840128
3.08572e-05
0.00868957
5.79053e-05
0.00878422
0.000304375
0.0096801
0.000810058
0.00964408
0.00341277
0.00930347
0.00362188
0.0090295
0.00348157
0.00885931
0.00327954
0.00871726
0.00326538
0.0085828
0.00330618
0.00845527
0.00335753
0.00833776
0.00340936
0.00822759
0.00345342
0.00811766
0.00349215
0.00802079
0.00352522
0.00795164
0.00355817
0.00791109
0.00358514
0.0079116
0.00360342
0.00797575
0.003616
0.00808528
0.00361848
0.00823533
0.00360973
0.00840628
0.0035712
0.00859288
0.00349763
0.00877687
0.00337405
0.00895369
0.00320251
0.00291287
0.00905831
0.00840003
8.59368e-15
0.00840003
4.00585e-14
0.00840003
1.53596e-13
0.00840003
3.39384e-13
0.00840003
9.17905e-13
0.00840003
1.68666e-12
0.00840003
4.25536e-12
0.00840003
7.38145e-12
0.00840003
1.91978e-11
0.00840003
3.08475e-11
0.00840003
8.73386e-11
0.00840003
1.27668e-10
0.00840003
3.97814e-10
0.00840003
5.69618e-10
0.00840003
2.20741e-09
0.00840003
2.05875e-09
0.00840002
1.34983e-08
0.00840002
9.86441e-09
0.00840001
6.87178e-08
0.0084001
3.88633e-08
0.00840011
5.92445e-07
0.0083974
6.93199e-07
0.00840785
1.7242e-06
0.00837097
4.3992e-06
0.00839004
2.74084e-05
0.00806224
1.18148e-05
0.00847795
0.000283936
0.00856254
0.000530891
0.00931756
0.00252706
0.00925971
0.00364906
0.00914493
0.00357102
0.00897614
0.00343729
0.00885333
0.00337476
0.00875796
0.00338124
0.008674
0.00342103
0.00860159
0.00346234
0.00853792
0.00349627
0.00848451
0.00352246
0.00844586
0.00354191
0.00842438
0.00355699
0.00842197
0.00356422
0.00843986
0.00356218
0.00849368
0.00354586
0.00859852
0.00352087
0.00873384
0.00348374
0.00889098
0.00342482
0.00905694
0.00333754
0.00920878
0.00321742
0.0093425
0.00305909
0.00282813
0.00941182
0.00840003
1.42161e-15
0.00840003
1.04288e-14
0.00840003
3.34811e-14
0.00840003
1.00911e-13
0.00840003
2.36718e-13
0.00840003
5.97464e-13
0.00840003
1.31189e-12
0.00840003
2.68884e-12
0.00840003
5.72321e-12
0.00840003
1.11987e-11
0.00840003
2.42563e-11
0.00840003
6.03281e-11
0.00840003
1.46056e-10
0.00840003
3.10012e-10
0.00840002
8.16323e-10
0.00840004
2.45863e-09
0.00839999
4.68693e-09
0.00839993
1.80261e-08
0.00840022
4.82481e-08
0.00839928
1.02792e-07
0.00840156
2.14251e-07
0.00839732
9.66207e-07
0.00839299
3.25084e-06
0.00840036
2.91104e-06
0.00857479
5.98562e-06
0.00836152
2.76389e-05
0.00880791
6.96872e-05
0.00877595
0.000309247
0.00990707
0.000944277
0.00995445
0.00360051
0.00977414
0.00378184
0.00941281
0.00380403
0.00925141
0.00353024
0.00912929
0.00349342
0.00903468
0.00350335
0.00895788
0.00352449
0.00889199
0.00354375
0.008834
0.00355557
0.00879232
0.00355707
0.00877387
0.0035499
0.0087811
0.00353457
0.00881088
0.00350941
0.00886446
0.00347175
0.00895425
0.0034218
0.00907648
0.00336481
0.00921059
0.00329567
0.00935521
0.00320196