/*--------------------------------*- C++ -*----------------------------------*\
| =========                 |                                                 |
| \\      /  F ield         | OpenFOAM: The Open Source CFD Toolbox           |
|  \\    /   O peration     | Version:  2112                                  |
|   \\  /    A nd           | Website:  www.openfoam.com                      |
|    \\/     M anipulation  |                                                 |
\*---------------------------------------------------------------------------*/
FoamFile
{
    version     2.0;
    format      ascii;
    arch        "LSB;label=32;scalar=64";
    class       volVectorField;
    location    "1.0005";
    object      U;
}
// * * * * * * * * * * * * * * * * * * * * * * * * * * * * * * * * * * * * * //

dimensions      [0 1 -1 0 0 0 0];

internalField   nonuniform List<vector> 
7000
(
(3 -5.79512e-07 0.000805021)
(3 -1.36797e-06 0.000764326)
(3 -1.91255e-06 0.00072386)
(3 -2.10895e-06 0.000683629)
(3 -1.92621e-06 0.00064363)
(3 -1.62033e-06 0.00060387)
(3 -1.32563e-06 0.000564361)
(3 -1.0639e-06 0.000525104)
(3 -8.41774e-07 0.000486101)
(3 -6.58266e-07 0.000447359)
(3 -5.05727e-07 0.000408878)
(3 -4.61664e-07 0.000370743)
(2.99999 -4.81999e-07 0.000333078)
(2.99994 -6.66157e-07 0.000296823)
(2.99985 2.84574e-06 0.000261384)
(2.99957 8.20378e-06 0.000231277)
(2.99892 1.66058e-05 0.000211871)
(2.99758 6.17507e-05 0.000201786)
(2.9966 0.000227983 0.000153703)
(2.97497 -0.000940387 0.000973404)
(2.95622 0.000916582 0.000933311)
(2.78643 -0.00692463 0.00767042)
(2.32538 -0.0102566 0.0133505)
(1.48429 -0.023851 0.0265429)
(0.622991 -0.0174248 0.0115067)
(0.561271 -0.0103084 7.26414e-05)
(0.609225 -0.00278109 -0.00150635)
(0.625357 0.00104804 -0.00112656)
(0.596401 0.00157752 -0.000660711)
(0.547786 0.000389047 -0.000546647)
(0.498182 -0.0010898 -0.000643105)
(0.464545 -0.00175971 -0.000897417)
(0.439684 -0.00179356 -0.00109239)
(0.416771 -0.0014346 -0.00123443)
(0.394026 -0.000881149 -0.00137343)
(0.37138 -0.000213707 -0.00152854)
(0.348599 0.000607128 -0.00169596)
(0.325471 0.00168291 -0.00186223)
(0.30181 0.0030651 -0.00201862)
(0.277195 0.00465492 -0.00216673)
(0.252124 0.00623435 -0.00230676)
(0.227729 0.00755512 -0.00245038)
(0.202546 0.00851742 -0.00262324)
(0.175762 0.00912991 -0.00280345)
(0.150572 0.00972889 -0.00296227)
(0.126225 0.0103566 -0.00314721)
(0.0998386 0.0111499 -0.00331791)
(0.0780094 0.0130131 -0.00346705)
(0.0525536 0.0153654 -0.00382925)
(0.0180654 0.0177585 -0.00426797)
(3 -6.00718e-07 0.000777211)
(3 -1.4017e-06 0.000737871)
(3 -1.91101e-06 0.000698756)
(3 -2.04954e-06 0.000659874)
(3 -1.7202e-06 0.000621223)
(3 -1.2711e-06 0.000582811)
(3 -8.47579e-07 0.000544644)
(3 -4.81601e-07 0.000506726)
(3 -1.89432e-07 0.000469058)
(3 2.94652e-08 0.000431646)
(3 1.9633e-07 0.000394491)
(3 2.83473e-07 0.000357672)
(2.99999 -1.52207e-07 0.000321294)
(2.99994 -1.09229e-06 0.00028624)
(2.99986 1.48042e-06 0.000251903)
(2.9996 7.06774e-06 0.00022276)
(2.99899 8.44815e-06 0.000203344)
(2.99775 6.93345e-05 0.000189875)
(2.99657 0.000160057 0.000184479)
(2.97631 -0.000474039 0.000870291)
(2.95742 0.0010611 0.00100269)
(2.78959 -0.00309562 0.00720227)
(2.3483 -0.00198037 0.0123911)
(1.51743 0.00121903 0.0258414)
(0.629328 0.0376825 0.0114098)
(0.54808 0.0425907 0.00033817)
(0.598714 0.0470392 -0.00140955)
(0.619649 0.0477781 -0.00106926)
(0.595915 0.0446877 -0.000633174)
(0.551702 0.0398577 -0.000523414)
(0.504608 0.0351342 -0.000614106)
(0.471229 0.0319197 -0.000856924)
(0.445366 0.0298848 -0.00104518)
(0.42117 0.0286708 -0.00118422)
(0.397229 0.0279469 -0.00131921)
(0.373495 0.0275507 -0.00146814)
(0.349611 0.0274824 -0.00162801)
(0.3253 0.0278443 -0.0017868)
(0.300472 0.0286985 -0.00193651)
(0.274905 0.0299066 -0.00207855)
(0.249234 0.0311977 -0.00221294)
(0.224587 0.0322183 -0.00235099)
(0.199279 0.0328852 -0.00251828)
(0.172385 0.0330286 -0.00268919)
(0.146924 0.0330887 -0.00284169)
(0.1219 0.0331702 -0.00302036)
(0.0946716 0.0335189 -0.00318116)
(0.072096 0.0352527 -0.00332864)
(0.0476814 0.038072 -0.00368851)
(0.01464 0.0397701 -0.00410375)
(3 -3.80589e-08 0.000748287)
(3 -8.96363e-08 0.00071036)
(3 -1.21573e-07 0.000672656)
(3 -1.89589e-07 0.000635181)
(3 -8.80332e-08 0.000597936)
(3 3.27964e-08 0.000560925)
(3 1.57453e-07 0.000524156)
(3 2.73513e-07 0.00048763)
(3 3.71387e-07 0.000451352)
(3 4.48057e-07 0.000415324)
(3 5.15687e-07 0.000379547)
(3 5.30998e-07 0.000344111)
(2.99999 -1.66081e-07 0.000309105)
(2.99994 -2.15333e-06 0.000275345)
(2.99986 -2.31985e-06 0.00024214)
(2.9996 -4.8689e-06 0.000214809)
(2.99899 -1.3927e-05 0.000194807)
(2.99772 2.34713e-05 0.000189113)
(2.9968 -7.9952e-05 0.000116538)
(2.97642 -0.00131717 0.000866749)
(2.9592 0.000307223 0.000805879)
(2.7957 -0.00183752 0.00677414)
(2.36479 -0.0052551 0.0118179)
(1.54072 -0.00349349 0.0247148)
(0.636843 0.0372324 0.0112164)
(0.537008 0.0427438 0.000538682)
(0.589826 0.0504786 -0.00135748)
(0.613152 0.0545551 -0.0010303)
(0.591181 0.0523657 -0.000609474)
(0.548666 0.0466253 -0.000502008)
(0.503043 0.0406833 -0.000589094)
(0.470771 0.0368787 -0.000821491)
(0.445678 0.0349636 -0.000999587)
(0.422098 0.0342365 -0.00113421)
(0.398626 0.034226 -0.00126445)
(0.375191 0.0348356 -0.00140737)
(0.351431 0.0361966 -0.00155981)
(0.327082 0.038473 -0.00171055)
(0.302065 0.0416172 -0.00185267)
(0.276208 0.0452113 -0.00198777)
(0.250192 0.0486731 -0.00211578)
(0.225243 0.0514183 -0.00224705)
(0.19961 0.0534117 -0.00240723)
(0.17238 0.0545424 -0.00256869)
(0.146537 0.0554544 -0.002715)
(0.120941 0.0564154 -0.00288679)
(0.0934047 0.0577407 -0.00303857)
(0.0705258 0.0605732 -0.00318295)
(0.0464637 0.0651699 -0.00353096)
(0.0147479 0.0674368 -0.0039335)
(3 -2.96886e-09 0.000718202)
(3 4.63713e-08 0.00068175)
(3 9.83308e-08 0.000645518)
(3 9.56417e-08 0.00060951)
(3 1.59159e-07 0.000573728)
(3 2.38435e-07 0.000538176)
(3 3.3028e-07 0.000502863)
(3 4.31815e-07 0.000467788)
(3 5.4106e-07 0.000432955)
(3 6.55103e-07 0.000398367)
(3 7.68275e-07 0.000364026)
(3 7.82675e-07 0.000330017)
(2.99999 6.83351e-07 0.000296416)
(2.99995 1.07369e-07 0.000263965)
(2.99987 6.42876e-06 0.000231988)
(2.99961 1.69731e-05 0.000205718)
(2.99905 4.33855e-05 0.000185428)
(2.99776 0.000206072 0.000183922)
(2.99628 0.000139695 0.000155507)
(2.97749 -0.00154291 0.000766019)
(2.9615 0.00207372 0.000695684)
(2.80063 -0.00313536 0.00633565)
(2.38571 0.00396581 0.0110364)
(1.57595 0.00859632 0.0236564)
(0.654809 0.0656026 0.0110538)
(0.529436 0.0718836 0.000775542)
(0.583172 0.0797841 -0.00129904)
(0.608665 0.0837075 -0.000985288)
(0.588258 0.080283 -0.000574864)
(0.547485 0.0727487 -0.000472099)
(0.503555 0.0650958 -0.00055753)
(0.472415 0.0598998 -0.000779913)
(0.447897 0.057006 -0.000949384)
(0.424597 0.0555517 -0.00107946)
(0.401237 0.0550626 -0.00120493)
(0.377737 0.0554457 -0.00134178)
(0.353742 0.0568233 -0.00148703)
(0.329066 0.0593512 -0.00163053)
(0.303711 0.0629532 -0.00176595)
(0.277568 0.0671602 -0.00189466)
(0.251291 0.0712765 -0.00201666)
(0.226149 0.0746146 -0.00214149)
(0.200311 0.0771132 -0.00229331)
(0.172845 0.0787191 -0.00244584)
(0.146724 0.0800628 -0.00258644)
(0.120739 0.081512 -0.00274867)
(0.0930662 0.0833785 -0.00289053)
(0.0700577 0.0866041 -0.00303198)
(0.045921 0.092258 -0.0033649)
(0.0152315 0.0949519 -0.00375743)
(3 2.35639e-08 0.000686907)
(3 1.98381e-07 0.000651994)
(3 4.28731e-07 0.000617296)
(3 6.67654e-07 0.000582818)
(3 8.21514e-07 0.000548561)
(3 9.63281e-07 0.000514531)
(3 1.09152e-06 0.000480733)
(3 1.20823e-06 0.000447169)
(3 1.31404e-06 0.000413841)
(3 1.41385e-06 0.000380753)
(3 1.50717e-06 0.000347905)
(3 1.50746e-06 0.000315376)
(2.99999 1.28906e-06 0.000283231)
(2.99995 3.51463e-07 0.000252126)
(2.99988 6.31072e-06 0.000221437)
(2.99964 1.49316e-05 0.000196145)
(2.99915 5.20885e-05 0.000175986)
(2.99784 0.000319751 0.000172381)
(2.99625 0.000123952 0.000156409)
(2.9785 -0.000198979 0.000688833)
(2.96294 0.00187775 0.000754375)
(2.80534 -0.000928986 0.00589656)
(2.40871 0.00609815 0.0101283)
(1.6193 0.017565 0.0224563)
(0.679342 0.0903804 0.0109044)
(0.522743 0.0950407 0.00103646)
(0.578242 0.102016 -0.00124974)
(0.60704 0.105016 -0.000947962)
(0.588935 0.099624 -0.000541329)
(0.550516 0.0901236 -0.000441974)
(0.508634 0.0809949 -0.000522645)
(0.478618 0.0749675 -0.000736033)
(0.454324 0.0717548 -0.000898971)
(0.43079 0.07031 -0.00102384)
(0.407081 0.0701367 -0.00114419)
(0.383179 0.0711722 -0.00127456)
(0.358722 0.0735676 -0.00141239)
(0.333526 0.0774446 -0.00154864)
(0.307608 0.0825886 -0.00167736)
(0.280894 0.0883358 -0.00179955)
(0.254018 0.0938054 -0.00191538)
(0.228334 0.0982299 -0.00203333)
(0.202024 0.101548 -0.00217627)
(0.174092 0.103842 -0.00232159)
(0.147515 0.105707 -0.0024557)
(0.121091 0.107641 -0.00260958)
(0.0932604 0.109949 -0.00274319)
(0.070184 0.113417 -0.00287874)
(0.0457706 0.119764 -0.00318888)
(0.0156445 0.123484 -0.00357512)
(3 2.53217e-08 0.00065435)
(3 2.12636e-07 0.000621041)
(3 4.97013e-07 0.000587944)
(3 8.14267e-07 0.000555062)
(3 1.04741e-06 0.000522396)
(3 1.23527e-06 0.000489951)
(3 1.39377e-06 0.000457732)
(3 1.52891e-06 0.000425741)
(3 1.64599e-06 0.00039398)
(3 1.75659e-06 0.000362453)
(3 1.86869e-06 0.000331159)
(3 1.91315e-06 0.000300173)
(2.99999 1.50241e-06 0.000269555)
(2.99995 3.66747e-07 0.000239857)
(2.99989 4.36924e-06 0.00021053)
(2.99966 6.56708e-06 0.00018575)
(2.99928 4.8433e-05 0.000162211)
(2.99787 0.000228013 0.000166916)
(2.99646 0.000195531 0.000126308)
(2.97949 -0.000239033 0.000645148)
(2.96581 0.00301338 0.000565137)
(2.81446 0.00220949 0.00542503)
(2.43846 0.0105437 0.00935572)
(1.67097 0.0298285 0.0210047)
(0.70834 0.118931 0.0108064)
(0.514179 0.120848 0.00133587)
(0.573353 0.125638 -0.00120739)
(0.606958 0.126481 -0.000915594)
(0.591738 0.118772 -0.00050797)
(0.555843 0.10799 -0.000411361)
(0.515836 0.0985926 -0.000487177)
(0.48662 0.092711 -0.000690901)
(0.462284 0.0895898 -0.000847007)
(0.438381 0.0881969 -0.000966095)
(0.414254 0.08818 -0.00108086)
(0.389886 0.0896069 -0.00120456)
(0.364904 0.0927142 -0.00133509)
(0.339144 0.0976207 -0.00146417)
(0.312637 0.104016 -0.00158614)
(0.285318 0.111078 -0.00170174)
(0.257797 0.117748 -0.00181137)
(0.231497 0.123167 -0.0019228)
(0.204674 0.12725 -0.00205648)
(0.176223 0.130174 -0.00219262)
(0.149079 0.132522 -0.00231955)
(0.122135 0.134926 -0.00246377)
(0.0939757 0.137651 -0.00258943)
(0.0705797 0.14137 -0.0027203)
(0.0458445 0.148357 -0.0030132)
(0.0161323 0.153442 -0.00338678)
(3 2.99655e-08 0.000620474)
(3 2.15044e-07 0.000588841)
(3 5.55365e-07 0.000557413)
(3 9.33536e-07 0.000526196)
(3 1.34812e-06 0.000495189)
(3 1.63013e-06 0.000464396)
(3 1.87278e-06 0.000433823)
(3 2.08086e-06 0.000403471)
(3 2.25913e-06 0.000373342)
(3 2.42142e-06 0.000343439)
(3 2.58036e-06 0.000313762)
(3 2.67913e-06 0.000284383)
(2.99999 2.18641e-06 0.000255352)
(2.99995 1.00517e-06 0.000227144)
(2.99989 3.60437e-06 0.000199303)
(2.99968 3.61624e-06 0.000175449)
(2.99933 3.24349e-05 0.000152486)
(2.99801 7.98277e-05 0.000156233)
(2.99644 0.000255316 0.000128968)
(2.9812 -0.00063293 0.000562876)
(2.96917 0.00388476 0.000483369)
(2.82293 0.00230992 0.00489651)
(2.47067 0.0156284 0.00848481)
(1.73518 0.0398597 0.0194926)
(0.74372 0.150641 0.0107893)
(0.502968 0.149009 0.00165352)
(0.568033 0.150032 -0.00117309)
(0.607851 0.147345 -0.000886363)
(0.595714 0.136792 -0.000475543)
(0.562138 0.125038 -0.000380569)
(0.523616 0.116008 -0.000451127)
(0.494911 0.110708 -0.000645329)
(0.470541 0.10789 -0.000793859)
(0.446519 0.106683 -0.000907347)
(0.42225 0.106952 -0.00101604)
(0.397605 0.108917 -0.00113242)
(0.372188 0.112902 -0.00125541)
(0.345876 0.119007 -0.00137759)
(0.318753 0.126791 -0.00149314)
(0.290787 0.13526 -0.00160227)
(0.262557 0.14318 -0.00170545)
(0.235551 0.14961 -0.00180961)
(0.208135 0.154452 -0.00193314)
(0.179093 0.158001 -0.00206225)
(0.15132 0.160791 -0.00218322)
(0.123843 0.163591 -0.00231727)
(0.0952901 0.16666 -0.0024334)
(0.0714894 0.170638 -0.00255888)
(0.0462633 0.178232 -0.00282702)
(0.0165421 0.184891 -0.00319076)
(3 2.98755e-08 0.000585223)
(3 2.0129e-07 0.000555339)
(3 5.44997e-07 0.000525654)
(3 9.22263e-07 0.000496173)
(3 1.40972e-06 0.000466897)
(3 1.73849e-06 0.000437826)
(3 2.03156e-06 0.000408968)
(3 2.29011e-06 0.000380323)
(3 2.51665e-06 0.000351894)
(3 2.72481e-06 0.000323682)
(3 2.92698e-06 0.000295689)
(3 3.0664e-06 0.000267983)
(2.99999 2.56198e-06 0.000240606)
(2.99995 1.46482e-06 0.000213969)
(2.99989 3.72752e-06 0.000187698)
(2.99969 4.21085e-06 0.000164953)
(2.99937 3.10177e-05 0.000142479)
(2.9981 6.2161e-05 0.000145582)
(2.99645 0.000243608 0.000123484)
(2.98274 -0.000273348 0.000484665)
(2.97242 0.00373422 0.000399539)
(2.83301 0.00252797 0.00439167)
(2.51028 0.0173748 0.00751104)
(1.81211 0.0514687 0.0179396)
(0.782304 0.188172 0.0108134)
(0.488498 0.179665 0.00201359)
(0.563283 0.174435 -0.00113955)
(0.610867 0.166711 -0.000858761)
(0.602054 0.153156 -0.000445006)
(0.570762 0.141148 -0.000354808)
(0.533325 0.133373 -0.000417874)
(0.504617 0.129138 -0.000598109)
(0.479992 0.126788 -0.000739598)
(0.455909 0.125874 -0.000847974)
(0.431621 0.126568 -0.000950137)
(0.406787 0.129241 -0.00105853)
(0.380965 0.134282 -0.00117351)
(0.354068 0.14174 -0.00128841)
(0.326243 0.151034 -0.00139725)
(0.297508 0.160992 -0.00149975)
(0.268445 0.170209 -0.00159659)
(0.24062 0.177669 -0.00169371)
(0.212567 0.183291 -0.00180749)
(0.182882 0.187491 -0.00192788)
(0.154359 0.19074 -0.00204055)
(0.126232 0.193897 -0.00216581)
(0.0971339 0.197243 -0.00227447)
(0.0726878 0.201463 -0.00239202)
(0.0469158 0.209723 -0.00264344)
(0.0170924 0.218024 -0.00298807)
(3 2.71111e-08 0.000548536)
(3 1.89145e-07 0.000520478)
(3 5.20354e-07 0.000492613)
(3 8.968e-07 0.000464943)
(3 1.39998e-06 0.000437471)
(3 1.79335e-06 0.000410198)
(3 2.15507e-06 0.000383127)
(3 2.48112e-06 0.000356262)
(3 2.77112e-06 0.000329603)
(3 3.0358e-06 0.000303153)
(3 3.28643e-06 0.000276911)
(3 3.47159e-06 0.000250945)
(2.99999 2.96481e-06 0.000225285)
(2.99996 2.1796e-06 0.000200283)
(2.9999 4.21242e-06 0.000175625)
(2.99971 6.79588e-06 0.000154043)
(2.99941 3.3673e-05 0.000132685)
(2.99824 2.79553e-05 0.000133451)
(2.99665 0.00027967 0.000113766)
(2.98438 0.00016487 0.000410358)
(2.97562 0.00350351 0.000319202)
(2.84371 0.00145123 0.00388215)
(2.55658 0.0211416 0.00647652)
(1.90442 0.0671901 0.0162873)
(0.827295 0.230971 0.0109054)
(0.475371 0.212205 0.00240524)
(0.56221 0.198456 -0.00110518)
(0.617679 0.184385 -0.000835069)
(0.61193 0.16843 -0.000420665)
(0.5828 0.156858 -0.000334604)
(0.545974 0.15143 -0.000386125)
(0.516552 0.148484 -0.000550918)
(0.491312 0.146549 -0.000684742)
(0.467161 0.145935 -0.000788413)
(0.442895 0.14717 -0.000883492)
(0.417854 0.150752 -0.000983069)
(0.391553 0.157081 -0.00108965)
(0.363956 0.166105 -0.00119737)
(0.335302 0.177052 -0.00129973)
(0.305673 0.188562 -0.00139572)
(0.275643 0.199076 -0.00148549)
(0.246857 0.207549 -0.00157449)
(0.218052 0.213922 -0.00167865)
(0.187633 0.218721 -0.0017911)
(0.15825 0.222439 -0.00189422)
(0.129378 0.226004 -0.00201106)
(0.0996039 0.229671 -0.00211354)
(0.0744677 0.234099 -0.00222363)
(0.0479661 0.242965 -0.00244648)
(0.0175717 0.252999 -0.00277686)
(3 2.12068e-08 0.000510349)
(3 1.77808e-07 0.000484198)
(3 4.81801e-07 0.000458233)
(3 8.45054e-07 0.000432455)
(3 1.32409e-06 0.000406865)
(3 1.7311e-06 0.000381466)
(3 2.11284e-06 0.000356259)
(3 2.45637e-06 0.000331248)
(3 2.75466e-06 0.000306434)
(3 3.00569e-06 0.000281818)
(3 3.21538e-06 0.0002574)
(3 3.34034e-06 0.000233248)
(2.99999 2.83483e-06 0.000209375)
(2.99996 2.56936e-06 0.000186093)
(2.9999 4.24608e-06 0.000163116)
(2.99973 7.87176e-06 0.000142822)
(2.99943 2.867e-05 0.000122961)
(2.99836 -3.6819e-05 0.000121045)
(2.99697 0.000281919 0.000102234)
(2.98575 0.000527229 0.00035012)
(2.97767 0.00258783 0.000265878)
(2.85583 -0.000855033 0.00335313)
(2.61136 0.0289357 0.00533402)
(2.01477 0.082605 0.0144456)
(0.884327 0.276641 0.0111142)
(0.471642 0.246247 0.00282339)
(0.567871 0.223343 -0.00105493)
(0.628704 0.201462 -0.000812148)
(0.624925 0.184289 -0.000414279)
(0.598037 0.173218 -0.000333837)
(0.561758 0.170548 -0.000360285)
(0.530763 0.168762 -0.000500589)
(0.50469 0.167125 -0.000628739)
(0.480517 0.166844 -0.000728588)
(0.45627 0.168805 -0.000816309)
(0.430941 0.173578 -0.000906924)
(0.404054 0.18148 -0.00100455)
(0.375637 0.192288 -0.00110385)
(0.346011 0.205022 -0.00119859)
(0.315329 0.218151 -0.0012875)
(0.284199 0.229974 -0.00137047)
(0.254337 0.239445 -0.00145219)
(0.224677 0.246585 -0.00154724)
(0.193475 0.252007 -0.00165173)
(0.163149 0.256204 -0.0017471)
(0.133435 0.260178 -0.00185213)
(0.102791 0.264192 -0.00194596)
(0.0765566 0.268948 -0.00204878)
(0.0492254 0.278532 -0.00225663)
(0.0182666 0.290482 -0.00256513)
(3 1.47916e-08 0.000470595)
(3 1.67136e-07 0.000446438)
(3 4.3741e-07 0.000422457)
(3 7.90389e-07 0.000398653)
(3 1.22104e-06 0.000375028)
(3 1.66854e-06 0.000351583)
(3 2.03764e-06 0.00032832)
(3 2.36424e-06 0.000305242)
(3 2.63224e-06 0.00028235)
(3 2.81857e-06 0.000259646)
(3 2.89615e-06 0.000237128)
(3 2.75142e-06 0.00021486)
(2.99999 2.36627e-06 0.000192842)
(2.99996 2.35744e-06 0.000171365)
(2.99991 5.02756e-06 0.000150148)
(2.99974 9.04768e-06 0.000131323)
(2.99942 3.14923e-05 0.000113992)
(2.9985 -4.1115e-06 0.000107754)
(2.99747 0.000302743 8.86484e-05)
(2.98674 0.000528417 0.000304116)
(2.97866 0.00201192 0.000229502)
(2.87182 -0.00269643 0.00275359)
(2.67117 0.0396627 0.00416263)
(2.14194 0.0884557 0.012384)
(0.966314 0.311412 0.0114256)
(0.488486 0.277121 0.0032905)
(0.579878 0.25189 -0.000972685)
(0.640227 0.219174 -0.000813545)
(0.638375 0.201925 -0.000428075)
(0.614745 0.191749 -0.000340024)
(0.580247 0.191 -0.000343885)
(0.547434 0.189855 -0.000449535)
(0.520449 0.188398 -0.000571759)
(0.496253 0.18857 -0.000668602)
(0.471906 0.19155 -0.000748901)
(0.446056 0.197887 -0.000829499)
(0.418306 0.207736 -0.000917757)
(0.388833 0.220627 -0.00100937)
(0.358116 0.235326 -0.00109741)
(0.32635 0.250129 -0.00117949)
(0.294102 0.263253 -0.001255)
(0.263155 0.273679 -0.00132785)
(0.232613 0.281548 -0.00141355)
(0.200564 0.287665 -0.00150878)
(0.169165 0.29238 -0.00159622)
(0.13846 0.296781 -0.00169119)
(0.106872 0.301158 -0.00177646)
(0.0795642 0.306253 -0.00186979)
(0.0511666 0.316651 -0.00205047)
(0.0191018 0.330512 -0.00233612)
(3 1.08717e-08 0.000429205)
(3 1.53757e-07 0.000407131)
(3 3.91938e-07 0.000385222)
(3 7.26677e-07 0.00036348)
(3 1.10112e-06 0.000341905)
(3 1.56456e-06 0.0003205)
(3 1.88228e-06 0.000299265)
(3 2.15045e-06 0.000278203)
(3 2.35845e-06 0.000257314)
(3 2.49219e-06 0.000236601)
(3 2.22112e-06 0.000216063)
(3 1.7724e-06 0.000195753)
(2.99999 1.42354e-06 0.000175669)
(2.99996 1.19257e-06 0.00015606)
(2.99992 4.64639e-06 0.000136683)
(2.99976 8.09334e-06 0.000119328)
(2.99946 3.5292e-05 0.000103516)
(2.99863 8.57294e-05 9.55789e-05)
(2.99776 0.000273319 8.0571e-05)
(2.98771 0.000104593 0.000261396)
(2.97892 0.00255257 0.000270691)
(2.8923 -0.000436383 0.00201748)
(2.72878 0.0389684 0.00312197)
(2.28115 0.0834819 0.0100666)
(1.08519 0.279767 0.011629)
(0.52894 0.305391 0.00382595)
(0.589058 0.28457 -0.000764953)
(0.642388 0.24068 -0.000793916)
(0.650391 0.223239 -0.000479776)
(0.63288 0.21376 -0.000354435)
(0.601443 0.212674 -0.00033203)
(0.567093 0.211596 -0.000398025)
(0.539215 0.210329 -0.000513548)
(0.514805 0.211298 -0.000607465)
(0.489996 0.215761 -0.000681077)
(0.463207 0.224106 -0.000752811)
(0.434256 0.236262 -0.000831153)
(0.403499 0.251465 -0.000912973)
(0.371545 0.268226 -0.000992405)
(0.338638 0.284688 -0.00106682)
(0.3053 0.299048 -0.00113473)
(0.273297 0.310363 -0.00119941)
(0.241963 0.318921 -0.00127658)
(0.209104 0.325807 -0.00136224)
(0.176537 0.331145 -0.00143965)
(0.144708 0.336124 -0.00152463)
(0.111891 0.341023 -0.00160147)
(0.0830751 0.346586 -0.00168535)
(0.0533573 0.357884 -0.00184956)
(0.0200875 0.374013 -0.00211397)
(3 1.12306e-08 0.000386103)
(3 1.34325e-07 0.000366207)
(3 3.52757e-07 0.000346464)
(3 6.46615e-07 0.000326875)
(3 9.92978e-07 0.000307442)
(3 1.38859e-06 0.000288165)
(3 1.7329e-06 0.000269046)
(3 2.0382e-06 0.000250085)
(3 2.31047e-06 0.000231284)
(3 2.51809e-06 0.00021265)
(3 2.67746e-06 0.000194172)
(3 1.78653e-06 0.000175897)
(2.99999 5.82631e-07 0.000157828)
(2.99996 -3.68436e-06 0.000140164)
(2.99992 -5.32196e-06 0.000122705)
(2.99978 -1.79213e-05 0.000106922)
(2.99952 -1.30613e-05 9.21862e-05)
(2.99874 -1.42497e-06 8.44165e-05)
(2.99785 7.17877e-05 7.61825e-05)
(2.98927 -0.000329644 0.000204275)
(2.98158 0.00277586 0.000212341)
(2.90804 0.00262199 0.00153463)
(2.77803 0.0312962 0.00228892)
(2.38811 0.0705959 0.00793946)
(1.22485 0.213346 0.0111746)
(0.600571 0.346452 0.00414594)
(0.582898 0.313918 -0.000284259)
(0.635101 0.264835 -0.000707608)
(0.662416 0.246319 -0.000554824)
(0.653095 0.237662 -0.000369986)
(0.62596 0.234378 -0.000325804)
(0.591133 0.23301 -0.000350914)
(0.561912 0.23257 -0.000453976)
(0.536543 0.235227 -0.000545202)
(0.510426 0.241929 -0.00061236)
(0.481972 0.252779 -0.000675038)
(0.45131 0.267493 -0.000743547)
(0.418999 0.285017 -0.000815559)
(0.385775 0.303736 -0.000885984)
(0.351865 0.32177 -0.000952357)
(0.317642 0.337328 -0.00101246)
(0.284766 0.349539 -0.00106942)
(0.252857 0.358903 -0.00113734)
(0.219326 0.366646 -0.00121299)
(0.185535 0.372814 -0.0012808)
(0.1525 0.378572 -0.00135512)
(0.118323 0.384224 -0.00142299)
(0.0878383 0.390482 -0.00149689)
(0.0566183 0.402893 -0.00163632)
(0.0216025 0.42144 -0.00187029)
(3 1.05214e-08 0.000341213)
(3 1.15261e-07 0.000323594)
(3 3.12658e-07 0.000306115)
(3 5.63733e-07 0.000288776)
(3 8.82219e-07 0.000271579)
(3 1.20897e-06 0.000254524)
(3 1.5863e-06 0.000237611)
(3 1.92426e-06 0.000220843)
(3 2.25168e-06 0.00020422)
(3 2.55233e-06 0.000187743)
(3 3.18158e-06 0.000171419)
(2.99999 2.0224e-06 0.000155276)
(2.99999 9.58793e-07 0.000139321)
(2.99996 -7.14153e-06 0.000123697)
(2.99991 -6.70885e-06 0.000108302)
(2.99977 -5.20945e-05 9.41876e-05)
(2.9995 -4.3194e-05 8.08547e-05)
(2.99875 -0.000262736 7.35382e-05)
(2.99781 -0.000200353 6.25713e-05)
(2.9906 -0.00182565 0.000157117)
(2.98435 0.00195263 0.000160687)
(2.92296 0.00343428 0.00112446)
(2.81815 0.0291389 0.00167881)
(2.47964 0.0617951 0.00611324)
(1.41167 0.189097 0.00974002)
(0.707807 0.389321 0.00445747)
(0.562332 0.331772 0.000431764)
(0.630106 0.282867 -0.000664061)
(0.679942 0.265233 -0.000584509)
(0.679552 0.25905 -0.0003594)
(0.655325 0.255481 -0.000297993)
(0.62036 0.254883 -0.000311755)
(0.588776 0.256688 -0.000397509)
(0.560817 0.262084 -0.0004819)
(0.532 0.271577 -0.000542432)
(0.50107 0.285062 -0.000595878)
(0.468378 0.302182 -0.00065425)
(0.434491 0.321745 -0.000716979)
(0.400261 0.342143 -0.000778752)
(0.36577 0.361528 -0.000837016)
(0.331098 0.378174 -0.000888874)
(0.297777 0.391304 -0.00093735)
(0.265592 0.401645 -0.000995068)
(0.231602 0.410421 -0.00105934)
(0.196638 0.417815 -0.00111864)
(0.162268 0.424793 -0.00118253)
(0.126491 0.431638 -0.00124233)
(0.0938178 0.438953 -0.00130589)
(0.0604851 0.452646 -0.001424)
(0.0233563 0.474145 -0.00163582)
(3 6.78882e-09 0.000294452)
(3 1.00716e-07 0.000279216)
(3 2.6549e-07 0.000264104)
(3 4.8881e-07 0.000249116)
(3 7.54041e-07 0.000234255)
(3 1.04838e-06 0.000219519)
(3 1.37563e-06 0.00020491)
(3 1.6431e-06 0.000190429)
(3 1.88753e-06 0.000176076)
(3 2.11676e-06 0.000161852)
(3 2.3338e-06 0.000147771)
(2.99999 2.08263e-06 0.000133838)
(2.99998 2.96445e-06 0.000120117)
(2.99996 2.89039e-06 0.000106573)
(2.99989 1.37773e-05 9.3672e-05)
(2.99976 7.20379e-06 8.11206e-05)
(2.99937 6.61774e-05 7.1453e-05)
(2.99867 -6.02619e-06 6.32499e-05)
(2.99675 0.000278302 6.09099e-05)
(2.99168 -0.000949915 0.000108579)
(2.98881 0.00396355 9.83509e-05)
(2.93756 0.00685615 0.000805632)
(2.85593 0.0295883 0.0011705)
(2.56683 0.062104 0.00453567)
(1.6285 0.184893 0.00788228)
(0.853305 0.411376 0.00473579)
(0.566284 0.344241 0.00108773)
(0.650261 0.301018 -0.00063584)
(0.716758 0.285155 -0.000594537)
(0.718835 0.280024 -0.000336767)
(0.691139 0.27782 -0.000259597)
(0.651784 0.279666 -0.000271003)
(0.615069 0.284826 -0.00034376)
(0.582654 0.293474 -0.000417358)
(0.550466 0.305705 -0.000469914)
(0.517259 0.321377 -0.00051533)
(0.483205 0.340291 -0.000563658)
(0.448625 0.361332 -0.000616316)
(0.414317 0.38302 -0.00066876)
(0.380113 0.403526 -0.000718561)
(0.345773 0.421213 -0.000762483)
(0.312669 0.435444 -0.000802796)
(0.280627 0.44705 -0.000849988)
(0.246561 0.457242 -0.000902791)
(0.210743 0.46644 -0.000953715)
(0.174997 0.475292 -0.00100619)
(0.137381 0.484053 -0.00105557)
(0.102036 0.493181 -0.00110958)
(0.0661984 0.508837 -0.00120689)
(0.0262078 0.533873 -0.00138362)
(3 5.05028e-09 0.000245734)
(3 8.34479e-08 0.000232991)
(3 2.19618e-07 0.000220355)
(3 4.0884e-07 0.000207826)
(3 6.2677e-07 0.000195404)
(3 8.81605e-07 0.000183091)
(3 1.14865e-06 0.000170888)
(3 1.39356e-06 0.000158793)
(3 1.61159e-06 0.000146808)
(3 1.6926e-06 0.000134933)
(3 1.66933e-06 0.000123178)
(3 2.10585e-06 0.000111545)
(2.99999 3.36672e-06 0.000100075)
(2.99997 9.60457e-06 8.8743e-05)
(2.99992 2.09712e-05 7.78456e-05)
(2.99983 6.33856e-05 6.71691e-05)
(2.99953 0.000144119 5.87355e-05)
(2.99905 0.000378947 5.06496e-05)
(2.99724 0.000804463 5.76306e-05)
(2.99438 0.00180367 6.36836e-05)
(2.99364 0.00609729 2.96749e-05)
(2.9512 -0.00167256 0.000556999)
(2.89215 0.0443631 0.000760687)
(2.6548 0.00974507 0.00315588)
(1.87945 0.188854 0.00582309)
(1.04457 0.367341 0.00492934)
(0.611467 0.332869 0.00154994)
(0.688221 0.319038 -0.000574418)
(0.754048 0.311688 -0.000556542)
(0.751165 0.309664 -0.000302811)
(0.717187 0.309876 -0.000224115)
(0.672577 0.314099 -0.000232918)
(0.630973 0.321372 -0.000290038)
(0.595187 0.331514 -0.000350214)
(0.561221 0.344705 -0.000393476)
(0.527616 0.361107 -0.000431502)
(0.49407 0.380717 -0.000471168)
(0.460541 0.40248 -0.000513221)
(0.427714 0.425028 -0.000555684)
(0.395086 0.44656 -0.000596431)
(0.362207 0.465472 -0.000632083)
(0.330216 0.481239 -0.000664229)
(0.298839 0.494703 -0.000701324)
(0.265174 0.507107 -0.000743209)
(0.228968 0.519101 -0.000785779)
(0.191967 0.530899 -0.0008282)
(0.152409 0.542663 -0.000868247)
(0.113812 0.554669 -0.000908896)
(0.0741358 0.573157 -0.000982685)
(0.0299428 0.603159 -0.00113519)
(3 5.30112e-09 0.000194968)
(3 6.3883e-08 0.000184835)
(3 1.76958e-07 0.000174789)
(3 3.21488e-07 0.00016483)
(3 5.06642e-07 0.00015496)
(3 7.02292e-07 0.000145178)
(3 9.28719e-07 0.000135485)
(3 1.15826e-06 0.000125881)
(3 1.39382e-06 0.000116368)
(3 1.48685e-06 0.000106943)
(3 1.46799e-06 9.76131e-05)
(3 1.77425e-06 8.83798e-05)
(2.99999 2.7907e-06 7.92627e-05)
(2.99998 7.32675e-06 7.02505e-05)
(2.99994 1.60411e-05 6.14854e-05)
(2.99989 4.5793e-05 5.27961e-05)
(2.99968 0.000102089 4.53901e-05)
(2.99937 0.00027016 3.79768e-05)
(2.99828 0.000471982 3.65197e-05)
(2.99688 0.001671 3.52016e-05)
(2.98685 0.00361455 0.000107102)
(2.97838 -0.00374148 0.000104063)
(2.87746 0.0294421 0.00104477)
(2.69889 -0.0107015 0.00151212)
(2.20537 0.113085 0.00466988)
(1.05282 0.275858 0.00495767)
(0.549303 0.310955 0.00154318)
(0.643438 0.340299 -0.000434756)
(0.720002 0.340078 -0.00042807)
(0.72673 0.341714 -0.000246185)
(0.699693 0.344856 -0.000182272)
(0.661014 0.35187 -0.000188786)
(0.623628 0.360705 -0.000231659)
(0.591471 0.371387 -0.000278793)
(0.561114 0.384638 -0.000313083)
(0.531162 0.401114 -0.000343688)
(0.501073 0.420901 -0.000375158)
(0.470845 0.443134 -0.000407492)
(0.441315 0.466506 -0.000440522)
(0.41173 0.489281 -0.000472236)
(0.381555 0.509959 -0.00049956)
(0.35173 0.527916 -0.000523722)
(0.321832 0.544025 -0.000551498)
(0.289363 0.5598 -0.000582357)
(0.25349 0.576037 -0.00061484)
(0.21549 0.592535 -0.000646244)
(0.173866 0.609328 -0.00067608)
(0.131278 0.626325 -0.000708267)
(0.0869323 0.649616 -0.000761219)
(0.0367092 0.686848 -0.000875377)
(3 4.17416e-09 0.000142059)
(3 4.76727e-08 0.000134658)
(3 1.34742e-07 0.000127322)
(3 2.45967e-07 0.000120053)
(3 3.93356e-07 0.00011285)
(3 5.48715e-07 0.000105713)
(3 7.34576e-07 9.86428e-05)
(3 9.21475e-07 9.16393e-05)
(3 1.10885e-06 8.47032e-05)
(3 1.32716e-06 7.78341e-05)
(3 1.40048e-06 7.10346e-05)
(3 1.71501e-06 6.43052e-05)
(2.99999 2.79673e-06 5.76582e-05)
(2.99998 6.56956e-06 5.10843e-05)
(2.99996 1.38984e-05 4.46729e-05)
(2.99992 3.63384e-05 3.83113e-05)
(2.99976 7.39351e-05 3.27302e-05)
(2.99945 0.000129494 2.76881e-05)
(2.99869 0.000303792 2.45932e-05)
(2.99792 0.00011816 2.01734e-05)
(2.98913 -0.00128854 7.05686e-05)
(2.9817 0.00195678 7.11198e-05)
(2.90276 0.00231891 0.000589146)
(2.76569 0.0373689 0.000853243)
(2.36295 0.0813031 0.0029265)
(1.1743 0.23766 0.00401338)
(0.580198 0.360204 0.00137739)
(0.609599 0.380607 -0.000187612)
(0.665472 0.370501 -0.000247731)
(0.684468 0.368954 -0.000189632)
(0.66899 0.37245 -0.000144675)
(0.639721 0.381975 -0.000145231)
(0.608734 0.393271 -0.000169441)
(0.582682 0.405623 -0.000203502)
(0.558372 0.419987 -0.000229425)
(0.53408 0.437356 -0.000252125)
(0.509059 0.457831 -0.000274921)
(0.483498 0.481089 -0.000298385)
(0.45834 0.505871 -0.000322247)
(0.432829 0.530401 -0.000345057)
(0.406261 0.553454 -0.000364611)
(0.379321 0.574472 -0.00038036)
(0.351892 0.594522 -0.000398738)
(0.321815 0.614979 -0.00042005)
(0.287475 0.637233 -0.000442461)
(0.24944 0.660838 -0.000463206)
(0.206279 0.685773 -0.000483281)
(0.159396 0.712006 -0.000502545)
(0.108266 0.744863 -0.000538156)
(0.0480477 0.795606 -0.000620578)
(3 3.07062e-09 8.6904e-05)
(3 3.65613e-08 8.23652e-05)
(3 9.43199e-08 7.78681e-05)
(3 1.77821e-07 7.34125e-05)
(3 2.76922e-07 6.89987e-05)
(3 4.00406e-07 6.46267e-05)
(3 5.29031e-07 6.02966e-05)
(3 6.80535e-07 5.60085e-05)
(3 8.06384e-07 5.17625e-05)
(3 9.94381e-07 4.7559e-05)
(3 1.11334e-06 4.33987e-05)
(3 1.44329e-06 3.92814e-05)
(2.99999 2.23162e-06 3.52121e-05)
(2.99999 4.96957e-06 3.11871e-05)
(2.99997 1.05469e-05 2.72414e-05)
(2.99995 2.04612e-05 2.33194e-05)
(2.99979 4.01652e-05 1.99598e-05)
(2.99964 3.95535e-05 1.62152e-05)
(2.99831 -6.57044e-05 1.67145e-05)
(2.99558 -5.41142e-05 1.68639e-05)
(2.98944 -0.00195258 3.32352e-05)
(2.9859 0.00255263 2.97766e-05)
(2.92231 0.00405664 0.000287591)