/*--------------------------------*- C++ -*----------------------------------*\
| =========                 |                                                 |
| \\      /  F ield         | OpenFOAM: The Open Source CFD Toolbox           |
|  \\    /   O peration     | Version:  2112                                  |
|   \\  /    A nd           | Website:  www.openfoam.com                      |
|    \\/     M anipulation  |                                                 |
\*---------------------------------------------------------------------------*/
FoamFile
{
    version     2.0;
    format      ascii;
    arch        "LSB;label=32;scalar=64";
    class       volScalarField;
    location    "3";
    object      T;
}
// * * * * * * * * * * * * * * * * * * * * * * * * * * * * * * * * * * * * * //

dimensions      [0 0 0 1 0 0 0];

internalField   nonuniform List<scalar> 
1000
(
0.00320563
0.00320578
0.00320609
0.00320655
0.00320717
0.00320796
0.0032089
0.00321
0.00321127
0.0032127
0.0032143
0.00321607
0.00321801
0.00322012
0.00322241
0.00322487
0.00322751
0.00323033
0.00323333
0.00323651
0.00323987
0.00324343
0.00324716
0.00325109
0.00325521
0.00325952
0.00326403
0.00326873
0.00327363
0.00327873
0.00328404
0.00328955
0.00329526
0.00330118
0.00330731
0.00331365
0.00332021
0.00332698
0.00333397
0.00334117
0.0033486
0.00335625
0.00336413
0.00337223
0.00338057
0.00338913
0.00339793
0.00340696
0.00341623
0.00342574
0.0034355
0.00344549
0.00345573
0.00346622
0.00347696
0.00348795
0.0034992
0.0035107
0.00352247
0.00353449
0.00354678
0.00355933
0.00357215
0.00358524
0.0035986
0.00361224
0.00362615
0.00364035
0.00365482
0.00366958
0.00368463
0.00369996
0.00371559
0.00373151
0.00374772
0.00376424
0.00378105
0.00379817
0.0038156
0.00383333
0.00385137
0.00386973
0.0038884
0.0039074
0.00392671
0.00394634
0.00396631
0.0039866
0.00400722
0.00402818
0.00404947
0.0040711
0.00409308
0.0041154
0.00413807
0.00416108
0.00418445
0.00420818
0.00423227
0.00425671
0.00428152
0.0043067
0.00433224
0.00435816
0.00438446
0.00441113
0.00443818
0.00446562
0.00449344
0.00452166
0.00455026
0.00457926
0.00460866
0.00463847
0.00466867
0.00469929
0.00473031
0.00476175
0.0047936
0.00482588
0.00485858
0.0048917
0.00492525
0.00495924
0.00499366
0.00502852
0.00506381
0.00509956
0.00513575
0.00517239
0.00520949
0.00524705
0.00528506
0.00532354
0.00536249
0.00540191
0.0054418
0.00548217
0.00552302
0.00556435
0.00560617
0.00564848
0.00569128
0.00573458
0.00577839
0.00582269
0.00586751
0.00591283
0.00595867
0.00600503
0.0060519
0.00609931
0.00614724
0.0061957
0.0062447
0.00629423
0.00634431
0.00639494
0.00644611
0.00649784
0.00655013
0.00660297
0.00665638
0.00671035
0.0067649
0.00682002
0.00687572
0.00693201
0.00698887
0.00704633
0.00710438
0.00716303
0.00722228
0.00728213
0.00734259
0.00740366
0.00746535
0.00752766
0.00759059
0.00765414
0.00771833
0.00778315
0.00784862
0.00791472
0.00798147
0.00804886
0.00811692
0.00818563
0.008255
0.00832503
0.00839574
0.00846712
0.00853917
0.00861191
0.00868533
0.00875943
0.00883424
0.00890973
0.00898593
0.00906283
0.00914044
0.00921877
0.0092978
0.00937756
0.00945805
0.00953926
0.0096212
0.00970388
0.00978729
0.00987146
0.00995637
0.010042
0.0101284
0.0102156
0.0103036
0.0103923
0.0104818
0.010572
0.010663
0.0107549
0.0108475
0.0109409
0.0110351
0.0111301
0.0112259
0.0113225
0.0114199
0.0115181
0.0116172
0.011717
0.0118178
0.0119193
0.0120217
0.0121249
0.0122289
0.0123338
0.0124396
0.0125462
0.0126537
0.012762
0.0128712
0.0129813
0.0130922
0.0132041
0.0133168
0.0134304
0.0135449
0.0136603
0.0137765
0.0138937
0.0140118
0.0141308
0.0142507
0.0143716
0.0144933
0.014616
0.0147397
0.0148642
0.0149897
0.0151161
0.0152435
0.0153718
0.0155011
0.0156314
0.0157626
0.0158947
0.0160278
0.016162
0.016297
0.0164331
0.0165701
0.0167082
0.0168472
0.0169872
0.0171282
0.0172702
0.0174132
0.0175572
0.0177023
0.0178483
0.0179954
0.0181435
0.0182926
0.0184427
0.0185939
0.0187461
0.0188994
0.0190537
0.019209
0.0193654
0.0195229
0.0196814
0.0198409
0.0200016
0.0201633
0.020326
0.0204899
0.0206548
0.0208208
0.0209878
0.021156
0.0213252
0.0214955
0.021667
0.0218395
0.0220131
0.0221878
0.0223637
0.0225406
0.0227187
0.0228978
0.0230781
0.0232595
0.023442
0.0236257
0.0238104
0.0239963
0.0241834
0.0243715
0.0245608
0.0247513
0.0249429
0.0251356
0.0253295
0.0255245
0.0257207
0.025918
0.0261165
0.0263162
0.026517
0.0267189
0.0269221
0.0271264
0.0273318
0.0275385
0.0277463
0.0279553
0.0281654
0.0283768
0.0285893
0.028803
0.0290178
0.0292339
0.0294511
0.0296696
0.0298892
0.03011
0.030332
0.0305552
0.0307796
0.0310052
0.0312319
0.0314599
0.0316891
0.0319194
0.032151
0.0323838
0.0326177
0.0328529
0.0330893
0.0333268
0.0335656
0.0338056
0.0340468
0.0342892
0.0345328
0.0347776
0.0350236
0.0352708
0.0355192
0.0357689
0.0360197
0.0362718
0.036525
0.0367795
0.0370351
0.037292
0.0375501
0.0378094
0.0380698
0.0383315
0.0385944
0.0388585
0.0391238
0.0393903
0.039658
0.039927
0.0401971
0.0404684
0.0407409
0.0410146
0.0412894
0.0415655
0.0418428
0.0421213
0.0424009
0.0426818
0.0429638
0.043247
0.0435314
0.043817
0.0441038
0.0443917
0.0446808
0.0449711
0.0452626
0.0455552
0.045849
0.046144
0.0464401
0.0467374
0.0470358
0.0473354
0.0476361
0.047938
0.0482411
0.0485452
0.0488506
0.049157
0.0494646
0.0497733
0.0500832
0.0503942
0.0507062
0.0510195
0.0513338
0.0516492
0.0519657
0.0522834
0.0526021
0.0529219
0.0532428
0.0535648
0.0538879
0.0542121
0.0545373
0.0548636
0.055191
0.0555194
0.0558489
0.0561794
0.056511
0.0568436
0.0571772
0.0575119
0.0578476
0.0581843
0.0585221
0.0588608
0.0592005
0.0595413
0.059883
0.0602257
0.0605694
0.0609141
0.0612597
0.0616063
0.0619538
0.0623023
0.0626518
0.0630022
0.0633535
0.0637057
0.0640589
0.0644129
0.0647679
0.0651238
0.0654805
0.0658381
0.0661966
0.066556
0.0669163
0.0672773
0.0676393
0.0680021
0.0683657
0.0687301
0.0690953
0.0694614
0.0698282
0.0701959
0.0705643
0.0709335
0.0713035
0.0716742
0.0720457
0.0724179
0.0727909
0.0731646
0.073539
0.0739141
0.0742899
0.0746663
0.0750435
0.0754214
0.0757999
0.076179
0.0765588
0.0769393
0.0773203
0.077702
0.0780843
0.0784671
0.0788506
0.0792346
0.0796192
0.0800044
0.0803901
0.0807763
0.0811631
0.0815504
0.0819382
0.0823265
0.0827152
0.0831045
0.0834942
0.0838843
0.0842749
0.0846659
0.0850574
0.0854492
0.0858415
0.0862341
0.0866271
0.0870205
0.0874142
0.0878083
0.0882026
0.0885974
0.0889924
0.0893877
0.0897833
0.0901791
0.0905753
0.0909716
0.0913682
0.0917651
0.0921621
0.0925593
0.0929567
0.0933543
0.0937521
0.09415
0.094548
0.0949462
0.0953445
0.0957429
0.0961413
0.0965399
0.0969385
0.0973371
0.0977358
0.0981345
0.0985332
0.0989319
0.0993306
0.0997293
0.100128
0.100526
0.100925
0.101323
0.101722
0.10212
0.102518
0.102916
0.103314
0.103711
0.104109
0.104506
0.104903
0.1053
0.105697
0.106093
0.106489
0.106885
0.10728
0.107676
0.108071
0.108465
0.108859
0.109253
0.109647
0.11004
0.110433
0.110825
0.111217
0.111608
0.111999
0.11239
0.11278
0.113169
0.113559
0.113947
0.114335
0.114722
0.115109
0.115495
0.115881
0.116266
0.116651
0.117034
0.117417
0.1178
0.118182
0.118563
0.118943
0.119323
0.119701
0.12008
0.120457
0.120833
0.121209
0.121584
0.121958
0.122331
0.122704
0.123075
0.123446
0.123816
0.124185
0.124552
0.124919
0.125285
0.12565
0.126014
0.126377
0.126739
0.1271
0.12746
0.127819
0.128177
0.128534
0.128889
0.129244
0.129597
0.129949
0.1303
0.13065
0.130999
0.131347
0.131693
0.132038
0.132382
0.132724
0.133066
0.133406
0.133745
0.134082
0.134418
0.134753
0.135086
0.135418
0.135749
0.136078
0.136406
0.136733
0.137058
0.137381
0.137704
0.138024
0.138343
0.138661
0.138977
0.139292
0.139605
0.139917
0.140227
0.140536
0.140843
0.141148
0.141452
0.141754
0.142054
0.142353
0.14265
0.142946
0.14324
0.143532
0.143822
0.144111
0.144398
0.144684
0.144967
0.145249
0.145529
0.145807
0.146084
0.146358
0.146631
0.146902
0.147172
0.147439
0.147705
0.147968
0.14823
0.14849
0.148748
0.149004
0.149259
0.149511
0.149761
0.15001
0.150256
0.150501
0.150744
0.150984
0.151223
0.15146
0.151694
0.151927
0.152158
0.152386
0.152613
0.152837
0.15306
0.15328
0.153499
0.153715
0.153929
0.154141
0.154352
0.15456
0.154765
0.154969
0.155171
0.15537
0.155568
0.155763
0.155956
0.156147
0.156336
0.156523
0.156707
0.15689
0.15707
0.157248
0.157424
0.157597
0.157769
0.157938
0.158105
0.15827
0.158433
0.158593
0.158751
0.158907
0.159061
0.159213
0.159362
0.159509
0.159654
0.159797
0.159937
0.160075
0.160211
0.160345
0.160477
0.160606
0.160733
0.160858
0.16098
0.161101
0.161219
0.161334
0.161448
0.161559
0.161668
0.161775
0.16188
0.161982
0.162082
0.16218
0.162276
0.162369
0.16246
0.162549
0.162636
0.16272
0.162802
0.162882
0.16296
0.163036
0.163109
0.16318
0.163249
0.163316
0.163381
0.163443
0.163503
0.163561
0.163617
0.163671
0.163722
0.163771
0.163818
0.163863
0.163906
0.163947
0.163986
0.164022
0.164056
0.164088
0.164119
0.164147
0.164172
0.164196
0.164218
0.164238
0.164255
0.164271
0.164284
0.164296
0.164305
0.164313
0.164318
0.164322
0.164323
0.164323
0.16432
0.164316
0.16431
0.164301
0.164291
0.164279
0.164265
0.164249
0.164232
0.164212
0.16419
0.164167
0.164142
0.164115
0.164086
0.164056
0.164024
0.16399
0.163954
0.163917
0.163877
0.163836
0.163794
0.16375
0.163704
0.163656
0.163607
0.163557
0.163504
0.16345
0.163395
0.163338
0.16328
0.16322
0.163158
0.163095
0.163031
0.162965
0.162898
0.162829
0.162759
0.162688
0.162615
0.162541
0.162466
0.16239
0.162312
0.162233
0.162153
0.162071
0.161989
0.161905
0.16182
0.161734
0.161647
0.161559
0.161469
0.161379
0.161288
0.161196
0.161102
0.161008
0.160913
0.160817
0.160721
0.160623
0.160525
0.160425
0.160325
0.160225
0.160123
0.160021
0.159918
0.159815
0.159711
0.159606
0.159501
0.159395
0.159289
0.159182
0.159074
0.158967
0.158859
0.15875
0.158641
0.158532
0.158422
0.158313
0.158202
0.158092
0.157982
0.157871
0.15776
0.157649
0.157538
0.157427
0.157316
0.157205
0.157094
0.156983
0.156872
0.156761
0.156651
0.15654
0.15643
0.15632
0.15621
0.156101
0.155992
0.155883
0.155774
0.155666
0.155559
0.155452
0.155345
0.155239
0.155133
0.155029
0.154924
0.154821
0.154718
0.154616
0.154514
0.154413
0.154314
0.154215
0.154116
0.154019
0.153923
0.153827
0.153733
0.15364
0.153548
0.153456
0.153366
0.153277
0.15319
0.153103
0.153018
0.152934
0.152852
0.15277
0.15269
0.152612
0.152535
0.152459
0.152385
0.152313
0.152242
0.152172
0.152104
0.152038
0.151974
0.151911
0.15185
0.151791
0.151734
0.151678
0.151624
0.151573
0.151523
0.151475
0.151429
0.151385
0.151344
0.151304
0.151266
0.151231
0.151197
0.151166
0.151137
0.151111
0.151086
0.151064
0.151045
0.151027
0.151013
0.151
0.15099
0.150982
0.150977
0.150975
)
;

boundaryField
{
    sides
    {
        type            zeroGradient;
    }
    empty
    {
        type            empty;
    }
}


// ************************************************************************* //
