/*--------------------------------*- C++ -*----------------------------------*\
| =========                 |                                                 |
| \\      /  F ield         | OpenFOAM: The Open Source CFD Toolbox           |
|  \\    /   O peration     | Version:  2112                                  |
|   \\  /    A nd           | Website:  www.openfoam.com                      |
|    \\/     M anipulation  |                                                 |
\*---------------------------------------------------------------------------*/
FoamFile
{
    version     2.0;
    format      ascii;
    arch        "LSB;label=32;scalar=64";
    class       volScalarField;
    location    "8";
    object      Ma;
}
// * * * * * * * * * * * * * * * * * * * * * * * * * * * * * * * * * * * * * //

dimensions      [0 0 0 0 0 0 0];

internalField   nonuniform List<scalar> 
5250
(
2.99998
2.99995
2.99983
2.99966
2.99897
2.99799
2.99419
2.98798
2.96736
2.92202
2.81027
2.50448
1.93396
0.91757
0.401147
0.336032
0.346323
0.337845
0.303397
0.250489
0.201895
0.161413
0.120573
0.0753422
0.0416029
2.99998
2.99995
2.99983
2.99967
2.99899
2.99802
2.9943
2.98815
2.96789
2.92291
2.81254
2.50914
1.94484
0.927446
0.40846
0.336565
0.346975
0.338937
0.304951
0.253012
0.205701
0.166665
0.128173
0.088444
0.0647664
2.99999
2.99996
2.99984
2.99968
2.99902
2.99808
2.99448
2.98849
2.96885
2.92502
2.81735
2.51979
1.96886
0.950698
0.426161
0.339246
0.350256
0.343724
0.311173
0.261746
0.217499
0.182028
0.148762
0.11784
0.102631
2.99999
2.99996
2.99985
2.99969
2.99907
2.99817
2.99475
2.98899
2.97032
2.92824
2.82487
2.53638
2.00639
0.989419
0.454569
0.343613
0.356358
0.35275
0.322367
0.276599
0.236251
0.205315
0.177893
0.154284
0.143835
2.99999
2.99996
2.99986
2.99971
2.99912
2.99828
2.99506
2.98962
2.97207
2.93237
2.83508
2.56171
2.06
1.05019
0.496055
0.351122
0.366303
0.366591
0.338649
0.296834
0.260822
0.23436
0.212376
0.194566
0.187262
2.99999
2.99996
2.99987
2.99973
2.99918
2.9984
2.9954
2.99036
2.974
2.93727
2.84646
2.59251
2.11947
1.13515
0.548801
0.360848
0.379796
0.385129
0.359879
0.322349
0.290638
0.268986
0.25205
0.239558
0.235561
2.99999
2.99997
2.99988
2.99976
2.99925
2.99853
2.99577
2.99122
2.97619
2.9432
2.86001
2.63027
2.19381
1.24926
0.614422
0.375528
0.398906
0.409466
0.38644
0.353384
0.325662
0.308778
0.297731
0.291178
0.292467
2.99999
2.99997
2.99989
2.99978
2.99932
2.99867
2.99612
2.99215
2.97839
2.95029
2.87534
2.67456
2.2818
1.39639
0.694106
0.402305
0.428069
0.441625
0.420031
0.391326
0.367342
0.354777
0.349897
0.351909
0.363319
2.99999
2.99998
2.9999
2.9998
2.9994
2.99883
2.99653
2.99313
2.98082
2.95762
2.89154
2.72157
2.37879
1.57082
0.789588
0.449047
0.472323
0.483267
0.463473
0.437084
0.416346
0.408299
0.410738
0.425891
0.460314
3
2.99998
2.99992
2.99983
2.99949
2.99899
2.99705
2.99408
2.98359
2.9639
2.90658
2.76345
2.46173
1.76802
0.875533
0.491104
0.513491
0.524773
0.512291
0.488989
0.472023
0.468425
0.482867
0.524046
0.621873
3
2.99998
2.99995
2.99983
2.99965
2.99898
2.99791
2.99428
2.98722
2.96697
2.91751
2.80429
2.48787
1.88896
0.945568
0.542107
0.537296
0.550863
0.551512
0.537813
0.528874
0.533845
0.565307
0.642337
0.804791
3
2.99999
2.99994
2.99987
2.99961
2.99922
2.99773
2.99546
2.98725
2.97264
2.92769
2.82197
2.58588
1.98486
1.12203
0.622685
0.556134
0.571818
0.581952
0.58049
0.581827
0.598457
0.64423
0.736133
0.896075
3
2.99999
2.99995
2.99989
2.99966
2.99934
2.99802
2.99613
2.98891
2.97693
2.93794
2.8497
2.64588
2.11178
1.29063
0.710635
0.570648
0.588226
0.607992
0.618479
0.63029
0.656516
0.708668
0.795492
0.925348
3
2.99999
2.99996
2.99991
2.99971
2.99943
2.9983
2.99671
2.99038
2.98064
2.94686
2.87701
2.70222
2.25853
1.48953
0.81486
0.595907
0.611949
0.634754
0.654645
0.674037
0.706403
0.758579
0.834822
0.94083
3
2.99999
2.99997
2.99993
2.99976
2.99953
2.9986
2.99728
2.99202
2.98417
2.95566
2.90378
2.75566
2.41915
1.72681
0.935511
0.644304
0.652097
0.671064
0.692183
0.714042
0.746909
0.798807
0.865258
0.954416
3
3
2.99997
2.99994
2.99981
2.99962
2.99887
2.99781
2.99356
2.98728
2.96418
2.92277
2.80444
2.52329
1.93938
1.04692
0.699938
0.688697
0.707643
0.729386
0.751192
0.782417
0.830275
0.892885
0.967724
3
3
2.99998
2.99996
2.99985
2.99971
2.99913
2.99831
2.99515
2.99006
2.97313
2.93735
2.84567
2.59994
2.13612
1.22027
0.793822
0.716508
0.733638
0.755247
0.782699
0.813425
0.856147
0.913918
0.981732
3
3
2.99999
2.99997
2.99988
2.99977
2.99931
2.99866
2.99605
2.99217
2.9783
2.95184
2.87784
2.68694
2.30906
1.46965
0.923997
0.752915
0.758117
0.778025
0.807923
0.841714
0.880957
0.931629
0.993004
3.00001
3
2.99999
2.99998
2.99991
2.99983
2.99948
2.99898
2.99703
2.99412
2.98367
2.9646
2.90883
2.77147
2.48658
1.80492
1.09774
0.821189
0.800438
0.811589
0.835817
0.867879
0.905289
0.950542
1.00455
3.00001
3
3
2.99998
2.99995
2.99984
2.99968
2.99904
2.99812
2.99457
2.98904
2.97002
2.93248
2.83276
2.58512
2.06883
1.2428
0.889502
0.837537
0.847334
0.867294
0.895901
0.929459
0.968725
1.01583
3.00001
3
3
2.99999
2.99996
2.99988
2.99976
2.99929
2.99861
2.99598
2.9919
2.97788
2.9501
2.87482
2.68115
2.29238
1.49849
1.01232
0.876817
0.877408
0.894352
0.921924
0.954103
0.989908
1.02955
3.00001
3.00001
3
2.99999
2.99997
2.99993
2.99978
2.99957
2.99874
2.99749
2.99288
2.98533
2.96038
2.91091
2.77695
2.47615
1.81342
1.17432
0.93917
0.913395
0.922928
0.945506
0.975704
1.00883
1.04574
3.00001
3.00001
3
3
2.99998
2.99994
2.99988
2.99964
2.99927
2.99792
2.9958
2.98853
2.97493
2.93556
2.84062
2.63647
2.10847
1.35753
1.01384
0.953563
0.957275
0.973403
0.997786
1.02642
1.05966
3.00001
3.00001
3
3
2.99999
2.99997
2.9999
2.99979
2.99938
2.99877
2.9966
2.99277
2.98101
2.95461
2.8897
2.7157
2.3762
1.62055
1.13903
0.995331
0.987896
0.999449
1.02141
1.04634
1.07473
3.00001
3.00001
3.00001
3
2.99999
2.99998
2.99992
2.99985
2.99954
2.99911
2.99737
2.99492
2.98537
2.97047
2.92106
2.82101
2.57074
2.03265
1.33595
1.06562
1.02587
1.02898
1.04566
1.0691
1.09358
3.00001
3.00001
3.00001
3
3
2.99999
2.99995
2.9999
2.99969
2.9994
2.99825
2.99656
2.99042
2.97981
2.94727
2.87251
2.70457
2.25657
1.56881
1.16052
1.06191
1.0573
1.06659
1.08742
1.11228
3.00001
3.00001
3.00001
3
3
2.99999
2.99998
2.99992
2.99983
2.99951
2.99903
2.99722
2.99443
2.98485
2.96703
2.91627
2.79343
2.53664
1.92772
1.34237
1.11891
1.09024
1.09271
1.10775
1.12925
3.00001
3.00001
3.00001
3.00001
3
3
2.99999
2.99994
2.99989
2.99966
2.99933
2.99805
2.99623
2.98929
2.97819
2.94205
2.8637
2.68597
2.22683
1.55668
1.20136
1.12216
1.11745
1.12554
1.14119
3.00001
3.00001
3.00001
3.00001
3
3
2.99999
2.99997
2.99993
2.99977
2.99955
2.99869
2.99744
2.99266
2.98539
2.95989
2.91323
2.78314
2.49374
1.87924
1.35419
1.1697
1.14334
1.14309
1.1523
3.00001
3.00001
3.00001
3.00001
3.00001
3
3
2.99998
2.99994
2.99988
2.99965
2.99931
2.99802
2.99609
2.98919
2.97738
2.94112
2.85983
2.67908
2.22358
1.56369
1.24965
1.17653
1.16505
1.1609
3.00001
3.00001
3.00001
3.00001
3.00001
3
3
2.99999
2.99996
2.99992
2.99976
2.99954
2.99865
2.99739
2.99252
2.98524
2.95951
2.91294
2.78502
2.49521
1.90667
1.38706
1.21238
1.1799
1.16283
3.00001
3.00001
3.00001
3.00001
3.00001
3.00001
3
3
2.99998
2.99995
2.99985
2.9997
2.99914
2.99832
2.9952
2.99049
2.97383
2.94498
2.85805
2.68174
2.23787
1.61171
1.28757
1.19092
1.14862
3.00001
3.00001
3.00001
3.00001
3.00001
3.00001
3
3
2.99999
2.99997
2.99993
2.99978
2.99955
2.99872
2.99746
2.99294
2.98561
2.96166
2.91556
2.79243
2.51993
1.934
1.42285
1.20388
1.10964
3.00001
3.00001
3.00001
3.00001
3.00001
3.00001
3.00001
3
3
2.99998
2.99994
2.99988
2.99965
2.99931
2.99804
2.99612
2.98931
2.97773
2.9421
2.86309
2.68674
2.24443
1.59559
1.2128
1.03538
3.00001
3.00001
3.00001
3.00001
3.00001
3.00001
3.00001
3
3
2.99999
2.99996
2.99992
2.99976
2.99952
2.99861
2.9973
2.99224
2.98468
2.95771
2.90995
2.77195
2.48246
1.8582
1.23327
0.916621
3.00001
3.00001
3.00001
3.00001
3.00001
3.00001
3.00001
3.00001
3
3
2.99998
2.99994
2.99983
2.99965
2.99898
2.998
2.99425
2.98843
2.96838
2.92911
2.82418
2.56219
2.03361
1.21542
0.764404
3.00001
3.00001
3.00001
3.00001
3.00001
3.00001
3.00001
3.00001
3
3
2.99999
2.99995
2.99989
2.99966
2.99932
2.99801
2.99601
2.98883
2.97581
2.93616
2.84124
2.62694
2.06868
1.24696
0.614407
3.00001
3.00001
3.00001
3.00001
3.00001
3.00001
3.00001
3.00001
3
3
2.99999
2.99995
2.9999
2.9997
2.9994
2.99824
2.99645
2.99013
2.97801
2.94247
2.8527
2.6541
2.09802
1.26475
0.521771
3.00001
3.00001
3.00001
3.00001
3.00001
3.00001
3.00001
3.00001
3
3
2.99999
2.99997
2.99989
2.99978
2.99936
2.99869
2.99638
2.99177
2.97852
2.94536
2.86678
2.63415
2.19242
1.25043
0.519322
3.00001
3.00001
3.00001
3.00001
3.00001
3.00001
3.00001
3.00001
3
3
2.99999
2.99997
2.99989
2.99979
2.99935
2.99873
2.99628
2.99225
2.97874
2.94898
2.87149
2.65536
2.22959
1.30382
0.54563
3.00001
3.00001
3.00001
3.00001
3.00001
3.00001
3.00001
3.00001
3
3
2.99999
2.99997
2.9999
2.99981
2.99942
2.99882
2.99671
2.9927
2.9807
2.95137
2.88029
2.6724
2.26765
1.36582
0.573007
3.00001
3.00001
3.00001
3.00001
3.00001
3.00001
3.00001
3.00001
3
3
2.99999
2.99996
2.99992
2.99975
2.9995
2.9985
2.99701
2.99143
2.98171
2.95115
2.87883
2.70963
2.25199
1.45651
0.57731
3.00001
3.00001
3.00001
3.00001
3.00001
3.00001
3.00001
3.00001
3
3
2.99999
2.99996
2.99992
2.99975
2.99951
2.99851
2.99709
2.99137
2.9826
2.95116
2.88914
2.72067
2.30419
1.51386
0.597955
3.00001
3.00001
3.00001
3.00001
3.00001
3.00001
3.00001
3.00001
3.00001
3
2.99999
2.99996
2.99992
2.99976
2.99952
2.99858
2.9972
2.99181
2.98329
2.95382
2.89325
2.73449
2.3374
1.56817
0.63135
3.00001
3.00001
3.00001
3.00001
3.00001
3.00001
3.00001
3.00001
3
3
2.99999
2.99997
2.99991
2.99982
2.99946
2.99893
2.99694
2.99363
2.98278
2.9596
2.89869
2.73498
2.40379
1.63863
0.699265
3.00001
3.00001
3.00001
3.00001
3.00001
3.00001
3.00001
3.00001
3
3
2.99999
2.99998
2.99991
2.99982
2.99945
2.99894
2.99683
2.99376
2.98224
2.96186
2.89972
2.74794
2.42157
1.67947
0.725993
3.00001
3.00001
3.00001
3.00001
3.00001
3.00001
3.00001
3.00001
3
3
2.99999
2.99998
2.99992
2.99983
2.99948
2.99898
2.99702
2.99396
2.9834
2.96234
2.90362
2.75183
2.43572
1.69734
0.74451
3.00001
3.00001
3.00001
3.00001
3.00001
3.00001
3.00001
3.00001
3.00001
3
2.99999
2.99997
2.99993
2.99979
2.99958
2.99878
2.99753
2.99315
2.98495
2.96036
2.90133
2.76332
2.39483
1.68673
0.707879
3.00001
3.00001
3.00001
3.00001
3.00001
3.00001
3.00001
3.00001
3
3
2.99999
2.99998
2.99992
2.99983
2.99949
2.99899
2.99705
2.99404
2.98353
2.96318
2.90499
2.75749
2.44597
1.72053
0.772598
3.00001
3.00001
3.00001
3.00001
3.00001
3.00001
3.00001
3.00001
3
3
2.99999
2.99998
2.99991
2.99983
2.99947
2.99898
2.99695
2.99402
2.98287
2.96379
2.90384
2.76268
2.44893
1.72902
0.777551
0.962261
0.764004
0.286848
0.250804
0.296693
0.398398
0.435843
0.463231
0.499098
0.538582
0.573078
0.603018
0.631633
0.661996
0.689202
0.706053
0.711373
0.710897
0.702674
0.683226
0.65395
0.617531
0.5775
0.536226
0.495094
0.455233
0.41679
0.379984
0.344585
0.310185
0.276671
0.243931
0.211001
0.178642
0.147131
0.116502
0.0868595
0.0583475
0.0314684
0.0154353
0.0347205
0.059397
0.0853943
0.110168
0.134384
0.157065
0.17882
0.201102
0.22397
0.245971
0.267198
0.287794
0.307919
0.327597
0.346899
0.365846
0.384377
0.402673
0.420522
0.438233
0.455452
0.472618
0.489335
0.505978
0.522244
0.538461
0.554284
0.570139
0.58557
0.601078
0.61616
0.63136
0.646078
0.661014
0.675353
0.690029
0.704007
0.718372
0.73204
0.746038
0.759417
0.773046
0.786124
0.799418
0.812168
0.825154
0.837562
0.850238
0.862301
0.874647
0.886346
0.898276
0.909532
0.920888
0.931455
0.94186
0.951095
0.959486
0.96559
0.970053
0.97058
0.850702
0.598928
0.413506
0.297127
0.160376
0.0525759
0.140477
0.222818
0.286867
0.330111
0.361994
0.393198
0.425456
0.456738
0.477583
0.483329
0.47998
0.46813
0.445799
0.41356
0.375135
0.334612
0.294122
0.254492
0.216556
0.180988
0.14719
0.115229
0.0853571
0.0587031
0.0406272
0.0406194
0.0588509
0.0823865
0.107379
0.132664
0.157646
0.181975
0.205372
0.227697
0.249819
0.271843
0.29362
0.314879
0.335331
0.354745
0.374403
0.394433
0.414243
0.43311
0.451648
0.469574
0.487416
0.504631
0.521852
0.538458
0.555074
0.571156
0.587204
0.602765
0.618342
0.633412
0.648578
0.663243
0.67802
0.69235
0.70678
0.720785
0.734916
0.74859
0.762463
0.775826
0.789432
0.802523
0.815798
0.828664
0.84156
0.854226
0.866734
0.87918
0.891308
0.903495
0.915271
0.927199
0.938663
0.950361
0.961525
0.972996
0.983853
0.995066
1.00556
1.01648
1.02652
1.03689
1.04602
1.0551
1.0623
1.06834
1.07164
0.990754
0.964777
0.858921
0.753197
0.646252
0.531716
0.41407
0.309304
0.220008
0.140377
0.0756284
0.0730258
0.117788
0.162437
0.202133
0.229367
0.231932
0.214965
0.199773
0.177954
0.147596
0.117366
0.0897684
0.071974
0.0686098
0.0804624
0.100248
0.123781
0.148593
0.173822
0.198628
0.223214
0.246636
0.269822
0.292582
0.315136
0.337161
0.358762
0.379603
0.39986
0.419304
0.438451
0.457259
0.475896
0.494117
0.511676
0.528331
0.544854
0.561907
0.578948
0.595404
0.611259
0.626929
0.642157
0.657359
0.672099
0.686837
0.701138
0.71544
0.729338
0.743265
0.756787
0.770404
0.783594
0.796932
0.809833
0.822908
0.835577
0.848403
0.860872
0.873466
0.88573
0.898134
0.910158
0.922398
0.934149
0.946224
0.957708
0.969593
0.980818
0.992452
1.00344
1.0148
1.02557
1.03665
1.04723
1.05804
1.06843
1.07907
1.08934
1.09981
1.10989
1.12003
1.12969
1.13924
1.14814
1.15654
1.16378
1.16945
1.17299
1.01337
1.03693
1.0059
0.953082
0.883046
0.801018
0.711892
0.621067
0.538936
0.458654
0.384004
0.313021
0.252255
0.197263
0.148192
0.106798
0.0770745
0.0771561
0.105394
0.132145
0.171384
0.207646
0.238785
0.266258
0.290935
0.31407
0.33662
0.358846
0.380875
0.402287
0.423371
0.443708
0.463419
0.482402
0.501063
0.519208
0.536985
0.554277
0.570979
0.5873
0.602904
0.618397
0.633368
0.648467
0.66304
0.677446
0.690769
0.70416
0.717723
0.731896
0.745494
0.758828
0.771734
0.784599
0.797199
0.809763
0.8221
0.83436
0.846442
0.858423
0.870276
0.882016
0.893639
0.905175
0.916553
0.927938
0.939082
0.950358
0.961302
0.972489
0.983282
0.994372
1.00504
1.016
1.02656
1.03734
1.04775
1.05835
1.06858
1.079
1.08903
1.09929
1.10914
1.11926
1.129
1.13909
1.1488
1.15884
1.16841
1.17825
1.1876
1.19717
1.20626
1.21541
1.22405
1.23247
1.24016
1.24705
1.25238
1.25562
1.03072
1.07289
1.08407
1.06553
1.03118
0.981149
0.922231
0.858251
0.793252
0.726987
0.658057
0.592078
0.532762
0.478779
0.432898
0.396648
0.375501
0.373711
0.390585
0.413892
0.441213
0.470713
0.497044
0.519413
0.538705
0.555831
0.572259
0.588401
0.604362
0.619996
0.635094
0.649839
0.663929
0.677696
0.690842
0.703787
0.716166
0.728298
0.739859
0.751195
0.762043
0.772831
0.783431
0.794071
0.804721
0.815196
0.825111
0.834868
0.845
0.855869
0.866794
0.877517
0.887937
0.898341
0.908635
0.91901
0.92931
0.939669
0.949957
0.960293
0.970553
0.980882
0.99109
1.00143
1.01155
1.02189
1.03192
1.04225
1.0522
1.0625
1.07241
1.08265
1.09253
1.10266
1.11253
1.1225
1.13231
1.14211
1.15181
1.16144
1.17106
1.18063
1.19027
1.19981
1.20942
1.21883
1.22835
1.23762
1.24704
1.25613
1.26539
1.27424
1.28326
1.29178
1.30036
1.30832
1.31599
1.3227
1.32816
1.33145
1.04107
1.09441
1.12113
1.13009
1.11903
1.09522
1.06094
1.02092
0.97605
0.927509
0.875717
0.821986
0.768699
0.718033
0.67216
0.636128
0.615258
0.614755
0.630242
0.654993
0.683101
0.71173
0.73618
0.755529
0.768158
0.77735
0.78557
0.793692
0.801916
0.810032
0.817934
0.825465
0.832695
0.839654
0.846397
0.853041
0.859596
0.866205
0.872756
0.879403
0.886041
0.892819
0.899711
0.906873
0.914319
0.921814
0.92901
0.936128
0.943584
0.951843
0.960493
0.969182
0.977693
0.986302
0.994849
1.00362
1.01235
1.02134
1.03022
1.03938
1.04836
1.05767
1.06671
1.07615
1.08524
1.09476
1.10388
1.11345
1.12262
1.1322
1.14142
1.15099
1.16025
1.16977
1.17905
1.18849
1.19772
1.20707
1.21629
1.22566
1.23485
1.24416
1.25324
1.26246
1.27143
1.28058
1.28942
1.29846
1.30717
1.31608
1.32463
1.33338
1.34171
1.3502
1.35817
1.36617
1.37338
1.38026
1.38554
1.38909
1.04878
1.10505
1.14416
1.16471
1.17323
1.1668
1.15081
1.12799
1.09971
1.06646
1.02896
0.986832
0.941832
0.896903
0.855777
0.823661
0.805454
0.805732
0.82051
0.84737
0.87941
0.908402
0.931242
0.947298
0.954839
0.955198
0.953673
0.952316
0.951955
0.952459
0.953618
0.955111
0.95682
0.958712
0.960756
0.962999
0.965555
0.968455
0.97171
0.975292
0.979191
0.983419
0.988007
0.992966
0.998401
1.00407
1.00971
1.01523
1.02112
1.02772
1.03505
1.04251
1.05011
1.0577
1.06545
1.07325
1.08124
1.08932
1.09754
1.1059
1.11429
1.12287
1.13136
1.14013
1.1487
1.1576
1.16625
1.17524
1.18397
1.19301
1.20182
1.21087
1.21976
1.22878
1.23771
1.24669
1.25568
1.26465
1.27364
1.28251
1.29142
1.3002
1.30904
1.31774
1.3265
1.3351
1.34376
1.35224
1.36077
1.36912
1.3775
1.38567
1.39383
1.40176
1.40958
1.41709
1.42422
1.43074
1.43612
1.43941
1.0548
1.11058
1.15466
1.18556
1.20319
1.21159
1.20871
1.19847
1.18224
1.15996
1.13099
1.09616
1.05663
1.01692
0.979396
0.948404
0.932492
0.935437
0.951753
0.980222
1.01417
1.04364
1.0651
1.08056
1.08789
1.08614
1.07876
1.07027
1.06301
1.05789
1.05414
1.05202
1.05047
1.04981
1.04928
1.04936
1.04978
1.05074
1.05216
1.05407
1.05647
1.05923
1.06245
1.06605
1.07018
1.07466
1.07925
1.08369
1.08843
1.09376
1.09991
1.10636
1.11306
1.11983
1.12676
1.13381
1.14101
1.14839
1.15586
1.16355
1.17125
1.17921
1.18713
1.19532
1.20343
1.21179
1.22008
1.22857
1.23702
1.24559
1.25418
1.26279
1.27149
1.28014
1.28896
1.29764
1.30647
1.31507
1.32387
1.33241
1.34116
1.34963
1.3583
1.3667
1.37527
1.3836
1.39205
1.40031
1.40861
1.41676
1.42487
1.43287
1.44075
1.44851
1.45607
1.46343
1.4704
1.47683
1.48224
1.48553
1.06194
1.11493
1.1606
1.19631
1.22156
1.23693
1.2444
1.24295
1.23424
1.21766
1.19287
1.16103
1.12639
1.088
1.04762
1.01944
1.01009
1.01597
1.03525
1.06743
1.10544
1.13645
1.1581
1.17208
1.18189
1.18398
1.17885
1.16922
1.15819
1.14801
1.14005
1.13407
1.12978
1.1267
1.12424
1.12256
1.12115
1.12046
1.12011
1.12043
1.12119
1.12245
1.1241
1.12633
1.12892
1.13219
1.13552
1.13895
1.14238
1.14653
1.15135
1.15689
1.16259
1.16863
1.17469
1.18108
1.18746
1.19423
1.20094
1.20809
1.21512
1.22262
1.22994
1.23772
1.24532
1.25332
1.26115
1.26933
1.27739
1.28572
1.29398
1.30244
1.31091
1.31945
1.32797
1.3365
1.34503
1.35354
1.36206
1.37053
1.37901
1.38742
1.39585
1.40418
1.41254
1.42078
1.42906
1.43722
1.44539
1.45346
1.4615
1.46945
1.47732
1.4851
1.49268
1.50014
1.50714
1.51377
1.51924
1.52286
1.06767
1.11849
1.16371
1.20212
1.23155
1.25252
1.2648
1.26922
1.26398
1.24776
1.22349
1.19492
1.15934
1.11484
1.07449
1.05561
1.05327
1.06326
1.08773
1.12465
1.16322
1.19599
1.21948
1.2344
1.24414
1.25005
1.25026
1.24455
1.23537
1.22322
1.21089
1.2004
1.19226
1.18591
1.18125
1.17766
1.17499
1.17292
1.17139
1.17042
1.16992
1.17001
1.17066
1.17178
1.17354
1.17576
1.17851
1.18113
1.18401
1.1872
1.19128
1.19596
1.20114
1.20656
1.21224
1.21815
1.22417
1.23047
1.23682
1.24354
1.25026
1.25739
1.26447
1.27193
1.2793
1.28702
1.29465
1.30256
1.31043
1.31852
1.32663
1.33488
1.3431
1.35138
1.35966
1.36795
1.37627
1.38457
1.3929
1.40117
1.40946
1.41768
1.42592
1.43407
1.44225
1.45031
1.4584
1.46636
1.47433
1.48217
1.48998
1.49768
1.50527
1.51276
1.52006
1.52724
1.53399
1.54038
1.54568
1.54916
1.07463
1.12149
1.16502
1.20379
1.23541
1.2596
1.27456
1.28052
1.27383
1.25632
1.23334
1.20231
1.15879
1.1115
1.08119
1.0725
1.07581
1.09232
1.12347
1.16269
1.19985
1.23122
1.25611
1.27397
1.28558
1.29332
1.29826
1.29852
1.29426
1.28667
1.27493
1.26211
1.25019
1.24062
1.23303
1.22742
1.22319
1.22002
1.21762
1.21581
1.21455
1.21383
1.21367
1.21406
1.21502
1.21661
1.21872
1.22103
1.22338
1.22604
1.22935
1.23341
1.23795
1.24289
1.24809
1.25362
1.25926
1.26524
1.27124
1.27763
1.28401
1.2908
1.29758
1.30472
1.31187
1.31929
1.32678
1.33443
1.34223
1.35013
1.35814
1.36613
1.37426
1.38232
1.39055
1.39866
1.40694
1.41506
1.42336
1.43148
1.43978
1.44787
1.45614
1.46418
1.47241
1.48038
1.48852
1.49642
1.50444
1.51223
1.52008
1.52771
1.53534
1.54273
1.54999
1.55696
1.56362
1.56972
1.57488
1.57813
1.08476
1.12621
1.16655
1.20363
1.23497
1.25931
1.27442
1.27707
1.26647
1.24865
1.22243
1.18315
1.13222
1.09335
1.07866
1.07776
1.08746
1.11174
1.14787
1.18549
1.21971
1.2495
1.27467
1.29517
1.31095
1.32196
1.32937
1.33395
1.33505
1.33285
1.32678
1.31651
1.30363
1.29114
1.28017
1.27128
1.26434
1.25909
1.25522
1.25228
1.25027
1.24876
1.24796
1.24758
1.24784
1.24866
1.25009
1.25193
1.25377
1.25586
1.25842
1.26181
1.26577
1.27027
1.27502
1.28024
1.28555
1.29129
1.29701
1.30317
1.30927
1.31584
1.32233
1.32926
1.33615
1.34342
1.35069
1.35828
1.36588
1.37363
1.38142
1.38928
1.39721
1.40516
1.4132
1.42121
1.4293
1.43732
1.44544
1.45346
1.46158
1.46958
1.47767
1.48565
1.49368
1.5016
1.50955
1.5174
1.52523
1.53296
1.54064
1.54822
1.55568
1.563
1.57011
1.57698
1.58341
1.58937
1.59421
1.59748
1.09535
1.13318
1.16958
1.20328
1.23176
1.25318
1.26316
1.25924
1.24535
1.22446
1.18974
1.14091
1.09703
1.07597
1.0731
1.07814
1.09628
1.12694
1.16313
1.19724
1.22834
1.25628
1.28127
1.30323
1.32189
1.33694
1.34842
1.356
1.36054
1.36282
1.36229
1.35819
1.35022
1.33854
1.32596
1.31425
1.30437
1.29659
1.29071
1.28649
1.28346
1.28149
1.28014
1.27951
1.27933
1.27971
1.28074
1.28221
1.28394
1.28575
1.28792
1.29079
1.29435
1.2985
1.30297
1.30791
1.31302
1.31854
1.32413
1.33012
1.33612
1.3425
1.3489
1.35564
1.36244
1.36954
1.37675
1.38417
1.39165
1.39923
1.40691
1.41463
1.42246
1.43026
1.4382
1.44605
1.45404
1.46191
1.46993
1.4778
1.48583
1.49369
1.50171
1.50954
1.51752
1.52529
1.53317
1.54083
1.54857
1.55608
1.56362
1.5709
1.57816
1.58512
1.59193
1.59835
1.60435
1.60973
1.61409
1.61702
1.10638
1.13964
1.17238
1.20194
1.22569
1.24025
1.24084
1.22978
1.21283
1.18285
1.13713
1.0922
1.06744
1.06172
1.06517
1.07926
1.10567
1.13848
1.17041
1.20036
1.22838
1.25472
1.27941
1.30221
1.32283
1.34088
1.35614
1.36831
1.37694
1.38272
1.3857
1.38692
1.38503
1.37926
1.36967
1.358
1.34641
1.33599
1.3275
1.32085
1.3162
1.31288
1.31084
1.30946
1.30892
1.30876
1.30934
1.31046
1.31199
1.31358
1.31535
1.31766
1.32063
1.32436
1.32842
1.33301
1.33779
1.34302
1.34836
1.35407
1.35987
1.36598
1.37221
1.37875
1.38543
1.39241
1.39949
1.40671
1.41404
1.42144
1.42897
1.43652
1.44423
1.45189
1.45973
1.46743
1.47535
1.48305
1.491
1.4987
1.50663
1.51434
1.52224
1.52993
1.53778
1.54541
1.55318
1.56071
1.56834
1.5757
1.5831
1.59019
1.59721
1.60388
1.6103
1.61626
1.62167
1.62653
1.63025
1.63283
1.11943
1.14721
1.17408
1.19813
1.21423
1.21761
1.20889
1.19415
1.16666
1.12373
1.07954
1.05373
1.04665
1.0494
1.06118
1.08415
1.11381
1.14305
1.1708
1.19741
1.22316
1.24824
1.27258
1.29589
1.31781
1.33801
1.35611
1.37194
1.3851
1.39548
1.40223
1.40657
1.4085
1.40887
1.40566
1.39866
1.38861
1.37762
1.36696
1.35788
1.35057
1.34532
1.34156
1.33932
1.33793
1.33741
1.33753
1.33827
1.33951
1.34102
1.34255
1.34445
1.34689
1.35018
1.35389
1.35815
1.36267
1.36767
1.37282
1.37837
1.38401
1.38998
1.39608
1.40244
1.40902
1.41577
1.42267
1.42966
1.43685
1.44404
1.45146
1.45883
1.46642
1.47391
1.48163
1.4892
1.49697
1.50456
1.51236
1.51993
1.52774
1.53527
1.54306
1.55055
1.55828
1.5657
1.57331
1.5806
1.588
1.59512
1.6022
1.60901
1.61561
1.62188
1.62772
1.63305
1.63777
1.64193
1.64463
1.64664
1.13443
1.15518
1.17496
1.18889
1.19276
1.18515
1.17106
1.14514
1.10458
1.06252
1.03771
1.03042
1.033
1.04391
1.06455
1.09129
1.11752
1.14302
1.16743
1.19192
1.21612
1.24063
1.26461
1.28829
1.31083
1.3325
1.35237
1.37076
1.38681
1.40083
1.41212
1.42101
1.42634
1.42969
1.43143
1.43102
1.42667
1.4186
1.40867
1.39818
1.38881
1.38079
1.37484
1.37052
1.36783
1.36635
1.36569
1.36595
1.36682
1.36816
1.36957
1.37121
1.37316
1.37588
1.37916
1.38303
1.38721
1.39187
1.39676
1.40203
1.40747
1.41321
1.41913
1.42534
1.43175
1.4383
1.44505
1.45187
1.45892
1.46595
1.47326
1.48045
1.48794
1.49526
1.50288
1.51029
1.51795
1.52543
1.53307
1.54055
1.54813
1.55557
1.56309
1.57045
1.5779
1.58514
1.59249
1.59957
1.60672
1.61353
1.62036
1.62672
1.63294
1.63855
1.64373
1.6483
1.65216
1.65516
1.6564
1.6577
1.14823
1.16333
1.17257
1.1727
1.16323
1.14818
1.12117
1.08079
1.04098
1.01841
1.01221
1.01527
1.02688
1.04749
1.07192
1.09608
1.11864
1.14105
1.1632
1.1861
1.20927
1.23289
1.25653
1.27995
1.30293
1.32502
1.34622
1.36604
1.38456
1.40134
1.41612
1.42872
1.43867
1.4459
1.45031
1.45351
1.45481
1.45356
1.44801
1.43965
1.4299
1.42045
1.41183
1.4052
1.40011
1.3969
1.39507
1.39428
1.39457
1.39554
1.3969
1.39832
1.39988
1.40201
1.40476
1.40819
1.41198
1.41628
1.42089
1.42586
1.43114
1.43664
1.44249
1.44849
1.45478
1.46113
1.46773
1.47439
1.48122
1.48812
1.49515
1.50223
1.50944
1.51663
1.52398
1.53123
1.53867
1.54593
1.55341
1.56063
1.5681
1.57526
1.58269
1.58977
1.5971
1.60405
1.61122
1.61798
1.62486
1.63129
1.63765
1.64353
1.64898
1.65388
1.6581
1.66177
1.66419
1.66543
1.66506
1.66605
1.15878
1.16667
1.16251
1.14936
1.12981
1.09889
1.05615
1.01674
0.995993
0.991293
0.99521
1.00874
1.03064
1.05461
1.0769
1.0976
1.11761
1.13777
1.1588
1.18049
1.20309
1.22596
1.2493
1.2724
1.29542
1.31779
1.33971
1.36059
1.38065
1.39917
1.41651
1.43183
1.44561
1.45683
1.46565
1.47187
1.4766
1.47944
1.48051
1.47827
1.47222
1.4633
1.4541
1.445
1.43755
1.43156
1.42776
1.42531
1.42438
1.4245
1.42547
1.42682
1.42816
1.42985
1.43202
1.43497
1.43833
1.44227
1.44647
1.45119
1.45608
1.46144
1.46698
1.47285
1.47883
1.485
1.49135
1.49775
1.5044
1.51097
1.51788
1.52461
1.5317
1.53859
1.5458
1.5528
1.56005
1.5671
1.57434
1.58139
1.58856
1.59555
1.60262
1.60948
1.61642
1.6231
1.62979
1.63623
1.64251
1.64848
1.65412
1.65921
1.66377
1.66758
1.67086
1.67277
1.6733
1.67244
1.67069
1.67143
1.16296
1.15818
1.14322
1.12014
1.08337
1.03555
0.995459
0.976276
0.972383
0.977
0.992549
1.01639
1.03992
1.06131
1.0805
1.09858
1.11682
1.13559
1.15556
1.17631
1.19815
1.22038
1.24315
1.26588
1.2887
1.31118
1.33347
1.35501
1.37608
1.39597
1.41523
1.43282
1.44946
1.46396
1.4769
1.48703
1.49509
1.50107
1.50572
1.5079
1.50835
1.50508
1.49813
1.48942
1.48
1.47192
1.46496
1.46025
1.45694
1.45563
1.4552
1.45616
1.45743
1.45877
1.46044
1.46274
1.46571
1.46919
1.4731
1.47739
1.48208
1.48712
1.49251
1.49806
1.50388
1.50979
1.51592
1.52209
1.52846
1.53484
1.54144
1.548
1.5548
1.56149
1.56845
1.57525
1.58226
1.58912
1.5961
1.60296
1.60984
1.61662
1.62333
1.62999
1.63645
1.64288
1.64898
1.65502
1.66056
1.66592
1.67051
1.67469
1.67802
1.68071
1.68201
1.68175
1.68009
1.67784
1.6735
1.67263
1.1558
1.13847
1.11156
1.06933
1.01655
0.975022
0.956839
0.954619
0.960851
0.979134
1.00491
1.02896
1.0497
1.06779
1.08456
1.10097
1.11812
1.13605
1.15523
1.17528
1.19634
1.21795
1.24006
1.26246
1.28494
1.30746
1.32968
1.35169
1.37314
1.3941
1.41431
1.43365
1.45199
1.46901
1.48459
1.4983
1.51003
1.51922
1.52683
1.5327
1.53686
1.53816
1.5375
1.5328
1.52503
1.51606
1.50728
1.49941
1.49358
1.48929
1.48723
1.48636
1.48705
1.48828
1.48948
1.4912
1.49345
1.4965
1.50002
1.50389
1.50826
1.51286
1.51798
1.52312
1.52873
1.5343
1.54022
1.54612
1.55226
1.55843
1.56475
1.57116
1.57765
1.58424
1.59088
1.59757
1.6043
1.61101
1.61775
1.6244
1.63105
1.63756
1.64402
1.65028
1.65645
1.66233
1.66799
1.67333
1.67813
1.68249
1.68599
1.68896
1.69102
1.69158
1.69071
1.68879
1.68558
1.68029
1.67086
1.66669
1.1404
1.10517
1.05489
0.996765
0.955291
0.937797
0.937056
0.946261
0.967437
0.994827
1.01985
1.04082
1.05871
1.07459
1.09004
1.1056
1.12208
1.13945
1.15795
1.17736
1.19759
1.21854
1.23988
1.26172
1.28361
1.30576
1.3277
1.34974
1.37137
1.39289
1.41368
1.43416
1.45362
1.47237
1.48978
1.50601
1.5205
1.53329
1.54367
1.55235
1.55961
1.5648
1.56747
1.56818
1.56625
1.56039
1.55222
1.54309
1.53478
1.52756
1.5225
1.51921
1.51785
1.518
1.51891
1.52011
1.52155
1.52386
1.52676
1.53029
1.5341
1.53837
1.54295
1.54784
1.55307
1.55844
1.56413
1.56986
1.57586
1.58184
1.58804
1.59424
1.60057
1.60695
1.61334
1.61984
1.62625
1.63278
1.63915
1.64562
1.65189
1.65815
1.66424
1.67014
1.6759
1.68125
1.6864
1.69084
1.69486
1.69787
1.7004
1.70179
1.70179
1.70014
1.69788
1.69361
1.68657
1.67649
1.66245
1.65572
1.10256
1.04058
0.978643
0.935906
0.919228
0.919269
0.932347
0.957005
0.985515
1.01098
1.03231
1.05006
1.06578
1.08055
1.09536
1.11075
1.12686
1.14401
1.16192
1.18085
1.20029
1.22064
1.24129
1.26257
1.28397
1.30577
1.32758
1.34952
1.3713
1.39298
1.41429
1.43519
1.4554
1.47505
1.49361
1.51153
1.52787
1.54325
1.55663
1.56838
1.57795
1.5865
1.59298
1.59745
1.59875
1.59861
1.59503
1.5882
1.5793
1.57035
1.56199
1.55577
1.55109
1.54891
1.54805
1.54873
1.54963
1.55096
1.55292
1.55587
1.55928
1.56322
1.5674
1.57204
1.57687
1.58206
1.58738
1.59295
1.59867
1.60454
1.61052
1.61663
1.62279
1.62903
1.6353
1.64158
1.64786
1.65413
1.66031
1.66649
1.67245
1.67841
1.68401
1.68958
1.69461
1.69948
1.70357
1.70715
1.70968
1.7117
1.71231
1.71173
1.70979
1.70652
1.70122
1.69229
1.67984
1.66603
1.65002
1.64299
1.02923
0.957865
0.914666
0.900597
0.903125
0.921187
0.949985
0.978677
1.0044
1.02557
1.04333
1.05889
1.07337
1.08766
1.1022
1.11745
1.13342
1.15028
1.16782
1.18623
1.20521
1.2249
1.24502
1.26569
1.28669
1.30804
1.32954
1.35114
1.37276
1.3942
1.41554
1.43641
1.45708
1.47698
1.49658
1.51513
1.53316
1.54981
1.56578
1.57984
1.59263
1.60308
1.61238
1.62009
1.62548
1.62784
1.62825
1.62666
1.62137
1.61328
1.60413
1.59525
1.58745
1.58183
1.5781
1.5766
1.57649
1.5773
1.57839
1.5802
1.58293
1.58646
1.59039
1.59465
1.59923
1.60402
1.60921
1.61449
1.62016
1.62582
1.63182
1.63775
1.64392
1.65
1.65619
1.66229
1.6684
1.67441
1.68036
1.68617
1.69184
1.6973
1.70249
1.70737
1.7118
1.71566
1.7187
1.72095
1.7224
1.72257
1.72139
1.71911
1.71519
1.70821
1.69753
1.68382
1.66831
1.65336
1.63825
1.63241
0.927816
0.879168
0.86889
0.877026
0.903954
0.940133
0.971363
0.997372
1.01865
1.03618
1.05155
1.06598
1.08022
1.09465
1.10962
1.12493
1.14097
1.15741
1.17466
1.19245
1.21092
1.22992
1.2495
1.26953
1.29005
1.31085
1.33197
1.35316
1.3745
1.39572
1.41689
1.43786
1.45851
1.47891
1.49878
1.51819
1.53697
1.55493
1.57197
1.5877
1.60229
1.61497
1.62614
1.63554
1.64401
1.65029
1.6537
1.6543
1.65377
1.65061
1.64394
1.63492
1.62541
1.61664
1.60966
1.60467
1.60218
1.60131
1.60206
1.60303
1.60462
1.60738
1.61089
1.61506
1.61934
1.62413
1.62899
1.63422
1.63957
1.6451
1.65084
1.65658
1.66256
1.66842
1.6745
1.68037
1.68637
1.69212
1.69791
1.7034
1.70878
1.71377
1.71848
1.72255
1.72612