/*--------------------------------*- C++ -*----------------------------------*\
| =========                 |                                                 |
| \\      /  F ield         | OpenFOAM: The Open Source CFD Toolbox           |
|  \\    /   O peration     | Version:  2112                                  |
|   \\  /    A nd           | Website:  www.openfoam.com                      |
|    \\/     M anipulation  |                                                 |
\*---------------------------------------------------------------------------*/
FoamFile
{
    version     2.0;
    format      ascii;
    arch        "LSB;label=32;scalar=64";
    class       volScalarField;
    location    "8";
    object      p;
}
// * * * * * * * * * * * * * * * * * * * * * * * * * * * * * * * * * * * * * //

dimensions      [1 -1 -2 0 0 0 0];

internalField   nonuniform List<scalar> 
5250
(
1.00001
1.00005
1.00011
1.00034
1.0007
1.00199
1.00393
1.01205
1.02152
1.07779
1.13119
1.50507
2.11122
4.53421
10.1706
11.0768
10.9643
10.9564
11.0482
11.2727
11.4844
11.6192
11.7251
11.809
11.8736
1.00001
1.00005
1.00011
1.00033
1.00068
1.00196
1.00386
1.01189
1.0211
1.07698
1.12887
1.50014
2.09299
4.49459
10.0806
11.0703
10.9594
10.9494
11.0412
11.2653
11.4759
11.6109
11.7181
11.803
11.8689
1.00001
1.00005
1.00011
1.00032
1.00066
1.0019
1.00374
1.01156
1.02042
1.07498
1.12457
1.489
2.05444
4.40759
9.87747
11.0567
10.9453
10.925
11.0142
11.2338
11.4402
11.5728
11.6788
11.7624
11.8276
1.00001
1.00004
1.0001
1.00031
1.00063
1.00181
1.00356
1.01106
1.01941
1.0719
1.11805
1.47164
1.99616
4.27165
9.55342
11.0472
10.9283
10.8835
10.9673
11.1779
11.3782
11.5057
11.6078
11.6885
11.7537
1.00001
1.00004
1.0001
1.00029
1.0006
1.00171
1.00335
1.01043
1.01826
1.06774
1.11081
1.44336
1.92429
4.0787
9.0951
11.0509
10.9142
10.8277
10.9036
11.101
11.2932
11.4134
11.5089
11.585
11.6507
1.00001
1.00004
1.00009
1.00027
1.00055
1.00159
1.00312
1.00968
1.01698
1.06286
1.10263
1.4091
1.84903
3.82069
8.48936
11.0722
10.9046
10.7569
10.8222
11.0015
11.1818
11.2907
11.3757
11.4436
11.5092
1.00001
1.00003
1.00008
1.00025
1.00051
1.00146
1.00286
1.00881
1.01561
1.05696
1.09329
1.36825
1.75905
3.51278
7.72528
11.1218
10.9017
10.671
10.7233
10.8783
11.0416
11.1324
11.1982
11.2479
11.307
1
1.00003
1.00008
1.00022
1.00046
1.00132
1.00262
1.00784
1.01441
1.04985
1.08363
1.32192
1.65738
3.1683
6.81681
11.1828
10.9022
10.5753
10.609
10.7275
10.8686
10.932
10.9664
10.9796
11.0119
1
1.00003
1.00007
1.0002
1.00041
1.00116
1.00235
1.00681
1.01304
1.0425
1.07338
1.27383
1.55253
2.81252
5.8059
11.157
10.8815
10.481
10.4823
10.548
10.6577
10.6798
10.6632
10.6005
10.544
1
1.00002
1.00006
1.00017
1.00035
1.001
1.00202
1.00583
1.01124
1.03613
1.06275
1.23265
1.45408
2.52438
4.99256
10.8827
10.7471
10.4
10.3122
10.3448
10.3998
10.3759
10.2785
10.0564
9.72772
1
1.00002
1.00006
1.00012
1.00035
1.00071
1.00206
1.00393
1.01271
1.0219
1.0809
1.13861
1.52272
2.17748
4.58916
10.1004
10.454
10.2786
10.1172
10.1155
10.1031
10.0184
9.77322
9.20752
7.79542
1
1.00002
1.00004
1.00013
1.00027
1.00077
1.00156
1.00447
1.00876
1.02728
1.04865
1.17652
1.31852
2.19673
3.85732
9.03494
10.2634
10.1518
9.93987
9.87775
9.80423
9.63208
9.25522
8.50195
7.07925
1
1.00002
1.00004
1.00011
1.00023
1.00066
1.00134
1.00383
1.00754
1.02312
1.04149
1.14964
1.26488
2.00581
3.34354
7.8096
10.1502
10.0448
9.79213
9.64097
9.51164
9.26295
8.80442
8.05456
6.94099
1
1.00001
1.00003
1.0001
1.0002
1.00057
1.00115
1.00326
1.00652
1.01927
1.03612
1.12215
1.22102
1.80941
2.87268
6.50885
10.0786
9.96247
9.65722
9.41181
9.22556
8.94055
8.47359
7.794
6.91687
1
1.00001
1.00003
1.00008
1.00017
1.00047
1.00096
1.00269
1.00544
1.01562
1.03082
1.09478
1.18423
1.61346
2.42708
5.11729
9.88704
9.82522
9.54689
9.2063
8.96881
8.66964
8.22916
7.62141
6.88522
1
1.00001
1.00002
1.00006
1.00014
1.00038
1.00077
1.00217
1.00439
1.01256
1.02478
1.07618
1.14436
1.48808
2.11401
4.31661
9.20795
9.55268
9.37861
9.02205
8.74803
8.44411
8.03343
7.49035
6.84968
1
1.00001
1.00002
1.00005
1.00011
1.00029
1.0006
1.00168
1.00333
1.00996
1.018
1.06296
1.10498
1.40381
1.83207
3.68656
7.82271
9.25014
9.15413
8.88988
8.57045
8.25677
7.86831
7.37958
6.81173
1
1.00001
1.00001
1.00004
1.00008
1.00023
1.00048
1.00133
1.00269
1.00778
1.01478
1.04839
1.0831
1.31077
1.62612
3.04358
6.25778
9.06599
9.01818
8.80571
8.43535
8.10311
7.73382
7.28611
6.77696
1
1
1.00001
1.00003
1.00006
1.00018
1.00036
1.00101
1.00204
1.00582
1.01127
1.03548
1.06215
1.22456
1.43679
2.42898
4.54149
8.72116
8.91584
8.74249
8.36183
7.98454
7.61813
7.20599
6.74523
1
1
1.00001
1.00002
1.00006
1.00012
1.00033
1.00066
1.00186
1.00374
1.01082
1.02084
1.06636
1.12197
1.41668
1.93738
3.72942
7.77925
8.7072
8.59787
8.2968
7.88601
7.5169
7.13232
6.71357
1
1
1.00001
1.00001
1.00004
1.00009
1.00024
1.00049
1.00138
1.00276
1.00805
1.01511
1.04993
1.08578
1.31686
1.64322
3.04204
6.13634
8.42194
8.39503
8.21167
7.82238
7.43584
7.07049
6.6864
1
1
1
1.00001
1.00003
1.00008
1.00015
1.00043
1.00088
1.00247
1.00496
1.01435
1.02801
1.08676
1.16897
1.54669
2.2585
4.4546
7.99627
8.26481
8.12839
7.79577
7.38315
7.02071
6.6634
1
1
1
1.00001
1.00002
1.00005
1.00013
1.00026
1.00072
1.00145
1.00413
1.00802
1.02493
1.04406
1.15669
1.28222
2.01008
3.30892
7.01658
8.082
8.00279
7.76572
7.36369
6.99043
6.64768
1
1
1
1.00001
1.00001
1.00004
1.00008
1.00021
1.00043
1.00122
1.00237
1.00724
1.01273
1.04534
1.0744
1.27987
1.55388
2.76084
5.34158
7.76692
7.82909
7.70062
7.37863
6.99146
6.64769
1
1
1
1
1.00001
1.00003
1.00006
1.00016
1.00032
1.00089
1.0018
1.00503
1.01009
1.02912
1.05667
1.17579
1.35811
2.10613
3.6159
7.13562
7.72002
7.62963
7.38099
7.0047
6.65458
1
1
1
1
1.00001
1.00002
1.00004
1.00011
1.00022
1.0006
1.00121
1.0034
1.00666
1.02021
1.03596
1.12668
1.22047
1.81063
2.7653
5.74138
7.48884
7.48232
7.3619
7.0559
6.67787
1
1
1
1
1.00001
1.00001
1.00003
1.00006
1.00017
1.00035
1.00097
1.00195
1.00549
1.01066
1.03288
1.05819
1.20279
1.389
2.23278
3.90276
6.97999
7.39917
7.31905
7.10249
6.73163
1
1
1
1
1
1.00001
1.00002
1.00004
1.00012
1.00024
1.00066
1.00135
1.00374
1.00742
1.02186
1.04002
1.13548
1.24215
1.84213
2.87871
5.8349
7.20819
7.20574
7.10065
6.84248
1
1
1
1
1
1.00001
1.00001
1.00003
1.00008
1.00016
1.00045
1.00091
1.00253
1.0051
1.0144
1.02844
1.08513
1.16657
1.52429
2.17518
4.10189
6.75193
7.12689
7.07723
6.92584
1
1
1
1
1
1
1.00001
1.00002
1.00005
1.00012
1.00025
1.00069
1.00139
1.00386
1.00762
1.02255
1.04104
1.13833
1.25048
1.84715
2.88534
5.73593
6.94997
7.02809
6.9788
1
1
1
1
1
1
1.00001
1.00001
1.00003
1.00008
1.00017
1.00046
1.00094
1.00258
1.00521
1.01459
1.0288
1.08567
1.16631
1.52088
2.15803
4.00122
6.51784
7.00601
7.08677
1
1
1
1
1
1
1
1.00001
1.00002
1.00005
1.00011
1.0003
1.00061
1.00166
1.00336
1.00936
1.0187
1.0536
1.10886
1.3186
1.71282
2.92303
5.50993
6.89521
7.30536
1
1
1
1
1
1
1
1.00001
1.00001
1.00003
1.00008
1.00016
1.00045
1.00091
1.0025
1.00502
1.01412
1.02781
1.08253
1.16155
1.49626
2.10466
3.84201
6.56563
7.68426
1
1
1
1
1
1
1
1
1.00001
1.00002
1.00005
1.00012
1.00025
1.00069
1.00139
1.00384
1.00758
1.0223
1.0407
1.1361
1.24554
1.8305
2.84118
5.70645
8.20718
1
1
1
1
1
1
1
1
1.00001
1.00002
1.00003
1.00009
1.00018
1.00048
1.00098
1.00269
1.00543
1.01526
1.03027
1.08928
1.17938
1.54995
2.2519
4.36457
8.66789
1
1
1
1
1
1
1
1
1
1.00001
1.00002
1.00006
1.00013
1.00035
1.00072
1.002
1.00402
1.01158
1.02231
1.07117
1.13005
1.45362
2.02068
4.04182
8.73734
1
1
1
1
1
1
1
1
1
1.00001
1.00002
1.00004
1.00012
1.00024
1.00069
1.00139
1.00399
1.00778
1.02456
1.04342
1.16065
1.28753
2.10631
3.63608
8.74211
1
1
1
1
1
1
1
1
1
1.00001
1.00002
1.00004
1.0001
1.00021
1.0006
1.00121
1.00354
1.0068
1.02225
1.03847
1.14777
1.26004
2.04986
3.49947
8.66101
1
1
1
1
1
1
1
1
1
1.00001
1.00001
1.00004
1.00008
1.00022
1.00045
1.00132
1.00248
1.00838
1.01409
1.05517
1.0901
1.37097
1.77778
3.63267
8.36395
1
1
1
1
1
1
1
1
1
1.00001
1.00001
1.00004
1.00008
1.00022
1.00045
1.00128
1.00253
1.00789
1.01404
1.05216
1.08568
1.35023
1.72745
3.4874
7.98383
1
1
1
1
1
1
1
1
1
1.00001
1.00001
1.00003
1.00007
1.0002
1.00041
1.00118
1.00227
1.00742
1.01265
1.04916
1.07994
1.32952
1.68528
3.33386
7.59067
1
1
1
1
1
1
1
1
1
1.00001
1.00002
1.00003
1.00009
1.00018
1.00051
1.00103
1.00298
1.00587
1.01832
1.03279
1.12128
1.21476
1.8344
2.99956
7.27205
1
1
1
1
1
1
1
1
1
1.00001
1.00001
1.00003
1.00009
1.00018
1.0005
1.00101
1.00291
1.00585
1.01739
1.03364
1.11101
1.20959
1.76609
2.85112
6.84034
1
1
1
1
1
1
1
1
1
1.00001
1.00001
1.00003
1.00008
1.00017
1.00048
1.00097
1.00278
1.00559
1.01662
1.03173
1.10605
1.19741
1.71966
2.72269
6.37014
1
1
1
1
1
1
1
1
1
1.00001
1.00001
1.00003
1.00007
1.00018
1.00037
1.00106
1.00211
1.00637
1.01154
1.04066
1.06761
1.2621
1.52566
2.75829
5.83057
1
1
1
1
1
1
1
1
1
1.00001
1.00001
1.00003
1.00007
1.00018
1.00038
1.00106
1.00215
1.00622
1.0121
1.03848
1.06792
1.2503
1.501
2.68654
5.60407
1
1
1
1
1
1
1
1
1
1.00001
1.00001
1.00003
1.00006
1.00018
1.00036
1.00101
1.00204
1.006
1.01127
1.03783
1.06443
1.2456
1.48224
2.65194
5.46353
1
1
1
1
1
1
1
1
1
1
1.00001
1.00003
1.00007
1.00015
1.00042
1.00084
1.00244
1.00474
1.01504
1.02643
1.09731
1.17091
1.63937
2.48885
5.58132
1
1
1
1
1
1
1
1
1
1.00001
1.00001
1.00003
1.00006
1.00017
1.00035
1.001
1.00202
1.0059
1.01126
1.03697
1.06379
1.24051
1.46911
2.61852
5.31588
1
1
1
1
1
1
1
1
1
1.00001
1.00001
1.00003
1.00006
1.00018
1.00036
1.00102
1.00207
1.00594
1.01166
1.03641
1.0653
1.23632
1.46571
2.60638
5.27139
3.84475
3.19588
4.136
4.26221
3.99096
3.87694
3.82051
3.7459
3.64474
3.54653
3.46281
3.38575
3.30489
3.21846
3.15391
3.12502
3.11636
3.11609
3.14951
3.21694
3.31299
3.42828
3.55262
3.67878
3.80261
3.92083
4.03238
4.13691
4.23494
4.32704
4.41345
4.49436
4.5715
4.64248
4.70673
4.76398
4.81439
4.85839
4.89636
4.92964
4.95949
4.98286
4.99838
5.00848
5.0132
5.01321
5.01068
5.00355
4.99044
4.97416
4.955
4.933
4.90832
4.88113
4.85167
4.82007
4.78661
4.75129
4.71444
4.67598
4.63626
4.59514
4.55295
4.50961
4.46535
4.42013
4.37415
4.32735
4.27993
4.23182
4.18322
4.13406
4.08453
4.03458
3.98438
3.93392
3.88336
3.83269
3.78205
3.73146
3.68103
3.63081
3.58085
3.53122
3.48197
3.43319
3.38491
3.33722
3.29015
3.24381
3.19821
3.15356
3.10991
3.06745
3.02656
2.98764
2.95131
2.91864
2.89111
2.87177
4.69369
4.1175
4.29584
4.19622
3.97215
3.90026
3.86851
3.77324
3.64398
3.53047
3.44655
3.37493
3.29798
3.22393
3.15756
3.12196
3.10913
3.10816
3.14071
3.20757
3.30432
3.42084
3.54605
3.6724
3.79628
3.91433
4.02564
4.12961
4.22701
4.3184
4.4042
4.48262
4.56167
4.63259
4.69709
4.75456
4.80551
4.8502
4.88902
4.92261
4.95206
4.97545
4.9919
5.00229
5.00744
5.00749
5.00568
4.99972
4.987
4.96971
4.95051
4.92885
4.90457
4.87754
4.84827
4.81675
4.78342
4.74821
4.71145
4.6731
4.63343
4.59241
4.55028
4.50701
4.46281
4.41766
4.37172
4.325
4.27761
4.22957
4.181
4.1319
4.08239
4.0325
3.98233
3.93193
3.88139
3.83079
3.7802
3.72968
3.67933
3.62917
3.5793
3.52973
3.48058
3.43185
3.38365
3.336
3.28901
3.24266
3.19705
3.15242
3.10888
3.06652
3.0256
2.9865
2.94998
2.91693
2.88892
2.86903
5.46611
4.6807
4.45031
4.22339
4.00278
3.89819
3.82401
3.73703
3.63001
3.52807
3.45247
3.38016
3.29305
3.21482
3.14832
3.10828
3.09287
3.09759
3.13117
3.19331
3.28653
3.40277
3.52858
3.65476
3.78049
3.89944
4.01151
4.11615
4.21445
4.30686
4.39395
4.47519
4.55286
4.62422
4.68902
4.74694
4.79827
4.84317
4.88231
4.91597
4.94484
4.96795
4.98478
4.99545
5.00074
5.00069
4.99926
4.99435
4.98309
4.9648
4.94492
4.92328
4.89918
4.87246
4.8433
4.81194
4.77864
4.74356
4.70684
4.6686
4.62897
4.58805
4.54597
4.5028
4.45863
4.41355
4.36765
4.32099
4.27364
4.22566
4.17712
4.12806
4.07859
4.02873
3.9786
3.92824
3.87777
3.82721
3.77671
3.72627
3.67603
3.62597
3.57622
3.52677
3.47778
3.42922
3.38109
3.33358
3.28675
3.24059
3.1953
3.15067
3.10704
3.06458
3.02354
2.98425
2.94735
2.91374
2.88486
2.86377
5.82271
5.01418
4.57625
4.29121
4.06974
3.92308
3.82978
3.73369
3.62471
3.5205
3.43919
3.36229
3.28124
3.20736
3.14893
3.11251
3.0935
3.0946
3.12007
3.18419
3.27803
3.39196
3.51555
3.6417
3.76596
3.88478
3.99681
4.10184
4.20044
4.2932
4.38023
4.46159
4.53824
4.60937
4.67413
4.73226
4.78378
4.82899
4.86836
4.90212
4.93077
4.95378
4.97096
4.98209
4.98777
4.98783
4.98675
4.98291
4.97375
4.95565
4.93511
4.91308
4.88915
4.86284
4.83413
4.80317
4.77016
4.73531
4.69878
4.66072
4.62124
4.58046
4.53848
4.49545
4.45141
4.40648
4.3607
4.31417
4.26693
4.21907
4.17062
4.12168
4.07228
4.02254
3.97249
3.92225
3.87189
3.8215
3.77115
3.72094
3.67089
3.62108
3.57152
3.52231
3.47353
3.42525
3.37752
3.33026
3.28355
3.23755
3.19228
3.14783
3.10428
3.06185
3.02073
2.98127
2.94399
2.90977
2.87996
2.8574
6.00364
5.24902
4.73931
4.40741
4.16521
3.98442
3.85808
3.74912
3.63752
3.53396
3.44922
3.37002
3.29281
3.22348
3.16939
3.13473
3.11939
3.12236
3.14308
3.19735
3.28744
3.3895
3.50091
3.62048
3.74176
3.86048
3.9736
4.08007
4.1799
4.27352
4.36119
4.44295
4.51942
4.59028
4.65503
4.71325
4.76501
4.81042
4.84996
4.88381
4.91233
4.93534
4.9528
4.96447
4.97063
4.971
4.97013
4.96701
4.95943
4.94377
4.9228
4.90021
4.87619
4.8502
4.82194
4.79141
4.75879
4.72427
4.68803
4.65022
4.61098
4.57044
4.52869
4.48586
4.44201
4.39726
4.35164
4.30528
4.25817
4.21045
4.1621
4.11328
4.06398
4.01436
3.96442
3.91433
3.86414
3.81393
3.76384
3.71388
3.66407
3.61452
3.56533
3.51654
3.4681
3.42009
3.37258
3.32558
3.27914
3.23333
3.18824
3.14394
3.10052
3.05812
3.01696
2.97731
2.93967
2.90482
2.8741
2.85003
6.1089
5.43032
4.91
4.53942
4.27235
4.0701
3.91759
3.79007
3.6742
3.56966
3.4793
3.40125
3.33342
3.27799
3.23847
3.21658
3.21212
3.21602
3.2309
3.26651
3.33075
3.40505
3.49327
3.59123
3.70324
3.82334
3.94116
4.05199
4.15459
4.24932
4.33715
4.41899
4.49503
4.5652
4.62943
4.6874
4.73913
4.78468
4.82439
4.85846
4.88715
4.91054
4.92854
4.94099
4.94796
4.94905
4.94837
4.94589
4.93977
4.92686
4.90668
4.88405
4.85993
4.83411
4.80626
4.77626
4.74416
4.71011
4.67427
4.63682
4.5979
4.55765
4.51617
4.4736
4.42998
4.38547
4.34005
4.29388
4.24694
4.19939
4.15119
4.10251
4.05334
4.00386
3.95408
3.90421
3.85425
3.80429
3.75449
3.70493
3.65564
3.60664
3.55791
3.50951
3.46142
3.41374
3.36649
3.31978
3.27362
3.22808
3.18322
3.13913
3.09588
3.05361
3.01247
2.97276
2.93486
2.89953
2.86808
2.84258
6.1792
5.57061
5.06469
4.67587
4.38269
4.16193
3.99016
3.85185
3.73303
3.62884
3.54094
3.47087
3.42139
3.39027
3.37162
3.36921
3.37197
3.37822
3.38902
3.40166
3.419
3.44567
3.49419
3.56034
3.64113
3.75941
3.88528
4.00659
4.11731
4.21639
4.30586
4.38761
4.46288
4.53237
4.59632
4.65444
4.70673
4.75302
4.79352
4.82823
4.85736
4.88122
4.89983
4.9131
4.92101
4.92312
4.92262
4.92069
4.91581
4.90542
4.88699
4.86511
4.84113
4.8154
4.78783
4.75829
4.72672
4.6932
4.65785
4.62084
4.58231
4.54242
4.50127
4.459
4.41567
4.37142
4.32624
4.2803
4.23356
4.18618
4.13815
4.08961
4.04061
3.99131
3.94172
3.89211
3.84261
3.79331
3.74409
3.69501
3.64616
3.59751
3.54914
3.50105
3.45332
3.40597
3.35908
3.31269
3.26686
3.22164
3.17708
3.13326
3.09025
3.04817
3.00717
2.96749
2.92951
2.89385
2.86191
2.83538
6.22237
5.67698
5.19757
4.80604
4.49765
4.25733
4.07145
3.92248
3.8008
3.70101
3.62553
3.57858
3.55634
3.55749
3.56624
3.59039
3.61896
3.62105
3.61624
3.59913
3.55976
3.5256
3.52951
3.55035
3.60199
3.68412
3.80295
3.93376
4.0579
4.16828
4.265
4.35008
4.42613
4.49509
4.55848
4.61615
4.6687
4.71563
4.75698
4.79234
4.82217
4.84674
4.86609
4.88025
4.88921
4.89262
4.8923
4.89087
4.88711
4.87894
4.86288
4.84234
4.81893
4.79345
4.76614
4.737
4.70595
4.67301
4.63822
4.60175
4.56369
4.52424
4.48349
4.44159
4.39859
4.35465
4.30977
4.26407
4.21757
4.17038
4.12255
4.0742
4.02544
3.9764
3.92739
3.87836
3.82939
3.78054
3.7318
3.68314
3.6347
3.58644
3.53848
3.4908
3.44351
3.3966
3.35015
3.30419
3.25878
3.21395
3.16979
3.12632
3.08366
3.04189
3.00115
2.96166
2.92377
2.88803
2.85588
2.82878
6.25126
5.75937
5.30941
4.92522
4.61058
4.35891
4.15976
4.00449
3.88413
3.79468
3.74321
3.73414
3.74124
3.76757
3.82926
3.90829
3.92995
3.92276
3.89611
3.83278
3.71895
3.62725
3.5837
3.58656
3.60358
3.64852
3.73224
3.8418
3.96869
4.0907
4.20133
4.29723
4.37956
4.45126
4.51516
4.57279
4.6251
4.67212
4.71392
4.75
4.78078
4.80639
4.82677
4.84204
4.85228
4.85733
4.85724
4.85634
4.85361
4.84732
4.83444
4.81547
4.7931
4.76828
4.74143
4.71273
4.68219
4.64984
4.61567
4.57981
4.54232
4.50341
4.46312
4.42166
4.37905
4.33546
4.29088
4.24546
4.1992
4.15221
4.10457
4.05646
4.00813
3.95973
3.91133
3.8629
3.81446
3.76606
3.71777
3.66958
3.62159
3.57381
3.52633
3.47914
3.43234
3.38592
3.33997
3.29448
3.24954
3.20517
3.16145
3.11843
3.07618
3.03482
2.99446
2.95532
2.91774
2.88221
2.85013
2.82292
6.26918
5.82285
5.40349
5.03302
4.71948
4.46285
4.25813
4.09981
3.98817
3.92261
3.91713
3.92826
3.9663
4.05442
4.2017
4.28157
4.27825
4.25578
4.19311
4.06055
3.89535
3.76372
3.67969
3.64668
3.64954
3.66456
3.7037
3.78015
3.86965
3.98239
4.10205
4.21297
4.30953
4.39171
4.46183
4.52251
4.57584
4.62311
4.66502
4.70175
4.73349
4.76004
4.78179
4.79849
4.81038
4.81721
4.81837
4.81782
4.81587
4.81115
4.80125
4.78442
4.76368
4.73999
4.71388
4.68574
4.65573
4.62395
4.59041
4.5552
4.51835
4.48002
4.44028
4.39932
4.35716
4.31396
4.26974
4.22461
4.17861
4.13182
4.08457
4.03708
3.98941
3.94163
3.89377
3.84586
3.79793
3.75002
3.70221
3.65453
3.60705
3.55979
3.51284
3.46619
3.41993
3.37405
3.32864
3.28369
3.23929
3.19546
3.15228
3.10979
3.06809
3.02727
2.98745
2.94886
2.91181
2.87681
2.84517
2.81842
6.28029
5.87312
5.48376
5.131
4.82501
4.57041
4.36761
4.21691
4.12656
4.11211
4.12474
4.16787
4.26777
4.46737
4.63094
4.66122
4.64515
4.59068
4.46652
4.26515
4.07685
3.92548
3.81645
3.74892
3.71897
3.72028
3.73031
3.75932
3.81935
3.88942
3.98408
4.09626
4.20581
4.30381
4.38787
4.45849
4.51775
4.56794
4.61108
4.64847
4.68084
4.70843
4.73141
4.74973
4.76327
4.77204
4.77543
4.77514
4.77383
4.77044
4.76314
4.74897
4.73028
4.70811
4.68311
4.65577
4.6264
4.59521
4.56228
4.52769
4.49148
4.45378
4.41464
4.37422
4.33256
4.28979
4.24593
4.20108
4.15538
4.10917
4.06259
4.01573
3.96868
3.92145
3.87412
3.82672
3.77933
3.73196
3.68471
3.63758
3.59068
3.544
3.49764
3.45158
3.40592
3.36064
3.31583
3.27149
3.22771
3.18449
3.14194
3.10009
3.05905
3.01892
2.97987
2.94209
2.90591
2.87186
2.8411
2.81559
6.29318
5.9176
5.55433
5.22133
4.92925
4.6851
4.49577
4.36853
4.33148
4.34323
4.38711
4.4932
4.71067
4.94574
5.04437
5.03531
4.9938
4.89058
4.68286
4.46015
4.26531
4.10626
3.98218
3.89057
3.82909
3.7941
3.78592
3.79029
3.80768
3.84807
3.89953
3.97614
4.0776
4.18221
4.28072
4.36709
4.43955
4.49905
4.54789
4.58845
4.62254
4.65138
4.67559
4.6955
4.71075
4.72155
4.72759
4.72802
4.72737
4.72518
4.72001
4.70932
4.69266
4.67229
4.6488
4.62265
4.59419
4.56375
4.53149
4.49757
4.46204
4.42502
4.38654
4.34674
4.30564
4.26335
4.21985
4.17543
4.13035
4.08485
4.03895
3.99274
3.94629
3.89964
3.85288
3.80605
3.75925
3.71248
3.66585
3.61935
3.57308
3.52704
3.48132
3.43591
3.39091
3.34629
3.30216
3.2585
3.21542
3.17291
3.13109
3.09001
3.04978
3.01053
2.97243
2.93573
2.90074
2.86815
2.83877
2.81528
6.30299
5.95636
5.62098
5.31095
5.03826
4.81561
4.6539
4.58398
4.5925
4.6322
4.73506
4.95178
5.2344
5.40694
5.40663
5.37929
5.29483
5.11306
4.87136
4.65043
4.46112
4.30159
4.16833
4.05871
3.97181
3.9065
3.86295
3.83718
3.83765
3.84448
3.86542
3.90556
3.96164
4.04731
4.14503
4.24211
4.32995
4.40487
4.46645
4.51609
4.55598
4.58832
4.61476
4.63635
4.6535
4.66617
4.67439
4.67729
4.67696
4.6756
4.67213
4.66471
4.6508
4.63259
4.6109
4.58623
4.55895
4.52945
4.49799
4.46479
4.42995
4.39362
4.35583
4.31667
4.27614
4.2343
4.19135
4.14764
4.10331
4.0585
4.01327
3.96769
3.92187
3.87584
3.82971
3.78351
3.73734
3.69122
3.64525
3.59941
3.55383
3.50846
3.46344
3.41873
3.37445
3.33055
3.28717
3.24427
3.20197
3.16028
3.11933
3.07916
3.03995
3.00181
2.96498
2.92977
2.8965
2.86608
2.8388
2.81751
6.31576
5.99387
5.68651
5.40381
5.16088
4.97474
4.87038
4.87434
4.90743
5.00282
5.21108
5.52022
5.73507
5.7749
5.75161
5.676
5.51059
5.27373
5.04577
4.84315
4.66463
4.50628
4.36556
4.24143
4.13394
4.0437
3.97158
3.91754
3.8827
3.8668
3.8689
3.87965
3.90347
3.9455
4.01164
4.09904
4.19056
4.27804
4.35559
4.42044
4.47262
4.5137
4.54583
4.57104
4.59066
4.60561
4.61572
4.62148
4.622
4.62138
4.61933
4.61448
4.60444
4.5885
4.5688
4.54591
4.52014
4.49188
4.46144
4.42911
4.39508
4.3595
4.32243
4.28394
4.24397
4.20275
4.16062
4.11772
4.07418
4.03011
3.98559
3.94071
3.89558
3.85023
3.8048
3.75929
3.71384
3.66842
3.62317
3.57806
3.53322
3.48861
3.44436
3.40042
3.35694
3.31385
3.27131
3.22927
3.18788
3.14714
3.10722
3.06817
3.03021
2.99352
2.95837
2.92519
2.89434
2.86678
2.8414
2.82394
6.3345
6.03635
5.7577
5.51102
5.3134
5.18834
5.18442
5.21227
5.30236
5.50414
5.82189
6.05656
6.12223
6.10321
6.03558
5.88369
5.65266
5.42837
5.22538
5.04075
4.87033
4.71179
4.5644
4.42869
4.30564
4.19649
4.10229
4.02354
3.96113
3.91659
3.88804
3.88149
3.88535
3.8976
3.92515
3.97396
4.04582
4.12951
4.21467
4.29383
4.36227
4.41805
4.46176
4.49512
4.52013
4.53877
4.55167
4.55997
4.56327
4.56303
4.5619
4.55892
4.55245
4.53956
4.52234
4.50155
4.47761
4.45091
4.42176
4.39053
4.35744
4.32271
4.28641
4.24855
4.20928
4.16893
4.12769
4.08565
4.04295
3.99966
3.95593
3.9118
3.86743
3.82283
3.77815
3.73338
3.68869
3.64403
3.59955
3.55522
3.51118
3.46738
3.42396
3.38087
3.33826
3.29607
3.25446
3.21341
3.17306
3.13345
3.09476
3.05712
3.02076
2.98596
2.95307
2.92274
2.895
2.87047
2.8485
2.83711
6.3659
6.09281
5.84996
5.65288
5.52414
5.51249
5.54036
5.63194
5.83753
6.1565
6.39274
6.4646
6.44656
6.38003
6.23085
6.00954
5.79147
5.59286
5.40963
5.23674
5.07074
4.9111
4.75832
4.61401
4.47954
4.35643
4.24566
4.14827
4.06475
3.99592
3.94212
3.90496
3.88361
3.88409
3.88761
3.90082
3.9311
3.98841
4.0612
4.14233
4.22152
4.29282
4.35272
4.40009
4.43587
4.462
4.48053
4.49236
4.49909
4.5005
4.49997
4.4982
4.49404
4.4854
4.47098
4.4526
4.43081
4.406
4.37848
4.34861
4.31669
4.28295
4.24746
4.21037
4.17202
4.13263
4.09234
4.05122
4.00942
3.96701
3.92414
3.88086
3.83732
3.79354
3.74968
3.70574
3.66186
3.61803
3.57439
3.53092
3.48775
3.44485
3.40234
3.3602
3.31857
3.2774
3.23686
3.19695
3.15784
3.11959
3.08244
3.04656
3.01231
2.98003
2.95031
2.92355
2.899
2.87934
2.8632
2.85898
6.42372
6.17466
5.9814
5.85687
5.85108
5.88171
5.98172
6.20426
6.52766
6.7574
6.81977
6.79879
6.72404
6.56096
6.34232
6.13127
5.93957
5.76293
5.59314
5.42696
5.26287
5.10166
4.94489
4.79442
4.65191
4.51868
4.39578
4.28403
4.18409
4.09652
4.02208
3.96146
3.91482
3.88399
3.87242
3.87017
3.87408
3.89006
3.92588
3.98943
4.06202
4.13952
4.21296
4.27683
4.32871
4.36832
4.39684
4.41631
4.42776
4.43348
4.4334
4.43255
4.43017
4.42491
4.41428
4.39866
4.37939
4.35685
4.33132
4.30315
4.27267
4.24009
4.20559
4.16952
4.13223
4.09387
4.05458
4.01445
3.97364
3.93219
3.89027
3.84792
3.8053
3.76243
3.71947
3.67642
3.63344
3.59052
3.5478
3.50526
3.46304
3.42111
3.37962
3.33852
3.29798
3.25797
3.21867
3.18009
3.14247
3.10591
3.07071
3.03716
3.0057
2.97697
2.95119
2.92809
2.90887
2.8967
2.88942
2.89008
6.52022
6.29798
6.17798
6.1817
6.22268
6.34276
6.59969
6.934
7.15428
7.19681
7.16941
7.07824
6.88622
6.66086
6.45138
6.26527
6.09538
5.93279
5.77112
5.60841
5.44506
5.28261
5.12325
4.96871
4.82068
4.68025
4.54842
4.42596
4.31345
4.21145
4.12029
4.04085
3.97349
3.91942
3.87966
3.85858
3.8451
3.84349
3.84916
3.86853
3.91091
3.97667
4.04939
4.12301
4.1907
4.24775
4.29205
4.32406
4.34546
4.35759
4.36239
4.36215
4.36093
4.35786
4.35134
4.3391
4.32274
4.30281
4.27962
4.25353
4.22481
4.19368
4.16048
4.12571
4.08963
4.05241
4.01423
3.97519
3.93545
3.89506
3.8542
3.81288
3.77127
3.7294
3.68743
3.64537
3.60338
3.56145
3.51973
3.47822
3.43705
3.39621
3.35584
3.31594
3.27664
3.23799
3.20014
3.16321
3.12742
3.09302
3.06038
3.02994
3.0024
2.97801
2.95625
2.93922
2.92838
2.9262
2.92732
2.93204
6.64641
6.49274
6.49924
6.55321
6.7039
7.02061
7.37855
7.59077
7.60353
7.56559
7.45019
7.21601
6.9752
6.76042
6.57486
6.40896
6.25223
6.09697
5.93926
5.77858
5.61602
5.45337
5.29289
5.13604
4.98442
4.83885
4.70053
4.56991
4.44788
4.33443
4.23053
4.13629
4.05255
3.97964
3.91874
3.87129
3.83867
3.81994
3.80566
3.80692
3.81588
3.83955
3.88849
3.95362
4.02595
4.09549
4.15662
4.20599
4.24258
4.26694
4.28129
4.28632
4.28604
4.28463
4.2811
4.27363
4.26056
4.24339
4.22277
4.19907
4.17248
4.14322
4.11181
4.07861
4.04394
4.00803
3.9711
3.93328
3.89473
3.85553
3.81582
3.77565
3.73516
3.6944
3.65353
3.61256
3.57165
3.53083
3.49022
3.44986
3.40985
3.37025
3.33114
3.29261
3.25476
3.21771
3.18163
3.14675
3.11331
3.08177
3.05255
3.02654
3.0037
2.9837
2.9689
2.96136
2.96194
2.96523
2.97452
2.9963
6.85305
6.84381
6.89985
7.0745
7.44526
7.85108
8.06166
8.05502
7.99457
7.83703
7.55872
7.29413
7.06804
6.8775
6.71106
6.55667
6.40581
6.25351
6.09797
5.9385
5.77703
5.6151
5.45438
5.29642
5.14243
4.99355
4.85049
4.71391
4.58441
4.46232
4.34819
4.24236
4.14531
4.05748
3.97969
3.91274
3.8579
3.81635
3.79025
3.76786
3.75636
3.75944
3.77213
3.80148
3.85849
3.92292
3.99141
4.05569
4.11007
4.15194
4.18098
4.19832
4.20533
4.20511
4.2037
4.19999
4.19218
4.17836
4.16043
4.1393
4.11516
4.08824
4.05902
4.02776
3.99484
3.96049
3.92503
3.8886
3.8514
3.81352
3.77508
3.73617
3.69692
3.6574
3.61772
3.57798
3.53828
3.49869
3.45932
3.42024
3.38156
3.34335
3.30572
3.26877
3.23267
3.19758
3.16374
3.13147
3.10118
3.07348
3.04915
3.02831
3.01027
2.99782
2.99456
2.99605
3.00163
3.01526
3.04292
3.09913
7.13162
7.2437
7.49036
7.94945
8.36237
8.55918
8.54231
8.45147
8.23761
7.92307
7.62833
7.38359
7.18264
7.01083
6.85484
6.70504
6.55562
6.40374
6.24868
6.09035
5.93022
5.76943
5.60922
5.45095
5.29558
5.14428
4.9976
4.85636
4.72083
4.59185
4.46953
4.35442
4.24683
4.14714
4.05601
3.97381
3.90151
3.84021
3.7902
3.75571
3.72684
3.70499
3.70265
3.70764
3.72372
3.75897
3.81686
3.88159
3.94654
4.00517
4.05273
4.08705
4.10863
4.11858
4.11916
4.11804
4.11457
4.10692
4.09239
4.07407
4.05253
4.02829
4.00163
3.97274
3.94196
3.90956
3.87586
3.84106
3.80537
3.76893
3.73191
3.69438
3.6565
3.61834
3.58002
3.54164
3.50328
3.46509
3.42712
3.38951
3.35234
3.31575
3.27986
3.24484
3.21088
3.17824
3.14731
3.11851
3.09253
3.07035
3.05143
3.0364
3.0263
3.02672
3.02978
3.0388
3.05892
3.09986
3.14663
3.23186
7.56373
7.96598
8.48714
8.9309
9.09945
9.06737
8.93611
8.65004
8.29856
7.97809
7.71325
7.49771
7.31653
7.15502
7.00266
6.85297
6.70247
6.54972
6.39441
6.2365
6.07742
5.91753
5.75772
5.59923
5.44283
5.28958
5.1401
4.99514
4.85512
4.72059
4.59185
4.46945
4.3534
4.24443
4.14242
4.0483
3.96221
3.88517
3.8179
3.76147
3.71852
3.68312
3.65569
3.63728
3.63883
3.64704
3.66794
3.7109
3.76823
3.8318
3.89265
3.94472
3.98475
4.01124
4.02555
4.02856
4.02768
4.02457
4.01745
4.00317
3.98479
3.96335
3.93934
3.91307
3.8848
3.85478
3.82323
3.79037
3.75646
3.72167
3.68622
3.65024
3.61387
3.57723
3.54041
3.50355
3.46674
3.4301
3.39375
3.35782
3.32243
3.28777
3.25398
3.22134
3.19011
3.1607
3.13367
3.10961
3.09008
3.07339
3.06102
3.05588
3.05728
3.06277
3.07654
3.10549
3.15412
3.22139
3.28324
3.37825
8.354
9.07162
9.57905
9.71402
9.65871
9.46829
9.08032
8.68733
8.34063
8.05674
7.82662
7.63412
7.4644
7.30637
7.15313
7.0009
6.84787
6.6933
6.53705
6.37958
6.22021
6.06047
5.90082
5.74208
5.5849
5.43013
5.2784
5.13037
4.9866
4.84747
4.71352
4.58489
4.46209
4.34524
4.23476
4.13091
4.03417
3.94483
3.86368
3.79144
3.72926
3.67834
3.63836
3.60236
3.57619
3.56817
3.57109
3.58196
3.607
3.65662
3.71346
3.77368
3.82932
3.87459
3.90686
3.92604
3.93321
3.9327
3.93024
3.92414
3.91155
3.89369
3.87235
3.84869
3.8231
3.79574
3.76671
3.73616
3.70436
3.67152
3.63792
3.60368
3.56903
3.53406
3.49895
3.46378
3.42872
3.39388
3.35941
3.32546
3.29221
3.2599
3.22876
3.19916
3.17152
3.14652
3.1248
3.10797
3.09445
3.08435
3.08466
3.08762
3.09646
3.11632
3.15636
3.21453
3.2841
3.36566
3.43291
3.51995
9.60429
10.3118
10.4161
10.324
10.0453
9.5354
9.08752
8.71539
8.413
8.16996
7.96731
7.78879
7.62317
7.46362
7.30652
7.15
6.99332
6.83597
6.67788
6.51911
6.35926
6.19925
6.03925
5.87984
5.72166
5.56534
5.41158
5.26089
5.11391
4.97099
4.83261
4.69898
4.57041
4.44717
4.32952
4.21776
4.11225
4.0133
3.92151
3.83698
3.76084
3.69345
3.63605
3.59053
3.54817
3.51564
3.49368
3.49411
3.49877
3.51302
3.54372
3.59471
3.65179
3.7085
3.75807
3.79617
3.82053
3.83337
3.83367
3.83229
3.82787
3.81821
3.80077
3.78021
3.75732
3.73259
3.70615
3.67818
3.64884
3.61835
3.58691
3.55473
3.52203
3.48898
3.45578
3.42255
3.38949
3.35673
3.32447
3.2929
3.26228
3.23292
3.2052
3.17966
3.15692
3.13813
3.12445
3.11362
3.10867
3.11013
3.1161
3.13084
3.16145
3.21211
3.27712
3.3541
3.43396
3.51428
3.57321
3.63976
11.0604
11.2679
11.1078
10.6701
10.0356
9.51373
9.10229
8.77673
8.52459
8.31538
8.12983
7.95646
7.789
7.62451
7.4617
7.29986
7.13872
6.97785
6.81704
6.65616
6.49506
6.33372
6.17268
6.01226
5.85292
5.69521
5.53968
5.38683
5.23711
5.09094
4.9486
4.81065
4.67726
4.54873
4.42519
4.30704
4.19429
4.08748
3.98666
3.89243
3.80498
3.72515
3.65345
3.59095
3.53931
3.4926
3.4524
3.42417
3.41298
3.4145
3.42176
3.44019
3.47804
3.52905
3.58503
3.63732
3.68
3.71032
3.72772
3.73316
3.73241
3.72938
3.72204
3.70718
3.68804
3.66591
3.64193
3.61657
3.58992
3.56209
3.53317
3.5034
3.47297
3.44216
3.41115
3.38018
3.34943
3.31914
3.28952
3.26089
3.23359
3.20808
3.18487
3.16499
3.14911
3.13933
3.13122
3.13166
3.1353
3.14557
3.16801
3.21178
3.2709
3.34366
3.42465
3.50725
3.582
3.64685
3.68713
3.72993
12.0066
11.8823
11.3947
10.6007
9.96385
9.49719
9.14856
8.88977
8.67862
8.48926
8.309
8.13252
7.95858
7.7868
7.61725
7.44949
7.28328
7.11821
6.95391
6.79013
6.62679
6.46351
6.30103
6.13933
5.97866
5.81945
5.66215
5.50717
5.35498
5.20591
5.06039
4.91866
4.78109
4.64792
4.51936
4.39569
4.27701
4.16367
4.05574
3.95367
3.85752
3.76793
3.68515
3.60988
3.54277
3.48576
3.43454
3.38919
3.35437
3.33357
3.33011
3.33295
3.34301
3.36568
3.41069
3.46192
3.51451
3.56102
3.59682
3.61943
3.63135
3.63123
3.62962
3.62483
3.61433
3.59608
3.57501
3.55224
3.52823
3.5031
3.47692
3.44986
3.4221
3.39389
3.36546
3.33713
3.30911
3.28179
3.25542
3.23053
3.20752
3.18719
3.17014
3.15857
3.15129
3.14905
3.15102
3.15861
3.17614
3.21215
3.26515
3.33302
3.41221
3.49653
3.5785
3.65096
3.70769
3.7499
3.76994
3.79388
12.3132
11.98
11.2135
10.4165
9.87637
9.51992