/*--------------------------------*- C++ -*----------------------------------*\
| =========                 |                                                 |
| \\      /  F ield         | OpenFOAM: The Open Source CFD Toolbox           |
|  \\    /   O peration     | Version:  2112                                  |
|   \\  /    A nd           | Website:  www.openfoam.com                      |
|    \\/     M anipulation  |                                                 |
\*---------------------------------------------------------------------------*/
FoamFile
{
    version     2.0;
    format      ascii;
    arch        "LSB;label=32;scalar=64";
    class       surfaceScalarField;
    location    "8";
    object      phi;
}
// * * * * * * * * * * * * * * * * * * * * * * * * * * * * * * * * * * * * * //

dimensions      [1 0 -1 0 0 0 0];

oriented        oriented;

internalField   nonuniform List<scalar> 
10325
(
0.00840003
1.08415e-10
0.00840003
8.41502e-10
0.00840002
2.57506e-09
0.00840002
7.77897e-09
0.0084
1.85502e-08
0.00839994
4.82464e-08
0.00839982
1.15433e-07
0.00839952
2.65045e-07
0.00839884
6.74346e-07
0.00839712
1.48736e-06
0.00839306
3.94386e-06
0.00838189
1.02988e-05
0.00834615
3.48162e-05
0.00821528
0.000127641
0.00760497
0.000600844
0.00696968
0.000635307
0.00634301
0.00062674
0.00570276
0.000639907
0.00503931
0.000663082
0.0043364
0.000702302
0.00358074
0.000754863
0.00277033
0.000809606
0.00190657
0.000862338
0.000985637
0.000919613
0.000984442
0.00840003
2.01268e-10
0.00840003
1.55985e-09
0.00840003
4.80608e-09
0.00840002
1.44627e-08
0.0084
3.43465e-08
0.00839995
9.06782e-08
0.00839986
2.0653e-07
0.00839955
5.3052e-07
0.00839904
1.17944e-06
0.00839708
3.23404e-06
0.00839326
7.6175e-06
0.00838101
2.17049e-05
0.0083435
7.14024e-05
0.00820557
0.000262319
0.00757857
0.0012181
0.00693523
0.00127881
0.00631929
0.00124283
0.00568594
0.00127295
0.00502611
0.00132257
0.00431711
0.00141073
0.00355492
0.00151625
0.00273871
0.00162509
0.00186671
0.00173285
0.000946327
0.00183864
0.00192961
0.00840003
2.93272e-10
0.00840003
2.27493e-09
0.00840003
6.96739e-09
0.00840002
2.10438e-08
0.0084
4.98744e-08
0.00839995
1.32402e-07
0.00839986
3.02018e-07
0.00839957
7.78693e-07
0.008399
1.74007e-06
0.00839717
4.83442e-06
0.00839333
1.13625e-05
0.00838094
3.32004e-05
0.00834329
0.000108074
0.00820462
0.000397614
0.00756904
0.00184336
0.00691723
0.00193112
0.00631124
0.00184916
0.00568866
0.00189528
0.00503609
0.00197484
0.0043315
0.00211478
0.00357001
0.00227701
0.00275132
0.0024431
0.00187538
0.00260732
0.000948536
0.00276434
0.00287709
0.00840003
3.55048e-10
0.00840003
2.75337e-09
0.00840003
8.45787e-09
0.00840002
2.55239e-08
0.00840001
6.03631e-08
0.00839997
1.6165e-07
0.00839991
3.60182e-07
0.00839968
9.767e-07
0.00839934
2.0725e-06
0.00839764
6.29638e-06
0.0083955
1.34913e-05
0.00837974
4.78994e-05
0.00835014
0.000137116
0.00821005
0.00053402
0.0075813
0.00246081
0.00693072
0.00258282
0.00633654
0.00244398
0.00572693
0.00250468
0.0050876
0.00261398
0.00439011
0.00281169
0.00363703
0.00302943
0.00281856
0.00326076
0.00192966
0.00349482
0.000981237
0.00371169
0.00385736
0.00840003
4.0248e-10
0.00840003
3.12044e-09
0.00840003
9.59242e-09
0.00840002
2.89493e-08
0.00840001
6.83048e-08
0.00839999
1.84249e-07
0.00839994
4.04252e-07
0.00839975
1.13176e-06
0.00839947
2.35253e-06
0.00839822
7.3078e-06
0.00839612
1.55539e-05
0.00838594
5.70553e-05
0.00836883
0.000153392
0.0082346
0.000663607
0.00766481
0.00301791
0.00700783
0.00324155
0.00641558
0.00303735
0.00581614
0.00310402
0.00518872
0.00324102
0.00450901
0.00349099
0.00375837
0.00377989
0.00294083
0.00407794
0.00203925
0.00439471
0.00104918
0.0047007
0.00490564
0.00840003
4.41966e-10
0.00840003
3.4284e-09
0.00840003
1.05155e-08
0.00840002
3.18029e-08
0.00840002
7.47885e-08
0.00839999
2.03974e-07
0.00839995
4.39553e-07
0.00839977
1.2821e-06
0.00839955
2.56912e-06
0.0083981
8.5115e-06
0.00839586
1.77434e-05
0.00838568
6.61755e-05
0.00835996
0.000178167
0.00826533
0.000753609
0.00781675
0.00345207
0.00714305
0.00391794
0.00655046
0.00363158
0.0059608
0.00369379
0.00534897
0.00385306
0.00468633
0.00415329
0.00395172
0.00451354
0.00312453
0.00490463
0.00220114
0.0053175
0.00115504
0.0057454
0.00605984
0.00840003
4.61576e-10
0.00840003
3.57459e-09
0.00840003
1.10267e-08
0.00840003
3.32614e-08
0.00840002
7.8032e-08
0.00840001
2.15188e-07
0.0084
4.45322e-07
0.00839983
1.4099e-06
0.00839988
2.52475e-06
0.00839835
9.79321e-06
0.00839709
1.89828e-05
0.0083891
7.30628e-05
0.00837011
0.000196075
0.00831406
0.000805212
0.00810408
0.00364576
0.00740788
0.004618
0.00677769
0.00426357
0.00618618
0.00428556
0.00559098
0.00444825
0.00493731
0.0048074
0.0042176
0.00523273
0.00340225
0.00571908
0.00244986
0.00626919
0.00133157
0.00686325
0.0073907
0.00840003
5.06966e-10
0.00840003
3.93164e-09
0.00840003
1.21035e-08
0.00840002
3.65315e-08
0.00840001
8.5903e-08
0.00839999
2.34772e-07
0.00839994
4.96519e-07
0.00839981
1.50471e-06
0.00839956
2.77017e-06
0.0083989
1.02114e-05
0.00839797
1.98633e-05
0.0083953
7.46131e-05
0.00839293
0.000197271
0.00840826
0.000785749
0.00860642
0.00343015
0.00788709
0.00534172
0.00714616
0.00500697
0.00654312
0.00488897
0.00595774
0.0050334
0.00531088
0.00545397
0.00459036
0.00595342
0.00377428
0.006534
0.00281907
0.00722318
0.00161101
0.00807063
0.00900116
0.00840003
4.50308e-10
0.00840003
4.34258e-09
0.00840003
1.29636e-08
0.00840002
3.96776e-08
0.00840002
9.24373e-08
0.0084
2.49825e-07
0.00839995
5.44312e-07
0.0083999
1.51367e-06
0.0083997
2.96811e-06
0.00839991
9.77554e-06
0.00840215
1.75578e-05
0.00840732
6.83521e-05
0.00843475
0.000168498
0.00857265
0.000644952
0.0094793
0.0025047
0.00869173
0.00613288
0.00773029
0.00597108
0.0071191
0.00550193
0.00643837
0.00571477
0.00581274
0.00607925
0.0051093
0.00665726
0.00433405
0.00731005
0.00340771
0.00814901
0.00213069
0.00934633
0.0111311
0.00840003
1.28016e-10
0.00840003
5.58112e-09
0.00840003
7.56067e-09
0.00840002
4.77764e-08
0.00840006
5.54495e-08
0.00840001
2.99687e-07
0.00840024
3.1028e-07
0.00839985
1.87984e-06
0.00840144
1.37617e-06
0.0083983
1.27475e-05
0.00840985
5.99965e-06
0.00839175
8.57411e-05
0.00848259
7.63973e-05
0.00857614
0.000549365
0.00939179
0.00167612
0.00910224
0.00641768
0.00846005
0.0066137
0.00771469
0.00624882
0.00705601
0.00637434
0.00642531
0.00670922
0.00578497
0.00729709
0.00509345
0.00800161
0.00422342
0.00901912
0.00298181
0.0105875
0.014112
0.00840003
8.00178e-10
0.00840003
1.31729e-09
0.00840003
1.22527e-08
0.00840006
1.44024e-08
0.00840003
8.53981e-08
0.00840024
9.11379e-08
0.0084
5.33013e-07
0.00840138
4.88085e-07
0.00839908
3.59911e-06
0.00840921
2.56844e-06
0.0083886
2.61482e-05
0.00845738
1.67948e-05
0.00833498
0.00019698
0.00863183
0.000253493
0.00871638
0.00158312
0.00884266
0.00627679
0.00858281
0.00687171
0.00803683
0.0067947
0.00754463
0.00686684
0.00703294
0.00722109
0.00654618
0.00778294
0.00602036
0.00852637
0.00555335
0.00948514
0.00549105
0.0106489
0.0114178
0.00818439
0.00840003
4.30781e-10
0.00840003
2.42156e-09
0.00840003
8.15498e-09
0.00840002
2.31535e-08
0.00840005
5.79278e-08
0.00839999
1.47394e-07
0.00840017
3.53155e-07
0.00839977
8.68818e-07
0.0084012
2.15698e-06
0.00839833
5.30676e-06
0.00841045
1.4016e-05
0.00838988
3.66591e-05
0.00848238
0.00010416
0.0083511
0.000382462
0.00877719
0.00115165
0.00892965
0.00610849
0.00860404
0.00719586
0.00821529
0.00718308
0.00786318
0.00721909
0.00748723
0.00759752
0.00713281
0.00813756
0.00683303
0.00882569
0.00670027
0.00961673
0.0070688
0.0102788
0.0104842
0.00800008
0.00840003
3.25258e-10
0.00840003
2.52918e-09
0.00840003
7.80067e-09
0.00840003
2.35501e-08
0.00840003
5.5682e-08
0.00840003
1.48696e-07
0.00840004
3.32705e-07
0.0084
8.92596e-07
0.00840027
1.87585e-06
0.00839973
5.73715e-06
0.00840279
1.09049e-05
0.00839848
4.03673e-05
0.00841528
8.6909e-05
0.00843088
0.000364711
0.00854119
0.00103671
0.00905829
0.00557573
0.0087876
0.00746674
0.00848619
0.00748474
0.00818576
0.00751966
0.00792157
0.00786154
0.00767805
0.00838124
0.007548
0.00895552
0.00765443
0.00950918
0.00806828
0.00986295
0.00987244
0.00867723
0.00840003
3.29351e-10
0.00840003
2.54861e-09
0.00840003
7.82246e-09
0.00840003
2.3569e-08
0.00840003
5.57901e-08
0.00840003
1.48373e-07
0.00840002
3.33354e-07
0.00840003
8.76863e-07
0.00839999
1.90216e-06
0.00840018
5.45433e-06
0.00840065
1.04449e-05
0.0084016
3.883e-05
0.00841316
7.52596e-05
0.00843892
0.000337038
0.00857346
0.00089898
0.00953648
0.00459679
0.00920335
0.00780151
0.00880159
0.00788792
0.00852739
0.00779455
0.00834367
0.00804514
0.00823087
0.0084935
0.00822046
0.0089666
0.00835334
0.00937582
0.00868678
0.00952783
0.00940735
0.0091486
0.00840003
3.08345e-10
0.00840003
2.39263e-09
0.00840003
7.36419e-09
0.00840003
2.21953e-08
0.00840003
5.26271e-08
0.00840004
1.3984e-07
0.00840006
3.1512e-07
0.0084001
8.20568e-07
0.00840017
1.82359e-06
0.00840072
4.82787e-06
0.00840043
1.0673e-05
0.0084089
2.98815e-05
0.00841221
7.16053e-05
0.00851258
0.000234632
0.00874955
0.000659319
0.0104552
0.00287263
0.00990776
0.00835122
0.0094565
0.00834164
0.00899439
0.00825812
0.00876427
0.00827493
0.00869223
0.00856408
0.00874775
0.00891
0.00890512
0.00921857
0.00915224
0.00928008
0.0090534
0.00950402
0.00840003
2.82968e-10
0.00840003
2.19869e-09
0.00840003
6.71704e-09
0.00840003
2.03231e-08
0.00840004
4.81205e-08
0.00840005
1.28495e-07
0.00840007
2.90131e-07
0.00840013
7.49954e-07
0.00840022
1.72254e-06
0.00840082
4.16204e-06
0.00840098
1.04646e-05
0.00840708
2.34418e-05
0.00841448
6.37818e-05
0.00847681
0.000170505
0.00859592
0.000541949
0.00942128
0.00203949
0.0100466
0.00772071
0.00980649
0.00858179
0.0093922
0.00867366
0.00917492
0.00849392
0.00910226
0.00863631
0.00915744
0.00885369
0.00933644
0.00903811
0.00954513
0.00907036
0.00881702
0.00978036
0.00840003
2.16943e-10
0.00840003
1.68074e-09
0.00840003
5.22675e-09
0.00840004
1.56445e-08
0.00840005
3.71618e-08
0.00840008
9.75882e-08
0.00840015
2.19302e-07
0.00840032
5.68766e-07
0.00840081
1.22318e-06
0.0084015
3.42925e-06
0.00840513
6.79469e-06
0.00840623
2.2055e-05
0.00842593
4.39247e-05
0.00843873
0.000156354
0.00856645
0.000413309
0.00891553
0.00168613
0.00989347
0.00672834
0.00984212
0.00863026
0.00969558
0.00881881
0.00950925
0.00868025
0.0094524
0.00869306
0.0094873
0.0088181
0.00963663
0.00888736
0.00984341
0.00886169
0.00863338
0.0100252
0.00840003
1.79777e-10
0.00840003
1.4795e-09
0.00840003
4.54905e-09
0.00840003
1.3609e-08
0.00840004
3.23294e-08
0.00840005
8.51192e-08
0.00840008
1.91794e-07
0.00840014
4.96289e-07
0.00840027
1.09039e-06
0.00840073
2.93213e-06
0.00840141
6.08467e-06
0.00840457
1.86657e-05
0.00841084
3.75432e-05
0.0084327
0.000133321
0.00850027
0.000344872
0.00880041
0.00137849
0.010229
0.00528397
0.0101806
0.00867778
0.0100021
0.0089966
0.00979978
0.00888213
0.00977009
0.00872204
0.00981664
0.00877083
0.00991198
0.00879105
0.0100666
0.00870509
0.00848199
0.0102161
0.00840003
6.25097e-11
0.00840003
1.48556e-09
0.00840003
2.69432e-09
0.00840003
1.29588e-08
0.00840004
1.98072e-08
0.00840005
8.00484e-08
0.00840012
1.17594e-07
0.00840015
4.6347e-07
0.00840057
6.60885e-07
0.00840074
2.73129e-06
0.00840335
3.44972e-06
0.00840382
1.79651e-05
0.00842371
1.75547e-05
0.00843053
0.000125432
0.00859946
0.00017399
0.0090748
0.000904297
0.0113151
0.00302665
0.0109965
0.00899582
0.0107347
0.00926002
0.0103273
0.00929085
0.0101356
0.00891453
0.0101236
0.00878239
0.0101875
0.00872625
0.0102918
0.00859906
0.00836504
0.0104061
0.00840003
1.44078e-10
0.00840003
8.19411e-10
0.00840003
3.06293e-09
0.00840004
7.80884e-09
0.00840003
2.16799e-08
0.00840006
4.92198e-08
0.00840005
1.29171e-07
0.00840022
2.8621e-07
0.00840012
7.43372e-07
0.00840119
1.65024e-06
0.00840029
4.27283e-06
0.00840834
9.68087e-06
0.00840002
2.56722e-05
0.00846237
6.17306e-05
0.00844928
0.000185274
0.00879627
0.00055869
0.00969676
0.00212058
0.0110928
0.00758959
0.0110218
0.00933138
0.0108163
0.00949734
0.0105244
0.00920779
0.010425
0.00888221
0.0104296
0.00872115
0.0104782
0.0085489
0.00828791
0.0105528
0.00840003
1.70457e-10
0.00840003
4.92312e-10
0.00840003
2.89477e-09
0.00840003
5.0433e-09
0.00840003
2.00307e-08
0.00840005
3.2052e-08
0.00840006
1.18272e-07
0.00840016
1.84698e-07
0.00840022
6.80242e-07
0.00840083
1.02978e-06
0.00840102
4.04309e-06
0.00840517
5.48572e-06
0.00840423
2.63673e-05
0.00843352
3.2266e-05
0.00843419
0.000183397
0.00865441
0.000337234
0.00925879
0.00151265
0.0110374
0.00579631
0.0111658
0.00920204
0.011118
0.00954508
0.0108968
0.00942967
0.0107434
0.00903625
0.0107066
0.00875775
0.0107081
0.00854665
0.0082752
0.010718
0.00840003
6.04146e-11
0.00840003
6.72731e-10
0.00840003
1.52735e-09
0.00840003
6.06152e-09
0.00840004
1.10484e-08
0.00840003
3.79443e-08
0.00840008
6.63163e-08
0.00840005
2.2136e-07
0.00840034
3.82875e-07
0.00840008
1.27809e-06
0.00840191
2.19637e-06
0.00839978
7.53305e-06
0.00841349
1.26147e-05
0.00839761
4.76292e-05
0.00849991
8.07886e-05
0.00847795
0.000357114
0.00917729
0.000810716
0.0117038
0.003253
0.0117082
0.00919448
0.0115457
0.00970719
0.0112832
0.00969194
0.0110301
0.00928937
0.0109374
0.00884987
0.0109306
0.00855238
0.00828092
0.0109238
0.00840003
8.77106e-11
0.00840003
3.06864e-10
0.00840003
1.60731e-09
0.00840003
3.07836e-09
0.00840003
1.1235e-08
0.00840005
1.96574e-08
0.00840005
6.68276e-08
0.00840016
1.14676e-07
0.00840015
3.85969e-07
0.00840078
6.49875e-07
0.00840067
2.28088e-06
0.00840467
3.52178e-06
0.00840281
1.43408e-05
0.00843128
1.91085e-05
0.00841682
9.45653e-05
0.00863428
0.000139261
0.00870741
0.000735575
0.0100433
0.00191205
0.0118697
0.00735935
0.0119021
0.00967299
0.0116907
0.00990177
0.0113527
0.00962612
0.0111934
0.00900753
0.0111213
0.00862313
0.00830009
0.0111005
0.00840003
4.31058e-11
0.00840003
2.83668e-10
0.00840003
9.03692e-10
0.00840003
2.66493e-09
0.00840004
6.41026e-09
0.00840004
1.6652e-08
0.00840007
3.78174e-08
0.00840009
9.56746e-08
0.00840026
2.14072e-07
0.00840035
5.49552e-07
0.00840144
1.18729e-06
0.00840159
3.34081e-06
0.00840922
6.70315e-06
0.00840659
2.15057e-05
0.00845778
4.33562e-05
0.00844622
0.000149781
0.00880521
0.000375811
0.00919306
0.00152064
0.0116396
0.0049019
0.0120204
0.00928838
0.0120767
0.00984306
0.0119031
0.00979755
0.0115407
0.00936678
0.0113717
0.00878917
0.00837766
0.0112917
0.00840003
2.91186e-11
0.00840003
2.31317e-10
0.00840003
7.14261e-10
0.00840003
2.1329e-09
0.00840003
5.0817e-09
0.00840004
1.33451e-08
0.00840004
3.02106e-08
0.00840006
7.73523e-08
0.0084001
1.72958e-07
0.00840021
4.41584e-07
0.00840041
9.81075e-07
0.00840122
2.51095e-06
0.00840226
5.6423e-06
0.00840911
1.45493e-05
0.00841806
3.43208e-05
0.00847537
9.19694e-05
0.00859957
0.00025051
0.00931218
0.000806839
0.0116708
0.00253436
0.0125053
0.00844597
0.0124423
0.00990339
0.0122275
0.01001
0.0118851
0.00970633
0.0116964
0.00897515
0.00853391
0.011535
0.00840003
1.25352e-11
0.00840003
1.99637e-10
0.00840003
4.26865e-10
0.00840003
1.76429e-09
0.00840003
3.11339e-09
0.00840004
1.08963e-08
0.00840005
1.85681e-08
0.00840006
6.26369e-08
0.00840013
1.05774e-07
0.00840021
3.55399e-07
0.0084006
5.94353e-07
0.00840105
2.04394e-06
0.00840345
3.23296e-06
0.00840533
1.25758e-05
0.00842266
1.69556e-05
0.00842979
8.43415e-05
0.00856472
0.000115145
0.00873068
0.000638963
0.00966253
0.0015982
0.0121199
0.00597313
0.0124728
0.00954625
0.012552
0.00992712
0.0124122
0.00984311
0.0120353
0.00934911
0.00874731
0.011818
0.00840003
1.68217e-11
0.00840003
1.02004e-10
0.00840003
3.72781e-10
0.00840003
9.67948e-10
0.00840003
2.63435e-09
0.00840004
6.05398e-09
0.00840004
1.55329e-08
0.00840007
3.47501e-08
0.00840008
8.80298e-08
0.00840024
1.95512e-07
0.00840034
4.95517e-07
0.00840128
1.09818e-06
0.00840166
2.82464e-06
0.00840798
6.23209e-06
0.00840783
1.68887e-05
0.00845456
3.75565e-05
0.00845818
0.000110371
0.00880943
0.000286803
0.00942181
0.000981045
0.0122743
0.00310461
0.0129128
0.00890242
0.0128867
0.00995019
0.0126652
0.0100613
0.0123765
0.00963378
0.0089781
0.0121412
0.00840003
1.33844e-11
0.00840003
7.23348e-11
0.00840003
2.6587e-10
0.00840003
6.88735e-10
0.00840003
1.86477e-09
0.00840003
4.30713e-09
0.00840004
1.09582e-08
0.00840005
2.4678e-08
0.00840007
6.19051e-08
0.00840013
1.384e-07
0.00840027
3.46705e-07
0.0084006
7.71386e-07
0.00840144
1.95988e-06
0.00840341
4.24511e-06
0.0084085
1.16793e-05
0.00842267
2.3298e-05
0.0084556
7.67294e-05
0.00858124
0.000160612
0.00893452
0.00062517
0.0102776
0.0017557
0.012659
0.00650945
0.0128971
0.00970852
0.0130554
0.00989984
0.0128264
0.00986038
0.00929565
0.012501
0.00840003
1.25593e-11
0.00840003
4.11992e-11
0.00840003
2.16947e-10
0.00840003
4.17703e-10
0.00840003
1.49995e-09
0.00840003
2.65267e-09
0.00840003
8.80723e-09
0.00840004
1.5328e-08
0.00840006
4.99667e-08
0.00840011
8.66424e-08
0.00840017
2.8188e-07
0.00840045
4.86541e-07
0.0084008
1.59766e-06
0.00840232
2.7063e-06
0.00840457
9.34145e-06
0.00841307
1.47107e-05
0.00843033
5.89652e-05
0.00849973
9.07769e-05
0.00870648
0.000416243
0.00946898
0.000990225
0.0124358
0.00352561
0.0131801
0.00895977
0.0131295
0.00994437
0.0130432
0.0099422
0.00955896
0.0127716
0.00840003
5.36674e-12
0.00840003
3.62761e-11
0.00840003
1.14679e-10
0.00840003
3.39872e-10
0.00840003
8.131e-10
0.00840003
2.11879e-09
0.00840004
4.79378e-09
0.00840004
1.2128e-08
0.00840006
2.71065e-08
0.00840008
6.80723e-08
0.00840021
1.51678e-07
0.00840031
3.80594e-07
0.00840106
8.47235e-07
0.00840158
2.15165e-06
0.00840619
4.71452e-06
0.00840799
1.27601e-05
0.00844005
2.68203e-05
0.0084477
8.23012e-05
0.00867992
0.000183397
0.0089959
0.000671469
0.0106193
0.00189581
0.0130359
0.00652951
0.0132766
0.009698
0.0132796
0.0099264
0.00970572
0.01312
0.00840003
3.2724e-12
0.00840003
2.55338e-11
0.00840003
7.94916e-11
0.00840003
2.35773e-10
0.00840003
5.63445e-10
0.00840003
1.46283e-09
0.00840003
3.31695e-09
0.00840004
8.36244e-09
0.00840004
1.87372e-08
0.00840007
4.69132e-08
0.00840011
1.0477e-07
0.00840023
2.62011e-07
0.00840049
5.83827e-07
0.00840116
1.46583e-06
0.0084026
3.25158e-06
0.00840691
8.35288e-06
0.00841535
1.82676e-05
0.00844594
5.11487e-05
0.00851606
0.000112733
0.00880836
0.000376717
0.00965402
0.00104707
0.0124685
0.00369752
0.0134513
0.00870339
0.0133502
0.010013
0.00976463
0.0132692
0.00840003
1.55894e-12
0.00840003
2.00758e-11
0.00840003
4.62944e-11
0.00840003
1.78496e-10
0.00840003
3.34005e-10
0.00840003
1.09801e-09
0.00840003
1.97498e-09
0.00840003
6.2589e-09
0.00840004
1.11681e-08
0.00840005
3.50833e-08
0.0084001
6.24434e-08
0.00840016
1.96072e-07
0.00840039
3.47625e-07
0.00840075
1.09824e-06
0.00840205
1.93097e-06
0.0084041
6.23478e-06
0.00841151
1.07418e-05
0.00842546
3.67955e-05
0.00847253
6.49899e-05
0.00860658
0.000240457
0.009088
0.000564774
0.0108028
0.00197431
0.0131913
0.00629075
0.0136066
0.00957454
0.0097014
0.0136305
0.00840003
2.12502e-12
0.00840003
8.37923e-12
0.00840003
4.01215e-11
0.00840003
8.27009e-11
0.00840003
2.78704e-10
0.00840003
5.20163e-10
0.00840003
1.62957e-09
0.00840003
2.98006e-09
0.00840004
9.17191e-09
0.00840005
1.66997e-08
0.00840006
5.11832e-08
0.00840017
9.30265e-08
0.00840022
2.85376e-07
0.0084008
5.1727e-07
0.0084011
1.59817e-06
0.00840444
2.86957e-06
0.00840584
9.17599e-06
0.0084266
1.58624e-05
0.0084341
5.65283e-05
0.00857661
9.70483e-05
0.00874393
0.000393252
0.00975934
0.000950602
0.0128401
0.00318777
0.0138584
0.00850705
0.00940223
0.0140614
0.00840003
9.5567e-13
0.00840003
6.38257e-12
0.00840003
2.02096e-11
0.00840003
5.96914e-11
0.00840003
1.42739e-10
0.00840003
3.70008e-10
0.00840003
8.35393e-10
0.00840003
2.0988e-09
0.00840004
4.67739e-09
0.00840004
1.16454e-08
0.00840007
2.5877e-08
0.00840009
6.41895e-08
0.00840023
1.42483e-07
0.00840038
3.53023e-07
0.00840118
7.83349e-07
0.00840201
1.96092e-06
0.00840682
4.28521e-06
0.00841077
1.14246e-05
0.00844298
2.3866e-05
0.00846421
7.28851e-05
0.0086975
0.000157234
0.00904649
0.000587751
0.0106348
0.00157633
0.0136671
0.00539878
0.00844076
0.0144328
0.00840003
5.03885e-13
0.00840003
3.98597e-12
0.00840003
1.24273e-11
0.00840003
3.66711e-11
0.00840003
8.76506e-11
0.00840003
2.25346e-10
0.00840003
5.10107e-10
0.00840003
1.27003e-09
0.00840003
2.8376e-09
0.00840004
7.004e-09
0.00840005
1.55932e-08
0.00840007
3.8372e-08
0.00840012
8.5286e-08
0.00840025
2.0961e-07
0.00840055
4.6495e-07
0.00840126
1.14492e-06
0.00840291
2.53204e-06
0.00840738
6.30527e-06
0.00841651
1.40245e-05
0.00844944
3.60037e-05
0.00851502
8.74595e-05
0.00882753
0.000255723
0.00965754
0.000710454
0.0124123
0.00253133
0.00635377
0.0141614
0.00840003
1.22466e-13
0.00840003
2.95539e-12
0.00840003
5.37148e-12
0.00840003
2.56311e-11
0.00840003
3.9019e-11
0.00840003
1.55411e-10
0.00840003
2.26119e-10
0.00840003
8.71722e-10
0.00840003
1.23938e-09
0.00840003
4.79904e-09
0.00840004
6.6804e-09
0.00840005
2.63139e-08
0.0084001
3.56827e-08
0.00840014
1.44431e-07
0.0084004
1.88254e-07
0.00840063
7.99213e-07
0.00840208
9.48956e-07
0.00840294
4.67024e-06
0.00841223
4.0132e-06
0.00841284
3.02185e-05
0.00847887
1.62945e-05
0.00851213
0.000193793
0.00901732
0.000193381
0.0102578
0.00113265
0.0036074
0.0125613
0.00840003
1.97422e-13
0.00840003
1.149e-12
0.00840003
4.19034e-12
0.00840003
1.08955e-11
0.00840003
2.91871e-11
0.00840003
6.70405e-11
0.00840003
1.67754e-10
0.00840003
3.7509e-10
0.00840003
9.20825e-10
0.00840003
2.04889e-09
0.00840003
4.99871e-09
0.00840005
1.11295e-08
0.00840005
2.70828e-08
0.00840013
6.03562e-08
0.00840012
1.4652e-07
0.00840054
3.25216e-07
0.00840039
7.87327e-07
0.00840293
1.74046e-06
0.00840062
4.15342e-06
0.00841971
9.11493e-06
0.00839976
2.33589e-05
0.00852273
5.29331e-05
0.00850056
0.000162708
0.00905167
0.000445269
0.00189582
0.0103056
0.00840003
2.78102e-13
0.00840003
2.60638e-13
0.00840003
3.75788e-12
0.00840003
3.34921e-12
0.00840003
2.53955e-11
0.00840003
2.17391e-11
0.00840003
1.48156e-10
0.00840003
1.22509e-10
0.00840003
8.36147e-10
0.00840003
6.62737e-10
0.00840003
4.68877e-09
0.00840004
3.51039e-09
0.00840003
2.6386e-08
0.00840007
1.79167e-08
0.00840003
1.51308e-07
0.00840023
7.63358e-08
0.00839979
9.49543e-07
0.00840125
7.05201e-08
0.00839673
6.61739e-06
0.00840848
-4.48013e-06
0.00837412
4.68615e-05
0.00844432
-3.61344e-05
0.00829864
0.00026166
0.00844282
0.000176856
0.00155614
0.00831255
0.00840003
7.48266e-14
0.00840003
2.4538e-13
0.00840003
1.17139e-12
0.00840003
2.53844e-12
0.00840003
8.1195e-12
0.00840003
1.56946e-11
0.00840003
4.71317e-11
0.00840003
8.58922e-11
0.00840003
2.62598e-10
0.00840003
4.54595e-10
0.00840003
1.45058e-09
0.00840003
2.40919e-09
0.00840005
8.01995e-09
0.00840004
1.31405e-08
0.00840012
4.42329e-08
0.0084
8.57879e-08
0.00840061
2.51688e-07
0.00839934
5.17381e-07
0.00840347
1.84281e-06
0.00839197
1.87069e-06
0.008419
1.37363e-05
0.00834098
1.39613e-05
0.00846364
0.000101826
0.00812812
0.000343782
0.00158092
0.00762284
0.00840003
-6.30605e-15
0.00840003
3.0754e-13
0.00840003
5.59405e-13
0.00840003
2.62104e-12
0.00840003
4.08808e-12
0.00840003
1.62122e-11
0.00840003
2.37648e-11
0.00840003
9.57631e-11
0.00840003
1.31996e-10
0.00840003
5.60292e-10
0.00840003
7.30315e-10
0.00840003
3.26571e-09
0.00840003
4.04406e-09
0.00840001
1.90211e-08
0.00840001
2.21986e-08
0.00839989
1.07874e-07
0.0083999
1.11631e-07
0.00839905
6.02438e-07
0.00840006
3.48859e-07
0.00839176
4.72042e-06
0.00840018
1.35455e-06
0.00834738
3.85064e-05
0.00835033
6.24031e-05
0.00817258
0.000344429
0.00157884
0.00768377
0.00840003
-1.27808e-13
0.00840003
4.26854e-13
0.00840003
-8.55887e-13
0.00840003
3.02311e-12
0.00840003
-5.3141e-12
0.00840003
1.73537e-11
0.00840003
-3.27018e-11
0.00840003
9.49393e-11
0.00840003
-2.03157e-10
0.00840003
5.11727e-10
0.00840003
-1.26926e-09
0.00840003
2.75628e-09
0.00840004
-7.9852e-09
0.00840003
1.52716e-08
0.00840009
-5.08128e-08
0.0084
9.95898e-08
0.00840038
-3.60694e-07
0.00839931
9.42084e-07
0.00840192
-2.89862e-06
0.00839161
1.01696e-05
0.00840728
-2.00262e-05
0.00833411
8.17019e-05
0.00838894
-3.15329e-05
0.00814693
0.000408342
0.00129717
0.00794685
0.00840003
-2.13829e-14
0.00840003
1.17724e-13
0.00840003
-5.04283e-14
0.00840003
9.34987e-13
0.00840003
-1.5752e-13
0.00840003
5.59779e-12
0.00840003
-1.03387e-12
0.00840003
3.15374e-11
0.00840003
-8.96531e-12
0.00840003
1.74162e-10
0.00840003
-7.60308e-11
0.00840003
9.54173e-10
0.00840002
-6.13487e-10
0.00840002
5.25875e-09
0.00839996
-4.75376e-09
0.0084
3.20515e-08
0.00839955
-3.82422e-08
0.0084
2.44413e-07
0.00839591
-1.53516e-07
0.00840313
2.19828e-06
0.00837212
1.25792e-06
0.00842056
2.27794e-05
0.0082864
6.00312e-05
0.00831003
0.00023522
0.00134743
0.00781125
0.00840003
4.81986e-14
0.00840003
5.19698e-14
0.00840003
6.15426e-13
0.00840003
8.11062e-13
0.00840003
4.24348e-12
0.00840003
5.76183e-12
0.00840003
2.59176e-11
0.00840003
3.67504e-11
0.00840003
1.55428e-10
0.00840003
2.30879e-10
0.00840003
9.33862e-10
0.00840003
1.44923e-09
0.00840002
5.65655e-09
0.00840001
9.08384e-09
0.00839994
3.46793e-08
0.0083999
5.58291e-08
0.00839946
2.20118e-07
0.00839922
3.02706e-07
0.00839619
1.51447e-06
0.00839658
1.12006e-06
0.00837689
1.1159e-05
0.0083807
9.02121e-06
0.00830528
9.06928e-05
0.008179
0.000227642
0.00125994
0.00785029
0.00840003
1.47677e-13
0.00840003
-2.11233e-13
0.00840003
1.46222e-12
0.00840003
-9.90568e-13
0.00840003
9.72012e-12
0.00840003
-4.45856e-12
0.00840003
5.88853e-11
0.00840003
-1.92158e-11
0.00840003
3.5246e-10
0.00840003
-6.81182e-11
0.00840003
2.11691e-09
0.00840003
-1.91105e-10
0.00840002
1.28323e-08
0.00840003
-5.60084e-11
0.00839996
7.88291e-08
0.0084
2.75199e-09
0.00839959
5.05575e-07
0.00839983
-6.43851e-08
0.00839682
3.65246e-06
0.00840025
-2.78538e-06
0.00837693
2.75893e-05
0.00840266
-2.40982e-05
0.00828679
0.00016645
0.00830115
0.000110005
0.00108096
0.00810361
0.00840003
3.82544e-14
0.00840003
-9.38133e-16
0.00840003
4.31905e-13
0.00840003
3.13574e-13
0.00840003
2.98216e-12
0.00840003
2.57936e-12
0.00840003
1.80994e-11
0.00840003
1.66026e-11
0.00840003
1.06745e-10
0.00840003
1.00499e-10
0.00840003
6.23517e-10
0.00840003
5.89251e-10
0.00840004
3.6253e-09
0.00840003
3.38964e-09
0.00840008
2.12094e-08
0.00840004
2.18188e-08
0.00840038
1.21864e-07
0.00839991
1.76091e-07
0.00840271
7.82164e-07
0.00839726
8.2006e-07
0.00841654
6.89935e-06
0.00837844
2.9214e-06
0.00846856
5.3346e-05
0.00841873
0.00013734
0.000585633
0.00868117
0.00840003
-1.36273e-14
0.00840003
1.83574e-13
0.00840003
2.08627e-13
0.00840003
1.51508e-12
0.00840003
1.73969e-12
0.00840003
9.33317e-12
0.00840003
1.08986e-11
0.00840003
5.48393e-11
0.00840003
6.50075e-11
0.00840003
3.19248e-10
0.00840003
3.80698e-10
0.00840003
1.85273e-09
0.00840003
2.17973e-09
0.00840002
1.07332e-08
0.00840002
1.19289e-08
0.00839995
6.19505e-08
0.00839999
5.03998e-08
0.00839962
3.66368e-07
0.00840011
4.8991e-08
0.00839711
2.48931e-06
0.00840389
-1.5282e-06
0.008383
1.6757e-05
0.00841668
2.50111e-06
0.00843062
8.93828e-05
0.000346964
0.00849144
0.00840003
-6.8672e-14
0.00840003
3.33126e-13
0.00840003
-3.24941e-13
0.00840003
2.44731e-12
0.00840003
-1.71583e-12
0.00840003
1.46988e-11
0.00840003
-9.27664e-12
0.00840003
8.54484e-11
0.00840003
-5.04837e-11
0.00840003
4.94657e-10
0.00840003
-2.76764e-10
0.00840003
2.86797e-09
0.00840003
-1.58117e-09
0.00840002
1.67248e-08
0.00840004
-1.01244e-08
0.00839999
9.94439e-08
0.0084001
-8.9523e-08
0.00839962
6.84722e-07
0.00840086
-1.16652e-06
0.00839642
5.66789e-06
0.00840642
-1.19767e-05
0.00837884
3.83951e-05
0.0084182
-5.25013e-05
0.00836213
0.000119522
0.000114412
0.00844445
0.00840003
7.66327e-14
0.00840003
-2.69226e-13
0.00840003
5.48011e-13
0.00840003
-1.85044e-12
0.00840003
3.40394e-12
0.00840003
-1.08123e-11
0.00840003
1.99136e-11
0.00840003
-6.18218e-11
0.00840003
1.15102e-10
0.00840003
-3.53668e-10
0.00840003
6.6445e-10
0.00840003
-2.03586e-09
0.00840003
3.86874e-09
0.00840005
-1.18672e-08
0.00840001
2.32516e-08
0.00840017
-7.071e-08
0.00839984
1.59182e-07
0.00840093
-4.89711e-07
0.00839778
1.49816e-06
0.00840717
-4.17444e-06
0.00837745
1.46315e-05
0.00843956
-2.7196e-05
0.00828306
8.78968e-05
0.00840969
-1.52837e-05
0.000346547
0.00804517
0.00840003
2.02626e-14
0.00840003
-1.17275e-13
0.00840003
3.93783e-14
0.00840003
-8.90573e-13
0.00840003
1.44652e-13
0.00840003
-5.26596e-12
0.00840003
8.53396e-13
0.00840003
-3.01644e-11
0.00840003
5.14667e-12
0.00840003
-1.72735e-10
0.00840003
2.97059e-11
0.00840003
-9.93312e-10
0.00840003
1.75337e-10
0.00840002
-5.73941e-09
0.00840004
1.32726e-09
0.00839998
-3.29072e-08
0.0084001
1.64004e-08
0.00839965
-1.89232e-07
0.00840087
2.3535e-07
0.0083967
-1.20288e-06
0.00840731
3.47847e-06
0.00838168
-6.98111e-06
0.00842951
2.53525e-05
0.0083887
4.72827e-06
0.000138504
0.00846516
0.00840003
0.00840003
0.00840003
0.00840003
0.00840003
0.00840003
0.00840003
0.00840003
0.00840003
0.00840003
0.00840003
0.00840003
0.00840003
0.00840002
0.00840002
0.00839996
0.00839995
0.00839961
0.00839967
0.00839736
0.00840007
0.0083873
0.00839964
0.00838312
0.00839119
0.00382051
0.00436074
0.00159228
0.00221778
-0.0005406
0.00212508
-0.00160686
0.00106891
-0.00224132
0.000634399
-0.00261182
0.000371749
-0.00274042
0.000130374
-0.00285607
0.000118493
-0.00301448
0.000161476
-0.00316278
0.000151194
-0.00327715
0.00011678
-0.00336688
9.16147e-05
-0.00344
7.52816e-05
-0.0034878
5.05888e-05
-0.00353695
4.79437e-05
-0.00358903
4.84265e-05
-0.00362594
3.2076e-05
-0.00363544
3.84505e-06
-0.0036232
-2.01442e-05
-0.00358354
-4.94958e-05
-0.00351192
-8.24929e-05
-0.003409
-0.000114235
-0.00328144
-0.000139061
-0.00313505
-0.000156827
-0.0029751
-0.000170383
-0.00280471
-0.000179687
-0.0026274
-0.000185303
-0.00244581
-0.000189626
-0.00225829
-0.000194294
-0.00206561
-0.000199047
-0.00186704
-0.000204912
-0.00166353
-0.000209071
-0.00144923
-0.000219905
-0.00123044
-0.000223827
-0.00100948
-0.000225265
-0.000788317
-0.000225128
-0.000566256
-0.000225554
-0.00034315
-0.000226024
-0.000115529
-0.000229807
0.000118223
-0.000235709
0.000345337
-0.000228624
0.000560886
-0.000216252
0.000770707
-0.000209851
0.000973045
-0.000201861
0.00116916
-0.000194905
0.001357
-0.000186065
0.00153839
-0.000179201
0.00171661
-0.000175312
0.00189381
-0.000173519
0.00206426
-0.000166577
0.00222746
-0.000158926
0.00238381
-0.00015167
0.00253422
-0.000145215
0.00267869
-0.000138872
0.00281801
-0.000132962
0.00295142
-0.0001271