/*--------------------------------*- C++ -*----------------------------------*\
| =========                 |                                                 |
| \\      /  F ield         | OpenFOAM: The Open Source CFD Toolbox           |
|  \\    /   O peration     | Version:  2112                                  |
|   \\  /    A nd           | Website:  www.openfoam.com                      |
|    \\/     M anipulation  |                                                 |
\*---------------------------------------------------------------------------*/
FoamFile
{
    version     2.0;
    format      ascii;
    arch        "LSB;label=32;scalar=64";
    class       volScalarField;
    location    "8";
    object      T;
}
// * * * * * * * * * * * * * * * * * * * * * * * * * * * * * * * * * * * * * //

dimensions      [0 0 0 1 0 0 0];

internalField   nonuniform List<scalar> 
5250
(
1.00001
1.00002
1.00008
1.00015
1.00048
1.00088
1.00261
1.0054
1.01404
1.03676
1.08278
1.25197
1.62102
2.42967
2.71007
2.72839
2.72783
2.73246
2.74589
2.75844
2.77104
2.7786
2.78576
2.79124
2.7949
1.00001
1.00002
1.00008
1.00015
1.00047
1.00086
1.00256
1.00533
1.01378
1.03639
1.08166
1.24986
1.61142
2.4213
2.70719
2.72855
2.72786
2.73229
2.74553
2.75778
2.77013
2.77746
2.78424
2.78929
2.79244
1.00001
1.00002
1.00008
1.00014
1.00045
1.00084
1.00247
1.00519
1.01334
1.03543
1.07931
1.24479
1.59054
2.40188
2.69945
2.72769
2.72684
2.73065
2.74375
2.75584
2.76787
2.77494
2.78197
2.7862
2.7883
1.00001
1.00002
1.00007
1.00013
1.00043
1.0008
1.00235
1.00497
1.01267
1.03394
1.07564
1.23684
1.55891
2.36943
2.68638
2.72579
2.72451
2.72687
2.7402
2.75058
2.7638
2.77003
2.77646
2.78181
2.78396
1.00001
1.00002
1.00007
1.00013
1.00041
1.00076
1.00221
1.00469
1.01191
1.03197
1.07097
1.22324
1.51471
2.32112
2.66725
2.72354
2.72172
2.72204
2.73484
2.74549
2.75559
2.76416
2.76967
2.77263
2.774
1.00001
1.00002
1.00006
1.00012
1.00038
1.0007
1.00206
1.00435
1.01109
1.0296
1.06607
1.20589
1.47394
2.25702
2.64053
2.72001
2.71697
2.71543
2.72713
2.73782
2.74709
2.7515
2.76073
2.76405
2.76503
1.00001
1.00002
1.00006
1.00011
1.00035
1.00064
1.0019
1.00395
1.01019
1.0267
1.06028
1.18496
1.42469
2.1661
2.60506
2.71439
2.71065
2.7056
2.71746
2.72693
2.73903
2.74141
2.74341
2.74806
2.74622
1.00001
1.00002
1.00005
1.0001
1.00032
1.00058
1.00176
1.0035
1.00938
1.02313
1.05376
1.16084
1.36889
2.0422
2.55796
2.70516
2.70163
2.6925
2.70469
2.70901
2.71895
2.72705
2.72865
2.72685
2.72415
1.00001
1.00001
1.00005
1.00009
1.00028
1.00051
1.00159
1.00303
1.00844
1.01949
1.0469
1.13584
1.31019
1.9053
2.48749
2.68105
2.68065
2.67703
2.69238
2.6974
2.70149
2.7024
2.70225
2.69768
2.67686
1.00001
1.00001
1.00004
1.00008
1.00024
1.00044
1.00135
1.00261
1.00722
1.01654
1.0404
1.11473
1.2634
1.70583
2.48846
2.65873
2.64813
2.64618
2.66089
2.6729
2.6797
2.67835
2.66933
2.64865
2.60211
1
1.00001
1.00003
1.00008
1.00016
1.00047
1.00093
1.0025
1.00584
1.01403
1.0391
1.08521
1.26001
1.67052
2.4121
2.64369
2.64008
2.63777
2.63762
2.64785
2.64962
2.64674
2.62844
2.58079
2.42124
1
1.00001
1.00003
1.00006
1.00018
1.00034
1.00104
1.00199
1.00567
1.01241
1.03127
1.08611
1.19022
1.5787
2.36376
2.59098
2.62595
2.61999
2.61942
2.62334
2.6226
2.61156
2.58216
2.52301
2.36174
1
1.00001
1.00003
1.00005
1.00016
1.00029
1.00091
1.00169
1.00498
1.0104
1.02689
1.07213
1.16001
1.49311
2.24536
2.54238
2.62104
2.61201
2.5985
2.59667
2.59236
2.57937
2.54526
2.49184
2.36548
1
1.00001
1.00002
1.00004
1.00014
1.00025
1.00079
1.00143
1.00438
1.00861
1.02338
1.05796
1.13424
1.39438
2.05933
2.46776
2.60884
2.59918
2.58909
2.57138
2.56053
2.53972
2.50778
2.46571
2.37322
1
1.00001
1.00002
1.00004
1.00011
1.00021
1.00065
1.00118
1.00366
1.00694
1.01997
1.04391
1.11161
1.2918
1.84926
2.36791
2.57285
2.56559
2.56375
2.55543
2.53831
2.51736
2.47113
2.43954
2.37203
1
1
1.00002
1.00003
1.00009
1.00017
1.00053
1.00095
1.00296
1.00556
1.01611
1.03525
1.08771
1.23541
1.63844
2.30974
2.54681
2.54373
2.53535
2.5242
2.51304
2.49541
2.45426
2.40554
2.36236
1
1
1.00001
1.00002
1.00007
1.00013
1.0004
1.00074
1.00219
1.00444
1.0116
1.02934
1.06692
1.20124
1.46697
2.16898
2.49168
2.53204
2.51574
2.50601
2.48429
2.47135
2.44474
2.39266
2.34342
1
1
1.00001
1.00002
1.00006
1.0001
1.00032
1.00058
1.00181
1.00346
1.00953
1.02222
1.05291
1.15418
1.35247
1.96276
2.39745
2.5136
2.50506
2.49298
2.46892
2.43931
2.42053
2.38425
2.33405
1
1
1.00001
1.00001
1.00004
1.00008
1.00024
1.00044
1.00136
1.00259
1.00723
1.01616
1.03951
1.1105
1.24827
1.69698
2.24847
2.46488
2.47429
2.46999
2.45677
2.42732
2.39902
2.36668
2.32382
1
1
1
1.00001
1.00003
1.00008
1.00014
1.00044
1.00082
1.00247
1.00484
1.01324
1.03108
1.07412
1.20298
1.53007
2.14967
2.42279
2.44752
2.43752
2.42891
2.40972
2.38304
2.35614
2.31908
1
1
1
1.00001
1.00002
1.00006
1.00011
1.00033
1.00061
1.00183
1.00359
1.00966
1.02308
1.05435
1.1568
1.36721
1.91928
2.33113
2.42921
2.42493
2.40956
2.38788
2.36029
2.33152
2.30687
1
1
1
1.00001
1.00002
1.00003
1.0001
1.00019
1.00058
1.00109
1.00323
1.00648
1.0176
1.04073
1.10166
1.2595
1.76574
2.16151
2.3652
2.39768
2.39337
2.37912
2.35299
2.32089
2.28813
1
1
1
1.00001
1.00001
1.00003
1.00006
1.00017
1.00032
1.00095
1.00185
1.00505
1.0114
1.02775
1.07668
1.16474
1.4962
2.12684
2.30352
2.34393
2.34858
2.34718
2.3382
2.31617
2.28337
1
1
1
1
1.00001
1.00002
1.00005
1.00009
1.00028
1.00054
1.00151
1.00326
1.0081
1.02125
1.0476
1.13951
1.31094
1.86577
2.2433
2.33191
2.32899
2.31849
2.30614
2.29734
2.27643
1
1
1
1
1.00001
1.00001
1.00004
1.00007
1.00022
1.00039
1.00121
1.0022
1.00668
1.01307
1.03535
1.08304
1.20696
1.51663
2.09454
2.28845
2.3053
2.30181
2.28725
2.2706
2.25735
1
1
1
1
1
1.00001
1.00003
1.00005
1.00014
1.00026
1.0008
1.0015
1.00427
1.00911
1.02271
1.06085
1.13143
1.40182
1.95143
2.21311
2.28267
2.28086
2.27278
2.25566
2.23724
1
1
1
1
1
1.00001
1.00001
1.00004
1.00008
1.00023
1.00042
1.00127
1.00245
1.00668
1.01502
1.03636
1.09923
1.22058
1.61845
2.05855
2.24924
2.25756
2.25467
2.24241
2.22264
1
1
1
1
1
1.00001
1.00001
1.00003
1.00005
1.00016
1.00029
1.0009
1.00164
1.00484
1.00976
1.0253
1.06472
1.1419
1.41432
1.93768
2.18096
2.24089
2.23948
2.23057
2.21759
1
1
1
1
1
1
1.00001
1.00002
1.00004
1.00011
1.0002
1.00061
1.00111
1.00336
1.0064
1.01804
1.03939
1.09885
1.2494
1.70865
2.03661
2.19924
2.21913
2.22112
2.21511
1
1
1
1
1
1
1.00001
1.00001
1.00003
1.00005
1.00016
1.0003
1.00091
1.00171
1.00484
1.01017
1.02563
1.06659
1.14567
1.41751
1.93307
2.13159
2.18718
2.19457
2.20646
1
1
1
1
1
1
1
1.00001
1.00002
1.00004
1.00011
1.0002
1.00062
1.00113
1.00343
1.00646
1.01823
1.03956
1.09765
1.24918
1.67392
2.02952
2.16877
2.1843
2.19795
1
1
1
1
1
1
1
1
1.00001
1.00002
1.00007
1.00013
1.0004
1.00073
1.0022
1.00415
1.01185
1.02441
1.06467
1.1485
1.42644
1.83154
2.11105
2.18699
2.21372
1
1
1
1
1
1
1
1
1.00001
1.00002
1.00004
1.00011
1.0002
1.00059
1.0011
1.0032
1.00633
1.01709
1.03838
1.09439
1.23578
1.6536
1.97844
2.16996
2.25214
1
1
1
1
1
1
1
1
1.00001
1.00001
1.00003
1.00005
1.00016
1.0003
1.0009
1.00169
1.00479
1.01
1.02524
1.06499
1.14227
1.40494
1.91126
2.16175
2.31407
1
1
1
1
1
1
1
1
1
1.00001
1.00002
1.00004
1.00012
1.00021
1.00064
1.00117
1.00357
1.0067
1.01917
1.04061
1.1055
1.25477
1.7337
2.13798
2.42166
1
1
1
1
1
1
1
1
1
1
1.00001
1.00003
1.00008
1.00015
1.00047
1.00087
1.00263
1.00512
1.01399
1.03278
1.07802
1.21716
1.56293
2.18788
2.5343
1
1
1
1
1
1
1
1
1
1.00001
1.00001
1.00003
1.00005
1.00016
1.0003
1.00092
1.00176
1.00496
1.01103
1.02751
1.07692
1.16956
1.52855
2.27654
2.6601
1
1
1
1
1
1
1
1
1
1
1.00001
1.00002
1.00005
1.00014
1.00026
1.00081
1.00157
1.00434
1.01011
1.02451
1.07163
1.15361
1.51181
2.25545
2.75283
1
1
1
1
1
1
1
1
1
1
1.00001
1.00002
1.00005
1.0001
1.00029
1.00059
1.00158
1.00379
1.00905
1.02603
1.05669
1.18448
1.42867
2.1455
2.78338
1
1
1
1
1
1
1
1
1
1
1.00001
1.00002
1.00005
1.00009
1.0003
1.00056
1.00168
1.0035
1.00913
1.02409
1.05528
1.17259
1.40529
2.09284
2.76721
1
1
1
1
1
1
1
1
1
1
1.00001
1.00002
1.00005
1.00009
1.00027
1.00052
1.00145
1.00334
1.00814
1.0231
1.05101
1.16363
1.38047
2.05168
2.74365
1
1
1
1
1
1
1
1
1
1
1.00001
1.00002
1.00004
1.00012
1.00022
1.00069
1.00131
1.00384
1.0083
1.02104
1.0581
1.12975
1.40271
2.08029
2.70907
1
1
1
1
1
1
1
1
1
1
1.00001
1.00002
1.00004
1.00012
1.00022
1.00069
1.00126
1.00396
1.0077
1.02179
1.05168
1.12667
1.36483
2.03996
2.67345
1
1
1
1
1
1
1
1
1
1
1.00001
1.00002
1.00004
1.00011
1.00021
1.00066
1.00122
1.00373
1.00743
1.02041
1.04995
1.1198
1.34419
1.99814
2.61735
1
1
1
1
1
1
1
1
1
1
1.00001
1.00001
1.00004
1.00008
1.00025
1.00047
1.00138
1.00285
1.00742
1.01885
1.04356
1.1298
1.29705
1.81143
2.61709
1
1
1
1
1
1
1
1
1
1
1.00001
1.00001
1.00004
1.00008
1.00026
1.00046
1.00146
1.00274
1.00792
1.01742
1.0437
1.12232
1.28703
1.76911
2.62374
1
1
1
1
1
1
1
1
1
1
1.00001
1.00001
1.00004
1.00008
1.00024
1.00045
1.00136
1.00268
1.00724
1.01741
1.04152
1.12118
1.27724
1.75943
2.62053
1
1
1
1
1
1
1
1
1
1
1.00001
1.00002
1.00003
1.0001
1.00018
1.00056
1.00109
1.00302
1.00685
1.01695
1.04687
1.10505
1.31175
1.87436
2.55424
1
1
1
1
1
1
1
1
1
1
1.00001
1.00001
1.00004
1.00008
1.00024
1.00044
1.00135
1.00264
1.00722
1.01695
1.04101
1.11825
1.27131
1.74544
2.60906
1
1
1
1
1
1
1
1
1
1
1.00001
1.00001
1.00004
1.00008
1.00025
1.00044
1.00141
1.00261
1.00768
1.01644
1.04208
1.11475
1.26999
1.739
2.61583
2.44177
2.75954
2.91021
3.11572
3.12096
3.07228
3.0585
3.04537
3.03032
3.00925
2.99212
2.97385
2.95795
2.93791
2.92289
2.9094
2.90551
2.90533
2.91032
2.92267
2.93989
2.96107
2.98146
3.00076
3.0185
3.03191
3.0457
3.05604
3.06399
3.07223
3.0777
3.08143
3.08448
3.08522
3.08522
3.08353
3.07859
3.074
3.06889
3.06583
3.0601
3.0556
3.04658
3.04064
3.03187
3.0245
3.01534
3.00759
2.99742
2.98822
2.97904
2.96998
2.96048
2.95094
2.94099
2.93041
2.9209
2.90979
2.90052
2.889
2.88015
2.86858
2.85928
2.84802
2.83838
2.8269
2.81736
2.80551
2.79595
2.78398
2.77435
2.76216
2.75276
2.74012
2.73111
2.71806
2.70921
2.69611
2.687
2.67423
2.66471
2.65229
2.64254
2.63027
2.62055
2.60831
2.59875
2.58657
2.5772
2.56519
2.55597
2.54431
2.53528
2.52416
2.51552
2.50523
2.49752
2.48888
2.48368
2.47812
2.33532
2.51272
2.68559
2.96082
3.10208
3.20332
3.25638
3.25166
3.25427
3.25295
3.2499
3.24894
3.24809
3.24224
3.23101
3.22591
3.22537
3.23099
3.23375
3.24339
3.24892
3.25732
3.25982
3.26077
3.26027
3.25347
3.24381
3.23292
3.21891
3.20161
3.19214
3.17904
3.16873
3.15374
3.13755
3.1225
3.10672
3.0893
3.07406
3.05702
3.04061
3.02286
3.00696
2.98905
2.97283
2.95461
2.939
2.92137
2.90588
2.88835
2.87392
2.85728
2.84382
2.82764
2.81507
2.79914
2.78673
2.77156
2.7592
2.74495
2.73318
2.71939
2.70831
2.69482
2.684
2.67094
2.66014
2.64744
2.63686
2.62439
2.61425
2.60185
2.59209
2.57989
2.57025
2.55863
2.54878
2.53794
2.5277
2.51761
2.50712
2.4977
2.48724
2.47836
2.46797
2.4594
2.44896
2.44064
2.43015
2.42215
2.41173
2.4042
2.39395
2.38701
2.37726
2.3713
2.3628
2.35864
2.353
2.35219
2.30151
2.33569
2.44251
2.55765
2.72192
2.88027
3.07135
3.17511
3.25142
3.29396
3.31793
3.35553
3.37731
3.38161
3.38241
3.37798
3.3833
3.38753
3.39289
3.3993
3.40047
3.39507
3.37557
3.35216
3.32994
3.30438
3.27775
3.24805
3.22084
3.19118
3.16551
3.13571
3.10821
3.07839
3.0505
3.02139
2.99505
2.96778
2.94335
2.91781
2.89489
2.87154
2.8504
2.82895
2.8096
2.7904
2.77279
2.75581
2.73901
2.72279
2.70668
2.69212
2.67686
2.66366
2.64913
2.63677
2.62297
2.61112
2.59801
2.58664
2.57398
2.56311
2.55066
2.54014
2.52786
2.51758
2.50551
2.49526
2.48345
2.47317
2.46162
2.45142
2.43992
2.42998
2.41838
2.40882
2.39707
2.38779
2.37597
2.36687
2.35528
2.3463
2.33507
2.32605
2.31518
2.30614
2.29564
2.28677
2.27665
2.26789
2.25811
2.24956
2.24023
2.23208
2.2234
2.21594
2.20839
2.20228
2.19722
2.19408
2.30465
2.27071
2.30482
2.34938
2.43253
2.53235
2.65396
2.81457
2.95923
3.10588
3.19326
3.26072
3.31756
3.36121
3.38527
3.39698
3.40023
3.40032
3.39383
3.38322
3.36114
3.336
3.30065
3.2606
3.21804
3.17442
3.12979
3.08711
3.0436
3.00453
2.96473
2.92808
2.89165
2.85908
2.82708
2.79814
2.77035
2.74431
2.72062
2.69698
2.67675
2.65573
2.63835
2.61948
2.60448
2.58776
2.57479
2.56037
2.54848
2.53502
2.52351
2.51159
2.50108
2.49008
2.48021
2.47007
2.4608
2.45145
2.44262
2.43388
2.42537
2.41702
2.40885
2.40072
2.393
2.38486
2.37757
2.36924
2.36222
2.35366
2.34669
2.33797
2.33088
2.32214
2.31489
2.30622
2.29887
2.29028
2.28291
2.27433
2.26698
2.25833
2.251
2.24227
2.23492
2.22606
2.21866
2.20976
2.20238
2.19368
2.18642
2.17802
2.17091
2.16297
2.15611
2.14892
2.14272
2.13692
2.13256
2.12976
2.30306
2.26524
2.24221
2.25778
2.28534
2.33705
2.39781
2.48022
2.57815
2.68692
2.81931
2.9508
3.06353
3.16613
3.23414
3.27815
3.29662
3.29914
3.28282
3.24817
3.20064
3.14004
3.07942
3.02055
2.96297
2.91266
2.86563
2.82209
2.78141
2.74394
2.71068
2.6792
2.65131
2.62463
2.60197
2.58033
2.56229
2.54536
2.53156
2.51842
2.50779
2.49727
2.48813
2.47923
2.47104
2.46285
2.45549
2.44838
2.44137
2.43338
2.42554
2.41761
2.41044
2.40299
2.39607
2.38874
2.38178
2.37447
2.36743
2.36006
2.35294
2.34537
2.33824
2.33038
2.32336
2.31523
2.30835
2.30001
2.2932
2.28475
2.27785
2.26941
2.26225
2.25392
2.24645
2.23829
2.23056
2.22257
2.21468
2.20681
2.19878
2.19089
2.18267
2.17471
2.16629
2.15836
2.14984
2.14198
2.13337
2.12567
2.1171
2.10965
2.1013
2.09418
2.08632
2.07967
2.07277
2.06708
2.06227
2.05923
2.30289
2.25423
2.23313
2.21369
2.22156
2.23924
2.26865
2.30558
2.35531
2.41517
2.48721
2.57201
2.6625
2.75249
2.84076
2.90965
2.95618
2.96245
2.94246
2.89801
2.84287
2.77804
2.72059
2.66591
2.6241
2.59039
2.5613
2.53617
2.51439
2.496
2.48028
2.46743
2.45671
2.44784
2.44066
2.43463
2.42974
2.42515
2.42141
2.41761
2.41432
2.41086
2.40764
2.40404
2.40028
2.39639
2.3927
2.38894
2.38498
2.38016
2.37514
2.36968
2.36466
2.35903
2.35382
2.34779
2.34221
2.33571
2.32985
2.32291
2.31688
2.30951
2.30336
2.2956
2.28936
2.28134
2.27501
2.26689
2.2604
2.25227
2.24555
2.23746
2.23048
2.22246
2.21527
2.20732
2.19999
2.19207
2.18462
2.1766
2.16911
2.16101
2.15353
2.14535
2.13785
2.12958
2.12209
2.11376
2.10629
2.09794
2.09053
2.08224
2.07497
2.06687
2.05992
2.05224
2.04601
2.03927
2.03475
2.03069
2.29658
2.25058
2.21617
2.19987
2.18432
2.18829
2.19965
2.21635
2.24008
2.27188
2.31016
2.3586
2.41366
2.47243
2.53014
2.5768
2.60828
2.60962
2.59173
2.55474
2.50739
2.4628
2.42611
2.39936
2.38121
2.3734
2.36898
2.36676
2.36544
2.36494
2.36458
2.36473
2.36522
2.36582
2.3667
2.36771
2.3684
2.36868
2.36852
2.36802
2.36712
2.36573
2.36383
2.36149
2.35849
2.35525
2.35157
2.34812
2.34404
2.33954
2.33405
2.3285
2.32248
2.31659
2.31024
2.30402
2.2974
2.29079
2.28397
2.27692
2.27005
2.26264
2.25583
2.24815
2.2414
2.23354
2.22683
2.21894
2.21221
2.20442
2.19757
2.18992
2.1829
2.17541
2.1682
2.16085
2.1535
2.14618
2.13872
2.13149
2.124
2.11682
2.1093
2.10211
2.09457
2.08737
2.07984
2.07266
2.06518
2.05805
2.05067
2.04367
2.03648
2.02967
2.02283
2.01635
2.01017
2.00449
1.99988
1.99677
2.29059
2.2477
2.21205
2.18575
2.17131
2.15823
2.15913
2.16543
2.17602
2.19271
2.21708
2.24731
2.28532
2.32452
2.36429
2.39672
2.41748
2.41509
2.39929
2.37193
2.3383
2.30867
2.2882
2.27292
2.2663
2.26773
2.27468
2.28315
2.29135
2.29705
2.30268
2.30566
2.30909
2.31051
2.31281
2.31375
2.31446
2.3143
2.31372
2.31261
2.31079
2.30876
2.30618
2.30341
2.29998
2.29643
2.29245
2.28887
2.28476
2.28051
2.27533
2.27005
2.26434
2.25868
2.25272
2.24669
2.24052
2.23411
2.22781
2.2211
2.21472
2.20773
2.20121
2.19399
2.18729
2.17996
2.1731
2.16578
2.15878
2.15155
2.1444
2.1373
2.13
2.12296
2.11551
2.10854
2.10099
2.09414
2.08662
2.07984
2.07236
2.06563
2.05822
2.0515
2.04417
2.03743
2.03021
2.02344
2.01639
2.00963
2.0028
1.99615
1.9896
1.98314
1.97692
1.9708
1.96511
1.95976
1.95535
1.95251
2.27835
2.24039
2.20559
2.17778
2.15796
2.1455
2.13616
2.13611
2.14154
2.15364
2.17046
2.19673
2.22487
2.25709
2.29233
2.31686
2.32742
2.3233
2.30713
2.28262
2.24992
2.22492
2.20593
2.19618
2.18872
2.18891
2.19423
2.20383
2.21433
2.22448
2.23172
2.23755
2.24183
2.2449
2.24785
2.24945
2.25144
2.25209
2.25299
2.25286
2.25251
2.25165
2.25081
2.24912
2.24764
2.24513
2.24299
2.24027
2.23805
2.23472
2.2313
2.22671
2.22241
2.21734
2.2127
2.20724
2.20231
2.19643
2.19124
2.18494
2.17952
2.17284
2.16713
2.16017
2.15419
2.14709
2.14085
2.13372
2.12723
2.12008
2.11332
2.10614
2.09912
2.09191
2.08479
2.07764
2.07049
2.06341
2.05628
2.04929
2.0422
2.03529
2.02824
2.0214
2.01439
2.00759
2.00063
1.99385
1.98693
1.98015
1.9733
1.96652
1.95979
1.95306
1.94657
1.94002
1.93408
1.92814
1.92356
1.91998
2.27597
2.23494
2.20073
2.17012
2.14808
2.13192
2.12281
2.11784
2.1218
2.1347
2.15426
2.17667
2.20558
2.24133
2.27517
2.29038
2.29418
2.28623
2.26724
2.23675
2.20634
2.17915
2.16091
2.1499
2.14373
2.14122
2.14183
2.14845
2.1573
2.16853
2.18018
2.19017
2.19783
2.20431
2.20871
2.21225
2.2146
2.21655
2.21808
2.2191
2.21994
2.22007
2.21963
2.21898
2.2175
2.21608
2.21375
2.21195
2.20952
2.20721
2.20382
2.20012
2.19574
2.19124
2.18646
2.1814
2.17644
2.17096
2.16583
2.1599
2.15445
2.14803
2.14221
2.13547
2.12939
2.12252
2.11627
2.10939
2.10298
2.09609
2.08947
2.08254
2.07578
2.0689
2.06206
2.05523
2.04835
2.04157
2.03471
2.02801
2.02122
2.0146
2.00787
2.00133
1.99465
1.98818
1.98156
1.97517
1.96864
1.96232
1.95594
1.94967
1.9435
1.93734
1.9314
1.92538
1.91989
1.9144
1.9101
1.90685
2.27261
2.23352
2.19958
2.16821
2.14366
2.12417
2.11403
2.10914
2.11489
2.1309
2.15032
2.17655
2.2111
2.24837
2.27603
2.28225
2.28008
2.26663
2.24274
2.21114
2.18051
2.15567
2.13596
2.12254
2.11397
2.10865
2.10575
2.10582
2.11036
2.11691
2.12741
2.13814
2.14879
2.15662
2.16299
2.16725
2.17046
2.17279
2.17458
2.17601
2.17703
2.17766
2.17771
2.17735
2.17645
2.17498
2.17318
2.17113
2.16912
2.16686
2.16416
2.16083
2.15713
2.15301
2.14876
2.14403
2.13949
2.13431
2.12955
2.12396
2.11888
2.1129
2.10739
2.10114
2.09521
2.08882
2.08255
2.07609
2.06953
2.06296
2.0562
2.04963
2.04273
2.03616
2.0292
2.02266
2.01569
2.00921
2.00227
1.99585
1.98893
1.98257
1.97567
1.96936
1.9625
1.95623
1.94944
1.94319
1.93652
1.93032
1.92381
1.91771
1.91141
1.90547
1.89954
1.89395
1.88858
1.88369
1.87956
1.87692
2.26082
2.22928
2.19831
2.16854
2.14389
2.12426
2.11281
2.11114
2.12164
2.13763
2.16114
2.19252
2.23788
2.27222
2.28331
2.28515
2.27739
2.2587
2.22825
2.19651
2.16843
2.14428
2.12392
2.10715
2.09425
2.08524
2.07945
2.07638
2.07584
2.078
2.08362
2.09215
2.10326
2.11371
2.12289
2.13035
2.13641
2.14121
2.14469
2.14758
2.14932
2.15096
2.1516
2.15226
2.15213
2.1516
2.15069
2.14932
2.14807
2.14653
2.14474
2.14211
2.13913
2.13543
2.13172
2.12723
2.12303
2.118
2.11351
2.10807
2.10329
2.09748
2.09234
2.08622
2.08067
2.07433
2.06839
2.06188
2.05559
2.04905
2.04257
2.036
2.02936
2.02279
2.01607
2.00955
2.00282
1.99637
1.98968
1.9833
1.97664
1.97029
1.96366
1.95732
1.95075
1.94441
1.93792
1.9316
1.9252
1.9189
1.91259
1.90636
1.90019
1.89411
1.88823
1.88248
1.87719
1.87213
1.8682
1.86526
2.25318
2.22104
2.1932
2.16733
2.14603
2.12924
2.12263
2.12627
2.14034
2.15867
2.18879
2.23084
2.26842
2.28918
2.29041
2.28665
2.27178
2.24832
2.21806
2.18949
2.16317
2.13983
2.11898
2.10063
2.08514
2.0729
2.06381
2.05797
2.05479
2.05364
2.0541
2.05776
2.06395
2.07371
2.08432
2.09441
2.10296
2.10966
2.11475
2.11831
2.12095
2.12242
2.12358
2.12385
2.12401
2.12371
2.12282
2.12182
2.12042
2.11904
2.11735
2.11503
2.11221
2.10866
2.10505
2.10071
2.09657
2.09167
2.08712
2.08179
2.07687
2.0712
2.06593
2.06
2.05437
2.04823
2.04221
2.03588
2.02961
2.02321
2.01674
2.01032
2.00373
1.99734
1.99072
1.98442
1.97782
1.97162
1.96506
1.95894
1.9524
1.94632
1.93979
1.93372
1.92722
1.92119
1.91478
1.90883
1.90255
1.89671
1.89061
1.88494
1.87906
1.8736
1.8681
1.86301
1.85819
1.85389
1.85044
1.84806
2.24918
2.21975
2.19165
2.1679
2.14984
2.13978
2.14017
2.15309
2.16835
2.19475
2.23404
2.27197
2.29498
2.30002
2.29777
2.2868
2.26615
2.23926
2.21294
2.18764
2.16385
2.1416
2.12084
2.10193
2.08497
2.07026
2.05777
2.04785
2.04111
2.03599
2.03383
2.0324
2.03395
2.0387
2.0466
2.05643
2.06629
2.07527
2.08242
2.08829
2.09206
2.09501
2.0965
2.09789
2.09816
2.09866
2.09822
2.09751
2.09639
2.09522
2.094
2.09221
2.09007
2.08703
2.0839
2.08002
2.07626
2.0718
2.06754
2.06266
2.05797
2.05273
2.04759
2.04197
2.03637
2.03038
2.0244
2.01826
2.01209
2.00588
1.99952
1.99327
1.98674
1.98051
1.97387
1.96773
1.96108
1.95507
1.9485
1.94257
1.93608
1.93017
1.92374
1.91782
1.91144
1.90552
1.89918
1.89331
1.88707
1.88131
1.87527
1.86971
1.86402
1.85878
1.85361
1.8489
1.84462
1.84074
1.83784
1.83574
2.24048
2.21699
2.19442
2.17228
2.15939
2.15675
2.16734
2.18088
2.20659
2.24424
2.28302
2.30674
2.31337
2.3116
2.30239
2.28494
2.26077
2.23639
2.21308
2.19066
2.16916
2.14832
2.12799
2.10854
2.09028
2.07339
2.0583
2.04482
2.03347
2.02422
2.01876
2.01459
2.01359
2.01262
2.01534
2.02114
2.02978
2.03908
2.04839
2.05607
2.06253
2.06683
2.07029
2.07203
2.07343
2.07394
2.07402
2.07357
2.07283
2.07175
2.0708
2.06937
2.06769
2.06501
2.06216
2.05855
2.05498
2.05066
2.0465
2.0417
2.03708
2.03193
2.02687
2.02144
2.01592
2.01025
2.00442
1.99861
1.9925
1.98657
1.98025
1.97422
1.96775
1.96167
1.95514
1.94909
1.9426
1.93666
1.93022
1.92442
1.91803
1.91232
1.90596
1.9003
1.894
1.88838
1.88219
1.87662
1.87065
1.86515
1.85948
1.85416
1.84891
1.84397
1.83935
1.83513
1.83142
1.82811
1.82601
1.82438
2.22304
2.21069
2.19461
2.18408
2.17876
2.1869
2.19956
2.22218
2.25655
2.29359
2.31638
2.32387
2.32238
2.31426
2.2997
2.27817
2.25743
2.23559
2.21574
2.19479
2.17482
2.15364
2.13369
2.11341
2.09483
2.07624
2.05986
2.04411
2.03095
2.01897
2.00958
2.00147
1.99711
1.99403
1.99299
1.99325
1.997
2.0041
2.01254
2.02188
2.02978
2.03702
2.04207
2.04606
2.04847
2.04989
2.0509
2.05085
2.05043
2.04958
2.04878
2.04763
2.04639
2.04427
2.04186
2.03866
2.03541
2.03149
2.02757
2.02313
2.0187
2.01387
2.00897
2.00376
1.99838
1.9929
1.98714
1.98147
1.97537
1.96958
1.96323
1.95738
1.95087
1.94498
1.93841
1.93248
1.926
1.92008
1.91379
1.90793
1.90184
1.89609
1.89013
1.88451
1.87861
1.87309
1.86722
1.86182
1.85603
1.85082
1.84525
1.84036
1.83527
1.83092
1.82673
1.82314
1.82008
1.81768
1.81674
1.81572
2.20787
2.19847
2.19517
2.19596
2.2068
2.21979
2.24272
2.27666
2.31049
2.33055
2.33643
2.33448
2.32615
2.31049
2.29211
2.27215
2.25439
2.23524
2.21739
2.1979
2.17877
2.15893
2.13928
2.11985
2.10064
2.08243
2.06467
2.04828
2.03256
2.01834
2.00587
1.99522
1.98721
1.98089
1.97774
1.97538
1.97487
1.97589
1.98092
1.98782
1.99641
2.00431
2.01213
2.01767
2.02251
2.02538
2.02722
2.02844
2.0284
2.02795
2.02718
2.02631
2.02546
2.02396
2.02209
2.01935
2.01647
2.01293
2.00922
2.00509
2.00068
1.99613
1.99114
1.98618
1.98075
1.97546
1.96976
1.96418
1.95833
1.95255
1.94661
1.94072
1.93465
1.92876
1.9226
1.91678
1.91058
1.9049
1.89872
1.89321
1.88708
1.8817
1.87565
1.87037
1.86441
1.85921
1.85336
1.84828
1.84265
1.83774
1.83259
1.82799
1.82367
1.81973
1.81646
1.81346
1.81158
1.81052
1.811
1.81007
2.2001
2.19435
2.2
2.2149
2.23618
2.26284
2.29937
2.33402
2.35362
2.35729
2.35436
2.34445
2.32685
2.30715
2.28939
2.27259
2.25607
2.23932
2.22128
2.20316
2.1838
2.16493
2.14516
2.12623
2.10697
2.08873
2.07031
2.05313
2.03608
2.02095
2.00625
1.99392
1.98215
1.97323
1.96563
1.96085
1.95695
1.95505
1.95416
1.95605
1.96092
1.96889
1.97652
1.98478
1.99103
1.99672
1.99991
2.00252
2.00359
2.00388
2.00347
2.00264
2.00199
2.00083
1.99945
1.99712
1.99463
1.99139
1.98815
1.98415
1.98029
1.97572
1.97124
1.96624
1.96129
1.9561
1.95072
1.94545
1.93974
1.93445
1.92851
1.92316
1.91709
1.91165
1.90554
1.90004
1.894
1.88851
1.88263
1.8772
1.8715
1.86619
1.86064
1.8555
1.85009
1.8451
1.83991
1.83503
1.83019
1.82559
1.82121
1.81731
1.81368
1.81084
1.80811
1.80677
1.80622
1.80698
1.80865
1.80789
2.20189
2.20473
2.21541
2.23689
2.26849
2.3113
2.34695
2.36561
2.37041
2.36755
2.35789
2.33864
2.3203
2.30304
2.28774
2.27346
2.25835
2.24317
2.22616
2.2091
2.19044
2.17206
2.15283
2.13418
2.11512
2.0966
2.07771
2.05985
2.04178
2.02536
2.00855
1.99406
1.97945
1.96756
1.95623
1.94809
1.94115
1.93669
1.93269
1.93144
1.93093
1.93373
1.93986
1.947
1.95556
1.9623
1.96887
1.97282
1.97639
1.97751
1.97876
1.97816
1.97741
1.97661
1.97549
1.97378
1.97151
1.96877
1.96563
1.96214
1.95822
1.95406
1.9495
1.94489
1.93995
1.93505
1.92989
1.92484
1.91951
1.91436
1.90885
1.90364
1.89795
1.89267
1.88688
1.88155
1.87579
1.87045
1.86487
1.85958
1.85423
1.84905
1.84397
1.83892
1.83417
1.82929
1.82489
1.82028
1.81633
1.8122
1.80898
1.80574
1.80345
1.8014
1.80055
1.80083
1.80251
1.80428
1.80806
1.80879
2.21115
2.22829
2.25083
2.28181
2.32568
2.36051
2.37837
2.38161
2.37752
2.36509
2.34506
2.32595
2.31
2.29643
2.28355
2.27115
2.25715
2.24274
2.22656
2.21001
2.19214
2.17417
2.15565
2.13691
2.11817
2.09915
2.08059
2.06195
2.04399
2.02618
2.00902
1.99258
1.97689
1.96251
1.94935
1.93799
1.92821
1.92079
1.91458
1.91039
1.90676
1.90644
1.90698
1.91109
1.91787
1.92593
1.93354
1.94082
1.94584
1.95024
1.95201
1.95348
1.95307
1.95217
1.95152
1.95013
1.94856
1.94616
1.94333
1.94027
1.93657
1.93295
1.92855
1.9245
1.91967
1.91525
1.9102
1.90547
1.90036
1.89536
1.89021
1.885
1.87976
1.87441
1.86907
1.86368
1.85829
1.85296
1.84761
1.84245
1.83728
1.83236
1.82744
1.82284
1.81824
1.81401
1.80991
1.80607
1.80276
1.79959
1.7973
1.79523
1.79392
1.79371
1.7946
1.79641
1.79926
1.80346
1.81098
1.8149
2.2211
2.25571
2.29582
2.34718
2.381
2.39558
2.39559
2.3889
2.37267
2.35055
2.33036
2.31366
2.29937
2.28762
2.27568
2.264
2.2509
2.23706
2.2218
2.20574
2.18901
2.17156
2.15419
2.13607
2.11834
2.09994
2.08209
2.06353
2.04556
2.02708
2.00971
1.99196
1.97561
1.95955
1.94515
1.93158
1.91984
1.90943
1.90127
1.89438
1.88904
1.88493
1.88317
1.88317
1.88484
1.89007
1.89681
1.90497
1.91198
1.91857
1.92294
1.92618
1.92758
1.92773
1.92724
1.92636
1.9255
1.92371
1.92169
1.9188
1.9159
1.91247
1.90881
1.90485
1.90048
1.8961
1.89125
1.88658
1.88147
1.87661
1.87143
1.8664
1.86124
1.85608
1.85099
1.84576
1.84078
1.83556
1.83072
1.82564
1.82095
1.81618
1.81165
1.80732
1.80304
1.79929
1.79547
1.79253
1.78957
1.7878
1.78603
1.78548
1.78567
1.78746
1.78939
1.79326
1.79877
1.80724
1.81839
1.82459
2.25049
2.3066
2.35885
2.39926
2.41364
2.41481
2.40524
2.38458
2.36
2.33951
2.32222
2.30831
2.29581
2.28446
2.27293
2.26073
2.24804
2.23391
2.21951
2.20357
2.18788
2.17081
2.15418
2.13648
2.11911
2.10084
2.0827
2.06405
2.04559
2.02698
2.00877
1.99093
1.97402
1.95748
1.94241
1.9274
1.91448
1.9017
1.89126
1.88149
1.87417
1.86709
1.86238
1.85839
1.85804
1.85817
1.86137
1.86722
1.87508
1.88267
1.89037
1.89558
1.9003
1.90209
1.90354
1.90305
1.90264
1.90178
1.90063
1.89835
1.89583
1.89264
1.88938
1.88548
1.88156
1.87718
1.87279
1.86813
1.8634
1.85851
1.85354
1.84847
1.8434
1.83829
1.83322
1.82819
1.82321
1.8183
1.81356
1.80879
1.8044
1.79986
1.7959
1.79172
1.78832
1.78472
1.78211
1.77957
1.77821
1.77697
1.77711
1.77789
1.77996
1.78314
1.78748
1.79492
1.80492
1.81652
1.8296
1.83595
2.31693
2.37175
2.41031
2.41934
2.4185
2.40889
2.38718
2.36538
2.34404
2.32741
2.31325
2.30087
2.28957
2.27854
2.26756
2.2556
2.24299
2.2292
2.21494
2.19961
2.18411
2.16773
2.15127
2.13407
2.11667
2.09872
2.08068
2.06245
2.04418
2.02619
2.00813
1.99085
1.97345
1.95727
1.9408
1.92586
1.9108
1.89753
1.88399
1.87274
1.8618
1.85351
1.84588
1.84006
1.83566
1.83429
1.83454
1.83606
1.84075
1.84771
1.8557
1.86327
1.8703
1.87518
1.87889
1.8804
1.881
1.88058
1.88001
1.87887
1.87692
1.87411
1.871
1.86756
1.86377
1.85988
1.85544
1.85114
1.84621
1.84155
1.83632
1.83142
1.82613
1.82117
1.81604
1.81118
1.80633
1.8017
1.79716
1.79286
1.78871
1.78479
1.78114
1.77775
1.77475
1.77217
1.77024
1.76889
1.76829
1.76849
1.76977
1.77216
1.77566
1.78147
1.79022
1.80182
1.81461
1.82713
1.83964
1.84492
2.40049
2.44321
2.44765
2.44107
2.42248
2.39334
2.36828
2.34803
2.33153
2.31832
2.30671
2.2955
2.28433
2.27301
2.26098
2.24928
2.23651
2.22407
2.21031
2.19634
2.18144
2.16612
2.15007
2.13359
2.11636
2.09893
2.08094
2.06303
2.04479
2.02684
2.00884
1.99112
1.97374
1.95647
1.9398
1.92342
1.90756
1.89246
1.87823
1.86547
1.85343
1.84358
1.83448
1.8275
1.82087
1.81635
1.81387
1.81403
1.81468
1.81753
1.82339
1.83109
1.83932
1.84699
1.85306
1.85779
1.85998
1.8614
1.86081
1.86022
1.85914
1.8569
1.85422
1.85058
1.84717
1.84298
1.83902
1.83455
1.83013
1.82556
1.82077
1.81615
1.81113
1.8065
1.80148
1.79695
1.79213
1.78784
1.78337
1.77941
1.77545
1.772
1.76871
1.76612
1.76376
1.76256
1.76164
1.7618
1.76233
1.76441
1.76701
1.77161
1.77881
1.78877
1.80081
1.8137
1.82703
1.83816
1.8482
1.85171
2.50826
2.50477
2.4812
2.45152
2.41133
2.37911
2.35445
2.33511
2.321
2.30929
2.29881
2.28821
2.27745
2.26684
2.25502
2.24328
2.23017
2.21695
2.203
2.18876
2.17414
2.15891
2.14326
2.1269
2.11022
2.09314
2.07583
2.05835
2.0408
2.02317
2.00561
1.98804
1.97083
1.95364
1.9372
1.9208
1.9055
1.89027
1.87638
1.86263
1.85044
1.8387
1.82858
1.81979
1.81258
1.80601
1.80095
1.79762
1.79768
1.79818
1.80013
1.8046
1.81152
1.81974
1.82799
1.83504
1.84031
1.84355
1.84514
1.84494
1.84406
1.84275
1.84077
1.83758
1.83419
1.83
1.82619
1.82156
1.8175
1.81263
1.80837
1.80343
1.79901
1.79414
1.78964
1.78495
1.78054
1.77614
1.77204
1.76815
1.76453
1.7615
1.75866
1.75695
1.75556
1.7555
1.75594
1.75723
1.75913
1.76324
1.76918
1.77779
1.7894
1.80168
1.81534
1.82758
1.83896
1.84704
1.85369
1.85519
2.6095
2.55607
2.51629
2.46317
2.41941
2.38545
2.36005
2.34081
2.32605
2.31296
2.30087
2.28906
2.27652
2.26423
2.25157
2.23907
2.22599
2.21252
2.19867
2.18425
2.16966
2.1546
2.13936
2.12365
2.10761
2.09122
2.07448
2.05757
2.04037
2.02322
2.00597
1.98892
1.972
1.95545
1.93924
1.92343
1.90824
1.89329
1.8793
1.86548
1.8529
1.84061
1.82975
1.81968
1.81058
1.80345
1.79607
1.79142
1.7867
1.78671
1.78752
1.78961
1.79358
1.79945
1.8074
1.81582
1.8232
1.82943
1.83327
1.83523
1.83527
1.83419
1.83241
1.83029
1.82712
1.82322
1.81897
1.81457
1.81003
1.80541
1.80065
1.79594
1.79113
1.78636
1.78173
1.77692
1.77267
1.76799
1.7642
1.76008
1.75692
1.75393
1.75194
1.75071
1.75076
1.75128
1.75251
1.75512
1.76044
1.76807
1.77894
1.79072
1.80426
1.81709
1.82953
1.83929
1.8473
1.85185
1.85569
1.85566
2.70375
2.62982
2.56161
2.50025
2.4566
2.42626
2.40257
2.38209
2.3628
2.34445
2.32705
2.30967
2.2924
2.27659
2.26122
2.24653
2.23184
2.217
2.20218
2.18701
2.1719
2.15644
2.14101
2.12545
2.10976
2.09379