/*--------------------------------*- C++ -*----------------------------------*\
| =========                 |                                                 |
| \\      /  F ield         | OpenFOAM: The Open Source CFD Toolbox           |
|  \\    /   O peration     | Version:  2112                                  |
|   \\  /    A nd           | Website:  www.openfoam.com                      |
|    \\/     M anipulation  |                                                 |
\*---------------------------------------------------------------------------*/
FoamFile
{
    version     2.0;
    format      ascii;
    arch        "LSB;label=32;scalar=64";
    class       volVectorField;
    location    "8";
    object      U;
}
// * * * * * * * * * * * * * * * * * * * * * * * * * * * * * * * * * * * * * //

dimensions      [0 1 -1 0 0 0 0];

internalField   nonuniform List<vector> 
5250
(
(2.99999 1.62005e-08 0)
(2.99998 1.26313e-07 0)
(2.99995 3.88963e-07 0)
(2.99988 1.17598e-06 0)
(2.99968 2.81549e-06 0)
(2.9993 7.31105e-06 0)
(2.99809 1.75579e-05 0)
(2.99603 4.0192e-05 0)
(2.98811 0.000101311 0)
(2.97524 0.000217357 0)
(2.92427 0.000547046 0)
(2.80229 0.00128891 0)
(2.46229 0.00375712 0)
(1.43022 0.00980075 0)
(0.659988 0.0226952 0)
(0.554543 0.0237588 0)
(0.571459 0.024652 0)
(0.557856 0.0260091 0)
(0.501996 0.0275059 0)
(0.414993 0.0292896 0)
(0.334587 0.0316606 0)
(0.266842 0.0344823 0)
(0.197705 0.0375672 0)
(0.118915 0.041274 0)
(0.0519215 0.0462768 0)
(2.99999 4.61511e-08 0)
(2.99998 3.58419e-07 0)
(2.99995 1.10368e-06 0)
(2.99988 3.32629e-06 0)
(2.99968 7.91661e-06 0)
(2.99931 2.07612e-05 0)
(2.99812 4.81426e-05 0)
(2.9961 0.000118285 0)
(2.98826 0.000274572 0)
(2.97562 0.000681175 0)
(2.92512 0.00161215 0)
(2.80513 0.00404245 0)
(2.46878 0.0116882 0)
(1.44282 0.0307284 0)
(0.668471 0.0693591 0)
(0.551667 0.0688618 0)
(0.568989 0.068275 0)
(0.555878 0.0698439 0)
(0.500154 0.0718736 0)
(0.413449 0.0748196 0)
(0.333158 0.0788527 0)
(0.264948 0.083377 0)
(0.195008 0.0878154 0)
(0.115258 0.0923813 0)
(0.0483949 0.0968054 0)
(2.99999 7.36955e-08 0)
(2.99998 5.72539e-07 0)
(2.99995 1.76222e-06 0)
(2.99988 5.31531e-06 0)
(2.99969 1.26212e-05 0)
(2.99933 3.33858e-05 0)
(2.99817 7.61328e-05 0)
(2.99622 0.000195005 0)
(2.98858 0.000433373 0)
(2.97637 0.00117176 0)
(2.92693 0.00268181 0)
(2.81132 0.00700931 0)
(2.48297 0.0200271 0)
(1.47241 0.0536146 0)
(0.689587 0.121336 0)
(0.547926 0.117048 0)
(0.56698 0.11427 0)
(0.555747 0.117301 0)
(0.500929 0.121422 0)
(0.415385 0.127511 0)
(0.335742 0.134953 0)
(0.267338 0.14309 0)
(0.196765 0.151159 0)
(0.116021 0.158836 0)
(0.0477992 0.164574 0)
(2.99999 9.65976e-08 0)
(2.99998 7.50779e-07 0)
(2.99995 2.31007e-06 0)
(2.99989 6.97513e-06 0)
(2.99971 1.6536e-05 0)
(2.99936 4.40543e-05 0)
(2.99825 9.92832e-05 0)
(2.9964 0.000261981 0)
(2.98907 0.000567038 0)
(2.97752 0.0016217 0)
(2.92975 0.00352972 0)
(2.82076 0.01048 0)
(2.50494 0.0278324 0)
(1.52102 0.077818 0)
(0.723814 0.176594 0)
(0.542633 0.16547 0)
(0.566288 0.159071 0)
(0.559017 0.163733 0)
(0.505765 0.170185 0)
(0.422016 0.179833 0)
(0.343193 0.190992 0)
(0.274746 0.203181 0)
(0.203368 0.215649 0)
(0.120659 0.227285 0)
(0.0493318 0.234866 0)
(2.99999 1.12751e-07 0)
(2.99998 8.7502e-07 0)
(2.99995 2.69208e-06 0)
(2.9999 8.12413e-06 0)
(2.99972 1.91957e-05 0)
(2.9994 5.15536e-05 0)
(2.99835 0.000113884 0)
(2.99661 0.00031288 0)
(2.9897 0.000654049 0)
(2.97887 0.00197352 0)
(2.93395 0.00410372 0)
(2.83322 0.0136367 0)
(2.53509 0.0331636 0)
(1.5967 0.102331 0)
(0.775441 0.234566 0)
(0.538286 0.214528 0)
(0.569072 0.20335 0)
(0.567423 0.209383 0)
(0.515876 0.21797 0)
(0.434164 0.231097 0)
(0.356097 0.246277 0)
(0.287493 0.262997 0)
(0.215062 0.280481 0)
(0.129395 0.297014 0)
(0.0530173 0.307351 0)
(2.99999 1.25698e-07 0)
(2.99998 9.75876e-07 0)
(2.99996 3.0012e-06 0)
(2.9999 9.068e-06 0)
(2.99974 2.13761e-05 0)
(2.99944 5.79442e-05 0)
(2.99847 0.000125983 0)
(2.99685 0.000359151 0)
(2.99044 0.000729564 0)
(2.98042 0.00230642 0)
(2.93898 0.00472124 0)
(2.84686 0.0161609 0)
(2.57287 0.0381688 0)
(1.70077 0.125293 0)
(0.841694 0.294665 0)
(0.533479 0.26377 0)
(0.575085 0.247354 0)
(0.58126 0.254755 0)
(0.531742 0.265422 0)
(0.452616 0.282172 0)
(0.375414 0.301845 0)
(0.306652 0.324106 0)
(0.232809 0.348118 0)
(0.143022 0.371708 0)
(0.0593507 0.387176 0)
(3 1.34437e-07 0)
(2.99999 1.04171e-06 0)
(2.99996 3.20337e-06 0)
(2.99991 9.67368e-06 0)
(2.99977 2.27154e-05 0)
(2.99949 6.2274e-05 0)
(2.9986 0.000131405 0)
(2.99711 0.000398458 0)
(2.99131 0.000753737 0)
(2.98223 0.00266494 0)
(2.94494 0.00525779 0)
(2.86314 0.0185045 0)
(2.61816 0.0440931 0)
(1.83293 0.144477 0)
(0.926999 0.352304 0)
(0.533865 0.312686 0)
(0.588454 0.291642 0)
(0.603221 0.299581 0)
(0.555362 0.312066 0)
(0.4791 0.333169 0)
(0.402857 0.358042 0)
(0.334095 0.386984 0)
(0.259184 0.419534 0)
(0.164547 0.453781 0)
(0.0703575 0.479532 0)
(3 1.44064e-07 0)
(2.99999 1.11501e-06 0)
(2.99996 3.4302e-06 0)
(2.99992 1.03487e-05 0)
(2.99979 2.42883e-05 0)
(2.99953 6.66509e-05 0)
(2.99875 0.000139436 0)
(2.99737 0.000430151 0)
(2.99231 0.000783515 0)
(2.98421 0.00290944 0)
(2.9516 0.00561284 0)
(2.88155 0.0198916 0)
(2.66926 0.0476184 0)
(1.98945 0.155533 0)
(1.03634 0.397951 0)
(0.55167 0.365358 0)
(0.614975 0.341846 0)
(0.636625 0.346166 0)
(0.590274 0.35882 0)
(0.516857 0.384324 0)
(0.441147 0.41507 0)
(0.372484 0.452215 0)
(0.297207 0.49571 0)
(0.198612 0.546117 0)
(0.0898077 0.592894 0)
(3 1.59928e-07 0)
(2.99999 1.23345e-06 0)
(2.99997 3.79466e-06 0)
(2.99993 1.14166e-05 0)
(2.99981 2.695e-05 0)
(2.99958 7.25306e-05 0)
(2.99891 0.000158301 0)
(2.99765 0.000447246 0)
(2.99337 0.000889547 0)
(2.98629 0.00288892 0)
(2.95855 0.00575446 0)
(2.90047 0.0191259 0)
(2.72244 0.0466579 0)
(2.16328 0.146424 0)
(1.18225 0.391275 0)
(0.613083 0.405883 0)
(0.66392 0.396523 0)
(0.685609 0.393889 0)
(0.641215 0.408881 0)
(0.569967 0.436409 0)
(0.493993 0.473556 0)
(0.425649 0.518972 0)
(0.352486 0.575877 0)
(0.254863 0.651426 0)
(0.12659 0.742408 0)
(3 3.94124e-08 0)
(2.99999 1.60789e-06 0)
(2.99997 3.00451e-06 0)
(2.99994 1.40701e-05 0)
(2.99984 2.19902e-05 0)
(2.99964 8.84215e-05 0)
(2.99906 0.0001246 0)
(2.99798 0.000549073 0)
(2.99434 0.000559731 0)
(2.9883 0.00362322 0)
(2.9647 0.00222181 0)
(2.91757 0.0229716 0)
(2.76688 0.0253037 0)
(2.30564 0.1275 0)
(1.34683 0.305949 0)
(0.675452 0.43012 0)
(0.703307 0.451216 0)
(0.727622 0.446415 0)
(0.695404 0.463399 0)
(0.631157 0.490669 0)
(0.559405 0.533024 0)
(0.494354 0.585918 0)
(0.431482 0.660456 0)
(0.350661 0.777443 0)
(0.197371 0.983536 0)
(3 1.17645e-07 0)
(2.99999 9.12803e-07 0)
(2.99998 2.81225e-06 0)
(2.99994 8.45626e-06 0)
(2.99987 2.00108e-05 0)
(2.99967 5.30443e-05 0)
(2.99929 0.000118394 0)
(2.99801 0.000314167 0)
(2.99591 0.00066532 0)
(2.9877 0.00194364 0)
(2.97399 0.00392871 0)
(2.92129 0.0120595 0)
(2.79246 0.0321279 0)
(2.44018 0.078695 0)
(1.44584 0.257274 0)
(0.743452 0.473503 0)
(0.714335 0.501873 0)
(0.742608 0.498958 0)
(0.733165 0.514528 0)
(0.686419 0.542862 0)
(0.628856 0.587924 0)
(0.577883 0.648337 0)
(0.544299 0.737367 0)
(0.540075 0.879284 0)
(0.567104 1.11651 0)
(3 2.14088e-07 0)
(2.99999 3.58081e-07 0)
(2.99998 3.04608e-06 0)
(2.99995 4.16799e-06 0)
(2.99988 2.11763e-05 0)
(2.99972 2.65879e-05 0)
(2.99928 0.000132737 0)
(2.99843 0.000136882 0)
(2.9957 0.000902473 0)
(2.99102 0.00064422 0)
(2.9731 0.00648157 0)
(2.94095 0.00420912 0)
(2.82082 0.041585 0)
(2.49305 0.065058 0)
(1.70903 0.23464 0)
(0.854414 0.524013 0)
(0.723177 0.537752 0)
(0.752471 0.538942 0)
(0.761846 0.553807 0)
(0.734878 0.586458 0)
(0.69718 0.633833 0)
(0.667578 0.699762 0)
(0.66547 0.792985 0)
(0.714211 0.925793 0)
(0.829618 1.09913 0)
(3 9.96856e-08 0)
(2.99999 7.78929e-07 0)
(2.99998 2.39275e-06 0)
(2.99996 7.26326e-06 0)
(2.99989 1.71506e-05 0)
(2.99976 4.61345e-05 0)
(2.99938 0.000103163 0)
(2.99865 0.000277923 0)
(2.99634 0.000592332 0)
(2.99235 0.00175068 0)
(2.97716 0.00348906 0)
(2.95065 0.0115009 0)
(2.84959 0.0249353 0)
(2.57903 0.0849434 0)
(1.92204 0.21422 0)
(0.984037 0.561758 0)
(0.731137 0.564753 0)
(0.76283 0.567334 0)
(0.788038 0.582701 0)
(0.780312 0.619979 0)
(0.761915 0.670325 0)
(0.75457 0.73645 0)
(0.775331 0.822868 0)
(0.844517 0.929323 0)
(0.975945 1.03586 0)
(3 9.74153e-08 0)
(2.99999 7.55449e-07 0)
(2.99998 2.32342e-06 0)
(2.99996 7.00475e-06 0)
(2.99991 1.65602e-05 0)
(2.9998 4.4105e-05 0)
(2.99947 9.87815e-05 0)
(2.99884 0.000262082 0)
(2.99692 0.000557945 0)
(2.99344 0.00164353 0)
(2.9811 0.0031187 0)
(2.95918 0.0112135 0)
(2.87779 0.0221179 0)
(2.66565 0.0831391 0)
(2.12784 0.203238 0)
(1.13839 0.585367 0)
(0.756655 0.594879 0)
(0.784462 0.598297 0)
(0.819851 0.609111 0)
(0.82733 0.646149 0)
(0.822895 0.697248 0)
(0.831266 0.759161 0)
(0.866196 0.832333 0)
(0.94023 0.913446 0)
(1.0658 0.982215 0)
(3 9.49692e-08 0)
(3 7.36871e-07 0)
(2.99999 2.26893e-06 0)
(2.99997 6.83877e-06 0)
(2.99992 1.6213e-05 0)
(2.99983 4.30766e-05 0)
(2.99956 9.69402e-05 0)
(2.99904 0.000253311 0)
(2.99749 0.000555674 0)
(2.9945 0.00152373 0)
(2.98502 0.00311488 0)
(2.96682 0.00983347 0)
(2.9053 0.0203723 0)
(2.74866 0.0694637 0)
(2.34197 0.171584 0)
(1.3421 0.520679 0)
(0.834569 0.60955 0)
(0.831537 0.632065 0)
(0.862278 0.641088 0)
(0.879883 0.670935 0)
(0.88313 0.717109 0)
(0.898899 0.772233 0)
(0.940069 0.832511 0)
(1.01336 0.894152 0)
(1.12746 0.94315 0)
(3 8.82004e-08 0)
(3 6.86658e-07 0)
(2.99999 2.11301e-06 0)
(2.99998 6.38386e-06 0)
(2.99994 1.5157e-05 0)
(2.99986 4.03631e-05 0)
(2.99965 9.12265e-05 0)
(2.99922 0.000236328 0)
(2.99798 0.000535375 0)
(2.99557 0.00134776 0)
(2.98796 0.0031676 0)
(2.97382 0.00774444 0)
(2.92477 0.01892 0)
(2.80414 0.0504881 0)
(2.47888 0.132666 0)
(1.54329 0.387042 0)
(0.923341 0.628611 0)
(0.872266 0.667569 0)
(0.897198 0.681637 0)
(0.924899 0.698168 0)
(0.937487 0.734294 0)
(0.958276 0.780598 0)
(1.00128 0.830236 0)
(1.07117 0.877711 0)
(1.17318 0.914311 0)
(3 7.43029e-08 0)
(3 5.76577e-07 0)
(2.99999 1.7753e-06 0)
(2.99998 5.3456e-06 0)
(2.99995 1.26747e-05 0)
(2.99989 3.35905e-05 0)
(2.99973 7.56752e-05 0)
(2.99941 0.000195736 0)
(2.99841 0.000436647 0)
(2.99669 0.00112324 0)
(2.99032 0.00253747 0)
(2.98012 0.006553 0)
(2.9393 0.0151606 0)
(2.84924 0.0418831 0)
(2.58494 0.108896 0)
(1.76849 0.31965 0)
(1.06041 0.667587 0)
(0.900631 0.699119 0)
(0.918564 0.71433 0)
(0.953646 0.721093 0)
(0.980964 0.748079 0)
(1.00852 0.786179 0)
(1.05255 0.827099 0)
(1.11832 0.864754 0)
(1.20889 0.892843 0)
(3 6.10091e-08 0)
(3 4.70045e-07 0)
(2.99999 1.44845e-06 0)
(2.99999 4.33789e-06 0)
(2.99996 1.02624e-05 0)
(2.99992 2.70319e-05 0)
(2.99978 6.05619e-05 0)
(2.99952 0.000157243 0)
(2.99875 0.000339287 0)
(2.99733 0.000936319 0)
(2.99245 0.00187679 0)
(2.98443 0.00588609 0)
(2.95296 0.0117926 0)
(2.88639 0.0387779 0)
(2.68374 0.0926847 0)
(2.03815 0.292001 0)
(1.24969 0.696512 0)
(0.943415 0.731349 0)
(0.945701 0.738513 0)
(0.980621 0.73989 0)
(1.01887 0.75727 0)
(1.05185 0.788553 0)
(1.09605 0.822918 0)
(1.15778 0.853762 0)
(1.23855 0.876062 0)
(3 3.0391e-08 0)
(3 4.45481e-07 0)
(3 1.0595e-06 0)
(2.99999 3.97939e-06 0)
(2.99997 7.6687e-06 0)
(2.99994 2.47226e-05 0)
(2.99984 4.55413e-05 0)
(2.99964 0.000143603 0)
(2.99906 0.000257565 0)
(2.99798 0.000846479 0)
(2.99442 0.00138087 0)
(2.98845 0.00543622 0)
(2.96573 0.00753204 0)
(2.92036 0.0360742 0)
(2.77741 0.0641179 0)
(2.33869 0.242517 0)
(1.531 0.604574 0)
(1.05769 0.737211 0)
(1.00659 0.756339 0)
(1.0232 0.761571 0)
(1.06112 0.768296 0)
(1.09631 0.791447 0)
(1.13754 0.819823 0)
(1.19329 0.845222 0)
(1.26487 0.863197 0)
(3 2.40411e-08 0)
(3 3.42893e-07 0)
(3 8.23603e-07 0)
(2.99999 3.06936e-06 0)
(2.99998 5.96811e-06 0)
(2.99995 1.90697e-05 0)
(2.99988 3.54725e-05 0)
(2.9997 0.000110501 0)
(2.99934 0.000201012 0)
(2.99827 0.000645241 0)
(2.99626 0.00108176 0)
(2.9896 0.00405267 0)
(2.97769 0.0055975 0)
(2.93575 0.0259376 0)
(2.83505 0.0425532 0)
(2.55412 0.158936 0)
(1.77022 0.431913 0)
(1.16884 0.742116 0)
(1.05471 0.777452 0)
(1.06062 0.790671 0)
(1.09701 0.789666 0)
(1.13723 0.800524 0)
(1.1769 0.820725 0)
(1.22674 0.840337 0)
(1.28972 0.854233 0)
(3 5.13687e-08 0)
(3 1.86135e-07 0)
(3 8.87329e-07 0)
(2.99999 1.86216e-06 0)
(2.99998 6.18163e-06 0)
(2.99996 1.1814e-05 0)
(2.99991 3.66496e-05 0)
(2.99978 6.83525e-05 0)
(2.99951 0.000210967 0)
(2.99871 0.000385831 0)
(2.99726 0.00123775 0)
(2.99223 0.0021094 0)
(2.98393 0.00773634 0)
(2.95188 0.0124051 0)
(2.88326 0.049824 0)
(2.6784 0.104278 0)
(2.04636 0.349394 0)
(1.35094 0.750918 0)
(1.10422 0.80516 0)
(1.09452 0.817827 0)
(1.12387 0.814997 0)
(1.1692 0.813954 0)
(1.21144 0.825227 0)
(1.25735 0.838899 0)
(1.31331 0.848774 0)
(3 3.17206e-08 0)
(3 1.73032e-07 0)
(3 6.4304e-07 0)
(3 1.65022e-06 0)
(2.99999 4.53404e-06 0)
(2.99997 1.0387e-05 0)
(2.99993 2.6927e-05 0)
(2.99985 6.01287e-05 0)
(2.9996 0.000154842 0)
(2.99912 0.000340347 0)
(2.9977 0.000903072 0)
(2.99498 0.00190188 0)
(2.98631 0.00550952 0)
(2.96957 0.0113844 0)
(2.91448 0.0345453 0)
(2.77752 0.0879005 0)
(2.39744 0.242593 0)
(1.58809 0.677294 0)
(1.19341 0.813606 0)
(1.14278 0.833303 0)
(1.15674 0.837027 0)
(1.19907 0.830119 0)
(1.24387 0.832351 0)
(1.28691 0.840185 0)
(1.33639 0.846345 0)
(3 1.88947e-08 0)
(3 1.47505e-07 0)
(3 4.53787e-07 0)
(3 1.37218e-06 0)
(2.99999 3.25457e-06 0)
(2.99998 8.66096e-06 0)
(2.99995 1.95415e-05 0)
(2.99988 5.07313e-05 0)
(2.99974 0.000113271 0)
(2.99933 0.000292382 0)
(2.99856 0.000657999 0)
(2.99606 0.00167661 0)
(2.99183 0.00384955 0)
(2.97598 0.00976278 0)
(2.94742 0.0235008 0)
(2.84469 0.0616823 0)
(2.57313 0.174768 0)
(1.92482 0.463235 0)
(1.31087 0.805827 0)
(1.18996 0.845736 0)
(1.18962 0.85847 0)
(1.22437 0.851413 0)
(1.27143 0.843385 0)
(1.31458 0.843835 0)
(1.35952 0.845948 0)
(3 2.11763e-08 0)
(3 8.02772e-08 0)
(3 3.70682e-07 0)
(3 8.01154e-07 0)
(2.99999 2.58512e-06 0)
(2.99999 5.08177e-06 0)
(2.99997 1.52818e-05 0)
(2.99992 2.93623e-05 0)
(2.9998 8.73708e-05 0)
(2.99957 0.00016579 0)
(2.99885 0.000504561 0)
(2.99764 0.000916909 0)
(2.99305 0.00307566 0)
(2.98583 0.0051025 0)
(2.9576 0.0196688 0)
(2.89874 0.0348505 0)
(2.71755 0.129671 0)
(2.18808 0.334874 0)
(1.51792 0.77868 0)
(1.25218 0.861525 0)
(1.22717 0.875776 0)
(1.2468 0.872585 0)
(1.29146 0.859104 0)
(1.33777 0.851813 0)
(1.38151 0.849015 0)
(3 9.82044e-09 0)
(3 7.59843e-08 0)
(3 2.34304e-07 0)
(3 7.0298e-07 0)
(3 1.66559e-06 0)
(2.99999 4.38263e-06 0)
(2.99997 9.83718e-06 0)
(2.99994 2.52254e-05 0)
(2.99986 5.57453e-05 0)
(2.99968 0.000144499 0)
(2.99919 0.000308309 0)
(2.99821 0.000861684 0)
(2.99532 0.00170947 0)
(2.98981 0.00536645 0)
(2.97222 0.0107047 0)
(2.9356 0.0333308 0)
(2.8231 0.0807719 0)
(2.49177 0.239386 0)
(1.82925 0.626164 0)
(1.36979 0.849904 0)
(1.28525 0.879907 0)
(1.28356 0.888602 0)
(1.31604 0.876876 0)
(1.36057 0.862607 0)
(1.4029 0.85526 0)
(3 5.73387e-09 0)
(3 6.4517e-08 0)
(3 1.69092e-07 0)
(3 5.8267e-07 0)
(3 1.21856e-06 0)
(2.99999 3.62396e-06 0)
(2.99998 7.26781e-06 0)
(2.99996 2.09461e-05 0)
(2.9999 4.1627e-05 0)
(2.99978 0.000119403 0)
(2.99945 0.00023593 0)
(2.99881 0.000682516 0)
(2.99679 0.00132224 0)
(2.99335 0.00400765 0)
(2.98053 0.00729011 0)
(2.95851 0.0247223 0)
(2.87643 0.0465088 0)
(2.66669 0.16424 0)
(2.1545 0.401163 0)
(1.50834 0.839937 0)
(1.32944 0.898134 0)
(1.31465 0.906331 0)
(1.33452 0.897 0)
(1.37757 0.877261 0)
(1.42185 0.863824 0)
(3 3.92658e-09 0)
(3 4.40514e-08 0)
(3 1.15475e-07 0)
(3 3.97728e-07 0)
(3 8.30561e-07 0)
(3 2.4634e-06 0)
(2.99999 4.9227e-06 0)
(2.99997 1.41328e-05 0)
(2.99994 2.7916e-05 0)
(2.99984 7.97994e-05 0)
(2.99965 0.000156442 0)
(2.99911 0.000454428 0)
(2.99809 0.000859468 0)
(2.9948 0.00271721 0)
(2.98921 0.00464774 0)
(2.96876 0.0173019 0)
(2.9286 0.0291347 0)
(2.8002 0.112858 0)
(2.43737 0.271093 0)
(1.79379 0.701229 0)
(1.43066 0.877026 0)
(1.36582 0.904386 0)
(1.36555 0.909587 0)
(1.39754 0.893615 0)
(1.44001 0.872165 0)
(3 4.6532e-09 0)
(3 2.5078e-08 0)
(3 9.3283e-08 0)
(3 2.3916e-07 0)
(3 6.54343e-07 0)
(3 1.49624e-06 0)
(2.99999 3.84794e-06 0)
(2.99998 8.57572e-06 0)
(2.99996 2.17588e-05 0)
(2.99989 4.81135e-05 0)
(2.99976 0.000122108 0)
(2.99939 0.000268242 0)
(2.99868 0.000694331 0)
(2.99651 0.00147867 0)
(2.99267 0.00414794 0)
(2.97902 0.00832218 0)
(2.9548 0.0256651 0)
(2.86964 0.0576928 0)
(2.64236 0.176565 0)
(2.11544 0.469448 0)
(1.55846 0.847857 0)
(1.41365 0.907412 0)
(1.39738 0.918538 0)
(1.4137 0.909511 0)
(1.45153 0.883769 0)
(3 3.92248e-09 0)
(3 1.66016e-08 0)
(3 7.15801e-08 0)
(3 1.62569e-07 0)
(3 4.97782e-07 0)
(3 1.02347e-06 0)
(2.99999 2.92302e-06 0)
(2.99999 5.88664e-06 0)
(2.99997 1.65471e-05 0)
(2.99993 3.31363e-05 0)
(2.99984 9.29953e-05 0)
(2.99959 0.000185277 0)
(2.9991 0.000525772 0)
(2.99768 0.00102121 0)
(2.99492 0.00308882 0)
(2.98645 0.0054872 0)
(2.96998 0.0193903 0)
(2.91725 0.0336297 0)
(2.78456 0.126057 0)
(2.43899 0.292429 0)
(1.78003 0.752504 0)
(1.48329 0.899369 0)
(1.43263 0.921128 0)
(1.43365 0.920252 0)
(1.46093 0.89826 0)
(3 2.65259e-09 0)
(3 1.12022e-08 0)
(3 4.8348e-08 0)
(3 1.09911e-07 0)
(3 3.36753e-07 0)
(3 6.93082e-07 0)
(3 1.98062e-06 0)
(2.99999 3.99321e-06 0)
(2.99998 1.12309e-05 0)
(2.99996 2.2535e-05 0)
(2.99989 6.32283e-05 0)
(2.99975 0.000126485 0)
(2.99937 0.000356578 0)
(2.99864 0.000708887 0)
(2.9964 0.00203908 0)
(2.99247 0.00397193 0)
(2.97854 0.012143 0)
(2.95341 0.0235963 0)
(2.86656 0.0763429 0)
(2.64087 0.185211 0)
(2.11159 0.517479 0)
(1.60446 0.868591 0)
(1.47467 0.9235 0)
(1.45631 0.926247 0)
(1.46666 0.906939 0)
(3 1.16988e-09 0)
(3 9.04619e-09 0)
(3 2.78927e-08 0)
(3 8.35006e-08 0)
(3 1.97804e-07 0)
(3 5.18093e-07 0)
(3 1.1643e-06 0)
(2.99999 2.95962e-06 0)
(2.99999 6.56903e-06 0)
(2.99997 1.6583e-05 0)
(2.99992 3.66443e-05 0)
(2.99983 9.249e-05 0)
(2.99958 0.000203629 0)
(2.99908 0.000519473 0)
(2.99764 0.00112055 0)
(2.99486 0.00302282 0)
(2.98634 0.00616571 0)
(2.96994 0.0185582 0)
(2.91756 0.0387408 0)
(2.78613 0.122366 0)
(2.44658 0.31555 0)
(1.82523 0.757095 0)
(1.53715 0.908281 0)
(1.47936 0.923251 0)
(1.46986 0.900857 0)
(3 6.562e-10 0)
(3 6.7811e-09 0)
(3 1.83837e-08 0)
(3 6.12557e-08 0)
(3 1.31353e-07 0)
(3 3.78024e-07 0)
(3 7.74669e-07 0)
(3 2.15763e-06 0)
(2.99999 4.37882e-06 0)
(2.99998 1.2102e-05 0)
(2.99995 2.44917e-05 0)
(2.99989 6.76338e-05 0)
(2.99973 0.000136434 0)
(2.9994 0.000378404 0)
(2.99848 0.000757863 0)
(2.99668 0.00214301 0)
(2.99138 0.00419214 0)
(2.98068 0.0126359 0)
(2.94891 0.0243331 0)
(2.87288 0.0790388 0)
(2.66654 0.182324 0)
(2.11421 0.536364 0)
(1.66022 0.862216 0)
(1.5064 0.91244 0)
(1.46515 0.879751 0)
(3 5.27694e-10 0)
(3 4.07045e-09 0)
(3 1.25569e-08 0)
(3 3.75324e-08 0)
(3 8.89341e-08 0)
(3 2.32688e-07 0)
(3 5.23116e-07 0)
(3 1.32905e-06 0)
(2.99999 2.95226e-06 0)
(2.99999 7.45154e-06 0)
(2.99997 1.64963e-05 0)
(2.99993 4.16125e-05 0)
(2.99984 9.19253e-05 0)
(2.99959 0.000232518 0)
(2.99911 0.000512457 0)
(2.99772 0.00130594 0)
(2.99504 0.00288383 0)
(2.98685 0.0073962 0)
(2.97093 0.0171748 0)
(2.92091 0.0438337 0)
(2.79888 0.116381 0)
(2.46783 0.307933 0)
(1.86126 0.735553 0)
(1.54185 0.876163 0)
(1.43927 0.837576 0)
(3 4.85687e-10 0)
(3 2.01792e-09 0)
(3 8.76044e-09 0)
(3 1.98445e-08 0)
(3 6.08183e-08 0)
(3 1.24566e-07 0)
(3 3.55277e-07 0)
(3 7.11433e-07 0)
(3 1.995e-06 0)
(2.99999 3.97046e-06 0)
(2.99998 1.10954e-05 0)
(2.99996 2.20069e-05 0)
(2.99989 6.15787e-05 0)
(2.99976 0.000121601 0)
(2.99938 0.000342604 0)
(2.99865 0.000670283 0)
(2.99645 0.00193302 0)
(2.99258 0.00369839 0)
(2.97896 0.0113115 0)
(2.95457 0.0217735 0)
(2.87067 0.0688105 0)
(2.65507 0.167037 0)
(2.15726 0.460534 0)
(1.59609 0.7951 0)
(1.37246 0.772684 0)
(3 1.96713e-10 0)
(3 1.51419e-09 0)
(3 4.67609e-09 0)
(3 1.39379e-08 0)
(3 3.30026e-08 0)
(3 8.58377e-08 0)
(3 1.92507e-07 0)
(3 4.8491e-07 0)
(3 1.07344e-06 0)
(2.99999 2.68021e-06 0)
(2.99999 5.91022e-06 0)
(2.99997 1.47123e-05 0)
(2.99992 3.23549e-05 0)
(2.99983 8.05052e-05 0)
(2.99957 0.00017642 0)
(2.99905 0.00044292 0)
(2.99756 0.000950664 0)
(2.99466 0.00251098 0)
(2.98592 0.00512751 0)
(2.96841 0.0147558 0)
(2.91432 0.0315424 0)
(2.77919 0.09342 0)
(2.43498 0.239102 0)
(1.70535 0.586141 0)
(1.27118 0.647107 0)
(3 7.79563e-11 0)
(3 1.01874e-09 0)
(3 2.51464e-09 0)
(3 9.05924e-09 0)
(3 1.79124e-08 0)
(3 5.51891e-08 0)
(3 1.03936e-07 0)
(3 3.10024e-07 0)
(3 5.74259e-07 0)
(3 1.70724e-06 0)
(2.99999 3.12922e-06 0)
(2.99998 9.3521e-06 0)
(2.99994 1.69416e-05 0)
(2.99988 5.11719e-05 0)
(2.99968 9.10449e-05 0)
(2.9993 0.000280589 0)
(2.99817 0.000478997 0)
(2.99606 0.00157226 0)
(2.98907 0.00235127 0)
(2.97671 0.00915171 0)
(2.93225 0.0117009 0)
(2.82623 0.0533134 0)
(2.54097 0.0837867 0)
(1.77488 0.286009 0)
(1.13737 0.432685 0)
(3 3.08487e-11 0)
(3 5.9164e-10 0)
(3 1.29283e-09 0)
(3 5.19184e-09 0)
(3 9.25564e-09 0)
(3 3.14464e-08 0)
(3 5.32491e-08 0)
(3 1.75627e-07 0)
(3 2.90128e-07 0)
(3 9.61336e-07 0)
(2.99999 1.55533e-06 0)
(2.99998 5.2396e-06 0)
(2.99996 8.27023e-06 0)
(2.99989 2.85883e-05 0)
(2.99976 4.34596e-05 0)
(2.99937 0.000157121 0)
(2.99864 0.000217223 0)
(2.99623 0.000905686 0)
(2.99218 0.000869107 0)
(2.97626 0.00563449 0)
(2.94849 0.00262517 0)
(2.84076 0.0310473 0)
(2.55747 0.0264537 0)
(1.87755 0.12093 0)
(0.97449 0.233534 0)
(3 7.84391e-11 0)
(3 1.79775e-10 0)
(3 1.18637e-09 0)
(3 1.93221e-09 0)
(3 8.09864e-09 0)
(3 1.22008e-08 0)
(3 4.70499e-08 0)
(3 6.87804e-08 0)
(3 2.63375e-07 0)
(3 3.76278e-07 0)
(2.99999 1.4632e-06 0)
(2.99998 2.03569e-06 0)
(2.99996 8.14375e-06 0)
(2.9999 1.08314e-05 0)
(2.99979 4.58536e-05 0)
(2.99944 5.27688e-05 0)
(2.9988 0.000273383 0)
(2.99661 0.000172964 0)
(2.99301 0.00172146 0)
(2.97831 -0.000101681 0)
(2.95308 0.010613 0)
(2.85066 -0.00218894 0)
(2.57911 0.0517157 0)
(1.89875 0.05008 0)
(0.854338 0.139817 0)
(3 5.2353e-11 0)
(3 4.70795e-11 0)
(3 6.8072e-10 0)
(3 6.67099e-10 0)
(3 4.59803e-09 0)
(3 4.34343e-09 0)
(3 2.6748e-08 0)
(3 2.42045e-08 0)
(3 1.50277e-07 0)
(3 1.28757e-07 0)
(2.99999 8.37826e-07 0)
(2.99999 6.66215e-07 0)
(2.99996 4.68115e-06 0)
(2.99992 3.31869e-06 0)
(2.99979 2.6498e-05 0)
(2.99956 1.43092e-05 0)
(2.99874 0.000162977 0)
(2.99743 4.21776e-07 0)
(2.99195 0.00120193 0)
(2.98344 -0.00086961 0)
(2.9469 0.00836916 0)
(2.86683 -0.00604536 0)
(2.62022 0.0406324 0)
(1.83117 0.0379952 0)
(0.854755 0.141617 0)
(3 1.04938e-11 0)
(3 8.10037e-11 0)
(3 2.49143e-10 0)
(3 7.4442e-10 0)
(3 1.75468e-09 0)
(3 4.59066e-09 0)
(3 1.02456e-08 0)
(3 2.61345e-08 0)
(3 5.76555e-08 0)
(3 1.47105e-07 0)
(2.99999 3.24071e-07 0)
(2.99999 8.32576e-07 0)
(2.99997 1.8332e-06 0)
(2.99992 4.79934e-06 0)
(2.9998 1.0311e-05 0)
(2.99956 2.93785e-05 0)
(2.99879 5.71878e-05 0)
(2.99747 0.000189201 0)
(2.9923 0.000372506 0)
(2.98428 0.00121167 0)
(2.94979 0.00254469 0)
(2.87536 0.00858715 0)
(2.64298 0.0207522 0)
(1.88506 0.0651703 0)
(0.892119 0.167191 0)
(3 -2.1973e-11 0)
(3 1.18033e-10 0)
(3 -7.02871e-11 0)
(3 8.96389e-10 0)
(3 -3.63598e-10 0)
(3 5.29351e-09 0)
(3 -2.34332e-09 0)
(3 2.98255e-08 0)
(3 -1.58279e-08 0)
(3 1.66756e-07 0)
(2.99999 -1.06087e-07 0)
(2.99999 9.36385e-07 0)
(2.99997 -7.09469e-07 0)
(2.99993 5.34197e-06 0)
(2.99981 -4.77723e-06 0)
(2.9996 3.2476e-05 0)
(2.99887 -3.81341e-05 0)
(2.99769 0.000248153 0)
(2.9928 -0.000405471 0)
(2.98526 0.0023657 0)
(2.95282 -0.00312846 0)
(2.88271 0.0173079 0)
(2.66434 -0.000553873 0)
(1.95494 0.0742579 0)
(0.936159 0.156336 0)
(3 -2.67398e-11 0)
(3 7.30262e-11 0)
(3 -1.98411e-10 0)
(3 4.92687e-10 0)
(3 -1.27186e-09 0)
(3 2.74772e-09 0)
(3 -7.84163e-09 0)
(3 1.45764e-08 0)
(3 -4.86458e-08 0)
(3 7.51547e-08 0)
(2.99999 -3.04342e-07 0)
(2.99999 3.80632e-07 0)
(2.99997 -1.91996e-06 0)
(2.99992 1.96844e-06 0)
(2.99982 -1.22264e-05 0)
(2.99953 1.31823e-05 0)
(2.99896 -8.41784e-05 0)
(2.99717 0.000144945 0)
(2.99405 -0.000585469 0)
(2.98203 0.00166273 0)
(2.96127 -0.00328749 0)
(2.88002 0.0138013 0)
(2.66715 -0.00248838 0)
(2.09989 0.0602455 0)
(0.939229 0.144018 0)
(3 5.70175e-12 0)
(3 3.03898e-11 0)
(3 1.14688e-10 0)
(3 2.93496e-10 0)
(3 8.25761e-10 0)
(3 1.90348e-09 0)
(3 5.07933e-09 0)
(3 1.14755e-08 0)
(3 3.03459e-08 0)
(3 6.82668e-08 0)
(2.99999 1.80689e-07 0)
(2.99999 4.05209e-07 0)
(2.99997 1.07889e-06 0)
(2.99992 2.40118e-06 0)
(2.99982 6.48501e-06 0)
(2.99954 1.42211e-05 0)
(2.99898 4.07838e-05 0)
(2.99728 7.96505e-05 0)
(2.99406 0.000303065 0)
(2.98312 0.000437681 0)
(2.96286 0.00245743 0)
(2.88784 0.00436748 0)
(2.69182 0.0193635 0)
(2.16162 0.0496225 0)
(0.965724 0.152533 0)
(3 3.29396e-11 0)
(3 -2.42645e-11 0)
(3 3.47655e-10 0)
(3 -4.14199e-11 0)
(3 2.34005e-09 0)
(3 9.02285e-11 0)
(3 1.42295e-08 0)
(3 1.97051e-09 0)
(3 8.54259e-08 0)
(3 2.02491e-08 0)
(2.99999 5.1506e-07 0)
(2.99999 1.74549e-07 0)
(2.99997 3.13715e-06 0)
(2.99992 1.35791e-06 0)
(2.99983 1.93595e-05 0)
(2.99956 9.00157e-06 0)
(2.99902 0.000124293 0)
(2.99738 3.03194e-05 0)
(2.99435 0.000869735 0)
(2.98381 -0.000264973 0)
(2.96461 0.00605898 0)
(2.89365 -0.00255112 0)
(2.70975 0.0334757 0)
(2.2164 0.0360691 0)
(1.01029 0.150334 0)
(3 2.97099e-11 0)
(3 -4.3114e-11 0)
(3 2.77917e-10 0)
(3 -2.1258e-10 0)
(3 1.85349e-09 0)
(3 -1.00216e-09 0)
(3 1.12525e-08 0)
(3 -4.74067e-09 0)
(3 6.72432e-08 0)
(3 -2.152e-08 0)
(2.99999 4.01735e-07 0)
(2.99999 -8.96147e-08 0)
(2.99997 2.41373e-06 0)
(2.99993 -3.24556e-07 0)
(2.99983 1.46871e-05 0)
(2.99963 -9.88892e-07 0)
(2.999 9.17329e-05 0)
(2.9979 -1.26911e-05 0)
(2.99382 0.000648469 0)
(2.98736 -0.000425702 0)
(2.96114 0.00512618 0)
(2.90706 -0.00374986 0)
(2.73749 0.0272231 0)
(2.2053 0.0226262 0)
(1.126 0.108674 0)
(3 4.03188e-12 0)
(3 3.17268e-11 0)
(3 9.69343e-11 0)
(3 2.93895e-10 0)
(3 6.95562e-10 0)
(3 1.85426e-09 0)
(3 4.18568e-09 0)
(3 1.0812e-08 0)
(3 2.41357e-08 0)
(3 6.14695e-08 0)
(2.99999 1.36179e-07 0)
(2.99999 3.43658e-07 0)
(2.99997 7.51426e-07 0)
(2.99993 1.89781e-06 0)
(2.99983 4.07862e-06 0)
(2.99962 1.09145e-05 0)
(2.99901 2.02342e-05 0)
(2.99785 7.22982e-05 0)
(2.99401 0.000102326 0)
(2.98754 0.00050221 0)
(2.96239 0.000878405 0)
(2.91114 0.00315241 0)
(2.74719 0.00863059 0)
(2.23372 0.0218384 0)
(1.1741 0.0661124 0)
(3 -1.90163e-11 0)
(3 1.02787e-10 0)
(3 -5.50221e-11 0)
(3 7.8267e-10 0)
(3 -2.40059e-10 0)
(3 4.72566e-09 0)
(3 -1.19486e-09 0)
(3 2.75613e-08 0)
(3 -6.05748e-09 0)
(3 1.60105e-07 0)
(3 -3.07779e-08 0)
(2.99999 9.31678e-07 0)
(2.99997 -1.66832e-07 0)
(2.99994 5.44853e-06 0)
(2.99984 -1.14989e-06 0)
(2.99964 3.21697e-05 0)
(2.99905 -1.37629e-05 0)
(2.99796 0.000208968 0)
(2.99417 -0.000243723 0)
(2.98801 0.00158101 0)
(2.96328 -0.002901 0)
(2.91377 0.0096537 0)
(2.7527 -0.0117274 0)
(2.25129 0.0227178 0)
(1.20504 0.020622 0)
(3 7.39619e-13 0)
(3 6.10509e-12 0)
(3 1.83695e-11 0)
(3 5.68595e-11 0)
(3 1.34536e-10 0)
(3 3.67483e-10 0)
(3 8.33498e-10 0)
(3 2.21493e-09 0)
(3 4.98638e-09 0)
(3 1.30913e-08 0)
(3 2.9435e-08 0)
(2.99999 7.63025e-08 0)
(2.99997 1.70586e-07 0)
(2.99993 4.36846e-07 0)
(2.99985 9.56884e-07 0)
(2.99961 2.55256e-06 0)
(2.99916 4.82231e-06 0)
(2.99766 1.84176e-05 0)
(2.99514 1.96864e-05 0)
(2.98533 0.000144041 0)
(2.96855 0.000223329 0)
(2.90484 0.000952561 0)
(2.74283 0.00282228 0)
(2.30924 0.00714143 0)
(1.13099 0.0278302 0)
(3 2.14875e-11 0)
(3 -8.26482e-11 0)
(3 1.15941e-10 0)
(3 -5.93688e-10 0)
(3 6.88656e-10 0)
(3 -3.49e-09 0)
(3 4.0103e-09 0)
(3 -2.00017e-08 0)
(3 2.31463e-08 0)
(3 -1.14637e-07 0)
(3 1.33313e-07 0)
(2.99999 -6.60445e-07 0)
(2.99997 7.76756e-07 0)
(2.99994 -3.84078e-06 0)
(2.99984 4.74569e-06 0)
(2.99964 -2.26425e-05 0)
(2.99906 3.46851e-05 0)
(2.99798 -0.000150057 0)
(2.99428 0.000359581 0)
(2.98818 -0.00117301 0)
(2.96396 0.0036311 0)
(2.91596 -0.00687883 0)
(2.75782 0.0189792 0)
(2.27308 -0.00403478 0)
(1.24729 0.0405012 0)
(3 -1.68305e-12 0)
(3 -1.33094e-11 0)
(3 -3.98701e-11 0)
(3 -1.18248e-10 0)
(3 -2.73932e-10 0)
(3 -7.21467e-10 0)
(3 -1.59916e-09 0)
(3 -4.14365e-09 0)
(3 -9.14491e-09 0)
(3 -2.36749e-08 0)
(3 -5.25618e-08 0)
(2.99999 -1.35423e-07 0)
(2.99997 -3.0475e-07 0)
(2.99994 -7.71301e-07 0)
(2.99984 -1.76286e-06 0)
(2.99964 -4.18285e-06 0)
(2.99905 -1.0397e-05 0)
(2.99793 -1.5725e-05 0)
(2.9943 -7.05909e-05 0)
(2.98805 1.41645e-05 0)
(2.9643 -0.00022483 0)
(2.91689 0.000454785 0)
(2.75979 0.000849649 0)
(2.28007 0.00277627 0)
(1.25754 0.00905247 0)
(1.1298 0.992216 0)
(1.05673 0.702888 0)
(0.195358 0.448655 0)
(-0.440983 0.0389822 0)
(-0.523907 -0.015722 0)
(-0.697834 -0.0257267 0)
(-0.762072 -0.0152622 0)
(-0.80836 0.0061449 0)
(-0.86863 0.018113 0)
(-0.934115 0.0178875 0)
(-0.991226 0.0116528 0)
(-1.03988 0.00545276 0)
(-1.08632 0.00124435 0)
(-1.13468 -0.00168363 0)
(-1.17829 -0.00016649 0)
(-1.20431 0.00145387 0)
(-1.21257 0.000606586 0)
(-1.21172 -0.00181688 0)
(-1.19873 -0.00461706 0)
(-1.168 -0.00778471 0)
(-1.12121 -0.0110462 0)
(-1.06254 -0.0137821 0)
(-0.99704 -0.0156117 0)
(-0.928738 -0.0166081 0)
(-0.859996 -0.0170743 0)
(-0.792482 -0.0171382 0)
(-0.727181 -0.0169353 0)
(-0.664062 -0.0165771 0)
(-0.602949 -0.0162692 0)
(-0.543448 -0.0160471 0)
(-0.48511 -0.0159918 0)
(-0.427894 -0.0160452 0)
(-0.370153 -0.0176359 0)
(-0.313223 -0.0186801 0)
(-0.257699 -0.0194528 0)
(-0.20358 -0.0201667 0)
(-0.150899 -0.0213545 0)
(-0.0997318 -0.0227755 0)
(-0.0494486 -0.0243684 0)
(0.000628722 -0.027019 0)
(0.0549709 -0.0258299 0)
(0.101155 -0.0234067 0)
(0.147344 -0.0224894 0)
(0.190899 -0.0214919 0)
(0.233074 -0.0207127 0)
(0.272441 -0.0196901 0)
(0.309935 -0.0189681 0)
(0.348249 -0.0188275 0)
(0.387294 -0.0190058 0)
(0.424803 -0.0182899 0)
(0.46085 -0.0174194 0)
(0.495693 -0.0166615 0)
(0.529563 -0.0160475 0)
(0.562543 -0.0154579 0)
(0.59472 -0.0149107 0)
(0.626106 -0.0143602 0)
(0.656778 -0.0138348 0)
(0.686754 -0.0133212 0)
(0.716072 -0.0128193 0)
(0.744762 -0.0123354 0)
(0.772855 -0.0118548 0)
(0.800385 -0.0113966 0)
(0.827361 -0.0109428 0)
(0.853826 -0.0105057 0)
(0.879791 -0.0100779 0)
(0.905281 -0.00966451 0)
(0.930317 -0.00925862 0)
(0.954919 -0.00886819 0)
(0.979099 -0.00848277 0)
(1.00288 -0.00811177 0)
(1.02627 -0.00774499 0)
(1.04928 -0.00739037 0)
(1.07191 -0.00703822 0)
(1.09418 -0.00669661 0)
(1.11607 -0.00635552 0)
(1.1376 -0.00602383 0)
(1.15876 -0.00569293 0)
(1.17954 -0.00537015 0)
(1.19995 -0.00505111 0)
(1.21999 -0.00473888 0)
(1.23966 -0.00443387 0)
(1.25896 -0.004134 0)
(1.27791 -0.00384332 0)