/*--------------------------------*- C++ -*----------------------------------*\
| =========                 |                                                 |
| \\      /  F ield         | OpenFOAM: The Open Source CFD Toolbox           |
|  \\    /   O peration     | Version:  2112                                  |
|   \\  /    A nd           | Website:  www.openfoam.com                      |
|    \\/     M anipulation  |                                                 |
\*---------------------------------------------------------------------------*/
FoamFile
{
    version     2.0;
    format      ascii;
    arch        "LSB;label=32;scalar=64";
    class       volScalarField;
    location    "66.5";
    object      p;
}
// * * * * * * * * * * * * * * * * * * * * * * * * * * * * * * * * * * * * * //

dimensions      [0 2 -2 0 0 0 0];

internalField   nonuniform List<scalar> 
8800
(
0.796841
0.749056
0.710369
0.681377
0.660519
0.645696
0.635112
0.62765
0.622856
0.620834
0.622141
0.626364
0.633033
0.642367
0.655159
0.672901
0.697684
0.731629
0.774182
0.832884
0.628085
0.635764
0.643244
0.646554
0.645055
0.639984
0.633507
0.627446
0.622745
0.619934
0.619694
0.622238
0.626756
0.632723
0.639507
0.645797
0.649445
0.648712
0.643298
0.634611
0.606481
0.612641
0.616771
0.619719
0.621775
0.622388
0.621295
0.61921
0.617223
0.616355
0.61736
0.619778
0.622604
0.624804
0.625425
0.624236
0.621902
0.618514
0.613958
0.610197
0.600658
0.603309
0.606064
0.608472
0.610113
0.611285
0.612041
0.61218
0.611917
0.61191
0.61271
0.61392
0.61479
0.614876
0.614283
0.613203
0.611396
0.608831
0.606432
0.604928
0.59526
0.596685
0.598467
0.600505
0.602296
0.603648
0.604654
0.605476
0.606127
0.606741
0.607446
0.607987
0.608121
0.607859
0.60718
0.605945
0.604259
0.602419
0.601115
0.600284
0.590161
0.591082
0.592327
0.593899
0.59554
0.597077
0.598381
0.599476
0.600482
0.601432
0.602185
0.602565
0.602563
0.602153
0.601294
0.600111
0.598796
0.597545
0.596727
0.596175
0.585227
0.585897
0.586862
0.588171
0.58959
0.591062
0.592523
0.593877
0.595123
0.596296
0.597191
0.59762
0.597583
0.59711
0.596331
0.595403
0.594407
0.593494
0.592913
0.592507
0.580409
0.580926
0.581713
0.58285
0.584138
0.585528
0.586998
0.588507
0.589988
0.591401
0.592493
0.593037
0.593068
0.592726
0.592156
0.591455
0.590701
0.59003
0.589601
0.589283
0.575636
0.576047
0.576706
0.57772
0.578938
0.580283
0.581755
0.583353
0.585035
0.58672
0.588066
0.588811
0.589042
0.588925
0.588582
0.588096
0.587549
0.587072
0.586754
0.586496
0.57082
0.571154
0.571725
0.572661
0.573831
0.575164
0.576675
0.578375
0.580252
0.582235
0.583909
0.584958
0.585474
0.585616
0.585508
0.585251
0.584901
0.584586
0.584353
0.584135
0.565871
0.566148
0.566658
0.567549
0.568703
0.570063
0.571651
0.573496
0.575609
0.577937
0.580026
0.581465
0.582323
0.582762
0.582912
0.582885
0.582734
0.582561
0.582396
0.582208
0.5607
0.560933
0.561404
0.56228
0.563458
0.564888
0.566596
0.568641
0.571056
0.573813
0.576407
0.578316
0.579574
0.580355
0.580795
0.581007
0.581056
0.581015
0.580906
0.580738
0.555214
0.555412
0.555863
0.556754
0.557997
0.559542
0.561425
0.563737
0.566536
0.569829
0.573036
0.575504
0.577231
0.578403
0.579169
0.579637
0.579903
0.579987
0.579926
0.579771
0.549309
0.549478
0.549928
0.550862
0.552211
0.553923
0.556048
0.558707
0.561992
0.565947
0.569898
0.573033
0.575313
0.576936
0.578073
0.578851
0.579334
0.579538
0.579517
0.57937
0.542865
0.54301
0.543472
0.54448
0.545982
0.547919
0.550364
0.553466
0.557361
0.562128
0.566978
0.570911
0.573847
0.576
0.577563
0.57868
0.579409
0.579739
0.579755
0.579612
0.535741
0.535861
0.536351
0.537463
0.53917
0.541402
0.544257
0.54792
0.552573
0.558333
0.564267
0.569152
0.572863
0.575643
0.577708
0.579214
0.580221
0.580681
0.580731
0.580587
0.527748
0.527851
0.528384
0.529636
0.531606
0.534213
0.537588
0.541958
0.547549
0.55452
0.561759
0.567777
0.572403
0.57592
0.578588
0.580552
0.581867
0.582463
0.582545
0.582396
0.518665
0.518765
0.519354
0.520766
0.523067
0.526162
0.530199
0.535451
0.542202
0.55065
0.559454
0.566817
0.572523
0.576906
0.580286
0.582781
0.584448
0.585189
0.585299
0.585143
0.508172
0.508252
0.508931
0.510569
0.513306
0.517023
0.521892
0.528254
0.536443
0.546688
0.557364
0.566309
0.573284
0.578687
0.582877
0.586011
0.588069
0.588959
0.589093
0.588925
0.495888
0.495955
0.496734
0.498683
0.501978
0.506494
0.51243
0.520195
0.530173
0.542604
0.555504
0.5663
0.574745
0.581334
0.586475
0.590334
0.592819
0.593859
0.59401
0.593827
0.481254
0.481309
0.482231
0.484597
0.488632
0.494199
0.501524
0.511087
0.523302
0.538386
0.553907
0.566846
0.57697
0.584915
0.591153
0.595828
0.598764
0.599942
0.6001
0.599898
0.463496
0.463541
0.464676
0.467627
0.472675
0.479664
0.488838
0.500738
0.515764
0.534054
0.552632
0.56801
0.580029
0.589502
0.596944
0.602532
0.605917
0.607207
0.607358
0.607135
0.441444
0.441486
0.44297
0.446806
0.453314
0.462302
0.474012
0.488997
0.507562
0.529694
0.551779
0.569875
0.583979
0.595138
0.603894
0.610428
0.61422
0.615573
0.615697
0.615454
0.413335
0.413398
0.415475
0.420738
0.429519
0.441446
0.45673
0.475813
0.498797
0.525464
0.55149
0.572535
0.58887
0.601809
0.611974
0.61942
0.623516
0.624855
0.62493
0.624668
0.376114
0.376279
0.379576
0.387472
0.400084
0.416507
0.436888
0.461352
0.48974
0.521623
0.551955
0.5761
0.594745
0.609517
0.621091
0.629308
0.633527
0.634752
0.634757
0.634482
0.323916
0.324912
0.33147
0.344781
0.364055
0.387436
0.414846
0.446108
0.480863
0.518532
0.55339
0.580679
0.601624
0.618162
0.631036
0.639769
0.643861
0.644869
0.644796
0.644518
0.247751
0.255113
0.270287
0.293753
0.322949
0.355651
0.391653
0.430742
0.47255
0.516474
0.556157
0.586784
0.610182
0.628615
0.642691
0.651709
0.655519
0.656297
0.656176
0.655933
0.165925
0.183329
0.207911
0.242156
0.281673
0.323823
0.368466
0.415551
0.464778
0.515593
0.560943
0.595632
0.621944
0.64257
0.657947
0.6668
0.669928
0.670424
0.670333
0.670171
0.0977094
0.118208
0.150557
0.193964
0.242583
0.293628
0.346651
0.401573
0.458067
0.515564
0.566289
0.604751
0.633703
0.656078
0.671999
0.680343
0.682987
0.683429
0.683407
0.683287
0.0418436
0.0640069
0.101901
0.151779
0.207591
0.266128
0.326568
0.38869
0.452023
0.515888
0.571717
0.613703
0.645042
0.668867
0.685345
0.693572
0.696005
0.696401
0.696404
0.696316
-0.00463283
0.0187085
0.0604058
0.11542
0.177014
0.241744
0.308557
0.377082
0.446678
0.516512
0.577205
0.622561
0.656201
0.681558
0.6987
0.706942
0.709458
0.709829
0.709854
0.709789
-0.0439945
-0.0200006
0.0245774
0.0836504
0.15011
0.22011
0.292461
0.366688
0.442012
0.517441
0.582776
0.631403
0.667308
0.694144
0.7121
0.720791
0.723338
0.723712
0.723745
0.723698
-0.0782808
-0.0538702
-0.00702766
0.0554003
0.125971
0.20056
0.277834
0.357224
0.437839
0.518528
0.588309
0.64011
0.678257
0.70661
0.725497
0.734618
0.737351
0.737743
0.737778
0.737752
-0.109002
-0.0842314
-0.035546
0.0297439
0.103868
0.18249
0.264186
0.348291
0.433827
0.519515
0.593587
0.64849
0.688818
0.71867
0.738409
0.748054
0.751023
0.751457
0.751497
0.751482
-0.137143
-0.112053
-0.0617938
0.00597181
0.0832179
0.165417
0.251094
0.339533
0.429696
0.520176
0.598423
0.656347
0.698789
0.730065
0.750683
0.76078
0.76399
0.764517
0.764545
0.764527
-0.163519
-0.138066
-0.0863886
-0.0164633
0.0635715
0.148966
0.238253
0.330696
0.425214
0.520304
0.602648
0.663543
0.708035
0.740675
0.762056
0.772578
0.775964
0.776529
0.776527
0.776504
-0.188518
-0.162704
-0.109734
-0.0379219
0.0446079
0.132876
0.225441
0.321575
0.420195
0.519754
0.606163
0.670022
0.716519
0.750425
0.772411
0.783231
0.786745
0.787332
0.787303
0.787263
-0.212589
-0.186344
-0.13233
-0.0586468
0.0261006
0.116949
0.212492
0.31203
0.414517
0.518411
0.608892
0.675761
0.724246
0.759298
0.781792
0.792786
0.796307
0.796888
0.796828
0.796771
-0.235866
-0.209137
-0.154159
-0.0788229
0.00790421
0.101068
0.199309
0.301981
0.408096
0.516191
0.61078
0.68077
0.731293
0.767436
0.790285
0.801248
0.804749
0.805303
0.805215
0.805138
-0.258501
-0.231337
-0.175324
-0.0985564
-0.0100527
0.0851798
0.185848
0.291375
0.400873
0.513025
0.611773
0.685064
0.737767
0.774991
0.798032
0.808836
0.812201
0.812688
0.812576
0.812484
-0.280626
-0.252955
-0.195958
-0.117892
-0.0278124
0.0692636
0.172101
0.28021
0.392832
0.508863
0.611815
0.688646
0.743782
0.782147
0.80524
0.81568
0.818785
0.819173
0.819029
0.818922
-0.302302
-0.274017
-0.216127
-0.136844
-0.0453609
0.053331
0.158095
0.268511
0.383978
0.503664
0.610838
0.691495
0.749431
0.789119
0.812127
0.821945
0.8246
0.82483
0.824659
0.824545
-0.323375
-0.294512
-0.235761
-0.155399
-0.0626808
0.0374339
0.143878
0.256335
0.374353
0.497432
0.608766
0.693548
0.754746
0.796128
0.819042
0.827892
0.829789
0.829761
0.829569
0.829462
-0.343835
-0.314417
-0.254859
-0.17352
-0.0797262
0.0216201
0.129525
0.243748
0.36402
0.49018
0.605536
0.694689
0.759686
0.803351
0.826456
0.834077
0.834685
0.834083
0.833859
0.833815
-0.363751
-0.333706
-0.273409
-0.191185
-0.0964424
0.00596335
0.115116
0.230841
0.353058
0.481955
0.601086
0.694761
0.764098
0.810796
0.834838
0.841443
0.840152
0.838211
0.83774
0.838023
-0.382966
-0.352366
-0.291358
-0.208345
-0.112778
-0.00945987
0.100737
0.217718
0.341573
0.472838
0.595386
0.693574
0.767717
0.818187
0.844326
0.85112
0.848236
0.84391
0.841814
0.841753
-0.401573
-0.370389
-0.308729
-0.225034
-0.128767
-0.0246926
0.086335
0.204326
0.329503
0.462761
0.588302
0.690849
0.770254
0.82507
0.854434
0.863575
0.861329
0.854228
0.846748
0.833155
-0.419505
-0.387765
-0.325637
-0.241451
-0.144688
-0.0400554
0.071508
0.190201
0.316336
0.451119
0.57923
0.685861
0.771232
0.830871
0.863681
0.876972
0.875873
0.862454
0.841884
0.831364
-0.436593
-0.404644
-0.341897
-0.257404
-0.160189
-0.0552117
0.0564749
0.175657
0.302362
0.438144
0.568186
0.678066
0.769711
0.834374
0.868019
0.88128
0.882021
0.85722
0.78996
0.759954
-0.452181
-0.422295
-0.357201
-0.272421
-0.174469
-0.0696617
0.0415531
0.160921
0.287793
0.42395
0.555072
0.667092
0.764115
0.83478
0.862121
0.870326
0.85593
0.799911
0.730639
0.688171
-0.506914
-0.437852
-0.371035
-0.287628
-0.189187
-0.0848925
0.0266701
0.145703
0.272247
0.408054
0.539231
0.652185
0.750367
0.827898
0.82933
0.828675
0.774667
0.701845
0.624331
0.58122
-0.468562
-0.452645
-0.391679
-0.307172
-0.210974
-0.106721
0.00380974
0.12221
0.247809
0.382301
0.511762
0.623428
0.714482
0.797675
0.780335
0.661968
0.553685
0.478406
0.40387
0.432986
-0.498865
-0.46983
-0.407983
-0.324323
-0.228166
-0.124034
-0.0132286
0.104539
0.229082
0.361808
0.488542
0.596021
0.677289
0.721385
0.669761
0.516222
0.385462
0.292117
0.192398
0.241118
-0.522189
-0.490234
-0.427254
-0.343471
-0.247198
-0.143177
-0.0324602
0.0844682
0.20761
0.337935
0.460937
0.562128
0.634291
0.643443
0.533166
0.357172
0.202062
0.0814385
-0.0507099
-0.0185811
-0.544963
-0.511521
-0.447411
-0.362726
-0.266386
-0.162531
-0.0523543
0.0635967
0.185129
0.31265
0.430916
0.52406
0.580534
0.557898
0.395756
0.19691
0.00484418
-0.164329
-0.35349
-0.372898
-0.567137
-0.533273
-0.468306
-0.382867
-0.286409
-0.182796
-0.0732923
0.0415482
0.161199
0.285494
0.398264
0.483195
0.51976
0.460128
0.264859
0.0522219
-0.166363
-0.356475
-0.598783
-0.89506
-0.589598
-0.555743
-0.490266
-0.404369
-0.307751
-0.204333
-0.0954367
0.0182487
0.135894
0.25667
0.363584
0.439895
0.454696
0.343519
0.150843
-0.0610066
-0.266611
-0.439773
-0.50996
-0.588496
-0.61329
-0.579389
-0.513637
-0.427543
-0.330902
-0.227777
-0.119587
-0.0072399
0.108068
0.22477
0.325396
0.390391
0.379807
0.234853
0.0493729
-0.143421
-0.307713
-0.401557
-0.42588
-0.441724
-0.638517
-0.604505
-0.538585
-0.452462
-0.355989
-0.253335
-0.1461
-0.0354023
0.0771364
0.189093
0.282932
0.333368
0.304913
0.133844
-0.0426579
-0.21033
-0.33819
-0.377744
-0.390608
-0.391924
-0.665476
-0.631262
-0.565173
-0.479118
-0.38296
-0.281011
-0.174992
-0.066288
0.0430329
0.149654
0.235756
0.271624
0.222819
0.0405309
-0.126915
-0.277099
-0.354132
-0.371252
-0.372646
-0.372468
-0.694224
-0.659721
-0.593426
-0.507511
-0.41183
-0.310793
-0.206266
-0.0999097
0.00576907
0.106531
0.183992
0.207841
0.122528
-0.0447293
-0.203771
-0.32765
-0.36469
-0.363025
-0.362139
-0.361552
-0.724474
-0.689705
-0.62324
-0.537552
-0.442513
-0.342625
-0.23989
-0.136239
-0.0346133
0.0598309
0.128512
0.135141
0.031271
-0.123824
-0.264668
-0.341758
-0.352147
-0.35482
-0.355503
-0.355238
-0.755676
-0.720759
-0.654357
-0.569014
-0.47482
-0.37635
-0.275712
-0.175142
-0.0779259
0.00991199
0.0698181
0.0612595
-0.0507437
-0.190905
-0.309006
-0.341209
-0.349782
-0.351295
-0.351094
-0.350815
-0.787364
-0.752337
-0.68632
-0.6015
-0.508406
-0.411645
-0.31345
-0.216327
-0.123885
-0.0425226
0.00695498
-0.00879854
-0.126106
-0.245956
-0.339354
-0.356733
-0.348662
-0.347963
-0.348013
-0.347805
-0.818634
-0.783719
-0.718269
-0.634408
-0.542729
-0.448037
-0.352654
-0.259317
-0.172009
-0.0968143
-0.057204
-0.0727189
-0.192163
-0.289617
-0.341915
-0.352134
-0.349249
-0.347686
-0.346987
-0.346724
-0.847937
-0.813727
-0.749224
-0.66682
-0.577019
-0.484826
-0.392668
-0.30343
-0.221489
-0.152398
-0.116457
-0.142842
-0.244561
-0.331597
-0.335168
-0.34942
-0.350778
-0.347861
-0.346699
-0.346135
-0.873657
-0.840518
-0.778053
-0.697553
-0.610242
-0.521078
-0.432628
-0.347815
-0.271213
-0.208408
-0.172487
-0.209483
-0.286238
-0.353817
-0.380223
-0.363789
-0.355318
-0.352027
-0.350745
-0.349964
-0.893668
-0.86225
-0.802663
-0.725189
-0.641107
-0.555652
-0.471443
-0.391439
-0.320074
-0.263514
-0.229822
-0.262444
-0.311203
-0.367833
-0.408415
-0.378609
-0.365211
-0.363268
-0.362024
-0.361064
-0.905727
-0.877009
-0.821195
-0.747826
-0.668114
-0.587217
-0.507907
-0.43308
-0.36702
-0.316225
-0.284897
-0.306576
-0.313512
-0.326333
-0.329803
-0.355109
-0.371125
-0.375986
-0.375843
-0.376164
-0.907202
-0.882526
-0.831657
-0.76366
-0.689555
-0.614339
-0.540661
-0.471453
-0.410869
-0.365361
-0.3311
-0.352498
-0.341197
-0.302354
-0.329137
-0.363839
-0.376705
-0.380654
-0.382698
-0.383729
-0.895879
-0.876016
-0.831867
-0.771081
-0.703941
-0.635517
-0.568326
-0.505179
-0.450304
-0.409643
-0.37354
-0.405059
-0.460942
-0.476614
-0.464258
-0.435156
-0.414302
-0.40579
-0.402915
-0.402096
-0.869785
-0.854865
-0.820016
-0.768825
-0.710252
-0.649712
-0.589652
-0.532792
-0.48355
-0.447669
-0.410763
-0.445193
-0.519674
-0.70172
-0.608896
-0.487114
-0.422591
-0.402149
-0.394554
-0.391687
-0.831457
-0.821836
-0.796901
-0.757033
-0.708446
-0.656626
-0.603887
-0.553078
-0.508518
-0.476735
-0.448674
-0.412846
-0.353985
-0.346408
-0.338585
-0.316851
-0.315964
-0.319732
-0.318335
-0.316458
-0.787584
-0.782112
-0.767358
-0.738505
-0.700469
-0.657049
-0.611234
-0.565386
-0.523789
-0.491677
-0.460297
-0.355441
-0.15152
0.0756328
0.0565364
-0.0909025
-0.20779
-0.264099
-0.280255
-0.2831
-0.747958
-0.744631
-0.737586
-0.718702
-0.689346
-0.653008
-0.612829
-0.570652
-0.529152
-0.494241
-0.468191
-0.39935
-0.329891
-0.206185
-0.210823
-0.365493
-0.45085
-0.486086
-0.478123
-0.49221
-0.719361
-0.717255
-0.713634
-0.702117
-0.679064
-0.647719
-0.610982
-0.570208
-0.52714
-0.488439
-0.461654
-0.504145
-0.791264
-1.33776
-1.90791
-2.12079
-2.04281
-1.821
-1.61076
-1.49468
-0.697826
-0.697052
-0.69587
-0.690098
-0.672484
-0.643944
-0.607894
-0.565926
-0.519345
-0.467818
-0.431215
-0.445872
-0.669833
-0.97902
-1.28099
-1.3315
-1.17466
-0.977101
-0.815096
-0.732746
-0.685191
-0.684936
-0.68439
-0.681716
-0.669071
-0.641935
-0.604439
-0.559895
-0.506455
-0.443738
-0.388901
-0.334285
-0.282475
-0.153423
0.0161049
0.212397
0.434821
0.582413
0.663071
0.697661
-0.67625
-0.676111
-0.675609
-0.674539
-0.666573
-0.641568
-0.60277
-0.55365
-0.494403
-0.423218
-0.336158
-0.242191
-0.0540843
0.324065
0.736368
1.15006
1.45876
1.60473
1.66212
1.67678
-0.670493
-0.670282
-0.669639
-0.669058
-0.664391
-0.644046
-0.603617
-0.549683
-0.484479
-0.399623
-0.296152
-0.188131
0.0525261
0.477442
0.936199
1.35701
1.65966
1.81093
1.86154
1.86917
-0.668796
-0.668527
-0.667692
-0.666067
-0.665033
-0.650045
-0.608119
-0.550125
-0.478408
-0.388584
-0.280624
-0.166069
0.0284387
0.411514
0.793115
1.13748
1.38254
1.49843
1.53267
1.53752
-0.670537
-0.671296
-0.673367
-0.676519
-0.678569
-0.662787
-0.61666
-0.555758
-0.480387
-0.387385
-0.28174
-0.175269
-0.0273734
0.272308
0.556006
0.785977
0.939416
1.0114
1.04011
1.04844
-0.672224
-0.673578
-0.67627
-0.681451
-0.684935
-0.666787
-0.625394
-0.567257
-0.490169
-0.395592
-0.296817
-0.201038
-0.0856039
0.129663
0.332646
0.483906
0.582749
0.634735
0.662472
0.673133
-0.694576
-0.694103
-0.682992
-0.653227
-0.624996
-0.630359
-0.631751
-0.585683
-0.505364
-0.408209
-0.3171
-0.23848
-0.153329
0.0211022
0.181796
0.299056
0.383425
0.432615
0.457853
0.46583
-0.747324
-0.743731
-0.728489
-0.69282
-0.664465
-0.670273
-0.677196
-0.616874
-0.523754
-0.421671
-0.33617
-0.267276
-0.199638
-0.0639261
0.0687143
0.174161
0.253495
0.301114
0.322394
0.327489
-0.852961
-0.861962
-0.894058
-0.935519
-0.937393
-0.903967
-0.809811
-0.672358
-0.544082
-0.431507
-0.346179
-0.286705
-0.234663
-0.121226
-0.00870916
0.0787866
0.147865
0.189231
0.20634
0.208916
-0.994496
-1.02049
-1.07304
-1.11632
-1.11938
-1.0685
-0.908989
-0.714937
-0.553782
-0.431256
-0.34631
-0.290649
-0.245303
-0.156344
-0.0663769
0.00348649
0.0576136
0.0886459
0.100399
0.101669
-1.01091
-1.03176
-1.07003
-1.10242
-1.10417
-1.04641
-0.880858
-0.6889
-0.531269
-0.412273
-0.332198
-0.280103
-0.234779
-0.171125
-0.105217
-0.0514456
-0.00999943
0.012689
0.0220627
0.0221583
-0.822716
-0.844101
-0.88038
-0.915937
-0.923005
-0.865887
-0.725533
-0.584141
-0.4639
-0.370464
-0.304635
-0.258592
-0.22161
-0.177854
-0.132117
-0.0928617
-0.0634377
-0.0461821
-0.0408593
-0.0416998
-0.486162
-0.501524
-0.530566
-0.564873
-0.585394
-0.565905
-0.505651
-0.434762
-0.369887
-0.312944
-0.266917
-0.232807
-0.209295
-0.182853
-0.151379
-0.124368
-0.10423
-0.0938035
-0.0907665
-0.0924064
-0.157353
-0.165468
-0.184636
-0.21559
-0.249866
-0.273436
-0.286146
-0.284777
-0.271789
-0.249806
-0.226433
-0.206107
-0.192624
-0.18149
-0.165667
-0.151821
-0.142669
-0.139312
-0.139145
-0.140672
0.0469308
0.0424038
0.0288809
0.00133514
-0.0416627
-0.0927146
-0.136528
-0.169195
-0.187814
-0.192593
-0.18675
-0.178029
-0.175038
-0.174075
-0.17336
-0.174991
-0.177835
-0.182747
-0.185064
-0.185807
0.124796
0.12221
0.112224
0.0890417
0.0497944
-0.000265278
-0.0516882
-0.0962719
-0.128903
-0.148029
-0.15335
-0.15027
-0.14861
-0.159037
-0.17324
-0.186605
-0.199384
-0.208483
-0.2115
-0.211777
0.132255
0.130461
0.123188
0.105759
0.0754291
0.0350274
-0.0100796
-0.0534563
-0.0905288
-0.117718
-0.131128
-0.132059
-0.132348
-0.150554
-0.171345
-0.189168
-0.203562
-0.211797
-0.214098
-0.214338
0.111511
0.110324
0.105337
0.0931565
0.0715339
0.0414994
0.00536716
-0.0322465
-0.0681884
-0.0998344
-0.122516
-0.134819
-0.141837
-0.158123
-0.173911
-0.186771
-0.196614
-0.201199
-0.202331
-0.202708
0.0843459
0.0835959
0.0802956
0.0720715
0.0571052
0.0354088
0.0076799
-0.023465
-0.0565067
-0.0907135
-0.12491
-0.15816
-0.177679
-0.181015
-0.181268
-0.184479
-0.186937
-0.187902
-0.188193
-0.188601
0.0592091
0.0587214
0.0566274
0.0512272
0.0410677
0.0256803
0.00497707
-0.0199812
-0.0490775
-0.0838594
-0.12632
-0.176642
-0.206686
-0.195457
-0.184176
-0.177698
-0.176283
-0.175734
-0.175517
-0.175706
0.0391058
0.0387967
0.0374435
0.033948
0.0271432
0.0164161
0.00131368
-0.0180066
-0.0421138
-0.0733509
-0.115068
-0.165948
-0.18922
-0.175067
-0.162677
-0.159073
-0.159141
-0.159533
-0.15946
-0.159472
0.0239207
0.0237615
0.0229552
0.0208308
0.0165086
0.00932527
-0.0011797
-0.0152445
-0.0333744
-0.0571517
-0.087881
-0.120466
-0.130665
-0.125967
-0.124164
-0.128642
-0.133211
-0.135564
-0.135885
-0.135735
0.0131157
0.0130418
0.0126087
0.0114532
0.00896797
0.00459427
-0.00208788
-0.0113079
-0.0232956
-0.0387574
-0.0542068
-0.0639862
-0.063859
-0.0672222
-0.0777131
-0.0891156
-0.0971795
-0.100809
-0.101467
-0.101257
0.00581276
0.00582059
0.00566537
0.00516838
0.00396901
0.00177486
-0.0017177
-0.00656378
-0.0127027
-0.0200141
-0.0240633
-0.0174614
-0.0058527
-0.0202615
-0.0348986
-0.0464481
-0.0538051
-0.0563971
-0.0570274
-0.0569181
0.000700763
0.000752383
0.000717802
0.000784804
0.000905188
0.000765825
0.00031699
-0.00045793
-0.00151418
-0.00292048
-0.00335112
-0.00091092
0.00255421
0.00206878
-0.00284236
-0.00738596
-0.00943453
-0.00954962
-0.0104006
-0.0104965
-0.12752
0.038375
0.231739
0.400448
0.534809
0.640075
0.726814
0.80074
0.834628
0.811405
0.1721
0.291944
0.420764
0.531889
0.625312
0.702415
0.764815
0.809171
0.831377
0.843563
0.388847
0.470956
0.558969
0.636547
0.70318
0.758906
0.803245
0.835681
0.859197
0.877253
0.548279
0.607106
0.668016
0.724637
0.773796
0.815565
0.849908
0.877345
0.900013
0.918357
0.67275
0.715482
0.761107
0.804558
0.842967
0.876534
0.905293
0.92926
0.949568
0.967431
0.776466
0.80912
0.847006
0.882329
0.914776
0.943883
0.969337
0.990752
1.00855
1.02592
0.868639
0.897205
0.931024
0.963031
0.99287
1.01996
1.04363
1.06331
1.07878
1.09586
0.957003
0.986127
1.02005
1.05201
1.08155
1.10808
1.1309
1.14936
1.16271
1.17974
1.05218
1.08534
1.12193
1.15546
1.18547
1.21162
1.23354
1.2508
1.26266
1.28005
1.1671
1.20489
1.2435
1.27772
1.30704
1.33177
1.35212
1.368
1.37946
1.39753
1.31199
1.35051
1.38663
1.4173
1.44297
1.46505
1.48409
1.49961
1.51204
1.53003
1.48703
1.51865
1.54482
1.56725
1.58722
1.60593
1.62364
1.64011
1.65546
1.67352
1.67563
1.69283
1.70786
1.72408
1.73998
1.75451
1.76771
1.78163
1.79917
1.81932
1.85734
1.86687
1.87841
1.88922
1.8985
1.90808
1.91886
1.93022
1.94158
1.95694
2.06457
2.06823
2.05328
2.03847
2.03219
2.03786
2.05634
2.08665
2.11883
2.14548
2.37089
2.23602
2.15938
2.11699
2.09957
2.10353
2.13093
2.18735
2.28996
2.51433
0.687438
0.685311
0.680828
0.672206
0.659985
0.647862
0.637642
0.62976
0.62416
0.620931
0.620607
0.623374
0.6285
0.635739
0.645138
0.656685
0.669341
0.680379
0.686492
0.689548
0.611884
0.617731
0.624066
0.628561
0.631036
0.630717
0.627989
0.624192
0.620701
0.618468
0.618353
0.620581
0.624267
0.628572
0.632391
0.634282
0.633351
0.629874
0.624713
0.618093
0.603445
0.605742
0.609147
0.612147
0.614227
0.61573
0.616495
0.616193
0.615188
0.614334
0.614544
0.616003
0.617844
0.619167
0.61936
0.618479
0.616937
0.614606
0.611346
0.608427
0.597915
0.599001
0.600836
0.603218
0.605247
0.606683
0.607715
0.608483
0.608908
0.609163
0.609693
0.610536
0.611162
0.611249
0.610851
0.610013
0.608552
0.606474
0.604392
0.60301
0.592687
0.593349
0.594459
0.596168
0.597956
0.599597
0.600906
0.60194
0.60285
0.603677
0.604451
0.605044
0.605269
0.605127
0.604577
0.603535
0.602117
0.600581
0.599268
0.598489
0.587678
0.588138
0.588926
0.590229
0.591723
0.593251
0.59473
0.59605
0.597216
0.598315
0.599282
0.599898
0.600081
0.599835
0.599159
0.598186
0.597073
0.595949
0.59504
0.594524
0.582809
0.583153
0.583766
0.58484
0.586142
0.587527
0.588983
0.590453
0.591861
0.59319
0.594361
0.59511
0.595332
0.595091
0.594518
0.593761
0.592926
0.592071
0.591406
0.591029
0.578024
0.578292
0.578787
0.579701
0.58088
0.58219
0.583603
0.585119
0.5867
0.588276
0.589695
0.590633
0.590989
0.590911
0.59055
0.590016
0.589387
0.588762
0.588279
0.587991
0.573241
0.573453
0.573865
0.57467
0.575769
0.577033
0.57844
0.580006
0.581724
0.583545
0.58526
0.58647
0.587074
0.587244
0.587119
0.58681
0.586392
0.585962
0.585619
0.585394
0.56837
0.568541
0.568894
0.569626
0.570681
0.571925
0.573363
0.575017
0.576898
0.578982
0.581051
0.582629
0.583566
0.584031
0.584166
0.584092
0.583891
0.583637
0.583411
0.583233
0.563322
0.56346
0.563772
0.56446
0.565499
0.56677
0.568277
0.570062
0.57216
0.574565
0.577067
0.579103
0.580439
0.581248
0.581677
0.581856
0.58187
0.581788
0.581662
0.581519
0.558006
0.558116
0.558401
0.55907
0.560129
0.561471
0.563093
0.565063
0.567446
0.570256
0.573291
0.575878
0.577686
0.578892
0.579656
0.580111
0.580351
0.580442
0.580404
0.580287
0.552324
0.552411
0.552679
0.553354
0.554469
0.555925
0.557716
0.55994
0.562686
0.566008
0.569696
0.572944
0.575311
0.576979
0.578121
0.578899
0.579392
0.579647
0.579686
0.579591
0.546165
0.546232
0.546493
0.547196
0.548405
0.550022
0.552046
0.554603
0.557812
0.561771
0.566255
0.570297
0.57333
0.575541
0.57712
0.57826
0.579032
0.579466
0.579579
0.5795
0.539398
0.539445
0.539708
0.540462
0.541804
0.543639
0.545969
0.548952
0.552747
0.557492
0.562944
0.56794
0.571763
0.574616
0.576709
0.578255
0.579351
0.579978
0.580164
0.580099
0.531868
0.531896
0.532163
0.53299
0.53451
0.536628
0.53935
0.542873
0.5474
0.553111
0.559737
0.565878
0.570638
0.574247
0.576949
0.578982
0.580445
0.581279
0.581537
0.581482
0.523364
0.523377
0.523653
0.52458
0.526336
0.528799
0.532026
0.536233
0.54167
0.548568
0.556615
0.564121
0.569992
0.574489
0.577912
0.580528
0.582407
0.58347
0.583802
0.583753
0.513591
0.513576
0.513906
0.514976
0.517018
0.51994
0.523806
0.528871
0.535443
0.543799
0.553563
0.562692
0.569871
0.575417
0.579682
0.582979
0.585343
0.586655
0.587059
0.587013
0.502243
0.502203
0.502581
0.503844
0.506257
0.50977
0.51445
0.520601
0.528594
0.538743
0.550573
0.561621
0.570329
0.577101
0.582356
0.586433
0.589352
0.590931
0.591404
0.591356
0.488832
0.488764
0.489222
0.490739
0.493639
0.49792
0.503654
0.511199
0.520982
0.533341
0.547647
0.560945
0.57142
0.579602
0.58601
0.590988
0.594521
0.596373
0.596905
0.59685
0.472697
0.472602
0.473186
0.475057
0.47861
0.48392
0.49105
0.500413
0.512476
0.527557
0.544812
0.560719
0.573212
0.582993
0.590705
0.5967
0.6009
0.603016
0.603589
0.60352
0.452892
0.452769
0.453558
0.455947
0.460418
0.467157
0.476194
0.48798
0.502974
0.521408
0.54214
0.56102
0.575772
0.587335
0.596468
0.603604
0.608483
0.610829
0.611415
0.611324
0.427979
0.427841
0.428966
0.432159
0.438023
0.446855
0.458597
0.473679
0.492454
0.514986
0.539756
0.561955
0.579172
0.592666
0.603348
0.611668
0.617187
0.619688
0.620247
0.620127
0.395625
0.39551
0.397252
0.401839
0.410016
0.422113
0.437824
0.45743
0.481045
0.508496
0.537854
0.563658
0.583479
0.599
0.611294
0.620798
0.62682
0.629353
0.629836
0.62968
0.351639
0.35169
0.35479
0.362282
0.374753
0.392173
0.413765
0.439466
0.469104
0.502288
0.536696
0.566285
0.588773
0.60634
0.620223
0.630792
0.63706
0.639449
0.639807
0.639618
0.288165
0.289391
0.296969
0.310946
0.331273
0.357164
0.387039
0.420506
0.457272
0.49684
0.53657
0.569983
0.595082
0.614605
0.629908
0.641217
0.647424
0.649429
0.649616
0.649408
0.212959
0.214759
0.229266
0.253272
0.284592
0.320487
0.359385
0.401109
0.445483
0.49204
0.537869
0.57592
0.604292
0.626197
0.643094
0.65506
0.660957
0.662637
0.662779
0.662656
0.135409
0.141672
0.163091
0.197408
0.239178
0.284783
0.332662
0.382688
0.434743
0.488381
0.540446
0.583239
0.614891
0.639215
0.657872
0.669953
0.675067
0.676243
0.676327
0.676279
0.0719565
0.080557
0.106559
0.147933
0.197896
0.251773
0.307745
0.365536
0.424917
0.485372
0.543401
0.590634
0.625318
0.651656
0.671263
0.683342
0.688142
0.689225
0.689342
0.689351
0.0203591
0.0295585
0.0591274
0.105763
0.161904
0.222449
0.285268
0.349922
0.415998
0.482836
0.546522
0.597977
0.635484
0.663738
0.684448
0.696771
0.701345
0.702378
0.702565
0.702624
-0.0227843
-0.0133047
0.0187201
0.0693662
0.130583
0.196664
0.265293
0.335949
0.408048
0.480787
0.549825
0.605331
0.645591
0.675749
0.69757
0.710202
0.714871
0.716111
0.716325
0.716418
-0.059845
-0.0502618
-0.0164012
0.0374556
0.102873
0.173678
0.247373
0.323355
0.40093
0.479154
0.553263
0.61267
0.655618
0.687644
0.710648
0.723948
0.728929
0.730258
0.730467
0.730564
-0.0925081
-0.0829005
-0.0476364
0.00892838
0.0778665
0.15275
0.230938
0.311727
0.394335
0.477685
0.556628
0.619815
0.665394
0.699299
0.72352
0.737517
0.742887
0.744309
0.744513
0.744588
-0.122072
-0.112438
-0.076026
-0.0171243
0.054834
0.133294
0.215484
0.300638
0.387898
0.4761
0.559701
0.626563
0.674705
0.710394
0.735778
0.750498
0.756268
0.757787
0.757979
0.758033
-0.149435
-0.139768
-0.102366
-0.0414189
0.033215
0.114843
0.200616
0.289751
0.381351
0.474167
0.562284
0.632744
0.683381
0.720793
0.747272
0.762619
0.768813
0.770404
0.770569
0.770594
-0.175177
-0.165458
-0.127136
-0.0644633
0.0125846
0.0970457
0.186053
0.278833
0.374471
0.471682
0.564215
0.638245
0.691333
0.730401
0.757896
0.773738
0.780205
0.781849
0.781997
0.781989
-0.199795
-0.18995
-0.150748
-0.0865651
-0.00734084
0.0796524
0.171584
0.267694
0.367098
0.468509
0.56539
0.64301
0.698547
0.739189
0.76757
0.783773
0.790376
0.792039
0.79217
0.792132
-0.223572
-0.21352
-0.173599
-0.107916
-0.0267586
0.0624929
0.157065
0.256221
0.359127
0.464552
0.565724
0.646997
0.705038
0.747222
0.776347
0.792774
0.799379
0.801016
0.801128
0.801064
-0.24662
-0.236377
-0.195749
-0.128665
-0.045798
0.0454821
0.142422
0.244348
0.350492
0.459721
0.565142
0.65019
0.710862
0.754631
0.784385
0.800864
0.807361
0.808921
0.808992
0.808907
-0.269133
-0.258614
-0.217247
-0.148911
-0.0645182
0.0285682
0.127624
0.232047
0.341161
0.453981
0.563583
0.65256
0.716086
0.761557
0.791862
0.808219
0.814466
0.815886
0.815905
0.815798
-0.291065
-0.28029
-0.23823
-0.16871
-0.0829391
0.0117465
0.112683
0.219335
0.331143
0.447303
0.560988
0.65406
0.720761
0.768163
0.798997
0.815008
0.820819
0.822018
0.821968
0.821843
-0.312491
-0.301431
-0.258636
-0.188059
-0.101055
-0.00496479
0.097627
0.206256
0.320472
0.439691
0.557306
0.654621
0.72489
0.774597
0.806055
0.821487
0.826536
0.827371
0.827241
0.827111
-0.33326
-0.321984
-0.278461
-0.206923
-0.118832
-0.021505
0.0825112
0.192869
0.309207
0.431187
0.552502
0.654156
0.728414
0.780952
0.81337
0.82808
0.831948
0.832103
0.831828
0.831718
-0.353515
-0.341913
-0.297706
-0.225291
-0.136245
-0.0378432
0.0674182
0.179245
0.297426
0.421859
0.546567
0.652551
0.731197
0.787209
0.821239
0.83545
0.837732
0.836549
0.835841
0.835779
-0.373098
-0.361198
-0.316348
-0.24313
-0.153222
-0.053901
0.0524224
0.165498
0.285229
0.41176
0.539529
0.649689
0.733037
0.793178
0.82972
0.844343
0.845248
0.84192
0.83971
0.839016
-0.392076
-0.37989
-0.334338
-0.260395
-0.169735
-0.0696138
0.0376029
0.151701
0.272723
0.401018
0.531441
0.645448
0.733681
0.798483
0.838386
0.854977
0.856137
0.851077
0.844772
0.836867
-0.41037
-0.397946
-0.351772
-0.27724
-0.185988
-0.085246
0.0226376
0.137473
0.259482
0.389161
0.521809
0.639318
0.732693
0.802877
0.846717
0.866894
0.870948
0.865502
0.854521
0.849947
-0.427934