/*--------------------------------*- C++ -*----------------------------------*\
| =========                 |                                                 |
| \\      /  F ield         | OpenFOAM: The Open Source CFD Toolbox           |
|  \\    /   O peration     | Version:  2112                                  |
|   \\  /    A nd           | Website:  www.openfoam.com                      |
|    \\/     M anipulation  |                                                 |
\*---------------------------------------------------------------------------*/
FoamFile
{
    version     2.0;
    format      ascii;
    arch        "LSB;label=32;scalar=64";
    class       volVectorField;
    location    "66.5";
    object      U;
}
// * * * * * * * * * * * * * * * * * * * * * * * * * * * * * * * * * * * * * //

dimensions      [0 1 -1 0 0 0 0];

internalField   nonuniform List<vector> 
8800
(
(0.980137 -0.0915203 0)
(1.00234 -0.0587302 0)
(0.999583 -0.0321286 0)
(0.999984 -0.0165214 0)
(1.00009 -0.00884096 0)
(1.00011 -0.00509629 0)
(1.00007 -0.00299228 0)
(1.00002 -0.00168095 0)
(0.999999 -0.000778671 0)
(1.00006 -7.87696e-05 0)
(0.99998 0.000631009 0)
(0.99999 0.0013889 0)
(1.00003 0.00241193 0)
(1.00005 0.00400946 0)
(1.00004 0.00675208 0)
(0.999998 0.0120523 0)
(0.999803 0.023095 0)
(0.999033 0.0431555 0)
(1.00724 0.0790249 0)
(0.775026 0.0478395 0)
(0.358997 -0.014748 0)
(1.04651 -0.072478 0)
(1.08848 -0.0660143 0)
(1.04944 -0.050906 0)
(1.02556 -0.0376834 0)
(1.01277 -0.025876 0)
(1.0066 -0.0166772 0)
(1.00364 -0.0101833 0)
(1.00219 -0.00554819 0)
(1.00151 -0.00195005 0)
(1.00138 0.00126486 0)
(1.00172 0.00457642 0)
(1.0027 0.00846509 0)
(1.00476 0.0137689 0)
(1.00898 0.021438 0)
(1.01794 0.0319237 0)
(1.03579 0.0446917 0)
(1.06742 0.0581303 0)
(1.09468 0.0699509 0)
(0.845609 0.055509 0)
(0.217816 -0.00137974 0)
(1.0757 -0.0506335 0)
(1.09943 -0.0489123 0)
(1.06441 -0.0399914 0)
(1.03994 -0.0325271 0)
(1.02385 -0.0253067 0)
(1.01405 -0.0180783 0)
(1.00853 -0.0114475 0)
(1.00566 -0.00568213 0)
(1.00448 -0.00038481 0)
(1.00478 0.00472916 0)
(1.00661 0.0100177 0)
(1.01057 0.0159775 0)
(1.01789 0.0227177 0)
(1.03048 0.0298096 0)
(1.05046 0.0368871 0)
(1.08002 0.0446551 0)
(1.10563 0.05197 0)
(0.943213 0.0410246 0)
(0.217149 0.00140681 0)
(0.176693 -0.000627732 0)
(1.01947 -0.0354387 0)
(1.10575 -0.0413716 0)
(1.07802 -0.0363472 0)
(1.05251 -0.0302934 0)
(1.03529 -0.0244058 0)
(1.02342 -0.0185969 0)
(1.01558 -0.0125846 0)
(1.01096 -0.00647546 0)
(1.0089 -0.000227918 0)
(1.00941 0.00593319 0)
(1.01248 0.0118474 0)
(1.01845 0.0175999 0)
(1.02805 0.023152 0)
(1.04222 0.0286863 0)
(1.06303 0.0344532 0)
(1.09382 0.0403255 0)
(1.09436 0.0418335 0)
(0.830055 0.0227999 0)
(0.175552 0.000649515 0)
(0.154809 -0.000461429 0)
(0.958322 -0.0256592 0)
(1.10448 -0.0350618 0)
(1.08815 -0.0326 0)
(1.06136 -0.0280812 0)
(1.04332 -0.0231038 0)
(1.03091 -0.017784 0)
(1.02228 -0.0122233 0)
(1.01671 -0.00629494 0)
(1.01402 0.000172211 0)
(1.01463 0.00663601 0)
(1.0184 0.0125063 0)
(1.0252 0.0178019 0)
(1.03533 0.0227781 0)
(1.05003 0.0275829 0)
(1.07196 0.0320051 0)
(1.10093 0.0358643 0)
(1.06955 0.034047 0)
(0.742273 0.014483 0)
(0.153098 0.000485878 0)
(0.140155 -0.000333192 0)
(0.901406 -0.0192881 0)
(1.09694 -0.0301535 0)
(1.09633 -0.0292578 0)
(1.0691 -0.02546 0)
(1.05027 -0.0213561 0)
(1.03728 -0.0166347 0)
(1.02826 -0.0113623 0)
(1.02228 -0.00561743 0)
(1.01925 0.000755343 0)
(1.01983 0.00713337 0)
(1.02379 0.0127801 0)
(1.03083 0.0177347 0)
(1.04133 0.0221656 0)
(1.05665 0.0260894 0)
(1.07944 0.0295826 0)
(1.10318 0.0322739 0)
(1.03766 0.0282311 0)
(0.675308 0.0103442 0)
(0.137743 0.000362194 0)
(0.129452 -0.000251582 0)
(0.851649 -0.0148851 0)
(1.08466 -0.02604 0)
(1.10205 -0.0263622 0)
(1.07596 -0.0230225 0)
(1.05662 -0.0193457 0)
(1.0432 -0.0151236 0)
(1.03381 -0.0102338 0)
(1.02755 -0.00470814 0)
(1.02429 0.00148108 0)
(1.02473 0.00764265 0)
(1.0287 0.013005 0)
(1.03589 0.0175335 0)
(1.04666 0.0213551 0)
(1.06235 0.0246775 0)
(1.08558 0.0276889 0)
(1.10234 0.0294734 0)
(1.00283 0.023715 0)
(0.623078 0.00795039 0)
(0.126184 0.000286833 0)
(0.121306 -0.000192584 0)
(0.809289 -0.0116937 0)
(1.06944 -0.022432 0)
(1.10563 -0.0237133 0)
(1.08225 -0.0208231 0)
(1.06245 -0.0173707 0)
(1.04876 -0.0134279 0)
(1.03911 -0.0088565 0)
(1.03257 -0.00360216 0)
(1.02906 0.00235619 0)
(1.02933 0.00824895 0)
(1.03324 0.0132575 0)
(1.04048 0.0173269 0)
(1.05134 0.020669 0)
(1.06727 0.0235926 0)
(1.09088 0.0262835 0)
(1.09861 0.0271537 0)
(0.967534 0.0201708 0)
(0.581087 0.00639302 0)
(0.116997 0.000235422 0)
(0.115004 -0.00014777 0)
(0.773608 -0.00930337 0)
(1.0527 -0.0192528 0)
(1.10803 -0.0212621 0)
(1.08816 -0.0187505 0)
(1.06795 -0.0154561 0)
(1.054 -0.0116789 0)
(1.04415 -0.00730594 0)
(1.03738 -0.0022872 0)
(1.0336 0.00341244 0)
(1.03364 0.008995 0)
(1.03741 0.0136229 0)
(1.04458 0.0172852 0)
(1.05545 0.0202452 0)
(1.07161 0.0228377 0)
(1.09491 0.0251787 0)
(1.09204 0.0252387 0)
(0.933129 0.0174346 0)
(0.546322 0.00532785 0)
(0.109428 0.000199765 0)
(0.110096 -0.000112319 0)
(0.743683 -0.00744968 0)
(1.03549 -0.0164306 0)
(1.10949 -0.0189545 0)
(1.09378 -0.0167528 0)
(1.07327 -0.0135557 0)
(1.05903 -0.00987416 0)
(1.04899 -0.00562224 0)
(1.042 -0.000770972 0)
(1.03793 0.0046837 0)
(1.03767 0.00994754 0)
(1.04121 0.0142148 0)
(1.04824 0.0175134 0)
(1.05909 0.0201215 0)
(1.07546 0.0224209 0)
(1.09764 0.0243849 0)
(1.08301 0.0236754 0)
(0.900194 0.0153577 0)
(0.516711 0.00458675 0)
(0.102982 0.000175289 0)
(0.106292 -8.29927e-05 0)
(0.718694 -0.00595578 0)
(1.01867 -0.0138942 0)
(1.11011 -0.0167211 0)
(1.09928 -0.0147985 0)
(1.07851 -0.0116169 0)
(1.06397 -0.00796826 0)
(1.0537 -0.00377928 0)
(1.04645 0.000961972 0)
(1.04205 0.00621052 0)
(1.04142 0.0111737 0)
(1.04465 0.0151002 0)
(1.05149 0.0180497 0)
(1.0623 0.0203178 0)
(1.07886 0.0223548 0)
(1.09901 0.0239149 0)
(1.07188 0.0224595 0)
(0.86885 0.0138273 0)
(0.49078 0.00407814 0)
(0.0973083 0.000159457 0)
(0.1034 -5.76036e-05 0)
(0.697997 -0.00470338 0)
(1.00285 -0.0115777 0)
(1.11006 -0.0145257 0)
(1.10465 -0.0128027 0)
(1.08374 -0.0095885 0)
(1.06888 -0.00591517 0)
(1.05834 -0.00172733 0)
(1.05078 0.00295479 0)
(1.04598 0.00804698 0)
(1.0449 0.0127414 0)
(1.04775 0.016344 0)
(1.05437 0.0189554 0)
(1.06511 0.0208867 0)
(1.08181 0.0226654 0)
(1.09935 0.0238202 0)
(1.05895 0.0216036 0)
(0.838935 0.0127534 0)
(0.467427 0.003745 0)
(0.0921451 0.000150397 0)
(0.101301 -3.42005e-05 0)
(0.68112 -0.00360405 0)
(0.988483 -0.00941078 0)
(1.10955 -0.0122832 0)
(1.10982 -0.0106775 0)
(1.08906 -0.00741022 0)
(1.07384 -0.00365196 0)
(1.06298 0.000599736 0)
(1.05504 0.00527834 0)
(1.04975 0.0102654 0)
(1.04812 0.0147195 0)
(1.05052 0.0180035 0)
(1.05687 0.0202781 0)
(1.06751 0.0218695 0)
(1.08426 0.0233783 0)
(1.09868 0.0241062 0)
(1.04437 0.0211231 0)
(0.810123 0.012066 0)
(0.445787 0.00354927 0)
(0.0872874 0.000146689 0)
(0.099929 -1.1091e-05 0)
(0.667756 -0.00258849 0)
(0.975937 -0.00731937 0)
(1.10889 -0.00993349 0)
(1.11495 -0.00836049 0)
(1.09453 -0.00500362 0)
(1.07893 -0.00109735 0)
(1.06769 0.00327925 0)
(1.05929 0.00801909 0)
(1.05339 0.0129512 0)
(1.0511 0.0171926 0)
(1.05296 0.0201638 0)
(1.05898 0.0220892 0)
(1.06948 0.0233209 0)
(1.08626 0.0245646 0)
(1.09677 0.0248325 0)
(1.02818 0.0210048 0)
(0.781981 0.0117099 0)
(0.425154 0.00346521 0)
(0.0825692 0.00014728 0)
(0.0992689 1.38399e-05 0)
(0.65775 -0.00160249 0)
(0.965526 -0.00523133 0)
(1.1084 -0.00741344 0)
(1.12017 -0.00578285 0)
(1.10025 -0.00228883 0)
(1.08423 0.0018328 0)
(1.07254 0.00640348 0)
(1.06357 0.0112739 0)
(1.05693 0.0162034 0)
(1.05385 0.0202553 0)
(1.05506 0.0229146 0)
(1.06068 0.0244697 0)
(1.07103 0.0253288 0)
(1.08771 0.0262708 0)
(1.09356 0.0260181 0)
(1.01035 0.0212836 0)
(0.754031 0.0116563 0)
(0.404939 0.00347794 0)
(0.0778554 0.000151655 0)
(0.0993402 3.57212e-05 0)
(0.651068 -0.000599777 0)
(0.957554 -0.00307496 0)
(1.10844 -0.00464991 0)
(1.12563 -0.00285307 0)
(1.10632 0.000841068 0)
(1.08983 0.00525329 0)
(1.07759 0.0100956 0)
(1.06793 0.015167 0)
(1.06041 0.0201416 0)
(1.05637 0.0240158 0)
(1.05681 0.0263553 0)
(1.06195 0.0275323 0)
(1.07211 0.0279959 0)
(1.08841 0.0285703 0)
(1.08884 0.0276892 0)
(0.990708 0.0219963 0)
(0.725731 0.0118908 0)
(0.384602 0.003579 0)
(0.0730226 0.000159412 0)
(0.100181 7.17978e-05 0)
(0.647788 0.00043252 0)
(0.952338 -0.000778166 0)
(1.10936 -0.00156098 0)
(1.13154 0.000522791 0)
(1.11284 0.00449704 0)
(1.09583 0.00928811 0)
(1.08295 0.0144903 0)
(1.07245 0.0198409 0)
(1.06385 0.0249141 0)
(1.05866 0.0286234 0)
(1.05817 0.0306204 0)
(1.06275 0.0314029 0)
(1.07266 0.0314445 0)
(1.08821 0.0315944 0)
(1.08231 0.0299525 0)
(0.96898 0.0231634 0)
(0.696485 0.0124013 0)
(0.363638 0.00375947 0)
(0.0679609 0.000169946 0)
(0.102004 0.000103388 0)
(0.648298 0.00159879 0)
(0.950235 0.00175271 0)
(1.11159 0.0019686 0)
(1.13812 0.00443561 0)
(1.11996 0.00882908 0)
(1.10236 0.0140998 0)
(1.08869 0.0197592 0)
(1.07717 0.0254712 0)
(1.06726 0.0306949 0)
(1.0607 0.034248 0)
(1.05912 0.0358612 0)
(1.06302 0.0362154 0)
(1.07263 0.0358019 0)
(1.08686 0.0354637 0)
(1.07373 0.0328884 0)
(0.944764 0.0248354 0)
(0.665657 0.0131863 0)
(0.341574 0.00401417 0)
(0.0625756 0.000182684 0)
(0.104863 0.000151536 0)
(0.653038 0.003056 0)
(0.951732 0.00467036 0)
(1.11562 0.0060393 0)
(1.14557 0.00906737 0)
(1.12784 0.0140272 0)
(1.10956 0.0198964 0)
(1.09493 0.0261232 0)
(1.08214 0.0322784 0)
(1.07066 0.0376825 0)
(1.06246 0.0410476 0)
(1.05963 0.0422284 0)
(1.06271 0.0421275 0)
(1.07194 0.0412039 0)
(1.08418 0.0403485 0)
(1.06271 0.0366116 0)
(0.917513 0.0270433 0)
(0.632551 0.0142368 0)
(0.317953 0.00433381 0)
(0.0567843 0.00019681 0)
(0.109039 0.000214413 0)
(0.662429 0.00474636 0)
(0.957281 0.0081137 0)
(1.12195 0.0108304 0)
(1.1542 0.014609 0)
(1.1367 0.0203126 0)
(1.11758 0.0269247 0)
(1.10176 0.0338463 0)
(1.08742 0.0405268 0)
(1.07403 0.0461265 0)
(1.06391 0.0492494 0)
(1.05962 0.0499311 0)
(1.06173 0.0493201 0)
(1.07051 0.0478196 0)
(1.08026 0.0463543 0)
(1.04875 0.0412204 0)
(0.886534 0.0298196 0)
(0.596418 0.0155358 0)
(0.292354 0.00470471 0)
(0.050527 0.000211144 0)
(0.114873 0.000298684 0)
(0.677237 0.00684405 0)
(0.967513 0.0122837 0)
(1.13115 0.0165875 0)
(1.16435 0.021335 0)
(1.14678 0.0280118 0)
(1.12661 0.0355383 0)
(1.10929 0.0432851 0)
(1.09303 0.0505494 0)
(1.07733 0.0563128 0)
(1.06496 0.0590924 0)
(1.05891 0.0591404 0)
(1.06001 0.0579738 0)
(1.0683 0.0558456 0)
(1.07484 0.0536754 0)
(1.03121 0.0468017 0)
(0.850981 0.0331544 0)
(0.556492 0.017036 0)
(0.264431 0.00510076 0)
(0.0437805 0.000223731 0)
(0.122869 0.000420651 0)
(0.698433 0.00959543 0)
(0.98331 0.0174904 0)
(1.14387 0.0236559 0)
(1.17652 0.0296459 0)
(1.15841 0.0375939 0)
(1.13684 0.046224 0)
(1.1176 0.0549054 0)
(1.09894 0.0627504 0)
(1.08047 0.0685566 0)
(1.0655 0.070822 0)
(1.05747 0.0700944 0)
(1.05746 0.0682367 0)
(1.06523 0.0654019 0)
(1.06755 0.062335 0)
(1.00924 0.0534161 0)
(0.809861 0.0369991 0)
(0.512037 0.0186568 0)
(0.233974 0.00548481 0)
(0.0365741 0.000232305 0)
(0.133754 0.000593243 0)
(0.727242 0.0133693 0)
(1.00584 0.0242081 0)
(1.16092 0.032583 0)
(1.19131 0.0401351 0)
(1.17192 0.0497187 0)
(1.14844 0.059638 0)
(1.12668 0.0693037 0)
(1.10503 0.0776155 0)
(1.08327 0.0832179 0)
(1.06535 0.0846919 0)
(1.05518 0.0829951 0)
(1.05396 0.0803198 0)
(1.06096 0.0766156 0)
(1.0577 0.0725127 0)
(0.981765 0.0610248 0)
(0.762069 0.0412203 0)
(0.462454 0.0202621 0)
(0.200996 0.00580342 0)
(0.029009 0.000234047 0)
(0.148787 0.000871153 0)
(0.765699 0.0187801 0)
(1.03675 0.0332296 0)
(1.18321 0.0443227 0)
(1.20949 0.0539638 0)
(1.18764 0.0654317 0)
(1.16146 0.0767456 0)
(1.13639 0.0872635 0)
(1.11104 0.095709 0)
(1.08547 0.100659 0)
(1.0643 0.100926 0)
(1.05188 0.0979947 0)
(1.0494 0.0943608 0)
(1.05516 0.089869 0)
(1.04449 0.0842524 0)
(0.947377 0.0694947 0)
(0.70651 0.0455578 0)
(0.407475 0.0216503 0)
(0.165861 0.00598842 0)
(0.0212773 0.000225934 0)
(0.170182 0.00135211 0)
(0.81709 0.026996 0)
(1.07865 0.0461291 0)
(1.2119 0.0607434 0)
(1.23164 0.0731499 0)
(1.20565 0.0863626 0)
(1.17563 0.098869 0)
(1.14628 0.109724 0)
(1.1165 0.117626 0)
(1.08664 0.121209 0)
(1.06203 0.119693 0)
(1.04736 0.115174 0)
(1.04367 0.110411 0)
(1.04781 0.105061 0)
(1.02679 0.0974385 0)
(0.904374 0.0784295 0)
(0.642377 0.0496054 0)
(0.347515 0.0225689 0)
(0.129451 0.00596783 0)
(0.0136806 0.000204654 0)
(0.201362 0.00241988 0)
(0.88718 0.0407386 0)
(1.13519 0.0667703 0)
(1.24742 0.0854087 0)
(1.25752 0.10044 0)
(1.22534 0.114846 0)
(1.19013 0.127581 0)
(1.15554 0.137645 0)
(1.12072 0.143892 0)
(1.08628 0.145104 0)
(1.05822 0.141056 0)
(1.04144 0.134534 0)
(1.03665 0.128426 0)
(1.03846 0.122021 0)
(1.00306 0.111711 0)
(0.850757 0.0871395 0)
(0.569776 0.0528214 0)
(0.284404 0.0228371 0)
(0.0935406 0.00573041 0)
(0.00672512 0.000170414 0)
(0.24384 0.00870866 3.63096e-20)
(0.980086 0.0681657 3.19112e-20)
(1.20409 0.101354 -1.12743e-20)
(1.28669 0.121882 0)
(1.28431 0.139417 -3.00194e-34)
(1.24456 0.153205 4.42005e-21)
(1.2034 0.164401 -8.14021e-21)
(1.16306 0.172261 0)
(1.12286 0.175764 1.71176e-34)
(1.08358 0.173791 -1.04364e-20)
(1.05189 0.166726 0)
(1.0329 0.158043 -1.2563e-20)
(1.02727 0.150789 -3.71773e-20)
(1.02582 0.144105 -1.76033e-20)
(0.969197 0.12958 -5.3171e-21)
(0.780305 0.0970718 -3.16353e-21)
(0.483553 0.0555558 0)
(0.216557 0.0228421 2.2122e-21)
(0.0581297 0.00555989 2.61153e-21)
(0.000376547 0.000136295 4.70823e-20)
(0.273605 0.0243084 2.37339e-20)
(1.05678 0.111034 5.43412e-22)
(1.26093 0.150643 2.87684e-21)
(1.32179 0.171383 0)
(1.30782 0.188704 -1.48147e-20)
(1.26106 0.200307 -1.70758e-20)
(1.214 0.20917 -8.11212e-21)
(1.16784 0.214531 -2.94604e-20)
(1.12205 0.215234 0)
(1.07755 0.210135 4.43248e-20)
(1.04178 0.200145 4.42685e-20)
(1.02036 0.189317 1.32119e-20)
(1.01265 0.180302 4.85166e-20)
(1.00297 0.171317 6.85263e-20)
(0.915713 0.150345 0)
(0.684913 0.107272 9.68137e-20)
(0.381979 0.057739 1.38811e-19)
(0.146029 0.0220959 1.54104e-19)
(0.0224914 0.00415397 -1.7614e-19)
(-0.00616149 -0.000504908 -3.31874e-21)
(0.274624 0.040237 0)
(1.10524 0.166575 3.51477e-21)
(1.29919 0.211281 0)
(1.34905 0.231456 -1.74272e-20)
(1.32626 0.245683 0)
(1.27361 0.253402 -3.27569e-20)
(1.22103 0.258515 1.63851e-20)
(1.16937 0.260263 -5.85552e-20)
(1.11828 0.257296 -1.58405e-21)
(1.0688 0.248417 2.27842e-20)
(1.02917 0.235048 9.75256e-20)
(1.00539 0.221725 -2.16055e-22)
(0.99533 0.210776 -3.52788e-20)
(0.976839 0.198822 -6.45618e-20)
(0.867414 0.170285 7.64889e-20)
(0.616584 0.116444 -1.35468e-19)
(0.322645 0.0597034 -1.78798e-20)
(0.109464 0.021061 0)
(0.00448592 0.00198062 -1.2058e-23)
(-0.00974846 -0.00137718 0)
(0.268109 0.0540058 2.82176e-20)
(1.13131 0.225394 -1.6467e-20)
(1.32273 0.276368 -1.61964e-20)
(1.36712 0.296688 7.76059e-21)
(1.33821 0.306967 -1.32927e-20)
(1.28115 0.310136 6.81361e-20)
(1.22403 0.310811 3.39417e-20)
(1.16762 0.308294 0)
(1.11177 0.301097 -1.1253e-19)
(1.05773 0.287951 0)
(1.01449 0.270827 -5.09829e-20)
(0.98841 0.254744 -6.35884e-20)
(0.97599 0.241468 -3.84285e-20)
(0.950293 0.225843 -4.69008e-20)
(0.827902 0.189916 0)
(0.572428 0.126811 0)
(0.291389 0.0636748 -1.1642e-19)
(0.0909693 0.0207085 2.29857e-20)
(-0.00604336 -0.000407502 -1.34462e-20)
(-0.0124264 -0.00243146 -1.57306e-20)
(0.260309 0.0661489 1.98872e-21)
(1.14262 0.284017 0)
(1.33559 0.342334 2.6176e-20)
(1.37695 0.363289 2.01896e-20)
(1.34378 0.369704 3.18377e-20)
(1.28349 0.368296 0)
(1.22281 0.364418 3.24471e-20)
(1.16247 0.35744 6.42229e-20)
(1.10255 0.345779 5.71552e-20)
(1.04443 0.328119 1.0755e-19)
(0.997813 0.306995 0)
(0.969465 0.287903 -1.37115e-19)
(0.954695 0.272094 -8.29982e-20)
(0.923487 0.25277 -4.91743e-20)
(0.795586 0.210269 3.02208e-19)
(0.544793 0.139248 3.59205e-20)
(0.276524 0.0696963 1.68636e-19)
(0.0838249 0.0214173 -7.97907e-19)
(-0.0108597 -0.00246722 4.71491e-19)
(-0.014191 -0.00351546 -5.68144e-19)
(0.252756 0.0770762 1.75575e-20)
(1.14446 0.340572 -8.47263e-22)
(1.34066 0.407263 -1.12257e-21)
(1.38014 0.42937 -1.49989e-20)
(1.34391 0.432161 -2.36797e-20)
(1.28122 0.426358 1.80266e-21)
(1.21772 0.418074 -3.52625e-20)
(1.15416 0.406696 6.58926e-20)
(1.09073 0.390582 -1.23084e-19)
(1.02896 0.368368 0)
(0.979211 0.343141 -6.18313e-20)
(0.948617 0.320941 -1.59542e-21)
(0.931583 0.302543 -9.10284e-20)
(0.896592 0.279655 0)
(0.768378 0.231438 -6.55246e-20)
(0.52732 0.153645 -1.5551e-19)
(0.271809 0.0780433 4.13959e-19)
(0.084674 0.0238222 -4.07919e-19)
(-0.010756 -0.003554 5.78552e-19)
(-0.0148208 -0.00441018 -6.01058e-19)
(0.246316 0.0871361 -4.18888e-22)
(1.14035 0.394395 5.36094e-21)
(1.3401 0.47016 5.79195e-21)
(1.37812 0.493726 3.44485e-21)
(1.33967 0.493293 -1.14383e-20)
(1.27517 0.483381 0)
(1.2094 0.470941 -3.15138e-20)
(1.14314 0.455362 -6.8678e-20)
(1.07665 0.434945 -6.364e-20)
(1.0116 0.408262 0)
(0.958932 0.378969 -6.39073e-20)
(0.926146 0.353669 -7.99843e-20)
(0.90694 0.332646 9.89178e-20)
(0.869335 0.306378 -6.02631e-20)
(0.743848 0.25329 -2.86919e-19)
(0.514728 0.169583 1.70266e-19)
(0.271928 0.087927 5.04736e-20)
(0.0897494 0.0278418 0)
(-0.00705464 -0.0033226 -5.6099e-19)
(-0.0143666 -0.00496028 -2.05975e-20)
(0.241111 0.0966421 5.76285e-21)
(1.13264 0.445302 -8.52722e-21)
(1.33543 0.530558 -4.43563e-21)
(1.37214 0.55565 1.61419e-20)
(1.332 0.552436 -3.73316e-20)
(1.26613 0.538784 5.70818e-20)
(1.19851 0.522492 6.80706e-20)
(1.12995 0.502975 -1.09677e-19)
(1.06078 0.478482 4.02822e-20)
(0.992747 0.447501 -2.64721e-19)
(0.937338 0.414261 -7.28194e-20)
(0.902412 0.385896 0)
(0.881165 0.362344 1.07573e-19)
(0.841709 0.332869 1.29403e-19)
(0.720538 0.275195 1.54885e-19)
(0.503586 0.186453 -1.85617e-19)
(0.273231 0.0990107 -5.4836e-20)
(0.0963605 0.0333554 6.44423e-20)
(-0.00137046 -0.00182231 0)
(-0.0131508 -0.00515095 -4.48559e-20)
(0.237069 0.105761 -8.43637e-20)
(1.123 0.493403 4.80653e-20)
(1.3279 0.588269 6.41398e-21)
(1.36323 0.614825 6.23439e-21)
(1.32173 0.609194 -1.3813e-20)
(1.2548 0.59217 -4.09844e-21)
(1.18567 0.572375 -7.49768e-20)
(1.11515 0.549236 -3.98438e-20)
(1.04357 0.520931 -1.10938e-19)
(0.972758 0.485879 3.24456e-22)
(0.914753 0.448814 -2.27604e-19)
(0.877788 0.417448 1.94465e-19)
(0.854636 0.391415 -1.18726e-19)
(0.813756 0.358872 1.43233e-19)
(0.696973 0.296906 0)
(0.491717 0.203594 -1.0127e-19)
(0.273619 0.110533 2.54895e-22)
(0.102802 0.0397616 -2.82369e-19)
(0.00497886 0.000574259 -4.14092e-20)
(-0.0114936 -0.00502747 0)
(0.234068 0.11464 0)
(1.11239 0.538926 5.48132e-20)
(1.31844 0.643659 2.5234e-20)
(1.35222 0.671101 -1.9368e-21)
(1.30954 0.663357 -2.14501e-20)
(1.24179 0.643318 0)
(1.17142 0.62037 -3.21939e-20)
(1.09918 0.59394 -1.04231e-21)
(1.0254 0.562131 2.38081e-19)
(0.951989 0.52326 -3.61903e-20)
(0.891492 0.482504 -1.64711e-19)
(0.85259 0.448238 1.00863e-19)
(0.827668 0.419763 -2.2379e-21)
(0.785515 0.384129 1.52533e-19)
(0.67255 0.317932 9.41421e-20)
(0.478045 0.22034 -2.18949e-19)
(0.27133 0.121995 2.59238e-19)
(0.107381 0.0465427 7.68148e-20)
(0.010787 0.00353994 3.16385e-19)
(-0.00966278 -0.00464728 -8.44879e-19)
(0.23204 0.123427 -2.70942e-20)
(1.10152 0.582059 3.72855e-20)
(1.30767 0.69607 -2.57182e-20)
(1.33971 0.724453 -6.01757e-21)
(1.29601 0.714824 0)
(1.22761 0.692101 -2.20929e-20)
(1.15621 0.66635 1.10374e-19)
(1.08244 0.636964 8.67207e-20)
(1.00664 0.601972 0)
(0.930732 0.559554 -5.24652e-19)
(0.8678 0.51527 4.46834e-19)
(0.827029 0.47818 0)
(0.80043 0.447232 1.39385e-19)
(0.757018 0.408407 -2.23249e-21)
(0.646866 0.337909 -3.02163e-19)
(0.46247 0.235736 1.1806e-19)
(0.266162 0.132655 0)
(0.109288 0.0529169 4.15486e-19)
(0.0150867 0.00643017 0)
(-0.00801401 -0.00419059 -4.00921e-19)
(0.230832 0.132194 3.22475e-20)
(1.09082 0.62303 4.77332e-20)
(1.29611 0.745586 -2.56753e-20)
(1.32619 0.77489 0)
(1.2816 0.763581 -1.2362e-20)
(1.21269 0.738482 0)
(1.14041 0.710246 -1.05763e-19)
(1.06528 0.678238 -3.8854e-20)
(0.987588 0.640397 4.14649e-20)
(0.909246 0.594719 -2.59793e-19)
(0.843884 0.547088 4.59707e-20)
(0.801281 0.507174 0)
(0.773095 0.473629 -2.97998e-19)
(0.728401 0.431405 2.159e-21)
(0.620387 0.356197 0)
(0.444637 0.249357 1.11212e-21)
(0.257975 0.141765 3.80682e-19)
(0.108049 0.0581343 -3.59184e-19)
(0.017334 0.00871874 1.06047e-19)
(-0.00677127 -0.00379597 0)
(0.230126 0.140838 0)
(1.08056 0.661915 5.70882e-20)
(1.28399 0.792384 3.66766e-20)
(1.31208 0.822465 -2.538e-21)
(1.26667 0.809655 6.0347e-22)
(1.19737 0.782463 -4.95951e-20)
(1.12435 0.752043 4.05886e-20)
(1.04798 0.717732 -4.71902e-20)
(0.968505 0.677368 1.8689e-19)
(0.887757 0.628747 -4.15843e-19)
(0.819918 0.57795 -4.10281e-21)
(0.775452 0.535146 -1.29709e-19)
(0.745724 0.49883 4.84536e-19)
(0.699646 0.45285 -2.5829e-21)
(0.593179 0.372529 -2.35397e-19)
(0.424931 0.260765 -4.18494e-19)
(0.247212 0.148856 0)
(0.104373 0.061657 0)
(0.0177526 0.0100667 1.1452e-19)
(-0.00594897 -0.00356374 -6.72071e-20)
(0.230124 0.149485 4.47528e-20)
(1.0709 0.698624 -1.29277e-19)
(1.27159 0.836564 -3.93361e-20)
(1.2977 0.867247 0)
(1.25154 0.853106 -1.50753e-21)
(1.18193 0.824071 -3.96728e-20)
(1.10829 0.791752 9.42649e-20)
(1.03081 0.755441 1.8206e-19)
(0.94962 0.712886 2.41953e-19)
(0.86647 0.661654 -3.39264e-19)
(0.796048 0.607872 -3.8554e-19)
(0.749615 0.562116 3.47214e-19)
(0.718302 0.522795 0)
(0.670723 0.472517 -1.07134e-19)
(0.565368 0.386547 -2.54708e-19)
(0.403508 0.269537 -3.01241e-19)
(0.234139 0.153531 -3.55616e-19)
(0.0984257 0.0633977 1.05042e-19)
(0.0166687 0.0104207 -6.16847e-20)
(-0.00551349 -0.00351147 3.00901e-22)
(0.230247 0.158058 0)
(1.06196 0.733555 0)
(1.25917 0.878223 2.47659e-21)
(1.28328 0.909352 0)
(1.23641 0.894024 -1.59103e-20)
(1.16659 0.863369 2.20386e-20)
(1.09244 0.829401 0)
(1.01394 0.791378 2.09218e-20)
(0.931124 0.746956 4.02564e-19)
(0.845565 0.693465 -7.81218e-19)
(0.772402 0.636909 0)
(0.72381 0.588179 -2.23896e-19)
(0.690762 0.545504 -3.03427e-21)
(0.641541 0.490195 -2.31505e-21)
(0.53695 0.397932 2.72811e-19)
(0.380557 0.275407 -7.12221e-23)
(0.219319 0.155593 -7.66625e-19)
(0.0907447 0.063262 2.26102e-19)
(0.0144893 0.00991214 6.67875e-20)
(-0.00531873 -0.00356417 0)
(0.230504 0.166504 -1.77597e-19)
(1.05349 0.766837 -8.65231e-20)
(1.24683 0.91745 -1.14081e-19)
(1.26898 0.948919 1.15549e-19)
(1.2215 0.932487 -4.35029e-20)
(1.15153 0.900421 0)
(1.07694 0.865037 5.42572e-20)
(0.997532 0.82557 -4.73371e-20)
(0.913173 0.779596 3.91438e-21)
(0.825208 0.724214 5.79186e-20)
(0.749111 0.665153 4.99912e-19)
(0.698065 0.613473 -7.84728e-20)
(0.662988 0.566973 -2.99468e-19)
(0.611943 0.505701 -1.25077e-19)
(0.508018 0.406347 1.48165e-19)
(0.356851 0.278113 1.01748e-22)
(0.203219 0.154936 2.06568e-19)
(0.0819631 0.0613521 -4.86686e-19)
(0.0116442 0.00867653 5.75195e-19)
(-0.00526811 -0.00369664 8.38458e-20)
(0.230691 0.17469 6.73158e-20)
(1.04549 0.798556 -4.8635e-20)
(1.2347 0.954347 6.23672e-21)
(1.25492 0.986083 7.33321e-20)
(1.20691 0.968607 1.60297e-20)
(1.13686 0.935303 -3.37587e-20)
(1.06195 0.898711 1.39238e-20)
(0.981718 0.858039 -1.96175e-19)
(0.895902 0.810812 -4.41943e-19)
(0.805535 0.753913 -4.65242e-19)
(0.726316 0.692707 0)
(0.672405 0.638147 -3.46049e-19)
(0.634864 0.587284 4.32456e-19)
(0.581686 0.518906 0)
(0.478503 0.411407 -3.17574e-19)
(0.332996 0.277179 1.88844e-19)
(0.187169 0.15139 -2.22204e-19)
(0.0733432 0.0579587 -2.61937e-19)
(0.00880899 0.00702499 -4.63413e-19)
(-0.00530885 -0.00387791 -3.61216e-19)
(0.231241 0.182751 -7.59548e-20)
(1.03782 0.828706 5.2037e-20)
(1.22283 0.988987 1.18949e-19)
(1.24121 1.02093 1.06705e-19)
(1.19276 1.00248 -2.99633e-20)
(1.1227 0.968101 -1.1934e-20)
(1.04754 0.930478 4.7971e-20)
(0.966586 0.88883 -1.99535e-19)
(0.879401 0.840628 -2.61496e-19)
(0.786671 0.782585 4.86454e-19)
(0.704144 0.71966 1.0996e-18)
(0.646898 0.662351 0)
(0.606283 0.606619 0)
(0.550401 0.529819 -1.4412e-19)
(0.448073 0.412664 0)
(0.309222 0.271719 4.05911e-19)
(0.17259 0.144142 4.77742e-19)
(0.066904 0.0530035 0)
(0.00721152 0.00530673 0)
(-0.00533605 -0.00404396 3.88264e-19)
(0.231471 0.19039 8.62423e-20)
(1.03049 0.857281 6.96956e-20)
(1.21129 1.0215 8.63847e-20)
(1.2279 1.05358 -1.02273e-19)
(1.17912 1.03421 -3.91318e-20)
(1.1091 0.998892 3.12631e-21)
(1.03378 0.960397 -6.45112e-20)
(0.952204 0.91797 -5.89589e-22)
(0.863754 0.869053 -5.09311e-21)
(0.768713 0.810232 -4.54448e-21)
(0.682742 0.746072 5.66653e-19)
(0.621654 0.686233 0)
(0.577186 0.625259 4.39274e-19)
(0.517668 0.538631 3.0791e-19)
(0.415967 0.409888 7.42122e-19)
(0.285095 0.260428 2.18855e-19)
(0.16098 0.130452 -2.57103e-19)
(0.0670771 0.0432478 -1.50949e-19)
(0.0130485 0.00244184 0)
(-0.00321085 -0.00341784 4.17445e-19)
(0.232028 0.198051 -1.94229e-19)
(1.02347 0.884378 0)
(1.20007 1.05193 1.0141e-19)
(1.21504 1.0841 -8.6557e-20)
(1.16604 1.0639 5.2808e-20)
(1.0961 1.02776 1.28882e-20)
(1.02071 0.988528 1.16968e-19)
(0.938611 0.945496 -1.68259e-20)
(0.849006 0.896096 0)
(0.751746 0.836836 -5.35412e-19)
(0.662249 0.771957 -1.23155e-18)
(0.596828 0.709945 5.10615e-20)
(0.547622 0.643546 6.07474e-19)
(0.483172 0.545772 0)
(0.380974 0.40349 5.01577e-19)
(0.258305 0.242216 0)
(0.150229 0.104247 0)
(0.0786794 0.014284 -1.63257e-19)
(0.0478938 -0.0121244 0)
(0.0271216 0.0104849 1.11889e-19)
(0.232233 0.205132 -2.16908e-19)
(1.01671 0.910333 0)
(1.18917 1.08049 1.68656e-19)
(1.20257 1.11273 0)
(1.15347 1.09182 -3.19638e-20)
(1.08365 1.05501 0)
(1.00829 1.01518 4.31842e-21)
(0.925711 0.971744 2.7178e-20)
(0.835037 0.922117 3.28146e-20)
(0.735598 0.86278 -5.86127e-19)
(0.64247 0.797742 3.67316e-20)
(0.572181 0.734141 4.12673e-19)
(0.517147 0.662318 5.93215e-19)
(0.445991 0.551862 8.02631e-20)
(0.341082 0.394882 3.93852e-19)
(0.223722 0.217998 0)
(0.127996 0.0610244 5.42296e-19)
(0.0694633 -0.029282 -3.16392e-19)
(0.0420989 0.0423739 3.67943e-19)
(-0.0690512 0.437732 -4.33476e-19)
(0.232438 0.21203 1.79582e-19)
(1.00995 0.934918 2.77109e-19)
(1.17849 1.1075 0)
(1.19037 1.13992 4.92429e-21)
(1.14122 1.11853 9.41929e-20)
(1.07149 1.08129 -6.13693e-20)
(0.996174 1.04115 3.55609e-20)
(0.913087 0.997644 0)
(0.821304 0.948194 2.13647e-19)
(0.719595 0.889362 -3.01689e-20)
(0.622484 0.824899 0)
(0.546437 0.760517 0)
(0.483752 0.683047 5.32238e-19)
(0.403714 0.557438 -2.48734e-19)
(0.293021 0.385909 -3.99944e-19)
(0.176432 0.191116 0)
(0.0747723 0.0708273 2.7381e-19)
(0.00321336 0.437755 -3.15776e-19)
(0.0328639 1.8933 -1.71888e-19)
(0.0620479 2.81319 -2.20527e-19)
(0.232482 0.218119 -1.34775e-19)
(1.0034 0.958324 -3.55409e-19)
(1.16805 1.13294 1.00063e-19)
(1.17842 1.16555 8.36128e-20)
(1.12931 1.14381 0)
(1.05968 1.10634 -5.36222e-20)
(0.984578 1.06613 4.08743e-20)
(0.900935 1.02277 -1.27409e-20)
(0.808084 0.973818 3.20934e-20)
(0.704124 0.915979 5.56697e-19)
(0.602896 0.852793 6.22089e-19)
(0.520515 0.788725 4.62843e-19)
(0.448248 0.705855 5.36333e-19)
(0.357869 0.561534 -5.85968e-19)
(0.242151 0.380256 -6.05155e-19)
(0.119282 0.235233 0)
(0.0422112 0.830386 0)
(0.0996615 2.55244 1.50457e-19)
(0.100914 3.20285 0)
(0.104238 3.38874 3.56396e-19)
(0.235066 0.223744 0)
(0.997647 0.980755 0)
(1.15762 1.15665 0)
(1.16653 1.18944 2.51275e-20)
(1.1174 1.16741 8.60098e-20)
(1.04801 1.13002 -5.20632e-20)
(0.97339 1.09001 2.3336e-20)
(0.889214 1.04702 -1.218e-20)
(0.795344 0.998854 2.62291e-19)
(0.68922 0.942498 -8.92207e-21)
(0.583868 0.881347 1.22705e-18)
(0.494719 0.818626 -5.36335e-20)
(0.410812 0.731842 6.48643e-20)
(0.31104 0.561871 8.49813e-20)
(0.178824 0.392067 -5.51236e-21)
(0.0973857 0.960807 1.84747e-21)
(0.138259 2.72436 -7.99633e-19)
(0.146209 3.29307 -2.9847e-19)
(0.135541 3.42565 1.52575e-19)
(0.123344 3.44785 -1.69051e-19)
(0.153842 0.181084 7.96756e-20)
(0.986555 1.00496 0)
(1.14682 1.17884 -1.99723e-19)
(1.15519 1.21211 -2.26008e-19)
(1.10638 1.19016 2.00787e-19)
(1.03742 1.15302 5.96826e-20)
(0.962559 1.11287 -1.99002e-20)
(0.878037 1.07052 1.23104e-19)
(0.783257 1.02348 -2.12209e-19)
(0.67518 0.969101 0)
(0.565825 0.910787 6.00938e-19)
(0.469609 0.850109 -3.77539e-19)
(0.373038 0.763724 0)
(0.257113 0.559055 7.93301e-20)
(0.141495 0.734031 1.89659e-19)
(0.153997 2.49792 -2.19538e-19)
(0.2105 3.32221 2.45396e-19)
(0.190933 3.43783 1.30687e-19)
(0.159014 3.45959 1.45866e-19)
(0.137499 3.47002 2.28553e-19)
(0.277902 0.261637 -1.45676e-19)
(0.971175 1.01464 0)
(1.12865 1.20417 2.1717e-19)
(1.14019 1.24252 2.46383e-19)
(1.08897 1.22317 -2.21326e-19)
(1.01925 1.18641 -8.26818e-20)
(0.943462 1.1479 -2.25229e-21)
(0.858424 1.10678 9.86327e-21)
(0.762316 1.06194 1.97231e-19)
(0.651458 1.01153 4.72843e-19)
(0.53678 0.959728 3.34796e-20)
(0.429546 0.90431 3.3468e-19)
(0.303637 0.800152 6.0734e-20)
(0.211871 0.913196 -7.78866e-20)
(0.228464 2.3458 -1.75929e-19)
(0.290101 3.32386 1.65054e-19)
(0.273006 3.466 -1.80277e-19)
(0.237689 3.48826 -1.03433e-19)
(0.200731 3.51623 -8.29567e-20)
(0.149291 3.51066 -9.79628e-21)
(0.265749 0.258503 0)
(0.968753 1.03721 6.25028e-20)
(1.12027 1.2276 -4.471e-20)
(1.12953 1.26615 -2.92788e-20)
(1.07813 1.24636 -1.52583e-19)
(1.00835 1.20982 8.51366e-20)
(0.932243 1.17145 9.46725e-21)
(0.847 1.13115 8.47941e-21)
(0.750354 1.08779 -2.02397e-19)
(0.638173 1.04029 -1.36742e-20)
(0.520625 0.99344 -1.07871e-18)
(0.408162 0.942466 4.78974e-20)
(0.284884 0.864929 -5.70685e-20)
(0.254531 1.47362 -7.1548e-20)
(0.330305 3.09844 1.81679e-20)
(0.349455 3.46306 2.11696e-22)
(0.309162 3.51969 2.47869e-19)
(0.27183 3.54693 1.16001e-19)
(0.223187 3.57076 -1.92799e-20)
(0.164222 3.56709 -4.16253e-20)
(0.249591 0.257015 1.58127e-19)
(0.964746 1.06246 4.26308e-19)
(1.11149 1.25314 -1.28189e-19)
(1.11829 1.29119 -1.10595e-19)
(1.06665 1.27089 0)
(0.997021 1.2344 1.49481e-19)
(0.920895 1.19628 2.86674e-20)
(0.835726 1.15677 6.98025e-21)
(0.738864 1.11501 -2.27991e-20)
(0.62589 1.07067 -4.1887e-19)
(0.506315 1.02918 -4.9361e-19)
(0.390258 0.981891 -3.88323e-19)
(0.286532 0.99354 -4.30778e-19)
(0.324865 2.19652 4.45464e-19)
(0.418054 3.37208 3.64683e-19)
(0.394292 3.52042 0)
(0.348845 3.5662 0)
(0.310748 3.60767 -1.35212e-20)
(0.259888 3.66825 0)
(0.176888 3.64464 -2.3395e-21)
(0.238958 0.258928 -2.36615e-19)
(0.958808 1.0888 -3.61685e-19)
(1.10128 1.27986 0)
(1.10568 1.31694 5.90088e-21)
(1.05389 1.29602 -1.63734e-19)
(0.984557 1.25947 2.39896e-19)
(0.908754 1.22164 2.71361e-20)
(0.823865 1.18283 2.06473e-21)