/*--------------------------------*- C++ -*----------------------------------*\
| =========                 |                                                 |
| \\      /  F ield         | OpenFOAM: The Open Source CFD Toolbox           |
|  \\    /   O peration     | Version:  2112                                  |
|   \\  /    A nd           | Website:  www.openfoam.com                      |
|    \\/     M anipulation  |                                                 |
\*---------------------------------------------------------------------------*/
FoamFile
{
    version     2.0;
    format      ascii;
    arch        "LSB;label=32;scalar=64";
    class       surfaceScalarField;
    location    "0.004";
    object      phi;
}
// * * * * * * * * * * * * * * * * * * * * * * * * * * * * * * * * * * * * * //

dimensions      [1 0 -1 0 0 0 0];

oriented        oriented;

internalField   nonuniform List<scalar> 
99
(
1.85878e-11
1.81473e-11
1.97957e-11
1.96678e-11
1.60512e-11
1.58877e-11
1.47367e-11
1.01608e-11
6.69331e-12
8.10019e-13
1.51772e-11
1.11974e-10
6.15415e-10
3.18561e-09
1.59506e-08
7.73151e-08
3.62813e-07
1.6457e-06
7.20802e-06
3.0429e-05
0.000123641
0.000482543
0.00180554
0.00646092
0.0220559
0.071604
0.220312
0.639684
1.74373
4.43311
10.4228
22.4296
43.5544
73.45
111.024
153.891
198.852
243.087
284.694
322.616
356.509
385.828
411.871
432.766
449.459
466.111
476.412
481.572
488.568
496.057
497.496
494.861
489.967
490.611
494.478
496.175
496.594
495.335
483.809
438.539
384.759
349.046
326.498
313.885
307.314
303.933
301.776
299.513
299.074
295.67
284.631
245.895
90.1463
23.0259
3.99285
0.615501
0.0921434
0.0136108
0.00198659
0.000286465
4.07914e-05
5.73365e-06
7.9524e-07
1.08822e-07
1.46922e-08
1.95736e-09
2.57252e-10
3.32223e-11
4.14779e-12
6.54587e-13
1.69198e-13
-1.53655e-13
-1.35003e-13
0
1.32783e-13
1.54543e-13
-1.55431e-13
-2.76668e-13
-2.84217e-13
)
;

boundaryField
{
    sides
    {
        type            calculated;
        value           nonuniform List<scalar> 2(-2.61934e-13 -1.64204e-11);
    }
    empty
    {
        type            empty;
        value           nonuniform List<scalar> 0();
    }
}


// ************************************************************************* //
