/*--------------------------------*- C++ -*----------------------------------*\
| =========                 |                                                 |
| \\      /  F ield         | OpenFOAM: The Open Source CFD Toolbox           |
|  \\    /   O peration     | Version:  2112                                  |
|   \\  /    A nd           | Website:  www.openfoam.com                      |
|    \\/     M anipulation  |                                                 |
\*---------------------------------------------------------------------------*/
FoamFile
{
    version     2.0;
    format      ascii;
    arch        "LSB;label=32;scalar=64";
    class       volScalarField;
    location    "23";
    object      p;
}
// * * * * * * * * * * * * * * * * * * * * * * * * * * * * * * * * * * * * * //

dimensions      [0 2 -2 0 0 0 0];

internalField   nonuniform List<scalar> 
400
(
7.0420922e-07
-0.00067207835
-0.0013845398
-0.0019418856
-0.0022191672
-0.0021556529
-0.0017269383
-0.00092534055
0.00023628218
0.001708264
0.0033881379
0.0051130399
0.006674315
0.0078499359
0.0084592249
0.0084245278
0.0078142541
0.0068453891
0.0058621798
0.0052998273
0.00065862578
-3.9726742e-05
-0.00056885413
-0.00093981075
-0.0011100381
-0.0010390853
-0.00070494415
-9.4690048e-05
0.00078995858
0.0019170446
0.0032104387
0.0045555515
0.0057828063
0.0067171011
0.0072152734
0.0072153854
0.0067708199
0.0060536428
0.0053114082
0.0047393708
0.0014244823
0.00044144304
-0.00011580001
-0.00045243458
-0.00061398971
-0.00058398192
-0.00034574107
0.00012059026
0.00082931158
0.0017707599
0.0028951433
0.0040990135
0.0052290876
0.006111824
0.0065947258
0.0065985286
0.0061566087
0.005422388
0.0045946293
0.0037491214
0.0020149735
0.00068247579
1.7566662e-05
-0.00035804821
-0.00057073472
-0.00062573437
-0.0005092469
-0.00018978613
0.00036935312
0.0011852412
0.0022307701
0.0034182842
0.0045922236
0.0055578013
0.0061244202
0.0061674342
0.0056845005
0.0048179359
0.0037481833
0.0024744948
0.0021680427
0.00049690705
-0.00029546143
-0.00074789996
-0.0010574381
-0.0012444435
-0.0012919089
-0.0011504501
-0.00075418851
-5.223219e-05
0.00095789603
0.0022111564
0.0035455845
0.0047335403
0.005522723
0.005710767
0.0052301741
0.0042024976
0.0028070835
0.00098486856
0.0016547375
-0.0003136855
-0.0012379842
-0.0017984884
-0.0022518379
-0.0026270709
-0.0028977661
-0.00299021
-0.0028016494
-0.0022367798
-0.0012501943
0.00013179588
0.0017455505
0.0033280133
0.0045425441
0.0050666758
0.0047183924
0.0035670999
0.0017905023
-0.00072500158
0.00028781222
-0.0019187653
-0.0029721827
-0.0036705545
-0.0043194525
-0.0049523369
-0.0055292347
-0.0059470447
-0.0060580726
-0.0057064337
-0.0047747598
-0.0032577415
-0.0012655603
0.00090811945
0.0028240587
0.0039877577
0.0040260088
0.0028886224
0.00071630056
-0.0026795639
-0.0020756209
-0.0044503671
-0.0056259679
-0.0064914715
-0.0073920471
-0.0083648618
-0.0093559898
-0.010230821
-0.01078998
-0.010803829
-0.010062336
-0.0084607375
-0.0060397544
-0.0030822219
-0.00012533215
0.0021135771
0.0029647654
0.0021365138
-0.00036509642
-0.0048716551
-0.0055233298
-0.0079912626
-0.009277057
-0.010332907
-0.01153709
-0.012934472
-0.014461724
-0.015955296
-0.017161407
-0.01776495
-0.017436983
-0.015918375
-0.013121874
-0.0092506996
-0.0048979801
-0.0010290202
0.0012703794
0.0012787193
-0.0013330011
-0.007200702
-0.010076041
-0.012564214
-0.013935769
-0.015183087
-0.016717433
-0.018601637
-0.020773167
-0.023047685
-0.025120566
-0.026585204
-0.026968187
-0.025811777
-0.022844526
-0.018073327
-0.012050008
-0.0059509117
-0.001369734
0.00030157555
-0.0019462266
-0.009381232
-0.015684079
-0.018131502
-0.019536631
-0.020925857
-0.022756754
-0.025128853
-0.027995939
-0.031165284
-0.034290303
-0.036875651
-0.038292962
-0.037843065
-0.03506466
-0.029600303
-0.021821371
-0.012984496
-0.0051839376
-0.0007147452
-0.001763208
-0.010791253
-0.022242657
-0.024612098
-0.025944643
-0.027333982
-0.029323147
-0.032078172
-0.035587847
-0.039663512
-0.043926087
-0.047800081
-0.050528953
-0.051235257
-0.04895567
-0.043142368
-0.033767875
-0.021925244
-0.010035827
-0.0014144253
-8.8703355e-06
-0.010224622
-0.029640248
-0.031922933
-0.032977779
-0.034078884
-0.035938489
-0.038830446
-0.042794503
-0.047650439
-0.052989353
-0.058162375
-0.062283022
-0.064264316
-0.062873968
-0.057111031
-0.046475623
-0.031648006
-0.015036817
-0.00086337822
0.0046477496
-0.0055205621
-0.037865023
-0.040047542
-0.040439161
-0.04075153
-0.042014042
-0.044652016
-0.048757092
-0.05414292
-0.060354867
-0.066664164
-0.072059501
-0.075267111
-0.074810222
-0.069268166
-0.057627247
-0.039960482
-0.018246972
0.0027900137
0.014446111
0.0069084811
-0.047229602
-0.049133395
-0.048139615
-0.04688132
-0.046904519
-0.048797686
-0.052667236
-0.058274911
-0.065074966
-0.072230848
-0.078594626
-0.082711205
-0.082879134
-0.077308365
-0.06452296
-0.043934011
-0.016747067
0.012503857
0.032939682
0.032409828
-0.058895811
-0.059638937
-0.055882985
-0.051940114
-0.049971368
-0.050628911
-0.053927645
-0.059494292
-0.06661077
-0.074284189
-0.08119007
-0.08567834
-0.085830784
-0.079521241
-0.064875204
-0.040688414
-0.0072400918
0.032140197
0.064982275
0.077749989
-0.076225557
-0.072612808
-0.063515299
-0.055434506
-0.050724128
-0.049780674
-0.052311379
-0.057663358
-0.064890772
-0.072773903
-0.079778306
-0.084035723
-0.083390687
-0.075348064
-0.057601843
-0.028374363
0.012934072
0.065397226
0.11555226
0.15150697
-0.10809133
-0.08955545
-0.071232997
-0.057232201
-0.049071314
-0.046329355
-0.048076348
-0.053201635
-0.060433607
-0.068294827
-0.075026362
-0.078525917
-0.076388068
-0.065808808
-0.043864685
-0.0078177129
0.044394368
0.11299884
0.18838112
0.27186146
-0.17684469
-0.10828884
-0.076201668
-0.054650461
-0.042991602
-0.038997213
-0.040569634
-0.045927104
-0.053440549
-0.061437343
-0.068026572
-0.070961577
-0.067550211
-0.054738976
-0.029148025
0.01356433
0.078147645
0.17006503
0.28949613
0.47421889
-0.37208273
-0.12470769
-0.054972288
-0.031961754
-0.022062793
-0.020299726
-0.024358607
-0.031957088
-0.041260594
-0.050639888
-0.058315896
-0.06218648
-0.059781614
-0.048055939
-0.022657726
0.021474951
0.092819422
0.21015345
0.4028891
0.77640996
)
;

boundaryField
{
    movingWall
    {
        type            zeroGradient;
    }
    fixedWalls
    {
        type            zeroGradient;
    }
    frontAndBack
    {
        type            empty;
    }
}


// ************************************************************************* //
