/*--------------------------------*- C++ -*----------------------------------*\
| =========                 |                                                 |
| \\      /  F ield         | OpenFOAM: The Open Source CFD Toolbox           |
|  \\    /   O peration     | Version:  2112                                  |
|   \\  /    A nd           | Website:  www.openfoam.com                      |
|    \\/     M anipulation  |                                                 |
\*---------------------------------------------------------------------------*/
FoamFile
{
    version     2.0;
    format      ascii;
    arch        "LSB;label=32;scalar=64";
    class       surfaceScalarField;
    location    "23";
    object      phi;
}
// * * * * * * * * * * * * * * * * * * * * * * * * * * * * * * * * * * * * * //

dimensions      [0 3 -1 0 0 0 0];

oriented        oriented;

internalField   nonuniform List<scalar> 
760
(
1.2698877e-05
-1.2707022e-05
-2.8725203e-05
4.1424086e-05
-0.00012229252
9.3567316e-05
-0.00025039605
0.0001281035
-0.00039607446
0.00014567838
-0.00054539037
0.0001493159
-0.00068627074
0.00014088039
-0.00080689122
0.00012062053
-0.00089495149
8.8060321e-05
-0.00093838952
4.3438092e-05
-0.00092727336
-1.1116106e-05
-0.00085686071
-7.0412596e-05
-0.00073042804
-0.00012643261
-0.00056134071
-0.00016908729
-0.00037275979
-0.00018858095
-0.00019447405
-0.00017828579
-5.6522401e-05
-0.00013795169
1.9613876e-05
-7.6136273e-05
3.0411e-05
-1.0797092e-05
3.0411019e-05
-4.3184429e-05
3.0477411e-05
-0.00020456702
0.00020280666
-0.00046832384
0.00035732412
-0.00080070512
0.00046048477
-0.0011673458
0.00051231907
-0.0015364428
0.00051841292
-0.0018782192
0.00048265683
-0.0021636724
0.00040607372
-0.0023645335
0.0002889216
-0.0024553402
0.00013424487
-0.0024181337
-4.8322516e-05
-0.0022453504
-0.00024319587
-0.00194755
-0.000424233
-0.0015544643
-0.00056217301
-0.0011143181
-0.00062872713
-0.00068747318
-0.00060513075
-0.00033452527
-0.00049089962
-0.00010089701
-0.00030976452
-1.5521913e-06
-0.00011014188
2.8858857e-05
-0.00011002753
0.00014050494
-0.00040303131
0.00049581042
-0.00083138662
0.00078567941
-0.0013456141
0.00097471223
-0.0018985936
0.0010652986
-0.0024465737
0.0010663931
-0.0029480235
0.0009841066
-0.0033626082
0.00082065843
-0.003651879
0.00057819244
-0.0037823054
0.00026467137
-0.0037298114
-0.00010081653
-0.0034858004
-0.00048720683
-0.0030632634
-0.00084677003
-0.0024999842
-0.0011254522
-0.0018582276
-0.0012704837
-0.00121814
-0.0012452183
-0.00066373475
-0.0010453048
-0.00026308917
-0.00071041003
-4.795641e-05
-0.00032527459
-1.9097522e-05
-0.00017343938
0.00031394432
-0.00059329122
0.00091566227
-0.0011776928
0.001370081
-0.001858366
0.0016553854
-0.002576903
0.0017838355
-0.0032813002
0.0017707904
-0.0039227835
0.0016255899
-0.0044541238
0.0013519987
-0.0048302452
0.00095431386
-0.0050112178
0.00044564395
-0.0049672362
-0.00014479811
-0.0046844144
-0.00077002864
-0.004172332
-0.0013588524
-0.0034691122
-0.001828672
-0.0026439985
-0.0020955974
-0.0017931937
-0.0020960229
-0.0010258467
-0.0018126517
-0.00044021351
-0.0012960432
-9.6723648e-05
-0.00066876441
-0.00011582116
-0.00022979491
0.00054373924
-0.00076507264
0.00145094
-0.0014914815
0.0020964899
-0.0023225416
0.0024864455
-0.0031901324
0.0026514264
-0.0040368121
0.0026174701
-0.0048100242
0.002398802
-0.0054589503
0.0020009248
-0.0059341658
0.0014295293
-0.0061897962
0.00070127428
-0.0061883775
-0.00014621685
-0.00590555
-0.0010528561
-0.0053403901
-0.0019240123
-0.004523094
-0.002645968
-0.00352296
-0.0030957314
-0.0024497937
-0.0031691891
-0.0014425332
-0.0028199122
-0.00064122861
-0.0020973477
-0.00014883634
-0.0011611567
-0.00026465751
-0.00027729693
0.00082103617
-0.00091154424
0.0020851874
-0.0017607251
0.0029456708
-0.0027228008
0.0034485213
-0.0037222007
0.0036508262
-0.0046986814
0.0035939508
-0.0055988756
0.0032989961
-0.0063711736
0.0027732227
-0.0069637096
0.0020220653
-0.007324817
0.0010623816
-0.00740744
-6.3593866e-05
-0.0071716734
-0.0012886228
-0.006598866
-0.0024968198
-0.0057016585
-0.0035431754
-0.0045400011
-0.0042573888
-0.0032318291
-0.0044773611
-0.0019490126
-0.0041027287
-0.0008872839
-0.0031590763
-0.00021159331
-0.0018368472
-0.00047625083
-0.00031411428
0.0011351505
-0.0010263338
0.0027974069
-0.0019734982
0.0038928352
-0.0030417398
0.0045167629
-0.0041506977
0.0047597842
-0.0052399208
0.0046831739
-0.006258047
0.0043171223
-0.0071554971
0.0036706727
-0.0078803374
0.0027469056
-0.0083768118
0.001558856
-0.0085853592
0.00014495351
-0.0084512907
-0.0014226913
-0.0079294723
-0.0030186382
-0.0070049394
-0.0044677082
-0.0057150233
-0.0055473049
-0.0041735657
-0.0060188186
-0.0025818346
-0.0056944597
-0.0012040998
-0.0045368111
-0.00029450279
-0.0027464443
-0.00077075363
-0.00033824642
0.0014733969
-0.0011031626
0.0035623232
-0.002117622
0.0049072946
-0.0032598716
0.0056590125
-0.0044473832
0.0059472959
-0.005621933
0.0058577237
-0.0067369158
0.0054321051
-0.0077479308
0.0046816876
-0.0086063366
0.0036053113
-0.0092552122
0.0022077317
-0.0096269764
0.00051671776
-0.0096491693
-0.0014004983
-0.0092489468
-0.0034188607
-0.0083739133
-0.0053427416
-0.0070220477
-0.0068991704
-0.005281795
-0.0077590714
-0.0033676546
-0.0076086001
-0.0016173573
-0.0062871084
-0.00040826729
-0.0039555343
-0.0011790209
-0.00034815439
0.0018215513
-0.0011372093
0.0043513782
-0.002182778
0.0059528632
-0.0033586042
0.0068348387
-0.004582222
0.0071709137
-0.0057997977
0.0070752994
-0.0069721672
0.0066044747
-0.0080636384
0.005773159
-0.0090334111
0.004575084
-0.009828963
0.0030032836
-0.010381244
0.0010689991
-0.010604496
-0.0011772459
-0.01040075
-0.0036226072
-0.00967487
-0.0060686215
-0.0083686526
-0.0082053877
-0.0065156675
-0.0096120564
-0.0043098723
-0.0098143953
-0.0021483168
-0.0084486639
-0.00056492339
-0.0055389277
-0.0017439443
-0.00034393376
0.0021654851
-0.0011278562
0.0051353006
-0.0021647032
0.0069897103
-0.0033258922
0.0079960278
-0.0045307898
0.0083758112
-0.0057319293
0.0082764389
-0.0069002049
0.0077727503
-0.0080123642
0.0068853184
-0.0090408086
0.0056035286
-0.0099449497
0.0039074247
-0.010663378
0.0017874274
-0.011106729
-0.00073389488
-0.011163404
-0.0035659324
-0.010697111
-0.0065349138
-0.0095825831
-0.0093199158
-0.0077667627
-0.011427877
-0.00537149
-0.012209668
-0.0028071721
-0.011012982
-0.00077836682
-0.007567733
-0.0025223111
-0.00032890782
0.0024943929
-0.0010824208
0.0058888136
-0.0020707756
0.0079780651
-0.0031636103
0.0090888626
-0.0042838984
0.0094960995
-0.0053928495
0.00938539
-0.0064741368
0.0088540375
-0.0075205452
0.0079317269
-0.0085229161
0.0066058997
-0.0094603437
0.0048448524
-0.010291332
0.0026184154
-0.010933226
-9.200054e-05
-0.01128321
-0.0032159483
-0.011173629
-0.0066444943
-0.010415708
-0.010077837
-0.0088467285
-0.012996856
-0.0064557462
-0.01460065
-0.0035815214
-0.013887207
-0.0010642207
-0.010085034
-0.0035865318
-0.00031178511
0.0028061781
-0.0010206815
0.00659771
-0.0019261041
0.0088834877
-0.0028949546
0.010057713
-0.0038568899
0.010458035
-0.0047855721
0.010314072
-0.005680777
0.0097492424
-0.0065544683
0.0088054181
-0.0074199038
0.0074713352
-0.0082818407
0.0057067896
-0.0091251716
0.0034617464
-0.0099086558
0.00069148363
-0.010527271
-0.0025973336
-0.010827024
-0.0063447405
-0.010573634
-0.010331227
-0.0094932101
-0.01407728
-0.0073911368
-0.016702724
-0.0044189113
-0.016859432
-0.0014372098
-0.013066735
-0.0050237415
-0.00031004477
0.0031162228
-0.00098037021
0.0072680355
-0.0017790581
0.0096821756
-0.0025693792
0.010848034
-0.0032946127
0.011183268
-0.0039479169
0.010967377
-0.0045499935
0.010351319
-0.0051348116
0.0093902361
-0.0057399484
0.0080764719
-0.0063985541
0.0063653953
-0.0071301571
0.0041933495
-0.0079302883
0.0014916149
-0.0087388327
-0.0017887892
-0.0094303819
-0.0056531913
-0.0097685987
-0.0099930107
-0.0094003548
-0.014445524
-0.0079305842
-0.018172494
-0.0052061615
-0.019583855
-0.001902611
-0.016370286
-0.0069263525
-0.000356043
0.0034722658
-0.0010240052
0.0079359977
-0.0017042441
0.010362415
-0.0022608181
0.011404608
-0.0026657468
0.011588197
-0.0029440394
0.01124567
-0.0031442821
0.010551562
-0.0033249027
0.0095708568
-0.00354723
0.0082987991
-0.0038710838
0.0066892489
-0.0043492088
0.0046714744
-0.0050184171
0.0021608231
-0.0058766475
-0.0009305587
-0.0068578663
-0.0046719726
-0.007776314
-0.0090745629
-0.0082658542
-0.013955984
-0.0077687513
-0.018669597
-0.0057511037
-0.021601502
-0.0024366714
-0.019684718
-0.0093630239
-0.00050826439
0.0039805301
-0.0012456413
0.0086733744
-0.0017959012
0.010912675
-0.0020480236
0.011656731
-0.0020325372
0.01157271
-0.0018254629
0.011038595
-0.0015122334
0.010238333
-0.0011779037
0.0092365273
-0.0009047583
0.0080256539
-0.00077376561
0.0065582562
-0.00086353475
0.0047612435
-0.0012474005
0.0025446888
-0.0019828718
-0.00019508734
-0.0030819041
-0.0035729403
-0.0044600624
-0.0076964047
-0.005827511
-0.012588535
-0.0065661798
-0.017930928
-0.0057684548
-0.022399227
-0.0029512267
-0.022501946
-0.012314251
-0.00086855662
0.0048490868
-0.0017629933
0.0095678107
-0.0021213732
0.011271054
-0.00193687
0.011472228
-0.0013509522
0.010986793
-0.00051622771
0.01020387
0.00043700269
0.0092851019
0.0013995735
0.0082739563
0.0022723367
0.0071528908
0.0029608763
0.0058697168
0.0033691131
0.0043530066
0.0033967641
0.0025170378
0.0029385127
0.000263164
0.0019095808
-0.0025440084
0.00026965822
-0.0060564821
-0.0018541856
-0.010464692
-0.0039516124
-0.015833501
-0.0048608436
-0.021489996
-0.0032547063
-0.024108083
-0.015568957
-0.0015910866
0.0064401736
-0.0026108606
0.010587585
-0.0025131514
0.011173344
-0.001589928
0.010549005
-0.00017219757
0.0095690629
0.0014927693
0.0085389037
0.0032328627
0.0075450086
0.0049232003
0.0065836186
0.006462959
0.005613132
0.0077574646
0.0045752112
0.0087074724
0.0034029988
0.0092014634
0.0020230469
0.0091033116
0.0003613158
0.008275064
-0.0017157608
0.0065654374
-0.0043468554
0.003904216
-0.00780347
0.0005589401
-0.012488226
-0.0024680634
-0.018462992
-0.0030273201
-0.023548826
-0.018596277
-0.002718361
0.0091585345
-0.0031498692
0.011019095
-0.0018030073
0.0098264818
0.00046668678
0.0082793097
0.0030894033
0.0069463459
0.0057737861
0.005854521
0.0083628694
0.0049559254
0.010760365
0.0041861234
0.012893459
0.0034800375
0.014690628
0.0027780423
0.016068315
0.002025312
0.016923257
0.0011681053
0.017119689
0.00016488393
0.016490809
-0.0010868808
0.014816823
-0.0026728697
0.011846643
-0.0048332906
0.0074354818
-0.0080770639
0.0022629225
-0.013290433
-0.0012724696
-0.020013434
-0.019868747
-0.0024132793
0.011571813
2.8056984e-05
0.0085777601
0.0042551364
0.0055994039
0.0084161161
0.0041183303
0.012231473
0.0031309888
0.015656247
0.0024297469
0.018686526
0.0019256463
0.021329167
0.0015434831
0.023583466
0.0012257386
0.025429201
0.0009323072
0.026820146
0.00063436702
0.02767716
0.00031109103
0.027900187
-5.8143076e-05
0.027347212
-0.00053390537
0.025771623
-0.0010972805
0.02284304
-0.0019047085
0.018054766
-0.0032887891
0.011113584
-0.0063492513
0.0033886742
-0.012288525
-0.016480072
0.011571812
0.020149572
0.025748975
0.029867306
0.032998295
0.035428041
0.037353688
0.038897171
0.04012291
0.041055217
0.041689584
0.042000675
0.041942532
0.041408627
0.040311346
0.038406638
0.035117849
0.028768597
0.016480072
)
;

boundaryField
{
    movingWall
    {
        type            calculated;
        value           uniform 0;
    }
    fixedWalls
    {
        type            calculated;
        value           uniform 0;
    }
    frontAndBack
    {
        type            empty;
        value           nonuniform List<scalar> 0();
    }
}


// ************************************************************************* //
