/*--------------------------------*- C++ -*----------------------------------*\
| =========                 |                                                 |
| \\      /  F ield         | OpenFOAM: The Open Source CFD Toolbox           |
|  \\    /   O peration     | Version:  2112                                  |
|   \\  /    A nd           | Website:  www.openfoam.com                      |
|    \\/     M anipulation  |                                                 |
\*---------------------------------------------------------------------------*/
FoamFile
{
    version     2.0;
    format      ascii;
    arch        "LSB;label=32;scalar=64";
    class       surfaceScalarField;
    location    "23";
    object      phi_0;
}
// * * * * * * * * * * * * * * * * * * * * * * * * * * * * * * * * * * * * * //

dimensions      [0 3 -1 0 0 0 0];

oriented        oriented;

internalField   nonuniform List<scalar> 
760
(
1.2698865e-05
-1.2707028e-05
-2.872521e-05
4.142408e-05
-0.00012229252
9.3567312e-05
-0.00025039603
0.0001281035
-0.00039607442
0.00014567838
-0.00054539033
0.00014931589
-0.00068627069
0.00014088037
-0.00080689118
0.00012062051
-0.00089495146
8.8060303e-05
-0.00093838952
4.3438075e-05
-0.00092727337
-1.1116126e-05
-0.00085686072
-7.0412618e-05
-0.00073042805
-0.00012643263
-0.00056134073
-0.0001690873
-0.0003727598
-0.00018858094
-0.00019447405
-0.00017828577
-5.652239e-05
-0.00013795167
1.9613885e-05
-7.6136266e-05
3.0411002e-05
-1.0797092e-05
3.0411019e-05
-4.3184436e-05
3.0477411e-05
-0.00020456702
0.00020280666
-0.00046832382
0.00035732411
-0.00080070507
0.00046048475
-0.0011673458
0.00051231905
-0.0015364428
0.0005184129
-0.0018782192
0.00048265678
-0.0021636723
0.00040607366
-0.0023645334
0.00028892153
-0.0024553401
0.00013424481
-0.0024181336
-4.8322556e-05
-0.0022453504
-0.00024319589
-0.00194755
-0.000424233
-0.0015544643
-0.000562173
-0.0011143181
-0.00062872709
-0.00068747317
-0.0006051307
-0.00033452526
-0.00049089958
-0.00010089701
-0.0003097645
-1.5521898e-06
-0.00011014187
2.8858852e-05
-0.00011002753
0.00014050494
-0.00040303129
0.00049581042
-0.00083138659
0.00078567939
-0.001345614
0.00097471219
-0.0018985935
0.0010652985
-0.0024465736
0.0010663931
-0.0029480234
0.00098410653
-0.003362608
0.00082065835
-0.0036518788
0.00057819236
-0.0037823053
0.0002646713
-0.0037298113
-0.00010081657
-0.0034858003
-0.00048720683
-0.0030632633
-0.00084677
-0.0024999841
-0.0011254522
-0.0018582276
-0.0012704836
-0.00121814
-0.0012452182
-0.00066373474
-0.0010453048
-0.00026308917
-0.00071041001
-4.7956412e-05
-0.0003252746
-1.9097535e-05
-0.00017343938
0.00031394433
-0.0005932912
0.00091566225
-0.0011776928
0.001370081
-0.001858366
0.0016553854
-0.0025769029
0.0017838355
-0.0032813001
0.0017707903
-0.0039227833
0.0016255898
-0.0044541236
0.0013519986
-0.004830245
0.00095431379
-0.0050112177
0.00044564391
-0.0049672361
-0.00014479813
-0.0046844142
-0.00077002862
-0.0041723319
-0.0013588523
-0.0034691121
-0.0018286719
-0.0026439984
-0.0020955973
-0.0017931937
-0.0020960228
-0.0010258467
-0.0018126516
-0.00044021352
-0.0012960432
-9.6723656e-05
-0.00066876442
-0.00011582118
-0.0002297949
0.00054373923
-0.00076507261
0.00145094
-0.0014914814
0.0020964898
-0.0023225415
0.0024864454
-0.0031901323
0.0026514263
-0.004036812
0.00261747
-0.0048100241
0.0023988019
-0.0054589501
0.0020009247
-0.0059341656
0.0014295292
-0.0061897959
0.00070127427
-0.0061883773
-0.00014621683
-0.0059055498
-0.001052856
-0.0053403899
-0.0019240122
-0.0045230939
-0.0026459679
-0.0035229599
-0.0030957313
-0.0024497937
-0.003169189
-0.0014425331
-0.0028199121
-0.00064122861
-0.0020973476
-0.00014883635
-0.0011611567
-0.00026465752
-0.00027729691
0.00082103614
-0.00091154421
0.0020851873
-0.0017607251
0.0029456707
-0.0027228008
0.0034485211
-0.0037222006
0.0036508261
-0.0046986813
0.0035939507
-0.0055988754
0.003298996
-0.0063711734
0.0027732227
-0.0069637094
0.0020220653
-0.0073248167
0.0010623816
-0.0074074398
-6.3593785e-05
-0.0071716732
-0.0012886226
-0.0065988658
-0.0024968196
-0.0057016583
-0.0035431753
-0.0045400009
-0.0042573886
-0.003231829
-0.0044773609
-0.0019490125
-0.0041027286
-0.00088728389
-0.0031590763
-0.00021159331
-0.0018368472
-0.00047625083
-0.00031411427
0.0011351504
-0.0010263338
0.0027974068
-0.0019734981
0.0038928351
-0.0030417397
0.0045167627
-0.0041506976
0.0047597841
-0.0052399207
0.0046831738
-0.0062580469
0.0043171222
-0.0071554968
0.0036706726
-0.0078803371
0.0027469056
-0.0083768116
0.001558856
-0.008585359
0.00014495362
-0.0084512905
-0.0014226911
-0.0079294721
-0.003018638
-0.0070049393
-0.0044677081
-0.0057150232
-0.0055473047
-0.0041735656
-0.0060188185
-0.0025818346
-0.0056944596
-0.0012040998
-0.004536811
-0.00029450278
-0.0027464442
-0.00077075361
-0.00033824641
0.0014733969
-0.0011031626
0.003562323
-0.0021176219
0.0049072944
-0.0032598715
0.0056590123
-0.0044473831
0.0059472957
-0.0056219328
0.0058577236
-0.0067369156
0.005432105
-0.0077479306
0.0046816876
-0.0086063363
0.0036053114
-0.009255212
0.0022077317
-0.0096269762
0.00051671786
-0.0096491691
-0.0014004982
-0.0092489466
-0.0034188605
-0.0083739132
-0.0053427414
-0.0070220476
-0.0068991702
-0.0052817949
-0.0077590712
-0.0033676546
-0.0076085999
-0.0016173573
-0.0062871083
-0.00040826728
-0.0039555342
-0.0011790209
-0.00034815438
0.0018215513
-0.0011372093
0.004351378
-0.0021827779
0.005952863
-0.0033586041
0.0068348385
-0.0045822219
0.0071709135
-0.0057997975
0.0070752992
-0.006972167
0.0066044745
-0.0080636383
0.0057731589
-0.009033411
0.004575084
-0.0098289628
0.0030032836
-0.010381244
0.0010689992
-0.010604496
-0.0011772458
-0.01040075
-0.003622607
-0.0096748699
-0.0060686213
-0.0083686525
-0.0082053875
-0.0065156675
-0.0096120562
-0.0043098722
-0.0098143951
-0.0021483167
-0.0084486637
-0.00056492338
-0.0055389276
-0.0017439443
-0.00034393375
0.002165485
-0.0011278562
0.0051353004
-0.0021647032
0.0069897101
-0.0033258922
0.0079960275
-0.0045307897
0.008375811
-0.0057319292
0.0082764387
-0.0069002048
0.0077727501
-0.0080123641
0.0068853183
-0.0090408085
0.0056035286
-0.0099449496
0.0039074247
-0.010663378
0.0017874274
-0.011106729
-0.00073389481
-0.011163403
-0.0035659323
-0.010697111
-0.0065349136
-0.009582583
-0.0093199156
-0.0077667627
-0.011427877
-0.0053714899
-0.012209668
-0.0028071721
-0.011012982
-0.0007783668
-0.0075677328
-0.002522311
-0.00032890782
0.0024943928
-0.0010824208
0.0058888134
-0.0020707755
0.0079780648
-0.0031636102
0.0090888623
-0.0042838984
0.0094960993
-0.0053928495
0.0093853898
-0.0064741368
0.0088540374
-0.0075205452
0.0079317267
-0.0085229161
0.0066058996
-0.0094603437
0.0048448524
-0.010291332
0.0026184155
-0.010933226
-9.2000474e-05
-0.01128321
-0.0032159482
-0.011173629
-0.0066444942
-0.010415708
-0.010077837
-0.0088467285
-0.012996856
-0.0064557462
-0.01460065
-0.0035815214
-0.013887206
-0.0010642207
-0.010085033
-0.0035865317
-0.00031178511
0.002806178
-0.0010206815
0.0065977098
-0.0019261041
0.0088834874
-0.0028949546
0.010057713
-0.0038568899
0.010458035
-0.0047855722
0.010314072
-0.005680777
0.0097492422
-0.0065544683
0.008805418
-0.0074199038
0.0074713351
-0.0082818408
0.0057067895
-0.0091251717
0.0034617464
-0.0099086558
0.0006914837
-0.010527271
-0.0025973335
-0.010827024
-0.0063447404
-0.010573634
-0.010331227
-0.00949321
-0.01407728
-0.0073911368
-0.016702723
-0.0044189113
-0.016859432
-0.0014372098
-0.013066735
-0.0050237414
-0.00031004476
0.0031162227
-0.00098037022
0.0072680353
-0.0017790582
0.0096821754
-0.0025693793
0.010848034
-0.0032946127
0.011183268
-0.003947917
0.010967377
-0.0045499937
0.010351319
-0.0051348117
0.009390236
-0.0057399485
0.0080764718
-0.0063985542
0.0063653952
-0.0071301572
0.0041933495
-0.0079302884
0.0014916149
-0.0087388328
-0.0017887891
-0.009430382
-0.0056531912
-0.0097685988
-0.0099930105
-0.0094003548
-0.014445524
-0.0079305842
-0.018172494
-0.0052061615
-0.019583854
-0.001902611
-0.016370285
-0.0069263525
-0.00035604299
0.0034722657
-0.0010240052
0.0079359975
-0.0017042442
0.010362415
-0.0022608183
0.011404608
-0.0026657469
0.011588197
-0.0029440395
0.011245669
-0.0031442823
0.010551562
-0.0033249029
0.0095708567
-0.0035472303
0.0082987991
-0.003871084
0.006689249
-0.004349209
0.0046714745
-0.0050184173
0.0021608232
-0.0058766477
-0.00093055859
-0.0068578664
-0.0046719725
-0.0077763141
-0.0090745628
-0.0082658543
-0.013955984
-0.0077687513
-0.018669597
-0.0057511037
-0.021601502
-0.0024366714
-0.019684718
-0.0093630239
-0.00050826441
0.0039805301
-0.0012456413
0.0086733743
-0.0017959012
0.010912675
-0.0020480239
0.011656731
-0.0020325374
0.01157271
-0.001825463
0.011038595
-0.0015122336
0.010238333
-0.0011779039
0.0092365272
-0.00090475857
0.0080256539
-0.00077376586
0.0065582563
-0.00086353497
0.0047612436
-0.0012474007
0.0025446889
-0.001982872
-0.00019508723
-0.0030819043
-0.0035729402
-0.0044600625
-0.0076964046
-0.0058275111
-0.012588535
-0.0065661799
-0.017930928
-0.0057684548
-0.022399227
-0.0029512267
-0.022501946
-0.012314251
-0.00086855671
0.0048490869
-0.0017629934
0.0095678108
-0.0021213732
0.011271054
-0.0019368701
0.011472228
-0.0013509525
0.010986793
-0.00051622798
0.01020387
0.00043700248
0.0092851019
0.0013995733
0.0082739563
0.0022723365
0.0071528908
0.002960876
0.0058697168
0.0033691129
0.0043530067
0.0033967639
0.002517038
0.0029385125
0.00026316412
0.0019095807
-0.0025440083
0.00026965808
-0.006056482
-0.0018541857
-0.010464691
-0.0039516124
-0.015833501
-0.0048608437
-0.021489996
-0.0032547063
-0.024108083
-0.015568957
-0.0015910866
0.0064401736
-0.0026108609
0.010587585
-0.0025131514
0.011173344
-0.001589928
0.010549005
-0.00017219774
0.0095690627
0.0014927691
0.0085389036
0.0032328624
0.0075450086
0.0049232001
0.0065836186
0.0064629588
0.005613132
0.0077574644
0.0045752112
0.0087074722
0.0034029989
0.0092014632
0.002023047
0.0091033115
0.00036131589
0.0082750639
-0.0017157607
0.0065654373
-0.0043468554
0.0039042159
-0.00780347
0.00055894002
-0.012488226
-0.0024680635
-0.018462992
-0.0030273201
-0.023548826
-0.018596277
-0.0027183608
0.0091585343
-0.0031498695
0.011019095
-0.0018030075
0.0098264821
0.00046668675
0.0082793099
0.0030894033
0.006946346
0.0057737859
0.0058545209
0.0083628692
0.0049559254
0.010760364
0.0041861234
0.012893459
0.0034800375
0.014690628
0.0027780423
0.016068315
0.002025312
0.016923257
0.0011681053
0.017119688
0.00016488398
0.016490809
-0.0010868808
0.014816823
-0.0026728696
0.011846643
-0.0048332905
0.0074354818
-0.0080770639
0.0022629225
-0.013290433
-0.0012724696
-0.020013434
-0.019868747
-0.0024132789
0.011571813
2.8057054e-05
0.0085777597
0.0042551362
0.0055994037
0.008416116
0.0041183303
0.012231473
0.0031309888
0.015656247
0.0024297469
0.018686526
0.0019256463
0.021329167
0.0015434831
0.023583466
0.0012257386
0.025429201
0.00093230722
0.026820146
0.00063436704
0.02767716
0.00031109105
0.027900187
-5.8143051e-05
0.027347212
-0.00053390536
0.025771622
-0.0010972805
0.02284304
-0.0019047085
0.018054766
-0.0032887891
0.011113584
-0.0063492513
0.0033886741
-0.012288525
-0.016480072
0.011571812
0.020149572
0.025748975
0.029867306
0.032998295
0.035428041
0.037353688
0.038897171
0.04012291
0.041055217
0.041689584
0.042000675
0.041942532
0.041408627
0.040311346
0.038406638
0.035117849
0.028768597
0.016480072
)
;

boundaryField
{
    movingWall
    {
        type            calculated;
        value           uniform 0;
    }
    fixedWalls
    {
        type            calculated;
        value           uniform 0;
    }
    frontAndBack
    {
        type            empty;
        value           nonuniform List<scalar> 0();
    }
}


// ************************************************************************* //
