/*--------------------------------*- C++ -*----------------------------------*\
| =========                 |                                                 |
| \\      /  F ield         | OpenFOAM: The Open Source CFD Toolbox           |
|  \\    /   O peration     | Version:  2112                                  |
|   \\  /    A nd           | Website:  www.openfoam.com                      |
|    \\/     M anipulation  |                                                 |
\*---------------------------------------------------------------------------*/
FoamFile
{
    version     2.0;
    format      ascii;
    arch        "LSB;label=32;scalar=64";
    class       volVectorField;
    location    "23";
    object      U;
}
// * * * * * * * * * * * * * * * * * * * * * * * * * * * * * * * * * * * * * //

dimensions      [0 1 -1 0 0 0 0];

internalField   nonuniform List<vector> 
400
(
(0.00028439477 -0.00028143933 0)
(0.00011062673 7.9943859e-05 0)
(-0.0013272183 0.00047802087 0)
(-0.0036219019 0.00073592455 0)
(-0.006423645 0.00086751786 0)
(-0.0094314661 0.00090726788 0)
(-0.012387986 0.00087486604 0)
(-0.015056427 0.00077153046 0)
(-0.017194531 0.00058848913 0)
(-0.018552833 0.00032008387 0)
(-0.018902599 -2.4811737e-05 0)
(-0.018086121 -0.00041826541 0)
(-0.016079867 -0.00079971902 0)
(-0.013048918 -0.0010930785 0)
(-0.0093663739 -0.0012212074 0)
(-0.0055776529 -0.0011294767 0)
(-0.0023003457 -0.00081286922 0)
(-8.2964316e-05 -0.00033798361 0)
(0.00076014117 0.00015229083 0)
(0.00040943811 0.00038933524 0)
(-8.6085658e-05 -0.00012364398 0)
(-0.001869293 0.0017872126 0)
(-0.0063065325 0.0036260301 0)
(-0.012452675 0.0048624781 0)
(-0.019600627 0.0054985164 0)
(-0.027106923 0.0056206612 0)
(-0.034358859 0.0052860222 0)
(-0.040768838 0.0045043716 0)
(-0.045758127 0.0032662128 0)
(-0.048775856 0.001589649 0)
(-0.049366615 -0.00043546667 0)
(-0.047253813 -0.0026181805 0)
(-0.042451986 -0.0046645281 0)
(-0.035361481 -0.006218905 0)
(-0.026778603 -0.006937577 0)
(-0.017827255 -0.0065922607 0)
(-0.0097755353 -0.0051797758 0)
(-0.0037463022 -0.0029994373 0)
(-0.00038876163 -0.00066554426 0)
(0.00028989057 0.00078353918 0)
(-0.00058808766 0.001433601 0)
(-0.0042428109 0.0063774753 0)
(-0.011758557 0.010640551 0)
(-0.021468677 0.013483582 0)
(-0.03236617 0.01489828 0)
(-0.043587978 0.015017361 0)
(-0.054287368 0.013936136 0)
(-0.063642502 0.011684214 0)
(-0.070855788 0.0082813411 0)
(-0.075188313 0.0038286459 0)
(-0.076039505 -0.0014058973 0)
(-0.073057716 -0.0069356273 0)
(-0.066266614 -0.012071719 0)
(-0.056169295 -0.016000223 0)
(-0.043780761 -0.017942715 0)
(-0.03056915 -0.017379928 0)
(-0.018250633 -0.014289957 0)
(-0.0084179651 -0.0093122937 0)
(-0.0021511235 -0.0037618412 0)
(-1.9730009e-06 0.00031695477 0)
(-0.0010530644 0.0043003551 0)
(-0.0065148467 0.013565684 0)
(-0.016999092 0.02086403 0)
(-0.030030846 0.025561176 0)
(-0.044300521 0.02776139 0)
(-0.058784217 0.027687889 0)
(-0.072487442 0.025487567 0)
(-0.084446806 0.021218359 0)
(-0.093728807 0.014945078 0)
(-0.099464073 0.0068783742 0)
(-0.10093 -0.0025012481 0)
(-0.097662672 -0.012378376 0)
(-0.089592895 -0.02160533 0)
(-0.07718205 -0.028824702 0)
(-0.061504941 -0.032705983 0)
(-0.044253534 -0.032299848 0)
(-0.027562153 -0.027445842 0)
(-0.013581727 -0.019080671 0)
(-0.0040263451 -0.0092706913 0)
(-0.00026772128 -0.001108202 0)
(-0.0014558579 0.0083649836 0)
(-0.0085490234 0.023181115 0)
(-0.021746124 0.03405149 0)
(-0.037792287 0.040762882 0)
(-0.055096662 0.043701543 0)
(-0.072519256 0.043258824 0)
(-0.08898404 0.039661292 0)
(-0.10345802 0.033001217 0)
(-0.11493176 0.023384159 0)
(-0.12243642 0.011116749 0)
(-0.12511484 -0.0031288609 0)
(-0.12231942 -0.018219232 0)
(-0.1137611 -0.032541418 0)
(-0.09969789 -0.044132403 0)
(-0.081100209 -0.050966061 0)
(-0.059776121 -0.05144103 0)
(-0.038291055 -0.045013483 0)
(-0.019520392 -0.032755453 0)
(-0.0060923226 -0.017491817 0)
(-0.00051102133 -0.003522033 0)
(-0.0017889228 0.013475367 0)
(-0.010269657 0.034960649 0)
(-0.025805365 0.049908344 0)
(-0.044466526 0.058794468 0)
(-0.064427387 0.062458032 0)
(-0.084477137 0.061550584 0)
(-0.10351609 0.056415773 0)
(-0.12050299 0.047182008 0)
(-0.13440339 0.033970244 0)
(-0.14417335 0.01713237 0)
(-0.1488029 -0.0025358018 0)
(-0.14739276 -0.023636206 0)
(-0.13931064 -0.044142351 0)
(-0.12443515 -0.061441826 0)
(-0.10343129 -0.072642009 0)
(-0.078055648 -0.075173635 0)
(-0.051260757 -0.067706523 0)
(-0.026809366 -0.051124025 0)
(-0.0086122733 -0.028965586 0)
(-0.00078707042 -0.007052147 0)
(-0.0020420214 0.019436395 0)
(-0.011605582 0.048528618 0)
(-0.028995632 0.067997931 0)
(-0.049757459 0.079225565 0)
(-0.071891253 0.083656939 0)
(-0.094161604 0.082297309 0)
(-0.11549948 0.075649332 0)
(-0.13491439 0.063876645 0)
(-0.15140261 0.047075847 0)
(-0.16388408 0.025567777 0)
(-0.17119171 0.00016318692 0)
(-0.17215392 -0.027610344 0)
(-0.16571509 -0.055395938 0)
(-0.15119147 -0.079945284 0)
(-0.12870018 -0.097350716 0)
(-0.09966969 -0.10369813 0)
(-0.067241623 -0.096285743 0)
(-0.036119008 -0.075219959 0)
(-0.011929693 -0.044539693 0)
(-0.001170813 -0.012001463 0)
(-0.0022012746 0.026013195 0)
(-0.012484653 0.06341917 0)
(-0.031139758 0.087763911 0)
(-0.053354308 0.10148964 0)
(-0.077017363 0.10677651 0)
(-0.10091161 0.10507319 0)
(-0.12404955 0.097087718 0)
(-0.14555116 0.083021041 0)
(-0.16450898 0.062902017 0)
(-0.17987528 0.036930819 0)
(-0.19039857 0.0057957062 0)
(-0.19465505 -0.029033073 0)
(-0.19113571 -0.065017621 0)
(-0.17848923 -0.098390521 0)
(-0.15602446 -0.12417687 0)
(-0.12444455 -0.13676222 0)
(-0.086646372 -0.13132858 0)
(-0.048063611 -0.10623247 0)
(-0.016429313 -0.06539303 0)
(-0.0017537856 -0.018878369 0)
(-0.0022556978 0.032933032 0)
(-0.012853657 0.07908797 0)
(-0.03209879 0.10853432 0)
(-0.054981621 0.1248635 0)
(-0.079334559 0.13109213 0)
(-0.10399382 0.1291986 0)
(-0.12809988 0.12015078 0)
(-0.15094458 0.10420107 0)
(-0.17179678 0.081278136 0)
(-0.18974417 0.051375577 0)
(-0.20357569 0.014915609 0)
(-0.21172854 -0.026875727 0)
(-0.21232466 -0.071531811 0)
(-0.20333768 -0.11502542 0)
(-0.18306237 -0.15144637 0)
(-0.15101754 -0.17328435 0)
(-0.10916531 -0.17282122 0)
(-0.063026201 -0.14524333 0)
(-0.022524903 -0.092977762 0)
(-0.0026589516 -0.028422104 0)
(-0.0022086271 0.039904247 0)
(-0.012717045 0.094943612 0)
(-0.031841206 0.12953935 0)
(-0.054496664 0.14845763 0)
(-0.078499864 0.15563461 0)
(-0.10277073 0.15366565 0)
(-0.12662112 0.1438454 0)
(-0.14957626 0.12651293 0)
(-0.17117058 0.10149228 0)
(-0.19075541 0.068517123 0)
(-0.20732676 0.027627774 0)
(-0.21937739 -0.020393852 0)
(-0.22488746 -0.073461374 0)
(-0.22130625 -0.1276881 0)
(-0.20585446 -0.1766198 0)
(-0.17647595 -0.2109912 0)
(-0.1333463 -0.21961235 0)
(-0.080898987 -0.19275327 0)
(-0.030641815 -0.12885217 0)
(-0.0040700578 -0.041636908 0)
(-0.0020933499 0.046663 0)
(-0.012189722 0.11041789 0)
(-0.030536193 0.14996492 0)
(-0.05201755 0.17124204 0)
(-0.074464939 0.17919158 0)
(-0.096919834 0.17712027 0)
(-0.11891398 0.16672913 0)
(-0.14026644 0.14850232 0)
(-0.16086203 0.12219225 0)
(-0.18044319 0.087272661 0)
(-0.19840291 0.043352829 0)
(-0.21353681 -0.0093892452 0)
(-0.22401458 -0.069676104 0)
(-0.22708282 -0.13413278 0)
(-0.21908949 -0.19645254 0)
(-0.19626635 -0.24625137 0)
(-0.15621911 -0.26885949 0)
(-0.1007061 -0.24798735 0)
(-0.041145936 -0.17433451 0)
(-0.0062706019 -0.059833755 0)
(-0.0019963377 0.053057186 0)
(-0.011565537 0.12508284 0)
(-0.028661023 0.16904429 0)
(-0.048056713 0.19210818 0)
(-0.067638561 0.20035574 0)
(-0.086644038 0.19791202 0)
(-0.10489608 0.18696662 0)
(-0.12256965 0.16821819 0)
(-0.13996425 0.14140893 0)
(-0.15729788 0.1057991 0)
(-0.1745159 0.060572054 0)
(-0.19108401 0.0052261634 0)
(-0.20560189 -0.059921894 0)
(-0.2155061 -0.13260728 0)
(-0.21690153 -0.20752719 0)
(-0.20457812 -0.27431739 0)
(-0.17317487 -0.31571703 0)
(-0.1201709 -0.30807908 0)
(-0.054147425 -0.2298832 0)
(-0.009674885 -0.084652934 0)
(-0.0020996186 0.059184024 0)
(-0.011414933 0.13881527 0)
(-0.027115526 0.18617256 0)
(-0.043625077 0.20994621 0)
(-0.058981528 0.21760068 0)
(-0.072778187 0.21419702 0)
(-0.085250382 0.20247307 0)
(-0.097001637 0.1833938 0)
(-0.10878913 0.15675608 0)
(-0.12135086 0.12168638 0)
(-0.13525455 0.077015693 0)
(-0.15070335 0.021618618 0)
(-0.16712262 -0.045110257 0)
(-0.18274054 -0.12251552 0)
(-0.19405397 -0.20712557 0)
(-0.19523534 -0.2901141 0)
(-0.17829441 -0.35358442 0)
(-0.1354055 -0.36743742 0)
(-0.069088995 -0.29415239 0)
(-0.014795011 -0.11798422 0)
(-0.0027677189 0.065619758 0)
(-0.012741094 0.15199805 0)
(-0.027330193 0.20099656 0)
(-0.040244844 0.22368287 0)
(-0.049928996 0.2293301 0)
(-0.056643892 0.22403687 0)
(-0.061233097 0.21108011 0)
(-0.064816554 0.19168148 0)
(-0.068621277 0.16572035 0)
(-0.073875594 0.13227364 0)
(-0.081728798 0.089960529 0)
(-0.093120697 0.037200521 0)
(-0.10846985 -0.027478633 0)
(-0.12721436 -0.10497591 0)
(-0.14705472 -0.19422026 0)
(-0.16280387 -0.28948593 0)
(-0.16509102 -0.37509884 0)
(-0.14090162 -0.41772639 0)
(-0.084061589 -0.36281349 0)
(-0.022011625 -0.16157381 0)
(-0.0047196091 0.073834626 0)
(-0.017222538 0.16572601 0)
(-0.031284575 0.21337777 0)
(-0.03968354 0.23217356 0)
(-0.041883896 0.23380184 0)
(-0.039351581 0.2253941 0)
(-0.033813109 0.21061213 0)
(-0.027000975 0.19081059 0)
(-0.020592651 0.16589795 0)
(-0.016216074 0.13493937 0)
(-0.015477011 0.096471151 0)
(-0.019926198 0.04869036 0)
(-0.030919239 -0.010412323 0)
(-0.049234849 -0.082920088 0)
(-0.07439962 -0.17014276 0)
(-0.10327709 -0.27050218 0)
(-0.12725491 -0.37369496 0)
(-0.12973518 -0.44868737 0)
(-0.094914881 -0.42750654 0)
(-0.030930668 -0.2161278 0)
(-0.0093000239 0.086952087 0)
(-0.027432205 0.18185316 0)
(-0.04098186 0.2230332 0)
(-0.042679764 0.23378919 0)
(-0.034405765 0.22880189 0)
(-0.019623014 0.21592265 0)
(-0.001238843 0.1987798 0)
(0.018345103 0.17856463 0)
(0.037071074 0.15508357 0)
(0.053055291 0.12735948 0)
(0.064421198 0.09393647 0)
(0.06923058 0.053014818 0)
(0.065414718 0.0024628705 0)
(0.051047039 -0.06033908 0)
(0.02464258 -0.13837638 0)
(-0.013702331 -0.2341712 0)
(-0.058754141 -0.34517011 0)
(-0.093511165 -0.44953974 0)
(-0.09447002 -0.47558799 0)
(-0.039216135 -0.28048265 0)
(-0.018580332 0.11087147 0)
(-0.046039728 0.20177643 0)
(-0.0552302 0.22793145 0)
(-0.04398505 0.22501742 0)
(-0.01937271 0.21061271 0)
(0.012333142 0.19227983 0)
(0.046992831 0.1727848 0)
(0.081753898 0.1526539 0)
(0.11443761 0.13135283 0)
(0.14315294 0.1077956 0)
(0.16601651 0.080591726 0)
(0.18098082 0.048112307 0)
(0.18557571 0.0084494329 0)
(0.17716534 -0.040817371 0)
(0.1527591 -0.1031761 0)
(0.10948847 -0.18390613 0)
(0.047240238 -0.2885546 0)
(-0.021439495 -0.41051033 0)
(-0.072253053 -0.49101691 0)
(-0.04114751 -0.35054285 0)
(-0.033352252 0.15561547 0)
(-0.068601674 0.2204044 0)
(-0.055187408 0.21729215 0)
(-0.016078793 0.19532428 0)
(0.034510949 0.17092335 0)
(0.088507536 0.14849452 0)
(0.14176828 0.12861251 0)
(0.1919687 0.11057753 0)
(0.23754035 0.093297588 0)
(0.27711982 0.075575112 0)
(0.30921782 0.056181539 0)
(0.33204299 0.033823398 0)
(0.34317536 0.0070273594 0)
(0.33982857 -0.025910391 0)
(0.31813224 -0.067741698 0)
(0.27327702 -0.12410791 0)
(0.20044706 -0.20584709 0)
(0.10213964 -0.3250691 0)
(-0.012387352 -0.45457165 0)
(-0.023756677 -0.40864067 0)
(-0.033081118 0.23907321 0)
(-0.042647148 0.21792014 0)
(0.042207215 0.16426626 0)
(0.12760454 0.12783573 0)
(0.20769786 0.10143543 0)
(0.28028141 0.081658093 0)
(0.34487285 0.066648077 0)
(0.40158271 0.054703011 0)
(0.4505503 0.044399467 0)
(0.49162006 0.034639947 0)
(0.52416152 0.024550632 0)
(0.54698576 0.013381761 0)
(0.55822209 0.00039980387 0)
(0.5557092 -0.015137271 0)
(0.53552605 -0.034969133 0)
(0.49244646 -0.062488159 0)
(0.41797262 -0.10694761 0)
(0.30410588 -0.19317543 0)
(0.12313778 -0.33691904 0)
(0.052374193 -0.39437913 0)
(0.24299927 0.15257481 0)
(0.30529621 0.11854289 0)
(0.45481219 0.076108154 0)
(0.56000887 0.050840192 0)
(0.63223321 0.035126074 0)
(0.68654911 0.024812293 0)
(0.72943819 0.017960086 0)
(0.76379622 0.013255918 0)
(0.79127917 0.0097622004 0)
(0.81275134 0.0068543668 0)
(0.82841126 0.0041185309 0)
(0.83794387 0.0012768722 0)
(0.84057066 -0.0018441863 0)
(0.83497551 -0.0053262452 0)
(0.81886695 -0.0098289518 0)
(0.78942866 -0.016232741 0)
(0.73784288 -0.026935703 0)
(0.65316764 -0.051286552 0)
(0.45609767 -0.11374603 0)
(0.31788988 -0.17206003 0)
)
;

boundaryField
{
    movingWall
    {
        type            fixedValue;
        value           uniform (1 0 0);
    }
    fixedWalls
    {
        type            fixedValue;
        value           uniform (0 0 0);
    }
    frontAndBack
    {
        type            empty;
    }
}


// ************************************************************************* //
