/*--------------------------------*- C++ -*----------------------------------*\
| =========                 |                                                 |
| \\      /  F ield         | OpenFOAM: The Open Source CFD Toolbox           |
|  \\    /   O peration     | Version:  2112                                  |
|   \\  /    A nd           | Website:  www.openfoam.com                      |
|    \\/     M anipulation  |                                                 |
\*---------------------------------------------------------------------------*/
FoamFile
{
    version     2.0;
    format      ascii;
    arch        "LSB;label=32;scalar=64";
    class       volVectorField;
    location    "23";
    object      U_0;
}
// * * * * * * * * * * * * * * * * * * * * * * * * * * * * * * * * * * * * * //

dimensions      [0 1 -1 0 0 0 0];

internalField   nonuniform List<vector> 
400
(
(0.00028439461 -0.00028143943 0)
(0.0001106265 7.9943789e-05 0)
(-0.0013272183 0.00047802083 0)
(-0.0036219017 0.00073592456 0)
(-0.0064236444 0.00086751787 0)
(-0.0094314653 0.00090726785 0)
(-0.012387985 0.00087486594 0)
(-0.015056426 0.00077153032 0)
(-0.017194531 0.00058848898 0)
(-0.018552833 0.00032008371 0)
(-0.018902599 -2.4811934e-05 0)
(-0.018086121 -0.00041826565 0)
(-0.016079868 -0.00079971925 0)
(-0.013048918 -0.0010930786 0)
(-0.0093663742 -0.0012212073 0)
(-0.005577653 -0.0011294765 0)
(-0.0023003456 -0.00081286906 0)
(-8.2964116e-05 -0.00033798354 0)
(0.00076014128 0.00015229085 0)
(0.00040943813 0.00038933525 0)
(-8.6085766e-05 -0.00012364407 0)
(-0.0018692931 0.0017872125 0)
(-0.0063065323 0.00362603 0)
(-0.012452675 0.0048624779 0)
(-0.019600626 0.0054985162 0)
(-0.027106922 0.0056206609 0)
(-0.034358857 0.0052860217 0)
(-0.040768836 0.0045043709 0)
(-0.045758125 0.003266212 0)
(-0.048775854 0.0015896482 0)
(-0.049366614 -0.00043546728 0)
(-0.047253812 -0.0026181809 0)
(-0.042451986 -0.0046645284 0)
(-0.035361481 -0.006218905 0)
(-0.026778603 -0.0069375766 0)
(-0.017827255 -0.00659226 0)
(-0.0097755351 -0.0051797752 0)
(-0.0037463021 -0.002999437 0)
(-0.00038876155 -0.00066554421 0)
(0.00028989058 0.00078353915 0)
(-0.0005880877 0.001433601 0)
(-0.0042428108 0.0063774752 0)
(-0.011758556 0.010640551 0)
(-0.021468676 0.013483581 0)
(-0.032366169 0.014898279 0)
(-0.043587976 0.01501736 0)
(-0.054287366 0.013936135 0)
(-0.0636425 0.011684212 0)
(-0.070855785 0.0082813396 0)
(-0.075188311 0.0038286446 0)
(-0.076039503 -0.0014058981 0)
(-0.073057714 -0.0069356275 0)
(-0.066266612 -0.012071718 0)
(-0.056169294 -0.016000223 0)
(-0.04378076 -0.017942714 0)
(-0.030569149 -0.017379927 0)
(-0.018250633 -0.014289957 0)
(-0.0084179651 -0.0093122933 0)
(-0.0021511235 -0.0037618412 0)
(-1.9730439e-06 0.00031695459 0)
(-0.0010530643 0.0043003552 0)
(-0.0065148465 0.013565684 0)
(-0.016999091 0.020864029 0)
(-0.030030844 0.025561175 0)
(-0.04430052 0.027761388 0)
(-0.058784215 0.027687887 0)
(-0.072487439 0.025487565 0)
(-0.084446803 0.021218357 0)
(-0.093728804 0.014945076 0)
(-0.099464069 0.006878373 0)
(-0.10092999 -0.0025012487 0)
(-0.097662668 -0.012378376 0)
(-0.089592892 -0.021605329 0)
(-0.077182047 -0.028824701 0)
(-0.061504939 -0.032705982 0)
(-0.044253532 -0.032299847 0)
(-0.027562152 -0.027445842 0)
(-0.013581727 -0.019080671 0)
(-0.0040263453 -0.0092706914 0)
(-0.00026772138 -0.0011082023 0)
(-0.0014558578 0.0083649836 0)
(-0.0085490231 0.023181115 0)
(-0.021746123 0.034051489 0)
(-0.037792286 0.04076288 0)
(-0.05509666 0.043701541 0)
(-0.072519253 0.043258822 0)
(-0.088984037 0.03966129 0)
(-0.10345802 0.033001215 0)
(-0.11493175 0.023384157 0)
(-0.12243642 0.011116748 0)
(-0.12511483 -0.0031288608 0)
(-0.12231942 -0.018219231 0)
(-0.1137611 -0.032541416 0)
(-0.099697887 -0.044132401 0)
(-0.081100207 -0.050966059 0)
(-0.059776119 -0.051441028 0)
(-0.038291054 -0.045013482 0)
(-0.019520391 -0.032755452 0)
(-0.0060923228 -0.017491818 0)
(-0.00051102143 -0.0035220333 0)
(-0.0017889227 0.013475366 0)
(-0.010269656 0.034960647 0)
(-0.025805364 0.049908342 0)
(-0.044466525 0.058794466 0)
(-0.064427385 0.06245803 0)
(-0.084477134 0.061550582 0)
(-0.10351608 0.056415771 0)
(-0.12050298 0.047182007 0)
(-0.13440339 0.033970243 0)
(-0.14417334 0.01713237 0)
(-0.14880289 -0.0025358007 0)
(-0.14739276 -0.023636205 0)
(-0.13931064 -0.044142349 0)
(-0.12443514 -0.061441824 0)
(-0.10343129 -0.072642007 0)
(-0.078055647 -0.075173633 0)
(-0.051260756 -0.067706521 0)
(-0.026809365 -0.051124025 0)
(-0.0086122733 -0.028965586 0)
(-0.00078707047 -0.0070521471 0)
(-0.0020420214 0.019436394 0)
(-0.011605582 0.048528616 0)
(-0.028995631 0.067997928 0)
(-0.049757458 0.079225562 0)
(-0.071891251 0.083656936 0)
(-0.094161601 0.082297306 0)
(-0.11549948 0.07564933 0)
(-0.13491439 0.063876644 0)
(-0.15140261 0.047075847 0)
(-0.16388408 0.025567778 0)
(-0.1711917 0.00016318884 0)
(-0.17215392 -0.027610341 0)
(-0.16571509 -0.055395935 0)
(-0.15119147 -0.07994528 0)
(-0.12870017 -0.097350713 0)
(-0.099669689 -0.10369813 0)
(-0.067241622 -0.09628574 0)
(-0.036119008 -0.075219957 0)
(-0.011929693 -0.044539692 0)
(-0.001170813 -0.012001462 0)
(-0.0022012745 0.026013193 0)
(-0.012484652 0.063419167 0)
(-0.031139757 0.087763907 0)
(-0.053354307 0.10148964 0)
(-0.077017361 0.10677651 0)
(-0.10091161 0.10507319 0)
(-0.12404954 0.097087716 0)
(-0.14555115 0.08302104 0)
(-0.16450898 0.062902017 0)
(-0.17987528 0.03693082 0)
(-0.19039857 0.0057957083 0)
(-0.19465504 -0.02903307 0)
(-0.1911357 -0.065017618 0)
(-0.17848923 -0.098390517 0)
(-0.15602446 -0.12417687 0)
(-0.12444455 -0.13676222 0)
(-0.086646371 -0.13132858 0)
(-0.048063611 -0.10623247 0)
(-0.016429312 -0.065393028 0)
(-0.0017537855 -0.018878368 0)
(-0.0022556977 0.032933031 0)
(-0.012853657 0.079087967 0)
(-0.032098789 0.10853432 0)
(-0.05498162 0.1248635 0)
(-0.079334557 0.13109213 0)
(-0.10399382 0.1291986 0)
(-0.12809988 0.12015078 0)
(-0.15094458 0.10420107 0)
(-0.17179678 0.081278137 0)
(-0.18974416 0.051375578 0)
(-0.20357569 0.014915611 0)
(-0.21172854 -0.026875724 0)
(-0.21232465 -0.071531807 0)
(-0.20333768 -0.11502542 0)
(-0.18306237 -0.15144637 0)
(-0.15101754 -0.17328435 0)
(-0.10916531 -0.17282122 0)
(-0.0630262 -0.14524333 0)
(-0.022524903 -0.09297776 0)
(-0.0026589515 -0.028422103 0)
(-0.002208627 0.039904245 0)
(-0.012717044 0.094943608 0)
(-0.031841205 0.12953935 0)
(-0.054496663 0.14845763 0)
(-0.078499863 0.15563461 0)
(-0.10277073 0.15366565 0)
(-0.12662111 0.1438454 0)
(-0.14957625 0.12651292 0)
(-0.17117058 0.10149228 0)
(-0.19075541 0.068517124 0)
(-0.20732676 0.027627775 0)
(-0.21937739 -0.02039385 0)
(-0.22488746 -0.073461371 0)
(-0.22130625 -0.1276881 0)
(-0.20585446 -0.1766198 0)
(-0.17647595 -0.21099119 0)
(-0.1333463 -0.21961234 0)
(-0.080898986 -0.19275326 0)
(-0.030641815 -0.12885217 0)
(-0.0040700576 -0.041636907 0)
(-0.0020933499 0.046662998 0)
(-0.012189722 0.11041789 0)
(-0.030536192 0.14996492 0)
(-0.052017549 0.17124204 0)
(-0.074464938 0.17919158 0)
(-0.096919834 0.17712027 0)
(-0.11891398 0.16672913 0)
(-0.14026644 0.14850232 0)
(-0.16086203 0.12219225 0)
(-0.18044319 0.087272661 0)
(-0.19840291 0.04335283 0)
(-0.21353681 -0.0093892437 0)
(-0.22401458 -0.069676102 0)
(-0.22708282 -0.13413277 0)
(-0.21908949 -0.19645254 0)
(-0.19626635 -0.24625137 0)
(-0.15621911 -0.26885948 0)
(-0.1007061 -0.24798734 0)
(-0.041145935 -0.17433451 0)
(-0.0062706017 -0.059833753 0)
(-0.0019963377 0.053057184 0)
(-0.011565537 0.12508284 0)
(-0.028661023 0.16904429 0)
(-0.048056713 0.19210817 0)
(-0.067638561 0.20035573 0)
(-0.086644039 0.19791202 0)
(-0.10489608 0.18696661 0)
(-0.12256965 0.16821819 0)
(-0.13996426 0.14140893 0)
(-0.15729788 0.1057991 0)
(-0.1745159 0.060572055 0)
(-0.19108401 0.0052261648 0)
(-0.20560189 -0.059921892 0)
(-0.2155061 -0.13260727 0)
(-0.21690153 -0.20752719 0)
(-0.20457812 -0.27431739 0)
(-0.17317487 -0.31571702 0)
(-0.1201709 -0.30807907 0)
(-0.054147425 -0.2298832 0)
(-0.0096748849 -0.084652932 0)
(-0.0020996185 0.059184022 0)
(-0.011414933 0.13881526 0)
(-0.027115527 0.18617256 0)
(-0.043625077 0.2099462 0)
(-0.058981529 0.21760068 0)
(-0.072778189 0.21419701 0)
(-0.085250385 0.20247306 0)
(-0.09700164 0.1833938 0)
(-0.10878913 0.15675607 0)
(-0.12135087 0.12168638 0)
(-0.13525455 0.077015693 0)
(-0.15070335 0.021618619 0)
(-0.16712262 -0.045110255 0)
(-0.18274054 -0.12251551 0)
(-0.19405398 -0.20712557 0)
(-0.19523534 -0.29011409 0)
(-0.17829441 -0.35358441 0)
(-0.1354055 -0.36743742 0)
(-0.069088995 -0.29415239 0)
(-0.014795011 -0.11798422 0)
(-0.0027677187 0.065619756 0)
(-0.012741094 0.15199805 0)
(-0.027330194 0.20099655 0)
(-0.040244846 0.22368287 0)
(-0.049928998 0.2293301 0)
(-0.056643894 0.22403686 0)
(-0.0612331 0.21108011 0)
(-0.064816558 0.19168148 0)
(-0.068621281 0.16572035 0)
(-0.073875599 0.13227364 0)
(-0.081728802 0.08996053 0)
(-0.093120701 0.037200522 0)
(-0.10846986 -0.027478631 0)
(-0.12721437 -0.10497591 0)
(-0.14705472 -0.19422026 0)
(-0.16280387 -0.28948593 0)
(-0.16509102 -0.37509884 0)
(-0.14090162 -0.41772639 0)
(-0.084061589 -0.36281349 0)
(-0.022011625 -0.16157381 0)
(-0.0047196093 0.073834625 0)
(-0.017222538 0.165726 0)
(-0.031284575 0.21337777 0)
(-0.039683542 0.23217356 0)
(-0.041883901 0.23380184 0)
(-0.039351585 0.22539409 0)
(-0.033813112 0.21061212 0)
(-0.02700098 0.19081059 0)
(-0.020592656 0.16589795 0)
(-0.016216079 0.13493937 0)
(-0.015477016 0.096471153 0)
(-0.019926202 0.048690362 0)
(-0.030919243 -0.01041232 0)
(-0.049234853 -0.082920086 0)
(-0.074399623 -0.17014276 0)
(-0.10327709 -0.27050218 0)
(-0.12725491 -0.37369496 0)
(-0.12973518 -0.44868737 0)
(-0.094914882 -0.42750654 0)
(-0.030930668 -0.2161278 0)
(-0.0093000247 0.086952088 0)
(-0.027432206 0.18185316 0)
(-0.04098186 0.2230332 0)
(-0.042679765 0.23378918 0)
(-0.034405769 0.22880189 0)
(-0.01962302 0.21592265 0)
(-0.0012388478 0.1987798 0)
(0.018345099 0.17856463 0)
(0.037071069 0.15508357 0)
(0.053055286 0.12735948 0)
(0.064421193 0.093936471 0)
(0.069230576 0.05301482 0)
(0.065414714 0.0024628728 0)
(0.051047035 -0.060339077 0)
(0.024642577 -0.13837638 0)
(-0.013702333 -0.2341712 0)
(-0.058754143 -0.3451701 0)
(-0.093511166 -0.44953974 0)
(-0.094470021 -0.47558798 0)
(-0.039216135 -0.28048265 0)
(-0.018580332 0.11087147 0)
(-0.046039731 0.20177644 0)
(-0.055230203 0.22793145 0)
(-0.04398505 0.22501741 0)
(-0.019372712 0.2106127 0)
(0.012333138 0.19227983 0)
(0.046992826 0.1727848 0)
(0.081753893 0.1526539 0)
(0.11443761 0.13135283 0)
(0.14315293 0.1077956 0)
(0.1660165 0.080591728 0)
(0.18098082 0.048112309 0)
(0.18557571 0.008449435 0)
(0.17716534 -0.040817369 0)
(0.1527591 -0.1031761 0)
(0.10948847 -0.18390613 0)
(0.047240236 -0.2885546 0)
(-0.021439496 -0.41051032 0)
(-0.072253053 -0.49101691 0)
(-0.041147511 -0.35054285 0)
(-0.033352249 0.15561547 0)
(-0.068601675 0.2204044 0)
(-0.055187414 0.21729215 0)
(-0.016078796 0.19532428 0)
(0.034510948 0.17092334 0)
(0.088507534 0.14849452 0)
(0.14176827 0.12861251 0)
(0.1919687 0.11057753 0)
(0.23754034 0.093297589 0)
(0.27711981 0.075575113 0)
(0.30921781 0.05618154 0)
(0.33204298 0.0338234 0)
(0.34317536 0.0070273609 0)
(0.33982857 -0.025910389 0)
(0.31813224 -0.067741697 0)
(0.27327702 -0.12410791 0)
(0.20044706 -0.20584709 0)
(0.10213964 -0.3250691 0)
(-0.012387352 -0.45457165 0)
(-0.023756677 -0.40864067 0)
(-0.033081113 0.23907321 0)
(-0.042647143 0.21792013 0)
(0.042207213 0.16426626 0)
(0.12760454 0.12783573 0)
(0.20769785 0.10143543 0)
(0.28028141 0.081658093 0)
(0.34487284 0.066648076 0)
(0.40158271 0.054703011 0)
(0.4505503 0.044399468 0)
(0.49162006 0.034639948 0)
(0.52416152 0.024550633 0)
(0.54698575 0.013381762 0)
(0.55822209 0.00039980457 0)
(0.55570919 -0.015137271 0)
(0.53552605 -0.034969132 0)
(0.49244646 -0.062488159 0)
(0.41797262 -0.10694761 0)
(0.30410588 -0.19317543 0)
(0.12313778 -0.33691904 0)
(0.052374193 -0.39437913 0)
(0.24299927 0.15257481 0)
(0.30529621 0.11854289 0)
(0.45481219 0.076108152 0)
(0.56000887 0.050840192 0)
(0.63223321 0.035126075 0)
(0.68654911 0.024812293 0)
(0.72943819 0.017960086 0)
(0.76379622 0.013255918 0)
(0.79127917 0.0097622005 0)
(0.81275134 0.006854367 0)
(0.82841126 0.0041185311 0)
(0.83794387 0.0012768724 0)
(0.84057066 -0.0018441861 0)
(0.83497551 -0.0053262451 0)
(0.81886695 -0.0098289518 0)
(0.78942866 -0.016232741 0)
(0.73784288 -0.026935704 0)
(0.65316764 -0.051286552 0)
(0.45609767 -0.11374603 0)
(0.31788988 -0.17206003 0)
)
;

boundaryField
{
    movingWall
    {
        type            fixedValue;
        value           uniform (1 0 0);
    }
    fixedWalls
    {
        type            fixedValue;
        value           uniform (0 0 0);
    }
    frontAndBack
    {
        type            empty;
    }
}


// ************************************************************************* //
