/*--------------------------------*- C++ -*----------------------------------*\
| =========                 |                                                 |
| \\      /  F ield         | OpenFOAM: The Open Source CFD Toolbox           |
|  \\    /   O peration     | Version:  2112                                  |
|   \\  /    A nd           | Website:  www.openfoam.com                      |
|    \\/     M anipulation  |                                                 |
\*---------------------------------------------------------------------------*/
FoamFile
{
    version     2.0;
    format      ascii;
    arch        "LSB;label=32;scalar=64";
    class       volScalarField;
    location    "3";
    object      Ma;
}
// * * * * * * * * * * * * * * * * * * * * * * * * * * * * * * * * * * * * * //

dimensions      [0 0 0 0 0 0 0];

internalField   nonuniform List<scalar> 
5250
(
2.99999
2.99997
2.99988
2.99976
2.99925
2.99853
2.99577
2.99114
2.97599
2.94208
2.85736
2.6211
2.17378
1.21083
0.522522
0.251132
0.309781
0.323498
0.286147
0.229385
0.180319
0.141439
0.103395
0.0629517
0.0348502
2.99999
2.99997
2.99988
2.99976
2.99926
2.99856
2.99583
2.99129
2.97638
2.94319
2.85988
2.62806
2.18723
1.23156
0.533922
0.253037
0.313043
0.328037
0.291573
0.236417
0.188837
0.15119
0.114618
0.0773654
0.0551484
2.99999
2.99997
2.99989
2.99977
2.99929
2.9986
2.99595
2.9916
2.97711
2.9456
2.8651
2.64306
2.21669
1.27903
0.560913
0.261046
0.322896
0.340456
0.305708
0.253292
0.207999
0.172546
0.139092
0.107332
0.0902453
2.99999
2.99997
2.99989
2.99978
2.99932
2.99867
2.99611
2.99206
2.9782
2.94914
2.87281
2.66552
2.26151
1.35446
0.602581
0.27606
0.339685
0.36099
0.328461
0.279338
0.236109
0.202913
0.172498
0.144768
0.130076
2.99999
2.99997
2.9999
2.99979
2.99936
2.99875
2.99633
2.99262
2.97958
2.95352
2.88243
2.69375
2.31899
1.45565
0.657117
0.302843
0.366225
0.390745
0.360234
0.314183
0.27241
0.24072
0.212575
0.187779
0.174628
2.99999
2.99998
2.99991
2.99981
2.99941
2.99885
2.99658
2.99323
2.98103
2.95848
2.89284
2.72609
2.38558
1.59007
0.731065
0.347181
0.403606
0.427229
0.398199
0.355018
0.314681
0.284737
0.259314
0.237665
0.226554
3
2.99998
2.99991
2.99982
2.99945
2.99893
2.99684
2.99378
2.98238
2.96241
2.9014
2.75432
2.43893
1.71663
0.789781
0.374533
0.429752
0.453496
0.430889
0.394719
0.358776
0.332795
0.312023
0.295615
0.28938
3
2.99998
2.99992
2.99984
2.99949
2.99902
2.99707
2.99428
2.98355
2.96578
2.90849
2.7786
2.48152
1.79695
0.872301
0.421514
0.452339
0.468874
0.45902
0.432096
0.403838
0.384405
0.371551
0.363645
0.36834
3
2.99998
2.99993
2.99985
2.99954
2.99911
2.99734
2.99482
2.98492
2.96912
2.91616
2.80136
2.52604
1.88525
0.974389
0.481747
0.467709
0.483191
0.485286
0.467784
0.44949
0.439478
0.437304
0.445204
0.47553
3
2.99999
2.99994
2.99987
2.99961
2.99922
2.9977
2.99543
2.98703
2.97252
2.92632
2.81973
2.57564
1.9676
1.07986
0.549058
0.481533
0.500429
0.511981
0.504526
0.496879
0.497389
0.511887
0.551061
0.650187
3
2.99999
2.99996
2.99988
2.99975
2.99929
2.99845
2.99592
2.99016
2.97557
2.93714
2.85212
2.59543
2.12685
1.17148
0.627809
0.494556
0.517786
0.538574
0.541095
0.543333
0.557188
0.595152
0.678331
0.856294
3
2.99999
2.99996
2.99991
2.9997
2.99941
2.99828
2.99652
2.99036
2.97882
2.94484
2.8621
2.67768
2.17624
1.37352
0.721844
0.51931
0.542311
0.567558
0.577886
0.589227
0.615965
0.672266
0.77768
0.968709
3
2.99999
2.99996
2.99992
2.99974
2.99948
2.99844
2.99698
2.9911
2.98223
2.95045
2.88954
2.72466
2.32738
1.57613
0.8289
0.560678
0.5797
0.601651
0.616743
0.634711
0.671691
0.736835
0.841996
1.00645
3
3
2.99997
2.99993
2.99978
2.99957
2.9987
2.99747
2.99258
2.98528
2.95859
2.9109
2.77036
2.46217
1.7869
0.947951
0.621412
0.62691
0.642128
0.659139
0.679904
0.719331
0.786556
0.881864
1.0199
3
3
2.99998
2.99995
2.99982
2.99965
2.99895
2.99796
2.99403
2.98815
2.96717
2.92681
2.81811
2.54063
1.99644
1.06804
0.68899
0.663565
0.679931
0.699137
0.72249
0.761055
0.825001
0.911353
1.02756
3
3
2.99998
2.99996
2.99986
2.99973
2.99918
2.9984
2.99543
2.99059
2.9746
2.94032
2.85329
2.61744
2.17313
1.2581
0.793813
0.692537
0.707715
0.729075
0.758749
0.796422
0.85387
0.933313
1.03383
3
3
2.99999
2.99997
2.99989
2.99978
2.99934
2.99872
2.99622
2.99252
2.97925
2.95403
2.88315
2.70046
2.33632
1.50764
0.93116
0.73488
0.737197
0.757466
0.790751
0.830262
0.881044
0.950743
1.03898
3.00001
3
2.99999
2.99998
2.99992
2.99983
2.99949
2.99901
2.99707
2.99429
2.9837
2.96614
2.91063
2.78389
2.50563
1.8614
1.10635
0.809497
0.78499
0.795998
0.822967
0.861311
0.909051
0.969999
1.04566
3.00001
3
3
2.99998
2.99994
2.99987
2.99962
2.99925
2.99781
2.99568
2.98779
2.97439
2.9319
2.8352
2.61589
2.06496
1.27255
0.885777
0.827684
0.836556
0.858021
0.89153
0.934703
0.989125
1.05556
3.00001
3
3
2.99999
2.99997
2.99989
2.99978
2.99935
2.9987
2.9964
2.99225
2.97974
2.95076
2.88088
2.68761
2.31493
1.50434
1.00971
0.868782
0.869367
0.889076
0.921537
0.959936
1.00723
1.06535
3.00001
3.00001
3
2.99999
2.99998
2.99992
2.99983
2.99949
2.99901
2.99711
2.99433
2.98409
2.96628
2.91266
2.78547
2.5143
1.88666
1.19263
0.935208
0.912822
0.924269
0.952371
0.989941
1.03031
1.07851
3.00001
3.00001
3
3
2.99998
2.99995
2.99985
2.9997
2.99912
2.99826
2.99503
2.98987
2.9723
2.93881
2.84648
2.62815
2.13889
1.38516
1.01705
0.949754
0.957073
0.979524
1.01429
1.05334
1.09659
3.00001
3.00001
3
3
2.99999
2.99996
2.99991
2.99974
2.99948
2.99849
2.997
2.99157
2.98245
2.95327
2.89006
2.73694
2.35803
1.65492
1.15326
1.00266
0.993712
1.00651
1.034
1.07174
1.11319
3.00001
3.00001
3.00001
3
2.99999
2.99998
2.99993
2.99985
2.99956
2.99913
2.9975
2.99504
2.98619
2.97101
2.92435
2.82013
2.58232
2.04548
1.34324
1.07653
1.0363
1.0417
1.06124
1.09173
1.12931
3.00001
3.00001
3.00001
3
3
2.99999
2.99995
2.9999
2.99969
2.9994
2.99825
2.9966
2.99036
2.98024
2.94751
2.87596
2.71062
2.27965
1.59575
1.17915
1.07465
1.07178
1.08644
1.11343
1.14819
3.00001
3.00001
3.00001
3.00001
3
2.99999
2.99997
2.99993
2.99979
2.99959
2.9988
2.99766
2.99328
2.98665
2.9632
2.92098
2.80009
2.53918
1.95291
1.35366
1.13465
1.10467
1.11178
1.13371
1.16497
3.00001
3.00001
3.00001
3.00001
3
3
2.99999
2.99995
2.99989
2.99968
2.99936
2.99818
2.99637
2.99008
2.97878
2.94553
2.86759
2.69823
2.24634
1.5741
1.2224
1.14588
1.14192
1.15583
1.1801
3.00001
3.00001
3.00001
3.00001
3.00001
3
2.99999
2.99997
2.99993
2.99978
2.99956
2.99872
2.99753
2.99287
2.98595
2.96127
2.91709
2.79296
2.51705
1.93389
1.37489
1.19353
1.17261
1.18036
1.20156
3.00001
3.00001
3.00001
3.00001
3.00001
3
3
2.99998
2.99996
2.99986
2.99972
2.99918
2.99839
2.9954
2.9909
2.97486
2.94698
2.86475
2.68786
2.26953
1.6151
1.28494
1.20981
1.20611
1.21838
3.00001
3.00001
3.00001
3.00001
3.00001
3.00001
3
2.99999
2.99997
2.99993
2.99978
2.99957
2.99877
2.99757
2.99318
2.98621
2.96303
2.91902
2.8005
2.53629
1.96874
1.44528
1.26276
1.23749
1.24106
3.00001
3.00001
3.00001
3.00001
3.00001
3.00001
3
3
2.99998
2.99996
2.99986
2.99973
2.99921
2.99847
2.9956
2.99138
2.97615
2.9502
2.87359
2.70753
2.32507
1.68141
1.35753
1.27458
1.26725
3.00001
3.00001
3.00001
3.00001
3.00001
3.00001
3
3
2.99999
2.99998
2.99992
2.99984
2.99952
2.99907
2.99735
2.99482
2.98566
2.9705
2.92388
2.82066
2.60011
2.07165
1.54226
1.33315
1.3013
3.00001
3.00001
3.00001
3.00001
3.00001
3.00001
3.00001
3
3
2.99998
2.99996
2.99988
2.99976
2.99931
2.99863
2.99617
2.99228
2.97922
2.95529
2.88825
2.73989
2.38856
1.79541
1.43715
1.33864
3.00001
3.00001
3.00001
3.00001
3.00001
3.00001
3.00001
3.00001
3
3
2.99997
2.99994
2.99983
2.99965
2.99901
2.99804
2.99458
2.98898
2.97072
2.93711
2.84132
2.64816
2.16224
1.63473
1.40565
3.00001
3.00001
3.00001
3.00001
3.00001
3.00001
3.00001
3.00001
3
3
2.99999
2.99997
2.9999
2.99979
2.99939
2.99882
2.99663
2.99344
2.98181
2.96267
2.90479
2.78098
2.49954
1.92638
1.53771
3.00001
3.00001
3.00001
3.00001
3.00001
3.00001
3.00001
3.00001
3.00001
3
3
2.99998
2.99994
2.99988
2.99965
2.99931
2.99803
2.99618
2.9893
2.97865
2.94361
2.87446
2.70704
2.31224
1.75031
3.00001
3.00001
3.00001
3.00001
3.00001
3.00001
3.00001
3.00001
3.00001
3
3
2.99999
2.99998
2.99992
2.99984
2.99953
2.99907
2.9974
2.99486
2.98611
2.97098
2.92655
2.82728
2.6158
2.1152
3.00001
3.00001
3.00001
3.00001
3.00001
3.00001
3.00001
3.00001
3.00001
3.00001
3
3
2.99999
2.99996
2.99991
2.99973
2.99946
2.99848
2.99704
2.99182
2.98342
2.95684
2.90067
2.77243
2.43749
3.00001
3.00001
3.00001
3.00001
3.00001
3.00001
3.00001
3.00001
3.00001
3.00001
3.00001
3
3
2.99998
2.99994
2.99987
2.99964
2.99928
2.99799
2.99604
2.98917
2.97778
2.94297
2.87036
2.69897
3.00001
3.00001
3.00001
3.00001
3.00001
3.00001
3.00001
3.00001
3.00001
3.00001
3.00001
3
3
2.99999
2.99997
2.99993
2.99979
2.99959
2.99884
2.99777
2.99375
2.98771
2.9671
2.92999
2.83178
3.00001
3.00001
3.00001
3.00001
3.00001
3.00001
3.00001
3.00001
3.00001
3.00001
3.00001
3.00001
3
3
2.99999
2.99996
2.99989
2.99978
2.99936
2.99875
2.99652
2.99313
2.98148
2.9616
2.90269
3.00001
3.00001
3.00001
3.00001
3.00001
3.00001
3.00001
3.00001
3.00001
3.00001
3.00001
3.00001
3.00001
3
3
2.99998
2.99995
2.99986
2.99971
2.99919
2.99839
2.99563
2.99115
2.97678
2.95075
3.00001
3.00001
3.00001
3.00001
3.00001
3.00001
3.00001
3.00001
3.00001
3.00001
3.00001
3.00001
3.00001
3
3
2.99999
2.99998
2.99992
2.99985
2.99956
2.99914
2.9976
2.99533
2.98731
2.97431
3.00001
3.00001
3.00001
3.00001
3.00001
3.00001
3.00001
3.00001
3.00001
3.00001
3.00001
3.00001
3.00001
3.00001
3
3
2.99999
2.99996
2.99992
2.99976
2.99953
2.99869
2.99746
2.99297
2.98612
3.00001
3.00001
3.00001
3.00001
3.00001
3.00001
3.00001
3.00001
3.00001
3.00001
3.00001
3.00001
3.00001
3.00001
3.00001
3
3
2.99999
2.99995
2.9999
2.9997
2.99941
2.99838
2.99682
2.99133
3.00001
3.00001
3.00001
3.00001
3.00001
3.00001
3.00001
3.00001
3.00001
3.00001
3.00001
3.00001
3.00001
3.00001
3.00001
3.00001
3
3
2.99998
2.99995
2.99984
2.99968
2.9991
2.99824
2.99517
3.00001
3.00001
3.00001
3.00001
3.00001
3.00001
3.00001
3.00001
3.00001
3.00001
3.00001
3.00001
3.00001
3.00001
3.00001
3.00001
3
3
2.99999
2.99997
2.99991
2.99982
2.99948
2.99898
2.99716
3.00001
3.00001
3.00001
3.00001
3.00001
3.00001
3.00001
3.00001
3.00001
3.00001
3.00001
3.00001
3.00001
3.00001
3.00001
3.00001
3.00001
3
3
2.99998
2.99995
2.99985
2.9997
2.99914
2.99831
3.00001
3.00001
3.00001
3.00001
3.00001
3.00001
3.00001
3.00001
3.00001
3.00001
3.00001
3.00001
3.00001
3.00001
3.00001
3.00001
3.00001
3
3
2.99999
2.99995
2.9999
2.99968
2.99938
2.99817
3.00001
3.00001
3.00001
3.00001
3.00001
3.00001
3.00001
3.00001
3.00001
3.00001
3.00001
3.00001
3.00001
3.00001
3.00001
3.00001
3.00001
3
3
2.99999
2.99995
2.9999
2.9997
2.99941
2.99822
1.09622
1.28996
1.34903
1.31662
1.24184
1.15725
1.07828
1.03589
1.02796
1.02964
1.03036
1.02887
1.02577
1.02117
1.0159
1.01264
1.01145
1.01098
1.01031
1.00903
1.00626
1.00012
0.986652
0.957388
0.894494
0.762048
0.506194
0.224683
0.108466
0.130662
0.223667
0.318606
0.390877
0.428445
0.441343
0.438129
0.420695
0.389326
0.341523
0.281035
0.21645
0.15343
0.0948926
0.0495148
0.0407622
0.0782738
0.119779
0.158518
0.194616
0.226392
0.256806
0.287756
0.318339
0.346548
0.373644
0.399064
0.424036
0.447624
0.471064
0.493271
0.515515
0.536657
0.557939
0.578219
0.598712
0.618278
0.638106
0.657046
0.676295
0.694656
0.713372
0.731213
0.749433
0.766827
0.784622
0.801624
0.819082
0.835708
0.852894
0.869137
0.886065
0.901905
0.918577
0.933986
0.950399
0.965392
0.981532
0.996199
1.01201
1.02647
1.04186
1.05621
1.07115
1.0853
1.09975
1.11344
1.12692
1.13903
1.14889
1.15594
1.14054
1.25952
1.32697
1.36783
1.40797
1.4393
1.45031
1.44624
1.43117
1.40842
1.38928
1.3827
1.38262
1.38308
1.38333
1.38279
1.38148
1.37945
1.37742
1.37576
1.37335
1.36847
1.35779
1.33428
1.28239
1.17152
0.94349
0.644233
0.44627
0.350233
0.267658
0.187483
0.110038
0.060964
0.0855316
0.126487
0.140935
0.10395
0.0791896
0.0782796
0.109478
0.150983
0.195049
0.235371
0.272119
0.306852
0.341343
0.3739
0.40549
0.433691
0.460489
0.487006
0.514621
0.540094
0.564747
0.587724
0.610696
0.632357
0.654161
0.674748
0.695579
0.715291
0.735337
0.754331
0.77371
0.792074
0.810875
0.828668
0.846981
0.864257
0.88217
0.898969
0.916548
0.932895
0.95018
0.966091
0.983093
0.998588
1.01531
1.03043
1.04687
1.06169
1.07784
1.09244
1.10827
1.12267
1.13819
1.15237
1.16758
1.18152
1.19645
1.21022
1.22488
1.23844
1.25277
1.26581
1.27927
1.29077
1.30095
1.30734
1.1403
1.2491
1.34574
1.4383
1.52308
1.58976
1.62291
1.62604
1.62099
1.60685
1.58742
1.57131
1.56183
1.55797
1.55736
1.55757
1.55766
1.5575
1.55704
1.556
1.55414
1.55059
1.54286
1.52713
1.49115
1.41733
1.24935
0.991263
0.759206
0.656596
0.578951
0.50041
0.420404
0.34232
0.275903
0.223316
0.199156
0.226119
0.27464
0.322734
0.363598
0.399109
0.432106
0.461479
0.489164
0.514901
0.540588
0.565146
0.589575
0.612053
0.633509
0.654375
0.676965
0.698866
0.720381
0.740239
0.760342
0.779244
0.798668
0.816943
0.835846
0.853547
0.871994
0.8892
0.907262
0.924015
0.941692
0.958013
0.975297
0.991247
1.00815
1.0238
1.04034
1.05572
1.07193
1.08707
1.10302
1.11787
1.1336
1.14812
1.16364
1.17779
1.19312
1.20689
1.222
1.23548
1.25039
1.26375
1.2785
1.29181
1.30632
1.31949
1.33368
1.34663
1.3604
1.37291
1.38586
1.39707
1.40708
1.41334
1.14625
1.25552
1.35494
1.44623
1.52731
1.59515
1.64804
1.68568
1.7064
1.71137
1.70959
1.70237
1.69101
1.67998
1.67302
1.67042
1.67045
1.67089
1.67117
1.67109
1.6705
1.66867
1.66424
1.65395
1.63145
1.58164
1.47653
1.26173
1.00882
0.889108
0.810017
0.736242
0.666864
0.594837
0.524769
0.469632
0.456735
0.480378
0.521292
0.562353
0.596291
0.622154
0.641335
0.657219
0.673193
0.688866
0.705682
0.722109
0.739698
0.756335
0.772956
0.788736
0.806468
0.82446
0.842916
0.859896
0.877424
0.893848
0.911146
0.927421
0.94461
0.96072
0.977674
0.993497
1.01011
1.02564
1.04194
1.05723
1.07327
1.08836
1.10419
1.1191
1.13472
1.14937
1.16469
1.17897
1.19401
1.20793
1.22278
1.23646
1.25119
1.26471
1.27935
1.29281
1.30743
1.3208
1.33529
1.34835
1.36259
1.37527
1.38929
1.40163
1.41546
1.42753
1.44112
1.45286
1.4658
1.47654
1.48675
1.49277
1.14556
1.25268
1.349
1.43669
1.51664
1.5879
1.65098
1.704
1.74547
1.7728
1.78381
1.7839
1.78165
1.77521
1.76593
1.75776
1.75199
1.74884
1.74784
1.74776
1.74749
1.74668
1.74431
1.73841
1.72521
1.69385
1.6316
1.48204
1.26848
1.06992
0.975694
0.913901
0.846904
0.770679
0.69528
0.642512
0.634572
0.657659
0.699065
0.741378
0.773191
0.794801
0.806643
0.812147
0.817536
0.824675
0.834481
0.845263
0.85794
0.870521
0.884104
0.89677
0.911204
0.926292
0.943121
0.958752
0.974924
0.990117
1.00621
1.0214
1.03743
1.05241
1.06827
1.08309
1.09887
1.11358
1.12917
1.1436
1.15885
1.17294
1.18788
1.20174
1.21653
1.23024
1.24491
1.25841
1.27287
1.28603
1.30023
1.31303
1.32703
1.33964
1.35354
1.36596
1.37969
1.39189
1.40546
1.4175
1.43088
1.44277
1.45591
1.46765
1.48053
1.49209
1.50471
1.51591
1.52801
1.53821
1.54807
1.55366
1.14012
1.24122
1.33474
1.42012
1.49835
1.5699
1.63393
1.69055
1.73857
1.77798
1.8083
1.82787
1.83589
1.83625
1.8346
1.82968
1.82224
1.81509
1.80969
1.80664
1.80541
1.80502
1.8042
1.80146
1.79524
1.7784
1.74189
1.66029
1.48487
1.26198
1.11831
1.04082
0.968381
0.883833
0.798755
0.748793
0.746257
0.772804
0.816814
0.86358
0.898162
0.919634
0.933281
0.937041
0.935884
0.93583
0.939082
0.94498
0.953762
0.963826
0.975521
0.986203
0.998107
1.01066
1.02566
1.0403
1.05536
1.06934
1.08403
1.09799
1.11284
1.12683
1.14152
1.15516
1.16953
1.18294
1.19725
1.21057
1.22483
1.23791
1.25198
1.26477
1.27869
1.29127
1.30509
1.31746
1.33108
1.34323
1.35669
1.36881
1.38215
1.39414
1.40726
1.4191
1.43196
1.44358
1.45617
1.46759
1.47998
1.49127
1.50353
1.51473
1.52691
1.53799
1.55007
1.56093
1.57261
1.58272
1.59241
1.59823
1.13454
1.22831
1.31674
1.39908
1.47531
1.54572
1.61031
1.66894
1.72153
1.76781
1.8068
1.83856
1.86159
1.87551
1.88017
1.88001
1.87827
1.87383
1.86775
1.86212
1.85807
1.85542
1.85388
1.85178
1.84732
1.83779
1.81634
1.76918
1.66579
1.47233
1.25547
1.14254
1.05238
0.939621
0.842669
0.804252
0.809187
0.839952
0.889924
0.943886
0.982368
1.00509
1.01961
1.02793
1.02983
1.02783
1.02705
1.0291
1.03461
1.04228
1.05243
1.06225
1.07266
1.08295
1.09565
1.10908
1.12361
1.13704
1.1509
1.16349
1.17684
1.18923
1.20272
1.21525
1.22882
1.2412
1.25458
1.26669
1.27992
1.29191
1.3051
1.31703
1.33011
1.34186
1.35466
1.36611
1.37873
1.3901
1.40267
1.41395
1.42648
1.43771
1.45015
1.46125
1.47353
1.48448
1.49658
1.50741
1.5193
1.53007
1.54173
1.55245
1.56392
1.57456
1.58586
1.59634
1.6073
1.61713
1.62645
1.63216
1.13054
1.21626
1.29906
1.3773
1.45078
1.51933
1.58306
1.6419
1.69569
1.7444
1.78744
1.82484
1.85598
1.88082
1.89822
1.90856
1.91202
1.91178
1.91017
1.90612
1.90079
1.89523
1.89104
1.88795
1.88522
1.87979
1.86741
1.84098
1.78294
1.65159
1.44509
1.24001
1.09691
0.944756
0.844331
0.821351
0.833507
0.875138
0.932617
0.98757
1.03055
1.0611
1.08109
1.09418
1.10373
1.10896
1.10983
1.10943
1.11127
1.11597
1.1236
1.13215
1.14189
1.15056
1.16054
1.171
1.18334
1.19513
1.20782
1.21957
1.23211
1.24353
1.25576
1.26683
1.2789
1.2899
1.30209
1.31317
1.32544
1.33645
1.3486
1.35946
1.37156
1.38236
1.39452
1.40539
1.41751
1.42826
1.44017
1.45082
1.46254
1.4731
1.48466
1.49515
1.50657
1.51701
1.52832
1.53874
1.54994
1.56037
1.57148
1.58191
1.59295
1.60332
1.61428
1.62448
1.63521
1.64477
1.65403
1.65957
1.12988
1.20766
1.28431
1.35804
1.42787
1.49389
1.55565
1.6136
1.66714
1.71681
1.76181
1.80269
1.83849
1.86963
1.89531
1.91551
1.92903
1.93658
1.93886
1.93854
1.9371
1.93372
1.9293
1.92503
1.92109
1.91631
1.90822
1.8904
1.85493
1.77506
1.62484
1.36836
1.1173
0.91356
0.815339
0.807985
0.830222
0.884685
0.949882
1.00735
1.05644
1.0969
1.128
1.15045
1.16593
1.17846
1.18657
1.1895
1.18897
1.18943
1.19197
1.19656
1.20347
1.21058
1.2184
1.22612
1.236
1.24593
1.25699
1.26703
1.27799
1.28799
1.29911
1.3093
1.32056
1.33072
1.34188
1.3519
1.36304
1.37307
1.38433
1.39446
1.40586
1.4161
1.42754
1.43766
1.44898
1.45903
1.47029
1.48037
1.49157
1.50174
1.51287
1.52312
1.53418
1.54446
1.55544
1.56566
1.57653
1.58669
1.59746
1.60755
1.61824
1.62823
1.63888
1.6487
1.65916
1.66839
1.67755
1.68288
1.1315
1.20166
1.27252
1.34172
1.40815
1.4713
1.531
1.58726
1.63995
1.68923
1.73479
1.77691
1.81502
1.84943
1.87937
1.90513
1.92607
1.94261
1.95344
1.95954
1.96126
1.9609
1.95947
1.95613
1.95147
1.94553
1.93838
1.92439
1.89806
1.83837
1.72196
1.48703
1.15046
0.855959
0.754813
0.766424
0.815491
0.886651
0.958832
1.02476
1.08345
1.13266
1.17297
1.20366
1.22536
1.24112
1.25221
1.259
1.26129
1.25969
1.25771
1.25651
1.25856
1.26249
1.26813
1.27341
1.28028
1.2878
1.29761
1.30656
1.31657
1.32542
1.33544
1.34436
1.3545
1.36365
1.37407
1.38355
1.39424
1.40398
1.41485
1.42473
1.43574
1.44558
1.45653
1.4663
1.47721
1.48701
1.49789
1.50773
1.51853
1.52838
1.53909
1.54897
1.55964
1.56957
1.58021
1.59014
1.60075
1.61058
1.62116
1.63089
1.64146
1.6511
1.66164
1.67114
1.68152
1.69051
1.69967
1.70487
1.13621
1.19871
1.26321
1.32767
1.39035
1.45091
1.50831
1.56315
1.6145
1.66327
1.70852
1.75115
1.79024
1.82659
1.85923
1.88886
1.91442
1.93646
1.95412
1.96787
1.97668
1.98138
1.9822
1.98153
1.97945
1.9749
1.96724
1.95415
1.92808
1.87522
1.76589
1.56019
1.20675
0.878434
0.773118
0.806238
0.859239
0.933114
1.00754
1.07221
1.1278
1.17572
1.2157
1.24795
1.27185
1.2892
1.30093
1.30923
1.31442
1.31642
1.31493
1.31115
1.30933
1.30872
1.31115
1.31475
1.31943
1.32445
1.33184
1.3398
1.34929
1.3578
1.36752
1.37607
1.38591
1.39464
1.40465
1.41356
1.4237
1.43284
1.44324
1.45268
1.46313
1.47259
1.483
1.49244
1.50286
1.51237
1.52281
1.53242
1.54284
1.5525
1.56287
1.57256
1.58292
1.59262
1.60299
1.61265
1.62303
1.63261
1.64301
1.6525
1.66291
1.67228
1.68269
1.69187
1.70212
1.7108
1.7199
1.72491
1.14554
1.20035
1.25821
1.31701
1.37517
1.43218
1.48714
1.53982
1.5901
1.63767
1.68282
1.72516
1.76509
1.80213
1.8367
1.86824
1.89709
1.92257
1.94503
1.96358
1.97889
1.98988
1.99677
1.99848
1.99749
1.99424
1.98709
1.97184
1.94159
1.8823
1.76206
1.56447
1.3036
1.03732
0.898171
0.896606
0.928152
0.975282
1.03614
1.09382
1.14531
1.1917
1.23195
1.26575
1.29346
1.31563
1.33205
1.34392
1.35289
1.35854
1.3615
1.36185
1.35943
1.35652
1.35499
1.35604
1.35907
1.36277
1.36758
1.3732
1.38121
1.38905
1.39835
1.40644
1.41576
1.4239
1.43337
1.44178
1.45153
1.46034
1.47032
1.47927
1.48923
1.49826
1.50822
1.51738
1.52741
1.53671
1.54677
1.55612
1.56619
1.57555
1.58566
1.59501
1.60517
1.61455
1.62472
1.63413
1.6443
1.65368
1.66388
1.67318
1.68345
1.69263
1.70296
1.712
1.72223
1.73082
1.73991
1.74491
1.15814
1.207
1.25793
1.31115
1.36459
1.41731
1.46886
1.51888
1.56692
1.61315
1.65703
1.69905
1.73856
1.77621
1.81119
1.84431
1.87456
1.90277
1.92794
1.95063
1.97003
1.98602
1.99854
2.00455
2.00396
2.00089
1.99248
1.97207
1.93106
1.84582
1.69331
1.4947
1.34474
1.20514
1.059
0.984358
0.979918
1.00422
1.04096
1.09174
1.14207
1.19072
1.23411
1.27169
1.30393
1.33103
1.3534
1.37048
1.38368
1.39325
1.40031
1.4042
1.40582
1.40492
1.40199
1.4005
1.39969
1.4016
1.40483
1.40825
1.41336
1.41962
1.42821
1.43595
1.44497
1.45278
1.46191
1.46994
1.47933
1.48767
1.49713
1.50565
1.51521
1.52393
1.5336
1.54247
1.55215
1.56111
1.5708
1.57986
1.58966
1.5988
1.60872
1.61779
1.62777
1.63672
1.64676
1.6557
1.66579
1.6748
1.68495
1.69402
1.7042
1.71323
1.72338
1.73225
1.74227
1.75065
1.75962
1.7645
1.16975
1.21364
1.26047
1.30865
1.35784
1.40704
1.45527
1.50258
1.54837
1.59264
1.63521
1.67608
1.715
1.75234
1.78742
1.82107
1.85212
1.8818
1.9086
1.93377
1.95587
1.97528
1.99145
2.00025
2.00006
1.9958
1.98314
1.95392
1.89045
1.76508
1.5855
1.44527
1.37051
1.31829
1.23369
1.13775
1.07377
1.06092
1.07773
1.10362
1.14121
1.18573
1.23023
1.27102
1.30723
1.33909
1.36595
1.38875
1.407
1.42103
1.43196
1.44038
1.44528
1.44806
1.44855
1.44686
1.4441
1.44269
1.44346
1.44551
1.4486
1.45233
1.4582
1.46488
1.47344
1.48118
1.49018
1.49801
1.507
1.51493
1.52405
1.53228
1.54164
1.55014
1.55962
1.56815
1.57761
1.58615
1.59565
1.60427
1.61393
1.62265
1.63246
1.64121
1.65111
1.65988
1.66982
1.67858
1.68857
1.69727
1.70728
1.71589
1.72585
1.73443
1.74429
1.75288
1.76255
1.77083
1.77951
1.78445
1.18347
1.22184
1.26404
1.30782
1.35291
1.39867
1.44418
1.48888
1.53267
1.57526
1.61625
1.65624
1.69407
1.73109
1.76569
1.79947
1.83085
1.86108
1.88904
1.91536
1.93941
1.96054
1.97872
1.98711
1.98496
1.97793
1.95785
1.91114
1.81284
1.64588
1.49766
1.42568
1.39766
1.38086
1.35281
1.30161
1.23232
1.16875
1.14064
1.14306
1.16033
1.18776
1.22554
1.2642
1.30355
1.33926
1.37106
1.39871
1.42218
1.44161
1.45731
1.46913
1.47844
1.48518
1.48824
1.48969
1.48943
1.4871
1.48563
1.48434
1.48571
1.48799
1.49117
1.49535
1.50217
1.50927
1.51806
1.52567
1.53447
1.5421
1.5509
1.55871
1.56771
1.57574
1.58495
1.59316
1.60254
1.61086
1.6203
1.62864
1.63811
1.64646
1.65604
1.66446
1.67415
1.68264
1.69237
1.70085
1.71058
1.71902
1.72873
1.73716
1.74685
1.7553
1.76498
1.77344
1.78308
1.79127
1.8
1.80501
1.19834
1.23302
1.27011
1.31044
1.35138
1.39355
1.4361
1.47849
1.51985
1.56104
1.60023
1.63928
1.67603
1.71234
1.74664
1.77983
1.81155
1.84153
1.87041
1.89683
1.92216
1.94363
1.96094
1.9655
1.96083
1.94741
1.91173
1.83365
1.68453
1.53411
1.45191
1.42552
1.42177
1.42418
1.42191
1.40774
1.37683
1.32648
1.26774
1.22213
1.20747
1.21824
1.23552
1.2623
1.29844
1.33352
1.36902
1.40086
1.42926
1.45377
1.47439
1.49125
1.50426
1.51484
1.5226
1.5275
1.52991
1.53059
1.5295
1.5269
1.52578
1.52562
1.52736
1.52975
1.53327
1.53808
1.54552
1.55291
1.56163
1.56913
1.57759
1.58493
1.59346
1.60102
1.60988
1.6178
1.62689
1.63498
1.64408
1.65221
1.6613
1.66946
1.67861
1.68677
1.696
1.70416
1.71351
1.72169
1.73114
1.73943
1.74891
1.75736
1.7668
1.77534
1.78468
1.79318
1.80234
1.81043
1.81877
1.82361
1.21244
1.24475
1.2782
1.31444
1.35259
1.39124
1.4306
1.47069
1.50974
1.54903
1.58697
1.62423
1.66062
1.69534
1.72976
1.76192
1.79389
1.82345
1.85257
1.87927
1.90406
1.92567
1.93707
1.93566
1.92594
1.90096
1.83864
1.71356
1.5574
1.46232
1.43343
1.43252
1.44265
1.45402
1.46476
1.46835
1.4643
1.44686
1.41248
1.36333
1.31215
1.28151
1.27448
1.28674
1.30477
1.33155
1.36392
1.39607
1.42837
1.45717
1.48287
1.50492
1.52334
1.53832
1.54958
1.55915
1.56585
1.56898
1.57065
1.57082
1.56921
1.56749
1.56585
1.56678
1.56884
1.57134
1.57541
1.5809
1.58874
1.59601
1.60432
1.61166
1.6199
1.62718
1.63542
1.64286
1.65122
1.65892
1.66742
1.67533
1.68394
1.69195
1.70065
1.70865
1.71745
1.72542
1.73435
1.74237
1.7514
1.75952
1.76857
1.77674
1.78575
1.79397
1.80296
1.81122
1.82019
1.82817
1.83644
1.84133
1.22941
1.25925
1.28956
1.32128
1.35586
1.3922
1.42811
1.46561
1.5026
1.53952
1.5762
1.6117
1.64708
1.68085
1.71426
1.74611
1.77722
1.80695
1.83517
1.86197
1.8854
1.90295
1.90609
1.899
1.87905
1.83215
1.72634
1.56865
1.46157
1.4274
1.42861
1.44156
1.45873
1.47719
1.49538
1.50748
1.51351
1.51395
1.50604
1.48512
1.45024
1.40633
1.36495
1.34354
1.34039
1.35241
1.36991
1.3954
1.42511
1.45464
1.48402
1.51086
1.53433
1.55481
1.57144
1.58472
1.59504
1.60317
1.60866
1.61088
1.61173
1.61133
1.60929
1.60807
1.60715
1.60839
1.61016
1.61281
1.61745
1.6235
1.63124
1.63859
1.64658
1.65378
1.66163
1.66886
1.67678
1.68416
1.6922
1.69973
1.70789
1.71557
1.72391
1.7317
1.74019
1.74799
1.75653
1.7643
1.7729
1.78069
1.78944
1.79729
1.80614
1.81402
1.82289
1.83072
1.83953
1.84707
1.8552
1.85979
1.24202
1.27231
1.30205
1.33121
1.3616
1.39488
1.42881
1.46283
1.49814
1.53262
1.5677
1.60187
1.63559
1.66877
1.70078
1.73225
1.76238
1.79156
1.81926
1.84417
1.8654
1.87299
1.86765
1.85232
1.81449
1.72905
1.57446
1.45602
1.41403
1.41373
1.42811
1.44787
1.47143
1.4958
1.5156
1.53133
1.54382
1.55316
1.5579
1.55793
1.54919
1.52929
1.49822
1.46027
1.42605
1.40892
1.40684
1.41783
1.43366
1.45682
1.48429
1.51115
1.53787
1.5632
1.58503
1.60384
1.61889
1.63046
1.64018
1.64673
1.65053
1.65183
1.65207
1.65091
1.64838
1.64698
1.64657
1.648
1.64995
1.6531
1.65856
1.66512
1.67292
1.68018
1.68808
1.6952
1.70294
1.70998
1.71768
1.72475
1.73254
1.73968
1.74766
1.75496
1.76319
1.77064
1.77905
1.78656
1.79506
1.80256
1.81112
1.81861
1.82726
1.83478
1.84353
1.85104
1.85979
1.86703
1.87507
1.87943
1.25931
1.28637
1.31454
1.34332
1.37085
1.39997
1.4313
1.46324
1.49565
1.52863
1.56122
1.59417
1.62642
1.65828
1.68959
1.71989
1.74948
1.7776
1.80385
1.82657
1.83855
1.83591
1.82308
1.79048
1.71877
1.57554
1.44763
1.39504
1.39219
1.40737
1.42864
1.45508
1.48357
1.5088
1.53043
1.54919
1.56532
1.57986
1.59235
1.6017
1.60633
1.60635
1.59822
1.57962
1.55155
1.51845
1.48843
1.47273
1.46981
1.47974
1.49365
1.51443
1.54035
1.56533
1.59001
1.61379
1.63396
1.65045
1.66394
1.67411
1.68236
1.68782
1.68972
1.69023
1.68994
1.68815
1.68631
1.68462
1.68531
1.68675
1.68925
1.6931
1.69932
1.70579
1.71347
1.72028
1.72783
1.73451
1.74192
1.74854
1.75604
1.76271
1.77036
1.77711
1.78495
1.79187
1.79997
1.80714
1.8155
1.82291
1.83145
1.83899
1.84762
1.85516
1.86384
1.87128
1.8799
1.88698
1.89491
1.8991
1.27561
1.29683
1.32555
1.35384
1.38169
1.40904
1.43712
1.46631
1.49647
1.52703
1.55807
1.58852
1.61958
1.64969
1.67978
1.70897
1.73723
1.76397
1.78747
1.80283
1.80329
1.79212
1.76371
1.70176
1.56874
1.43233
1.37026
1.36524
1.38116
1.40357
1.43213
1.46367
1.49178
1.51714
1.5402
1.56209
1.58181
1.59968
1.61525
1.63007
1.64245
1.65183
1.65623
1.65645
1.64953
1.63297
1.60811
1.57944
1.5526
1.53713
1.53245
1.54119
1.55243
1.56988
1.59325
1.61668
1.63959
1.66127
1.67979
1.69474
1.70702
1.71658
1.72341
1.72751
1.72847
1.72875
1.72794
1.72552
1.72419
1.72337
1.72448
1.72594
1.72864
1.7329
1.73935
1.74549
1.75272
1.75912
1.7662
1.77239
1.77943
1.78571
1.79313
1.79972
1.80753
1.81432
1.82235
1.82932
1.83744
1.84455
1.85272
1.85994
1.86815
1.87541
1.88364
1.89085
1.89905
1.90594
1.91359
1.91772
1.30004
1.31365
1.3365
1.36424
1.39122
1.41779
1.44486
1.47245
1.50048
1.52887
1.55764
1.58687
1.61545
1.64453
1.6726
1.7004
1.72661
1.75066
1.76762
1.77055
1.76049
1.73549
1.67925
1.56205
1.41837
1.34571
1.3374
1.35318
1.37599
1.40628
1.43992
1.47048
1.49796
1.52368
1.54811
1.57153
1.59384
1.61474
1.63378
1.65076
1.6667
1.68151
1.694
1.70369
1.70895
1.70965
1.70441
1.69032
1.66797
1.64285
1.61782
1.60105
1.5937
1.60044
1.60891
1.6228
1.64342
1.66628
1.68789
1.70752
1.72473
1.73913
1.75003
1.75835
1.76344
1.76555
1.76603
1.76586
1.76444
1.76229
1.76106
1.76121
1.76209
1.76376
1.76712
1.77169
1.77826
1.78439
1.79153
1.7977
1.80474
1.81073
1.81774
1.82377
1.83104
1.83733
1.84489
1.85149
1.85926
1.86606
1.87396
1.88087
1.88883
1.89581
1.90381
1.91077
1.91878
1.92544
1.93291
1.93697
1.32753
1.33348
1.35132
1.37654
1.40205
1.42726
1.45253
1.47849
1.5049
1.53189
1.55909
1.58644
1.61409
1.64084
1.66797
1.69341
1.71699
1.73526
1.73963
1.73029
1.70781
1.65591
1.55361
1.40219
1.3184
1.30738
1.32279
1.34652
1.37836
1.41391
1.44627
1.47544
1.50277
1.5288
1.55415
1.57857
1.60245
1.62503
1.64678
1.6668
1.68549
1.70262
1.71929
1.73452
1.74725
1.75685
1.76245
1.76357
1.76019
1.74886
1.72919
1.70635
1.68228
1.6636
1.65421
1.6563
1.6633
1.67438
1.69178
1.71364
1.73386
1.75253
1.76849
1.78169
1.79128
1.79807
1.80221
1.8033
1.80343
1.80255
1.80066
1.79922
1.79796
1.79854
1.79954
1.80148
1.80536
1.81011
1.81648
1.82223
1.82909
1.83489
1.84179
1.84752
1.85453
1.86044
1.86772
1.87393
1.88143
1.88789
1.89547
1.9021
1.90966
1.9164
1.92398
1.93073
1.93835
1.94484
1.95199
1.95596
1.36204
1.35876
1.36803
1.38743
1.41358
1.43852
1.46285
1.48722
1.5118
1.53687
1.56229
1.58784
1.61358
1.63929
1.66373
1.6871
1.70556
1.711
1.70215
1.68151
1.63453
1.53908
1.38558
1.29205
1.27834
1.29368
1.3177
1.35042
1.3874
1.42103
1.45142
1.4797
1.50686
1.53332
1.55942
1.5849
1.60968
1.63355
1.65671
1.67898
1.70039
1.72034
1.73882
1.7562
1.7726
1.78749
1.80043
1.81041
1.81688
1.8185
1.81677
1.80773
1.79043
1.76874
1.74523
1.72515
1.71348
1.70972
1.71626
1.72456
1.73843
1.75684
1.77639
1.7952
1.81118
1.82353
1.83294
1.83873
1.84132
1.84144
1.84087
1.83895
1.83616
1.83487
1.83376
1.83431
1.83547
1.8378
1.84227
1.84709
1.85357
1.85907
1.86583
1.87138
1.87818
1.88382
1.89076
1.89667
1.90379
1.90999
1.9172
1.9236
1.93088
1.93735
1.9447
1.95114
1.95854
1.96471
1.97167
1.97538
1.40742
1.3864
1.38796
1.40125
1.42292
1.44785
1.47157
1.49517
1.51877
1.54274
1.56669
1.59081
1.6147
1.63804
1.66012
1.67831
1.68452
1.67584
1.656
1.61152
1.51962
1.37077
1.26936
1.2521
1.26638
1.28973
1.32275
1.3606