/*--------------------------------*- C++ -*----------------------------------*\
| =========                 |                                                 |
| \\      /  F ield         | OpenFOAM: The Open Source CFD Toolbox           |
|  \\    /   O peration     | Version:  2112                                  |
|   \\  /    A nd           | Website:  www.openfoam.com                      |
|    \\/     M anipulation  |                                                 |
\*---------------------------------------------------------------------------*/
FoamFile
{
    version     2.0;
    format      ascii;
    arch        "LSB;label=32;scalar=64";
    class       volScalarField;
    location    "3";
    object      p;
}
// * * * * * * * * * * * * * * * * * * * * * * * * * * * * * * * * * * * * * //

dimensions      [1 -1 -2 0 0 0 0];

internalField   nonuniform List<scalar> 
5250
(
1.00001
1.00003
1.00008
1.00025
1.00051
1.00146
1.00286
1.00892
1.01566
1.0582
1.09485
1.37867
1.78413
3.60984
8.07854
11.7074
11.2727
11.0487
11.1435
11.3817
11.5881
11.7094
11.804
11.8756
11.9281
1.00001
1.00003
1.00008
1.00024
1.0005
1.00144
1.00282
1.00876
1.01543
1.05709
1.09315
1.37123
1.76783
3.55531
7.94465
11.7293
11.2779
11.0412
11.1357
11.3738
11.5812
11.7041
11.8009
11.8749
11.9302
1
1.00003
1.00008
1.00023
1.00049
1.00139
1.00275
1.00844
1.01504
1.05468
1.08986
1.35537
1.73308
3.43733
7.64134
11.7742
11.285
11.0149
11.1057
11.3398
11.5483
11.6726
11.7712
11.8474
11.9055
1
1.00003
1.00008
1.00022
1.00046
1.00132
1.00263
1.00796
1.01446
1.05112
1.08505
1.33192
1.68149
3.26164
7.17164
11.8392
11.299
10.9704
11.0533
11.2784
11.4892
11.6145
11.7136
11.7921
11.8558
1
1.00003
1.00007
1.00021
1.00044
1.00124
1.00249
1.00737
1.01371
1.04672
1.07903
1.30281
1.61743
3.04338
6.56718
11.9047
11.3222
10.9155
10.9852
11.1928
11.4059
11.5307
11.6288
11.7084
11.7786
1
1.00003
1.00007
1.0002
1.00041
1.00115
1.00232
1.00671
1.01295
1.04177
1.07255
1.27048
1.54445
2.79796
5.84387
11.8794
11.3215
10.8496
10.9009
11.0786
11.2895
11.4105
11.503
11.5804
11.658
1
1.00003
1.00006
1.00018
1.00037
1.00106
1.00215
1.00616
1.01202
1.03775
1.06686
1.2427
1.48145
2.60728
5.31108
11.6402
11.2305
10.7638
10.7931
10.929
11.1298
11.2424
11.322
11.3873
11.4655
1
1.00002
1.00006
1.00017
1.00035
1.00098
1.00198
1.00566
1.01118
1.03423
1.06229
1.21987
1.42668
2.48859
4.82028
11.0834
10.99
10.6983
10.6689
10.7486
10.9182
11.0138
11.0664
11.1005
11.1589
1
1.00002
1.00005
1.00015
1.00031
1.00088
1.0018
1.00513
1.01022
1.0308
1.05712
1.19762
1.37791
2.35274
4.36185
10.3305
10.7907
10.6174
10.5093
10.5529
10.6625
10.7212
10.7192
10.6817
10.6436
1
1.00002
1.00004
1.00013
1.00027
1.00077
1.00157
1.0045
1.00886
1.02744
1.04927
1.17895
1.32536
2.22124
3.95084
9.44208
10.6535
10.5125
10.3217
10.3299
10.3679
10.3586
10.2815
10.0758
9.72891
1
1.00001
1.00004
1.00009
1.00026
1.0005
1.00155
1.0027
1.00979
1.01577
1.06161
1.10083
1.40417
1.83735
3.78345
8.36384
10.5314
10.3988
10.1281
10.0744
10.049
9.95947
9.70953
9.11103
7.57019
1
1.00001
1.00003
1.0001
1.00021
1.00059
1.00119
1.00343
1.00664
1.0211
1.03683
1.13611
1.23828
1.91752
3.11955
7.23868
10.4406
10.2827
9.94319
9.81613
9.73136
9.54358
9.13675
8.31092
6.69625
1
1.00001
1.00003
1.00009
1.00018
1.00052
1.00105
1.00299
1.00602
1.01753
1.03423
1.10899
1.20658
1.72219
2.6913
5.98303
10.3078
10.1517
9.78313
9.56837
9.42102
9.15235
8.6441
7.78584
6.46927
1
1.00001
1.00003
1.00007
1.00015
1.00044
1.00089
1.0025
1.00505
1.01451
1.02874
1.08752
1.17278
1.56353
2.31553
4.8374
9.93733
9.91577
9.65658
9.34342
9.12472
8.80736
8.28219
7.48664
6.42097
1
1.00001
1.00002
1.00006
1.00013
1.00035
1.00072
1.00202
1.00407
1.01173
1.0226
1.07261
1.13106
1.46571
2.04186
4.17078
9.02537
9.61823
9.46262
9.13689
8.86078
8.5178
8.01813
7.30673
6.41097
1
1.00001
1.00002
1.00005
1.0001
1.00028
1.00056
1.00159
1.00313
1.00944
1.01691
1.05998
1.09909
1.38416
1.7849
3.56817
7.57237
9.33723
9.24676
8.98639
8.6461
8.28205
7.80968
7.17586
6.40578
1
1.00001
1.00001
1.00004
1.00008
1.00022
1.00045
1.00127
1.00257
1.00742
1.01415
1.04616
1.07939
1.29619
1.59658
2.94685
6.02949
9.15328
9.10842
8.8844
8.48117
8.0969
7.6456
7.0723
6.39556
1
1
1.00001
1.00003
1.00006
1.00017
1.00035
1.00099
1.002
1.00566
1.01116
1.03388
1.06153
1.21307
1.41726
2.35734
4.36032
8.77793
8.98272
8.79642
8.38359
7.95322
7.50986
6.98871
6.38492
1
1
1.00001
1.00002
1.00005
1.00013
1.00027
1.00074
1.00151
1.00427
1.0084
1.0256
1.04609
1.16366
1.2945
2.07747
3.49369
7.73208
8.7367
8.61628
8.29459
7.83472
7.39426
6.91359
6.37265
1
1
1.00001
1.00001
1.00004
1.00008
1.00023
1.00046
1.00129
1.0025
1.00776
1.01348
1.04901
1.0803
1.30811
1.61942
2.98931
6.03669
8.46905
8.42793
8.20931
7.75573
7.30225
6.84706
6.35741
1
1
1
1.00001
1.00003
1.00006
1.00017
1.00035
1.00098
1.00198
1.0056
1.01097
1.03367
1.06008
1.21125
1.4071
2.31854
4.20946
8.01238
8.29452
8.13127
7.73613
7.24748
6.80305
6.34696
1
1
1
1.00001
1.00002
1.00005
1.00011
1.0003
1.00061
1.00172
1.00346
1.00991
1.01953
1.05972
1.11335
1.37173
1.83549
3.38922
6.88744
8.04472
7.96277
7.69413
7.22111
6.77208
6.34195
1
1
1
1.00001
1.00002
1.00003
1.00009
1.00019
1.00052
1.00105
1.00295
1.00586
1.01739
1.03212
1.10824
1.19595
1.6853
2.54853
5.26839
7.71552
7.7441
7.60038
7.23442
6.77227
6.34327
1
1
1
1
1.00001
1.00003
1.00006
1.00015
1.00031
1.00086
1.00174
1.00488
1.00966
1.02878
1.05294
1.17679
1.34126
2.09185
3.54688
7.03598
7.61911
7.51672
7.23274
6.78527
6.35131
1
1
1
1
1.00001
1.00002
1.00004
1.00011
1.00022
1.0006
1.00121
1.00338
1.00667
1.01981
1.0359
1.12372
1.2166
1.78047
2.7143
5.57111
7.36563
7.35084
7.20433
6.83949
6.37689
1
1
1
1
1
1.00001
1.00003
1.00007
1.00015
1.00041
1.00083
1.00231
1.00466
1.01315
1.02606
1.07731
1.15335
1.47333
2.06423
3.80744
6.84146
7.24394
7.14552
6.87867
6.42953
1
1
1
1
1
1.00001
1.00002
1.00004
1.00011
1.00023
1.00063
1.00128
1.00358
1.00698
1.02118
1.03763
1.13074
1.23079
1.82096
2.80277
5.68283
7.02749
7.01088
6.86742
6.53083
1
1
1
1
1
1.00001
1.00001
1.00003
1.00008
1.00016
1.00044
1.00089
1.00245
1.00494
1.01388
1.02745
1.0814
1.15969
1.49609
2.11175
3.90127
6.54516
6.9023
6.81833
6.58637
1
1
1
1
1
1
1.00001
1.00002
1.00005
1.0001
1.00028
1.00058
1.00159
1.00321
1.00896
1.01783
1.05185
1.10225
1.30984
1.68657
2.88053
5.44884
6.68138
6.6848
6.57424
1
1
1
1
1
1
1.00001
1.00001
1.00003
1.00008
1.00016
1.00043
1.00087
1.0024
1.00482
1.01353
1.02668
1.07903
1.1548
1.47462
2.05994
3.72445
6.18985
6.57982
6.52396
1
1
1
1
1
1
1
1.00001
1.00002
1.00005
1.0001
1.00027
1.00056
1.00152
1.00308
1.00851
1.01695
1.04881
1.09594
1.2881
1.6351
2.7186
5.06244
6.3494
6.41091
1
1
1
1
1
1
1
1.00001
1.00001
1.00003
1.00006
1.00017
1.00034
1.00092
1.00187
1.00513
1.01015
1.02949
1.05419
1.17673
1.33388
2.01825
3.30296
5.81553
6.30452
1
1
1
1
1
1
1
1
1.00001
1.00002
1.00004
1.00009
1.00024
1.0005
1.00135
1.00273
1.00757
1.01501
1.0435
1.0849
1.25474
1.55967
2.50473
4.57112
6.02109
1
1
1
1
1
1
1
1
1
1.00001
1.00002
1.00006
1.00013
1.00035
1.00071
1.00193
1.00389
1.01076
1.02157
1.06076
1.12566
1.35329
1.79113
2.98139
5.33949
1
1
1
1
1
1
1
1
1
1.00001
1.00001
1.00004
1.00008
1.00021
1.00043
1.00117
1.00237
1.00649
1.01293
1.03688
1.07017
1.217
1.43553
2.25987
3.90313
1
1
1
1
1
1
1
1
1
1
1.00001
1.00002
1.00005
1.00013
1.00026
1.00069
1.0014
1.00378
1.0076
1.02115
1.0409
1.12378
1.23534
1.72237
2.56335
1
1
1
1
1
1
1
1
1
1
1.00001
1.00001
1.00003
1.00006
1.00017
1.00034
1.00092
1.00186
1.00508
1.01002
1.0289
1.05313
1.16976
1.32116
1.94438
1
1
1
1
1
1
1
1
1
1
1
1.00001
1.00002
1.00004
1.0001
1.0002
1.00054
1.00109
1.00294
1.00583
1.01665
1.03052
1.09917
1.17306
1.57808
1
1
1
1
1
1
1
1
1
1
1
1
1.00001
1.00002
1.00005
1.00013
1.00027
1.00071
1.00145
1.00391
1.00782
1.02192
1.04187
1.1266
1.24608
1
1
1
1
1
1
1
1
1
1
1
1
1.00001
1.00001
1.00003
1.00008
1.00015
1.00041
1.00083
1.00222
1.00448
1.01217
1.02407
1.06874
1.13313
1
1
1
1
1
1
1
1
1
1
1
1
1
1.00001
1.00002
1.00004
1.00009
1.00023
1.00046
1.00124
1.00251
1.00677
1.01359
1.03736
1.07629
1
1
1
1
1
1
1
1
1
1
1
1
1
1
1.00001
1.00002
1.00005
1.00011
1.00029
1.00059
1.00159
1.00319
1.00866
1.01743
1.04757
1
1
1
1
1
1
1
1
1
1
1
1
1
1
1.00001
1.00001
1.00003
1.00006
1.00016
1.00032
1.00086
1.00174
1.00463
1.00927
1.02535
1
1
1
1
1
1
1
1
1
1
1
1
1
1
1
1.00001
1.00002
1.00003
1.00009
1.00018
1.00047
1.00095
1.00252
1.00508
1.01377
1
1
1
1
1
1
1
1
1
1
1
1
1
1
1
1
1.00001
1.00002
1.00004
1.00011
1.00022
1.00059
1.00119
1.00315
1.00633
1
1
1
1
1
1
1
1
1
1
1
1
1
1
1
1
1
1.00001
1.00002
1.00006
1.00012
1.00033
1.00066
1.00175
1.00352
1
1
1
1
1
1
1
1
1
1
1
1
1
1
1
1
1
1.00001
1.00001
1.00004
1.00007
1.00019
1.00038
1.00102
1.00207
1
1
1
1
1
1
1
1
1
1
1
1
1
1
1
1
1
1
1.00001
1.00002
1.00006
1.00011
1.00031
1.00062
1.00169
1
1
1
1
1
1
1
1
1
1
1
1
1
1
1
1
1
1
1.00001
1.00002
1.00004
1.00011
1.00023
1.00063
1.00128
1
1
1
1
1
1
1
1
1
1
1
1
1
1
1
1
1
1
1.00001
1.00002
1.00004
1.0001
1.00021
1.0006
1.00122
3.10635
1.57411
1.05666
0.944156
0.968946
1.04587
1.20847
1.34284
1.38609
1.38459
1.37951
1.37966
1.3816
1.38699
1.39805
1.40683
1.41048
1.41088
1.41146
1.4129
1.4164
1.4245
1.44273
1.48295
1.57117
1.76455
2.19017
3.00385
3.4442
3.46536
3.44074
3.38602
3.36128
3.35582
3.36667
3.40199
3.46753
3.57243
3.71766
3.8876
4.05548
4.20354
4.32406
4.41649
4.49685
4.55532
4.59048
4.61106
4.61857
4.61759
4.61089
4.59506
4.56968
4.5407
4.50751
4.47126
4.43123
4.3889
4.34395
4.29773
4.24996
4.20158
4.15225
4.10261
4.05229
4.00175
3.95073
3.89956
3.84806
3.79648
3.74469
3.69292
3.6411
3.58946
3.53798
3.48684
3.43609
3.38583
3.3361
3.28694
3.23839
3.19044
3.14313
3.09641
3.05037
3.00489
2.96011
2.91588
2.87237
2.82945
2.78731
2.74582
2.70512
2.66521
2.62638
2.58871
2.55272
2.51956
2.49105
2.47437
3.76136
2.33846
1.72889
1.47209
1.35369
1.28106
1.26406
1.27173
1.29344
1.33836
1.38463
1.40397
1.40372
1.40239
1.40079
1.40137
1.40323
1.40725
1.41194
1.41503
1.4184
1.42531
1.44028
1.47303
1.54661
1.7089
2.07192
2.84829
3.43718
3.46801
3.43286
3.37582
3.36106
3.36729
3.37403
3.39661
3.44745
3.53692
3.68117
3.84826
4.02097
4.17267
4.29508
4.39431
4.47462
4.53494
4.57331
4.59611
4.60496
4.60451
4.60001
4.58723
4.56104
4.5305
4.49755
4.46225
4.42331
4.38181
4.33766
4.292
4.24477
4.19674
4.14776
4.09834
4.04828
3.99792
3.94712
3.8961
3.84478
3.79333
3.74172
3.69007
3.63844
3.58691
3.53561
3.48457
3.43397
3.38377
3.33417
3.28506
3.23663
3.1887
3.1415
3.09479
3.04882
3.00333
2.95862
2.91445
2.87104
2.82819
2.78621
2.74483
2.7043
2.66443
2.62544
2.58747
2.55121
2.51762
2.48819
2.47111
4.58416
3.2668
2.44049
1.91914
1.58611
1.37988
1.26089
1.2446
1.25176
1.27281
1.31685
1.35969
1.38806
1.402
1.40518
1.40493
1.40433
1.40453
1.40529
1.40705
1.41051
1.41598
1.42696
1.45114
1.50212
1.61885
1.86847
2.423
3.29962
3.44547
3.43221
3.39623
3.37792
3.37531
3.37984
3.40519
3.46474
3.55653
3.68331
3.83634
3.994
4.14186
4.26507
4.36533
4.44456
4.50509
4.5459
4.57098
4.58205
4.5821
4.5793
4.56989
4.54857
4.51628
4.48252
4.4477
4.41008
4.36989
4.32704
4.28238
4.23603
4.18864
4.14024
4.09125
4.04163
3.9916
3.94116
3.89041
3.8394
3.78817
3.73684
3.6854
3.63404
3.58272
3.53167
3.48083
3.43045
3.38041
3.331
3.28201
3.23373
3.18592
3.13885
3.09227
3.04648
3.00103
2.95649
2.91243
2.86923
2.8265
2.78455
2.74313
2.7026
2.66266
2.6237
2.58566
2.54916
2.51511
2.48461
2.46619
5.03512
3.84941
2.97197
2.36109
1.95111
1.67558
1.50179
1.39441
1.33133
1.31448
1.31778
1.32901
1.35302
1.38193
1.40241
1.41366
1.41442
1.41394
1.41268
1.41275
1.41352
1.41602
1.42241
1.43763
1.47004
1.54808
1.70892
2.08583
2.88169
3.37105
3.43981
3.43496
3.42478
3.4316
3.45953
3.51947
3.59015
3.65616
3.74054
3.84854
3.97056
4.08835
4.20424
4.30786
4.39177
4.45602
4.50076
4.52942
4.54413
4.54727
4.54572
4.53982
4.52531
4.49609
4.46203
4.42709
4.39051
4.35187
4.31073
4.26751
4.22242
4.17599
4.12846
4.08013
4.03115
3.98165
3.93174
3.88143
3.83087
3.78003
3.72911
3.67804
3.62706
3.57608
3.52538
3.47483
3.42476
3.37498
3.32583
3.27706
3.22904
3.18142
3.1345
3.08812
3.04256
2.9975
2.95313
2.90918
2.86609
2.82342
2.78162
2.74027
2.69986
2.65996
2.62107
2.58292
2.54619
2.5116
2.4801
2.45975
5.30741
4.27085
3.42841
2.7902
2.32399
1.98489
1.73894
1.5631
1.44043
1.36319
1.32119
1.32068
1.32414
1.33417
1.35501
1.37646
1.39251
1.40258
1.40715
1.40737
1.40773
1.40876
1.41245
1.42009
1.4421
1.48514
1.59089
1.8068
2.27649
3.13388
3.41321
3.4777
3.50046
3.54802
3.64219
3.74856
3.81729
3.8544
3.88711
3.92062
3.96707
4.03389
4.11463
4.21687
4.31251
4.38823
4.4422
4.47716
4.4971
4.50464
4.50396
4.50069
4.49153
4.47143
4.4388
4.40372
4.36761
4.33019
4.29069
4.24904
4.20539
4.16011
4.1136
4.06609
4.01789
3.96903
3.91974
3.86996
3.81995
3.76959
3.71917
3.66855
3.61806
3.5675
3.51725
3.46708
3.41743
3.36798
3.31922
3.27077
3.22308
3.17579
3.12941
3.08328
3.03795
2.99301
2.94886
2.90508
2.86215
2.81963
2.77798
2.73678
2.69646
2.65665
2.61779
2.57962
2.54272
2.5077
2.47545
2.45309
5.49519
4.59515
3.81221
3.17809
2.68277
2.30239
2.0126
1.79399
1.63057
1.51228
1.42772
1.37292
1.34419
1.34267
1.34528
1.35298
1.3691
1.38706
1.40173
1.41126
1.41599
1.41669
1.41816
1.42133
1.43188
1.4531
1.51368
1.63418
1.9285
2.54435
3.25473
3.47307
3.59286
3.73006
3.93538
4.0984
4.15037
4.14573
4.12077
4.05775
4.006
4.01361
4.04204
4.10438
4.2008
4.29089
4.36035
4.40833
4.43823
4.45268
4.45466
4.45315
4.44792
4.43539
4.40974
4.37612
4.34052
4.30394
4.26583
4.22578
4.18375
4.1399
4.09465
4.04819
4.00091
3.95286
3.90436
3.85529
3.80599
3.75627
3.70651
3.65647
3.60658
3.55654
3.50685
3.45715
3.408
3.35889
3.31064
3.26272
3.21559
3.16878
3.12272
3.07692
3.03186
2.98713
2.94319
2.89964
2.85689
2.81458
2.7731
2.73209
2.69192
2.65225
2.61348
2.57535
2.53838
2.50305
2.47032
2.44604
5.62325
4.8407
4.12602
3.51506
3.01261
2.6085
2.28713
2.03332
1.83332
1.67758
1.55656
1.46854
1.4033
1.36452
1.34532
1.34558
1.34812
1.35484
1.36857
1.38237
1.39367
1.40106
1.40522
1.40865
1.41489
1.43113
1.46001
1.54118
1.69537
2.063
2.8102
3.38489
3.6783
4.00122
4.37249
4.56331
4.56084
4.52305
4.41565
4.21263
4.07139
4.01514
4.01892
4.03778
4.08273
4.16632
4.24697
4.31381
4.3613
4.38875
4.3998
4.39949
4.39694
4.3897
4.37355
4.34444
4.31055
4.27482
4.23778
4.1991
4.15867
4.11639
4.07259
4.02738
3.98122
3.93411
3.88652
3.83827
3.78978
3.74081
3.6918
3.64244
3.59324
3.54381
3.49475
3.4456
3.39708
3.3489
3.30127
3.25391
3.20725
3.1608
3.11505
3.06955
3.02478
2.98032
2.93664
2.89334
2.85084
2.80876
2.7675
2.72671
2.68672
2.64724
2.6086
2.57059
2.53363
2.49812
2.46514
2.43938
5.71366
5.02634
4.37735
3.79973
3.30515
2.89185
2.55137
2.27339
2.04738
1.86496
1.7183
1.60246
1.51196
1.4451
1.3963
1.36804
1.35365
1.35394
1.35628
1.36227
1.37451
1.38718
1.39855
1.40697
1.41162
1.42082
1.43766
1.48283
1.56845
1.78099
2.20277
3.08901
3.67742
4.38361
4.96103
5.09051
5.05558
4.93544
4.67653
4.39191
4.18892
4.06832
4.0146
4.01201
4.02023
4.04921
4.11106
4.18675
4.25451
4.30182
4.32961
4.33949
4.33877
4.33516
4.32597
4.30658
4.2765
4.24216
4.20602
4.16846
4.1295
4.08883
4.04665
4.00289
3.95804
3.91209
3.86558
3.81833
3.77081
3.72274
3.67459
3.62603
3.57757
3.52886
3.48053
3.43235
3.38467
3.33715
3.2902
3.24337
3.19714
3.15111
3.10573
3.06061
3.01619
2.9721
2.92874
2.88578
2.84356
2.80179
2.76078
2.72025
2.68048
2.64123
2.60276
2.5649
2.52804
2.49244
2.45936
2.43256
5.78021
5.16857
4.57838
4.03753
3.55958
3.14776
2.79835
2.50524
2.26056
2.05764
1.88958
1.7515
1.63876
1.54807
1.47689
1.42353
1.38552
1.36435
1.35474
1.35513
1.35725
1.36235
1.37263
1.38243
1.3916
1.40049
1.41363
1.44011
1.49838
1.62083
1.89009
2.4534
3.55844
4.85682
5.64191
5.63756
5.5465
5.30237
4.9052
4.57834
4.33754
4.16857
4.05949
4.00407
3.98805
3.9909
4.00739
4.04702
4.11722
4.18048
4.22943
4.25938
4.27118
4.27051
4.26678
4.25713
4.2369
4.20646
4.17159
4.1348
4.09693
4.05772
4.01721
3.97507
3.93177
3.88723
3.84203
3.79598
3.74959
3.70255
3.65537
3.60771
3.56014
3.51243
3.46514
3.41785
3.37103
3.3242
3.27786
3.23158
3.18585
3.1403
3.09536
3.05069
3.00667
2.96299
2.91999
2.87739
2.83551
2.79406
2.75334
2.71309
2.67359
2.63458
2.59634
2.55866
2.52197
2.48636
2.45331
2.42579
5.82739
5.27916
4.74112
4.23671
3.77974
3.376
3.02507
2.72384
2.46685
2.24907
2.06481
1.90977
1.7796
1.67133
1.58217
1.50988
1.45364
1.41079
1.38054
1.36356
1.35614
1.35656
1.35865
1.36356
1.37358
1.38524
1.39924
1.41964
1.46381
1.55199
1.76002
2.19191
3.17162
5.16684
6.25397
6.19424
5.98472
5.5577
5.12664
4.77656
4.50698
4.30098
4.14788
4.04232
3.98153
3.95854
3.95086
3.9584
3.98304
4.03479
4.09415
4.1455
4.17842
4.1948
4.19512
4.19242
4.18397
4.16534
4.13443
4.09877
4.06164
4.02338
3.9842
3.94363
3.90203
3.85919
3.8156
3.771
3.72592
3.68004
3.63388
3.58725
3.54082
3.49428
3.44803
3.40164
3.35559
3.30945
3.26374
3.21807
3.17289
3.12789
3.08346
3.03929
2.99575
2.95253
2.90998
2.8678
2.82631
2.78524
2.74488
2.70495
2.66577
2.62701
2.58906
2.55158
2.51511
2.47956
2.44662
2.41858
5.86407
5.36737
4.87461
4.40492
3.97077
3.57931
3.23192
2.9279
2.6636
2.43557
2.23918
2.07088
1.92671
1.80388
1.69957
1.61173
1.53889
1.47932
1.43287
1.39733
1.37313
1.359
1.3547
1.35547
1.35845
1.36519
1.37916
1.3995
1.44144
1.52406
1.70993
2.10966
3.03201
5.07571
6.61839
6.56236
6.3387
5.88076
5.4068
5.0201
4.71344
4.47008
4.27763
4.1311
4.02475
3.95577
3.9238
3.90331
3.90565
3.91875
3.95005
4.00387
4.05303
4.09027
4.1107
4.11535
4.11341
4.10643
4.09047
4.05978
4.02474
3.98714
3.94858
3.90907
3.86901
3.82796
3.78619
3.7433
3.69974
3.65512
3.61029
3.56503
3.51989
3.4745
3.42926
3.38379
3.33854
3.29318
3.24815
3.20315
3.15859
3.11419
3.07033
3.02672
2.98371
2.94101
2.89896
2.85726
2.81623
2.77557
2.73561
2.69603
2.6572
2.61875
2.5811
2.54387
2.50766
2.47223
2.43948
2.41103
5.89684
5.43849
4.98422
4.54701
4.13647
3.75986
3.4199
3.11708
2.84957
2.61488
2.40977
2.2311
2.07576
1.94101
1.82442
1.7239
1.63789
1.56488
1.50415
1.45434
1.41559
1.38615
1.36674
1.35813
1.35912
1.36314
1.37414
1.39595
1.44298
1.53631
1.73088
2.12999
2.94285
4.49776
6.27191
6.55138
6.45299
6.18075
5.74103
5.31625
4.96405
4.67461
4.44283
4.25825
4.11279
4.00282
3.92608
3.88268
3.85452
3.84546
3.85096
3.86934
3.90857
3.95513
3.99455
4.01961
4.03043
4.02933
4.02405
4.01088
3.9841
3.9495
3.91155
3.87242
3.83325
3.79361
3.75354
3.71244
3.67053
3.62772
3.58454
3.54082
3.497
3.45276
3.40854
3.36402
3.31963
3.27509
3.23082
3.18655
3.14268
3.09894
3.05572
3.01273
2.97033
2.92821
2.88672
2.84554
2.80503
2.76483
2.72533
2.68616
2.64772
2.60962
2.57232
2.53537
2.49947
2.4642
2.43168
2.4029
5.92125
5.49921
5.07883
4.66937
4.28122
3.92042
3.5901
3.29146
3.02374
2.78552
2.57435
2.38799
2.22367
2.07931
1.95242
1.84142
1.74437
1.66015
1.58755
1.52557
1.47429
1.43149
1.40108
1.37584
1.37574
1.37879
1.39151
1.41656
1.48084
1.6053
1.87269
2.4072
3.20801
3.94148
5.012
5.98476
6.24575
6.18711
6.00095
5.63474
5.27255
4.9327
4.65277
4.42579
4.24185
4.09378
3.97857
3.89375
3.83954
3.80427
3.7822
3.78355
3.79253
3.81477
3.85595
3.89407
3.92344
3.93943
3.93937
3.93648
3.92717
3.90653
3.8728
3.83481
3.79619
3.75716
3.71807
3.67838
3.63832
3.59754
3.55632
3.5143
3.47195
3.42899
3.38589
3.3424
3.29895
3.25529
3.21184
3.16836
3.12525
3.08225
3.03975
2.99743
2.95572
2.91422
2.87338
2.83276
2.79283
2.75313
2.71414
2.6754
2.6374
2.59967
2.56275
2.52614
2.49057
2.45552
2.42328
2.39425
5.94586
5.55154
5.15996
4.77771
4.41053
4.06517
3.74499
3.45185
3.18576
2.94603
2.73094
2.53895
2.36765
2.21557
2.08024
1.96054
1.85437
1.76089
1.67869
1.60684
1.54544
1.49197
1.45179
1.41516
1.41288
1.41736
1.43164
1.47651
1.56286
1.76464
2.16345
2.84088
3.36171
3.69153
4.13446
4.81839
5.57151
5.9276
5.9024
5.78854
5.53314
5.22514
4.91516
4.64512
4.4169
4.22825
4.07482
3.95231
3.8593
3.79451
3.75331
3.72195
3.70966
3.71312
3.72577
3.75332
3.78978
3.82159
3.84088
3.84767
3.8461
3.83961
3.82437
3.79376
3.75843
3.71989
3.68085
3.64188
3.6034
3.56448
3.52518
3.48502
3.44438
3.40292
3.36114
3.31879
3.27639
3.23368
3.19115
3.14852
3.10626
3.06404
3.02235
2.98077
2.9398
2.89899
2.85882
2.81882
2.7795
2.74035
2.70189
2.66363
2.62611
2.58882
2.55232
2.51609
2.4809
2.44612
2.41421
2.38498
5.97984
5.60392
5.23634
4.8766
4.52852
4.19763
3.8876
3.60056
3.33712
3.09734
2.87977
2.68383
2.50709
2.34885
2.20663
2.07965
1.96593
1.86461
1.77447
1.69445
1.62465
1.5631
1.51467
1.47337
1.47392
1.48121
1.50961
1.57264
1.72684
2.03094
2.65192
3.16478
3.43714
3.57507
3.74204
4.02385
4.46687
5.06689
5.51067
5.61267
5.57268
5.44334
5.18044
4.9199
4.64544
4.41488
4.2191
4.05803
3.92812
3.82613
3.75
3.70024
3.66222
3.63636
3.63604
3.64097
3.65536
3.68486
3.71557
3.73916
3.75174
3.75126
3.74766
3.7373
3.71556
3.68115
3.64315
3.60473
3.56677
3.52875
3.49089
3.45251
3.41372
3.37401
3.33384
3.29289
3.25175
3.21014
3.16864
3.12696
3.08564
3.04432
3.0035
2.96275
2.92259
2.88253
2.8431
2.80377
2.76509
2.72654
2.68865
2.65093
2.6139
2.57709
2.54104
2.50524
2.47046
2.43598
2.40445
2.37507
6.02761
5.66246
5.31107
4.96819
4.63682
4.31883
4.01837
3.73788
3.4778
3.23919
3.02048
2.82191
2.64126
2.47808
2.33045
2.19731
2.07741
1.96941
1.87264
1.78595
1.70901
1.64273
1.58658
1.55512
1.5584
1.57751
1.62228
1.75078
1.99794
2.52856
3.08123
3.37095
3.47975
3.52429
3.56859
3.65968
3.82367
4.09543
4.53442
5.02042
5.33636
5.32931
5.27557
5.13984
4.88557
4.65693
4.4162
4.21581
4.04726
3.90854
3.79697
3.71035
3.64812
3.60411
3.57047
3.55265
3.55437
3.56211
3.57997
3.60843
3.63329
3.65014
3.65563
3.65398
3.64769
3.63299
3.60347
3.56779
3.52999
3.49193
3.45455
3.41723
3.37991
3.34191
3.3035
3.26424
3.22462
3.1844
3.14414
3.10361
3.06335
3.02305
2.98318
2.94337
2.90407
2.86485
2.82619
2.78761
2.7496
2.7117
2.6744
2.63726
2.60075
2.56447
2.52889
2.49356
2.45924
2.42513
2.39402
2.36458
6.09589
5.72252
5.38023
5.05187
4.73476
4.42982
4.13856
3.86477
3.60874
3.372
3.15349
2.95319
2.77008
2.60293
2.45113
2.31288
2.18784
2.07427
1.97189
1.87984
1.79752
1.7289
1.67034
1.66331
1.67255
1.71169
1.80314
2.02541
2.47421
3.07016
3.39421
3.50424
3.513
3.50849
3.49135
3.49497
3.52744
3.61534
3.79533
4.08551
4.52013
4.88932
5.08643
5.07077
5.00278
4.84638
4.63173
4.43052
4.22039
4.04351
3.89588
3.77279
3.67469
3.59934
3.54694
3.50535
3.47716
3.46956
3.47241
3.48162
3.50113
3.52573
3.5459
3.55781
3.5574
3.55407
3.5448
3.5248
3.49192
3.45555
3.41833
3.38095
3.34396
3.30693
3.26995
3.2324
3.19452
3.15601
3.1173
3.07824
3.03925
3.00017
2.96137
2.9226
2.88424
2.84593
2.80808
2.7703
2.73301
2.69582
2.65915
2.62264
2.58671
2.551
2.51596
2.48113
2.44731
2.41359
2.38294
2.35349
6.16958
5.79021
5.45191
5.1334
4.82548
4.53132
4.24938
3.98224
3.73089
3.49646
3.27905
3.078
2.89325
2.72338
2.56813
2.42599
2.29653
2.1785
2.07161
1.97511
1.89135
1.81964
1.78521
1.79086
1.81899
1.8941
2.08263
2.47039
3.11003
3.48333
3.59674
3.59284
3.57292
3.52466
3.45595
3.41199
3.39889
3.41031
3.4575
3.56378
3.75454
4.03891
4.4144
4.69967
4.83011
4.81247
4.74702
4.60078
4.40971
4.23059
4.04745
3.8876
3.75578
3.64497
3.55681
3.49128
3.44515
3.40813
3.38494
3.385
3.38849
3.39827
3.41834
3.44011
3.45622
3.46136
3.45999
3.45444
3.44118
3.41428
3.38089
3.34411
3.30698
3.27012
3.23382
3.19752
3.16124
3.12457
3.0877
3.0504
3.01302
2.9754
2.93789
2.9003
2.86299
2.82567
2.78872
2.75179
2.71529
2.67884
2.64288
2.60703
2.57174
2.53661
2.50217
2.46786
2.43462
2.40132
2.37119
2.34182
6.29573
5.88023
5.52599
5.21033
4.91105
4.62477
4.35199
4.09177
3.84551
3.61383
3.39781
3.19685
3.01095
2.83932
2.68133
2.5362
2.40318
2.28167
2.17141
2.07296
1.98978
1.92901
1.931
1.95177
2.00976
2.17816
2.50981
3.18096
3.61337
3.74437
3.73782
3.70849
3.63996
3.53241
3.44694
3.3882
3.34469
3.31683
3.31695
3.33143
3.38265
3.4928
3.66827
3.92676
4.24232
4.47815
4.58215
4.5666
4.50971
4.3827
4.20839
4.0479
3.89019
3.74302
3.62207
3.52159
3.44163
3.38517
3.34221
3.31108
3.29548
3.29661
3.30168
3.31344
3.33421
3.35218
3.36503
3.36475
3.36196
3.3536
3.3355
3.30443
3.26977
3.23349
3.19734
3.16144
3.12609
3.09082
3.05566
3.02017
2.98458
2.94862
2.91264
2.87639
2.84029
2.80405
2.76808
2.73205
2.69639
2.66073
2.62552
2.59038
2.55579
2.52131
2.48753
2.4538
2.42118
2.38835
2.35878
2.32956
6.34345
5.97357
5.60741
5.28812
4.99588
4.716
4.44824
4.19405
3.95289
3.72472
3.51039
3.31013
3.12374
2.95082
2.79094
2.64343
2.5078
2.38398
2.27182
2.17622
2.09717
2.08504
2.09906
2.15653
2.29803
2.62383
3.27161
3.77422
3.93556
3.92781
3.8922
3.80843
3.67474
3.5567
3.46217
3.3864
3.33183
3.28728
3.25206
3.22438
3.22456
3.23814
3.28476
3.38533
3.54815
3.77105
4.04033
4.24105
4.34325
4.33096
4.28493
4.18074
4.02402
3.87947
3.74142
3.60496
3.4923
3.40145
3.33129
3.28117
3.24208
3.21512
3.20803
3.20981
3.21611
3.22992
3.24878
3.26436
3.27002
3.26891
3.26429
3.25236
3.22823
3.19632
3.16154
3.126
3.09099
3.05637
3.02226
2.98817
2.95419
2.91989
2.88554
2.85079
2.81607
2.78104
2.74619
2.71115
2.67641
2.6416
2.60719
2.57281
2.53894
2.50515
2.47205
2.43895
2.40699
2.37469
2.34572
2.31671
6.32692
6.10209
5.71383
5.37545
5.07849
4.80408
4.54279
4.2924
4.05412
3.82883
3.61695
3.41781
3.2317
3.05816
2.89712
2.74807
2.61099
2.48616
2.37706
2.28589
2.25219
2.26351
2.31265
2.4466
2.75427
3.38512
3.96968
4.16756
4.15902
4.11758
4.01848
3.86017
3.71955
3.60357
3.50578
3.42088
3.34633
3.2823
3.23444
3.18536
3.14786
3.11846
3.11581
3.12723
3.16726
3.25462
3.4027
3.5906
3.82471
4.00044
4.11305
4.10407
4.06961
3.99317
3.85848
3.72368
3.59604
3.47102
3.36708
3.28583
3.22403
3.17836
3.14376
3.12219
3.12263
3.12562
3.13295
3.14841
3.16389
3.17528
3.17507
3.17268
3.16548
3.14969
3.12169
3.0897
3.05615
3.02216
2.9886
2.95532
2.9225
2.88959
2.85676
2.82352
2.79026
2.75656
2.72292
2.68898
2.65524
2.62136
2.58781
2.55425
2.52117
2.48815
2.45578
2.42339
2.39213
2.36042
2.33209
2.30335
6.27414
6.13658
5.83697
5.47644
5.16611
4.88931
4.63073
4.38497
4.15104
3.92921
3.71874
3.52075
3.33503
3.16159
3.00006
2.8506
2.7134
2.59184
2.48876
2.43525
2.44368
2.48691
2.61153
2.90824
3.52628
4.19351
4.43433
4.42525
4.37808
4.26317
4.08129
3.91924
3.78457
3.66959
3.5672
3.4735
3.38672
3.30722
3.23452
3.17519
3.12219
3.07249
3.0328
3.00271
2.99542
3.00433
3.03661
3.10833
3.24008
3.39814
3.60121
3.76291
3.8873
3.88632
3.86751
3.81563
3.70665
3.57644
3.45377
3.34316
3.24925
3.17423
3.11805
3.07725
3.05011
3.04004
3.04105
3.04508
3.05417
3.06873
3.08009
3.08392
3.08297
3.07886
3.06859
3.0475
3.01928
2.98756
2.955
2.9223
2.89014
2.85812
2.82647
2.79459
2.76275
2.73047
2.69817
2.66546
2.63286
2.60002
2.56743
2.53477
2.50254
2.47033
2.43875
2.40711
2.37659
2.34553
2.31788
2.28947
6.174
6.10928
5.93129
5.58011
5.25724
4.97445
4.71626
4.47341
4.24276
4.0235
3.81603
3.61965
3.43525
3.26219
3.1012
2.95242
2.81892
2.70479
2.63267
2.63846
2.67694
2.79368
3.08382
3.692
4.45297
4.73546
4.7251
4.67081
4.53777
4.33309
4.15008
3.99731
3.86612
3.74844
3.63964
3.53735
3.44083
3.34984
3.26489
3.18679
3.11746
3.0595
3.00257
2.95215
2.91078
2.88022
2.86815
2.87472
2.89953
2.95608
3.06651
3.20464
3.37862
3.53653
3.66032
3.69016
3.67843
3.64069
3.55927
3.43545
3.32054
3.22049
3.135
3.06671
3.01596
2.98085
2.95917
2.95521
2.95672
2.96169
2.97245
2.98443
2.9944
2.99421
2.99227
2.98634
2.97322
2.94825
2.91986
2.88896
2.85762
2.82621
2.79533
2.76443
2.73379
2.70281
2.67187
2.64049
2.60914
2.57748
2.54598
2.51434
2.48305
2.45175
2.42103
2.3902
2.36049
2.33013
2.3032
2.2752
6.01476
6.01291
5.92571
5.71059
5.36686
5.06572
4.80168
4.5596
4.33174
4.11539
3.91007
3.71611
3.53281
3.36136
3.20195
3.05717
2.93306
2.84369
2.84705
2.88123
2.99022
3.27153
3.86117
4.72787
5.06068
5.04946
4.98889
4.8391
4.61137
4.4075
4.23692
4.08995
3.95769
3.83474
3.71857
3.608
3.50272
3.40266
3.30806
3.2191
3.13669
3.06054
2.9949
2.93531
2.8784
2.82782
2.78556
2.75484
2.73847
2.74287
2.76067
2.80357
2.89048
3.01534
3.16394
3.32016
3.43713
3.507
3.49909
3.47122
3.41076
3.31577
3.21146
3.11146
3.02535
2.95966
2.91182
2.88148
2.86595
2.86664
2.86971
2.87697
2.89026
2.90103
2.90754
2.90684
2.90362
2.89541
2.8784
2.85299
2.82444
2.79427
2.7641
2.73382
2.70395
2.67396
2.64417
2.61408
2.58403
2.55365
2.52336
2.49288
2.46267
2.43237
2.4026
2.37265
2.34381
2.31421
2.28806
2.26054
5.60774
5.91044
5.87919
5.75145
5.47974
5.16462
4.88994
4.64538
4.41892
4.20526
4.0025
3.81046
3.62958
3.46043
3.30509
3.17255
3.067
3.06862
3.10023
3.20717
3.48675
4.08215
5.03203
5.40912
5.3972
5.33034
5.16369
4.91294
4.68824
4.49989
4.33742
4.19083
4.05418
3.92451
3.80064
3.68211
3.56887
3.46097
3.35844
3.26142
3.16994
3.08431
3.00498
2.93266
2.86944
2.80867
2.75265
2.70266
2.65976
2.62891
2.60833
2.61114
2.62389
2.65488
2.72088
2.83156
2.9623
3.11036
3.22767
3.3252
3.3241
3.30904
3.27199
3.19442
3.09666
3.00667
2.92935
2.8704
2.82611
2.79952
2.78664
2.78745
2.79087
2.79862
2.81072
2.81978
2.82262
2.82141
2.81696
2.8068
2.78624
2.76064
2.73255
2.70319
2.67393
2.64461
2.61565
2.58659
2.5577
2.52858
2.49957
2.47035
2.44134
2.41217
2.38348
2.35452
2.32664
2.29788
2.27256
2.24564
4.71566
5.68766
5.78231
5.72857
5.57944
5.27711
4.98721
4.73469
4.50676
4.29433
4.09375
3.90401
3.72637
3.56239
3.42025
3.30563
3.30134
3.3312
3.44004
3.72615
4.343
5.38431
5.79513
5.7807
5.70243
5.51052
5.23561
4.98955
4.78349
4.60572
4.44508
4.29486
4.15187
4.0148
3.88327
3.75725
3.63676
3.52189
3.41256
3.30878
3.21041
3.11752
3.03007
2.94842
2.87252
2.80415
2.74232
2.68229
2.62688
2.5779
2.5351
2.50454
2.48086
2.48167
2.48964
2.5116
2.56209
2.65585
2.77496
2.90833
3.03503
3.1344
3.17188
3.16155
3.13045
3.06517
2.98194
2.90576
2.83799
2.78574
2.74582
2.72265
2.71184
2.71271
2.71617
2.72347
2.73307
2.74046
2.74017
2.73812
2.73216
2.71927
2.69723
2.67123
2.64362
2.61524
2.58696
2.55865
2.53064
2.50259
2.47474
2.44677
2.41902
2.3911
2.36361
2.33576
2.30896
2.28116
2.25674
2.23056
3.09715
5.14263
5.65628
5.6532
5.57912
5.40014
5.10221
4.83385
4.59836
4.38423
4.1847
3.99844
3.82567
3.67537
3.55482
3.5457
3.57656
3.69063
3.99083
4.64116
5.76873
6.21131
6.19398
6.09995
5.87676
5.57798
5.31082
5.08706
4.89405
4.71932
4.55545
4.39892
4.24845
4.10372
3.96477
3.83173
3.70461
3.58343
3.46804
3.35836
3.25419
3.15543
3.06193
2.97372
2.8907
2.81336
2.74123
2.67662
2.61524
2.55734
2.50344
2.45582
2.41369
2.38248
2.35821
2.3543
2.35955
2.37666
2.41559
2.49225
2.59863
2.71999
2.8522
2.95745
3.02418
3.01654
2.99192
2.94027
2.87299
2.8074
2.74919
2.70244
2.66845
2.64936
2.64069