/*--------------------------------*- C++ -*----------------------------------*\
| =========                 |                                                 |
| \\      /  F ield         | OpenFOAM: The Open Source CFD Toolbox           |
|  \\    /   O peration     | Version:  2112                                  |
|   \\  /    A nd           | Website:  www.openfoam.com                      |
|    \\/     M anipulation  |                                                 |
\*---------------------------------------------------------------------------*/
FoamFile
{
    version     2.0;
    format      ascii;
    arch        "LSB;label=32;scalar=64";
    class       surfaceScalarField;
    location    "3";
    object      phi;
}
// * * * * * * * * * * * * * * * * * * * * * * * * * * * * * * * * * * * * * //

dimensions      [1 0 -1 0 0 0 0];

oriented        oriented;

internalField   nonuniform List<scalar> 
10325
(
0.00840003
7.34231e-11
0.00840003
5.69289e-10
0.00840003
1.74721e-09
0.00840002
5.29939e-09
0.0084
1.2425e-08
0.00839995
3.45567e-08
0.00839985
7.25286e-08
0.0083995
2.26532e-07
0.00839897
4.33938e-07
0.00839661
1.57239e-06
0.00839267
3.25023e-06
0.00837669
1.22773e-05
0.00833851
3.33992e-05
0.00817951
0.000142606
0.00743883
0.000675484
0.00671916
0.000747685
0.00605784
0.000671124
0.00538661
0.000674647
0.00469376
0.000696942
0.00396326
0.000736968
0.00319911
0.000771311
0.00241765
0.000791453
0.00162666
0.000801817
0.000824846
0.000812624
0.000835915
0.00840003
1.44181e-10
0.00840003
1.11989e-09
0.00840003
3.43426e-09
0.00840002
1.04206e-08
0.0084
2.43576e-08
0.00839995
6.82931e-08
0.00839986
1.39805e-07
0.00839951
4.58071e-07
0.00839907
8.18412e-07
0.00839655
3.26971e-06
0.00839289
6.42159e-06
0.00837636
2.50689e-05
0.00833704
6.77542e-05
0.00817942
0.000283891
0.00746226
0.0013265
0.00672787
0.00151063
0.00608428
0.00132501
0.00543014
0.00133252
0.00474996
0.00138137
0.00402092
0.00147255
0.00325768
0.00154183
0.00247083
0.00158867
0.00165968
0.00162417
0.000827666
0.00165574
0.00167504
0.00840003
2.11169e-10
0.00840003
1.6413e-09
0.00840003
5.02467e-09
0.00840002
1.52661e-08
0.0084
3.57117e-08
0.00839995
1.00099e-07
0.00839987
2.05924e-07
0.00839953
6.71169e-07
0.0083991
1.19542e-06
0.00839676
4.79035e-06
0.00839334
9.35026e-06
0.00837808
3.65368e-05
0.00834207
9.8609e-05
0.00820313
0.000407075
0.00758472
0.0018769
0.00684632
0.00227856
0.00620742
0.00197524
0.00556528
0.00197914
0.00489587
0.00205568
0.00417288
0.00220255
0.00340513
0.00231751
0.00260135
0.00240281
0.00175982
0.0024772
0.000883983
0.00254288
0.00257061
0.00840003
2.65827e-10
0.00840003
2.06828e-09
0.00840003
6.31832e-09
0.00840002
1.9225e-08
0.00840001
4.50505e-08
0.00839996
1.25824e-07
0.00839989
2.62305e-07
0.0083996
8.3629e-07
0.00839923
1.50918e-06
0.00839731
5.90692e-06
0.00839458
1.15732e-05
0.00838254
4.47812e-05
0.00835518
0.000120742
0.00825606
0.000491235
0.0078327
0.00223135
0.00710329
0.0030389
0.0064535
0.00263842
0.00581142
0.0026257
0.00514971
0.0027215
0.00442653
0.00292992
0.00365154
0.00309847
0.00282198
0.0032431
0.0019283
0.00338221
0.000976122
0.00350584
0.00355818
0.00840003
2.94366e-10
0.00840003
2.28636e-09
0.00840003
6.98501e-09
0.00840002
2.12226e-08
0.00840002
4.97887e-08
0.00839999
1.38181e-07
0.00839994
2.90344e-07
0.00839975
9.16874e-07
0.00839961
1.59334e-06
0.00839825
6.5114e-06
0.00839707
1.23169e-05
0.00839009
4.81466e-05
0.00837577
0.000130451
0.00832844
0.00052111
0.00824549
0.00225243
0.00756011
0.00375692
0.00685616
0.00335737
0.00619436
0.00329331
0.00553039
0.00338929
0.00480654
0.00366046
0.00400541
0.00390999
0.0031268
0.00413398
0.00216422
0.00435605
0.00111407
0.00456706
0.00468334
0.00840003
2.9043e-10
0.00840003
2.26159e-09
0.00840003
6.94317e-09
0.00840003
2.10167e-08
0.00840002
4.96751e-08
0.00840001
1.33815e-07
0.00839999
2.97437e-07
0.0084
8.25673e-07
0.00839979
1.69467e-06
0.0084001
5.62124e-06
0.00840065
1.10345e-05
0.00840446
4.16595e-05
0.00841362
0.000113105
0.00852931
0.000423659
0.00903395
0.00166231
0.00832979
0.0044872
0.00741277
0.00429086
0.00669751
0.00401597
0.00600221
0.00409121
0.00526031
0.00441062
0.00442683
0.00475323
0.00349825
0.00507352
0.00245545
0.0054096
0.00128337
0.00574951
0.00597642
0.00840003
2.83913e-10
0.00840003
2.20382e-09
0.00840003
6.81971e-09
0.00840003
2.04899e-08
0.00840003
4.84382e-08
0.00840002
1.28528e-07
0.00840003
2.85473e-07
0.00840002
7.73479e-07
0.00840007
1.57655e-06
0.00840021
5.1173e-06
0.00840127
9.53708e-06
0.00840592
3.54733e-05
0.00841657
9.78564e-05
0.00852196
0.000313726
0.00880271
0.00133868
0.00845866
0.00482199
0.00764543
0.00510138
0.00703106
0.00463282
0.00637391
0.00475225
0.00566147
0.0051288
0.00483271
0.00558982
0.0038852
0.00603022
0.00279557
0.00650905
0.00151599
0.00703631
0.00749974
0.00840003
3.20882e-10
0.00840003
2.48459e-09
0.00840003
7.68867e-09
0.00840002
2.30308e-08
0.00840002
5.4452e-08
0.0084
1.43402e-07
0.00839995
3.20137e-07
0.00839985
8.39724e-07
0.0083996
1.78033e-06
0.00839923
5.21785e-06
0.00839836
1.02791e-05
0.00839752
3.50527e-05
0.00840349
8.91745e-05
0.00840305
0.000311055
0.00857317
0.00114111
0.00828738
0.00508048
0.00792081
0.00545968
0.00729272
0.00526554
0.00662422
0.00542489
0.00598389
0.00577233
0.00521978
0.00635839
0.00430371
0.0069526
0.00319485
0.00762621
0.00182861
0.00840905
0.00933306
0.00840003
3.36951e-10
0.00840003
3.1826e-09
0.00840003
9.59455e-09
0.00840002
2.92485e-08
0.0084
6.86466e-08
0.00839996
1.84367e-07
0.00839987
4.03323e-07
0.0083996
1.0787e-06
0.00839912
2.22806e-06
0.00839796
6.18442e-06
0.00839628
1.1835e-05
0.00839139
3.88606e-05
0.00839534
8.38694e-05
0.00837529
0.000327145
0.00847023
0.00103311
0.00829445
0.00523001
0.00794615
0.00580933
0.00744051
0.00577561
0.0068804
0.00598825
0.00628062
0.00637524
0.00560715
0.00703447
0.00477453
0.00779132
0.00377125
0.00863455
0.00235855
0.00982587
0.0116945
0.00840003
1.5036e-10
0.00840003
4.71936e-09
0.00840003
7.18034e-09
0.00840002
4.08327e-08
0.00840003
5.15869e-08
0.00839995
2.63134e-07
0.00840008
2.75481e-07
0.00839949
1.63713e-06
0.00840046
1.23809e-06
0.0083965
9.98128e-06
0.00840311
5.14031e-06
0.00837536
6.56623e-05
0.00842025
3.82966e-05
0.00828736
0.000456373
0.00846084
0.000851046
0.00837949
0.00528701
0.00800524
0.00618659
0.00758999
0.00619504
0.00715554
0.00642522
0.00662608
0.00690665
0.00607741
0.00758565
0.00544917
0.0084241
0.00454551
0.00954407
0.00320319
0.0111733
0.0148984
0.00840003
5.31757e-10
0.00840003
7.96979e-10
0.00840003
7.87022e-09
0.00840006
8.75831e-09
0.00840006
5.62356e-08
0.00840027
5.22694e-08
0.00840016
3.78671e-07
0.00840153
2.61868e-07
0.00839999
2.71117e-06
0.00840847
1.44023e-06
0.0083939
1.92882e-05
0.00844814
1.04595e-05
0.00833928
0.000145166
0.00862451
0.000169651
0.00830795
0.00116035
0.00847738
0.00509431
0.00813399
0.00653437
0.0077471
0.00658593
0.0073987
0.00677601
0.00702884
0.00727865
0.00664714
0.00796912
0.00621939
0.00885447
0.00582577
0.00994129
0.00583805
0.0111648
0.0119035
0.00883197
0.00840003
2.88249e-10
0.00840003
1.53742e-09
0.00840003
5.30443e-09
0.00840003
1.46465e-08
0.00840004
3.73635e-08
0.0084
9.1022e-08
0.00840015
2.28893e-07
0.00839985
5.44351e-07
0.00840119
1.38459e-06
0.00839869
3.89798e-06
0.00840914
8.92793e-06
0.00838985
3.00035e-05
0.00846102
7.37275e-05
0.0083187
0.000309374
0.0086206
0.000853525
0.00894061
0.00475279
0.00849058
0.00698927
0.00802419
0.00705554
0.00769004
0.00711135
0.00740969
0.00756139
0.00714796
0.00823373
0.00693773
0.00906802
0.00689917
0.00998361
0.00736551
0.0107021
0.0107755
0.00849303
0.00840003
2.69616e-10
0.00840003
2.09836e-09
0.00840003
6.41033e-09
0.00840002
1.94632e-08
0.00840001
4.60357e-08
0.00839998
1.23956e-07
0.00839993
2.79103e-07
0.00839971
7.4235e-07
0.00839945
1.64037e-06
0.00839872
4.53983e-06
0.00839785
9.76181e-06
0.00839579
3.15152e-05
0.00840282
6.63787e-05
0.00843696
0.000273111
0.0085419
0.000744974
0.00960795
0.00366751
0.00905537
0.00754751
0.00844724
0.00766705
0.00808146
0.00747878
0.00784034
0.00780399
0.00767905
0.00839658
0.00764397
0.00910595
0.00783745
0.0097923
0.00838192
0.0101595
0.010027
0.00913078
0.00840003
2.75919e-10
0.00840003
2.14676e-09
0.00840003
6.56605e-09
0.00840003
1.98927e-08
0.00840003
4.70853e-08
0.00840002
1.2627e-07
0.00840002
2.84759e-07
0.0084
7.48168e-07
0.00839995
1.67508e-06
0.00840006
4.36311e-06
0.00839957
1.02056e-05
0.00840536
2.53498e-05
0.00840331
6.80727e-05
0.00848114
0.000193534
0.00865748
0.000568757
0.00995401
0.00235894
0.00962282
0.00787373
0.00917981
0.00810969
0.00860901
0.00805216
0.00831529
0.00810062
0.00821291
0.0085017
0.0082907
0.0090292
0.00854235
0.00954272
0.00899037
0.00971275
0.00944967
0.00956829
0.00840003
2.49827e-10
0.00840003
1.94099e-09
0.00840003
5.94142e-09
0.00840003
1.79608e-08
0.00840004
4.26041e-08
0.00840005
1.1355e-07
0.00840007
2.56949e-07
0.00840015
6.61383e-07
0.00840029
1.52738e-06
0.00840091
3.68938e-06
0.00840196
9.09614e-06
0.00840555
2.15174e-05
0.00841859
5.4536e-05
0.00845529
0.000155691
0.00853572
0.000486497
0.00907836
0.0018113
0.00970047
0.00723677
0.00943826
0.00837011
0.00902039
0.00846995
0.00877161
0.00835165
0.00869483
0.00858096
0.00880141
0.00892457
0.00907932
0.00926578
0.00945001
0.00934348
0.00901763
0.00988298
0.00840003
1.94188e-10
0.00840003
1.5029e-09
0.00840003
4.66814e-09
0.00840004
1.39736e-08
0.00840004
3.31538e-08
0.00840007
8.71338e-08
0.00840013
1.95393e-07
0.00840028
5.09232e-07
0.00840072
1.08216e-06
0.00840125
3.11938e-06
0.00840439
5.95049e-06
0.00840531
2.03506e-05
0.0084203
3.95295e-05
0.00843078
0.000144163
0.00853877
0.000377455
0.0087956
0.00155113
0.00967455
0.00634528
0.00957684
0.00846842
0.00938421
0.0086633
0.00916991
0.00856768
0.00910471
0.00864798
0.00918555
0.00884572
0.00944279
0.00900981
0.00977821
0.00900866
0.0086861
0.01011
0.00840003
1.71668e-10
0.00840003
1.32982e-09
0.00840003
4.09099e-09
0.00840003
1.2307e-08
0.00840004
2.91206e-08
0.00840005
7.71382e-08
0.00840007
1.72933e-07
0.00840012
4.50294e-07
0.00840021
9.85657e-07
0.00840062
2.68626e-06
0.00840107
5.48245e-06
0.00840363
1.7598e-05
0.00840874
3.43724e-05
0.00842567
0.000126332
0.00847606
0.000326281
0.00872385
0.00129955
0.0102151
0.00484195
0.0100223
0.00866181
0.00979588
0.00889062
0.00956192
0.00880322
0.00952484
0.00868674
0.009588
0.00878337
0.00975631
0.00884295
0.0100135
0.0087525
0.0084251
0.010275
0.00840003
1.40678e-10
0.00840003
1.13977e-09
0.00840003
3.53468e-09
0.00840003
1.05259e-08
0.00840004
2.51976e-08
0.00840005
6.58867e-08
0.00840007
1.50002e-07
0.00840013
3.82705e-07
0.00840026
8.59066e-07
0.00840071
2.21255e-06
0.00840132
4.85822e-06
0.00840542
1.33725e-05
0.0084115
2.82536e-05
0.00844943
8.77445e-05
0.00854821
0.000226923
0.00907015
0.000777145
0.011264
0.00264124
0.0109114
0.00901046
0.0105671
0.00923597
0.0101506
0.00922085
0.00994772
0.00889117
0.00996486
0.00876729
0.0100814
0.0087256
0.0102509
0.00858393
0.00825035
0.0104263
0.00840003
5.64171e-11
0.00840003
1.17265e-09
0.00840003
2.24646e-09
0.00840003
1.02749e-08
0.00840004
1.65309e-08
0.00840004
6.39072e-08
0.00840009
9.91613e-08
0.0084001
3.7318e-07
0.0084004
5.58956e-07
0.00840037
2.21848e-06
0.00840235
2.8706e-06
0.00840151
1.41175e-05
0.00841602
1.37027e-05
0.00840839
9.48449e-05
0.0085306
0.00010448
0.00860098
0.000704994
0.00950432
0.00173373
0.0110274
0.00747649
0.0109206
0.00934229
0.0106579
0.00948399
0.0103637
0.00918706
0.0102827
0.00885004
0.0103479
0.00865968
0.0104711
0.00845934
0.00813118
0.0105898
0.00840003
1.00475e-10
0.00840003
5.85647e-10
0.00840003
2.1452e-09
0.00840004
5.58005e-09
0.00840004
1.51211e-08
0.00840007
3.48024e-08
0.00840007
8.89718e-08
0.00840025
1.98851e-07
0.00840028
5.18678e-07
0.0084014
1.09508e-06
0.00840101
3.2298e-06
0.00840893
6.20807e-06
0.00840165
2.0724e-05
0.00845457
4.19757e-05
0.0084117
0.000146339
0.00873283
0.000382869
0.00891988
0.00154397
0.0109037
0.00548071
0.0111301
0.00911591
0.011048
0.00956675
0.0107951
0.00944047
0.0106324
0.00901447
0.0105965
0.00869633
0.0106499
0.00840464
0.00805145
0.0107285
0.00840003
1.21592e-10
0.00840003
3.53456e-10
0.00840003
2.06849e-09
0.00840003
3.60953e-09
0.00840003
1.42827e-08
0.00840004
2.28798e-08
0.00840005
8.40882e-08
0.00840012
1.31295e-07
0.00840016
4.81253e-07
0.00840053
7.28178e-07
0.00840099
2.8099e-06
0.00840325
3.91272e-06
0.00840606
1.77763e-05
0.00842698
2.19603e-05
0.00844926
0.000122645
0.0086364
0.00020089
0.00926534
0.000904568
0.0116533
0.00308233
0.0117464
0.00902399
0.011663
0.0096523
0.0113685
0.00973618
0.0110881
0.00929636
0.0109556
0.00882901
0.0109043
0.00845548
0.00805682
0.0108977
0.00840003
4.1705e-11
0.00840003
4.64912e-10
0.00840003
1.05252e-09
0.00840003
4.19011e-09
0.00840004
7.60713e-09
0.00840003
2.61667e-08
0.00840007
4.55064e-08
0.00840005
1.52026e-07
0.00840027
2.61299e-07
0.00840012
8.74044e-07
0.00840143
1.48711e-06
0.00840019
5.10972e-06
0.00840945
8.48033e-06
0.00839922
3.19112e-05
0.00846992
5.157e-05
0.00844415
0.000225036
0.00886514
0.000485597
0.00998208
0.00196058
0.0117074
0.00729184
0.0117954
0.00956509
0.011686
0.00984665
0.0113788
0.00960502
0.011267
0.00894092
0.0111896
0.00853206
0.00811522
0.0111301
0.00840003
6.31994e-11
0.00840003
2.21508e-10
0.00840003
1.15885e-09
0.00840003
2.21965e-09
0.00840003
8.09697e-09
0.00840004
1.41783e-08
0.00840004
4.81319e-08
0.00840011
8.28479e-08
0.00840009
2.77371e-07
0.00840049
4.74996e-07
0.00840036
1.60423e-06
0.00840277
2.69198e-06
0.00840146
9.71854e-06
0.00841838
1.50489e-05
0.00840482
6.4638e-05
0.00853061
9.93468e-05
0.00852214
0.000492884
0.00924383
0.00123729
0.0117898
0.00473514
0.0120102
0.00934182
0.0120341
0.00982277
0.0118738
0.0097659
0.0115331
0.00928181
0.0114228
0.00864187
0.00818781
0.0113491
0.00840003
3.21322e-11
0.00840003
2.15668e-10
0.00840003
6.79387e-10
0.00840003
2.02576e-09
0.00840003
4.83941e-09
0.00840004
1.27458e-08
0.00840005
2.88221e-08
0.00840006
7.39678e-08
0.00840017
1.65167e-07
0.00840022
4.22383e-07
0.00840088
9.41662e-07
0.00840114
2.41741e-06
0.00840541
5.43151e-06
0.00840614
1.41943e-05
0.00843815
3.25816e-05
0.00844613
9.07827e-05
0.00870268
0.000235691
0.0091639
0.000774491
0.0114474
0.00244648
0.0124957
0.00828821
0.0124753
0.00984151
0.0122527
0.00998719
0.01185
0.00968436
0.0116708
0.00882105
0.00831902
0.0115388
0.00840003
2.05612e-11
0.00840003
1.6167e-10
0.00840003
5.03494e-10
0.00840003
1.49447e-09
0.00840003
3.5785e-09
0.00840004
9.30565e-09
0.00840004
2.1157e-08
0.00840006
5.3477e-08
0.00840011
1.19981e-07
0.00840023
3.01935e-07
0.00840049
6.72777e-07
0.00840118
1.71747e-06
0.0084029
3.69913e-06
0.00840669
1.03231e-05
0.00841911
2.01268e-05
0.00844059
6.88491e-05
0.00853991
0.000136089
0.00875302
0.000559845
0.00967471
0.00152213
0.0120965
0.00585538
0.0124988
0.00943728
0.0125904
0.00989438
0.0124628
0.00981085
0.0120356
0.00924899
0.00856298
0.011792
0.00840003
9.19382e-12
0.00840003
1.40591e-10
0.00840003
3.05973e-10
0.00840003
1.24361e-09
0.00840003
2.22828e-09
0.00840003
7.68464e-09
0.00840004
1.3298e-08
0.00840005
4.41916e-08
0.00840009
7.59325e-08
0.00840014
2.50672e-07
0.00840039
4.28332e-07
0.00840066
1.42635e-06
0.00840197
2.38035e-06
0.00840385
8.38218e-06
0.00841112
1.27973e-05
0.00842698
5.26099e-05
0.00848437
7.8401e-05
0.00867891
0.000363647
0.00938838
0.000810822
0.0122249
0.00300541
0.0128578
0.0088011
0.0128912
0.00986038
0.0126922
0.010009
0.0123424
0.00959905
0.00881677
0.0120894
0.00840003
1.16088e-11
0.00840003
7.046e-11
0.00840003
2.56567e-10
0.00840003
6.69254e-10
0.00840003
1.81183e-09
0.00840003
4.1827e-09
0.00840004
1.06542e-08
0.00840006
2.39718e-08
0.00840007
6.01443e-08
0.00840019
1.34532e-07
0.00840028
3.36616e-07
0.00840095
7.51152e-07
0.0084014
1.9129e-06
0.00840561
4.15603e-06
0.00840678
1.15217e-05
0.00843574
2.35997e-05
0.00843874
7.48786e-05
0.00864087
0.000160944
0.00882951
0.000620506
0.0101125
0.00171821
0.0126689
0.00623696
0.0129862
0.00954271
0.0131108
0.00988439
0.0128365
0.0098733
0.00920762
0.0124469
0.00840003
9.24115e-12
0.00840003
5.00073e-11
0.00840003
1.8381e-10
0.00840003
4.75501e-10
0.00840003
1.28966e-09
0.00840003
2.97553e-09
0.00840004
7.59011e-09
0.00840004
1.70779e-08
0.00840006
4.29733e-08
0.0084001
9.60669e-08
0.00840019
2.41232e-07
0.0084004
5.37518e-07
0.00840094
1.35578e-06
0.00840208
3.00545e-06
0.00840578
7.75281e-06
0.00841226
1.70391e-05
0.00843951
4.72223e-05
0.00849243
0.000107691
0.00876391
0.000347398
0.00949841
0.000981452
0.0122446
0.00347801
0.0131755
0.00860969
0.0133285
0.00973158
0.0131866
0.0100155
0.0095836
0.0128111
0.00840003
8.27852e-12
0.00840003
2.80434e-11
0.00840003
1.44189e-10
0.00840003
2.83287e-10
0.00840003
9.96947e-10
0.00840003
1.79502e-09
0.00840003
5.8415e-09
0.00840004
1.03437e-08
0.00840005
3.30329e-08
0.00840009
5.82831e-08
0.00840014
1.85508e-07
0.00840035
3.2614e-07
0.00840065
1.04331e-06
0.00840183
1.81947e-06
0.00840358
5.95301e-06
0.00841046
1.01105e-05
0.00842183
3.56031e-05
0.00846891
6.02062e-05
0.00858093
0.000234114
0.0090263
0.000536955
0.0105503
0.00194965
0.0129162
0.00623568
0.0132416
0.00940494
0.0135068
0.00975135
0.00979274
0.0132997
0.00840003
3.57207e-12
0.00840003
2.44228e-11
0.00840003
7.67736e-11
0.00840003
2.28486e-10
0.00840003
5.44369e-10
0.00840003
1.42495e-09
0.00840003
3.2103e-09
0.00840004
8.16603e-09
0.00840005
1.8164e-08
0.00840006
4.59099e-08
0.00840015
1.01769e-07
0.00840021
2.57082e-07
0.00840068
5.69174e-07
0.00840104
1.4433e-06
0.00840379
3.19187e-06
0.00840559
8.23027e-06
0.0084229
1.82399e-05
0.00843312
4.95451e-05
0.00855273
0.000114237
0.00873402
0.000353985
0.00967276
0.00100857
0.0125007
0.003395
0.0134899
0.00841373
0.0135907
0.00965025
0.00981228
0.0135711
0.00840003
2.14225e-12
0.00840003
1.66567e-11
0.00840003
5.18465e-11
0.00840003
1.53916e-10
0.00840003
3.67591e-10
0.00840003
9.5505e-10
0.00840003
2.16362e-09
0.00840003
5.45862e-09
0.00840004
1.22164e-08
0.00840006
3.06191e-08
0.00840009
6.82745e-08
0.00840017
1.71066e-07
0.00840036
3.80448e-07
0.00840084
9.56711e-07
0.00840189
2.12267e-06
0.00840468
5.39483e-06
0.00841088
1.19903e-05
0.00842905
3.12404e-05
0.00846886
7.31393e-05
0.00862078
0.000201798
0.00904084
0.000584825
0.0104719
0.0019668
0.0130989
0.00577414
0.013586
0.0091612
0.00960876
0.0137884
0.00840003
1.0122e-12
0.00840003
1.23275e-11
0.00840003
2.93501e-11
0.00840003
1.09853e-10
0.00840003
2.11084e-10
0.00840003
6.73485e-10
0.00840003
1.24213e-09
0.00840003
3.81542e-09
0.00840004
6.9797e-09
0.00840005
2.12137e-08
0.00840008
3.87375e-08
0.00840013
1.17359e-07
0.00840029
2.13775e-07
0.0084006
6.48623e-07
0.00840154
1.17432e-06
0.00840328
3.61906e-06
0.00840886
6.36821e-06
0.00841873
2.11831e-05
0.00845681
3.49007e-05
0.00852365
0.000133998
0.0088487
0.000258852
0.00982089
0.000991448
0.0126482
0.00293256
0.0138451
0.0079605
0.0095465
0.0139085
0.00840003
1.27645e-12
0.00840003
5.30484e-12
0.00840003
2.44537e-11
0.00840003
5.20498e-11
0.00840003
1.69784e-10
0.00840003
3.26258e-10
0.00840003
9.89808e-10
0.00840003
1.86173e-09
0.00840003
5.54846e-09
0.00840005
1.03849e-08
0.00840005
3.08158e-08
0.00840011
5.75517e-08
0.00840015
1.70816e-07
0.00840048
3.18015e-07
0.0084007
9.4833e-07
0.00840255
1.75743e-06
0.00840356
5.31559e-06
0.00841487
9.8323e-06
0.00841873
3.07537e-05
0.008494
5.86782e-05
0.00855449
0.000197037
0.00906919
0.00047631
0.0103684
0.0016277
0.0132574
0.00506284
0.00881891
0.0139848
0.00840003
5.92381e-13
0.00840003
4.05321e-12
0.00840003
1.2736e-11
0.00840003
3.78328e-11
0.00840003
9.00501e-11
0.00840003
2.34645e-10
0.00840003
5.27577e-10
0.00840003
1.33346e-09
0.00840003
2.95874e-09
0.00840004
7.42193e-09
0.00840005
1.64118e-08
0.00840007
4.11035e-08
0.00840015
9.07512e-08
0.00840023
2.27541e-07
0.00840068
5.0196e-07
0.00840116
1.26469e-06
0.00840367
2.78997e-06
0.00840633
7.10913e-06
0.0084211
1.59239e-05
0.00843841
4.10726e-05
0.00853585
9.89988e-05
0.00873987
0.000271473
0.00957121
0.000794844
0.0121034
0.00252967
0.00698292
0.0139301
0.00840003
3.35827e-13
0.00840003
2.60342e-12
0.00840003
8.10474e-12
0.00840003
2.40632e-11
0.00840003
5.73469e-11
0.00840003
1.48602e-10
0.00840003
3.35443e-10
0.00840003
8.42884e-10
0.00840003
1.87868e-09
0.00840003
4.68572e-09
0.00840004
1.04111e-08
0.00840006
2.5919e-08
0.00840009
5.75213e-08
0.00840017
1.43185e-07
0.00840036
3.17283e-07
0.00840082
7.91544e-07
0.00840186
1.74975e-06
0.00840452
4.40847e-06
0.00841075
9.67667e-06
0.00842577
2.53858e-05
0.00847223
5.5488e-05
0.00857965
0.000159797
0.00897853
0.000406735
0.010069
0.00141611
0.00389046
0.0131515
0.00840003
1.5195e-13
0.00840003
1.83477e-12
0.00840003
4.47883e-12
0.00840003
1.63746e-11
0.00840003
3.22002e-11
0.00840003
1.00204e-10
0.00840003
1.89044e-10
0.00840003
5.65903e-10
0.00840003
1.05917e-09
0.00840003
3.13606e-09
0.00840004
5.86685e-09
0.00840005
1.7297e-08
0.00840007
3.23923e-08
0.00840012
9.52873e-08
0.00840026
1.78482e-07
0.00840052
5.25152e-07
0.00840128
9.8114e-07
0.00840276
2.90781e-06
0.00840705
5.3635e-06
0.00841565
1.66166e-05
0.008442
2.9063e-05
0.00849801
0.000102934
0.00871605
0.000188194
0.00938774
0.000740242
0.00197942
0.0112945
0.00840003
1.49749e-13
0.00840003
8.65589e-13
0.00840003
3.18472e-12
0.00840003
8.23257e-12
0.00840003
2.23213e-11
0.00840003
5.1035e-11
0.00840003
1.29787e-10
0.00840003
2.88721e-10
0.00840003
7.22536e-10
0.00840003
1.59709e-09
0.00840003
3.97797e-09
0.00840004
8.78028e-09
0.00840005
2.18267e-08
0.0084001
4.81539e-08
0.00840016
1.1959e-07
0.00840042
2.63637e-07
0.00840073
6.55144e-07
0.00840219
1.44303e-06
0.0084039
3.61314e-06
0.00841255
7.9304e-06
0.00842084
2.0524e-05
0.00847861
4.50215e-05
0.0085409
0.000124655
0.00897157
0.000308629
0.00100787
0.00993806
0.00840003
1.17134e-13
0.00840003
4.47451e-13
0.00840003
2.0989e-12
0.00840003
4.45127e-12
0.00840003
1.44495e-11
0.00840003
2.7842e-11
0.00840003
8.34751e-11
0.00840003
1.57645e-10
0.00840003
4.62893e-10
0.00840003
8.70721e-10
0.00840003
2.54004e-09
0.00840004
4.77659e-09
0.00840004
1.38933e-08
0.00840007
2.6131e-08
0.00840011
7.58909e-08
0.00840023
1.42562e-07
0.00840046
4.14449e-07
0.00840113
7.752e-07
0.00840243
2.28104e-06
0.00840617
4.15947e-06
0.00841348
1.30719e-05
0.00843631
2.20321e-05
0.00847918
8.1092e-05
0.00864748
0.000139289
0.000566089
0.00908716
0.00840003
4.74034e-14
0.00840003
3.24791e-13
0.00840003
1.02608e-12
0.00840003
3.02938e-12
0.00840003
7.2288e-12
0.00840003
1.86826e-11
0.00840003
4.20332e-11
0.00840003
1.05249e-10
0.00840003
2.33441e-10
0.00840003
5.79812e-10
0.00840003
1.28121e-09
0.00840003
3.17534e-09
0.00840004
7.0075e-09
0.00840005
1.73592e-08
0.00840009
3.8271e-08
0.00840013
9.48505e-08
0.00840034
2.08809e-07
0.00840059
5.18532e-07
0.00840172
1.14111e-06
0.00840299
2.8501e-06
0.00840974
6.28666e-06
0.00841549
1.60942e-05
0.00846079
3.55573e-05
0.0085015
9.77558e-05
0.000233261
0.00883288
0.00840003
2.50256e-14
0.00840003
1.93786e-13
0.00840003
6.03145e-13
0.00840003
1.7897e-12
0.00840003
4.25587e-12
0.00840003
1.09856e-11
0.00840003
2.47063e-11
0.00840003
6.17166e-11
0.00840003
1.36925e-10
0.00840003
3.39146e-10
0.00840003
7.49778e-10
0.00840003
1.85249e-09
0.00840004
4.09127e-09
0.00840004
1.00984e-08
0.00840006
2.22924e-08
0.0084001
5.49955e-08
0.00840018
1.21324e-07
0.0084004
2.99363e-07
0.00840087
6.59528e-07
0.00840207
1.63244e-06
0.00840474
3.58506e-06
0.00841168
9.02729e-06
0.00842751
1.9589e-05
0.00847211
5.24621e-05
0.000115422
0.00858935
0.00840003
1.11108e-14
0.00840003
1.25799e-13
0.00840003
3.18221e-13
0.00840003
1.12726e-12
0.00840003
2.27746e-12
0.00840003
6.86461e-12
0.00840003
1.32654e-11
0.00840003
3.84252e-11
0.00840003
7.35443e-11
0.00840003
2.10665e-10
0.00840003
4.0256e-10
0.00840003
1.14859e-09
0.00840003
2.19552e-09
0.00840004
6.25181e-09
0.00840005
1.19565e-08
0.00840007
3.40086e-08
0.00840012
6.50198e-08
0.00840024
1.85015e-07
0.00840054
3.52886e-07
0.00840115
1.00793e-06
0.0084028
1.91236e-06
0.00840624
5.53245e-06
0.00841527
1.04191e-05
0.00843657
3.08349e-05
6.06931e-05
0.00849055
0.00840003
9.61414e-15
0.00840003
5.80528e-14
0.00840003
2.1069e-13
0.00840003
5.48261e-13
0.00840003
1.47534e-12
0.00840003
3.38098e-12
0.00840003
8.53141e-12
0.00840003
1.89881e-11
0.00840003
4.71432e-11
0.00840003
1.0415e-10
0.00840003
2.57481e-10
0.00840003
5.67651e-10
0.00840003
1.40181e-09
0.00840004
3.08789e-09
0.00840004
7.62462e-09
0.00840006
1.67823e-08
0.00840008
4.14631e-08
0.00840017
9.11508e-08
0.0084003
2.25594e-07
0.00840081
4.95201e-07
0.00840147
1.2313e-06
0.00840428
2.69767e-06
0.00840784
6.77346e-06
0.00842356
1.49957e-05
3.80841e-05
0.00844572
0.00840003
6.07909e-15
0.00840003
3.23972e-14
0.00840003
1.20563e-13
0.00840003
3.10627e-13
0.00840003
8.37313e-13
0.00840003
1.91585e-12
0.00840003
4.82436e-12
0.00840003
1.07319e-11
0.00840003
2.65596e-11
0.00840003
5.86516e-11
0.00840003
1.44435e-10
0.00840003
3.18299e-10
0.00840003
7.82449e-10
0.00840003
1.72305e-09
0.00840004
4.23134e-09
0.00840004
9.31288e-09
0.00840006
2.28529e-08
0.0084001
5.02537e-08
0.0084002
1.23295e-07
0.00840042
2.70698e-07
0.00840098
6.65184e-07
0.00840221
1.45741e-06
0.0084053
3.60491e-06
0.00841241
7.87108e-06
1.99153e-05
0.00843013
0.00840003
4.16678e-15
0.00840003
1.621e-14
0.00840003
7.32829e-14
0.00840003
1.60428e-13
0.00840003
5.02461e-13
0.00840003
9.96557e-13
0.00840003
2.8773e-12
0.00840003
5.58642e-12
0.00840003
1.57805e-11
0.00840003
3.04892e-11
0.00840003
8.55536e-11
0.00840003
1.65159e-10
0.00840003
4.62192e-10
0.00840003
8.92386e-10
0.00840003
2.49319e-09
0.00840004
4.81534e-09
0.00840005
1.34357e-08
0.00840007
2.59514e-08
0.00840012
7.23466e-08
0.00840025
1.39619e-07
0.00840052
3.89437e-07
0.00840122
7.49512e-07
0.00840269
2.10133e-06
0.00840652
4.01295e-06
1.15479e-05
0.00841471
0.00840003
1.41125e-15
0.00840003
1.07085e-14
0.00840003
3.37293e-14
0.00840003
9.9525e-14
0.00840003
2.37789e-13
0.00840003
6.09787e-13
0.00840003
1.37253e-12
0.00840003
3.3986e-12
0.00840003
7.5332e-12
0.00840003
1.84798e-11
0.00840003
4.07934e-11
0.00840003
9.97797e-11
0.00840003
2.20003e-10
0.00840003
5.3752e-10
0.00840003
1.18474e-09
0.00840003
2.89286e-09
0.00840004
6.37518e-09
0.00840005
1.55599e-08
0.00840009
3.42845e-08
0.00840014
8.36582e-08
0.00840035
1.84257e-07
0.00840064
4.49779e-07
0.00840174
9.90127e-07
0.00840328
2.42575e-06
5.33646e-06
0.00840944
0.00840003
6.7703e-16
0.00840003
5.78267e-15
0.00840003
1.82767e-14
0.00840003
5.41016e-14
0.00840003
1.28594e-13
0.00840003
3.29712e-13
0.00840003
7.38967e-13
0.00840003
1.82913e-12
0.00840003
4.03897e-12
0.00840003
9.90029e-12
0.00840003
2.17699e-11
0.00840003
5.31943e-11
0.00840003
1.16809e-10
0.00840003
2.85054e-10
0.00840003
6.25611e-10
0.00840003
1.52544e-09
0.00840004
3.34682e-09
0.00840004
8.15385e-09
0.00840006
1.78816e-08
0.0084001
4.35282e-08
0.00840019
9.53615e-08
0.0084004
2.32056e-07
0.00840087
5.07448e-07
0.00840203
1.23769e-06
2.69726e-06
0.00840462
0.00840003
2.15675e-16
0.00840003
3.46961e-15
0.00840003
8.36099e-15
0.00840003
3.06055e-14
0.00840003
6.04204e-14
0.00840003
1.84745e-13
0.00840003
3.46812e-13
0.00840003
1.01762e-12
0.00840003
1.88061e-12
0.00840003
5.4663e-12
0.00840003
1.00297e-11
0.00840003
2.91321e-11
0.00840003
5.31585e-11
0.00840003
1.54725e-10
0.00840003
2.8073e-10
0.00840003
8.2002e-10
0.00840003
1.4773e-09
0.00840004
4.33628e-09
0.00840005
7.73679e-09
0.00840007
2.28522e-08
0.00840012
4.02479e-08
0.00840023
1.19854e-07
0.00840052
2.0778e-07
0.00840109
6.26347e-07
1.06551e-06
0.00840268
0.00840003
3.16153e-16
0.00840003
1.00489e-15
0.00840003
5.48108e-15
0.00840003
1.06452e-14
0.00840003
3.63802e-14
0.00840003
6.51832e-14
0.00840003
2.06106e-13
0.00840003
3.56095e-13
0.00840003
1.10961e-12
0.00840003
1.87999e-12
0.00840003
5.87192e-12
0.00840003
9.7723e-12
0.00840003
3.08187e-11
0.00840003
5.02832e-11
0.00840003
1.60716e-10
0.00840003
2.56051e-10
0.00840003
8.32949e-10
0.00840003
1.28889e-09
0.00840004
4.29269e-09
0.00840005
6.40986e-09
0.00840007
2.20175e-08
0.00840015
3.14477e-08
0.00840023
1.12359e-07
0.00840068
1.51046e-07
5.7048e-07
0.00840111
0.00840003
2.77556e-16
0.00840003
5.42128e-16
0.00840003
1.82319e-15
0.00840003
5.01143e-15
0.00840003
1.20561e-14
0.00840003
2.92286e-14
0.00840003
6.72409e-14
0.00840003
1.57593e-13
0.00840003
3.57404e-13
0.00840003
8.22047e-13
0.00840003
1.86378e-12
0.00840003
4.23338e-12
0.00840003
9.61702e-12
0.00840003
2.1548e-11
0.00840003
4.91393e-11
0.00840003
1.08313e-10
0.00840003
2.4838e-10
0.00840003
5.36313e-10
0.00840003
1.24104e-09
0.00840004
2.60792e-09
0.00840005
6.1299e-09
0.00840006
1.23956e-08
0.00840014
2.98779e-08
0.00840019
5.69859e-08
1.4302e-07
0.00840056
0.00840003
0.00840003
0.00840003
0.00840003
0.00840003
0.00840003
0.00840003
0.00840003
0.00840003
0.00840003
0.00840003
0.00840003
0.00840003
0.00840003
0.00840003
0.00840003
0.00840003
0.00840003
0.00840003
0.00840003
0.00840004
0.00840004
0.00840006
0.00840007
0.00840016
0.00468198
0.00414288
0.00304528
0.00163121
0.00234995
0.000691229
0.00207067
0.00027616
0.00204092
2.68193e-05
0.00218958
-0.000151242
0.00238216
-0.000194437
0.00249324
-0.000112873
0.00253023
-3.87296e-05
0.00252241
6.18824e-06
0.00249741
2.35687e-05
0.00248365
1.24159e-05
0.00248054
1.88365e-06
0.00248765
-8.17595e-06
0.00249682
-1.0034e-05
0.00250291
-6.98725e-06
0.00250457
-2.48308e-06
0.00250294
8.22916e-07
0.0025001
1.91228e-06
0.00249657
2.30788e-06
0.00249129
3.35497e-06
0.002482
5.768e-06
0.00246302
1.18835e-05
0.00242245
2.5885e-05
0.0023336
5.8e-05
0.00213576
0.000134451
0.00163481
0.000338247
0.000615135
0.000817644
-0.000227099
0.00085499
-0.000897831
0.000665925
-0.00140564
0.000515282
-0.00179441
0.000395868
-0.00208454
0.000279269
-0.0022515
0.000165518
-0.00230604
5.14196e-05
-0.00229244
-2.28637e-05
-0.00223142
-7.49223e-05
-0.00210905
-0.000140657
-0.0018934
-0.000236139
-0.00158352
-0.000329802
-0.00121935
-0.000383951
-0.000833047
-0.000404652
-0.000441771
-0.000408652
-4.10211e-05
-0.000416741
0.000331499
-0.00038779
0.000666893
-0.000348225
0.000975958
-0.000318834
0.001261
-0.000292255
0.00152424
-0.000268377
0.00176278
-0.000243067
0.00198303
-0.00022426
0.00219361
-0.00021408
0.00239416
-0.000204241
0.00258055
-0.000190804
0.00275367
-0.000178283
0.00291459
-0.000166613
0.00306477
-0.000156669
0.00320514