/*--------------------------------*- C++ -*----------------------------------*\
| =========                 |                                                 |
| \\      /  F ield         | OpenFOAM: The Open Source CFD Toolbox           |
|  \\    /   O peration     | Version:  2112                                  |
|   \\  /    A nd           | Website:  www.openfoam.com                      |
|    \\/     M anipulation  |                                                 |
\*---------------------------------------------------------------------------*/
FoamFile
{
    version     2.0;
    format      ascii;
    arch        "LSB;label=32;scalar=64";
    class       volScalarField;
    location    "3";
    object      T;
}
// * * * * * * * * * * * * * * * * * * * * * * * * * * * * * * * * * * * * * //

dimensions      [0 0 0 1 0 0 0];

internalField   nonuniform List<scalar> 
5250
(
1.00001
1.00002
1.00006
1.00011
1.00035
1.00064
1.00189
1.004
1.01024
1.02732
1.06138
1.19016
1.4382
2.19415
2.67146
2.75381
2.74788
2.74578
2.76062
2.77167
2.7836
2.78864
2.79102
2.79163
2.78999
1.00001
1.00002
1.00006
1.00011
1.00034
1.00063
1.00187
1.00392
1.01009
1.02677
1.06029
1.18632
1.4294
2.17712
2.66641
2.75352
2.74743
2.74455
2.75925
2.76995
2.78182
2.78679
2.78885
2.78876
2.78711
1.00001
1.00002
1.00006
1.0001
1.00033
1.00061
1.00182
1.00377
1.00982
1.02555
1.05806
1.17807
1.41034
2.13805
2.65247
2.75136
2.74531
2.74093
2.75553
2.76643
2.77792
2.78304
2.7862
2.78664
2.78425
1.00001
1.00002
1.00005
1.0001
1.00032
1.00058
1.00176
1.00355
1.00942
1.02376
1.05479
1.16584
1.3819
2.0755
2.62907
2.74669
2.74076
2.73373
2.74858
2.75897
2.77299
2.77828
2.78042
2.78168
2.7806
1.00001
1.00001
1.00005
1.00009
1.0003
1.00054
1.00167
1.00328
1.0089
1.02157
1.05072
1.15067
1.34639
1.99251
2.59711
2.73895
2.73316
2.72468
2.74188
2.75188
2.76496
2.771
2.77471
2.7761
2.77293
1.00001
1.00001
1.00005
1.00009
1.00028
1.0005
1.00157
1.00298
1.00838
1.01906
1.04641
1.13361
1.30699
1.87187
2.54481
2.72219
2.71405
2.7036
2.72222
2.73522
2.74966
2.7575
2.76137
2.76414
2.76412
1.00001
1.00001
1.00004
1.00008
1.00026
1.00046
1.00146
1.00272
1.00786
1.01711
1.043
1.11882
1.27656
1.74
2.55816
2.70971
2.70238
2.69023
2.7084
2.71765
2.73388
2.74323
2.74914
2.74959
2.74554
1.00001
1.00001
1.00004
1.00007
1.00024
1.00043
1.00135
1.00249
1.00741
1.01544
1.04019
1.10645
1.2509
1.69237
2.54637
2.69875
2.68175
2.67931
2.68942
2.69934
2.71106
2.72057
2.7251
2.7276
2.7227
1
1.00001
1.00004
1.00007
1.00022
1.00039
1.00123
1.00225
1.00684
1.01384
1.03701
1.09492
1.2257
1.63525
2.49975
2.67589
2.6747
2.67211
2.67355
2.68503
2.69218
2.69728
2.69807
2.69223
2.66892
1
1.00001
1.00003
1.00006
1.00019
1.00034
1.00106
1.002
1.0058
1.01243
1.03199
1.08708
1.19668
1.58585
2.43158
2.64116
2.66529
2.65751
2.65394
2.66186
2.66668
2.66664
2.66042
2.64375
2.58878
1
1.00001
1.00002
1.00006
1.00011
1.00032
1.0007
1.00173
1.00458
1.01022
1.02994
1.06243
1.2053
1.46586
2.23213
2.60951
2.66608
2.65392
2.63944
2.63989
2.64105
2.63425
2.61224
2.56065
2.36944
1
1.00001
1.00002
1.00004
1.00014
1.00026
1.00079
1.00154
1.00424
1.00965
1.02357
1.06631
1.14342
1.45305
2.1522
2.52296
2.65102
2.64303
2.6253
2.61675
2.61095
2.59885
2.56766
2.5025
2.30133
1
1.00001
1.00002
1.00004
1.00013
1.00023
1.00072
1.00131
1.00408
1.00782
1.02213
1.05114
1.12496
1.34828
1.98568
2.45194
2.62785
2.62309
2.61431
2.59787
2.5843
2.55577
2.51767
2.45728
2.3011
1
1.00001
1.00002
1.00003
1.00011
1.00019
1.0006
1.0011
1.00341
1.00644
1.01872
1.04036
1.10534
1.26603
1.79925
2.35529
2.58424
2.57936
2.5852
2.57878
2.56358
2.53385
2.47715
2.42551
2.30873
1
1
1.00001
1.00003
1.00009
1.00015
1.00049
1.00088
1.00274
1.00522
1.01453
1.0338
1.08024
1.22868
1.57914
2.30024
2.55505
2.55506
2.55187
2.54658
2.53526
2.51085
2.45055
2.39382
2.30757
1
1
1.00001
1.00002
1.00007
1.00012
1.00038
1.0007
1.00206
1.00422
1.01093
1.02799
1.06341
1.19209
1.43874
2.13638
2.49474
2.54605
2.52995
2.52172
2.50447
2.48845
2.44429
2.37745
2.30185
1
1
1.00001
1.00002
1.00005
1.0001
1.00031
1.00056
1.00173
1.0033
1.00912
1.02118
1.05057
1.14697
1.33568
1.94188
2.38667
2.52462
2.51846
2.50374
2.47545
2.44668
2.42205
2.36979
2.29961
1
1
1.00001
1.00001
1.00004
1.00008
1.00024
1.00043
1.00135
1.00249
1.00734
1.01527
1.03925
1.10337
1.23917
1.63894
2.26349
2.46337
2.48591
2.48317
2.46633
2.4297
2.39389
2.35041
2.29429
1
1
1.00001
1.00001
1.00003
1.00006
1.00018
1.00033
1.00101
1.00189
1.00547
1.01155
1.02957
1.07921
1.17627
1.52129
2.21505
2.40614
2.44105
2.43677
2.43212
2.41486
2.3802
2.33611
2.28289
1
1
1
1.00001
1.00002
1.00005
1.0001
1.0003
1.00057
1.00159
1.00351
1.0086
1.02314
1.05114
1.1544
1.34755
1.96342
2.349
2.42682
2.42159
2.40397
2.38316
2.36177
2.32698
2.27889
1
1
1
1.00001
1.00001
1.00004
1.00008
1.00024
1.00043
1.00133
1.00248
1.00711
1.0153
1.03806
1.10316
1.23429
1.62107
2.19112
2.39686
2.39531
2.38374
2.35837
2.32654
2.30126
2.2693
1
1
1
1
1.00001
1.00002
1.00007
1.00013
1.0004
1.00076
1.00226
1.00445
1.01232
1.02787
1.06836
1.17893
1.48692
2.00824
2.32999
2.37611
2.36896
2.35052
2.31617
2.27994
2.2467
1
1
1
1
1.00001
1.00002
1.00004
1.00012
1.00023
1.00069
1.00131
1.00379
1.00785
1.02039
1.05168
1.11866
1.33318
1.89139
2.18741
2.31812
2.33232
2.32736
2.31006
2.27528
2.23653
1
1
1
1
1.00001
1.00001
1.00004
1.00007
1.0002
1.00038
1.00114
1.00216
1.00619
1.01304
1.03324
1.08518
1.19845
1.52222
2.10467
2.26915
2.29202
2.28927
2.28231
2.26481
2.23169
1
1
1
1
1
1.00001
1.00003
1.00005
1.00015
1.00026
1.00081
1.00148
1.00434
1.00886
1.0228
1.05889
1.12962
1.38486
1.9322
2.1967
2.27271
2.26955
2.25465
2.23858
2.21335
1
1
1
1
1
1.00001
1.00002
1.00003
1.0001
1.00018
1.00055
1.00101
1.00308
1.00584
1.01659
1.03563
1.09132
1.22365
1.64968
2.03813
2.22465
2.24801
2.24185
2.22664
2.20157
1
1
1
1
1
1
1.00001
1.00003
1.00005
1.00015
1.00028
1.00084
1.00159
1.0044
1.0096
1.02345
1.06321
1.13429
1.40897
1.935
2.15167
2.20438
2.21116
2.20123
2.1892
1
1
1
1
1
1
1.00001
1.00002
1.00003
1.00011
1.00019
1.00059
1.00107
1.00327
1.00614
1.01747
1.03751
1.09425
1.2363
1.65453
2.04376
2.18173
2.1861
2.17881
2.16299
1
1
1
1
1
1
1
1.00001
1.00002
1.00007
1.00012
1.00038
1.0007
1.00211
1.00397
1.01135
1.02371
1.06096
1.14668
1.39717
1.83229
2.11456
2.16718
2.16535
2.15277
1
1
1
1
1
1
1
1.00001
1.00002
1.00003
1.0001
1.00019
1.00057
1.00106
1.0031
1.00606
1.01651
1.03673
1.09053
1.22645
1.61773
1.97097
2.12696
2.13875
2.13538
1
1
1
1
1
1
1
1
1.00001
1.00002
1.00007
1.00012
1.00037
1.00067
1.00202
1.00375
1.01079
1.02223
1.05681
1.13696
1.35496
1.78922
2.05325
2.11632
2.11695
1
1
1
1
1
1
1
1
1.00001
1.00001
1.00004
1.00007
1.00022
1.0004
1.00122
1.00226
1.00646
1.01323
1.03345
1.08517
1.18776
1.50184
1.89211
2.07302
2.08909
1
1
1
1
1
1
1
1
1
1.00001
1.00002
1.00006
1.00011
1.00032
1.0006
1.00174
1.00338
1.0093
1.02004
1.04988
1.1211
1.31586
1.69528
1.98519
2.06483
1
1
1
1
1
1
1
1
1
1.00001
1.00002
1.00003
1.00008
1.00015
1.00045
1.00085
1.00246
1.00482
1.01315
1.02789
1.07253
1.16449
1.48111
1.81116
2.01123
1
1
1
1
1
1
1
1
1
1
1.00001
1.00002
1.00005
1.00009
1.00028
1.00051
1.00155
1.00285
1.00824
1.01667
1.04237
1.10293
1.24542
1.60264
1.89653
1
1
1
1
1
1
1
1
1
1
1.00001
1.00001
1.00003
1.00005
1.00017
1.0003
1.00091
1.00165
1.00488
1.00942
1.02511
1.05817
1.1344
1.35203
1.7645
1
1
1
1
1
1
1
1
1
1
1
1.00001
1.00001
1.00004
1.00007
1.00022
1.0004
1.00119
1.00224
1.00621
1.01304
1.03223
1.08173
1.17929
1.4847
1
1
1
1
1
1
1
1
1
1
1
1
1.00001
1.00002
1.00004
1.00013
1.00023
1.0007
1.00129
1.00369
1.00739
1.0188
1.04662
1.10097
1.2884
1
1
1
1
1
1
1
1
1
1
1
1
1.00001
1.00001
1.00003
1.00006
1.00017
1.00031
1.00092
1.00173
1.00489
1.00988
1.02523
1.05993
1.13945
1
1
1
1
1
1
1
1
1
1
1
1
1
1.00001
1.00002
1.00003
1.0001
1.00018
1.00053
1.00097
1.00286
1.00537
1.01478
1.03161
1.07561
1
1
1
1
1
1
1
1
1
1
1
1
1
1
1.00001
1.00002
1.00005
1.0001
1.0003
1.00054
1.00159
1.00299
1.00838
1.0169
1.0439
1
1
1
1
1
1
1
1
1
1
1
1
1
1
1
1.00001
1.00002
1.00007
1.00013
1.00037
1.0007
1.00198
1.00386
1.01043
1.02168
1
1
1
1
1
1
1
1
1
1
1
1
1
1
1
1.00001
1.00001
1.00004
1.00007
1.00021
1.00037
1.0011
1.00203
1.00575
1.01134
1
1
1
1
1
1
1
1
1
1
1
1
1
1
1
1
1.00001
1.00002
1.00004
1.00011
1.0002
1.0006
1.0011
1.00321
1.00609
1
1
1
1
1
1
1
1
1
1
1
1
1
1
1
1
1
1.00001
1.00003
1.00005
1.00014
1.00026
1.00074
1.00138
1.00393
1
1
1
1
1
1
1
1
1
1
1
1
1
1
1
1
1
1
1.00001
1.00003
1.00008
1.00014
1.00042
1.00076
1.00221
1
1
1
1
1
1
1
1
1
1
1
1
1
1
1
1
1
1
1.00001
1.00002
1.00005
1.00008
1.00024
1.00044
1.0013
1
1
1
1
1
1
1
1
1
1
1
1
1
1
1
1
1
1
1
1.00001
1.00002
1.00007
1.00013
1.0004
1.00074
1
1
1
1
1
1
1
1
1
1
1
1
1
1
1
1
1
1
1
1.00001
1.00003
1.00005
1.00015
1.00027
1.00085
1
1
1
1
1
1
1
1
1
1
1
1
1
1
1
1
1
1
1
1.00001
1.00003
1.00005
1.00014
1.00026
1.00083
2.34168
2.24792
2.24928
2.29233
2.38174
2.44778
2.5
2.52889
2.53186
2.53013
2.52982
2.53134
2.53465
2.53805
2.54186
2.54416
2.54498
2.54532
2.54594
2.54716
2.54981
2.55568
2.56859
2.59649
2.65601
2.77583
2.97869
3.19244
3.2952
3.32826
3.35482
3.3577
3.32301
3.27136
3.25768
3.25362
3.24643
3.24512
3.24597
3.25002
3.25265
3.25287
3.2418
3.23806
3.2215
3.21766
3.20568
3.19933
3.18521
3.17888
3.16582
3.15864
3.14291
3.13502
3.11909
3.11045
3.09355
3.08401
3.0664
3.05624
3.03888
3.02857
3.01184
3.00147
2.98507
2.97428
2.95782
2.9466
2.93
2.9186
2.90202
2.89048
2.87411
2.86238
2.84617
2.83432
2.81803
2.80631
2.78979
2.77841
2.76171
2.75082
2.73399
2.72375
2.70684
2.69719
2.6804
2.67093
2.65466
2.64477
2.62946
2.61872
2.60437
2.59305
2.57936
2.56789
2.55522
2.5448
2.53557
2.52971
2.19919
2.12668
2.08637
2.0673
2.0391
2.01304
1.99972
2.0017
2.01232
2.02925
2.046
2.05257
2.05271
2.05244
2.05202
2.0524
2.05337
2.05484
2.05657
2.058
2.06023
2.06473
2.07473
2.09656
2.14573
2.2505
2.47306
2.78739
2.99937
3.11716
3.23881
3.32793
3.38893
3.42852
3.44457
3.4406
3.40869
3.36108
3.31051
3.25786
3.18723
3.14153
3.07812
3.03508
2.99034
2.96174
2.928
2.90506
2.87563
2.85721
2.83322
2.81861
2.79658
2.78254
2.76285
2.75032
2.73159
2.719
2.70057
2.68801
2.67018
2.65798
2.6409
2.62913
2.61274
2.6013
2.58533
2.57413
2.55824
2.54717
2.53109
2.52018
2.50384
2.49323
2.47677
2.46665
2.45028
2.44073
2.42459
2.41545
2.39959
2.39055
2.37499
2.36574
2.35059
2.34104
2.32635
2.31673
2.30255
2.29305
2.27948
2.2701
2.25716
2.24798
2.23557
2.22692
2.21533
2.20812
2.19935
2.19675
2.19489
2.1147
2.04316
1.97123
1.90485
1.85444
1.8284
1.82638
1.83011
1.84073
1.85526
1.86773
1.87511
1.87816
1.8786
1.87841
1.87835
1.87848
1.87884
1.87967
1.88117
1.88416
1.89093
1.90417
1.93603
1.99802
2.17383
2.34276
2.65564
2.76787
2.83288
2.94257
3.05902
3.17081
3.25358
3.30505
3.28577
3.23462
3.14768
3.05583
2.97964
2.92202
2.87008
2.83504
2.79877
2.77432
2.7481
2.72952
2.70884
2.69413
2.67569
2.66245
2.64362
2.62994
2.61172
2.60019
2.58392
2.57333
2.5572
2.54637
2.52993
2.51918
2.50276
2.49224
2.47587
2.46559
2.44944
2.43936
2.4235
2.41339
2.39782
2.38749
2.37231
2.36174
2.3469
2.33623
2.32159
2.31111
2.29664
2.28664
2.27226
2.26289
2.24861
2.23983
2.22578
2.21737
2.20366
2.19526
2.18192
2.17335
2.16048
2.15181
2.13953
2.13095
2.11939
2.11119
2.10056
2.0935
2.08531
2.08248
2.19694
2.10746
2.02889
1.9568
1.89336
1.8408
1.79927
1.77109
1.755
1.7518
1.75316
1.75875
1.76688
1.77522
1.78044
1.78248
1.78245
1.7821
1.78199
1.78211
1.7827
1.78431
1.78791
1.79663
1.81471
1.85743
1.94536
2.13103
2.42274
2.484
2.57512
2.66922
2.73566
2.81547
2.88481
2.94347
2.93524
2.89696
2.83487
2.77717
2.73036
2.69207
2.66774
2.6544
2.6385
2.62799
2.61387
2.60616
2.59317
2.58538
2.57256
2.56417
2.54979
2.53985
2.52543
2.51687
2.50323
2.49465
2.48035
2.4707
2.45541
2.44492
2.42949
2.41903
2.40417
2.39383
2.37933
2.36881
2.35434
2.34345
2.32883
2.31761
2.30301
2.29193
2.27777
2.26734
2.25365
2.24384
2.23028
2.22068
2.20697
2.19725
2.18338
2.17345
2.15953
2.14963
2.13592
2.12655
2.11325
2.10461
2.09168
2.08364
2.07099
2.06328
2.05091
2.04342
2.03177
2.02502
2.01603
2.01317
2.20542
2.11296
2.03437
1.96433
1.90081
1.84578
1.79685
1.75669
1.7254
1.70532
1.69701
1.69722
1.69896
1.70373
1.71064
1.71661
1.721
1.72335
1.72414
1.72423
1.72454
1.72523
1.72738
1.73204
1.74279
1.7692
1.81692
1.96782
2.0992
2.34064
2.44344
2.48071
2.5372
2.61358
2.67855
2.72657
2.7228
2.69539
2.64844
2.6082
2.57761
2.55507
2.54316
2.54102
2.53798
2.53364
2.52422
2.51782
2.50716
2.50139
2.48973
2.4822
2.46827
2.45794
2.44254
2.43247
2.41849
2.40859
2.39396
2.38332
2.36847
2.35799
2.34327
2.33268
2.31768
2.30684
2.29198
2.28145
2.2673
2.2573
2.24365
2.23374
2.22004
2.20998
2.19618
2.18625
2.17271
2.16337
2.15032
2.14168
2.12908
2.12088
2.10851
2.10059
2.0884
2.08061
2.06855
2.06078
2.04896
2.04121
2.02977
2.02205
2.01103
2.00345
1.99279
1.9856
1.97545
1.96926
1.96105
1.9588
2.21621
2.1307
2.05084
1.98011
1.9168
1.85964
1.80995
1.76647
1.73034
1.701
1.67858
1.66442
1.65853
1.65861
1.65986
1.66345
1.66888
1.67408
1.67817
1.68043
1.68151
1.68188
1.68262
1.68494
1.68992
1.70358
1.73266
1.79813
1.95142
2.14682
2.29252
2.36978
2.43341
2.50093
2.5656
2.60692
2.60627
2.57908
2.54083
2.50045
2.47289
2.45415
2.43977
2.43754
2.43991
2.44221
2.44
2.43658
2.42886
2.42283
2.41237
2.40683
2.39678
2.3884
2.37417
2.36357
2.35063
2.34186
2.32959
2.32012
2.30664
2.29646
2.28319
2.27383
2.26135
2.25231
2.23954
2.23015
2.21702
2.20785
2.19491
2.1862
2.17334
2.16477
2.15188
2.14349
2.13086
2.12273
2.11041
2.1022
2.09008
2.08182
2.07004
2.06187
2.05057
2.04269
2.03187
2.02419
2.0137
2.00602
1.99562
1.98788
1.97743
1.9697
1.95924
1.95167
1.94157
1.9346
1.92637
1.92289
2.22318
2.14584
2.07165
2.00266
1.9398
1.8827
1.8313
1.78564
1.74531
1.71046
1.68161
1.65828
1.64187
1.63174
1.62877
1.62901
1.63039
1.63374
1.63819
1.64238
1.64532
1.64749
1.6486
1.65036
1.65378
1.66168
1.67778
1.71586
1.80077
1.95158
2.18826
2.27688
2.35334
2.45598
2.53205
2.55446
2.54858
2.51515
2.47964
2.43615
2.4053
2.38612
2.37104
2.36738
2.36854
2.37229
2.37348
2.37154
2.36584
2.36064
2.35158
2.34637
2.33843
2.3328
2.32158
2.31117
2.29685
2.28663
2.27422
2.26639
2.2553
2.24755
2.23544
2.22666
2.21389
2.2052
2.1928
2.1846
2.1724
2.16418
2.1518
2.14341
2.13116
2.12304
2.11142
2.10385
2.09267
2.08521
2.07397
2.06631
2.05487
2.04706
2.03568
2.02796
2.01686
2.00932
1.99856
1.99108
1.98072
1.97321
1.96331
1.95575
1.94622
1.93865
1.92937
1.92193
1.91299
1.90612
1.89857
1.89508
2.22684
2.15804
2.09011
2.02559
1.96495
1.90905
1.85772
1.81112
1.76933
1.73202
1.69978
1.67211
1.64935
1.63135
1.61908
1.61165
1.6095
1.60978
1.61102
1.61409
1.61774
1.62199
1.6249
1.62743
1.62935
1.63369
1.6431
1.66384
1.70811
1.82293
1.97635
2.19789
2.32127
2.45213
2.53445
2.53934
2.52783
2.49072
2.44771
2.4063
2.36985
2.34241
2.32323
2.31382
2.3084
2.30514
2.30486
2.30538
2.3036
2.29965
2.29193
2.28626
2.27745
2.27287
2.26506
2.25909
2.24862
2.24062
2.22889
2.22013
2.20811
2.19985
2.18862
2.18135
2.17061
2.16343
2.15221
2.14459
2.13305
2.12554
2.11432
2.10715
2.09607
2.08886
2.07757
2.07008
2.0588
2.05134
2.04045
2.03309
2.02268
2.01541
2.0054
1.99822
1.98851
1.98135
1.97187
1.96462
1.95532
1.94793
1.93877
1.93128
1.92223
1.91476
1.9058
1.89855
1.88982
1.88324
1.87576
1.87253
2.22554
2.16348
2.10204
2.0424
1.9861
1.9327
1.88346
1.83734
1.79568
1.75714
1.72315
1.69229
1.66607
1.64325
1.62474
1.61019
1.60074
1.59531
1.5939
1.59422
1.59531
1.59777
1.60092
1.60409
1.60697
1.61058
1.61658
1.63043
1.65687
1.72196
1.83437
2.06595
2.28856
2.48443
2.56772
2.56403
2.54066
2.49207
2.44247
2.39659
2.35296
2.31563
2.28793
2.26806
2.2569
2.24538
2.23903
2.23567
2.23626
2.2362
2.23441
2.2317
2.22579
2.22118
2.21413
2.20958
2.20087
2.19464
2.18501
2.17863
2.16867
2.16174
2.15103
2.14348
2.13257
2.12534
2.11504
2.1085
2.0986
2.09221
2.08214
2.07552
2.06521
2.0584
2.04808
2.04143
2.03128
2.02467
2.01468
2.00789
1.99809
1.99102
1.98142
1.97409
1.96469
1.95729
1.94809
1.94078
1.93183
1.92462
1.91591
1.90881
1.90024
1.8933
1.88481
1.87814
1.86982
1.86377
1.85649
1.85366
2.2248
2.16797
2.1104
2.05446
2.00096
1.95048
1.90312
1.85881
1.81786
1.77978
1.7452
1.71339
1.68521
1.65979
1.63829
1.61967
1.60486
1.593
1.58556
1.58115
1.58016
1.58049
1.58157
1.58404
1.58725
1.59181
1.59683
1.6076
1.62683
1.67344
1.76277
1.97034
2.22289
2.56084
2.61108
2.595
2.54847
2.49699
2.44404
2.3876
2.33134
2.28691
2.25049
2.22371
2.20467
2.18929
2.17956
2.17413
2.17216
2.17426
2.17595
2.17958
2.17819
2.17603
2.1709
2.1678
2.16156
2.15711
2.14817
2.14268
2.1336
2.12807
2.11883
2.11318
2.10387
2.09788
2.08828
2.08177
2.07189
2.06507
2.0551
2.04823
2.03822
2.03152
2.02169
2.01513
2.00542
1.99877
1.98918
1.98239
1.97309
1.96628
1.95729
1.95042
1.94158
1.93459
1.92584
1.91884
1.91019
1.90338
1.89479
1.8882
1.87965
1.87323
1.86474
1.85851
1.8502
1.84448
1.83719
1.83458
2.22234
2.17168
2.11929
2.06644
2.0156
1.96626
1.92064
1.87684
1.837
1.79894
1.76466
1.73218
1.70328
1.67622
1.65264
1.63102
1.61299
1.59722
1.58496
1.57519
1.56927
1.56588
1.56558
1.56613
1.56769
1.57096
1.57655
1.58582
1.60501
1.64399
1.73054
1.89363
2.20288
2.52908
2.59378
2.5563
2.52458
2.46454
2.39699
2.34036
2.2925
2.24989
2.2141
2.18488
2.16521
2.14915
2.13959
2.13255
2.12775
2.12685
2.12848
2.13329
2.13458
2.1369
2.135
2.13301
2.12922
2.12632
2.11988
2.11496
2.10606
2.10045
2.09108
2.08527
2.07568
2.06964
2.06013
2.05423
2.04509
2.03911
2.02993
2.02354
2.01439
2.00798
1.99904
1.9927
1.98379
1.97728
1.96834
1.9616
1.95281
1.94598
1.9374
1.93054
1.92207
1.91522
1.90677
1.90002
1.89158
1.88499
1.87654
1.87016
1.86169
1.85558
1.84715
1.84136
1.83313
1.82788
1.82066
1.81836
2.21219
2.1698
2.12352
2.07608
2.02935
1.98303
1.93867
1.89647
1.85647
1.81926
1.78411
1.75183
1.7215
1.69397
1.66832
1.64545
1.62451
1.60647
1.59048
1.57772
1.56692
1.55958
1.55469
1.55384
1.55469
1.55711
1.56221
1.57329
1.59498
1.63779
1.7333
1.88216
2.09504
2.34587
2.48571
2.49265
2.46739
2.43499
2.37702
2.32385
2.28042
2.23899
2.20211
2.17206
2.14818
2.12856
2.11393
2.10376
2.09547
2.09092
2.08882
2.08828
2.09079
2.09413
2.09672
2.09606
2.09354
2.09143
2.08737
2.08413
2.07713
2.07243
2.06383
2.05869
2.04991
2.04464
2.03584
2.03043
2.02161
2.01586
2.0071
2.00127
1.99284
1.98696
1.97865
1.97247
1.96408
1.95758
1.94918
1.94259
1.93425
1.92772
1.91938
1.9129
1.90453
1.89802
1.88968
1.88313
1.87484
1.86835
1.86004
1.85374
1.84531
1.83927
1.83076
1.82498
1.81661
1.8113
1.80397
1.80156
2.19895
2.15944
2.12117
2.07906
2.03679
1.99515
1.95428
1.91455
1.87675
1.84028
1.8063
1.7737
1.74377
1.71511
1.68929
1.66462
1.64282
1.62227
1.60452
1.58831
1.57489
1.56371
1.55512
1.55106
1.55176
1.55385
1.56009
1.57514
1.60412
1.66827
1.78009
1.94296
2.06875
2.19704
2.33149
2.40882
2.42553
2.40822
2.3822
2.32924
2.28638
2.24359
2.20343
2.16925
2.14026
2.11608
2.09564
2.08056
2.06829
2.06092
2.05438
2.0513
2.05091
2.0519
2.05556
2.05649
2.05876
2.05766
2.05536
2.05355
2.04941
2.04577
2.03811
2.0334
2.02508
2.02019
2.01183
2.00668
1.99827
1.99293
1.98481
1.9794
1.97138
1.9657
1.95762
1.95167
1.94367
1.93756
1.92963
1.92329
1.9152
1.90874
1.90047
1.89424
1.88592
1.88001
1.87164
1.86579
1.85736
1.85135
1.84286
1.83673
1.82824
1.82223
1.81384
1.80815
1.80001
1.79488
1.78772
1.78541
2.19577
2.15763
2.11805
2.07941
2.03995
2.00063
1.96285
1.92561
1.88994
1.85557
1.82273
1.79135
1.76189
1.73353
1.70761
1.6824
1.66003
1.63814
1.6193
1.60103
1.58579
1.57198
1.56095
1.55484
1.5551
1.55865
1.56748
1.58876
1.63522
1.7284
1.86743
1.98538
2.05506
2.09436
2.17569
2.26272
2.32982
2.35619
2.3435
2.31952
2.28693
2.24903
2.20824
2.17098
2.13799
2.10846
2.08479
2.06435
2.04836
2.03622
2.02725
2.02024
2.01698
2.01477
2.01489
2.01687
2.02068
2.02313
2.02297
2.02209
2.02007
2.01801
2.01344
2.00959
2.00178
1.99683
1.98858
1.98359
1.97562
1.97058
1.96267
1.95722
1.94907
1.94328
1.93514
1.92945
1.92153
1.91595
1.90805
1.90231
1.89418
1.88827
1.87989
1.87397
1.8655
1.85963
1.85116
1.84535
1.83687
1.83123
1.82279
1.81739
1.80912
1.8038
1.79582
1.79045
1.78286
1.77771
1.771
1.76847
2.18616
2.15472
2.1177
2.08155
2.04481
2.0075
1.9709
1.93557
1.90112
1.86785
1.83647
1.80544
1.77721
1.74879
1.7235
1.69803
1.6754
1.65314
1.63323
1.61429
1.59738
1.58254
1.56986
1.5642
1.56624
1.57115
1.58616
1.61968
1.69208
1.81928
1.94337
2.00485
2.02978
2.04525
2.06832
2.11501
2.17743
2.24633
2.28079
2.28185
2.2686
2.24816
2.2116
2.17887
2.14258
2.11001
2.08126
2.05671
2.03645
2.02
2.00601
1.99657
1.98968
1.98364
1.98254
1.98274
1.98321
1.98638
1.98765
1.9907
1.98997
1.98901
1.98673
1.98417
1.97826
1.97411
1.96615
1.96137
1.95358
1.94878
1.94109
1.93598
1.92809
1.92275
1.91469
1.9092
1.901
1.89539
1.88721
1.88166
1.87355
1.86806
1.85984
1.85428
1.84594
1.84031
1.83201
1.82648
1.81829
1.81289
1.80484
1.79949
1.79158
1.78625
1.77842
1.77306
1.76533
1.76012
1.75322
1.7504
2.17331
2.14508
2.11494
2.07973
2.04661
2.01211
1.97742
1.94307
1.91068
1.87758
1.84789
1.81701
1.78969
1.76173
1.73637
1.71168
1.68833
1.66672
1.64557
1.62715
1.60866
1.59418
1.58153
1.57911
1.58249
1.59293
1.61891
1.6762
1.79373
1.91174
1.98148
2.00486
2.0084
2.00574
2.0077
2.02131
2.05063
2.09672
2.15205
2.20107
2.2263
2.21557
2.20074
2.18287
2.14859
2.118
2.0854
2.05704
2.03206
2.01125
1.99423
1.98025
1.96989
1.96127
1.95589
1.95221
1.95058
1.95086
1.95238
1.95622
1.9574
1.95852
1.95735
1.95611
1.95358
1.95082
1.94449
1.93963
1.93191
1.92724
1.92006
1.91557
1.90828
1.9034
1.89558
1.89013
1.88208
1.87644
1.8686
1.86303
1.85536
1.84986
1.84223
1.83683
1.82917
1.82389
1.8161
1.81085
1.80297
1.79757
1.78974
1.78407
1.77642
1.77062
1.76326
1.75756
1.75057
1.74533
1.73907
1.73644
2.16477
2.13849
2.11149
2.08004
2.04696
2.01538
1.98339
1.94997
1.9192
1.88725
1.85768
1.8286
1.8003
1.77435
1.74773
1.72439
1.70009
1.67906
1.65743
1.63863
1.62078
1.60563
1.59775
1.59936
1.60666
1.62548
1.6729
1.76523
1.89041
1.97237
1.99727
1.99982
1.99016
1.98122
1.97106
1.97011
1.97403
1.99002
2.02242
2.06635
2.12059
2.15406
2.1699
2.15992
2.14499
2.12311
2.09431
2.0665
2.03738
2.01268
1.9907
1.97246
1.95726
1.94429
1.93571
1.92767
1.92195
1.92048
1.91953
1.91962
1.92154
1.92314
1.92622
1.9258
1.92453
1.92309
1.9199
1.91664
1.91003
1.90541
1.89842
1.8937
1.88677
1.88205
1.87516
1.87022
1.86329
1.858
1.85101
1.84545
1.83842
1.83281
1.82577
1.82033
1.81324
1.808
1.80079
1.79555
1.78827
1.78292
1.77572
1.77034
1.76332
1.7579
1.75101
1.74554
1.7387
1.73345
1.72716
1.72431
2.14426
2.12178
2.09931
2.0757
2.04663
2.01516
1.98695
1.9554
1.92565
1.89595
1.86637
1.83888
1.81079
1.78525
1.75945
1.73573
1.71235
1.69044
1.66999
1.65027
1.63394
1.62103
1.61963
1.62516
1.64098
1.67527
1.75705
1.88186
1.97181
2.00267
2.0017
1.98952
1.97414
1.96049
1.9449
1.93582
1.93323
1.93452
1.94273
1.96322
1.99653
2.03763
2.08308
2.10665
2.11638
2.10659
2.09277
2.07127
2.04499
2.01925
1.99352
1.97035
1.9506
1.93292
1.91875
1.90714
1.89884
1.89257
1.88737
1.88598
1.88599
1.88643
1.88888
1.88977
1.89203
1.89139
1.89066
1.88932
1.8861
1.88223
1.87589
1.87096
1.86453
1.85973
1.8534
1.84843
1.84198
1.83682
1.83035
1.8251
1.81861
1.81328
1.80664
1.80127
1.79452
1.78929
1.78261
1.77757
1.77093
1.76595
1.75914
1.75414
1.74723
1.74224
1.7354
1.73052
1.72382
1.7192
1.71306
1.71067
2.13481
2.11207
2.0879
2.06639
2.04369
2.01504
1.98675
1.95975
1.93015
1.90296
1.8742
1.84723
1.82068
1.79464
1.77027
1.7461
1.72364
1.70183
1.68138
1.66349
1.64788
1.64291
1.64706
1.65992
1.68819
1.75216
1.87695
1.97375
2.01268
2.01377
2.00013
1.98318
1.96526
1.94546
1.93
1.9185
1.91007
1.903
1.90091
1.90172
1.91012
1.9289
1.95745
1.99291
2.03043
2.04981
2.05824
2.05001
2.03819
2.01941
1.9952
1.97199
1.94941
1.92752
1.90879
1.89218
1.87907
1.86958
1.86112
1.85639
1.85337
1.85271
1.85304
1.85444
1.85802
1.85975
1.86125
1.86059
1.85965
1.85785
1.85383
1.84952
1.84299
1.83783
1.83121
1.82622
1.81982
1.81491
1.80867
1.80389
1.79773
1.79305
1.78676
1.782
1.77546
1.77058
1.76389
1.75905
1.75236
1.74768
1.74102
1.73646
1.72974
1.7252
1.7184
1.71391
1.70717
1.70292
1.69682
1.69473
2.1206
2.09766
2.07594
2.05164
2.03272
2.01146
1.98573
1.95984
1.93384
1.907
1.88129
1.85458
1.82915
1.80406
1.77951
1.75632
1.73361
1.71257
1.69284
1.67626
1.66738
1.67001
1.6801
1.70598
1.76111
1.87159
1.97845
2.0276
2.03137
2.01678
1.99902
1.97902
1.95623
1.93634
1.91972
1.90476
1.89204
1.88032
1.87079
1.86372
1.86154
1.86239
1.87036
1.88805
1.91474
1.94634
1.97971
1.99755
2.00686
1.99938
1.98873
1.97177
1.94828
1.92694
1.90655
1.88579
1.86826
1.85446
1.84308
1.83547
1.829
1.82442
1.82379
1.82425
1.82494
1.82721
1.82911
1.83199
1.83172
1.831
1.82925
1.82696
1.82193
1.81766
1.81123
1.80665
1.80043
1.79594
1.78992
1.78558
1.77957
1.77535
1.76933
1.76524
1.75914
1.75496
1.74858
1.74409
1.7374
1.7326
1.72574
1.72082
1.71391
1.70909
1.70223
1.69762
1.69093
1.68674
1.68073
1.67883
2.11002
2.09287
2.06869
2.04402
2.02038
1.99966
1.97886
1.95669
1.93302
1.90894
1.88405
1.86069
1.83569
1.81249
1.78879
1.76625
1.74455
1.724
1.70658
1.69468
1.69476
1.70385
1.72645
1.77399
1.87972
1.99202
2.04809
2.05374
2.03815
2.02012
1.99906
1.97346
1.95139
1.93106
1.91273
1.89443
1.87854
1.86367
1.85201
1.84052
1.83142
1.82452
1.82301
1.82404
1.8309
1.84652
1.87055
1.89775
1.9268
1.94337
1.95414
1.94695
1.93864
1.92527
1.90545
1.88621
1.86717
1.8483
1.83241
1.82042
1.81038
1.80273
1.7977
1.794
1.79388
1.79423
1.79517
1.79808
1.79907
1.80091
1.80029
1.79963
1.79792
1.79552
1.79048
1.78666
1.78085
1.77675
1.77121
1.76746
1.76204
1.75819
1.75222
1.74803
1.7416
1.73727
1.7307
1.72628
1.71978
1.71527
1.70887
1.70429
1.69795
1.69339
1.68715
1.68272
1.67658
1.67251
1.66683
1.6649
2.09021
2.07944
2.06236
2.03923
2.01573
1.99339
1.97124
1.94936
1.92758
1.90584
1.88376
1.86073
1.83918
1.81622
1.79497
1.77344
1.75361
1.73518
1.72253
1.72043
1.72882
1.74894
1.79286
1.88714
2.00452
2.06888
2.0771
2.06118
2.0432
2.0205
1.9932
1.96847
1.94645
1.92534
1.90518
1.88582
1.86756
1.85091
1.83586
1.82314
1.81129
1.80033
1.79137
1.78424
1.78125
1.78211
1.78729
1.80047
1.82268
1.84596
1.87186
1.88976
1.90283
1.89673
1.8917
1.88244
1.86594
1.84646
1.82767
1.81114
1.79723
1.78545
1.77682
1.76991
1.76615
1.76506
1.76524
1.76563
1.76708
1.76964
1.77154
1.77187
1.77159
1.77078
1.76855
1.7659
1.76049
1.75646
1.75058
1.74661
1.74097
1.73737
1.73187
1.72836
1.72262
1.71886
1.71286
1.70879
1.70266
1.69842
1.69228
1.68798
1.68188
1.67757
1.6715
1.66728
1.66128
1.65738
1.65184
1.64989
2.06767
2.06272
2.0498
2.02938
2.00838
1.98738
1.96687
1.94575
1.92476
1.9033
1.88208
1.86085
1.83908
1.81913
1.79776
1.77876
1.76085
1.74711
1.74402
1.75203
1.77063
1.81255
1.89391
2.01906
2.0927
2.10285
2.08766
2.06825
2.0438
2.01431
1.98782
1.96423
1.94179
1.92053
1.8996
1.87984
1.86032
1.84267
1.82552
1.81037
1.79578
1.78306
1.77027
1.75865
1.74945
1.74301
1.73986
1.74069
1.7441
1.75475
1.77391
1.79473
1.81871
1.83911
1.85184
1.85182
1.84822
1.84121
1.82759
1.80814
1.79151
1.7765
1.76386
1.75278
1.74518
1.74
1.73663
1.73644
1.73667
1.73757
1.73947
1.74054
1.74267
1.74249
1.74208
1.74114
1.73863
1.73607
1.731
1.72749
1.72197
1.71847
1.71294
1.70966
1.70408
1.70064
1.69481
1.69107
1.68513
1.68117
1.67534
1.67127
1.66563
1.66148
1.65592
1.65179
1.64626
1.64241
1.63727
1.63532
2.04362
2.04364
2.03588
2.02167
1.99958
1.97856
1.95809
1.93801
1.9185
1.89877
1.87896
1.85934
1.83945
1.81939
1.80122
1.78275
1.7693
1.76524
1.77295
1.79039
1.82791
1.90563
2.03132
2.11298
2.12664
2.11198
2.09232
2.06687
2.03557
2.00778
1.98299
1.96009
1.93797
1.91643
1.89489
1.8741
1.85419
1.83548
1.81739
1.8001
1.78334
1.7678
1.75361
1.7407
1.72879
1.71817
1.70886
1.70213
1.69784
1.69842
1.70058
1.70954
1.72591
1.74586
1.76876
1.79021
1.80283
1.81083
1.80631
1.80083
1.78978
1.77516
1.75982
1.7441
1.73053
1.72053
1.71288
1.70866
1.70662
1.70689
1.70767
1.70964
1.71275
1.71374
1.71564
1.7155
1.71503
1.71387
1.71059
1.70792
1.70265
1.69942
1.69395
1.69074
1.68532
1.68204
1.67653
1.67297
1.66741
1.6636
1.65811
1.65415
1.64874
1.64479
1.6394
1.63555
1.63018
1.62663
1.62163
1.61995
2.00567
2.02087
2.02044
2.01174
1.99484
1.97401
1.95414
1.93381
1.914
1.89413
1.87516
1.85629
1.83803
1.82045
1.80329
1.79008
1.78494
1.79267
1.80993
1.84582
1.92266
2.04334
2.12987
2.14761
2.13443
2.11607
2.09024
2.05762
2.02853
2.003
1.97946
1.95684
1.93419
1.91161
1.88951
1.86841
1.84822
1.82868
1.80981
1.79112
1.77351
1.75634
1.74098
1.72642
1.71369
1.70072
1.68887
1.67812
1.66903
1.66265
1.65805
1.65863
1.6609
1.668
1.68124
1.70031
1.72225
1.74364
1.75892
1.7708
1.7677
1.76337
1.75686
1.74421
1.72837
1.7143
1.70234
1.69362
1.68666
1.68309
1.68206
1.68229
1.68357
1.68549
1.68851
1.68949
1.69103
1.69086
1.69016
1.6887
1.68495
1.68224
1.67689
1.67373
1.66836
1.66513
1.65974
1.65623
1.65087
1.64714
1.64192
1.63809
1.63292
1.62912
1.62402
1.62036
1.61532
1.61195
1.60717
1.60555
1.93909
1.98882
1.99437
1.99139
1.98267
1.96591
1.94741
1.92967
1.91106
1.89209
1.87258
1.8541
1.83592
1.82034
1.80737
1.80252
1.81052
1.82789
1.863
1.94072
2.05683
2.14947
2.16969
2.15753
2.13989
2.11287
2.07911
2.04917
2.02278
1.99866
1.97528
1.95199
1.92871
1.9059
1.88396
1.8628
1.8425
1.82256
1.8032
1.78412
1.76589
1.74829
1.73179
1.71607
1.70137
1.68761
1.67482
1.66259
1.65107
1.64094
1.63247
1.62654
1.6217
1.6224
1.62426
1.62859
1.63905
1.65684
1.67771
1.69828
1.71686
1.72882
1.7335
1.72955
1.72388
1.71217
1.69888
1.68764
1.6771
1.66917
1.66343
1.6606
1.66033
1.6608
1.66223
1.66444
1.66644
1.66799
1.66839
1.66823
1.6673
1.66549
1.6613
1.65842
1.65321
1.64988
1.64472
1.64114
1.63603
1.63228
1.62724
1.62348
1.61846
1.61473
1.60973
1.60617
1.60124
1.59807
1.59346
1.59189
1.79566
1.95023
1.97291
1.97331
1.96683
1.95602
1.93901
1.92194
1.90548
1.88867
1.87127
1.85349
1.83696
1.82314
1.81848
1.82658
1.84433
1.87979
1.95738
2.07259
2.17155
2.19272
2.17994
2.16256
2.13405
2.09929
2.06806
2.04084
2.01635
1.99287
1.9696
1.94623
1.92312
1.90059
1.87891
1.85786
1.83737
1.81715
1.79736
1.77802
1.75947
1.74167
1.72469
1.70847
1.6929
1.67833
1.66442
1.65171
1.63929
1.62756
1.61648
1.60662
1.59798
1.59124
1.58608
1.58628
1.5875
1.59048
1.59949
1.61567
1.63557
1.65591
1.67727
1.69233
1.70119
1.69831
1.6929
1.68321
1.6729
1.66279
1.65372
1.64678
1.64201
1.63978
1.63979
1.64045
1.64186
1.64391
1.64537
1.64669
1.64693
1.64652
1.64508
1.64313
1.63901
1.6359
1.63116
1.62768
1.62292
1.61931
1.6146
1.61101
1.60637
1.6028
1.59807
1.59457