/*--------------------------------*- C++ -*----------------------------------*\
| =========                 |                                                 |
| \\      /  F ield         | OpenFOAM: The Open Source CFD Toolbox           |
|  \\    /   O peration     | Version:  2112                                  |
|   \\  /    A nd           | Website:  www.openfoam.com                      |
|    \\/     M anipulation  |                                                 |
\*---------------------------------------------------------------------------*/
FoamFile
{
    version     2.0;
    format      ascii;
    arch        "LSB;label=32;scalar=64";
    class       volVectorField;
    location    "3";
    object      U;
}
// * * * * * * * * * * * * * * * * * * * * * * * * * * * * * * * * * * * * * //

dimensions      [0 1 -1 0 0 0 0];

internalField   nonuniform List<vector> 
5250
(
(3 1.09297e-08 0)
(2.99999 8.48357e-08 0)
(2.99996 2.60752e-07 0)
(2.99991 7.91012e-07 0)
(2.99977 1.85591e-06 0)
(2.99949 5.15767e-06 0)
(2.9986 1.08229e-05 0)
(2.9971 3.37069e-05 0)
(2.99119 6.41641e-05 0)
(2.98198 0.000228698 0)
(2.94374 0.000458132 0)
(2.85947 0.00159284 0)
(2.60689 0.00377884 0)
(1.79352 0.0123527 0)
(0.85347 0.0311875 0)
(0.415826 0.0276158 0)
(0.512829 0.0265258 0)
(0.535327 0.0277818 0)
(0.474536 0.0292382 0)
(0.380628 0.0309746 0)
(0.299069 0.0326431 0)
(0.233734 0.0339863 0)
(0.169143 0.0350373 0)
(0.0986636 0.0364477 0)
(0.042858 0.0393917 0)
(3 3.2389e-08 0)
(2.99999 2.51651e-07 0)
(2.99996 7.72872e-07 0)
(2.99991 2.34484e-06 0)
(2.99977 5.48894e-06 0)
(2.9995 1.5332e-05 0)
(2.99862 3.16604e-05 0)
(2.99715 0.000101658 0)
(2.99135 0.000185607 0)
(2.98231 0.000705331 0)
(2.94482 0.00137823 0)
(2.86243 0.00492297 0)
(2.61497 0.0117367 0)
(1.81677 0.0383734 0)
(0.866673 0.0948455 0)
(0.412386 0.0789816 0)
(0.513872 0.0719119 0)
(0.538508 0.0730955 0)
(0.478478 0.0750697 0)
(0.385677 0.0779339 0)
(0.304612 0.0800525 0)
(0.238982 0.0811691 0)
(0.173206 0.0814688 0)
(0.100106 0.081673 0)
(0.0415319 0.0821683 0)
(3 5.29075e-08 0)
(2.99999 4.11661e-07 0)
(2.99996 1.26351e-06 0)
(2.99991 3.83681e-06 0)
(2.99978 8.97895e-06 0)
(2.99951 2.51373e-05 0)
(2.99867 5.16578e-05 0)
(2.99723 0.000167868 0)
(2.99169 0.000299738 0)
(2.98299 0.00117758 0)
(2.9471 0.0022694 0)
(2.86873 0.00823131 0)
(2.63241 0.0197408 0)
(1.86908 0.064782 0)
(0.898969 0.162416 0)
(0.411802 0.133825 0)
(0.521393 0.119914 0)
(0.550287 0.122003 0)
(0.491572 0.126021 0)
(0.40002 0.132167 0)
(0.318637 0.136573 0)
(0.251722 0.139614 0)
(0.18379 0.14186 0)
(0.107113 0.143628 0)
(0.0437658 0.144083 0)
(3 7.10861e-08 0)
(2.99999 5.54146e-07 0)
(2.99996 1.70024e-06 0)
(2.99992 5.1707e-06 0)
(2.99979 1.21274e-05 0)
(2.99953 3.38725e-05 0)
(2.99874 7.03424e-05 0)
(2.99736 0.000225119 0)
(2.99218 0.00040505 0)
(2.98397 0.00157077 0)
(2.95045 0.00302854 0)
(2.87804 0.0109591 0)
(2.65837 0.0263691 0)
(1.94939 0.0865559 0)
(0.951457 0.222147 0)
(0.417729 0.186612 0)
(0.537055 0.166781 0)
(0.572184 0.169839 0)
(0.515313 0.176028 0)
(0.425 0.186162 0)
(0.342166 0.193673 0)
(0.272938 0.19974 0)
(0.201443 0.205313 0)
(0.118892 0.210148 0)
(0.0482352 0.211471 0)
(3 8.35629e-08 0)
(2.99999 6.51569e-07 0)
(2.99997 1.99943e-06 0)
(2.99992 6.08063e-06 0)
(2.9998 1.42899e-05 0)
(2.99956 3.97194e-05 0)
(2.99883 8.33834e-05 0)
(2.99751 0.000263104 0)
(2.9928 0.000468591 0)
(2.98519 0.00183377 0)
(2.95462 0.00350817 0)
(2.88953 0.0127032 0)
(2.69062 0.0310232 0)
(2.05223 0.101473 0)
(1.02413 0.269421 0)
(0.439338 0.241208 0)
(0.564625 0.218567 0)
(0.60637 0.219823 0)
(0.551861 0.226398 0)
(0.462556 0.240169 0)
(0.376584 0.25172 0)
(0.303075 0.262131 0)
(0.22617 0.272452 0)
(0.135701 0.281908 0)
(0.0552582 0.285494 0)
(3 8.71438e-08 0)
(2.99999 6.78874e-07 0)
(2.99997 2.08454e-06 0)
(2.99993 6.32286e-06 0)
(2.99982 1.49103e-05 0)
(2.99959 4.07509e-05 0)
(2.99893 8.81738e-05 0)
(2.99768 0.000260829 0)
(2.99349 0.000492679 0)
(2.98653 0.00178903 0)
(2.9592 0.00340901 0)
(2.90247 0.0123014 0)
(2.7271 0.0303996 0)
(2.17334 0.0962079 0)
(1.13668 0.260844 0)
(0.501548 0.276706 0)
(0.60821 0.268686 0)
(0.648509 0.270011 0)
(0.59547 0.277589 0)
(0.507327 0.295565 0)
(0.417738 0.312692 0)
(0.339557 0.329036 0)
(0.256857 0.345989 0)
(0.157236 0.362502 0)
(0.064784 0.371047 0)
(3 8.52616e-08 0)
(2.99999 6.61467e-07 0)
(2.99997 2.03279e-06 0)
(2.99993 6.12797e-06 0)
(2.99983 1.44635e-05 0)
(2.99962 3.86833e-05 0)
(2.99901 8.57843e-05 0)
(2.99785 0.00023532 0)
(2.99407 0.000478157 0)
(2.98764 0.00155983 0)
(2.96311 0.00292585 0)
(2.91334 0.010405 0)
(2.75549 0.0260802 0)
(2.2632 0.0732101 0)
(1.24501 0.213579 0)
(0.535062 0.306285 0)
(0.627005 0.325509 0)
(0.670759 0.321478 0)
(0.627882 0.329573 0)
(0.54751 0.351639 0)
(0.458503 0.376403 0)
(0.378512 0.400683 0)
(0.292438 0.426766 0)
(0.184857 0.453991 0)
(0.0786641 0.472994 0)
(3 8.9625e-08 0)
(2.99999 6.92158e-07 0)
(2.99997 2.13026e-06 0)
(2.99994 6.38626e-06 0)
(2.99984 1.50537e-05 0)
(2.99965 3.97899e-05 0)
(2.99909 8.83372e-05 0)
(2.99801 0.000235211 0)
(2.99459 0.000486312 0)
(2.98858 0.00148753 0)
(2.96636 0.00281247 0)
(2.92272 0.00950282 0)
(2.77532 0.0234639 0)
(2.33682 0.0630212 0)
(1.37894 0.189928 0)
(0.596373 0.351899 0)
(0.635307 0.380916 0)
(0.671253 0.372079 0)
(0.64832 0.382541 0)
(0.581965 0.406571 0)
(0.498437 0.440105 0)
(0.420046 0.474943 0)
(0.334431 0.514154 0)
(0.221971 0.558049 0)
(0.100142 0.599476 0)
(3 1.07163e-07 0)
(2.99999 8.22317e-07 0)
(2.99998 2.53555e-06 0)
(2.99995 7.57459e-06 0)
(2.99986 1.79578e-05 0)
(2.99968 4.71318e-05 0)
(2.99917 0.000105964 0)
(2.99818 0.000271724 0)
(2.99511 0.000600811 0)
(2.98959 0.00157591 0)
(2.96962 0.00340324 0)
(2.93128 0.00940494 0)
(2.79651 0.023298 0)
(2.40993 0.0646233 0)
(1.53024 0.178039 0)
(0.682911 0.393257 0)
(0.641995 0.415856 0)
(0.672709 0.413915 0)
(0.665624 0.431935 0)
(0.613738 0.459202 0)
(0.540848 0.501408 0)
(0.467917 0.54955 0)
(0.387673 0.604708 0)
(0.278527 0.675305 0)
(0.138789 0.764366 0)
(3 4.99101e-08 0)
(2.99999 1.32763e-06 0)
(2.99998 2.68341e-06 0)
(2.99995 1.17969e-05 0)
(2.99988 1.94797e-05 0)
(2.99972 7.59386e-05 0)
(2.99928 0.000107556 0)
(2.99842 0.000464815 0)
(2.99567 0.00049439 0)
(2.99093 0.00272909 0)
(2.97275 0.001849 0)
(2.93989 0.0165541 0)
(2.81754 0.0112662 0)
(2.47603 0.0940267 0)
(1.67577 0.164969 0)
(0.779007 0.435156 0)
(0.646469 0.447309 0)
(0.679785 0.451007 0)
(0.685412 0.475257 0)
(0.646618 0.509362 0)
(0.588379 0.558729 0)
(0.525254 0.619534 0)
(0.45949 0.697116 0)
(0.373126 0.814613 0)
(0.211761 1.02447 0)
(3 9.31521e-08 0)
(2.99999 7.2806e-07 0)
(2.99998 2.23905e-06 0)
(2.99996 6.77492e-06 0)
(2.99991 1.60687e-05 0)
(2.99976 4.28243e-05 0)
(2.9995 9.6839e-05 0)
(2.9985 0.000250979 0)
(2.99699 0.000565721 0)
(2.99073 0.00147398 0)
(2.98078 0.00324319 0)
(2.93978 0.00937813 0)
(2.84933 0.0220813 0)
(2.57422 0.0646889 0)
(1.74004 0.188493 0)
(0.898935 0.469505 0)
(0.651955 0.476481 0)
(0.691091 0.483645 0)
(0.710216 0.511066 0)
(0.683669 0.552731 0)
(0.64055 0.60775 0)
(0.597063 0.679219 0)
(0.566193 0.77762 0)
(0.564133 0.927355 0)
(0.600021 1.1736 0)
(3 1.36726e-07 0)
(2.99999 1.20477e-07 0)
(2.99998 1.77359e-06 0)
(2.99996 1.63611e-06 0)
(2.99991 1.2342e-05 0)
(2.99979 8.63406e-06 0)
(2.99945 8.25888e-05 0)
(2.99881 3.29636e-05 0)
(2.99669 0.000595825 0)
(2.99315 0.000273734 0)
(2.97933 0.00435302 0)
(2.95547 0.00271147 0)
(2.86308 0.0314896 0)
(2.62287 0.0468447 0)
(2.00562 0.194193 0)
(1.02533 0.513124 0)
(0.67078 0.514765 0)
(0.711806 0.520238 0)
(0.741835 0.543456 0)
(0.726654 0.588081 0)
(0.698503 0.64698 0)
(0.678204 0.725307 0)
(0.684055 0.832164 0)
(0.744146 0.979652 0)
(0.890697 1.16885 0)
(3 7.41704e-08 0)
(2.99999 5.79577e-07 0)
(2.99999 1.78e-06 0)
(2.99997 5.40607e-06 0)
(2.99992 1.27503e-05 0)
(2.99981 3.4398e-05 0)
(2.99952 7.65448e-05 0)
(2.99893 0.000210081 0)
(2.99719 0.000432214 0)
(2.99387 0.00138682 0)
(2.98292 0.00249184 0)
(2.96248 0.00964622 0)
(2.88981 0.01852 0)
(2.70148 0.0721566 0)
(2.2139 0.177338 0)
(1.18736 0.52424 0)
(0.718832 0.556206 0)
(0.747944 0.567513 0)
(0.782208 0.578348 0)
(0.777789 0.619029 0)
(0.762121 0.678433 0)
(0.762046 0.756546 0)
(0.794433 0.857775 0)
(0.881959 0.98196 0)
(1.05352 1.10497 0)
(3 8.14427e-08 0)
(3 6.35956e-07 0)
(2.99999 1.95388e-06 0)
(2.99997 5.92738e-06 0)
(2.99993 1.4061e-05 0)
(2.99984 3.7743e-05 0)
(2.9996 8.52461e-05 0)
(2.9991 0.000224738 0)
(2.99767 0.000501159 0)
(2.99487 0.00133546 0)
(2.98613 0.00297684 0)
(2.96905 0.00824753 0)
(2.91256 0.0187635 0)
(2.76977 0.0575099 0)
(2.39245 0.145648 0)
(1.38576 0.442876 0)
(0.814732 0.578029 0)
(0.800841 0.610228 0)
(0.826362 0.618929 0)
(0.835077 0.650405 0)
(0.829795 0.704629 0)
(0.842054 0.775918 0)
(0.888561 0.861969 0)
(0.983882 0.958252 0)
(1.14909 1.03977 0)
(3 7.84684e-08 0)
(3 6.12281e-07 0)
(2.99999 1.88307e-06 0)
(2.99998 5.70185e-06 0)
(2.99994 1.35458e-05 0)
(2.99987 3.61886e-05 0)
(2.99967 8.19242e-05 0)
(2.99928 0.000212691 0)
(2.99812 0.000484433 0)
(2.99593 0.00121097 0)
(2.98863 0.0028889 0)
(2.97584 0.00684316 0)
(2.92893 0.0172613 0)
(2.81582 0.044148 0)
(2.50606 0.117108 0)
(1.58471 0.335538 0)
(0.915414 0.612302 0)
(0.838072 0.650131 0)
(0.859703 0.663814 0)
(0.882617 0.682444 0)
(0.89187 0.726599 0)
(0.913441 0.787347 0)
(0.965946 0.857234 0)
(1.06025 0.929564 0)
(1.21009 0.985995 0)
(3 6.60045e-08 0)
(3 5.11685e-07 0)
(2.99999 1.57581e-06 0)
(2.99998 4.74162e-06 0)
(2.99996 1.12426e-05 0)
(2.9999 2.97655e-05 0)
(2.99974 6.70254e-05 0)
(2.99944 0.000173324 0)
(2.9985 0.000385092 0)
(2.99688 0.00100427 0)
(2.9908 0.00219559 0)
(2.98117 0.00603139 0)
(2.94232 0.0132501 0)
(2.85753 0.0388551 0)
(2.6047 0.0995866 0)
(1.81489 0.295999 0)
(1.07012 0.653352 0)
(0.86906 0.682521 0)
(0.883786 0.697189 0)
(0.916612 0.707273 0)
(0.943843 0.742277 0)
(0.974713 0.792668 0)
(1.02982 0.849456 0)
(1.1193 0.904489 0)
(1.25198 0.944858 0)
(3 5.42575e-08 0)
(3 4.18805e-07 0)
(2.99999 1.29041e-06 0)
(2.99999 3.86824e-06 0)
(2.99996 9.14454e-06 0)
(2.99992 2.41098e-05 0)
(2.99979 5.39093e-05 0)
(2.99954 0.000140525 0)
(2.99881 0.000300617 0)
(2.99744 0.000847396 0)
(2.99279 0.00164969 0)
(2.98514 0.00546312 0)
(2.95513 0.0106066 0)
(2.89187 0.0363645 0)
(2.69873 0.0863454 0)
(2.08263 0.276562 0)
(1.26852 0.678397 0)
(0.922538 0.715775 0)
(0.918852 0.724146 0)
(0.951618 0.728664 0)
(0.990809 0.752437 0)
(1.02818 0.793356 0)
(1.08373 0.840005 0)
(1.16713 0.883113 0)
(1.2838 0.913358 0)
(3 4.76463e-08 0)
(3 3.68251e-07 0)
(3 1.13483e-06 0)
(2.99999 3.40835e-06 0)
(2.99997 8.08249e-06 0)
(2.99994 2.13608e-05 0)
(2.99984 4.80751e-05 0)
(2.99965 0.000124373 0)
(2.99909 0.000274761 0)
(2.99801 0.000728665 0)
(2.99462 0.00153843 0)
(2.98869 0.00451736 0)
(2.96718 0.00914302 0)
(2.92409 0.028886 0)
(2.78832 0.0706044 0)
(2.37353 0.212035 0)
(1.561 0.577737 0)
(1.04345 0.724847 0)
(0.986646 0.747237 0)
(1.00131 0.755469 0)
(1.04095 0.766026 0)
(1.08134 0.795725 0)
(1.1335 0.832716 0)
(1.20864 0.866421 0)
(1.31064 0.889269 0)
(3 2.62091e-08 0)
(3 3.49748e-07 0)
(3 8.60256e-07 0)
(2.99999 3.14112e-06 0)
(2.99998 6.24049e-06 0)
(2.99995 1.96108e-05 0)
(2.99988 3.73366e-05 0)
(2.99973 0.000114362 0)
(2.99931 0.000212104 0)
(2.9985 0.000671202 0)
(2.99594 0.00113292 0)
(2.99151 0.00412024 0)
(2.97492 0.00570204 0)
(2.94523 0.0256305 0)
(2.8368 0.0401 0)
(2.54183 0.161056 0)
(1.85401 0.386882 0)
(1.15755 0.740221 0)
(1.03622 0.773638 0)
(1.04183 0.78733 0)
(1.08115 0.788431 0)
(1.12808 0.804259 0)
(1.17884 0.830562 0)
(1.24615 0.855964 0)
(1.33498 0.872594 0)
(3 1.93771e-08 0)
(3 2.61793e-07 0)
(3 6.40571e-07 0)
(2.99999 2.34904e-06 0)
(2.99999 4.63715e-06 0)
(2.99996 1.46053e-05 0)
(2.99992 2.75969e-05 0)
(2.99979 8.46143e-05 0)
(2.99955 0.000157428 0)
(2.99877 0.000489869 0)
(2.99749 0.000872752 0)
(2.99252 0.00299947 0)
(2.9847 0.00465391 0)
(2.95354 0.0197434 0)
(2.88747 0.0310965 0)
(2.68423 0.127451 0)
(2.08421 0.315211 0)
(1.35011 0.756323 0)
(1.08667 0.806757 0)
(1.07863 0.816572 0)
(1.11282 0.813543 0)
(1.1657 0.815475 0)
(1.21857 0.831504 0)
(1.28028 0.849483 0)
(1.35817 0.86131 0)
(3 3.605e-08 0)
(3 1.3125e-07 0)
(3 6.2239e-07 0)
(3 1.30693e-06 0)
(2.99999 4.30884e-06 0)
(2.99997 8.19972e-06 0)
(2.99994 2.52824e-05 0)
(2.99984 4.66129e-05 0)
(2.99965 0.000145489 0)
(2.99909 0.000252519 0)
(2.99803 0.00088078 0)
(2.99467 0.00135077 0)
(2.98887 0.00569297 0)
(2.96755 0.00834016 0)
(2.92536 0.0375626 0)
(2.79241 0.0721186 0)
(2.3881 0.259097 0)
(1.64441 0.642266 0)
(1.20242 0.806532 0)
(1.14133 0.832606 0)
(1.15491 0.838172 0)
(1.20293 0.831872 0)
(1.25689 0.836778 0)
(1.31349 0.847115 0)
(1.38194 0.85431 0)
(3 2.23875e-08 0)
(3 1.22087e-07 0)
(3 4.53772e-07 0)
(3 1.16456e-06 0)
(2.99999 3.19861e-06 0)
(2.99998 7.33038e-06 0)
(2.99995 1.89806e-05 0)
(2.99989 4.24271e-05 0)
(2.99972 0.000108659 0)
(2.99939 0.000240818 0)
(2.99841 0.000622387 0)
(2.99651 0.00134863 0)
(2.99054 0.00369194 0)
(2.97947 0.00766329 0)
(2.94207 0.022573 0)
(2.85309 0.0537379 0)
(2.60381 0.150236 0)
(1.90964 0.454321 0)
(1.33633 0.790152 0)
(1.19759 0.842075 0)
(1.19452 0.861994 0)
(1.23351 0.856558 0)
(1.28929 0.848863 0)
(1.34419 0.850172 0)
(1.40542 0.852326 0)
(3 1.31205e-08 0)
(3 1.02218e-07 0)
(3 3.14635e-07 0)
(3 9.49572e-07 0)
(2.99999 2.25154e-06 0)
(2.99999 5.97459e-06 0)
(2.99997 1.34607e-05 0)
(2.99992 3.48406e-05 0)
(2.99981 7.75524e-05 0)
(2.99952 0.000200706 0)
(2.99896 0.000444115 0)
(2.99722 0.00116714 0)
(2.99413 0.00256362 0)
(2.98322 0.00700684 0)
(2.96374 0.0156273 0)
(2.89444 0.0434876 0)
(2.72006 0.11883 0)
(2.25365 0.318009 0)
(1.51591 0.781838 0)
(1.25773 0.865189 0)
(1.23434 0.88287 0)
(1.25747 0.881212 0)
(1.31088 0.866832 0)
(1.36941 0.859147 0)
(1.42789 0.855925 0)
(3 1.55914e-08 0)
(3 6.08787e-08 0)
(3 2.76018e-07 0)
(3 6.06643e-07 0)
(3 1.93272e-06 0)
(2.99999 3.86869e-06 0)
(2.99998 1.14928e-05 0)
(2.99995 2.25626e-05 0)
(2.99986 6.6132e-05 0)
(2.99969 0.000128976 0)
(2.99921 0.000381182 0)
(2.99828 0.000726434 0)
(2.99541 0.0022825 0)
(2.99031 0.00397351 0)
(2.97251 0.0144918 0)
(2.93767 0.0245264 0)
(2.82544 0.0924995 0)
(2.51422 0.21827 0)
(1.84915 0.614886 0)
(1.37793 0.855006 0)
(1.29341 0.887981 0)
(1.29482 0.898679 0)
(1.33564 0.886827 0)
(1.39284 0.871402 0)
(1.44951 0.863167 0)
(3 7.2059e-09 0)
(3 5.58584e-08 0)
(3 1.72177e-07 0)
(3 5.17294e-07 0)
(3 1.22661e-06 0)
(2.99999 3.23241e-06 0)
(2.99998 7.27682e-06 0)
(2.99996 1.86542e-05 0)
(2.9999 4.14514e-05 0)
(2.99979 0.000105847 0)
(2.99945 0.000233923 0)
(2.99881 0.000603383 0)
(2.99684 0.00130939 0)
(2.9934 0.00356382 0)
(2.9809 0.00734931 0)
(2.95934 0.0219768 0)
(2.88053 0.048828 0)
(2.6785 0.149879 0)
(2.18225 0.397384 0)
(1.53404 0.837237 0)
(1.34521 0.902826 0)
(1.32983 0.915736 0)
(1.35524 0.908071 0)
(1.40962 0.887792 0)
(1.4681 0.873281 0)
(3 4.10915e-09 0)
(3 4.50913e-08 0)
(3 1.1931e-07 0)
(3 4.06995e-07 0)
(3 8.57082e-07 0)
(3 2.52212e-06 0)
(2.99999 5.08633e-06 0)
(2.99997 1.44905e-05 0)
(2.99993 2.89232e-05 0)
(2.99985 8.19513e-05 0)
(2.99963 0.000162508 0)
(2.99917 0.000465741 0)
(2.99788 0.000895201 0)
(2.99535 0.00275953 0)
(2.98767 0.00477348 0)
(2.9725 0.0174497 0)
(2.925 0.02908 0)
(2.80649 0.113758 0)
(2.49553 0.252891 0)
(1.79829 0.707668 0)
(1.44249 0.885027 0)
(1.38012 0.915694 0)
(1.38548 0.922767 0)
(1.42825 0.906642 0)
(1.48524 0.884265 0)
(3 2.82199e-09 0)
(3 3.0857e-08 0)
(3 8.17204e-08 0)
(3 2.7907e-07 0)
(3 5.87642e-07 0)
(3 1.73037e-06 0)
(2.99999 3.48727e-06 0)
(2.99998 9.94003e-06 0)
(2.99996 1.98353e-05 0)
(2.9999 5.61911e-05 0)
(2.99977 0.000111632 0)
(2.99942 0.000317449 0)
(2.99875 0.000626446 0)
(2.99664 0.00181539 0)
(2.99304 0.00351318 0)
(2.97984 0.0107486 0)
(2.95674 0.0209187 0)
(2.87291 0.0670488 0)
(2.66158 0.160274 0)
(2.14129 0.457559 0)
(1.577 0.853364 0)
(1.43228 0.918158 0)
(1.41877 0.932951 0)
(1.4439 0.925121 0)
(1.49632 0.899883 0)
(3 3.19657e-09 0)
(3 1.72277e-08 0)
(3 6.40577e-08 0)
(3 1.64235e-07 0)
(3 4.48926e-07 0)
(3 1.02642e-06 0)
(2.99999 2.63558e-06 0)
(2.99999 5.87341e-06 0)
(2.99997 1.48674e-05 0)
(2.99993 3.28754e-05 0)
(2.99984 8.31092e-05 0)
(2.9996 0.00018273 0)
(2.99912 0.000469048 0)
(2.99776 0.0010014 0)
(2.9951 0.00276418 0)
(2.98701 0.00554093 0)
(2.97124 0.0170879 0)
(2.9214 0.0352815 0)
(2.79633 0.114721 0)
(2.47047 0.290782 0)
(1.82206 0.737192 0)
(1.51374 0.903589 0)
(1.46117 0.933229 0)
(1.46745 0.93925 0)
(1.50828 0.920796 0)
(3 2.64433e-09 0)
(3 1.14111e-08 0)
(3 4.86029e-08 0)
(3 1.11476e-07 0)
(3 3.38216e-07 0)
(3 7.01542e-07 0)
(3 1.98654e-06 0)
(2.99999 4.03589e-06 0)
(2.99998 1.1248e-05 0)
(2.99995 2.2742e-05 0)
(2.9999 6.3211e-05 0)
(2.99974 0.00012739 0)
(2.99943 0.000355452 0)
(2.99855 0.000711642 0)
(2.99682 0.00202247 0)
(2.99169 0.00396166 0)
(2.98167 0.0119423 0)
(2.95068 0.0231776 0)
(2.87726 0.0750469 0)
(2.67706 0.172657 0)
(2.12432 0.516559 0)
(1.65787 0.861824 0)
(1.51872 0.930308 0)
(1.50136 0.946496 0)
(1.5211 0.939125 0)
(3 1.74689e-09 0)
(3 7.56101e-09 0)
(3 3.21141e-08 0)
(3 7.39185e-08 0)
(3 2.23552e-07 0)
(3 4.65195e-07 0)
(3 1.3123e-06 0)
(3 2.67421e-06 0)
(2.99999 7.42068e-06 0)
(2.99997 1.50507e-05 0)
(2.99993 4.16271e-05 0)
(2.99985 8.4199e-05 0)
(2.99961 0.000233508 0)
(2.99914 0.000470274 0)
(2.99781 0.00132106 0)
(2.99523 0.00262407 0)
(2.98738 0.0076801 0)
(2.9721 0.0151979 0)
(2.92414 0.0464677 0)
(2.80675 0.107678 0)
(2.48412 0.315195 0)
(1.88794 0.743422 0)
(1.59943 0.912909 0)
(1.54389 0.944269 0)
(1.54449 0.950531 0)
(3 7.7867e-10 0)
(3 6.02562e-09 0)
(3 1.85741e-08 0)
(3 5.56428e-08 0)
(3 1.31812e-07 0)
(3 3.45637e-07 0)
(3 7.7688e-07 0)
(3 1.97799e-06 0)
(2.99999 4.39221e-06 0)
(2.99998 1.11105e-05 0)
(2.99996 2.45811e-05 0)
(2.9999 6.21642e-05 0)
(2.99975 0.000137212 0)
(2.99945 0.000348426 0)
(2.99862 0.000765905 0)
(2.99698 0.00197409 0)
(2.99215 0.00431206 0)
(2.98278 0.0114808 0)
(2.95397 0.0258077 0)
(2.88612 0.0708356 0)
(2.70023 0.183197 0)
(2.19084 0.508531 0)
(1.74071 0.86822 0)
(1.5979 0.940606 0)
(1.57656 0.956069 0)
(3 4.32286e-10 0)
(3 4.28525e-09 0)
(3 1.18171e-08 0)
(3 3.87591e-08 0)
(3 8.42273e-08 0)
(3 2.38774e-07 0)
(3 4.95318e-07 0)
(3 1.35834e-06 0)
(3 2.78923e-06 0)
(2.99999 7.58594e-06 0)
(2.99997 1.55315e-05 0)
(2.99994 4.21773e-05 0)
(2.99985 8.61e-05 0)
(2.99967 0.000234441 0)
(2.99917 0.000476185 0)
(2.99819 0.00131228 0)
(2.99527 0.00262414 0)
(2.99007 0.00753795 0)
(2.97233 0.0148704 0)
(2.93796 0.0452993 0)
(2.83187 0.101996 0)
(2.51902 0.316165 0)
(2.0002 0.706901 0)
(1.69377 0.903031 0)
(1.62642 0.944639 0)
(3 3.26416e-10 0)
(3 2.51266e-09 0)
(3 7.75505e-09 0)
(3 2.31256e-08 0)
(3 5.47719e-08 0)
(3 1.42755e-07 0)
(3 3.20531e-07 0)
(3 8.10108e-07 0)
(3 1.79666e-06 0)
(2.99999 4.50482e-06 0)
(2.99998 9.95829e-06 0)
(2.99996 2.49055e-05 0)
(2.99991 5.4947e-05 0)
(2.99978 0.000137385 0)
(2.99952 0.000302225 0)
(2.99877 0.00076126 0)
(2.99732 0.00164826 0)
(2.99302 0.00434393 0)
(2.98473 0.00896435 0)
(2.95929 0.0258542 0)
(2.90048 0.056827 0)
(2.73499 0.164629 0)
(2.29292 0.455219 0)
(1.84691 0.830131 0)
(1.68441 0.928892 0)
(3 2.92122e-10 0)
(3 1.29243e-09 0)
(3 5.39126e-09 0)
(3 1.26068e-08 0)
(3 3.74578e-08 0)
(3 7.89726e-08 0)
(3 2.18617e-07 0)
(3 4.50682e-07 0)
(3 1.22616e-06 0)
(3 2.51519e-06 0)
(2.99999 6.81269e-06 0)
(2.99998 1.39542e-05 0)
(2.99994 3.77826e-05 0)
(2.99987 7.72663e-05 0)
(2.99969 0.000209937 0)
(2.99931 0.000427759 0)
(2.99825 0.001178 0)
(2.99617 0.0023734 0)
(2.99017 0.00678765 0)
(2.97775 0.0135911 0)
(2.94227 0.0403308 0)
(2.85616 0.0927657 0)
(2.61766 0.269107 0)
(2.09906 0.658761 0)
(1.78223 0.893053 0)
(3 1.26106e-10 0)
(3 9.72561e-10 0)
(3 3.00153e-09 0)
(3 8.96139e-09 0)
(3 2.12191e-08 0)
(3 5.53374e-08 0)
(3 1.24163e-07 0)
(3 3.13947e-07 0)
(3 6.95527e-07 0)
(3 1.74551e-06 0)
(2.99999 3.85346e-06 0)
(2.99999 9.65651e-06 0)
(2.99997 2.12768e-05 0)
(2.99992 5.33756e-05 0)
(2.99981 0.000117369 0)
(2.99958 0.000295746 0)
(2.99894 0.000648152 0)
(2.9977 0.00165112 0)
(2.99407 0.00363025 0)
(2.98724 0.00935472 0)
(2.96561 0.0214601 0)
(2.92005 0.0559403 0)
(2.78579 0.142689 0)
(2.40604 0.397836 0)
(1.96641 0.785909 0)
(3 6.85853e-11 0)
(3 6.5218e-10 0)
(3 1.82966e-09 0)
(3 5.90303e-09 0)
(3 1.29965e-08 0)
(3 3.62441e-08 0)
(3 7.60718e-08 0)
(3 2.051e-07 0)
(3 4.26054e-07 0)
(3 1.13862e-06 0)
(3 2.36091e-06 0)
(2.99999 6.29149e-06 0)
(2.99998 1.30432e-05 0)
(2.99995 3.47214e-05 0)
(2.99989 7.19196e-05 0)
(2.99975 0.000191647 0)
(2.99938 0.000395797 0)
(2.99865 0.00106283 0)
(2.99657 0.00216894 0)
(2.99264 0.00604854 0)
(2.9803 0.0118959 0)
(2.95666 0.036056 0)
(2.88222 0.0753669 0)
(2.67791 0.239383 0)
(2.25518 0.56553 0)
(3 4.13226e-11 0)
(3 3.905e-10 0)
(3 1.09868e-09 0)
(3 3.53808e-09 0)
(3 7.80467e-09 0)
(3 2.17065e-08 0)
(3 4.56184e-08 0)
(3 1.22584e-07 0)
(3 2.54868e-07 0)
(3 6.78623e-07 0)
(3 1.408e-06 0)
(2.99999 3.73727e-06 0)
(2.99999 7.75252e-06 0)
(2.99997 2.05467e-05 0)
(2.99994 4.26027e-05 0)
(2.99985 0.000112907 0)
(2.99967 0.000233629 0)
(2.99917 0.000621824 0)
(2.99821 0.00127628 0)
(2.99536 0.00348845 0)
(2.99027 0.00690168 0)
(2.97326 0.0204838 0)
(2.94027 0.0403805 0)
(2.83782 0.126236 0)
(2.55717 0.321715 0)
(3 4.06658e-11 0)
(3 1.86986e-10 0)
(3 7.60749e-10 0)
(3 1.80896e-09 0)
(3 5.26339e-09 0)
(3 1.12492e-08 0)
(3 3.0484e-08 0)
(3 6.36233e-08 0)
(3 1.6932e-07 0)
(3 3.51455e-07 0)
(3 9.30326e-07 0)
(3 1.92864e-06 0)
(2.99999 5.09426e-06 0)
(2.99998 1.05536e-05 0)
(2.99996 2.78518e-05 0)
(2.99991 5.76009e-05 0)
(2.99981 0.000152193 0)
(2.99952 0.000313604 0)
(2.99896 0.000836961 0)
(2.99732 0.00169264 0)
(2.99442 0.0047428 0)
(2.98448 0.00911694 0)
(2.96737 0.0279834 0)
(2.90847 0.0567054 0)
(2.76099 0.178014 0)
(3 2.38538e-11 0)
(3 1.10722e-10 0)
(3 4.48702e-10 0)
(3 1.06967e-09 0)
(3 3.10274e-09 0)
(3 6.64491e-09 0)
(3 1.79486e-08 0)
(3 3.75296e-08 0)
(3 9.95463e-08 0)
(3 2.07006e-07 0)
(3 5.4616e-07 0)
(3 1.13455e-06 0)
(3 2.98688e-06 0)
(2.99999 6.20384e-06 0)
(2.99998 1.63131e-05 0)
(2.99995 3.38562e-05 0)
(2.99988 8.90449e-05 0)
(2.99974 0.000184328 0)
(2.99936 0.000488524 0)
(2.99861 0.000994463 0)
(2.99646 0.00275117 0)
(2.99244 0.00531585 0)
(2.97982 0.0162484 0)
(2.95495 0.0311674 0)
(2.87931 0.0989158 0)
(3 9.75637e-12 0)
(3 7.50309e-11 0)
(3 2.31617e-10 0)
(3 6.89263e-10 0)
(3 1.63044e-09 0)
(3 4.23005e-09 0)
(3 9.47042e-09 0)
(3 2.37869e-08 0)
(3 5.2549e-08 0)
(3 1.30882e-07 0)
(3 2.8815e-07 0)
(3 7.15967e-07 0)
(3 1.57464e-06 0)
(3 3.90956e-06 0)
(2.99999 8.59265e-06 0)
(2.99997 2.13351e-05 0)
(2.99993 4.68402e-05 0)
(2.99985 0.000116453 0)
(2.99964 0.000255259 0)
(2.99921 0.000638181 0)
(2.99802 0.00138999 0)
(2.99571 0.00356818 0)
(2.98893 0.00757516 0)
(2.97585 0.0205999 0)
(2.93653 0.0454743 0)
(3 5.10508e-12 0)
(3 4.66825e-11 0)
(3 1.33034e-10 0)
(3 4.22401e-10 0)
(3 9.401e-10 0)
(3 2.57765e-09 0)
(3 5.45662e-09 0)
(3 1.44455e-08 0)
(3 3.02248e-08 0)
(3 7.92626e-08 0)
(3 1.65402e-07 0)
(3 4.32426e-07 0)
(3 9.01964e-07 0)
(3 2.35466e-06 0)
(2.99999 4.91113e-06 0)
(2.99998 1.28099e-05 0)
(2.99996 2.67027e-05 0)
(2.99992 6.96532e-05 0)
(2.9998 0.000144906 0)
(2.99956 0.000378971 0)
(2.9989 0.000784626 0)
(2.99759 0.00207825 0)
(2.99393 0.00424202 0)
(2.98648 0.011695 0)
(2.96562 0.0238408 0)
(3 2.8577e-12 0)
(3 2.63564e-11 0)
(3 7.51425e-11 0)
(3 2.38644e-10 0)
(3 5.31717e-10 0)
(3 1.45661e-09 0)
(3 3.08633e-09 0)
(3 8.15913e-09 0)
(3 1.70865e-08 0)
(3 4.47362e-08 0)
(3 9.3447e-08 0)
(3 2.43897e-07 0)
(3 5.09349e-07 0)
(3 1.32744e-06 0)
(3 2.77297e-06 0)
(2.99999 7.22019e-06 0)
(2.99998 1.50826e-05 0)
(2.99995 3.92676e-05 0)
(2.9999 8.19479e-05 0)
(2.99974 0.00021377 0)
(2.99943 0.000445183 0)
(2.99859 0.00116958 0)
(2.99691 0.00242814 0)
(2.99225 0.00648246 0)
(2.98252 0.013711 0)
(3 2.36499e-12 0)
(3 1.28558e-11 0)
(3 4.74338e-11 0)
(3 1.21616e-10 0)
(3 3.28954e-10 0)
(3 7.49476e-10 0)
(3 1.897e-09 0)
(3 4.20435e-09 0)
(3 1.04631e-08 0)
(3 2.30262e-08 0)
(3 5.70363e-08 0)
(3 1.25279e-07 0)
(3 3.09853e-07 0)
(3 6.80121e-07 0)
(3 1.68116e-06 0)
(3 3.68785e-06 0)
(2.99999 9.11552e-06 0)
(2.99997 1.99747e-05 0)
(2.99994 4.94195e-05 0)
(2.99986 0.000108124 0)
(2.99969 0.000268417 0)
(2.99924 0.000585637 0)
(2.99835 0.0014652 0)
(2.99588 0.0032136 0)
(2.9911 0.00808802 0)
(3 1.51513e-12 0)
(3 7.02579e-12 0)
(3 2.80333e-11 0)
(3 6.75168e-11 0)
(3 1.92662e-10 0)
(3 4.16352e-10 0)
(3 1.10531e-09 0)
(3 2.32988e-09 0)
(3 6.06987e-09 0)
(3 1.27157e-08 0)
(3 3.29415e-08 0)
(3 6.89034e-08 0)
(3 1.781e-07 0)
(3 3.72395e-07 0)
(3 9.61171e-07 0)
(3 2.00937e-06 0)
(2.99999 5.17996e-06 0)
(2.99999 1.08233e-05 0)
(2.99997 2.7879e-05 0)
(2.99992 5.8168e-05 0)
(2.99983 0.000149902 0)
(2.99959 0.000311909 0)
(2.9991 0.000807751 0)
(2.99776 0.00166739 0)
(2.99518 0.00440888 0)
(3 7.99226e-13 0)
(3 3.81506e-12 0)
(3 1.5206e-11 0)
(3 3.66521e-11 0)
(3 1.04751e-10 0)
(3 2.2619e-10 0)
(3 6.00869e-10 0)
(3 1.26462e-09 0)
(3 3.29515e-09 0)
(3 6.89061e-09 0)
(3 1.78541e-08 0)
(3 3.72748e-08 0)
(3 9.63869e-08 0)
(3 2.01164e-07 0)
(3 5.19618e-07 0)
(3 1.08451e-06 0)
(3 2.79903e-06 0)
(2.99999 5.84221e-06 0)
(2.99998 1.50689e-05 0)
(2.99996 3.14385e-05 0)
(2.9999 8.11005e-05 0)
(2.99979 0.000168917 0)
(2.99948 0.000437026 0)
(2.99888 0.0009057 0)
(2.99719 0.00238058 0)
(3 2.72858e-13 0)
(3 2.36547e-12 0)
(3 7.31589e-12 0)
(3 2.17847e-11 0)
(3 5.14647e-11 0)
(3 1.32721e-10 0)
(3 2.96424e-10 0)
(3 7.37798e-10 0)
(3 1.62396e-09 0)
(3 4.00344e-09 0)
(3 8.7763e-09 0)
(3 2.1571e-08 0)
(3 4.72282e-08 0)
(3 1.1595e-07 0)
(3 2.53754e-07 0)
(3 6.22585e-07 0)
(3 1.36226e-06 0)
(3 3.34042e-06 0)
(2.99999 7.30748e-06 0)
(2.99998 1.79101e-05 0)
(2.99995 3.9157e-05 0)
(2.99988 9.59754e-05 0)
(2.99971 0.000209559 0)
(2.99938 0.000515171 0)
(2.99846 0.00111944 0)
(3 1.26053e-13 0)
(3 1.34296e-12 0)
(3 3.78448e-12 0)
(3 1.2136e-11 0)
(3 2.67942e-11 0)
(3 7.34182e-11 0)
(3 1.53533e-10 0)
(3 4.05454e-10 0)
(3 8.35616e-10 0)
(3 2.18604e-09 0)
(3 4.48224e-09 0)
(3 1.17001e-08 0)
(3 2.3922e-08 0)
(3 6.24402e-08 0)
(3 1.27369e-07 0)
(3 3.3268e-07 0)
(3 6.7685e-07 0)
(3 1.76978e-06 0)
(2.99999 3.58779e-06 0)
(2.99999 9.39484e-06 0)
(2.99997 1.89452e-05 0)
(2.99993 4.97303e-05 0)
(2.99983 9.95565e-05 0)
(2.99964 0.00026278 0)
(2.9991 0.00052071 0)
(3 7.26124e-14 0)
(3 6.18049e-13 0)
(3 1.91266e-12 0)
(3 5.63864e-12 0)
(3 1.3339e-11 0)
(3 3.41276e-11 0)
(3 7.60968e-11 0)
(3 1.87189e-10 0)
(3 4.10586e-10 0)
(3 9.9767e-10 0)
(3 2.17636e-09 0)
(3 5.25943e-09 0)
(3 1.14472e-08 0)
(3 2.75569e-08 0)
(3 5.98847e-08 0)
(3 1.43604e-07 0)
(3 3.11569e-07 0)
(3 7.43846e-07 0)
(3 1.6106e-06 0)
(2.99999 3.82539e-06 0)
(2.99998 8.25988e-06 0)
(2.99995 1.95044e-05 0)
(2.99989 4.19651e-05 0)
(2.99973 9.84503e-05 0)
(2.99941 0.000211143 0)
(3 9.06521e-14 0)
(3 2.09147e-13 0)
(3 1.03066e-12 0)
(3 2.03518e-12 0)
(3 6.65807e-12 0)
(3 1.21599e-11 0)
(3 3.73008e-11 0)
(3 6.57229e-11 0)
(3 1.99352e-10 0)
(3 3.42421e-10 0)
(3 1.04682e-09 0)
(3 1.75253e-09 0)
(3 5.44482e-09 0)
(3 8.8383e-09 0)
(3 2.80806e-08 0)
(3 4.38052e-08 0)
(3 1.43511e-07 0)
(3 2.12437e-07 0)
(3 7.2682e-07 0)
(2.99999 1.00394e-06 0)
(2.99998 3.65168e-06 0)
(2.99996 4.59824e-06 0)
(2.9999 1.82033e-05 0)
(2.99978 2.00007e-05 0)
(2.99943 8.99795e-05 0)
(3 4.33281e-14 0)
(3 8.85227e-14 0)
(3 2.58258e-13 0)
(3 7.15972e-13 0)
(3 1.64256e-12 0)
(3 4.06396e-12 0)
(3 8.9443e-12 0)
(3 2.16416e-11 0)
(3 4.69428e-11 0)
(3 1.12124e-10 0)
(3 2.42408e-10 0)
(3 5.74982e-10 0)
(3 1.23886e-09 0)
(3 2.91701e-09 0)
(3 6.26474e-09 0)
(3 1.46323e-08 0)
(3 3.13012e-08 0)
(3 7.24848e-08 0)
(3 1.5435e-07 0)
(2.99999 3.54204e-07 0)
(2.99998 7.50305e-07 0)
(2.99996 1.70188e-06 0)
(2.99991 3.57407e-06 0)
(2.99979 7.96894e-06 0)
(2.99945 1.64327e-05 0)
(1.27897 1.08546 0)
(1.71695 0.890276 0)
(1.92396 0.625914 0)
(1.96125 0.356691 0)
(1.91183 0.133813 0)
(1.8105 -0.014358 0)
(1.70406 -0.0540813 0)
(1.64716 -0.0228359 0)
(1.63554 0.0203877 0)
(1.63724 0.0423603 0)
(1.63834 0.0399076 0)
(1.63671 0.0281785 0)
(1.63299 0.0174261 0)
(1.62681 0.00982902 0)
(1.61965 0.00835465 0)
(1.61516 0.0108555 0)
(1.6135 0.0142471 0)
(1.61283 0.0159177 0)
(1.61197 0.0156028 0)
(1.61033 0.0144563 0)
(1.60675 0.0133241 0)
(1.59879 0.0126473 0)
(1.58123 0.0132661 0)
(1.54261 0.0166913 0)
(1.45755 0.0257546 0)
(1.26879 0.0462825 0)
(0.868848 0.0913028 0)
(0.362518 0.172458 0)
(0.00903648 0.196687 0)
(-0.200403 0.129076 0)
(-0.4042 0.0667341 0)
(-0.583557 0.0173239 0)
(-0.712426 -0.0122883 0)
(-0.774628 -0.0213276 0)
(-0.796465 -0.0135341 0)
(-0.790285 -0.00163916 0)
(-0.757997 0.00226304 0)
(-0.701317 -0.00536702 0)
(-0.614847 -0.0237614 0)
(-0.505025 -0.0404466 0)
(-0.386956 -0.0515046 0)
(-0.270785 -0.0570056 0)
(-0.160253 -0.0592455 0)
(-0.0625238 -0.0634785 0)
(0.0457524 -0.0570911 0)
(0.131711 -0.0486423 0)
(0.209991 -0.043541 0)
(0.280763 -0.0395496 0)
(0.345456 -0.0360585 0)
(0.402344 -0.0323581 0)
(0.455947 -0.029913 0)
(0.510575 -0.0293119 0)
(0.563651 -0.0282461 0)
(0.613027 -0.026435 0)
(0.659426 -0.0247249 0)
(0.703422 -0.0232671 0)
(0.745488 -0.0220368 0)
(0.785808 -0.0208942 0)
(0.824647 -0.019838 0)
(0.862134 -0.0188077 0)
(0.898485 -0.0178445 0)
(0.933777 -0.0169157 0)
(0.968149 -0.0160513 0)
(1.00163 -0.0152232 0)
(1.03431 -0.0144504 0)
(1.0662 -0.0137096 0)
(1.09735 -0.0130165 0)
(1.12779 -0.0123521 0)
(1.15757 -0.0117307 0)
(1.18669 -0.0111325 0)
(1.2152 -0.0105701 0)
(1.24312 -0.0100209 0)
(1.27049 -0.00949747 0)
(1.29733 -0.00897675 0)
(1.32367 -0.00847505 0)
(1.34954 -0.00797149 0)
(1.37497 -0.00748738 0)
(1.39996 -0.00700351 0)
(1.42454 -0.00654398 0)
(1.44871 -0.00608875 0)
(1.47248 -0.00566069 0)
(1.49585 -0.00523821 0)
(1.51883 -0.00483968 0)
(1.54142 -0.00444275 0)
(1.56363 -0.00406138 0)
(1.58547 -0.00367293 0)
(1.60695 -0.00329628 0)
(1.62808 -0.00293012 0)
(1.64887 -0.00258495 0)
(1.66932 -0.00225527 0)
(1.68943 -0.0019635 0)
(1.7092 -0.00170125 0)
(1.72863 -0.00148753 0)
(1.74765 -0.00128746 0)
(1.76623 -0.00104937 0)
(1.78425 -0.000746825 0)
(1.80138 -0.000383591 0)
(1.81703 7.46857e-05 0)
(1.82943 0.00075058 0)
(1.83853 0.00151972 0)
(1.36279 1.00177 0)
(1.68639 0.727888 0)
(1.87026 0.419373 0)
(1.9609 0.15054 0)
(2.0101 -0.0421945 0)
(2.03686 -0.14628 0)
(2.04483 -0.157559 0)
(2.0426 -0.120715 0)
(2.02883 -0.0747327 0)
(2.00595 -0.0379104 0)
(1.98712 -0.01741 0)