/*--------------------------------*- C++ -*----------------------------------*\
| =========                 |                                                 |
| \\      /  F ield         | OpenFOAM: The Open Source CFD Toolbox           |
|  \\    /   O peration     | Version:  2112                                  |
|   \\  /    A nd           | Website:  www.openfoam.com                      |
|    \\/     M anipulation  |                                                 |
\*---------------------------------------------------------------------------*/
FoamFile
{
    version     2.0;
    format      ascii;
    arch        "LSB;label=32;scalar=64";
    class       volScalarField;
    location    "13.5";
    object      p;
}
// * * * * * * * * * * * * * * * * * * * * * * * * * * * * * * * * * * * * * //

dimensions      [0 2 -2 0 0 0 0];

internalField   nonuniform List<scalar> 
8800
(
0.408717
0.36096
0.322334
0.293399
0.272604
0.257861
0.247364
0.239963
0.235171
0.233029
0.234079
0.237974
0.244322
0.253367
0.265925
0.283495
0.30815
0.341997
0.384448
0.443145
0.239894
0.247579
0.255155
0.25851
0.257072
0.252098
0.245728
0.239751
0.235091
0.232222
0.231789
0.234006
0.23818
0.243827
0.250334
0.25639
0.25987
0.259045
0.253492
0.244719
0.218122
0.224327
0.228568
0.231661
0.233857
0.234595
0.233623
0.231643
0.229673
0.228657
0.229381
0.231427
0.233863
0.235708
0.236034
0.234588
0.232011
0.228427
0.223756
0.219978
0.212148
0.21486
0.217811
0.220451
0.222307
0.223659
0.224554
0.22477
0.224485
0.224319
0.224798
0.225617
0.226092
0.225789
0.224829
0.223401
0.221252
0.218375
0.215782
0.214273
0.206622
0.208082
0.210158
0.212544
0.214653
0.21626
0.217436
0.218352
0.219032
0.219515
0.219823
0.21985
0.219495
0.21878
0.217642
0.215933
0.21376
0.211473
0.209919
0.209122
0.201637
0.202571
0.204266
0.206409
0.208601
0.210655
0.212335
0.213552
0.214427
0.21506
0.215435
0.215406
0.214906
0.213849
0.212217
0.210257
0.208203
0.206266
0.20512
0.204641
0.197466
0.198012
0.199479
0.20143
0.203315
0.205059
0.206736
0.208288
0.209558
0.21048
0.210862
0.210642
0.209879
0.208726
0.207363
0.205781
0.203967
0.202243
0.201353
0.201128
0.195167
0.195461
0.196472
0.197948
0.199478
0.201001
0.202468
0.20383
0.205078
0.206101
0.206626
0.206559
0.206064
0.205229
0.204132
0.202886
0.201553
0.200362
0.199804
0.199704
0.193578
0.19375
0.194299
0.195156
0.19622
0.197445
0.198756
0.200147
0.201495
0.202666
0.203357
0.203448
0.203086
0.202476
0.20166
0.200842
0.200148
0.199568
0.199288
0.199226
0.191335
0.191444
0.191764
0.192297
0.192928
0.193744
0.194834
0.196056
0.197375
0.198667
0.199587
0.199973
0.199968
0.199695
0.199454
0.199208
0.198877
0.198614
0.198471
0.198423
0.188289
0.188358
0.188621
0.189097
0.189714
0.190447
0.191494
0.192743
0.194157
0.195643
0.196846
0.197531
0.1978
0.197821
0.197751
0.197621
0.197445
0.197276
0.1972
0.197173
0.184782
0.184817
0.185038
0.185491
0.186079
0.186851
0.187851
0.189107
0.190635
0.192373
0.193935
0.194992
0.195606
0.195907
0.19613
0.196163
0.196066
0.19597
0.195945
0.195931
0.181015
0.181039
0.181233
0.181663
0.182279
0.183114
0.184163
0.185544
0.187288
0.189372
0.191376
0.19286
0.19385
0.194481
0.194797
0.194961
0.194987
0.194984
0.194999
0.19499
0.176894
0.176922
0.177102
0.177505
0.178127
0.178997
0.180187
0.18178
0.183849
0.186408
0.188961
0.190928
0.192299
0.193216
0.193788
0.194122
0.194294
0.194387
0.194432
0.194421
0.172246
0.172272
0.172471
0.172884
0.173549
0.174525
0.175907
0.177805
0.180323
0.183495
0.186726
0.189281
0.191091
0.192342
0.193167
0.193687
0.194001
0.194179
0.19425
0.194237
0.166918
0.166945
0.167182
0.167652
0.168416
0.169569
0.171229
0.173546
0.176655
0.180614
0.184681
0.187923
0.190298
0.191927
0.193025
0.19374
0.194189
0.194445
0.194542
0.194526
0.160743
0.160776
0.161056
0.161636
0.162574
0.163986
0.166031
0.168905
0.172786
0.17775
0.182879
0.186998
0.189977
0.19206
0.193471
0.1944
0.194988
0.195322
0.195448
0.195429
0.153512
0.153552
0.153906
0.154637
0.155826
0.157589
0.160156
0.163775
0.168657
0.174894
0.18133
0.186492
0.190236
0.192858
0.194641
0.195817
0.196562
0.196984
0.197141
0.197118
0.14494
0.144992
0.145452
0.146386
0.147903
0.150157
0.153436
0.158028
0.164194
0.17204
0.180098
0.186539
0.191207
0.194477
0.196705
0.198177
0.19911
0.199639
0.19983
0.199799
0.134647
0.13472
0.135317
0.136529
0.138494
0.141425
0.145636
0.151497
0.159325
0.169198
0.179258
0.187257
0.193043
0.197096
0.199862
0.201694
0.202853
0.203502
0.203744
0.203703
0.12209
0.122194
0.12298
0.124587
0.127178
0.131
0.136467
0.144027
0.153999
0.166409
0.178914
0.188796
0.195928
0.200926
0.204345
0.206618
0.208057
0.208863
0.209154
0.209101
0.106481
0.106626
0.107689
0.109875
0.113359
0.118448
0.125663
0.135481
0.148196
0.163749
0.179204
0.19133
0.20007
0.206207
0.21042
0.213239
0.215035
0.216026
0.216384
0.216316
0.0866311
0.0868351
0.0883397
0.0914248
0.0962554
0.103206
0.112865
0.125699
0.141927
0.16133
0.180285
0.195042
0.20568
0.213186
0.218373
0.221872
0.224125
0.225373
0.225804
0.225716
0.0607278
0.061051
0.0633078
0.0678694
0.0748219
0.0845701
0.0977098
0.114606
0.135283
0.159309
0.18232
0.200094
0.212936
0.222076
0.228473
0.232851
0.235708
0.237305
0.237852
0.237733
0.025639
0.0262343
0.0300107
0.0373466
0.0478933
0.0620088
0.0801355
0.102383
0.128523
0.157925
0.185487
0.206613
0.221942
0.233001
0.240901
0.246448
0.250158
0.252249
0.252946
0.252783
-0.0248307
-0.0230051
-0.0152677
-0.00220468
0.0146548
0.0355243
0.060527
0.0895188
0.122086
0.157483
0.189943
0.214645
0.232676
0.245907
0.255626
0.262711
0.267671
0.270623
0.271608
0.271379
-0.100638
-0.0907915
-0.0730863
-0.0497865
-0.0234183
0.00641577
0.0398104
0.0765788
0.116294
0.158253
0.196081
0.224805
0.246016
0.261956
0.274117
0.283525
0.290669
0.295351
0.297196
0.297311
-0.181415
-0.159535
-0.131281
-0.0976917
-0.0616453
-0.0227609
0.0190692
0.0637608
0.111002
0.160236
0.204453
0.23827
0.263659
0.283226
0.298676
0.311119
0.321095
0.329242
0.332944
0.333221
-0.244502
-0.220329
-0.183822
-0.142053
-0.097522
-0.0503081
-0.000498339
0.0517716
0.106203
0.162278
0.212294
0.250491
0.279257
0.301558
0.319263
0.333565
0.345037
0.35411
0.357472
0.358019
-0.295479
-0.269187
-0.22804
-0.18041
-0.129394
-0.0754256
-0.0187422
0.040325
0.101319
0.163619
0.218744
0.26051
0.291693
0.315614
0.334368
0.349361
0.361302
0.370247
0.373968
0.374508
-0.336717
-0.309787
-0.265238
-0.213241
-0.157216
-0.0978027
-0.0353897
0.0295189
0.0963146
0.164165
0.223696
0.26833
0.301261
0.326212
0.34553
0.360758
0.372737
0.381515
0.385463
0.386012
-0.371695
-0.344421
-0.297482
-0.241995
-0.181918
-0.118
-0.0507157
0.0193062
0.0912644
0.164126
0.227691
0.274894
0.309304
0.33503
0.354657
0.369891
0.38175
0.390326
0.394366
0.394909
-0.40234
-0.374972
-0.326207
-0.267881
-0.204384
-0.136576
-0.0650465
0.00951118
0.0861832
0.163722
0.231035
0.280582
0.316309
0.342692
0.362579
0.377838
0.389609
0.398002
0.402048
0.402601
-0.430105
-0.402644
-0.352418
-0.291697
-0.225312
-0.154158
-0.078861
-0.000198002
0.0807991
0.162691
0.233625
0.285548
0.322656
0.349776
0.369994
0.385341
0.397061
0.405297
0.409294
0.409872
-0.455811
-0.428255
-0.376797
-0.314063
-0.245187
-0.171109
-0.0924838
-0.0101379
0.0748692
0.161012
0.235636
0.290065
0.32869
0.356663
0.377307
0.392817
0.40454
0.412677
0.416563
0.417212
-0.480189
-0.452456
-0.399895
-0.335387
-0.26433
-0.187686
-0.106109
-0.0203901
0.0684011
0.158679
0.237055
0.294178
0.334538
0.363546
0.384754
0.400524
0.412313
0.420379
0.424139
0.424801
-0.503466
-0.475486
-0.421968
-0.355991
-0.282994
-0.204074
-0.119834
-0.0310404
0.0612671
0.155542
0.237794
0.297874
0.340258
0.370542
0.392492
0.408644
0.420576
0.428607
0.432221
0.432847
-0.525971
-0.497667
-0.443324
-0.376017
-0.301303
-0.220378
-0.133777
-0.0422163
0.0533577
0.151522
0.237749
0.301078
0.345821
0.377679
0.400588
0.417268
0.429432
0.437485
0.440945
0.441473
-0.547748
-0.519136
-0.464151
-0.395547
-0.319351
-0.23668
-0.147993
-0.0539363
0.0446535
0.146542
0.236798
0.303655
0.35111
0.384886
0.409031
0.426436
0.438951
0.447067
0.450408
0.450773
-0.56888
-0.539899
-0.484363
-0.414636
-0.337158
-0.252958
-0.162446
-0.0661873
0.0351268
0.140515
0.234795
0.305421
0.355958
0.392047
0.417765
0.436136
0.449151
0.457378
0.460612
0.460784
-0.589427
-0.560148
-0.503958
-0.433284
-0.354705
-0.269178
-0.177098
-0.0789292
0.0248009
0.133414
0.231608
0.306159
0.360183
0.399047
0.426728
0.446318
0.459973
0.468328
0.47144
0.471427
-0.609441
-0.579767
-0.522978
-0.451477
-0.371944
-0.285305
-0.191895
-0.0920987
0.0137262
0.125218
0.227126
0.305644
0.363486
0.405638
0.435778
0.456929
0.471353
0.479826
0.482695
0.482523
-0.628751
-0.598706
-0.54138
-0.469176
-0.388832
-0.301257
-0.206755
-0.105605
0.00197862
0.115969
0.221261
0.303662
0.365488
0.411436
0.44471
0.467933
0.48326
0.491715
0.494237
0.493882
-0.647345
-0.616962
-0.559143
-0.486324
-0.405305
-0.316969
-0.22158
-0.119353
-0.0103405
0.105731
0.213979
0.300029
0.365852
0.415991
0.45322
0.479378
0.495894
0.503906
0.505697
0.505151
-0.665264
-0.634473
-0.576242
-0.50289
-0.421304
-0.332364
-0.236283
-0.13323
-0.0231147
0.0946002
0.205302
0.294608
0.364237
0.418694
0.460712
0.49122
0.509936
0.516897
0.516726
0.515887
-0.682379
-0.651257
-0.59263
-0.518816
-0.436778
-0.347365
-0.250772
-0.147122
-0.0362107
0.0827168
0.195297
0.287335
0.360362
0.41882
0.466084
0.502789
0.526386
0.5333
0.528695
0.52616
-0.698782
-0.667311
-0.608335
-0.534128
-0.451762
-0.36202
-0.265103
-0.161087
-0.0496913
0.0700197
0.183866
0.277986
0.353914
0.41555
0.467622
0.511989
0.544527
0.558546
0.551638
0.52898
-0.714425
-0.682644
-0.62347
-0.548996
-0.466522
-0.376631
-0.279659
-0.175581
-0.0640815
0.0558546
0.170301
0.265662
0.34401
0.407695
0.462049
0.513005
0.553401
0.568719
0.554628
0.527519
-0.729185
-0.697452
-0.637877
-0.563168
-0.48079
-0.390874
-0.294221
-0.190279
-0.0790514
0.0405628
0.154843
0.250305
0.33027
0.394983
0.445392
0.495384
0.530278
0.533819
0.465974
0.421487
-0.742484
-0.712537
-0.651168
-0.576094
-0.493922
-0.404318
-0.308518
-0.204971
-0.0943815
0.0243231
0.137558
0.231922
0.312104
0.378304
0.41928
0.448012
0.468066
0.427253
0.35063
0.300109
-0.794605
-0.724682
-0.663131
-0.589291
-0.507269
-0.418264
-0.322623
-0.219894
-0.110362
0.00681463
0.118063
0.210249
0.287584
0.358709
0.372276
0.376783
0.349162
0.282496
0.194843
0.145997
-0.752344
-0.738393
-0.679852
-0.607987
-0.526243
-0.437959
-0.34371
-0.242347
-0.134799
-0.0206301
0.08607
0.173084
0.242146
0.300627
0.30642
0.183716
0.0654079
-0.0158047
-0.101014
-0.054349
-0.77935
-0.752322
-0.694365
-0.622163
-0.541138
-0.453418
-0.35934
-0.259064
-0.153154
-0.0416377
0.0609612
0.142376
0.203953
0.233548
0.177375
0.00617615
-0.150926
-0.261131
-0.381099
-0.306424
-0.799417
-0.768828
-0.710775
-0.638174
-0.557462
-0.470142
-0.376576
-0.277566
-0.173584
-0.0652437
0.0325597
0.107199
0.158311
0.159862
0.0359348
-0.19253
-0.389791
-0.539866
-0.714648
-0.644477
-0.81828
-0.786438
-0.727427
-0.654306
-0.573687
-0.486766
-0.394071
-0.296428
-0.194553
-0.0897102
0.00262218
0.069871
0.106598
0.069423
-0.129463
-0.396229
-0.652573
-0.881031
-1.13746
-1.11712
-0.835751
-0.803929
-0.744486
-0.670886
-0.590366
-0.503914
-0.412178
-0.315995
-0.216419
-0.115317
-0.0288793
0.0305366
0.050823
-0.0338468
-0.289758
-0.586056
-0.895617
-1.17623
-1.51671
-1.89121
-0.852937
-0.821474
-0.761979
-0.688228
-0.607818
-0.521819
-0.430982
-0.336276
-0.239013
-0.14174
-0.0613169
-0.0101923
-0.00828058
-0.142861
-0.433412
-0.736173
-1.05133
-1.31875
-1.43405
-1.61418
-0.870422
-0.83942
-0.780095
-0.706512
-0.626332
-0.540891
-0.451058
-0.357972
-0.263264
-0.170216
-0.0963045
-0.0544655
-0.0734455
-0.272257
-0.561916
-0.845424
-1.10887
-1.27793
-1.31065
-1.34227
-0.888507
-0.857917
-0.799
-0.725671
-0.645893
-0.561162
-0.472548
-0.381337
-0.289563
-0.201265
-0.134344
-0.102372
-0.151392
-0.396089
-0.680582
-0.93314
-1.14602
-1.2455
-1.26745
-1.2682
-0.907322
-0.877066
-0.818466
-0.745577
-0.666314
-0.582488
-0.495295
-0.406251
-0.317725
-0.234626
-0.174934
-0.154437
-0.234183
-0.511702
-0.800457
-1.02313
-1.17817
-1.23491
-1.23237
-1.23137
-0.926659
-0.896738
-0.838431
-0.766071
-0.687432
-0.604666
-0.519114
-0.432504
-0.347462
-0.269957
-0.217846
-0.21007
-0.323114
-0.621345
-0.923221
-1.12703
-1.14702
-1.1944
-1.21994
-1.22489
-0.946227
-0.916646
-0.85875
-0.786858
-0.708957
-0.627412
-0.543731
-0.459755
-0.378501
-0.306816
-0.262866
-0.265846
-0.420163
-0.723941
-1.04498
-1.29822
-1.28809
-1.26527
-1.25996
-1.25876
-0.965355
-0.936132
-0.878947
-0.807569
-0.730505
-0.650293
-0.56871
-0.487582
-0.410366
-0.344421
-0.309254
-0.320945
-0.520114
-0.821883
-1.1371
-1.54427
-1.51646
-1.35677
-1.29356
-1.27885
-0.983491
-0.954825
-0.898401
-0.827605
-0.751507
-0.67283
-0.593439
-0.515442
-0.442404
-0.381792
-0.355265
-0.376153
-0.615206
-0.897691
-1.03326
-1.29976
-1.30186
-1.28483
-1.26847
-1.25651
-0.999979
-0.971985
-0.916283
-0.846187
-0.771117
-0.694164
-0.617315
-0.542463
-0.473622
-0.418135
-0.399308
-0.428882
-0.717643
-0.958685
-0.813391
-0.496345
-0.842791
-1.2521
-1.41856
-1.41881
-1.01361
-0.986535
-0.931703
-0.862255
-0.788358
-0.713297
-0.639045
-0.567849
-0.502981
-0.4522
-0.437534
-0.473112
-0.862177
-1.2901
-1.43652
-1.43514
-1.58385
-1.76549
-1.82632
-1.85338
-1.02313
-0.997236
-0.943384
-0.874615
-0.80197
-0.728963
-0.657737
-0.590356
-0.529193
-0.481534
-0.468624
-0.515542
-1.06927
-1.93349
-3.06127
-3.68035
-3.87957
-3.50659
-2.98402
-2.76607
-1.02709
-1.00259
-0.949832
-0.881777
-0.81052
-0.739889
-0.67219
-0.609021
-0.551519
-0.504696
-0.489407
-0.546341
-1.13942
-2.25819
-3.87504
-4.84776
-4.92805
-4.45508
-3.90175
-3.54795
-1.02354
-1.00065
-0.949159
-0.881969
-0.812399
-0.744589
-0.680909
-0.623141
-0.570838
-0.521012
-0.489259
-0.522711
-0.872596
-1.53318
-2.20211
-2.58451
-2.45059
-2.08019
-1.74711
-1.54359
-1.01016
-0.98888
-0.939064
-0.873315
-0.805938
-0.741541
-0.683117
-0.632774
-0.588842
-0.537605
-0.479651
-0.433131
-0.390044
-0.259668
0.0319217
0.413089
0.827105
1.12154
1.25885
1.30634
-0.985053
-0.965494
-0.917668
-0.854246
-0.789769
-0.729889
-0.678676
-0.640057
-0.614272
-0.572447
-0.4782
-0.326617
-0.0852814
0.398586
1.04405
1.66269
2.13002
2.40489
2.50738
2.53049
-0.946486
-0.928705
-0.883441
-0.823581
-0.763251
-0.709158
-0.667404
-0.646794
-0.656941
-0.679745
-0.611311
-0.343395
-0.0173965
0.510093
1.16466
1.72992
2.13675
2.37712
2.47509
2.5007
-0.892817
-0.876479
-0.835787
-0.781065
-0.726385
-0.67937
-0.649635
-0.656048
-0.736789
-0.948632
-1.06771
-0.68218
-0.162354
0.342874
0.946498
1.43014
1.7711
1.96904
2.05166
2.07507
-0.824341
-0.810183
-0.775019
-0.726849
-0.679082
-0.639667
-0.622428
-0.661262
-0.85575
-1.4137
-1.92523
-1.34666
-0.546823
0.038837
0.606238
1.0433
1.3355
1.48654
1.55846
1.56665
-0.74172
-0.729352
-0.70055
-0.660507
-0.619776
-0.586486
-0.576142
-0.630744
-0.877977
-1.58193
-2.32589
-1.69435
-0.881086
-0.205785
0.331196
0.69151
0.903743
1.0117
1.05943
1.0661
-0.647512
-0.638876
-0.614302
-0.580853
-0.545757
-0.515073
-0.500922
-0.535768
-0.706181
-1.15833
-1.50174
-1.10694
-0.550196
-0.0607524
0.269742
0.467206
0.581391
0.647189
0.681851
0.688894
-0.531871
-0.527218
-0.510221
-0.484746
-0.455848
-0.427465
-0.406405
-0.409665
-0.477373
-0.656376
-0.737099
-0.475802
-0.139934
0.127395
0.288334
0.382681
0.440022
0.476748
0.496886
0.501573
-0.416571
-0.414459
-0.402196
-0.383255
-0.360422
-0.335126
-0.310219
-0.292271
-0.293854
-0.317441
-0.283035
-0.103679
0.0618891
0.194212
0.273775
0.320555
0.349512
0.366816
0.374646
0.376024
-0.311511
-0.30998
-0.301884
-0.287633
-0.269668
-0.248141
-0.223213
-0.196044
-0.167609
-0.130887
-0.0562172
0.0667528
0.150378
0.212404
0.251813
0.274861
0.288304
0.295618
0.298522
0.298311
-0.216466
-0.215954
-0.210974
-0.201423
-0.188483
-0.171537
-0.149659
-0.121769
-0.0855746
-0.0343689
0.0376482
0.119075
0.171901
0.206266
0.227743
0.239573
0.245395
0.24765
0.247986
0.247317
-0.133833
-0.134048
-0.132195
-0.127423
-0.119527
-0.107619
-0.0904383
-0.0662574
-0.0323729
0.0156027
0.0746423
0.130014
0.166705
0.189153
0.202214
0.208631
0.210906
0.211116
0.210654
0.209948
-0.0676893
-0.0683079
-0.0688762
-0.0680899
-0.0646568
-0.0573768
-0.045027
-0.0259518
0.00210182
0.0417273
0.0873266
0.126219
0.152375
0.168108
0.17666
0.180405
0.181236
0.180742
0.180107
0.179504
-0.0200517
-0.02079
-0.0224888
-0.0238466
-0.0232952
-0.019657
-0.011576
0.00245334
0.0240807
0.0547869
0.0890619
0.11705
0.135917
0.147157
0.15309
0.155443
0.155609
0.154908
0.154295
0.153808
0.0114037
0.0107419
0.00884888
0.0067934
0.00604649
0.00757552
0.0125179
0.0222744
0.0382158
0.0612653
0.0866683
0.106903
0.120532
0.128602
0.132623
0.133972
0.133768
0.132981
0.132409
0.132026
0.0307016
0.0301919
0.0285754
0.026563
0.0253946
0.0259334
0.0290501
0.0357403
0.047124
0.0639444
0.0825553
0.0972515
0.106965
0.112524
0.115164
0.11588
0.115438
0.114614
0.11409
0.113794
0.0417437
0.0413806
0.0401689
0.0385361
0.0373834
0.03736
0.039254
0.0438968
0.0520522
0.0641958
0.0775929
0.0880421
0.09488
0.0987737
0.100502
0.100776
0.100217
0.0994269
0.0989656
0.0987423
0.0475593
0.0473051
0.0464547
0.0452424
0.0443145
0.044125
0.0452105
0.0482394
0.0539094
0.0625794
0.072208
0.0797348
0.0845829
0.0872047
0.0882377
0.0882453
0.0876632
0.0869526
0.086565
0.086397
0.0501731
0.0499882
0.0493818
0.0484836
0.0477495
0.0475211
0.0482057
0.0502607
0.0541735
0.0602675
0.0670896
0.0723524
0.0756529
0.0773755
0.0779705
0.0778255
0.0772684
0.0766585
0.0763433
0.0762162
0.050698
0.050557
0.0500912
0.0493824
0.0487665
0.0484837
0.0488278
0.0501619
0.0528521
0.0570956
0.0618531
0.0655195
0.067789
0.0689128
0.06922
0.0690083
0.0685179
0.0680195
0.0677705
0.0676733
0.0497146
0.0496061
0.0492372
0.0486627
0.0481411
0.0478488
0.0479911
0.0488174
0.050603
0.0535183
0.0568225
0.0593395
0.0608457
0.0615366
0.0616575
0.0614202
0.0609986
0.0605942
0.060397
0.060322
0.0476058
0.0475225
0.0472283
0.0467563
0.0463081
0.0460142
0.046024
0.0465189
0.0476901
0.0496506
0.0518849
0.0535725
0.0545521
0.0549591
0.0549676
0.0547306
0.0543737
0.0540469
0.0538907
0.0538328
0.0446656
0.0446014
0.0443705
0.0439886
0.0436109
0.0433332
0.0432608
0.0435218
0.0442579
0.0455527
0.0470453
0.0481565
0.0487706
0.0489851
0.0489255
0.0487007
0.0484003
0.0481363
0.0480129
0.0479683
0.0411384
0.0410885
0.0409103
0.0406085
0.040299
0.0400516
0.0399401
0.0400562
0.0404987
0.0413267
0.0422943
0.0430007
0.0433644
0.0434539
0.0433576
0.0431522
0.0429016
0.0426894
0.0425921
0.0425578
0.0372155
0.0371762
0.0370396
0.0368046
0.0365555
0.036342
0.0362154
0.03624
0.0364868
0.0369973
0.037605
0.0380355
0.0382329
0.0382451
0.0381337
0.0379522
0.0377461
0.037577
0.0375002
0.0374735
0.0330329
0.0330019
0.032897
0.0327155
0.0325176
0.0323383
0.0322125
0.0321851
0.0323057
0.0326029
0.0329664
0.0332122
0.0333028
0.0332697
0.0331564
0.0330001
0.0328324
0.0326982
0.0326376
0.0326169
0.0286818
0.0286573
0.0285766
0.0284369
0.0282807
0.0281326
0.028016
0.0279617
0.0280038
0.0281622
0.0283656
0.0284922
0.0285162
0.0284597
0.0283525
0.0282203
0.0280851
0.0279791
0.0279314
0.0279153
0.0242221
0.0242029
0.0241407
0.0240327
0.0239097
0.0237888
0.0236857
0.0236212
0.0236186
0.0236909
0.0237923
0.0238445
0.0238308
0.0237657
0.0236697
0.0235602
0.023452
0.0233687
0.0233314
0.023319
0.0196909
0.0196762
0.0196282
0.0195449
0.0194488
0.0193519
0.0192647
0.0192009
0.019176
0.0191982
0.0192391
0.0192492
0.0192177
0.0191543
0.0190723
0.0189833
0.0188974
0.0188323
0.0188035
0.0187942
0.0151099
0.0150988
0.0150623
0.0149989
0.0149256
0.014851
0.0147815
0.014726
0.0146944
0.0146921
0.0147017
0.0146923
0.0146569
0.0146015
0.0145349
0.0144647
0.0143979
0.0143475
0.0143256
0.0143187
0.0104932
0.0104852
0.0104583
0.0104122
0.0103595
0.010306
0.0102558
0.0102142
0.0101867
0.0101766
0.0101734
0.0101589
0.0101289
0.0100869
0.0100381
0.00998698
0.00993804
0.00990075
0.00988459
0.00987968
0.00584762
0.00584222
0.00582504
0.00579632
0.0057646
0.00573336
0.00570442
0.00568035
0.00566383
0.00565619
0.00565201
0.00564135
0.00562239
0.00559727
0.00556854
0.00553805
0.00550797
0.00548446
0.00547397
0.00547048
0.00118006
0.00118012
0.0011811
0.00117559
0.00116706
0.00115903
0.00115164
0.00114492
0.00113902
0.001134
0.00112986
0.00112589
0.00112093
0.00111499
0.00110826
0.00110082
0.00109269
0.00108512
0.00108295
0.00108394
-0.820841
-0.577493
-0.30684
-0.0858403
0.0937384
0.238975
0.362292
0.466601
0.515297
0.492784
-0.38636
-0.222396
-0.0522019
0.0943783
0.219011
0.323749
0.40931
0.470784
0.502965
0.513944
-0.0923955
0.0156891
0.129153
0.23014
0.317389
0.390706
0.449068
0.491718
0.521401
0.538255
0.11129
0.185274
0.26469
0.336376
0.398744
0.451539
0.494565
0.528306
0.554656
0.572238
0.264113
0.317368
0.373554
0.426673
0.473454
0.513962
0.548174
0.576118
0.598689
0.616099
0.385619
0.424633
0.468731
0.51039
0.548152
0.581618
0.610512
0.634426
0.653702
0.670847
0.488349
0.520527
0.558747
0.594549
0.627726
0.657567
0.683424
0.70468
0.721145
0.738166
0.58325
0.614614
0.651249
0.68558
0.717166
0.745422
0.769629
0.789106
0.803151
0.820212
0.682432
0.716971
0.755206
0.790184
0.821462
0.848703
0.871516
0.889438
0.901786
0.919243
0.799805
0.838427
0.878015
0.913124
0.943237
0.968648
0.989563
1.00588
1.01768
1.03582
0.9462
0.985219
1.02191
1.05312
1.07927
1.10178
1.12117
1.13698
1.14963
1.16768
1.12208
1.15405
1.18056
1.20333
1.2236
1.24257
1.26049
1.27712
1.29261
1.31072
1.31124
1.32861
1.34386
1.36031
1.37639
1.39104
1.40436
1.41839
1.43602
1.45621
1.4933
1.50291
1.51454
1.52541
1.53474
1.54445
1.55539
1.56683
1.57824
1.59363
1.70076
1.70445
1.6895
1.67471
1.66856
1.67431
1.69282
1.72319
1.75541
1.78208
2.00705
1.87219
1.79568
1.75347
1.73605
1.74002
1.76747
1.82387
1.9265
2.15088
0.299308
0.297215
0.29274
0.284163
0.272016
0.259974
0.24984
0.242042
0.236488
0.233215
0.2327
0.235142
0.239924
0.246846
0.255983
0.267325
0.279817
0.290729
0.296797
0.299793
0.223599
0.229465
0.235856
0.240469
0.243053
0.24286
0.24027
0.236584
0.233131
0.230822
0.230492
0.232407
0.235747
0.239711
0.243212
0.244835
0.243689
0.240029
0.234717
0.228047
0.21504
0.217346
0.220852
0.224001
0.226241
0.227895
0.228794
0.228602
0.227657
0.226744
0.226722
0.227821
0.22926
0.2302
0.230051
0.228866
0.227048
0.224466
0.221023
0.218017
0.209288
0.210357
0.212379
0.215069
0.217398
0.219079
0.220285
0.221167
0.221641
0.221845
0.222125
0.222534
0.222708
0.222368
0.221569
0.220323
0.218444
0.215945
0.213515
0.212033
0.204101
0.204721
0.206049
0.208169
0.210391
0.212438
0.214066
0.215262
0.21619
0.216889
0.217355
0.217506
0.217254
0.216618
0.215514
0.213867
0.211837
0.209724
0.207974
0.2071
0.199343
0.199684
0.200757
0.202719
0.204831
0.206876
0.208814
0.210471
0.211724
0.212627
0.213211
0.213356
0.212975
0.212019
0.210553
0.208798
0.206887
0.204917
0.203373
0.202803
0.196115
0.196257
0.197025
0.198616
0.200377
0.202013
0.20352
0.204979
0.206358
0.207525
0.208269
0.208384
0.207954
0.207152
0.206122
0.204854
0.203355
0.201753
0.200573
0.200247
0.194396
0.194468
0.194928
0.195942
0.197207
0.198555
0.200049
0.201505
0.202858
0.204063
0.204941
0.205247
0.205004
0.20435
0.203395
0.202379
0.201337
0.200341
0.199665
0.199483
0.19257
0.192616
0.192862
0.193374
0.194045
0.195079
0.196072
0.197282
0.198615
0.199925
0.200977
0.201478
0.201474
0.201181
0.200795
0.200138
0.199702
0.199303
0.199017
0.198918
0.189892
0.189921
0.190095
0.190486
0.191032
0.191687
0.192651
0.193804
0.195102
0.196484
0.197743
0.198546
0.198862
0.198847
0.198658
0.198515
0.198292
0.198065
0.197902
0.197845
0.186575
0.186583
0.186717
0.187087
0.187652
0.188286
0.189116
0.190265
0.191635
0.193192
0.194727
0.19586
0.196485
0.196771
0.196898
0.196909
0.196815
0.196655
0.196561
0.19654
0.182932
0.182928
0.183028
0.183358
0.183879
0.184579
0.185522
0.186652
0.188109
0.189879
0.191773
0.193322
0.194343
0.194998
0.195288
0.195435
0.195495
0.195444
0.195421
0.195423
0.179011
0.179007
0.179096
0.179403
0.179925
0.180647
0.181614
0.182905
0.184588
0.186694
0.189054
0.191085
0.192514
0.193462
0.194067
0.194404
0.194558
0.194619
0.19466
0.194672
0.174646
0.174636
0.174737
0.175034
0.175556
0.176323
0.177404
0.178897
0.180893
0.18346
0.186409
0.189036
0.190941
0.192248
0.193116
0.193665
0.19399
0.194174
0.194272
0.194292
0.169677
0.169664
0.169781
0.170107
0.170677
0.171544
0.172807
0.174592
0.177025
0.180197
0.183897
0.187242
0.189661
0.191421
0.192602
0.193375
0.193865
0.19416
0.194308
0.194337
0.163952
0.163936
0.164078
0.164471
0.165142
0.166167
0.167693
0.169881
0.172893
0.176849
0.181497
0.185722
0.188874
0.191081
0.192605
0.193624
0.194285
0.19469
0.194888
0.194925
0.157281
0.157261
0.157443
0.157925
0.158751
0.160018
0.161919
0.164653
0.168422
0.173386
0.179226
0.184544
0.188495
0.191301
0.193236
0.194538
0.195392
0.195918
0.196172
0.196218
0.149426
0.1494
0.149634
0.150242
0.151286
0.152907
0.155318
0.158765
0.163521
0.169773
0.177105
0.183765
0.188704
0.192217
0.194642
0.196277
0.197356
0.198025
0.198345
0.198403
0.140058
0.140026
0.140335
0.14113
0.142477
0.14456
0.147642
0.152046
0.158095
0.165987
0.175178
0.183482
0.189622
0.193987
0.197
0.199033
0.200376
0.20121
0.201603
0.201679
0.128695
0.128652
0.12907
0.130128
0.131897
0.134611
0.138623
0.144315
0.152036
0.162007
0.173503
0.183811
0.191404
0.196797
0.200522
0.203035
0.204698
0.205736
0.206232
0.206322
0.114676
0.114623
0.115209
0.116644
0.119014
0.122623
0.12791
0.135305
0.145212
0.157826
0.17216
0.184887
0.194223
0.200856
0.205445
0.208547
0.210602
0.211894
0.212512
0.212622
0.0970556
0.097003
0.097852
0.0998356
0.103074
0.107963
0.115022
0.124747
0.137538
0.153481
0.171261
0.186864
0.198267
0.206382
0.212023
0.215859
0.218409
0.220015
0.220794
0.220928
0.0743764
0.0743441
0.0756312
0.0784772
0.0830608
0.0898809
0.0995277
0.112483
0.12903
0.149093
0.170972
0.18992
0.203728
0.213596
0.220514
0.225267
0.228459
0.230479
0.231458
0.231627
0.0441814
0.0442216
0.0463173
0.0507167
0.0575857
0.0675215
0.081035
0.098441
0.11982
0.14488
0.171502
0.194233
0.210767
0.222671
0.231131
0.237045
0.241086
0.24368
0.244932
0.245143
0.00215722
0.00246719
0.00639879
0.013973
0.0250573
0.0401351
0.0593746
0.0827949
0.110217
0.141134
0.173057
0.199919
0.219443
0.233649
0.243951
0.251347
0.256558
0.260004
0.261664
0.261921
-0.0597882
-0.0579331
-0.0486714
-0.0343107
-0.0153631
0.0079076
0.0351591
0.066229
0.100783
0.138227
0.175809
0.206984
0.229646
0.246337
0.258728
0.267955
0.274734
0.279388
0.281768
0.282083
-0.133805
-0.130775
-0.113643
-0.0881976
-0.0586821
-0.0259132
0.0100905
0.0493052
0.0914988
0.13618
0.180407
0.217063
0.244051
0.264402
0.280031
0.292194
0.301769
0.308458
0.310968
0.311997
-0.209884
-0.200616
-0.175198
-0.139736
-0.100666
-0.0587652
-0.0141558
0.0331354
0.082936
0.134842
0.185752
0.227892
0.259109
0.282963
0.301662
0.316583
0.328544
0.337313
0.341905
0.343683
-0.267688
-0.257189
-0.226794
-0.184758
-0.138362
-0.0889143
-0.0367822
0.0178601
0.0747281
0.133362
0.190351
0.237239
0.271843
0.298205
0.31877
0.335062
0.348016
0.357789
0.363367
0.365295
-0.314232
-0.303259
-0.269495
-0.222825
-0.171003
-0.115689
-0.0573633
0.00360625
0.0667382
0.131423
0.193823
0.24468
0.281811
0.309756
0.33129
0.348174
0.361476
0.371463
0.377091
0.379122
-0.352506
-0.341541
-0.305776
-0.255488
-0.199401
-0.139379
-0.0759535
-0.00961612
0.0590014
0.129076
0.196269
0.250575
0.289796
0.318955
0.341137
0.358288
0.371622
0.381569
0.387227
0.389193
-0.385571
-0.374702
-0.337433
-0.284365
-0.224803
-0.160826
-0.0930216
-0.0219986
0.0514956
0.126487
0.198162
0.255651
0.296716
0.326862
0.349487
0.366764
0.380054
0.38994
0.395606
0.397462
-0.414966
-0.404209
-0.365874
-0.310521
-0.248034
-0.180676
-0.109067
-0.0338816
0.0440493
0.12359
0.199434
0.25992
0.302762
0.333882
0.356977
0.374426
0.387731
0.397553
0.40325
0.404974
-0.441852
-0.431167
-0.391983
-0.334714
-0.269783
-0.199519
-0.124568
-0.045651
0.0363084
0.120075
0.199999
0.263573
0.308307
0.340508
0.364159
0.381846
0.395219
0.405018
0.410718
0.412331
-0.467019
-0.456362
-0.416439
-0.357504
-0.290457
-0.217657
-0.139776
-0.0575421
0.02813
0.115964
0.199953
0.266734
0.31353
0.346975
0.371317
0.389341
0.40284
0.412627
0.418346
0.419847
-0.49094
-0.480277
-0.4397
-0.379322
-0.310406
-0.235371
-0.15489
-0.0696327
0.0194807
0.11118
0.199198
0.269369
0.318478
0.353403
0.378623
0.397117
0.41083
0.42067
0.426358
0.427793
-0.513924
-0.503217
-0.461964
-0.400407
-0.329827
-0.252811
-0.170005
-0.0820445
0.0102139
0.105571
0.197639
0.271411
0.323139
0.359829
0.386155
0.405288
0.419324
0.429266
0.434894
0.436315
-0.536177
-0.525328
-0.48344
-0.420896
-0.348813
-0.270083
-0.185236
-0.0948614
0.000266566
0.0990864
0.195162
0.272731
0.327428
0.36623
0.393942
0.413916
0.428418
0.438545
0.444105
0.445507
-0.557728
-0.54672
-0.504332
-0.440832
-0.367451
-0.287228
-0.200592
-0.108075
-0.0103543
0.0916727
0.191652
0.273186
0.331193
0.372521
0.401957
0.423011
0.438128
0.448525
0.454047
0.455382
-0.578707
-0.567487
-0.524664
-0.460224
-0.385751
-0.304222
-0.216032
-0.121654
-0.0216433
0.0833097
0.187021
0.272603
0.33421
0.378492
0.410061
0.432502
0.448426
0.459188
0.464689
0.465897
-0.59904
-0.587635
-0.544364
-0.479106
-0.40368
-0.321031
-0.231516
-0.13555
-0.0335544
0.0740044
0.181191
0.270795
0.336225
0.383859
0.41807
0.442296
0.459258
0.470449
0.475933
0.47695
-0.618775
-0.60715
-0.56341
-0.497457
-0.421206
-0.337612
-0.246985
-0.14968
-0.0460076
0.0638006
0.174132
0.267593
0.336986
0.388369
0.425802
0.452326
0.470585
0.482206
0.487543
0.488335
-0.637741
-0.625975
-0.581779
-0.515225
-0.43827
-0.35388
-0.262357
-0.163958
-0.0589099
0.0527826
0.165843
0.262879
0.336211
0.391663
0.432925
0.462496
0.482483
0.494444
0.499348
0.499802
-0.656062
-0.644086
-0.599458
-0.532383
-0.454835
-0.369793
-0.277539
-0.178292
-0.072155
0.0410576
0.156365
0.256574
0.333624
0.393219
0.438887
0.472558
0.49523
0.507461
0.511132
0.51091
-0.673609
-0.661413
-0.616427
-0.548888
-0.470828
-0.385273
-0.292452
-0.192561
-0.0856192
0.0287254
0.145806
0.24864
0.329038
0.392518
0.44287
0.481883
0.509146
0.522621
0.523597
0.521118
-0.690433
-0.67806
-0.632649
-0.564695
-0.486216
-0.400262
-0.307018
-0.206682
-0.0991814
0.0159497
0.134301
0.23911
0.32236
0.389162
0.443779