/*--------------------------------*- C++ -*----------------------------------*\
| =========                 |                                                 |
| \\      /  F ield         | OpenFOAM: The Open Source CFD Toolbox           |
|  \\    /   O peration     | Version:  2112                                  |
|   \\  /    A nd           | Website:  www.openfoam.com                      |
|    \\/     M anipulation  |                                                 |
\*---------------------------------------------------------------------------*/
FoamFile
{
    version     2.0;
    format      ascii;
    arch        "LSB;label=32;scalar=64";
    class       volScalarField;
    location    "15.5";
    object      p;
}
// * * * * * * * * * * * * * * * * * * * * * * * * * * * * * * * * * * * * * //

dimensions      [0 2 -2 0 0 0 0];

internalField   nonuniform List<scalar> 
8800
(
0.402879
0.355112
0.316454
0.28749
0.266664
0.251882
0.241334
0.233884
0.229055
0.226911
0.227969
0.231913
0.238321
0.247429
0.260041
0.27765
0.302341
0.336218
0.378701
0.437396
0.234056
0.241737
0.249293
0.252631
0.251172
0.246152
0.239722
0.233699
0.229005
0.226118
0.22568
0.227935
0.232156
0.237858
0.24443
0.250551
0.254071
0.253266
0.247732
0.238973
0.212405
0.218591
0.222777
0.225812
0.227952
0.228645
0.227626
0.225577
0.223544
0.222511
0.223256
0.225372
0.227895
0.22981
0.230189
0.228801
0.22629
0.222758
0.21814
0.214361
0.206476
0.209158
0.212019
0.214547
0.216309
0.217585
0.21842
0.218599
0.218304
0.218138
0.218635
0.219483
0.219999
0.219764
0.218884
0.217547
0.215512
0.21275
0.210225
0.208721
0.200993
0.202447
0.204429
0.206715
0.208731
0.210259
0.21137
0.212221
0.212827
0.21327
0.21362
0.213739
0.213478
0.212841
0.211785
0.210172
0.208112
0.205934
0.204451
0.203635
0.195968
0.196895
0.198396
0.200302
0.202279
0.20412
0.205643
0.206821
0.207751
0.208451
0.208817
0.208747
0.208258
0.207328
0.205916
0.204187
0.202361
0.200668
0.19964
0.199134
0.191329
0.191969
0.19328
0.195061
0.196899
0.198721
0.20049
0.20204
0.203248
0.204129
0.204565
0.204442
0.203745
0.202558
0.201099
0.199518
0.197845
0.196331
0.19551
0.195186
0.187449
0.187833
0.188965
0.190611
0.192277
0.193864
0.19537
0.196829
0.198192
0.199295
0.199821
0.199703
0.199131
0.198266
0.19716
0.195821
0.194332
0.192988
0.192357
0.192198
0.184997
0.185204
0.186017
0.187341
0.188784
0.190284
0.191819
0.193301
0.194679
0.195875
0.196597
0.196704
0.196323
0.195552
0.194564
0.193494
0.192336
0.191376
0.190978
0.190908
0.183141
0.183273
0.183717
0.18448
0.185418
0.186488
0.187674
0.189032
0.190475
0.191856
0.1928
0.193152
0.193075
0.192783
0.192307
0.191742
0.191194
0.190761
0.190566
0.190513
0.180629
0.180721
0.180992
0.181438
0.182158
0.183074
0.1842
0.185535
0.187029
0.188591
0.189833
0.190519
0.190761
0.190727
0.190505
0.19032
0.190173
0.190025
0.18993
0.189886
0.177316
0.177383
0.177628
0.178071
0.178612
0.179446
0.180559
0.181966
0.183638
0.18548
0.187078
0.188105
0.188655
0.188916
0.189062
0.18911
0.189079
0.189008
0.188959
0.188927
0.173436
0.173476
0.173714
0.174202
0.174876
0.175645
0.176844
0.178357
0.180227
0.18241
0.184463
0.185941
0.18689
0.187486
0.187836
0.188016
0.188041
0.188012
0.188006
0.187987
0.169201
0.169223
0.169443
0.169946
0.170643
0.171747
0.173012
0.17472
0.176912
0.179569
0.182175
0.184154
0.185494
0.186361
0.186972
0.187274
0.187379
0.187421
0.187453
0.187441
0.164596
0.164628
0.16484
0.165363
0.166171
0.167291
0.168797
0.170819
0.173449
0.176725
0.180027
0.182613
0.184456
0.185711
0.186491
0.186975
0.187232
0.187373
0.187438
0.187425
0.159401
0.159426
0.159676
0.160229
0.161125
0.162408
0.164198
0.166643
0.169875
0.173946
0.178103
0.181419
0.183781
0.185441
0.186542
0.187242
0.187662
0.187901
0.187995
0.187978
0.153383
0.153411
0.153715
0.154349
0.155382
0.156906
0.159078
0.162086
0.166096
0.171182
0.176407
0.180564
0.183635
0.185758
0.187201
0.188144
0.188734
0.189068
0.189191
0.189169
0.14629
0.146325
0.14669
0.147485
0.148736
0.150596
0.153296
0.157045
0.162059
0.168432
0.174982
0.180247
0.184073
0.186767
0.188602
0.189818
0.19059
0.191027
0.191179
0.19115
0.137839
0.137887
0.138352
0.139325
0.140919
0.143279
0.146667
0.151383
0.157695
0.165694
0.173896
0.180465
0.185238
0.188593
0.190894
0.192426
0.1934
0.193945
0.194138
0.194101
0.127654
0.127722
0.128321
0.129573
0.131612
0.134634
0.138954
0.144959
0.152945
0.162984
0.173205
0.181347
0.187254
0.191414
0.194273
0.196185
0.197403
0.198081
0.198317
0.198269
0.115185
0.115275
0.116062
0.117711
0.120386
0.124314
0.129919
0.137629
0.147756
0.16034
0.173019
0.183056
0.190324
0.195443
0.198968
0.201335
0.202844
0.203679
0.20397
0.20391
0.0996415
0.0997627
0.100826
0.103066
0.106657
0.111875
0.119231
0.129196
0.14208
0.157822
0.173463
0.185752
0.194638
0.200908
0.205239
0.208162
0.210038
0.21106
0.211412
0.211336
0.079896
0.0800759
0.0815654
0.0846966
0.0896321
0.0967061
0.106503
0.119506
0.135926
0.155533
0.174682
0.189608
0.200395
0.20804
0.213357
0.216973
0.219312
0.220589
0.221013
0.220913
0.0541342
0.0544175
0.0566349
0.061241
0.0683084
0.0781852
0.0914777
0.108549
0.129418
0.153651
0.176858
0.194795
0.207775
0.217047
0.223572
0.228072
0.231015
0.232631
0.233153
0.233021
0.0192048
0.0197285
0.0234465
0.0308284
0.0415211
0.0557832
0.074068
0.0964872
0.122821
0.152434
0.180185
0.201456
0.216899
0.228061
0.236062
0.241707
0.245477
0.247553
0.248197
0.248018
-0.0308776
-0.0291849
-0.0216167
-0.00858844
0.00840743
0.0294043
0.0545694
0.0837567
0.11654
0.15216
0.184807
0.209633
0.227744
0.241034
0.250804
0.257933
0.262888
0.265717
0.266575
0.266323
-0.10594
-0.0965783
-0.0792843
-0.0560272
-0.0295632
0.000407773
0.0339831
0.070968
0.110921
0.153121
0.191139
0.219969
0.241219
0.257154
0.269285
0.278632
0.285592
0.289935
0.291466
0.291485
-0.186089
-0.165115
-0.137412
-0.103842
-0.0676852
-0.0286433
0.0133898
0.0583267
0.105848
0.15537
0.199806
0.233736
0.259145
0.278663
0.294013
0.306289
0.316012
0.323351
0.326369
0.326551
-0.249296
-0.225963
-0.190069
-0.14829
-0.103626
-0.0562054
-0.00612546
0.0464697
0.10126
0.1577
0.208013
0.246379
0.275212
0.297503
0.315147
0.329327
0.340533
0.349026
0.351731
0.352193
-0.300592
-0.275125
-0.234485
-0.186785
-0.135575
-0.0813203
-0.024301
0.0351523
0.0965833
0.159344
0.214854
0.256894
0.288267
0.312323
0.331175
0.346221
0.358044
0.366511
0.369626
0.370121
-0.342277
-0.316094
-0.272016
-0.219925
-0.163601
-0.103835
-0.0409804
0.0244396
0.0917772
0.160201
0.22025
0.265254
0.298448
0.323599
0.343081
0.358439
0.370373
0.378774
0.382087
0.382553
-0.377748
-0.351161
-0.304659
-0.248984
-0.188516
-0.124132
-0.0563239
0.0142863
0.086894
0.160413
0.224541
0.272172
0.30691
0.332897
0.352738
0.368132
0.37998
0.38824
0.391721
0.392174
-0.408917
-0.382163
-0.333801
-0.275216
-0.211276
-0.142928
-0.0707651
0.00448963
0.0818995
0.160192
0.228181
0.278237
0.314332
0.340992
0.361093
0.376505
0.388267
0.396363
0.399896
0.400344
-0.437264
-0.410367
-0.360458
-0.29946
-0.23251
-0.160705
-0.0846809
-0.00522603
0.0766251
0.159407
0.231068
0.283512
0.320997
0.348397
0.368831
0.384329
0.396042
0.403976
0.407514
0.407991
-0.463609
-0.436562
-0.38541
-0.322264
-0.252735
-0.177906
-0.0984375
-0.0151662
0.0707947
0.157877
0.233291
0.288279
0.327302
0.35556
0.376416
0.392072
0.403794
0.4116
0.415058
0.415608
-0.488647
-0.461391
-0.4091
-0.344083
-0.272284
-0.194773
-0.112231
-0.0254906
0.0643526
0.15567
0.234919
0.292631
0.333396
0.362691
0.384106
0.400018
0.411801
0.419532
0.422876
0.423436
-0.512624
-0.48513
-0.431731
-0.36522
-0.291365
-0.211476
-0.126176
-0.0362399
0.057254
0.152685
0.235852
0.296545
0.339328
0.369898
0.392054
0.408348
0.420274
0.427966
0.431168
0.431672
-0.535884
-0.508027
-0.45381
-0.385813
-0.31015
-0.228144
-0.140349
-0.0475162
0.0493568
0.148778
0.235999
0.299961
0.345074
0.377198
0.400313
0.417143
0.429302
0.437007
0.440054
0.440457
-0.558457
-0.530265
-0.475319
-0.405947
-0.328694
-0.244818
-0.15482
-0.059377
0.0406288
0.143898
0.235241
0.302758
0.350575
0.384572
0.408897
0.426441
0.438939
0.44668
0.4496
0.449841
-0.580415
-0.551825
-0.496263
-0.425672
-0.347027
-0.261514
-0.169574
-0.0717994
0.0310688
0.137969
0.233433
0.304762
0.355684
0.391948
0.417769
0.436216
0.44916
0.456953
0.45975
0.459818
-0.60182
-0.572888
-0.516604
-0.444989
-0.365139
-0.278187
-0.184553
-0.0847361
0.0206802
0.130945
0.230453
0.305767
0.360162
0.399145
0.426835
0.44642
0.459917
0.467764
0.470396
0.470299
-0.622718
-0.593355
-0.536396
-0.463868
-0.382962
-0.294782
-0.199699
-0.0981324
0.00951558
0.122818
0.226186
0.305567
0.363751
0.40595
0.435992
0.457001
0.471117
0.478944
0.481307
0.48107
-0.642932
-0.613153
-0.555592
-0.482271
-0.400454
-0.311232
-0.21494
-0.111894
-0.00234683
0.113619
0.220546
0.303944
0.366161
0.412089
0.445118
0.467973
0.482742
0.490353
0.492326
0.491934
-0.662433
-0.632281
-0.574165
-0.500144
-0.417556
-0.327468
-0.230173
-0.125925
-0.01481
0.103407
0.213499
0.300713
0.367041
0.417141
0.453967
0.479459
0.495
0.501881
0.503088
0.502548
-0.681285
-0.650682
-0.592083
-0.517446
-0.434199
-0.343402
-0.245306
-0.140114
-0.0277595
0.092279
0.205045
0.295744
0.366025
0.420517
0.462028
0.491548
0.508666
0.513999
0.513264
0.512524
-0.699331
-0.668355
-0.609297
-0.534119
-0.45033
-0.358959
-0.260245
-0.154344
-0.041062
0.0803685
0.195256
0.288956
0.362852
0.421495
0.468313
0.503778
0.524994
0.529404
0.524257
0.521987
-0.71667
-0.685301
-0.625834
-0.550189
-0.465984
-0.374187
-0.275047
-0.168673
-0.0547822
0.067612
0.184024
0.280122
0.357222
0.419291
0.471172
0.514301
0.543716
0.553693
0.545293
0.523262
-0.733241
-0.701531
-0.641813
-0.565833
-0.481437
-0.389398
-0.290109
-0.183571
-0.0694589
0.0533467
0.170644
0.26836
0.348285
0.412725
0.467373
0.517565
0.554506
0.564514
0.549272
0.523373
-0.748907
-0.717233
-0.65707
-0.580797
-0.496413
-0.404262
-0.305208
-0.198712
-0.0847582
0.0379073
0.155344
0.253565
0.33565
0.401473
0.452675
0.502556
0.535391
0.534721
0.465621
0.422752
-0.763093
-0.733319
-0.67123
-0.594531
-0.510245
-0.418336
-0.320067
-0.21388
-0.100465
0.0214562
0.138171
0.235719
0.318666
0.386308
0.428215
0.457765
0.475981
0.433636
0.357614
0.307856
-0.815911
-0.746644
-0.684058
-0.608505
-0.524302
-0.432939
-0.334759
-0.229322
-0.116884
0.00364753
0.118703
0.214533
0.295257
0.368528
0.380924
0.388254
0.360095
0.293813
0.208012
0.159909
-0.775472
-0.761008
-0.702153
-0.628337
-0.544406
-0.453675
-0.356799
-0.25263
-0.142069
-0.0243282
0.0866696
0.17818
0.251093
0.313815
0.320605
0.201536
0.0854436
0.00585457
-0.0775931
-0.033302
-0.803412
-0.776089
-0.717456
-0.643425
-0.560145
-0.469919
-0.373139
-0.270001
-0.161045
-0.0458947
0.061267
0.147768
0.213408
0.246941
0.194446
0.0291496
-0.12285
-0.23024
-0.347662
-0.277029
-0.824522
-0.793803
-0.734876
-0.660463
-0.577443
-0.487544
-0.391194
-0.289265
-0.182203
-0.0701358
0.0325526
0.112784
0.168932
0.17443
0.0553055
-0.162497
-0.351844
-0.497638
-0.667891
-0.604159
-0.844595
-0.812555
-0.752722
-0.677734
-0.594739
-0.505163
-0.409605
-0.308991
-0.203975
-0.0952899
0.0022016
0.0755749
0.117795
0.0850926
-0.103696
-0.357364
-0.602034
-0.822839
-1.07133
-1.05823
-0.863468
-0.831466
-0.771044
-0.69558
-0.612603
-0.523415
-0.428739
-0.329528
-0.22677
-0.121809
-0.0300332
0.0360993
0.0621732
-0.0141594
-0.257475
-0.537153
-0.830421
-1.0952
-1.42149
-1.79803
-0.882271
-0.850592
-0.790031
-0.71433
-0.631378
-0.542548
-0.448685
-0.350881
-0.25045
-0.149358
-0.0634059
-0.00509129
0.00390226
-0.121792
-0.394002
-0.678363
-0.971474
-1.2196
-1.32165
-1.48177
-0.901576
-0.87031
-0.809905
-0.734215
-0.651416
-0.563029
-0.470061
-0.373809
-0.27598
-0.179168
-0.0995267
-0.049849
-0.0628792
-0.245621
-0.514257
-0.78216
-1.02017
-1.16975
-1.19877
-1.22832
-0.921741
-0.890829
-0.830729
-0.755231
-0.672736
-0.584935
-0.493061
-0.39862
-0.303756
-0.211802
-0.139052
-0.0991417
-0.141804
-0.361656
-0.621935
-0.867515
-1.05577
-1.13417
-1.15479
-1.15829
-0.94291
-0.912219
-0.852477
-0.777281
-0.695188
-0.608157
-0.517568
-0.4252
-0.333673
-0.247187
-0.181753
-0.153303
-0.224594
-0.47081
-0.720097
-0.954215
-1.10727
-1.13117
-1.13152
-1.13116
-0.964945
-0.934477
-0.875043
-0.800249
-0.718678
-0.632541
-0.54342
-0.45337
-0.365505
-0.285048
-0.227414
-0.212004
-0.310726
-0.575897
-0.80828
-1.0339
-1.13026
-1.1305
-1.12176
-1.11903
-0.987571
-0.957376
-0.898213
-0.823942
-0.742982
-0.657868
-0.570378
-0.482877
-0.398935
-0.324906
-0.276031
-0.271987
-0.405764
-0.676359
-0.879175
-1.05133
-1.14063
-1.11099
-1.10112
-1.09765
-1.01021
-0.980516
-0.921835
-0.848011
-0.767751
-0.683797
-0.598063
-0.513301
-0.433481
-0.366138
-0.326812
-0.334208
-0.511449
-0.771629
-0.943402
-0.969184
-1.02342
-1.06904
-1.08438
-1.08646
-1.03227
-1.00307
-0.945433
-0.872039
-0.792525
-0.709806
-0.625955
-0.543994
-0.46844
-0.407754
-0.378698
-0.401933
-0.632226
-0.87528
-1.08138
-1.07624
-1.11598
-1.13669
-1.14722
-1.14969
-1.05326
-1.02475
-0.967968
-0.895354
-0.816735
-0.735257
-0.653318
-0.574097
-0.502721
-0.448444
-0.430015
-0.469727
-0.781598
-1.03858
-1.28255
-1.44769
-1.38156
-1.40999
-1.40492
-1.38544
-1.07202
-1.0446
-0.988889
-0.917108
-0.839426
-0.759357
-0.679261
-0.602484
-0.534854
-0.486418
-0.478973
-0.537619
-0.931408
-1.24429
-1.16866
-0.955493
-1.35464
-1.79965
-1.82565
-1.79543
-1.08748
-1.06155
-1.00723
-0.936327
-0.859616
-0.780913
-0.7026
-0.628018
-0.563005
-0.519459
-0.521447
-0.595467
-1.06442
-1.57079
-1.90691
-2.11162
-2.28769
-2.12099
-1.91496
-1.9123
-1.09841
-1.07438
-1.02175
-0.951801
-0.876089
-0.798752
-0.722084
-0.649238
-0.585424
-0.543129
-0.546629
-0.648377
-1.21573
-2.10823
-3.32329
-4.02932
-4.16111
-3.70339
-3.12706
-2.85306
-1.10362
-1.0818
-1.0312
-0.962231
-0.88755
-0.811566
-0.736452
-0.664839
-0.600198
-0.552633
-0.551794
-0.642327
-1.20126
-2.0364
-3.02516
-3.63055
-3.76624
-3.50518
-3.10957
-2.90802
-1.10153
-1.08244
-1.03395
-0.966142
-0.89247
-0.81809
-0.744869
-0.674009
-0.606517
-0.547421
-0.514693
-0.527393
-0.784954
-1.12682
-1.4299
-1.56959
-1.41571
-1.1306
-0.85456
-0.718078
-1.08976
-1.07316
-1.02768
-0.961377
-0.889343
-0.81722
-0.746377
-0.676562
-0.605486
-0.527177
-0.445452
-0.385346
-0.220487
0.0105764
0.391666
0.799329
1.18591
1.49512
1.67682
1.73758
-1.06629
-1.05233
-1.01008
-0.946043
-0.876658
-0.807983
-0.741383
-0.675477
-0.603868
-0.507982
-0.379363
-0.225688
0.0469175
0.599521
1.23856
1.85278
2.33973
2.63639
2.77312
2.80597
-1.02912
-1.01765
-0.978965
-0.918783
-0.85368
-0.790676
-0.731655
-0.675397
-0.611039
-0.509048
-0.347033
-0.113582
0.138973
0.61086
1.23724
1.79358
2.19768
2.42811
2.53321
2.56114
-0.974596
-0.965337
-0.931821
-0.87848
-0.820493
-0.766341
-0.719345
-0.681349
-0.645133
-0.571359
-0.406715
-0.138916
0.129488
0.448939
0.918775
1.33286
1.64517
1.83159
1.92517
1.95233
-0.904136
-0.897134
-0.870685
-0.826653
-0.779129
-0.737271
-0.707513
-0.698542
-0.72151
-0.779017
-0.737851
-0.432153
-0.0804822
0.182271
0.521658
0.843385
1.09221
1.25156
1.33463
1.35337
-0.82373
-0.818206
-0.798706
-0.766432
-0.731951
-0.704858
-0.696607
-0.731478
-0.871355
-1.23013
-1.53217
-1.20101
-0.63276
-0.282108
0.0629535
0.359546
0.573448
0.697427
0.750226
0.757135
-0.728703
-0.726281
-0.71496
-0.695353
-0.675081
-0.66314
-0.674501
-0.745282
-0.984426
-1.57731
-2.28281
-1.88855
-1.15519
-0.703816
-0.301816
0.0112999
0.21574
0.324827
0.37421
0.385199
-0.628802
-0.628444
-0.622304
-0.611599
-0.601674
-0.600136
-0.623307
-0.695699
-0.950009
-1.55559
-2.22027
-1.86948
-1.26099
-0.800065
-0.414395
-0.155568
-0.0142999
0.0492086
0.0746675
0.0786226
-0.523852
-0.523844
-0.520362
-0.513924
-0.508673
-0.509798
-0.528201
-0.591341
-0.778716
-1.21832
-1.6307
-1.42798
-1.00964
-0.62716
-0.354394
-0.203597
-0.137223
-0.109712
-0.098553
-0.09636
-0.412803
-0.413212
-0.410924
-0.406479
-0.402394
-0.401609
-0.41012
-0.443633
-0.542287
-0.767076
-0.943952
-0.792273
-0.536915
-0.32611
-0.205479
-0.159691
-0.145238
-0.141301
-0.139792
-0.139224
-0.302438
-0.302849
-0.301663
-0.298677
-0.295062
-0.291654
-0.29061
-0.29765
-0.325706
-0.387176
-0.396519
-0.333618
-0.184255
-0.10914
-0.08723
-0.0892767
-0.0965562
-0.102495
-0.105159
-0.105754
-0.202323
-0.20276
-0.202716
-0.201347
-0.198547
-0.19385
-0.18724
-0.179154
-0.17022
-0.15552
-0.109839
-0.0648652
-0.0179451
-0.00250067
-0.0128773
-0.0266839
-0.0382751
-0.0458315
-0.0494194
-0.0505102
-0.120005
-0.12043
-0.121255
-0.121294
-0.119689
-0.115376
-0.107325
-0.0940497
-0.0731726
-0.0399883
0.00576386
0.0324365
0.0433797
0.0424193
0.0298842
0.0171675
0.00726781
0.000920191
-0.00221702
-0.0033136
-0.0581742
-0.0585507
-0.0597473
-0.0606335
-0.0600429
-0.0568841
-0.0498923
-0.0372193
-0.0165248
0.0143265
0.048006
0.0652292
0.0664969
0.0615529
0.052192
0.0429512
0.0356584
0.030943
0.0285681
0.027674
-0.0149964
-0.0152991
-0.0165211
-0.0178119
-0.0179496
-0.0159258
-0.0106571
-0.000606469
0.0158804
0.0394131
0.0622021
0.0731492
0.0732417
0.0687812
0.062223
0.0557584
0.0505106
0.0470424
0.0453025
0.0446292
0.0132394
0.0130078
0.0119372
0.0105706
0.00994567
0.0109649
0.0145739
0.0218481
0.0337531
0.0502586
0.0653144
0.0723394
0.0724488
0.0692263
0.0647532
0.0602282
0.0563938
0.0538005
0.0525244
0.0520351
0.0304932
0.0303186
0.0294578
0.028215
0.0274086
0.0277134
0.0298631
0.0347126
0.0428662
0.0540029
0.0637911
0.0682385
0.0684071
0.0662558
0.063141
0.0598845
0.0570332
0.0550557
0.0541113
0.0537629
0.0401723
0.0400356
0.0393783
0.0383341
0.0375294
0.0374724
0.0386634
0.0416414
0.0468583
0.0541087
0.0604746
0.0633463
0.0633964
0.0618091
0.0595397
0.0571353
0.0549666
0.0534372
0.0527311
0.0524839
0.0448966
0.0447814
0.044272
0.0434049
0.0426529
0.0423635
0.042929
0.0447296
0.0480078
0.0525758
0.0565385
0.0582013
0.0580487
0.0568332
0.0551329
0.0533117
0.0516462
0.0504644
0.0499363
0.04976
0.0464287
0.0463276
0.0459103
0.0451717
0.0444681
0.0440376
0.0441395
0.045045
0.0469561
0.0497292
0.0521234
0.0530544
0.0527906
0.0518023
0.0504833
0.0490888
0.0478112
0.0469076
0.0465155
0.0463882
0.0458496
0.0457616
0.04541
0.0447751
0.0441271
0.0436388
0.043491
0.0438548
0.0448559
0.0464206
0.0477656
0.0481654
0.0477838
0.0469412
0.0458932
0.0448068
0.0438189
0.043127
0.0428341
0.0427409
0.043839
0.0437643
0.0434647
0.0429135
0.0423188
0.0418054
0.0414976
0.0415162
0.0419472
0.042726
0.043362
0.0434171
0.0429854
0.0422649
0.0414225
0.0405716
0.0398081
0.039279
0.0390587
0.0389896
0.0408478
0.0407864
0.0405367
0.0400665
0.0395365
0.0390386
0.0386561
0.0384663
0.03853
0.038812
0.0390129
0.0388584
0.0384045
0.0377802
0.0370952
0.0364231
0.0358291
0.0354215
0.0352541
0.0352024
0.0371989
0.0371495
0.0369472
0.0365556
0.036098
0.0356416
0.0352423
0.034952
0.0348085
0.0347859
0.034712
0.0344339
0.0339864
0.0334481
0.0328884
0.0323541
0.0318892
0.0315735
0.0314457
0.0314071
0.0331231
0.0330838
0.0329237
0.0326059
0.0322219
0.031821
0.0314391
0.0311095
0.0308576
0.0306667
0.0304445
0.0301122
0.0296921
0.0292321
0.0287749
0.0283492
0.0279842
0.0277395
0.027642
0.0276131
0.028784
0.0287529
0.0286285
0.0283771
0.0280645
0.0277265
0.0273848
0.0270604
0.0267693
0.0264997
0.026209
0.0258668
0.0254885
0.0251007
0.0247293
0.024391
0.0241054
0.0239165
0.0238422
0.0238206
0.024294
0.0242695
0.0241742
0.0239795
0.0237317
0.0234561
0.023165
0.0228711
0.0225845
0.0222969
0.0219947
0.0216743
0.0213466
0.0210268
0.0207294
0.0204637
0.0202423
0.0200975
0.0200411
0.0200248
0.0197249
0.0197059
0.0196338
0.019486
0.0192947
0.0190774
0.018841
0.0185928
0.0183385
0.0180719
0.0177946
0.0175167
0.0172461
0.0169905
0.0167581
0.0165535
0.0163848
0.0162753
0.0162329
0.0162207
0.0151157
0.0151015
0.0150483
0.014939
0.0147963
0.0146324
0.0144511
0.0142565
0.0140513
0.0138309
0.0136029
0.0133815
0.0131724
0.0129787
0.0128043
0.0126518
0.0125266
0.0124456
0.0124143
0.0124054
0.0104845
0.0104744
0.0104369
0.0103602
0.0102604
0.0101466
0.0100207
0.00988432
0.00973866
0.00958095
0.00941809
0.00926216
0.00911684
0.00898315
0.00886282
0.00875681
0.00866892
0.00861163
0.00858957
0.00858311
0.00583726
0.00583058
0.0058076
0.00576108
0.00570279
0.00563869
0.0055689
0.00549365
0.00541288
0.00532501
0.00523417
0.00514752
0.00506732
0.00499368
0.00492693
0.00486661
0.0048145
0.00477962
0.00476591
0.00476118
0.00118172
0.00118246
0.00118716
0.00118334
0.0011707
0.00115553
0.00113884
0.00112073
0.00110076
0.00107816
0.00105379
0.00103043
0.00100942
0.000990454
0.000973378
0.000957786
0.000943784
0.000934586
0.000935801
0.000939007
-0.77151
-0.539193
-0.278222
-0.0647974
0.10838
0.24806
0.366241
0.465983
0.511865
0.489338
-0.355922
-0.197858
-0.0334146
0.108165
0.228433
0.329288
0.411468
0.470313
0.500982
0.512174
-0.072913
0.0316277
0.141515
0.239256
0.323623
0.394465
0.450813
0.491986
0.520836
0.53788
0.124416
0.196134
0.273075
0.342757
0.403333
0.454602
0.496421
0.529314
0.55519
0.572892
0.273121
0.324865
0.379743
0.431588
0.477229
0.516804
0.550287
0.577716
0.600005
0.617485
0.392101
0.430335
0.473669
0.514479
0.551533
0.584425
0.61287
0.636464
0.655562
0.672745
0.493509
0.525188
0.562868
0.598174
0.630908
0.66039
0.685967
0.70703
0.723381
0.740417
0.587529
0.618594
0.654899
0.68892
0.720241
0.748286
0.772323
0.791677
0.805641
0.822704
0.686214
0.720545
0.758573
0.793368
0.82449
0.8516
0.874306
0.89215
0.904446
0.921901
0.803313
0.841685
0.881201
0.916232
0.946249
0.971579
0.99243
1.0087
1.02046
1.03859
0.949571
0.988516
1.02505
1.0562
1.08229
1.10474
1.1241
1.13986
1.15248
1.17053
1.12516
1.15722
1.18368
1.20638
1.22661
1.24554
1.26343
1.28004
1.29551
1.31362
1.31426
1.33164
1.3469
1.36331
1.37936
1.39401
1.40732
1.42133
1.43895
1.45914
1.49637
1.50593
1.51754
1.52841
1.53774
1.54743
1.55835
1.56979
1.5812
1.59658
1.70373
1.70744
1.6925
1.67771
1.67154
1.67729
1.69579
1.72615
1.75836
1.78504
2.01004
1.87519
1.79865
1.75643
1.73901
1.74298
1.77043
1.82684
1.92947
2.15384
0.293465
0.291354
0.286868
0.278275
0.266101
0.254029
0.243859
0.236016
0.230413
0.227105
0.226588
0.229076
0.233921
0.240905
0.250092
0.261473
0.273997
0.284939
0.291016
0.294035
0.217853
0.223711
0.230078
0.234628
0.237154
0.236897
0.234234
0.230478
0.226982
0.22466
0.22434
0.226277
0.229667
0.233704
0.237288
0.238987
0.237911
0.234307
0.229052
0.222399
0.2093
0.211599
0.21507
0.218169
0.220355
0.221955
0.222799
0.222561
0.221577
0.220636
0.220618
0.221758
0.223253
0.224251
0.224167
0.223045
0.221289
0.218771
0.21537
0.212392
0.203694
0.204775
0.206711
0.209267
0.211474
0.213069
0.214218
0.215043
0.215455
0.215603
0.215881
0.21636
0.216617
0.216354
0.215624
0.214465
0.212694
0.210331
0.208027
0.206577
0.198416
0.199049
0.200301
0.202285
0.204356
0.206245
0.207743
0.208881
0.209806
0.210542
0.211031
0.211172
0.210931
0.210345
0.209354
0.20787
0.20601
0.204053
0.202428
0.201584
0.193609
0.194018
0.194975
0.196662
0.198567
0.200494
0.202338
0.203889
0.205065
0.205939
0.206535
0.206735
0.206435
0.205598
0.204252
0.202609
0.200872
0.199173
0.197862
0.19729
0.189226
0.189459
0.190239
0.191798
0.193567
0.195263
0.196901
0.198522
0.200018
0.201238
0.202006
0.202122
0.20164
0.200717
0.199559
0.198225
0.196714
0.195142
0.193993
0.19361
0.18606
0.186159
0.186734
0.188068
0.189669
0.191261
0.192828
0.194301
0.195674
0.19692
0.19783
0.198146
0.197926
0.197305
0.196351
0.195176
0.193858
0.192518
0.191623
0.191402
0.184093
0.184143
0.184491
0.185348
0.186496
0.187732
0.189068
0.190497
0.191967
0.193361
0.194457
0.194963
0.194893
0.19445
0.193768
0.192995
0.192143
0.191338
0.19084
0.190716
0.181995
0.182035
0.182239
0.182696
0.183368
0.184247
0.185271
0.186495
0.18787
0.189344
0.190654
0.191467
0.191775
0.191763
0.191547
0.191124
0.190833
0.190544
0.190349
0.190274
0.179063
0.179089
0.179248
0.179606
0.18013
0.180795
0.181825
0.183099
0.184598
0.186262
0.187865
0.189004
0.189579
0.189761
0.189738
0.189807
0.189705
0.189599
0.189502
0.189455
0.175427
0.175435
0.175568
0.175924
0.176473
0.177142
0.178102
0.179374
0.180973
0.182866
0.184834
0.186394
0.187373
0.187959
0.188281
0.188461
0.188539
0.188501
0.18846
0.188443
0.171356
0.171351
0.171464
0.171841
0.172448
0.173272
0.1743
0.175722
0.177535
0.179756
0.182194
0.184253
0.185656
0.186552
0.187194
0.187512
0.187643
0.187656
0.187664
0.187669
0.166954
0.166944
0.167045
0.167421
0.168074
0.168982
0.170195
0.171806
0.173924
0.176602
0.179639
0.182301
0.184212
0.18555
0.186303
0.186883
0.187162
0.187292
0.187366
0.187384
0.162089
0.162072
0.162201
0.162586
0.163269
0.164264
0.165657
0.167572
0.170129
0.173417
0.177213
0.18062
0.183129
0.184862
0.186036
0.186788
0.18724
0.1875
0.187635
0.187661
0.156523
0.156504
0.156655
0.157083
0.157831
0.158972
0.160626
0.162944
0.166085
0.170164
0.17492
0.179233
0.182349
0.184652
0.186214
0.187246
0.187907
0.188307
0.188502
0.188536
0.150008
0.149984
0.150166
0.150685
0.15157
0.152939
0.154954
0.157809
0.161709
0.166804
0.172764
0.178173
0.182216
0.18507
0.187057
0.188395
0.189275
0.189816
0.190071
0.190115
0.142281
0.142251
0.142483
0.143115
0.14423
0.145946
0.148447
0.152022
0.156919
0.16331
0.170776
0.177555
0.182604
0.186199
0.188687
0.190375
0.191495
0.192186
0.192508
0.192566
0.133002
0.13296
0.133266
0.134091
0.135507
0.137682
0.140879
0.145422
0.151607
0.159645
0.168989
0.177435
0.183698
0.188166
0.191266
0.193371
0.194773
0.195644
0.196047
0.196116
0.12172
0.121667
0.12208
0.12317
0.125013
0.127831
0.131963
0.137778
0.145642
0.15578
0.167449
0.177918
0.18565
0.191166
0.194999
0.197605
0.199342
0.200425
0.200925
0.20101
0.107794
0.107733
0.108309
0.109772
0.11221
0.11592
0.121315
0.128845
0.13892
0.151716
0.16624
0.179142
0.188631
0.195401
0.200115
0.20333
0.205478
0.206824
0.207447
0.207546
0.0902719
0.090208
0.0910372
0.0930478
0.0963623
0.10136
0.108547
0.118428
0.131385
0.14751
0.165486
0.181271
0.192832
0.201089
0.206862
0.210822
0.21348
0.215147
0.215925
0.216046
0.0676689
0.0676147
0.0688702
0.0717591
0.0764443
0.0833968
0.0931924
0.106304
0.123021
0.143276
0.165354
0.184482
0.198443
0.208448
0.215494
0.220372
0.223676
0.225758
0.226726
0.226874
0.0376494
0.0376652
0.0397103
0.0441101
0.0510724
0.0611269
0.0747855
0.0923616
0.113935
0.139203
0.16603
0.188937
0.20561
0.217637
0.226214
0.232241
0.236385
0.239022
0.240239
0.240418
-0.00409213
-0.003831
-3.33507e-05
0.00751912
0.0186639
0.0338607
0.0532488
0.0768481
0.104472
0.135605
0.167737
0.194763
0.214402
0.228699
0.239084
0.246562
0.251842
0.255267
0.256823
0.257031
-0.0655329
-0.0638087
-0.0548082
-0.0405654
-0.0215798
0.00180108
0.0292068
0.0604522
0.0952107
0.132883
0.170677
0.202
0.224744
0.241476
0.253888
0.263127
0.269892
0.27441
0.276522
0.2768
-0.139028
-0.136223
-0.119498
-0.0943768
-0.0648454
-0.0319439
0.00423061
0.0436608
0.0861033
0.131051
0.17552
0.212331
0.239377
0.259716
0.275276
0.287324
0.296721
0.302947
0.305187
0.30598
-0.214655
-0.205853
-0.181088
-0.145927
-0.106779
-0.0647408
-0.0199284
0.0276223
0.077723
0.12995
0.181156
0.223497
0.2548
0.278651
0.297276
0.312058
0.323773
0.331814
0.335839
0.337264
-0.272658
-0.262589
-0.23289
-0.191099
-0.144595
-0.0949374
-0.0425273
0.0124502
0.0696981
0.128737
0.186109
0.233268
0.268033
0.294482
0.315088
0.331392
0.344276
0.353623
0.358657
0.360231
-0.319589
-0.308994
-0.275899
-0.229406
-0.177408
-0.121804
-0.0631413
-0.00176029
0.0618526
0.127048
0.189937
0.241197
0.278612
0.306762
0.328448
0.345443
0.358765
0.368504
0.37374
0.375471
-0.35833
-0.347698
-0.312581
-0.26245
-0.206082
-0.145675
-0.08179
-0.0149377
0.0542459
0.124946
0.192742
0.24751
0.287062
0.316476
0.338867
0.356191
0.369609
0.379352
0.384603
0.386336
-0.391906
-0.38133
-0.344673
-0.291681
-0.231756
-0.167314
-0.0989777
-0.0273428
0.0468207
0.122507
0.194851
0.252891
0.294367
0.324828
0.347697
0.36516
0.378545
0.388256
0.393515
0.395171
-0.421836
-0.411343
-0.373572
-0.31825
-0.255359
-0.187439
-0.115184
-0.0392848
0.0394119
0.119751
0.196395
0.257507
0.300784
0.332223
0.355559
0.373193
0.386592
0.396261
0.40156
0.403044
-0.449336
-0.43888
-0.400218
-0.342924
-0.277458
-0.206541
-0.130848
-0.0511111
0.0317416
0.116427
0.197183
0.261414
0.306604
0.339138
0.363038
0.380904
0.394363
0.404009
0.409304
0.410674
-0.475156
-0.464717
-0.425255
-0.366238
-0.298568
-0.225017
-0.146276
-0.0630898
0.0235747
0.11241
0.197321
0.264811
0.312082
0.345859
0.370447
0.38865
0.402234
0.411869
0.417176
0.418436
-0.499744
-0.489288
-0.449101
-0.388607
-0.318984
-0.243079
-0.161627
-0.075329
0.0148858
0.107708
0.196758
0.267667
0.317261
0.35251
0.37797
0.396645
0.410446
0.420125
0.425403
0.426613
-0.523458
-0.512935
-0.472076
-0.410306
-0.338897
-0.260916
-0.177035
-0.0878992
0.00559525
0.102184
0.195352
0.269915
0.322147
0.359164
0.385716
0.405024
0.419151
0.428929
0.434124
0.435323
-0.546489
-0.535812
-0.494273
-0.431421
-0.358429
-0.278618
-0.192567
-0.100893
-0.00441334
0.0957522
0.193027
0.271445
0.326651
0.365781
0.393695
0.413819
0.428395
0.438344
0.443455
0.444631
-0.568852
-0.557998
-0.515957
-0.452018
-0.377631
-0.29621
-0.208258
-0.114328
-0.0151333
0.0883738
0.189671
0.272116
0.330612
0.372221
0.40183
0.423014
0.438183
0.448364
0.453415
0.454501
-0.590674
-0.579612
-0.537071
-0.472113
-0.396531
-0.3137
-0.224079
-0.128158
-0.0265364
0.0800295
0.185187
0.271766
0.333871
0.378353
0.410047
0.432566
0.448497
0.458977
0.463957
0.464906
-0.611882
-0.600616
-0.557569
-0.491718
-0.415089
-0.331029
-0.239961
-0.142327
-0.038592
0.0707193
0.179508
0.270215
0.336209
0.384018
0.418242
0.44242
0.459269
0.470065
0.47495
0.475704
-0.632502
-0.621003
-0.577436
-0.51081
-0.43326
-0.348147
-0.255854
-0.156762
-0.0512187
0.0604906
0.172588
0.267305
0.337332
0.388906
0.426214
0.452518
0.470465
0.481495
0.486126
0.486659
-0.652377
-0.640721
-0.596645
-0.529338
-0.45099
-0.364982
-0.271681
-0.171373
-0.0643235
0.0494222
0.164429
0.262906
0.336972
0.392622
0.43367
0.46281
0.482192
0.493256
0.497314
0.497527
-0.671617
-0.659727
-0.615177
-0.547271
-0.46824
-0.381481
-0.287338
-0.186065
-0.0778005
0.0376193
0.155075
0.256932
0.334888
0.394736
0.440156
0.47318
0.494815
0.505647
0.508286
0.507895
-0.690096
-0.677971
-0.633005
-0.56456
-0.484931
-0.397561
-0.302745
-0.200716
-0.0915249
0.0251794
0.144615
0.249352
0.330881
0.394764
0.444914
0.483127
0.508844
0.520104
0.519695
0.517289
-0.707852
-0.695533
-0.650088
-0.581158
-0.501027
-0.413162
-0.317823
-0.215242