/*--------------------------------*- C++ -*----------------------------------*\
| =========                 |                                                 |
| \\      /  F ield         | OpenFOAM: The Open Source CFD Toolbox           |
|  \\    /   O peration     | Version:  2112                                  |
|   \\  /    A nd           | Website:  www.openfoam.com                      |
|    \\/     M anipulation  |                                                 |
\*---------------------------------------------------------------------------*/
FoamFile
{
    version     2.0;
    format      ascii;
    arch        "LSB;label=32;scalar=64";
    class       surfaceScalarField;
    location    "15.5";
    object      phi;
}
// * * * * * * * * * * * * * * * * * * * * * * * * * * * * * * * * * * * * * //

dimensions      [0 3 -1 0 0 0 0];

oriented        oriented;

internalField   nonuniform List<scalar> 
17370
(
-0.0916027
0.0960181
0.284595
-0.0776077
0.0594332
0.36495
-0.0430391
0.0315915
0.427616
-0.0222578
0.0161843
0.505325
-0.0115814
0.00871389
0.60227
-0.00651893
0.00504661
0.72053
-0.00381817
0.00294629
0.863778
-0.00218941
0.00163186
1.03601
-0.00112542
0.000721322
1.24291
-0.000320766
-4.51785e-05
1.49156
0.000415809
-0.00082426
1.4916
0.00122521
-0.00172714
1.24319
0.00228004
-0.00303073
1.03639
0.00389578
-0.00511667
0.864127
0.00658172
-0.00876878
0.721245
0.011629
-0.0162215
0.603807
0.0222845
-0.0316066
0.508761
0.0430427
-0.0594296
0.432555
0.0776052
-0.0960157
0.365186
0.0916109
0.1974
-0.127119
0.0880663
0.0390523
-0.364388
0.354062
-0.0714347
0.0817609
-0.446633
0.454275
-0.0791685
0.0715263
-0.521021
0.529115
-0.063665
0.0555708
-0.613019
0.620772
-0.0482064
0.0404528
-0.727164
0.733737
-0.0338301
0.0272574
-0.86754
0.872423
-0.0219971
0.0171137
-1.03853
1.04183
-0.0134204
0.0101204
-1.24468
1.24703
-0.0076157
0.0052715
-1.4928
1.49471
-0.00337951
0.00146918
-1.49265
1.49438
0.000272849
-0.00200317
-1.24408
1.24595
0.00389591
-0.00576458
-1.03759
1.04006
0.00807576
-0.0105483
-0.866161
0.869827
0.0138155
-0.0174817
-0.724591
0.729822
0.0223372
-0.0275689
-0.609111
0.615699
0.0341054
-0.0406931
-0.515152
0.522487
0.0484129
-0.055748
-0.439869
0.447692
0.0638022
-0.0716247
-0.374747
0.377352
0.0792107
-0.0818157
-0.256964
0.224554
0.0714779
-0.0390678
-0.0688952
0.0593272
0.00956797
-0.0518639
0.0586134
-0.37488
0.36813
-0.0576941
0.0537693
-0.453945
0.45787
-0.0481874
0.0435528
-0.527594
0.532229
-0.038948
0.0350209
-0.620781
0.624708
-0.0308425
0.0269407
-0.734657
0.738559
-0.0227206
0.0189706
-0.873934
0.877684
-0.0150843
0.0117655
-1.04327
1.04659
-0.00839372
0.00548156
-1.24848
1.25139
-0.00238532
-0.000514201
-1.49673
1.49963
0.00340243
-0.00646136
-1.49721
1.50027
0.00933097
-0.0126473
-1.24997
1.25328
0.0159087
-0.0197246
-1.04566
1.04947
0.0234106
-0.0275599
-0.877207
0.881356
0.0314027
-0.0355274
-0.739043
0.743168
0.0394049
-0.0439584
-0.62603
0.630583
0.0485537
-0.0540987
-0.535053
0.540598
0.057982
-0.0588543
-0.458186
0.459059
0.0520401
-0.0318345
-0.336978
0.316772
0.0095999
-0.0688152
0.0592153
-0.0535916
0.0495614
0.00403014
-0.0327143
0.0429622
-0.358803
0.348555
-0.0465714
0.0460033
-0.459724
0.460292
-0.0431339
0.0399601
-0.536253
0.539427
-0.0362912
0.03294
-0.628377
0.631729
-0.0293134
0.0260968
-0.741878
0.745094
-0.0226673
0.0195351
-0.881054
0.884186
-0.016061
0.0128455
-1.04988
1.0531
-0.00932666
0.00611839
-1.25452
1.25773
-0.00258417
-0.000754328
-1.50284
1.50618
0.00407876
-0.00756757
-1.50363
1.50712
0.0107097
-0.0141449
-1.25672
1.26015
0.0172773
-0.0206569
-1.05305
1.05643
0.023702
-0.0270359
-0.884891
0.888225
0.0301704
-0.0337148
-0.746855
0.7504
0.0370014
-0.0406018
-0.634782
0.638382
0.0437141
-0.0465143
-0.544868
0.547668
0.0470124
-0.0433098
-0.457306
0.453604
0.0329521
-0.0160047
-0.297722
0.280775
0.00406616
-0.0534492
0.049383
-0.0464861
0.0440452
0.00244092
-0.0221329
0.0320794
-0.338216
0.32827
-0.0375283
0.0383746
-0.46001
0.459164
-0.0371268
0.0349239
-0.541917
0.54412
-0.032439
0.0300178
-0.634651
0.637072
-0.0271429
0.0243773
-0.748189
0.750955
-0.0212512
0.0183822
-0.887217
0.890086
-0.0152295
0.0123312
-1.05615
1.05905
-0.00908061
0.00599678
-1.2609
1.26399
-0.00244065
-0.00103531
-1.50961
1.51308
0.00448503
-0.00797566
-1.51064
1.51413
0.0109753
-0.014112
-1.26345
1.26658
0.0168964
-0.0199191
-1.05962
1.06264
0.0226672
-0.0256635
-0.891492
0.894489
0.0283101
-0.0310622
-0.753671
0.756423
0.0333764
-0.0357604
-0.641286
0.64367
0.0378871
-0.0390395
-0.549451
0.550604
0.0380967
-0.0325109
-0.448706
0.44312
0.0224171
-0.00980648
-0.266061
0.25345
0.00248212
-0.0462693
0.0437872
-0.0420776
0.0404763
0.00160132
-0.0153589
0.0238897
-0.318967
0.310437
-0.0299154
0.0317628
-0.457816
0.455968
-0.0312084
0.0294771
-0.546131
0.547862
-0.0272879
0.0252755
-0.639204
0.641217
-0.023106
0.0210757
-0.753295
0.755325
-0.0187133
0.0163951
-0.892691
0.89501
-0.0136785
0.0110667
-1.0618
1.06441
-0.00807014
0.00520332
-1.26696
1.26983
-0.00187497
-0.00138465
-1.51649
1.51975
0.00461176
-0.00784911
-1.51752
1.52076
0.0106004
-0.0134476
-1.26957
1.27242
0.0159095
-0.0184504
-1.06543
1.06797
0.0206072
-0.0227888
-0.897069
0.89925
0.0246607
-0.0266919
-0.758709
0.76074
0.0285681
-0.030626
-0.645861
0.647919
0.032233
-0.0326428
-0.551375
0.551785
0.0306426
-0.024421
-0.437114
0.430893
0.0157021
-0.00656775
-0.242705
0.23357
0.00165263
-0.041772
0.0401194
-0.0391561
0.0380644
0.00109178
-0.0105328
0.0172872
-0.302762
0.296008
-0.0230848
0.0256084
-0.453726
0.451202
-0.025823
0.02488
-0.549224
0.550167
-0.0232684
0.0217352
-0.643038
0.644571
-0.0199953
0.0183209
-0.757154
0.758829
-0.0163721
0.0144447
-0.897087
0.899014
-0.0121506
0.0098541
-1.06688
1.06917
-0.00711684
0.0044231
-1.27262
1.27531
-0.00128273
-0.00176109
-1.52289
1.52594
0.00476862
-0.00779352
-1.52389
1.52691
0.0103306
-0.0128567
-1.27512
1.27765
0.0149413
-0.017001
-1.07025
1.07231
0.0187144
-0.0204438
-0.901152
0.902882
0.021936
-0.0234809
-0.762543
0.764088
0.0248549
-0.026303
-0.649718
0.651166
0.0270898
-0.0266968
-0.551797
0.551404
0.0239762
-0.017929
-0.424672
0.418625
0.0109452
-0.00449385
-0.225839
0.219388
0.00115424
-0.0387438
0.0375895
-0.0371973
0.0365687
0.000628679
-0.00622885
0.0109572
-0.29024
0.285511
-0.0159104
0.0187614
-0.448465
0.445614
-0.0198013
0.0197322
-0.550656
0.550725
-0.0188763
0.0178599
-0.645812
0.646829
-0.0165227
0.0151365
-0.760401
0.761787
-0.0134499
0.0117722
-0.900839
0.902516
-0.00977653
0.00781489
-1.0713
1.07326
-0.00548056
0.0031707
-1.27783
1.28014
-0.000424719
-0.00227882
-1.52883
1.53153
0.00493582
-0.00753411
-1.52976
1.53236
0.00964073
-0.0117135
-1.27996
1.28204
0.0134186
-0.015118
-1.07421
1.07591
0.0165381
-0.0179607
-0.904498
0.90592
0.0190883
-0.0201227
-0.765369
0.766404
0.0209013
-0.0215295
-0.652196
0.652824
0.0213719
-0.0200723
-0.550555
0.549255
0.0169566
-0.0116986
-0.41289
0.407632
0.00670754
-0.00267727
-0.214173
0.210143
0.000704095
-0.0366531
0.035949
-0.036171
0.0359696
0.000201355
-0.0027779
0.00555003
-0.281819
0.279047
-0.00907211
0.0115436
-0.44285
0.440378
-0.0128404
0.013108
-0.550532
0.550264
-0.0127067
0.0120945
-0.647644
0.648257
-0.0113372
0.0105376
-0.762877
0.763677
-0.0094918
0.00836957
-0.903949
0.905072
-0.00694315
0.00544352
-1.07502
1.07652
-0.00360047
0.00171864
-1.28224
1.28412
0.000577425
-0.00288932
-1.53404
1.53636
0.00512827
-0.00722384
-1.5347
1.5368
0.00885553
-0.010367
-1.28384
1.28536
0.0115218
-0.012552
-1.07731
1.07834
0.0132849
-0.0138866
-0.90693
0.907532
0.0143504
-0.0148268
-0.767164
0.767641
0.0151843
-0.0152784
-0.653153
0.653248
0.0147438
-0.013136
-0.547684
0.546076
0.0103494
-0.00646364
-0.403026
0.39914
0.0033733
-0.00122512
-0.207165
0.205017
0.000294328
-0.035469
0.0351747
-0.0359043
0.0359037
6.07617e-07
-0.0011669
0.00283211
-0.276961
0.275295
-0.00527982
0.00720824
-0.438244
0.436316
-0.00835915
0.00870417
-0.549989
0.549644
-0.00870571
0.00844786
-0.64867
0.648927
-0.00796444
0.0074124
-0.764294
0.764847
-0.00667978
0.00586567
-0.905964
0.906778
-0.00477208
0.00358256
-1.0778
1.07899
-0.00204373
0.000423888
-1.28582
1.28744
0.00157589
-0.00357384
-1.53848
1.54048
0.0054943
-0.00727233
-1.53868
1.54046
0.00859931
-0.00974911
-1.28662
1.28777
0.0105548
-0.0112188
-1.0791
1.07976
0.0116801
-0.0120633
-0.907946
0.908329
0.012229
-0.0121772
-0.767825
0.767773
0.01196
-0.011589
-0.6531
0.652729
0.0108523
-0.00925496
-0.544514
0.542917
0.00690028
-0.00398536
-0.395855
0.39294
0.00191767
-0.000619597
-0.20342
0.202122
0.000118499
-0.0350024
0.0348839
-0.0359231
0.0359508
-2.77501e-05
-0.000714769
0.00200063
-0.273863
0.272577
-0.0041549
0.00615229
-0.434412
0.432415
-0.00768453
0.00837457
-0.54914
0.54845
-0.00846552
0.00837356
-0.649101
0.649193
-0.00810292
0.00763986
-0.765366
0.765829
-0.00691375
0.00604046
-0.907597
0.908471
-0.00482638
0.00346448
-1.08021
1.08158
-0.00168795
-0.000160065
-1.28912
1.29097
0.0023803
-0.004523
-1.54248
1.54462
0.00657291
-0.00849577
-1.54226
1.54418
0.00993802
-0.0111905
-1.28893
1.29018
0.0120364
-0.0126445
-1.08038
1.08099
0.0129103
-0.0129474
-0.908575
0.908612
0.0128656
-0.0126649
-0.767629
0.767429
0.0123943
-0.0117862
-0.652227
0.651619
0.0106543
-0.00860526
-0.541164
0.539115
0.00610769
-0.00339688
-0.39019
0.38748
0.00162553
-0.000545879
-0.200966
0.199886
0.000114002
-0.0347759
0.0346619
-0.035984
0.0360228
-3.88164e-05
-0.000380948
0.00138243
-0.271423
0.270421
-0.00338684
0.00568698
-0.430261
0.427961
-0.0080391
0.0095609
-0.547421
0.545899
-0.0104713
0.0107063
-0.649144
0.648909
-0.0105068
0.00991914
-0.766322
0.76691
-0.00895408
0.0077373
-0.909487
0.910703
-0.00605422
0.00422615
-1.08315
1.08498
-0.00193267
-0.000391929
-1.29304
1.29537
0.00315025
-0.00581013
-1.547
1.54966
0.00834448
-0.0107298
-1.54632
1.5487
0.012557
-0.0141673
-1.2916
1.29321
0.0153129
-0.0162469
-1.08174
1.08267
0.016797
-0.017068
-0.90874
0.909011
0.016875
-0.0163346
-0.767048
0.766507
0.0155683
-0.0139775
-0.650623
0.649032
0.0118359
-0.00878385
-0.536593
0.533541
0.0058377
-0.0031334
-0.384754
0.38205
0.00152375
-0.00055929
-0.198863
0.197898
0.000139913
-0.0345357
0.0343958
-0.036072
0.0361449
-7.28723e-05
8.79149e-05
0.000497796
-0.26961
0.269025
-0.00201673
0.00417084
-0.425648
0.423494
-0.00691168
0.00914416
-0.543951
0.541719
-0.0109089
0.0114978
-0.648538
0.647949
-0.0114301
0.0110095
-0.767438
0.767859
-0.00991117
0.00843556
-0.912083
0.913558
-0.00639594
0.00421405
-1.08702
1.0892
-0.00152594
-0.00116083
-1.29791
1.3006
0.00434684
-0.00741687
-1.55257
1.55564
0.0103132
-0.0130048
-1.55129
1.55398
0.0150476
-0.0169039
-1.295
1.29686
0.0182375
-0.0192683
-1.0837
1.08473
0.0198004
-0.0198728
-0.90923
0.909302
0.019607
-0.0188383
-0.765899
0.76513
0.0172521
-0.0145884
-0.646838
0.644174
0.011564
-0.00796729
-0.5301
0.526503
0.00503635
-0.00267212
-0.379467
0.377103
0.00134776
-0.000539137
-0.197009
0.1962
0.000151836
-0.0342482
0.0340963
-0.0362397
0.0363689
-0.000129219
0.000588585
-0.00052364
-0.268695
0.26863
-0.000229954
0.00164872
-0.42165
0.420231
-0.00380928
0.00584635
-0.539468
0.537431
-0.00768725
0.00881951
-0.64698
0.645847
-0.00911918
0.00864681
-0.768328
0.768801
-0.00757612
0.00616031
-0.915073
0.916489
-0.0041794
0.00204292
-1.0914
1.09354
0.000604715
-0.00325902
-1.30331
1.30597
0.00639216
-0.00938479
-1.55874
1.56173
0.0121666
-0.0146793
-1.55666
1.55918
0.0165476
-0.0181143
-1.29862
1.30019
0.0191258
-0.0198284
-1.08564
1.08634
0.0200616
-0.0199013
-0.909246
0.909086
0.0192287
-0.0176246
-0.763961
0.762357
0.0154891
-0.0125697
-0.641273
0.638354
0.00957164
-0.00638271
-0.523018
0.519829
0.00402264
-0.00222651
-0.375019
0.373223
0.00120453
-0.00052177
-0.195467
0.194784
0.000156549
-0.0339451
0.0337885
-0.0365227
0.0367102
-0.000187492
0.00108677
-0.00141647
-0.26873
0.26906
0.0014188
-0.000886666
-0.419255
0.418723
-0.000250612
0.00146111
-0.535822
0.534612
-0.00262739
0.00334913
-0.644962
0.64424
-0.00361645
0.00335624
-0.769143
0.769403
-0.00257576
0.0014453
-0.917732
0.918863
0.000204132
-0.00203157
-1.09549
1.09732
0.00432551
-0.00662689
-1.30845
1.31075
0.00930153
-0.0117805
-1.56449
1.56697
0.0139911
-0.0158457
-1.5614
1.56326
0.0170383
-0.0179742
-1.30149
1.30243
0.0184186
-0.0184933
-1.08672
1.0868
0.0181662
-0.0173591
-0.908589
0.907782
0.0161532
-0.0144012
-0.760605
0.758853
0.0123958
-0.00989676
-0.635622
0.633123
0.00752462
-0.00514541
-0.517058
0.514679
0.00343021
-0.00208314
-0.371686
0.370339
0.00122727
-0.000566347
-0.194132
0.193471
0.000175466
-0.0336306
0.0334551
-0.0369252
0.0371673
-0.000242099
0.00148187
-0.00214924
-0.269544
0.270212
0.00267133
-0.00283395
-0.418587
0.418749
0.00262257
-0.00223455
-0.533901
0.533513
0.00182472
-0.00164367
-0.643876
0.643695
0.00175565
-0.00217403
-0.769728
0.770146
0.00298454
-0.00402282
-0.91987
0.920908
0.00545628
-0.00700432
-1.09894
1.10048
0.00892376
-0.010808
-1.31279
1.31467
0.0129125
-0.0147589
-1.5691
1.57095
0.0162695
-0.017365
-1.56476
1.56586
0.0178932
-0.0180151
-1.30292
1.30304
0.0178475
-0.0172616
-1.08647
1.08589
0.0164236
-0.0152069
-0.906722
0.905505
0.0138505
-0.0121339
-0.757107
0.75539
0.0103884
-0.00837338
-0.630915
0.6289
0.00656864
-0.0047891
-0.512679
0.5109
0.00345363
-0.00228698
-0.369128
0.367961
0.00143063
-0.000685108
-0.192792
0.192046
0.000216428
-0.0332746
0.0330582
-0.0374509
0.0377567
-0.000305811
0.00190928
-0.00283735
-0.271018
0.271946
0.0037645
-0.00440361
-0.419162
0.419801
0.00482504
-0.0050806
-0.533619
0.533874
0.00535777
-0.00573308
-0.643908
0.644283
0.00635241
-0.00713015
-0.770689
0.771467
0.00820923
-0.00937763
-0.921875
0.923044
0.0108306
-0.0122848
-1.10189
1.10334
0.0139854
-0.0155631
-1.31632
1.3179
0.017196
-0.0184742
-1.57246
1.57374
0.0193308
-0.0196753
-1.56662
1.56697
0.0195402
-0.0190594
-1.30282
1.30234
0.0183544
-0.0173043
-1.08493
1.08388
0.0161262
-0.0146706
-0.904091
0.902636
0.0132297
-0.0115645
-0.753683
0.752018
0.00999436
-0.00826965
-0.627112
0.625387
0.00675507
-0.0052236
-0.50936
0.507828
0.00397823
-0.00275911
-0.36683
0.365611
0.001774
-0.000863555
-0.191254
0.190344
0.000275924
-0.0328394
0.0325635
-0.0381203
0.038506
-0.000385753
0.00242601
-0.00363821
-0.273058
0.27427
0.00491104
-0.00592337
-0.420713
0.421726
0.00682301
-0.00756832
-0.534579
0.535324
0.00843073
-0.00935174
-0.645025
0.645946
0.0105089
-0.0117029
-0.772357
0.773551
0.0131598
-0.0146052
-0.924167
0.925613
0.0162831
-0.0178526
-1.1047
1.10627
0.0195474
-0.0209863
-1.31929
1.32073
0.0223165
-0.0231667
-1.57473
1.57558
0.0234946
-0.0232438
-1.56701
1.56675
0.0225833
-0.0215376
-1.30156
1.30051
0.0203428
-0.0188665
-1.08252
1.08104
0.0174012
-0.0157307
-0.900978
0.899307
0.0141806
-0.0124812
-0.750289
0.748589
0.0109403
-0.00928026
-0.623776
0.622116
0.0078095
-0.00625461
-0.506441
0.504886
0.00488369
-0.00343469
-0.364405
0.362956
0.00221797
-0.00108224
-0.189381
0.188245
0.000345848
-0.0322935
0.0319477
-0.038973
0.0394677
-0.000494666
0.00309574
-0.00465583
-0.275727
0.277287
0.00633949
-0.00774704
-0.423084
0.424492
0.00910244
-0.0102779
-0.536543
0.537718
0.0116323
-0.0130254
-0.647157
0.64855
0.0147262
-0.016415
-0.774855
0.776544
0.0183911
-0.0202547
-0.927021
0.928885
0.0222972
-0.0240985
-1.10774
1.10954
0.0259252
-0.0273592
-1.32203
1.32346
0.0285314
-0.0290783
-1.5762
1.57675
0.0289811
-0.0282286
-1.56623
1.56547
0.0270952
-0.0255069
-1.29916
1.29757
0.0238532
-0.0219208
-1.07926
1.07733
0.020118
-0.0181522
-0.897365
0.895399
0.0163943
-0.0145233
-0.746698
0.744827
0.0128571
-0.0110664
-0.62045
0.61866
0.00944762
-0.00766831
-0.503438
0.501658
0.00604871
-0.00429798
-0.361559
0.359808
0.00278854
-0.00135575
-0.187056
0.185623
0.000432079
-0.031609
0.031177
-0.0400654
0.0407241
-0.000658717
0.00405314
-0.00609056
-0.279162
0.2812
0.00830639
-0.0101722
-0.426292
0.428158
0.0119956
-0.0136025
-0.539456
0.541063
0.0154564
-0.0173511
-0.650279
0.652174
0.0196549
-0.0219134
-0.778281
0.78054
0.0244803
-0.0268203
-0.930668
0.933008
0.0293106
-0.0314404
-1.11128
1.11341
0.0335149
-0.0350498
-1.3248
1.32633
0.0361657
-0.03648
-1.57709
1.57741
0.0359966
-0.0347303
-1.56443
1.56316
0.0330948
-0.0309535
-1.29569
1.29355
0.0288124
-0.0263768
-1.07509
1.07265
0.0241502
-0.0217712
-0.893076
0.890697
0.0196833
-0.017498
-0.742631
0.740446
0.0155721
-0.0135045
-0.616765
0.614697
0.0116104
-0.00948888
-0.499998
0.497877
0.00752573
-0.00535972
-0.35809
0.355924
0.00348287
-0.00169324
-0.184157
0.182367
0.000538011
-0.0307594
0.0302214
-0.0414884
0.0423812
-0.000892737
0.00540303
-0.00809972
-0.28359
0.286287
0.0110246
-0.0134689
-0.430487
0.432931
0.0158511
-0.0179627
-0.543383
0.545494
0.0204202
-0.0229224
-0.65448
0.656982
0.0259284
-0.028816
-0.782807
0.785694
0.0320306
-0.034921
-0.935311
0.938201
0.0379532
-0.0404967
-1.11552
1.11806
0.0429016
-0.04459
-1.32778
1.32946
0.0456754
-0.0457538
-1.5775
1.57758
0.0448574
-0.0430282
-1.56157
1.55974
0.0408297
-0.0380537
-1.29107
1.2883
0.0353382
-0.0322919
-1.06986
1.06681
0.0295349
-0.0266138
-0.887882
0.884961
0.024072
-0.0214368
-0.73781
0.735175
0.0191323
-0.0166674
-0.612418
0.609953
0.014394
-0.0118089
-0.495862
0.493277
0.00938414
-0.00668393
-0.353807
0.351107
0.00433718
-0.00210402
-0.180541
0.178308
0.000667342
-0.0297076
0.0290402
-0.0433748
0.0445985
-0.00122369
0.00731063
-0.0109073
-0.289332
0.292929
0.0147462
-0.0179009
-0.435941
0.439095
0.0209531
-0.0236813
-0.548524
0.551252
0.0268995
-0.0301653
-0.659964
0.663229
0.0340314
-0.0376873
-0.78864
0.792296
0.0417057
-0.0452741
-0.94112
0.944688
0.0489604
-0.0519829
-1.1206
1.12362
0.054742
-0.0565687
-1.33104
1.33287
0.0575712
-0.0573354
-1.57739
1.57715
0.0559285
-0.0534225
-1.55753
1.55502
0.0505519
-0.0470165
-1.28511
1.28158
0.0436088
-0.0398211
-1.06333
1.05954
0.036413
-0.0328158
-0.881518
0.877921
0.0296973
-0.0264797
-0.731961
0.728743
0.0236807
-0.0206994
-0.607145
0.604164
0.0179413
-0.014778
-0.490779
0.487616
0.0117393
-0.00836242
-0.348486
0.345109
0.00542033
-0.00262598
-0.176052
0.173258
0.000830956
-0.0284157
0.0275848
-0.0459249
0.0476516
-0.00172671
0.0100977
-0.014919
-0.296878
0.301699
0.0199127
-0.0239471
-0.443064
0.447099
0.0278453
-0.0313857
-0.555217
0.558758
0.0355937
-0.0398268
-0.667046
0.671279
0.0447663
-0.0493679
-0.796031
0.800633
0.0543517
-0.0587025
-0.948287
0.952637
0.0630979
-0.0666003
-1.12661
1.13011
0.0696713
-0.0715618
-1.33455
1.33644
0.0723626
-0.0716695
-1.57658
1.57588
0.0695937
-0.0662398
-1.55204
1.54868
0.0625464
-0.0580921
-1.27755
1.2731
0.0538498
-0.0491679
-1.05523
1.05055
0.0449736
-0.0405565
-0.873694
0.869277
0.036734
-0.0327981
-0.724798
0.720862
0.0293843
-0.025758
-0.600679
0.597052
0.0223931
-0.0185096
-0.484474
0.480591
0.0147399
-0.0104652
-0.341879
0.337605
0.00676255
-0.00325706
-0.170484
0.166979
0.00102208
-0.0268276
0.0258055
-0.0494522
0.0520131
-0.00256082
0.0145054
-0.021105
-0.306924
0.313524
0.0276333
-0.0327952
-0.45241
0.457571
0.0377904
-0.0424013
-0.56397
0.568581
0.0479011
-0.0533637
-0.676139
0.681601
0.0596048
-0.0652851
-0.805321
0.811001
0.0712965
-0.0764122
-0.956992
0.962107
0.0814337
-0.0852934
-1.13352
1.13738
0.0884977
-0.0902563
-1.33807
1.33983
0.0906118
-0.089224
-1.57472
1.57333
0.0862522
-0.081835
-1.54474
1.54032
0.0771446
-0.071597
-1.26806
1.26251
0.0663706
-0.0606367
-1.04525
1.03952
0.0555157
-0.0501283
-0.864112
0.858725
0.0454681
-0.0406731
-0.716028
0.711233
0.036522
-0.0321188
-0.592722
0.588318
0.0280153
-0.0232406
-0.47663
0.471855
0.0185467
-0.013168
-0.33356
0.328182
0.00845048
-0.00402296
-0.163581
0.159154
0.00124489
-0.0248864
0.0236415
-0.0545613
0.0585842
-0.00402284
0.0217687
-0.0309664
-0.320647
0.329845
0.0395733
-0.046199
-0.464873
0.471499
0.0526333
-0.0586683
-0.575474
0.581509
0.0658522
-0.0727913
-0.68773
0.694669
0.0804587
-0.0872173
-0.816726
0.823485
0.0941541
-0.0998695
-0.967137
0.972852
0.105258
-0.109176
-1.14099
1.14491
0.112132
-0.113387
-1.34112
1.34238
0.112888
-0.110449
-1.57127
1.56883
0.106275
-0.100535
-1.53516
1.52942
0.0946594
-0.0878491
-1.25628
1.24947
0.0815079
-0.0745929
-1.03309
1.02618
0.0684332
-0.0619509
-0.852489
0.846007
0.0563351
-0.0505498
-0.705362
0.699576
0.0455466
-0.0402446
-0.582946
0.577644
0.0352648
-0.0294059
-0.466827
0.460968
0.0235291
-0.0167126
-0.323097
0.31628
0.0106891
-0.00504275
-0.154955
0.149308
0.00153634
-0.0225243
0.020988
-0.0623875
0.0696236
-0.00723612
0.0353871
-0.0486909
-0.34033
0.353634
0.0601994
-0.0685098
-0.481631
0.489941
0.0765625
-0.0843198
-0.590403
0.59816
0.0933442
-0.101625
-0.702085
0.710366
0.110359
-0.11775
-0.830056
0.837447
0.125043
-0.130781
-0.978179
0.983918
0.135891
-0.139266
-1.14826
1.15163
0.141349
-0.141535
-1.34288
1.34307
0.139631
-0.135676
-1.56546
1.56151
0.129933
-0.122591
-1.52277
1.51543
0.115339
-0.107125
-1.24189
1.23368
0.0995726
-0.0914059
-1.01852
1.01035
0.0841572
-0.0765381
-0.838618
0.830999
0.0699293
-0.0631046
-0.692564
0.685739
0.0571899
-0.0509057
-0.571035
0.564751
0.0449335
-0.0376888
-0.454525
0.447281
0.030292
-0.0216074
-0.309729
0.301044
0.0137916
-0.00641364
-0.144112
0.136734
0.00186763
-0.0196555
0.0177879
-0.0765644
0.0800192
-0.00345487
0.0247597
-0.0361356
-0.369862
0.381238
0.0463608
-0.0543679
-0.50345
0.511457
0.0633035
-0.0728793
-0.608548
0.618124
0.0835142
-0.0930538
-0.71836
0.727899
0.103695
-0.113107
-0.844077
0.853489
0.122876
-0.13125
-0.988721
0.997095
0.139566
-0.146213
-1.15393
1.16058
0.152099
-0.155896
-1.34211
1.3459
0.157823
-0.15703
-1.55634
1.55554
0.153392
-0.147313
-1.50699
1.50091
0.140215
-0.131235
-1.2246
1.21562
0.122477
-0.112004
-1.00141
0.990941
0.102436
-0.0919641
-0.822462
0.811991
0.082652
-0.0728111
-0.677622
0.667781
0.0638716
-0.054546
-0.556811
0.547486
0.0460798
-0.0357408
-0.439155
0.428816
0.0259784
-0.0160944
-0.292308
0.282423
0.00866085
-0.0031565
-0.130075
0.124571
0.000589902
-0.0162468
0.0156569
-0.0871768
0.0841896
0.00298726
0.0020694
-0.00866687
-0.39541
0.402007
0.0166422
-0.0232557
-0.524312
0.530926
0.0317733
-0.0402077
-0.628224
0.636659
0.0498575
-0.0586646
-0.737383
0.74619
0.0680414
-0.0765396
-0.862433
0.870931
0.0853766
-0.0926751
-1.00519
1.01249
0.100139
-0.105788
-1.16706
1.17271
0.110764
-0.113713
-1.34945
1.3524
0.11459
-0.113037
-1.554
1.55245
0.108778
-0.102231
-1.49409
1.48754
0.0946714
-0.085398
-1.20618
1.19691
0.0764974
-0.0663453
-0.980174
0.970022
0.0568726
-0.0464103
-0.800582
0.79012
0.0371133
-0.0276414
-0.65576
0.646288
0.0195986
-0.0113598
-0.535314
0.527075
0.00437641
0.00209947
-0.417079
0.410603
-0.00581814
0.00724711
-0.271289
0.26986
-0.00651518
0.00412165
-0.117965
0.120358
-0.00168193
-0.0142751
0.015957
-0.0867115
0.0833527
0.00335876
-0.00598552
0.00296387
-0.411781
0.414803
0.00211421
-0.00751968
-0.541403
0.546809
0.0145627
-0.021771
-0.645461
0.652669
0.0299893
-0.0375436
-0.7545
0.762054
0.0458178
-0.05318
-0.878799
0.886161
0.0606259
-0.0671431
-1.01966
1.02617
0.0736483
-0.0787007
-1.17801
1.18306
0.0827783
-0.0850301
-1.35479
1.35705
0.0856474
-0.0838929
-1.55039
1.54863
0.079672
-0.073443
-1.48066
1.47443
0.0664681
-0.0582216
-1.18783
1.17958
0.0500619
-0.0411002
-0.95988
0.950918
0.0328247
-0.023788
-0.780036
0.770999
0.016014
-0.00805833
-0.635943
0.627987
0.00150744
0.00506496
-0.516699
0.510126
-0.00996517
0.0137238
-0.401994
0.398235
-0.014858
0.0129104
-0.264504
0.266452
-0.00946153
0.00519032
-0.120273
0.124545
-0.00185476
-0.0162494
0.0181042
-0.0844535
0.081226
0.00322749
-0.00866331
0.00770623
-0.421989
0.422946
-0.00451059
0.000353213
-0.554877
0.559034
0.00573516
-0.0117615
-0.659762
0.665788
0.0187799
-0.0252489
-0.769345
0.775814
0.0323017
-0.0386145
-0.89311
0.899423
0.0454019
-0.050991
-1.03236
1.03794
0.0567835
-0.0608948
-1.18783
1.19195
0.0645556
-0.0665871
-1.35924
1.36127
0.0670153
-0.0651764
-1.54668
1.54484
0.0615385
-0.0562162
-1.46804
1.46272
0.0502415
-0.0429454
-1.17159
1.1643
0.0361324
-0.028757
-0.942231
0.934856
0.0218921
-0.0147702
-0.76252
0.755398
0.00836296
-0.00209133
-0.619538
0.613266
-0.00295095
0.00745902
-0.50217
0.497662
-0.0104434
0.0124933
-0.392028
0.389978
-0.0125813
0.0100413
-0.263359
0.265899
-0.00711128
0.0037666
-0.125274
0.128619
-0.00132442
-0.0185057
0.0198301
-0.0821984
0.0795206
0.00267782
-0.00890091
0.00920669
-0.428556
0.42825
-0.00672655
0.00344132
-0.565874
0.569159
0.00144656
-0.0068206
-0.671856
0.67723
0.0127093
-0.0183992
-0.78189
0.78758
0.0245134
-0.0300248
-0.905404
0.910915
0.0359163
-0.0409874
-1.04348
1.04855
0.0460319
-0.0499814
-1.19606
1.20001
0.0533126
-0.0552002
-1.36313
1.36502
0.0556932
-0.0541512
-1.54308
1.54154
0.0510606
-0.0463526
-1.45709
1.45238
0.0412638
-0.0352117
-1.15739
1.15133
0.0295043
-0.0232538
-0.927671
0.92142
0.0176919
-0.0118781
-0.748493
0.74268
0.00689478
-0.00197486
-0.606872
0.601952
-0.00182255
0.00509115
-0.491643
0.488374
-0.00726329
0.00850829
-0.385468
0.384223
-0.0082095
0.00640419
-0.263259
0.265065
-0.00443954
0.00229019
-0.128489
0.130639
-0.000860766
-0.0197899
0.0206506
-0.0803766
0.0781469
0.00222972
-0.00820267
0.00871592
-0.432803
0.43229
-0.00728374
0.00449806
-0.574505
0.577291
5.19678e-05
-0.00466405
-0.682177
0.68679
0.00978302
-0.0147662
-0.792755
0.797739
0.0202381
-0.0252075
-0.916194
0.921164
0.0306624
-0.0351943
-1.05342
1.05795
0.0398684
-0.0435869
-1.20379
1.20751
0.046737
-0.0485812
-1.36683
1.36867
0.0491677
-0.0482506
-1.54014
1.53922
0.0455747
-0.0416422
-1.4475
1.44357
0.0372236
-0.0319869
-1.1454
1.14017
0.0272967
-0.0218681
-0.915394
0.909966
0.0171337
-0.0123621
-0.7371
0.732329
0.00822304
-0.00413156
-0.597024
0.592933
0.000929163
0.0019802
-0.483728
0.480818
-0.0036042
0.00462647
-0.380511
0.379488
-0.00481677
0.00383134
-0.262306
0.263291
-0.0026629
0.00144205
-0.129513
0.130734
-0.000590322
-0.020253
0.0208433
-0.0790655
0.0773473
0.00171821
-0.00692091
0.00757446
-0.435846
0.435193
-0.00628453
0.0041162
-0.582163
0.584331
-2.52432e-05
-0.00415271
-0.691205
0.695383
0.00903759
-0.0133703
-0.802541
0.806874
0.0182301
-0.0226956
-0.926204
0.930669
0.0279401
-0.0321452
-1.06259
1.06679
0.0364217
-0.0400719
-1.21112
1.21477
0.0435429
-0.0454502
-1.37067
1.37257
0.0463628
-0.045693
-1.53812
1.53745
0.0437235
-0.0400714
-1.43961
1.43596
0.0363189
-0.0318121
-1.13496
1.13045
0.0275391
-0.02288
-0.904751
0.900092
0.018629
-0.0142095
-0.727433
0.723013
0.0107373
-0.0069877
-0.58861
0.58486
0.00396812
-0.00141666
-0.476849
0.474298
-0.000333899
0.00159703
-0.37615
0.374886
-0.00206364
0.00186297
-0.260524
0.260724
-0.0013876
0.00082794
-0.128996
0.129555
-0.000402971
-0.0202319
0.0206348
-0.0783413
0.0769854
0.00135586
-0.00562713
0.00636092
-0.438235
0.437501
-0.00513384
0.00293586
-0.58882
0.591018
0.000837346
-0.00458314
-0.699373
0.703119
0.00881505
-0.0130213
-0.811322
0.815528
0.0175555
-0.022186
-0.935043
0.939674
0.0267779
-0.0308604
-1.07116
1.07524
0.0353359
-0.0388421
-1.21838
1.22188
0.0419804
-0.044425
-1.37447
1.37692
0.0456875
-0.0454607
-1.53697
1.53674
0.043805
-0.0408423
-1.43259
1.42963
0.037487
-0.0333499
-1.1257
1.12157
0.0294656
-0.025107
-0.895356
0.890997
0.0211436
-0.0171394
-0.718631
0.714627
0.0135736
-0.0100739
-0.580838
0.577339
0.00726081
-0.00454037
-0.470713
0.467992
0.00258634
-0.00127479
-0.3715
0.370188
0.000361806
0.000208618
-0.257772
0.257202
-0.000417895
0.000410076
-0.127437
0.127445
-0.000285314
-0.0198858
0.0201711
-0.0781727
0.0770315
0.00114118
-0.00422285
0.00474569
-0.440463
0.43994
-0.00372235
0.0014395
-0.594889
0.597171
0.00204697
-0.00562986
-0.706997
0.71058
0.00969572
-0.013537
-0.819675
0.823517
0.0182089
-0.0221142
-0.943834
0.947739
0.0267122
-0.0306623
-1.07954
1.08349
0.0350835
-0.0388375
-1.22544
1.22919
0.0423262
-0.0446414
-1.37919
1.38151
0.0463303
-0.0465879
-1.53653
1.53678
0.0456188
-0.0429776
-1.42658
1.42394
0.0399981
-0.0361378
-1.11749
1.11363
0.0324828
-0.0282338
-0.88639
0.882141
0.0244707
-0.0204117
-0.71033
0.706271
0.0168781
-0.013304
-0.573482
0.569908
0.0103055
-0.007639
-0.464458
0.461791
0.00540552
-0.00369033
-0.36658
0.364864
0.0023263
-0.00124514
-0.254077
0.252995
0.000499373
7.07039e-05
-0.125001
0.124431
-0.000185757
-0.0192708
0.0194565
-0.0782726
0.0774572
0.000815353
-0.00301672
0.00310599
-0.442874
0.442785
-0.0022702
-1.08446e-05
-0.600262
0.602543
0.00323821
-0.00670224
-0.714103
0.717567
0.0106005
-0.0145745
-0.827342
0.831316
0.01868
-0.0227556
-0.951909
0.955985
0.0273407
-0.0311183
-1.08791
1.09169
0.0356649
-0.0394197
-1.23282
1.23657
0.0430264
-0.0459179
-1.38428
1.38717
0.0481628
-0.0487666
-1.53715
1.53776
0.0480665
-0.0460578
-1.42144
1.41943
0.0434751
-0.0397806
-1.10955
1.10585
0.0361717
-0.0322018
-0.877679
0.873709
0.0281328
-0.0241821
-0.701876
0.697925
0.020571
-0.0167871
-0.566175
0.562391
0.0137607
-0.0107259
-0.458035
0.455001
0.00828957
-0.00600841
-0.361338
0.359057
0.00436603
-0.0027739
-0.249604
0.248011
0.00138281
-0.000312165
-0.121862
0.120792
-8.34641e-05
-0.0184333
0.0185168
-0.0787626
0.0780965
0.000666037
-0.00204298
0.00214632
-0.445491
0.445387
-0.000798323
-0.00137061
-0.60559
0.607759
0.00463976
-0.0079397
-0.720737
0.724037
0.0116858
-0.0152843
-0.835065
0.838664
0.0195156
-0.0232964
-0.960119
0.963899
0.0278435
-0.0320551
-1.09595
1.10017
0.0362829
-0.0403902
-1.24043
1.24454
0.0444524
-0.0474898
-1.39004
1.39308
0.050164
-0.0515779
-1.53864
1.54005
0.0513306
-0.0498823
-1.41731
1.41586
0.0473917
-0.043947
-1.10209
1.09865
0.0405166
-0.0364588
-0.86912
0.865062
0.032501
-0.0283765
-0.69336
0.689235
0.024625
-0.0205662
-0.558331
0.554273
0.0172101
-0.013976
-0.451239
0.448005
0.0110906
-0.00843692
-0.355307
0.352653
0.00632156
-0.00420942
-0.24426
0.242148
0.00237425
-0.000799795
-0.11803
0.116455
7.65485e-05
-0.017428
0.0173514
-0.0794959
0.0789836
0.000512306
-0.00101854
0.000880262
-0.448241
0.448379
0.00033524
-0.00271765
-0.610564
0.612946
0.00584071
-0.00896807
-0.72709
0.730218
0.0127802
-0.0162291
-0.842305
0.845754
0.0203105
-0.0242094
-0.968184
0.972083
0.0286667
-0.0328517
-1.10428
1.10846
0.037306
-0.0414585
-1.24862
1.25277
0.045737
-0.0495461
-1.39646
1.40027
0.0527202
-0.0544883
-1.5415
1.54326
0.0549587
-0.0538389
-1.41435
1.41323
0.0518463
-0.0487927
-1.09512
1.09207
0.0452423
-0.0411462