/*--------------------------------*- C++ -*----------------------------------*\
| =========                 |                                                 |
| \\      /  F ield         | OpenFOAM: The Open Source CFD Toolbox           |
|  \\    /   O peration     | Version:  2112                                  |
|   \\  /    A nd           | Website:  www.openfoam.com                      |
|    \\/     M anipulation  |                                                 |
\*---------------------------------------------------------------------------*/
FoamFile
{
    version     2.0;
    format      ascii;
    arch        "LSB;label=32;scalar=64";
    class       volVectorField;
    location    "15.5";
    object      U;
}
// * * * * * * * * * * * * * * * * * * * * * * * * * * * * * * * * * * * * * //

dimensions      [0 1 -1 0 0 0 0];

internalField   nonuniform List<vector> 
8800
(
(0.980075 -0.0915149 0)
(1.00235 -0.0587537 0)
(0.999607 -0.0321126 0)
(0.999981 -0.0164568 0)
(1.00002 -0.00876101 0)
(1.00006 -0.00504319 0)
(1.00007 -0.00295287 0)
(1.00005 -0.00166858 0)
(1.00003 -0.000809112 0)
(1.00005 -0.000130829 0)
(1.00002 0.000541102 0)
(1.00004 0.00129039 0)
(1.00006 0.00231867 0)
(1.00007 0.00393485 0)
(1.00003 0.00666242 0)
(1.00002 0.0119555 0)
(0.999873 0.02305 0)
(0.999121 0.0431652 0)
(1.00715 0.0790472 0)
(0.775009 0.0478413 0)
(0.359112 -0.0147414 0)
(1.04658 -0.0723898 0)
(1.08848 -0.0659374 0)
(1.04949 -0.0508737 0)
(1.02561 -0.0376849 0)
(1.01275 -0.0258552 0)
(1.00649 -0.0165557 0)
(1.00356 -0.0100812 0)
(1.00213 -0.00553663 0)
(1.00147 -0.00208142 0)
(1.00135 0.000988513 0)
(1.00171 0.00415482 0)
(1.00269 0.00800538 0)
(1.00473 0.0133313 0)
(1.00902 0.0211255 0)
(1.0181 0.0317241 0)
(1.03596 0.0444894 0)
(1.06748 0.0579163 0)
(1.09485 0.0700817 0)
(0.845923 0.0554674 0)
(0.218153 -0.00136304 0)
(1.07592 -0.0503609 0)
(1.09953 -0.0485658 0)
(1.06438 -0.0394796 0)
(1.03979 -0.0319054 0)
(1.02363 -0.0247653 0)
(1.01387 -0.0177739 0)
(1.00833 -0.0114072 0)
(1.00549 -0.00589222 0)
(1.0044 -0.000781392 0)
(1.0047 0.00419276 0)
(1.00654 0.00934164 0)
(1.01052 0.0151703 0)
(1.01789 0.0217693 0)
(1.03052 0.0287614 0)
(1.05061 0.035935 0)
(1.08029 0.0439075 0)
(1.10612 0.0514567 0)
(0.944088 0.0407838 0)
(0.217823 0.00137633 0)
(0.17742 -0.000605899 0)
(1.02035 -0.0349037 0)
(1.10615 -0.0407403 0)
(1.07832 -0.0358113 0)
(1.05242 -0.0297745 0)
(1.03497 -0.0238958 0)
(1.02311 -0.0181694 0)
(1.01536 -0.0123643 0)
(1.01079 -0.00656807 0)
(1.0088 -0.000753127 0)
(1.00937 0.00495384 0)
(1.01249 0.0106087 0)
(1.01846 0.0162826 0)
(1.02805 0.02187 0)
(1.04241 0.0274872 0)
(1.06358 0.0333635 0)
(1.09464 0.0392497 0)
(1.0955 0.0408488 0)
(0.832586 0.0223172 0)
(0.176865 0.00061704 0)
(0.156165 -0.000443297 0)
(0.96063 -0.0247166 0)
(1.10468 -0.0336538 0)
(1.08769 -0.0312127 0)
(1.06095 -0.0269785 0)
(1.04281 -0.0221817 0)
(1.03032 -0.0170503 0)
(1.02169 -0.0118551 0)
(1.01612 -0.00646348 0)
(1.01346 -0.000590649 0)
(1.01421 0.00534563 0)
(1.01813 0.0107827 0)
(1.02504 0.0158387 0)
(1.03535 0.0207855 0)
(1.05031 0.0255962 0)
(1.07224 0.029882 0)
(1.10153 0.0336939 0)
(1.07186 0.0322792 0)
(0.747651 0.0136962 0)
(0.155346 0.000454739 0)
(0.142542 -0.000299111 0)
(0.906913 -0.0176019 0)
(1.09819 -0.0275554 0)
(1.09591 -0.0264213 0)
(1.06815 -0.0227187 0)
(1.0491 -0.0191023 0)
(1.03601 -0.0151302 0)
(1.02692 -0.0106418 0)
(1.021 -0.00569544 0)
(1.01818 -0.000194615 0)
(1.01887 0.00535744 0)
(1.02297 0.0103448 0)
(1.03019 0.0147938 0)
(1.04095 0.0187244 0)
(1.05658 0.0221936 0)
(1.07974 0.02557 0)
(1.10469 0.0285066 0)
(1.04294 0.0252637 0)
(0.68563 0.00907564 0)
(0.141399 0.000313759 0)
(0.133364 -0.000223456 0)
(0.86261 -0.0122535 0)
(1.08733 -0.0218827 0)
(1.10124 -0.0221554 0)
(1.07417 -0.0194261 0)
(1.0541 -0.0165506 0)
(1.04045 -0.0133486 0)
(1.03104 -0.00950205 0)
(1.02492 -0.00495795 0)
(1.02191 0.000229819 0)
(1.02255 0.00541031 0)
(1.02667 0.00999938 0)
(1.03403 0.0138191 0)
(1.04517 0.0169313 0)
(1.06157 0.0196074 0)
(1.08563 0.0221057 0)
(1.10463 0.0237863 0)
(1.01299 0.0191885 0)
(0.641003 0.00611629 0)
(0.131832 0.000241781 0)
(0.127439 -0.000136435 0)
(0.829469 -0.00737665 0)
(1.07431 -0.0156429 0)
(1.10335 -0.0173082 0)
(1.07857 -0.0159282 0)
(1.05888 -0.0137196 0)
(1.04552 -0.010899 0)
(1.03622 -0.00760136 0)
(1.02996 -0.0037391 0)
(1.02667 0.000807476 0)
(1.02729 0.0053927 0)
(1.03145 0.00923364 0)
(1.03869 0.0123312 0)
(1.04952 0.0149296 0)
(1.06547 0.0169988 0)
(1.08925 0.0184076 0)
(1.10136 0.0184597 0)
(0.985558 0.0130172 0)
(0.611055 0.00359648 0)
(0.12543 0.000159484 0)
(0.124718 -2.57921e-05 0)
(0.808191 -0.00343552 0)
(1.06101 -0.00932953 0)
(1.10248 -0.0114292 0)
(1.08106 -0.0107503 0)
(1.06143 -0.00950008 0)
(1.04795 -0.00777963 0)
(1.03857 -0.00538379 0)
(1.03236 -0.00230979 0)
(1.02914 0.00149974 0)
(1.0295 0.00536321 0)
(1.03336 0.0083387 0)
(1.04043 0.010446 0)
(1.05126 0.0117959 0)
(1.0673 0.012632 0)
(1.0902 0.0132646 0)
(1.09502 0.0124942 0)
(0.963419 0.00751924 0)
(0.593892 0.00167807 0)
(0.122135 5.49247e-05 0)
(0.124209 2.64886e-05 0)
(0.796053 -0.00157277 0)
(1.05067 -0.00565143 0)
(1.10136 -0.00748122 0)
(1.08248 -0.00751451 0)
(1.06343 -0.00664297 0)
(1.05062 -0.00546569 0)
(1.04175 -0.00366043 0)
(1.03577 -0.00109332 0)
(1.03262 0.00223238 0)
(1.03269 0.00555094 0)
(1.03608 0.00798018 0)
(1.04255 0.00947085 0)
(1.05255 0.01026 0)
(1.06781 0.0106775 0)
(1.08971 0.0102104 0)
(1.08871 0.00902751 0)
(0.947531 0.00477368 0)
(0.584588 0.00089282 0)
(0.120889 7.96492e-06 0)
(0.124331 2.80251e-05 0)
(0.78778 -0.00102053 0)
(1.04151 -0.00461091 0)
(1.09935 -0.00712761 0)
(1.08302 -0.00732322 0)
(1.06471 -0.00690588 0)
(1.0522 -0.00564548 0)
(1.04378 -0.00363334 0)
(1.03818 -0.000676188 0)
(1.03504 0.00299859 0)
(1.03481 0.00653975 0)
(1.03763 0.00918406 0)
(1.0434 0.0107327 0)
(1.05295 0.0112978 0)
(1.06747 0.0110572 0)
(1.08803 0.0106032 0)
(1.08167 0.00860689 0)
(0.934298 0.00408584 0)
(0.577903 0.000776288 0)
(0.120126 1.37638e-05 0)
(0.124559 2.18728e-05 0)
(0.781122 -0.000600431 0)
(1.03114 -0.00397641 0)
(1.09515 -0.00786566 0)
(1.08286 -0.00927243 0)
(1.06611 -0.00892975 0)
(1.05462 -0.00728612 0)
(1.04687 -0.0044931 0)
(1.04152 -0.000674973 0)
(1.03822 0.00389152 0)
(1.03768 0.00827792 0)
(1.03995 0.0116215 0)
(1.04491 0.0137393 0)
(1.05323 0.0147751 0)
(1.06637 0.0144397 0)
(1.08472 0.0129429 0)
(1.07156 0.00913179 0)
(0.921199 0.00376033 0)
(0.571997 0.000763874 0)
(0.119249 2.9886e-05 0)
(0.124916 2.91915e-05 0)
(0.776475 -4.08782e-05 0)
(1.02003 -0.00261793 0)
(1.08732 -0.0071409 0)
(1.08157 -0.00999847 0)
(1.06759 -0.00985026 0)
(1.05777 -0.00801897 0)
(1.0508 -0.00462698 0)
(1.04563 -0.00016438 0)
(1.04216 0.00510204 0)
(1.04118 0.0101258 0)
(1.04286 0.0138618 0)
(1.0469 0.016307 0)
(1.05377 0.0172426 0)
(1.06469 0.0168793 0)
(1.07739 0.0140353 0)
(1.05778 0.00854503 0)
(0.908794 0.00316043 0)
(0.566879 0.000714716 0)
(0.118234 3.9544e-05 0)
(0.125595 3.77214e-05 0)
(0.774607 0.000608339 0)
(1.01119 -0.000693466 0)
(1.07826 -0.00428154 0)
(1.07827 -0.00721357 0)
(1.06876 -0.00772658 0)
(1.06118 -0.00602568 0)
(1.05495 -0.00272833 0)
(1.04989 0.00166213 0)
(1.04621 0.0068458 0)
(1.04468 0.0116629 0)
(1.04564 0.0150777 0)
(1.04862 0.0169489 0)
(1.05364 0.0174108 0)
(1.06139 0.0161589 0)
(1.06769 0.0123937 0)
(1.0438 0.00690984 0)
(0.898764 0.00255211 0)
(0.562637 0.00068167 0)
(0.117181 4.3383e-05 0)
(0.12667 5.39926e-05 0)
(0.775218 0.00111457 0)
(1.00651 0.00109035 0)
(1.07172 -0.000772049 0)
(1.07517 -0.00267876 0)
(1.0697 -0.0031039 0)
(1.06404 -0.00180394 0)
(1.0587 0.000926657 0)
(1.05384 0.00472453 0)
(1.04986 0.00914566 0)
(1.04761 0.0129648 0)
(1.04774 0.0151949 0)
(1.04939 0.016074 0)
(1.05245 0.015515 0)
(1.0565 0.0133702 0)
(1.05853 0.00977637 0)
(1.03264 0.00545506 0)
(0.891314 0.00229121 0)
(0.558828 0.000736021 0)
(0.116062 4.94084e-05 0)
(0.128149 7.02674e-05 0)
(0.778019 0.00161219 0)
(1.00581 0.00247715 0)
(1.06873 0.0020968 0)
(1.07385 0.00143959 0)
(1.07059 0.00163479 0)
(1.0664 0.00298067 0)
(1.0618 0.00535327 0)
(1.05707 0.00852826 0)
(1.05265 0.0119975 0)
(1.04954 0.0146273 0)
(1.04849 0.0156521 0)
(1.04879 0.0152744 0)
(1.05 0.013773 0)
(1.05163 0.011337 0)
(1.05108 0.00818068 0)
(1.02451 0.00488717 0)
(0.885354 0.00243837 0)
(0.554805 0.00088754 0)
(0.114754 6.17691e-05 0)
(0.130067 8.80994e-05 0)
(0.782584 0.00208319 0)
(1.00767 0.00357867 0)
(1.06894 0.00429723 0)
(1.0745 0.00476346 0)
(1.07224 0.00579926 0)
(1.0688 0.00758251 0)
(1.06459 0.00998059 0)
(1.05975 0.0127868 0)
(1.05466 0.0154696 0)
(1.05048 0.016961 0)
(1.04809 0.0167554 0)
(1.04699 0.0155318 0)
(1.04675 0.0133884 0)
(1.04688 0.0107838 0)
(1.045 0.00793821 0)
(1.0181 0.00517128 0)
(0.879654 0.00289957 0)
(0.550033 0.00111601 0)
(0.113129 7.972e-05 0)
(0.13251 0.000110749 0)
(0.788842 0.00264791 0)
(1.01181 0.00473197 0)
(1.0715 0.00622588 0)
(1.07702 0.00769247 0)
(1.07497 0.00959355 0)
(1.0717 0.0120044 0)
(1.06743 0.0147687 0)
(1.06213 0.0175561 0)
(1.05605 0.0197295 0)
(1.05052 0.020306 0)
(1.04677 0.0191319 0)
(1.04441 0.0170137 0)
(1.04299 0.0143814 0)
(1.04211 0.0115738 0)
(1.03948 0.00877876 0)
(1.01217 0.00609383 0)
(0.873442 0.00359985 0)
(0.544154 0.00139881 0)
(0.11109 9.9939e-05 0)
(0.135644 0.000142771 0)
(0.797026 0.00337854 0)
(1.01797 0.00613516 0)
(1.07603 0.00840735 0)
(1.08111 0.0106605 0)
(1.07889 0.0134668 0)
(1.07538 0.0167324 0)
(1.0706 0.0200932 0)
(1.06443 0.0230892 0)
(1.057 0.0249927 0)
(1.04986 0.024832 0)
(1.04462 0.0228146 0)
(1.04103 0.0198491 0)
(1.03864 0.0165921 0)
(1.03698 0.0134077 0)
(1.0338 0.0103846 0)
(1.00589 0.00743376 0)
(0.866198 0.00448852 0)
(0.536879 0.00175948 0)
(0.108536 0.000124243 0)
(0.139729 0.000193936 0)
(0.807686 0.00441705 0)
(1.02615 0.00804793 0)
(1.08236 0.0110966 0)
(1.08684 0.0141848 0)
(1.08417 0.0179984 0)
(1.08 0.0222233 0)
(1.07427 0.0263171 0)
(1.06675 0.0297168 0)
(1.05755 0.0315185 0)
(1.04851 0.0306929 0)
(1.04162 0.0277759 0)
(1.03677 0.0239239 0)
(1.03344 0.0198989 0)
(1.03111 0.0161145 0)
(1.02743 0.0126198 0)
(0.998674 0.00916986 0)
(0.857253 0.0055938 0)
(0.527886 0.00219826 0)
(0.105372 0.000153436 0)
(0.145124 0.000268192 0)
(0.821553 0.00588121 0)
(1.0368 0.0106712 0)
(1.09079 0.0146469 0)
(1.09445 0.0187483 0)
(1.09098 0.0237115 0)
(1.08571 0.0290017 0)
(1.0785 0.0339852 0)
(1.06914 0.0379269 0)
(1.05768 0.0396706 0)
(1.04637 0.0381354 0)
(1.03763 0.0342057 0)
(1.03141 0.0293131 0)
(1.02711 0.024326 0)
(1.0241 0.0197165 0)
(1.01989 0.0155327 0)
(0.989997 0.0113944 0)
(0.8462 0.00697762 0)
(0.516672 0.00273433 0)
(0.101466 0.000189631 0)
(0.152325 0.000372966 0)
(0.839466 0.00794935 0)
(1.05048 0.014225 0)
(1.10173 0.0192959 0)
(1.10434 0.0246955 0)
(1.09969 0.0310636 0)
(1.09283 0.0376732 0)
(1.0836 0.0437365 0)
(1.07176 0.048259 0)
(1.05743 0.0498629 0)
(1.04336 0.0474509 0)
(1.03248 0.0423078 0)
(1.02472 0.0361593 0)
(1.01932 0.0299911 0)
(1.01556 0.0243342 0)
(1.01073 0.0192492 0)
(0.9794 0.0142261 0)
(0.832447 0.00874655 0)
(0.502736 0.00340993 0)
(0.0966657 0.000235492 0)
(0.162123 0.000535322 0)
(0.862771 0.0109492 0)
(1.06814 0.019095 0)
(1.11592 0.0255297 0)
(1.11706 0.0326355 0)
(1.11073 0.0407659 0)
(1.1017 0.0489684 0)
(1.0897 0.0562005 0)
(1.07461 0.0612412 0)
(1.05671 0.0625134 0)
(1.03938 0.0589502 0)
(1.02602 0.0523153 0)
(1.01647 0.0446482 0)
(1.00977 0.0370509 0)
(1.00509 0.0301158 0)
(0.999473 0.0239113 0)
(0.966327 0.0177849 0)
(0.815578 0.0109813 0)
(0.485548 0.00423958 0)
(0.0908164 0.000286528 0)
(0.1758 0.000811939 0)
(0.89366 0.0156448 0)
(1.09125 0.026274 0)
(1.13444 0.0345015 0)
(1.13324 0.0438155 0)
(1.12439 0.0540825 0)
(1.11224 0.0639832 0)
(1.09656 0.0722597 0)
(1.0774 0.0775328 0)
(1.05525 0.0780732 0)
(1.03416 0.0729631 0)
(1.01798 0.0645125 0)
(1.00637 0.05505 0)
(0.998138 0.045763 0)
(0.992312 0.0373044 0)
(0.985663 0.0297541 0)
(0.950178 0.0222924 0)
(0.794798 0.0138236 0)
(0.46464 0.00527489 0)
(0.0837728 0.000340167 0)
(0.195612 0.0012954 0)
(0.935373 0.0232287 0)
(1.12198 0.037225 0)
(1.15877 0.0478937 0)
(1.15358 0.0599952 0)
(1.14076 0.0726225 0)
(1.12416 0.0840748 0)
(1.10372 0.0929802 0)
(1.07964 0.0978602 0)
(1.05258 0.0969965 0)
(1.02731 0.0898016 0)
(1.00803 0.0791791 0)
(0.994105 0.0676752 0)
(0.984099 0.0564876 0)
(0.976861 0.0462855 0)
(0.968819 0.0371676 0)
(0.930162 0.0281262 0)
(0.769124 0.0175595 0)
(0.439097 0.0066508 0)
(0.0753117 0.000407429 0)
(0.225067 0.00240729 0)
(0.99382 0.0368929 0)
(1.1625 0.0558039 0)
(1.18991 0.0694548 0)
(1.17826 0.0844603 0)
(1.1595 0.0988864 0)
(1.13688 0.11095 0)
(1.11051 0.11941 0)
(1.08073 0.122849 0)
(1.04828 0.119651 0)
(1.01853 0.109713 0)
(0.995949 0.0965545 0)
(0.979505 0.0828277 0)
(0.967456 0.0696494 0)
(0.95846 0.0576213 0)
(0.948461 0.0468257 0)
(0.905334 0.0359387 0)
(0.737282 0.0226396 0)
(0.408482 0.0085611 0)
(0.0656576 0.000452621 0)
(0.265965 0.00923406 -1.55764e-20)
(1.07216 0.0649314 -1.21713e-20)
(1.21133 0.0880497 3.48942e-21)
(1.22538 0.105007 0)
(1.20485 0.12111 1.83837e-35)
(1.17855 0.13528 -9.76369e-23)
(1.14882 0.146192 -8.57934e-22)
(1.11579 0.152795 0)
(1.07981 0.153794 4.0518e-35)
(1.04149 0.147587 -3.22859e-21)
(1.00679 0.134563 0)
(0.980371 0.118786 -4.78802e-21)
(0.960828 0.102895 -1.47364e-20)
(0.946083 0.0879064 -7.15969e-21)
(0.934543 0.0744332 -2.27012e-21)
(0.921544 0.0623802 -1.37887e-21)
(0.873434 0.0499755 0)
(0.696036 0.03286 9.93859e-22)
(0.371361 0.0145178 1.17932e-21)
(0.0567152 0.00185654 2.08846e-20)
(0.291909 0.0259262 -2.67823e-20)
(1.13473 0.110651 5.07848e-22)
(1.25403 0.136379 -1.58684e-21)
(1.25733 0.15398 0)
(1.22864 0.168519 3.0092e-21)
(1.19498 0.180845 2.10403e-21)
(1.15824 0.189812 -3.74229e-22)
(1.11848 0.194261 -4.76336e-21)
(1.07593 0.192848 0)
(1.03102 0.183944 1.36664e-20)
(0.990207 0.1683 1.54279e-20)
(0.958635 0.150437 5.02678e-21)
(0.934652 0.132968 2.01178e-20)
(0.915903 0.116696 2.98756e-20)
(0.900511 0.102186 0)
(0.882863 0.0893814 4.47863e-20)
(0.830039 0.075636 6.57429e-20)
(0.652575 0.0545167 7.34385e-20)
(0.345364 0.0284039 -8.53278e-20)
(0.0526421 0.00453441 -1.55909e-21)
(0.287395 0.0420008 0)
(1.17042 0.169296 -7.96074e-21)
(1.28622 0.197874 0)
(1.28227 0.212861 1.3306e-20)
(1.24723 0.223836 0)
(1.20723 0.232697 7.95931e-21)
(1.16423 0.238384 -7.0541e-23)
(1.1183 0.239667 -6.09013e-21)
(1.06966 0.235128 -1.54544e-21)
(1.01867 0.223164 6.52364e-21)
(0.972288 0.204943 3.63038e-20)
(0.936164 0.185376 -2.77631e-22)
(0.908372 0.166987 -1.5182e-20)
(0.88628 0.150408 -2.97437e-20)
(0.867907 0.135941 3.62305e-20)
(0.847953 0.123322 -6.52562e-20)
(0.797061 0.10934 -8.98997e-21)
(0.63779 0.0839526 0)
(0.35486 0.0473652 1.68468e-22)
(0.0598953 0.0085424 0)
(0.277546 0.0558472 -1.95968e-19)
(1.18676 0.230905 8.09508e-20)
(1.30657 0.263991 4.35918e-20)
(1.29852 0.276368 -8.54866e-21)
(1.25905 0.283432 1.31238e-20)
(1.21436 0.288232 -1.86944e-20)
(1.16636 0.290076 -1.08821e-21)
(1.11527 0.287659 0)
(1.0614 0.279575 -2.40314e-20)
(1.00509 0.26421 0)
(0.953964 0.243331 -1.83968e-20)
(0.914138 0.222188 -2.64603e-20)
(0.883482 0.203128 -1.70685e-20)
(0.859158 0.186496 -2.22217e-20)
(0.83911 0.172352 0)
(0.818538 0.16032 0)
(0.772168 0.146521 -6.05485e-20)
(0.630656 0.117782 1.21151e-20)
(0.364134 0.0693953 -7.06233e-21)
(0.0661647 0.0130715 -8.27012e-21)
(0.26791 0.0682112 1.4347e-19)
(1.19089 0.29187 0)
(1.31747 0.330786 -1.21037e-19)
(1.30716 0.341012 -3.17143e-20)
(1.26464 0.344302 -2.49546e-20)
(1.21653 0.34512 0)
(1.16468 0.343075 -4.78645e-21)
(1.1094 0.336871 4.55969e-21)
(1.05115 0.325065 9.96444e-21)
(0.990383 0.306151 3.33589e-20)
(0.935376 0.282427 0)
(0.8928 0.259504 -5.7647e-20)
(0.860302 0.239516 -3.7215e-20)
(0.834771 0.222596 -2.24929e-20)
(0.814013 0.208607 1.4881e-19)
(0.793756 0.196935 1.83249e-20)
(0.751706 0.182954 8.78245e-20)
(0.622129 0.150295 -4.25366e-19)
(0.366288 0.0897944 2.52832e-19)
(0.0687144 0.0171417 -3.05911e-19)
(0.259542 0.0792998 1.50574e-19)
(1.1873 0.350187 -2.80414e-20)
(1.32131 0.396383 2.11136e-20)
(1.30971 0.40491 5.78998e-20)
(1.26504 0.404688 3.62376e-20)
(1.21434 0.401812 1.645e-21)
(1.15952 0.396025 4.6087e-21)
(1.10091 0.386118 2.13524e-21)
(1.039 0.370665 -2.19747e-20)
(0.974537 0.348135 0)
(0.916372 0.321329 -2.45259e-20)
(0.871608 0.296314 -1.49127e-21)
(0.837765 0.275059 -4.17608e-20)
(0.811515 0.257484 0)
(0.790581 0.243174 -3.24795e-20)
(0.771031 0.23127 -7.92016e-20)
(0.73245 0.216462 2.19916e-19)
(0.610649 0.179477 -2.19516e-19)
(0.362666 0.107453 3.12183e-19)
(0.0687879 0.0205379 -3.25497e-19)
(0.252788 0.0895635 -4.34144e-22)
(1.17906 0.405379 3.40779e-20)
(1.31995 0.459678 1.00419e-19)
(1.30769 0.466967 -3.51849e-20)
(1.26146 0.463606 2.05992e-20)
(1.20878 0.457349 0)
(1.15157 0.448092 1.08575e-20)
(1.0902 0.434669 -3.96724e-22)
(1.0252 0.415673 -9.51368e-21)
(0.957419 0.389538 0)
(0.896508 0.359505 -2.36883e-20)
(0.850026 0.332093 -3.39614e-20)
(0.815308 0.309161 4.57269e-20)
(0.788767 0.290427 -2.94889e-20)
(0.767966 0.275311 -1.43167e-19)
(0.749155 0.26271 8.83199e-20)
(0.713054 0.246697 2.80814e-20)
(0.596338 0.205068 0)
(0.355057 0.122434 -3.03401e-19)
(0.0674236 0.0233154 -1.11492e-20)
(0.247495 0.0993143 2.44992e-20)
(1.16816 0.457308 -3.90521e-20)
(1.31478 0.520067 -5.4801e-20)
(1.30221 0.526535 -1.08552e-19)
(1.25477 0.520456 9.90586e-20)
(1.20054 0.511176 -5.47925e-20)
(1.14142 0.498744 -2.29966e-20)
(1.07775 0.482054 2.21489e-22)
(1.01008 0.459691 1.09857e-20)
(0.939368 0.430007 -8.11916e-20)
(0.876127 0.396654 -2.95305e-20)
(0.828227 0.36659 0)
(0.792803 0.341584 5.0061e-20)
(0.766076 0.321251 6.21778e-20)
(0.745473 0.304927 7.68492e-20)
(0.727319 0.291297 -9.64265e-20)
(0.692865 0.273594 -2.90895e-20)
(0.579695 0.227317 3.4538e-20)
(0.344554 0.134733 0)
(0.0650995 0.0254465 -2.43116e-20)
(0.243427 0.108694 -2.83212e-19)
(1.15599 0.506124 1.7847e-19)
(1.30689 0.577345 6.0156e-20)
(1.29413 0.583362 -8.25394e-20)
(1.24581 0.574874 5.8812e-20)
(1.19037 0.562924 -3.85573e-21)
(1.12969 0.547666 2.30125e-20)
(1.06406 0.528003 -4.69481e-22)
(0.994104 0.502494 -1.72926e-20)
(0.92081 0.469376 1.5377e-22)
(0.855215 0.43264 -8.73517e-20)
(0.805916 0.399681 8.71732e-20)
(0.76981 0.372277 -5.62698e-20)
(0.742961 0.349983 7.03343e-20)
(0.722637 0.332083 0)
(0.705105 0.317122 -5.24031e-20)
(0.671764 0.297387 -1.29883e-21)
(0.561204 0.24628 -1.51164e-19)
(0.331936 0.144794 -2.23584e-20)
(0.061998 0.0269395 0)
(0.240368 0.117794 0)
(1.14328 0.552108 1.93247e-19)
(1.29704 0.631597 1.3977e-19)
(1.28421 0.63725 9.28745e-20)
(1.23519 0.626677 5.70934e-20)
(1.17879 0.612387 0)
(1.11683 0.594617 1.98719e-20)
(1.04956 0.572296 -1.22526e-21)
(0.977486 0.543912 3.64084e-20)
(0.901703 0.507588 -9.67829e-21)
(0.83378 0.467454 -6.42069e-20)
(0.783045 0.431338 4.34106e-20)
(0.746233 0.401267 -1.9435e-21)
(0.71923 0.376746 7.40427e-20)
(0.699206 0.356967 4.87233e-20)
(0.682266 0.34037 -1.14272e-19)
(0.64965 0.31829 1.38629e-19)
(0.541034 0.262261 4.14908e-20)
(0.31753 0.152554 1.71664e-19)
(0.0582727 0.0277815 -4.59607e-19)
(0.238168 0.126748 -7.22567e-20)
(1.13055 0.595418 1.11201e-19)
(1.28586 0.68272 -8.65626e-20)
(1.27302 0.688196 -1.07325e-19)
(1.22343 0.675809 0)
(1.16626 0.659447 4.63253e-20)
(1.10324 0.639462 -5.83172e-20)
(1.0345 0.614791 -4.33503e-21)
(0.960483 0.583849 0)
(0.882275 0.544559 -1.52519e-19)
(0.81203 0.501113 1.75285e-19)
(0.75966 0.4617 0)
(0.722058 0.428678 6.68192e-20)
(0.694845 0.401654 -1.96712e-21)
(0.67509 0.379731 -1.54237e-19)
(0.658581 0.361179 6.06721e-20)
(0.626356 0.336463 0)
(0.519287 0.275299 2.25115e-19)
(0.301441 0.157978 0)
(0.0539977 0.0279847 -2.19362e-19)
(0.236643 0.135566 8.04004e-20)
(1.11809 0.636276 1.26754e-19)
(1.27393 0.730846 -9.07537e-20)
(1.26095 0.736274 0)
(1.21093 0.722269 7.76181e-20)
(1.15315 0.704081 0)
(1.08923 0.682158 7.4502e-20)
(1.0192 0.655442 9.61701e-21)
(0.943423 0.622285 2.6564e-21)
(0.862825 0.580355 -7.52788e-20)
(0.790026 0.53376 1.68355e-20)
(0.73573 0.491061 0)
(0.697171 0.45485 -1.42193e-19)
(0.669671 0.424993 2.04189e-21)
(0.650023 0.400666 0)
(0.633754 0.379859 2.43733e-21)
(0.601639 0.352065 2.04661e-19)
(0.495741 0.285336 -1.97608e-19)
(0.283637 0.161011 5.83532e-20)
(0.049191 0.027511 0)
(0.235432 0.144133 0)
(1.10602 0.67489 1.41463e-19)
(1.26156 0.77599 1.06027e-19)
(1.24834 0.781521 -2.17231e-21)
(1.19802 0.766078 4.81279e-20)
(1.13976 0.746294 1.09059e-19)
(1.07511 0.722694 -2.43472e-20)
(1.00395 0.694228 5.3421e-21)
(0.926516 0.659179 1.95146e-20)
(0.843517 0.61497 -1.1655e-19)
(0.767935 0.565522 -3.08956e-21)
(0.711299 0.519615 -5.76017e-20)
(0.671278 0.480064 2.33552e-19)
(0.643297 0.447056 -2.45798e-21)
(0.623701 0.41992 -1.22145e-19)
(0.607655 0.39655 -2.23707e-19)
(0.575446 0.365214 0)
(0.470309 0.29239 0)
(0.264059 0.161504 6.42871e-20)
(0.0439228 0.026308 -3.7587e-20)
(0.23476 0.152535 9.95611e-20)
(1.09447 0.711224 -3.09028e-19)
(1.24897 0.818369 -1.1349e-19)
(1.23548 0.824014 0)
(1.18495 0.807291 -1.49623e-21)
(1.12635 0.786117 1.29804e-19)
(1.06109 0.761083 -7.92004e-20)
(0.988957 0.731144 -4.25902e-20)
(0.909955 0.694538 1.69189e-20)
(0.824578 0.648434 -8.84483e-20)
(0.746027 0.596441 -1.47847e-19)
(0.686659 0.547429 1.53541e-19)
(0.644542 0.504368 0)
(0.615713 0.467837 -5.49704e-20)
(0.596114 0.437625 -1.34467e-19)
(0.580217 0.411258 -1.6252e-19)
(0.547591 0.375862 -1.9786e-19)
(0.44277 0.296338 5.93198e-20)
(0.242569 0.159079 -3.47998e-20)
(0.0381852 0.0243446 4.52674e-22)
(0.234146 0.16068 0)
(1.08379 0.745213 0)
(1.23631 0.858099 2.43448e-21)
(1.22257 0.863842 0)
(1.17192 0.845997 -1.79834e-19)
(1.11307 0.823611 -1.13868e-19)
(1.04735 0.797349 0)
(0.974368 0.766201 -9.10636e-21)
(0.893942 0.728363 1.47555e-20)
(0.806201 0.68079 -2.02961e-19)
(0.724481 0.626704 0)
(0.662025 0.574815 -9.83083e-20)
(0.617408 0.52821 -3.01554e-21)
(0.587081 0.487919 -2.49357e-21)
(0.567103 0.45413 1.43766e-19)
(0.551214 0.424318 -3.93635e-22)
(0.517762 0.384062 -4.30876e-19)
(0.412554 0.296958 1.29707e-19)
(0.219165 0.153774 3.85403e-20)
(0.0320126 0.0216243 0)
(0.233551 0.168544 -3.6493e-19)
(1.07356 0.777377 -1.89315e-19)
(1.22374 0.895304 -2.83026e-19)
(1.20977 0.90111 3.96585e-19)
(1.15907 0.882264 -3.3615e-19)
(1.10007 0.858836 0)
(1.03401 0.831542 -6.57903e-20)
(0.96033 0.799424 1.75131e-20)
(0.878601 0.760666 3.67506e-21)
(0.788554 0.71204 1.62816e-20)
(0.703509 0.656354 1.84145e-19)
(0.637512 0.601984 -3.34864e-20)
(0.589931 0.552024 -1.44356e-19)
(0.557413 0.507747 -6.55851e-20)
(0.536647 0.469762 8.03477e-20)
(0.520469 0.435758 -3.32961e-22)
(0.485864 0.389747 1.18678e-19)
(0.379651 0.293984 -2.8192e-19)
(0.193348 0.145039 3.36407e-19)
(0.0254914 0.0182355 4.8677e-20)
(0.232829 0.176056 1.33788e-19)
(1.06377 0.80773 -1.034e-19)
(1.21138 0.930089 5.84799e-21)
(1.19718 0.935943 2.23385e-19)
(1.14652 0.916206 7.81664e-20)
(1.08746 0.891872 2.26524e-19)
(1.02119 0.863715 -2.8522e-20)
(0.946936 0.830836 8.21223e-20)
(0.864048 0.791444 6.91307e-21)
(0.771793 0.742192 -1.08055e-19)
(0.683317 0.685444 0)
(0.613396 0.629086 -1.51208e-19)
(0.562116 0.575991 2.09835e-19)
(0.526618 0.527562 0)
(0.504359 0.484833 -1.72085e-19)
(0.487613 0.445519 1.07212e-19)
(0.451584 0.392372 -1.28484e-19)
(0.344302 0.286973 -1.55115e-19)
(0.166116 0.133197 -2.74605e-19)
(0.0188518 0.014258 -2.14303e-19)
(0.232271 0.1833 -1.4685e-19)
(1.05428 0.836282 1.1055e-19)
(1.19932 0.962554 2.62859e-19)
(1.18491 0.968437 3.06626e-19)
(1.13434 0.947917 -1.63763e-19)
(1.07532 0.922804 1.5543e-19)
(1.00895 0.893921 -8.89838e-20)
(0.934252 0.86048 9.90525e-20)
(0.850351 0.82072 1.05617e-20)
(0.756025 0.771232 1.00314e-19)
(0.664104 0.713986 3.88486e-19)
(0.58995 0.656203 0)
(0.534235 0.600461 0)
(0.494701 0.547946 -7.59233e-20)
(0.469938 0.499762 0)
(0.451955 0.453567 2.34023e-19)
(0.414372 0.3911 2.81784e-19)
(0.30676 0.274898 0)
(0.13856 0.118278 0)
(0.0126405 0.010089 2.34177e-19)
(0.231448 0.190016 1.61658e-19)
(1.04511 0.863051 1.31772e-19)
(1.18761 0.99283 1.88749e-19)
(1.17301 0.998728 -2.73013e-19)
(1.1226 0.977505 -1.82091e-19)
(1.06369 0.951713 -2.05198e-19)
(0.997317 0.922228 1.31439e-19)
(0.922321 0.88839 4.44372e-22)
(0.837565 0.848493 -4.70997e-21)
(0.741327 0.79914 -6.0382e-21)
(0.64605 0.741957 1.96123e-19)
(0.567442 0.683409 0)
(0.506787 0.62565 2.11674e-19)
(0.461919 0.569573 1.59759e-19)
(0.432931 0.51568 4.10959e-19)
(0.412216 0.460095 1.26262e-19)
(0.372811 0.384105 -1.56456e-19)
(0.267983 0.255177 -9.21463e-20)
(0.114222 0.0999952 0)
(0.008266 0.00639796 2.55397e-19)
(0.230831 0.196611 -3.54951e-19)
(1.03622 0.888154 0)
(1.17625 1.021 2.10333e-19)
(1.16151 1.02691 -2.23303e-19)
(1.11133 1.00507 2.05362e-19)
(1.0526 0.978689 2.98396e-19)
(0.986337 0.948699 -3.02369e-19)
(0.911158 0.914606 4.01103e-21)
(0.825708 0.874771 0)
(0.727758 0.825866 -8.79376e-20)
(0.629271 0.769279 -4.02483e-19)
(0.54615 0.71065 2.03185e-20)
(0.480158 0.651669 2.86809e-19)
(0.428858 0.593015 0)
(0.393233 0.533686 2.77019e-19)
(0.366582 0.466471 0)
(0.322722 0.369657 0)
(0.227055 0.220005 -1.03198e-19)
(0.105091 0.0689315 0)
(0.0258316 0.0117677 6.91351e-20)
(0.229896 0.202571 -3.87301e-19)
(1.0276 0.911921 0)
(1.16524 1.04729 3.40114e-19)
(1.15039 1.05322 0)
(1.1005 1.03087 -1.11136e-19)
(1.04199 1.00401 0)
(0.975933 0.973633 -2.23092e-20)
(0.900666 0.939453 -1.6762e-20)
(0.814668 0.899896 -2.51832e-21)
(0.71518 0.851774 -8.20438e-20)
(0.613666 0.796357 1.02342e-20)
(0.525994 0.738464 1.68556e-19)
(0.454297 0.678978 2.77229e-19)
(0.395456 0.619165 3.99339e-20)
(0.350167 0.556347 2.16301e-19)
(0.312276 0.476459 0)
(0.252681 0.350139 3.42918e-19)
(0.161284 0.15532 -2.04533e-19)
(0.0628365 0.0683501 2.35615e-19)
(-0.0651914 0.387008 -2.76062e-19)
(0.228956 0.208255 3.15371e-19)
(1.01902 0.934225 4.98842e-19)
(1.15448 1.072 0)
(1.13953 1.07806 4.66255e-21)
(1.08995 1.05543 3.01276e-19)
(1.03163 1.02831 -5.74338e-19)
(0.965841 0.997778 -1.32152e-19)
(0.890505 0.963814 0)
(0.804006 0.924906 -4.02205e-20)
(0.703047 0.878122 -1.5884e-21)
(0.598475 0.824622 0)
(0.506029 0.768557 0)
(0.428106 0.709543 2.42042e-19)
(0.361046 0.65 -1.24654e-19)
(0.302452 0.587728 -2.14651e-19)
(0.245929 0.498497 0)
(0.141865 0.33815 1.73914e-19)
(0.0317247 0.446308 -2.06375e-19)
(0.0474289 1.74465 -1.06758e-19)
(0.0836994 2.73781 -1.38268e-19)
(0.227908 0.21309 -2.30445e-19)
(1.01075 0.955207 -6.2855e-19)
(1.14397 1.09513 1.95567e-19)
(1.12891 1.10129 1.88573e-19)
(1.07972 1.07857 0)
(1.02156 1.05131 -4.10335e-19)
(0.956216 1.02084 -2.20065e-19)
(0.880822 0.98728 1.08337e-20)
(0.79394 0.949299 -5.55945e-21)
(0.691675 0.904282 5.43909e-20)
(0.584234 0.853342 1.7348e-19)
(0.487152 0.80025 1.69995e-19)
(0.402847 0.742778 2.36035e-19)
(0.328077 0.683682 -2.82594e-19)
(0.256422 0.628811 -3.15581e-19)
(0.175311 0.540012 0)
(0.0792902 0.808262 0)
(0.137031 2.44075 8.98999e-20)
(0.142905 3.15454 0)
(0.144247 3.36913 2.04665e-19)
(0.229146 0.217851 0)
(1.00326 0.974944 0)
(1.13351 1.11655 0)
(1.11834 1.1227 5.23746e-20)
(1.06949 1.10006 2.68533e-19)
(1.01157 1.07291 -3.12171e-19)
(0.946955 1.04272 -1.57132e-19)
(0.871568 1.00975 1.2172e-20)
(0.784433 0.972945 -8.37802e-20)
(0.681094 0.930111 -1.01825e-20)
(0.57109 0.882384 3.04919e-19)
(0.469691 0.833244 -1.99823e-20)
(0.379015 0.779174 2.61447e-20)
(0.29776 0.7178 4.00865e-20)
(0.219088 0.67568 1.06146e-21)
(0.142131 0.913905 1.63264e-21)
(0.184617 2.56137 -4.37699e-19)
(0.209641 3.2619 -1.65245e-19)
(0.191417 3.42322 7.55495e-20)
(0.17157 3.45115 -7.63363e-20)
(0.146702 0.175483 1.31276e-19)
(0.988978 0.996452 0)
(1.12289 1.13642 -3.82957e-19)
(1.10861 1.14297 -4.87062e-19)
(1.06002 1.12067 5.57725e-19)
(1.00252 1.09372 3.31169e-19)
(0.937965 1.06353 1.83128e-19)
(0.86283 1.03135 -2.03878e-19)
(0.775627 0.995978 8.62864e-20)
(0.671633 0.955591 0)
(0.55963 0.911572 1.25627e-19)
(0.454477 0.866991 -1.24001e-19)
(0.357596 0.819877 0)
(0.27091 0.756691 3.47199e-20)
(0.205875 0.852522 8.32014e-20)
(0.187327 2.18702 -1.03852e-19)
(0.282401 3.29723 1.15225e-19)
(0.25929 3.44519 5.36219e-20)
(0.217125 3.47334 6.09051e-20)
(0.188433 3.48625 6.89878e-20)
(0.26922 0.251283 -2.44228e-19)
(0.970713 1.00122 0)
(1.10285 1.1577 3.90101e-19)
(1.09487 1.17285 5.03001e-19)
(1.04477 1.15058 -5.726e-19)
(0.98734 1.12418 -3.50605e-19)
(0.92266 1.09542 -2.80174e-19)
(0.847642 1.06456 -1.51583e-20)
(0.760044 1.0316 -1.18602e-19)
(0.654564 0.995608 -2.54736e-20)
(0.539188 0.958792 4.06197e-21)
(0.428774 0.923438 9.13255e-20)
(0.322166 0.891409 2.05833e-20)
(0.246544 0.985734 -3.01027e-20)
(0.285709 2.09925 -7.11019e-20)
(0.364038 3.29261 4.42692e-20)
(0.35306 3.48671 -3.4375e-20)
(0.309918 3.51443 -1.87297e-20)
(0.265412 3.54725 1.94568e-20)
(0.201373 3.53861 9.56196e-22)
(0.255388 0.246607 0)
(0.966182 1.02018 1.02418e-19)
(1.09441 1.17846 -7.72288e-20)
(1.08489 1.19355 -5.60119e-20)
(1.03529 1.17139 -3.75704e-19)
(0.978229 1.14521 3.42118e-19)
(0.913625 1.11664 1.88096e-19)
(0.839024 1.08665 -1.5802e-20)
(0.751756 1.05534 1.4477e-19)
(0.64623 1.02248 -1.40709e-20)
(0.529915 0.990863 -1.35006e-19)
(0.417621 0.962747 1.28871e-20)
(0.313415 0.951879 -1.7336e-20)
(0.295114 1.36288 -2.41104e-20)
(0.401764 2.94429 1.89067e-20)
(0.446824 3.47065 6.86081e-22)
(0.394644 3.55756 -7.05775e-20)
(0.350554 3.58689 -7.57e-20)
(0.290867 3.61453 9.7975e-20)
(0.218026 3.60836 4.3597e-20)
(0.237858 0.243497 2.50884e-19)
(0.959612 1.04151 6.88547e-19)
(1.08523 1.20081 -2.20422e-19)
(1.07448 1.21554 -2.12639e-19)
(1.02534 1.19325 0)
(0.968707 1.16708 4.99074e-19)
(0.904509 1.13877 2.86079e-19)
(0.830628 1.10961 -1.65198e-20)
(0.744043 1.07998 1.51246e-20)
(0.639005 1.05041 9.32984e-20)
(0.52251 1.02415 -2.73435e-20)
(0.410082 1.004 -8.15163e-20)
(0.319884 1.04802 -1.08448e-19)
(0.377546 1.91757 1.20538e-19)
(0.505574 3.32746 4.04778e-20)
(0.509663 3.55065 0)
(0.446541 3.60774 0)
(0.402241 3.66582 9.22433e-20)
(0.318873 3.73763 0)
(0.231643 3.70504 1.95568e-19)
(0.225531 0.24327 -3.65642e-19)
(0.951177 1.06364 -5.72295e-19)
(1.07454 1.22398 0)
(1.06286 1.23814 5.26819e-21)
(1.01421 1.21546 -3.64604e-19)
(0.958167 1.18917 7.40234e-19)
(0.894729 1.16111 1.9187e-19)
(0.821806 1.13269 -2.0168e-20)
(0.736186 1.10463 1.57185e-19)
(0.632071 1.07825 -8.86878e-21)
(0.516176 1.0575 0)
(0.405655 1.04655 0)