/*--------------------------------*- C++ -*----------------------------------*\
| =========                 |                                                 |
| \\      /  F ield         | OpenFOAM: The Open Source CFD Toolbox           |
|  \\    /   O peration     | Version:  2112                                  |
|   \\  /    A nd           | Website:  www.openfoam.com                      |
|    \\/     M anipulation  |                                                 |
\*---------------------------------------------------------------------------*/
FoamFile
{
    version     2.0;
    format      ascii;
    arch        "LSB;label=32;scalar=64";
    class       volScalarField;
    location    "75";
    object      T;
}
// * * * * * * * * * * * * * * * * * * * * * * * * * * * * * * * * * * * * * //

dimensions      [0 0 0 1 0 0 0];

internalField   nonuniform List<scalar> 
10000
(
0.998128
1.00296
0.998195
0.998943
0.999079
0.998989
0.998945
0.998192
1.00291
0.99816
0.990582
0.99705
0.992635
0.993929
0.994205
0.99413
0.993929
0.992615
0.996858
0.990711
0.99178
0.996164
0.993165
0.993959
0.994189
0.994251
0.993982
0.993194
0.996058
0.991809
0.994612
0.997364
0.995492
0.995744
0.995827
0.995918
0.995792
0.995564
0.997476
0.99456
0.995883
0.997766
0.996808
0.996904
0.996925
0.996976
0.996946
0.996852
0.99794
0.99588
0.996445
0.997722
0.997267
0.997358
0.997376
0.997406
0.99739
0.997292
0.997832
0.996444
0.996947
0.99778
0.997542
0.997637
0.99766
0.997677
0.997656
0.997556
0.997814
0.996922
0.997343
0.99788
0.997768
0.997855
0.997886
0.997891
0.997862
0.997769
0.99789
0.997325
0.997598
0.997951
0.997907
0.997987
0.998021
0.99802
0.997987
0.997902
0.997956
0.997584
0.997759
0.997999
0.997992
0.998059
0.99809
0.998087
0.998055
0.997981
0.998002
0.997746
0.99787
0.998029
0.998026
0.998093
0.998107
0.998118
0.998093
0.998012
0.998053
0.99782
0.997951
0.998054
0.998041
0.998114
0.998107
0.998135
0.998116
0.998023
0.998098
0.99785
0.99801
0.998091
0.998084
0.998133
0.998133
0.998147
0.998127
0.998057
0.998104
0.997938
0.998053
0.998121
0.998115
0.998149
0.998154
0.998159
0.998139
0.998086
0.998102
0.998015
0.998061
0.998179
0.99816
0.998171
0.998189
0.998156
0.998128
0.998119
0.99811
0.998073
0.998021
0.998235
0.998182
0.998186
0.998215
0.998137
0.998104
0.998119
0.99812
0.998067
0.998071
0.998218
0.998167
0.998199
0.998208
0.998168
0.99814
0.998092
0.99809
0.99807
0.998193
0.998188
0.998189
0.998202
0.998186
0.998198
0.99817
0.99809
0.998009
0.998155
0.998169
0.998189
0.99821
0.998184
0.998156
0.998161
0.998118
0.998066
0.997922
0.998121
0.998052
0.998225
0.998249
0.998178
0.998186
0.998126
0.998062
0.99804
0.997781
0.998098
0.998069
0.998252
0.998287
0.998232
0.99824
0.998163
0.998076
0.997988
0.997629
0.998102
0.998042
0.998235
0.998277
0.998277
0.998252
0.998201
0.998073
0.997856
0.997399
0.997933
0.997741
0.998158
0.998204
0.998231
0.998221
0.998161
0.997988
0.99765
0.996918
0.99757
0.997139
0.997884
0.997967
0.998054
0.998098
0.99805
0.99784
0.997349
0.996116
0.99692
0.995979
0.997188
0.997382
0.99759
0.997742
0.997771
0.997574
0.99692
0.994846
0.995677
0.993686
0.995576
0.996009
0.996438
0.996805
0.997045
0.997022
0.99637
0.993053
0.993426
0.989125
0.991998
0.992885
0.993695
0.994462
0.995152
0.995642
0.995528
0.990587
0.988823
0.980207
0.984444
0.986056
0.98746
0.988895
0.990463
0.992236
0.994497
0.990375
0.984045
0.96332
0.969264
0.971836
0.973964
0.976264
0.979094
0.982773
0.989581
0.99192
0.979562
0.932974
0.940709
0.944082
0.946671
0.949742
0.954229
0.961655
0.979327
1.02956
1.06295
1.00288
1.0083
1.00333
1.00423
1.00442
1.00441
1.00423
1.00336
1.00821
1.0029
0.996786
1.00553
1.00108
1.00251
1.0029
1.00294
1.00251
1.0012
1.00547
0.99683
0.996163
1.00292
1.00037
1.001
1.00123
1.0012
1.00098
1.00045
1.00304
0.996076
0.99749
1.00149
1.00004
1.00007
1.00009
0.999996
1.00002
0.999968
1.00142
0.997543
0.997937
1.00013
0.999303
0.999202
0.999163
0.9991
0.999162
0.999211
1
0.998017
0.997832
0.999144
0.99876
0.998672
0.998618
0.998589
0.998652
0.998708
0.99912
0.997892
0.997786
0.998597
0.998479
0.998422
0.998377
0.998367
0.998415
0.998458
0.998674
0.997853
0.99786
0.998388
0.998342
0.998311
0.998283
0.998279
0.998309
0.998337
0.998456
0.997915
0.997934
0.998296
0.998272
0.998259
0.998247
0.998245
0.998259
0.998275
0.99834
0.997974
0.997987
0.998244
0.998232
0.998229
0.998231
0.998228
0.998231
0.998236
0.99827
0.998019
0.998035
0.998219
0.998247
0.998224
0.998258
0.998228
0.998221
0.998248
0.998248
0.998083
0.998083
0.998216
0.998291
0.998231
0.998307
0.998234
0.998223
0.998289
0.99825
0.998151
0.998114
0.998208
0.998262
0.998225
0.998277
0.998229
0.998219
0.998253
0.998223
0.998159
0.998128
0.998206
0.998235
0.998223
0.998243
0.998219
0.99821
0.998213
0.99819
0.998158
0.998158
0.998223
0.998189
0.998213
0.998192
0.998234
0.998227
0.998156
0.998154
0.998159
0.998164
0.998276
0.998173
0.998212
0.998144
0.998279
0.998268
0.998124
0.998133
0.998181
0.9981
0.998337
0.998258
0.99822
0.998163
0.998219
0.998197
0.998161
0.998103
0.998194
0.998087
0.998269
0.998266
0.998218
0.998202
0.998126
0.998086
0.998102
0.998012
0.998143
0.998145
0.998259
0.998288
0.998267
0.998272
0.998162
0.998109
0.998047
0.997951
0.998138
0.998162
0.998374
0.998301
0.998328
0.998242
0.998219
0.998145
0.997944
0.997844
0.998112
0.998013
0.998342
0.998258
0.998263
0.998148
0.998136
0.998017
0.997744
0.997525
0.998004
0.997761
0.998273
0.998267
0.998172
0.998117
0.99801
0.997844
0.997558
0.997099
0.99788
0.99747
0.998266
0.998262
0.998135
0.998086
0.997955
0.997732
0.997314
0.996585
0.997675
0.996916
0.998137
0.998129
0.998005
0.997963
0.997844
0.997567
0.996944
0.995777
0.997226
0.995811
0.997645
0.997676
0.997588
0.9976
0.997547
0.997259
0.996406
0.994494
0.996243
0.993627
0.996321
0.996474
0.996495
0.99666
0.996793
0.996652
0.995699
0.992668
0.994319
0.989272
0.993179
0.993598
0.993845
0.994327
0.994873
0.995235
0.994684
0.990064
0.989972
0.980709
0.986233
0.987112
0.987736
0.988765
0.99012
0.991697
0.993306
0.989759
0.985684
0.964295
0.971787
0.973275
0.97434
0.976075
0.978587
0.981879
0.98853
0.98923
0.980841
0.93429
0.943774
0.945654
0.946825
0.949098
0.953057
0.9597
0.978508
1.03021
1.05458
0.998207
1.00337
0.998075
0.998867
0.999053
0.99907
0.998845
0.998073
1.00337
0.998191
0.992632
1.00115
0.996224
0.997544
0.997988
0.998061
0.997574
0.996349
1.00122
0.992603
0.993182
1.00039
0.997464
0.997967
0.998288
0.998321
0.998025
0.99761
1.00043
0.993201
0.995503
1.00002
0.998682
0.998686
0.998798
0.998799
0.998717
0.998708
0.999912
0.995615
0.99681
0.999264
0.998797
0.998771
0.998789
0.998784
0.99878
0.998777
0.999156
0.996924
0.997272
0.998733
0.998666
0.998671
0.998655
0.998648
0.99867
0.998632
0.998674
0.997362
0.997554
0.998469
0.998543
0.99857
0.998555
0.998548
0.998564
0.998506
0.998442
0.99761
0.99778
0.998342
0.998436
0.998475
0.998472
0.998468
0.998466
0.998409
0.99833
0.997807
0.997916
0.998274
0.998356
0.998398
0.998405
0.998403
0.998391
0.99834
0.99827
0.997935
0.997991
0.998232
0.9983
0.998339
0.998353
0.998352
0.998335
0.99829
0.998232
0.998006
0.998043
0.998207
0.998266
0.998295
0.998316
0.998312
0.998294
0.998259
0.998207
0.998053
0.998083
0.998195
0.998246
0.998265
0.998291
0.998283
0.998265
0.998238
0.998193
0.998093
0.998108
0.998191
0.998234
0.998248
0.99827
0.998262
0.998246
0.998222
0.998182
0.998124
0.99812
0.998196
0.998231
0.998242
0.998255
0.998245
0.99823
0.998209
0.998174
0.998153
0.998125
0.998206
0.998226
0.99824
0.998239
0.998232
0.998216
0.998189
0.998162
0.998177
0.998125
0.998226
0.998225
0.998238
0.998226
0.998227
0.998206
0.99817
0.998144
0.998199
0.99812
0.998241
0.998232
0.998231
0.99822
0.998218
0.998191
0.998151
0.998115
0.99822
0.998097
0.998234
0.998238
0.99822
0.998212
0.998198
0.998166
0.998118
0.998062
0.998237
0.998058
0.998247
0.998257
0.998225
0.998207
0.998179
0.998139
0.998073
0.997998
0.998267
0.998002
0.998281
0.998283
0.998245
0.998205
0.998169
0.99811
0.998007
0.9979
0.998304
0.997898
0.998308
0.99831
0.998257
0.998205
0.998156
0.998066
0.997909
0.99773
0.998334
0.997718
0.998326
0.998331
0.998251
0.998196
0.998126
0.997995
0.997763
0.997455
0.998341
0.997397
0.998298
0.998315
0.998211
0.998152
0.998067
0.997885
0.997536
0.997011
0.998261
0.996794
0.998147
0.998191
0.998077
0.998025
0.997943
0.997711
0.997196
0.996292
0.997969
0.995669
0.997692
0.997798
0.997702
0.997694
0.997663
0.997414
0.996704
0.995145
0.997181
0.993529
0.996501
0.996746
0.996726
0.996837
0.996965
0.996837
0.996039
0.993468
0.995475
0.989356
0.99365
0.994154
0.994302
0.994659
0.995144
0.995447
0.995016
0.991053
0.991407
0.981175
0.987216
0.988137
0.988562
0.989345
0.990499
0.991859
0.993447
0.990801
0.98788
0.965348
0.973525
0.974936
0.97563
0.976922
0.978972
0.981827
0.988129
0.989908
0.983747
0.935863
0.946247
0.947834
0.948361
0.949881
0.952983
0.958754
0.976364
1.03005
1.05958
0.998956
1.00425
0.998854
0.999669
0.999874
0.999876
0.999649
0.998835
1.00425
0.998936
0.993942
1.00252
0.997519
0.998789
0.999232
0.999259
0.998793
0.997581
1.00256
0.993878
0.993992
1.00098
0.997964
0.998335
0.998627
0.998652
0.998365
0.998064
1.00097
0.993979
0.995756
1.00006
0.9987
0.998595
0.998677
0.998689
0.998623
0.998735
0.99995
0.995868
0.996912
0.999195
0.998779
0.998702
0.998698
0.9987
0.998717
0.998776
0.999096
0.997044
0.997374
0.998662
0.998672
0.998681
0.998657
0.998657
0.998689
0.998656
0.998606
0.997481
0.997645
0.998414
0.998568
0.998631
0.998621
0.99862
0.998633
0.998548
0.998389
0.997725
0.997855
0.998306
0.998472
0.998553
0.998562
0.998561
0.998552
0.998457
0.998298
0.997911
0.997983
0.998258
0.998397
0.998476
0.998496
0.998496
0.998473
0.998387
0.998255
0.998025
0.998053
0.998232
0.998343
0.998412
0.998436
0.998436
0.998409
0.998335
0.99823
0.998089
0.9981
0.998216
0.998307
0.998361
0.998387
0.998385
0.998358
0.9983
0.998218
0.998129
0.998131
0.998209
0.998282
0.998323
0.998348
0.998343
0.998319
0.998275
0.998211
0.998158
0.998148
0.998207
0.998263
0.998293
0.998314
0.99831
0.998289
0.998253
0.998203
0.998181
0.998152
0.998208
0.998249
0.998272
0.998287
0.998283
0.998265
0.998234
0.998193
0.998199
0.998146
0.998214
0.998239
0.998256
0.998265
0.998262
0.998245
0.998215
0.998181
0.998215
0.998136
0.99822
0.998235
0.998246
0.998248
0.998247
0.998229
0.998197
0.998165
0.998232
0.998122
0.998224
0.998239
0.99824
0.998236
0.998232
0.99821
0.998177
0.998142
0.998255
0.998097
0.998225
0.998245
0.998234
0.998227
0.998214
0.998187
0.998147
0.998103
0.99828
0.99806
0.998238
0.998257
0.998234
0.998221
0.998201
0.998165
0.998107
0.99805
0.998317
0.997998
0.99826
0.998275
0.998241
0.998215
0.998187
0.998136
0.99805
0.997964
0.998364
0.997878
0.998276
0.99829
0.998243
0.998207
0.99817
0.998093
0.997961
0.997815
0.998406
0.997673
0.998286
0.998303
0.998238
0.998193
0.998141
0.998028
0.997828
0.997569
0.998429
0.997346
0.998253
0.998293
0.998206
0.998155
0.998091
0.997932
0.997625
0.997167
0.998374
0.996761
0.998108
0.998191
0.99809
0.998045
0.997985
0.997776
0.997315
0.996503
0.998119
0.99568
0.997698
0.99784
0.99775
0.99774
0.997727
0.997499
0.996851
0.995415
0.997372
0.993639
0.996604
0.996876
0.996845
0.99693
0.99706
0.996933
0.996195
0.993792
0.995715
0.989656
0.993944
0.994455
0.994549
0.994829
0.995272
0.995525
0.99513
0.991478
0.991836
0.981796
0.987839
0.988714
0.989004
0.989617
0.990634
0.991863
0.99346
0.991156
0.98854
0.966387
0.974582
0.975854
0.976275
0.977231
0.978939
0.981449
0.987357
0.989748
0.98471
0.937135
0.947595
0.948892
0.948947
0.949888
0.952342
0.957425
0.974388
1.02905
1.06076
0.998948
1.00449
0.999069
0.999827
1.00004
1.00004
0.999814
0.999057
1.0045
0.998933
0.994058
1.00301
0.998052
0.999243
0.999664
0.999675
0.999247
0.998105
1.00306
0.994014
0.994331
1.00105
0.998284
0.998647
0.998934
0.998949
0.998672
0.998376
1.00106
0.994326
0.99594
0.999946
0.998776
0.998653
0.998727
0.99874
0.99868
0.998818
0.999866
0.996043
0.996975
0.999096
0.998771
0.998678
0.99866
0.998666
0.998692
0.998772
0.999013
0.997105
0.997401
0.998591
0.998641
0.998647
0.998613
0.998616
0.998656
0.998628
0.998539
0.99752
0.997669
0.998365
0.998545
0.998616
0.998602
0.998604
0.998621
0.99853
0.998341
0.99776
0.99788
0.998279
0.998463
0.99856
0.99857
0.99857
0.998561
0.998455
0.998269
0.997948
0.998008
0.998254
0.9984
0.998495
0.998519
0.998519
0.998495
0.998396
0.998242
0.998064
0.998083
0.998238
0.998356
0.998437
0.998466
0.998466
0.998436
0.998351
0.99823
0.998125
0.99813
0.998221
0.998326
0.998388
0.998416
0.998415
0.998385
0.998317
0.998224
0.998162
0.998156
0.998216
0.998301
0.998347
0.998373
0.998371
0.998343
0.998289
0.998219
0.998188
0.998167
0.998212
0.998278
0.998314
0.998335
0.998333
0.99831
0.998267
0.998211
0.998205
0.998165
0.998211
0.998256
0.998287
0.998304
0.998302
0.998282
0.998246
0.998202
0.998219
0.998153
0.998223
0.998241
0.998267
0.99828
0.998277
0.998259
0.998227
0.99819
0.998232
0.998141
0.998234
0.99824
0.998255
0.998261
0.998258
0.998239
0.998209
0.998175
0.998248
0.998131
0.998228
0.998248
0.998247
0.998246
0.99824
0.998219
0.998188
0.998154
0.998271
0.99811
0.998224
0.998256
0.998241
0.998235
0.998224
0.998198
0.998159
0.998119
0.998298
0.998067
0.998235
0.998265
0.99824
0.998227
0.99821
0.998176
0.998121
0.998067
0.998336
0.997999
0.998253
0.998274
0.998242
0.99822
0.998195
0.998147
0.998067
0.997984
0.998383
0.997864
0.998294
0.998289
0.998243
0.998212
0.998177
0.998105
0.997982
0.997843
0.998428
0.997643
0.998345
0.998307
0.998239
0.998197
0.99815
0.998042
0.997854
0.997608
0.998456
0.997347
0.998265
0.998293
0.998208
0.998158
0.998102
0.99795
0.997656
0.997215
0.998409
0.996788
0.998087
0.998195
0.998096
0.998051
0.997999
0.997798
0.997352
0.996559
0.998161
0.995716
0.997742
0.997861
0.997769
0.997754
0.997745
0.99752
0.99689
0.995479
0.997422
0.993734
0.996687
0.996934
0.996891
0.996957
0.997082
0.99695
0.996229
0.993862
0.995776
0.989854
0.994107
0.994586
0.994641
0.994879
0.995297
0.995522
0.995135
0.991556
0.991937
0.982173
0.988137
0.988961
0.989169
0.989687
0.99063
0.991783
0.993359
0.991175
0.988692
0.966972
0.975062
0.976237
0.976496
0.977268
0.978815
0.981175
0.986971
0.989485
0.984855
0.937776
0.948184
0.949272
0.949048
0.949679
0.951822
0.956612
0.973153
1.02791
1.05976
0.999089
1.00442
0.999043
0.999864
1.00008
1.00008
0.99985
0.99903
1.00443
0.999071
0.994204
1.00289
0.997967
0.999219
0.999662
0.999668
0.999221
0.998021
1.00295
0.99414
0.994174
1.00125
0.9983
0.99863
0.998914
0.998926
0.998653
0.998387
1.00126
0.994156
0.995818
1.00012
0.998816
0.998685
0.998755
0.998767
0.998708
0.998851
1.00003
0.995922
0.996929
0.999175
0.998793
0.998699
0.998679
0.998686
0.998711
0.998793
0.999089
0.997063
0.997382
0.998624
0.998653
0.998657
0.99862
0.998625
0.998664
0.998638
0.998566
0.997506
0.99766
0.998382
0.99855
0.99862
0.998605
0.998607
0.998624
0.998534
0.998349
0.997758
0.997858
0.998318
0.998467
0.998562
0.998571
0.998571
0.998562
0.998455
0.998271
0.997949
0.997971
0.998332
0.998406
0.998497
0.998521
0.99852
0.998495
0.998394
0.998242
0.998064
0.998081
0.99826
0.99836
0.998439
0.998467
0.998466
0.998436
0.99835
0.99823
0.998126
0.998157
0.998171
0.998324
0.998387
0.998416
0.998416
0.998385
0.998315
0.998224
0.998163
0.99817
0.998176
0.998297
0.998346
0.998371
0.99837
0.998343
0.998288
0.998218
0.998187
0.998174
0.998194
0.998272
0.998313
0.998334
0.998333
0.99831
0.998266
0.998211
0.998204
0.998156
0.998237
0.998255
0.998288
0.998303
0.998302
0.998282
0.998246
0.998202
0.998219
0.998109
0.998324
0.998251
0.998271
0.998281
0.998277
0.998258
0.998228
0.998191
0.998232
0.998102
0.998326
0.998252
0.998259
0.998263
0.998257
0.998239
0.998209
0.998176
0.998249
0.998144
0.9982
0.99825
0.998247
0.998247
0.99824
0.99822
0.998187
0.998154
0.998272
0.998149
0.998129
0.998248
0.998239
0.998235
0.998225
0.9982
0.99816
0.998121
0.9983
0.998093
0.998168
0.998253
0.998236
0.998226
0.99821
0.998176
0.998123
0.998068
0.998337
0.998006
0.998224
0.998265
0.998238
0.998219
0.998195
0.998147
0.998068
0.997984
0.998383
0.997875
0.998261
0.998285
0.998241
0.998211
0.998177
0.998105
0.997984
0.997845
0.998431
0.997676
0.998276
0.998303
0.998237
0.998197
0.998151
0.998044
0.997857
0.997611
0.998459
0.997357
0.998242
0.998296
0.998208
0.99816
0.998104
0.997951
0.997658
0.997218
0.998409
0.996781
0.998111
0.9982
0.998098
0.998052
0.998
0.997799
0.997354
0.996562
0.998161
0.995727
0.997723
0.997867
0.997773
0.997756
0.997748
0.997522
0.996894
0.995483
0.99742
0.993739
0.996681
0.996944
0.996895
0.996961
0.997088
0.996955
0.996233
0.993872
0.995788
0.989862
0.994128
0.994603
0.994651
0.994888
0.995307
0.995534
0.995145
0.991553
0.991928
0.982183
0.9882
0.988999
0.989193
0.989709
0.990646
0.991781
0.99332
0.991212
0.988897
0.967004
0.975182
0.976309
0.976555
0.977327
0.978878
0.981261
0.987173
0.989531
0.984406
0.937876
0.948344
0.949408
0.949175
0.949804
0.951954
0.956763
0.973287
1.02831
1.06103
0.99893
1.00425
0.99886
0.999652
0.999853
0.99985
0.999636
0.998842
1.00425
0.998911
0.993891
1.00254
0.997556
0.998792
0.999227
0.99923
0.998789
0.997599
1.00259
0.993825
0.993948
1.00101
0.998005
0.998354
0.998641
0.99865
0.998372
0.998086
1.00101
0.993922
0.995778
1.00004
0.998703
0.99861
0.998692
0.998702
0.998629
0.998734
0.999947
0.995877
0.996939
0.999175
0.998769
0.998706
0.998701
0.998706
0.998716
0.998767
0.999082
0.997071
0.997383
0.998658
0.998664
0.998683
0.99866
0.998663
0.998689
0.998648
0.998598
0.997503
0.997644
0.998419
0.99856
0.99863
0.998622
0.998624
0.998632
0.998541
0.998384
0.997739
0.997842
0.998318
0.998462
0.998551
0.998562
0.998562
0.99855
0.998449
0.998294
0.997919
0.997969
0.998276
0.998389
0.998474
0.998495
0.998495
0.998471
0.99838
0.998254
0.998028
0.998049
0.998244
0.998342
0.998411
0.998437
0.998435
0.998408
0.998331
0.998232
0.998093
0.998101
0.998218
0.99831
0.998363
0.998387
0.998385
0.998358
0.998296
0.998219
0.998134
0.998137
0.99821
0.998285
0.998325
0.998346
0.998345
0.99832
0.998272
0.998212
0.998162
0.998153
0.998205
0.998263
0.998295
0.998312
0.998312
0.998291
0.998251
0.998204
0.998184
0.998147
0.99821
0.998244
0.998272
0.998286
0.998284
0.998265
0.998233
0.998194
0.998201
0.998131
0.99823
0.998234
0.998257
0.998267
0.998263
0.998245
0.998216
0.998183
0.998217
0.998124
0.998239
0.998236
0.998248
0.998252
0.998246
0.998228
0.998199
0.998167
0.998234
0.998127
0.998227
0.998246
0.998242
0.998239
0.998231
0.99821
0.998177
0.998142
0.998258
0.99812
0.998219
0.998253
0.998237
0.998229
0.998217
0.99819
0.998149
0.998107
0.998286
0.998061
0.998262
0.998263
0.998237
0.998222
0.998203
0.998167
0.99811
0.998053
0.99832
0.997963
0.998334
0.998282
0.998243
0.998218
0.998189
0.998136
0.998053
0.997964
0.99836
0.997871
0.9983
0.998299
0.998246
0.998211
0.99817
0.998093
0.997967
0.997818
0.998405
0.997708
0.998231
0.998312
0.99824
0.998196
0.998143
0.998031
0.997834
0.997577
0.998429
0.99738
0.998206
0.998299
0.998209
0.998157
0.998094
0.997935
0.99763
0.997176
0.998377
0.996785
0.998089
0.998195
0.998094
0.998048
0.997989
0.997781
0.997322
0.996511
0.998126
0.995702
0.997691
0.997847
0.997758
0.997746
0.997733
0.997504
0.996862
0.995424
0.99738
0.993664
0.996613
0.996893
0.996859
0.996942
0.99707
0.996942
0.996211
0.993811
0.995726
0.989701
0.993978
0.994489
0.994579
0.994857
0.995297
0.995547
0.995157
0.9915
0.99184
0.981884
0.987923
0.988792
0.989076
0.989682
0.990684
0.991884
0.993494
0.991194
0.98857
0.966564
0.974768
0.976026
0.976442
0.977387
0.979077
0.981543
0.987477
0.989782
0.984607
0.937478
0.947959
0.949248
0.949301
0.950233
0.952672
0.957703
0.974589
1.02919
1.06064
0.998197
1.00336
0.998081
0.998856
0.99905
0.999048
0.998842
0.998068
1.00337
0.998178
0.992608
1.00118
0.996332
0.997575
0.998009
0.998018
0.997591
0.996403
1.00127
0.992555
0.993175
1.00045
0.997588
0.998042
0.998353
0.998369
0.99808
0.997705
1.0005
0.993161
0.995541
0.999989
0.998693
0.998711
0.998821
0.99883
0.998728
0.998726
0.999884
0.995632
0.996825
0.999217
0.998764
0.998759
0.998777
0.99878
0.998762
0.998755
0.999103
0.996949
0.997271
0.998706
0.998624
0.998648
0.998634
0.998635
0.998646
0.998596
0.998627
0.997377
0.997543
0.998464
0.998502
0.998547
0.998535
0.998534
0.998541
0.998469
0.998407
0.997617
0.997749
0.99834
0.998405
0.998457
0.998457
0.998455
0.99845
0.998378
0.998308
0.997809
0.997885
0.99828
0.998342
0.998388
0.998397
0.998395
0.998381
0.99832
0.998259
0.997932
0.99798
0.998249
0.998299
0.998339
0.998353
0.99835
0.998332
0.998281
0.99823
0.998009
0.998043
0.998218
0.99827
0.998303
0.998318
0.998317
0.998297
0.998256
0.998213
0.998067
0.998089
0.998202
0.998256
0.998279
0.998292
0.99829
0.998272
0.998239
0.998202
0.99811
0.998115
0.998195
0.998241
0.99826
0.998271
0.998269
0.998254
0.998224
0.99819
0.998142
0.998125
0.998201
0.998227
0.998246
0.998255
0.998252
0.998237
0.99821
0.998178
0.998166
0.998131
0.998227
0.998221
0.998237
0.998243
0.998238
0.998221
0.998195
0.998164
0.998189
0.998127
0.998242
0.998227
0.998234
0.998233
0.998225
0.998206
0.998178
0.998146
0.998209
0.998117
0.998235
0.998242
0.998233
0.998226
0.998213
0.998189
0.998156
0.998118
0.998227
0.998109
0.998228
0.998254
0.998231
0.998219
0.998201
0.99817
0.998124
0.998073
0.998248
0.998075
0.998253
0.998263
0.998233
0.998214
0.998187
0.998145
0.998078
0.998006
0.998275
0.998006
0.9983
0.998283
0.998242
0.998212
0.998172
0.99811
0.998011
0.997901
0.998304
0.997897
0.998317
0.998312
0.998249
0.998205
0.998152
0.998061
0.997911
0.997731
0.99833
0.99772
0.998313
0.998336
0.998246
0.99819
0.99812
0.997989
0.99776
0.997458
0.998329
0.997404
0.998283
0.998321
0.998211
0.998148
0.998065
0.997883
0.997535
0.997016
0.99825
0.996806
0.998137
0.9982
0.998084
0.998029
0.997948
0.997716
0.997204
0.996302
0.997974
0.995688
0.997691
0.997811
0.997717
0.997705
0.997674
0.997426
0.996722
0.995159
0.997203
0.993562
0.996521
0.996773
0.996753
0.99686
0.996988
0.996859
0.996068
0.993499
0.995527
0.989421
0.993705
0.994211
0.994355
0.994708
0.995191
0.995491
0.995066
0.991098
0.991502
0.981304
0.987343
0.988261
0.988679
0.989452
0.99059
0.991925
0.993531
0.990908
0.988117
0.965613
0.973795
0.975202
0.975887
0.977166
0.979198
0.982031
0.988424
0.99008
0.983866
0.93638
0.946784
0.948371
0.948895
0.950402
0.95349
0.959173
0.976905
1.03067
1.05984
1.0029
1.0082
1.00335
1.00423
1.00441
1.00441
1.00424
1.00337
1.00823
1.00288
0.996835
1.00544
1.00118
1.00253
1.00292
1.00293
1.00256
1.00126
1.00556
0.996773
0.996031
1.00309
1.00042
1.00099
1.00128
1.00128
1.00101
1.0005
1.0031
0.996
0.997421
1.00155
0.999924
0.999978
1.00007
1.00006
0.999954
0.999889
1.0013
0.997522
0.997927
1.00005
0.999154
0.99911
0.999111
0.999106
0.999086
0.999106
0.999885
0.998041
0.99786
0.999104
0.998667
0.998612
0.99858
0.998577
0.998599
0.998628
0.999059
0.99794
0.997803
0.998721
0.998443
0.998395
0.998358
0.998355
0.998385
0.998406
0.99865
0.997896
0.997909
0.998475
0.998332
0.998303
0.998276
0.998274
0.998296
0.998307
0.99845
0.997944
0.99802
0.998339
0.998277
0.99826
0.998245
0.998244
0.998254
0.998258
0.99834
0.997992
0.997992
0.998323
0.998246
0.998238
0.998234
0.998233
0.998232
0.99823
0.998275
0.99803
0.998008
0.99822
0.998222
0.998225
0.998228
0.998226
0.998221
0.998215
0.998237
0.998066
0.99809
0.998129
0.998213
0.998216
0.998222
0.998221
0.998214
0.998203
0.99821
0.998097
0.998125
0.998143
0.998207
0.998211
0.998218
0.998217
0.998208
0.998193
0.998187
0.998121
0.998143
0.998225
0.998206
0.998212
0.998216
0.998212
0.9982
0.998181
0.998165
0.998141
0.998133
0.99835
0.998216
0.998218
0.998216
0.998207
0.998191
0.998168
0.998143
0.998153
0.998093
0.99834
0.998223
0.998222
0.998215
0.998201
0.99818
0.998152
0.998116
0.998159
0.998111
0.99819
0.998232
0.998221
0.99821
0.998192
0.998165
0.998125
0.998076
0.998163
0.998162
0.998132
0.998245
0.99822
0.998204
0.998181
0.998145
0.998088
0.998017
0.998161
0.998152
0.998246
0.998269
0.998229
0.998204
0.998169
0.998116
0.998034
0.997927
0.998147
0.998094
0.998392
0.998302
0.998247
0.998208
0.998155
0.998075
0.997951
0.997786
0.998117
0.99799
0.998369
0.998327
0.998256
0.998203
0.998131
0.998017
0.997827
0.997565
0.99806
0.997831
0.998295
0.998341
0.998248
0.998184
0.998093
0.997931
0.997643
0.997219
0.997944
0.997547
0.998283
0.998317
0.998203
0.998134
0.998025
0.997805
0.997372
0.996673
0.997708
0.996986
0.998151
0.998169
0.998052
0.997996
0.997888
0.997611
0.996982
0.995822
0.997228
0.995882
0.997662
0.99771
0.997627
0.99763
0.997577
0.997288
0.996439
0.994511
0.99621
0.993704
0.996359
0.99652
0.996539
0.996695
0.996825
0.996678
0.995733
0.99267
0.994252
0.989393
0.99326
0.993681
0.993917
0.994389
0.994932
0.995272
0.994731
0.990037
0.989855
0.980921
0.986398
0.987278
0.987891
0.988906
0.990235
0.991754
0.993407
0.989761
0.985645
0.964695
0.972134
0.973616
0.974676
0.97639
0.978854
0.982114
0.988871
0.989035
0.980287
0.93501
0.944446
0.946327
0.947503
0.94974
0.953655
0.960156
0.979233
1.03012
1.05467
0.998171
1.0029
0.998205
0.998933
0.999073
0.999069
0.99892
0.998186
1.00289
0.998174
0.990751
0.996842
0.992608
0.993859
0.994128
0.99412
0.99383
0.992567
0.996779
0.990742
0.991771
0.996079
0.993171
0.993917
0.994101
0.994096
0.993902
0.993159
0.996
0.991784
0.994463
0.997568
0.995574
0.995829
0.995878
0.995887
0.99585
0.995621
0.997518
0.994574
0.995832
0.998047
0.996889
0.997024
0.997031
0.997042
0.99705
0.99694
0.998037
0.995927
0.996417
0.997901
0.997334
0.997462
0.997474
0.997483
0.997487
0.99737
0.997936
0.996484
0.996874
0.997871
0.997591
0.997708
0.997732
0.997737
0.997727
0.997609
0.997892
0.996951
0.997283
0.997941
0.997791
0.997897
0.997933
0.997936
0.997908
0.997802
0.99794
0.99735
0.997512
0.998002
0.997918
0.998014
0.998054
0.998056
0.998017
0.997927
0.997987
0.997611
0.997716
0.998026
0.998003
0.998084
0.998117
0.998116
0.99808
0.998003
0.998024
0.997775
0.997945
0.998021
0.998069
0.998127
0.998152
0.998152
0.998121
0.998056
0.998058
0.997889
0.998043
0.998044
0.998118
0.998153
0.998173
0.998173
0.998147
0.998094
0.998086
0.997973
0.998072
0.99809
0.998143
0.998168
0.998187
0.998186
0.998163
0.998121
0.998105
0.998034
0.998044
0.99816
0.99815
0.99818
0.998197
0.998194
0.998173
0.998139
0.998118
0.998082
0.997982
0.998248
0.99816
0.998194
0.998205
0.998199
0.998179
0.998148
0.998121
0.998116
0.998081
0.998243
0.998181
0.998206
0.998209
0.998198
0.998179
0.998147
0.998112
0.998134
0.998235
0.998176
0.998212
0.998214
0.998208
0.998194
0.998173
0.998138
0.998093
0.998142
0.998259
0.998174
0.998239
0.99822
0.998211
0.998191
0.998162
0.99812
0.998055
0.998139
0.998168
0.998237
0.99825
0.99823
0.998217
0.99819
0.998144
0.998088
0.997986
0.99812
0.998054
0.998319
0.998258
0.998244
0.998226
0.998187
0.998119
0.998033
0.997873
0.998076
0.998081
0.998286
0.998265
0.998254
0.998233
0.998178
0.998084
0.997948
0.99769
0.997991
0.998051
0.998194
0.99826
0.998248
0.998229
0.998162
0.998032
0.997819
0.997388
0.997825
0.997752
0.998111
0.998197
0.998204
0.9982
0.998128
0.997952
0.997624
0.996896
0.997502
0.997161
0.997861
0.997969
0.998048
0.998091
0.998038
0.997824
0.997337
0.996103
0.99688
0.996018
0.997188
0.997395
0.997605
0.997753
0.997778
0.997575
0.996926
0.994842
0.995657
0.993751
0.995603
0.996052
0.996479
0.99684
0.997074
0.997045
0.996404
0.993066
0.993432
0.989249
0.992086
0.992984
0.993787
0.99454
0.995224
0.995703
0.995609
0.990627
0.988862
0.980441
0.984642
0.986259
0.987652
0.989066
0.990616
0.992356
0.994682
0.990538
0.984236
0.963763
0.969679
0.972247
0.974363
0.976637
0.97943
0.983057
0.989977
0.992177
0.979721
0.933774
0.941488
0.944867
0.947458
0.9505
0.954944
0.962278
0.980104
1.03039
1.06289
0.882083
0.890898
0.893974
0.895658
0.897888
0.901417
0.907408
0.912987
0.960267
1.01016
0.803709
0.811725
0.812197
0.810495
0.809558
0.810569
0.815991
0.823711
0.856461
0.940212
0.694712
0.69907
0.693744
0.685517
0.678308
0.674148
0.675363
0.683021
0.700407
0.748875
0.559757
0.557765
0.544233
0.527381
0.511524
0.498798
0.490438
0.486874
0.487231
0.496715
0.412917
0.404011
0.383148
0.359537
0.337474
0.318443
0.302837
0.290464
0.280771
0.275321
0.274441
0.261068
0.237735
0.213428
0.191403
0.172418
0.156296
0.14253
0.130735
0.121511
0.162222
0.14867
0.12851
0.109042
0.0922455
0.0782348
0.0665204
0.0565194
0.0478943
0.0410006
0.0845474
0.0740681
0.0602175
0.0477936
0.0376884
0.0296713
0.0232335
0.0179461
0.0135672
0.0103333
0.0386993
0.0322628
0.0245391
0.018087
0.0131655
0.00948567
0.00670583
0.00455609
0.00292653
0.00193636
0.0155902
0.012362
0.00879494
0.00600602
0.00401493
0.00262444
0.00165267
0.000962744
0.000509043
0.000328545
0.882969
0.893653
0.894755
0.894567
0.895644
0.898318
0.903475
0.906176
0.958768
1.00632
0.802333
0.812285
0.810175
0.805947
0.803174
0.802413
0.806266
0.810928
0.841772
0.932815
0.688374
0.694547
0.686088
0.674656
0.664776
0.657868
0.656181
0.660385
0.672407
0.720961
0.546258
0.545698
0.529038
0.508912
0.490238
0.474493
0.462503
0.454396
0.448306
0.451345
0.392857
0.38496
0.362226
0.336996
0.313618
0.293113
0.275589
0.260557
0.247103
0.237324
0.252292
0.239899
0.216785
0.192938
0.17148
0.152899
0.13686
0.122618
0.109779
0.0993875
0.143395
0.130919
0.112419
0.0947301
0.079545
0.0668848
0.0561523
0.0467082
0.0384386
0.0320496
0.0716795
0.0623266
0.050432
0.0398795
0.0313217
0.0245427
0.0189924
0.0143198
0.0104558
0.00793025
0.031464
0.0259395
0.0196765
0.0145045
0.0105621
0.00761144
0.00533383
0.00351546
0.00221032
0.00155754
0.012186
0.00951943
0.00676194
0.00463196
0.00310961
0.00203953
0.00127957
0.000714127
0.00038171
0.000284179
0.88415
0.896013
0.896492
0.895245
0.895131
0.896484
0.899811
0.899339
0.952275
1.0036
0.8008
0.812154
0.80902
0.803194
0.798598
0.795769
0.796858
0.798863
0.824345
0.918323
0.680412
0.688067
0.678327
0.664897
0.65263
0.642769
0.637291
0.636853
0.642338
0.684273
0.528723
0.529488
0.51186
0.490163
0.469443
0.450999
0.43542
0.422601
0.410121
0.405936
0.366696
0.35994
0.337919
0.313045
0.289482
0.268199
0.249284
0.232242
0.216145
0.203544
0.223997
0.213025
0.192328
0.170777
0.151038
0.133614
0.11826
0.104398
0.091797
0.08171
0.120013
0.10931
0.0939922
0.0793155
0.0665173
0.0556796
0.0463381
0.0380791
0.0308772
0.0255391
0.0563859
0.048774
0.0396188
0.0315261
0.0248662
0.0195038
0.0150328
0.0112368