/*--------------------------------*- C++ -*----------------------------------*\
| =========                 |                                                 |
| \\      /  F ield         | OpenFOAM: The Open Source CFD Toolbox           |
|  \\    /   O peration     | Version:  2112                                  |
|   \\  /    A nd           | Website:  www.openfoam.com                      |
|    \\/     M anipulation  |                                                 |
\*---------------------------------------------------------------------------*/
FoamFile
{
    version     2.0;
    format      ascii;
    arch        "LSB;label=32;scalar=64";
    class       volScalarField;
    location    "1.9995";
    object      Ma;
}
// * * * * * * * * * * * * * * * * * * * * * * * * * * * * * * * * * * * * * //

dimensions      [0 0 0 0 0 0 0];

internalField   nonuniform List<scalar> 
7000
(
3.00001
3
3
3
3
3
3
2.99999
3
2.99996
2.99992
2.99942
2.9989
2.99589
2.99341
2.97775
2.96287
2.89177
2.73557
2.35151
1.61328
0.755096
0.295074
0.387281
0.457916
0.466602
0.448275
0.423509
0.401634
0.384592
0.36897
0.353328
0.337484
0.320997
0.303872
0.286691
0.269445
0.251343
0.23191
0.211342
0.189802
0.167358
0.144643
0.122298
0.101278
0.0815822
0.0629142
0.0451201
0.0279974
0.0166458
3.00001
3
3
3
3
3
3
2.99999
3
2.99996
2.99992
2.99944
2.99894
2.99613
2.99377
2.97965
2.966
2.90267
2.74199
2.37196
1.62492
0.771994
0.297641
0.380774
0.449066
0.459556
0.443153
0.419656
0.397948
0.380865
0.365156
0.349274
0.332937
0.315806
0.298073
0.280345
0.262539
0.243948
0.224339
0.204112
0.183506
0.162575
0.141758
0.121318
0.101856
0.083251
0.0652726
0.0480821
0.0326574
0.0254755
3.00001
3
3
3
3
3
3
2.99999
3
2.99996
2.99992
2.99945
2.99893
2.99623
2.99385
2.98007
2.9672
2.90303
2.74911
2.38026
1.63553
0.77806
0.29263
0.371525
0.438268
0.449962
0.435806
0.413844
0.392495
0.375664
0.360319
0.344737
0.328489
0.311374
0.293774
0.276244
0.258601
0.240235
0.221079
0.201603
0.182054
0.162467
0.14315
0.124155
0.10594
0.0884271
0.0716139
0.0561728
0.043958
0.0397723
3.00001
3
3
3
3
3
3
3
3
2.99998
2.99983
2.99957
2.99821
2.99704
2.98926
2.9877
2.96931
2.91844
2.74859
2.39188
1.63731
0.792709
0.305928
0.373207
0.433343
0.446628
0.434103
0.413081
0.391419
0.374198
0.358615
0.342864
0.326443
0.309205
0.291599
0.274166
0.256705
0.238672
0.220112
0.201562
0.183214
0.165014
0.147141
0.129526
0.112569
0.0962355
0.0808196
0.0673039
0.0576222
0.0548877
3.00001
3
3
3
3
3
3
3
3
2.99998
2.99982
2.99959
2.99827
2.99724
2.98984
2.98798
2.96821
2.92332
2.7597
2.40404
1.65109
0.807283
0.314647
0.371842
0.427073
0.442673
0.43244
0.412769
0.391033
0.373579
0.357935
0.342285
0.325985
0.30888
0.291482
0.274304
0.257106
0.239468
0.221589
0.204003
0.186815
0.169927
0.153412
0.137091
0.121355
0.10621
0.0921809
0.0803344
0.0725116
0.0706181
3.00001
3
3
3
3
3
3
3
3
2.99998
2.99982
2.9996
2.99835
2.99741
2.99032
2.98913
2.97033
2.92909
2.76961
2.42091
1.67059
0.827767
0.330018
0.374303
0.422543
0.440315
0.432012
0.413558
0.391602
0.373626
0.357944
0.342592
0.326643
0.309897
0.292913
0.276161
0.259399
0.24231
0.225201
0.208621
0.192617
0.177008
0.161777
0.146705
0.132107
0.118145
0.105322
0.0948732
0.0883853
0.0869979
3.00001
3
3
3
3
3
3
3
3
2.99998
2.99984
2.99963
2.99848
2.99769
2.99099
2.9907
2.97289
2.93545
2.77743
2.43961
1.69377
0.852946
0.348237
0.377637
0.419098
0.438387
0.43182
0.414531
0.392616
0.374107
0.358619
0.343769
0.328319
0.312065
0.2956
0.279388
0.263235
0.246921
0.230801
0.215364
0.200576
0.186222
0.172201
0.158248
0.144776
0.131735
0.120027
0.110625
0.105082
0.104061
3.00001
3
3
3
3
3
3
3
3
2.99998
2.99985
2.99966
2.99864
2.99797
2.99179
2.99208
2.97512
2.94138
2.79082
2.45805
1.71959
0.882239
0.367123
0.37911
0.418049
0.437776
0.43223
0.415929
0.394302
0.375548
0.360363
0.346105
0.331171
0.315393
0.299527
0.28404
0.268663
0.253207
0.238107
0.223856
0.21033
0.197236
0.184428
0.171578
0.159013
0.147037
0.13606
0.127517
0.122699
0.121932
3.00001
3
3
3
3
3
3
3
3
2.99998
2.99987
2.9997
2.99878
2.99826
2.99255
2.99382
2.9779
2.94944
2.80172
2.48073
1.74956
0.917325
0.389188
0.381376
0.418657
0.438574
0.433762
0.418131
0.396883
0.378248
0.363374
0.349523
0.335033
0.319808
0.304607
0.289875
0.275414
0.2611
0.247315
0.234404
0.222158
0.210265
0.198523
0.186663
0.175046
0.163666
0.153621
0.145572
0.141171
0.140497
3.00001
3.00001
3
3
3
3
3
3
3
2.99999
2.99989
2.99974
2.99899
2.99834
2.99431
2.9935
2.97949
2.95806
2.81766
2.50569
1.78413
0.960234
0.416466
0.386051
0.421306
0.441426
0.436842
0.42147
0.400457
0.381957
0.367282
0.353704
0.339605
0.325055
0.310798
0.297116
0.283728
0.270576
0.258093
0.246548
0.235634
0.224989
0.214366
0.203451
0.192662
0.182066
0.172311
0.164932
0.160913
0.160363
3.00001
3.00001
3
3
3
3
3
3
3
2.99999
2.99989
2.99975
2.99902
2.9986
2.99399
2.99536
2.97946
2.96795
2.83211
2.53052
1.8242
1.01149
0.448974
0.391349
0.424456
0.444618
0.439852
0.424378
0.403491
0.385263
0.370968
0.357958
0.344596
0.330915
0.317689
0.305195
0.293122
0.281399
0.270403
0.260315
0.250756
0.241341
0.231825
0.221892
0.211893
0.201969
0.192944
0.185568
0.181745
0.181176
3.00001
3.00001
3
3
3
3
3
3
3
2.99998
2.99992
2.99978
2.9992
2.99868
2.9952
2.99483
2.97448
2.96635
2.83745
2.5413
1.87606
1.06638
0.47801
0.389511
0.422449
0.444024
0.440141
0.425222
0.405022
0.387754
0.374453
0.362396
0.350102
0.337697
0.325824
0.314679
0.304037
0.293881
0.284514
0.27597
0.267807
0.259641
0.251189
0.242171
0.232978
0.223672
0.215021
0.208345
0.204677
0.204099
3.00001
3.00001
3.00001
3
3
3
3
3
3
2.99998
2.99994
2.9997
2.99944
2.99835
2.99594
2.99369
2.97466
2.96636
2.84629
2.57207
1.93285
1.13388
0.514479
0.387953
0.419966
0.442741
0.43985
0.425653
0.406507
0.390392
0.37822
0.367283
0.356128
0.345055
0.334754
0.325268
0.31628
0.307807
0.30014
0.293202
0.28652
0.279703
0.27243
0.264514
0.256198
0.247689
0.23959
0.232735
0.229269
0.228656
3.00001
3.00001
3.00001
3.00001
3
3
3
3
3
2.99998
2.99995
2.99973
2.99952
2.99852
2.99663
2.99394
2.97606
2.97666
2.85369
2.61768
1.99348
1.22155
0.562459
0.390322
0.420056
0.443159
0.441392
0.427812
0.409482
0.394401
0.383264
0.373382
0.363455
0.353772
0.345014
0.337204
0.329963
0.323265
0.317358
0.312075
0.306938
0.301533
0.295606
0.288981
0.281777
0.274242
0.266819
0.260815
0.257306
0.256651
3.00001
3.00001
3.00001
3.00001
3.00001
3
3
3
3
2.99998
2.99995
2.99976
2.9996
2.99865
2.99754
2.99409
2.97873
2.97146
2.8693
2.64611
2.07947
1.32198
0.611934
0.386339
0.415232
0.439385
0.439787
0.427747
0.411265
0.397932
0.388372
0.37996
0.371687
0.363886
0.356992
0.350893
0.345363
0.34046
0.336364
0.33281
0.32932
0.325465
0.321082
0.316074
0.310242
0.303913
0.297647
0.291801
0.288972
0.288191
3.00001
3.00001
3.00001
3.00001
3.00001
3.00001
3.00001
3
3
2.99998
2.99995
2.99978
2.99964
2.99879
2.99779
2.99478
2.98114
2.9805
2.88373
2.7051
2.16481
1.43726
0.674907
0.391013
0.41527
0.438504
0.440966
0.429643
0.414631
0.402362
0.394128
0.387412
0.380995
0.375251
0.370432
0.366383
0.362807
0.35981
0.357599
0.355852
0.354127
0.352045
0.349417
0.346257
0.342454
0.337843
0.333072
0.328702
0.326166
0.326036
3.00001
3.00001
3.00001
3.00001
3.00001
3.00001
3.00001
3
3
2.99996
2.99993
2.99971
2.99951
2.99831
2.99729
2.99056
2.98989
2.97136
2.92023
2.74947
2.38692
1.65208
0.862083
0.476981
0.474054
0.483715
0.481746
0.464075
0.443647
0.42564
0.413438
0.404549
0.397383
0.391716
0.38765
0.384766
0.382759
0.381596
0.381236
0.381299
0.381475
0.381504
0.381391
0.380579
0.379028
0.377233
0.375179
0.372861
0.372449
0.372479
3.00001
3.00001
3.00001
3.00001
3.00001
3.00001
3.00001
3
3
2.99998
2.99995
2.99981
2.99967
2.99897
2.9982
2.99421
2.99298
2.97955
2.95436
2.81553
2.49176
1.77593
0.976085
0.513309
0.492265
0.508535
0.513015
0.498952
0.479535
0.459439
0.444233
0.432958
0.423856
0.416816
0.411832
0.408747
0.407259
0.407254
0.408288
0.410043
0.412306
0.414748
0.417352
0.419823
0.421789
0.423384
0.425399
0.427851
0.43118
0.435721
3.00001
3.00001
3.00001
3.00001
3.00001
3.00001
3.00001
3.00001
3
2.99999
2.99995
2.99991
2.99968
2.99938
2.99859
2.99574
2.99382
2.97161
2.96663
2.83903
2.55533
1.91265
1.12028
0.570622
0.485743
0.506771
0.520467
0.516288
0.502978
0.487064
0.473447
0.462956
0.454423
0.447485
0.442438
0.439156
0.437517
0.43765
0.439621
0.442922
0.447064
0.451815
0.457662
0.464202
0.47145
0.479487
0.48872
0.499148
0.513081
0.52852
3.00001
3.00001
3.00001
3.00001
3.00001
3.00001
3.00001
3.00001
3
3
2.99998
2.99995
2.99991
2.99965
2.99936
2.9972
2.99535
2.97681
2.97842
2.86235
2.65127
2.04496
1.287
0.652153
0.478617
0.495059
0.513556
0.52044
0.514554
0.504663
0.494901
0.487605
0.481746
0.476948
0.473498
0.471487
0.471071
0.472483
0.475766
0.480531
0.486547
0.493874
0.502702
0.513747
0.527084
0.543808
0.565404
0.594502
0.636331
0.719563
3.00001
3.00001
3.00001
3.00001
3.00001
3.00001
3.00001
3.00001
3.00001
3
2.99999
2.99998
2.9999
2.99982
2.99901
2.99785
2.99019
2.98826
2.96733
2.92106
2.74256
2.38865
1.61396
0.887324
0.549252
0.543087
0.557972
0.566211
0.558904
0.547272
0.53602
0.527955
0.522503
0.518437
0.51597
0.515577
0.517595
0.521257
0.52658
0.533724
0.543255
0.554971
0.569833
0.587763
0.610986
0.640529
0.682591
0.741284
0.839328
0.969693
3.00001
3.00001
3.00001
3.00001
3.00001
3.00001
3.00001
3.00001
3.00001
3
3
2.99999
2.99995
2.99992
2.99954
2.99905
2.99577
2.99394
2.97528
2.96073
2.81842
2.50018
1.82095
1.03191
0.571075
0.545506
0.573435
0.593937
0.595247
0.587198
0.578144
0.570432
0.565033
0.561397
0.560171
0.561593
0.565171
0.570772
0.578219
0.588083
0.600273
0.615986
0.635495
0.66058
0.692238
0.733414
0.788249
0.862869
0.977285
1.1116
3.00001
3.00001
3.00001
3.00001
3.00001
3.00001
3.00001
3.00001
3.00001
3.00001
3
3
2.99996
2.99994
2.9996
2.99919
2.9962
2.99481
2.97454
2.97769
2.85044
2.61911
2.01135
1.26082
0.677517
0.557209
0.582381
0.606224
0.615158
0.612796
0.608042
0.603612
0.601085
0.599843
0.601448
0.605239
0.61041
0.617674
0.627779
0.640634
0.65695
0.676055
0.700086
0.7287
0.765472
0.810322
0.868765
0.940812
1.04103
1.14586
3.00001
3.00001
3.00001
3.00001
3.00001
3.00001
3.00001
3.00001
3.00001
3.00001
3
3
2.99997
2.99994
2.99971
2.99941
2.9973
2.99627
2.98146
2.98474
2.89321
2.7212
2.27415
1.59168
0.837347
0.58807
0.5944
0.617206
0.633077
0.635327
0.632684
0.630737
0.630482
0.632623
0.637659
0.644387
0.652218
0.661478
0.673534
0.688083
0.7064
0.728217
0.754543
0.785558
0.82276
0.867263
0.921086
0.985726
1.06779
1.15324
3.00001
3.00001
3.00001
3.00001
3.00001
3.00001
3.00001
3.00001
3.00001
3.00001
3
3
2.99998
2.99997
2.9998
2.99957
2.99793
2.99718
2.98669
2.98804
2.9254
2.80269
2.49508
1.90997
1.05629
0.679837
0.624572
0.642307
0.657862
0.66286
0.661599
0.660297
0.661011
0.665047
0.67146
0.679162
0.688665
0.699903
0.713964
0.73021
0.749699
0.772385
0.799416
0.830782
0.867257
0.909413
0.958045
1.01434
1.0823
1.15138
3.00001
3.00001
3.00001
3.00001
3.00001
3.00001
3.00001
3.00001
3.00001
3.00001
3.00001
3
3
2.99997
2.99993
2.99969
2.99938
2.99724
2.99576
2.97865
2.98183
2.87293
2.68266
2.13732
1.43232
0.821652
0.66582
0.66613
0.679128
0.688572
0.690142
0.689737
0.69132
0.695815
0.702688
0.711127
0.721626
0.733894
0.749067
0.766312
0.786644
0.809384
0.835622
0.865426
0.899509
0.938458
0.982329
1.0321
1.09052
1.14947
3.00001
3.00001
3.00001
3.00001
3.00001
3.00001
3.00001
3.00001
3.00001
3.00001
3.00001
3
3
2.99998
2.99996
2.99977
2.99952
2.99762
2.99689
2.98459
2.98305
2.9246
2.78373
2.47421
1.88043
1.06512
0.745478
0.698715
0.705355
0.714204
0.720051
0.72227
0.725141
0.729985
0.736559
0.745062
0.75546
0.767777
0.78224
0.799488
0.819008
0.841864
0.867013
0.895693
0.927112
0.962422
1.00185
1.04545
1.09637
1.14738
3.00001
3.00001
3.00001
3.00001
3.00001
3.00001
3.00001
3.00001
3.00001
3.00001
3.00001
3.00001
3
3
2.99998
2.99993
2.99984
2.99931
2.99872
2.99327
2.99374
2.95862
2.89577
2.67957
2.26309
1.43323
0.931244
0.755744
0.739196
0.745476
0.753284
0.757611
0.761708
0.767447
0.774707
0.783238
0.793227
0.804916
0.818332
0.834022
0.851855
0.872534
0.895655
0.921764
0.950683
0.982685
1.01804
1.05713
1.10189
1.14676
3.00001
3.00001
3.00001
3.00001
3.00001
3.00001
3.00001
3.00001
3.00001
3.00001
3.00001
3.00001
3.00001
3
2.99999
2.99994
2.99992
2.99945
2.9989
2.99506
2.9937
2.96826
2.97038
2.83105
2.5545
1.94174
1.2292
0.841188
0.776772
0.776238
0.785481
0.796274
0.802063
0.807051
0.813293
0.821506
0.831255
0.842444
0.855218
0.869632
0.886149
0.904675
0.925567
0.948942
0.974847
1.00372
1.03531
1.07028
1.10979
1.14959
3.00001
3.00001
3.00001
3.00001
3.00001
3.00001
3.00001
3.00001
3.00001
3.00001
3.00001
3.00001
3.00001
3
2.99999
2.99998
2.9999
2.99984
2.99921
2.99842
2.9931
2.99082
2.97243
2.93389
2.77212
2.4385
1.71369
1.08349
0.821941
0.800671
0.811817
0.826536
0.837657
0.844346
0.850048
0.857119
0.866201
0.876955
0.889106
0.90277
0.917783
0.934761
0.953313
0.974122
0.997082
1.02256
1.05077
1.08186
1.11748
1.15305
3.00001
3.00001
3.00001
3.00001
3.00001
3.00001
3.00001
3.00001
3.00001
3.00001
3.00001
3.00001
3.00001
3.00001
3
2.99999
2.99995
2.9999
2.99957
2.99917
2.99632
2.99475
2.97692
2.97293
2.8716
2.65592
2.09604
1.40006
0.91981
0.829269
0.828922
0.843929
0.859385
0.869038
0.875565
0.882695
0.891614
0.902667
0.915124
0.929087
0.944146
0.960655
0.978448
0.997758
1.0187
1.04154
1.06676
1.09424
1.126
1.15788
3.00001
3.00001
3.00001
3.00001
3.00001
3.00001
3.00001
3.00001
3.00001
3.00001
3.00001
3.00001
3.00001
3.00001
3.00001
3
2.99999
2.99993
2.99988
2.99938
2.99886
2.99447
2.99349
2.96555
2.97336
2.81915
2.56224
1.93619
1.25763
0.915952
0.869064
0.869958
0.878912
0.889853
0.897722
0.904535
0.912226
0.922153
0.93404
0.947843
0.962979
0.979337
0.996987
1.01573
1.03584
1.05732
1.08059
1.10588
1.13454
1.16318
3.00001
3.00001
3.00001
3.00001
3.00001
3.00001
3.00001
3.00001
3.00001
3.00001
3.00001
3.00001
3.00001
3.00001
3.00001
3
2.99999
2.99997
2.99986
2.99978
2.99897
2.99818
2.99122
2.99215
2.96131
2.95798
2.78845
2.46422
1.79042
1.17465
0.9223
0.895571
0.899756
0.910633
0.922311
0.930461
0.9374
0.945681
0.955746
0.968065
0.982276
0.997635
1.01414
1.03168
1.05041
1.07041
1.09199
1.11532
1.1417
1.1681
3.00001
3.00001
3.00001
3.00001
3.00001
3.00001
3.00001
3.00001
3.00001
3.00001
3.00001
3.00001
3.00001
3.00001
3.00001
3.00001
3
2.99999
2.99998
2.9999
2.99985
2.9992
2.99865
2.99389
2.99155
2.96248
2.88673
2.72158
2.28299
1.56707
1.09543
0.936456
0.921084
0.928892
0.941108
0.953379
0.964148
0.973709
0.984131
0.994847
1.00737
1.02083
1.03575
1.05137
1.06821
1.08613
1.10549
1.12641
1.1501
1.17394
3.00001
3.00001
3.00001
3.00001
3.00001
3.00001
3.00001
3.00001
3.00001
3.00001
3.00001
3.00001
3.00001
3.00001
3.00001
3.00001
3.00001
3
2.99999
2.99995
2.9999
2.99956
2.99921
2.9962
2.99486
2.97407
2.98575
2.86271
2.66773
2.10833
1.4709
1.0497
0.962229
0.952183
0.960271
0.97313
0.987172
0.998723
1.00941
1.02029
1.03183
1.04462
1.05813
1.07303
1.08848
1.10496
1.12257
1.141
1.16203
1.18292
3.00001
3.00001
3.00001
3.00001
3.00001
3.00001
3.00001
3.00001
3.00001
3.00001
3.00001
3.00001
3.00001
3.00001
3.00001
3.00001
3.00001
3.00001
3
2.99999
2.99993
2.99989
2.99944
2.99902
2.99496
2.99385
2.96899
2.98427
2.83891
2.61602
2.04512
1.42521
1.0576
0.991291
0.984701
0.992914
1.006
1.02008
1.03172
1.04257
1.05327
1.06491
1.0773
1.09079
1.10543
1.12071
1.13746
1.15494
1.17497
1.19471
3.00001
3.00001
3.00001
3.00001
3.00001
3.00001
3.00001
3.00001
3.00001
3.00001
3.00001
3.00001
3.00001
3.00001
3.00001
3.00001
3.00001
3.00001
3
2.99999
2.99992
2.99992
2.99972
2.99952
2.9976
2.9968
2.9859
2.9883
2.92666
2.81076
2.56161
2.00313
1.35736
1.08529
1.02455
1.01783
1.02543
1.03755
1.05066
1.06175
1.07161
1.08192
1.09304
1.10522
1.11869
1.13309
1.14872
1.16567
1.18457
1.20393
3.00001
3.00001
3.00001
3.00001
3.00001
3.00001
3.00001
3.00001
3.00001
3.00001
3.00001
3.00001
3.00001
3.00001
3.00001
3.00001
3.00001
3.00001
3
3
2.99999
2.99997
2.9999
2.99979
2.99938
2.99836
2.99564
2.98949
2.96972
2.93012
2.80606
2.55298
1.97121
1.34085
1.11078
1.06546
1.05765
1.06372
1.07184
1.082
1.09075
1.09893
1.10795
1.11806
1.12977
1.14286
1.15761
1.17388
1.19191
1.21039
3.00001
3.00001
3.00001
3.00001
3.00001
3.00001
3.00001
3.00001
3.00001
3.00001
3.00001
3.00001
3.00001
3.00001
3.00001
3.00001
3.00001
3.00001
3.00001
3
2.99999
2.99999
2.99993
2.99989
2.99958
2.99936
2.99736
2.99638
2.9862
2.97334
2.90907
2.81784
2.53828
1.98043
1.40204
1.14574
1.10936
1.10426
1.10882
1.11589
1.1228
1.12773
1.13232
1.13881
1.14699
1.15713
1.16969
1.18419
1.20066
1.21778
3.00001
3.00001
3.00001
3.00001
3.00001
3.00001
3.00001
3.00001
3.00001
3.00001
3.00001
3.00001
3.00001
3.00001
3.00001
3.00001
3.00001
3.00001
3.00001
3.00001
3
3
2.99999
2.99996
2.99989
2.99966
2.99935
2.99786
2.99578
2.98691
2.97336
2.91944
2.82074
2.5641
2.02212
1.46338
1.17659
1.13761
1.13296
1.13735
1.14447
1.15284
1.15901
1.1655
1.17248
1.1804
1.18956
1.20039
1.21389
1.22848
3.00001
3.00001
3.00001
3.00001
3.00001
3.00001
3.00001
3.00001
3.00001
3.00001
3.00001
3.00001
3.00001
3.00001
3.00001
3.00001
3.00001
3.00001
3.00001
3.00001
3.00001
3
3
2.99998
2.99996
2.99984
2.99977
2.99897
2.99861
2.99462
2.98978
2.97179
2.92864
2.80589
2.59839
2.0839
1.51207
1.24798
1.17873
1.16776
1.16772
1.17026
1.17771
1.18572
1.194
1.20213
1.2115
1.22194
1.23416
1.24693
3.00001
3.00001
3.00001
3.00001
3.00001
3.00001
3.00001
3.00001
3.00001
3.00001
3.00001
3.00001
3.00001
3.00001
3.00001
3.00001
3.00001
3.00001
3.00001
3.00001
3.00001
3.00001
3
3
2.99998
2.99997
2.99986
2.9998
2.99914
2.99884
2.99539
2.99196
2.97152
2.94641
2.85302
2.65332
2.19822
1.64481
1.34167
1.23578
1.20513
1.19789
1.19812
1.20355
1.21172
1.22098
1.2307
1.24161
1.25414
1.26725
3.00001
3.00001
3.00001
3.00001
3.00001
3.00001
3.00001
3.00001
3.00001
3.00001
3.00001
3.00001
3.00001
3.00001
3.00001
3.00001
3.00001
3.00001
3.00001
3.00001
3.00001
3.00001
3.00001
3
3
2.99999
2.99995
2.99993
2.9997
2.99961
2.99826
2.99796
2.99354
2.98459
2.94603
2.89214
2.71119
2.35885
1.86518
1.41559
1.26208
1.22539
1.22013
1.2225
1.2292
1.23891
1.2487
1.25969
1.27191
1.28492
3.00001
3.00001
3.00001
3.00001
3.00001
3.00001
3.00001
3.00001
3.00001
3.00001
3.00001
3.00001
3.00001
3.00001
3.00001
3.00001
3.00001
3.00001
3.00001
3.00001
3.00001
3.00001
3.00001
3.00001
3
3
2.99999
2.99998
2.99989
2.99983
2.99934
2.99913
2.99646
2.99522
2.98234
2.96744
2.90492
2.79163
2.5174
2.02554
1.54945
1.31086
1.26985
1.26013
1.25914
1.26258
1.27021
1.27996
1.29183
1.30359
3.00001
3.00001
3.00001
3.00001
3.00001
3.00001
3.00001
3.00001
3.00001
3.00001
3.00001
3.00001
3.00001
3.00001
3.00001
3.00001
3.00001
3.00001
3.00001
3.00001
3.00001
3.00001
3.00001
3.00001
3.00001
3.00001
3
3
2.99999
2.99994
2.99992
2.99969
2.99912
2.99862
2.99394
2.99284
2.97461
2.93012
2.85851
2.63589
2.21862
1.73396
1.39806
1.30902
1.28736
1.28499
1.28941
1.29828
1.30965
1.32196
3.00001
3.00001
3.00001
3.00001
3.00001
3.00001
3.00001
3.00001
3.00001
3.00001
3.00001
3.00001
3.00001
3.00001
3.00001
3.00001
3.00001
3.00001
3.00001
3.00001
3.00001
3.00001
3.00001
3.00001
3.00001
3.00001
3.00001
3
3
2.99998
2.99997
2.99987
2.99978
2.99951
2.99846
2.99742
2.98809
2.98625
2.95716
2.92423
2.74727
2.45387
2.00718
1.59634
1.38587
1.33833
1.32807
1.32832
1.33406
1.34352
3.00001
3.00001
3.00001
3.00001
3.00001
3.00001
3.00001
3.00001
3.00001
3.00001
3.00001
3.00001
3.00001
3.00001
3.00001
3.00001
3.00001
3.00001
3.00001
3.00001
3.00001
3.00001
3.00001
3.00001
3.00001
3.00001
3.00001
3.00001
3
3
2.99998
2.99998
2.99993
2.99989
2.99935
2.9993
2.99798
2.99693
2.98576
2.98429
2.9366
2.86826
2.59477
2.24729
1.79497
1.52687
1.40479
1.37562
1.37123
1.37644
3.00001
3.00001
3.00001
3.00001
3.00001
3.00001
3.00001
3.00001
3.00001
3.00001
3.00001
3.00001
3.00001
3.00001
3.00001
3.00001
3.00001
3.00001
3.00001
3.00001
3.00001
3.00001
3.00001
3.00001
3.00001
3.00001
3.00001
3.00001
3.00001
3.00001
3
3
2.99998
2.99997
2.99984
2.9998
2.99914
2.99896
2.99565
2.99461
2.97917
2.96451
2.89726
2.77823
2.52758
2.13042
1.75699
1.5119
1.44191
1.42818
3.00001
3.00001
3.00001
3.00001
3.00001
3.00001
3.00001
3.00001
3.00001
3.00001
3.00001
3.00001
3.00001
3.00001
3.00001
3.00001
3.00001
3.00001
3.00001
3.00001
3.00001
3.00001
3.00001
3.00001
3.00001
3.00001
3.00001
3.00001
3.00001
3.00001
3.00001
3
3
2.99998
2.99998
2.99992
2.99987
2.99936
2.99928
2.99773
2.99736
2.9845
2.98436
2.9464
2.90906
2.71001
2.45023
2.07985
1.75718
1.5647
3.00001
3.00001
3.00001
3.00001
3.00001
3.00001
3.00001
3.00001
3.00001
3.00001
3.00001
3.00001
3.00001
3.00001
3.00001
3.00001
3.00001
3.00001
3.00001
3.00001
3.00001
3.00001
3.00001
3.00001
3.00001
3.00001
3.00001
3.00001
3.00001
3.00001
3.00001
3.00001
3.00001
3
2.99999
2.99999
2.99994
2.99993
2.99968
2.99962
2.99836
2.99785
2.99171
2.98834
2.9601
2.93791
2.80486
2.67915
2.40462
2.01849
3.00001
3.00001
3.00001
3.00001
3.00001
3.00001
3.00001
3.00001
3.00001
3.00001
3.00001
3.00001
3.00001
3.00001
3.00001
3.00001
3.00001
3.00001
3.00001
3.00001
3.00001
3.00001
3.00001
3.00001
3.00001
3.00001
3.00001
3.00001
3.00001
3.00001
3.00001
3.00001
3.00001
3.00001
3.00001
3
3
2.99999
2.99999
2.99994
2.99994
2.99995
3.00031
2.99986
3.00334
2.98793
3.05283
2.9633
2.9002
2.55684
3.00001
3.00001
3.00001
3.00001
3.00001
3.00001
3.00001
3.00001
3.00001
3.00001
3.00001
3.00001
3.00001
3.00001
3.00001
3.00001
3.00001
3.00001
3.00001
3.00001
3.00001
3.00001
3.00001
3.00001
3.00001
3.00001
3.00001
3.00001
3.00001
3.00001
3.00001
3.00001
3.00001
3.00001
3.00001
3.00001
3.00001
3
3
2.99998
3
3.00003
3.00044
3.00036
3.00293
2.9975
3.02675
2.98699
2.95233
2.79825
3.00001
3.00001
3.00001
3.00001
3.00001
3.00001
3.00001
3.00001
3.00001
3.00001
3.00001
3.00001
3.00001
3.00001
3.00001
3.00001
3.00001
3.00001
3.00001
3.00001
3.00001
3.00001
3.00001
3.00001
3.00001
3.00001
3.00001
3.00001
3.00001
3.00001
3.00001
3.00001
3.00001
3.00001
3.00001
3.00001
3.00001
3.00001
3.00001
3
3.00001
3.00003
3.00028
3.00027
3.00152
2.99881
3.01227
2.99363
2.97456
2.90156
3.00001
3.00001
3.00001
3.00001
3.00001
3.00001
3.00001
3.00001
3.00001
3.00001
3.00001
3.00001
3.00001
3.00001
3.00001
3.00001
3.00001
3.00001
3.00001
3.00001
3.00001
3.00001
3.00001
3.00001
3.00001
3.00001
3.00001
3.00001
3.00001
3.00001
3.00001
3.00001
3.00001
3.00001
3.00001
3.00001
3.00001
3.00001
3.00001
3.00001
3.00004
3.00005
3.00017
3.00017
3.00083
2.99955
3.00621
2.99697
2.98783
2.95144
3.00001
3.00001
3.00001
3.00001
3.00001
3.00001
3.00001
3.00001
3.00001
3.00001
3.00001
3.00001
3.00001
3.00001
3.00001
3.00001
3.00001
3.00001
3.00001
3.00001
3.00001
3.00001
3.00001
3.00001
3.00001
3.00001
3.00001
3.00001
3.00001
3.00001
3.00001
3.00001
3.00001
3.00001
3.00001
3.00001
3.00001
3.00001
3.00001
3.00001
3.00001
3.00001
3.00007
3.00007
3.00034
2.99966
3.00285
2.99833
2.99376
2.97634
3.00001
3.00001
3.00001
3.00001
3.00001
3.00001
3.00001
3.00001
3.00001
3.00001
3.00001
3.00001
3.00001
3.00001
3.00001
3.00001
3.00001
3.00001
3.00001
3.00001
3.00001
3.00001
3.00001
3.00001
3.00001
3.00001
3.00001
3.00001
3.00001
3.00001
3.00001
3.00001
3.00001
3.00001
3.00001
3.00001
3.00001
3.00001
3.00001
3.00001
3.00001
3.00001
3.00004
3.00004
3.00017
2.99983
3.00138
2.9992
2.99703
2.98856
3.00001
3.00001
3.00001
3.00001
3.00001
3.00001
3.00001
3.00001
3.00001
3.00001
3.00001
3.00001
3.00001
3.00001
3.00001
3.00001
3.00001
3.00001
3.00001
3.00001
3.00001
3.00001
3.00001
3.00001
3.00001
3.00001
3.00001
3.00001
3.00001
3.00001
3.00001
3.00001
3.00001
3.00001
3.00001
3.00001
3.00001
3.00001
3.00001
3.00001
3
3
2.99999
2.99999
2.99991
2.99989
2.99946
2.99948
2.99814
2.99671
3.00001
3.00001
3.00001
3.00001
3.00001
3.00001
3.00001
3.00001
3.00001
3.00001
3.00001
3.00001
3.00001
3.00001
3.00001
3.00001
3.00001
3.00001
3.00001
3.00001
3.00001
3.00001
3.00001
3.00001
3.00001
3.00001
3.00001
3.00001
3.00001
3.00001
3.00001
3.00001
3.00001
3.00001
3.00001
3.00001
3.00001
3.00001
3.00001
3.00001
3.00001
3.00001
3
3
2.99995
2.99994
2.99971
2.99972
2.99903
2.99826
3.00001
3.00001
3.00001
3.00001
3.00001
3.00001
3.00001
3.00001
3.00001
3.00001
3.00001
3.00001
3.00001
3.00001
3.00001
3.00001
3.00001
3.00001
3.00001
3.00001
3.00001
3.00001
3.00001
3.00001
3.00001
3.00001
3.00001
3.00001
3.00001
3.00001
3.00001
3.00001
3.00001
3.00001
3.00001
3.00001
3.00001
3.00001
3.00001
3.00001
3.00001
3.00001
3.00001
3
3.00001
2.99996
3.00016
2.99986
2.99955
2.99834
3.00001
3.00001
3.00001
3.00001
3.00001
3.00001
3.00001
3.00001
3.00001
3.00001
3.00001
3.00001
3.00001
3.00001
3.00001
3.00001
3.00001
3.00001
3.00001
3.00001
3.00001
3.00001
3.00001
3.00001
3.00001
3.00001
3.00001
3.00001
3.00001
3.00001
3.00001
3.00001
3.00001
3.00001
3.00001
3.00001
3.00001
3.00001
3.00001
3.00001
3.00001
3.00001
3.00001
3.00001
3
2.99999
2.99989
2.99988
2.99961
2.9993
1.44482
1.60302
1.63094
1.56405
1.47727
1.37592
1.27856
1.19271
1.16398
1.16201
1.16616
1.16759
1.16467
1.15681
1.14478
1.12995
1.11854
1.11025
1.1032
1.09572
1.08776
1.08029
1.07399
1.06886
1.06469
1.06136
1.05958
1.05997
1.06114
1.06305
1.0659
1.06934
1.07282
1.07615
1.07939
1.08148
1.08005
1.07028
1.04182
0.972541
0.815697
0.49423
0.152788
0.0837495
0.0754311
0.139999
0.19721
0.254189
0.309157
0.360708
0.407455
0.447118
0.486047
0.525901
0.563843
0.597788
0.629026
0.657726
0.685103
0.710845
0.735976
0.759769
0.783193
0.80545
0.827433
0.848288
0.869077
0.888878
0.908706
0.927631
0.946656
0.964812
0.983147
1.00064
1.01841
1.0354
1.0527
1.06922
1.08599
1.1019
1.11805
1.13336
1.14911
1.16387
1.17923
1.19347
1.20841
1.22218
1.23667
1.25001
1.26414
1.27713
1.29102
1.30376
1.31746
1.32988
1.34312
1.35434
1.36501
1.37067
1.39731
1.49728
1.53604
1.54952
1.56921
1.6069
1.63668
1.64154
1.62776
1.59789
1.56027
1.53319
1.52301
1.52312
1.52407
1.52246
1.5199
1.51238
1.50458
1.49696
1.49239
1.48869
1.48663
1.48466
1.48328
1.48258
1.48231
1.48227
1.48251
1.48333
1.48471
1.48612
1.48714
1.48788
1.48844
1.48822
1.48525
1.47593
1.45219
1.39581
1.27004
1.01268
0.628542
0.458711
0.519742
0.59642
0.658096
0.706805
0.741063
0.770728
0.799869
0.826796
0.850844
0.875582
0.902351
0.928936
0.952998
0.975267
0.996247
1.01632
1.03566
1.05443
1.07271
1.09057
1.1081
1.12529
1.14228
1.15899
1.17554
1.19184
1.20794
1.22382
1.23948
1.25497
1.27044
1.28585
1.30131
1.31672
1.33211
1.34738
1.36268
1.37756
1.39247
1.40679
1.42128
1.43504
1.44916
1.4624
1.47622
1.48899
1.50262
1.515
1.52848
1.54049
1.55378
1.56531
1.57812
1.58844
1.59894
1.60364
1.34637
1.438
1.51295
1.58915
1.67298
1.74747
1.79752
1.80829
1.80806
1.79652
1.77137
1.74132
1.71926
1.70307
1.69687
1.69267
1.69136
1.68918
1.68643
1.68346
1.68084
1.6786
1.67684
1.67568
1.6749
1.67411
1.67371
1.6738
1.67434
1.67501
1.67595
1.67699
1.67735
1.67733
1.67713
1.67562
1.67112
1.66022
1.63589
1.58426
1.4815
1.30798
1.07806
0.89812
0.872854
0.906017
0.938119
0.967258
0.989434
1.00474
1.01824
1.03156
1.04427
1.05768
1.07263
1.08899
1.10585
1.12236
1.13864
1.15451
1.17021
1.18556
1.20088
1.21576
1.23081
1.24533
1.26029
1.27461
1.28954
1.30381
1.31872
1.33301
1.3479
1.36227
1.37724
1.39166
1.40671
1.42125
1.4364
1.45093
1.46612
1.4804
1.49553
1.50926
1.52413
1.53717
1.55152
1.56392
1.57762
1.58938
1.60253
1.61373
1.62644
1.63725
1.64973
1.66026
1.67244
1.68219
1.69267
1.69759
1.31821
1.41209
1.49762
1.57594
1.65203
1.71756
1.77716
1.82618
1.86142
1.87521
1.87673
1.8733
1.85856
1.83737
1.81912
1.80276
1.79464
1.78925
1.78815
1.78718
1.78618
1.78511
1.78404
1.783
1.78223
1.78185
1.78147
1.78126
1.78159
1.7824
1.78333
1.78355
1.78366
1.78278
1.78186
1.77842
1.77001
1.75133
1.71174
1.63042
1.49241
1.35703
1.27099
1.18003
1.10223
1.05759
1.05053
1.0643
1.07838
1.0949
1.11158
1.12445
1.13709
1.14917
1.16141
1.17335
1.18648
1.19991
1.21414
1.2283
1.2429
1.25703
1.27162
1.28549
1.29973
1.31316
1.32732
1.34074
1.35495
1.36836
1.38246
1.39578
1.40984
1.42319
1.4374
1.45094
1.46538
1.47914
1.49383
1.50762
1.52246
1.53603
1.5509
1.5641
1.57879
1.59161
1.60588
1.61826
1.63203
1.64382
1.65698
1.66825
1.68075
1.69164
1.70371
1.71408
1.72606
1.73556
1.74591
1.75062
1.29371
1.38318
1.46809
1.5474
1.62174
1.6902
1.75468
1.81223
1.86512
1.90256
1.92512
1.93042
1.93057
1.9262
1.91233
1.89782
1.88087
1.86841
1.85847
1.85448
1.851
1.85113
1.85099
1.85094
1.85083
1.85072
1.8507
1.85067
1.851
1.85117
1.85141
1.85137
1.85085
1.84978
1.84677
1.83928
1.82247
1.78664
1.71137
1.57954
1.44442
1.3828
1.3623
1.33638
1.29701
1.25088
1.20491
1.16974
1.15241
1.15315
1.16205
1.17351
1.18859
1.20292
1.21569
1.22726
1.2385
1.2492
1.26108
1.27308
1.28654
1.30027
1.31501
1.32899
1.34375
1.35747
1.37196
1.38517
1.39937
1.41226
1.4262
1.4389
1.45269
1.46527
1.47903
1.49153
1.50527
1.51774
1.53156
1.54405
1.55797
1.5703
1.58419
1.5962
1.61011
1.62189
1.63582
1.64745
1.66128
1.67277
1.68639
1.69772
1.71101
1.72232
1.73513
1.74633
1.75879
1.76913
1.78028
1.78596
1.27394
1.35669
1.43585
1.51142
1.58446
1.65202
1.71625
1.77377
1.82716
1.87393
1.91613
1.94484
1.96436
1.96948
1.96952
1.96668
1.95604
1.94361
1.92851
1.91708
1.90729
1.90331
1.90015
1.90094
1.90125
1.90198
1.90255
1.90342
1.9036
1.90387
1.90369
1.90327
1.9021
1.89925
1.89205
1.87626
1.84248
1.77184
1.63931
1.4956
1.42808
1.41393
1.41722
1.41719
1.40976
1.39472
1.36919
1.33326
1.28725
1.24377
1.21665
1.20905
1.21562
1.22549
1.24006
1.25695
1.27103
1.28327
1.29528
1.30615
1.31808
1.33001
1.3443
1.35912
1.37531
1.39051
1.40616
1.42026
1.43489
1.44809
1.46199
1.47457
1.48798
1.50005
1.513
1.52469
1.53741
1.5489
1.56146
1.57266
1.5851
1.59614
1.60862
1.61964
1.63228
1.64328
1.65624
1.66731
1.68072
1.69189
1.70574
1.71695
1.73102
1.74234
1.75624
1.76792
1.78117
1.79291
1.80445
1.81203
1.25701
1.33288
1.40633
1.47781
1.54738
1.61337
1.67624
1.73464
1.78951
1.83938
1.88559
1.9265
1.96009
1.9819
1.99568
1.99902
1.99884
1.99602
1.98668
1.97677
1.96345
1.95373
1.94474
1.94141
1.93848
1.93922
1.93995
1.94055
1.94126
1.94126
1.94121
1.94007
1.93752
1.93079
1.91585
1.88366
1.81649
1.68462
1.53267
1.45149
1.43561
1.44181
1.45288
1.46265
1.47155
1.47442
1.47146
1.45808
1.43266
1.39526
1.34589
1.29695
1.26268
1.25061
1.25715
1.26755
1.28394
1.30497
1.3232
1.33813
1.35152
1.36368
1.37639
1.3896
1.40464
1.41948
1.43498
1.44951
1.46424
1.47759
1.49115
1.50347
1.51617
1.52783
1.54001
1.55136
1.56312
1.57422
1.58571
1.59652
1.60791