/*--------------------------------*- C++ -*----------------------------------*\
| =========                 |                                                 |
| \\      /  F ield         | OpenFOAM: The Open Source CFD Toolbox           |
|  \\    /   O peration     | Version:  2112                                  |
|   \\  /    A nd           | Website:  www.openfoam.com                      |
|    \\/     M anipulation  |                                                 |
\*---------------------------------------------------------------------------*/
FoamFile
{
    version     2.0;
    format      ascii;
    arch        "LSB;label=32;scalar=64";
    class       volScalarField;
    location    "1.9995";
    object      p;
}
// * * * * * * * * * * * * * * * * * * * * * * * * * * * * * * * * * * * * * //

dimensions      [1 -1 -2 0 0 0 0];

internalField   nonuniform List<scalar> 
7000
(
0.999999
1
1.00001
1.00001
1.00001
1.00002
1.00002
1.00002
1.00002
1.00001
1.00011
1.00032
1.00109
1.00223
1.00656
1.01197
1.03758
1.05451
1.28632
1.44262
2.88232
5.43455
11.7848
11.257
10.4867
10.2875
10.3374
10.4627
10.5933
10.6844
10.7571
10.8288
10.9026
10.976
11.0476
11.1173
11.1844
11.2482
11.3083
11.3644
11.4159
11.4614
11.5006
11.5328
11.5589
11.5778
11.5921
11.6024
11.6113
11.6177
1
1
1.00001
1.00001
1.00001
1.00001
1.00001
1.00001
1.00002
1.00001
1.00011
1.00031
1.00104
1.00213
1.00616
1.01115
1.0348
1.04667
1.28357
1.40058
2.85589
5.29768
11.6084
11.2057
10.4985
10.2932
10.3364
10.452
10.5826
10.6755
10.7493
10.8215
10.8957
10.9695
11.0415
11.1115
11.179
11.2432
11.3037
11.3602
11.4119
11.4576
11.4971
11.5295
11.5558
11.575
11.5896
11.6002
11.6092
11.6155
1
1
1.00001
1.00001
1.00001
1.00001
1.00001
1.00001
1.00002
1.00002
1.00011
1.00031
1.00103
1.00213
1.00607
1.01103
1.03431
1.04617
1.27576
1.39437
2.82825
5.23709
11.5535
11.1682
10.5114
10.3071
10.3434
10.4474
10.5776
10.6726
10.7472
10.8194
10.8932
10.9666
11.0383
11.1078
11.1747
11.2382
11.2978
11.3535
11.4042
11.4491
11.488
11.5202
11.5466
11.5663
11.5814
11.5923
11.6011
11.6069
1
1.00001
1.00001
1.00001
1.00001
1.00001
1.00001
1.00001
1.00001
1.00003
1.00011
1.00043
1.00098
1.00293
1.00565
1.01722
1.02544
1.02704
1.27466
1.34959
2.8221
5.14337
11.3927
11.0869
10.5197
10.306
10.3348
10.428
10.5598
10.6581
10.7345
10.8073
10.8813
10.9549
11.0268
11.0964
11.1631
11.2263
11.2855
11.3406
11.3905
11.4349
11.4734
11.5054
11.532
11.5519
11.5675
11.5786
11.5874
11.5931
1
1
1.00001
1.00001
1.00001
1.00001
1.00001
1.00001
1.00001
1.00003
1.00011
1.00043
1.00093
1.00282
1.00525
1.01609
1.02503
1.02802
1.26196
1.33331
2.7875
5.04267
11.2581
11.0179
10.5378
10.3124
10.3317
10.4117
10.5447
10.6459
10.7235
10.7961
10.8696
10.9427
11.0141
11.0831
11.1491
11.2113
11.2696
11.3236
11.3724
11.4159
11.4537
11.4854
11.5119
11.5321
11.5479
11.5594
11.5682
11.5739
1
1
1.00001
1.00001
1.00001
1.00001
1.00001
1.00001
1.00001
1.00003
1.00011
1.00041
1.00089
1.00266
1.00495
1.01505
1.02278
1.02512
1.25057
1.31269
2.74739
4.92412
11.093
10.9354
10.5507
10.3103
10.3207
10.3884
10.5216
10.6273
10.7068
10.7794
10.8525
10.9253
10.9963
11.0647
11.1299
11.1912
11.2485
11.3015
11.3492
11.3916
11.4286
11.4599
11.4861
11.5063
11.5223
11.5339
11.5427
11.5485
1
1
1.00001
1.00001
1.00001
1.00001
1.00001
1.00001
1.00001
1.00003
1.0001
1.00038
1.00083
1.00241
1.00453
1.01377
1.01984
1.01828
1.24412
1.2906
2.7056
4.79173
10.9023
10.8545
10.5572
10.3041
10.3075
10.3664
10.4942
10.6059
10.6874
10.7594
10.8315
10.9036
10.9739
11.0415
11.1056
11.1657
11.2217
11.2734
11.3198
11.3611
11.3973
11.4278
11.4539
11.474
11.49
11.5017
11.5106
11.5165
1
1
1.00001
1.00001
1.00001
1.00001
1.00001
1.00001
1.00001
1.00003
1.00009
1.00034
1.00074
1.00216
1.00398
1.01203
1.01724
1.01806
1.22693
1.26783
2.66055
4.64116
10.6686
10.8025
10.5422
10.289
10.2892
10.343
10.4656
10.5809
10.6638
10.735
10.806
10.8771
10.9464
11.0128
11.0756
11.1343
11.1889
11.2391
11.2841
11.3242
11.3593
11.3891
11.4146
11.4345
11.4505
11.4622
11.471
11.4768
1
1
1.00001
1.00001
1.00001
1.00001
1.00001
1.00001
1.00001
1.00002
1.00008
1.0003
1.00067
1.00189
1.00354
1.01039
1.01404
1.01212
1.21592
1.24094
2.6078
4.47741
10.3922
10.7565
10.5181
10.2668
10.265
10.3169
10.4365
10.5524
10.6355
10.7057
10.7754
10.8453
10.9133
10.9782
11.0392
11.0962
11.149
11.1974
11.2409
11.2796
11.3135
11.3424
11.3674
11.3869
11.4028
11.4146
11.4235
11.4296
1
1
1.00001
1.00001
1.00001
1.00001
1.00001
1.00001
1.00001
1.00002
1.00007
1.00026
1.00057
1.00162
1.00307
1.00904
1.01362
1.01663
1.19596
1.21104
2.54715
4.29838
10.067
10.7112
10.4937
10.2398
10.2359
10.287
10.405
10.52
10.6023
10.6714
10.7395
10.8076
10.8737
10.9367
10.9957
11.0506
11.1014
11.1479
11.1895
11.2265
11.259
11.2869
11.3111
11.3303
11.346
11.3576
11.3663
11.3723
1
1
1
1.00001
1.00001
1.00001
1.00001
1.00001
1.00001
1.00002
1.00007
1.00024
1.00055
1.00153
1.00289
1.00856
1.01056
1.01005
1.18005
1.18353
2.4813
4.09584
9.68156
10.6616
10.4676
10.2084
10.2021
10.253
10.3702
10.4834
10.5641
10.6314
10.6977
10.7637
10.8276
10.8882
10.9447
10.9972
11.0455
11.0896
11.129
11.1641
11.195
11.2215
11.2446
11.2632
11.2786
11.2904
11.2993
11.3057
1
1
1
1
1.00001
1.00001
1.00001
1.00001
1.00001
1.00002
1.00006
1.00021
1.00047
1.00132
1.00242
1.00709
1.01167
1.02244
1.16144
1.20886
2.35995
3.87046
9.23462
10.6024
10.4339
10.1715
10.1638
10.215
10.3319
10.4424
10.5206
10.5857
10.6495
10.7129
10.774
10.8316
10.8852
10.9346
10.98
11.0212
11.0579
11.0906
11.1195
11.1444
11.1663
11.1842
11.1989
11.21
11.2185
11.225
1
1
1
1
1.00001
1.00001
1.00001
1.00001
1.00001
1.00002
1.00007
1.00016
1.00052
1.001
1.00292
1.00625
1.01413
1.0228
1.14939
1.18827
2.27514
3.6257
8.70957
10.5463
10.4012
10.1341
10.1228
10.1736
10.2891
10.3966
10.4719
10.5345
10.5955
10.6556
10.7132
10.7672
10.8171
10.8628
10.9045
10.942
10.9754
11.005
11.0311
11.0538
11.0736
11.0905
11.1046
11.1157
11.1244
11.1311
1
1
1
1
1
1
1
1
1.00001
1.00002
1.00007
1.00015
1.00046
1.00085
1.00249
1.00552
1.01237
1.01941
1.13768
1.13918
2.22021
3.34113
8.104
10.4997
10.3719
10.1078
10.0845
10.1327
10.2438
10.3469
10.4187
10.4779
10.5353
10.5916
10.645
10.6945
10.7398
10.7809
10.8181
10.8509
10.8801
10.9056
10.928
10.9475
10.9644
10.9792
10.9914
11.0012
11.0093
11.0163
1
1
1
1
1
1
1
1
1.00001
1.00002
1.00006
1.00013
1.0004
1.00074
1.00225
1.00377
1.01331
1.02157
1.12105
1.14284
2.07438
3.05106
7.36856
10.4483
10.3341
10.0759
10.042
10.0884
10.1949
10.2934
10.3614
10.4167
10.4696
10.5208
10.569
10.6131
10.6529
10.6884
10.7198
10.7469
10.7705
10.7904
10.8074
10.8222
10.8349
10.8461
10.8559
10.8638
10.871
10.878
1
1
1
1
1
1
1
1
1.00001
1.00002
1.00006
1.00012
1.00037
1.00067
1.00202
1.00337
1.01221
1.0159
1.10212
1.09622
1.98663
2.708
6.59443
10.467
10.3453
10.0745
10.0027
10.0423
10.138
10.234
10.2996
10.3508
10.3983
10.4436
10.4856
10.5231
10.5559
10.5844
10.6086
10.6284
10.6444
10.6568
10.6664
10.674
10.6797
10.6848
10.6894
10.6934
10.698
10.7045
1
1
1
1
1
1
1
1
1.00001
1.00003
1.00008
1.00016
1.00048
1.00092
1.00267
1.00492
1.01536
1.02191
1.0249
1.26439
1.36856
2.75685
5.13644
10.419
10.4025
10.1722
10.0008
10.0182
10.0832
10.1762
10.2393
10.2839
10.3235
10.3612
10.3955
10.4249
10.4492
10.4689
10.4838
10.4942
10.5001
10.5017
10.5009
10.4975
10.4919
10.486
10.4809
10.476
10.4752
10.4805
1
1
1
1
1
1
1
1
1.00001
1.00002
1.00006
1.00011
1.00031
1.00059
1.00172
1.00317
1.00908
1.01396
1.01971
1.19978
1.22146
2.5612
4.3319
9.86928
10.3683
10.1818
9.97405
9.97431
10.0139
10.0996
10.1652
10.207
10.2405
10.2704
10.2958
10.316
10.3307
10.3399
10.3435
10.3418
10.3353
10.3219
10.3055
10.2849
10.2617
10.2371
10.2129
10.1902
10.1739
10.171
1
1
1
1
1
1
1
1
1.00001
1.00002
1.00004
1.0001
1.00018
1.00055
1.00095
1.00307
1.00692
1.01495
1.02309
1.1587
1.19666
2.31341
3.70194
8.75474
10.2418
10.1389
9.934
9.9067
9.93803
10.0112
10.077
10.1163
10.1431
10.1649
10.1819
10.1929
10.1973
10.1955
10.1874
10.1701
10.1457
10.114
10.0761
10.03
9.97716
9.91852
9.85618
9.79211
9.73567
9.70384
1
1
1
1
1
1
1
1
1
1.00001
1.00002
1.00004
1.00008
1.00027
1.00035
1.00233
1.00386
1.01387
1.01585
1.12566
1.11783
2.14364
3.12543
7.56274
10.1951
10.14
9.95175
9.84237
9.85617
9.90451
9.96868
10.0066
10.0276
10.0415
10.0501
10.0503
10.0455
10.0314
10.0054
9.97075
9.92668
9.87174
9.80421
9.72222
9.62374
9.50762
9.37061
9.21263
9.03498
8.8616
1
1
1
1
1
1
1
1
1
1
1.00001
1.00002
1.00008
1.00007
1.00085
1.00094
1.00685
1.01686
1.02534
1.02439
1.28011
1.35948
2.80375
5.25737
10.1685
10.2771
10.0731
9.82966
9.79244
9.81085
9.85212
9.87933
9.88972
9.89075
9.88804
9.87745
9.85403
9.81896
9.77386
9.71647
9.64515
9.55561
9.44495
9.30754
9.13393
8.90781
8.60269
8.16092
7.46738
6.0385
1
1
1
1
1
1
1
1
1
1
1.00001
1.00001
1.00004
1.00005
1.00039
1.00042
1.00301
1.0066
1.01377
1.02108
1.18565
1.23651
2.44794
4.1117
9.45872
10.1924
10.0185
9.73378
9.63699
9.64602
9.67389
9.70123
9.70564
9.70095
9.68582
9.65382
9.61019
9.55612
9.48878
9.40462
9.30012
9.17092
9.01016
8.80862
8.55154
8.21687
7.76965
7.15524
6.32636
5.01185
1
1
1
1
1
1
1
1
1
1
1.00001
1.00001
1.00003
1.00005
1.00033
1.00032
1.00272
1.00556
1.01359
1.01406
1.14276
1.13606
2.20982
3.25467
7.78602
9.92203
9.83055
9.58525
9.44228
9.44243
9.45824
9.48563
9.48618
9.47738
9.45124
9.39964
9.33915
9.26719
9.17836
9.06869
8.93463
8.77094
8.5709
8.3248
8.02055
7.64162
7.16934
6.5772
5.8741
4.9673
1
1
1
1
1
1
1
1
1
1
1
1.00001
1.00003
1.00005
1.00024
1.00026
1.00197
1.00387
1.00994
1.01055
1.09955
1.09329
1.8647
2.41357
5.67924
9.58806
9.71115
9.5457
9.32373
9.26763
9.2737
9.28632
9.28171
9.26183
9.21608
9.14894
9.07317
8.98458
8.87713
8.74729
8.59172
8.40602
8.18475
7.92124
7.60782
7.23645
6.79984
6.28914
5.71443
5.01103
1
1
1
1
1
1
1
1
1
1
1
1
1.00002
1.00002
1.00017
1.00018
1.00149
1.00295
1.0076
1.00874
1.0693
1.06843
1.57506
1.89476
4.29998
8.53373
9.55911
9.46439
9.2428
9.13009
9.1121
9.10853
9.09479
9.06012
8.9956
8.91828
8.83045
8.72751
8.60586
8.46248
8.29476
8.09958
7.87343
7.61236
7.31242
6.96999
6.58268
6.14702
5.67183
5.10883
1
1
1
1
1
1
1
1
1
1
1
1
1.00001
1.00003
1.00006
1.00024
1.00031
1.00213
1.0039
1.01211
1.01327
1.11455
1.10534
2.0424
2.78029
6.58377
9.22951
9.3064
9.18916
9.01362
8.95068
8.93507
8.90974
8.86082
8.79139
8.708
8.61218
8.49922
8.36855
8.21787
8.04557
7.84944
7.62754
7.37776
7.09844
6.78811
6.44593
6.07014
5.66722
5.19764
1
1
1
1
1
1
1
1
1
1
1
1
1.00001
1.00002
1.00002
1.0002
1.0002
1.00168
1.00366
1.00794
1.01342
1.07219
1.08356
1.59299
1.94383
4.32224
8.31205
9.1964
9.13919
8.98315
8.85407
8.79561
8.75183
8.69411
8.6173
8.5248
8.41905
8.29887
8.16235
8.00899
7.83713
7.64558
7.43291
7.19818
6.94039
6.65904
6.35391
6.02313
5.67023
5.266
1
1
1
1
1
1
1
1
1
1
1
1
1
1.00001
1.00002
1.00006
1.00009
1.0006
1.00081
1.00425
1.00585
1.03271
1.027
1.36199
1.47615
3.19607
6.13507
8.79103
9.07708
8.9855
8.80111
8.68382
8.61134
8.54051
8.45614
8.35726
8.24554
8.12066
7.98206
7.82973
7.66108
7.4761
7.27413
7.0546
6.81704
6.56108
6.28609
5.99037
5.67682
5.32088
1
1
1
1
1
1
1
1
1
1
1
1
1
1.00001
1.00001
1.00005
1.00004
1.00047
1.00051
1.00334
1.00789
1.01494
1.02392
1.16191
1.19936
2.27112
3.47497
7.67785
8.95453
8.93197
8.8087
8.60264
8.47081
8.37995
8.29151
8.19183
8.07947
7.95504
7.81859
7.66963
7.50741
7.33142
7.14135
6.93692
6.71791
6.48412
6.2354
5.97054
5.69105
5.37254
1
1
1
1
1
1
1
1
1
1
1
1
1
1
1.00001
1.00001
1.00008
1.0001
1.00065
1.00077
1.00448
1.01046
1.0229
1.01999
1.25233
1.28498
2.6218
4.64356
8.35322
8.8542
8.76939
8.56649
8.37429
8.24762
8.14956
8.04965
7.93817
7.81471
7.68028
7.53514
7.37893
7.21135
7.03205
6.841
6.63806
6.42304
6.19563
5.95431
5.70039
5.41245
1
1
1
1
1
1
1
1
1
1
1
1
1
1
1.00001
1.00001
1.00004
1.00008
1.00032
1.00043
1.00262
1.00578
1.01213
1.02376
1.11193
1.12461
2.052
2.93698
6.70308
8.46795
8.5733
8.47338
8.26011
8.09821
7.9958
7.90678
7.80759
7.6935
7.56617
7.42745
7.27804
7.11828
6.94837
6.76851
6.57878
6.37906
6.16905
5.94746
5.71448
5.45187
1
1
1
1
1
1
1
1
1
1
1
1
1
1
1
1.00001
1.00001
1.00006
1.00006
1.00051
1.00052
1.00382
1.0088
1.01633
1.02196
1.17111
1.1713
2.31192
3.4003
7.33252
8.37512
8.35358
8.26122
8.07416
7.92251
7.80793
7.70442
7.59544
7.47535
7.34394
7.20174
7.04913
6.88722
6.71677
6.53808
6.35099
6.15513
5.94879
5.73309
5.491
1
1
1
1
1
1
1
1
1
1
1
1
1
1
1
1
1.00001
1.00002
1.00011
1.00017
1.00078
1.0008
1.00617
1.01449
1.01953
1.0186
1.22724
1.23402
2.48499
4.17957
7.6245
8.28404
8.24572
8.11664
7.93073
7.78827
7.67056
7.55365
7.42679
7.28956
7.14435
6.99356
6.83674
6.67385
6.50454
6.32846
6.14494
5.95222
5.75157
5.52672
1
1
1
1
1
1
1
1
1
1
1
1
1
1
1
1
1
1.00001
1.00002
1.00008
1.00007
1.0007
1.00092
1.00398
1.00765
1.02869
1.03588
1.32881
1.35826
2.95874
5.39136
7.71842
8.13291
8.08195
7.93731
7.76415
7.61807
7.48857
7.36068
7.22887
7.0902
6.94527
6.79525
6.63972
6.47858
6.3112
6.13673
5.95384
5.76475
5.55423
1
1
1
1
1
1
1
1
1
1
1
1
1
1
1
1
1
1.00001
1.00001
1.00005
1.00008
1.00035
1.00039
1.00271
1.00601
1.01275
1.01678
1.1178
1.0929
2.06709
2.75122
6.10895
7.68996
7.92821
7.8727
7.72863
7.54257
7.39131
7.26173
7.13617
7.00672
6.87187
6.73181
6.58682
6.43672
6.28128
6.12038
5.95196
5.77768
5.58164
1
1
1
1
1
1
1
1
1
1
1
1
1
1
1
1
1
1
1.00001
1.00001
1.00006
1.00006
1.00047
1.00041
1.00348
1.00802
1.01508
1.01773
1.14608
1.13069
2.15103
2.93027
6.24851
7.53962
7.70455
7.64573
7.50368
7.31943
7.16879
7.04144
6.92
6.79609
6.6673
6.53347
6.39472
6.25079
6.10153
5.94567
5.78153
5.59705
1
1
1
1
1
1
1
1
1
1
1
1
1
1
1
1
1
1
1
1.00001
1.00007
1.00016
1.00023
1.00023
1.00166
1.00344
1.00755
1.0095
1.06794
1.06599
1.53693
1.64077
3.56558
6.24078
7.3177
7.46665
7.41573
7.28474
7.10713
6.96165
6.84048
6.72661
6.61071
6.48952
6.36261
6.22978
6.09074
5.94514
5.79034
5.61644
1
1
1
1
1
1
1
1
1
1
1
1
1
1
1
1
1
1
1
1.00001
1.00001
1.00004
1.00004
1.00025
1.00028
1.00163
1.00184
1.01016
1.01812
1.06222
1.06344
1.55367
1.66464
3.60218
6.22228
7.12101
7.26222
7.21845
7.09707
6.93316
6.79124
6.66986
6.55789
6.44648
6.33205
6.21229
6.08522
5.94784
5.80252
5.63863
1
1
1
1
1
1
1
1
1
1
1
1
1
1
1
1
1
1
1
1
1.00001
1.00002
1.00004
1.00014
1.0002
1.0008
1.00117
1.00453
1.00584
1.02888
1.04771
1.1864
1.21393
2.20164
3.16866
6.09068
6.95385
7.08909
7.05252
6.95052
6.80388
6.67794
6.56357
6.45118
6.33658
6.21701
6.09086
5.9582
5.81967
5.66417
1
1
1
1
1
1
1
1
1
1
1
1
1
1
1
1
1
1
1
1
1
1
1.00002
1.00002
1.00012
1.00017
1.00072
1.00108
1.00436
1.00538
1.02873
1.0398
1.182
1.17151
2.20341
2.91635
5.78017
6.73363
6.92033
6.89802
6.82869
6.7007
6.58119
6.46521
6.35001
6.23237
6.11105
5.98555
5.85324
5.70143
1
1
1
1
1
1
1
1
1
1
1
1
1
1
1
1
1
1
1
1
1
1
1.00001
1.00001
1.00005
1.00007
1.00032
1.00043
1.0018
1.0023
1.01083
1.01452
1.07009
1.08791
1.48523
1.58651
3.14515
5.26757
6.4015
6.7186
6.75188
6.71614
6.63215
6.50572
6.38289
6.2641
6.14418
6.02044
5.89264
5.74898
1
1
1
1
1
1
1
1
1
1
1
1
1
1
1
1
1
1
1
1
1
1
1
1.00001
1.00001
1.00005
1.00007
1.00027
1.00038
1.00145
1.00203
1.00904
1.01432
1.05598
1.0558
1.40923
1.48247
2.85404
4.64547
5.99589
6.52072
6.64684
6.62578
6.56416
6.45196
6.32838
6.20275
6.07491
5.94408
5.79797
1
1
1
1
1
1
1
1
1
1
1
1
1
1
1
1
1
1
1
1
1
1
1
1
1
1.00002
1.00002
1.0001
1.00014
1.00056
1.00071
1.00288
1.00556
1.00363
1.04779
1.11001
1.1125
1.78119
1.89934
3.84813
5.71229
6.38042
6.53311
6.51822
6.4637
6.35047
6.22801
6.10095
5.97081
5.82695
1
1
1
1
1
1
1
1
1
1
1
1
1
1
1
1
1
1
1
1
1
1
1
1
1
1.00001
1.00001
1.00004
1.00005
1.00021
1.0003
1.00112
1.00153
1.00615
1.0067
1.0371
1.04359
1.22306
1.23072
2.16299
2.97126
5.29387
6.10434
6.34997
6.37345
6.33843
6.25341
6.13196
6.0001
5.85523
1
1
1
1
1
1
1
1
1
1
1
1
1
1
1
1
1
1
1
1
1
1
1
1
1
1
1
1.00001
1.00002
1.00004
1.00005
1.00033
1.00037
1.00195
1.00232
1.00898
1.01763
1.04624
1.15138
1.14809
1.93944
2.25383
4.33043
5.61459
6.09079
6.21626
6.19818
6.13887
6.0204
5.88186
1
1
1
1
1
1
1
1
1
1
1
1
1
1
1
1
1
1
1
1
1
1
1
1
1
1
1
1
1.00001
1.00001
1.00005
1.00006
1.00022
1.00033
1.00118
1.00121
1.00942
1.02176
1.02739
1.04175
1.26907
1.30416
2.11242
3.18249
4.96442
5.72863
6.00024
6.03813
6.0055
5.91628
1
1
1
1
1
1
1
1
1
1
1
1
1
1
1
1
1
1
1
1
1
1
1
1
1
1
1
1
1
1
1.00002
1.00004
1.00006
1.00005
1.00051
1.00115
1.00151
1.00197
1.00882
1.02314
1.0448
1.04042
1.46231
1.47274
2.60815
3.87831
5.13837
5.65934
5.83493
5.8206
1
1
1
1
1
1
1
1
1
1
1
1
1
1
1
1
1
1
1
1
1
1
1
1
1
1
1
1
1
1
1
1.00001
1.00001
1.00006
1.00007
1.00029
1.00038
1.00145
1.00177
1.0074
1.00803
1.04103
1.04525
1.23782
1.24839
1.97817
2.63885
4.24332
5.12987
5.48221
1
1
1
1
1
1
1
1
1
1
1
1
1
1
1
1
1
1
1
1
1
1
1
1
1
1
1
1
1
1
1
1
1
1.00002
1.00004
1.00006
1.00006
1.00049
1.00108
1.00154
1.00166
1.01161
1.01931
1.04659
1.04275
1.32299
1.31899
2.04038
2.84672
4.18639
1
1
1
1
1
1
1
1
1
1
1
1
1
1
1
1
1
1
1
1
1
1
1
1
1
1
1
1
1
1
1
1
1
1
1.00001
1.00002
1.00003
1.00011
1.00014
1.00055
1.0007
1.00267
1.00414
1.01386
1.01819
1.07366
1.09924
1.37495
1.34333
2.15083
1
1
1
1
1
1
1
1
1
1
1
1
1
1
1
1
1
1
1
1
1
1
1
1
1
1
1
1
1
1
1
1
1
1
1
1
1
1.00001
1.00001
1.00006
1.00012
1.00014
0.999938
0.999674
0.999867
0.995874
1.0031
1.00507
0.955536
1.3945
1
1
1
1
1
1
1
1
1
1
1
1
1
1
1
1
1
1
1
1
1
1
1
1
1
1
1
1
1
1
1
1
1
1
1
1
1
1
1
1.00002
1.00004
1.00006
0.999719
0.999249
0.999274
0.995084
0.997544
0.997828
0.97827
1.18696
1
1
1
1
1
1
1
1
1
1
1
1
1
1
1
1
1
1
1
1
1
1
1
1
1
1
1
1
1
1
1
1
1
1
1
1
1
1
1
1.00001
1.00001
1.00002
0.999813
0.99953
0.999563
0.997583
0.99878
0.999114
0.989981
1.09079
1
1
1
1
1
1
1
1
1
1
1
1
1
1
1
1
1
1
1
1
1
1
1
1
1
1
1
1
1
1
1
1
1
1
1
1
1
0.999999
0.999998
0.999992
0.99999
0.999953
0.999936
0.999737
0.999755
0.99868
0.999232
0.999317
0.9953
1.04395
1
1
1
1
1
1
1
1
1
1
1
1
1
1
1
1
1
1
1
1
1
1
1
1
1
1
1
1
1
1
1
1
1
1
1
1
1
1
1
1
1
1.00001
0.999956
0.999891
0.999904
0.99948
0.999797
0.99993
0.997934
1.02154
1
1
1
1
1
1
1
1
1
1
1
1
1
1
1
1
1
1
1
1
1
1
1
1
1
1
1
1
1
1
1
1
1
1
1
1
1
1
1
1
1
1
0.999977
0.999949
0.999947
0.999759
0.999904
0.999954
0.999069
1.01035
1
1
1
1
1
1
1
1
1
1
1
1
1
1
1
1
1
1
1
1
1
1
1
1
1
1
1
1
1
1
1
1
1
1
1
1
1
1
1
1
1
1.00001
1.00001
1.00003
1.00003
1.00016
1.00019
1.00093
1.00128
1.00123
1
1
1
1
1
1
1
1
1
1
1
1
1
1
1
1
1
1
1
1
1
1
1
1
1
1
1
1
1
1
1
1
1
1
1
1
1
1
1
1
1
1
1
1.00002
1.00002
1.00009
1.00011
1.00046
1.0007
1.00078
1
1
1
1
1
1
1
1
1
1
1
1
1
1
1
1
1
1
1
1
1
1
1
1
1
1
1
1
1
1
1
1
1
1
1
1
1
1
1
1
1
1
1
1
1.00001
0.999996
1.00003
1.00005
0.999923
1.0015
1
1
1
1
1
1
1
1
1
1
1
1
1
1
1
1
1
1
1
1
1
1
1
1
1
1
1
1
1
1
1
1
1
1
1
1
1
1
1
1
1
1
1
1
1
0.999999
1.00008
1.0002
1.0003
1.00034
2.01419
1.04639
0.719041
0.637536
0.654428
0.712995
0.843612
1.05425
1.17322
1.20684
1.20583
1.20338
1.20563
1.21334
1.23082
1.25778
1.27709
1.28707
1.29087
1.29321
1.29654
1.30008
1.30216
1.30233
1.30216
1.3016
1.30028
1.29758
1.29455
1.29191
1.28934
1.2869
1.28604
1.28632
1.28751
1.291
1.29984
1.32084
1.3691
1.47946
1.73561
2.35537
3.73028
4.57193
4.24873
4.505
4.73842
4.87478
4.91865
4.93034
4.92679
4.91586
4.88895
4.83418
4.76917
4.70078
4.63119
4.56298
4.49595
4.42952
4.36262
4.29521
4.22703
4.15845
4.08962
4.02102
3.9529
3.88564
3.81945
3.75453
3.69098
3.62875
3.56771
3.50782
3.449
3.39101
3.33386
3.27745
3.22196
3.16727
3.11368
3.06125
3.00998
2.95957
2.91025
2.86177
2.81437
2.76774
2.72212
2.67713
2.63306
2.58961
2.54704
2.50508
2.4642
2.42401
2.38554
2.34882
2.31704
2.29295
2.67371
1.67028
1.26258
1.10775
1.05105
1.0213
0.990464
0.998047
1.02097
1.06932
1.14418
1.21405
1.24924
1.25491
1.25541
1.25702
1.26109
1.26968
1.28292
1.29406
1.30094
1.30429
1.30426
1.30399
1.30322
1.30154
1.29917
1.29684
1.29462
1.2923
1.28986
1.28715
1.28556
1.28575
1.28668
1.28948
1.29674
1.31416
1.35499
1.45013
1.67257
2.19755
3.45109
4.99884
4.83646
4.59153
4.6275
4.70911
4.78543
4.84093
4.86225
4.8605
4.85161
4.82587
4.76967
4.68986
4.61656
4.5484
4.48261
4.41751
4.35211
4.28599
4.21908
4.15147
4.08347
4.01552
3.94801
3.8812
3.8154
3.75082
3.68755
3.62549
3.56462
3.50499
3.44654
3.38888
3.33199
3.27583
3.22053
3.16615
3.11275
3.0601
3.0086
2.95812
2.90886
2.86047
2.81318
2.76658
2.721
2.67599
2.63197
2.58846
2.54597
2.50396
2.46312
2.42284
2.38424
2.34696
2.31446
2.28826
3.50595
2.59345
2.00549
1.60446
1.33435
1.14736
1.02273
0.994764
1.00075
1.02052
1.06393
1.12872
1.18407
1.22976
1.25346
1.26518
1.27058
1.27517
1.28051
1.28647
1.29143
1.29528
1.29787
1.29922
1.2992
1.29902
1.29849
1.2973
1.29487
1.29203
1.28926
1.28642
1.28527
1.28553
1.28663
1.28986
1.29791
1.31639
1.3574
1.44662
1.63753
2.04036
2.86475
4.44065
5.17106
5.12571
5.01545
4.91782
4.84981
4.82636
4.80818
4.78777
4.77761
4.7578
4.72134
4.66679
4.6039
4.5394
4.47446
4.40912
4.34323
4.27699
4.21056
4.1437
4.07681
4.00997
3.94342
3.87723
3.81182
3.7477
3.68491
3.62318
3.56278
3.50306
3.44426
3.38628
3.32939
3.27325
3.2181
3.16365
3.11028
3.05763
3.00627
2.95569
2.90651
2.85798
2.81079
2.76411
2.71867
2.67364
2.62978
2.5863
2.54397
2.50205
2.46132
2.421
2.38249
2.34475
2.31135
2.28445
3.94347
3.14039
2.51097
2.03298
1.69624
1.45868
1.30423
1.18746
1.117
1.08432
1.08596
1.09495
1.11647
1.15824
1.19945
1.23913
1.26523
1.27992
1.2857
1.28854
1.29067
1.29271
1.29456
1.29614
1.29721
1.29718
1.29699
1.29643
1.29518
1.29268
1.29005
1.2875
1.28752
1.28801
1.28987
1.29515
1.30801
1.33711
1.40077
1.53502
1.81087
2.36747
2.93073
3.51258
4.11503
4.69568
4.98317
4.97189
4.94226
4.8859
4.79451
4.74712
4.71354
4.68362
4.64916
4.61228
4.56824
4.51651
4.45912
4.39707
4.33181
4.26516
4.19806
4.1311
4.06541
4.00006
3.93495
3.87016
3.80655
3.74316
3.68079
3.61912
3.55861
3.49878
3.44009
3.38214
3.32538
3.26931
3.21437
3.16003
3.10687
3.05427
3.00301
2.95232
2.90311
2.85445
2.80726
2.76055
2.7152
2.67023
2.62653
2.58316
2.54098
2.49917
2.45857
2.41835
2.37979
2.34186
2.30806
2.27997
4.23409
3.53388
2.93473
2.44206
2.06308
1.77428
1.55664
1.39157
1.26562
1.17457
1.12451
1.10966
1.11186
1.12069
1.14087
1.17363
1.20657
1.23997
1.26425
1.27884
1.28734
1.28968
1.29047
1.29045
1.29039
1.29025
1.28999
1.28959
1.28891
1.28812
1.28695
1.28699
1.28742
1.28898
1.29337
1.30422
1.32913
1.38418
1.50104
1.74189
2.23008
2.72528
2.95926
3.15954
3.4201
3.73289
4.12924
4.52964
4.80892
4.89896
4.88399
4.84046
4.75515
4.67585
4.61753
4.56492
4.51698
4.47444
4.42907
4.37689
4.31894
4.25423
4.18551
4.11673
4.05003
3.98464
3.92117
3.85828
3.7963
3.73453
3.67356
3.61284
3.55303
3.49358
3.43515
3.37719
3.3204
3.26419
3.20923
3.15484
3.10176
3.0492
2.99805
2.94742
2.8983
2.84968
2.80262
2.75595
2.71079
2.6659
2.62245
2.57918
2.53726
2.49558
2.45515
2.41512
2.3765
2.33883
2.30421
2.2758
4.45168
3.83899
3.29131
2.80943
2.41087
2.08913
1.83585
1.63661
1.48117
1.36093
1.26342
1.19728
1.15669
1.14029
1.14154
1.14755
1.16159
1.1874
1.216
1.24494
1.26772
1.28184
1.29004
1.29099
1.29083
1.2903
1.28912
1.28778
1.28693
1.28698
1.2872
1.2879
1.28973
1.29424
1.30469
1.32797
1.37894
1.48728
1.71192
2.16986
2.69122
2.90148
2.9815
3.04336
3.13158
3.24654
3.40101
3.60889
3.93844
4.33811
4.65646
4.82382
4.80976
4.76417
4.68137
4.57493
4.49441
4.43053
4.37566
4.33213
4.28843
4.24069
4.18267
4.11635
4.04716
3.97779
3.91091
3.84641
3.78421
3.72297
3.66291
3.60329
3.54457
3.48608
3.42838
3.37093
3.3144
3.2583
3.20336
3.14899
3.09592
3.04344
2.99237
2.94186
2.89283
2.8443
2.79736
2.75066
2.70577
2.6608
2.61767
2.57434
2.53274
2.49107
2.45085
2.41088
2.37233
2.33473
2.29992
2.27087
4.618
4.07783
3.58044
3.12143
2.72137
2.38331
2.10535
1.87786
1.69354
1.54294
1.42235
1.32262
1.24563
1.19552
1.16543
1.15456
1.15577
1.16091
1.17271
1.1939
1.21782
1.24281
1.26321
1.27592
1.28382
1.285
1.28486
1.2844
1.28339
1.28346
1.28394
1.28549
1.28954
1.29919
1.32089
1.36855
1.46988
1.68116
2.11254
2.68921
2.91458
2.98106
2.99813
3.00743
3.01193
3.02316
3.05618
3.12833
3.2627
3.46048
3.77592
4.18669
4.54105
4.75298
4.73646
4.68242
4.59039
4.45797
4.34639
4.26723
4.21328
4.17069
4.13437
4.08847
4.03273
3.97096
3.90679
3.84151
3.77679
3.71324
3.65178
3.59161
3.53286
3.47476
3.41763
3.36093
3.30505
3.24966
3.19518
3.14131
3.08852
3.03635
2.9855
2.93515
2.88633
2.83804
2.79111
2.74474
2.69977
2.65514
2.61199
2.5689
2.52746
2.48585
2.44592
2.40595
2.36759
2.32996
2.29519
2.26564
4.74792
4.26559
3.81373
3.38265
2.99243
2.65038
2.35928
2.11357
1.90918
1.73852
1.59788
1.48048
1.38505
1.3037
1.24337
1.20199
1.17635
1.16648
1.16746
1.1717
1.18135
1.19946
1.22097
1.24343
1.2618
1.27402
1.28141
1.28413
1.28445
1.28503
1.28646
1.29006
1.29882
1.31875
1.36298
1.45768
1.65513
2.05731
2.69534
2.94078
3.01452
3.01842
3.01391
2.99596
2.9571
2.91584
2.90139
2.90808
2.93744
3.00488
3.134
3.32793
3.63763
4.05546
4.42971
4.67577
4.65736
4.60112
4.50437
4.35503
4.2258
4.12737
4.06117
4.01502
3.97761
3.93677
3.88739
3.83054
3.77009
3.70788
3.64581
3.58393
3.5235
3.46414
3.40629
3.34945
3.29389
3.23915
3.18541
3.13232
3.08016
3.02859
2.97807
2.92814
2.87942
2.83134
2.7845
2.73828
2.69334
2.64883
2.60572
2.56277
2.52136
2.47987
2.44006
2.40013
2.36196
2.32424
2.28962
2.25973
4.85377
4.41582
4.00334
3.60117
3.2267
2.88892
2.59315
2.33701
2.11854
1.93206
1.77442
1.64016
1.52681
1.43084
1.34978
1.28111
1.23309
1.2006
1.18014
1.17273
1.17365
1.1773
1.18563
1.20162
1.22037
1.24059
1.25739
1.26956
1.27744
1.28243
1.287
1.29631
1.31588
1.35759
1.44633
1.62978
2.00154
2.68885
2.97466
3.05364
3.06117
3.05449
3.02919
2.97736
2.91922
2.86614
2.82534
2.79796
2.79049
2.79775
2.82632
2.89145
3.01683
3.20588
3.50577
3.92001
4.31461
4.56236
4.54443
4.48727
4.38169
4.22933
4.09742
3.99668
3.9252
3.8719
3.82997
3.78891
3.74327
3.6908
3.63388
3.57448
3.5146
3.45429
3.39528
3.33744
3.28141
3.22653
3.17316
3.12061
3.06923
3.01839
2.96861
2.91927
2.87105
2.8233
2.77675
2.73069
2.68591
2.64148
2.59848
2.5556
2.51433
2.47298
2.43331
2.39352
2.35553
2.31787
2.28344
2.25338
4.94179
4.54063
4.16216
3.78769
3.43144
3.10261
2.80772
2.54671
2.31918
2.12129
1.95069
1.80316
1.67634
1.5673
1.47329
1.39504
1.32552
1.26938
1.22807
1.2001
1.18232
1.17682
1.17774
1.18122
1.18905
1.20382
1.22159
1.24118
1.25913
1.27437
1.28953
1.31021
1.35213
1.4388
1.61533
1.96979
2.67524
2.99684
3.09473
3.10786
3.10013
3.07476
3.02397
2.96261
2.90064
2.8424
2.79023
2.74791
2.71514
2.6914
2.68643
2.69329
2.71963
2.78016
2.89973
3.0818
3.36784
3.76766
4.17264
4.43948
4.42089
4.36365
4.26165
4.10618
3.97193
3.87107
3.79623
3.73918
3.69269
3.6494
3.60387
3.55346
3.49916
3.44232
3.38525
3.3278
3.27147
3.21584
3.16198
3.10903
3.05772
3.00704
2.95774
2.90882
2.86116
2.81379
2.7677
2.72188
2.67742
2.63312
2.59037
2.54752
2.5065
2.46523
2.4258
2.38621
2.34831
2.31082
2.27653
2.24643
5.01918
4.64818
4.29879
3.94985
3.6122
3.29461
3.00393
2.74174
2.50887
2.30297
2.12247
1.96423
1.82606
1.70541
1.60007
1.50861
1.42887
1.3602
1.30065
1.25466
1.22019
1.19755
1.18278
1.18025
1.18135
1.18523
1.19385
1.20998
1.23005
1.25411
1.28617
1.32861
1.41399
1.58535
1.92961
2.62791
3.00407
3.12241
3.14125
3.13535
3.11578
3.07505
3.01293
2.94693
2.88431
2.82625
2.77313
2.72424
2.68008
2.64188
2.61143
2.58803
2.58251
2.58887
2.61284
2.66884
2.78031
2.95476
3.2253
3.62215
4.02481
4.29998
4.28247
4.22958
4.13177
3.98106
3.84802
3.74709
3.66978
3.60872
3.55728
3.51072
3.46499
3.41655
3.36573
3.31265
3.25912
3.20492
3.15154
3.09841
3.04672
2.99563
2.94613
2.89716
2.84964
2.80254
2.75681
2.71139
2.66731
2.62343
2.58096
2.53852
2.49767
2.45686
2.41744
2.37821
2.34042
2.30319
2.26906
2.23901
5.08952
4.7428
4.41778
4.09179
3.77225
3.46716
3.18306
2.92261
2.68728
2.47629
2.28845
2.1218
1.97436
1.84419
1.72928
1.6282
1.53927
1.46124
1.39338
1.3342
1.28228
1.2438
1.215
1.19631
1.1857
1.18614
1.18889
1.19639
1.2124
1.24365
1.29073
1.3718
1.53081
1.84964
2.50299
2.97105
3.12881
3.15829
3.15526
3.14326
3.11504
3.0574
2.98892
2.92419
2.86535
2.81086
2.7596
2.71026
2.663
2.61786
2.57567
2.5382
2.5089
2.4871
2.47944
2.48491
2.50674
2.55893
2.66369
2.83247
3.08455
3.47986
3.88785
4.16565
4.14747
4.09696
4.00278
3.85978
3.72691
3.6245
3.54491
3.47973
3.42436
3.37585
3.33014
3.28348
3.23601
3.18692
3.13718
3.08636
3.03581
2.98503
2.93536
2.88606
2.83819
2.79091
2.74514
2.69987
2.65607
2.61247
2.57051
2.52847
2.488
2.44766
2.40846
2.36963
2.33205
2.29511
2.26113
2.23112
5.15168
4.82647
4.52207
4.21585
3.91328
3.62101
3.34481
3.08828
2.85295
2.63928
2.44656
2.2737
2.11904
1.98117
1.85822
1.74898
1.65187
1.56549
1.48946
1.42148
1.36389
1.31157
1.26806
1.23546
1.21137
1.20179
1.20319
1.20892
1.22392
1.25683
1.32555
1.46489
1.73954
2.29534
2.88263
3.09118
3.15578
3.15992
3.15227
3.12899
3.07945
3.01171
2.94967
2.89383
2.84226
2.79254
2.74394
2.69562
2.64769
2.6005
2.55621
2.51365
2.47397
2.43816
2.40803
2.38662
2.37904
2.38384
2.40305
2.45044
2.54603
2.70933
2.94494
3.32012
3.7381
4.03149
4.0129
3.96311
3.8777
3.73904
3.60513
3.50243
3.42206
3.3545
3.2973
3.24679
3.20108
3.15622
3.11147
3.06556
3.01905
2.97113
2.92317
2.87475
2.82714
2.77979
2.73387
2.68834
2.64462
2.60096
2.5594
2.51746
2.47755
2.43757
2.39878
2.3603
2.32311
2.28643
2.2528
2.22279
5.20457
4.89883
4.61271
4.32445
4.03722
3.75758
3.49021
3.23889
3.00551
2.79131
2.59563
2.41865
2.25842
2.11478
1.98504
1.86937
1.76514
1.67214
1.58898
1.51444
1.44878
1.38997
1.33893
1.29459
1.25899
1.23995
1.24156
1.24933
1.27129
1.32269
1.43362
1.66246
2.12416
2.77167
3.03786
3.1124
3.13186
3.12538
3.10495
3.06146
3.00279
2.9487
2.90053
2.8551
2.81064
2.76555
2.72016
2.67388
2.62835
2.58285
2.53821
2.49399
2.45176
2.41132
2.37337
2.3392
2.30914
2.28726
2.27869
2.28269
2.29916
2.3411
2.42721
2.57921
2.79796
3.14684
3.55834
3.88469
3.86686
3.82289
3.75054
3.61857
3.48577
3.38399
3.30261
3.2354
3.17756
3.12557
3.07951
3.0355
2.9924
2.94852
2.90459
2.8593
2.81391
2.76766
2.72273
2.67729
2.63378
2.58979
2.54846
2.50641
2.46673
2.42671
2.38848
2.35021
2.31348
2.27702
2.24376
2.21374
5.24831
4.9567
4.68804
4.41669
4.14475
3.87736
3.61939
3.37479
3.14488
2.93189
2.73543
2.55598
2.39184
2.24402
2.10882
1.98797
1.87789
1.77911
1.69012
1.60956
1.53793
1.47317
1.41575
1.3671
1.32307
1.30481
1.30802
1.32197
1.36069
1.45079
1.64268
2.03498
2.66251
3.00258
3.0905
3.09793
3.08943
3.0651
3.01609
2.96346
2.91635
2.87602
2.83877
2.80134
2.76308
2.72331
2.68245
2.64049
2.59836
2.55594
2.51385
2.47189
2.43067
2.38973
2.3501
2.31127
2.27469
2.24091
2.21113
2.18838
2.17759
2.18093
2.1946
2.23083
2.30647
2.44305
2.64465
2.966
3.3678
3.72531
3.71195
3.67892
3.61816