/*--------------------------------*- C++ -*----------------------------------*\
| =========                 |                                                 |
| \\      /  F ield         | OpenFOAM: The Open Source CFD Toolbox           |
|  \\    /   O peration     | Version:  2112                                  |
|   \\  /    A nd           | Website:  www.openfoam.com                      |
|    \\/     M anipulation  |                                                 |
\*---------------------------------------------------------------------------*/
FoamFile
{
    version     2.0;
    format      ascii;
    arch        "LSB;label=32;scalar=64";
    class       surfaceScalarField;
    location    "1.9995";
    object      phi;
}
// * * * * * * * * * * * * * * * * * * * * * * * * * * * * * * * * * * * * * //

dimensions      [1 0 -1 0 0 0 0];

oriented        oriented;

internalField   nonuniform List<scalar> 
13790
(
0.00290515
5.68894e-09
0.00290514
2.85812e-09
0.00290514
1.06658e-09
0.00290514
2.20088e-10
0.00290514
3.24113e-10
0.00290514
9.82448e-10
0.00290514
1.56116e-09
0.00290514
2.31855e-09
0.00290514
-1.04293e-09
0.00290514
-3.81356e-09
0.00290514
-5.42364e-09
0.00290515
-6.86749e-09
0.00290514
7.90375e-09
0.00290512
1.83498e-08
0.00290493
1.97558e-07
0.00290455
3.95608e-07
0.00290291
1.68036e-06
0.00289925
3.89383e-06
0.00289824
1.02786e-06
0.00288719
1.27258e-05
0.0029148
-2.58349e-05
0.00296963
-4.55162e-05
0.00299869
-1.8004e-05
0.00288674
0.0001151
0.0027933
9.25689e-05
0.00271014
8.2822e-05
0.00263672
7.36331e-05
0.00255748
8.08254e-05
0.00247253
8.58841e-05
0.00238325
8.79791e-05
0.00229351
8.88806e-05
0.00220559
9.01118e-05
0.00211469
9.2111e-05
0.00201678
9.44688e-05
0.00191549
9.71041e-05
0.00181371
0.000100747
0.00170678
0.000105983
0.00158973
0.000112644
0.00146356
0.000120482
0.00133073
0.000129368
0.00119076
0.000138284
0.00104529
0.000144852
0.000898069
0.000147194
0.000752947
0.000144448
0.000613504
0.000137654
0.000480186
0.000127724
0.000356157
0.000117638
0.000241357
0.000109759
0.000126699
0.000110315
0.000121795
0.00301309
6.52576e-09
0.00301309
4.71588e-09
0.00301309
3.39715e-09
0.00301309
2.42587e-09
0.00301308
2.26034e-09
0.00301308
2.74813e-09
0.00301308
3.28441e-09
0.00301308
4.27352e-09
0.00301308
1.53954e-09
0.00301307
-3.76836e-09
0.00301308
-7.55158e-09
0.0030131
-3.21791e-08
0.00301314
-3.3327e-08
0.00301331
-1.56832e-07
0.00301361
-9.19884e-08
0.0030149
-8.9237e-07
0.00301605
6.00618e-07
0.0030172
3.03681e-06
0.00301117
6.73115e-06
0.00301992
6.19932e-06
0.00301168
-1.60634e-05
0.00303987
-6.50316e-05
0.00302359
9.6508e-06
0.00295877
0.000183903
0.00286107
0.000188942
0.00278203
0.000162312
0.00270633
0.000150441
0.00262571
0.000163007
0.00253877
0.000173983
0.00244671
0.000179568
0.00235275
0.000182891
0.00225846
0.000186623
0.00215926
0.000191407
0.00205272
0.000196595
0.00194341
0.000202394
0.00183346
0.000210182
0.00171785
0.000220502
0.00159291
0.000232706
0.00146123
0.000246408
0.00132601
0.000261339
0.00118699
0.00027565
0.00104555
0.000285713
0.000903877
0.000288815
0.000763646
0.000283878
0.000626744
0.000272566
0.000492177
0.000256488
0.00036319
0.00024001
0.000240309
0.000227383
0.000119625
0.000226373
0.000236228
0.00312505
6.86834e-09
0.00312504
5.97936e-09
0.00312504
5.42459e-09
0.00312504
4.45323e-09
0.00312504
4.21938e-09
0.00312504
4.3436e-09
0.00312504
4.56799e-09
0.00312503
4.17513e-09
0.00312503
1.09451e-08
0.00312502
-1.26795e-09
0.00312501
-2.17602e-09
0.00312508
-9.7225e-08
0.00312508
-3.73013e-08
0.00312555
-6.16563e-07
0.00312557
-1.58342e-07
0.00312917
-4.21763e-06
0.00312695
2.35714e-06
0.00312188
1.10498e-05
0.00311963
6.2308e-06
0.00310573
2.21703e-05
0.003117
-2.55534e-05
0.00310777
-4.67262e-05
0.00305934
6.87609e-05
0.00296715
0.000279917
0.00290992
0.000245403
0.00284094
0.000232574
0.00276465
0.000227447
0.00268198
0.000246515
0.00259499
0.0002623
0.00250295
0.000272069
0.00240791
0.000278883
0.00231053
0.000285969
0.00220676
0.000294085
0.00209597
0.000302523
0.00198311
0.000311979
0.00186903
0.000324198
0.00174846
0.000339567
0.0016188
0.000357025
0.00148337
0.000375974
0.00134554
0.000395897
0.00120525
0.000414227
0.00106386
0.000426557
0.000922733
0.000429891
0.00078271
0.000422936
0.000645017
0.000408096
0.00050796
0.000387567
0.000374907
0.000366245
0.000247186
0.000349708
0.00012198
0.000346756
0.000352734
0.00324116
6.68829e-09
0.00324116
6.36425e-09
0.00324116
6.37976e-09
0.00324115
5.9885e-09
0.00324115
6.01836e-09
0.00324115
6.07209e-09
0.00324115
6.21412e-09
0.00324115
6.25812e-09
0.00324115
8.99317e-09
0.00324114
4.20142e-09
0.00324114
3.5013e-10
0.00324106
-1.96089e-08
0.00324099
-8.44258e-09
0.00324055
-9.84291e-08
0.00324026
6.68681e-08
0.00323521
-3.97366e-07
0.00323688
7.83896e-07
0.00325621
2.40138e-06
0.00324013
7.15977e-06
0.00326681
8.6373e-06
0.00324568
-8.10829e-06
0.00323216
-2.72844e-05
0.0031722
0.000142233
0.00309594
0.00036114
0.00301162
0.000328447
0.00293452
0.000309858
0.00285266
0.000309127
0.00276577
0.000334624
0.00267487
0.000355771
0.00257822
0.000370058
0.00247778
0.000380334
0.00237433
0.000390763
0.00226433
0.000402258
0.00214787
0.000413997
0.00202991
0.000427055
0.00191075
0.0004436
0.00178497
0.000463665
0.00165061
0.000485689
0.00151169
0.000508975
0.00137158
0.000533011
0.00122983
0.000554375
0.00108754
0.000568314
0.000945713
0.000571575
0.000804489
0.000563114
0.000664518
0.000545731
0.000524644
0.000521114
0.000387939
0.000496036
0.000255643
0.000476403
0.000125991
0.000471277
0.000472883
0.00336158
6.42255e-09
0.00336158
6.45312e-09
0.00336158
6.8083e-09
0.00336158
7.06134e-09
0.00336158
7.22229e-09
0.00336158
7.36342e-09
0.00336158
7.52078e-09
0.00336158
7.7404e-09
0.00336158
8.01075e-09
0.00336157
6.10717e-09
0.00336157
3.67467e-09
0.00336153
1.24889e-08
0.00336153
2.61885e-08
0.00336121
1.12326e-07
0.00336109
2.45477e-07
0.00336344
9.8443e-07
0.00335972
2.14102e-06
0.00333022
1.97833e-06
0.00335865
6.53877e-06
0.00335878
7.75436e-06
0.00335656
-2.20213e-06
0.00334048
-1.20756e-06
0.00326416
0.000229889
0.00318857
0.000441745
0.00311375
0.000401695
0.00303242
0.000391627
0.00294536
0.000396425
0.00285743
0.00042536
0.00276382
0.000453251
0.00266275
0.00047209
0.00255752
0.000485534
0.00244916
0.000499583
0.00233408
0.00051486
0.00221281
0.000530373
0.00209011
0.00054769
0.00196538
0.000568934
0.00183347
0.000593532
0.00169364
0.000619607
0.00155034
0.000646665
0.00140648
0.000673941
0.00126165
0.000697476
0.00111688
0.000712438
0.000972563
0.000715605
0.000828756
0.000705574
0.000685539
0.000686097
0.000542025
0.000658178
0.000400722
0.000630073
0.000264269
0.000606849
0.000130514
0.000599615
0.000597349
0.00348648
6.10586e-09
0.00348648
6.26398e-09
0.00348648
6.75484e-09
0.00348648
7.40246e-09
0.00348648
7.76241e-09
0.00348648
8.02254e-09
0.00348648
8.1997e-09
0.00348648
8.31932e-09
0.00348648
8.21455e-09
0.00348648
7.87785e-09
0.00348647
9.20398e-09
0.00348645
2.80818e-08
0.00348645
5.91996e-08
0.00348624
1.97131e-07
0.00348627
4.03343e-07
0.00348924
1.33782e-06
0.00348641
2.75328e-06
0.00345466
3.89282e-06
0.00348095
7.57135e-06
0.00347786
1.00259e-05
0.00347553
3.85531e-06
0.00346431
1.98547e-05
0.00338649
0.000319488
0.00331104
0.000521172
0.00322901
0.000483856
0.00313886
0.000483955
0.00304491
0.000492513
0.00295581
0.00051906
0.00285522
0.000557047
0.00274907
0.000577425
0.00263993
0.000593646
0.00252818
0.000611608
0.00240964
0.00063114
0.00228488
0.000651075
0.00215818
0.000673225
0.00202828
0.000699539
0.0018903
0.000728846
0.0017445
0.000758953
0.00159598
0.000789421
0.00144764
0.00081945
0.00129885
0.000844715
0.00115059
0.000860196
0.00100304
0.000862926
0.000855366
0.000851897
0.000708842
0.000829972
0.000560372
0.000799842
0.000415022
0.000767848
0.000273935
0.000741773
0.000135309
0.000732522
0.00072592
0.00361602
5.78683e-09
0.00361602
5.97045e-09
0.00361602
6.54112e-09
0.00361602
7.36931e-09
0.00361602
7.94786e-09
0.00361602
8.36745e-09
0.00361602
8.63632e-09
0.00361602
8.7776e-09
0.00361602
8.58359e-09
0.00361602
9.11957e-09
0.00361602
1.26377e-08
0.00361601
3.59127e-08
0.00361596
7.75099e-08
0.00361605
2.31058e-07
0.00361571
4.8897e-07
0.00361268
1.54825e-06
0.00361433
2.99079e-06
0.00364288
3.42197e-06
0.00361544
9.80816e-06
0.0036154
1.22467e-05
0.00360822
1.06384e-05
0.00359268
4.20083e-05
0.00348651
0.000438896
0.00345298
0.000557239
0.00334781
0.000590811
0.00324821
0.0005873
0.00314485
0.000598863
0.00304544
0.00062196
0.00294648
0.00065752
0.00283887
0.000683192
0.00272732
0.000704148
0.00261291
0.000726842
0.00249134
0.000751236
0.00236303
0.00077615
0.00223188
0.000803601
0.00209663
0.000835319
0.00195315
0.000869456
0.00180237
0.000903471
0.0016493
0.000937079
0.00149636
0.000969491
0.00134315
0.00099613
0.00119037
0.0010122
0.00103829
0.00101447
0.000886641
0.00100191
0.000733917
0.000979553
0.000581516
0.000945275
0.000430161
0.000911219
0.000283528
0.000881668
0.00014009
0.000869808
0.000859158
0.00375038
5.45848e-09
0.00375038
5.6083e-09
0.00375038
6.22768e-09
0.00375038
7.02134e-09
0.00375038
7.92009e-09
0.00375038
8.39494e-09
0.00375038
8.737e-09
0.00375038
8.94245e-09
0.00375038
8.81256e-09
0.00375038
9.60309e-09
0.00375038
1.3763e-08
0.00375037
3.69763e-08
0.00375041
7.76527e-08
0.00375026
2.30916e-07
0.00375069
4.87457e-07
0.00375291
1.53991e-06
0.00375142
2.99739e-06
0.00372447
3.24259e-06
0.00374954
9.01095e-06
0.00374792
1.38475e-05
0.00374216
1.99326e-05
0.00372945
6.30785e-05
0.00362916
0.000551511
0.0035484
0.000642813
0.00346113
0.000680417
0.0033614
0.00068923
0.00325381
0.000708013
0.003149
0.000729421
0.0030458
0.000761359
0.002936
0.000791066
0.00282283
0.000817733
0.00270577
0.000845991
0.00258
0.000875619
0.00244723
0.000905742
0.00231188
0.000938813
0.00217172
0.000976208
0.00202219
0.00101523
0.00186514
0.00105304
0.00170655
0.00108962
0.00154879
0.00112427
0.00139123
0.00115209
0.00123449
0.00116847
0.0010779
0.00117082
0.000920637
0.00115745
0.000764586
0.00113225
0.000604214
0.00109813
0.000448105
0.00105915
0.000296184
0.00102667
0.000146728
0.00101277
0.000998496
0.00388972
5.10638e-09
0.00388972
5.23818e-09
0.00388972
5.84017e-09
0.00388972
6.61039e-09
0.00388972
7.62399e-09
0.00388972
8.13415e-09
0.00388972
8.52379e-09
0.00388972
8.77831e-09
0.00388972
8.72223e-09
0.00388972
9.45238e-09
0.00388972
1.41566e-08
0.00388973
3.58151e-08
0.00388968
8.38367e-08
0.0038898
2.28309e-07
0.00388929
4.10584e-07
0.00388803
1.28188e-06
0.00389006
1.66896e-06
0.00391786
-3.96509e-08
0.00389497
9.80761e-06
0.00389603
1.49509e-05
0.00388711
2.8216e-05
0.00387416
8.24285e-05
0.00377518
0.000664584
0.00367421
0.000746818
0.00358163
0.000775315
0.00348072
0.00079208
0.00337356
0.000816109
0.00326523
0.000839675
0.00315643
0.000870742
0.00304319
0.00090349
0.00292666
0.000935712
0.00280515
0.00096957
0.00267443
0.00100453
0.00253657
0.00104025
0.00239566
0.00107918
0.00224995
0.00112201
0.00209584
0.00116562
0.00193513
0.00120734
0.00177278
0.00124728
0.0016105
0.00128444
0.00144791
0.00131368
0.00128565
0.00133053
0.00112387
0.00133229
0.000961357
0.00131842
0.000797305
0.00129328
0.000633558
0.00125426
0.000468172
0.00121597
0.000308554
0.0011792
0.000152635
0.00116205
0.0011433
0.00403424
4.72829e-09
0.00403424
4.86406e-09
0.00403424
5.40163e-09
0.00403425
6.15861e-09
0.00403425
7.06481e-09
0.00403425
7.67806e-09
0.00403425
8.13877e-09
0.00403425
8.46889e-09
0.00403425
7.97556e-09
0.00403425
7.30543e-09
0.00403425
7.80748e-09
0.00403428
1.87555e-08
0.00403426
4.00979e-08
0.00403449
1.18553e-07
0.00403447
2.63911e-07
0.00403142
6.60704e-07
0.00403317
1.88982e-06
0.00403951
1.37134e-06
0.00403165
7.58759e-06
0.00404662
1.06043e-05
0.00404558
2.79329e-05
0.0040323
9.90241e-05
0.00394042
0.000771074
0.00382815
0.000862856
0.00372117
0.000884413
0.00361408
0.000901577
0.00350341
0.000928517
0.00339152
0.000954383
0.00327701
0.000986599
0.00315789
0.00102226
0.00303541
0.0010592
0.00290738
0.00109815
0.00277117
0.001138
0.00262976
0.00117897
0.00248571
0.00122365
0.00233563
0.00127202
0.00217624
0.00132009
0.00201064
0.00136525
0.00184415
0.00140805
0.00167791
0.00144748
0.00151133
0.00147826
0.00134467
0.00149621
0.00117737
0.00149893
0.00100884
0.00148504
0.000838803
0.00145987
0.00066408
0.00142132
0.000494455
0.00137662
0.000326653
0.00133911
0.000161807
0.00131961
0.00129684
0.00418414
4.32891e-09
0.00418414
4.48193e-09
0.00418414
4.92931e-09
0.00418414
5.68725e-09
0.00418414
6.40376e-09
0.00418414
7.0541e-09
0.00418414
7.50404e-09
0.00418414
7.79321e-09
0.00418414
6.02733e-09
0.00418414
6.08921e-09
0.00418414
5.7169e-09
0.00418415
2.66842e-08
0.00418409
4.87264e-08
0.00418419
1.70686e-07
0.00418357
2.63536e-07
0.00418248
9.65929e-07
0.00418503
1.53434e-07
0.00421182
-3.39691e-06
0.00419642
4.13344e-06
0.00420755
-8.10586e-06
0.00420986
3.29165e-05
0.00420441
0.000110878
0.00411877
0.000870326
0.00399327
0.000992984
0.00386832
0.00101191
0.00374896
0.00102295
0.00363054
0.00104833
0.00351301
0.00107455
0.00339228
0.00110764
0.00326681
0.0011458
0.00313942
0.00118667
0.00300751
0.00123038
0.00286736
0.00127525
0.00272206
0.00132132
0.00257459
0.00137116
0.00242144
0.00142439
0.00225916
0.00147684
0.00209074
0.00152593
0.00192131
0.0015722
0.00175175
0.00161437
0.0015815
0.00164701
0.00141082
0.00166635
0.00123889
0.00167046
0.0010641
0.00165783
0.000887136
0.00163284
0.000705877
0.00159419
0.000521732
0.00155145
0.000344893
0.00150803
0.000170874
0.00148613
0.00145895
0.0043396
3.94249e-09
0.0043396
4.04374e-09
0.0043396
4.4823e-09
0.0043396
5.11462e-09
0.0043396
5.81296e-09
0.0043396
6.49612e-09
0.0043396
7.07974e-09
0.0043396
7.6395e-09
0.00433961
6.10655e-09
0.0043396
6.64282e-09
0.00433963
1.23216e-09
0.00433959
2.76926e-08
0.0043397
7.48636e-09
0.00433939
1.79763e-07
0.00434133
1.21333e-08
0.00433908
5.26367e-07
0.00434584
-3.65302e-07
0.00426153
-3.07686e-06
0.00436074
3.05746e-06
0.0040535
-1.18257e-07
0.00433567
3.58478e-05
0.00433983
0.000132979
0.0042282
0.000978217
0.00409695
0.0011271
0.00397079
0.00114023
0.00385096
0.00114421
0.00373273
0.00116739
0.00361522
0.00119354
0.00349343
0.00122886
0.00336754
0.00127019
0.00323966
0.00131518
0.00310696
0.00136343
0.00296657
0.00141302
0.00282081
0.00146452
0.00267146
0.00152009
0.00251569
0.00157849
0.00235142
0.00163545
0.00218176
0.00168884
0.00201087
0.00173922
0.00183886
0.00178487
0.00166524
0.00182038
0.0014899
0.00184232
0.00131211
0.0018484
0.00113036
0.00183787
0.000944561
0.00181522
0.000753123
0.00177724
0.000562586
0.00173234
0.000371806
0.0016904
0.000184195
0.00166574
0.00163426
0.00450084
3.53396e-09
0.00450084
3.59683e-09
0.00450084
4.00858e-09
0.00450084
4.52932e-09
0.00450084
5.20704e-09
0.00450084
5.80221e-09
0.00450084
6.26333e-09
0.00450084
6.56673e-09
0.00450084
7.15119e-09
0.00450084
6.90378e-09
0.00450083
7.85436e-09
0.00450085
1.47679e-08
0.00450082
3.58851e-08
0.0045009
9.81108e-08
0.00450052
2.1986e-07
0.00450161
6.78665e-07
0.00449468
8.45393e-07
0.00446883
-6.35048e-07
0.00451068
5.46455e-06
0.00424074
8.37229e-06
0.00448527
4.57031e-05
0.00446602
0.000158644
0.00435366
0.00110302
0.00420566
0.00128033
0.00406603
0.00128143
0.00394709
0.00126393
0.00382969
0.00128558
0.00371425
0.00131094
0.00359339
0.00134997
0.00346768
0.00139481
0.00333985
0.00144386
0.00320621
0.00149638
0.00306485
0.00155017
0.00291971
0.00160635
0.00277175
0.00166752
0.00261661
0.0017316
0.00245239
0.00179353
0.00228288
0.00185142
0.00211196
0.00190616
0.00193897
0.0019557
0.00176349
0.00199509
0.00158463
0.00202096
0.00140187
0.00203114
0.0012128
0.0020256
0.00101767
0.00200707
0.000813878
0.00197433
0.000605254
0.00193148
0.000402087
0.00188465
0.000199629
0.00185949
0.00182434
0.00466807
3.09067e-09
0.00466807
3.15458e-09
0.00466807
3.49087e-09
0.00466807
3.96894e-09
0.00466807
4.52204e-09
0.00466807
5.14641e-09
0.00466807
5.44832e-09
0.00466807
5.62238e-09
0.00466807
6.44606e-09
0.00466807
6.28342e-09
0.00466807
8.94501e-09
0.00466807
1.47588e-08
0.00466808
4.29996e-08
0.0046683
9.40529e-08
0.00466794
2.07115e-07
0.0046643
8.83684e-07
0.00467265
5.4389e-07
0.00465754
-5.77135e-07
0.0046519
6.57013e-06
0.00482439
5.10693e-06
0.00461847
6.37478e-05
0.00465952
0.000184789
0.0045377
0.00121866
0.00435672
0.00146312
0.00419837
0.00144144
0.00406358
0.00139922
0.00394339
0.00140666
0.00382553
0.00143004
0.00370442
0.00147046
0.00357846
0.00152003
0.00344999
0.0015729
0.00331567
0.00162886
0.00317378
0.00168697
0.00302862
0.00174833
0.00288163
0.00181478
0.00272814
0.00188356
0.0025657
0.00194978
0.00239795
0.00201204
0.00222833
0.00207144
0.00205559
0.00212547
0.00187911
0.00216963
0.0016979
0.00220053
0.00151098
0.00221741
0.00131525
0.00222026
0.00110941
0.00220897
0.000893062
0.0021836
0.000670539
0.0021451
0.000444146
0.0021035
0.00022083
0.0020757
0.00203657
0.00484151
2.62523e-09
0.00484151
2.69307e-09
0.00484151
2.95848e-09
0.00484151
3.38398e-09
0.00484151
3.84709e-09
0.00484151
4.4461e-09
0.00484151
4.6848e-09
0.00484151
4.8222e-09
0.00484151
4.37234e-09
0.00484152
2.63232e-09
0.00484153
4.80899e-10
0.00484154
-1.57515e-09
0.00484158
1.32168e-09
0.00484171
-2.99685e-09
0.00484189
1.25383e-08
0.00484274
2.82392e-08
0.00484292
-6.4499e-08
0.00482612
-9.47889e-07
0.00484413
1.16911e-05
0.00466864
2.30478e-06
0.00482458
9.97818e-05
0.00476011
0.000227905
0.00469134
0.00131623
0.00446527
0.00169323
0.0042853
0.00162221
0.00414646
0.00153728
0.00402954
0.00152363
0.00391998
0.0015402
0.00380384
0.00158583
0.00368348
0.00163959
0.00355957
0.00169576
0.00342947
0.00175513
0.00329344
0.00181794
0.00315405
0.00188588
0.00301037
0.00195869
0.00285867
0.00203252
0.00269862
0.00210317
0.0025341
0.00217015
0.00236735
0.00223491
0.00219643
0.00229445
0.00202006
0.00234455
0.00183728
0.00238226
0.00164747
0.00240782
0.00144468
0.00242232
0.0012271
0.0024232
0.000995491
0.00240826
0.000749175
0.00238138
0.000502059
0.00233986
0.000249529
0.00231841
0.00227641
0.00502139
2.14451e-09
0.00502139
2.20461e-09
0.00502139
2.41431e-09
0.0050214
2.76852e-09
0.0050214
3.18043e-09
0.0050214
3.73444e-09
0.0050214
3.64975e-09
0.0050214
3.65679e-09
0.0050214
1.67274e-09
0.00502141
-1.39177e-09
0.00502141
-7.7774e-09
0.00502143
-1.76953e-08
0.00502147
-4.06919e-08
0.00502157
-1.00146e-07
0.00502181
-2.18196e-07
0.00502254
-6.17319e-07
0.00502387
-9.83218e-07
0.00503775
-1.76071e-06
0.00500191
2.95035e-05
0.00521464
-3.86029e-05
0.0048904
0.000242072
0.00501226
0.000143019
0.00489311
0.00143815
0.00459128
0.00200029
0.00435764
0.00186007
0.00426405
0.00163278
0.00414048
0.00164956
0.00403018
0.00165151
0.0039134
0.00170284
0.00379715
0.00175609
0.00367942
0.00181305
0.003556
0.00187493
0.00342778
0.00194194
0.00329725
0.00201506
0.00316206
0.00209343
0.00301749
0.0021729
0.00286324
0.00224937
0.00270416
0.00232289
0.00254181
0.00239442
0.00237396
0.00246065
0.00219875
0.00251833
0.00201458
0.00256589
0.00182135
0.00260423
0.00161299
0.00263232
0.00138344
0.00264954
0.00113337
0.00265266
0.000863837
0.00264157
0.00058007
0.00261652
0.000292713
0.00259798
0.00255944
0.00520796
1.66519e-09
0.00520796
1.67325e-09
0.00520796
1.8752e-09
0.00520797
2.116e-09
0.00520797
2.4383e-09
0.00520797
2.69189e-09
0.00520797
3.15881e-09
0.00520797
3.01101e-09
0.00520797
3.14458e-09
0.00520796
3.74147e-09
0.00520794
1.11936e-08
0.0052079
2.24595e-08
0.00520778
7.40626e-08
0.00520761
1.39699e-07
0.00520665
4.24902e-07
0.00520623
6.96758e-07
0.00520881
2.46604e-06
0.00520117
3.76774e-06
0.00512962
7.64451e-06
0.00516923
1.6698e-05
0.00531776
7.91777e-05
0.00527396
0.000196395
0.00600736
0.00073572
0.00564603
0.00236693
0.00532542
0.00217694
0.00495898
0.00199743
0.00469289
0.00191613
0.00447679
0.00186912
0.0042878
0.00189354
0.00411097
0.00193569
0.00394671
0.001979
0.00379157
0.00202913
0.00364358
0.00208775
0.00350214
0.00215608
0.00336253
0.00223252
0.0032188
0.00231195
0.00306965
0.00239143
0.00291688
0.00247106
0.00275947
0.00254932
0.00259602
0.00262225
0.00242509
0.00268868
0.00224435
0.00274892
0.00205005
0.0028059
0.0018336
0.00285254
0.00159444
0.00288796
0.00132667
0.00291519
0.00102763
0.00293211
0.000703737
0.00293083
0.00035535
0.00293914
0.00290707
0.00540147
1.15747e-09
0.00540147
1.13591e-09
0.00540147
1.33305e-09
0.00540147
1.4587e-09
0.00540147
1.76964e-09
0.00540147
1.80086e-09
0.00540147
2.39412e-09
0.00540147
2.31582e-09
0.00540147
3.47249e-09
0.00540147
4.31576e-09
0.00540147
1.60956e-08
0.00540147
2.45061e-08
0.00540144
9.45659e-08
0.00540155
1.32707e-07
0.00540099
5.10003e-07
0.00540265
6.08786e-07
0.00540646
1.94227e-06
0.00540893
2.24553e-06
0.00533394
8.23139e-07
0.00540319
1.90592e-05
0.00545106
2.84707e-05
0.00550437
0.000150689
0.00578456
0.000472785
0.00591067
0.00225568
0.00567842
0.00240718
0.00539153
0.00228036
0.00516729
0.00213816
0.00493788
0.00209927
0.00473467
0.00209871
0.00454011
0.00213373
0.00434876
0.00217296
0.00416209
0.00221555
0.00398344
0.00226629
0.00381449
0.00232655
0.00365324
0.00239444
0.00349693
0.00246729
0.00334437
0.00254334
0.00319386
0.00262199
0.00304174
0.00270146
0.00288275
0.00278112
0.0027145
0.00285697
0.00253725
0.00292819
0.0023466
0.00300107
0.00213018
0.00307176
0.00188096
0.00313702
0.00159667
0.00319572
0.00127164
0.00325178
0.000895744
0.0032986
0.000475231
0.00335166
0.00337507
0.00560216
6.03381e-10
0.00560216
6.62424e-10
0.00560216
7.86128e-10
0.00560216
9.58839e-10
0.00560216
1.12725e-09
0.00560216
1.33457e-09
0.00560216
1.49968e-09
0.00560216
1.898e-09
0.00560216
3.00182e-09
0.00560216
6.53417e-09
0.00560216
1.41178e-08
0.00560215
3.53189e-08
0.00560218
7.49587e-08
0.00560213
1.76917e-07
0.00560224
3.8245e-07
0.00560195
5.78469e-07
0.0056032
1.51671e-06
0.00559686
1.16545e-06
0.00557944
-4.31979e-08
0.0056231
1.59667e-05
0.00530981
1.84677e-05
0.00564366
0.000144473
0.00572155
0.000395805
0.00583694
0.00214789
0.00569627
0.0025479
0.00553466
0.00243771
0.00540175
0.00226644
0.00524111
0.00225682
0.00507976
0.00226056
0.00491049
0.00230439
0.0047353
0.00234835
0.00455725
0.00239241
0.00437987
0.00244247
0.0042061
0.00250042
0.00403527
0.00256626
0.0038669
0.00263616
0.00370539
0.00270725
0.00354906
0.00278311
0.00339175
0.00286457
0.00323307
0.00294516
0.00307079
0.00302429
0.00290144
0.00310282
0.00272228
0.00318714
0.00251909
0.00327644
0.00228182
0.00337217
0.00199818
0.00347574
0.00165509
0.00358967
0.00123606
0.00371168
0.000704922
0.00387686
0.00407371
0.00581031
1.06912e-10
0.00581031
2.07624e-10
0.00581031
3.1287e-10
0.00581031
4.78521e-10
0.00581031
6.10183e-10
0.00581031
8.34793e-10
0.00581031
1.0401e-09
0.00581031
1.59787e-09
0.00581031
2.05236e-09
0.00581031
4.87676e-09
0.00581032
6.69853e-09
0.00581034
1.75069e-08
0.00581032
2.86241e-08
0.00581048
1.09474e-07
0.00581046
5.304e-08
0.00581042
5.72308e-07
0.00581207
1.70472e-07
0.00581356
3.26295e-07
0.00583697
-1.35848e-06
0.00579576
2.87464e-05
0.00605433
-1.38836e-05
0.00569726
0.000255235
0.00581433
0.000330922
0.00584414
0.00211478
0.00568774
0.00270397
0.00562691
0.00249716
0.00554017
0.00235035
0.00543026
0.00236478
0.00531127
0.0023785
0.00519222
0.00242249
0.00505701
0.00248193
0.00491013
0.00253686
0.00475736
0.00259226
0.00460331
0.00265289
0.00445063
0.00271825
0.00429955
0.00278733
0.00414202
0.00286454
0.00398425
0.00294276
0.00383243
0.00302202
0.00368012
0.00310362
0.00352435
0.00318723
0.00336318
0.00327227
0.00319605
0.00336337
0.00301624
0.00346422
0.00281011
0.00357916
0.00256807
0.00371382
0.00226468
0.00388751
0.00186437
0.00410541
0.00131757
0.0044184
0.00538742
0.00840003
9.26427e-12
0.00840003
3.70778e-11
0.00840003
8.28658e-11
0.00840003
1.45411e-10
0.00840003
2.31565e-10
0.00840003
3.16854e-10
0.00840003
4.53999e-10
0.00840003
6.14825e-10
0.00840003
1.06373e-09
0.00840004
1.67016e-09
0.00840004
4.16073e-09
0.00840009
7.72377e-09
0.00840003
1.74916e-08
0.00840038
3.0283e-08
0.00840021
1.08871e-07
0.00840084
2.37306e-07
0.00839975
9.58247e-07
0.0083877
2.73565e-06
0.00838958
3.95672e-06
0.00848541
8.57273e-06
0.00837866
2.4963e-05
0.00855928
7.43985e-05
0.00863994
0.000261512
0.00985274
0.000905322
0.00950247
0.00305794
0.00912522
0.00287884
0.00871394
0.00276271
0.00838683
0.00269045
0.0081203
0.00264231
0.00787308
0.00266694
0.00763892
0.00271291
0.00741372
0.00275807
0.00719748
0.00280442
0.0069934
0.00285261
0.00680053
0.00290922
0.00661101
0.00297386
0.0064269
0.00304461
0.00624861
0.00311843
0.00607544
0.00319324
0.00591015
0.00326976
0.00575396
0.00334864
0.00560467
0.00343047
0.00545975
0.00351847
0.00532143
0.00361215
0.00519243
0.00371417
0.00509152
0.00381704
0.00504896
0.00392718
0.00514477
0.00400506
0.00555179
0.00400549
0.00356861
0.0073672
0.00840003
1.2572e-12
0.00840003
5.60228e-12
0.00840003
1.54312e-11
0.00840003
3.18663e-11
0.00840003
5.99446e-11
0.00840003
9.80568e-11
0.00840003
1.59145e-10
0.00840003
2.29711e-10
0.00840003
4.63117e-10
0.00840003
6.9486e-10
0.00840004
1.49685e-09
0.00840003
3.50896e-09
0.00840008
5.8166e-09
0.00839999
8.57059e-09
0.00840013
4.77953e-08
0.00840087
9.73116e-08
0.00839983
3.74365e-07
0.00840219
1.14778e-06
0.00840198
2.07928e-06
0.00832755
3.34965e-06
0.00846402
1.8573e-05
0.00787454
3.73615e-05
0.00854946
0.000172951
0.00897013
0.00052931
0.00937833
0.00260424
0.00919616
0.00305645
0.0089184
0.00303514
0.0087293
0.00287235
0.0085074
0.00285879
0.00828835
0.00288411
0.00807295
0.00292789
0.00786086
0.00296882
0.00765805
0.00300516
0.00746811
0.00304227
0.00729132
0.00308485
0.0071309
0.00313322
0.00698769
0.00318777
0.0068537
0.00324831
0.00672774
0.00331193
0.00661012
0.00337716
0.00650747
0.00344266
0.00642783
0.00350592
0.00637712
0.0035701
0.00636353
0.00362949
0.00639508
0.00368641
0.00649463
0.00372197
0.0066924
0.00373195
0.00702609
0.00367346
0.00749646
0.00353701
0.00311773
0.00795023
0.00840003
1.53157e-13
0.00840003
8.67049e-13
0.00840003
2.92197e-12
0.00840003
6.6895e-12
0.00840003
1.48036e-11
0.00840003
2.6179e-11
0.00840003
5.28837e-11
0.00840003
8.38408e-11
0.00840003
2.07187e-10
0.00840003
3.8644e-10
0.00840003
9.60584e-10
0.00840002
1.81006e-09
0.00840009
4.78675e-09
0.00839993
5.11083e-09
0.00840018
3.90624e-08
0.0084005
5.63143e-08
0.00840072
2.79407e-07
0.00840065
6.90708e-07
0.00840299
1.56551e-06
0.0084405
2.34135e-06
0.00839349
1.41235e-05
0.00875197
2.49412e-05
0.00838884
0.000153505
0.00859061
0.000411264
0.00897829
0.00218266
0.00896773
0.00306685
0.00884835
0.00315178
0.0086713
0.00304159
0.00852183
0.00300528
0.00837317
0.00303014
0.00823813
0.00306283
0.00810054
0.00310639
0.00796186
0.00314164
0.0078224
0.00317667
0.00768439
0.00321509
0.00755719
0.00325176
0.00744606
0.00329188
0.00735747
0.00333406
0.0072884
0.00338143
0.0072403
0.00342688
0.00720682
0.00347532
0.00719487
0.00351452
0.00721054
0.00355092
0.007267
0.00357023
0.00737295
0.0035787
0.00753682
0.00355717
0.00776349
0.00350542
0.00804121
0.00339693
0.00834069
0.00323912
0.00288195
0.00857988
0.00840003
3.754e-14
0.00840003
1.80313e-13
0.00840003
7.34597e-13
0.00840003
1.52264e-12
0.00840003
4.19326e-12
0.00840003
7.5455e-12
0.00840003
1.91075e-11
0.00840003
3.48184e-11
0.00840003
8.71033e-11
0.00840003
1.48656e-10
0.00840003
6.03725e-10
0.00840004
1.09901e-09
0.00839998
4.88645e-09
0.00840013
1.15306e-08
0.00839989
3.14079e-08
0.00840049
5.72551e-08
0.00840036
2.31666e-07
0.00840008
4.95702e-07
0.00840213
1.27428e-06
0.0084254
1.89433e-06
0.00839508
1.09821e-05
0.00865688
1.71881e-05
0.00842013
0.000125173
0.00858286
0.000264626
0.00940375
0.00131778
0.00912401
0.00335052
0.00898288
0.0032986
0.00876467
0.00326129
0.00861225
0.00315924
0.00849471
0.00314908
0.0083872
0.00317241
0.00828948
0.00320682
0.00819502
0.00323873
0.00810229
0.00327158
0.00801635
0.0033009
0.00794169
0.00332729
0.0078734
0.00335681
0.00781907
0.00338386
0.00778139
0.00341405
0.00776598
0.0034377
0.00777706
0.00346118
0.00781343
0.00347625
0.00787562
0.00348495
0.00796503
0.0034776
0.00808638
0.00345201
0.00824003
0.00340057
0.00842568
0.00331683
0.0086277
0.00319461
0.00883628
0.00303174
0.00276175
0.00895913
0.00840003
1.45055e-14
0.00840003
2.5612e-14
0.00840003
2.25485e-13
0.00840003
2.3375e-13
0.00840003
1.95712e-12
0.00840003
1.47064e-12
0.00840003
1.32577e-11
0.00840003
9.43828e-12
0.00840003
9.07344e-11
0.00840003
6.70896e-11
0.00840003
8.25813e-10
0.00840004
7.71934e-10
0.00840003
4.75066e-09
0.0084001
2.94404e-09
0.00840009
3.70204e-08
0.00840021
1.98503e-08
0.00839995
3.34285e-07
0.00840283
4.72384e-07
0.00839928
1.32483e-06
0.00840936
7.64451e-07
0.00838864
1.39231e-05
0.00855836
4.3555e-06
0.00836974
0.000129254
0.00854301
0.00011303
0.00911084
0.000753147
0.00953777
0.00290321
0.00933657
0.0035062
0.00911601
0.00348933
0.00892491
0.00335476
0.00877687
0.00330034
0.00865627
0.00329732
0.00855527
0.00330997
0.00846484
0.00332743
0.00838468
0.00334587
0.00832146
0.00335821
0.0082734
0.00336979
0.00823971
0.00338502
0.00822217
0.00339729
0.00821991
0.00341274
0.00823242
0.00342001
0.0082653
0.00342436
0.00832277
0.00341722
0.00840715
0.00340239
0.00851345
0.003373
0.00863966
0.00332715
0.00877791
0.00326063
0.00892599
0.00316646
0.00907275
0.00304371
0.00920901
0.00289122
0.00267179
0.00929585
0.00840003
6.17468e-15
0.00840003
3.85814e-14
0.00840003
1.09753e-13
0.00840003
2.93532e-13
0.00840003
6.62441e-13
0.00840003
2.04185e-12
0.00840003
4.4442e-12
0.00840003
1.35334e-11
0.00840003
3.25167e-11
0.00840003
6.72409e-11
0.00840003
2.14203e-10
0.00840003
5.47757e-10
0.00840002
1.35889e-09
0.00840006
5.23017e-09
0.0083999
1.64988e-08
0.00840015
2.91493e-08
0.00839903
1.00793e-07
0.00840081
2.99279e-07
0.00840092
5.93864e-07
0.00840227
1.70808e-06
0.00843704
4.0365e-06
0.00839314
1.39446e-05
0.00878498
3.29173e-05
0.0084002
0.000172891
0.00879906
0.000397955
0.00968968
0.00194318
0.00953813
0.00365184
0.00938467
0.00364557
0.00916001
0.00358327
0.00901116
0.00345168
0.0089023
0.00340684
0.00880688
0.00340247
0.00872443
0.00340619
0.00866182
0.00340779
0.00861436
0.00340618
0.00858183
0.00340351
0.00856691
0.0034025
0.00856839
0.00339782
0.00858841
0.00339381
0.00862336
0.00338605
0.00867239
0.00337298
0.00873346
0.00335237
0.00881189
0.00331992
0.00890636
0.00327635
0.00901889
0.00321609
0.00914062
0.00314037
0.00926651
0.00304382
0.00938824
0.00292468