/*--------------------------------*- C++ -*----------------------------------*\
| =========                 |                                                 |
| \\      /  F ield         | OpenFOAM: The Open Source CFD Toolbox           |
|  \\    /   O peration     | Version:  2112                                  |
|   \\  /    A nd           | Website:  www.openfoam.com                      |
|    \\/     M anipulation  |                                                 |
\*---------------------------------------------------------------------------*/
FoamFile
{
    version     2.0;
    format      ascii;
    arch        "LSB;label=32;scalar=64";
    class       volScalarField;
    location    "1.9995";
    object      T;
}
// * * * * * * * * * * * * * * * * * * * * * * * * * * * * * * * * * * * * * //

dimensions      [0 0 0 1 0 0 0];

internalField   nonuniform List<scalar> 
7000
(
1
1
1
1
1
1
1
1.00001
1
1.00002
1.00002
1.00028
1.00048
1.00205
1.00294
1.01099
1.0178
1.04678
1.13364
1.34351
1.81149
2.60401
2.712
2.68822
2.6621
2.65929
2.67288
2.68324
2.69233
2.70063
2.71053
2.71652
2.71851
2.72561
2.73796
2.74549
2.74716
2.75261
2.76391
2.77274
2.77443
2.77127
2.76384
2.75578
2.74557
2.75002
2.76373
2.78314
2.77408
2.82163
1
1
1
1
1
1
1
1.00001
1
1.00002
1.00002
1.00027
1.00046
1.00192
1.00279
1.00998
1.01649
1.03977
1.1329
1.32847
1.81233
2.60181
2.71453
2.68954
2.66589
2.66261
2.67427
2.68411
2.69363
2.7016
2.71051
2.71596
2.71912
2.72824
2.74105
2.74753
2.74889
2.75521
2.76692
2.77513
2.77622
2.77264
2.76492
2.75682
2.74681
2.75099
2.76449
2.78349
2.77516
2.82433
1
1
1
1
1
1
1
1.00001
1
1.00002
1.00003
1.00027
1.00047
1.00187
1.00277
1.00976
1.0158
1.04031
1.12837
1.32297
1.80403
2.60117
2.71422
2.69292
2.66815
2.66435
2.67428
2.68437
2.69422
2.70167
2.70938
2.71418
2.71868
2.72925
2.74128
2.74623
2.74765
2.75481
2.76657
2.77439
2.77535
2.77171
2.76392
2.75618
2.74681
2.75094
2.76427
2.78328
2.77569
2.82574
1
1
1
1
1
1
1
1
1
1.00001
1.00008
1.00018
1.00089
1.0013
1.00537
1.00489
1.01686
1.03087
1.1329
1.31551
1.81089
2.59767
2.71061
2.68817
2.66796
2.66465
2.67522
2.68494
2.6941
2.70083
2.70845
2.71388
2.71951
2.73065
2.74212
2.7463
2.7476
2.75507
2.76683
2.77392
2.77419
2.77017
2.76254
2.755
2.7456
2.75076
2.76369
2.78135
2.77455
2.82591
1
1
1
1
1
1
1
1
1
1.00001
1.00008
1.00017
1.00086
1.00122
1.00509
1.0048
1.01759
1.02816
1.12647
1.3078
1.80333
2.59222
2.71018
2.68802
2.67105
2.66703
2.67635
2.6842
2.69173
2.69845
2.70725
2.71374
2.72034
2.73183
2.74239
2.74564
2.74742
2.75555
2.76653
2.77234
2.77226
2.7681
2.76028
2.75317
2.74408
2.75008
2.76192
2.78057
2.7748
2.82568
1
1
1
1
1
1
1
1
1
1.00001
1.00008
1.00017
1.00082
1.00113
1.00487
1.00429
1.01654
1.02532
1.12147
1.29618
1.79301
2.58556
2.70903
2.68415
2.67591
2.66861
2.67644
2.68195
2.6889
2.69756
2.70785
2.71455
2.72104
2.7319
2.74105
2.74349
2.74573
2.7546
2.76582
2.7715
2.77122
2.76703
2.75929
2.75187
2.74386
2.7477
2.76115
2.77861
2.77247
2.82334
1
1
1
1
1
1
1
1
1
1.00001
1.00008
1.00016
1.00076
1.001
1.00457
1.00356
1.01531
1.02204
1.11816
1.2833
1.78075
2.57788
2.70457
2.67715
2.67469
2.66864
2.67389
2.68134
2.68896
2.69896
2.70925
2.71548
2.72149
2.73142
2.73964
2.74214
2.74504
2.75381
2.76377
2.76816
2.76743
2.76291
2.75549
2.74894
2.73904
2.74715
2.75783
2.77619
2.77237
2.82475
1
1
1
1
1
1
1
1
1
1.00001
1.00007
1.00014
1.00068
1.00087
1.0042
1.00298
1.01421
1.01932
1.11092
1.27146
1.76762
2.57091
2.69407
2.67876
2.67305
2.66666
2.67166
2.6806
2.68854
2.69953
2.70921
2.71394
2.71975
2.73012
2.73783
2.73933
2.74231
2.75226
2.76342
2.76826
2.76745
2.7625
2.75384
2.74656
2.7393
2.74137
2.75733
2.77403
2.76839
2.81744
1
1
1
1
1
1
1
1
1
1.00001
1.00006
1.00013
1.00061
1.00073
1.00386
1.00217
1.01283
1.01521
1.10605
1.25668
1.75095
2.55668
2.68335
2.68074
2.6715
2.66548
2.66953
2.67943
2.68802
2.69868
2.70718
2.71159
2.71766
2.72779
2.73554
2.73827
2.74219
2.75109
2.75987
2.76304
2.76182
2.75726
2.74999
2.74315
2.7342
2.74205
2.74962
2.77019
2.76838
2.81978
1
1
1
1
1
1
1
1
1
1.00001
1.00005
1.00011
1.0005
1.00073
1.00284
1.00257
1.01155
1.01078
1.0981
1.24107
1.73113
2.53223
2.67506
2.67963
2.67178
2.665
2.66849
2.67783
2.686
2.69626
2.70421
2.70919
2.71654
2.72614
2.73176
2.73317
2.73765
2.74765
2.75674
2.75961
2.75796
2.75272
2.74471
2.73801
2.72915
2.73412
2.7507
2.76362
2.75992
2.80874
1
1
1
1
1
1
1
1
1
1.00001
1.00005
1.00011
1.00049
1.00059
1.00311
1.00159
1.01217
1.00576
1.09105
1.22649
1.70872
2.50348
2.65913
2.6768
2.66905
2.66233
2.66619
2.67529
2.6835
2.69447
2.70301
2.70779
2.71478
2.72463
2.73079
2.73267
2.73728
2.74685
2.75533
2.75786
2.75613
2.75077
2.74204
2.73423
2.72564
2.7291
2.73912
2.76288
2.76157
2.81098
1
1
1
1
1
1
1
1
1
1.00001
1.00004
1.0001
1.00039
1.00058
1.00245
1.0019
1.01497
1.00748
1.0873
1.22123
1.67298
2.47009
2.64321
2.67751
2.6687
2.66201
2.66506
2.67436
2.68334
2.69382
2.70098
2.7053
2.71162
2.71961
2.72484
2.72774
2.73337
2.7424
2.7494
2.75098
2.74894
2.74365
2.7359
2.72926
2.72132
2.72473
2.73691
2.74954
2.74821
2.79629
1
1
1
1
1
1
1
1
1
1.00001
1.00002
1.00015
1.00026
1.0008
1.00199
1.0026
1.0144
1.00843
1.08324
1.202
1.6386
2.42388
2.62094
2.67779
2.66845
2.66178
2.66451
2.6739
2.68202
2.69237
2.6991
2.70331
2.71078
2.71913
2.72291
2.72439
2.72949
2.73783
2.74363
2.74432
2.74157
2.73582
2.72834
2.72089
2.71384
2.71474
2.72647
2.75085
2.74893
2.79513
1
1
1
1
1
1
1
1
1
1.00001
1.00002
1.00014
1.00022
1.00072
1.00163
1.0026
1.01368
1.00285
1.08118
1.17267
1.60711
2.35285
2.59095
2.67452
2.66469
2.6589
2.66091
2.66968
2.6787
2.68831
2.6945
2.69913
2.70688
2.71577
2.72003
2.7214
2.72596
2.73348
2.73831
2.73847
2.73553
2.73018
2.72217
2.71338
2.70536
2.70412
2.7157
2.7309
2.73484
2.77961
1
1
1
1
1
1
1
1
1
1.00001
1.00002
1.00012
1.00018
1.00067
1.00117
1.00256
1.01171
1.00756
1.07167
1.15892
1.54788
2.27621
2.55376
2.67435
2.66392
2.66043
2.66174
2.66989
2.6782
2.68637
2.69128
2.69647
2.70351
2.70954
2.7121
2.71473
2.72083
2.72843
2.7325
2.73228
2.72941
2.72467
2.71618
2.70469
2.69623
2.69432
2.70138
2.72547
2.72404
2.77089
1
1
1
1
1
1
1
1
1
1.00001
1.00002
1.00011
1.00016
1.0006
1.00106
1.00225
1.0103
1.00343
1.06544
1.12313
1.50174
2.18434
2.49812
2.65996
2.65458
2.65532
2.65804
2.66822
2.67738
2.68597
2.69093
2.69566
2.70267
2.70673
2.70721
2.70785
2.71281
2.71939
2.72228
2.72163
2.71911
2.71491
2.70725
2.69552
2.68357
2.68132
2.68776
2.70702
2.71435
2.7516
1
1
1
1
1
1
1
1
1
1.00002
1.00004
1.00015
1.00022
1.00084
1.00121
1.00468
1.0038
1.01606
1.03027
1.13093
1.32329
1.79733
2.45995
2.63627
2.62545
2.62612
2.62715
2.63884
2.64989
2.66319
2.67402
2.68477
2.69486
2.70174
2.70387
2.70592
2.70953
2.71276
2.71337
2.71218
2.70947
2.7041
2.69181
2.68073
2.67207
2.66434
2.66545
2.68523
2.68819
2.73646
1
1
1
1
1
1
1
1
1
1.00002
1.00003
1.0001
1.00015
1.0005
1.00082
1.00287
1.00282
1.01132
1.01259
1.09842
1.25261
1.73368
2.48381
2.63232
2.6303
2.62732
2.62184
2.63168
2.63636
2.64332
2.64933
2.65646
2.66745
2.6783
2.68776
2.69508
2.70062
2.70209
2.70107
2.69903
2.69534
2.68846
2.67508
2.66041
2.65019
2.64688
2.64695
2.6579
2.66581
2.69608
1
1
1
1
1
1
1
1
1
1.00001
1.00003
1.00005
1.00016
1.0003
1.00062
1.00206
1.0024
1.01646
1.00753
1.08729
1.21289
1.65124
2.42283
2.59956
2.64277
2.637
2.62702
2.63009
2.63637
2.64017
2.64308
2.64563
2.64891
2.65405
2.65948
2.66758
2.67664
2.68292
2.68486
2.68431
2.68205
2.67679
2.66238
2.64506
2.62756
2.61398
2.60799
2.61804
2.61778
2.65441
1
1
1
1
1
1
1
1
1
1
1.00001
1.00003
1.00004
1.00019
1.00021
1.00138
1.0017
1.01313
1.00288
1.0775
1.15156
1.57879
2.29894
2.5451
2.6498
2.64155
2.64153
2.63876
2.64233
2.64256
2.64312
2.64329
2.64317
2.64274
2.64175
2.64187
2.64422
2.64831
2.6503
2.65022
2.6495
2.64694
2.64099
2.62688
2.60988
2.58988
2.57035
2.55752
2.54801
2.50004
1
1
1
1
1
1
1
1
1
1
1.00001
1.00001
1.00006
1.00005
1.00053
1.0008
1.00468
1.00452
1.01812
1.02848
1.13652
1.31693
1.83053
2.4014
2.61386
2.60812
2.60585
2.60458
2.61352
2.62257
2.63201
2.6363
2.63683
2.63627
2.63346
2.63109
2.62624
2.62291
2.62021
2.61746
2.61059
2.60333
2.58962
2.57663
2.556
2.53726
2.50016
2.46518
2.39556
2.31391
1
1
1
1
1
1
1
1
1
1
1
1.00001
1.00003
1.00002
1.00025
1.00035
1.00205
1.00237
1.01417
1.00932
1.09796
1.24939
1.70351
2.44793
2.60624
2.61168
2.59991
2.59243
2.59296
2.59971
2.60449
2.61063
2.61587
2.61781
2.61722
2.61452
2.60828
2.59964
2.59336
2.5865
2.58186
2.57204
2.55969
2.53835
2.51274
2.47954
2.43659
2.37843
2.29276
2.18765
1
1
1
1
1
1
1
1
1
1
1
1
1.00003
1.00001
1.00021
1.00029
1.00189
1.00198
1.0149
1.00209
1.08342
1.17212
1.59746
2.31441
2.53682
2.6111
2.59531
2.59044
2.58742
2.59137
2.59295
2.59498
2.59534
2.59695
2.59662
2.59542
2.59286
2.58701
2.57616
2.5639
2.54729
2.53518
2.51594
2.49874
2.46764
2.43566
2.3852
2.32927
2.24457
2.16146
1
1
1
1
1
1
1
1
1
1
1
1
1.00002
1.00002
1.00016
1.00021
1.00135
1.00142
1.01078
1.00121
1.05898
1.12242
1.42133
2.04362
2.39501
2.58307
2.57777
2.5777
2.57618
2.57814
2.5828
2.58439
2.58411
2.58214
2.57828
2.5721
2.56527
2.56053
2.55125
2.54231
2.52663
2.50959
2.48787
2.46515
2.43713
2.40377
2.362
2.30893
2.2425
2.16794
1
1
1
1
1
1
1
1
1
1
1
1
1.00001
1.00001
1.00011
1.00016
1.00103
1.00108
1.00764
1.00171
1.04055
1.08677
1.27615
1.7155
2.2071
2.50833
2.54502
2.53938
2.54108
2.54481
2.55265
2.55906
2.56301
2.5624
2.5601
2.55609
2.54793
2.5402
2.52747
2.51643
2.50135
2.48487
2.46207
2.4363
2.40628
2.37239
2.33487
2.28964
2.23654
2.18022
1
1
1
1
1
1
1
1
1
1
1
1
1
1.00002
1.00003
1.00017
1.00022
1.00137
1.00158
1.01225
1.00175
1.07174
1.13629
1.52407
2.16557
2.4208
2.52548
2.52345
2.51957
2.51985
2.52317
2.53067
2.53809
2.54194
2.54139
2.53914
2.53258
2.52575
2.51205
2.49888
2.48101
2.46444
2.44395
2.42097
2.39346
2.3605
2.32476
2.28259
2.23477
2.18601
1
1
1
1
1
1
1
1
1
1
1
1
1
1.00002
1.00001
1.00012
1.00018
1.00118
1.00119
1.0089
1.00454
1.04011
1.09812
1.28688
1.74927
2.22814
2.48598
2.50475
2.49827
2.49621
2.49199
2.49211
2.49327
2.49583
2.5003
2.50219
2.50105
2.49767
2.49139
2.47893
2.46488
2.44404
2.42392
2.39867
2.37394
2.3449
2.3125
2.27747
2.2354
2.19321
1
1
1
1
1
1
1
1
1
1
1
1
1
1.00001
1.00001
1.00004
1.00005
1.00035
1.00046
1.00366
1.00109
1.02352
1.03961
1.17212
1.40962
1.9438
2.35695
2.48035
2.48494
2.48324
2.47884
2.47607
2.47016
2.46312
2.45873
2.4572
2.45632
2.45457
2.4518
2.44533
2.43675
2.42246
2.40568
2.38436
2.36051
2.33383
2.30461
2.27197
2.23494
2.19718
1
1
1
1
1
1
1
1
1
1
1
1
1
1
1
1.00004
1.00002
1.0003
1.00042
1.00242
1.00237
1.01868
1.00458
1.09299
1.21642
1.62838
2.28419
2.43068
2.45683
2.45429
2.44818
2.44078
2.43889
2.43562
2.43141
2.42528
2.41972
2.41493
2.40997
2.40467
2.39668
2.38678
2.37346
2.3567
2.33695
2.31293
2.28713
2.25722
2.225
2.1919
1
1
1
1
1
1
1
1
1
1
1
1
1
1
1.00001
1.00001
1.00005
1.00005
1.00043
1.0006
1.00329
1.00351
1.01551
1.02286
1.12294
1.29019
1.75656
2.27387
2.47116
2.46934
2.45385
2.43933
2.4291
2.42322
2.41857
2.41203
2.40286
2.39312
2.38413
2.37525
2.3674
2.35746
2.34754
2.33438
2.31889
2.29991
2.27748
2.25169
2.2214
2.19152
1
1
1
1
1
1
1
1
1
1
1
1
1
1
1
1.00001
1.00003
1.00004
1.00024
1.0003
1.0018
1.00205
1.013
1.00727
1.07266
1.15383
1.53867
2.1577
2.39754
2.46075
2.4585
2.44424
2.43131
2.42291
2.41701
2.40993
2.40092
2.3884
2.37559
2.36177
2.34917
2.33616
2.32368
2.31068
2.29681
2.28125
2.26257
2.24204
2.21614
2.18977
1
1
1
1
1
1
1
1
1
1
1
1
1
1
1
1.00001
1.00001
1.00004
1.00004
1.00034
1.00041
1.00271
1.0024
1.02042
1.00222
1.10206
1.2064
1.64935
2.25171
2.39073
2.41583
2.41365
2.40888
2.40473
2.40378
2.40138
2.39661
2.38687
2.37471
2.36006
2.3455
2.33104
2.31601
2.30129
2.28584
2.27002
2.25272
2.23352
2.21112
2.18874
1
1
1
1
1
1
1
1
1
1
1
1
1
1
1
1
1.00001
1.00001
1.00008
1.00008
1.00057
1.00063
1.00419
1.00255
1.0231
1.00781
1.11554
1.27746
1.70546
2.21658
2.40789
2.40732
2.40035
2.38755
2.37367
2.36727
2.36596
2.36343
2.35923
2.35025
2.33732
2.32375
2.30957
2.29543
2.28078
2.26562
2.24939
2.23167
2.21088
2.19006
1
1
1
1
1
1
1
1
1
1
1
1
1
1
1
1
1
1.00001
1.00001
1.00006
1.00004
1.00041
1.0005
1.00321
1.00278
1.02115
1.04798
1.14789
1.41312
1.81502
2.25074
2.38688
2.39068
2.38204
2.36954
2.35558
2.34332
2.33603
2.32731
2.32128
2.31121
2.301
2.2883
2.27683
2.26455
2.25243
2.23955
2.2254
2.2082
2.19021
1
1
1
1
1
1
1
1
1
1
1
1
1
1
1
1
1
1
1.00001
1.00003
1.00004
1.00024
1.00027
1.00186
1.00199
1.01509
0.998598
1.08041
1.14653
1.53412
2.07846
2.28417
2.35478
2.36535
2.3592
2.35039
2.33543
2.32386
2.31349
2.30356
2.29356
2.28125
2.26915
2.25483
2.24208
2.2292
2.21636
2.20486
2.19101
2.17856
1
1
1
1
1
1
1
1
1
1
1
1
1
1
1
1
1
1
1.00001
1.00001
1.00004
1.00003
1.00031
1.00033
1.00247
1.00234
1.01833
0.997176
1.09286
1.17727
1.57743
2.11328
2.28201
2.33348
2.34161
2.33683
2.32856
2.31546
2.3047
2.29371
2.28373
2.27185
2.25963
2.24596
2.23096
2.21708
2.20153
2.18784
2.17214
2.15823
1
1
1
1
1
1
1
1
1
1
1
1
1
1
1
1
1
1
1
1.00001
1.00004
1.00004
1.00016
1.00016
1.00118
1.00122
1.00812
1.00156
1.04019
1.08299
1.23787
1.66662
1.98581
2.23906
2.29277
2.31114
2.30929
2.30504
2.29613
2.28654
2.27787
2.26758
2.25622
2.24351
2.22878
2.21383
2.19789
2.18155
2.16503
2.14773
1
1
1
1
1
1
1
1
1
1
1
1
1
1
1
1
1
1
1
1
1.00001
1.00002
1.00005
1.0001
1.00027
1.00084
1.00195
1.00484
1.01399
1.03868
1.0851
1.24258
1.69572
1.99201
2.19673
2.22111
2.24614
2.25074
2.26128
2.26235
2.26108
2.25737
2.24996
2.24037
2.2277
2.21355
2.19778
2.18103
2.16399
2.14623
1
1
1
1
1
1
1
1
1
1
1
1
1
1
1
1
1
1
1
1
1.00001
1.00001
1.00004
1.00005
1.00021
1.00029
1.00131
1.00164
1.00646
1.01237
1.04397
1.0992
1.23277
1.58828
2.07921
2.19562
2.19497
2.19441
2.19113
2.19265
2.19534
2.2013
2.20811
2.20954
2.2077
2.20222
2.19161
2.17741
2.16171
2.14482
1
1
1
1
1
1
1
1
1
1
1
1
1
1
1
1
1
1
1
1
1
1
1.00001
1.00002
1.00006
1.00016
1.00031
1.00101
1.00209
1.00605
1.01256
1.03744
1.09974
1.21149
1.58555
2.07222
2.19892
2.20263
2.19501
2.18514
2.17634
2.16741
2.16475
2.16305
2.16248
2.16182
2.16005
2.15572
2.1477
2.13701
1
1
1
1
1
1
1
1
1
1
1
1
1
1
1
1
1
1
1
1
1
1
1
1.00001
1.00002
1.00008
1.00011
1.00052
1.00062
1.00258
1.00473
1.01238
1.03786
1.0911
1.21729
1.59918
1.89856
2.13097
2.18451
2.18241
2.17392
2.16806
2.15612
2.14772
2.13944
2.1341
2.12776
2.12119
2.11377
2.10635
1
1
1
1
1
1
1
1
1
1
1
1
1
1
1
1
1
1
1
1
1
1
1
1
1.00001
1.00002
1.00007
1.00009
1.00043
1.00052
1.00222
1.00371
1.01368
1.02753
1.0639
1.18804
1.49506
1.79448
2.05679
2.14113
2.161
2.16079
2.15733
2.14802
2.13796
2.12796
2.119
2.10877
2.09782
2.08675
1
1
1
1
1
1
1
1
1
1
1
1
1
1
1
1
1
1
1
1
1
1
1
1
1
1.00001
1.00003
1.00003
1.00016
1.00017
1.00089
1.00077
1.00374
1.0063
1.02436
1.05821
1.1327
1.36344
1.7523
1.97675
2.12092
2.14057
2.14161
2.13819
2.13117
2.12131
2.11273
2.10242
2.09199
2.08014
1
1
1
1
1
1
1
1
1
1
1
1
1
1
1
1
1
1
1
1
1
1
1
1
1
1
1.00001
1.00001
1.00006
1.00008
1.00034
1.00038
1.00177
1.00219
1.00833
1.01532
1.04368
1.11372
1.25162
1.56228
1.93776
2.09382
2.10854
2.10766
2.10685
2.10324
2.09692
2.0896
2.07977
2.07101
1
1
1
1
1
1
1
1
1
1
1
1
1
1
1
1
1
1
1
1
1
1
1
1
1
1
1
1.00001
1.00001
1.00003
1.00003
1.00016
1.00042
1.00064
1.00315
1.00277
1.01301
1.03274
1.0759
1.1713
1.45075
1.85345
2.0205
2.08956
2.09351
2.09149
2.0853
2.07557
2.06681
2.05534
1
1
1
1
1
1
1
1
1
1
1
1
1
1
1
1
1
1
1
1
1
1
1
1
1
1
1
1
1
1.00002
1.00002
1.00007
1.0001
1.00021
1.00083
1.00091
1.00584
1.00568
1.02416
1.02503
1.13534
1.30305
1.54885
1.86183
2.04067
2.06862
2.06683
2.06239
2.05381
2.04357
1
1
1
1
1
1
1
1
1
1
1
1
1
1
1
1
1
1
1
1
1
1
1
1
1
1
1
1
1
1
1.00001
1.00001
1.00005
1.00003
1.00032
1.00027
1.00111
1.0011
1.00684
1.00497
1.03715
1.0481
1.22801
1.44649
1.70699
1.91092
2.02122
2.03712
2.03478
2.02637
1
1
1
1
1
1
1
1
1
1
1
1
1
1
1
1
1
1
1
1
1
1
1
1
1
1
1
1
1
1
1
1
1.00002
1.00002
1.00009
1.00009
1.00044
1.00045
1.00218
1.0024
1.01005
1.01683
1.04748
1.12023
1.25046
1.48493
1.75067
1.94088
1.99688
1.99812
1
1
1
1
1
1
1
1
1
1
1
1
1
1
1
1
1
1
1
1
1
1
1
1
1
1
1
1
1
1
1
1
1
1.00001
1.00001
1.00005
1.00004
1.0003
1.00028
1.00128
1.00068
1.00771
1.00536
1.0301
1.03153
1.15772
1.30292
1.50879
1.73205
1.9001
1
1
1
1
1
1
1
1
1
1
1
1
1
1
1
1
1
1
1
1
1
1
1
1
1
1
1
1
1
1
1
1
1
1
1.00001
1.00001
1.00003
1.00004
1.00017
1.00016
1.00083
1.00094
1.00415
1.00551
1.01969
1.0286
1.10038
1.17533
1.33175
1.53718
1
1
1
1
1
1
1
1
1
1
1
1
1
1
1
1
1
1
1
1
1
1
1
1
1
1
1
1
1
1
1
1
1
1
1
1
1
1.00001
1.00001
1.00003
1.00003
1.00003
0.99984
1.00016
0.998159
1.00816
0.964818
1.02806
1.03417
1.23582
1
1
1
1
1
1
1
1
1
1
1
1
1
1
1
1
1
1
1
1
1
1
1
1
1
1
1
1
1
1
1
1
1
1
1
1
1
1
1
1.00001
0.999995
1
0.999791
0.999874
0.998489
1.00218
0.982636
1.01089
1.0176
1.10015
1
1
1
1
1
1
1
1
1
1
1
1
1
1
1
1
1
1
1
1
1
1
1
1
1
1
1
1
1
1
1
1
1
1
1
1
1
1
1
1.00001
0.999993
0.999999
0.999873
0.999896
0.999228
1.00107
0.99199
1.00524
1.01007
1.04709
1
1
1
1
1
1
1
1
1
1
1
1
1
1
1
1
1
1
1
1
1
1
1
1
1
1
1
1
1
1
1
1
1
1
1
1
1
1
0.999998
0.999998
0.999986
0.999982
0.999921
0.999935
0.999577
1.00047
0.995969
1.00253
1.00477
1.02307
1
1
1
1
1
1
1
1
1
1
1
1
1
1
1
1
1
1
1
1
1
1
1
1
1
1
1
1
1
1
1
1
1
1
1
1
1
1
1
1
0.999998
1
0.999971
0.999977
0.99983
1.00029
0.998117
1.00131
1.00249
1.01116
1
1
1
1
1
1
1
1
1
1
1
1
1
1
1
1
1
1
1
1
1
1
1
1
1
1
1
1
1
1
1
1
1
1
1
1
1
1
1
1
0.999999
1
0.999985
0.999989
0.999918
1.00014
0.999092
1.00063
1.00118
1.00539
1
1
1
1
1
1
1
1
1
1
1
1
1
1
1
1
1
1
1
1
1
1
1
1
1
1
1
1
1
1
1
1
1
1
1
1
1
1
1
1
1
1
1.00001
1.00001
1.00005
1.00005
1.00028
1.00018
1.00106
1.00134
1
1
1
1
1
1
1
1
1
1
1
1
1
1
1
1
1
1
1
1
1
1
1
1
1
1
1
1
1
1
1
1
1
1
1
1
1
1
1
1
1
1
1
1
1.00003
1.00003
1.00015
1.0001
1.00055
1.00073
1
1
1
1
1
1
1
1
1
1
1
1
1
1
1
1
1
1
1
1
1
1
1
1
1
1
1
1
1
1
1
1
1
1
1
1
1
1
1
1
1
1
1
1
0.999996
1.00003
0.999893
1.0001
1.00018
1.00079
1
1
1
1
1
1
1
1
1
1
1
1
1
1
1
1
1
1
1
1
1
1
1
1
1
1
1
1
1
1
1
1
1
1
1
1
1
1
1
1
1
1
1
0.999999
1.00001
1
1.00006
1.00005
1.00022
1.00029
1.969
1.88301
1.88815
1.96911
2.04433
2.13543
2.19168
2.25685
2.27335
2.27841
2.27844
2.28227
2.29005
2.30611
2.32215
2.34232
2.36004
2.37554
2.39052
2.40615
2.4212
2.43491
2.44748
2.45837
2.46748
2.47619
2.48255
2.48338
2.48337
2.48232
2.47975
2.47581
2.47161
2.46845
2.46513
2.46268
2.46397
2.47393
2.50322
2.57468
2.73447
3.03303
3.38625
3.54262
3.45325
3.42639
3.38851
3.34122
3.29241
3.25034
3.21104
3.18263
3.15624
3.12895
3.10172
3.08199
3.06235
3.04698
3.03015
3.01764
3.00216
2.99051
2.97577
2.96463
2.95102
2.94147
2.92889
2.91979
2.90767
2.89866
2.88658
2.87755
2.86531
2.85599
2.84337
2.83362
2.82079
2.81087
2.79846
2.78933
2.77779
2.76955
2.75846
2.75139
2.74082
2.73472
2.72473
2.71931
2.71004
2.70528
2.69653
2.69219
2.6836
2.67933
2.67067
2.66646
2.65777
2.65452
2.6481
2.65222
1.96294
1.89017
1.85956
1.85196
1.83766
1.80746
1.78143
1.77491
1.78563
1.80863
1.84011
1.86363
1.87721
1.88085
1.88389
1.89099
1.89661
1.90975
1.92112
1.93408
1.94276
1.9524
1.95929
1.96634
1.97244
1.97741
1.98147
1.985
1.98788
1.98952
1.98998
1.99023
1.9905
1.99067
1.99075
1.99098
1.99373
2.0023
2.02428
2.07742
2.19949
2.46555
2.83744
3.0992
3.03437
2.90535
2.84012
2.79359
2.75649
2.72418
2.69493
2.66895
2.64746
2.62511
2.60149
2.57797
2.55803
2.54041
2.52496
2.51111
2.49869
2.48723
2.47646
2.46619
2.45618
2.44652
2.43671
2.42723
2.41752
2.40799
2.39856
2.38924
2.38002
2.37076
2.36098
2.35098
2.34036
2.32946
2.31815
2.30686
2.29506
2.28421
2.2728
2.26285
2.25199
2.24303
2.23268
2.22473
2.21475
2.20766
2.19778
2.19133
2.18149
2.17562
2.16594
2.1608
2.15162
2.14784
2.14089
2.14402
1.99446
1.91953
1.86132
1.80417
1.73634
1.68368
1.64423
1.6388
1.63941
1.64885
1.66904
1.69501
1.71259
1.7295
1.73675
1.74525
1.74977
1.75584
1.76244
1.76936
1.77597
1.78232
1.78826
1.79356
1.79837
1.80313
1.80719
1.81057
1.81327
1.81559
1.81716
1.81794
1.81919
1.82051
1.82141
1.82329
1.82764
1.83735
1.8585
1.90365
1.9941
2.1534
2.37763
2.60273
2.64798
2.61295
2.57671
2.54643
2.52275
2.50632
2.49161
2.47652
2.46291
2.44876
2.43358
2.41792
2.40232
2.38837
2.3754
2.3641
2.35346
2.34412
2.33472
2.32677
2.31792
2.31081
2.30182
2.29494
2.28555
2.27834
2.26875
2.26109
2.25124
2.243
2.23246
2.2233
2.21171
2.20132
2.18871
2.1776
2.16423
2.15321
2.13945
2.1294
2.1159
2.10727
2.09484
2.0875
2.07655
2.07048
2.06067
2.05567
2.04666
2.04225
2.03353
2.02931
2.02071
2.01709
2.00952
2.01033
2.02768
1.94533
1.87199
1.8128
1.75258
1.70444
1.65918
1.62597
1.60081
1.59438
1.59672
1.60098
1.61469
1.63379
1.64863
1.66492
1.67309
1.68169
1.68542
1.68968
1.69407
1.69847
1.70285
1.70721
1.71132
1.71488
1.71842
1.72173
1.72438
1.72636
1.72794
1.73012
1.73165
1.73454
1.73629
1.74025
1.7482
1.76439
1.79763
1.86689
1.98349
2.12304
2.2098
2.31225
2.39836
2.46175
2.48018
2.46284
2.44805
2.42982
2.40669
2.39143
2.37613
2.36291
2.3489
2.33802
2.32564
2.315
2.30341
2.29353
2.28283
2.27412
2.26389
2.25603
2.24665
2.23999
2.23086
2.22411
2.21467
2.20767
2.19834
2.19139
2.18207
2.17482
2.16487
2.1567
2.14567
2.13635
2.12413
2.11419
2.1011
2.09124
2.07761
2.06821
2.05467
2.04577
2.03299
2.02483
2.01305
2.00605
1.99558
1.98954
1.98049
1.97513
1.96692
1.96246
1.95406
1.95061
1.94347
1.94444
2.06099
1.98429
1.90792
1.84093
1.78086
1.72883
1.68036
1.6406
1.60331
1.58059
1.56567
1.56621
1.56899
1.57398
1.58803
1.5996
1.61521
1.6257
1.6366
1.64099
1.64745
1.64937
1.65225
1.65505
1.65787
1.66065
1.66319
1.66577
1.66768
1.66989
1.6717
1.67355
1.67587
1.67824
1.68198
1.68932
1.70396
1.73362
1.79691
1.9049
2.03731
2.10425
2.1288
2.15706
2.20063
2.2509
2.30493
2.35007
2.37303
2.37274
2.36422
2.35127
2.33271
2.3181
2.30494
2.29477
2.28459
2.2766
2.26645
2.2584
2.2475
2.23764
2.22533
2.2156
2.20316
2.19392
2.1818
2.17352
2.16202
2.1545
2.14387
2.13704
2.1271
2.1208
2.1112
2.10515
2.09556
2.08932
2.07918
2.0724
2.06155
2.05464
2.04338
2.03672
2.02501
2.01843
2.00631
1.99968
1.98757
1.98094
1.96918
1.96265
1.9515
1.94481
1.93466
1.92797
1.91831
1.91276
1.90394
1.90255
2.08313
2.01465
1.94642
1.88335
1.82236
1.76972
1.71963
1.67834
1.63955
1.60861
1.57959
1.56269
1.54986
1.54997
1.55245
1.55592
1.56663
1.57649
1.59003
1.59919
1.60929
1.61311
1.61869
1.61949
1.62134
1.62265
1.62434
1.6254
1.62725
1.62864
1.6306
1.63261
1.63506
1.63855
1.64564
1.65922
1.68677
1.74384
1.85392
1.9856
2.05402
2.07699
2.07506
2.07794
2.08749
2.10389
2.13315
2.16894
2.22021
2.27539
2.3079
2.32142
2.31592
2.3047
2.29083
2.27398
2.26126
2.2516
2.24038
2.23223
2.22147
2.21287
2.19959
2.18698
2.17075
2.15736
2.14192
2.13055
2.1172
2.10788
2.09643
2.08886
2.07906
2.07317
2.06502
2.06044
2.05309
2.04898
2.04191
2.03817
2.03103
2.02715
2.01938
2.01502
2.00637
2.00152
1.9917
1.98626
1.97509
1.96903
1.95663
1.95017
1.93711
1.93017
1.9174
1.90941
1.89784
1.88907
1.8794
1.87389
2.10223
2.04024
1.97943
1.92116
1.86412
1.81163
1.76205
1.71793
1.67699
1.64154
1.60897
1.58174
1.55923
1.54645
1.53778
1.53812
1.54004
1.54324
1.55259
1.55991
1.5718
1.57894
1.58783
1.59041
1.59497
1.5953
1.59598
1.59704
1.5978
1.59941
1.60083
1.60329
1.60644
1.61296
1.62557
1.65141
1.70435
1.81393
1.94303
2.02766
2.05104
2.04632
2.03611
2.03091
2.02461
2.02609
2.03076
2.04675
2.07532
2.1134
2.16757
2.22596
2.26719
2.28861
2.28339
2.27147
2.25663
2.23492
2.21682
2.20251
2.18887
2.17726
2.16391
2.1514
2.13534
2.12107
2.10532
2.0924
2.07873
2.0687
2.05784
2.05032
2.04182
2.03624
2.02945
2.025
2.01959
2.0159
2.01118
2.00804
2.0033
2.0007
1.99544
1.99255
1.98664
1.98279
1.97562
1.97073
1.96143
1.95546
1.94376
1.93678
1.92264
1.91487
1.89925
1.89015
1.87538
1.86453
1.85327
1.84459
2.11675
2.06017
2.0046
1.95146
1.8981
1.84888
1.80045
1.75686
1.71507
1.67845
1.64407
1.61477
1.58739
1.56473
1.54668
1.53546
1.52819
1.52751
1.52831
1.53034
1.53683
1.54225
1.55153
1.55712
1.56396
1.56606
1.56943
1.56976
1.5706
1.57151
1.5735
1.57604
1.58159
1.59305
1.61695
1.66573
1.77298
1.89955
2.00188
2.02972
2.02701
2.01962
2.00977
2.0009
1.98755
1.98031
1.97767
1.97962
1.9853
2.00235
2.02889
2.06986
2.12309
2.18488
2.22895
2.25228
2.24624
2.22987
2.21148
2.18706
2.16089
2.14076
2.12582
2.11598
2.10559
2.09725
2.0862
2.07708
2.0663
2.05738
2.04687
2.03837
2.02871
2.0215
2.01354
2.00766
2.00117
1.99611
1.99082
1.98627
1.98136
1.97752
1.97252
1.96935
1.96384
1.95997
1.95346
1.94805
1.93946
1.93267
1.92098
1.91294
1.89836
1.88968
1.87334
1.8643
1.84847
1.83864
1.82657
1.81889
2.11944
2.06742
2.01642
1.96795
1.91911
1.87311
1.82804
1.78652
1.74618
1.70956
1.67424
1.64324
1.61344
1.58802
1.56344
1.54408
1.52894
1.51949
1.51321
1.51175
1.512
1.51343
1.51737
1.52349
1.52951
1.53643
1.54086
1.54507
1.54727
1.54987
1.55234
1.55767
1.56845
1.59065
1.6356
1.73826
1.86142
1.98561
2.01855
2.01994
2.01198
2.00264
1.99158
1.97925
1.96485
1.95426
1.94255
1.93607
1.93394
1.93517
1.93971
1.95356
1.97834
2.01675
2.06853
2.12948
2.1754
2.19517
2.18847
2.17344
2.15578
2.13543
2.11471
2.10123
2.09011
2.08387
2.07612
2.07051
2.06198
2.05509
2.04473
2.03641
2.02525
2.01644
2.00541
1.99724
1.98741
1.9801
1.97136
1.96513
1.95766
1.95253
1.94554
1.94089
1.9337
1.92878
1.92075
1.9147
1.90512
1.89825
1.88697
1.87983
1.86694
1.85981
1.84578
1.83864
1.8247
1.81729
1.80598
1.8007
2.12423
2.07407
2.02398
1.97721
1.93149
1.88911
1.84702
1.80789
1.76999
1.735
1.70096
1.66991
1.64001
1.61337
1.58802
1.56616
1.54451
1.52829
1.51465
1.50657
1.50098
1.5
1.50038
1.50188
1.50632
1.51138
1.51854
1.52468
1.53126
1.53627
1.54336
1.55332
1.57424
1.61661
1.71336
1.83612
1.97325
2.0101
2.0163
2.00653
1.99592
1.98749
1.97317
1.95906
1.94247
1.9279
1.91383
1.90502
1.8957
1.88993
1.88406
1.88319
1.8864
1.89865
1.92363
1.95957
2.01166
2.07318
2.12729
2.15857
2.15455
2.14474
2.13049
2.1122
2.09217
2.07992
2.06791
2.06149
2.05224
2.04693
2.03722
2.0302
2.0184
2.00957
1.99674
1.98738
1.97466
1.96593
1.95422
1.94654
1.93584
1.9292
1.91928
1.91337
1.90371
1.8982
1.88867
1.88351
1.87384
1.86889
1.85895
1.85386
1.84351
1.83815
1.8272
1.82161
1.81039
1.80437
1.79482
1.79116
2.13112
2.0837
2.03538
1.98904
1.94285
1.90046
1.86027
1.82271
1.78591
1.75219
1.71945
1.6892
1.66018
1.63331
1.60792
1.58457
1.56287
1.54314
1.52544
1.51182
1.50122
1.49496
1.49117
1.49137
1.49217
1.49437
1.49947
1.5063
1.51458
1.52437
1.53752
1.55814
1.59919
1.69157
1.81482
1.95908
2.00357
2.00962
1.99949
1.99034
1.98217
1.96897
1.95226
1.93653
1.91985
1.90828
1.89382
1.88314
1.86924
1.85674
1.84543
1.8382
1.83186
1.83219
1.83692
1.85223
1.88232
1.92409
1.97978
2.04621
2.10204
2.13711
2.1316
2.12051
2.10567
2.08582
2.06397
2.04961
2.03634
2.02774
2.01657
2.00904
1.99753
1.98916
1.97657
1.96747
1.95443
1.94521
1.93263
1.92434
1.91286
1.9056
1.89511
1.88899
1.87965
1.87467
1.86624
1.86199
1.85395
1.84993
1.84193
1.83792
1.82978
1.82552
1.81695
1.81177
1.80276
1.79682
1.78831
1.78513
2.13617
2.09542
2.0501
2.00362
1.95882
1.91578
1.87435
1.837
1.80127
1.76731
1.73531
1.70489
1.67625
1.64915
1.62388
1.59979
1.5781
1.55733
1.53922
1.52163
1.50735
1.49571
1.48813
1.48277
1.48183
1.48264
1.48439
1.48903
1.49728
1.51243
1.53385
1.57304
1.65818
1.77947
1.93169
1.98869
1.99857
1.98997
1.98212
1.97627
1.96423
1.9489
1.93134
1.91774
1.90396
1.89082
1.87606
1.86191
1.84417
1.83207
1.81607
1.80351
1.79491
1.79211
1.79455
1.80067
1.80874
1.82709
1.85603
1.89583
1.94627
2.01424
2.06977
2.10044
2.09248
2.07875
2.06022
2.03903
2.0155
1.99897
1.98436
1.97339
1.96101
1.95174
1.94027
1.93187
1.92118
1.91363
1.90308
1.89583
1.88612
1.88026
1.87192
1.86717
1.85978
1.856
1.84943
1.84621
1.8399
1.83675
1.83031
1.82691
1.81996
1.81547
1.80831
1.8024
1.79441
1.78778
1.77978
1.77582
2.14333
2.1064
2.06643
2.02416
1.97796
1.93475
1.89347
1.85325
1.81713
1.78325
1.75077
1.72061
1.69169
1.66474
1.63914
1.61524
1.59238
1.57198
1.55165
1.53521
1.51768
1.50451
1.49091
1.48329
1.47669
1.47713
1.4786
1.48259
1.49151
1.50935
1.54722
1.61827
1.73694
1.88766
1.9676
1.98352
1.98108
1.97586
1.97075
1.96035
1.94378
1.92855
1.91409
1.90008
1.88419
1.86875
1.85119
1.83575
1.82019
1.80551
1.79134
1.78379
1.77611
1.77318
1.7706
1.77071
1.77279
1.77592
1.7804
1.79286
1.81603
1.85131
1.89459
1.957
2.01336
2.04172
2.03266
2.01721
1.99954
1.97833
1.95481
1.93907
1.92574
1.91622
1.906
1.89928
1.89134
1.88641
1.87953
1.87531
1.86808
1.8638
1.85677
1.85314
1.8465
1.84316
1.8368
1.83367
1.8273
1.82402
1.81717
1.81346
1.80564
1.80111
1.79262
1.78614
1.77762
1.77017
1.76181
1.75675
2.14892
2.1185
2.08451
2.04572
2.00637
1.96185
1.91919
1.87905
1.83939
1.80328
1.77091
1.73863
1.7104
1.68206
1.65753
1.63244
1.6108
1.58899
1.56943
1.5513
1.53353
1.51967
1.50345
1.49399
1.48273
1.48283
1.48436
1.48981
1.50294
1.53138
1.58985
1.70828
1.84193
1.94398
1.96522
1.97245
1.96615
1.95945
1.94717
1.93379
1.91848
1.90381
1.88665
1.87191
1.8545
1.83932
1.82359
1.8106
1.79793
1.78944
1.78118
1.77561
1.76838
1.76492
1.75843
1.75372
1.74772
1.74245
1.73843
1.7365
1.73647
1.74368
1.76155
1.79131
1.83154
1.89092
1.95012
1.98575
1.97712
1.96466
1.95197
1.9342
1.91408
1.90186
1.8906
1.8838
1.87562
1.87113
1.86493
1.86194
1.85652
1.85346
1.84721
1.84383
1.83718
1.83363
1.82633
1.82247
1.81459
1.81034
1.80139
1.79655
1.7865
1.78118
1.77037
1.76397
1.7533
1.74566
1.7364
1.73112
2.1453
2.11941
2.09078
2.06053
2.02486
1.98952
1.94989
1.9081
1.87153
1.83182
1.7971
1.76513
1.73467
1.70569
1.68126
1.65463
1.6339
1.61093
1.59129
1.57282
1.5533
1.5397
1.52137
1.51177
1.49919
1.49978
1.5026
1.51184
1.53404
1.58241
1.68829
1.81105
1.92084
1.95559
1.96224
1.95257
1.94138
1.93133
1.91705
1.90168
1.88277
1.86722
1.85305
1.84102
1.82716
1.81577
1.80344
1.79627
1.78855
1.78353
1.7774
1.77145
1.76415
1.75801
1.74798
1.74129
1.72863
1.71916
1.70626
1.69719
1.68832
1.68422
1.68248
1.68854
1.70462
1.73401
1.77507
1.83527
1.90117
1.94746
1.94061
1.93199
1.92277
1.90746
1.8889
1.87777
1.86734
1.86158
1.85382
1.84971
1.84357
1.84085
1.83531
1.832
1.82509
1.82124
1.81346
1.80874
1.79937
1.79415
1.78377
1.77784
1.76608
1.75977
1.74744
1.741
1.72885
1.72205
1.71188
1.7074
2.12871
2.11083
2.0885
2.06147
2.03318
2.00049
1.9689
1.93405
1.89554
1.86295
1.8261
1.79169
1.76511
1.73115
1.70872
1.68055
1.65758
1.63687
1.61303
1.59727
1.57517
1.56109
1.5435
1.53117
1.52386
1.52574
1.53171
1.54879
1.58766
1.68427
1.79078
1.91086
1.94996
1.95605
1.94188
1.927
1.91405
1.89963
1.88059
1.86177
1.84537
1.83581
1.82589
1.81722
1.80664
1.79889
1.79224
1.78843
1.78295
1.77896
1.77056
1.76338
1.75326
1.74441
1.7337
1.72309
1.70971
1.69636
1.68168
1.66697