/*--------------------------------*- C++ -*----------------------------------*\
| =========                 |                                                 |
| \\      /  F ield         | OpenFOAM: The Open Source CFD Toolbox           |
|  \\    /   O peration     | Version:  2112                                  |
|   \\  /    A nd           | Website:  www.openfoam.com                      |
|    \\/     M anipulation  |                                                 |
\*---------------------------------------------------------------------------*/
FoamFile
{
    version     2.0;
    format      ascii;
    arch        "LSB;label=32;scalar=64";
    class       volVectorField;
    location    "1.9995";
    object      U;
}
// * * * * * * * * * * * * * * * * * * * * * * * * * * * * * * * * * * * * * //

dimensions      [0 1 -1 0 0 0 0];

internalField   nonuniform List<vector> 
7000
(
(3 -5.72995e-07 0.000805021)
(3 -1.37251e-06 0.000764326)
(3 -1.90934e-06 0.00072386)
(3 -2.11168e-06 0.000683629)
(3 -1.95649e-06 0.000643632)
(3 -1.60596e-06 0.000603873)
(3 -1.27267e-06 0.000564363)
(3 -8.98775e-07 0.000525109)
(3 -1.58874e-06 0.000486098)
(2.99999 -2.38907e-06 0.000447693)
(2.99995 -3.06671e-06 0.000409998)
(2.99983 -4.21949e-06 0.000374507)
(2.99961 -3.54797e-07 0.00034053)
(2.99895 -1.20265e-06 0.000318707)
(2.99781 4.61089e-05 0.000300985)
(2.99405 7.54124e-05 0.00036484)
(2.98911 0.000503502 0.000383654)
(2.95864 0.000939475 0.00135924)
(2.91263 -0.000466882 0.00188518)
(2.72561 0.000920077 0.00772497)
(2.17122 -0.016716 0.0147786)
(1.21787 -0.0295461 0.0253784)
(0.485379 -0.0214226 0.00875692)
(0.634949 -0.0055446 -0.00229576)
(0.747122 -0.00306472 -0.00198483)
(0.760894 -0.00334903 -0.000710852)
(0.73287 -0.00406776 -0.000264152)
(0.693725 -0.00328585 -0.000246946)
(0.659008 -0.00235799 -0.000432436)
(0.632019 -0.00152357 -0.000658191)
(0.607457 -0.000775448 -0.000818973)
(0.582349 -4.15496e-05 -0.000945597)
(0.556437 0.000733758 -0.00107192)
(0.529943 0.00157387 -0.00120859)
(0.502802 0.00250034 -0.00135217)
(0.475017 0.00356593 -0.00149656)
(0.446562 0.00484198 -0.00164168)
(0.416948 0.00638512 -0.00179238)
(0.385456 0.0082208 -0.00194958)
(0.351759 0.0103009 -0.00210853)
(0.315893 0.0124202 -0.00226638)
(0.27823 0.0141932 -0.00242303)
(0.239967 0.0152486 -0.002577)
(0.202416 0.0154269 -0.0027295)
(0.167128 0.0148887 -0.00287832)
(0.134533 0.0139554 -0.00303987)
(0.103733 0.0129803 -0.00320913)
(0.0741661 0.0124043 -0.00338427)
(0.0446068 0.0131252 -0.00352473)
(0.0222455 0.0165217 -0.00374006)
(3 -5.87088e-07 0.000777211)
(3 -1.41073e-06 0.000737871)
(3 -1.90589e-06 0.000698756)
(3 -2.04652e-06 0.000659874)
(3 -1.7467e-06 0.000621225)
(3 -1.11861e-06 0.000582812)
(3 -4.87484e-07 0.000544644)
(3 2.24269e-07 0.000506741)
(3 -1.63191e-06 0.000469065)
(2.99999 -3.77689e-06 0.000431953)
(2.99995 -5.31313e-06 0.000395523)
(2.99984 -6.98491e-06 0.000361123)
(2.99962 1.45057e-06 0.000328139)
(2.99901 3.72e-06 0.000305991)
(2.99794 8.55503e-05 0.000287302)
(2.99447 0.000166574 0.000341098)
(2.99035 0.000786534 0.000338238)
(2.95982 0.00138514 0.0013105)
(2.9185 0.00209258 0.00166603)
(2.73389 0.00477841 0.00743251)
(2.18746 -0.00545373 0.0140518)
(1.24497 -0.00742295 0.0245646)
(0.490161 0.0120374 0.00871619)
(0.623528 0.0340644 -0.00193048)
(0.732443 0.033523 -0.00181818)
(0.749278 0.0300185 -0.000706446)
(0.724179 0.0273344 -0.000281825)
(0.686952 0.0282305 -0.000253593)
(0.652473 0.0291135 -0.000412781)
(0.625317 0.0294119 -0.000627979)
(0.600455 0.0294651 -0.000784542)
(0.574848 0.0295662 -0.000907378)
(0.548193 0.0298186 -0.00102947)
(0.52075 0.0302205 -0.00116161)
(0.492529 0.0307767 -0.00129987)
(0.463614 0.031565 -0.00143828)
(0.434051 0.0326806 -0.00157762)
(0.403474 0.0341782 -0.00172277)
(0.371414 0.0360616 -0.00187375)
(0.337862 0.0382287 -0.00202552)
(0.303072 0.0403707 -0.00217573)
(0.267423 0.0419764 -0.00232447)
(0.231822 0.0425946 -0.0024706)
(0.19698 0.0420329 -0.00261561)
(0.163864 0.0404721 -0.0027576)
(0.132614 0.0383594 -0.00291184)
(0.102254 0.0362317 -0.00307407)
(0.0722466 0.0347132 -0.00324198)
(0.0416424 0.0348456 -0.00337746)
(0.019221 0.038088 -0.0035833)
(3 -1.56342e-08 0.000748287)
(3 -1.08847e-07 0.00071036)
(3 -1.00357e-07 0.000672656)
(3 -2.24507e-07 0.000635181)
(3 -1.09689e-07 0.000597936)
(3 1.40896e-07 0.000560925)
(3 4.25526e-07 0.000524154)
(3 5.52429e-07 0.000487659)
(3 1.77617e-06 0.000451377)
(2.99998 -2.3641e-06 0.000415622)
(2.99995 -3.57652e-06 0.000380545)
(2.99984 -3.72999e-05 0.000347366)
(2.99963 -2.66497e-05 0.000315672)
(2.99902 -0.00023333 0.000293987)
(2.99798 -0.000131061 0.000275799)
(2.99458 -0.00161221 0.000326289)
(2.99054 0.000470826 0.00032359)
(2.96095 0.00375016 0.00122799)
(2.92023 0.00387257 0.00158111)
(2.73777 0.0065273 0.00706167)
(2.19668 -0.00899688 0.0133843)
(1.25448 -0.0198684 0.0237984)
(0.481988 -0.00627911 0.00845762)
(0.6092 0.0240071 -0.00176217)
(0.715427 0.0255602 -0.00166683)
(0.734052 0.0245794 -0.00068822)
(0.712267 0.024308 -0.000301025)
(0.677474 0.0277505 -0.000262609)
(0.643508 0.0307677 -0.000393314)
(0.616592 0.0328979 -0.000597735)
(0.592077 0.034663 -0.000750789)
(0.566773 0.0364643 -0.000870109)
(0.540258 0.038445 -0.000987838)
(0.512796 0.0406126 -0.00111478)
(0.484489 0.0430022 -0.00124681)
(0.45549 0.0457495 -0.00137871)
(0.425845 0.0489927 -0.00151207)
(0.39522 0.0527751 -0.00165116)
(0.363268 0.0570199 -0.0017952)
(0.330122 0.0614569 -0.00193955)
(0.296116 0.0655446 -0.00208209)
(0.261639 0.0685554 -0.00222279)
(0.227473 0.0699142 -0.00236091)
(0.19405 0.0694493 -0.00249845)
(0.162072 0.0674822 -0.00263369)
(0.13157 0.0647466 -0.00278045)
(0.101587 0.0620334 -0.00293515)
(0.0717158 0.0602455 -0.00309561)
(0.041191 0.0604678 -0.00322574)
(0.0184302 0.0641752 -0.00342274)
(3 1.34661e-08 0.000718202)
(3 2.68343e-08 0.00068175)
(3 1.25071e-07 0.000645518)
(3 4.42769e-08 0.00060951)
(3 1.69338e-07 0.000573728)
(3 3.00584e-07 0.000538177)
(3 4.65003e-07 0.000502864)
(3 4.86297e-07 0.000467789)
(3 3.13922e-06 0.000433004)
(2.99998 -6.75151e-09 0.000398664)
(2.99994 -7.87716e-07 0.000365357)
(2.99983 -3.17241e-05 0.000332953)
(2.99953 -1.90751e-05 0.000305302)
(2.99899 -0.000200019 0.000280326)
(2.99726 -7.0819e-05 0.000286451)
(2.99499 -0.00134605 0.000276375)
(2.99422 0.000757398 0.000206506)
(2.96314 0.00373085 0.00121697)
(2.92553 0.00421491 0.0014166)
(2.74335 0.00892149 0.00686879)
(2.20327 -0.00558791 0.0127645)
(1.27739 -0.00949068 0.0227516)
(0.503228 0.0195996 0.00820975)
(0.609728 0.0514379 -0.00144936)
(0.706138 0.0486848 -0.00147334)
(0.727548 0.0469715 -0.000684648)
(0.708481 0.0467428 -0.000316121)
(0.674978 0.0504972 -0.000264583)
(0.640225 0.0535603 -0.000367883)
(0.612437 0.0556651 -0.000563203)
(0.587386 0.0574016 -0.000713495)
(0.561715 0.0592107 -0.000829812)
(0.534837 0.0612543 -0.00094313)
(0.506981 0.0635561 -0.00106456)
(0.478309 0.0661772 -0.00119053)
(0.44903 0.0692793 -0.0013164)
(0.419195 0.0730247 -0.00144378)
(0.388505 0.077469 -0.0015766)
(0.356709 0.0824985 -0.00171377)
(0.324026 0.0877529 -0.00185077)
(0.290777 0.0925558 -0.00198553)
(0.257289 0.0960636 -0.00211822)
(0.224222 0.0976172 -0.00224882)
(0.191821 0.0970542 -0.0023789)
(0.160643 0.0947591 -0.00250686)
(0.130673 0.091614 -0.00264705)
(0.101017 0.0885416 -0.0027937)
(0.0713878 0.0865683 -0.00294493)
(0.0410789 0.0866915 -0.0030694)
(0.0181328 0.0904105 -0.00325807)
(3 2.79245e-08 0.000686908)
(3 1.9052e-07 0.000651993)
(3 4.42754e-07 0.000617296)
(3 6.47326e-07 0.000582818)
(3 8.79437e-07 0.000548561)
(3 1.11864e-06 0.000514531)
(3 1.38886e-06 0.000480733)
(3 1.71244e-06 0.000447167)
(3 2.12125e-06 0.000413894)
(2.99998 1.29161e-06 0.000381039)
(2.99994 -9.82443e-08 0.00034915)
(2.99984 1.85817e-06 0.000318029)
(2.99955 8.31535e-06 0.000291373)
(2.99905 4.58039e-05 0.000266574)
(2.99743 0.000124298 0.000269814)
(2.99514 0.000450575 0.000264009)
(2.9942 0.00089472 0.000205761)
(2.96419 8.53532e-05 0.00111819)
(2.929 0.00312374 0.00128545)
(2.74922 0.00256682 0.00651156)
(2.21718 -0.00252884 0.0120164)
(1.29956 -0.00393211 0.0218228)
(0.517356 0.0243824 0.00796059)
(0.606957 0.0571254 -0.00117903)
(0.69582 0.0548365 -0.00129703)
(0.720875 0.0544712 -0.000684079)
(0.705257 0.0556728 -0.00033471)
(0.673502 0.0609989 -0.000269125)
(0.638169 0.0657428 -0.000343679)
(0.609755 0.0692442 -0.000529718)
(0.584486 0.0722566 -0.000677335)
(0.558802 0.0753411 -0.000790555)
(0.531877 0.0786498 -0.000899003)
(0.503861 0.0822012 -0.00101441)
(0.474959 0.0860826 -0.00113381)
(0.445423 0.090467 -0.00125326)
(0.415319 0.0955057 -0.00137463)
(0.384404 0.10123 -0.00150103)
(0.352545 0.107472 -0.00163064)
(0.320038 0.113794 -0.00175963)
(0.287201 0.119427 -0.00188664)
(0.254315 0.123486 -0.00201145)
(0.221942 0.125304 -0.00213423)
(0.190195 0.124753 -0.00225703)
(0.15953 0.122296 -0.00237791)
(0.129902 0.118917 -0.00251112)
(0.100464 0.115624 -0.00264893)
(0.0710368 0.113537 -0.00279309)
(0.0409836 0.113585 -0.00291197)
(0.0179954 0.117294 -0.00309013)
(3 2.43255e-08 0.00065435)
(3 2.14157e-07 0.000621041)
(3 4.98534e-07 0.000587944)
(3 8.11144e-07 0.000555062)
(3 1.07123e-06 0.000522395)
(3 1.31924e-06 0.00048995)
(3 1.56406e-06 0.000457732)
(3 1.81837e-06 0.000425739)
(3 2.03866e-06 0.000394033)
(2.99998 1.83111e-06 0.000362723)
(2.99994 1.75347e-06 0.000332291)
(2.99985 8.53912e-06 0.000302581)
(2.99958 1.91444e-05 0.000276851)
(2.9991 7.87405e-05 0.000252771)
(2.99759 0.000158112 0.000253543)
(2.99552 0.000564278 0.000244035)
(2.99478 0.00144864 0.000188603)
(2.96594 0.0015063 0.00102712)
(2.93299 0.00432154 0.00116018)
(2.75619 0.00434776 0.00611077)
(2.23693 0.000440269 0.0112166)
(1.33085 0.0035919 0.0208232)
(0.541764 0.0384222 0.00770776)
(0.609168 0.0704803 -0.000890429)
(0.687756 0.0689352 -0.00112288)
(0.715887 0.0699065 -0.000683205)
(0.703077 0.0720824 -0.000347304)
(0.672817 0.0775216 -0.000271313)
(0.636695 0.0834649 -0.00031844)
(0.607364 0.0876123 -0.000492975)
(0.581917 0.0911632 -0.000639468)
(0.556416 0.0948926 -0.000749989)
(0.529653 0.0989405 -0.000852958)
(0.501681 0.103315 -0.000961797)
(0.472743 0.108112 -0.00107441)
(0.443114 0.113488 -0.00118736)
(0.412862 0.119569 -0.00130248)
(0.381796 0.126345 -0.00142233)
(0.349888 0.133588 -0.00154487)
(0.317493 0.140778 -0.00166651)
(0.284923 0.147076 -0.00178596)
(0.252426 0.151568 -0.00190317)
(0.220496 0.153599 -0.00201843)
(0.189165 0.153097 -0.00213346)
(0.158814 0.15053 -0.00224785)
(0.129392 0.146985 -0.00237145)
(0.100087 0.143543 -0.00250267)
(0.0708281 0.141373 -0.00263751)
(0.0409286 0.141335 -0.00274916)
(0.0178917 0.145052 -0.00291713)
(3 2.09809e-08 0.000620474)
(3 2.26682e-07 0.000588841)
(3 5.39854e-07 0.000557414)
(3 9.5912e-07 0.000526196)
(3 1.30829e-06 0.000495188)
(3 1.63616e-06 0.000464395)
(3 1.93301e-06 0.000433822)
(3 2.19672e-06 0.000403468)
(3 2.33464e-06 0.00037339)
(2.99998 2.67535e-06 0.00034368)
(2.99994 4.1592e-06 0.000314745)
(2.99986 1.51414e-05 0.000286494)
(2.99961 3.42712e-05 0.000261568)
(2.99918 0.000113862 0.000238268)
(2.99781 0.000235379 0.000236641)
(2.99601 0.00074176 0.000222357)
(2.99554 0.00171453 0.000158488)
(2.96762 0.00174644 0.000953123)
(2.93693 0.00503352 0.00104872)
(2.76364 0.00528364 0.00567878)
(2.26022 0.00251618 0.0103694)
(1.36929 0.00971288 0.0197442)
(0.570115 0.053781 0.00745758)
(0.61278 0.0792857 -0.00059877)
(0.680453 0.0822907 -0.000963679)
(0.711044 0.0853294 -0.000671431)
(0.70054 0.0885364 -0.000348371)
(0.672286 0.0936944 -0.000274405)
(0.635951 0.100302 -0.000299258)
(0.605524 0.105241 -0.000454794)
(0.580002 0.109666 -0.000601702)
(0.554824 0.114347 -0.000709481)
(0.528297 0.119409 -0.000806396)
(0.500405 0.124865 -0.000908216)
(0.471461 0.130806 -0.00101395)
(0.441786 0.137358 -0.00112052)
(0.411461 0.144596 -0.00122928)
(0.380333 0.152457 -0.00134197)
(0.348436 0.160664 -0.00145647)
(0.316146 0.168645 -0.0015698)
(0.283762 0.175531 -0.00168125)
(0.251518 0.180414 -0.00179052)
(0.219874 0.18265 -0.00189834)
(0.188776 0.182207 -0.00200626)
(0.158573 0.179612 -0.00211174)
(0.129238 0.175973 -0.00223073)
(0.0999774 0.172422 -0.00235154)
(0.0707506 0.170184 -0.00247879)
(0.0408989 0.1701 -0.00258561)
(0.0178143 0.173963 -0.00274474)
(3 2.15781e-08 0.000585223)
(3 2.11592e-07 0.000555339)
(3 5.30503e-07 0.000525654)
(3 9.45202e-07 0.000496173)
(3 1.36963e-06 0.000466896)
(3 1.72655e-06 0.000437825)
(3 2.05022e-06 0.000408967)
(3 2.3346e-06 0.000380321)
(3 2.48813e-06 0.000351935)
(2.99999 3.01368e-06 0.000323889)
(2.99995 4.88822e-06 0.000296518)
(2.99987 1.6475e-05 0.000269752)
(2.99965 3.68582e-05 0.000245841)
(2.99927 0.000117369 0.000223046)
(2.99807 0.000246682 0.000218113)
(2.99653 0.00077951 0.000202712)
(2.99618 0.0017588 0.000154405)
(2.96965 0.00175264 0.000851271)
(2.94152 0.00571378 0.000913919)
(2.77165 0.00655505 0.00527856)
(2.28619 0.00610582 0.0094798)
(1.41436 0.0170774 0.018588)
(0.598196 0.0721936 0.00724336)
(0.614082 0.0889098 -0.000308414)
(0.676645 0.0964611 -0.000861451)
(0.707607 0.101736 -0.000634891)
(0.698459 0.106201 -0.000337232)
(0.671819 0.111313 -0.000269918)
(0.635743 0.117588 -0.000282064)
(0.604603 0.123223 -0.00042053)
(0.579016 0.128686 -0.000563701)
(0.554094 0.134445 -0.00066732)
(0.527741 0.140619 -0.000758125)
(0.499889 0.147247 -0.000853289)
(0.470939 0.154408 -0.000952186)
(0.441245 0.162192 -0.00105173)
(0.410883 0.170624 -0.00115346)
(0.379736 0.179599 -0.00125916)
(0.347896 0.188781 -0.0013666)
(0.315749 0.19754 -0.00147259)
(0.283563 0.204982 -0.00157639)
(0.251538 0.21022 -0.00167778)
(0.220087 0.212663 -0.00177717)
(0.189146 0.212311 -0.00187706)
(0.159001 0.209709 -0.00197685)
(0.129631 0.206057 -0.00208328)
(0.100285 0.202441 -0.00219984)
(0.0710529 0.200133 -0.0023173)
(0.0411709 0.199944 -0.00241543)
(0.0178927 0.203866 -0.002561)
(3 2.03884e-08 0.000548536)
(3 1.94828e-07 0.000520478)
(3 5.11606e-07 0.000492613)
(3 9.06647e-07 0.000464943)
(3 1.41657e-06 0.000437471)
(3 1.78756e-06 0.000410197)
(3 2.1271e-06 0.000383127)
(3 2.42883e-06 0.00035626)
(3 2.60204e-06 0.000329638)
(2.99999 3.23489e-06 0.000303328)
(2.99995 5.71642e-06 0.000277597)
(2.99988 1.7499e-05 0.000252431)
(2.99969 4.15775e-05 0.000229538)
(2.99935 0.00012375 0.000207773)
(2.99832 0.00024008 0.000200068)
(2.99707 0.000743963 0.000181259)
(2.99694 0.00135476 0.000130748)
(2.97178 0.00040959 0.000765865)
(2.94652 0.00526916 0.000793485)
(2.78092 0.00690749 0.00483194)
(2.31503 0.0096312 0.008586)
(1.46646 0.0241052 0.0173209)
(0.630982 0.090832 0.00704102)
(0.615823 0.103287 -1.09518e-05)
(0.675135 0.111498 -0.000778474)
(0.706193 0.118252 -0.000593165)
(0.697789 0.123929 -0.000318907)
(0.672088 0.129418 -0.000257027)
(0.636433 0.135493 -0.000265236)
(0.604976 0.141797 -0.000390677)
(0.579179 0.148352 -0.000525696)
(0.554214 0.15527 -0.00062374)
(0.52782 0.162644 -0.000708575)
(0.499906 0.170536 -0.000796903)
(0.470931 0.178998 -0.000888921)
(0.441273 0.18806 -0.000982059)
(0.410991 0.197703 -0.00107708)
(0.379967 0.207782 -0.0011748)
(0.348304 0.21792 -0.00127327)
(0.316355 0.227448 -0.00137039)
(0.284366 0.235458 -0.00146591)
(0.252538 0.241088 -0.0015596)
(0.221239 0.243785 -0.00165202)
(0.190354 0.243602 -0.0017443)
(0.160184 0.241073 -0.00183541)
(0.130695 0.237412 -0.00193763)
(0.101147 0.233782 -0.00203966)
(0.0716433 0.231443 -0.00215132)
(0.0414693 0.231185 -0.00224532)
(0.0179259 0.235231 -0.00238239)
(3 1.78551e-08 0.000510349)
(3 1.8019e-07 0.000484198)
(3 4.75388e-07 0.000458233)
(3 8.52685e-07 0.000432455)
(3 1.34502e-06 0.000406865)
(3 1.72686e-06 0.000381465)
(3 2.07871e-06 0.000356259)
(3 2.39561e-06 0.000331247)
(3 2.61448e-06 0.000306463)
(2.99999 2.84801e-06 0.000281959)
(2.99996 4.27989e-06 0.000257953)
(2.9999 1.23169e-05 0.000234419)
(2.99973 2.90311e-05 0.000212725)
(2.99943 8.34691e-05 0.000192095)
(2.99855 0.000167518 0.000182757)
(2.99733 0.000447414 0.000168706)
(2.99664 0.00100468 0.000138701)
(2.97395 0.000268635 0.000647984)
(2.95262 0.00559636 0.000639925)
(2.7914 0.00749388 0.00439488)
(2.34737 0.0128344 0.00768266)
(1.5276 0.0317732 0.0159262)
(0.671992 0.11113 0.00684792)
(0.620333 0.120603 0.000298432)
(0.676683 0.127813 -0.000703232)
(0.707815 0.135238 -0.000555322)
(0.699369 0.14181 -0.000298244)
(0.673634 0.147977 -0.000239812)
(0.637906 0.154324 -0.000247314)
(0.606073 0.16135 -0.000362566)
(0.579855 0.168978 -0.000487697)
(0.554599 0.177073 -0.000579145)
(0.528046 0.185659 -0.000658195)
(0.500098 0.194797 -0.000739773)
(0.471212 0.20453 -0.000824175)
(0.441718 0.214851 -0.000909608)
(0.411636 0.225694 -0.000997165)
(0.380857 0.236864 -0.00108734)
(0.349504 0.247945 -0.0011779)
(0.31789 0.258243 -0.00126686)
(0.286211 0.266855 -0.00135413)
(0.254638 0.272946 -0.00143948)
(0.223495 0.275996 -0.00152353)
(0.192629 0.276085 -0.00160791)
(0.162316 0.273775 -0.00169116)
(0.132577 0.270278 -0.00178314)
(0.102698 0.266685 -0.00188264)
(0.0729006 0.264308 -0.00198023)
(0.0423 0.263948 -0.00206532)
(0.0182113 0.26813 -0.00218952)
(3 1.06538e-08 0.000470595)
(3 1.70363e-07 0.000446438)
(3 4.29871e-07 0.000422457)
(3 8.01392e-07 0.000398653)
(3 1.21703e-06 0.000375028)
(3 1.60937e-06 0.000351582)
(3 1.95774e-06 0.00032832)
(3 2.26042e-06 0.000305241)
(3 1.92595e-06 0.000282378)
(2.99999 1.87712e-06 0.000259774)
(2.99996 2.08751e-06 0.000237608)
(2.99991 9.57726e-06 0.00021588)
(2.99975 2.12124e-05 0.000195756)
(2.99948 6.81022e-05 0.000176523)
(2.99863 0.000133217 0.00016736)
(2.99772 0.000414777 0.00014762)
(2.99752 0.000546614 0.00011125)
(2.97647 -0.000398001 0.000560592)
(2.95821 0.00356904 0.00053419)
(2.80246 -8.69138e-05 0.00393423)
(2.38451 0.0125843 0.00674092)
(1.59995 0.0358683 0.0144433)
(0.720422 0.130256 0.006645)
(0.625085 0.138665 0.000614085)
(0.6779 0.145988 -0.00062853)
(0.708944 0.153944 -0.000517699)
(0.69992 0.16105 -0.000276039)
(0.673559 0.16771 -0.000220339)
(0.637549 0.174404 -0.00022851)
(0.605617 0.182102 -0.000335211)
(0.579322 0.190698 -0.000449976)
(0.554075 0.199895 -0.000533879)
(0.527654 0.209641 -0.000606403)
(0.499965 0.219985 -0.000681235)
(0.471454 0.23095 -0.000758682)
(0.442402 0.242506 -0.000836969)
(0.41278 0.254557 -0.000916928)
(0.382478 0.266869 -0.000998929)
(0.351625 0.278967 -0.00108107)
(0.32049 0.290115 -0.00116169)
(0.289231 0.299407 -0.00124077)
(0.257984 0.306042 -0.00131801)
(0.227025 0.309551 -0.00139371)
(0.196183 0.310052 -0.00146956)
(0.165682 0.308098 -0.0015451)
(0.135557 0.30487 -0.00162758)
(0.105111 0.301527 -0.00171417)
(0.0746034 0.299286 -0.0018097)
(0.0433087 0.298896 -0.00188904)
(0.0185477 0.303185 -0.00200304)
(3 8.41918e-09 0.000429205)
(3 1.54061e-07 0.000407131)
(3 3.88934e-07 0.000385222)
(3 7.3072e-07 0.00036348)
(3 1.09582e-06 0.000341905)
(3 1.48837e-06 0.0003205)
(3 1.85302e-06 0.000299265)
(3 2.20614e-06 0.000278204)
(3 1.51674e-06 0.000257338)
(2.99999 1.80126e-06 0.000236702)
(2.99997 5.40075e-07 0.000216432)
(2.99992 1.2896e-05 0.00019654)
(2.99979 1.20772e-05 0.00017793)
(2.99955 9.35957e-05 0.000159931)
(2.99886 5.57196e-05 0.000149415)
(2.99766 0.000387559 0.000138355)
(2.99665 -0.000220285 0.000135976)
(2.97741 -0.00238394 0.000460718)
(2.95871 0.00112112 0.000521147)
(2.80835 -0.00452916 0.00338773)
(2.42652 0.0134448 0.0056897)
(1.6754 0.0420134 0.0129882)
(0.762043 0.152323 0.00644282)
(0.617271 0.158749 0.000917883)
(0.669801 0.166213 -0.000552876)
(0.703187 0.17424 -0.000475303)
(0.695221 0.181527 -0.000251458)
(0.66937 0.188419 -0.00019967)
(0.634019 0.195453 -0.000209489)
(0.602919 0.203745 -0.000308136)
(0.577302 0.213165 -0.000411689)
(0.552636 0.223338 -0.000487467)
(0.526808 0.234176 -0.000553201)
(0.499766 0.245714 -0.000620653)
(0.471949 0.257943 -0.000690419)
(0.443602 0.270785 -0.000761254)
(0.414679 0.284093 -0.000833525)
(0.385086 0.297586 -0.000907115)
(0.354949 0.310753 -0.000980351)
(0.32447 0.322846 -0.00105213)
(0.293756 0.332959 -0.0011226)
(0.26292 0.340338 -0.00119151)
(0.232177 0.344551 -0.00125942)
(0.201316 0.345734 -0.00132765)
(0.170513 0.344431 -0.00139542)
(0.139878 0.341682 -0.00146937)
(0.108814 0.338666 -0.00154834)
(0.0775018 0.336662 -0.00162819)
(0.0450618 0.336297 -0.00169953)
(0.0191608 0.340752 -0.0018015)
(3 1.20954e-08 0.000386103)
(3 1.30531e-07 0.000366207)
(3 3.55691e-07 0.000346464)
(3 6.39555e-07 0.000326875)
(3 9.99357e-07 0.000307442)
(3 1.36777e-06 0.000288164)
(3 1.73196e-06 0.000269044)
(3 2.0908e-06 0.000250091)
(3 2.14772e-06 0.000231304)
(2.99999 2.36688e-06 0.00021275)
(2.99997 1.32604e-06 0.000194421)
(2.99992 9.1024e-06 0.000176687)
(2.99982 5.41914e-06 0.000159331)
(2.99953 6.401e-05 0.000144623)
(2.99891 2.74078e-05 0.000133025)
(2.99757 0.000253676 0.000128665)
(2.996 0.000112255 0.000124652)
(2.97882 -0.000904388 0.000378615)
(2.96238 0.00292287 0.000423713)
(2.8199 0.00263644 0.00285363)
(2.47412 0.0190109 0.00473446)
(1.76442 0.0549789 0.0113311)
(0.812942 0.181154 0.00622289)
(0.608382 0.181373 0.00120944)
(0.660034 0.187058 -0.000481765)
(0.695947 0.193433 -0.000433617)
(0.689357 0.200702 -0.000228527)
(0.664235 0.207962 -0.00017975)
(0.629775 0.215825 -0.000190375)
(0.599727 0.225072 -0.000279872)
(0.575006 0.235529 -0.000372077)
(0.551129 0.246826 -0.000439687)
(0.526105 0.258867 -0.000498889)
(0.499938 0.271673 -0.000559474)
(0.473056 0.285213 -0.000621526)
(0.445655 0.29938 -0.000684229)
(0.417666 0.313993 -0.000748178)
(0.389011 0.328732 -0.000813136)
(0.359819 0.343053 -0.000877572)
(0.330206 0.356207 -0.000940543)
(0.300221 0.367329 -0.00100219)
(0.269935 0.375721 -0.00106249)
(0.23948 0.380971 -0.00112209)
(0.208627 0.383206 -0.00118163)
(0.177389 0.382963 -0.00124137)
(0.145951 0.38111 -0.00130517)
(0.113869 0.378867 -0.00137481)
(0.0812708 0.37735 -0.00145143)
(0.0473933 0.377155 -0.00151481)
(0.0200322 0.381753 -0.00160485)
(3 9.706e-09 0.000341213)
(3 1.1474e-07 0.000323594)
(3 3.1164e-07 0.000306115)
(3 5.63172e-07 0.000288776)
(3 8.80367e-07 0.000271579)
(3 1.2186e-06 0.000254523)
(3 1.4819e-06 0.00023761)
(3 1.68714e-06 0.000220847)
(3 2.2195e-06 0.000204237)
(2.99999 2.35151e-06 0.000187829)
(2.99997 3.79074e-06 0.000171614)
(2.99993 6.88363e-06 0.000155879)
(2.99984 2.16385e-05 0.000140395)
(2.99959 5.03619e-05 0.000126981)
(2.99907 0.000124482 0.000116298)
(2.99782 0.000442577 0.000110994)
(2.99634 0.000440744 0.000104664)
(2.98089 -9.49734e-05 0.000312913)
(2.96725 0.00375202 0.000285329)
(2.83467 0.00292102 0.00233462)
(2.52704 0.024767 0.00384632)
(1.87252 0.0670536 0.00948914)
(0.879301 0.215556 0.00598788)
(0.603059 0.20924 0.00146171)
(0.651795 0.212924 -0.000409948)
(0.689368 0.216679 -0.000388388)
(0.684675 0.222788 -0.000211328)
(0.660274 0.229455 -0.000162541)
(0.626706 0.237468 -0.000172839)
(0.597537 0.247226 -0.000250734)
(0.573606 0.258402 -0.000330966)
(0.550501 0.270634 -0.000390231)
(0.526335 0.283811 -0.000442418)
(0.501154 0.297882 -0.000495786)
(0.475363 0.31274 -0.000550285)
(0.449111 0.328235 -0.000605087)
(0.422297 0.344172 -0.000660703)
(0.394834 0.360214 -0.000716937)
(0.366822 0.375806 -0.00077261)
(0.338299 0.390196 -0.000826882)
(0.30925 0.402591 -0.000879897)
(0.279663 0.412335 -0.00093194)
(0.249571 0.419027 -0.000982864)
(0.218752 0.422776 -0.00103343)
(0.187018 0.424056 -0.00108437)
(0.154631 0.423627 -0.00113844)
(0.121339 0.422624 -0.00119853)
(0.0870289 0.422128 -0.00126104)
(0.0508707 0.422461 -0.00131878)
(0.0212945 0.427359 -0.00139683)
(3 6.35423e-09 0.000294452)
(3 1.00951e-07 0.000279216)
(3 2.64219e-07 0.000264104)
(3 4.90338e-07 0.000249117)
(3 7.50287e-07 0.000234255)
(3 1.07455e-06 0.000219519)
(3 1.31485e-06 0.00020491)
(3 1.51842e-06 0.000190431)
(3 1.85184e-06 0.00017609)
(2.99999 1.84352e-06 0.000161921)
(2.99998 2.91239e-06 0.000147913)
(2.99994 5.32075e-06 0.000134282)
(2.99986 1.76025e-05 0.000120861)
(2.99964 3.80652e-05 0.000109136)
(2.99929 0.000100189 9.75598e-05)
(2.99791 0.000318188 9.76603e-05)
(2.99611 0.000348171 9.65981e-05)
(2.98266 -0.000181521 0.00023982)
(2.97033 0.00457138 0.000248952)
(2.84861 0.00454682 0.00182802)
(2.58697 0.0302626 0.00288521)
(1.99284 0.0802566 0.00772911)
(0.946149 0.247088 0.0057312)
(0.588296 0.23037 0.00167334)
(0.637218 0.230772 -0.000341416)
(0.677768 0.232916 -0.000337719)
(0.676086 0.240247 -0.000189489)
(0.653364 0.248223 -0.000143347)
(0.621634 0.257986 -0.000153554)
(0.594152 0.269011 -0.000219803)
(0.571734 0.281159 -0.000288069)
(0.550109 0.294392 -0.000339283)
(0.527441 0.308705 -0.000384285)
(0.503772 0.32402 -0.000429642)
(0.479489 0.340188 -0.000475858)
(0.454726 0.357037 -0.000522706)
(0.429396 0.374361 -0.000570253)
(0.403422 0.391802 -0.000617958)
(0.376858 0.40882 -0.000664889)
(0.34967 0.424691 -0.000710522)
(0.321776 0.43871 -0.000755086)
(0.29305 0.450264 -0.000798887)
(0.263424 0.458942 -0.000841173)
(0.232643 0.464845 -0.000882431)
(0.200355 0.468367 -0.000924699)
(0.16675 0.470157 -0.000969522)
(0.131764 0.471128 -0.00101839)
(0.0951436 0.472242 -0.00107443)
(0.0560121 0.473636 -0.00112147)
(0.0232591 0.479155 -0.00118906)
(3 2.66953e-09 0.000245734)
(3 8.61087e-08 0.000232991)
(3 2.18376e-07 0.000220355)
(3 4.11949e-07 0.000207826)
(3 6.41553e-07 0.000195404)
(3 9.52167e-07 0.000183091)
(3 1.05212e-06 0.000170887)
(3 1.1752e-06 0.000158795)
(3 5.90041e-07 0.000146821)
(2.99999 -7.55964e-07 0.000134988)
(2.99998 -3.75969e-06 0.000123289)
(2.99994 -9.06661e-06 0.000111883)
(2.99988 -2.12009e-05 0.000100652)
(2.99968 -5.27538e-05 9.06916e-05)
(2.99936 -0.000117714 8.08475e-05)
(2.99815 -0.000320866 8.01537e-05)
(2.99646 -0.00061833 7.29328e-05)
(2.9856 -0.00140841 0.000173913)
(2.97656 0.0118905 0.000149506)
(2.86678 -0.0122134 0.00137168)
(2.6514 0.0881043 0.00207233)
(2.12236 0.0880959 0.00593175)
(1.00949 0.344652 0.00541983)
(0.561993 0.301401 0.00176144)
(0.616407 0.278963 -0.000292695)
(0.66555 0.260039 -0.000306576)
(0.66997 0.26076 -0.00018051)
(0.649382 0.266152 -0.000127822)
(0.619282 0.27709 -0.00013382)
(0.592657 0.28914 -0.000184608)
(0.571556 0.302194 -0.000242092)
(0.551677 0.3166 -0.000285904)
(0.530914 0.332326 -0.000323817)
(0.509165 0.349133 -0.000361281)
(0.486769 0.366791 -0.000399236)
(0.463842 0.385149 -0.000437647)
(0.44029 0.404013 -0.000476484)
(0.416057 0.423033 -0.000515283)
(0.391167 0.441706 -0.000553373)
(0.36553 0.459377 -0.000590404)
(0.339005 0.475463 -0.000626592)
(0.311323 0.489439 -0.000662025)
(0.282334 0.500818 -0.000696149)
(0.251714 0.509721 -0.000729089)
(0.218917 0.516515 -0.000761907)
(0.183996 0.521711 -0.000797526)
(0.146894 0.525919 -0.000836518)
(0.107249 0.530072 -0.000880443)
(0.0638553 0.533559 -0.000921556)
(0.0263892 0.54018 -0.000974221)
(3 3.35792e-09 0.000194968)
(3 6.63111e-08 0.000184835)
(3 1.74692e-07 0.000174789)
(3 3.272e-07 0.00016483)
(3 5.11736e-07 0.00015496)
(3 7.4025e-07 0.000145179)
(3 8.65725e-07 0.000135486)
(3 8.86893e-07 0.000125886)
(3 4.32786e-07 0.000116383)
(2.99999 -1.9124e-07 0.000107)
(2.99997 -5.49558e-07 9.77295e-05)
(2.99992 -9.82713e-07 8.87365e-05)
(2.99983 1.89633e-06 7.99495e-05)
(2.99957 -1.07536e-06 7.24112e-05)
(2.9991 1.80954e-05 6.54083e-05)
(2.99755 -3.85863e-05 6.62979e-05)
(2.99556 0.000226054 6.23957e-05)
(2.99511 0.000583609 4.61698e-05)
(2.96408 0.0102813 0.000316832)
(2.92392 -0.00683573 0.00039747)
(2.74457 0.0812403 0.00175495)
(2.21384 0.0665596 0.00339337)
(1.31908 0.296982 0.00498154)
(0.704537 0.32156 0.00193906)
(0.702309 0.311077 -0.000169159)
(0.72735 0.292266 -0.000259074)
(0.725436 0.288868 -0.000188806)
(0.695513 0.290815 -0.00012047)
(0.656714 0.300471 -0.000117233)
(0.620479 0.312239 -0.000145816)
(0.592796 0.32506 -0.000192703)
(0.569229 0.339655 -0.000229551)
(0.546604 0.356056 -0.000259891)
(0.524159 0.373916 -0.000289373)
(0.501938 0.392905 -0.000319333)
(0.479828 0.412748 -0.000349679)
(0.457505 0.43318 -0.000379918)
(0.434757 0.453878 -0.000409767)
(0.411451 0.474416 -0.000438982)
(0.387422 0.49419 -0.000467562)
(0.362478 0.512736 -0.000495556)
(0.336066 0.52974 -0.000522361)
(0.307938 0.54472 -0.000547323)
(0.27782 0.557756 -0.00057244)
(0.244841 0.569145 -0.000597747)
(0.20868 0.579309 -0.000623161)
(0.16929 0.588664 -0.000651145)
(0.125796 0.597902 -0.000684376)
(0.0763124 0.605867 -0.000714588)
(0.0314801 0.615357 -0.000758551)
(3 1.00717e-08 0.000142059)
(3 4.21233e-08 0.000134658)
(3 1.41549e-07 0.000127322)
(3 2.35218e-07 0.000120053)
(3 3.90857e-07 0.00011285)
(3 4.67466e-07 0.000105713)
(3 7.81527e-07 9.86432e-05)
(3 8.09478e-07 9.16421e-05)
(3 1.31272e-06 8.47112e-05)
(2.99999 2.08925e-06 7.78618e-05)
(2.99998 7.81603e-06 7.10906e-05)
(2.99995 1.50366e-05 6.44729e-05)
(2.99989 5.20198e-05 5.79719e-05)
(2.99972 9.26597e-05 5.20797e-05)
(2.99941 0.000302397 4.64889e-05)
(2.9985 0.000492697 4.39451e-05)
(2.99718 0.0015286 4.04136e-05)
(2.99636 0.00232272 3.43941e-05)
(2.9729 0.00142879 0.000178914)
(2.9508 0.0141382 0.000176789)
(2.78863 0.0280327 0.00121879)
(2.33733 0.0688703 0.00211362)
(1.52579 0.195853 0.00407146)
(0.758829 0.343148 0.00171271)
(0.719222 0.346559 3.22628e-05)
(0.752112 0.337297 -0.000184707)
(0.761417 0.332064 -0.000151452)
(0.738252 0.331882 -9.88394e-05)
(0.701833 0.337148 -9.32378e-05)
(0.66195 0.346097 -0.000105396)
(0.62906 0.35652 -0.000137546)
(0.601411 0.369136 -0.00016619)
(0.575799 0.384279 -0.000189317)
(0.551342 0.401665 -0.000211355)
(0.527973 0.420833 -0.000233702)
(0.505456 0.441351 -0.000255972)
(0.483413 0.462852 -0.000277935)
(0.461551 0.484898 -0.000299331)
(0.439483 0.50707 -0.000320102)
(0.416892 0.529151 -0.000340266)
(0.393687 0.550642 -0.000360221)
(0.369067 0.571179 -0.000379136)
(0.342386 0.590526 -0.000396362)
(0.313304 0.608883 -0.000413111)
(0.280853 0.62658 -0.000430064)
(0.244249 0.644053 -0.000447862)
(0.202982 0.661664 -0.000466372)
(0.155556 0.67996 -0.000487256)
(0.0983112 0.6971 -0.000508429)
(0.0416184 0.71423 -0.000536089)
(3 7.8946e-09 8.6904e-05)
(3 3.22939e-08 8.23652e-05)
(3 1.00373e-07 7.78681e-05)
(3 1.6759e-07 7.34125e-05)
(3 2.7957e-07 6.89987e-05)
(3 3.46821e-07 6.46267e-05)
(3 5.2262e-07 6.02969e-05)
(3 6.10539e-07 5.60098e-05)
(3 1.18091e-06 5.17673e-05)
(2.99999 2.32589e-06 4.7569e-05)
(2.99998 7.18198e-06 4.34292e-05)
(2.99997 1.50803e-05 3.93385e-05)
(2.99991 4.34743e-05 3.53966e-05)