/*--------------------------------*- C++ -*----------------------------------*\
| =========                 |                                                 |
| \\      /  F ield         | OpenFOAM: The Open Source CFD Toolbox           |
|  \\    /   O peration     | Version:  2112                                  |
|   \\  /    A nd           | Website:  www.openfoam.com                      |
|    \\/     M anipulation  |                                                 |
\*---------------------------------------------------------------------------*/
FoamFile
{
    version     2.0;
    format      ascii;
    arch        "LSB;label=32;scalar=64";
    class       volScalarField;
    location    "15";
    object      T;
}
// * * * * * * * * * * * * * * * * * * * * * * * * * * * * * * * * * * * * * //

dimensions      [0 0 0 1 0 0 0];

internalField   nonuniform List<scalar> 
10000
(
9.98353e-24
8.50394e-24
7.06612e-24
6.05358e-24
5.44441e-24
5.23602e-24
5.42091e-24
5.98335e-24
6.94613e-24
8.01441e-24
7.79477e-23
6.55694e-23
5.41613e-23
4.61393e-23
4.13555e-23
3.97112e-23
4.1121e-23
4.55294e-23
5.30806e-23
6.1962e-23
4.38308e-22
3.64358e-22
2.97797e-22
2.51402e-22
2.24185e-22
2.14745e-22
2.22369e-22
2.47441e-22
2.90803e-22
3.43058e-22
2.37244e-21
1.96173e-21
1.58844e-21
1.3296e-21
1.17956e-21
1.12678e-21
1.16658e-21
1.30332e-21
1.54156e-21
1.82593e-21
1.25885e-20
1.03933e-20
8.36079e-21
6.95259e-21
6.14085e-21
5.84942e-21
6.05015e-21
6.7713e-21
8.03423e-21
9.51827e-21
6.58224e-20
5.4345e-20
4.35493e-20
3.60551e-20
3.17374e-20
3.01466e-20
3.11151e-20
3.48028e-20
4.12983e-20
4.88381e-20
3.39898e-19
2.80849e-19
2.24708e-19
1.85609e-19
1.63008e-19
1.54403e-19
1.5883e-19
1.77128e-19
2.09667e-19
2.47201e-19
1.73514e-18
1.43561e-18
1.1489e-18
9.48519e-19
8.32001e-19
7.85854e-19
8.04709e-19
8.92816e-19
1.05193e-18
1.23549e-18
8.76252e-18
7.26272e-18
5.82137e-18
4.81092e-18
4.21865e-18
3.9733e-18
4.04578e-18
4.45726e-18
5.21773e-18
6.10023e-18
4.37943e-17
3.63767e-17
2.92342e-17
2.42136e-17
2.12429e-17
1.99497e-17
2.01805e-17
2.20409e-17
2.55935e-17
2.97649e-17
2.16664e-16
1.80418e-16
1.45505e-16
1.20904e-16
1.06191e-16
9.94349e-17
9.98461e-17
1.07953e-16
1.24156e-16
1.43528e-16
1.06109e-15
8.86083e-16
7.17697e-16
5.98759e-16
5.26799e-16
4.91821e-16
4.89876e-16
5.23627e-16
5.95593e-16
6.83883e-16
5.14356e-15
4.30881e-15
3.50727e-15
2.94003e-15
2.59241e-15
2.41317e-15
2.38274e-15
2.51473e-15
2.82464e-15
3.21884e-15
2.46737e-14
2.07408e-14
1.69758e-14
1.43089e-14
1.26502e-14
1.17422e-14
1.14867e-14
1.19541e-14
1.32401e-14
1.49579e-14
1.17091e-13
9.8799e-14
8.13605e-14
6.90071e-14
6.11936e-14
5.66464e-14
5.48712e-14
5.62333e-14
6.13153e-14
6.85933e-14
5.49448e-13
4.65527e-13
3.85996e-13
3.29682e-13
2.93365e-13
2.70856e-13
2.59667e-13
2.61705e-13
2.80419e-13
3.10222e-13
2.54791e-12
2.1686e-12
1.8122e-12
1.55987e-12
1.39349e-12
1.28326e-12
1.217e-12
1.20471e-12
1.26586e-12
1.38273e-12
1.16668e-11
9.98234e-12
8.41549e-12
7.30635e-12
6.55669e-12
6.02238e-12
5.6473e-12
5.48402e-12
5.63748e-12
6.06877e-12
5.27044e-11
4.53712e-11
3.8626e-11
3.3862e-11
3.0548e-11
2.79913e-11
2.59441e-11
2.46801e-11
2.47579e-11
2.6202e-11
2.3466e-10
2.03403e-10
1.75082e-10
1.5518e-10
1.4085e-10
1.28819e-10
1.17996e-10
1.09793e-10
1.07164e-10
1.11194e-10
1.02823e-09
8.98161e-10
7.82897e-10
7.02573e-10
6.42228e-10
5.8672e-10
5.31175e-10
4.82799e-10
4.57027e-10
4.63352e-10
4.42494e-09
3.90021e-09
3.4493e-09
3.13915e-09
2.89384e-09
2.64338e-09
2.36643e-09
2.09921e-09
1.92023e-09
1.89416e-09
1.86581e-08
1.66236e-08
1.49489e-08
1.38237e-08
1.2874e-08
1.17752e-08
1.04354e-08
9.0318e-09
7.95224e-09
7.59229e-09
7.68627e-08
6.93595e-08
6.35811e-08
5.98828e-08
5.6462e-08
5.18258e-08
4.55595e-08
3.84965e-08
3.25052e-08
2.9834e-08
3.0816e-07
2.82319e-07
2.64574e-07
2.54476e-07
2.43579e-07
2.25072e-07
1.96931e-07
1.62836e-07
1.31491e-07
1.15019e-07
1.19668e-06
1.11621e-06
1.07275e-06
1.05679e-06
1.03025e-06
9.6239e-07
8.42487e-07
6.85205e-07
5.29019e-07
4.36299e-07
4.47579e-06
4.26381e-06
4.21583e-06
4.26634e-06
4.25207e-06
4.03726e-06
3.56268e-06
2.87631e-06
2.13439e-06
1.63912e-06
1.60192e-05
1.56362e-05
1.5952e-05
1.66279e-05
1.70088e-05
1.65216e-05
1.48464e-05
1.20751e-05
8.76225e-06
6.20833e-06
5.44764e-05
5.4645e-05
5.76469e-05
6.20112e-05
6.53303e-05
6.53678e-05
6.05505e-05
5.0619e-05
3.71868e-05
2.45536e-05
0.000174735
0.00018053
0.00019709
0.000218908
0.000238076
0.0002469
0.000239021
0.000210866
0.000168515
0.000115191
8.51885e-24
7.31993e-24
6.1356e-24
5.29316e-24
4.78242e-24
4.60939e-24
4.76485e-24
5.23509e-24
6.0288e-24
6.89089e-24
6.56796e-23
5.59231e-23
4.66776e-23
4.00609e-23
3.6083e-23
3.47281e-23
3.59069e-23
3.95665e-23
4.56909e-23
5.26367e-23
3.64906e-22
3.08142e-22
2.5509e-22
2.17096e-22
1.94594e-22
1.86811e-22
1.93208e-22
2.13857e-22
2.48406e-22
2.88165e-22
1.9636e-21
1.65297e-21
1.3585e-21
1.1477e-21
1.02393e-21
9.80328e-22
1.0136e-21
1.12512e-21
1.31227e-21
1.52622e-21
1.03987e-20
8.74779e-21
7.15619e-21
6.01481e-21
5.34591e-21
5.10489e-21
5.27066e-21
5.85338e-21
6.83566e-21
7.94647e-21
5.43619e-20
4.57499e-20
3.73425e-20
3.1291e-20
2.7736e-20
2.64159e-20
2.72033e-20
3.01565e-20
3.51725e-20
4.08044e-20
2.80936e-19
2.36648e-19
1.93067e-19
1.6159e-19
1.43003e-19
1.35837e-19
1.39359e-19
1.5388e-19
1.78871e-19
2.06926e-19
1.43616e-18
1.21138e-18
9.89151e-19
8.28234e-19
7.32522e-19
6.93976e-19
7.0853e-19
7.77812e-19
8.99473e-19
1.03688e-18
7.26549e-18
6.1389e-18
5.02283e-18
4.21295e-18
3.72698e-18
3.52155e-18
3.57472e-18
3.89523e-18
4.47421e-18
5.13578e-18
3.63872e-17
3.08089e-17
2.52823e-17
2.12644e-17
1.8829e-17
1.77442e-17
1.78947e-17
1.93281e-17
2.20204e-17
2.51505e-17
1.8044e-16
1.53148e-16
1.26147e-16
1.06481e-16
9.44289e-17
8.87545e-17
8.88646e-17
9.5025e-17
1.07237e-16
1.21779e-16
8.85984e-16
7.54052e-16
6.2384e-16
5.2887e-16
4.69948e-16
4.40562e-16
4.37692e-16
4.62826e-16
5.16688e-16
5.82933e-16
4.3071e-15
3.67702e-15
3.05715e-15
2.60492e-15
2.32022e-15
2.16972e-15
2.13779e-15
2.23276e-15
2.46263e-15
2.7578e-15
2.07264e-14
1.77548e-14
1.48443e-14
1.2721e-14
1.13626e-14
1.05996e-14
1.03524e-14
1.06677e-14
1.16081e-14
1.28908e-14
9.87001e-14
8.48662e-14
7.13972e-14
6.15775e-14
5.51807e-14
5.1354e-14
4.96956e-14
5.04673e-14
5.40966e-14
5.95072e-14
4.64908e-13
4.01409e-13
3.40069e-13
2.95387e-13
2.65688e-13
2.46694e-13
2.36431e-13
2.36363e-13
2.49152e-13
2.71142e-13
2.16483e-12
1.87785e-12
1.60349e-12
1.40378e-12
1.26809e-12
1.17472e-12
1.11458e-12
1.09573e-12
1.13362e-12
1.21864e-12
9.95894e-12
8.68349e-12
7.48064e-12
6.60693e-12
5.99763e-12
5.54467e-12
5.20653e-12
5.02653e-12
5.09339e-12
5.39887e-12
4.52249e-11
3.96702e-11
3.45144e-11
3.07848e-11
2.81012e-11
2.59372e-11
2.40995e-11
2.28183e-11
2.2592e-11
2.35613e-11
2.02523e-10
1.78884e-10
1.57375e-10
1.41927e-10
1.30375e-10
1.20208e-10
1.10512e-10
1.02503e-10
9.88903e-11
1.01205e-10
8.93216e-10
7.95184e-10
7.08569e-10
6.46966e-10
5.98768e-10
5.51829e-10
5.0207e-10
4.55774e-10
4.27111e-10
4.27564e-10
3.87394e-09
3.48046e-09
3.14695e-09
2.91376e-09
2.72069e-09
2.50892e-09
2.26057e-09
2.00712e-09
1.82083e-09
1.77559e-09
1.64876e-08
1.49725e-08
1.3764e-08
1.29491e-08
1.22185e-08
1.12932e-08
1.00897e-08
8.76047e-09
7.66737e-09
7.24442e-09
6.8663e-08
6.31465e-08
5.91609e-08
5.66803e-08
5.41627e-08
5.02892e-08
4.46501e-08
3.79483e-08
3.19368e-08
2.90367e-08
2.7883e-07
2.60293e-07
2.49201e-07
2.43753e-07
2.36525e-07
2.21308e-07
1.95961e-07
1.63471e-07
1.31971e-07
1.14423e-07
1.09933e-06
1.04455e-06
1.02484e-06
1.02627e-06
1.01452e-06
9.60665e-07
8.52871e-07
7.0214e-07
5.43794e-07
4.44438e-07
4.186e-06
4.06053e-06
4.0944e-06
4.20937e-06
4.25495e-06
4.09971e-06
3.67698e-06
3.01585e-06
2.25275e-06
1.71126e-06
1.52991e-05
1.51973e-05
1.57887e-05
1.6706e-05
1.73342e-05
1.71044e-05
1.56542e-05
1.29836e-05
9.51711e-06
6.64238e-06
5.32948e-05
5.43632e-05
5.8292e-05
6.3584e-05
6.7951e-05
6.91319e-05
6.53368e-05
5.59384e-05
4.1563e-05
2.68473e-05
0.000175626
0.000184319
0.000204055
0.000229494
0.000253105
0.000267047
0.000264099
0.000239464
0.000195066
0.000128242
7.10001e-24
6.15706e-24
5.21846e-24
4.54854e-24
4.14022e-24
4.0022e-24
4.12831e-24
4.50551e-24
5.1419e-24
5.82814e-24
5.44194e-23
4.68408e-23
3.95877e-23
3.43577e-23
3.11913e-23
3.01123e-23
3.10649e-23
3.39793e-23
3.88316e-23
4.42933e-23
2.99194e-22
2.5599e-22
2.15038e-22
1.85325e-22
1.67568e-22
1.61414e-22
1.6651e-22
1.82752e-22
2.09591e-22
2.4021e-22
1.59554e-21
1.36332e-21
1.1401e-21
9.77253e-22
8.80386e-22
8.46099e-22
8.72089e-22
9.58426e-22
1.10085e-21
1.26204e-21
8.39659e-21
7.18183e-21
5.99354e-21
5.12153e-21
4.6017e-21
4.41229e-21
4.53889e-21
4.98246e-21
5.71673e-21
6.53865e-21
4.37328e-20
3.74782e-20
3.12717e-20
2.66907e-20
2.39444e-20
2.29058e-20
2.34893e-20
2.56999e-20
2.93938e-20
3.35056e-20
2.25659e-19
1.93776e-19
1.6187e-19
1.38219e-19
1.23932e-19
1.18283e-19
1.20787e-19
1.3148e-19
1.49661e-19
1.69963e-19
1.15376e-18
9.9279e-19
8.31086e-19
7.1088e-19
6.37596e-19
6.0715e-19
6.1686e-19
6.67054e-19
7.54673e-19
8.53563e-19
5.8454e-18
5.04106e-18
4.23236e-18
3.63e-18
3.25897e-18
3.09639e-18
3.12783e-18
3.35605e-18
3.76934e-18
4.24384e-18
2.9348e-17
2.53711e-17
2.13775e-17
1.8399e-17
1.65434e-17
1.56836e-17
1.57431e-17
1.67431e-17
1.86486e-17
2.08886e-17
1.46014e-16
1.26564e-16
1.07086e-16
9.25482e-17
8.33779e-17
7.8875e-17
7.86398e-17
8.28214e-17
9.13845e-17
1.01775e-16
7.19803e-16
6.25742e-16
5.31923e-16
4.61896e-16
4.17117e-16
3.9377e-16
3.89786e-16
4.06157e-16
4.43494e-16
4.90761e-16
3.51526e-15
3.06566e-15
2.61964e-15
2.28692e-15
2.07093e-15
1.9511e-15
1.91683e-15
1.97441e-15
2.13113e-15
2.34142e-15
1.70028e-14
1.488e-14
1.27889e-14
1.12309e-14
1.02025e-14
9.59376e-15
9.35102e-15
9.51298e-15
1.01377e-14
1.10491e-14
8.14279e-14
7.15334e-14
6.18757e-14
5.46955e-14
4.98667e-14
4.68068e-14
4.52484e-14
4.54218e-14
4.77267e-14
5.15511e-14
3.85965e-13
3.40484e-13
2.96616e-13
2.64104e-13
2.41775e-13
2.26565e-13
2.17161e-13
2.14896e-13
2.22303e-13
2.37691e-13
1.80984e-12
1.60396e-12
1.40839e-12
1.26412e-12
1.16263e-12
1.08793e-12
1.03366e-12
1.00733e-12
1.02416e-12
1.08251e-12
8.39046e-12
7.47477e-12
6.62155e-12
5.99634e-12
5.54393e-12
5.18199e-12
4.8797e-12
4.67824e-12
4.6658e-12
4.86708e-12
3.84317e-11
3.44407e-11
3.08123e-11
2.81802e-11
2.62095e-11
2.44817e-11
2.28473e-11
2.15271e-11
2.10148e-11
2.15909e-11
1.73779e-10
1.5678e-10
1.41833e-10
1.31156e-10
1.22819e-10
1.1471e-10
1.06108e-10
9.81666e-11
9.35655e-11
9.44444e-11
7.7491e-10
7.04469e-10
6.45378e-10
6.04227e-10
5.70305e-10
5.33027e-10
4.88905e-10
4.438e-10
4.11842e-10
4.07124e-10
3.40283e-09
3.12085e-09
2.90009e-09
2.75324e-09
2.62274e-09
2.45594e-09
2.23558e-09
1.99031e-09
1.79276e-09
1.72853e-09
1.4687e-08
1.36087e-08
1.28521e-08
1.23946e-08
1.19361e-08
1.12168e-08
1.01479e-08
8.86285e-09
7.72388e-09
7.22471e-09
6.21516e-08
5.82867e-08
5.60656e-08
5.50398e-08
5.36932e-08
5.07524e-08
4.57434e-08
3.9243e-08
3.29889e-08
2.97235e-08
2.57059e-07
2.44528e-07
2.40145e-07
2.4053e-07
2.38297e-07
2.27267e-07
2.04808e-07
1.73114e-07
1.40081e-07
1.20437e-07
1.03499e-06
1.00119e-06
1.0064e-06
1.03096e-06
1.04039e-06
1.00522e-06
9.10565e-07
7.62638e-07
5.94292e-07
4.81679e-07
4.03652e-06
3.98188e-06
4.10686e-06
4.31298e-06
4.44811e-06
4.37613e-06
4.0138e-06
3.36288e-06
2.53858e-06
1.91169e-06
1.51583e-05
1.5292e-05
1.62145e-05
1.74907e-05
1.84966e-05
1.86379e-05
1.74734e-05
1.48587e-05
1.10616e-05
7.65703e-06
5.44319e-05
5.62956e-05
6.14279e-05
6.81263e-05
7.40711e-05
7.68971e-05
7.45e-05
6.55611e-05
4.97507e-05
3.19576e-05
0.000185454
0.000196939
0.000221022
0.000251854
0.000281856
0.00030291
0.000306822
0.00028606
0.00023917
0.000157886
6.1403e-24
5.36142e-24
4.58939e-24
4.04154e-24
3.70753e-24
3.59527e-24
3.70082e-24
4.01362e-24
4.54618e-24
5.12493e-24
4.6814e-23
4.05896e-23
3.46757e-23
3.04267e-23
2.78521e-23
2.69781e-23
2.77692e-23
3.01694e-23
3.41929e-23
3.8777e-23
2.55231e-22
2.20107e-22
1.87146e-22
1.63267e-22
1.48969e-22
1.44023e-22
1.48189e-22
1.6141e-22
1.83362e-22
2.08803e-22
1.35057e-21
1.1644e-21
9.87384e-22
8.58122e-22
7.80893e-22
7.53484e-22
7.74335e-22
8.43553e-22
9.58193e-22
1.09012e-21
7.06604e-21
6.10586e-21
5.17706e-21
4.49317e-21
4.08242e-21
3.9314e-21
4.03049e-21
4.38008e-21
4.96142e-21
5.62405e-21
3.66628e-20
3.17815e-20
2.69918e-20
2.34378e-20
2.12849e-20
2.04575e-20
2.08991e-20
2.26107e-20
2.549e-20
2.87613e-20
1.8883e-19
1.64204e-19
1.39836e-19
1.21652e-19
1.10524e-19
1.06023e-19
1.07828e-19
1.15961e-19
1.29939e-19
1.45923e-19
9.65384e-19
8.41991e-19
7.19459e-19
6.27695e-19
5.70902e-19
5.4661e-19
5.53069e-19
5.90553e-19
6.57137e-19
7.34421e-19
4.89793e-18
4.28436e-18
3.67499e-18
3.21767e-18
2.9312e-18
2.8013e-18
2.81852e-18
2.98559e-18
3.29651e-18
3.66564e-18
2.46549e-17
2.16297e-17
1.8632e-17
1.63802e-17
1.49517e-17
1.42635e-17
1.42657e-17
1.49803e-17
1.64004e-17
1.8139e-17
1.23099e-16
1.0832e-16
9.37385e-17
8.27858e-17
7.57434e-17
7.21335e-17
7.16929e-17
7.4583e-17
8.09017e-17
8.89609e-17
6.09468e-16
5.37985e-16
4.67884e-16
4.15295e-16
3.80988e-16
3.62242e-16
3.57681e-16
3.6839e-16
3.95603e-16
4.32276e-16
2.99129e-15
2.64924e-15
2.31652e-15
2.0675e-15
1.90249e-15
1.80613e-15
1.77131e-15
1.80493e-15
1.91713e-15
2.08041e-15
1.45495e-14
1.29316e-14
1.13743e-14
1.02132e-14
9.43024e-15
8.9402e-15
8.70632e-15
8.77082e-15
9.20505e-15
9.91296e-15
7.01096e-14
6.25522e-14
5.53758e-14
5.00533e-14
4.63945e-14
4.39295e-14
4.24706e-14
4.2267e-14
4.37799e-14
4.67468e-14
3.34566e-13
2.99749e-13
2.67252e-13
2.43331e-13
2.26521e-13
2.14265e-13
2.05609e-13
2.0198e-13
2.062e-13
2.18078e-13
1.58043e-12
1.42248e-12
1.27827e-12
1.17322e-12
1.09749e-12
1.03733e-12
9.87869e-13
9.57076e-13
9.61534e-13
1.00596e-12
7.38654e-12
6.68239e-12
6.05743e-12
5.60904e-12
5.27582e-12
4.98463e-12
4.71065e-12
4.49704e-12
4.43827e-12
4.58616e-12
3.41364e-11
3.10592e-11
2.8429e-11
2.6584e-11
2.51601e-11
2.37733e-11
2.22959e-11
2.09555e-11
2.02754e-11
2.06529e-11
1.55877e-10
1.42739e-10
1.32079e-10
1.24861e-10
1.1901e-10
1.12531e-10
1.04761e-10
9.68641e-11
9.16638e-11
9.18171e-11
7.02621e-10
6.48095e-10
6.07066e-10
5.80904e-10
5.58191e-10
5.28637e-10
4.88763e-10
4.4432e-10
4.10143e-10
4.02722e-10
3.12233e-09
2.90413e-09
2.75796e-09
2.67521e-09
2.5948e-09
2.46425e-09
2.26488e-09
2.02381e-09
1.81689e-09
1.74161e-09
1.36555e-08
1.28246e-08
1.23696e-08
1.21825e-08
1.1946e-08
1.13952e-08
1.04272e-08
9.16177e-09
7.97448e-09
7.42164e-09
5.86414e-08
5.57023e-08
5.46744e-08
5.47735e-08
5.44032e-08
5.22393e-08
4.77059e-08
4.1275e-08
3.47294e-08
3.11527e-08
2.46543e-07
2.37339e-07
2.37577e-07
2.4259e-07
2.44615e-07
2.3714e-07
2.16899e-07
1.85364e-07
1.50475e-07
1.28839e-07
1.01089e-06
9.88588e-07
1.01141e-06
1.05481e-06
1.08264e-06
1.06364e-06
9.79352e-07
8.31441e-07
6.51575e-07
5.25969e-07
4.02283e-06
4.00708e-06
4.19847e-06
4.48052e-06
4.69437e-06
4.6954e-06
4.38242e-06
3.73063e-06
2.83998e-06
2.13038e-06
1.54458e-05
1.57123e-05
1.68842e-05
1.84631e-05
1.98006e-05
2.0268e-05
1.93446e-05
1.67459e-05
1.26089e-05
8.70313e-06
5.68199e-05
5.91589e-05
6.52249e-05
7.31078e-05
8.0413e-05
8.46639e-05
8.34535e-05
7.48193e-05
5.76174e-05
3.70251e-05
0.000198651
0.000211943
0.000239454
0.000274755
0.000310104
0.000337138
0.000346783
0.00032924
0.00028008
0.000186075
5.63873e-24
4.94278e-24
4.2559e-24
3.77134e-24
3.47694e-24
3.37873e-24
3.47376e-24
3.75419e-24
4.23459e-24
4.7594e-24
4.2884e-23
3.73346e-23
3.20954e-23
2.83534e-23
2.60924e-23
2.53296e-23
2.60385e-23
2.81799e-23
3.17946e-23
3.59457e-23
2.32986e-22
2.01715e-22
1.72726e-22
1.51832e-22
1.39347e-22
1.35045e-22
1.38743e-22
1.50451e-22
1.70028e-22
1.93055e-22
1.22838e-21
1.06374e-21
9.09157e-22
7.96807e-22
7.29753e-22
7.05985e-22
7.24294e-22
7.85117e-22
8.86623e-22
1.00524e-21
6.40849e-21
5.56533e-21
4.76035e-21
4.17024e-21
3.81564e-21
3.68493e-21
3.77067e-21
4.07486e-21
4.58541e-21
5.17715e-21
3.31902e-20
2.89311e-20
2.48109e-20
2.17658e-20
1.99173e-20
1.92018e-20
1.95759e-20
2.10488e-20
2.35556e-20
2.64593e-20
1.70812e-19
1.49442e-19
1.28619e-19
1.13136e-19
1.03627e-19
9.97335e-20
1.01214e-19
1.08131e-19
1.202e-19
1.34314e-19
8.73468e-19
7.6684e-19
6.62689e-19
5.84956e-19
5.36607e-19
5.15586e-19
5.20568e-19
5.5206e-19
6.09128e-19
6.77107e-19
4.43649e-18
3.90779e-18
3.39189e-18
3.00607e-18
2.76294e-18
2.65042e-18
2.66141e-18
2.79984e-18
3.06461e-18
3.38853e-18
2.23728e-17
1.97704e-17
1.72399e-17
1.53463e-17
1.41368e-17
1.35402e-17
1.35185e-17
1.41005e-17
1.53026e-17
1.68268e-17
1.11974e-16
9.92708e-17
8.69858e-17
7.78005e-17
7.18505e-17
6.8718e-17
6.82011e-17
7.04955e-17
7.58112e-17
8.28783e-17
5.55992e-16
4.94554e-16
4.35576e-16
3.91587e-16
3.62665e-16
3.46382e-16
3.41672e-16
3.49797e-16
3.72513e-16
4.04709e-16
2.73798e-15
2.44372e-15
2.1641e-15
1.95641e-15
1.81765e-15
1.7339e-15
1.69952e-15
1.72234e-15
1.81492e-15
1.95852e-15
1.33674e-14
1.19732e-14
1.06659e-14
9.70091e-15
9.04476e-15
8.61856e-15
8.39278e-15
8.41416e-15
8.76523e-15
9.38892e-15
6.46786e-14
5.81514e-14
5.21361e-14
4.77339e-14
4.46812e-14
4.25368e-14
4.1146e-14
4.07797e-14
4.19511e-14
4.45684e-14
3.10022e-13
2.7988e-13
2.52705e-13
2.33048e-13
2.19107e-13
2.08447e-13
2.00255e-13
1.9606e-13
1.98925e-13
2.09399e-13
1.47147e-12
1.33445e-12
1.21429e-12
1.12876e-12
1.06648e-12
1.01419e-12
9.67575e-13
9.35053e-13
9.34327e-13
9.73317e-13
6.91247e-12
6.30067e-12
5.78273e-12
5.4226e-12
5.15195e-12
4.89918e-12
4.64147e-12
4.42383e-12
4.34596e-12
4.47354e-12
3.21229e-11
2.94447e-11
2.72828e-11
2.58324e-11
2.46973e-11
2.34964e-11
2.21075e-11
2.07649e-11
2.0016e-11
2.03201e-11
1.47571e-10
1.36112e-10
1.27466e-10
1.21991e-10
1.17463e-10
1.11877e-10
1.04569e-10
9.67221e-11
9.12726e-11
9.11612e-11
6.69568e-10
6.21917e-10
5.89375e-10
5.70828e-10
5.54125e-10
5.28823e-10
4.91293e-10
4.47256e-10
4.12092e-10
4.03655e-10
2.99682e-09
2.80584e-09
2.69477e-09
2.64486e-09
2.59157e-09
2.48111e-09
2.29328e-09
2.05437e-09
1.84273e-09
1.76285e-09
1.32088e-08
1.24813e-08
1.21694e-08
1.21222e-08
1.20072e-08
1.15504e-08
1.0638e-08
9.38126e-09
8.16653e-09
7.58783e-09
5.72036e-08
5.46454e-08
5.41876e-08
5.48755e-08
5.50445e-08
5.33179e-08
4.90469e-08
4.26403e-08
3.59179e-08
3.21729e-08
2.42725e-07
2.34877e-07
2.37333e-07
2.44794e-07
2.49191e-07
2.43732e-07
2.24723e-07
1.93199e-07
1.57164e-07
1.34388e-07
1.00534e-06
9.87593e-07
1.01898e-06
1.07243e-06
1.11056e-06
1.10077e-06
1.02231e-06
8.74048e-07
6.87107e-07
5.53906e-07
4.04477e-06
4.04422e-06
4.26833e-06
4.59114e-06
4.849e-06
4.89161e-06
4.60657e-06
3.95292e-06
3.02195e-06
2.26389e-06
1.57148e-05
1.60339e-05
1.73305e-05
1.90716e-05
2.05926e-05
2.12443e-05
2.04573e-05
1.78629e-05
1.35228e-05
9.32486e-06
5.85454e-05
6.10843e-05
6.76217e-05
7.61322e-05
8.41769e-05
8.92198e-05
8.86763e-05
8.02032e-05
6.21675e-05
3.99518e-05
0.000207429
0.000221548
0.000250793
0.000288416
0.0003266
0.000356876
0.000369689
0.000353835
0.000303158
0.000201582
5.61234e-24
4.92028e-24
4.23764e-24
3.75569e-24
3.46234e-24
3.3643e-24
3.45865e-24
3.73685e-24
4.21365e-24
4.73501e-24
4.26794e-23
3.71649e-23
3.1957e-23
2.82321e-23
2.59791e-23
2.5218e-23
2.59219e-23
2.80492e-23
3.16376e-23
3.57573e-23
2.31851e-22
2.00855e-22
1.71993e-22
1.51176e-22
1.38733e-22
1.34442e-22
1.38117e-22
1.49765e-22
1.69235e-22
1.92022e-22
1.22268e-21
1.05917e-21
9.05275e-22
7.93387e-22
7.26577e-22
7.02877e-22
7.21062e-22
7.81533e-22
8.82456e-22
1.0001e-21
6.37984e-21
5.54121e-21
4.7399e-21
4.1523e-21
3.79909e-21
3.66879e-21
3.7539e-21
4.05627e-21
4.56376e-21
5.15145e-21
3.30449e-20
2.88059e-20
2.47038e-20
2.16717e-20
1.98308e-20
1.91178e-20
1.94889e-20
2.0953e-20
2.34448e-20
2.63301e-20
1.70076e-19
1.48798e-19
1.2806e-19
1.12643e-19
1.03175e-19
9.92966e-20
1.00764e-19
1.07639e-19
1.19637e-19
1.33667e-19
8.69773e-19
7.63551e-19
6.59785e-19
5.82389e-19
5.34259e-19
5.13326e-19
5.18257e-19
5.49553e-19
6.06288e-19
6.73887e-19
4.41813e-18
3.89104e-18
3.37694e-18
2.99283e-18
2.75084e-18
2.63883e-18
2.64964e-18
2.78719e-18
3.05044e-18
3.37263e-18
2.22817e-17
1.96843e-17
1.71638e-17
1.52788e-17
1.40751e-17
1.34813e-17
1.34592e-17
1.40374e-17
1.52327e-17
1.6749e-17
1.11516e-16
9.88369e-17
8.66042e-17
7.74603e-17
7.15397e-17
6.84223e-17
6.79057e-17
7.01844e-17
7.54702e-17
8.25021e-17
5.53698e-16
4.92427e-16
4.33683e-16
3.89891e-16
3.61113e-16
3.44912e-16
3.40216e-16
3.48281e-16
3.7087e-16
4.0291e-16
2.72677e-15
2.4334e-15
2.15478e-15
1.94802e-15
1.80997e-15
1.72665e-15
1.69241e-15
1.71504e-15
1.8071e-15
1.95001e-15
1.3314e-14
1.19236e-14
1.06204e-14
9.65976e-15
9.00706e-15
8.58313e-15
8.35837e-15
8.37931e-15
8.72839e-15
9.34919e-15
6.44292e-14
5.79152e-14
5.19152e-14
4.75335e-14
4.44975e-14
4.2365e-14
4.0981e-14
4.06151e-14
4.17796e-14
4.43851e-14
3.08866e-13
2.78735e-13
2.51641e-13
2.3208e-13
2.1822e-13
2.07622e-13
1.99471e-13
1.9529e-13
1.98135e-13
2.08563e-13
1.46599e-12
1.32889e-12
1.20922e-12
1.12413e-12
1.06223e-12
1.01025e-12
9.63878e-13
9.31482e-13
9.30734e-13
9.69561e-13
6.886e-12
6.27448e-12
5.75891e-12
5.40068e-12
5.13174e-12
4.88052e-12
4.62416e-12
4.40744e-12
4.32979e-12
4.45686e-12
3.1997e-11
2.9324e-11
2.71717e-11
2.57294e-11
2.46019e-11
2.34086e-11
2.20271e-11
2.06903e-11
1.99441e-11
2.0247e-11
1.46986e-10
1.35557e-10
1.26951e-10
1.21511e-10
1.17016e-10
1.11466e-10
1.04198e-10
9.63852e-11
9.09559e-11
9.08452e-11
6.66881e-10
6.19376e-10
5.87017e-10
5.68603e-10
5.52041e-10
5.26915e-10
4.89589e-10
4.45746e-10
4.10713e-10
4.02308e-10
2.98454e-09
2.79438e-09
2.6841e-09
2.63465e-09
2.58193e-09
2.47229e-09
2.28549e-09
2.04763e-09
1.83678e-09
1.75719e-09
1.31537e-08
1.24312e-08
1.21217e-08
1.20758e-08
1.19629e-08
1.15099e-08
1.06026e-08
9.3514e-09
8.14112e-09
7.56435e-09
5.69651e-08
5.44283e-08
5.39768e-08
5.4667e-08
5.48428e-08
5.31324e-08
4.88866e-08
4.25085e-08
3.58104e-08
3.20775e-08
2.41723e-07
2.33943e-07
2.36417e-07
2.43868e-07
2.4828e-07
2.42889e-07
2.23999e-07
1.92619e-07
1.56713e-07
1.34008e-07
1.00122e-06
9.8374e-07
1.01508e-06
1.06839e-06
1.10651e-06
1.09697e-06
1.01904e-06
8.71487e-07
6.85227e-07
5.52437e-07
4.02866e-06
4.02877e-06
4.25213e-06
4.57383e-06
4.83119e-06
4.87459e-06
4.59185e-06
3.94155e-06
3.0141e-06
2.25835e-06
1.56546e-05
1.59742e-05
1.72653e-05
1.89997e-05
2.05162e-05
2.11692e-05
2.03907e-05
1.78114e-05
1.34911e-05
9.30697e-06
5.83321e-05
6.08636e-05
6.73705e-05
7.58458e-05
8.38626e-05
8.88998e-05
8.83846e-05
7.99838e-05
6.20417e-05
3.98775e-05
0.000206712
0.000220771
0.000249881
0.000287342
0.000325376
0.000355574
0.000368429
0.000352769
0.000302691
0.00020193
6.05943e-24
5.29576e-24
4.53457e-24
3.99242e-24
3.66145e-24
3.54974e-24
3.65343e-24
3.96152e-24
4.48492e-24
5.05106e-24
4.61964e-23
4.00952e-23
3.42622e-23
3.00567e-23
2.75055e-23
2.66361e-23
2.74135e-23
2.9778e-23
3.3733e-23
3.82151e-23
2.51899e-22
2.17431e-22
1.84909e-22
1.6128e-22
1.47118e-22
1.42203e-22
1.46294e-22
1.59316e-22
1.80896e-22
2.05787e-22
1.33331e-21
1.15019e-21
9.75498e-22
8.47664e-22
7.71202e-22
7.43993e-22
7.64451e-22
8.32586e-22
9.45272e-22
1.07457e-21
6.97738e-21
6.03125e-21
5.11425e-21
4.4381e-21
4.03166e-21
3.88189e-21
3.97903e-21
4.32302e-21
4.89455e-21
5.54475e-21
3.62098e-20
3.13924e-20
2.66609e-20
2.31478e-20
2.10188e-20
2.01992e-20
2.06315e-20
2.2315e-20
2.51466e-20
2.83601e-20
1.86522e-19
1.62185e-19
1.38101e-19
1.20131e-19
1.09133e-19
1.04678e-19
1.06442e-19
1.14438e-19
1.28189e-19
1.43907e-19
9.53679e-19
8.3159e-19
7.10445e-19
6.19775e-19
5.63672e-19
5.39652e-19
5.45941e-19
5.82787e-19
6.48303e-19
7.24371e-19
4.83888e-18
4.23126e-18
3.62867e-18
3.17686e-18
2.89399e-18
2.76563e-18
2.78223e-18
2.94641e-18
3.2524e-18
3.61599e-18
2.43586e-17
2.13612e-17
1.83968e-17
1.61723e-17
1.47621e-17
1.40825e-17
1.40829e-17
1.47849e-17
1.61828e-17
1.78963e-17
1.21623e-16
1.0698e-16
9.25582e-17
8.17386e-17
7.4788e-17
7.12248e-17
7.07831e-17
7.36207e-17
7.98411e-17
8.77876e-17
6.02182e-16
5.31363e-16
4.62024e-16
4.10074e-16
3.76223e-16
3.57727e-16
3.53199e-16
3.63707e-16
3.90498e-16
4.26672e-16
2.95573e-15
2.61683e-15
2.28768e-15
2.04171e-15
1.87893e-15
1.78391e-15
1.74945e-15
1.78239e-15
1.89285e-15
2.05397e-15
1.4378e-14
1.27743e-14
1.12335e-14
1.00868e-14
9.31479e-15
8.83173e-15
8.60071e-15
8.66342e-15
9.09093e-15
9.78966e-15
6.92909e-14
6.17953e-14
5.46943e-14
4.94395e-14
4.58334e-14
4.34047e-14
4.19651e-14
4.17605e-14
4.32496e-14
4.6179e-14
3.30693e-13
2.96141e-13
2.63989e-13
2.40377e-13
2.23816e-13
2.11748e-13
2.03212e-13
1.99616e-13
2.03764e-13
2.15497e-13
1.56223e-12
1.40549e-12
1.26282e-12
1.15914e-12
1.08456e-12
1.02535e-12
9.76599e-13
9.46149e-13
9.50482e-13
9.94387e-13
7.30177e-12
6.60337e-12
5.98504e-12
5.54258e-12
5.21459e-12
4.92809e-12
4.65808e-12
4.44705e-12
4.38873e-12
4.53495e-12
3.37469e-11
3.06956e-11
2.80924e-11
2.62727e-11
2.48724e-11
2.35085e-11
2.20527e-11
2.0729e-11
2.00559e-11
2.04293e-11
1.54114e-10
1.41078e-10
1.30527e-10
1.23415e-10
1.17668e-10
1.11299e-10
1.03644e-10
9.58462e-11
9.07024e-11
9.08542e-11
6.94705e-10
6.40542e-10
5.99985e-10
5.74243e-10
5.51969e-10
5.22943e-10
4.83664e-10
4.3978e-10
4.05977e-10
3.98633e-10
3.08691e-09
2.87033e-09
2.72607e-09
2.6448e-09
2.56617e-09
2.43808e-09
2.24173e-09
2.00368e-09
1.79902e-09
1.72449e-09
1.34992e-08
1.26766e-08
1.22279e-08
1.20452e-08
1.18154e-08
1.12756e-08
1.03227e-08
9.07319e-09
7.89858e-09
7.35103e-09
5.79705e-08
5.50647e-08
5.4053e-08
5.41612e-08
5.38133e-08
5.16975e-08
4.72366e-08
4.08873e-08
3.44101e-08
3.08664e-08
2.43744e-07
2.34649e-07
2.34901e-07
2.39896e-07
2.41978e-07
2.34701e-07
2.14798e-07
1.83671e-07
1.4914e-07
1.27696e-07
9.99578e-07
9.77527e-07
1.00013e-06
1.04316e-06
1.071e-06
1.05274e-06
9.69971e-07
8.24036e-07
6.46005e-07
5.21461e-07
3.97879e-06
3.96297e-06
4.15207e-06
4.43122e-06
4.64385e-06
4.64718e-06
4.34055e-06
3.69801e-06
2.81654e-06
2.11271e-06
1.52816e-05
1.55428e-05
1.66998e-05
1.82607e-05
1.95866e-05
2.0058e-05
1.9158e-05
1.66003e-05
1.25078e-05
8.63306e-06
5.62373e-05
5.85377e-05
6.45234e-05
7.23107e-05
7.95406e-05
8.3776e-05
8.26347e-05
7.41627e-05
5.716e-05
3.67296e-05
0.000196698
0.00020979
0.000236938
0.000271796
0.000306746
0.00033357
0.000343317
0.000326249
0.000277819
0.000184592
6.96195e-24
6.0461e-24
5.12576e-24
4.46528e-24
4.06212e-24
3.9249e-24
4.04792e-24
4.4172e-24
5.03851e-24
5.70392e-24
5.33621e-23
4.60054e-23
3.88887e-23
3.37301e-23
3.06031e-23
2.95304e-23
3.04606e-23
3.33156e-23
3.80537e-23
4.33435e-23
2.93452e-22
2.51435e-22
2.11225e-22
1.81935e-22
1.64405e-22
1.58302e-22
1.6327e-22
1.79177e-22
2.05383e-22
2.35045e-22
1.56557e-21
1.33878e-21
1.11957e-21
9.59204e-22
8.63662e-22
8.29718e-22
8.55029e-22
9.39493e-22
1.07851e-21
1.235e-21
8.24179e-21
7.05147e-21
5.88398e-21
5.02576e-21
4.51355e-21
4.32632e-21
4.44947e-21
4.88305e-21
5.59974e-21
6.39915e-21
4.29383e-20
3.67933e-20
3.0691e-20
2.61844e-20
2.34812e-20
2.24561e-20
2.30226e-20
2.51817e-20
2.87879e-20
3.27946e-20
2.21598e-19
1.90209e-19
1.5882e-19
1.35561e-19
1.21509e-19
1.15942e-19
1.18367e-19
1.28805e-19
1.4656e-19
1.66376e-19
1.13308e-18
9.74387e-19
8.15244e-19
6.97053e-19
6.2502e-19
5.95054e-19
6.04426e-19
6.53401e-19
7.38998e-19
8.35652e-19
5.74081e-18
4.94724e-18
4.15107e-18
3.55886e-18
3.19431e-18
3.03446e-18
3.06459e-18
3.2872e-18
3.69111e-18
4.15534e-18
2.88237e-17
2.48981e-17
2.09654e-17
1.80371e-17
1.62144e-17
1.53697e-17
1.5425e-17
1.64002e-17
1.82631e-17
2.04563e-17
1.43407e-16
1.24204e-16
1.0502e-16
9.0728e-17
8.17221e-17
7.73013e-17
7.70579e-17
8.11348e-17
8.95092e-17
9.9689e-17
7.06954e-16
6.14101e-16
5.21688e-16
4.52838e-16
4.0887e-16
3.85959e-16
3.82004e-16
3.97963e-16
4.34485e-16
4.80816e-16
3.45255e-15
3.00875e-15
2.56936e-15
2.24225e-15
2.03025e-15
1.9127e-15
1.87892e-15
1.93504e-15
2.08837e-15
2.29459e-15
1.67002e-14
1.4604e-14
1.25438e-14
1.10124e-14
1.00035e-14
9.40667e-15
9.16817e-15
9.32571e-15
9.93712e-15
1.08313e-14
7.99829e-14
7.02066e-14
6.06921e-14
5.36363e-14
4.89016e-14
4.59038e-14
4.43753e-14
4.45408e-14
4.67969e-14
5.0551e-14
3.79123e-13
3.34173e-13
2.90964e-13
2.59023e-13
2.37138e-13
2.22247e-13
2.13034e-13
2.10798e-13
2.18049e-13
2.33163e-13
1.77772e-12
1.57436e-12
1.38175e-12
1.24001e-12
1.14056e-12
1.06747e-12
1.01434e-12
9.88479e-13
1.00496e-12
1.0623e-12
8.24166e-12
7.33783e-12
6.49741e-12
5.88317e-12
5.43996e-12
5.08594e-12
4.79005e-12
4.59248e-12
4.58021e-12
4.7782e-12
3.77534e-11
3.38135e-11
3.02389e-11
2.76538e-11
2.57245e-11
2.40349e-11
2.24353e-11
2.11412e-11
2.06382e-11
2.12057e-11
1.70732e-10
1.53938e-10
1.39212e-10
1.28731e-10
1.20576e-10
1.1265e-10
1.04232e-10
9.64473e-11
9.19299e-11
9.27994e-11
7.61368e-10
6.91746e-10
6.33531e-10
5.93151e-10
5.60001e-10
5.23595e-10
4.80429e-10
4.36199e-10
4.04817e-10
4.00199e-10
3.34331e-09
3.06474e-09
2.84725e-09
2.70319e-09
2.5758e-09
2.41305e-09
2.1975e-09
1.95697e-09
1.7629e-09
1.69978e-09
1.443e-08
1.33656e-08
1.262e-08
1.21714e-08
1.17248e-08
1.10234e-08
9.97811e-09
8.71785e-09
7.59837e-09
7.1073e-09
6.10684e-08
5.72542e-08
5.50633e-08
5.40588e-08
5.27525e-08
4.98892e-08
4.49925e-08
3.8617e-08
3.24669e-08
2.9252e-08
2.52619e-07
2.40242e-07
2.35898e-07
2.36286e-07
2.34164e-07
2.23448e-07
2.01506e-07
1.70423e-07
1.37924e-07
1.18573e-07
1.01737e-06
9.83874e-07
9.88813e-07
1.01294e-06
1.02248e-06
9.88488e-07
8.96108e-07
7.51073e-07
5.85402e-07
4.74406e-07
3.9691e-06
3.91415e-06
4.03597e-06
4.23822e-06
4.37198e-06
4.30369e-06
3.95075e-06
3.31301e-06
2.50167e-06
1.88358e-06
1.49113e-05
1.50372e-05
1.59387e-05
1.71901e-05
1.81811e-05
1.83297e-05
1.71999e-05
1.46422e-05
1.09055e-05
7.54792e-06
5.35724e-05
5.53812e-05
6.04018e-05
6.69678e-05
7.2812e-05
7.56241e-05
7.33327e-05
6.46211e-05
4.90675e-05
3.15112e-05
0.000182638
0.000193844
0.00021742
0.00024764
0.000277103
0.000297898
0.000301978
0.00028194
0.000236001
0.000155768
8.31815e-24
7.15906e-24
6.00209e-24
5.17351e-24
4.67009e-24
4.49824e-24
4.64954e-24
5.10849e-24
5.88097e-24
6.71387e-24
6.41346e-23
5.47112e-23
4.56663e-23
3.91551e-23
3.52339e-23
3.38865e-23
3.50372e-23
3.86106e-23
4.45735e-23
5.12758e-23
3.56473e-22
3.01544e-22
2.49516e-22
2.12153e-22
1.89993e-22
1.82284e-22
1.88503e-22
2.08658e-22
2.42296e-22
2.8068e-22
1.91986e-21
1.61691e-21
1.32816e-21
1.1212e-21
9.99471e-22
9.56442e-22
9.88666e-22
1.09736e-21
1.27944e-21
1.48657e-21
1.01731e-20
8.55402e-21
6.99383e-21
5.87405e-21
5.21693e-21
4.9794e-21
5.13985e-21