/*--------------------------------*- C++ -*----------------------------------*\
| =========                 |                                                 |
| \\      /  F ield         | OpenFOAM: The Open Source CFD Toolbox           |
|  \\    /   O peration     | Version:  2112                                  |
|   \\  /    A nd           | Website:  www.openfoam.com                      |
|    \\/     M anipulation  |                                                 |
\*---------------------------------------------------------------------------*/
FoamFile
{
    version     2.0;
    format      ascii;
    arch        "LSB;label=32;scalar=64";
    class       volScalarField;
    location    "60";
    object      T;
}
// * * * * * * * * * * * * * * * * * * * * * * * * * * * * * * * * * * * * * //

dimensions      [0 0 0 1 0 0 0];

internalField   nonuniform List<scalar> 
10000
(
0.998128
1.00296
0.998195
0.998943
0.999079
0.998989
0.998945
0.998192
1.00291
0.99816
0.990582
0.99705
0.992635
0.993929
0.994205
0.99413
0.993929
0.992615
0.996858
0.990711
0.99178
0.996164
0.993165
0.993959
0.994189
0.994251
0.993982
0.993194
0.996058
0.991809
0.994612
0.997364
0.995492
0.995744
0.995827
0.995918
0.995792
0.995564
0.997476
0.99456
0.995883
0.997766
0.996807
0.996904
0.996925
0.996976
0.996946
0.996852
0.99794
0.99588
0.996444
0.997722
0.997267
0.997358
0.997376
0.997406
0.99739
0.997292
0.997832
0.996444
0.996947
0.99778
0.997542
0.997636
0.99766
0.997677
0.997655
0.997556
0.997813
0.996922
0.997342
0.99788
0.997768
0.997855
0.997886
0.997891
0.997862
0.997769
0.99789
0.997325
0.997597
0.997951
0.997907
0.997987
0.998021
0.99802
0.997987
0.997902
0.997955
0.997583
0.997758
0.997998
0.997991
0.998058
0.998089
0.998086
0.998054
0.99798
0.998001
0.997745
0.997868
0.998027
0.998025
0.998092
0.998105
0.998117
0.998091
0.99801
0.998051
0.997818
0.997948
0.998052
0.998039
0.998112
0.998105
0.998133
0.998113
0.998021
0.998096
0.997847
0.998006
0.998086
0.99808
0.998129
0.998129
0.998143
0.998123
0.998053
0.998099
0.997934
0.998046
0.998114
0.998108
0.998143
0.998148
0.998153
0.998133
0.99808
0.998096
0.998008
0.998049
0.998168
0.99815
0.998161
0.998179
0.998147
0.998118
0.998109
0.9981
0.998061
0.998003
0.998218
0.998166
0.998172
0.9982
0.998123
0.998089
0.998104
0.998104
0.99805
0.998043
0.998191
0.998143
0.998176
0.998186
0.998146
0.998118
0.998069
0.998065
0.998045
0.998151
0.998148
0.998152
0.998167
0.998153
0.998166
0.998137
0.998055
0.997973
0.998117
0.998106
0.998128
0.998155
0.998131
0.998106
0.998112
0.998069
0.998015
0.997869
0.998065
0.997956
0.998134
0.998165
0.9981
0.998111
0.998053
0.997989
0.997966
0.997703
0.998017
0.997924
0.998115
0.99816
0.998114
0.998129
0.998056
0.997969
0.99788
0.997517
0.997986
0.997823
0.998028
0.998087
0.998101
0.998087
0.998043
0.997919
0.997701
0.99724
0.997769
0.997408
0.997845
0.997916
0.997967
0.997976
0.99793
0.997765
0.99743
0.996695
0.997341
0.99663
0.997407
0.99753
0.997655
0.997732
0.99771
0.997518
0.997037
0.995805
0.996605
0.995197
0.996455
0.996711
0.996982
0.99719
0.997267
0.997107
0.996478
0.994417
0.995248
0.99248
0.994444
0.994975
0.995502
0.995962
0.996287
0.996337
0.995742
0.992462
0.992848
0.987271
0.990253
0.991284
0.992244
0.99316
0.993995
0.994621
0.994623
0.989771
0.98805
0.977393
0.981778
0.98359
0.98521
0.986871
0.988673
0.990682
0.993163
0.989229
0.983012
0.959159
0.965283
0.96811
0.970522
0.973137
0.976314
0.980368
0.987557
0.990252
0.97816
0.92707
0.934993
0.938652
0.941576
0.945036
0.949978
0.957929
0.976168
1.02691
1.06077
1.00288
1.0083
1.00333
1.00423
1.00442
1.00441
1.00423
1.00336
1.00821
1.0029
0.996786
1.00553
1.00108
1.00251
1.0029
1.00294
1.00251
1.0012
1.00547
0.99683
0.996163
1.00292
1.00037
1.001
1.00123
1.0012
1.00098
1.00045
1.00304
0.996076
0.99749
1.00149
1.00004
1.00007
1.00009
0.999996
1.00002
0.999968
1.00142
0.997543
0.997937
1.00013
0.999303
0.999202
0.999163
0.9991
0.999162
0.999211
1
0.998017
0.997832
0.999144
0.998759
0.998672
0.998618
0.998589
0.998652
0.998708
0.99912
0.997892
0.997786
0.998596
0.998479
0.998422
0.998376
0.998366
0.998415
0.998458
0.998673
0.997853
0.997859
0.998387
0.998342
0.998311
0.998282
0.998279
0.998309
0.998337
0.998456
0.997914
0.997933
0.998295
0.998271
0.998258
0.998247
0.998244
0.998259
0.998274
0.99834
0.997973
0.997986
0.998243
0.998231
0.998228
0.99823
0.998227
0.99823
0.998235
0.99827
0.998018
0.998033
0.998217
0.998246
0.998223
0.998257
0.998227
0.998219
0.998246
0.998247
0.998082
0.99808
0.998213
0.998289
0.998228
0.998305
0.998232
0.99822
0.998286
0.998248
0.998148
0.99811
0.998203
0.998258
0.998221
0.998274
0.998225
0.998215
0.998249
0.998219
0.998154
0.998121
0.998199
0.998229
0.998217
0.998238
0.998214
0.998204
0.998207
0.998184
0.998152
0.998147
0.998213
0.998179
0.998203
0.998183
0.998225
0.998218
0.998146
0.998144
0.998149
0.998147
0.99826
0.998158
0.998198
0.99813
0.998265
0.998254
0.99811
0.998118
0.998165
0.998074
0.998312
0.998235
0.998198
0.998142
0.998198
0.998175
0.998139
0.99808
0.998169
0.998047
0.998232
0.99823
0.998184
0.99817
0.998095
0.998054
0.998069
0.997978
0.998107
0.998085
0.998202
0.998234
0.998217
0.998223
0.998115
0.998061
0.997998
0.9979
0.998085
0.998071
0.998287
0.99822
0.998253
0.99817
0.998149
0.998075
0.997872
0.99777
0.998034
0.997876
0.998211
0.998136
0.99815
0.998041
0.998032
0.997914
0.99764
0.997418
0.997893
0.997553
0.998076
0.998085
0.998002
0.997957
0.997858
0.997695
0.997408
0.996946
0.997723
0.997155
0.997968
0.997986
0.997881
0.997849
0.997731
0.997517
0.997101
0.99637
0.997455
0.996435
0.997683
0.997711
0.997621
0.997609
0.997515
0.997255
0.996641
0.995476
0.996922
0.995072
0.996948
0.997034
0.997002
0.997066
0.997058
0.996805
0.995976
0.994078
0.995827
0.992487
0.995244
0.995483
0.995593
0.995844
0.996057
0.995986
0.995087
0.992093
0.993756
0.987516
0.991515
0.992061
0.992445
0.993064
0.993747
0.994238
0.993798
0.989265
0.989216
0.978034
0.983679
0.984736
0.985558
0.986796
0.988372
0.990172
0.991993
0.98863
0.984668
0.960315
0.967953
0.969665
0.970991
0.97302
0.975859
0.979509
0.986524
0.987578
0.979457
0.928601
0.938227
0.94036
0.941838
0.944475
0.948863
0.956006
0.975353
1.02756
1.05244
0.998207
1.00337
0.998075
0.998867
0.999053
0.99907
0.998845
0.998073
1.00337
0.998191
0.992632
1.00115
0.996224
0.997544
0.997988
0.998061
0.997574
0.996349
1.00122
0.992603
0.993182
1.00039
0.997464
0.997967
0.998288
0.998321
0.998025
0.99761
1.00043
0.993201
0.995503
1.00002
0.998682
0.998686
0.998798
0.998799
0.998717
0.998708
0.999912
0.995615
0.99681
0.999264
0.998797
0.998771
0.998789
0.998784
0.99878
0.998777
0.999156
0.996924
0.997272
0.998733
0.998666
0.998671
0.998654
0.998648
0.99867
0.998631
0.998673
0.997361
0.997553
0.998468
0.998542
0.99857
0.998554
0.998548
0.998563
0.998506
0.998442
0.997609
0.99778
0.998342
0.998435
0.998475
0.998472
0.998467
0.998466
0.998408
0.99833
0.997807
0.997916
0.998273
0.998356
0.998398
0.998405
0.998403
0.99839
0.998339
0.998269
0.997934
0.99799
0.998231
0.998299
0.998338
0.998352
0.998351
0.998334
0.99829
0.998231
0.998005
0.998041
0.998205
0.998264
0.998294
0.998314
0.998311
0.998293
0.998257
0.998206
0.998052
0.99808
0.998193
0.998244
0.998263
0.998289
0.998281
0.998263
0.998236
0.998191
0.998091
0.998104
0.998187
0.99823
0.998244
0.998267
0.998258
0.998242
0.998218
0.998178
0.99812
0.998113
0.99819
0.998226
0.998237
0.998249
0.99824
0.998225
0.998204
0.998168
0.998147
0.998114
0.998196
0.998217
0.998231
0.99823
0.998224
0.998207
0.99818
0.998153
0.998168
0.998109
0.998211
0.998211
0.998224
0.998213
0.998214
0.998193
0.998156
0.99813
0.998184
0.998096
0.998217
0.99821
0.99821
0.998199
0.998198
0.998171
0.99813
0.998093
0.998197
0.99806
0.998199
0.998205
0.998188
0.998181
0.998168
0.998136
0.998087
0.998029
0.998203
0.998001
0.998193
0.998206
0.998177
0.998161
0.998134
0.998094
0.998027
0.997949
0.998217
0.997917
0.998199
0.998207
0.998172
0.998136
0.998102
0.998043
0.997938
0.997829
0.998231
0.99777
0.998186
0.998195
0.998149
0.998102
0.998056
0.997967
0.997809
0.997627
0.998229
0.997523
0.998141
0.998158
0.998089
0.998043
0.997979
0.997852
0.99762
0.997309
0.998192
0.997103
0.998017
0.998053
0.997968
0.997924
0.997851
0.997677
0.997331
0.996804
0.998051
0.996345
0.99772
0.997794
0.99771
0.997685
0.997625
0.997409
0.996903
0.996003
0.997677
0.99498
0.997037
0.99719
0.997143
0.997181
0.99719
0.996974
0.996288
0.994742
0.996779
0.992464
0.995489
0.995806
0.995863
0.996051
0.996252
0.996188
0.995442
0.992908
0.994928
0.987712
0.992081
0.992692
0.992959
0.99344
0.99405
0.994472
0.994148
0.99027
0.990668
0.978658
0.984797
0.985866
0.986464
0.987435
0.988791
0.990361
0.99215
0.989684
0.986878
0.961576
0.969866
0.971464
0.972385
0.97394
0.976291
0.97948
0.98613
0.988257
0.982368
0.93042
0.940906
0.9427
0.943492
0.945339
0.948836
0.955074
0.973199
1.02737
1.05742
0.998956
1.00425
0.998854
0.999669
0.999874
0.999876
0.999649
0.998835
1.00425
0.998936
0.993942
1.00252
0.997519
0.998789
0.999232
0.999259
0.998793
0.997581
1.00256
0.993878
0.993992
1.00098
0.997964
0.998335
0.998627
0.998652
0.998365
0.998064
1.00097
0.993979
0.995756
1.00006
0.9987
0.998595
0.998677
0.998689
0.998623
0.998735
0.99995
0.995868
0.996912
0.999195
0.998779
0.998702
0.998698
0.9987
0.998717
0.998776
0.999096
0.997044
0.997374
0.998662
0.998672
0.998681
0.998656
0.998657
0.998689
0.998655
0.998606
0.997481
0.997645
0.998413
0.998568
0.998631
0.99862
0.99862
0.998633
0.998548
0.998389
0.997725
0.997854
0.998305
0.998472
0.998553
0.998562
0.998561
0.998552
0.998457
0.998298
0.99791
0.997982
0.998257
0.998396
0.998476
0.998496
0.998495
0.998473
0.998386
0.998254
0.998025
0.998052
0.998232
0.998342
0.998411
0.998436
0.998435
0.998408
0.998334
0.99823
0.998088
0.998098
0.998215
0.998305
0.99836
0.998386
0.998384
0.998356
0.998298
0.998217
0.998127
0.998129
0.998207
0.99828
0.998321
0.998346
0.998341
0.998317
0.998273
0.998209
0.998156
0.998144
0.998203
0.99826
0.99829
0.998311
0.998307
0.998286
0.998249
0.998199
0.998177
0.998145
0.998202
0.998244
0.998267
0.998282
0.998278
0.99826
0.998228
0.998187
0.998193
0.998136
0.998204
0.99823
0.998248
0.998257
0.998253
0.998237
0.998206
0.998172
0.998205
0.998121
0.998206
0.998221
0.998233
0.998235
0.998234
0.998216
0.998183
0.998151
0.998218
0.998099
0.998202
0.998218
0.99822
0.998216
0.998212
0.998191
0.998157
0.998121
0.998233
0.998062
0.998192
0.998213
0.998203
0.998197
0.998185
0.998158
0.998117
0.998072
0.998248
0.998007
0.998186
0.998209
0.998188
0.998176
0.998157
0.998121
0.998063
0.998003
0.998269
0.997917
0.998182
0.998201
0.998171
0.998148
0.998122
0.998071
0.997984
0.997896
0.998294
0.997756
0.998159
0.99818
0.998139
0.998108
0.998073
0.997997
0.997865
0.997717
0.998306
0.997489
0.99811
0.998138
0.998082
0.998045
0.997999
0.997889
0.997689
0.997428
0.998285
0.997067
0.997987
0.998043
0.997972
0.997935
0.997882
0.99773
0.997426
0.996967
0.998171
0.996336
0.997703
0.997812
0.997737
0.997716
0.997676
0.997483
0.997031
0.996222
0.997836
0.995028
0.997077
0.997259
0.997212
0.997243
0.997268
0.99707
0.996445
0.995022
0.996981
0.992633
0.995642
0.995977
0.996014
0.996168
0.996365
0.996299
0.995611
0.993243
0.995181
0.988098
0.992451
0.993053
0.993251
0.993644
0.994202
0.994567
0.994275
0.990706
0.991109
0.979401
0.985528
0.98653
0.98697
0.987754
0.988957
0.990383
0.992174
0.990047
0.987548
0.962777
0.971066
0.972496
0.973115
0.974308
0.976295
0.97912
0.985363
0.988097
0.983334
0.931889
0.942426
0.943892
0.944178
0.945413
0.948233
0.953757
0.971213
1.02635
1.05858
0.998948
1.00449
0.999069
0.999827
1.00004
1.00004
0.999814
0.999057
1.0045
0.998933
0.994058
1.00301
0.998052
0.999243
0.999664
0.999675
0.999247
0.998105
1.00306
0.994014
0.994331
1.00105
0.998284
0.998647
0.998934
0.998949
0.998672
0.998376
1.00106
0.994326
0.99594
0.999946
0.998776
0.998653
0.998727
0.99874
0.99868
0.998818
0.999866
0.996043
0.996975
0.999096
0.998771
0.998678
0.99866
0.998666
0.998692
0.998772
0.999013
0.997105
0.997401
0.998591
0.998641
0.998647
0.998613
0.998616
0.998656
0.998628
0.998539
0.99752
0.997669
0.998365
0.998545
0.998616
0.998602
0.998604
0.998621
0.99853
0.998341
0.99776
0.99788
0.998279
0.998463
0.998559
0.998569
0.99857
0.998561
0.998455
0.998269
0.997948
0.998007
0.998254
0.998399
0.998495
0.998519
0.998518
0.998495
0.998395
0.998242
0.998064
0.998082
0.998237
0.998355
0.998437
0.998466
0.998466
0.998435
0.99835
0.998229
0.998124
0.998129
0.998219
0.998324
0.998387
0.998415
0.998414
0.998384
0.998315
0.998222
0.99816
0.998153
0.998214
0.998299
0.998345
0.998371
0.998369
0.998341
0.998287
0.998216
0.998186
0.998163
0.998208
0.998274
0.998311
0.998332
0.99833
0.998307
0.998263
0.998208
0.998201
0.998159
0.998205
0.99825
0.998282
0.998299
0.998297
0.998277
0.998241
0.998196
0.998213
0.998144
0.998214
0.998232
0.998259
0.998272
0.998269
0.998251
0.998219
0.998181
0.998223
0.998127
0.99822
0.998226
0.998242
0.998248
0.998245
0.998227
0.998196
0.998162
0.998234
0.998108
0.998207
0.998228
0.998227
0.998227
0.998221
0.9982
0.998168
0.998134
0.99825
0.998075
0.998191
0.998225
0.998211
0.998206
0.998195
0.998169
0.998129
0.998089
0.998267
0.998015
0.998185
0.998217
0.998194
0.998183
0.998167
0.998132
0.998078
0.998022
0.99829
0.99792
0.998177
0.998203
0.998174
0.998154
0.998131
0.998083
0.998002
0.997918
0.998315
0.997745
0.99818
0.998182
0.998141
0.998115
0.998082
0.998011
0.997888
0.997747
0.99833
0.997465
0.998174
0.998145
0.998086
0.998052
0.99801
0.997906
0.997718
0.99747
0.998315
0.997077
0.998007
0.99805
0.997979
0.997943
0.997897
0.997751
0.99746
0.997019
0.99821
0.996377
0.997694
0.997825
0.997751
0.997729
0.997696
0.997509
0.997072
0.996283
0.997883
0.995085
0.997138
0.997295
0.997242
0.997266
0.997293
0.997097
0.996489
0.995092
0.997037
0.992759
0.995753
0.996058
0.996078
0.996209
0.996397
0.996324
0.995651
0.99332
0.995248
0.988343
0.992655
0.993218
0.99337
0.993713
0.994241
0.994574
0.994287
0.990791
0.991217
0.979845
0.985886
0.986825
0.987172
0.987851
0.988972
0.990314
0.992079
0.990072
0.987706
0.963451
0.971625
0.972942
0.973384
0.974379
0.976192
0.978856
0.98498
0.987835
0.983482
0.932638
0.943111
0.94435
0.944338
0.945245
0.947737
0.952952
0.969975
1.02521
1.05759
0.999089
1.00442
0.999043
0.999864
1.00008
1.00008
0.99985
0.99903
1.00443
0.999071
0.994204
1.00289
0.997967
0.999219
0.999662
0.999668
0.999221
0.998021
1.00295
0.99414
0.994174
1.00125
0.9983
0.99863
0.998914
0.998926
0.998653
0.998387
1.00126
0.994156
0.995818
1.00012
0.998816
0.998685
0.998755
0.998767
0.998708
0.998851
1.00003
0.995922
0.996929
0.999175
0.998793
0.998699
0.998679
0.998686
0.998711
0.998793
0.999089
0.997063
0.997382
0.998624
0.998653
0.998657
0.99862
0.998624
0.998664
0.998638
0.998566
0.997506
0.99766
0.998382
0.99855
0.99862
0.998605
0.998607
0.998624
0.998533
0.998348
0.997757
0.997858
0.998317
0.998467
0.998561
0.998571
0.998571
0.998562
0.998454
0.99827
0.997949
0.99797
0.998331
0.998406
0.998497
0.99852
0.998519
0.998495
0.998394
0.998242
0.998064
0.99808
0.998259
0.998359
0.998438
0.998467
0.998465
0.998435
0.998349
0.998229
0.998125
0.998155
0.998169
0.998323
0.998386
0.998415
0.998414
0.998383
0.998313
0.998223
0.998161
0.998167
0.998174
0.998295
0.998344
0.998369
0.998368
0.998341
0.998286
0.998216
0.998185
0.99817
0.998191
0.998269
0.99831
0.998331
0.998329
0.998307
0.998263
0.998207
0.998201
0.99815
0.998231
0.99825
0.998283
0.998298
0.998297
0.998277
0.998241
0.998197
0.998213
0.9981
0.998315
0.998243
0.998263
0.998273
0.998269
0.99825
0.99822
0.998183
0.998223
0.998087
0.998312
0.998238
0.998246
0.99825
0.998245
0.998226
0.998196
0.998163
0.998235
0.998121
0.998178
0.998229
0.998228
0.998228
0.998221
0.998201
0.998168
0.998134
0.998251
0.998114
0.998096
0.998217
0.998209
0.998206
0.998196
0.998171
0.998131
0.99809
0.998269
0.998041
0.998118
0.998205
0.998191
0.998182
0.998167
0.998133
0.998079
0.998023
0.99829
0.997928
0.998149
0.998194
0.99817
0.998153
0.998132
0.998083
0.998003
0.997918
0.998315
0.997757
0.998148
0.998177
0.998139
0.998114
0.998082
0.998012
0.99789
0.997748
0.998333
0.997498
0.998105
0.998142
0.998084
0.998053
0.998012
0.997908
0.99772
0.997474
0.998319
0.997087
0.997984
0.998052
0.997979
0.997945
0.997899
0.997753
0.997462
0.997022
0.998211
0.996371
0.997718
0.997831
0.997753
0.99773
0.997697
0.997511
0.997075
0.996286
0.997883
0.995097
0.99712
0.997301
0.997247
0.997269
0.997296
0.9971
0.996494
0.995096
0.997036
0.992765
0.995749
0.996069
0.996082
0.996213
0.996403
0.996329
0.995656
0.99333
0.995261
0.988353
0.992678
0.993237
0.993381
0.993724
0.994252
0.994587
0.994298
0.990789
0.991209
0.979858
0.985952
0.986865
0.987198
0.987874
0.988989
0.990313
0.992042
0.99011
0.987911
0.963488
0.971749
0.973018
0.973447
0.974442
0.976258
0.978944
0.985183
0.987882
0.983035
0.932744
0.943276
0.944491
0.944469
0.945375
0.947873
0.953106
0.970112
1.0256
1.05886
0.99893
1.00425
0.99886
0.999652
0.999853
0.99985
0.999636
0.998842
1.00425
0.998911
0.993891
1.00254
0.997556
0.998792
0.999227
0.99923
0.998789
0.997599
1.00259
0.993825
0.993948
1.00101
0.998005
0.998354
0.99864
0.99865
0.998372
0.998086
1.00101
0.993922
0.995778
1.00004
0.998703
0.99861
0.998692
0.998702
0.998629
0.998734
0.999947
0.995877
0.996939
0.999175
0.998769
0.998706
0.998701
0.998706
0.998716
0.998767
0.999082
0.997071
0.997383
0.998658
0.998663
0.998683
0.99866
0.998663
0.998689
0.998648
0.998598
0.997503
0.997643
0.998419
0.99856
0.99863
0.998622
0.998624
0.998632
0.998541
0.998384
0.997739
0.997842
0.998318
0.998462
0.998551
0.998562
0.998562
0.99855
0.998448
0.998294
0.997918
0.997969
0.998276
0.998389
0.998473
0.998495
0.998494
0.998471
0.99838
0.998254
0.998028
0.998048
0.998243
0.998341
0.998411
0.998436
0.998434
0.998407
0.99833
0.998231
0.998092
0.9981
0.998217
0.998308
0.998361
0.998386
0.998384
0.998356
0.998295
0.998218
0.998132
0.998135
0.998207
0.998283
0.998323
0.998344
0.998343
0.998318
0.99827
0.998209
0.99816
0.998149
0.998201
0.998259
0.998292
0.998309
0.998308
0.998287
0.998248
0.9982
0.99818
0.99814
0.998204
0.998238
0.998267
0.998281
0.998279
0.99826
0.998227
0.998189
0.998195
0.998121
0.998221
0.998225
0.998249
0.998259
0.998255
0.998237
0.998208
0.998174
0.998208
0.998109
0.998225
0.998223
0.998235
0.998239
0.998233
0.998215
0.998186
0.998153
0.99822
0.998104
0.998205
0.998225
0.998222
0.99822
0.998212
0.998191
0.998157
0.998122
0.998236
0.998084
0.998185
0.998221
0.998206
0.9982
0.998188
0.998161
0.998119
0.998076
0.998254
0.998007
0.99821
0.998215
0.998191
0.998178
0.99816
0.998123
0.998065
0.998007
0.998272
0.997883
0.998257
0.998208
0.998173
0.998151
0.998124
0.998071
0.997988
0.997896
0.99829
0.997749
0.998183
0.998189
0.998142
0.998111
0.998074
0.997998
0.997871
0.99772
0.998304
0.997525
0.998056
0.998147
0.998084
0.998049
0.998002
0.997892
0.997695
0.997436
0.998286
0.997102
0.997941
0.99805
0.997976
0.997938
0.997886
0.997734
0.997431
0.996977
0.998174
0.996362
0.997685
0.997817
0.997742
0.99772
0.997682
0.997488
0.997038
0.996231
0.997844
0.995053
0.997071
0.997268
0.997221
0.997251
0.997275
0.997077
0.996457
0.995033
0.99699
0.992661
0.995655
0.995996
0.996031
0.996182
0.996377
0.99631
0.995628
0.993264
0.995194
0.988149
0.99249
0.993093
0.993287
0.993676
0.99423
0.994593
0.994304
0.990731
0.991115
0.979498
0.985621
0.986615
0.987049
0.987825
0.989014
0.990409
0.992212
0.990089
0.987582
0.962966
0.971264
0.972679
0.973292
0.974474
0.976441
0.979221
0.985488
0.988136
0.983235
0.932248
0.942805
0.944263
0.944546
0.945772
0.948575
0.954044
0.971423
1.0265
1.05848
0.998197
1.00336
0.998081
0.998856
0.99905
0.999048
0.998842
0.998068
1.00337
0.998178
0.992608
1.00118
0.996332
0.997575
0.998009
0.998018
0.997591
0.996403
1.00127
0.992555
0.993175
1.00045
0.997588
0.998041
0.998353
0.998369
0.99808
0.997705
1.0005
0.993161
0.99554
0.999988
0.998693
0.998711
0.998821
0.99883
0.998728
0.998726
0.999884
0.995632
0.996825
0.999217
0.998764
0.998759
0.998776
0.99878
0.998762
0.998755
0.999103
0.996949
0.997271
0.998706
0.998623
0.998648
0.998634
0.998635
0.998646
0.998596
0.998627
0.997377
0.997543
0.998464
0.998502
0.998547
0.998535
0.998534
0.998541
0.998469
0.998406
0.997617
0.997748
0.99834
0.998405
0.998457
0.998457
0.998455
0.99845
0.998378
0.998307
0.997809
0.997884
0.99828
0.998341
0.998388
0.998397
0.998394
0.99838
0.99832
0.998258
0.997931
0.997979
0.998248
0.998298
0.998338
0.998352
0.998349
0.998331
0.998281
0.99823
0.998008
0.998041
0.998216
0.998269
0.998302
0.998317
0.998315
0.998296
0.998254
0.998212
0.998065
0.998086
0.998199
0.998253
0.998276
0.99829
0.998288
0.99827
0.998237
0.998199
0.998108
0.998111
0.998191
0.998238
0.998256
0.998268
0.998266
0.99825
0.99822
0.998186
0.998138
0.998119
0.998194
0.998221
0.99824
0.99825
0.998247
0.998231
0.998204
0.998172
0.99816
0.998121
0.998217
0.998212
0.998229
0.998234
0.998229
0.998213
0.998186
0.998155
0.998179
0.998111
0.998226
0.998213
0.99822
0.99822
0.998212
0.998192
0.998164
0.998132
0.998194
0.998093
0.998212
0.99822
0.998212
0.998205
0.998193
0.998169
0.998135
0.998096
0.998205
0.998072
0.998193
0.99822
0.998199
0.998188
0.99817
0.99814
0.998092
0.99804
0.998215
0.998019
0.998199
0.998213
0.998185
0.998168
0.998142
0.998099
0.998031
0.997958
0.998225
0.997921
0.998219
0.998207
0.99817
0.998143
0.998105
0.998043
0.997943
0.99783
0.998231
0.997768
0.998195
0.998198
0.998141
0.998103
0.998053
0.997962
0.997812
0.997629
0.998225
0.997526
0.998129
0.998164
0.998085
0.998038
0.997974
0.997846
0.997618
0.997313
0.99818
0.997111
0.998005
0.998061
0.997969
0.997922
0.99785
0.997676
0.997331
0.99681
0.998041
0.996359
0.997713
0.997804
0.997719
0.99769
0.997632
0.997416
0.996913
0.996014
0.997683
0.995002
0.997039
0.997206
0.99716
0.997195
0.997204
0.996989
0.996308
0.994758
0.996803
0.992503
0.995514
0.995837
0.995895
0.996078
0.996278
0.996214
0.995474
0.992942
0.994983
0.987785
0.992145
0.992757
0.993019
0.993495
0.994102
0.994522
0.994202
0.990319
0.990766
0.9788
0.984937
0.986003
0.986591
0.987552
0.988892
0.990434
0.99224
0.989797
0.98712
0.961859
0.970154
0.971747
0.972658
0.974199
0.976531
0.979696
0.986435
0.988437
0.982494
0.930961
0.941466
0.943259
0.944049
0.945881
0.949361
0.955509
0.973753
1.02801
1.05769
1.0029
1.0082
1.00335
1.00423
1.00441
1.00441
1.00424
1.00337
1.00823
1.00288
0.996835
1.00544
1.00118
1.00253
1.00292
1.00293
1.00256
1.00126
1.00556
0.996773
0.996031
1.00309
1.00042
1.00099
1.00128
1.00128
1.00101
1.0005
1.0031
0.996
0.997421
1.00155
0.999924
0.999978
1.00007
1.00006
0.999954
0.999889
1.0013
0.997522
0.997927
1.00005
0.999154
0.99911
0.999111
0.999106
0.999086
0.999106
0.999885
0.998041
0.99786
0.999104
0.998667
0.998612
0.99858
0.998577
0.998599
0.998628
0.999058
0.99794
0.997803
0.998721
0.998443
0.998395
0.998358
0.998355
0.998385
0.998406
0.99865
0.997895
0.997909
0.998474
0.998331
0.998303
0.998276
0.998273
0.998296
0.998307
0.99845
0.997943
0.99802
0.998338
0.998276
0.998259
0.998245
0.998244
0.998254
0.998257
0.998339
0.997991
0.997991
0.998322
0.998245
0.998238
0.998233
0.998232
0.998231
0.99823
0.998274
0.998029
0.998006
0.998219
0.998221
0.998223
0.998226
0.998225
0.998219
0.998213
0.998235
0.998064
0.998087
0.998126
0.99821
0.998214
0.99822
0.998219
0.998212
0.998201
0.998208
0.998094
0.99812
0.998139
0.998203
0.998208
0.998214
0.998213
0.998204
0.998189
0.998183
0.998117
0.998136
0.998218
0.9982
0.998206
0.99821
0.998206
0.998194
0.998175
0.998158
0.998134
0.998122
0.99834
0.998206
0.998208
0.998207
0.998198
0.998182
0.998159
0.998133
0.998143
0.998076
0.998324
0.998208
0.998208
0.998201
0.998187
0.998166
0.998138
0.9981
0.998143
0.998085
0.998165
0.998209
0.998199
0.998189
0.998172
0.998144
0.998104
0.998053
0.998138
0.998122
0.998094
0.99821
0.998187
0.998173
0.99815
0.998113
0.998055
0.997982
0.998125
0.998092
0.998189
0.998216
0.998179
0.998156
0.998122
0.998069
0.997985
0.997876
0.998094
0.998003
0.998306
0.998222
0.998171
0.998136
0.998085
0.998006
0.99788
0.997712
0.99804
0.997854
0.998239
0.998206
0.998144
0.998097
0.998028
0.997915
0.997724
0.997459
0.99795
0.997624
0.998099
0.99816
0.99808
0.998026
0.997941
0.997783
0.997494
0.997067
0.997788
0.997234
0.997987
0.998043
0.99795
0.997899
0.997803
0.99759
0.99716
0.996459
0.99749
0.996508
0.9977
0.997753
0.997671
0.997645
0.997561
0.997301
0.996682
0.995524
0.996926
0.995147
0.99697
0.997072
0.997046
0.9971
0.997091
0.996837
0.996012
0.994097
0.995798
0.992571
0.995289
0.995535
0.995643
0.995885
0.996093
0.996016
0.995125
0.992099
0.993694
0.987648
0.991607
0.992154
0.992526
0.993135
0.993814
0.994281
0.993851
0.989244
0.989105
0.978262
0.983861
0.984918
0.985727
0.986951
0.988499
0.99024
0.992103
0.98864
0.984637
0.960737
0.968321
0.970029
0.971349
0.973355
0.976144
0.979759
0.986878
0.987395
0.978914
0.929348
0.938928
0.941062
0.942545
0.945144
0.949486
0.956485
0.976098
1.02749
1.05255
0.998171
1.0029
0.998205
0.998933
0.999073
0.999069
0.99892
0.998186
1.00289
0.998174
0.990751
0.996842
0.992608
0.993859
0.994128
0.99412
0.99383
0.992567
0.996779
0.990742
0.991771
0.996079
0.993171
0.993917
0.994101
0.994096
0.993902
0.993159
0.996
0.991784
0.994463
0.997568
0.995574
0.995829
0.995878
0.995887
0.99585
0.995621
0.997518
0.994574
0.995832
0.998047
0.996889
0.997024
0.997031
0.997041
0.99705
0.99694
0.998037
0.995927
0.996417
0.997901
0.997334
0.997462
0.997474
0.997483
0.997487
0.99737
0.997936
0.996484
0.996873
0.997871
0.997591
0.997708
0.997732
0.997737
0.997726
0.997609
0.997892
0.996951
0.997283
0.99794
0.99779
0.997896
0.997933
0.997936
0.997908
0.997802
0.997939
0.997349
0.997512
0.998001
0.997917
0.998014
0.998053
0.998055
0.998016
0.997926
0.997987
0.997611
0.997715
0.998025
0.998002
0.998083
0.998117
0.998115
0.998079
0.998002
0.998023
0.997774
0.997943
0.998019
0.998067
0.998126
0.99815
0.99815
0.99812
0.998055
0.998056
0.997887
0.99804
0.998041
0.998116
0.99815
0.99817
0.998171
0.998145
0.998091
0.998083
0.99797
0.998068
0.998086
0.998139
0.998164
0.998183
0.998182
0.998159
0.998117
0.998101
0.99803
0.998037
0.998153
0.998144
0.998174
0.998191
0.998188
0.998167
0.998133
0.998111
0.998075
0.99797
0.998237
0.99815
0.998185
0.998196
0.99819
0.998169
0.998138
0.998111
0.998105
0.998063
0.998226
0.998165
0.998192
0.998195
0.998184
0.998164
0.998132
0.998096
0.998117
0.998207
0.99815
0.998188
0.998191
0.998187
0.998172
0.998151
0.998116
0.998069
0.998116
0.998217
0.998134
0.998203
0.998186
0.998178
0.998159
0.998129
0.998086
0.998019
0.998101
0.998105
0.998178
0.998195
0.998178
0.998168
0.998142
0.998095
0.998037
0.997933
0.998064
0.997958
0.998229
0.998175
0.998166
0.998152
0.998115
0.998047
0.997959
0.997796
0.997996
0.997936
0.99815
0.998139
0.998137
0.998123
0.998072
0.997979
0.997841
0.997579
0.997876
0.997832
0.997988
0.998071
0.998073
0.998066
0.998006
0.997879
0.997665
0.997231
0.997662
0.99742
0.9978
0.997911
0.997942
0.997957
0.997899
0.997731
0.997405
0.996674
0.997275
0.996654
0.997387
0.997535
0.997652
0.997728
0.997701
0.997505
0.997027
0.995795
0.996568
0.99524
0.99646
0.99673
0.997001
0.997205
0.997277
0.997112
0.996488
0.994417
0.995231
0.992553
0.99448
0.995025
0.99555
0.996004
0.996323
0.996366
0.995781
0.99248
0.992858
0.987406
0.990353
0.991395
0.992347
0.993248
0.994076
0.99469
0.994712
0.989819
0.988096
0.977643
0.981993
0.983811
0.985419
0.987057
0.98884
0.990814
0.993358
0.989401
0.983212
0.959624
0.965723
0.968546
0.970946
0.973533
0.976671
0.980672
0.987969
0.990523
0.978332
0.927897
0.935802
0.939469
0.942394
0.945826
0.950724
0.958579
0.97697
1.02776
1.06073
0.874178
0.883148
0.886501
0.88853
0.891181
0.895228
0.901845
0.908188
0.956155
1.00673
0.793891
0.801996
0.802705
0.801324
0.800788
0.802294
0.808302
0.816732
0.850175
0.934435
0.683586
0.687979
0.682877
0.674971
0.668147
0.664425
0.666115
0.674282
0.692203
0.741063
0.548433
0.546501
0.533275
0.516839
0.50144
0.489183
0.481283
0.478163
0.478969
0.488854
0.402712
0.393989
0.37361
0.35059
0.329127
0.310667
0.295589
0.2837
0.274456
0.269395
0.266395
0.25336
0.230665
0.207059
0.185702
0.16732
0.151736
0.138452
0.127087
0.118227
0.15672
0.143582
0.124072
0.105255
0.08904
0.0755289
0.0642425
0.0546129
0.0463101
0.0396781
0.0812983
0.0711927
0.0578553
0.0459061
0.0361973
0.0285012
0.0223247
0.017253
0.0130515
0.00994809
0.0370419
0.0308659
0.0234647
0.0172891
0.0125831
0.00906707
0.00641197
0.00435862
0.00280123
0.00185378
0.0148558
0.011773
0.00837096
0.00571407
0.00381906
0.00249656
0.0015726
0.000916509
0.000484739
0.000312098
0.875293
0.886075
0.887422
0.887553
0.889022
0.892183
0.897932
0.901375
0.95461
1.00289
0.792742
0.802717
0.800822
0.796899
0.794503
0.794208
0.798608
0.803946
0.835438
0.926956
0.677493
0.683631
0.675396
0.664289
0.654788
0.648306
0.647071
0.651749
0.66427
0.713149
0.535264
0.5347
0.518372
0.498693
0.480497
0.465236
0.453719
0.446069
0.440448
0.4439
0.383135
0.375375
0.353156
0.328544
0.305783
0.285862
0.268882
0.254358
0.241389
0.232036
0.244853
0.232763
0.210283
0.187124
0.166316
0.148321
0.132806
0.119043
0.106642
0.0966213
0.13849
0.126395
0.108497
0.0914055
0.0767501
0.0645432
0.0542027
0.0451062
0.0371401
0.0309892
0.0688972
0.05988
0.0484317
0.0382874
0.0300689
0.0235637
0.0182401
0.013758
0.0100504
0.00762807
0.0301017
0.024803
0.018805
0.0138575
0.0100899
0.00727187
0.00509729
0.0033607
0.00211393
0.00149001
0.0116054
0.0090603
0.00643208
0.00440427
0.00295628
0.00193911
0.00121687
0.000679299
0.000363192
0.000269893
0.876736
0.888648
0.889323
0.888349
0.888588
0.890389
0.89427
0.894512
0.948059
1.00012
0.791473
0.802792
0.799829
0.794271
0.790019
0.787623
0.789223
0.791858
0.817963
0.912358
0.669827
0.677388
0.667843
0.654721
0.642821
0.633375
0.628336
0.628352
0.634315
0.676547
0.518155
0.518866
0.50156
0.480312
0.460078
0.442132
0.427046
0.414709
0.402735
0.399
0.35762
0.350967
0.32944
0.305167
0.282213
0.261515
0.243152
0.226632
0.211041
0.198884
0.217362
0.206657
0.186532
0.165607
0.146464
0.129585
0.114724
0.101317
0.0891313
0.0793882
0.115877
0.105504
0.0906906
0.0765149
0.064166
0.053717
0.044716
0.0367594
0.0298202
0.0246801
0.0541761
0.046841
0.038034
0.0302583
0.0238649
0.0187204
0.0144326
0.0107917
0.00783443