/*--------------------------------*- C++ -*----------------------------------*\
| =========                 |                                                 |
| \\      /  F ield         | OpenFOAM: The Open Source CFD Toolbox           |
|  \\    /   O peration     | Version:  2112                                  |
|   \\  /    A nd           | Website:  www.openfoam.com                      |
|    \\/     M anipulation  |                                                 |
\*---------------------------------------------------------------------------*/
FoamFile
{
    version     2.0;
    format      ascii;
    arch        "LSB;label=32;scalar=64";
    class       volScalarField;
    location    "65.5";
    object      p;
}
// * * * * * * * * * * * * * * * * * * * * * * * * * * * * * * * * * * * * * //

dimensions      [0 2 -2 0 0 0 0];

internalField   nonuniform List<scalar> 
8800
(
0.794002
0.746216
0.707529
0.678537
0.657678
0.642855
0.63227
0.624807
0.620011
0.617987
0.619292
0.623512
0.63018
0.639512
0.652303
0.670045
0.694828
0.728772
0.771325
0.830027
0.625246
0.632925
0.640404
0.643715
0.642215
0.637143
0.630666
0.624603
0.619901
0.617088
0.616845
0.619386
0.623903
0.629868
0.636652
0.642941
0.646588
0.645855
0.64044
0.631753
0.603643
0.609803
0.613932
0.61688
0.618935
0.619548
0.618454
0.616368
0.614378
0.613508
0.61451
0.616925
0.61975
0.621949
0.622569
0.621379
0.619044
0.615656
0.611099
0.607339
0.597821
0.600472
0.603227
0.605634
0.607275
0.608445
0.609201
0.609338
0.609072
0.609063
0.60986
0.611067
0.611935
0.61202
0.611425
0.610345
0.608536
0.605971
0.603572
0.602068
0.592425
0.59385
0.595632
0.597669
0.59946
0.600811
0.601815
0.602636
0.603284
0.603894
0.604596
0.605134
0.605265
0.605001
0.604321
0.603085
0.601398
0.599557
0.598253
0.597421
0.587329
0.588249
0.589494
0.591065
0.592705
0.594242
0.595544
0.596637
0.59764
0.598586
0.599334
0.599711
0.599705
0.599294
0.598433
0.597248
0.595933
0.594681
0.593862
0.59331
0.582397
0.583067
0.584033
0.58534
0.586758
0.588229
0.589687
0.591039
0.592282
0.593451
0.59434
0.594765
0.594725
0.594249
0.593467
0.592538
0.59154
0.590626
0.590045
0.589639
0.577583
0.5781
0.578887
0.580023
0.58131
0.582698
0.584166
0.585671
0.587149
0.588556
0.589642
0.59018
0.590207
0.589862
0.589289
0.588586
0.587831
0.587158
0.586729
0.586411
0.572815
0.573226
0.573885
0.574898
0.576114
0.577457
0.578927
0.58052
0.582198
0.583877
0.585215
0.585953
0.586179
0.586057
0.585711
0.585222
0.584673
0.584195
0.583877
0.583618
0.568004
0.568339
0.568909
0.569844
0.571012
0.572343
0.573851
0.575546
0.577417
0.579392
0.581058
0.582098
0.582608
0.582745
0.582632
0.582371
0.582019
0.581702
0.581469
0.581251
0.563063
0.56334
0.563849
0.564738
0.565891
0.567248
0.568832
0.570672
0.572778
0.575097
0.577174
0.578604
0.579453
0.579886
0.580031
0.579999
0.579844
0.57967
0.579504
0.579316
0.5579
0.558133
0.558603
0.559478
0.560653
0.56208
0.563784
0.565822
0.568229
0.570974
0.573556
0.575453
0.576701
0.577474
0.577907
0.578113
0.578158
0.578114
0.578005
0.577837
0.552423
0.552621
0.553072
0.553961
0.555201
0.556743
0.558621
0.560926
0.563714
0.566994
0.570186
0.572639
0.574354
0.575516
0.576273
0.576734
0.576995
0.577076
0.577013
0.576858
0.54653
0.546699
0.547148
0.54808
0.549427
0.551134
0.553254
0.555904
0.559178
0.563117
0.567049
0.570166
0.572432
0.574041
0.575168
0.575937
0.576412
0.576613
0.576591
0.576444
0.5401
0.540245
0.540707
0.541712
0.543211
0.545143
0.547582
0.550674
0.554556
0.559305
0.564132
0.568043
0.570961
0.573098
0.574647
0.575752
0.576473
0.576799
0.576815
0.576672
0.532993
0.533113
0.533602
0.534712
0.536415
0.538642
0.541489
0.545142
0.54978
0.555518
0.561425
0.566284
0.569973
0.572733
0.574781
0.576273
0.577269
0.577724
0.577774
0.57763
0.525021
0.525122
0.525655
0.526905
0.528871
0.531472
0.534839
0.539196
0.54477
0.551715
0.558923
0.564911
0.569509
0.573002
0.575648
0.577595
0.578897
0.579488
0.579569
0.579421
0.515963
0.516063
0.51665
0.51806
0.520356
0.523445
0.527472
0.532711
0.539442
0.547859
0.556627
0.563954
0.569627
0.57398
0.577334
0.579808
0.581459
0.582194
0.582303
0.582148
0.505498
0.505579
0.506257
0.507891
0.510624
0.514334
0.519193
0.525539
0.533706
0.543917
0.55455
0.563452
0.570388
0.575755
0.579915
0.58302
0.58506
0.585944
0.586078
0.585911
0.49325
0.493317
0.494094
0.496041
0.499331
0.50384
0.509765
0.517512
0.527465
0.539858
0.552708
0.563455
0.571852
0.578398
0.583502
0.587328
0.589793
0.590826
0.590978
0.590795
0.478659
0.478714
0.479635
0.481998
0.486028
0.491587
0.4989
0.508444
0.52063
0.53567
0.551136
0.564017
0.574087
0.581982
0.588174
0.592811
0.595725
0.596897
0.597056
0.596855
0.460954
0.460999
0.462133
0.465081
0.470123
0.477103
0.486264
0.498143
0.513136
0.531378
0.549893
0.565207
0.577162
0.586577
0.593966
0.599511
0.602873
0.604159
0.604312
0.604091
0.438967
0.439009
0.440491
0.444323
0.450826
0.459805
0.471499
0.486461
0.504989
0.527068
0.549083
0.567107
0.58114
0.592232
0.600928
0.607414
0.611186
0.612538
0.612665
0.612423
0.410939
0.411002
0.413077
0.418336
0.427108
0.439024
0.454291
0.473347
0.496292
0.5229
0.54885
0.569814
0.58607
0.598932
0.609032
0.616431
0.62051
0.621854
0.621933
0.621672
0.373822
0.373987
0.377279
0.385168
0.397768
0.414177
0.434536
0.458968
0.487313
0.519132
0.549383
0.57344
0.591999
0.606691
0.61819
0.626364
0.630577
0.631812
0.631822
0.631548
0.321762
0.322754
0.329301
0.342598
0.361853
0.385213
0.412595
0.443822
0.478529
0.516131
0.550903
0.5781
0.598951
0.615399
0.6282
0.636899
0.640999
0.642022
0.641955
0.641676
0.245784
0.253128
0.268276
0.29171
0.320879
0.353551
0.389517
0.428565
0.470322
0.514179
0.55378
0.584314
0.607616
0.625954
0.639963
0.648963
0.652796
0.653595
0.65348
0.653235
0.164154
0.181518
0.206058
0.240259
0.279736
0.321848
0.366453
0.413497
0.462678
0.513436
0.558716
0.593331
0.619557
0.640099
0.655428
0.664303
0.667478
0.667997
0.667913
0.667751
0.0961029
0.116553
0.14885
0.192203
0.240774
0.291775
0.344757
0.399638
0.456092
0.513548
0.564227
0.602636
0.63153
0.653851
0.66978
0.678192
0.6809
0.681363
0.681344
0.681226
0.0403691
0.0624824
0.100317
0.150134
0.205894
0.264384
0.324782
0.386869
0.450172
0.514011
0.569817
0.61178
0.643096
0.666918
0.683453
0.691797
0.694293
0.694723
0.694731
0.694644
-0.00600267
0.0172879
0.0589215
0.113871
0.175411
0.240093
0.306863
0.375353
0.444925
0.51475
0.575445
0.620808
0.654454
0.679837
0.697096
0.705524
0.708137
0.708504
0.708537
0.708474
-0.0452864
-0.0213415
0.0231702
0.0821766
0.148578
0.218527
0.290836
0.365031
0.440343
0.515776
0.581132
0.629783
0.665717
0.692612
0.710742
0.71963
0.722299
0.722695
0.72273
0.722686
-0.0795198
-0.0551555
-0.00838014
0.053978
0.124488
0.199027
0.276259
0.35562
0.436224
0.516924
0.586738
0.638582
0.676778
0.705214
0.724267
0.733641
0.736515
0.736928
0.736966
0.736942
-0.110212
-0.0854838
-0.0368653
0.0283545
0.102416
0.180984
0.262636
0.346712
0.432239
0.517947
0.592059
0.64701
0.687389
0.717343
0.737286
0.747187
0.750328
0.750829
0.750925
0.750884
-0.138343
-0.113292
-0.0630989
0.0045947
0.0817761
0.163918
0.24955
0.337962
0.42812
0.518619
0.596907
0.654877
0.69737
0.728739
0.749576
0.759951
0.763331
0.763911
0.76394
0.763927
-0.164728
-0.139309
-0.0876929
-0.0178449
0.0621241
0.147461
0.236702
0.329115
0.423625
0.518733
0.601117
0.662055
0.706591
0.73933
0.760929
0.771711
0.775277
0.775902
0.775907
0.775884
-0.189751
-0.163965
-0.111066
-0.0393184
0.0431422
0.13135
0.223865
0.319966
0.418577
0.518153
0.604599
0.668496
0.715028
0.749021
0.771217
0.782305
0.785998
0.786648
0.786626
0.786585
-0.213856
-0.187622
-0.133684
-0.0600711
0.0246042
0.115388
0.21088
0.310384
0.412859
0.516765
0.60728
0.674183
0.722699
0.757837
0.780541
0.791795
0.795493
0.796139
0.79608
0.796019
-0.23718
-0.210476
-0.155544
-0.0802851
0.00636802
0.0994655
0.197653
0.300288
0.406386
0.514489
0.609109
0.679131
0.729688
0.765923
0.788986
0.800203
0.803882
0.804494
0.804427
0.804352
-0.259868
-0.232719
-0.176756
-0.100064
-0.0116357
0.0835284
0.18414
0.289626
0.399104
0.51126
0.610035
0.683358
0.736102
0.773429
0.796695
0.807756
0.811287
0.811835
0.811742
0.811654
-0.282057
-0.254392
-0.197444
-0.11945
-0.0294484
0.0675571
0.170335
0.278401
0.390999
0.507028
0.610001
0.686866
0.742054
0.780545
0.80388
0.814579
0.81784
0.818282
0.818139
0.818029
-0.303799
-0.275515
-0.217668
-0.138458
-0.0470545
0.0515655
0.156269
0.266639
0.382078
0.501755
0.608942
0.689633
0.747635
0.787478
0.810756
0.820838
0.823639
0.823914
0.823746
0.823627
-0.324941
-0.296074
-0.237364
-0.157072
-0.0644346
0.0356073
0.141989
0.254398
0.372383
0.495447
0.606783
0.691596
0.752871
0.794445
0.81767
0.826796
0.828827
0.828831
0.828637
0.828525
-0.345473
-0.316046
-0.256525
-0.175254
-0.0815416
0.019731
0.127572
0.241744
0.36198
0.488116
0.603462
0.692636
0.757717
0.801616
0.825081
0.833003
0.833737
0.833147
0.832906
0.832858
-0.365463
-0.335404
-0.275139
-0.192982
-0.0983201
0.00401151
0.113099
0.228772
0.350949
0.479814
0.59892
0.692599
0.762019
0.808986
0.833449
0.840394
0.839235
0.837274
0.836761
0.837029
-0.384751
-0.354133
-0.293154
-0.210205
-0.114718
-0.011474
0.0986579
0.215586
0.339397
0.470622
0.593129
0.691296
0.76551
0.816269
0.842887
0.850076
0.847349
0.842993
0.840805
0.8407
-0.403432
-0.372226
-0.310591
-0.226957
-0.130769
-0.0267684
0.0841941
0.20213
0.32726
0.460471
0.585955
0.688449
0.767899
0.823004
0.852888
0.862494
0.860478
0.853414
0.84586
0.832209
-0.421437
-0.389671
-0.327565
-0.243437
-0.146752
-0.0421935
0.0693049
0.187942
0.314027
0.448754
0.57679
0.68333
0.7687
0.828602
0.861942
0.875768
0.874979
0.861654
0.841168
0.830523
-0.438596
-0.406617
-0.34389
-0.259453
-0.162315
-0.0574119
0.0542098
0.173335
0.299987
0.435708
0.565656
0.675402
0.766985
0.831855
0.865991
0.879746
0.880919
0.856315
0.789009
0.758967
-0.454251
-0.42433
-0.359256
-0.274531
-0.176658
-0.071924
0.0392265
0.158536
0.285354
0.421443
0.552456
0.664299
0.761194
0.83198
0.859746
0.868464
0.854424
0.798619
0.729398
0.686935
-0.50909
-0.439948
-0.373153
-0.289798
-0.191436
-0.0872139
0.0242826
0.143256
0.269745
0.40548
0.53654
0.649281
0.747272
0.824858
0.826652
0.82638
0.772837
0.700261
0.622844
0.579786
-0.470769
-0.454838
-0.393896
-0.309443
-0.213316
-0.109135
0.0013326
0.119674
0.245216
0.379636
0.508976
0.620404
0.71117
0.794308
0.777427
0.659625
0.551666
0.476596
0.402177
0.431412
-0.501166
-0.472097
-0.41027
-0.326662
-0.230572
-0.126511
-0.0157694
0.101939
0.226427
0.359082
0.485698
0.592966
0.673986
0.718082
0.666844
0.513841
0.3834
0.290249
0.190629
0.239456
-0.524574
-0.492585
-0.429614
-0.34588
-0.249672
-0.145721
-0.0350673
0.0818032
0.20489
0.335153
0.458053
0.559076
0.631043
0.640259
0.530455
0.35484
0.200013
0.0795742
-0.0524781
-0.0203182
-0.547442
-0.51396
-0.449852
-0.365213
-0.268936
-0.165147
-0.0550317
0.0608646
0.182348
0.309817
0.428006
0.521047
0.577422
0.554917
0.39324
0.194727
0.00289457
-0.166116
-0.355226
-0.374603
-0.569716
-0.535808
-0.470837
-0.385438
-0.28904
-0.185491
-0.0760438
0.0387458
0.158353
0.28261
0.395337
0.480261
0.516818
0.457436
0.262558
0.050231
-0.16814
-0.358092
-0.600312
-0.896937
-0.592284
-0.558383
-0.492895
-0.407033
-0.31047
-0.20711
-0.0982667
0.0153729
0.132983
0.253739
0.36065
0.437035
0.451931
0.341107
0.148757
-0.0627871
-0.268157
-0.441117
-0.511071
-0.589642
-0.616094
-0.582141
-0.516373
-0.430309
-0.333717
-0.230644
-0.122501
-0.0101936
0.105089
0.221788
0.322464
0.387592
0.377246
0.232644
0.0475136
-0.144976
-0.309018
-0.402653
-0.426886
-0.442736
-0.641448
-0.607379
-0.541439
-0.455338
-0.358908
-0.2563
-0.149105
-0.0384408
0.0740828
0.186059
0.279993
0.330663
0.30249
0.131837
-0.0442948
-0.211652
-0.339318
-0.378752
-0.391587
-0.392897
-0.668547
-0.634271
-0.568156
-0.482116
-0.385993
-0.284084
-0.178097
-0.069418
0.0398977
0.146564
0.232804
0.268958
0.22059
0.038699
-0.128323
-0.278184
-0.355096
-0.372187
-0.373556
-0.373372
-0.697447
-0.66288
-0.596551
-0.510642
-0.414989
-0.313982
-0.209481
-0.10314
0.00254428
0.103375
0.180994
0.20518
0.120436
-0.0463839
-0.204984
-0.328434
-0.365403
-0.363799
-0.362935
-0.36235
-0.727865
-0.693025
-0.62652
-0.54083
-0.445809
-0.345942
-0.243225
-0.13958
-0.0379383
0.0565956
0.125478
0.132626
0.0292818
-0.125389
-0.265746
-0.342272
-0.352748
-0.355506
-0.356219
-0.355966
-0.759252
-0.724262
-0.657806
-0.572451
-0.478266
-0.379807
-0.279177
-0.178604
-0.0813665
0.0065796
0.0666878
0.058682
-0.0524475
-0.192523
-0.31025
-0.341931
-0.350507
-0.351991
-0.35179
-0.351515
-0.791142
-0.756039
-0.689959
-0.60511
-0.512017
-0.415255
-0.317057
-0.219926
-0.127454
-0.0459642
0.00375729
-0.0112337
-0.127282
-0.247508
-0.341379
-0.358018
-0.349604
-0.348687
-0.348638
-0.348403
-0.822632
-0.787635
-0.722112
-0.638212
-0.546518
-0.451813
-0.356415
-0.263067
-0.175726
-0.10043
-0.0606259
-0.0752769
-0.192266
-0.290352
-0.345125
-0.353885
-0.350004
-0.348055
-0.347224
-0.346913
-0.852177
-0.817874
-0.753285
-0.670835
-0.581003
-0.488784
-0.396598
-0.307345
-0.225382
-0.156241
-0.11999
-0.145806
-0.243137
-0.327591
-0.335338
-0.34888
-0.350144
-0.347271
-0.346176
-0.345622
-0.878153
-0.844929
-0.782348
-0.701794
-0.614435
-0.525233
-0.436741
-0.351903
-0.275299
-0.212523
-0.176291
-0.213757
-0.284696
-0.338897
-0.369052
-0.357865
-0.352581
-0.350956
-0.350376
-0.349782
-0.898442
-0.866931
-0.807237
-0.729671
-0.645529
-0.560014
-0.475755
-0.395706
-0.324366
-0.26795
-0.234187
-0.270128
-0.316098
-0.349382
-0.384619
-0.372826
-0.366665
-0.367078
-0.3665
-0.365709
-0.910791
-0.881976
-0.826046
-0.752578
-0.672783
-0.591801
-0.512419
-0.437535
-0.371508
-0.320952
-0.290251
-0.321323
-0.34496
-0.348392
-0.347427
-0.372945
-0.387354
-0.390607
-0.389301
-0.389354
-0.91257
-0.887796
-0.836808
-0.7687
-0.694494
-0.619168
-0.545377
-0.476078
-0.415501
-0.370265
-0.337885
-0.371222
-0.412949
-0.423798
-0.413835
-0.408658
-0.400399
-0.396071
-0.395013
-0.395012
-0.901571
-0.881624
-0.837342
-0.776432
-0.709176
-0.64062
-0.573263
-0.509928
-0.454889
-0.414239
-0.379962
-0.410009
-0.470576
-0.607486
-0.538111
-0.45087
-0.407355
-0.393146
-0.38807
-0.386129
-0.875788
-0.860794
-0.825828
-0.774516
-0.715822
-0.655136
-0.594859
-0.537688
-0.487867
-0.451158
-0.40918
-0.398107
-0.383898
-0.434573
-0.409507
-0.36309
-0.348997
-0.34542
-0.343358
-0.34153
-0.837758
-0.828086
-0.803058
-0.763099
-0.714414
-0.662445
-0.609515
-0.558257
-0.51285
-0.478697
-0.443069
-0.344106
-0.168358
-0.00181357
-0.0505124
-0.177869
-0.263364
-0.298183
-0.309858
-0.312273
-0.794195
-0.788692
-0.773891
-0.744993
-0.70691
-0.663388
-0.617435
-0.571334
-0.529011
-0.495275
-0.460985
-0.372234
-0.229333
-0.0752121
-0.15515
-0.288515
-0.378836
-0.423242
-0.440634
-0.446513
-0.754962
-0.75162
-0.74458
-0.725694
-0.69631
-0.659966
-0.619794
-0.577685
-0.536356
-0.503731
-0.481009
-0.515415
-0.695529
-0.923777
-0.978078
-0.981246
-0.930537
-0.867117
-0.809292
-0.807409
-0.726887
-0.724796
-0.721217
-0.709676
-0.686591
-0.655198
-0.618638
-0.578068
-0.536135
-0.497739
-0.479847
-0.546366
-0.846915
-1.30754
-1.75456
-1.83934
-1.72673
-1.52499
-1.36304
-1.26812
-0.705778
-0.705032
-0.703886
-0.698108
-0.680442
-0.651883
-0.615878
-0.574347
-0.527604
-0.475178
-0.438121
-0.422541
-0.492012
-0.5434
-0.578376
-0.504608
-0.39926
-0.307948
-0.224825
-0.176294
-0.693312
-0.693041
-0.692461
-0.689757
-0.677204
-0.650197
-0.612775
-0.56857
-0.515439
-0.455542
-0.397944
-0.342864
-0.225082
0.0416651
0.337176
0.603492
0.788653
0.878005
0.925542
0.944139
-0.68474
-0.684563
-0.683977
-0.682856
-0.675118
-0.650351
-0.611708
-0.562351
-0.504192
-0.432311
-0.347319
-0.259543
-0.0338571
0.370467
0.786632
1.18636
1.43155
1.53587
1.56444
1.56564
-0.679738
-0.679491
-0.678731
-0.678114
-0.673945
-0.653557
-0.612805
-0.558764
-0.49305
-0.409962
-0.311697
-0.206959
0.0304192
0.418607
0.814556
1.16845
1.40038
1.4987
1.52398
1.52613
-0.679056
-0.678879
-0.67829
-0.677178
-0.676814
-0.661226
-0.617312
-0.55887
-0.48688
-0.399655
-0.29471
-0.189928
0.00665721
0.333361
0.637215
0.893418
1.05859
1.13924
1.17892
1.19326
-0.680522
-0.681494
-0.684191
-0.688661
-0.691233
-0.672984
-0.625058
-0.563461
-0.487925
-0.395355
-0.294228
-0.19818
-0.04534
0.226381
0.477343
0.676529
0.813778
0.894328
0.939904
0.956847
-0.682354
-0.683638
-0.685045
-0.686318
-0.687219
-0.670546
-0.632046
-0.574798
-0.496176
-0.400697
-0.304205
-0.215668
-0.0949176
0.135573
0.353841
0.529115
0.667744
0.753227
0.794867
0.807158
-0.708008
-0.706951
-0.693042
-0.654379
-0.622479
-0.634539
-0.641204
-0.592736
-0.508775
-0.409328
-0.318004
-0.238082
-0.14325
0.0492334
0.235819
0.390572
0.513696
0.589121
0.622523
0.630613
-0.765585
-0.761777
-0.751281
-0.726012
-0.708363
-0.712111
-0.700487
-0.62508
-0.525134
-0.419096
-0.328055
-0.251984
-0.177371
-0.0307738
0.1254
0.25075
0.350385
0.409595
0.434697
0.439284
-0.883489
-0.896657
-0.93493
-0.979069
-0.981089
-0.941711
-0.827813
-0.678081
-0.542202
-0.424698
-0.332917
-0.262602
-0.202002
-0.0900584
0.0316621
0.128747
0.204245
0.246956
0.263765
0.266581
-1.00868
-1.03494
-1.08444
-1.12249
-1.12282
-1.06835
-0.903935
-0.707297
-0.545488
-0.421262
-0.331295
-0.266518
-0.211998
-0.13424
-0.042682
0.0312914
0.0879447
0.118494
0.130823
0.130847
-0.985402
-1.00527
-1.04232
-1.07302
-1.0736
-1.01301
-0.846109
-0.664593
-0.514174
-0.398619
-0.318781
-0.264357
-0.222462
-0.166601
-0.101744
-0.046376
-0.00605024
0.0164391
0.0234394
0.0228545
-0.757131
-0.777854
-0.814158
-0.850596
-0.859023
-0.802192
-0.675569
-0.548948
-0.441065
-0.355964
-0.294536
-0.253236
-0.226326
-0.190355
-0.14602
-0.108517
-0.0817382
-0.068385
-0.064126
-0.0657169
-0.407821
-0.421216
-0.447437
-0.480435
-0.50195
-0.491931
-0.452014
-0.398739
-0.347176
-0.299488
-0.260786
-0.233515
-0.216955
-0.197631
-0.17486
-0.157244
-0.146995
-0.144109
-0.143937
-0.145112
-0.103542
-0.110338
-0.127653
-0.157105
-0.1946
-0.226499
-0.247899
-0.257377
-0.254232
-0.240814
-0.2241
-0.208058
-0.197075
-0.192481
-0.191152
-0.193303
-0.197236
-0.202936
-0.205174
-0.205675
0.0668255
0.0631542
0.0507563
0.0241474
-0.0184821
-0.0708104
-0.118237
-0.155012
-0.178571
-0.189796
-0.190147
-0.183118
-0.175628
-0.183404
-0.196436
-0.209791
-0.223723
-0.232588
-0.235097
-0.235237
0.124115
0.121728
0.112381
0.0904537
0.0530018
0.00487013
-0.0454819
-0.0909615
-0.126797
-0.152114
-0.166768
-0.172142
-0.173258
-0.185293
-0.199815
-0.214795
-0.227504
-0.233907
-0.235238
-0.235358
0.123118
0.121477
0.114786
0.0986469
0.0704811
0.0326132
-0.0105081
-0.0532472
-0.0921146
-0.125865
-0.154563
-0.180252
-0.194776
-0.199183
-0.202972
-0.209321
-0.215058
-0.217476
-0.217904
-0.218241
0.10149
0.100413
0.0958965
0.0847981
0.0650022
0.0372393
0.0033113
-0.0329574
-0.0695711
-0.106517
-0.145465
-0.190831
-0.218787
-0.209268
-0.20104
-0.196348
-0.19596
-0.195677
-0.195534
-0.195822
0.0766121
0.0759698
0.0730654
0.065741
0.0522915
0.0326156
0.00724779
-0.0217427
-0.0532443
-0.0881557
-0.128618
-0.178171
-0.203397
-0.189035
-0.175265
-0.170881
-0.169631
-0.169527
-0.169672
-0.169979
0.0547051
0.054302
0.0525281
0.0478836
0.039033
0.0255209
0.00737259
-0.0143901
-0.0390658
-0.0668404
-0.0982124
-0.131347
-0.143123
-0.137431
-0.134092
-0.136364
-0.139159
-0.140853
-0.141462
-0.141723
0.0374432
0.0372093
0.036157
0.033298
0.0276378
0.0186683
0.00621866
-0.00915109
-0.0265206
-0.0448723
-0.0609047
-0.0717857
-0.0726755
-0.0754049
-0.0863222
-0.0975708
-0.10573
-0.109696
-0.110955
-0.111141
0.0241695
0.0240741
0.0235081
0.0219092
0.0185607
0.0129643
0.0049562
-0.00504827
-0.0159395
-0.0255699
-0.0275315
-0.0176744
-0.0033454
-0.0227207
-0.0442058
-0.0605046
-0.0708604
-0.0758842
-0.0776437
-0.0777921
0.0142668
0.0142491
0.0139872
0.0132172
0.0114281
0.00829881
0.00362209
-0.00224223
-0.0081365
-0.0113201
-0.00506446
0.0121657
0.0254631
0.00721881
-0.0145605
-0.0300456
-0.0387195
-0.0427
-0.0444362
-0.0447218
0.00687024
0.00690987
0.0068442
0.00654827
0.0057848
0.00432605
0.00210043
-0.000641176
-0.00323856
-0.00335085
0.00387228
0.0185307
0.0271068
0.0139449
-0.00093314
-0.0101103
-0.0145067
-0.0163774
-0.0177665
-0.0181331
0.000963057
0.00101514
0.000996651
0.00109162
0.00121618
0.00114772
0.000835472
0.000286589
-0.000302722
-0.00054611
0.000408523
0.00376638
0.00753569
0.00387909
0.00268098
0.00203598
0.00092562
-0.00101406
-0.00222358
-0.00226488
-0.129147
0.0367723
0.230213
0.39899
0.533447
0.638837
0.725708
0.799737
0.833644
0.81041
0.170636
0.290518
0.419393
0.530585
0.624086
0.701271
0.763739
0.808137
0.830361
0.842541
0.387497
0.469646
0.557704
0.635333
0.70202
0.757793
0.802168
0.834627
0.858157
0.87621
0.547005
0.605857
0.666818
0.72347
0.772663
0.814461
0.848825
0.876278
0.898954
0.917298
0.671534
0.714293
0.759941
0.803417
0.841847
0.875431
0.904204
0.928182
0.948496
0.966357
0.775288
0.807959
0.845861
0.881201
0.913662
0.94278
0.968243
0.989665
1.00747
1.02483
0.867485
0.896062
0.929893
0.961909
0.991758
1.01885
1.04254
1.06221
1.07769
1.09477
0.955864
0.984995
1.01892
1.05089
1.08044
1.10697
1.1298
1.14826
1.16161
1.17865
1.05105
1.08421
1.12081
1.15435
1.18436
1.21051
1.23244
1.2497
1.26155
1.27895
1.16597
1.20377
1.24239
1.27661
1.30593
1.33066
1.35102
1.3669
1.37835
1.39642
1.31087
1.3494
1.38552
1.41619
1.44185
1.46394
1.48298
1.49851
1.51093
1.52892
1.48592
1.51753
1.5437
1.56614
1.58611
1.60482
1.62253
1.639
1.65435
1.67241
1.67451
1.69171
1.70674
1.72297
1.73887
1.7534
1.7666
1.78052
1.79806
1.81821
1.85622
1.86576
1.8773
1.8881
1.89739
1.90697
1.91775
1.92911
1.94047
1.95583
2.06345
2.06711
2.05217
2.03736
2.03108
2.03675
2.05523
2.08554
2.11772
2.14437
2.36977
2.23491
2.15827
2.11588
2.09846
2.10242
2.12982
2.18623
2.28885
2.51322
0.684599
0.682471
0.677988
0.669366
0.657145
0.645022
0.634801
0.626917
0.621316
0.618085
0.617758
0.620523
0.625648
0.632885
0.642283
0.653829
0.666484
0.677522
0.683635
0.686691
0.609045
0.614892
0.621227
0.625722
0.628196
0.627877
0.625148
0.62135
0.617858
0.615622
0.615504
0.617729
0.621414
0.625718
0.629535
0.631426
0.630494
0.627017
0.621855
0.615235
0.600608
0.602904
0.60631
0.609309
0.611388
0.612891
0.613655
0.613351
0.612345
0.611489
0.611695
0.613152
0.61499
0.616312
0.616504
0.615622
0.614079
0.611747
0.608487
0.605568
0.595079
0.596166
0.598
0.600382
0.60241
0.603845
0.604876
0.605643
0.606066
0.606317
0.606844
0.607684
0.608307
0.608392
0.607993
0.607154
0.605692
0.603613
0.601531
0.600149
0.589853
0.590515
0.591625
0.593334
0.595121
0.596761
0.598068
0.599101
0.600008
0.600832
0.601602
0.602192
0.602414
0.602269
0.601718
0.600674
0.599255
0.597719
0.596405
0.595626
0.584847
0.585307
0.586095
0.587397
0.588891
0.590417
0.591895
0.593212
0.594376
0.595471
0.596433
0.597045
0.597225
0.596976
0.596298
0.595323
0.594208
0.593084
0.592174
0.591658
0.579982
0.580326
0.580938
0.582011
0.583312
0.584696
0.58615
0.587618
0.589022
0.590347
0.591513
0.592256
0.592474
0.59223
0.591654
0.590895
0.590058
0.589202
0.588536
0.588158
0.575201
0.575468
0.575963
0.576877
0.578054
0.579362
0.580774
0.582287
0.583864
0.585435
0.586848
0.587779
0.588129
0.588047
0.587682
0.587145
0.586514
0.585888
0.585404
0.585116
0.570423
0.570635
0.571047
0.57185
0.572949
0.57421
0.575614
0.577178
0.578891
0.580705
0.582413
0.583615
0.584212
0.584377
0.584248
0.583935
0.583514
0.583082
0.582739
0.582514
0.565558
0.565729
0.566082
0.566813
0.567866
0.569108
0.570542
0.572193
0.574068
0.576145
0.578205
0.579773
0.580702
0.58116
0.581289
0.581211
0.581007
0.58075
0.580524
0.580345
0.560517
0.560655
0.560967
0.561654
0.562692
0.563959
0.565463
0.567244
0.569335
0.571731
0.574222
0.576246
0.577572
0.578372
0.578795
0.578969
0.578978
0.578893
0.578766
0.578622
0.55521
0.555321
0.555605
0.556273
0.55733
0.558669
0.560286
0.562252
0.564626
0.567426
0.570448
0.57302
0.574815
0.576012
0.576768
0.577215
0.57745
0.577537
0.577497
0.57738
0.549539
0.549626
0.549894
0.550568
0.55168
0.553133
0.554919
0.557137
0.559874
0.563183
0.566855
0.570086
0.572438
0.574093
0.575225
0.575994
0.57648
0.57673
0.576768
0.576672
0.543393
0.54346
0.543721
0.544423
0.545628
0.547242
0.54926
0.55181
0.555009
0.558953
0.563418
0.56744
0.570454
0.572649
0.574215
0.575344
0.576107
0.576535
0.576646
0.576567
0.536642
0.536688
0.536951
0.537704
0.539043
0.540873
0.543197
0.546172
0.549955
0.554683
0.560112
0.565084
0.568885
0.571719
0.573795
0.575326
0.576411
0.577032
0.577216
0.57715
0.529128
0.529157
0.529425
0.53025
0.531767
0.53388
0.536595
0.540109
0.544622
0.550314
0.556913
0.563024
0.567757
0.571343
0.574025
0.576041
0.57749
0.578315
0.578571
0.578515
0.520649
0.520662
0.520937
0.521862
0.523615
0.526073
0.529292
0.533488
0.53891
0.545785
0.553801
0.561273
0.56711
0.57158
0.574977
0.577572
0.579434
0.580487
0.580816
0.580767
0.510902
0.510887
0.511217
0.512285
0.514323
0.51724
0.521098
0.526151
0.532706
0.541035
0.550763
0.559851
0.566992
0.572504
0.576738
0.580008
0.582352
0.583653
0.584054
0.584008
0.499586
0.499547
0.499923
0.501185
0.503595
0.507102
0.511773
0.517911
0.525884
0.536003
0.547791
0.558792
0.567455
0.574186
0.579404
0.583449
0.586343
0.587909
0.58838
0.588332
0.486214
0.486147
0.486604
0.488119
0.491016
0.495291
0.501015
0.508545
0.518307
0.530632
0.54489
0.558134
0.568557
0.57669
0.583053
0.587992
0.591497
0.593336
0.593866
0.593812
0.470128
0.470032
0.470615
0.472485
0.476033
0.481337
0.488457
0.497804
0.509842
0.524885
0.542087
0.557932
0.570365
0.58009
0.587748
0.593698
0.597866
0.59997
0.600542
0.600475
0.450381
0.450259
0.451046
0.453432
0.457899
0.464632
0.473657
0.485426
0.500392
0.518785
0.539457
0.558267
0.572951
0.584449
0.593522
0.600605
0.60545
0.607786
0.608373
0.608284
0.425541
0.425403
0.426526
0.429716
0.435575
0.444399
0.456129
0.47119
0.489935
0.51242
0.537126
0.559247
0.576388
0.589807
0.600421
0.608684
0.614171
0.616666
0.617229
0.61711
0.393279
0.393164
0.394903
0.399485
0.407656
0.419743
0.435438
0.45502
0.4786
0.506
0.535288
0.561008
0.580745
0.596187
0.608404
0.617846
0.623842
0.626375
0.626865
0.626712
0.349411
0.349462
0.352556
0.360039
0.372499
0.389904
0.411475
0.437147
0.466746
0.499875
0.534208
0.563709
0.586106
0.603586
0.617385
0.627895
0.634147
0.636546
0.636914
0.636727
0.286101
0.287322
0.294885
0.308844
0.329148
0.355016
0.384863
0.418294
0.455016
0.494525
0.534178
0.567499
0.592502
0.61193
0.627148
0.638404
0.644609
0.646634
0.646832
0.646625
0.211081
0.212874
0.227351
0.251321
0.282605
0.318467
0.357329
0.399014
0.443344
0.489847
0.535606
0.573576
0.601857
0.623672
0.640494
0.652419
0.658338
0.660048
0.660201
0.660081
0.133715
0.139963
0.161337
0.195604
0.237329
0.282891
0.33073
0.380715
0.432728
0.48632
0.538331
0.581061
0.612647
0.636894
0.655491
0.667593
0.672765
0.673974
0.674068
0.674023
0.0704145
0.0789922
0.104945
0.14626
0.196171
0.249999
0.305926
0.363677
0.423022
0.483445
0.54144
0.588637
0.62328
0.649581
0.669179
0.681331
0.686221
0.687335
0.687453
0.687465
0.0189358
0.0281118
0.0576273
0.104199
0.160283
0.220777
0.283551
0.348167
0.414212
0.481026
0.544699
0.596147
0.633645
0.661902
0.68266
0.695102
0.699771
0.700855
0.701051
0.701113
-0.0241155
-0.0146594
0.0173101
0.0678896
0.129046
0.195074
0.263656
0.334273
0.406345
0.479075
0.54812
0.603642
0.643918
0.674099
0.695996
0.708816
0.713645
0.714942
0.715163
0.715254
-0.0611099
-0.0515492
-0.0177441
0.0360442
0.101397
0.172146
0.245794
0.32174
0.399296
0.477517
0.551645
0.611085
0.654069
0.686149
0.709292
0.722787
0.72795
0.729348
0.729567
0.729658
-0.0937313
-0.0841443
-0.0489352
0.00756064
0.0764315
0.151258
0.229399
0.310152
0.392738
0.476089
0.555061
0.618292
0.663917
0.697886
0.722228
0.736499
0.742062
0.743564
0.743753
0.743817
-0.123275
-0.11366
-0.0773012
-0.0184685
0.0534206
0.131821
0.21396
0.299076
0.386318
0.474527
0.55816
0.62507
0.67326
0.709015
0.734561
0.749524
0.755537
0.75716
0.757374
0.757429
-0.150638
-0.140988
-0.103635
-0.042761
0.0318041
0.11337
0.199091
0.28819
0.379771
0.472592
0.560741
0.631246
0.681926
0.719402
0.746033
0.761652
0.768082
0.769774
0.769964
0.769987
-0.176394
-0.166691
-0.128412
-0.0658172
0.0111629
0.0955597
0.184513
0.277253
0.37287
0.470084
0.562649
0.636721
0.689847
0.728969
0.756616
0.77271
0.779414
0.781173
0.781348
0.781338
-0.201043
-0.191208
-0.152057
-0.0879381
-0.00878591
0.0781402
0.170014
0.266081
0.365464
0.466877
0.563784
0.641442
0.69701
0.737701
0.766227
0.782684
0.789523
0.791297
0.791455
0.791413
-0.224861
-0.214819
-0.174942
-0.10932
-0.028238
0.0609436
0.155456
0.254568
0.357449
0.46287
0.564065
0.645374
0.703444
0.745679
0.774953
0.791639
0.798464
0.800211
0.800339
0.800262
-0.24796
-0.237723
-0.197127
-0.13011
-0.04732
0.0438883
0.140767
0.242645
0.348759
0.457982
0.563422
0.648503
0.709207
0.753033
0.782941
0.799676
0.806398
0.808066
0.808161
0.808048
-0.27053
-0.260013
-0.218676
-0.150404
-0.0660891
0.0269232
0.125915
0.230287
0.339369
0.452178
0.561793
0.650801
0.714364
0.759905
0.790383
0.807003
0.81347
0.814991
0.815035
0.814912
-0.292525
-0.28175
-0.239716
-0.170257
-0.0845646
0.0100449
0.110916
0.217515
0.329287
0.445431
0.559123
0.652221
0.718966
0.766459
0.797493
0.813779
0.819805
0.821097
0.821065
0.820933
-0.314019
-0.302957
-0.26018
-0.189664
-0.102739
-0.00672592
0.0957987
0.204373
0.318549
0.437747
0.555361
0.652695
0.723014
0.772834
0.80453
0.82026
0.825519
0.826435
0.826319
0.826184
-0.33486
-0.323578
-0.280069
-0.208588
-0.120576
-0.0233274
0.0806203
0.190922
0.307217
0.429171
0.550473
0.652137
0.726444
0.77912
0.811825
0.826866
0.830945
0.831165
0.830891
0.830773
-0.355188
-0.343577
-0.29938
-0.227019
-0.138051
-0.0397279
0.065464
0.177233
0.295369
0.41977
0.544455
0.650434
0.729119
0.785291
0.81966
0.83425
0.836756
0.835618
0.834891
0.834811
-0.374845
-0.362934
-0.318088
-0.244923
-0.155092
-0.0558481
0.0504053
0.163422
0.283106
0.409599
0.537333
0.647469
0.73084
0.79115
0.82808
0.84314
0.844303
0.841013
0.838754
0.838026
-0.393897
-0.381697
-0.336146
-0.262251
-0.171667
-0.0716228
0.0355239
0.149562
0.270536
0.398788
0.529164
0.643124
0.731353
0.79632
0.83664
0.853733
0.855215
0.850229
0.843895
0.83589
-0.412264
-0.399825
-0.353648
-0.27916
-0.187983
-0.0873171
0.0204965
0.135272
0.25723
0.386861
0.519451
0.636885
0.73022
0.80054
0.844804
0.865536
0.869997
0.864699