/*--------------------------------*- C++ -*----------------------------------*\
| =========                 |                                                 |
| \\      /  F ield         | OpenFOAM: The Open Source CFD Toolbox           |
|  \\    /   O peration     | Version:  2112                                  |
|   \\  /    A nd           | Website:  www.openfoam.com                      |
|    \\/     M anipulation  |                                                 |
\*---------------------------------------------------------------------------*/
FoamFile
{
    version     2.0;
    format      ascii;
    arch        "LSB;label=32;scalar=64";
    class       surfaceScalarField;
    location    "65.5";
    object      phi;
}
// * * * * * * * * * * * * * * * * * * * * * * * * * * * * * * * * * * * * * //

dimensions      [0 3 -1 0 0 0 0];

oriented        oriented;

internalField   nonuniform List<scalar> 
17370
(
-0.0916062
0.0960093
0.284608
-0.0775945
0.0594198
0.36495
-0.0430419
0.031622
0.427588
-0.0223181
0.0162656
0.505304
-0.0116728
0.00879947
0.602275
-0.00658886
0.00510429
0.720542
-0.00386759
0.00298731
0.863787
-0.00221422
0.00163572
1.03603
-0.0011037
0.000682111
1.24292
-0.000269957
-0.000124663
1.49159
0.000513859
-0.000928921
1.49161
0.00133463
-0.00183984
1.2432
0.00238954
-0.00313059
1.03638
0.00398593
-0.0052032
0.864124
0.00667648
-0.00887771
0.721259
0.0117409
-0.0163185
0.603792
0.022355
-0.0316412
0.508726
0.0430419
-0.0594083
0.432535
0.0775873
-0.0960028
0.365191
0.0916212
0.19739
-0.127092
0.0880247
0.0390677
-0.364357
0.354032
-0.0714735
0.0817986
-0.446654
0.454257
-0.0791678
0.0715651
-0.521012
0.529112
-0.0637107
0.0556103
-0.612992
0.620762
-0.0482222
0.0404519
-0.727165
0.733687
-0.0338393
0.0273176
-0.867582
0.872436
-0.0221126
0.0172587
-1.03857
1.04191
-0.0135585
0.0102171
-1.24472
1.24713
-0.00766417
0.00525559
-1.49284
1.49486
-0.00328875
0.0012714
-1.49269
1.49452
0.000550621
-0.00237289
-1.2441
1.24602
0.00434852
-0.00626187
-1.03761
1.04008
0.00859811
-0.0110758
-0.866186
0.86981
0.0143306
-0.017955
-0.724593
0.729744
0.0227374
-0.0278888
-0.609063
0.615631
0.0343598
-0.0409276
-0.515122
0.522456
0.0486458
-0.0559797
-0.43988
0.447655
0.0639994
-0.0717748
-0.374705
0.377355
0.0792652
-0.0819152
-0.256894
0.224431
0.0715647
-0.0391014
-0.0688145
0.0592044
0.00961005
-0.0520976
0.058921
-0.374841
0.368018
-0.058071
0.0542271
-0.45395
0.457794
-0.0487386
0.0441778
-0.527622
0.532183
-0.0396262
0.0357284
-0.620807
0.624704
-0.0315128
0.0275146
-0.734665
0.738664
-0.0231536
0.0192622
-0.873962
0.877853
-0.0152122
0.0117507
-1.04337
1.04683
-0.00822611
0.00518895
-1.24866
1.25169
-0.00197678
-0.00100806
-1.49695
1.49993
0.00397047
-0.00712114
-1.49742
1.50057
0.0100678
-0.0134685
-1.25006
1.25346
0.0168024
-0.0207049
-1.04564
1.04955
0.0244659
-0.0286978
-0.877128
0.88136
0.0325921
-0.0367054
-0.738974
0.743087
0.0405188
-0.0449875
-0.625962
0.630431
0.0494791
-0.0548997
-0.535009
0.54043
0.0586649
-0.0594217
-0.458068
0.458825
0.0524685
-0.032073
-0.336752
0.316357
0.00967609
-0.0686549
0.0589789
-0.0534174
0.0493082
0.0041092
-0.0332278
0.0436444
-0.358577
0.34816
-0.0473145
0.0467236
-0.45959
0.460181
-0.0437917
0.0405761
-0.536143
0.539359
-0.0368957
0.0335376
-0.628408
0.631766
-0.0298993
0.0266534
-0.742049
0.745294
-0.0231944
0.0199908
-0.881353
0.884556
-0.0163908
0.0130326
-1.05026
1.05362
-0.00932655
0.00591595
-1.25496
1.25837
-0.00211947
-0.00150085
-1.50329
1.50691
0.00508898
-0.00879226
-1.50406
1.50776
0.0120758
-0.0156072
-1.25701
1.26055
0.0187847
-0.0221747
-1.05325
1.05664
0.0251918
-0.0284659
-0.884963
0.888237
0.0315627
-0.035054
-0.746764
0.750256
0.0382879
-0.0418391
-0.634545
0.638097
0.0449426
-0.047749
-0.544568
0.547374
0.0482095
-0.0443585
-0.456934
0.453083
0.0337198
-0.0163921
-0.297028
0.2797
0.00418241
-0.0531255
0.0489431
-0.0461414
0.0435889
0.00255257
-0.0230264
0.033365
-0.337578
0.327239
-0.0390888
0.0400309
-0.459936
0.458994
-0.0387735
0.0364406
-0.54202
0.544353
-0.0337929
0.0312409
-0.63474
0.637292
-0.0282571
0.0254021
-0.748386
0.751241
-0.0221562
0.0191345
-0.887619
0.890641
-0.0157746
0.0126323
-1.0568
1.05994
-0.00906662
0.00565906
-1.26177
1.26518
-0.00174181
-0.00205985
-1.51064
1.51444
0.0058198
-0.00961092
-1.51154
1.51533
0.0128494
-0.0161847
-1.264
1.26733
0.0190892
-0.0221742
-1.05984
1.06293
0.0249497
-0.027947
-0.891424
0.894422
0.0305978
-0.033379
-0.753426
0.756207
0.0357611
-0.0382366
-0.641042
0.643517
0.0404219
-0.0414854
-0.5492
0.550264
0.0403411
-0.0343221
-0.447946
0.441927
0.0236589
-0.0103914
-0.264496
0.251228
0.00264345
-0.0456945
0.043051
-0.0414738
0.0396772
0.00179665
-0.0169179
0.0261881
-0.317384
0.308113
-0.0327689
0.0348781
-0.457443
0.455334
-0.0344337
0.0327267
-0.546389
0.548096
-0.0304897
0.0283526
-0.639612
0.641749
-0.025904
0.023515
-0.753851
0.75624
-0.0206881
0.0179305
-0.893507
0.896265
-0.014734
0.0116884
-1.063
1.06604
-0.00821187
0.00488682
-1.26851
1.27183
-0.001039
-0.00271294
-1.51821
1.52196
0.00641113
-0.0100999
-1.51907
1.52276
0.0132105
-0.0163953
-1.27059
1.27378
0.0191393
-0.0219835
-1.06595
1.06879
0.0244221
-0.026926
-0.897195
0.899699
0.029051
-0.0312396
-0.758636
0.760825
0.0331601
-0.0351748
-0.645733
0.647748
0.0366669
-0.0368464
-0.550833
0.551012
0.0344265
-0.0274134
-0.435316
0.428302
0.017708
-0.00749568
-0.23963
0.229418
0.00190785
-0.0408357
0.0389279
-0.0381316
0.0367844
0.00134716
-0.0129134
0.020893
-0.299491
0.291511
-0.0276398
0.030546
-0.452793
0.449887
-0.0307389
0.0296022
-0.549544
0.55068
-0.0275908
0.0256518
-0.643816
0.645755
-0.0234251
0.0212699
-0.758495
0.76065
-0.0187464
0.0162639
-0.898828
0.901311
-0.0133285
0.0104594
-1.06895
1.07182
-0.00711579
0.00388789
-1.27507
1.2783
-0.000144721
-0.0034913
-1.52563
1.52927
0.00706076
-0.0106038
-1.52636
1.5299
0.0135632
-0.0165415
-1.27688
1.27986
0.0190317
-0.0215242
-1.07151
1.074
0.0236077
-0.0257266
-0.901998
0.904117
0.0275487
-0.0294446
-0.762852
0.764748
0.0311095
-0.0328541
-0.649604
0.651349
0.033677
-0.0331147
-0.550823
0.550261
0.0297645
-0.0224256
-0.421069
0.41373
0.0138871
-0.00579894
-0.220369
0.212281
0.00148271
-0.0372596
0.0357769
-0.0356083
0.0345723
0.00103595
-0.0100828
0.0168333
-0.28417
0.277419
-0.0233254
0.0266902
-0.446729
0.443364
-0.027457
0.0267509
-0.551593
0.552299
-0.0249709
0.0231739
-0.64766
0.649457
-0.0210954
0.019074
-0.762737
0.764759
-0.0166959
0.0143625
-0.903656
0.905989
-0.011618
0.00892738
-1.07454
1.07723
-0.00576269
0.00267542
-1.28142
1.28451
0.000926638
-0.0044266
-1.53281
1.53631
0.0078433
-0.0111986
-1.53334
1.5367
0.0139536
-0.0166673
-1.28272
1.28543
0.0188923
-0.0210911
-1.07638
1.07858
0.0229305
-0.0248059
-0.906126
0.908001
0.0264137
-0.0280818
-0.766519
0.768187
0.0295391
-0.0309515
-0.652945
0.654358
0.0312668
-0.0299756
-0.549349
0.548058
0.0259992
-0.0187283
-0.4064
0.399129
0.0112759
-0.00467649
-0.205007
0.198408
0.00120083
-0.0344516
0.0332508
-0.0336628
0.0328572
0.00080562
-0.00798404
0.0136573
-0.271235
0.265562
-0.0196687
0.023235
-0.439887
0.436321
-0.0244813
0.0240218
-0.552911
0.55337
-0.0225132
0.0208253
-0.651247
0.652935
-0.018843
0.0169111
-0.766733
0.768665
-0.0146339
0.0123956
-0.908213
0.910451
-0.00975895
0.00718148
-1.07979
1.08237
-0.00416204
0.00121489
-1.28747
1.29042
0.00222292
-0.00555791
-1.5397
1.54304
0.00879198
-0.0119278
-1.53993
1.54306
0.0144664
-0.0169364
-1.28803
1.2905
0.0189449
-0.0209124
-1.08073
1.0827
0.0225436
-0.0242028
-0.909787
0.911446
0.0256265
-0.0271037
-0.769751
0.771229
0.0283679
-0.029401
-0.655561
0.656594
0.0293441
-0.0273819
-0.546436
0.544474
0.0229983
-0.0159876
-0.391984
0.384973
0.00944259
-0.00390124
-0.192388
0.186847
0.00100613
-0.03216
0.0311539
-0.0321492
0.0315215
0.000627699
-0.00636684
0.0111189
-0.260376
0.255624
-0.0165416
0.0201114
-0.432749
0.42918
-0.0216836
0.0214501
-0.553749
0.553983
-0.0201746
0.0185492
-0.654638
0.656263
-0.0166236
0.0147416
-0.770568
0.77245
-0.0125242
0.0103466
-0.912588
0.914765
-0.0077831
0.00528041
-1.08483
1.08733
-0.00235645
-0.000475637
-1.29325
1.29609
0.00376773
-0.00693589
-1.54626
1.54942
0.00997912
-0.0128988
-1.54607
1.54899
0.0152397
-0.0174946
-1.29286
1.29512
0.0193043
-0.0210514
-1.08463
1.08638
0.0224872
-0.0239491
-0.913027
0.914488
0.0252084
-0.0265124
-0.77261
0.773914
0.02763
-0.0282445
-0.657409
0.658023
0.0278168
-0.02529
-0.542245
0.539718
0.0206561
-0.0139736
-0.378136
0.371454
0.00814614
-0.00336083
-0.181722
0.176937
0.000871174
-0.0302258
0.0293546
-0.0309732
0.0304894
0.000483762
-0.00506632
0.00902386
-0.251293
0.247336
-0.0138119
0.0172356
-0.425688
0.422264
-0.0189928
0.01895
-0.554159
0.554202
-0.0178718
0.0162811
-0.657934
0.659525
-0.0143791
0.0125133
-0.774318
0.776183
-0.0103157
0.00816291
-0.916848
0.919
-0.00563794
0.00318336
-1.08973
1.09218
-0.000330127
-0.00242612
-1.29882
1.30157
0.00559586
-0.00861452
-1.55248
1.5555
0.0114821
-0.0142017
-1.55178
1.5545
0.0163554
-0.0184015
-1.29727
1.29932
0.0200174
-0.0215501
-1.08811
1.08964
0.0227998
-0.0240796
-0.91588
0.91716
0.0251903
-0.0263358
-0.775129
0.776274
0.0272632
-0.0274972
-0.658441
0.658675
0.0266728
-0.0236669
-0.536968
0.533962
0.018881
-0.0125191
-0.364951
0.358589
0.00723828
-0.00298921
-0.172453
0.168204
0.000779941
-0.0285389
0.027759
-0.0300729
0.0297108
0.000362124
-0.00397752
0.00723704
-0.243749
0.24049
-0.0113781
0.0145453
-0.418979
0.415812
-0.0163616
0.0164725
-0.554212
0.554101
-0.0154793
0.0139619
-0.661153
0.66267
-0.0120568
0.0101752
-0.778046
0.779928
-0.00795945
0.00579632
-0.921064
0.923227
-0.00327276
0.000833336
-1.09454
1.09698
0.00198717
-0.00468674
-1.30424
1.30693
0.00776411
-0.0106589
-1.55841
1.5613
0.0133709
-0.0159024
-1.55709
1.55962
0.017874
-0.0197152
-1.30126
1.3031
0.0211412
-0.022464
-1.09119
1.09251
0.0235333
-0.0246387
-0.918372
0.919478
0.0256053
-0.0265822
-0.777325
0.778302
0.027251
-0.0271947
-0.658781
0.658724
0.0259316
-0.0225003
-0.530757
0.527326
0.0176072
-0.0115118
-0.352386
0.346291
0.00662715
-0.00274573
-0.164168
0.160287
0.00072222
-0.0270176
0.0262954
-0.0294085
0.0291548
0.000253702
-0.00302383
0.00565351
-0.237565
0.234935
-0.00914768
0.011975
-0.412831
0.410003
-0.0137359
0.013929
-0.553999
0.553806
-0.0129781
0.0115052
-0.664247
0.66572
-0.00957378
0.00764684
-0.781814
0.783741
-0.0053776
0.00317069
-0.925304
0.927511
-0.000611678
-0.00185017
-1.09932
1.10178
0.00467221
-0.00734752
-1.30955
1.31222
0.0103608
-0.0131536
-1.5641
1.56689
0.0157251
-0.0180783
-1.56202
1.56438
0.0198752
-0.021519
-1.30484
1.30648
0.0227568
-0.0238642
-1.09387
1.09498
0.0247471
-0.0256761
-0.920517
0.921446
0.0265
-0.0273048
-0.779175
0.779979
0.0276834
-0.0273453
-0.658524
0.658186
0.0256332
-0.021789
-0.523708
0.519864
0.0167886
-0.0108762
-0.340323
0.33441
0.00625361
-0.00260402
-0.156551
0.152902
0.000691209
-0.0255991
0.0249079
-0.0289576
0.0288067
0.000150843
-0.00214147
0.0041803
-0.232618
0.23058
-0.007023
0.00944058
-0.4074
0.404983
-0.0110383
0.0112348
-0.55367
0.553473
-0.0102933
0.00882725
-0.667288
0.668754
-0.00684332
0.00484223
-0.785678
0.787679
-0.00248462
0.000202129
-0.929633
0.931915
0.00243765
-0.00495506
-1.10416
1.10667
0.00781636
-0.0104989
-1.31482
1.3175
0.0134794
-0.0161933
-1.56959
1.57231
0.0186398
-0.0208221
-1.56661
1.56879
0.0224449
-0.0238894
-1.30801
1.30946
0.0249352
-0.025816
-1.09615
1.09703
0.0264988
-0.0272348
-0.922295
0.923031
0.0279056
-0.0285651
-0.780666
0.781326
0.028629
-0.0279137
-0.657632
0.656917
0.0257523
-0.0215008
-0.51586
0.511609
0.0163697
-0.0105479
-0.328587
0.322765
0.00607111
-0.00254334
-0.149344
0.145816
0.000681392
-0.0242325
0.0235511
-0.0287118
0.028665
4.68049e-05
-0.00128163
0.00274453
-0.228844
0.227381
-0.00492191
0.00686607
-0.402823
0.400879
-0.00819661
0.00831421
-0.553387
0.553269
-0.00733586
0.00584012
-0.670355
0.671851
-0.00376561
0.00165695
-0.789694
0.791803
0.00082927
-0.00323101
-0.934118
0.93652
0.00598693
-0.00859724
-1.10911
1.11172
0.0115372
-0.0142612
-1.32012
1.32284
0.0172404
-0.0198973
-1.57494
1.57759
0.0222323
-0.0242495
-1.57084
1.57286
0.0256969
-0.0269333
-1.31077
1.312
0.0277746
-0.0284205
-1.09801
1.09866
0.0288951
-0.0294257
-0.923686
0.924217
0.0299319
-0.0303841
-0.781793
0.782245
0.0301571
-0.0289927
-0.655973
0.654808
0.0263428
-0.0216518
-0.507207
0.502516
0.0163345
-0.0104965
-0.316988
0.31115
0.00605615
-0.00255333
-0.142333
0.138831
0.000690169
-0.0228773
0.0221871
-0.0286739
0.0287375
-6.35951e-05
-0.000397963
0.00128068
-0.22622
0.225338
-0.00276583
0.00417198
-0.399225
0.397819
-0.00513247
0.00508553
-0.553321
0.553368
-0.00401215
0.00243259
-0.673534
0.675113
-0.000232699
-0.00202351
-0.793931
0.796187
0.00468515
-0.00724421
-0.938839
0.941398
0.0101645
-0.01291
-1.11426
1.117
0.0159717
-0.0187712
-1.3255
1.3283
0.0217787
-0.0243969
-1.58017
1.58278
0.0266284
-0.0284802
-1.57474
1.57659
0.0297475
-0.0307689
-1.31309
1.31411
0.0313984
-0.0318006
-1.09943
1.09983
0.0320572
-0.0323663
-0.92466
0.924969
0.0326835
-0.0328562
-0.782395
0.782568
0.0323405
-0.030624
-0.653427
0.651711
0.0274427
-0.0222604
-0.497679
0.492497
0.016679
-0.0107069
-0.305307
0.299335
0.00619603
-0.00262796
-0.135331
0.131763
0.000715858
-0.0214969
0.0207811
-0.0288574
0.0290361
-0.00017866
0.000525077
-0.000256758
-0.224772
0.224504
-0.000485373
0.00127506
-0.396732
0.395943
-0.00175497
0.0014602
-0.55365
0.553945
-0.000236597
-0.00149827
-0.67694
0.678674
0.00388145
-0.00633245
-0.798471
0.800922
0.00921995
-0.0119857
-0.943877
0.946643
0.0151243
-0.0180519
-1.11968
1.12261
0.0212823
-0.0241944
-1.33105
1.33396
0.0272627
-0.0298605
-1.58532
1.58792
0.0319931
-0.0336727
-1.5783
1.57998
0.0347519
-0.0355412
-1.31496
1.31575
0.0359469
-0.036092
-1.10035
1.1005
0.0361153
-0.0361854
-0.925176
0.925246
0.0363032
-0.0361095
-0.782365
0.782171
0.0352107
-0.0328823
-0.649822
0.647494
0.0290982
-0.0233405
-0.487151
0.481394
0.0173952
-0.0111628
-0.293302
0.28707
0.00647697
-0.00275999
-0.128158
0.124441
0.000756115
-0.0200587
0.0193025
-0.0292965
0.0296204
-0.000323851
0.00154067
-0.00191562
-0.224583
0.224958
0.00202315
-0.0019609
-0.395474
0.395411
0.00209453
-0.00274984
-0.554593
0.555248
0.00420641
-0.00613651
-0.680712
0.682642
0.00875746
-0.0114567
-0.8034
0.806099
0.0146315
-0.0176592
-0.949333
0.952361
0.0210743
-0.0242336
-1.12548
1.12864
0.0276817
-0.0307433
-1.33682
1.33988
0.0339007
-0.03649
-1.59044
1.59303
0.0385206
-0.0400056
-1.5815
1.58298
0.040874
-0.0414165
-1.31631
1.31686
0.041582
-0.0414473
-1.10074
1.1006
0.0412124
-0.0410249
-0.925181
0.924993
0.0409359
-0.0402691
-0.781552
0.780885
0.0389097
-0.0358721
-0.645016
0.641978
0.0313842
-0.0249299
-0.475442
0.468987
0.0184948
-0.0118615
-0.280717
0.274083
0.0068936
-0.00294585
-0.120649
0.116701
0.000809699
-0.0185342
0.0177245
-0.0300142
0.0305161
-0.000501889
0.00283055
-0.00396504
-0.225729
0.226863
0.00494119
-0.00568099
-0.395672
0.396412
0.00653369
-0.0076549
-0.556377
0.557498
0.00943281
-0.0116368
-0.684957
0.687161
0.0145792
-0.0175983
-0.808832
0.811851
0.0211347
-0.0244897
-0.955319
0.958674
0.0282491
-0.0316964
-1.13175
1.1352
0.0354133
-0.0386588
-1.3429
1.34614
0.0419266
-0.0445112
-1.59553
1.59812
0.0464283
-0.0477027
-1.58429
1.58557
0.0483183
-0.0485937
-1.31712
1.3174
0.0484918
-0.0480473
-1.10052
1.10008
0.0475316
-0.0470683
-0.924611
0.924148
0.0466603
-0.04554
-0.779804
0.778684
0.04357
-0.0396817
-0.638806
0.634918
0.0343521
-0.0270448
-0.462297
0.45499
0.0199728
-0.0127889
-0.267267
0.260083
0.00743239
-0.00317754
-0.112644
0.108389
0.000873741
-0.0168983
0.0160245
-0.0310857
0.0318103
-0.000724555
0.004338
-0.00636415
-0.228406
0.230432
0.00840311
-0.0100563
-0.397535
0.399188
0.011737
-0.0134402
-0.559261
0.560964
0.0156712
-0.0182461
-0.689839
0.692414
0.0216142
-0.0250363
-0.814912
0.818334
0.0290238
-0.0327838
-0.961969
0.965729
0.0369641
-0.0407578
-1.13861
1.1424
0.044791
-0.0482458
-1.34934
1.3528
0.0516296
-0.054192
-1.6006
1.60316
0.055961
-0.0569792
-1.58664
1.58766
0.0573078
-0.0572743
-1.31732
1.31729
0.0568782
-0.0560939
-1.09964
1.09886
0.0552701
-0.0544929
-0.923416
0.922639
0.0536781
-0.0520389
-0.777168
0.775529
0.0493197
-0.0444078
-0.630901
0.625989
0.0380597
-0.0297021
-0.447389
0.439031
0.021821
-0.013926
-0.252647
0.244752
0.00807558
-0.00344455
-0.103992
0.0993615
0.000944566
-0.0151314
0.0141868
-0.0325955
0.0336085
-0.00101307
0.00622299
-0.00930707
-0.232865
0.235949
0.0126246
-0.0153405
-0.401334
0.40405
0.0179947
-0.0204079
-0.563523
0.565936
0.0232379
-0.0263068
-0.695567
0.698636
0.0302343
-0.0341696
-0.82181
0.825745
0.0387144
-0.0429635
-0.969441
0.973691
0.0476411
-0.0518328
-1.14616
1.15035
0.056215
-0.059883
-1.35619
1.35986
0.0633565
-0.065846
-1.60559
1.60808
0.0674023
-0.0680906
-1.58844
1.58913
0.0680667
-0.0676564
-1.31676
1.31635
0.0669403
-0.0657791
-1.09802
1.09686
0.0646077
-0.0635227
-0.921529
0.920444
0.0621837
-0.0599331
-0.773489
0.771239
0.0562969
-0.0501239
-0.620938
0.614765
0.0425261
-0.0328764
-0.430314
0.420664
0.0239943
-0.0152258
-0.236539
0.22777
0.00878695
-0.00372761
-0.0945652
0.0895059
0.0010158
-0.0132231
0.0122073
-0.034668
0.0360811
-0.00141309
0.00869143
-0.013128
-0.23943
0.243866
0.0179414
-0.021899
-0.407434
0.411392
0.0256962
-0.02897
-0.569495
0.572769
0.0325745
-0.0362966
-0.70241
0.706132
0.0409461
-0.0455231
-0.829738
0.834315
0.0507403
-0.0555631
-0.977904
0.982726
0.0608053
-0.0654267
-1.15451
1.15913
0.0701561
-0.0740029
-1.36344
1.36728
0.0774957
-0.0798233
-1.61038
1.61271
0.0810684
-0.0813259
-1.58952
1.58978
0.0808801
-0.0799835
-1.31533
1.31444
0.078884
-0.0773189
-1.09555
1.09398
0.0758026
-0.0743053
-0.918919
0.917422
0.0724373
-0.0693769
-0.768545
0.765485
0.0645846
-0.0568486
-0.60843
0.600694
0.047715
-0.0364902
-0.410585
0.39936
0.0264025
-0.0166092
-0.218627
0.208833
0.00951042
-0.00399884
-0.0842713
0.0787597
0.00107877
-0.0111766
0.0100978
-0.0375056
0.0394809
-0.00197532
0.0121139
-0.0182796
-0.248617
0.254782
0.0248955
-0.0303059
-0.416334
0.421745
0.0354557
-0.0397843
-0.577568
0.581896
0.0443697
-0.0489428
-0.710705
0.715278
0.0545155
-0.0598795
-0.838946
0.84431
0.0658869
-0.0713516
-0.987522
0.992987
0.0771846
-0.0822123
-1.16368
1.16871
0.0872132
-0.091129
-1.37097
1.37489
0.0944838
-0.0964815
-1.61475
1.61675
0.0972497
-0.0969225
-1.58965
1.58933
0.095953
-0.0944714
-1.31287
1.31139
0.0929129
-0.0909192
-1.09213
1.09014
0.0890265
-0.0869823
-0.91533
0.913285
0.0845949
-0.0804559
-0.761872
0.757733
0.0742105
-0.0645229
-0.592747
0.58306
0.0535039
-0.040384
-0.387643
0.374523
0.0288881
-0.017951
-0.198631
0.187694
0.0101632
-0.00421969
-0.0730852
0.0671417
0.00112215
-0.00901366
0.00789151
-0.041427
0.0442758
-0.0028488
0.0170895
-0.0255151
-0.261172
0.269598
0.0343733
-0.0415414
-0.428701
0.43587
0.0483369
-0.0539336
-0.588228
0.593824
0.059804
-0.0655019
-0.720867
0.726565
0.0722003
-0.0784656
-0.849703
0.855968
0.0853158
-0.0914013
-0.998402
1.00449
0.0977318
-0.103024
-1.17358
1.17888
0.108088
-0.111845
-1.37852
1.38228
0.114782
-0.116183
-1.61833
1.61973
0.116229
-0.115103
-1.58851
1.58738
0.113447
-0.111286
-1.30918
1.30702
0.109195
-0.106734
-1.08769
1.08523
0.104448
-0.101727
-0.910454
0.907734
0.098661
-0.0931329
-0.752899
0.747371
0.0850495
-0.0729343
-0.573073
0.560958
0.0596225
-0.0442737
-0.360882
0.345534
0.0311998
-0.0190699
-0.176366
0.164236
0.0106332
-0.00434122
-0.0610823
0.0547903
0.00113233
-0.0067794
0.00564707
-0.047014
0.0513413
-0.00432732
0.0247978
-0.0363029
-0.278251
0.289756
0.0480796
-0.0575798
-0.445569
0.455069
0.0664047
-0.0734687
-0.602082
0.609146
0.0808774
-0.0880897
-0.73327
0.740482
0.0959781
-0.103061
-0.862211
0.869294
0.110584
-0.11707
-1.01042
1.0169
0.123581
-0.128799
-1.18384
1.18906
0.133513
-0.136718
-1.38554
1.38875
0.138802
-0.139218
-1.6205
1.62092
0.138209
-0.136022
-1.58562
1.58343
0.133498
-0.130522
-1.30404
1.30107
0.12781
-0.124829
-1.08209
1.07911
0.122049
-0.118632
-0.904115
0.900698
0.114576
-0.107184
-0.740928
0.733536
0.0967284
-0.0816166
-0.548387
0.533275
0.0655935
-0.0477372
-0.329718
0.311861
0.0330029
-0.0197468
-0.151836
0.13858
0.0107939
-0.00431132
-0.0484804
0.0419978
0.00109473
-0.00454509
0.00345036
-0.0553428
0.0627715
-0.00742871
0.0383409
-0.0543303
-0.302013
0.318002
0.0701896
-0.0829126
-0.468584
0.481307
0.0939207
-0.102343
-0.619571
0.627993
0.111246
-0.119725
-0.748307
0.756786
0.128527
-0.136014
-0.876162
0.88365
0.143631
-0.149917
-1.02296
1.02925
0.155931
-0.160432
-1.19364
1.19814
0.164119
-0.166151
-1.39114
1.39317
0.166798
-0.165768
-1.62043
1.6194
0.163342
-0.159791
-1.58046
1.57691
0.156174
-0.152193
-1.29716
1.29318
0.14878
-0.145275
-1.07517
1.07166
0.141874
-0.137608
-0.896083
0.891817
0.132057
-0.122084
-0.724845
0.714873
0.108527
-0.089751
-0.517417
0.498641
0.0707262
-0.0502882
-0.293728
0.27329
0.0340002
-0.0198541
-0.125363
0.111217
0.0106009
-0.00412591
-0.0356746
0.0291996
0.0010087
-0.00240994
0.00140125
-0.0696895
0.0738494
-0.00415994
0.0293691
-0.0432215
-0.336477
0.350329
0.0572723
-0.068918
-0.499201
0.510847
0.0793386
-0.0890331
-0.640268
0.649962
0.0998446
-0.109746
-0.764855
0.774756
0.120754
-0.130576
-0.890265
0.900087
0.141049
-0.150366
-1.03459
1.04391
0.160084
-0.168399
-1.20155
1.20986
0.176632
-0.183168
-1.39404
1.40058
0.188933
-0.192627
-1.61716
1.62086
0.194227
-0.194323
-1.57235
1.57245
0.193307
-0.191615
-1.28819
1.28649
0.190232
-0.188447
-1.06671
1.06492
0.186502
-0.182287
-0.885706
0.881491
0.174519
-0.159502
-0.703052
0.688036
0.138909
-0.111537
-0.478839
0.451467
0.0853052
-0.0584787
-0.252877
0.226051
0.0383102
-0.0216775
-0.0977493
0.0811167
0.0112473
-0.00424596
-0.0232388
0.0162374
0.00100595
-0.000473754
-0.000532192
-0.0810541
0.0792064
0.00184766
0.00754267
-0.0166797
-0.367
0.376137
0.0273583
-0.0356126
-0.527189
0.535443
0.0439814
-0.0521952
-0.662224
0.670438
0.062152
-0.0714214
-0.784335
0.793604
0.0812906
-0.090312
-0.909355
0.918376
0.0998925
-0.108072
-1.05293
1.06111
0.116783
-0.123863
-1.21798
1.22506
0.130804
-0.136011
-1.40679
1.412
0.140017
-0.142135
-1.62372
1.62584
0.142172
-0.1407
-1.57183
1.57036
0.138119
-0.13473
-1.28401
1.28062
0.131686
-0.128378
-1.06069
1.05739
0.124997
-0.119633
-0.87275
0.867386
0.111257
-0.097719
-0.668906
0.655368
0.081658
-0.0623309
-0.422519
0.403192
0.0455771
-0.0301775
-0.19982
0.18442
0.0194087
-0.01095
-0.065644
0.0571853
0.00574949
-0.00220927
-0.0096114
0.00607118
0.000474869
0.00160878
-0.00208365
-0.0825071
0.0795847
0.00292239
-0.00174155
-0.00355898
-0.387612
0.392913
0.0108496
-0.0168056
-0.547895
0.553851
0.0229904
-0.0301873
-0.680792
0.687989
0.0387932
-0.0468377
-0.802006
0.81005
0.0556265
-0.0634897
-0.926644
0.934508
0.0715826
-0.0788418
-1.06909
1.07635
0.0863433
-0.0925007
-1.23166
1.23782
0.0980441
-0.101938
-1.41648
1.42037
0.104795
-0.105616
-1.62718
1.628
0.104373
-0.101624
-1.56821
1.56546
0.098018
-0.0937163
-1.27683
1.27253
0.0893921
-0.0848339
-1.05195
1.04739
0.0803179
-0.0743054
-0.857709
0.851697
0.06662
-0.0554279
-0.638681
0.627489
0.0438413
-0.0314325
-0.382301
0.369892
0.0221124
-0.0144499
-0.168787
0.161124
0.00946476
-0.00564232
-0.048924
0.0451016
0.003153
-0.00120247
-0.00269201
0.00074148
0.000277444
0.0027569
-0.00303434
-0.0812086
0.0784313
0.00277735
-0.00545673
0.00292736
-0.401331
0.403861
0.00178402
-0.00627982
-0.563165
0.56766
0.0114799
-0.0174982
-0.696105
0.702124
0.0248225
-0.0316915
-0.817473
0.824342
0.0391857
-0.0459121
-0.941829
0.948556
0.0532068
-0.0593263
-1.08315
1.08927
0.0658169
-0.0706505
-1.24352
1.24835
0.0752473
-0.0782895
-1.42397
1.42702
0.0800446
-0.0796545
-1.62827
1.62788
0.0776333
-0.0741247
-1.56206
1.55855
0.0698302
-0.064398
-1.26776
1.26233
0.0593035
-0.0537504
-1.04116
1.0356
0.0482396
-0.0421488
-0.8416
0.83551
0.0352041
-0.0266894
-0.61351
0.604995
0.0190319
-0.0122686
-0.356359
0.349595
0.00813845
-0.00534137
-0.152653
0.149856
0.00372703
-0.00254426
-0.0407224
0.0395396
0.00158877
-0.000635045
0.00118666
-0.00214038
0.000160386
0.00357919
-0.00373958
-0.0796311
0.0771521
0.00247897
-0.00667419
0.00579139
-0.410421
0.411304
-0.0023392
-0.000876597
-0.575371
0.578586
0.00508024
-0.010522
-0.70891
0.714352
0.0166478
-0.0226507
-0.830519
0.836521
0.0291099
-0.0349147
-0.95481
0.960615
0.0411217
-0.0465043
-1.09522
1.1006
0.0519181
-0.0562365
-1.253
1.25732
0.0600086
-0.0623284
-1.42962
1.43194
0.0633227
-0.0622467
-1.62721
1.62614
0.05959
-0.055258
-1.55422
1.54989
0.0504344
-0.0445802
-1.25665
1.2508
0.0389372
-0.0325885
-1.02881
1.02246
0.0267153
-0.0204684
-0.825864
0.819617
0.0145999
-0.00819634
-0.594219
0.587816
0.00350771
-0.000519399
-0.341094
0.338105
-0.000512422
0.000543901
-0.145481
0.145449
-0.000203394
-0.000152396
-0.0376253
0.0379811
0.000245495
-0.000123555
0.00310341
-0.00322535
4.13017e-05
0.00414326
-0.00418456
-0.0781307
0.0759897
0.002141
-0.00663024
0.00629699
-0.416567
0.4169
-0.00426449
0.00168527
-0.584688
0.587267
0.00234084
-0.00697169
-0.719712
0.724343
0.0122084
-0.0173971
-0.841736
0.846925
0.0231062
-0.0282505
-0.966048
0.971192
0.033864
-0.0385102
-1.10567
1.11032
0.0432813
-0.0470501
-1.2613
1.26507
0.0502023
-0.0519917
-1.43393
1.43572
0.0524179
-0.0512276
-1.62486
1.62367
0.0481149
-0.0435511
-1.54501
1.54045
0.0384007
-0.0321909
-1.24462
1.23841
0.0264443
-0.0195959
-1.01536
1.00851
0.0134
-0.00712264
-0.810685
0.804407
0.00195573
0.0028332
-0.579128
0.574339
-0.00575993
0.00678872
-0.332596
0.331568
-0.00600717
0.00458694
-0.143765
0.145185
-0.00324018
0.00182281
-0.0378351
0.0392525
-0.000906708
0.000350731
0.00330334
-0.00274736
-7.92999e-05
0.00439135
-0.00431205
-0.0769428
0.0752555
0.00168729
-0.00581142
0.00584678
-0.421025
0.42099
-0.00425166
0.00234872
-0.592752
0.594655
0.00137838
-0.00554478
-0.728998
0.733165
0.0104826
-0.0149213
-0.851709
0.856148
0.0198982
-0.0244153
-0.976282
0.9808
0.0296782
-0.0338329
-1.11496
1.11912
0.037981
-0.0414399
-1.2686
1.27206
0.0445899
-0.0460525
-1.43746
1.43893
0.0463002
-0.0448009
-1.622
1.6205
0.0418189
-0.036873
-1.53559
1.53064
0.031795
-0.0256536
-1.23195
1.22581
0.0196987
-0.0129976
-1.00131
0.994605
0.00674175
-0.000292141
-0.796076
0.789626
-0.00405435
0.00809088
-0.566855
0.562819
-0.0103836
0.0104815
-0.327765
0.327667
-0.0091116
0.00715488
-0.145031
0.146987
-0.0052485
0.00321761
-0.0401689
0.0421998
-0.0017531
0.000738975
0.00212189
-0.00110776
-0.000185301
0.00431832
-0.00413302
-0.076244
0.0749044
0.00133957
-0.00477627
0.00496353
-0.424459
0.424272
-0.00360012
0.00180551
-0.599697
0.601492
0.00174171
-0.00543084
-0.737283
0.740972
0.00962896
-0.0138769
-0.860517
0.864765
0.0184313
-0.0230371
-0.985099
0.989704
0.0275061
-0.0314107
-1.12334
1.12724
0.0356019
-0.0387218
-1.27536
1.27848
0.0412707
-0.0430173
-1.44024
1.44199
0.0432723
-0.0418676
-1.619
1.61759
0.0388393
-0.0342386
-1.52583
1.52123
0.0292691
-0.0232352
-1.21931
1.21327
0.0174789
-0.010896
-0.987541
0.980958
0.00481128
0.00123145
-0.78194
0.775897
-0.00580236
0.00932314
-0.556042
0.552521
-0.0112556
0.0114843
-0.324796
0.324568
-0.0101975
0.00808267
-0.147385
0.1495
-0.00609833
0.00390383
-0.0435846
0.0457791
-0.00221712
0.000978717
3.12025e-05
0.0012072
-0.000260758
0.00400854
-0.00374778
-0.0760673
0.0749439
0.00112345
-0.00352309
0.00349375
-0.427465
0.427495
-0.00243458
0.000690419
-0.606008
0.607752
0.00269074
-0.00622724
-0.744916
0.748452
0.010223
-0.0140319
-0.868777
0.872586
0.0186611
-0.0224316
-0.993705
0.997476
0.026816
-0.0304838
-1.13127
1.13494
0.0344912
-0.0377354
-1.28154
1.28479
0.040479
-0.0419074
-1.44345
1.44488
0.0423786
-0.0412376
-1.61607
1.61493
0.0386976
-0.0342496
-1.51648
1.51203
0.0295958
-0.0238533
-1.20735
1.20161
0.0184013
-0.0120549
-0.974048
0.967702
0.00633472
-0.00030511
-0.768608
0.762579
-0.00425457
0.00770682
-0.546163
0.542711
-0.00968439
0.0101916
-0.321955
0.321448
-0.00947639
0.00781535
-0.149778
0.151439
-0.0060968
0.00405523
-0.0472471
0.0492887
-0.00241058
0.00106406
-0.00236052
0.00370704
-0.000300756
0.00352861
-0.00322785
-0.0761688
0.0753768
0.000791932
-0.00237539
0.00189135
-0.430515
0.430999
-0.000993337
-0.000870366
-0.611509
0.613373
0.00388391
-0.00725497
-0.751988
0.755359
0.0110549
-0.0149659
-0.876234
0.880145
0.0189415
-0.0228397
-1.00143
1.00533
0.0271467
-0.0305653
-1.13901
1.14243
0.0346119
-0.0377562
-1.2878
1.29094
0.040492
-0.0423829
-1.44668
1.44858
0.0432565
-0.0423065
-1.6138
1.61285
0.0399214
-0.0361182
-1.50774
1.50394
0.0319687
-0.0265723
-1.19578
1.19039
0.0213701
-0.0156001
-0.961251
0.955482
0.0098369
-0.00421778
-0.755604
0.749985
-0.000520172
0.00421124
-0.536682
0.532991
-0.00618242
0.00722345
-0.318607
0.317566
-0.00713179
0.00624803
-0.151397
0.152281
-0.00502013
0.00346524
-0.0504405
0.0519954
-0.00213724
0.000970643
-0.00475155
0.00591815
-0.00028977
0.00297712
-0.00268735
-0.0766919
0.0760649
0.000626997
-0.00140179
0.00100403
-0.433769
0.434167
0.000420858
-0.00224727
-0.617071
0.618897
0.00539093
-0.00860867
-0.758502
0.76172
0.0122364
-0.0157224
-0.883701
0.887187
0.019798
-0.0233561
-1.00921
1.01277
0.0275841
-0.0314109
-1.14627
1.1501
0.035059
-0.0384977
-1.2941
1.29754
0.0416106
-0.0435469
-1.45034
1.45227
0.0447376
-0.0445185
-1.6121
1.61188
0.0425353
-0.0393366
-1.50001
1.49681
0.035406
-0.0305079
-1.18508
1.18019
0.0257836
-0.0202658
-0.949315
0.943797
0.0149687
-0.00949126
-0.743321
0.737844
0.00480094
-0.000530993
-0.527016
0.522746
-0.00195775
0.00346293
-0.314373
0.312868
-0.00410333
0.00393927
-0.151673
0.151837
-0.00335889
0.00245231
-0.0526103
0.0535169
-0.0015791
0.000747769
-0.00668001
0.00751134
-0.000244493
0.00246774
-0.00222325
-0.0775
0.0770565
0.000443534
-0.0003496
-0.000193401
-0.437186
0.437729
0.00163416
-0.00374875
-0.622298
0.624413
0.00678995
-0.00983407
-0.764748
0.767793
0.0135369
-0.0168556
-0.890631
0.89395
0.0207556
-0.0244211
-1.01679
1.02045
0.0285321
-0.0323046
-1.15376
1.15753
0.0361525
-0.039594
-1.30087
1.30431
0.0428654
-0.0455225
-1.45447
1.45713
0.0471205
-0.0471629
-1.61158
1.61162
0.0458478
-0.0429599
-1.49351
1.49062
0.0395974
-0.0352895
-1.17529
1.17098
0.0307078
-0.0255357
-0.938046
0.932874
0.0205145
-0.0150347
-0.731526
0.726047
0.0103908
-0.00573169