/*--------------------------------*- C++ -*----------------------------------*\
| =========                 |                                                 |
| \\      /  F ield         | OpenFOAM: The Open Source CFD Toolbox           |
|  \\    /   O peration     | Version:  2112                                  |
|   \\  /    A nd           | Website:  www.openfoam.com                      |
|    \\/     M anipulation  |                                                 |
\*---------------------------------------------------------------------------*/
FoamFile
{
    version     2.0;
    format      ascii;
    arch        "LSB;label=32;scalar=64";
    class       volVectorField;
    location    "65.5";
    object      U;
}
// * * * * * * * * * * * * * * * * * * * * * * * * * * * * * * * * * * * * * //

dimensions      [0 1 -1 0 0 0 0];

internalField   nonuniform List<vector> 
8800
(
(0.980137 -0.0915203 0)
(1.00234 -0.0587301 0)
(0.999583 -0.0321287 0)
(0.999982 -0.0165216 0)
(1.00009 -0.00884131 0)
(1.0001 -0.00509695 0)
(1.00007 -0.00299313 0)
(1.00002 -0.00168175 0)
(0.999999 -0.00077932 0)
(1.00006 -7.92633e-05 0)
(0.999982 0.000630627 0)
(0.999991 0.00138833 0)
(1.00003 0.0024115 0)
(1.00005 0.00400936 0)
(1.00004 0.00675185 0)
(0.999997 0.0120521 0)
(0.999802 0.0230949 0)
(0.999032 0.0431556 0)
(1.00724 0.079025 0)
(0.775026 0.0478395 0)
(0.358996 -0.0147481 0)
(1.04651 -0.0724785 0)
(1.08847 -0.0660149 0)
(1.04944 -0.0509069 0)
(1.02555 -0.0376845 0)
(1.01277 -0.0258775 0)
(1.0066 -0.016679 0)
(1.00364 -0.0101855 0)
(1.00219 -0.00555058 0)
(1.00151 -0.00195266 0)
(1.00138 0.00126245 0)
(1.00172 0.00457392 0)
(1.0027 0.00846276 0)
(1.00475 0.0137672 0)
(1.00898 0.0214364 0)
(1.01794 0.0319223 0)
(1.03579 0.0446908 0)
(1.06742 0.0581295 0)
(1.09468 0.0699515 0)
(0.84561 0.0555089 0)
(0.217815 -0.00137982 0)
(1.07569 -0.0506348 0)
(1.09942 -0.0489139 0)
(1.06441 -0.0399934 0)
(1.03994 -0.0325298 0)
(1.02385 -0.0253101 0)
(1.01405 -0.0180821 0)
(1.00853 -0.0114516 0)
(1.00566 -0.00568649 0)
(1.00448 -0.00038939 0)
(1.00478 0.00472462 0)
(1.00661 0.0100131 0)
(1.01057 0.0159736 0)
(1.01789 0.0227147 0)
(1.03048 0.0298067 0)
(1.05046 0.0368846 0)
(1.08002 0.0446531 0)
(1.10563 0.0519686 0)
(0.943215 0.041024 0)
(0.217151 0.00140673 0)
(0.17669 -0.000627797 0)
(1.01946 -0.0354403 0)
(1.10575 -0.0413741 0)
(1.07802 -0.0363504 0)
(1.05251 -0.0302974 0)
(1.03529 -0.0244107 0)
(1.02341 -0.0186024 0)
(1.01558 -0.0125907 0)
(1.01096 -0.00648226 0)
(1.0089 -0.000235155 0)
(1.00941 0.00592582 0)
(1.01248 0.0118404 0)
(1.01845 0.0175947 0)
(1.02805 0.023148 0)
(1.04222 0.0286819 0)
(1.06303 0.0344491 0)
(1.09382 0.0403221 0)
(1.09436 0.041831 0)
(0.830061 0.0227989 0)
(0.175556 0.000649442 0)
(0.154804 -0.000461496 0)
(0.958313 -0.0256612 0)
(1.10448 -0.0350652 0)
(1.08815 -0.0326044 0)
(1.06135 -0.0280869 0)
(1.04331 -0.0231108 0)
(1.0309 -0.017792 0)
(1.02228 -0.012232 0)
(1.01671 -0.00630445 0)
(1.01403 0.000162147 0)
(1.01464 0.00662565 0)
(1.0184 0.0124957 0)
(1.0252 0.0177925 0)
(1.03533 0.022771 0)
(1.05004 0.0275768 0)
(1.07196 0.0319997 0)
(1.10093 0.0358597 0)
(1.06955 0.0340437 0)
(0.742284 0.0144817 0)
(0.153103 0.000485818 0)
(0.140149 -0.000333268 0)
(0.901391 -0.0192906 0)
(1.09694 -0.030158 0)
(1.09632 -0.0292636 0)
(1.06909 -0.0254673 0)
(1.05026 -0.0213649 0)
(1.03727 -0.0166449 0)
(1.02826 -0.0113736 0)
(1.02228 -0.00562971 0)
(1.01926 0.000742111 0)
(1.01983 0.00711972 0)
(1.0238 0.0127671 0)
(1.03083 0.0177243 0)
(1.04133 0.0221572 0)
(1.05666 0.0260812 0)
(1.07944 0.0295756 0)
(1.10318 0.032268 0)
(1.03767 0.0282269 0)
(0.675326 0.0103426 0)
(0.137751 0.000362132 0)
(0.129443 -0.00025168 0)
(0.851625 -0.0148882 0)
(1.08465 -0.0260459 0)
(1.10204 -0.02637 0)
(1.07596 -0.023032 0)
(1.05661 -0.0193571 0)
(1.0432 -0.0151367 0)
(1.03381 -0.0102484 0)
(1.02755 -0.0047242 0)
(1.02429 0.00146426 0)
(1.02474 0.00762618 0)
(1.0287 0.0129889 0)
(1.03589 0.0175192 0)
(1.04667 0.0213431 0)
(1.06236 0.0246664 0)
(1.08559 0.0276795 0)
(1.10235 0.0294655 0)
(1.00284 0.0237095 0)
(0.623105 0.00794834 0)
(0.126194 0.000286735 0)
(0.121295 -0.000192702 0)
(0.809255 -0.0116974 0)
(1.06942 -0.0224394 0)
(1.10562 -0.0237232 0)
(1.08224 -0.0208351 0)
(1.06244 -0.0173846 0)
(1.04875 -0.0134438 0)
(1.0391 -0.00887457 0)
(1.03256 -0.00362207 0)
(1.02906 0.00233496 0)
(1.02933 0.0082275 0)
(1.03324 0.013236 0)
(1.04049 0.0173064 0)
(1.05135 0.0206512 0)
(1.06728 0.0235765 0)
(1.09089 0.02627 0)
(1.09863 0.0271425 0)
(0.967563 0.0201636 0)
(0.581127 0.00639035 0)
(0.117011 0.000235288 0)
(0.114989 -0.000147907 0)
(0.773562 -0.00930784 0)
(1.05266 -0.0192618 0)
(1.10801 -0.0212747 0)
(1.08815 -0.0187656 0)
(1.06794 -0.0154738 0)
(1.05398 -0.0116993 0)
(1.04414 -0.00732917 0)
(1.03737 -0.00231309 0)
(1.0336 0.00338503 0)
(1.03364 0.00896756 0)
(1.03742 0.0135967 0)
(1.04459 0.0172625 0)
(1.05547 0.0202251 0)
(1.07163 0.0228182 0)
(1.09492 0.0251621 0)
(1.09206 0.0252243 0)
(0.933173 0.0174254 0)
(0.546377 0.00532454 0)
(0.109446 0.000199611 0)
(0.110077 -0.000112477 0)
(0.743622 -0.00745496 0)
(1.03545 -0.0164413 0)
(1.10946 -0.0189697 0)
(1.09376 -0.0167713 0)
(1.07325 -0.0135773 0)
(1.05902 -0.00989869 0)
(1.04898 -0.00565017 0)
(1.04199 -0.000802354 0)
(1.03792 0.00464934 0)
(1.03768 0.00991084 0)
(1.04121 0.0141778 0)
(1.04825 0.0174797 0)
(1.05911 0.0200921 0)
(1.07548 0.0223938 0)
(1.09766 0.0243624 0)
(1.08304 0.0236563 0)
(0.900258 0.0153459 0)
(0.516785 0.00458263 0)
(0.103005 0.000175102 0)
(0.106268 -8.31799e-05 0)
(0.718615 -0.00596202 0)
(1.01861 -0.0139072 0)
(1.11008 -0.0167397 0)
(1.09926 -0.0148207 0)
(1.07848 -0.0116423 0)
(1.06394 -0.00799811 0)
(1.05368 -0.00381369 0)
(1.04643 0.000923253 0)
(1.04204 0.00616823 0)
(1.04143 0.01113 0)
(1.04465 0.0150574 0)
(1.0515 0.0180119 0)
(1.06232 0.0202826 0)
(1.07888 0.0223204 0)
(1.09904 0.0238862 0)
(1.07193 0.0224354 0)
(0.86894 0.0138123 0)
(0.490879 0.00407298 0)
(0.0973389 0.000159229 0)
(0.103372 -5.78249e-05 0)
(0.697897 -0.00471067 0)
(1.00277 -0.011593 0)
(1.11002 -0.0145482 0)
(1.10461 -0.0128306 0)
(1.08371 -0.00962098 0)
(1.06885 -0.00595229 0)
(1.05831 -0.00176954 0)
(1.05076 0.00290723 0)
(1.04597 0.00799559 0)
(1.0449 0.0126891 0)
(1.04776 0.0162906 0)
(1.05438 0.0189048 0)
(1.06513 0.0208404 0)
(1.08183 0.0226207 0)
(1.09939 0.0237799 0)
(1.05902 0.0215721 0)
(0.83906 0.0127347 0)
(0.467556 0.00373865 0)
(0.092184 0.000150125 0)
(0.101266 -3.44595e-05 0)
(0.680995 -0.00361254 0)
(0.988384 -0.00942872 0)
(1.1095 -0.0123095 0)
(1.10978 -0.0107093 0)
(1.08902 -0.00744636 0)
(1.0738 -0.00369406 0)
(1.06295 0.000550293 0)
(1.05502 0.00522181 0)
(1.04974 0.010202 0)
(1.04813 0.0146525 0)
(1.05053 0.0179377 0)
(1.05688 0.020216 0)
(1.06754 0.021809 0)
(1.0843 0.0233206 0)
(1.09873 0.0240543 0)
(1.04446 0.0210838 0)
(0.810291 0.0120427 0)
(0.445954 0.0035416 0)
(0.0873363 0.000146381 0)
(0.0998867 -1.13937e-05 0)
(0.667603 -0.00259825 0)
(0.975812 -0.00734021 0)
(1.10882 -0.00996514 0)
(1.1149 -0.00839999 0)
(1.09449 -0.00504958 0)
(1.07888 -0.0011512 0)
(1.06765 0.00321741 0)
(1.05926 0.00794832 0)
(1.05337 0.0128724 0)
(1.05111 0.017108 0)
(1.05297 0.0200782 0)
(1.05899 0.0220119 0)
(1.06952 0.0232464 0)
(1.0863 0.0244922 0)
(1.09683 0.0247651 0)
(1.0283 0.0209552 0)
(0.782206 0.0116808 0)
(0.425368 0.00345578 0)
(0.0826304 0.000146916 0)
(0.0992182 1.34611e-05 0)
(0.657564 -0.00161358 0)
(0.96537 -0.00525511 0)
(1.10831 -0.00744934 0)
(1.1201 -0.00582735 0)
(1.10019 -0.00234025 0)
(1.08417 0.0017725 0)
(1.07248 0.00633217 0)
(1.06353 0.0111909 0)
(1.05691 0.0161096 0)
(1.05385 0.0201533 0)
(1.05507 0.0228082 0)
(1.06069 0.0243716 0)
(1.07107 0.0252315 0)
(1.08776 0.0261785 0)
(1.09363 0.0259365 0)
(1.01052 0.0212215 0)
(0.754329 0.0116205 0)
(0.405212 0.00346657 0)
(0.0779313 0.000151233 0)
(0.0992803 3.54988e-05 0)
(0.650845 -0.000612272 0)
(0.957361 -0.00310192 0)
(1.10832 -0.00469163 0)
(1.12555 -0.0029046 0)
(1.10624 0.000781847 0)
(1.08975 0.00518172 0)
(1.07753 0.0100103 0)
(1.06788 0.0150675 0)
(1.06038 0.0200289 0)
(1.05637 0.0238944 0)
(1.05682 0.0262269 0)
(1.06197 0.0274098 0)
(1.07216 0.0278725 0)
(1.08847 0.0284524 0)
(1.08894 0.0275868 0)
(0.990953 0.0219179 0)
(0.726119 0.0118468 0)
(0.384946 0.0035654 0)
(0.0731156 0.000158958 0)
(0.100109 7.18956e-05 0)
(0.647525 0.000418051 0)
(0.952104 -0.000807678 0)
(1.10921 -0.00160799 0)
(1.13144 0.000461232 0)
(1.11275 0.00442382 0)
(1.09574 0.00920074 0)
(1.08287 0.0143871 0)
(1.07238 0.0197197 0)
(1.06381 0.0247763 0)
(1.05865 0.0284741 0)
(1.05819 0.0304633 0)
(1.06277 0.0312499 0)
(1.07272 0.0312887 0)
(1.08828 0.0314463 0)
(1.08245 0.0298221 0)
(0.969314 0.0230643 0)
(0.69699 0.012347 0)
(0.36407 0.00374318 0)
(0.0680744 0.000169394 0)
(0.101919 0.000102825 0)
(0.647989 0.00158341 0)
(0.949953 0.00171832 0)
(1.11141 0.00191684 0)
(1.13799 0.00436982 0)
(1.11985 0.00875103 0)
(1.10225 0.0140047 0)
(1.08859 0.0196427 0)
(1.07708 0.0253311 0)
(1.06721 0.0305292 0)
(1.06068 0.0340605 0)
(1.05913 0.0356631 0)
(1.06304 0.0360223 0)
(1.07269 0.0356061 0)
(1.08695 0.0352762 0)
(1.07392 0.0327264 0)
(0.945213 0.0247141 0)
(0.666308 0.0131219 0)
(0.342111 0.00399575 0)
(0.062712 0.000182168 0)
(0.104763 0.000150823 0)
(0.652668 0.00303666 0)
(0.951398 0.004631 0)
(1.1154 0.00597926 0)
(1.14542 0.00899173 0)
(1.1277 0.0139344 0)
(1.10942 0.0197817 0)
(1.0948 0.025984 0)
(1.08204 0.0321125 0)
(1.07058 0.037489 0)
(1.06243 0.0408315 0)
(1.05962 0.0419931 0)
(1.06272 0.0418883 0)
(1.072 0.0409619 0)
(1.08428 0.0401042 0)
(1.06296 0.0364075 0)
(0.918115 0.0268966 0)
(0.633383 0.0141613 0)
(0.318614 0.00431339 0)
(0.0569455 0.000196348 0)
(0.108922 0.00021362 0)
(0.662002 0.00472572 0)
(0.956889 0.00807127 0)
(1.12168 0.0107662 0)
(1.15401 0.0145253 0)
(1.13652 0.0202045 0)
(1.11741 0.0267909 0)
(1.1016 0.0336836 0)
(1.08729 0.0403306 0)
(1.07393 0.0458962 0)
(1.06386 0.0489903 0)
(1.0596 0.049648 0)
(1.06173 0.0490263 0)
(1.07057 0.0475198 0)
(1.08039 0.046052 0)
(1.0491 0.0409662 0)
(0.887334 0.0296414 0)
(0.597472 0.0154489 0)
(0.293156 0.00468286 0)
(0.0507138 0.000210783 0)
(0.114735 0.000297726 0)
(0.676746 0.00682087 0)
(0.967062 0.0122368 0)
(1.13083 0.0165182 0)
(1.16412 0.021247 0)
(1.14657 0.0278982 0)
(1.1264 0.0353945 0)
(1.10909 0.0431034 0)
(1.09286 0.0503241 0)
(1.0772 0.0560383 0)
(1.06489 0.0587753 0)
(1.05888 0.058794 0)
(1.06 0.0576129 0)
(1.06835 0.0554761 0)
(1.07498 0.0533069 0)
(1.03169 0.0464956 0)
(0.852039 0.032946 0)
(0.557815 0.0169409 0)
(0.265388 0.00507942 0)
(0.0439916 0.000223617 0)
(0.122708 0.000419513 0)
(0.697874 0.00956956 0)
(0.982794 0.0174395 0)
(1.1435 0.02358 0)
(1.17624 0.0295478 0)
(1.15815 0.0374626 0)
(1.13659 0.0460542 0)
(1.11736 0.0546918 0)
(1.09873 0.0624874 0)
(1.0803 0.0682396 0)
(1.0654 0.0704542 0)
(1.05741 0.0696835 0)
(1.05742 0.0677983 0)
(1.06526 0.0649475 0)
(1.06774 0.061883 0)
(1.0099 0.0530458 0)
(0.811252 0.036763 0)
(0.513677 0.018559 0)
(0.235092 0.00546655 0)
(0.0368047 0.000232549 0)
(0.133565 0.000591762 0)
(0.726613 0.0133392 0)
(1.00525 0.0241529 0)
(1.16048 0.0325018 0)
(1.19097 0.0400265 0)
(1.1716 0.0495666 0)
(1.14813 0.0594432 0)
(1.12639 0.0690592 0)
(1.10476 0.077312 0)
(1.08306 0.0828486 0)
(1.06521 0.0842597 0)
(1.05509 0.082509 0)
(1.05389 0.0797903 0)
(1.06099 0.0760714 0)
(1.05793 0.071995 0)
(0.982675 0.0605949 0)
(0.763884 0.0409658 0)
(0.464452 0.0201725 0)
(0.202264 0.00579232 0)
(0.0292495 0.000234824 0)
(0.148567 0.000869366 0)
(0.764996 0.018746 0)
(1.03609 0.0331707 0)
(1.18271 0.0442382 0)
(1.20908 0.0538458 0)
(1.18726 0.0652732 0)
(1.16108 0.0765358 0)
(1.13603 0.086992 0)
(1.11071 0.0953664 0)
(1.08519 0.100232 0)
(1.0641 0.100419 0)
(1.05175 0.09742 0)
(1.04928 0.093724 0)
(1.05517 0.0892059 0)
(1.04481 0.0836284 0)
(0.948636 0.0690131 0)
(0.70885 0.0453068 0)
(0.409855 0.0215851 0)
(0.167244 0.00598955 0)
(0.0215124 0.000227418 0)
(0.169923 0.00134954 0)
(0.816305 0.0269556 0)
(1.07791 0.0460625 0)
(1.21133 0.0606466 0)
(1.23115 0.0730183 0)
(1.20519 0.0861827 0)
(1.17517 0.0986277 0)
(1.14585 0.109413 0)
(1.11611 0.117235 0)
(1.08631 0.120724 0)
(1.06177 0.119109 0)
(1.04717 0.114504 0)
(1.04348 0.109658 0)
(1.04779 0.104271 0)
(1.02726 0.0966996 0)
(0.906116 0.0779113 0)
(0.645346 0.0493906 0)
(0.350265 0.0225499 0)
(0.130886 0.00598621 0)
(0.0138898 0.000206866 0)
(0.201052 0.00241545 0)
(0.8863 0.0406871 0)
(1.13435 0.0666909 0)
(1.24677 0.0852944 0)
(1.25695 0.100278 0)
(1.2248 0.114629 0)
(1.1896 0.127302 0)
(1.15503 0.137294 0)
(1.12025 0.143454 0)
(1.08586 0.14456 0)
(1.05787 0.140397 0)
(1.04116 0.133772 0)
(1.03638 0.127551 0)
(1.03841 0.121099 0)
(1.00378 0.110881 0)
(0.853161 0.0866295 0)
(0.573449 0.0526894 0)
(0.287456 0.0228882 0)
(0.0949325 0.00577045 0)
(0.00688511 0.000173239 0)
(0.243463 0.00869504 3.60215e-20)
(0.979103 0.0680892 3.16626e-20)
(1.20317 0.101251 -1.11896e-20)
(1.28594 0.121766 0)
(1.28365 0.139237 -2.98299e-34)
(1.24393 0.152968 4.39311e-21)
(1.20278 0.164095 -8.09661e-21)
(1.16245 0.171874 0)
(1.12229 0.175277 1.70362e-34)
(1.08306 0.17318 -1.03905e-20)
(1.05144 0.165977 0)
(1.03251 0.157157 -1.25102e-20)
(1.02685 0.149749 -3.70217e-20)
(1.02576 0.143033 -1.75305e-20)
(0.970353 0.128681 -5.29506e-21)
(0.78364 0.0966516 -3.15049e-21)
(0.487996 0.0555841 0)
(0.219804 0.02299 2.20332e-21)
(0.0593805 0.00563259 2.60108e-21)
(0.000464163 0.000142317 4.68885e-20)
(0.273184 0.024271 2.34806e-20)
(1.05571 0.110912 5.42094e-22)
(1.25994 0.150502 2.85249e-21)
(1.32096 0.171232 0)
(1.30707 0.188501 -1.4716e-20)
(1.26034 0.200043 -1.69686e-20)
(1.21328 0.208832 -8.06763e-21)
(1.16714 0.214106 -2.93178e-20)
(1.12137 0.214703 0)
(1.0769 0.209464 4.41394e-20)
(1.04118 0.199307 4.40901e-20)
(1.01978 0.188297 1.31615e-20)
(1.01207 0.1791 4.8332e-20)
(1.00284 0.170035 6.82657e-20)
(0.917692 0.149406 0)
(0.689717 0.107036 9.64506e-20)
(0.387424 0.0579808 1.38301e-19)
(0.149501 0.0223466 1.53546e-19)
(0.023636 0.00425451 -1.75505e-19)
(-0.00615762 -0.000502355 -3.30638e-21)
(0.274205 0.040175 0)
(1.1041 0.166398 3.4604e-21)
(1.29814 0.211092 0)
(1.34815 0.231259 -1.7269e-20)
(1.32543 0.245442 0)
(1.2728 0.253102 -3.2542e-20)
(1.22023 0.258144 1.62955e-20)
(1.16857 0.259807 -5.82677e-20)
(1.11749 0.256731 -1.58297e-21)
(1.06802 0.247705 2.2693e-20)
(1.02839 0.234151 9.71689e-20)
(1.00459 0.220624 -2.20636e-22)
(0.994531 0.209461 -3.51544e-20)
(0.976754 0.197461 -6.43468e-20)
(0.870187 0.169515 7.62363e-20)
(0.622685 0.116543 -1.35031e-19)
(0.329015 0.0601927 -1.78268e-20)
(0.113386 0.0214382 0)
(0.00584866 0.00213373 -1.16762e-23)
(-0.0097256 -0.00137463 0)
(0.26771 0.0539256 2.72506e-20)
(1.13012 0.225164 -1.60341e-20)
(1.32163 0.276131 -1.59181e-20)
(1.36615 0.296445 7.6803e-21)
(1.33732 0.306688 -1.31649e-20)
(1.28026 0.309805 6.76994e-20)
(1.22314 0.310419 3.37628e-20)
(1.16673 0.307824 0)
(1.11087 0.300521 -1.12069e-19)
(1.05681 0.287228 0)
(1.01353 0.269913 -5.08099e-20)
(0.987381 0.253608 -6.33837e-20)
(0.974953 0.240124 -3.83089e-20)
(0.95017 0.224514 -4.67626e-20)
(0.831316 0.18942 0)
(0.579511 0.127345 0)
(0.298551 0.0645613 -1.1612e-19)
(0.0955366 0.0213566 2.29232e-20)
(-0.00427487 -0.000126372 -1.3412e-20)
(-0.0123356 -0.00241726 -1.56898e-20)
(0.259943 0.0660577 2.56406e-21)
(1.14142 0.283742 0)
(1.33445 0.342056 2.5522e-20)
(1.37592 0.36301 1.99495e-20)
(1.34283 0.369402 3.15695e-20)
(1.28255 0.367953 0)
(1.22185 0.364021 3.22685e-20)
(1.16151 0.35697 6.3927e-20)
(1.10156 0.345209 5.69224e-20)
(1.04339 0.32741 1.07189e-19)
(0.996694 0.30609 0)
(0.96822 0.286777 -1.3672e-19)
(0.953436 0.270796 -8.27744e-20)
(0.923348 0.251633 -4.90455e-20)
(0.799384 0.210181 3.01507e-19)
(0.552487 0.140287 3.58454e-20)
(0.284333 0.0711187 1.68281e-19)
(0.0892552 0.0224499 -7.96349e-19)
(-0.00846728 -0.00196429 4.70607e-19)
(-0.0139514 -0.00346253 -5.67055e-19)
(0.252431 0.07698 1.80732e-20)
(1.14327 0.340262 -9.58655e-22)
(1.3395 0.406953 -1.02856e-21)
(1.37907 0.429067 -1.46783e-20)
(1.34291 0.431849 -2.34099e-20)
(1.28023 0.426013 1.8028e-21)
(1.21671 0.417678 -3.50761e-20)
(1.15313 0.406235 6.55956e-20)
(1.08966 0.390034 -1.22611e-19)
(1.02781 0.367691 0)
(0.977941 0.34229 -6.16504e-20)
(0.947185 0.319899 -1.59919e-21)
(0.930144 0.301351 -9.08057e-20)
(0.896424 0.278709 0)
(0.772309 0.231798 -6.53987e-20)
(0.535263 0.155253 -1.55256e-19)
(0.280142 0.079982 4.13311e-19)
(0.0908214 0.0253268 -4.07298e-19)
(-0.00769022 -0.00274989 5.77884e-19)
(-0.0143882 -0.00428474 -6.00225e-19)
(0.24604 0.0870412 -4.17942e-22)
(1.1392 0.394061 5.47291e-21)
(1.33894 0.469826 6.17807e-21)
(1.37702 0.493404 3.28059e-21)
(1.33863 0.492977 -1.12982e-20)
(1.27414 0.483037 0)
(1.20834 0.470552 -3.13229e-20)
(1.14205 0.454919 -6.83692e-20)
(1.07551 0.434429 -6.33941e-20)
(1.01037 0.407635 0)
(0.957555 0.378205 -6.37306e-20)
(0.92456 0.352725 -7.97883e-20)
(0.905326 0.331611 9.87e-20)
(0.869043 0.305765 -6.0147e-20)
(0.747785 0.254029 -2.86458e-19)
(0.522642 0.171718 1.70064e-19)
(0.280462 0.0904089 5.04195e-20)
(0.0964393 0.0298362 0)
(-0.00340104 -0.00217033 -5.60411e-19)
(-0.0137417 -0.00475163 -2.05756e-20)
(0.240886 0.0965544 5.83237e-21)
(1.13155 0.444955 -8.64446e-21)
(1.33428 0.530207 -4.64071e-21)
(1.37104 0.555315 1.56129e-20)
(1.33094 0.552114 -3.67449e-20)
(1.26507 0.53844 5.65912e-20)
(1.19742 0.522113 6.76669e-20)
(1.12883 0.502556 -1.09187e-19)
(1.0596 0.478004 4.01532e-20)
(0.991451 0.446936 -2.6392e-19)
(0.935873 0.413574 -7.26358e-20)
(0.900718 0.385038 0)
(0.879457 0.361452 1.07347e-19)
(0.841364 0.332472 1.29156e-19)
(0.724323 0.276347 1.54665e-19)
(0.511272 0.189077 -1.85425e-19)
(0.281837 0.101986 -5.4807e-20)
(0.103357 0.0358183 6.43839e-20)
(0.00265931 -0.000346711 0)
(-0.0123981 -0.00486586 -4.48168e-20)
(0.236895 0.105685 -8.50984e-20)
(1.12198 0.493056 4.85587e-20)
(1.32679 0.587917 6.6348e-21)
(1.36214 0.614478 5.85982e-21)
(1.32066 0.608864 -1.35029e-20)
(1.25372 0.591826 -4.09667e-21)
(1.18457 0.572011 -7.45433e-20)
(1.11401 0.548845 -3.96695e-20)
(1.04235 0.520498 -1.10525e-19)
(0.971415 0.485381 3.23463e-22)
(0.913219 0.448202 -2.2702e-19)
(0.876021 0.416716 1.9404e-19)
(0.852866 0.390707 -1.18491e-19)
(0.813376 0.358774 1.42985e-19)
(0.700493 0.298396 0)
(0.499009 0.206673 -1.01167e-19)
(0.281984 0.113971 2.37736e-22)
(0.109866 0.0426698 -2.82144e-19)
(0.00925825 0.00237017 -4.13766e-20)
(-0.0106111 -0.00464886 0)
(0.233944 0.114582 0)
(1.11145 0.538589 5.53531e-20)
(1.31737 0.643297 2.57026e-20)
(1.35114 0.670747 -1.53575e-21)
(1.30847 0.66302 -2.11116e-20)
(1.24071 0.642976 0)
(1.17032 0.620024 -3.19639e-20)
(1.09802 0.59358 -1.04463e-21)
(1.02416 0.561747 2.37193e-19)
(0.950616 0.522828 -3.60752e-20)
(0.889917 0.481991 -1.64293e-19)
(0.850779 0.447658 1.00631e-19)
(0.825854 0.419238 -2.23816e-21)
(0.785059 0.38428 1.52246e-19)
(0.675701 0.319782 9.40396e-20)
(0.484932 0.223785 -2.18746e-19)
(0.279306 0.125824 2.59027e-19)
(0.114265 0.0498034 7.67521e-20)
(0.0150566 0.00556102 3.16133e-19)
(-0.00874304 -0.00421292 -8.44207e-19)
(0.231967 0.12339 -2.72683e-20)
(1.10067 0.581743 3.75759e-20)
(1.30665 0.695704 -2.59679e-20)
(1.33864 0.724094 -6.45202e-21)
(1.29495 0.714483 0)
(1.22654 0.691766 -2.17907e-20)
(1.1551 0.666023 1.09615e-19)
(1.08128 0.636637 8.63097e-20)
(1.0054 0.601638 0)
(0.929341 0.559189 -5.23025e-19)
(0.866203 0.514867 4.45683e-19)
(0.825196 0.477724 0)
(0.798611 0.446842 1.39102e-19)
(0.756557 0.408779 -2.23544e-21)
(0.649821 0.340032 -3.01714e-19)
(0.468906 0.239483 1.17906e-19)
(0.273682 0.136795 0)
(0.115801 0.0564176 4.15121e-19)
(0.0191652 0.00858101 0)
(-0.0071134 -0.00372841 -4.00578e-19)
(0.230809 0.132183 3.24396e-20)
(1.09006 0.622738 4.80481e-20)
(1.29513 0.745228 -2.59479e-20)
(1.32514 0.774527 0)
(1.28055 0.76324 -1.196e-20)
(1.21163 0.738159 0)
(1.13932 0.70994 -1.04943e-19)
(1.06413 0.677944 -3.8632e-20)
(0.986344 0.640109 4.12882e-20)
(0.907852 0.594422 -2.58977e-19)
(0.842285 0.546782 4.58435e-20)
(0.799439 0.506791 0)
(0.77129 0.473353 -2.97356e-19)
(0.727937 0.431972 2.16758e-21)
(0.623143 0.358564 0)
(0.450634 0.253349 1.15289e-21)
(0.265028 0.146094 3.80285e-19)
(0.11413 0.0617364 -3.58831e-19)
(0.0211031 0.0108948 1.05948e-19)
(-0.00593373 -0.00333697 0)
(0.23015 0.140853 0)
(1.0799 0.661656 5.74392e-20)
(1.28305 0.792037 3.69726e-20)
(1.31106 0.822102 -2.53327e-21)
(1.26564 0.809317 8.1682e-22)
(1.19633 0.782153 -4.8854e-20)
(1.12327 0.751759 4.02846e-20)
(1.04684 0.71747 -4.69442e-20)
(0.967271 0.677127 1.86116e-19)
(0.886371 0.628519 -4.14466e-19)
(0.818321 0.577712 -4.0836e-21)
(0.773613 0.534828 -1.29396e-19)
(0.743948 0.498691 4.83475e-19)
(0.699177 0.453618 -2.58703e-21)
(0.595774 0.375115 -2.35008e-19)
(0.430497 0.264902 -4.17995e-19)
(0.253738 0.153305 0)
(0.109969 0.0652838 0)
(0.0211691 0.0121835 1.14402e-19)
(-0.00520485 -0.00312324 -6.71394e-20)
(0.230191 0.149526 4.49901e-20)
(1.07034 0.698398 -1.30067e-19)
(1.27071 0.83623 -3.96637e-20)
(1.29671 0.866885 0)
(1.25053 0.852775 -1.5107e-21)
(1.18091 0.823776 -3.88593e-20)
(1.10723 0.791488 9.34356e-20)
(1.02968 0.75521 1.80985e-19)
(0.948402 0.712689 2.40881e-19)
(0.865099 0.661491 -3.38071e-19)
(0.794456 0.607687 -3.84437e-19)
(0.747784 0.5619 3.46348e-19)
(0.71655 0.522811 0)
(0.670254 0.473466 -1.06923e-19)
(0.567784 0.389307 -2.54306e-19)
(0.408608 0.273781 -3.0084e-19)
(0.240129 0.158006 -3.55233e-19)
(0.103492 0.0669495 1.04934e-19)
(0.0197209 0.0124514 -6.16089e-20)
(-0.00485462 -0.00309923 2.99193e-22)
(0.230351 0.158131 0)
(1.06149 0.733377 0)
(1.25834 0.877904 2.48324e-21)
(1.28232 0.908999 0)
(1.23543 0.893703 -1.67003e-20)
(1.16559 0.863089 2.13643e-20)
(1.0914 0.829157 0)
(1.01283 0.791178 2.07729e-20)
(0.929926 0.746801 4.00652e-19)
(0.844214 0.69336 -7.78409e-19)
(0.770821 0.636789 0)
(0.721993 0.5881 -2.23303e-19)
(0.689024 0.545658 -3.03953e-21)
(0.641061 0.491304 -2.32929e-21)
(0.539192 0.40084 2.72324e-19)
(0.385242 0.27972 -8.43228e-23)
(0.224762 0.160031 -7.65775e-19)
(0.0952401 0.0666763 2.25859e-19)
(0.0171348 0.0118171 6.67172e-20)
(-0.00474777 -0.00319969 0)
(0.230643 0.166605 -1.78442e-19)
(1.0531 0.766706 -8.70012e-20)
(1.24605 0.917149 -1.14894e-19)
(1.26805 0.948578 1.16926e-19)
(1.22054 0.932176 -4.49705e-20)
(1.15055 0.900155 0)
(1.07593 0.864813 5.36378e-20)
(0.996454 0.825398 -4.7006e-20)
(0.911999 0.779481 3.91374e-21)
(0.82388 0.724161 5.77107e-20)
(0.747549 0.665118 4.9834e-19)
(0.696262 0.61353 -7.82542e-20)
(0.661258 0.567237 -2.98748e-19)
(0.61145 0.506979 -1.24825e-19)
(0.510081 0.409406 1.4793e-19)
(0.361114 0.282457 9.18044e-23)
(0.208088 0.159267 2.06332e-19)
(0.0858992 0.0645661 -4.86147e-19)
(0.0139146 0.0104028 5.74591e-19)
(-0.00478982 -0.00336361 8.37543e-20)
(0.23086 0.174818 6.76306e-20)
(1.04518 0.798473 -4.8905e-20)
(1.23397 0.954066 6.23691e-21)
(1.25403 0.985756 7.41087e-20)
(1.20598 0.968306 1.63514e-20)
(1.13591 0.935049 -3.2403e-20)
(1.06096 0.898507 1.37005e-20)
(0.980666 0.857894 -1.94721e-19)
(0.894755 0.810735 -4.39594e-19)
(0.804233 0.753908 -4.63408e-19)
(0.724782 0.692772 0)
(0.670623 0.638308 -3.45062e-19)
(0.633153 0.587656 4.31389e-19)
(0.581175 0.520382 0)
(0.480363 0.414612 -3.17041e-19)
(0.336819 0.281513 1.88596e-19)
(0.191469 0.155559 -2.21941e-19)
(0.0767323 0.0609159 -2.61645e-19)
(0.0107445 0.00856596 -4.62894e-19)
(-0.00490434 -0.00358154 -3.6083e-19)
(0.231437 0.182906 -7.6304e-20)
(1.03758 0.828671 5.23252e-20)
(1.22215 0.988727 1.19702e-19)
(1.24035 1.02062 1.07761e-19)
(1.19186 1.00219 -3.06766e-20)
(1.12177 0.967858 -1.1018e-20)
(1.04657 0.930291 4.72347e-20)
(0.965562 0.88871 -1.97928e-19)
(0.878284 0.840587 -2.60022e-19)
(0.7854 0.782625 4.84378e-19)
(0.702647 0.719822 1.09583e-18)
(0.645146 0.662579 0)
(0.604606 0.607129 0)
(0.549863 0.531524 -1.43828e-19)
(0.449698 0.416007 0)
(0.312577 0.276038 4.05399e-19)
(0.176278 0.148101 4.77194e-19)
(0.0697453 0.0556679 0)
(0.00884812 0.00667016 0)
(-0.0049778 -0.00377709 3.87787e-19)
(0.23169 0.190572 8.66344e-20)
(1.03032 0.857293 7.00356e-20)
(1.21066 1.02126 8.6934e-20)
(1.22707 1.05328 -1.03227e-19)
(1.17825 1.03393 -3.99203e-20)
(1.10819 0.99866 1.95159e-21)
(1.03284 0.960227 -6.34227e-20)
(0.951208 0.917873 -5.59736e-22)
(0.862667 0.869044 -5.09168e-21)
(0.767477 0.810318 -4.58461e-21)
(0.681286 0.746311 5.64642e-19)
(0.619945 0.686512 0)
(0.575562 0.625955 4.38099e-19)
(0.517099 0.540584 3.07227e-19)
(0.417333 0.41339 7.40883e-19)
(0.287938 0.264759 2.18562e-19)
(0.163976 0.134187 -2.56822e-19)
(0.0692848 0.0456578 -1.50787e-19)
(0.0143299 0.00362929 0)
(-0.00291613 -0.0031677 4.1695e-19)
(0.232267 0.198258 -1.95104e-19)
(1.02336 0.884437 0)
(1.19949 1.05171 1.0203e-19)
(1.21425 1.08381 -8.73521e-20)
(1.16519 1.06363 5.36922e-20)
(1.09522 1.02754 1.45449e-20)
(1.0198 0.988374 1.14552e-19)
(0.937643 0.94542 -1.67323e-20)
(0.847952 0.896116 0)
(0.750547 0.836965 -5.32868e-19)
(0.660839 0.772249 -1.22687e-18)
(0.595176 0.710286 5.08881e-20)
(0.546066 0.644461 6.05711e-19)
(0.482577 0.547986 0)
(0.382078 0.407199 5.00698e-19)
(0.260604 0.24663 0)
(0.152491 0.107919 0)
(0.0801152 0.0166319 -1.63086e-19)
(0.0485856 -0.0111221 0)
(0.0272575 0.0106211 1.11751e-19)
(0.232489 0.205362 -2.17886e-19)
(1.01665 0.910436 0)
(1.18863 1.08029 1.69653e-19)
(1.20182 1.11246 0)
(1.15265 1.09155 -3.24416e-20)
(1.0828 1.05479 0)
(1.0074 1.01504 4.16052e-21)
(0.924771 0.971687 2.69199e-20)
(0.834014 0.922161 3.26088e-20)
(0.734442 0.86295 -5.83189e-19)
(0.641112 0.798064 3.65779e-20)
(0.570599 0.734571 4.11259e-19)
(0.515678 0.663454 5.91433e-19)
(0.44539 0.554359 8.00497e-20)
(0.341944 0.398865 3.93118e-19)
(0.225505 0.222582 0)
(0.129545 0.0648245 5.41756e-19)
(0.0701033 -0.0273733 -3.16084e-19)
(0.0422322 0.0427652 3.67538e-19)
(-0.0690799 0.437556 -4.33007e-19)
(0.232711 0.212282 1.80392e-19)
(1.00995 0.935065 2.78457e-19)
(1.178 1.10732 0)
(1.18965 1.13966 4.9437e-21)
(1.14043 1.11827 9.54708e-20)
(1.07067 1.08109 -6.45099e-20)
(0.995318 1.04103 3.45482e-20)
(0.912177 0.997605 0)
(0.820314 0.948261 2.12139e-19)
(0.718483 0.889571 -2.99988e-20)
(0.621185 0.825237 0)
(0.544942 0.761075 0)
(0.482403 0.684393 5.30519e-19)
(0.403154 0.560265 -2.48073e-19)
(0.293682 0.390248 -3.99107e-19)
(0.177757 0.196005 0)
(0.0755869 0.073987 2.73495e-19)
(0.00327542 0.438065 -3.15476e-19)
(0.0329189 1.89285 -1.71714e-19)
(0.0621253 2.81296 -2.20306e-19)
(0.232766 0.21839 -1.35393e-19)
(1.00344 0.958511 -3.57134e-19)
(1.16759 1.13278 1.00659e-19)
(1.17773 1.1653 8.42823e-20)
(1.12855 1.14356 0)
(1.05889 1.10614 -5.58582e-20)
(0.983749 1.06602 3.92494e-20)
(0.900054 1.02275 -1.2595e-20)
(0.807127 0.973905 3.1863e-20)
(0.703057 0.916221 5.53655e-19)
(0.60166 0.853147 6.19356e-19)
(0.519121 0.789427 4.60992e-19)
(0.447058 0.707365 5.34467e-19)
(0.357412 0.564734 -5.84204e-19)
(0.242709 0.385024 -6.0373e-19)
(0.120024 0.239608 0)
(0.0423734 0.82956 0)
(0.0998443 2.55206 1.50279e-19)
(0.101081 3.20259 0)
(0.104392 3.38866 3.56001e-19)
(0.235364 0.224026 0)
(0.997717 0.980981 0)
(1.1572 1.15651 0)
(1.16587 1.1892 2.53072e-20)
(1.11667 1.16717 8.71911e-20)
(1.04724 1.12983 -5.37645e-20)
(0.972589 1.08991 2.21849e-20)
(0.888364 1.04701 -1.20255e-20)
(0.794423 0.99896 2.60128e-19)
(0.688199 0.942765 -8.96326e-21)
(0.582702 0.881726 1.22127e-18)
(0.493435 0.819457 -5.34144e-20)
(0.409824 0.733467 6.46169e-20)
(0.310757 0.565469 8.47079e-20)
(0.179422 0.396991 -5.4313e-21)
(0.097725 0.960715 1.84486e-21)
(0.138517 2.72384 -7.98176e-19)
(0.146502 3.29298 -2.97993e-19)
(0.135783 3.42567 1.52342e-19)
(0.123532 3.44788 -1.68771e-19)
(0.154096 0.181314 8.00315e-20)
(0.986672 1.00522 0)
(1.14644 1.17872 -2.00916e-19)
(1.15455 1.21188 -2.27737e-19)
(1.10567 1.18992 2.03185e-19)
(1.03668 1.15284 6.14799e-20)
(0.961786 1.11278 -1.85632e-20)
(0.877217 1.07053 1.20944e-19)
(0.782373 1.0236 -2.10286e-19)
(0.674207 0.969387 0)
(0.564733 0.91121 5.97839e-19)
(0.468446 0.851017 -3.75873e-19)
(0.372182 0.765437 0)
(0.257039 0.563115 7.90159e-20)
(0.142038 0.736563 1.89042e-19)
(0.154234 2.49709 -2.18969e-19)
(0.210843 3.32226 2.44796e-19)
(0.191209 3.43795 1.30366e-19)
(0.159223 3.45969 1.45559e-19)
(0.137673 3.47012 2.28014e-19)
(0.278246 0.26201 -1.46355e-19)
(0.971345 1.01496 0)
(1.12831 1.20408 2.18407e-19)
(1.13962 1.24231 2.48211e-19)
(1.08831 1.22295 -2.23793e-19)
(1.01855 1.18625 -8.45601e-20)
(0.942729 1.14783 -4.17333e-21)
(0.857648 1.10681 9.69464e-21)
(0.761486 1.06208 1.95118e-19)
(0.650558 1.01183 4.69592e-19)
(0.535784 0.96023 3.32869e-20)
(0.428603 0.905323 3.33027e-19)
(0.303199 0.802435 6.04469e-20)
(0.212061 0.915498 -7.75503e-20)
(0.228647 2.34501 -1.75305e-19)
(0.290275 3.32401 1.64459e-19)
(0.273212 3.46624 -1.79625e-19)
(0.237871 3.48846 -1.03084e-19)
(0.200885 3.5164 -8.25864e-20)
(0.149439 3.5108 -9.76017e-21)
(0.266113 0.258893 0)
(0.968956 1.03757 6.28022e-20)
(1.11997 1.22754 -4.49497e-20)
(1.12899 1.26595 -2.94752e-20)
(1.07749 1.24614 -1.54209e-19)
(1.00768 1.20967 8.69607e-20)
(0.931538 1.17139 1.07402e-20)
(0.846255 1.13119 8.31163e-21)
(0.749561 1.08795 -2.00022e-19)
(0.637327 1.04059 -1.37096e-20)
(0.519726 0.994004 -1.07243e-18)
(0.407352 0.943463 4.7655e-20)
(0.28463 0.867299 -5.67859e-20)
(0.254564 1.47417 -7.12242e-20)
(0.330369 3.09828 1.81469e-20)
(0.349605 3.46335 2.36365e-22)
(0.309304 3.51998 2.46591e-19)
(0.271963 3.54715 1.15295e-19)
(0.223313 3.57095 -1.8913e-20)
(0.164337 3.56726 -4.13491e-20)
(0.249955 0.25741 1.58851e-19)
(0.964984 1.06286 4.28341e-19)
(1.11122 1.2531 -1.28902e-19)
(1.11778 1.291 -1.1137e-19)
(1.06603 1.27068 0)
(0.996374 1.23427 1.5208e-19)
(0.920218 1.19623 3.05515e-20)
(0.835013 1.15682 6.81351e-21)
(0.738109 1.11518 -2.2536e-20)
(0.625097 1.07098 -4.15365e-19)
(0.505502 1.02979 -4.90466e-19)
(0.389565 0.982899 -3.86234e-19)
(0.286362 0.995733 -4.28526e-19)
(0.32478 2.19605 4.43281e-19)
(0.418014 3.37233 3.62828e-19)
(0.394405 3.52077 0)
(0.348937 3.56647 0)
(0.310843 3.60791 -1.3189e-20)
(0.25996 3.66847 0)
(0.176976 3.64485 -1.75861e-21)
(0.239321 0.259335 -2.37691e-19)
(0.95908 1.08924 -3.63393e-19)
(1.10103 1.27984 0)
(1.1052 1.31677 5.92542e-21)
(1.0533 1.29582 -1.65284e-19)
(0.983939 1.25935 2.43718e-19)
(0.908105 1.2216 2.83837e-20)