/*--------------------------------*- C++ -*----------------------------------*\
| =========                 |                                                 |
| \\      /  F ield         | OpenFOAM: The Open Source CFD Toolbox           |
|  \\    /   O peration     | Version:  2112                                  |
|   \\  /    A nd           | Website:  www.openfoam.com                      |
|    \\/     M anipulation  |                                                 |
\*---------------------------------------------------------------------------*/
FoamFile
{
    version     2.0;
    format      ascii;
    arch        "LSB;label=32;scalar=64";
    class       volScalarField;
    location    "31.5";
    object      p;
}
// * * * * * * * * * * * * * * * * * * * * * * * * * * * * * * * * * * * * * //

dimensions      [0 2 -2 0 0 0 0];

internalField   nonuniform List<scalar> 
8800
(
1.5502
1.50241
1.46372
1.43471
1.41384
1.39899
1.38836
1.38084
1.37597
1.37385
1.37502
1.37913
1.3857
1.39497
1.40771
1.42542
1.45018
1.48411
1.52665
1.58535
1.38146
1.38914
1.3966
1.39991
1.3984
1.3933
1.3868
1.38069
1.37593
1.37301
1.37264
1.37505
1.37946
1.38534
1.39207
1.39831
1.40193
1.40118
1.39574
1.38704
1.35989
1.36605
1.37017
1.3731
1.37514
1.37573
1.37459
1.37245
1.37037
1.36938
1.37023
1.37252
1.37524
1.37736
1.37792
1.37668
1.37431
1.3709
1.36633
1.36257
1.35412
1.35677
1.35951
1.36191
1.36353
1.36467
1.36538
1.36546
1.36509
1.36495
1.36558
1.36665
1.36739
1.36738
1.36671
1.36558
1.36372
1.36112
1.3587
1.3572
1.3488
1.35022
1.35199
1.35402
1.35579
1.35711
1.35807
1.35881
1.35935
1.35981
1.36032
1.36069
1.36068
1.3603
1.35953
1.35821
1.35647
1.35458
1.35325
1.35242
1.34379
1.34471
1.34596
1.34752
1.34914
1.35065
1.3519
1.35291
1.35379
1.35455
1.35508
1.35525
1.35507
1.35451
1.35353
1.35225
1.35085
1.34954
1.34869
1.34814
1.33899
1.33966
1.34062
1.34193
1.34333
1.34478
1.34619
1.34745
1.34855
1.34951
1.35014
1.35031
1.35004
1.34938
1.34844
1.34737
1.34626
1.34527
1.34466
1.34426
1.33434
1.33485
1.33564
1.33678
1.33806
1.33943
1.34085
1.34227
1.34359
1.34475
1.34552
1.34574
1.34548
1.34488
1.3441
1.34323
1.34233
1.34155
1.34108
1.34077
1.32978
1.33018
1.33085
1.33188
1.3331
1.33442
1.33583
1.33732
1.33882
1.34021
1.34117
1.34151
1.34139
1.34096
1.34035
1.33964
1.3389
1.33829
1.33793
1.33768
1.32525
1.32557
1.32615
1.32711
1.32829
1.3296
1.33104
1.3326
1.33424
1.33587
1.33707
1.33765
1.33774
1.33751
1.33707
1.33653
1.33593
1.33545
1.33518
1.33498
1.32068
1.32094
1.32147
1.32239
1.32356
1.3249
1.32641
1.32809
1.32992
1.33181
1.33334
1.33422
1.33457
1.33454
1.33428
1.33389
1.33342
1.33305
1.33284
1.33268
1.31601
1.31623
1.31671
1.31763
1.31883
1.32024
1.32186
1.32372
1.32581
1.32804
1.32997
1.33121
1.33184
1.33204
1.33197
1.33172
1.33138
1.33111
1.33095
1.33082
1.3112
1.31137
1.31183
1.31277
1.31404
1.31555
1.31731
1.3194
1.32182
1.32452
1.32693
1.32858
1.32955
1.33004
1.33019
1.33009
1.32988
1.32969
1.32958
1.32947
1.3062
1.30633
1.30677
1.30774
1.30909
1.31073
1.31268
1.31502
1.3178
1.32102
1.32405
1.32627
1.32771
1.32855
1.32897
1.32909
1.32901
1.32891
1.32885
1.32876
1.30091
1.301
1.30145
1.30247
1.30395
1.30577
1.308
1.31074
1.31407
1.31799
1.32177
1.32461
1.32653
1.32774
1.32845
1.32879
1.32888
1.32889
1.32887
1.3288
1.29529
1.29535
1.29578
1.29685
1.29844
1.30045
1.30297
1.30614
1.31008
1.31485
1.31956
1.32323
1.32582
1.32756
1.32867
1.32931
1.32963
1.32977
1.32981
1.32974
1.28909
1.28914
1.28958
1.29068
1.29242
1.2947
1.29762
1.30137
1.30612
1.31194
1.31781
1.32245
1.32579
1.32814
1.32976
1.33081
1.33142
1.33172
1.33181
1.33175
1.28202
1.28205
1.28253
1.2837
1.28565
1.28827
1.29171
1.29622
1.30202
1.30918
1.31642
1.32223
1.32651
1.3296
1.33181
1.3333
1.33426
1.33473
1.33485
1.33479
1.2736
1.27363
1.27417
1.2755
1.27774
1.28083
1.28497
1.29045
1.29754
1.30634
1.31531
1.32255
1.32793
1.33187
1.33476
1.3368
1.33813
1.33877
1.33893
1.33885
1.26335
1.26338
1.26403
1.26563
1.26833
1.27213
1.27725
1.28404
1.29283
1.3037
1.31473
1.32363
1.33028
1.33518
1.33884
1.34143
1.34313
1.34395
1.34414
1.34404
1.25073
1.25077
1.25158
1.25358
1.25697
1.26174
1.26816
1.27667
1.2876
1.30102
1.31455
1.32544
1.33357
1.33961
1.34411
1.34732
1.34941
1.3504
1.35063
1.35052
1.235
1.23505
1.23611
1.23871
1.24307
1.24921
1.25742
1.26822
1.28192
1.29849
1.31499
1.32816
1.33801
1.34532
1.35079
1.35473
1.35726
1.35842
1.35868
1.35855
1.21504
1.21511
1.21655
1.22005
1.22587
1.23392
1.24465
1.25851
1.27574
1.29616
1.31614
1.33194
1.34371
1.35249
1.35907
1.36382
1.36683
1.36818
1.36847
1.36831
1.18904
1.18916
1.19124
1.1962
1.20429
1.21526
1.22954
1.24751
1.2692
1.29422
1.3182
1.33694
1.35087
1.36126
1.36913
1.3748
1.3783
1.37983
1.38014
1.37995
1.15407
1.15433
1.15767
1.1653
1.1772
1.19268
1.21205
1.23543
1.26259
1.29293
1.32135
1.34331
1.35958
1.37179
1.38103
1.38769
1.39172
1.39343
1.39375
1.39351
1.10455
1.10567
1.11234
1.12538
1.14382
1.16622
1.19258
1.22276
1.25636
1.29263
1.32581
1.35115
1.36991
1.38405
1.39478
1.40246
1.40706
1.40893
1.40921
1.40891
1.03175
1.03931
1.05466
1.07769
1.10572
1.13723
1.17212
1.21015
1.25091
1.2937
1.3321
1.36125
1.38286
1.39927
1.4118
1.42084
1.42626
1.42851
1.42888
1.42866
0.954006
0.971442
0.996189
1.02958
1.06749
1.10822
1.1517
1.1978
1.24622
1.29636
1.34113
1.37521
1.40064
1.42004
1.43502
1.44608
1.45274
1.45537
1.456
1.45597
0.890081
0.910392
0.942967
0.984874
1.03131
1.08061
1.13234
1.18633
1.24222
1.29948
1.35029
1.38885
1.41764
1.43962
1.45649
1.4688
1.47646
1.47988
1.48041
1.48045
0.838064
0.860165
0.897906
0.945823
0.998955
1.05533
1.11428
1.17545
1.23834
1.3023
1.35868
1.40124
1.43282
1.4568
1.47517
1.48875
1.49758
1.50104
1.50168
1.5018
0.794944
0.818132
0.859339
0.912018
0.970458
1.03264
1.09775
1.16525
1.23447
1.30457
1.36599
1.41203
1.44598
1.47163
1.49125
1.50568
1.51504
1.51897
1.51984
1.51999
0.758108
0.781931
0.825875
0.882214
0.945057
1.01214
1.08256
1.15565
1.23056
1.30623
1.37221
1.42131
1.45725
1.48422
1.50471
1.51976
1.52948
1.53383
1.53494
1.53511
0.725587
0.749849
0.79587
0.855308
0.921872
0.9932
1.06831
1.14639
1.22647
1.30726
1.37743
1.42929
1.46693
1.49495
1.51606
1.53154
1.54152
1.54616
1.54736
1.54752
0.69595
0.720612
0.768366
0.830431
0.900221
0.975271
1.05455
1.13717
1.22201
1.3076
1.38171
1.43616
1.47534
1.50424
1.5258
1.54153
1.55157
1.55633
1.55759
1.5577
0.668326
0.69335
0.74267
0.806979
0.879606
0.957949
1.04098
1.12773
1.21701
1.30715
1.38511
1.44208
1.48278
1.51251
1.5345
1.55036
1.56046
1.5653
1.56664
1.56671
0.642
0.667445
0.718179
0.784486
0.859656
0.940946
1.02735
1.1179
1.21133
1.30586
1.38763
1.44721
1.48948
1.52011
1.54256
1.55862
1.56874
1.57349
1.57488
1.575
0.6167
0.642578
0.694385
0.76267
0.840113
0.924055
1.01352
1.10755
1.20488
1.30366
1.38929
1.45161
1.49563
1.52729
1.55029
1.56659
1.57677
1.58147
1.58276
1.58283
0.592066
0.618503
0.671356
0.741348
0.820822
0.907149
0.999393
1.09662
1.19759
1.30051
1.39007
1.45535
1.50133
1.53419
1.55788
1.57451
1.58475
1.58938
1.59053
1.59052
0.568021
0.594904
0.648888
0.720401
0.801705
0.890174
0.98492
1.08507
1.18944
1.29635
1.38994
1.45842
1.50662
1.54089
1.5654
1.58241
1.5927
1.59721
1.59823
1.59813
0.544484
0.571915
0.626865
0.699777
0.782732
0.873115
0.970105
1.07289
1.18041
1.29116
1.38881
1.46073
1.51148
1.54742
1.5729
1.59033
1.60061
1.60492
1.60577
1.60559
0.521368
0.549397
0.605281
0.679475
0.763902
0.855995
0.954983
1.06014
1.17053
1.28488
1.38659
1.46221
1.51587
1.5538
1.58039
1.59824
1.60843
1.61243
1.61309
1.61285
0.498684
0.52737
0.584166
0.659523
0.745268
0.838861
0.939611
1.04686
1.15982
1.27751
1.3832
1.46271
1.51967
1.56001
1.58796
1.60619
1.61609
1.61965
1.6201
1.61981
0.476603
0.505901
0.563562
0.639962
0.726876
0.821788
0.924061
1.03313
1.14836
1.26907
1.37857
1.46209
1.52272
1.56601
1.59575
1.61435
1.62361
1.62647
1.62665
1.62633
0.455158
0.485036
0.543501
0.620853
0.708792
0.804843
0.908432
1.01905
1.13623
1.25962
1.37266
1.46018
1.52479
1.57166
1.60391
1.62312
1.63127
1.63286
1.63264
1.63234
0.43429
0.46482
0.524025
0.602236
0.691084
0.788114
0.892814
1.00473
1.12355
1.24923
1.36543
1.45684
1.5256
1.57662
1.61245
1.63322
1.64007
1.63932
1.63803
1.63792
0.414174
0.445275
0.505195
0.584181
0.673816
0.771686
0.877308
0.990279
1.11044
1.238
1.3569
1.45194
1.52483
1.58034
1.62089
1.64516
1.6521
1.64838
1.64427
1.64326
0.394722
0.426413
0.486993
0.566664
0.656956
0.755511
0.861854
0.97564
1.09682
1.22587
1.34696
1.44522
1.52214
1.58204
1.62809
1.65833
1.66909
1.66598
1.65552
1.63851
0.376008
0.408242
0.469297
0.549492
0.640211
0.739254
0.846031
0.960318
1.08214
1.21218
1.3349
1.43582
1.51687
1.58055
1.63138
1.6688
1.68439
1.67519
1.65838
1.64071
0.358203
0.390626
0.452292
0.532908
0.623881
0.723264
0.830069
0.944648
1.06672
1.19722
1.3209
1.42341
1.50848
1.57489
1.62563
1.66323
1.68188
1.66378
1.59312
1.55963
0.341959
0.3724
0.43631
0.517504
0.60868
0.708029
0.814263
0.928855
1.0508
1.18113
1.30495
1.40782
1.49592
1.56513
1.6068
1.63613
1.63842
1.58847
1.51665
1.47184
0.285976
0.356438
0.42164
0.502122
0.59316
0.692152
0.798551
0.912671
1.03402
1.1635
1.28653
1.38869
1.47589
1.55239
1.55632
1.57145
1.53615
1.47129
1.39391
1.35032
0.324699
0.340658
0.400274
0.480326
0.570622
0.669318
0.774685
0.887922
1.00793
1.13543
1.25561
1.35504
1.4336
1.51009
1.50718
1.40202
1.2983
1.22639
1.15249
1.18773
0.293591
0.322834
0.383282
0.462799
0.553097
0.651444
0.756956
0.869433
0.988189
1.1136
1.23057
1.32577
1.39671
1.43697
1.39239
1.24798
1.11917
1.0274
0.926491
0.981493
0.269617
0.30184
0.363479
0.443299
0.533656
0.631843
0.737172
0.848696
0.965892
1.0887
1.20172
1.29123
1.35243
1.36154
1.25791
1.08161
0.924499
0.802306
0.667644
0.704646
0.246213
0.279976
0.342793
0.42345
0.513977
0.612016
0.716774
0.827228
0.942687
1.06256
1.17087
1.25409
1.30045
1.27689
1.11923
0.916296
0.718122
0.539014
0.339762
0.330829
0.223535
0.257649
0.32134
0.402726
0.493458
0.591297
0.695376
0.804657
0.918151
1.03477
1.13784
1.21393
1.24306
1.18473
0.987283
0.76788
0.538609
0.334981
0.0758793
-0.247704
0.200609
0.234678
0.298859
0.380736
0.471684
0.569378
0.672854
0.780946
0.892397
1.00556
1.10324
1.17106
1.18276
1.07358
0.872723
0.653501
0.436045
0.251514
0.181095
0.083558
0.176575
0.21062
0.275036
0.35715
0.448185
0.545647
0.648433
0.755174
0.864286
0.973523
1.0654
1.12347
1.11043
0.964482
0.771595
0.571941
0.400103
0.300618
0.276415
0.258423
0.151112
0.185154
0.249714
0.3319
0.42285
0.519925
0.621793
0.726892
0.833259
0.937958
1.02355
1.06947
1.03596
0.863679
0.680228
0.506583
0.372624
0.330665
0.315707
0.313814
0.124013
0.158135
0.222844
0.305019
0.395756
0.492237
0.592951
0.696089
0.799282
0.898875
0.97748
1.01034
0.959247
0.769291
0.595681
0.440359
0.351954
0.337172
0.335335
0.335331
0.0952649
0.129578
0.194426
0.276542
0.366926
0.462634
0.561952
0.662798
0.762395
0.856372
0.927054
0.947872
0.864337
0.682782
0.516951
0.387706
0.349769
0.345915
0.345702
0.346346
0.0651769
0.0996959
0.164604
0.246593
0.336491
0.431224
0.528885
0.627113
0.722675
0.810569
0.872848
0.878393
0.768424
0.601675
0.452375
0.365381
0.355915
0.353772
0.352818
0.353169
0.0343263
0.068907
0.133665
0.215431
0.304686
0.398226
0.493976
0.589252
0.680377
0.761718
0.815931
0.802814
0.680415
0.529226
0.398219
0.376009
0.359038
0.356709
0.357544
0.358089
0.00317872
0.037684
0.102149
0.183484
0.271909
0.364038
0.457595
0.549604
0.635923
0.710414
0.7561
0.727351
0.592339
0.465201
0.364304
0.323899
0.3459
0.357601
0.360839
0.361649
-0.0274418
0.00680197
0.0708158
0.151401
0.238748
0.329222
0.420314
0.508779
0.589971
0.657464
0.693404
0.651731
0.500708
0.410416
0.355318
0.354865
0.349551
0.35001
0.353201
0.355244
-0.0559872
-0.0226028
0.0405426
0.120069
0.20605
0.294579
0.382945
0.467638
0.543494
0.603624
0.631946
0.572036
0.402175
0.320072
0.372662
0.323256
0.306009
0.300528
0.302744
0.305899
-0.0811327
-0.0487488
0.0124267
0.0906571
0.174889
0.261162
0.346556
0.427328
0.49789
0.550227
0.574797
0.487277
0.288347
0.140914
0.187602
0.195234
0.203903
0.206412
0.20847
0.211064
-0.100942
-0.0703814
-0.01149
0.0645478
0.146543
0.230239
0.312485
0.389299
0.454858
0.499512
0.52031
0.41004
0.182881
-0.151372
-0.28731
-0.0795237
0.0284851
0.0625005
0.0757876
0.0849232
-0.113553
-0.0855752
-0.029752
0.0434248
0.122579
0.203303
0.282267
0.355311
0.416395
0.454746
0.469867
0.360529
0.183959
-0.106251
-0.329002
-0.109426
-0.0491652
-0.0347875
-0.0265718
-0.0226787
-0.116684
-0.0924699
-0.0406913
0.028897
0.104678
0.181989
0.257645
0.327368
0.384628
0.418866
0.425804
0.360883
0.381483
0.63904
0.707507
0.315014
0.0195702
-0.00396809
-0.00538865
-0.00440563
-0.108973
-0.0890853
-0.042471
0.0223783
0.0941838
0.167857
0.240374
0.307589
0.362261
0.393915
0.395496
0.353359
0.415248
0.715879
0.729981
0.296539
0.00262458
-0.0084387
0.0352711
0.00624649
-0.0886049
-0.0729095
-0.0337719
0.0248406
0.0920253
0.162044
0.231961
0.297804
0.352679
0.383942
0.372457
0.20781
-0.25532
-1.08982
-1.71504
-2.09739
-1.83964
-1.37454
-0.943138
-0.811866
-0.0569973
-0.0462335
-0.0149554
0.0360956
0.098281
0.164872
0.23319
0.299481
0.358454
0.396824
0.388486
0.138514
-0.561477
-1.51341
-2.19018
-2.4584
-2.27253
-1.92483
-1.55096
-1.37445
-0.0185179
-0.0121401
0.0105905
0.0540784
0.111372
0.175453
0.243634
0.313514
0.380077
0.440081
0.465766
0.390625
0.125858
-0.0959
-0.18016
-0.0157518
0.272036
0.557809
0.763142
0.861503
0.0208044
0.0243356
0.0382711
0.0746247
0.128309
0.191307
0.261125
0.336724
0.416853
0.502568
0.598186
0.737672
0.968305
1.4045
1.94729
2.47535
2.87913
3.11764
3.22426
3.25263
0.0548868
0.0569118
0.0646275
0.0936478
0.144441
0.208598
0.281446
0.363384
0.4569
0.56475
0.698523
0.845543
1.14449
1.71921
2.36986
2.95078
3.36775
3.60459
3.70739
3.73478
0.0878149
0.0884066
0.0910095
0.111082
0.158059
0.223647
0.299622
0.385551
0.481812
0.593361
0.711226
0.84182
1.02063
1.48387
2.02211
2.47533
2.80894
3.00178
3.08981
3.11531
0.116436
0.117455
0.118172
0.129817
0.171334
0.23732
0.315265
0.401601
0.49487
0.600725
0.707413
0.813539
0.927708
1.22027
1.62457
1.96072
2.20858
2.35194
2.41712
2.43472
0.13371
0.134619
0.134035
0.142404
0.184219
0.253085
0.332559
0.41679
0.505841
0.603207
0.694559
0.774557
0.844638
1.03053
1.3047
1.53928
1.71157
1.80998
1.85305
1.86404
0.148455
0.145909
0.142745
0.153073
0.201913
0.276186
0.356261
0.435847
0.517191
0.602737
0.679327
0.738127
0.791897
0.909662
1.09254
1.24517
1.35351
1.41573
1.44235
1.44784
0.203884
0.198139
0.193705
0.206245
0.253084
0.321468
0.392491
0.461675
0.531337
0.603188
0.667602
0.714477
0.754857
0.831237
0.953248
1.05066
1.117
1.15322
1.16792
1.16943
0.324348
0.320358
0.316776
0.32492
0.354391
0.397423
0.445522
0.495925
0.549363
0.606948
0.65946
0.697649
0.730674
0.780694
0.857236
0.919822
0.960723
0.9829
0.991539
0.991725
0.464432
0.462667
0.460235
0.460441
0.467886
0.482628
0.504964
0.533864
0.569748
0.612817
0.654577
0.689703
0.720217
0.755008
0.799802
0.837781
0.863231
0.87732
0.883285
0.882714
0.568955
0.568346
0.565843
0.560106
0.553439
0.550987
0.555521
0.568024
0.589101
0.61868
0.650705
0.684008
0.714271
0.741469
0.767043
0.788287
0.80412
0.813725
0.817465
0.816445
0.625191
0.624802
0.622246
0.615296
0.604831
0.595657
0.591417
0.594033
0.60432
0.622677
0.647165
0.674187
0.701084
0.719688
0.735263
0.750521
0.76335
0.771493
0.774557
0.773099
0.648025
0.647566
0.64531
0.6395
0.63025
0.620738
0.613781
0.611358
0.614511
0.623688
0.638032
0.658051
0.680719
0.691869
0.69913
0.712662
0.725654
0.73452
0.738055
0.736672
0.654278
0.653772
0.65194
0.647751
0.641068
0.633377
0.626508
0.621968
0.620311
0.621483
0.62452
0.630445
0.638834
0.641592
0.650967
0.669024
0.68643
0.698269
0.702974
0.701313
0.654425
0.653938
0.652485
0.64944
0.644854
0.63921
0.633356
0.628155
0.62361
0.618165
0.608623
0.593747
0.577232
0.577015
0.597902
0.62448
0.645712
0.658528
0.662941
0.661355
0.653183
0.652785
0.651691
0.649366
0.645983
0.641887
0.637303
0.632454
0.626734
0.617009
0.596369
0.558085
0.519351
0.519594
0.553272
0.585386
0.606222
0.616789
0.620541
0.620065
0.65153
0.651287
0.650605
0.648904
0.64644
0.643386
0.640103
0.636521
0.631995
0.62187
0.598353
0.5509
0.499455
0.509597
0.547012
0.575414
0.590264
0.596098
0.598019
0.597978
0.648345
0.648292
0.648077
0.647212
0.645521
0.6437
0.642096
0.641239
0.639519
0.634667
0.618247
0.581284
0.546509
0.561421
0.588043
0.6042
0.611477
0.613942
0.614534
0.61393
0.641907
0.642026
0.642223
0.642159
0.641812
0.6417
0.642482
0.644925
0.649031
0.653123
0.651884
0.638944
0.630106
0.640768
0.648083
0.64831
0.648366
0.649199
0.650098
0.649866
0.630607
0.630925
0.631547
0.632381
0.63348
0.635532
0.639434
0.646307
0.657454
0.672318
0.687341
0.698115
0.71226
0.717188
0.707849
0.698795
0.695408
0.695824
0.694658
0.693018
0.612796
0.613368
0.614497
0.616132
0.618652
0.622981
0.630271
0.642214
0.660147
0.685145
0.712944
0.738511
0.768678
0.76034
0.740728
0.729792
0.726499
0.724035
0.720974
0.719847
0.585099
0.586013
0.587738
0.590397
0.5945
0.601035
0.611392
0.627546
0.65111
0.682863
0.716741
0.744076
0.767754
0.758126
0.746038
0.741744
0.742425
0.739275
0.735289
0.734685
0.544093
0.545353
0.547721
0.551484
0.557143
0.565434
0.577537
0.595237
0.620543
0.654067
0.689792
0.711642
0.71925
0.711168
0.722897
0.743451
0.750508
0.748816
0.74278
0.742777
0.486202
0.487783
0.490747
0.495537
0.502346
0.511153
0.522119
0.535884
0.55361
0.580988
0.62083
0.645514
0.639846
0.636464
0.677792
0.724387
0.753747
0.753
0.746984
0.746027
0.409651
0.41135
0.414696
0.420158
0.42707
0.433913
0.438451
0.43782
0.431551
0.444065
0.502178
0.542072
0.529813
0.542554
0.619575
0.681587
0.716306
0.713764
0.708261
0.706687
0.316219
0.317664
0.321055
0.326646
0.332206
0.3337
0.323906
0.292391
0.243577
0.237319
0.33192
0.401211
0.39965
0.439522
0.523124
0.602561
0.622709
0.612813
0.605544
0.602823
0.213851
0.214524
0.217664
0.222688
0.225621
0.219167
0.187365
0.108676
-0.0021447
-0.00461265
0.13793
0.24696
0.250884
0.323758
0.395898
0.432946
0.435064
0.432803
0.430676
0.429499
0.113563
0.114026
0.116742
0.120621
0.122372
0.111856
0.0645533
-0.0497599
-0.180275
-0.180865
-0.0089374
0.103691
0.110822
0.188094
0.24812
0.238231
0.233305
0.232899
0.233999
0.234272
0.0284142
0.0279498
0.0285598
0.0310472
0.033213
0.0332884
0.0201088
-0.0215992
-0.0792991
-0.103307
-0.0588847
0.00837163
0.0155613
0.019664
-0.0188598
0.0284722
0.0457476
0.0454345
0.0455876
0.045765
0.582697
0.764317
0.976265
1.15762
1.30368
1.42016
1.51732
1.59934
1.63598
1.61302
0.913425
1.04333
1.18214
1.3023
1.40404
1.48869
1.55722
1.60579
1.6304
1.64223
1.14852
1.23714
1.33152
1.41521
1.48735
1.54773
1.59568
1.63067
1.65575
1.67347
1.31918
1.38147
1.44757
1.50804
1.56069
1.60533
1.6419
1.67096
1.69458
1.71271
1.45096
1.4966
1.54466
1.59063
1.63123
1.6666
1.69677
1.72178
1.74268
1.76042
1.55903
1.59331
1.63292
1.66991
1.70375
1.73399
1.76035
1.78242
1.80062
1.81792
1.6539
1.68345
1.71848
1.75148
1.7822
1.81001
1.83427
1.85437
1.87012
1.88718
1.74399
1.77373
1.80839
1.84097
1.87106
1.89806
1.92126
1.93999
1.95354
1.97058
1.84026
1.87371
1.91078
1.94472
1.97508
2.00154
2.02371
2.04115
2.05314
2.07055
1.95594
1.99374
2.03268
2.0672
2.09674
2.12165
2.14216
2.15815
2.1697
2.18779
2.10134
2.14002
2.17612
2.20692
2.23271
2.2549
2.27404
2.28963
2.30211
2.32012
2.27632
2.30823
2.33448
2.35694
2.37698
2.39575
2.41351
2.43003
2.44541
2.46349
2.46505
2.48235
2.4975
2.51379
2.52972
2.54429
2.55752
2.57147
2.58903
2.6092
2.64704
2.65648
2.66805
2.67889
2.68819
2.6978
2.70862
2.72001
2.73139
2.74675
2.85418
2.85787
2.84294
2.82814
2.8219
2.8276
2.84609
2.87641
2.9086
2.93526
3.16052
3.02565
2.94904
2.90671
2.8893
2.89327
2.92069
2.9771
3.07973
3.3041
1.4408
1.43867
1.43418
1.42555
1.41332
1.40117
1.39092
1.383
1.37733
1.374
1.37356
1.37619
1.38121
1.38837
1.39771
1.40921
1.42183
1.43285
1.43895
1.442
1.36527
1.37111
1.37745
1.38193
1.38439
1.38405
1.38129
1.37745
1.37389
1.37155
1.3713
1.37339
1.37696
1.38118
1.38493
1.38678
1.38581
1.38231
1.37713
1.3705
1.35688
1.35917
1.36257
1.36556
1.36763
1.36911
1.36984
1.36948
1.3684
1.36743
1.3675
1.36881
1.37052
1.37174
1.37186
1.37092
1.36933
1.36696
1.36368
1.36075
1.35141
1.3525
1.35433
1.3567
1.35871
1.36012
1.36112
1.36182
1.36216
1.36229
1.36265
1.36333
1.36381
1.36377
1.36328
1.36237
1.36085
1.35872
1.35661
1.35522
1.34627
1.34693
1.34804
1.34974
1.35151
1.35313
1.3544
1.35537
1.35618
1.35686
1.35744
1.35783
1.35788
1.35759
1.35692
1.35578
1.35429
1.35269
1.35133
1.35054
1.34137
1.34183
1.34262
1.34391
1.3454
1.3469
1.34834
1.3496
1.35065
1.35158
1.35232
1.35269
1.35266
1.35223
1.3514
1.3503
1.34908
1.34787
1.34691
1.34638
1.33665
1.33699
1.3376
1.33868
1.33998
1.34135
1.34277
1.34417
1.34546
1.3466
1.3475
1.34795
1.3479
1.34741
1.34664
1.34571
1.34474
1.34377
1.34304
1.34265
1.33205
1.33231
1.33281
1.33373
1.33492
1.33621
1.33759
1.33903
1.34049
1.34184
1.34294
1.34351
1.34352
1.34314
1.34252
1.34177
1.34096
1.34019
1.33963
1.33933
1.32751
1.32772
1.32813
1.32895
1.33007
1.33132
1.33269
1.33417
1.33573
1.33729
1.33863
1.33938
1.33957
1.33937
1.33893
1.33834
1.33769
1.33707
1.33664
1.33641
1.32297
1.32313
1.32349
1.32424
1.32532
1.32656
1.32795
1.32949
1.33117
1.33292
1.33453
1.33558
1.33603
1.33606
1.33581
1.33539
1.33488
1.3344
1.33406
1.33388
1.31837
1.31849
1.3188
1.31952
1.32059
1.32186
1.32332
1.32499
1.32686
1.32888
1.33083
1.33223
1.33297
1.33323
1.33317
1.33291
1.33255
1.33218
1.33193
1.33178
1.31363
1.31372
1.314
1.31471
1.31581
1.31716
1.31872
1.32054
1.32265
1.32501
1.32739
1.32923
1.33032
1.33086
1.33102
1.33093
1.33071
1.33044
1.33026
1.33016
1.30873
1.30879
1.30905
1.30975
1.31091
1.31235
1.31404
1.31606
1.31846
1.32126
1.32417
1.32652
1.32804
1.32894
1.3294
1.32953
1.32944
1.32929
1.32918
1.3291
1.30359
1.30363
1.30387
1.30459
1.30581
1.30737
1.30926
1.31155
1.31433
1.31761
1.32119
1.32422
1.32631
1.32762
1.32838
1.32877
1.32887
1.32884
1.3288
1.32875
1.29816
1.29816
1.29838
1.29913
1.30044
1.30217
1.30429
1.30693
1.31022
1.31422
1.31863
1.32243
1.32511
1.32693
1.32808
1.32871
1.32906
1.32919
1.32923
1.32921
1.29228
1.29228
1.29248
1.29323
1.29463
1.29651
1.29889
1.30194
1.30579
1.31058
1.316
1.32082
1.32435
1.32682
1.32847
1.32955
1.33022
1.33055
1.33069
1.33069
1.28569
1.28566
1.28589
1.28668
1.28818
1.29029
1.29307
1.29669
1.30137
1.30724
1.31392
1.31991
1.32435
1.32753
1.32978
1.33137
1.3324
1.33298
1.33321
1.33322
1.278
1.27796
1.27822
1.27909
1.28075
1.28316
1.28642
1.29075
1.29641
1.30357
1.31182
1.31928
1.32489
1.32901
1.33198
1.33411
1.33558
1.33644
1.33676
1.33678
1.26872
1.26866
1.26897
1.26999
1.27194
1.27482
1.27878
1.28409
1.29106
1.29991
1.31006
1.31928
1.32622
1.33137
1.33514
1.33792
1.33984
1.34096
1.34138
1.3414
1.25733
1.25726
1.25765
1.25892
1.26131
1.26489
1.26982
1.27643
1.28509
1.29604
1.30855
1.31985
1.32839
1.33473
1.33942
1.34289
1.3453
1.34669
1.3472
1.34723
1.24322
1.24313
1.24367
1.2453
1.24832
1.25288
1.25913
1.26749
1.27837
1.29197
1.30734
1.32111
1.33149
1.3392
1.34495
1.34919
1.35216
1.35384
1.35444
1.35447
1.22549
1.22538
1.22614
1.22832
1.23226
1.23818
1.24629
1.25704
1.27082
1.28775
1.30656
1.32322
1.3357
1.34499
1.35193
1.35707
1.36066
1.36265
1.36334
1.36336
1.20267
1.20256
1.20368
1.2067
1.21206
1.22002
1.23081
1.24484
1.26241
1.28347
1.30635
1.3263
1.34117
1.35221
1.36051
1.36668
1.37097
1.37328
1.37406
1.37407
1.17248
1.17239
1.17416
1.17863
1.18633
1.19755
1.2123
1.23086
1.2533
1.27935
1.30692
1.33056
1.34804
1.36106
1.37087
1.3782
1.3832
1.38583
1.38669
1.38669
1.13092
1.131
1.1342
1.14159
1.15355
1.17009
1.1907
1.21535
1.24387
1.27575
1.30852
1.33614
1.35644
1.37158
1.38303
1.3916
1.39734
1.40031
1.40123
1.4012
1.07054
1.0718
1.07954
1.09337
1.113
1.13788
1.16666
1.19905
1.23472
1.2731
1.31142
1.34317
1.36637
1.38371
1.39685
1.40662
1.41319
1.41648
1.41737
1.41729
0.998866
1.00088
1.01548
1.03925
1.06959
1.10412
1.1418
1.18246
1.22587
1.27153
1.31645
1.35352
1.38075
1.40124
1.41682
1.42837
1.43617
1.44009
1.44116
1.44113
0.92534
0.931974
0.953539
0.987208
1.02739
1.07124
1.11774
1.16668
1.21791
1.27097
1.32272
1.36531
1.39665
1.42034
1.43852
1.45224
1.46139
1.46519
1.46638
1.46663
0.866227
0.874795
0.901078
0.941481
0.989179
1.04082
1.09513
1.15178
1.21043
1.2706
1.32881
1.37646
1.4114
1.43774
1.45785
1.47293
1.48285
1.48772
1.48969
1.49005
0.818272
0.827408
0.857122
0.902367
0.955801
1.01364
1.0745
1.13788
1.20327
1.27
1.33417
1.38637
1.42439
1.45288
1.4746
1.49095
1.50215
1.50777
1.51002
1.51042
0.778109
0.787473
0.819505
0.868484
0.926503
0.989429
1.05581
1.12503
1.19641
1.2691
1.33869
1.39493
1.4356
1.46588
1.48885
1.50615
1.51801
1.52426
1.52678
1.52723
0.743205
0.752666
0.786411
0.838437
0.900236
0.967469
1.03863
1.113
1.18974
1.26783
1.34237
1.40225
1.44523
1.47697
1.50089
1.51883
1.53119
1.53794
1.54061
1.54107
0.711965
0.721472
0.756552
0.811112
0.876107
0.947058
1.02243
1.10139
1.18301
1.26609
1.34522
1.40848
1.45354
1.48653
1.51116
1.52951
1.54217
1.5492
1.55192
1.55241
0.683199
0.692764
0.728972
0.785725
0.853469
0.927678
1.00678
1.0899
1.17599
1.26373
1.34725
1.41375
1.46077
1.4949
1.52015
1.53878
1.55156
1.55872
1.56141
1.56194
0.656133
0.665758
0.702963
0.761629
0.831845
0.908946
0.991379
1.07826
1.1685
1.26064
1.34841
1.41813
1.46716
1.50244
1.52831
1.54724
1.56014
1.56735
1.57006
1.57041
0.630263
0.63999
0.678136
0.738411
0.810885
0.890579
0.976017
1.06633
1.1604
1.25673
1.34869
1.4217
1.47284
1.5094
1.53597
1.55525
1.56828
1.57546
1.57815
1.57848
0.60519
0.615105
0.654082
0.715915
0.790369
0.872391
0.960543
1.05398
1.1516
1.25192
1.34803
1.42449
1.47794
1.51595
1.54336
1.56308
1.5763
1.58347
1.58605
1.58638
0.580733
0.590887
0.630632
0.69396
0.770177
0.854283
0.944883
1.04116
1.14207
1.24618
1.34642
1.4265
1.48251
1.52218
1.55059
1.57086
1.58429
1.59143
1.59388
1.59416
0.556835
0.567215
0.607767
0.672411
0.750237
0.83622
0.929012
1.02785
1.13177
1.23947
1.34379
1.42767
1.48651
1.52811
1.55772
1.57862
1.59228
1.59933
1.60161
1.60179
0.533391
0.544089
0.585369
0.65125
0.73053
0.818189
0.912937
1.01408
1.12074
1.23177
1.34008
1.42789
1.4899
1.53376
1.56478
1.58639
1.60023
1.60713
1.60918
1.60926
0.510458
0.521447
0.56348
0.630485
0.711077
0.800227
0.896711
0.999892
1.10901
1.2231
1.33521
1.42707
1.49257
1.53909
1.5718
1.5942
1.60811
1.61471
1.61646
1.61644
0.488008
0.499311
0.542122
0.610153
0.69192
0.782384
0.88039
0.98536
1.09664
1.21347
1.32917
1.42509
1.49435
1.544
1.57883
1.60218
1.61597
1.622
1.62335
1.62323
0.466233
0.477777
0.521332
0.590303
0.673121
0.764742
0.864051
0.970567
1.08371
1.20297
1.32195
1.42185
1.49508
1.54833
1.58592
1.61056
1.62401
1.629
1.62974
1.62951
0.445003
0.456892
0.501146
0.570972
0.654721
0.747349
0.847792
0.955603
1.07034
1.19168
1.31356
1.41723
1.49452
1.55181
1.59296
1.61972
1.63289
1.63608
1.6356
1.63518
0.424487
0.436691
0.481603
0.552215
0.636806
0.730296
0.8317
0.940595
1.05663
1.1797
1.30408
1.41117
1.49248
1.55404
1.59958
1.62987
1.64382
1.64478
1.64157
1.64
0.404633
0.417131
0.462756
0.534092
0.61942
0.713652
0.815861
0.925628
1.04271
1.16717
1.29359
1.40362
1.48876
1.55454
1.60493
1.64042
1.65781
1.65865
1.65142
1.64134
0.385523
0.398259
0.444506
0.51645
0.602352
0.697133
0.799931
0.910284
1.0281
1.15355
1.28152
1.39394
1.48278
1.55267
1.60775
1.64973
1.67387
1.67837
1.66959
1.66036
0.367213
0.380165
0.426853
0.499331
0.585616
0.680735
0.783934
0.894552
1.01278
1.13874
1.26771
1.38181
1.47386
1.54772
1.6055
1.65213
1.67953
1.68916
1.65309
1.599
0.34997
0.363621
0.409899
0.482799
0.569103
0.66433
0.767826
0.878553
0.996806
1.12283
1.25214
1.36711
1.46107
1.53945
1.5963
1.63626
1.66476
1.65529
1.59794
1.53193
0.333487
0.347962
0.393836
0.467465
0.553141
0.648393
0.751389
0.86235
0.980331
1.106
1.23484
1.34974
1.4434
1.529
1.57913
1.6323
1.60612
1.56648
1.49658
1.42689
0.347536
0.365589
0.414198
0.491938
0.582478
0.68148
0.789758
0.903595
1.02453
1.15344
1.2758
1.37745
1.4627
1.55349
1.60415
1.52376
1.47988
1.41787
1.3443
1.2953
0.323134
0.339559
0.375159
0.443189
0.528424
0.623136
0.726235
0.836504
0.953572
1.07779
1.20444
1.31715
1.40715
1.48668
1.55789
1.56021
1.4398
1.35617
1.29324
1.20864
0.303071
0.318765
0.36011
0.429565
0.515055
0.60935
0.711247
0.820553
0.936544
1.05919
1.18385
1.29405
1.38094
1.44763
1.47472
1.40513
1.26354
1.16632
1.0901
0.999463
0.282596
0.295136
0.340974
0.411729
0.497406
0.591868
0.693682
0.802591
0.917573
1.03854
1.16016
1.26564
1.34535
1.39638
1.3745
1.24531
1.09005
0.969587
0.869506
0.729196
0.258915
0.272009
0.319881
0.391777
0.477786
0.572267
0.673933
0.782181
0.895951
1.01488
1.13295
1.23303
1.30484
1.33609
1.2779
1.0923
0.905124
0.745927
0.598851
0.397748
0.236324
0.249038
0.298145
0.371213
0.457729
0.552167
0.653435
0.760772
0.873085
0.98962
1.10375
1.19789
1.26116
1.26308
1.15307
0.947732
0.726865
0.515744
0.32818
-0.090508
0.213762
0.22606
0.275659
0.349599
0.436528
0.530989
0.63185
0.738266
0.84901
0.962917
1.0728
1.16037
1.21312
1.18072
1.02865
0.819743
0.591754
0.367345
0.175325
-0.136787
0.19033
0.202467
0.252217
0.326692
0.413909
0.508402
0.608894
0.714412
0.823532
0.934643
1.04003
1.12056
1.16007
1.10863
0.916479
0.715918
0.508086
0.331054
0.255821
0.21959
0.165567
0.177534
0.227453
0.3022
0.389506
0.483871
0.58384
0.688232
0.795399
0.903233
1.00349
1.07632
1.10134
1.02007
0.816569
0.628672
0.457577
0.34367
0.306068
0.294354
0.139279
0.151195
0.201212
0.276122
0.363391
0.457461
0.556697
0.659708
0.764552
0.868602
0.963051
1.028
1.03102
0.914991
0.726128
0.551863
0.406022
0.345481
0.33115
0.326216
0.111422
0.123108
0.173439
0.248466
0.3356
0.429202
0.527499
0.62884
0.730992
0.830802
0.918742
0.975387
0.951767
0.815473
0.640287
0.477143
0.370953
0.333371
0.339886
0.340431
0.082007
0.0936594
0.144173
0.219301
0.306204
0.399181
0.496307
0.595697
0.694783
0.789866
0.870835
0.917235
0.876931
0.721482
0.561728
0.416301
0.368912
0.354374
0.350069
0.349775
0.0514417
0.0631087
0.113638
0.188829
0.275376
0.367555
0.463276
0.560427
0.656064
0.74596
0.819637
0.854335
0.807088
0.638516
0.491092
0.385699
0.337356
0.351329
0.354613
0.355155
0.0202069
0.0318099
0.0823417
0.157389
0.243451
0.33463
0.428713
0.523324
0.615153
0.699472
0.765432
0.790988
0.722283
0.561881
0.432421
0.356647
0.353686
0.355707
0.358145
0.359294
-0.0108456
0.00046737