/*--------------------------------*- C++ -*----------------------------------*\
| =========                 |                                                 |
| \\      /  F ield         | OpenFOAM: The Open Source CFD Toolbox           |
|  \\    /   O peration     | Version:  2112                                  |
|   \\  /    A nd           | Website:  www.openfoam.com                      |
|    \\/     M anipulation  |                                                 |
\*---------------------------------------------------------------------------*/
FoamFile
{
    version     2.0;
    format      ascii;
    arch        "LSB;label=32;scalar=64";
    class       surfaceScalarField;
    location    "31.5";
    object      phi;
}
// * * * * * * * * * * * * * * * * * * * * * * * * * * * * * * * * * * * * * //

dimensions      [0 3 -1 0 0 0 0];

oriented        oriented;

internalField   nonuniform List<scalar> 
17370
(
-0.0916072
0.0960064
0.284612
-0.0775896
0.0594128
0.364952
-0.0430346
0.0316153
0.427587
-0.0223104
0.0162557
0.505306
-0.0116586
0.00877979
0.602281
-0.00656336
0.005077
0.720544
-0.00384473
0.00297403
0.863777
-0.00221561
0.00165154
1.03601
-0.00113417
0.000723231
1.24291
-0.000317336
-7.28325e-05
1.49158
0.000458234
-0.000865233
1.4916
0.00126965
-0.00177679
1.2432
0.0023309
-0.0030787
1.03639
0.00394055
-0.00516396
0.86413
0.00664209
-0.0088485
0.721264
0.0117168
-0.0163005
0.603798
0.0223424
-0.0316335
0.50873
0.0430382
-0.0594074
0.432537
0.0775864
-0.096003
0.365192
0.0916182
0.197393
-0.127086
0.0880171
0.0390692
-0.364349
0.354023
-0.071479
0.0818051
-0.446655
0.454245
-0.0791675
0.0715771
-0.521008
0.529106
-0.0637279
0.0556301
-0.612986
0.620757
-0.0482426
0.0404715
-0.727158
0.733679
-0.0338578
0.0273372
-0.867578
0.872417
-0.0221386
0.0172995
-1.03856
1.04188
-0.0136181
0.0103003
-1.24471
1.2471
-0.00776842
0.00538128
-1.49284
1.49483
-0.0034324
0.00143603
-1.49269
1.49449
0.000372751
-0.00217888
-1.24411
1.24602
0.00414794
-0.00606205
-1.03761
1.0401
0.00840675
-0.0108982
-0.86619
0.869831
0.0141712
-0.0178122
-0.724601
0.72976
0.0226081
-0.0277678
-0.60907
0.615647
0.0342467
-0.0408234
-0.515126
0.522473
0.0485539
-0.0559009
-0.439881
0.447672
0.0639392
-0.0717307
-0.374714
0.377364
0.0792391
-0.0818888
-0.25691
0.224459
0.0715441
-0.0390933
-0.0687985
0.0591845
0.00961393
-0.0521205
0.058957
-0.37483
0.367994
-0.0581128
0.0542743
-0.453936
0.457775
-0.0487889
0.0442301
-0.527602
0.532161
-0.0396785
0.0357805
-0.620782
0.62468
-0.0315673
0.0275806
-0.734643
0.73863
-0.0232461
0.0193888
-0.873945
0.877802
-0.0153817
0.0119571
-1.04335
1.04677
-0.00846838
0.00545804
-1.24863
1.25164
-0.00226973
-0.000696315
-1.49692
1.49989
0.00364653
-0.00678849
-1.49741
1.50055
0.00973486
-0.0131448
-1.25007
1.25348
0.0164933
-0.020415
-1.04567
1.04959
0.0241965
-0.0284509
-0.877157
0.881412
0.0323651
-0.0364992
-0.739003
0.743137
0.0403296
-0.0448156
-0.62599
0.630476
0.049322
-0.0547569
-0.535034
0.540469
0.0585376
-0.0593142
-0.458098
0.458875
0.0523847
-0.0320272
-0.336799
0.316442
0.00966135
-0.0686858
0.0590244
-0.0533926
0.0492789
0.00411374
-0.0332608
0.0436935
-0.358536
0.348104
-0.0473754
0.0467919
-0.459558
0.460141
-0.0438645
0.0406511
-0.536105
0.539319
-0.0369738
0.0336218
-0.628364
0.631716
-0.0299984
0.0267774
-0.742001
0.745222
-0.0233567
0.0201946
-0.881294
0.884456
-0.0166436
0.0133266
-1.05019
1.05351
-0.00966368
0.00629126
-1.25488
1.25826
-0.00253618
-0.00104869
-1.50323
1.50681
0.00460863
-0.00828971
-1.50404
1.50772
0.0115666
-0.01511
-1.25703
1.26058
0.0183117
-0.0217342
-1.05329
1.05671
0.0247829
-0.0280856
-0.885026
0.888328
0.0312026
-0.034716
-0.746836
0.750349
0.037972
-0.0415508
-0.63461
0.638189
0.0446812
-0.0475169
-0.544624
0.54746
0.0480066
-0.0441953
-0.45701
0.453199
0.0336059
-0.016336
-0.297159
0.279889
0.00416561
-0.0531869
0.0490213
-0.0461064
0.0435497
0.00255663
-0.023056
0.0334121
-0.3375
0.327144
-0.0391537
0.0401117
-0.459875
0.458917
-0.0388728
0.036558
-0.541955
0.54427
-0.0339294
0.0313957
-0.634657
0.63719
-0.0284357
0.0256132
-0.748291
0.751114
-0.0224156
0.0194452
-0.887513
0.890484
-0.0161406
0.0130474
-1.05667
1.05976
-0.00953555
0.00617636
-1.26162
1.26498
-0.00230974
-0.00145112
-1.51052
1.51428
0.00517887
-0.00894237
-1.51149
1.51526
0.0121665
-0.01551
-1.26403
1.26738
0.0184417
-0.0215705
-1.05993
1.06306
0.0243898
-0.0274313
-0.891536
0.894578
0.0301155
-0.032927
-0.753544
0.756355
0.03533
-0.0378255
-0.641156
0.643652
0.0400303
-0.0411288
-0.54931
0.550409
0.0400267
-0.0340774
-0.44811
0.44216
0.0234957
-0.0103145
-0.264757
0.251575
0.00262082
-0.0457927
0.0431719
-0.0414299
0.0396295
0.00180031
-0.0169405
0.0262272
-0.317267
0.30798
-0.0328277
0.0349518
-0.457343
0.455219
-0.0345189
0.0328194
-0.54628
0.54798
-0.0305888
0.0284638
-0.639474
0.641599
-0.0260456
0.0237082
-0.753692
0.75603
-0.0209623
0.0182881
-0.893322
0.895997
-0.0151799
0.0122071
-1.06277
1.06574
-0.00880158
0.00554083
-1.26826
1.27152
-0.00176394
-0.00192353
-1.51801
1.5217
0.00556868
-0.00921475
-1.51899
1.52264
0.0123009
-0.0154839
-1.27064
1.27382
0.01824
-0.02111
-1.06607
1.06894
0.02358
-0.026119
-0.897364
0.899903
0.0282792
-0.0305126
-0.758819
0.761052
0.0324739
-0.0345341
-0.645904
0.647964
0.0360751
-0.0363163
-0.551022
0.551264
0.0339728
-0.0270717
-0.435638
0.428737
0.0174857
-0.00739309
-0.24008
0.229987
0.00187862
-0.0409838
0.0391052
-0.0380803
0.0367319
0.00134841
-0.0129155
0.0209027
-0.29934
0.291353
-0.0276691
0.0306025
-0.452648
0.449715
-0.0308314
0.0297312
-0.549393
0.550494
-0.0277596
0.0258602
-0.643623
0.645522
-0.0236861
0.0215917
-0.758246
0.76034
-0.0191497
0.0167464
-0.898519
0.900922
-0.0138977
0.0111071
-1.06859
1.07138
-0.00785353
0.00471473
-1.27469
1.27783
-0.00107344
-0.00247107
-1.5253
1.52884
0.00596041
-0.00943922
-1.52622
1.5297
0.0123616
-0.0153331
-1.27693
1.27991
0.0178479
-0.0203943
-1.07166
1.07421
0.0225422
-0.0247281
-0.902219
0.904405
0.0266008
-0.0285414
-0.763114
0.765055
0.030234
-0.0319964
-0.649867
0.651629
0.032864
-0.0323673
-0.551139
0.550643
0.0291232
-0.0219501
-0.421639
0.414465
0.0135828
-0.00566024
-0.221081
0.213159
0.00144365
-0.0374729
0.0360292
-0.035554
0.0345204
0.00103359
-0.0100498
0.0167865
-0.28401
0.277273
-0.0232763
0.0266516
-0.446527
0.443151
-0.02744
0.0267619
-0.551346
0.552024
-0.0250196
0.0232676
-0.647352
0.649104
-0.0212634
0.0193389
-0.762376
0.764301
-0.0170913
0.0148804
-0.903218
0.905429
-0.0122706
0.00970538
-1.07401
1.07657
-0.00668359
0.00372373
-1.28085
1.28381
-0.00025049
-0.00314072
-1.53229
1.53569
0.00646663
-0.00973913
-1.53309
1.53637
0.0124327
-0.015109
-1.28276
1.28543
0.0173317
-0.0195554
-1.0766
1.07882
0.0214293
-0.0233427
-0.906436
0.90835
0.02499
-0.0267086
-0.766853
0.768571
0.0282079
-0.0296695
-0.653261
0.654723
0.0300573
-0.028893
-0.549825
0.54866
0.0250937
-0.0180734
-0.407343
0.400323
0.0108635
-0.00449115
-0.206082
0.199709
0.0011495
-0.0347509
0.0336014
-0.033613
0.0328139
0.00079914
-0.00790388
0.0135352
-0.27111
0.265478
-0.0195237
0.0230965
-0.439657
0.436085
-0.0243697
0.0239431
-0.552592
0.553019
-0.0224739
0.0208353
-0.650828
0.652466
-0.0189409
0.0171286
-0.766202
0.768015
-0.0150158
0.0129349
-0.907547
0.909628
-0.0104716
0.00805367
-1.07899
1.08141
-0.00521708
0.00244771
-1.28662
1.28939
0.00078875
-0.00394359
-1.53894
1.54209
0.00702069
-0.0100195
-1.53951
1.54251
0.012463
-0.0148668
-1.28799
1.29039
0.0168539
-0.0188362
-1.08093
1.08291
0.0204968
-0.0221936
-0.910141
0.911838
0.023667
-0.0252157
-0.770169
0.771718
0.0265411
-0.0276462
-0.656015
0.65712
0.0276855
-0.0259019
-0.547203
0.54542
0.0217689
-0.015108
-0.393477
0.386816
0.00889458
-0.0036586
-0.193956
0.18872
0.00094024
-0.032572
0.0316318
-0.0321122
0.0314973
0.00061486
-0.00621633
0.0108775
-0.260352
0.255691
-0.0162249
0.0197739
-0.432502
0.428953
-0.0213803
0.0212185
-0.55331
0.553472
-0.0200468
0.0185367
-0.654058
0.655568
-0.0167591
0.0150327
-0.769829
0.771555
-0.0129979
0.0109866
-0.911649
0.91366
-0.008615
0.00630711
-1.08371
1.08602
-0.00362106
0.00101987
-1.29203
1.29463
0.0020025
-0.00492916
-1.5451
1.54803
0.00775639
-0.0104825
-1.54538
1.5481
0.0126847
-0.0148435
-1.29272
1.29487
0.0166225
-0.0183926
-1.08482
1.08659
0.0198779
-0.0213847
-0.913435
0.914942
0.0226763
-0.0240222
-0.773116
0.774462
0.0251663
-0.0258628
-0.658006
0.658703
0.0255382
-0.0232605
-0.543407
0.541129
0.0189887
-0.0127993
-0.380404
0.374215
0.00742415
-0.00304574
-0.183955
0.179577
0.000787136
-0.0307822
0.0299951
-0.0309626
0.0304989
0.000463723
-0.00482744
0.00863062
-0.251475
0.247672
-0.0132737
0.0166248
-0.425493
0.422142
-0.0183798
0.0183945
-0.553552
0.553537
-0.0174172
0.0159623
-0.657082
0.658537
-0.0142457
0.0125877
-0.773283
0.774941
-0.0106498
0.0087515
-0.915571
0.917469
-0.00652316
0.00435373
-1.08819
1.09036
-0.00182484
-0.000620413
-1.29711
1.29956
0.00344999
-0.00615721
-1.55082
1.55353
0.00874335
-0.0112073
-1.55071
1.55317
0.0131663
-0.0150526
-1.29693
1.29882
0.0165734
-0.0180607
-1.08825
1.08974
0.019298
-0.0205582
-0.916329
0.917589
0.0216567
-0.022828
-0.775668
0.77684
0.0238166
-0.024175
-0.659202
0.659561
0.0235216
-0.0209037
-0.538709
0.536091
0.0166444
-0.0109662
-0.368304
0.362626
0.00629441
-0.00258261
-0.175568
0.171856
0.000672948
-0.0292794
0.0286064
-0.030105
0.0297708
0.000334156
-0.00362904
0.00665304
-0.244272
0.241248
-0.0105642
0.0136101
-0.418943
0.415897
-0.0154119
0.0155946
-0.553468
0.553285
-0.0147418
0.0133995
-0.660002
0.661344
-0.0117442
0.010141
-0.776603
0.778206
-0.00826501
0.00642221
-0.919257
0.9211
-0.00426287
0.00217356
-1.0924
1.09448
0.000236296
-0.00254733
-1.30187
1.30419
0.00517592
-0.00764602
-1.55608
1.55855
0.00996587
-0.0121419
-1.5555
1.55767
0.0138445
-0.0154464
-1.30061
1.30221
0.0167115
-0.0179298
-1.09114
1.09236
0.0189348
-0.0199818
-0.918729
0.919776
0.0209264
-0.0219307
-0.777863
0.778868
0.0226766
-0.0227696
-0.659794
0.659887
0.0217786
-0.0188778
-0.533375
0.530474
0.0146955
-0.0095113
-0.357228
0.352043
0.00542542
-0.00223626
-0.168442
0.165252
0.000591172
-0.0279909
0.0273998
-0.0295017
0.0292891
0.000212634
-0.00252761
0.00481448
-0.238603
0.236316
-0.00795796
0.0105866
-0.413064
0.410435
-0.0123195
0.01264
-0.553062
0.552742
-0.0119417
0.010767
-0.662669
0.663844
-0.00920146
0.00762273
-0.779818
0.781397
-0.00573815
0.00389079
-0.922851
0.924698
-0.00175568
-0.000273977
-1.09645
1.09848
0.00258783
-0.00476855
-1.30637
1.30855
0.00722299
-0.0095029
-1.56089
1.56317
0.0115954
-0.013496
-1.55973
1.56163
0.0149349
-0.0162656
-1.30374
1.30507
0.0173199
-0.018335
-1.09354
1.09456
0.0191694
-0.0199977
-0.920709
0.921537
0.0206836
-0.0213583
-0.779646
0.780321
0.0217379
-0.0215139
-0.659784
0.65956
0.0201451
-0.0170282
-0.527508
0.524391
0.0129977
-0.00830254
-0.347145
0.34245
0.00472413
-0.00196334
-0.162315
0.159554
0.000528597
-0.026858
0.0263294
-0.0291384
0.0290439
9.44661e-05
-0.00148082
0.00305546
-0.234403
0.232828
-0.00540051
0.00749611
-0.408089
0.405993
-0.00897447
0.00926967
-0.552462
0.552166
-0.00860576
0.00749728
-0.66506
0.666168
-0.00597378
0.00443034
-0.782985
0.784528
-0.0025996
0.000817604
-0.926406
0.928188
0.00123852
-0.00319102
-1.10036
1.10231
0.00540073
-0.00746012
-1.31059
1.31265
0.00973457
-0.0117868
-1.56529
1.56735
0.0136135
-0.0151968
-1.56337
1.56495
0.0163259
-0.0172953
-1.30629
1.30725
0.017999
-0.0186406
-1.09544
1.09608
0.0191548
-0.0196554
-0.922238
0.922738
0.0200903
-0.0205844
-0.780842
0.781336
0.0207
-0.0201738
-0.659107
0.658581
0.0185551
-0.0153608
-0.52128
0.518086
0.0115473
-0.00731715
-0.338042
0.333812
0.00417264
-0.0017576
-0.157009
0.154594
0.000484473
-0.0258431
0.0253586
-0.0290093
0.0290289
-1.95596e-05
-0.000429266
0.00130433
-0.231615
0.23074
-0.00285579
0.00439563
-0.404208
0.402668
-0.00557466
0.00579514
-0.551996
0.551776
-0.00512721
0.00404617
-0.667388
0.668469
-0.00255073
0.00103338
-0.786051
0.787568
0.00076435
-0.00251229
-0.929783
0.931531
0.00452617
-0.00643893
-1.1041
1.10601
0.00859375
-0.0105827
-1.31458
1.31657
0.0127316
-0.0146087
-1.56926
1.57114
0.016202
-0.0175144
-1.5664
1.56771
0.0183747
-0.0190319
-1.30814
1.3088
0.0194394
-0.0197229
-1.09658
1.09686
0.0198955
-0.0200545
-0.923065
0.923224
0.0201956
-0.0203081
-0.781584
0.781697
0.0201143
-0.0193005
-0.657817
0.657003
0.0173961
-0.0140693
-0.51493
0.511603
0.0104145
-0.00656261
-0.329845
0.325993
0.00376575
-0.00161762
-0.152362
0.150214
0.000460471
-0.0249118
0.0244514
-0.0291203
0.0292815
-0.000161266
0.000601956
-0.000464868
-0.230232
0.230095
-0.000246601
0.00116864
-0.401474
0.400552
-0.00198824
0.00215176
-0.551688
0.551525
-0.00157424
0.000581951
-0.669636
0.670629
0.000883069
-0.00244782
-0.789071
0.790636
0.00434734
-0.00619647
-0.933148
0.934997
0.00830634
-0.0102778
-1.1078
1.10977
0.0124534
-0.0144041
-1.31843
1.32039
0.0164344
-0.0181174
-1.57285
1.57454
0.0194481
-0.0204256
-1.56886
1.56984
0.0209642
-0.0212705
-1.30935
1.30966
0.0213797
-0.0213697
-1.09706
1.09705
0.0212706
-0.021106
-0.923256
0.923091
0.020909
-0.0206689
-0.781536
0.781296
0.0201165
-0.0187593
-0.655852
0.654495
0.0164662
-0.0129987
-0.508311
0.504844
0.00950492
-0.00598619
-0.322403
0.318885
0.0034662
-0.00151448
-0.14823
0.146279
0.000440574
-0.0240292
0.0235886
-0.0295107
0.0297978
-0.000287167
0.00164244
-0.00213761
-0.230275
0.23077
0.0022839
-0.00207286
-0.400045
0.399834
0.00179396
-0.00186926
-0.55163
0.551706
0.00250519
-0.00352878
-0.671764
0.672788
0.00504626
-0.00669635
-0.792167
0.793817
0.00871216
-0.0106646
-0.936694
0.938646
0.0128675
-0.0148929
-1.11161
1.11364
0.0170815
-0.0189997
-1.3222
1.32412
0.0209403
-0.0224697
-1.57607
1.5776
0.0235629
-0.0242195
-1.57066
1.57131
0.0244142
-0.0243205
-1.30985
1.30975
0.024052
-0.0236322
-1.09687
1.09645
0.0231824
-0.0226456
-0.922691
0.922154
0.022163
-0.0215284
-0.780694
0.78006
0.0204957
-0.0186637
-0.652896
0.651064
0.0161168
-0.0125762
-0.501512
0.497972
0.00918598
-0.00584287
-0.315586
0.312243
0.00343125
-0.00152018
-0.144433
0.142522
0.00044601
-0.0231837
0.0227376
-0.0301617
0.0305889
-0.000427122
0.00259032
-0.00371665
-0.231607
0.232733
0.00465399
-0.00519172
-0.400051
0.400589
0.00558046
-0.00606805
-0.552231
0.552719
0.0069618
-0.00819709
-0.674072
0.675307
0.00992959
-0.0117557
-0.79543
0.797256
0.0139312
-0.0159998
-0.940417
0.942486
0.0183109
-0.0204184
-1.11551
1.11762
0.022669
-0.0245938
-1.3259
1.32782
0.0264602
-0.0278153
-1.57896
1.58031
0.0286397
-0.0289356
-1.57176
1.57205
0.0287968
-0.0282923
-1.3095
1.309
0.027625
-0.026758
-1.0958
1.09493
0.0259099
-0.0249828
-0.921348
0.920421
0.0241392
-0.0231053
-0.779025
0.777991
0.0217494
-0.0195606
-0.649152
0.646963
0.0167565
-0.0130504
-0.494583
0.490877
0.009607
-0.00621845
-0.30904
0.305651
0.003712
-0.00166213
-0.140643
0.138593
0.000488169
-0.0223162
0.021828
-0.0310893
0.0316599
-0.000570589
0.00355719
-0.00527349
-0.234181
0.235897
0.00695473
-0.00816848
-0.401468
0.402682
0.0091968
-0.0101239
-0.553762
0.554689
0.0113685
-0.0128992
-0.676888
0.678418
0.0149399
-0.0170266
-0.799039
0.801126
0.019471
-0.0217825
-0.944392
0.946703
0.0243635
-0.0267124
-1.11962
1.12197
0.0291964
-0.0312784
-1.32966
1.33175
0.0332003
-0.034469
-1.58151
1.58278
0.0351013
-0.0350956
-1.57214
1.57213
0.0346202
-0.0337116
-1.30829
1.30739
0.0326486
-0.0313332
-1.09381
1.0925
0.0300804
-0.0287321
-0.919172
0.917823
0.0275344
-0.0260812
-0.776547
0.775094
0.0243309
-0.021686
-0.644705
0.642061
0.0185049
-0.0144723
-0.487293
0.48326
0.0107849
-0.00710298
-0.302316
0.298634
0.00429283
-0.00193467
-0.136503
0.134144
0.00056848
-0.0213506
0.0207821
-0.0323054
0.0330555
-0.000750172
0.00471583
-0.0070999
-0.237952
0.240336
0.00960037
-0.0115476
-0.404294
0.406241
0.0132599
-0.0146251
-0.556216
0.557581
0.0161853
-0.0179886
-0.680299
0.682102
0.0203938
-0.0228742
-0.80318
0.80566
0.025801
-0.0285696
-0.948939
0.951707
0.0316349
-0.0343763
-1.12428
1.12702
0.0372089
-0.0395021
-1.33377
1.33606
0.0415164
-0.0427245
-1.58392
1.58513
0.0431376
-0.0427869
-1.57191
1.57156
0.0419236
-0.040573
-1.30623
1.30488
0.0391027
-0.0373704
-1.09088
1.08915
0.0357398
-0.0339588
-0.916096
0.914315
0.0323453
-0.0303225
-0.773205
0.771183
0.0280598
-0.024832
-0.639313
0.636085
0.0211722
-0.0166813
-0.479331
0.47484
0.012562
-0.00835642
-0.294938
0.290732
0.00507521
-0.00228952
-0.131705
0.128919
0.000671167
-0.0202184
0.0195472
-0.0338839
0.0348807
-0.000996817
0.00624194
-0.0094458
-0.243079
0.246282
0.0129161
-0.0157475
-0.408725
0.411557
0.0183102
-0.0203304
-0.559742
0.561762
0.0224506
-0.0247201
-0.684347
0.686617
0.0276787
-0.030715
-0.808128
0.811164
0.0342597
-0.0375709
-0.954427
0.957738
0.0411741
-0.0443146
-1.12972
1.13286
0.0474465
-0.0498687
-1.33825
1.34067
0.0518586
-0.0528596
-1.58613
1.58713
0.0529098
-0.0520484
-1.57091
1.57005
0.0506988
-0.0488076
-1.3032
1.30131
0.0468441
-0.0445394
-1.08702
1.08472
0.0424048
-0.0401101
-0.912057
0.909762
0.038023
-0.0353956
-0.768684
0.766057
0.0325953
-0.0287901
-0.632772
0.628967
0.0246314
-0.0195573
-0.470462
0.465388
0.0148134
-0.00987738
-0.28646
0.281524
0.00599737
-0.00270355
-0.126028
0.122734
0.000792566
-0.0188752
0.0180826
-0.0359537
0.0373073
-0.00135362
0.00837143
-0.0126466
-0.249856
0.254132
0.0172912
-0.0211524
-0.415078
0.418939
0.0247737
-0.0276931
-0.564871
0.567791
0.0307343
-0.0338264
-0.689543
0.692635
0.0376467
-0.0413948
-0.81422
0.817968
0.0456515
-0.0495336
-0.960981
0.964863
0.0536438
-0.0571156
-1.1359
1.13937
0.0604383
-0.062864
-1.3429
1.34533
0.064638
-0.065217
-1.58779
1.58837
0.0646531
-0.0630267
-1.56875
1.56712
0.0609271
-0.0582472
-1.29899
1.29631
0.0556519
-0.0527781
-1.08198
1.07911
0.0501713
-0.0473437
-0.906877
0.904049
0.0447469
-0.0416169
-0.762951
0.759821
0.0383404
-0.0339619
-0.62513
0.620751
0.0291286
-0.023122
-0.460368
0.454361
0.01745
-0.0115763
-0.27648
0.270607
0.00700211
-0.00314465
-0.119348
0.11549
0.00091724
-0.0173014
0.0163842
-0.0387224
0.040598
-0.0018756
0.0114036
-0.0171107
-0.258759
0.264466
0.0231874
-0.0281872
-0.42374
0.42874
0.0329109
-0.0368491
-0.572128
0.576066
0.0410581
-0.0452219
-0.696557
0.70072
0.0501302
-0.0547789
-0.821768
0.826417
0.0598837
-0.064393
-0.968659
0.973169
0.0690306
-0.0728322
-1.14269
1.14649
0.0763454
-0.0787521
-1.3475
1.34991
0.0802584
-0.0803543
-1.58853
1.58862
0.0791299
-0.0766725
-1.56496
1.5625
0.0737601
-0.0701511
-1.29308
1.28947
0.0666868
-0.0629304
-1.07563
1.07187
0.059674
-0.0563504
-0.900626
0.897303
0.0534008
-0.0498545
-0.756192
0.752646
0.0460155
-0.0406998
-0.616243
0.610927
0.0347106
-0.0273066
-0.448271
0.440867
0.0204569
-0.0135014
-0.264638
0.257683
0.00813661
-0.00363642
-0.111545
0.107045
0.00105331
-0.0154822
0.0144289
-0.0424977
0.0451924
-0.00269463
0.0159626
-0.0236402
-0.270487
0.278164
0.031534
-0.0378465
-0.435143
0.441455
0.0437347
-0.0486913
-0.581758
0.586714
0.0540957
-0.059402
-0.705729
0.711035
0.0655182
-0.0711326
-0.831126
0.83674
0.0771255
-0.0823058
-0.977589
0.982769
0.0875225
-0.0917094
-1.15013
1.15431
0.0954562
-0.0978879
-1.35205
1.35449
0.0991938
-0.098891
-1.58831
1.588
0.0971342
-0.0940195
-1.55957
1.55646
0.0904612
-0.0861003
-1.28537
1.28101
0.0819108
-0.077312
-1.06744
1.06284
0.0732639
-0.0691066
-0.89312
0.888963
0.0653675
-0.0609344
-0.748387
0.743954
0.0558385
-0.0487835
-0.605107
0.598052
0.0411033
-0.0320171
-0.433312
0.424226
0.0238723
-0.0157087
-0.250714
0.24255
0.00942689
-0.00418019
-0.102479
0.0972323
0.00119699
-0.013403
0.012206
-0.0478325
0.0519448
-0.00411233
0.0232802
-0.0337765
-0.286208
0.296704
0.0441756
-0.0523273
-0.450105
0.458256
0.0596256
-0.0656359
-0.593883
0.599894
0.0722219
-0.0786331
-0.717104
0.723515
0.0857868
-0.0922001
-0.842277
0.84869
0.0989624
-0.104727
-0.987813
0.993578
0.110431
-0.114886
-1.15828
1.16274
0.11871
-0.121021
-1.35657
1.35888
0.121981
-0.121172
-1.58724
1.58643
0.118789
-0.114978
-1.55286
1.54905
0.110793
-0.105738
-1.27622
1.27116
0.100889
-0.0955
-1.05762
1.05223
0.0906293
-0.0853129
-0.883688
0.878372
0.0801576
-0.0738194
-0.738105
0.731767
0.0667616
-0.05753
-0.590099
0.580867
0.0480879
-0.0373602
-0.415109
0.404382
0.0278381
-0.0182569
-0.234495
0.224914
0.0108705
-0.0047562
-0.0919789
0.0858645
0.00133747
-0.0110557
0.00971825
-0.0557905
0.0629406
-0.00715011
0.0365721
-0.0513407
-0.308114
0.322883
0.0653572
-0.0760311
-0.47016
0.480834
0.0848557
-0.0918695
-0.608666
0.61568
0.0995627
-0.106798
-0.730367
0.737602
0.114585
-0.121409
-0.85482
0.861645
0.128477
-0.134359
-0.999006
1.00489
0.139993
-0.144157
-1.16672
1.17089
0.147447
-0.149045
-1.36057
1.36217
0.149055
-0.147199
-1.5849
1.58304
0.143723
-0.138799
-1.54456
1.53963
0.133641
-0.12755
-1.26553
1.25943
0.12174
-0.115237
-1.04607
1.03957
0.109171
-0.102246
-0.871587
0.864662
0.0953594
-0.0869088
-0.723516
0.715065
0.0779316
-0.0668728
-0.570659
0.5596
0.0559516
-0.0436268
-0.39374
0.381415
0.0325239
-0.0212476
-0.215599
0.204322
0.0125226
-0.00538311
-0.0799221
0.0727826
0.00147212
-0.00846961
0.0069975
-0.0696768
0.0735121
-0.00383523
0.0273226
-0.0400495
-0.340233
0.35296
0.05247
-0.0619773
-0.496568
0.506075
0.0703471
-0.0785675
-0.625903
0.634123
0.0879782
-0.0964466
-0.744485
0.752953
0.106219
-0.115193
-0.867674
0.876648
0.12492
-0.13365
-1.0099
1.01863
0.142772
-0.150528
-1.17404
1.1818
0.15807
-0.163826
-1.36268
1.36843
0.168461
-0.170703
-1.58003
1.58227
0.170391
-0.167893
-1.53362
1.53112
0.163901
-0.158043
-1.25241
1.24655
0.151787
-0.143495
-1.03204
1.02374
0.135214
-0.125177
-0.856029
0.845992
0.115123
-0.103137
-0.70453
0.692544
0.0907778
-0.0761765
-0.547597
0.532996
0.0623486
-0.0467881
-0.3689
0.353339
0.0332489
-0.0202364
-0.193308
0.180296
0.0109854
-0.00428076
-0.0663518
0.0596471
0.0010136
-0.00576548
0.00475187
-0.0804746
0.0783642
0.00211042
0.00566878
-0.0136922
-0.368541
0.376564
0.0229362
-0.0297382
-0.520219
0.527021
0.0367487
-0.0438595
-0.644414
0.651525
0.0524319
-0.0603966
-0.761277
0.769242
0.0691455
-0.0774054
-0.885134
0.893394
0.0863502
-0.0940537
-1.02708
1.03479
0.102292
-0.108933
-1.18936
1.196
0.115316
-0.119845
-1.37383
1.37836
0.122779
-0.123386
-1.58345
1.58406
0.121322
-0.116924
-1.52733
1.52293
0.111015
-0.10315
-1.23952
1.23166
0.0951121
-0.0853342
-1.01422
1.00444
0.0756434
-0.0644105
-0.833604
0.822371
0.0541219
-0.0435181
-0.676839
0.666235
0.0344351
-0.0248504
-0.516497
0.506912
0.0167569
-0.00956955
-0.337305
0.330117
0.00485993
-0.00158388
-0.167735
0.164459
7.01318e-05
0.000375046
-0.0532251
0.0527799
-0.000239105
-0.00355329
0.00379239
-0.0813674
0.0784214
0.00294604
-0.00289455
-0.00149312
-0.3874
0.391788
0.00751489
-0.0126541
-0.537825
0.542965
0.0183065
-0.0245032
-0.660288
0.666485
0.0319321
-0.0388515
-0.776589
0.783508
0.0466641
-0.0538616
-0.900976
0.908174
0.0614007
-0.0682385
-1.04229
1.04913
0.0753231
-0.0810873
-1.20216
1.20792
0.0861204
-0.0893716
-1.38208
1.38533
0.0911817
-0.0905328
-1.58367
1.58302
0.0872499
-0.0816842
-1.51748
1.51192
0.0749552
-0.0665998
-1.22321
1.21485
0.0579799
-0.0481783
-0.993897
0.984096
0.0388719
-0.0285622
-0.810808
0.800499
0.019668
-0.0108316
-0.653598
0.644761
0.00401707
0.00254197
-0.495397
0.488837
-0.0067404
0.0087219
-0.320884
0.318902
-0.00857315
0.00699661
-0.159225
0.160802
-0.00488918
0.002492
-0.0515708
0.053968
-0.000820592
-0.0035998
0.00442039
-0.0799047
0.0771479
0.00275687
-0.00594697
0.00394034
-0.399803
0.40181
-0.000331199
-0.00371172
-0.551234
0.555277
0.00882683
-0.0141312
-0.673483
0.678787
0.0205681
-0.0265892
-0.790108
0.796129
0.0333162
-0.0395012
-0.914929
0.921114
0.0463296
-0.0521015
-1.05552
1.06129
0.0582456
-0.0627666
-1.21322
1.21774
0.0669443
-0.0694573
-1.38825
1.39076
0.0703564
-0.0687827
-1.58174
1.58017
0.0651385
-0.0594441
-1.50564
1.49994
0.0527908
-0.0444026
-1.20621
1.19782
0.036314
-0.027314
-0.973992
0.964992
0.0188009
-0.00984538
-0.789962
0.781007
0.00190221
0.00550465
-0.634013
0.626606
-0.0109631
0.0152101
-0.480513
0.476266
-0.0169135
0.0161409
-0.313463
0.314236
-0.0137142
0.010069
-0.160148
0.163794
-0.00670351
0.00323618
-0.0552631
0.0587304
-0.00100843
-0.00474783
0.00575627
-0.0783525
0.0759936
0.00235891
-0.00663349
0.00600305
-0.408131
0.408762
-0.00326808
0.000325592
-0.562377
0.56532
0.00408645
-0.00905037
-0.684766
0.68973
0.0145533
-0.0199472
-0.801717
0.80711
0.0258349
-0.0312375
-0.926946
0.932349
0.0371088
-0.0422457
-1.06694
1.07208
0.0474299
-0.051544
-1.2221
1.22622
0.05506
-0.0570614
-1.39287
1.39487
0.0575342
-0.0557303
-1.57837
1.57657
0.0520759
-0.0464316
-1.49358
1.48793
0.0402325
-0.0327116
-1.18954
1.18202
0.0254589
-0.0173497
-0.955911
0.947802
0.0100043
-0.00225466
-0.771844
0.764094
-0.00431435
0.0104597
-0.617927
0.611782
-0.0147239
0.0177283
-0.469422
0.466417
-0.018809
0.0173676
-0.310988
0.31243
-0.014294
0.0103819
-0.16489
0.168802
-0.00681994
0.00322092
-0.060827
0.0644261
-0.00100409
-0.00627276
0.00727685
-0.0770499
0.0750695
0.00198042
-0.00625032
0.00596746
-0.413941
0.414224
-0.0043888
0.0018344
-0.571099
0.573653
0.00254076
-0.00688302
-0.694602
0.698945
0.0117392
-0.0165316
-0.811942
0.816734
0.0218529
-0.0267374
-0.937505
0.942389
0.0321513
-0.0366777
-1.07696
1.08149
0.0413598
-0.0450722
-1.23005
1.23377
0.0481687
-0.0498826
-1.3966
1.39832
0.050163
-0.0487359
-1.57469
1.57326
0.0452785
-0.0402317
-1.48197
1.47692
0.034589
-0.0278376
-1.1745
1.16775
0.0216452
-0.0144492
-0.939819
0.932623
0.00804423
-0.00147541
-0.756329
0.74976
-0.00412737
0.00934834
-0.604705
0.599484
-0.0129612
0.0155045
-0.461001
0.458458
-0.016111
0.014879
-0.310235
0.311467
-0.0123851
0.00892459
-0.170025
0.173485
-0.0057871
0.00276164
-0.0662554
0.0692809
-0.000871204
-0.007711
0.00858221
-0.0761504
0.0746322
0.0015182
-0.00523211
0.00516749
-0.418371
0.418436
-0.00373092
0.00169514
-0.578971
0.581007
0.00237714
-0.00638807
-0.703376
0.707386
0.0111309
-0.0153612
-0.821313
0.825544
0.0201289
-0.0245287
-0.947338
0.951737
0.0297268
-0.0338871
-1.08609
1.09025
0.038094
-0.0416456
-1.23732
1.24087
0.0449343
-0.0465617
-1.40007
1.4017
0.047009
-0.0457059
-1.57149
1.57018
0.0429069
-0.0381697
-1.47178
1.46705
0.0332964
-0.0274503
-1.16103
1.15518
0.0218888
-0.0157798
-0.925658
0.919549
0.0101905
-0.00435255
-0.743021
0.737184
-0.000257907
0.00481004
-0.593405
0.588853
-0.00801701
0.0101014
-0.453781
0.451696
-0.0108162
0.010211
-0.309757
0.310362
-0.00842816
0.00591857
-0.174097
0.176606
-0.00378053
0.00183267
-0.0703963
0.0723442
-0.000605505
-0.00883427
0.00943978
-0.0757731
0.074596
0.00117713
-0.00409902
0.00409
-0.422004
0.422013
-0.00264515
0.000635486
-0.586019
0.588029
0.00321218
-0.00688153
-0.711456
0.715125
0.0110458
-0.0152142
-0.829859
0.834028
0.0197039
-0.0243029
-0.956036
0.960635
0.0288454
-0.0328698
-1.09454
1.09857
0.0372475
-0.0406041
-1.24433
1.24769
0.0434841
-0.0455902
-1.40327
1.40537
0.0463287
-0.045453
-1.56898
1.56811
0.0430077
-0.0390787
-1.46257
1.45864
0.0347787
-0.029577
-1.14915
1.14395
0.0247132
-0.0192891
-0.913451
0.908027
0.0143742
-0.00939647
-0.731457
0.72648
0.00506818
-0.00103535
-0.583599
0.579566
-0.00182016
0.00394399
-0.447634
0.445511
-0.00482101
0.00462709
-0.308355
0.308549
-0.00387442
0.00269016
-0.176172
0.177356
-0.0017075
0.00083702
-0.0724989
0.0733694
-0.000306461
-0.00944472
0.00975118
-0.0759213
0.0749421
0.000979155
-0.00282334
0.00258166
-0.425373
0.425615
-0.00129104
-0.000839217
-0.59255
0.59468
0.00440126
-0.00800999
-0.719125
0.722734
0.0120857
-0.0159339
-0.838107
0.841955
0.0206096
-0.0244938
-0.964746
0.968631
0.0290559
-0.0329456
-1.10278
1.10667
0.0372567
-0.0408501
-1.25106
1.25466
0.0440688
-0.0460292
-1.40728
1.40924
0.047198
-0.0468272
-1.5672
1.56683
0.0451283
-0.0416381
-1.45464
1.45115
0.0378896
-0.0332166
-1.13889
1.13422
0.0288584
-0.0238862
-0.902446
0.897474
0.0195214
-0.014885
-0.721279
0.716642
0.010934
-0.00711597
-0.574952
0.571134
0.00420748
-0.00207196
-0.441653
0.439518
0.000753607
-0.00023035
-0.30588
0.305357
-7.11407e-05
0.000141945
-0.175949
0.175879
-0.000162831
0.000211069
-0.072635
0.0725868
-0.000136958
-0.00951815
0.00965511
-0.076339
0.0756628
0.000676189
-0.00170682
0.00110318
-0.428911
0.429515
-3.46277e-05
-0.00242398
-0.598344
0.600803
0.00567484
-0.00919466
-0.726395
0.729915
0.0131556
-0.0171818
-0.845764
0.84979
0.0213152
-0.0254011
-0.972782
0.976868
0.0299712
-0.0336966
-1.11102
1.11475
0.0381393
-0.0417307
-1.25809
1.26168
0.0450614
-0.0476011
-1.41163
1.41417
0.0493259
-0.0493118
-1.56653
1.56651
0.0479354
-0.045213
-1.44785
1.44512
0.0420358
-0.0377502
-1.12942
1.12513
0.0336576
-0.0292263
-0.892422
0.887991
0.024812
-0.0205852
-0.711727
0.7075
0.0168277
-0.0130313
-0.566966
0.563169
0.0101931
-0.00763701
-0.43556
0.433004
0.00590793
-0.00448152
-0.302281
0.300854
0.00333241
-0.00211404
-0.173675
0.172456
0.00106078
-0.000268491
-0.0710751
0.0702828
-2.59153e-05
-0.00914069
0.00916661
-0.0771478
0.0766196
0.000528222
-0.000776556
0.00028358
-0.432674
0.433167
0.00154606
-0.00375839
-0.604408
0.606621
0.00715135
-0.0105667
-0.733244
0.736659
0.014414
-0.0180899
-0.853574
0.857249
0.0223875
-0.0262023
-0.981014
0.984828
0.0307595
-0.0349445
-1.11895
1.12314
0.0390718
-0.043024
-1.26535
1.2693
0.0468144
-0.049495
-1.41664
1.41932
0.0516483
-0.0524646
-1.56674
1.56755
0.0515759
-0.0494957
-1.44228
1.4402
0.0465318
-0.0426821
-1.12085
1.117
0.0389534
-0.0346318
-0.883125
0.878803
0.030527
-0.0263506
-0.702729
0.698553
0.0226497
-0.0187446
-0.558903
0.554997
0.0156195
-0.0127369
-0.429049
0.426167
0.0102953
-0.0080711
-0.297176
0.294952
0.00605833
-0.00392532
-0.169428
0.167295
0.00219111
-0.000804396
-0.0681966
0.0668099
0.000143698
-0.00851375
0.00837005
-0.0782033
0.07785
0.00035327
0.000231434
-0.000991451
-0.436516
0.437276
0.00264214
-0.00513409
-0.610037
0.612529
0.00845567
-0.0117299
-0.739901
0.743175
0.0156786
-0.0192341
-0.860966
0.864522
0.0234119
-0.0273744
-0.989159
0.993121
0.0318656
-0.0360425
-1.12721
1.13139
0.0404167
-0.0444243
-1.2732
1.27721
0.0484358
-0.0518917
-1.42231
1.42577
0.0545317
-0.055684
-1.56833
1.56948
0.0555113
-0.0537696
-1.43801
1.43626
0.0513454
-0.0479765
-1.11305
1.10968
0.0442621
-0.0400929
-0.874157
0.869987
0.0360956
-0.0318131
-0.693947
0.689664
0.0281609