/*--------------------------------*- C++ -*----------------------------------*\
| =========                 |                                                 |
| \\      /  F ield         | OpenFOAM: The Open Source CFD Toolbox           |
|  \\    /   O peration     | Version:  2112                                  |
|   \\  /    A nd           | Website:  www.openfoam.com                      |
|    \\/     M anipulation  |                                                 |
\*---------------------------------------------------------------------------*/
FoamFile
{
    version     2.0;
    format      ascii;
    arch        "LSB;label=32;scalar=64";
    class       volVectorField;
    location    "31.5";
    object      U;
}
// * * * * * * * * * * * * * * * * * * * * * * * * * * * * * * * * * * * * * //

dimensions      [0 1 -1 0 0 0 0];

internalField   nonuniform List<vector> 
8800
(
(0.980155 -0.0915211 0)
(1.00234 -0.0587223 0)
(0.999611 -0.0321234 0)
(0.999997 -0.0165143 0)
(1.00004 -0.0088266 0)
(1.00002 -0.00507251 0)
(0.999993 -0.00297637 0)
(0.999982 -0.0016897 0)
(0.99998 -0.00081162 0)
(1.00006 -0.000123576 0)
(0.999987 0.000575291 0)
(1 0.0013314 0)
(1.00001 0.00236271 0)
(1.00002 0.00397261 0)
(1.00004 0.00672388 0)
(1.00004 0.0120334 0)
(0.999872 0.0230867 0)
(0.999069 0.0431533 0)
(1.00722 0.0790275 0)
(0.775024 0.0478396 0)
(0.358977 -0.014749 0)
(1.04649 -0.072494 0)
(1.08849 -0.0660309 0)
(1.04947 -0.0509228 0)
(1.02553 -0.0377018 0)
(1.01267 -0.0258929 0)
(1.00648 -0.0167073 0)
(1.00355 -0.0102476 0)
(1.00213 -0.00565146 0)
(1.00148 -0.00208729 0)
(1.00137 0.00109747 0)
(1.00173 0.00439899 0)
(1.00271 0.00830165 0)
(1.00473 0.013637 0)
(1.00897 0.021329 0)
(1.01798 0.0318283 0)
(1.03587 0.044617 0)
(1.06749 0.0580771 0)
(1.09473 0.069957 0)
(0.845691 0.0554989 0)
(0.217757 -0.00138134 0)
(1.07567 -0.0506648 0)
(1.09942 -0.048952 0)
(1.06437 -0.0400381 0)
(1.03983 -0.0325753 0)
(1.02369 -0.0253594 0)
(1.01392 -0.018176 0)
(1.00843 -0.0116158 0)
(1.00559 -0.00590781 0)
(1.00445 -0.0006509 0)
(1.00478 0.00444045 0)
(1.00665 0.00972726 0)
(1.01058 0.015714 0)
(1.01789 0.022492 0)
(1.03052 0.0296192 0)
(1.05054 0.0367271 0)
(1.08015 0.0445243 0)
(1.10577 0.0518683 0)
(0.943418 0.0409765 0)
(0.217285 0.00140074 0)
(0.176602 -0.000629165 0)
(1.01936 -0.0354772 0)
(1.10571 -0.0414312 0)
(1.07795 -0.0364147 0)
(1.05235 -0.0303668 0)
(1.03508 -0.024504 0)
(1.02322 -0.0187608 0)
(1.01543 -0.0128282 0)
(1.01085 -0.00678979 0)
(1.00885 -0.000610822 0)
(1.00941 0.00550047 0)
(1.01253 0.011401 0)
(1.01848 0.0171983 0)
(1.02808 0.0228074 0)
(1.04231 0.0283792 0)
(1.06317 0.0341864 0)
(1.09401 0.0401082 0)
(1.09463 0.0416732 0)
(0.830538 0.0227288 0)
(0.1758 0.000644723 0)
(0.154682 -0.000462662 0)
(0.958101 -0.0256949 0)
(1.10435 -0.0351295 0)
(1.08801 -0.0326986 0)
(1.06111 -0.0282135 0)
(1.04303 -0.0232773 0)
(1.03067 -0.0180384 0)
(1.02209 -0.0125709 0)
(1.01656 -0.00673146 0)
(1.01394 -0.0003479 0)
(1.01464 0.00605989 0)
(1.01848 0.0119037 0)
(1.02528 0.0172461 0)
(1.03543 0.0223075 0)
(1.0502 0.0271736 0)
(1.07216 0.0316345 0)
(1.10121 0.0355365 0)
(1.07005 0.0337998 0)
(0.743173 0.0143802 0)
(0.153484 0.000480272 0)
(0.139996 -0.000334669 0)
(0.901066 -0.019317 0)
(1.09672 -0.0302178 0)
(1.09609 -0.0293417 0)
(1.06875 -0.0255569 0)
(1.04987 -0.0215052 0)
(1.03693 -0.0169198 0)
(1.02796 -0.0117925 0)
(1.02206 -0.00616865 0)
(1.01913 8.55993e-05 0)
(1.01982 0.00637385 0)
(1.02388 0.0119737 0)
(1.03094 0.0169539 0)
(1.04147 0.0214445 0)
(1.0569 0.02543 0)
(1.07973 0.0290001 0)
(1.10362 0.031781 0)
(1.03857 0.0278807 0)
(0.676795 0.0102039 0)
(0.138314 0.00035562 0)
(0.129269 -0.000252695 0)
(0.85121 -0.0148919 0)
(1.08431 -0.0260837 0)
(1.10171 -0.0264652 0)
(1.07549 -0.0231939 0)
(1.05609 -0.0196053 0)
(1.04271 -0.0155239 0)
(1.03338 -0.0107751 0)
(1.0272 -0.00539965 0)
(1.02406 0.000620372 0)
(1.02467 0.00664318 0)
(1.02879 0.0119382 0)
(1.03603 0.0165123 0)
(1.04687 0.0204537 0)
(1.06272 0.0238621 0)
(1.08601 0.0269297 0)
(1.10302 0.0287858 0)
(1.00437 0.0232217 0)
(0.62538 0.00775958 0)
(0.126997 0.000278193 0)
(0.121115 -0.000193234 0)
(0.808844 -0.0116608 0)
(1.06896 -0.0224026 0)
(1.10507 -0.02372 0)
(1.08155 -0.0208917 0)
(1.06173 -0.0175644 0)
(1.0481 -0.0138433 0)
(1.03848 -0.00949668 0)
(1.03202 -0.00447562 0)
(1.02867 0.00126513 0)
(1.02916 0.00699938 0)
(1.03329 0.0118969 0)
(1.04065 0.0159612 0)
(1.05162 0.0193681 0)
(1.06774 0.0223569 0)
(1.09139 0.0251365 0)
(1.09965 0.0261449 0)
(0.970063 0.0194838 0)
(0.584515 0.00613671 0)
(0.118128 0.00022439 0)
(0.114831 -0.000148207 0)
(0.773288 -0.00921592 0)
(1.05215 -0.01914 0)
(1.10734 -0.0211952 0)
(1.08726 -0.018746 0)
(1.06696 -0.0156007 0)
(1.05304 -0.0120978 0)
(1.04325 -0.00801519 0)
(1.03659 -0.00330706 0)
(1.03302 0.00206182 0)
(1.03335 0.0073748 0)
(1.03739 0.0118274 0)
(1.04471 0.0154455 0)
(1.05577 0.0184647 0)
(1.07221 0.0211392 0)
(1.09569 0.023618 0)
(1.09371 0.023862 0)
(0.937071 0.0165045 0)
(0.551272 0.00499043 0)
(0.110974 0.000186255 0)
(0.109975 -0.000112095 0)
(0.743719 -0.00728043 0)
(1.03493 -0.0161539 0)
(1.10849 -0.0187389 0)
(1.09255 -0.0167065 0)
(1.07197 -0.0137589 0)
(1.05777 -0.0103792 0)
(1.0478 -0.00644532 0)
(1.04093 -0.00200028 0)
(1.03711 0.00301067 0)
(1.03723 0.00790291 0)
(1.04116 0.01191 0)
(1.0484 0.0151487 0)
(1.05948 0.0178569 0)
(1.07617 0.0202023 0)
(1.09867 0.0222679 0)
(1.08552 0.0217789 0)
(0.906146 0.0141051 0)
(0.523714 0.00414692 0)
(0.105058 0.00015875 0)
(0.106271 -8.23274e-05 0)
(0.719397 -0.00568236 0)
(1.01828 -0.013403 0)
(1.10878 -0.0162314 0)
(1.09755 -0.0144728 0)
(1.07673 -0.0116118 0)
(1.06225 -0.00839688 0)
(1.05204 -0.00470098 0)
(1.04496 -0.000509599 0)
(1.0409 0.00417263 0)
(1.04073 0.00864335 0)
(1.04441 0.0122147 0)
(1.05155 0.0149904 0)
(1.06269 0.0172489 0)
(1.07959 0.0192423 0)
(1.10034 0.0209641 0)
(1.07566 0.0198611 0)
(0.877609 0.0121573 0)
(0.500506 0.0035087 0)
(0.100061 0.000139006 0)
(0.103534 -5.69288e-05 0)
(0.699764 -0.00429982 0)
(1.00287 -0.010821 0)
(1.10845 -0.0137511 0)
(1.10239 -0.0122479 0)
(1.08133 -0.00946453 0)
(1.06647 -0.00635642 0)
(1.05604 -0.00278016 0)
(1.04871 0.00122394 0)
(1.04432 0.00557077 0)
(1.04382 0.0095789 0)
(1.04722 0.0126887 0)
(1.05418 0.0149994 0)
(1.06533 0.0168305 0)
(1.08253 0.0185448 0)
(1.10117 0.0198918 0)
(1.06462 0.0181884 0)
(0.851503 0.010584 0)
(0.480698 0.00302739 0)
(0.0957447 0.000126886 0)
(0.10166 -3.20048e-05 0)
(0.684478 -0.00302805 0)
(0.989182 -0.00828442 0)
(1.10746 -0.0111183 0)
(1.10671 -0.00992023 0)
(1.08578 -0.00728057 0)
(1.07065 -0.00415671 0)
(1.05993 -0.000625421 0)
(1.05223 0.00319884 0)
(1.04739 0.00725674 0)
(1.04648 0.0108786 0)
(1.04959 0.0135142 0)
(1.05639 0.0154343 0)
(1.06748 0.0169491 0)
(1.08475 0.0182003 0)
(1.10085 0.0189714 0)
(1.05254 0.0166111 0)
(0.827774 0.0092525 0)
(0.463624 0.00264482 0)
(0.0919303 0.000118449 0)
(0.10061 -6.19473e-06 0)
(0.673419 -0.00182219 0)
(0.977843 -0.00575695 0)
(1.10624 -0.00818439 0)
(1.11067 -0.00706304 0)
(1.09023 -0.00450034 0)
(1.07481 -0.00146907 0)
(1.06377 0.00193332 0)
(1.05575 0.00558675 0)
(1.05047 0.00933706 0)
(1.04899 0.0124932 0)
(1.05162 0.01456 0)
(1.05812 0.01587 0)
(1.06918 0.0168113 0)
(1.08631 0.0175861 0)
(1.09945 0.0179756 0)
(1.03988 0.0151287 0)
(0.806384 0.00815104 0)
(0.448794 0.00235318 0)
(0.0884908 0.000114126 0)
(0.100368 1.2364e-05 0)
(0.666412 -0.000611 0)
(0.969177 -0.00323498 0)
(1.10538 -0.00517793 0)
(1.11456 -0.00405408 0)
(1.09443 -0.00154717 0)
(1.0786 0.00142873 0)
(1.0672 0.00475548 0)
(1.05871 0.00831431 0)
(1.05282 0.0118605 0)
(1.05069 0.0146255 0)
(1.05278 0.0162179 0)
(1.05894 0.0169651 0)
(1.0699 0.0172923 0)
(1.08711 0.0175717 0)
(1.09703 0.0173498 0)
(1.02698 0.0139962 0)
(0.787055 0.00729512 0)
(0.435738 0.00214819 0)
(0.0853023 0.000115429 0)
(0.100982 5.6281e-05 0)
(0.663476 0.000587823 0)
(0.963314 -0.000626486 0)
(1.10478 -0.00198792 0)
(1.11827 -0.00100997 0)
(1.09872 0.00142482 0)
(1.08263 0.00457438 0)
(1.07091 0.00805954 0)
(1.06193 0.0116459 0)
(1.0553 0.01499 0)
(1.05237 0.0172968 0)
(1.05373 0.0183009 0)
(1.05929 0.0185203 0)
(1.06995 0.0183783 0)
(1.08682 0.0179837 0)
(1.09332 0.0171101 0)
(1.01349 0.0130292 0)
(0.769506 0.00663117 0)
(0.424091 0.00200457 0)
(0.0822812 0.000113751 0)
(0.102563 8.02277e-05 0)
(0.664503 0.00170997 0)
(0.9607 0.00190373 0)
(1.10481 0.00143693 0)
(1.12185 0.00253274 0)
(1.10311 0.00506099 0)
(1.08682 0.00839839 0)
(1.07461 0.0120299 0)
(1.06492 0.0156411 0)
(1.05737 0.0188271 0)
(1.0534 0.0207223 0)
(1.05391 0.0211291 0)
(1.05893 0.0206799 0)
(1.06912 0.019862 0)
(1.08549 0.0189346 0)
(1.0879 0.017186 0)
(0.999704 0.0126134 0)
(0.753265 0.00643509 0)
(0.413177 0.00201605 0)
(0.0793448 0.000115159 0)
(0.105075 0.000122567 0)
(0.669344 0.00281804 0)
(0.961588 0.00434254 0)
(1.10636 0.00491221 0)
(1.12587 0.00647712 0)
(1.10777 0.00937472 0)
(1.09118 0.0129683 0)
(1.07837 0.0167783 0)
(1.06782 0.0204819 0)
(1.05915 0.0235376 0)
(1.05395 0.0249771 0)
(1.05341 0.0247654 0)
(1.05759 0.0235754 0)
(1.06726 0.0220581 0)
(1.08294 0.0204888 0)
(1.08137 0.0180847 0)
(0.98561 0.0130421 0)
(0.737408 0.00679625 0)
(0.402014 0.00221225 0)
(0.0762663 0.000124467 0)
(0.108562 0.000164006 0)
(0.677734 0.00390145 0)
(0.965616 0.00662365 0)
(1.10982 0.00826722 0)
(1.13088 0.0104111 0)
(1.11303 0.0138348 0)
(1.09597 0.0178658 0)
(1.0825 0.0221188 0)
(1.07098 0.0262106 0)
(1.06091 0.0293539 0)
(1.05414 0.0304473 0)
(1.05228 0.0296475 0)
(1.05545 0.0277382 0)
(1.06449 0.0254894 0)
(1.07926 0.023225 0)
(1.07366 0.0201182 0)
(0.970679 0.0143821 0)
(0.720844 0.00771903 0)
(0.389585 0.00257849 0)
(0.0727768 0.000144107 0)
(0.113124 0.000216585 0)
(0.689732 0.00518642 0)
(0.973066 0.00925359 0)
(1.1151 0.0120186 0)
(1.13686 0.0146751 0)
(1.11908 0.0187252 0)
(1.10148 0.0235445 0)
(1.08714 0.0285934 0)
(1.07428 0.0332481 0)
(1.06239 0.0365424 0)
(1.05378 0.0372816 0)
(1.05036 0.0357828 0)
(1.05232 0.0331502 0)
(1.06062 0.0302325 0)
(1.07425 0.0271527 0)
(1.06425 0.0230659 0)
(0.95431 0.0164796 0)
(0.70249 0.00906297 0)
(0.375105 0.00305457 0)
(0.0686734 0.000169171 0)
(0.119073 0.00029049 0)
(0.705872 0.00686651 0)
(0.984558 0.0125416 0)
(1.12268 0.0167078 0)
(1.14403 0.0202725 0)
(1.1264 0.0252706 0)
(1.10822 0.0311064 0)
(1.09264 0.0370376 0)
(1.07797 0.0421827 0)
(1.06384 0.0454289 0)
(1.05295 0.0455308 0)
(1.04771 0.0431478 0)
(1.04832 0.0396325 0)
(1.05567 0.0357833 0)
(1.06763 0.0318581 0)
(1.05298 0.0267117 0)
(0.936135 0.0192438 0)
(0.681348 0.0107227 0)
(0.358005 0.00360591 0)
(0.0638104 0.000200027 0)
(0.126933 0.000400618 0)
(0.727076 0.00920184 0)
(1.00075 0.0167955 0)
(1.13374 0.0227152 0)
(1.15343 0.0278038 0)
(1.13541 0.0342135 0)
(1.11618 0.041227 0)
(1.09876 0.0479885 0)
(1.08167 0.0534515 0)
(1.06476 0.0563367 0)
(1.05122 0.0553909 0)
(1.04399 0.0516696 0)
(1.04314 0.0469853 0)
(1.04933 0.0423164 0)
(1.05941 0.037524 0)
(1.03997 0.0314489 0)
(0.915304 0.0227952 0)
(0.656415 0.0125908 0)
(0.337987 0.00420217 0)
(0.0581575 0.000229079 0)
(0.137487 0.000564588 0)
(0.754645 0.0125131 0)
(1.02246 0.0224204 0)
(1.14917 0.0302241 0)
(1.16614 0.0373086 0)
(1.14656 0.045423 0)
(1.12543 0.053835 0)
(1.10544 0.0614635 0)
(1.08532 0.0672405 0)
(1.06504 0.0696908 0)
(1.04836 0.0676196 0)
(1.03883 0.0624142 0)
(1.0366 0.0561676 0)
(1.04183 0.0503102 0)
(1.04993 0.0449679 0)
(1.02483 0.0377462 0)
(0.890192 0.0270573 0)
(0.626999 0.0147071 0)
(0.314718 0.00487238 0)
(0.0516529 0.000259116 0)
(0.151931 0.000827381 0)
(0.790494 0.0174462 0)
(1.0507 0.0302584 0)
(1.16929 0.0400526 0)
(1.1825 0.0491347 0)
(1.16027 0.05918 0)
(1.13612 0.0690498 0)
(1.11273 0.0776649 0)
(1.08893 0.0838406 0)
(1.0647 0.0859717 0)
(1.04448 0.0829847 0)
(1.03228 0.0765971 0)
(1.02822 0.0690144 0)
(1.03269 0.061721 0)
(1.0389 0.0550198 0)
(1.00546 0.0456139 0)
(0.859266 0.031817 0)
(0.592751 0.0171404 0)
(0.287841 0.00562416 0)
(0.0442671 0.000287509 0)
(0.172385 0.00128832 0)
(0.837916 0.025198 0)
(1.08771 0.042059 0)
(1.19428 0.0543289 0)
(1.20239 0.0653858 0)
(1.17626 0.077069 0)
(1.14819 0.0882222 0)
(1.12065 0.0976668 0)
(1.09248 0.104003 0)
(1.06383 0.105583 0)
(1.03977 0.101512 0)
(1.02465 0.0939577 0)
(1.01836 0.085164 0)
(1.02117 0.0763231 0)
(1.02374 0.0669383 0)
(0.979329 0.0541305 0)
(0.822344 0.037119 0)
(0.553429 0.019989 0)
(0.257067 0.00643726 0)
(0.0360351 0.000309767 0)
(0.20219 0.0023288 0)
(0.902616 0.0386244 0)
(1.13653 0.0616001 0)
(1.22396 0.0766063 0)
(1.22489 0.0895704 0)
(1.19384 0.102226 0)
(1.16118 0.113937 0)
(1.12871 0.123278 0)
(1.09552 0.128747 0)
(1.06204 0.128772 0)
(1.03394 0.122766 0)
(1.01573 0.11339 0)
(1.00676 0.102824 0)
(1.00628 0.0917703 0)
(1.00229 0.0791937 0)
(0.946283 0.0629351 0)
(0.780089 0.0432706 0)
(0.508771 0.0233674 0)
(0.222784 0.00734055 0)
(0.0272796 0.000321896 0)
(0.243016 0.00861996 1.51385e-19)
(0.988694 0.0657981 1.30224e-19)
(1.19528 0.0949964 -4.43323e-20)
(1.25645 0.111077 0)
(1.24769 0.12623 -1.00539e-33)
(1.21131 0.138273 1.43749e-20)
(1.17366 0.148855 -2.40028e-20)
(1.13572 0.156499 0)
(1.09706 0.159733 4.51553e-34)
(1.05829 0.156974 -2.58321e-20)
(1.02569 0.148021 0)
(1.00374 0.135944 -2.89483e-20)
(0.991079 0.122859 -8.42451e-20)
(0.985134 0.109115 -3.94151e-20)
(0.972712 0.0940521 -1.16789e-20)
(0.905599 0.0759867 -6.88692e-21)
(0.728481 0.0531627 0)
(0.454616 0.0287691 4.80671e-21)
(0.185537 0.00957894 5.6794e-21)
(0.0192609 0.000731119 1.02517e-19)
(0.270673 0.0242484 1.37001e-19)
(1.05911 0.108482 5.09501e-22)
(1.24259 0.143088 1.30145e-20)
(1.28594 0.159912 0)
(1.2676 0.174299 -5.48093e-20)
(1.22643 0.184616 -5.9865e-20)
(1.18381 0.193223 -2.51495e-20)
(1.1403 0.198592 -8.3461e-20)
(1.09581 0.199138 0)
(1.05095 0.193052 1.10642e-19)
(1.0125 0.180386 1.06483e-19)
(0.985112 0.164786 3.0953e-20)
(0.966624 0.148526 1.09622e-19)
(0.952913 0.131984 1.50967e-19)
(0.930315 0.114987 0)
(0.854507 0.0955046 2.09906e-19)
(0.670176 0.0683594 3.00722e-19)
(0.400803 0.0381001 3.33776e-19)
(0.154003 0.0137147 -3.81449e-19)
(0.0130547 0.00115245 -7.18927e-21)
(0.270273 0.0395712 0)
(1.10248 0.164179 3.00961e-20)
(1.27444 0.202695 0)
(1.30836 0.219647 -8.84135e-20)
(1.28294 0.230893 0)
(1.23768 0.237998 -1.2462e-19)
(1.19034 0.243186 5.29494e-20)
(1.14151 0.245059 -1.74473e-19)
(1.0914 0.241837 -1.57225e-21)
(1.04056 0.231593 5.84255e-20)
(0.996328 0.21483 2.31301e-19)
(0.963682 0.195832 -3.12567e-22)
(0.939965 0.177093 -7.90539e-20)
(0.920744 0.159165 -1.40849e-19)
(0.893354 0.141586 1.65718e-19)
(0.817344 0.120547 -2.92555e-19)
(0.638592 0.0882231 -3.84182e-20)
(0.38393 0.0514908 0)
(0.153292 0.0202361 2.26137e-23)
(0.0140744 0.00198189 0)
(0.26334 0.0530628 5.49431e-19)
(1.12517 0.22312 -2.44578e-19)
(1.29423 0.267151 -1.57174e-19)
(1.32262 0.28409 4.58698e-20)
(1.29229 0.291968 -7.49017e-20)
(1.24395 0.29533 2.65063e-19)
(1.1927 0.296516 1.1241e-19)
(1.13926 0.294257 0)
(1.08405 0.286759 -3.08263e-19)
(1.02774 0.272028 0)
(0.978209 0.25123 -1.22834e-19)
(0.940945 0.229283 -1.454e-19)
(0.913139 0.208641 -8.5513e-20)
(0.890419 0.18971 -1.01572e-19)
(0.861048 0.171331 0)
(0.789535 0.148421 0)
(0.623069 0.112409 -2.50024e-19)
(0.387309 0.0696441 4.91986e-20)
(0.165271 0.0298285 -2.90349e-20)
(0.0184115 0.00354959 -3.39434e-20)
(0.255911 0.065129 -3.33656e-19)
(1.13462 0.28185 0)
(1.30515 0.332504 3.79507e-19)
(1.3298 0.349732 1.42888e-19)
(1.29595 0.354379 1.63562e-19)
(1.24522 0.354025 0)
(1.19083 0.351184 1.16593e-19)
(1.13356 0.344696 1.97447e-19)
(1.07399 0.332819 1.62057e-19)
(1.01287 0.313626 2.71622e-19)
(0.958766 0.288944 0)
(0.917726 0.264327 -3.12707e-19)
(0.886819 0.242064 -1.84089e-19)
(0.861693 0.222287 -1.07765e-19)
(0.831585 0.203342 6.46266e-19)
(0.764403 0.179381 7.66357e-20)
(0.613591 0.139782 3.60252e-19)
(0.395556 0.0905773 -1.70019e-18)
(0.179699 0.0416618 1.00988e-18)
(0.0234515 0.00573663 -1.21719e-18)
(0.249199 0.0761016 -3.02496e-19)
(1.13577 0.338516 6.48096e-20)
(1.30935 0.396895 -5.53549e-20)
(1.33139 0.414647 -1.90824e-19)
(1.29485 0.416297 -1.65136e-19)
(1.24218 0.412428 1.73516e-21)
(1.18522 0.405761 -1.25317e-19)
(1.12478 0.395209 2.08622e-19)
(1.06151 0.379107 -3.47743e-19)
(0.996277 0.355594 0)
(0.938297 0.327202 -1.44345e-19)
(0.894234 0.299981 -1.59226e-21)
(0.861033 0.276156 -1.99223e-19)
(0.834303 0.255481 0)
(0.80414 0.235864 -1.39156e-19)
(0.741632 0.210601 -3.29467e-19)
(0.604634 0.168114 8.78139e-19)
(0.402197 0.112468 -8.63679e-19)
(0.191304 0.0542365 1.22772e-18)
(0.0276446 0.00814727 -1.27567e-18)
(0.243792 0.0863404 -4.06388e-22)
(1.13181 0.392503 -6.51024e-20)
(1.30892 0.459789 -2.26734e-19)
(1.32867 0.477748 9.77264e-20)
(1.29002 0.476706 -8.71166e-20)
(1.23572 0.469584 0)
(1.17659 0.459369 -1.27984e-19)
(1.11347 0.445021 -2.21355e-19)
(1.04704 0.424935 -1.83822e-19)
(0.978269 0.397301 0)
(0.917019 0.365281 -1.52123e-19)
(0.870505 0.335487 -1.80465e-19)
(0.835613 0.309954 2.14543e-19)
(0.807829 0.288249 -1.27458e-19)
(0.777883 0.267926 -6.01229e-19)
(0.719363 0.241357 3.56731e-19)
(0.59397 0.196361 1.0633e-19)
(0.403798 0.13409 0)
(0.197622 0.0662986 -1.17701e-18)
(0.0303926 0.0104392 -4.30753e-20)
(0.239668 0.0961478 -4.01522e-20)
(1.12479 0.443682 6.69536e-20)
(1.30488 0.520285 1.19949e-19)
(1.3227 0.538462 3.18101e-19)
(1.28232 0.535022 -3.61408e-19)
(1.22662 0.524956 3.16237e-19)
(1.16567 0.511492 2.7427e-19)
(1.10023 0.493648 -3.54527e-19)
(1.03104 0.469854 1.04499e-19)
(0.95916 0.438297 -6.66275e-19)
(0.895084 0.402704 -1.67142e-19)
(0.846555 0.370227 0)
(0.810414 0.342857 2.30928e-19)
(0.782021 0.319904 2.72229e-19)
(0.752563 0.298597 3.222e-19)
(0.697451 0.270584 -3.8411e-19)
(0.580658 0.222896 -1.13433e-19)
(0.399599 0.153718 1.33658e-19)
(0.197772 0.0764818 0)
(0.0312825 0.0122151 -9.26515e-20)
(0.236668 0.105663 4.06869e-19)
(1.1162 0.492173 -2.75137e-19)
(1.29823 0.577964 -1.26506e-19)
(1.3143 0.596465 2.21482e-19)
(1.27246 0.59091 -1.8725e-19)
(1.21557 0.578199 -4.00305e-21)
(1.15305 0.561814 -2.95221e-19)
(1.0856 0.540796 -1.27062e-19)
(1.01395 0.513574 -3.16934e-19)
(0.939252 0.478306 2.31451e-22)
(0.872615 0.439168 -5.2948e-19)
(0.822395 0.40387 4.23435e-19)
(0.785294 0.374401 -2.50089e-19)
(0.756584 0.349944 2.95409e-19)
(0.727669 0.327302 0)
(0.675272 0.297549 -2.06468e-19)
(0.564681 0.246491 -8.63408e-22)
(0.390276 0.169969 -5.76121e-19)
(0.193501 0.0841163 -8.49033e-20)
(0.0307717 0.0133529 0)
(0.234632 0.114984 0)
(1.10685 0.538149 -2.90741e-19)
(1.28975 0.632747 -2.59317e-19)
(1.30416 0.651662 -2.32073e-19)
(1.26104 0.644209 -2.0642e-19)
(1.20312 0.629139 0)
(1.13924 0.610143 -1.50056e-19)
(1.07001 0.586271 -1.17276e-21)
(0.996124 0.555925 6.77948e-19)
(0.918813 0.517167 -9.34518e-20)
(0.849782 0.474525 -3.79702e-19)
(0.797974 0.436257 2.23236e-19)
(0.760105 0.40444 -2.0236e-21)
(0.731204 0.378157 3.14749e-19)
(0.702793 0.353881 1.89411e-19)
(0.652348 0.321851 -4.43936e-19)
(0.546051 0.266621 5.25287e-19)
(0.376415 0.182973 1.55033e-19)
(0.185111 0.0890939 6.39172e-19)
(0.0289286 0.0137721 -1.71222e-18)
(0.233481 0.12424 8.52928e-20)
(1.09728 0.581827 -1.47479e-19)
(1.28018 0.684646 1.26499e-19)
(1.29276 0.704045 2.39989e-19)
(1.24854 0.694858 0)
(1.18974 0.677688 -1.80417e-19)
(1.12466 0.656378 4.87542e-19)
(1.05383 0.629966 2.85554e-19)
(0.977891 0.596802 0)
(0.898081 0.5548 -1.31889e-18)
(0.82669 0.508724 1.01962e-18)
(0.773335 0.467363 0)
(0.734678 0.432938 2.88695e-19)
(0.705634 0.404516 -2.00908e-21)
(0.677634 0.378263 -6.05462e-19)
(0.628496 0.343465 2.36994e-19)
(0.525001 0.283313 0)
(0.359024 0.192292 8.3316e-19)
(0.173566 0.0916032 0)
(0.0262598 0.0136236 -8.05598e-19)
(0.23303 0.133484 -8.78234e-20)
(1.08796 0.623309 -1.49879e-19)
(1.26966 0.733736 1.36912e-19)
(1.28054 0.753591 0)
(1.23536 0.742856 -2.23438e-19)
(1.17578 0.723828 0)
(1.10966 0.700473 -5.08956e-19)
(1.03738 0.671823 -1.45169e-19)
(0.959521 0.636158 1.25026e-19)
(0.877269 0.591187 -6.51315e-19)
(0.803462 0.541787 1.07143e-19)
(0.74843 0.497232 0)
(0.708923 0.459965 -6.16699e-19)
(0.679699 0.429118 2.05651e-21)
(0.651948 0.400536 0)
(0.603473 0.362461 2.26699e-21)
(0.501466 0.296625 7.57617e-19)
(0.338376 0.197946 -7.16926e-19)
(0.159632 0.0916585 2.11354e-19)
(0.0230347 0.0129201 0)
(0.232948 0.142571 0)
(1.07903 0.662719 -1.54145e-19)
(1.25862 0.780165 -1.37021e-19)
(1.26784 0.800353 -2.28791e-21)
(1.2218 0.788234 -1.125e-19)
(1.16156 0.767568 -4.09906e-19)
(1.09452 0.742422 1.83839e-19)
(1.02092 0.711821 -1.60508e-19)
(0.941247 0.673964 5.43509e-19)
(0.856563 0.626336 -1.04141e-18)
(0.780197 0.573782 -3.37214e-21)
(0.723298 0.525971 -2.77974e-19)
(0.682796 0.485644 9.94563e-19)
(0.653288 0.452081 -2.42048e-21)
(0.62563 0.420811 -4.65669e-19)
(0.577233 0.378854 -8.27549e-19)
(0.475727 0.306571 0)
(0.315033 0.200097 0)
(0.143824 0.0892997 2.27584e-19)
(0.0194801 0.0117012 -1.33152e-19)
(0.233383 0.151634 -9.22731e-20)
(1.07053 0.699878 3.22604e-19)
(1.24735 0.823992 1.45992e-19)
(1.25493 0.844422 0)
(1.20811 0.831057 -1.55249e-21)
(1.14731 0.808945 -4.24501e-19)
(1.07946 0.782243 4.76967e-19)
(1.00468 0.749962 6.66299e-19)
(0.923269 0.710229 7.17565e-19)
(0.836149 0.660278 -8.58281e-19)
(0.757065 0.604805 -8.71985e-19)
(0.698039 0.553743 7.42924e-19)
(0.656269 0.510144 0)
(0.626319 0.473547 -2.12179e-19)
(0.598576 0.439175 -5.0142e-19)
(0.549685 0.392663 -5.92409e-19)
(0.447545 0.312999 -7.01787e-19)
(0.289445 0.198743 2.07379e-19)
(0.126522 0.0845556 -1.22141e-19)
(0.0156261 0.0100094 3.25224e-22)
(0.233878 0.160566 0)
(1.06261 0.735323 0)
(1.23601 0.865309 2.58969e-21)
(1.24197 0.885892 0)
(1.19449 0.87141 3.70245e-19)
(1.13321 0.848023 3.30187e-19)
(1.06467 0.81997 0)
(0.988805 0.786265 8.55071e-20)
(0.905765 0.744961 1.21392e-18)
(0.81622 0.69305 -1.96813e-18)
(0.734243 0.634967 0)
(0.672718 0.580727 -4.7677e-19)
(0.629327 0.533665 -2.95178e-21)
(0.598699 0.493652 -2.41289e-21)
(0.570701 0.45565 5.35768e-19)
(0.520855 0.40377 -4.07589e-22)
(0.41731 0.315866 -1.50692e-18)
(0.261682 0.193772 4.45315e-19)
(0.108434 0.0777657 1.3155e-19)
(0.0117769 0.00801995 0)
(0.234369 0.169305 2.89939e-19)
(1.055 0.769056 1.71462e-19)
(1.22469 0.904182 3.08055e-19)
(1.22913 0.924865 -5.68349e-19)
(1.18108 0.90936 6.43302e-19)
(1.11941 0.884863 0)
(1.05028 0.855651 3.15391e-19)
(0.973453 0.820758 -1.85077e-19)
(0.888881 0.778183 3.84004e-21)
(0.796943 0.72469 1.42225e-19)
(0.71187 0.664357 1.13188e-18)
(0.647453 0.607113 -1.68425e-19)
(0.601984 0.556444 -6.0982e-19)
(0.570305 0.51256 -2.45116e-19)
(0.541837 0.470189 2.89524e-19)
(0.490704 0.411903 -2.55426e-22)
(0.385498 0.314911 4.05182e-19)
(0.232723 0.185343 -9.55993e-19)
(0.0902511 0.0693212 1.12994e-18)
(0.00807467 0.00584815 1.64815e-19)
(0.234696 0.177728 -9.91455e-20)
(1.04773 0.801165 8.90054e-20)
(1.21353 0.940732 6.09626e-21)
(1.21652 0.961455 -2.91505e-19)
(1.16798 0.945014 -1.30725e-19)
(1.10601 0.919536 -6.18734e-19)
(1.03641 0.889338 1.06981e-19)
(0.958725 0.853466 -7.84137e-19)
(0.872735 0.809898 -1.36485e-18)
(0.77844 0.755202 -1.18514e-18)
(0.690117 0.693051 0)
(0.622402 0.633083 -7.28881e-19)
(0.574286 0.578772 8.73444e-19)
(0.540966 0.530517 0)
(0.511675 0.4827 -6.19266e-19)
(0.459125 0.41658 3.68101e-19)
(0.352489 0.309669 -4.34504e-19)
(0.203698 0.173632 -5.13599e-19)
(0.0729154 0.0597606 -9.08863e-19)
(0.00474637 0.00367635 -7.0851e-19)
(0.235313 0.185972 1.01133e-19)
(1.04065 0.831623 -9.49865e-20)
(1.20258 0.975038 -2.41234e-19)
(1.20421 0.995746 -3.80135e-19)
(1.15529 0.978458 2.82495e-19)
(1.09309 0.952128 -3.86001e-19)
(1.02311 0.921082 3.45678e-19)
(0.944696 0.884432 -8.26621e-19)
(0.8574 0.84013 -8.14767e-19)
(0.760829 0.784601 1.25259e-18)
(0.669151 0.721106 2.4905e-18)
(0.597745 0.658795 0)
(0.546319 0.600956 0)
(0.510486 0.547888 -2.81227e-19)
(0.47967 0.493139 0)
(0.425692 0.416968 7.90705e-19)
(0.318844 0.2991 9.33526e-19)
(0.176259 0.158496 0)
(0.0577866 0.0496691 0)
(0.00199834 0.0017229 7.6037e-19)
(0.235544 0.193731 -1.02985e-19)
(1.03379 0.860424 -8.69612e-20)
(1.19191 1.00721 -1.69687e-19)
(1.19226 1.02786 3.12844e-19)
(1.14306 1.00979 2.94343e-19)
(1.08071 0.982711 4.68685e-19)
(1.01045 0.950947 -4.87695e-19)
(0.931416 0.913689 1.76935e-22)
(0.842944 0.868886 -4.96018e-21)
(0.744207 0.812882 -5.66683e-21)
(0.649138 0.748545 1.28397e-18)
(0.573686 0.684363 0)
(0.518274 0.623308 8.76896e-19)
(0.478728 0.565179 5.99566e-19)
(0.44499 0.501775 1.43287e-18)
(0.389271 0.412127 4.24164e-19)
(0.284839 0.281008 -5.02345e-19)
(0.153524 0.138056 -2.95409e-19)
(0.0492794 0.0387803 0)
(0.00122728 0.000603245 8.15879e-19)
(0.23605 0.201464 2.07747e-19)
(1.02713 0.887665 0)
(1.18151 1.03732 -1.71552e-19)
(1.18071 1.05789 2.45191e-19)
(1.13132 1.03911 -3.02756e-19)
(1.06888 1.01137 -6.25859e-19)
(0.998453 0.978989 1.01916e-18)
(0.918914 0.941273 -6.20128e-20)
(0.829401 0.896178 0)
(0.728643 0.840017 -1.40569e-18)
(0.630221 0.775357 -2.80929e-18)
(0.550458 0.709867 1.08852e-19)
(0.490449 0.646081 1.20376e-18)
(0.445733 0.583023 0)
(0.406692 0.50944 9.61573e-19)
(0.347535 0.401892 0)
(0.247899 0.251891 0)
(0.138045 0.102172 -3.18833e-19)
(0.0657363 0.0158522 0)
(0.0260559 0.0105005 2.1851e-19)
(0.23616 0.208567 2.11717e-19)
(1.02063 0.913693 0)
(1.17138 1.06556 -2.619e-19)
(1.16951 1.08604 0)
(1.12005 1.06666 1.52471e-19)
(1.05756 1.03838 0)
(0.987058 1.00552 6.2019e-20)
(0.907094 0.967523 1.17311e-19)
(0.816656 0.922371 1.02828e-19)
(0.713985 0.866395 -1.55763e-18)
(0.612263 0.801974 8.67985e-20)
(0.527916 0.735877 8.63361e-19)
(0.462637 0.669902 1.17222e-18)
(0.410992 0.602419 1.54788e-19)
(0.363146 0.517927 7.4864e-19)
(0.296279 0.388347 0)
(0.196457 0.211687 1.0523e-18)
(0.100501 0.0408611 -6.1676e-19)
(0.0454573 0.0452936 7.184e-19)
(-0.0683886 0.4216 -8.50469e-19)
(0.236235 0.21543 -1.63632e-19)
(1.01407 0.938301 -2.85718e-19)
(1.16145 1.09225 0)
(1.15855 1.11276 5.13916e-21)
(1.10906 1.093 -3.89766e-19)
(1.0465 1.06442 1.08388e-18)
(0.975966 1.03132 3.94954e-19)
(0.895567 0.99337 0)
(0.804204 0.948547 7.17738e-19)
(0.699598 0.893309 -8.53577e-20)
(0.5944 0.829852 0)
(0.504972 0.76416 0)
(0.433488 0.696553 1.0479e-18)
(0.373118 0.625128 -4.73013e-19)
(0.311653 0.530422 -7.53609e-19)
(0.230977 0.377311 0)
(0.113073 0.195024 5.27409e-19)
(0.00952867 0.430678 -6.12795e-19)
(0.0386004 1.85611 -3.46502e-19)
(0.0691875 2.79322 -4.36227e-19)
(0.236152 0.221437 1.08324e-19)
(1.00766 0.961658 3.39853e-19)
(1.15172 1.11737 -1.4005e-19)
(1.1478 1.13789 -1.72738e-19)
(1.0984 1.11792 0)
(1.03573 1.0892 7.42184e-19)
(0.965358 1.05609 5.99834e-19)
(0.884506 1.01839 -6.07336e-20)
(0.792294 0.974189 1.05774e-19)
(0.685844 0.920139 1.51072e-18)
(0.577214 0.858296 1.44283e-18)
(0.482592 0.794247 9.74909e-19)
(0.404109 0.725671 1.05184e-18)
(0.33424 0.649697 -1.10475e-18)
(0.258226 0.549791 -1.13248e-18)
(0.153885 0.403331 0)
(0.056117 0.818629 0)
(0.112664 2.52692 2.98718e-19)
(0.11424 3.18669 0)
(0.117149 3.38243 7.39441e-19)
(0.238578 0.226934 0)
(1.00196 0.98392 0)
(1.14197 1.1408 0)
(1.13705 1.16121 -4.22719e-20)
(1.08776 1.14118 -3.37404e-19)
(1.02505 1.11259 5.2734e-19)
(0.955127 1.07972 4.09055e-19)
(0.873864 1.04247 -6.16135e-20)
(0.780892 0.999166 9.42211e-19)
(0.67275 0.946747 -1.00152e-20)
(0.560849 0.887187 2.88442e-18)
(0.461142 0.825937 -1.10652e-19)
(0.374996 0.758065 1.29291e-19)
(0.296601 0.673137 1.58324e-19)
(0.198315 0.576632 -5.3792e-22)
(0.118168 0.950662 1.76643e-21)
(0.155588 2.67623 -1.53389e-18)
(0.168159 3.28292 -5.89249e-19)
(0.154406 3.42522 3.20626e-19)
(0.138946 3.449 -3.6527e-19)
(0.156113 0.183386 -5.25039e-20)
(0.990741 1.00793 0)
(1.13196 1.16275 2.38162e-19)
(1.12692 1.18321 4.05309e-19)
(1.0779 1.16356 -6.32774e-19)
(1.01535 1.13521 -5.45427e-19)
(0.945172 1.10231 -4.52987e-19)
(0.863742 1.06574 7.91684e-19)
(0.770178 1.0236 -7.966e-19)
(0.660637 0.973223 0)
(0.545758 0.916619 1.44299e-18)
(0.441227 0.858989 -8.0553e-19)
(0.346807 0.796457 0)
(0.261096 0.699048 1.49434e-19)
(0.170895 0.816115 3.53204e-19)
(0.171384 2.42536 -4.22898e-19)
(0.237261 3.31823 4.8056e-19)
(0.213981 3.44216 2.70436e-19)
(0.177621 3.46493 3.10695e-19)
(0.153532 3.47574 5.23138e-19)
(0.28142 0.265058 1.06818e-19)
(0.975421 1.0173 0)
(1.1138 1.18737 -2.22396e-19)
(1.11252 1.21551 -3.82711e-19)
(1.06199 1.19645 6.01671e-19)
(0.998936 1.16859 5.15796e-19)
(0.927948 1.13709 5.92703e-19)
(0.845943 1.10166 6.04627e-20)
(0.751173 1.0616 8.12617e-19)
(0.639163 1.01493 1.39755e-18)
(0.519729 0.964425 8.57451e-20)
(0.407783 0.914304 7.34203e-19)
(0.297485 0.861791 1.24732e-19)
(0.227679 0.975962 -1.49982e-19)
(0.245617 2.26998 -3.44763e-19)
(0.312326 3.32227 3.58586e-19)
(0.297171 3.47642 -4.12802e-19)
(0.258984 3.49919 -2.41933e-19)
(0.219562 3.52729 -2.39135e-19)
(0.165066 3.52012 -2.71596e-20)
(0.269047 0.261642 0)
(0.972893 1.03948 -4.11878e-20)
(1.10593 1.21039 3.86506e-20)
(1.10283 1.2385 3.73396e-20)
(1.05205 1.21933 3.71746e-19)
(0.989079 1.1917 -4.8951e-19)
(0.917773 1.16036 -3.73011e-19)
(0.835686 1.12571 5.75408e-20)
(0.740622 1.08709 -8.76982e-19)
(0.627745 1.04314 -1.43635e-20)
(0.506344 0.997279 -2.7179e-18)
(0.391292 0.953252 1.0397e-19)
(0.284905 0.927544 -1.20396e-19)
(0.268123 1.44774 -1.43662e-19)
(0.349029 3.06426 1.7919e-20)
(0.375803 3.47276 9.27545e-22)
(0.332859 3.53618 7.11382e-19)
(0.293683 3.56064 3.87369e-19)
(0.242444 3.58483 -1.71803e-19)
(0.179798 3.58028 -1.63583e-19)
(0.252374 0.259697 -8.43527e-20)
(0.968708 1.06424 -2.59784e-19)
(1.09756 1.23544 1.08503e-19)
(1.09259 1.2629 1.42514e-19)
(1.04163 1.24353 0)
(0.978804 1.21591 -6.38027e-19)
(0.907477 1.18481 -5.24719e-19)
(0.825589 1.1509 5.45011e-20)
(0.730552 1.11377 -9.56803e-20)
(0.617313 1.07273 -1.36008e-18)
(0.494694 1.03175 -1.29941e-18)
(0.378279 0.994755 -8.91041e-19)
(0.28812 1.04975 -9.27059e-19)
(0.338112 2.10927 9.46626e-19)
(0.438736 3.37092 8.51936e-19)
(0.422726 3.53671 0)
(0.373363 3.58284 0)
(0.335083 3.62595 -1.46289e-19)
(0.277602 3.68967 0)
(0.192112 3.66221 -2.50424e-19)
(0.241154 0.261074 1.04561e-19)
(0.962536 1.08999 1.93127e-19)
(1.08776 1.26164 0)
(1.08105 1.2881 6.0861e-21)
(1.03002 1.26832 3.14269e-19)
(0.967449 1.24058 -8.92023e-19)
(0.896435 1.20971 -3.27962e-19)
(0.814953 1.17644 4.81982e-20)
(0.720191 1.14072 -7.02794e-19)
(0.606987 1.10252 7.46133e-20)