/*--------------------------------*- C++ -*----------------------------------*\
| =========                 |                                                 |
| \\      /  F ield         | OpenFOAM: The Open Source CFD Toolbox           |
|  \\    /   O peration     | Version:  2112                                  |
|   \\  /    A nd           | Website:  www.openfoam.com                      |
|    \\/     M anipulation  |                                                 |
\*---------------------------------------------------------------------------*/
FoamFile
{
    version     2.0;
    format      ascii;
    arch        "LSB;label=32;scalar=64";
    class       volScalarField;
    location    "5";
    object      T;
}
// * * * * * * * * * * * * * * * * * * * * * * * * * * * * * * * * * * * * * //

dimensions      [0 0 0 1 0 0 0];

internalField   nonuniform List<scalar> 
1000
(
0
0
0
0
0
0
0
0
0
0
0
0
0
0
0
0
0
0
0
0
0
0
0
0
0
0
0
0
0
0
0
0
0
0
0
0
0
0
0
0
0
0
0
0
0
0
0
0
0
0
0
0
0
0
0
0
0
0
0
0
0
-2.47033e-323
6.81811e-322
-1.94217e-320
5.5076e-319
-1.54356e-317
4.27536e-316
-1.17042e-314
3.16712e-313
-8.47148e-312
2.24004e-310
-5.85568e-309
1.51338e-307
-3.86719e-306
9.77101e-305
-2.4412e-303
6.03131e-302
-1.47361e-300
3.56076e-299
-8.50961e-298
2.01143e-296
-4.70269e-295
1.08757e-293
-2.48803e-292
5.63065e-291
-1.26062e-289
2.79226e-288
-6.11907e-287
1.32676e-285
-2.84637e-284
6.0423e-283
-1.26923e-281
2.63826e-280
-5.42691e-279
1.10474e-277
-2.22564e-276
4.43761e-275
-8.75705e-274
1.71039e-272
-3.30654e-271
6.32714e-270
-1.19841e-268
2.24691e-267
-4.17018e-266
7.66173e-265
-1.39352e-263
2.50912e-262
-4.47267e-261
7.89328e-260
-1.37913e-258
2.3857e-257
-4.08603e-256
6.92901e-255
-1.16341e-253
1.93418e-252
-3.18398e-251
5.18993e-250
-8.37679e-249
1.33883e-247
-2.11892e-246
3.32086e-245
-5.15393e-244
7.92112e-243
-1.20559e-241
1.81713e-240
-2.71236e-239
4.00951e-238
-5.86979e-237
8.5103e-236
-1.22198e-234
1.73773e-233
-2.44741e-232
3.4138e-231
-4.71607e-230
6.45264e-229
-8.74401e-228
1.17356e-226
-1.55998e-225
2.0538e-224
-2.67806e-223
3.45869e-222
-4.42416e-221
5.60503e-220
-7.03324e-219
8.74102e-218
-1.07597e-216
1.31179e-215
-1.58402e-214
1.89445e-213
-2.24405e-212
2.63275e-211
-3.0592e-210
3.52071e-209
-4.01301e-208
4.53031e-207
-5.06524e-206
5.60895e-205
-6.15136e-204
6.68133e-203
-7.18711e-202
7.65666e-201
-8.07818e-200
8.44058e-199
-8.73392e-198
8.9499e-197
-9.08225e-196
9.127e-195
-9.0827e-194
8.95048e-193
-8.73403e-192
8.4394e-191
-8.07473e-190
7.64989e-189
-7.17601e-188
6.66504e-187
-6.12918e-186
5.58048e-185
-5.03037e-184
4.48925e-183
-3.96626e-182
3.46905e-181
-3.00363e-180
2.5744e-179
-2.18416e-178
1.83425e-177
-1.52468e-176
1.25438e-175
-1.0214e-174
8.23109e-174
-6.56445e-173
5.18081e-172
-4.0461e-171
3.12676e-170
-2.39083e-169
1.80875e-168
-1.35381e-167
1.00246e-166
-7.34303e-166
5.32061e-165
-3.81326e-164
2.70304e-163
-1.89496e-162
1.31374e-161
-9.00633e-161
6.10495e-160
-4.09146e-159
2.71082e-158
-1.77546e-157
1.1494e-156
-7.35425e-156
4.65021e-155
-2.90554e-154
1.79373e-153
-1.09399e-152
6.59086e-152
-3.92187e-151
2.30467e-150
-1.3373e-149
7.6611e-149
-4.33243e-148
2.41813e-147
-1.33187e-146
7.23772e-146
-3.87987e-145
2.05126e-144
-1.06935e-143
5.4956e-143
-2.78358e-142
1.38922e-141
-6.8296e-141
3.30635e-140
-1.57576e-139
7.39039e-139
-3.40969e-138
1.54687e-137
-6.89743e-137
3.02131e-136
-1.29939e-135
5.48343e-135
-2.26899e-134
9.199e-134
-3.65081e-133
1.41688e-132
-5.37097e-132
1.98579e-131
-7.14893e-131
2.50076e-130
-8.47808e-130
2.77628e-129
-8.74232e-129
2.6307e-128
-7.49494e-128
1.99164e-127
-4.80341e-127
9.89733e-127
-1.42952e-126
-4.1323e-127
1.39377e-125
-7.07854e-125
2.60153e-124
-7.87972e-124
1.99053e-123
-3.91457e-123
4.06148e-123
1.0582e-122
-8.50963e-122
3.39003e-121
-1.0007e-120
2.23435e-120
-3.02539e-120
-2.7867e-120
3.65252e-119
-1.50522e-118
4.23281e-118
-8.12857e-118
5.21606e-118
3.75426e-117
-2.08019e-116
6.47122e-116
-1.31262e-115
9.56853e-116
5.52238e-115
-3.07576e-114
9.06479e-114
-1.58768e-113
7.21157e-115
1.11513e-112
-4.62774e-112
1.08396e-111
-1.07057e-111
-3.41345e-111
2.10463e-110
-5.83904e-110
7.90861e-110
1.03239e-109
-9.41531e-109
2.83328e-108
-4.09081e-108
-4.30166e-108
4.36533e-107
-1.28922e-106
1.67108e-106
2.75152e-106
-2.08907e-105
5.43569e-105
-4.83699e-105
-1.95142e-104
9.78514e-104
-1.99003e-103
1.8345e-104
1.237e-102
-4.1308e-102
5.26204e-102
9.87916e-102
-6.47927e-101
1.38463e-100
-1.41438e-101
-8.33854e-100
2.6017e-99
-2.51736e-99
-8.85355e-99
4.15128e-98
-6.48428e-98
-7.15139e-98
6.01021e-97
-1.23936e-96
-2.4861e-97
8.21612e-96
-2.06706e-95
5.59393e-96
1.0945e-94
-3.1894e-94
1.69819e-94
1.46092e-93
-4.68364e-93
3.05217e-93
1.99717e-92
-6.63729e-92
4.31259e-92
2.82503e-91
-9.11058e-91
4.83871e-91
4.11365e-90
-1.20493e-89
3.48005e-90
6.05662e-89
-1.51269e-88
-1.57029e-89
8.79809e-88
-1.75164e-87
-1.27183e-87
1.22781e-86
-1.76539e-86
-3.24071e-86
1.59867e-85
-1.31715e-85
-6.16898e-85
1.86842e-84
-1.32507e-85
-9.7789e-84
1.82718e-83
1.97004e-83
-1.31233e-82
1.21478e-82
4.84812e-82
-1.44507e-81
-1.58577e-82
7.77295e-81
-1.15497e-80
-2.20321e-80
9.33626e-80
-2.87428e-80
-4.33628e-79
7.82558e-79
1.06722e-78
-5.46346e-78
2.25389e-78
2.42766e-77
-4.39356e-77
-6.25798e-77
2.98889e-76
-7.23317e-77
-1.37883e-75
2.04763e-75
4.26132e-75
-1.49894e-74
-3.27697e-75
7.60542e-74
-6.88442e-74
-2.89301e-73
6.37177e-73
7.10311e-73
-3.74425e-72
3.88326e-73
1.72292e-71
-1.82658e-71
-6.3403e-71
1.42682e-70
1.67084e-70
-8.03638e-70
-8.98468e-71
3.75797e-69
-2.60166e-69
-1.50733e-68
2.32324e-68
5.09747e-68
-1.41093e-67
-1.30602e-67
7.18646e-67
1.12375e-67
-3.26008e-66
1.49618e-66
1.34797e-65
-1.42528e-65
-5.11342e-65
8.91828e-65
1.76722e-64
-4.72312e-64
-5.40929e-64
2.27216e-63
1.34331e-63
-1.02438e-62
-1.73245e-63
4.40415e-62
-8.05588e-63
-1.8264e-61
9.03668e-62
7.36787e-61
-5.75909e-61
-2.91168e-60
3.05793e-60
1.13429e-59
-1.47582e-59
-4.38185e-59
6.70222e-59
1.68809e-58
-2.91414e-58
-6.51943e-58
1.22487e-57
2.5353e-57
-5.00396e-57
-9.95906e-57
1.99222e-56
3.9572e-56
-7.73333e-56
-1.5896e-55
2.92211e-55
6.43969e-55
-1.07046e-54
-2.62067e-54
3.77351e-54
1.06612e-53
-1.26327e-53
-4.31211e-53
3.91755e-53
1.72417e-52
-1.06476e-52
-6.77458e-52
2.12791e-52
2.59891e-51
1.32924e-53
-9.66146e-51
-3.37975e-51
3.44724e-50
2.54945e-50
-1.16439e-49
-1.41247e-49
3.6397e-49
6.75427e-49
-1.00627e-48
-2.92001e-48
2.17556e-48
1.15858e-47
-1.66321e-48
-4.21898e-47
-1.77301e-47
1.39146e-46
1.45019e-46
-4.01188e-46
-7.59051e-46
9.15905e-46
3.24556e-45
-9.98607e-46
-1.19216e-44
-4.94463e-45
3.74463e-44
4.4479e-44
-9.4592e-44
-2.24008e-43
1.46159e-43
8.7486e-43
2.17461e-43
-2.76325e-42
-3.05856e-42
6.61361e-42
1.59694e-41
-7.78667e-42
-5.99289e-41
-2.93301e-41
1.69897e-40
2.57365e-40
-3.07952e-40
-1.14058e-39
-1.30936e-40
3.56554e-39
4.06748e-39
-7.27167e-39
-2.07106e-38
1.21533e-39
6.74424e-38
6.99602e-38
-1.36466e-37
-3.74694e-37
4.2606e-39
1.18358e-36
1.36688e-36
-2.08785e-36
-6.75567e-36
-1.67355e-36
1.88947e-35
2.8536e-35
-2.25446e-35
-1.16189e-34
-7.94398e-35
2.52328e-34
5.71488e-34
-1.23793e-35
-1.74751e-33
-2.31626e-33
2.11191e-33
9.85823e-33
7.35405e-33
-1.91377e-32
-4.89711e-32
-1.30904e-32
1.26165e-31
2.2218e-31
-4.54582e-32
-7.19914e-31
-9.4264e-31
6.81971e-31
3.78321e-30
3.82107e-30
-5.0518e-30
-1.89222e-29
-1.52011e-29
3.02862e-29
9.19974e-29
6.16602e-29
-1.62201e-28
-4.40939e-28
-2.6737e-28
8.03147e-28
2.1002e-27
1.28429e-27
-3.71306e-27
-9.95856e-27
-6.81352e-27
1.59072e-26
4.67909e-26
3.8399e-26
-6.12343e-26
-2.15441e-25
-2.19359e-25
1.9387e-25
9.5465e-25
1.2243e-24
-3.37752e-25
-3.95807e-24
-6.50088e-24
-1.54877e-24
1.46132e-23
3.20867e-23
2.24053e-23
-4.26982e-23
-1.4304e-22
-1.66133e-22
5.36318e-23
5.47732e-22
9.49902e-22
4.56267e-22
-1.58674e-21
-4.42152e-21
-4.85421e-21
1.63052e-21
1.60679e-20
2.90992e-20
1.88812e-20
-3.60265e-20
-1.25034e-19
-1.72074e-19
-4.40748e-20
3.49191e-19
8.66539e-19
9.81907e-19
-8.11236e-20
-2.68974e-18
-5.71635e-18
-5.79912e-18
1.6371e-18
1.83825e-17
3.71638e-17
3.74455e-17
-8.8249e-18
-1.14483e-16
-2.40202e-16
-2.65789e-16
-1.31001e-17
6.34482e-16
1.51506e-15
1.97449e-15
8.85718e-16
-2.80733e-15
-8.87889e-15
-1.42783e-14
-1.2345e-14
5.45624e-15
4.36458e-14
9.283e-14
1.19775e-13
6.64809e-14
-1.29337e-13
-4.82999e-13
-8.85989e-13
-1.03636e-12
-4.43761e-13
1.40114e-12
4.62324e-12
8.35242e-12
1.01218e-11
5.74301e-12
-9.66248e-12
-3.8811e-11
-7.74042e-11
-1.08245e-10
-9.71065e-11
4.77475e-12
2.45285e-10
6.37609e-10
1.10734e-09
1.43039e-09
1.18787e-09
-2.15989e-10
-3.41002e-09
-8.7206e-09
-1.56046e-08
-2.18833e-08
-2.2939e-08
-1.12298e-08
2.32924e-08
9.10487e-08
1.98044e-07
3.37586e-07
4.78148e-07
5.48123e-07
4.19976e-07
-1.00909e-07
-1.27383e-06
-3.39349e-06
-6.71547e-06
-1.13133e-05
-1.68394e-05
-2.21596e-05
-2.48304e-05
-2.03915e-05
-1.45297e-06
4.34308e-05
0.000131094
0.000285267
0.000538214
0.000932414
0.00152219
0.00237517
0.00357343
0.00521418
0.00740992
0.0102878
0.0139881
0.0186623
0.0244695
0.0315728
0.0401347
0.0503112
0.0622473
0.07607
0.0918838
0.109765
0.129757
0.151867
0.176064
0.202276
0.230394
0.260267
0.291712
0.324512
0.358426
0.393191
0.428531
0.464163
0.499802
0.535171
0.570005
0.604055
0.637096
0.668927
0.699379
0.72831
0.75561
0.7812
0.805031
0.827081
0.847356
0.865883
0.882709
0.8979
0.911533
0.923698
0.93449
0.944011
0.952364
0.959652
0.965977
0.971438
0.976127
0.980132
0.983538
0.986417
0.988841
0.990871
0.992563
0.993966
0.995125
0.996077
0.996856
0.99749
0.998004
0.998419
0.998753
0.99902
0.999233
0.999402
0.999535
0.99964
0.999723
0.999787
0.999837
0.999875
0.999905
0.999928
0.999946
0.999959
0.999969
0.999977
0.999983
0.999987
0.99999
0.999993
0.999996
1
1
1.00001
1.00002
1.00002
1.00002
1.00002
1
0.999956
0.999869
0.999715
0.999462
0.999068
0.998478
0.997625
0.996427
0.994786
0.99259
0.989712
0.986012
0.981338
0.975531
0.968427
0.959865
0.949689
0.937753
0.92393
0.908116
0.890235
0.870243
0.848133
0.823936
0.797724
0.769606
0.739733
0.708288
0.675488
0.641574
0.606809
0.571469
0.535837
0.500198
0.464829
0.429995
0.395945
0.362904
0.331073
0.300621
0.27169
0.24439
0.2188
0.194969
0.172919
0.152644
0.134117
0.117291
0.1021
0.0884667
0.0763021
0.0655098
0.0559889
0.047636
0.0403477
0.0340226
0.0285625
0.0238735
0.0198675
0.0164624
0.0135825
0.0111589
0.00912912
0.00743739
0.00603408
0.00487546
0.00392329
0.00314435
0.00250999
0.00199568
0.00158053
0.00124687
0.000979852
0.000767078
0.000598234
0.000464806
0.000359795
0.000277483
0.000213221
0.000163249
0.000124541
9.46736e-05
7.1716e-05
5.41361e-05
4.07245e-05
3.05306e-05
2.28108e-05
1.69857e-05
1.2606e-05
9.32471e-06
6.87498e-06
5.0524e-06
3.70107e-06
2.70254e-06
1.96719e-06
1.42744e-06
1.03258e-06
7.4465e-07
5.35374e-07
3.83751e-07
2.74247e-07
1.95409e-07
1.38825e-07
9.83388e-08
6.94585e-08
4.89194e-08
3.43559e-08
2.40602e-08
1.68028e-08
1.17021e-08
8.12736e-09
5.62929e-09
3.88853e-09
2.67888e-09
1.84064e-09
1.26136e-09
8.62139e-10
5.87746e-10
3.99656e-10
2.71067e-10
1.83388e-10
1.23759e-10
8.33106e-11
5.59442e-11
3.74755e-11
2.5043e-11
1.66948e-11
1.11029e-11
7.36659e-12
4.87612e-12
3.22011e-12
2.12159e-12
1.39462e-12
9.14668e-13
5.98534e-13
3.90787e-13
2.54581e-13
1.65483e-13
1.07332e-13
6.94644e-14
4.48599e-14
2.89084e-14
1.85895e-14
1.19288e-14
7.63861e-15
4.88125e-15
3.11281e-15
1.98101e-15
1.25816e-15
7.97465e-16
5.0445e-16
3.18465e-16
2.00654e-16
1.26178e-16
7.91911e-17
4.96056e-17
3.10136e-17
1.9353e-17
1.20538e-17
7.4935e-18
4.64983e-18
2.87996e-18
1.78048e-18
1.09875e-18
6.76819e-19
4.16165e-19
2.55437e-19
1.56506e-19
9.57225e-20
5.84437e-20
3.56211e-20
2.16734e-20
1.31645e-20
7.98251e-21
4.83217e-21
2.92022e-21
1.76183e-21
1.06119e-21
6.38131e-22
3.83102e-22
2.29623e-22
1.37409e-22
8.20951e-23
4.89698e-23
2.91644e-23
1.73418e-23
1.02958e-23
6.10308e-24
3.61218e-24
2.13464e-24
1.25956e-24
7.42091e-25
4.36558e-25
2.56436e-25
1.50408e-25
8.80893e-26
5.15156e-26
3.0083e-26
1.75419e-26
1.02143e-26
5.93904e-27
3.44833e-27
1.99935e-27
1.1576e-27
6.69303e-28
3.86443e-28
2.22818e-28
1.28298e-28
7.3773e-29
4.23631e-29
2.42937e-29
1.3913e-29
7.95736e-30
4.54511e-30
2.59268e-30
1.47702e-30
8.40349e-31
4.775e-31
2.70975e-31
1.53579e-31
8.69327e-32
4.91459e-32
2.7749e-32
1.56482e-32
8.81344e-33
4.95782e-33
2.7855e-33
1.5631e-33
8.76083e-34
4.90432e-34
2.74225e-34
1.53065e-34
8.61259e-35
4.11083e-35
)
;

boundaryField
{
    sides
    {
        type            zeroGradient;
    }
    empty
    {
        type            empty;
    }
}


// ************************************************************************* //
