/*--------------------------------*- C++ -*----------------------------------*\
| =========                 |                                                 |
| \\      /  F ield         | OpenFOAM: The Open Source CFD Toolbox           |
|  \\    /   O peration     | Version:  2112                                  |
|   \\  /    A nd           | Website:  www.openfoam.com                      |
|    \\/     M anipulation  |                                                 |
\*---------------------------------------------------------------------------*/
FoamFile
{
    version     2.0;
    format      ascii;
    arch        "LSB;label=32;scalar=64";
    class       volScalarField;
    location    "3";
    object      p;
}
// * * * * * * * * * * * * * * * * * * * * * * * * * * * * * * * * * * * * * //

dimensions      [0 2 -2 0 0 0 0];

internalField   nonuniform List<scalar> 
400
(
1.0247884e-08
-0.00048949701
-0.00091634303
-0.0011727414
-0.0011660424
-0.00086001144
-0.00025185849
0.00064561755
0.0018059743
0.0031824967
0.0046999102
0.0062494048
0.0076926657
0.0088777242
0.009668216
0.0099816703
0.0098267377
0.0093235942
0.0086681418
0.0081922617
0.00047862007
-2.4867165e-05
-0.00033328431
-0.00046652131
-0.00039388753
-8.956523e-05
0.00045141906
0.0012221975
0.002204133
0.0033603411
0.0046285376
0.0059257634
0.0071355184
0.0081359209
0.008818492
0.0091187402
0.0090447288
0.0086910763
0.0082091283
0.0077276022
0.00093698811
0.00025308566
-7.4924299e-05
-0.00018512111
-0.00010248281
0.00018465388
0.00067817441
0.0013746378
0.002263446
0.0033184466
0.0044904431
0.0057033723
0.0068498574
0.0078101804
0.008472081
0.0087622655
0.0086777572
0.0083020859
0.0077517186
0.0070464501
0.0012301556
0.00031556049
-8.5637439e-05
-0.00021722688
-0.00015324445
0.0001043499
0.00055387342
0.001195949
0.0020298493
0.0030416933
0.0041927316
0.0054173177
0.0066035786
0.0076199649
0.0083317753
0.0086379039
0.0085128758
0.0080334445
0.0073032988
0.0062877805
0.001200369
5.7570787e-05
-0.00042965778
-0.0006008477
-0.00057199094
-0.00035540844
4.59087e-05
0.00063887954
0.0014351442
0.0024358306
0.0036148949
0.0049221706
0.0062347633
0.0074012287
0.0082492592
0.0086300941
0.0084785191
0.007860617
0.0068815582
0.0054655806
0.00072276527
-0.00063625259
-0.0012137911
-0.0014368931
-0.0014583927
-0.0012981493
-0.00095793643
-0.00042185592
0.00033762158
0.0013437638
0.0025969148
0.0040375632
0.0055654785
0.0069982157
0.0081082208
0.0086719407
0.008554614
0.0077949486
0.0065019008
0.0045592423
-0.00030627627
-0.0018687336
-0.0025385601
-0.0028253268
-0.0029163751
-0.0028379397
-0.0025890637
-0.0021424601
-0.0014503849
-0.00046154093
0.00085607616
0.0024767841
0.0043088291
0.0061492546
0.0077031247
0.0086356101
0.0086918004
0.0078419723
0.0061782728
0.0035238021
-0.0019810081
-0.0037355015
-0.0044998606
-0.004864643
-0.0050523917
-0.0050969736
-0.004995218
-0.0047075125
-0.0041617761
-0.0032688502
-0.0019463983
-0.00016277678
0.002031616
0.0044353331
0.0066825508
0.0082836021
0.0087840332
0.0080019275
0.0059479195
0.0023275701
-0.0043885786
-0.0063259698
-0.0071875966
-0.0076471707
-0.0079667242
-0.0081923464
-0.0083224216
-0.0083072144
-0.0080487065
-0.0074104433
-0.0062367379
-0.0043981964
-0.0018555324
0.0012461275
0.0044941679
0.0072075741
0.0086235379
0.0082595762
0.0058975932
0.00099612071
-0.0076064528
-0.009721135
-0.010678982
-0.011245204
-0.011730958
-0.012203606
-0.012671174
-0.013080686
-0.01331155
-0.013174723
-0.012418703
-0.010766734
-0.0080226905
-0.004177909
0.00038231293
0.0047882368
0.0078521662
0.0085658271
0.0061966445
-0.00031625236
-0.011700642
-0.013993338
-0.015031239
-0.015692549
-0.016356447
-0.017126229
-0.018032108
-0.019029656
-0.019985251
-0.020659385
-0.020691522
-0.019620124
-0.016989953
-0.01253197
-0.0064546866
0.00027352056
0.0059772408
0.0088446491
0.0071522654
-0.0011897125
-0.016732773
-0.019213433
-0.020276746
-0.020964013
-0.021757902
-0.022818521
-0.02421351
-0.025921218
-0.027808962
-0.029597489
-0.030817798
-0.030797146
-0.028744977
-0.02402119
-0.016453662
-0.0068986208
0.0025689656
0.009099551
0.0093140491
-0.00068487442
-0.022790988
-0.025473261
-0.026423807
-0.026955865
-0.027719537
-0.028957464
-0.030787475
-0.033220948
-0.036137622
-0.039231619
-0.041938125
-0.043374173
-0.042373955
-0.037871782
-0.029104021
-0.016514421
-0.0022719676
0.0097109567
0.013683047
0.0030799717
-0.030074835
-0.032933639
-0.03346402
-0.033470096
-0.033875017
-0.035026568
-0.037092851
-0.040114442
-0.043981129
-0.048362469
-0.052606869
-0.055640591
-0.055937439
-0.052067398
-0.042484174
-0.026956539
-0.0072714411
0.011941947
0.022116186
0.013517611
-0.039101216
-0.041908039
-0.041375552
-0.040198362
-0.039708527
-0.040352822
-0.042319568
-0.045647877
-0.050209199
-0.055628446
-0.061161423
-0.065587858
-0.067230042
-0.063741925
-0.053405584
-0.035034905
-0.0095558203
0.018483446
0.03791988
0.036059816
-0.051207996
-0.052999124
-0.050088402
-0.046686104
-0.044569139
-0.04418399
-0.045653715
-0.04894487
-0.053846979
-0.059897905
-0.066231736
-0.071400737
-0.073466209
-0.06991802
-0.058360505
-0.036721503
-0.0049861696
0.033661465
0.066160015
0.077870619
-0.069834856
-0.067314903
-0.059446582
-0.052326433
-0.047732506
-0.045813596
-0.046459909
-0.049445631
-0.054393461
-0.060659318
-0.067179198
-0.072328402
-0.073899417
-0.069072842
-0.05484971
-0.028703031
0.010537119
0.062501393
0.11270707
0.14803643
-0.10355856
-0.08608612
-0.069252219
-0.056468899
-0.048518447
-0.044734891
-0.044460663
-0.047082639
-0.051931366
-0.058116745
-0.064343972
-0.068755216
-0.06888567
-0.061612037
-0.043387611
-0.010728905
0.039123403
0.10685081
0.18237782
0.26548798
-0.17391588
-0.10616001
-0.075748366
-0.055552511
-0.04411275
-0.039045211
-0.038549546
-0.041360746
-0.046446897
-0.05270376
-0.058686145
-0.062389698
-0.061118093
-0.051305719
-0.029245291
0.010095247
0.072169048
0.16276039
0.28193213
0.46684929
-0.3690236
-0.12271032
-0.054773071
-0.033300189
-0.023829522
-0.021205647
-0.023370896
-0.028525063
-0.035401446
-0.042920168
-0.049740167
-0.053999105
-0.053229118
-0.044288733
-0.022226919
0.01871932
0.087518636
0.20340797
0.39572494
0.76933327
)
;

boundaryField
{
    movingWall
    {
        type            zeroGradient;
    }
    fixedWalls
    {
        type            zeroGradient;
    }
    frontAndBack
    {
        type            empty;
    }
}


// ************************************************************************* //
