/*--------------------------------*- C++ -*----------------------------------*\
| =========                 |                                                 |
| \\      /  F ield         | OpenFOAM: The Open Source CFD Toolbox           |
|  \\    /   O peration     | Version:  2112                                  |
|   \\  /    A nd           | Website:  www.openfoam.com                      |
|    \\/     M anipulation  |                                                 |
\*---------------------------------------------------------------------------*/
FoamFile
{
    version     2.0;
    format      ascii;
    arch        "LSB;label=32;scalar=64";
    class       surfaceScalarField;
    location    "3";
    object      phi;
}
// * * * * * * * * * * * * * * * * * * * * * * * * * * * * * * * * * * * * * //

dimensions      [0 3 -1 0 0 0 0];

oriented        oriented;

internalField   nonuniform List<scalar> 
760
(
4.2787937e-06
-4.2789128e-06
-3.1929437e-05
3.6208236e-05
-0.00010564525
7.371579e-05
-0.00020271796
9.7072657e-05
-0.00031030023
0.00010758225
-0.00041822123
0.00010792103
-0.00051825789
0.0001000367
-0.00060306214
8.4804279e-05
-0.0006654425
6.2380405e-05
-0.00069837155
3.2929025e-05
-0.00069572554
-2.6460912e-06
-0.00065376294
-4.1962656e-05
-0.00057299268
-8.0770332e-05
-0.00045983989
-0.00011315282
-0.00032732084
-0.00013251904
-0.00019414224
-0.00013317859
-8.1677428e-05
-0.00011246485
-8.8024465e-06
-7.2875037e-05
1.5440499e-05
-2.4242983e-05
1.5440476e-05
-3.6653225e-05
3.2374325e-05
-0.00016095135
0.00016050645
-0.00035651535
0.00026927992
-0.00059792991
0.00033848724
-0.00086004724
0.00036969957
-0.0011205346
0.00036840837
-0.0013597581
0.00033926033
-0.0015597914
0.00028483758
-0.0017037521
0.00020634112
-0.0017761561
0.00010533288
-0.0017650832
-1.3719043e-05
-0.0016635234
-0.00014352265
-0.0014746034
-0.00026969039
-0.0012132033
-0.00037455284
-0.0009071897
-0.00043853267
-0.00059517481
-0.00044519349
-0.00032024773
-0.00038739193
-0.00012024096
-0.00027288181
-1.7256554e-05
-0.00012722744
-1.816039e-06
-8.1643639e-05
0.00011401795
-0.00029330935
0.0003721721
-0.00059878677
0.00057475736
-0.00096189141
0.00070159187
-0.0013489744
0.00075678255
-0.0017300172
0.00074945122
-0.0020781115
0.00068735468
-0.0023683851
0.00057511112
-0.0025774428
0.00041539875
-0.0026840998
0.0002119898
-0.0026715232
-2.6295714e-05
-0.0025302951
-0.00028475082
-0.0022636118
-0.00053637367
-0.001890461
-0.00074770372
-0.001447457
-0.00088153667
-0.00098657244
-0.00090607806
-0.00056747107
-0.00080649327
-0.00024492701
-0.00059542586
-5.419925e-05
-0.00031795516
-5.6015272e-05
-0.00012130853
0.00023532654
-0.00041413302
0.00066499658
-0.00082098306
0.0009816074
-0.0012935428
0.0011741516
-0.0017907943
0.0012540341
-0.0022775046
0.0012361615
-0.0027223225
0.0011321726
-0.0030959982
0.00094878685
-0.003370472
0.00068987243
-0.0035194385
0.0003609562
-0.0035210229
-2.4711348e-05
-0.0033604019
-0.00044537183
-0.0030374099
-0.00085936571
-0.0025706107
-0.0012145029
-0.0020014248
-0.0014507226
-0.0013933946
-0.0015141081
-0.00082429399
-0.0013755938
-0.00037063397
-0.0010490858
-8.8658205e-05
-0.00059993088
-0.00014467351
-0.00015612921
0.00039145579
-0.00052357926
0.0010324467
-0.0010247075
0.0014827356
-0.0015992142
0.0017486582
-0.0021995738
0.0018543937
-0.002787013
0.0018236007
-0.0033277567
0.0016729164
-0.0037899719
0.0014110019
-0.0041419483
0.0010418488
-0.004351941
0.00057094883
-0.0043914228
1.4770467e-05
-0.0042362314
-0.00060056322
-0.0038780805
-0.0012175166
-0.0033296803
-0.0017629031
-0.0026332576
-0.0021471452
-0.0018634006
-0.002283965
-0.0011204801
-0.0021185143
-0.00051173381
-0.0016578321
-0.00012412876
-0.00098753595
-0.0002688023
-0.00018753006
0.00057898582
-0.00062412667
0.0014690433
-0.0012138384
0.0020724474
-0.0018853468
0.0024201665
-0.0025857429
0.0025547897
-0.0032742637
0.0025121215
-0.0039164797
0.0023151324
-0.0044795185
0.0019740407
-0.0049288382
0.0014911685
-0.0052271413
0.00086925194
-0.005334872
0.0001225012
-0.0052178687
-0.0007175665
-0.0048515803
-0.0015838051
-0.0042363099
-0.0023781735
-0.0034091845
-0.0029742705
-0.0024537817
-0.0032393678
-0.0014978813
-0.0030744148
-0.00069174539
-0.002463968
-0.00016830368
-0.0015109777
-0.00043710597
-0.00021654913
0.00079553495
-0.00071775462
0.0019702488
-0.0013909444
0.0027456372
-0.0021549608
0.0031841829
-0.002952837
0.0033526659
-0.0037434735
0.0033027581
-0.0044936315
0.0030652903
-0.0051711151
0.0026515243
-0.0057396875
0.002059741
-0.0061562382
0.0012858027
-0.0063705936
0.00033685664
-0.0063317143
-0.00075644589
-0.0059945238
-0.0019209957
-0.0053380431
-0.0030346542
-0.0043849027
-0.0039274109
-0.0032210713
-0.0044031991
-0.002003361
-0.0042921251
-0.00093915728
-0.0035281717
-0.00023061806
-0.0022195169
-0.000667724
-0.00024361082
0.0010391458
-0.00080508419
0.0025317222
-0.0015558903
0.0034964434
-0.0024059318
0.0040342243
-0.0032954814
0.0042422156
-0.004184839
0.0041921158
-0.0050440061
0.0039244574
-0.0058436308
0.0034511491
-0.0065478008
0.002763911
-0.0071091677
0.0018471696
-0.0074670334
0.00069472229
-0.0075519834
-0.00067149595
-0.007293378
-0.0021796012
-0.0066398976
-0.0036881345
-0.0055864483
-0.0049808602
-0.0042073479
-0.0057822996
-0.0026816808
-0.0058177922
-0.0012853801
-0.0049244724
-0.00032216172
-0.0031827352
-0.00098988564
-0.00026873245
0.0013078782
-0.00088564813
0.0031486379
-0.0017060337
0.0043168291
-0.0026310165
0.0049592072
-0.0035991049
0.005210304
-0.004573659
0.00516667
-0.0055300993
0.0048808977
-0.0064445876
0.0043656373
-0.0072847143
0.0036040377
-0.0080024742
0.0025649296
-0.0085301138
0.0012223618
-0.0087817112
-0.0004198986
-0.008660385
-0.0023009274
-0.008077208
-0.0042713114
-0.0069837778
-0.0060742903
-0.0054196763
-0.0073464011
-0.0035646461
-0.0076728223
-0.0017625469
-0.0067265716
-0.00045654664
-0.0044887354
-0.0014464324
-0.00029217886
0.0016000572
-0.00095928965
0.0038157487
-0.0018380741
0.0051956136
-0.0028198979
0.0059410311
-0.0038420407
0.0062324468
-0.0048723905
0.0061970196
-0.0058939377
0.0059024449
-0.0068913837
0.0053630834
-0.0078401316
0.0045527856
-0.0086974475
0.0034222454
-0.0093960381
0.0019209524
-0.0098406672
2.4730639e-05
-0.0099144511
-0.0022271434
-0.009489384
-0.0046963785
-0.0084601936
-0.0071034807
-0.0068016334
-0.0090049612
-0.0046527817
-0.0098216739
-0.0023984821
-0.0089808713
-0.0006512553
-0.0062359621
-0.0020976876
-0.00031566332
0.0019157206
-0.0010287714
0.0045288568
-0.0019515926
0.0061184348
-0.0029633554
0.0069527939
-0.0040004184
0.0072695097
-0.0050366415
0.0072332426
-0.0060646628
0.0069304663
-0.0070808429
0.0063792635
-0.008073422
0.0055453648
-0.009012747
0.0043615703
-0.0098428085
0.0027510139
-0.010473683
0.00065560481
-0.010780932
-0.0019198938
-0.01060793
-0.004869381
-0.0097876317
-0.0079237789
-0.0082008086
-0.010591784
-0.0058870407
-0.012135442
-0.0032044893
-0.011663423
-0.00092837191
-0.0085120795
-0.0030260594
-0.00034439612
0.0022601168
-0.0011038112
0.0052882719
-0.0020541386
0.0070687623
-0.0030590907
0.0079577459
-0.004055253
0.0082656722
-0.0050246685
0.008202658
-0.0059719173
0.0078777151
-0.0069079952
0.0073153414
-0.0078388966
0.0064762661
-0.0087563051
0.0052789788
-0.0096283069
0.0036230157
-0.01038865
0.0014159484
-0.010924904
-0.0013836399
-0.011076358
-0.0047179277
-0.010625737
-0.0083743993
-0.0093455957
-0.011871926
-0.0071140709
-0.014366966
-0.0041513541
-0.014626139
-0.0013120565
-0.011351377
-0.0043381159
-0.00039058956
0.0026507064
-0.0012067521
0.0061044345
-0.0021670336
0.0080290438
-0.0031172672
0.0089079794
-0.0039988197
0.0091472247
-0.0048066081
0.0090104464
-0.0055604733
0.0086315803
-0.0062888133
0.0080436813
-0.0070190973
0.00720655
-0.0077707428
0.0060306243
-0.0085468962
0.0043991691
-0.009322822
0.0021918742
-0.010021184
-0.00068527816
-0.010513014
-0.0042260972
-0.01056343
-0.008323984
-0.0098530786
-0.012582277
-0.0080603415
-0.016159703
-0.0051339771
-0.017552504
-0.0018178034
-0.014667551
-0.0061559193
-0.00047956904
0.0031302754
-0.0013796373
0.0070045029
-0.0023291077
0.0089785143
-0.0031604615
0.0097393332
-0.0038326611
0.0098194242
-0.0043633025
0.0095410877
-0.0047930206
0.0090612983
-0.0051703038
0.0084209644
-0.0055456187
0.0075818648
-0.0059682306
0.0064532362
-0.00648114
0.0049120786
-0.0071124564
0.0028231907
-0.0078391114
4.1376764e-05
-0.0086035941
-0.0034616144
-0.0092025061
-0.0077250719
-0.0092823068
-0.012502476
-0.0083367061
-0.017105304
-0.0059350337
-0.019954176
-0.0024266177
-0.018175967
-0.0085825368
-0.00066035937
0.0037906348
-0.0016901767
0.0080343203
-0.0025896082
0.0098779458
-0.0032042015
0.010353927
-0.0035393271
0.01015455
-0.0036530423
0.0096548029
-0.0036153369
0.0090235928
-0.0034972728
0.0083029004
-0.003370797
0.007455389
-0.0033110052
0.0063934444
-0.0033974999
0.0049985734
-0.0037024766
0.0031281673
-0.0043002227
0.00063912276
-0.0051755278
-0.0025863093
-0.0062495647
-0.006651035
-0.0072186171
-0.011533424
-0.0074819321
-0.016841989
-0.0062038786
-0.02123223
-0.0030397892
-0.021340056
-0.011622326
-0.0010215286
0.0048121634
-0.0022224198
0.0092352114
-0.0029602058
0.010615732
-0.0031783094
0.01057203
-0.0029832402
0.0099594805
-0.0024999455
0.0091715082
-0.0018375586
0.0083612059
-0.0010900519
0.0075553937
-0.00034622472
0.0067115618
0.00030206506
0.0057451546
0.0007575435
0.0045430949
0.00090384337
0.0029818674
0.0006199282
0.00092303795
-0.00018596551
-0.0017804155
-0.0015483557
-0.0052886448
-0.0033356616
-0.0097461181
-0.0050200529
-0.015157598
-0.0054564452
-0.020795837
-0.0034315436
-0.023364958
-0.01505387
-0.0017009136
0.0065130771
-0.0029761017
0.010510399
-0.0032167818
0.010856412
-0.0026710892
0.010026338
-0.0016314286
0.0089198199
-0.00031238958
0.0078524693
0.0011401451
0.0069086712
0.0026214492
0.0060740896
0.0040436223
0.0052893887
0.0053167552
0.0044720218
0.0063346386
0.0035252114
0.0069723055
0.0023442004
0.0070745036
0.00082083973
0.0064741708
-0.0011800829
0.0050112008
-0.0038256748
0.0026216605
-0.0073565776
-0.00040447785
-0.012131459
-0.0030689385
-0.018131377
-0.0032487602
-0.023185136
-0.01830263
-0.0027474615
0.0092605387
-0.0033103906
0.011073328
-0.0021894024
0.0097354238
-0.00021058217
0.0080475174
0.0020948811
0.0066143567
0.0044688952
0.0054784551
0.0067847794
0.004592787
0.0089718318
0.003887037
0.010976286
0.0032849344
0.012736942
0.0027113664
0.014169816
0.0020923371
0.015159682
0.0013543337
0.015550365
0.00043015696
0.015145521
-0.00077523911
0.013700934
-0.0023810878
0.010947435
-0.0046030786
0.0067446391
-0.0079286629
0.0018028216
-0.013189559
-0.0014810339
-0.019901281
-0.019783664
-0.0023639879
0.011624527
8.3056967e-05
0.0086262835
0.0042190994
0.0055993813
0.0082083682
0.0040582485
0.011797929
0.0030247962
0.014975807
0.0023005767
0.017770881
0.0017977133
0.020219501
0.0014384169
0.022344437
0.0011599985
0.02414045
0.00091535272
0.02556573
0.00066705739
0.026535012
0.00038505142
0.026914074
5.1095409e-05
0.02655809
-0.00041925571
0.025177478
-0.0010004758
0.02241075
-0.0018363501
0.01774626
-0.0032641732
0.010908569
-0.0063518682
0.0033023915
-0.012295103
-0.016481272
0.011624527
0.02025081
0.025850191
0.02990844
0.032933236
0.035233813
0.037031526
0.038469943
0.039629942
0.040545294
0.041212352
0.041597403
0.041648498
0.041229243
0.040228767
0.038392417
0.035128243
0.028776375
0.016481272
)
;

boundaryField
{
    movingWall
    {
        type            calculated;
        value           uniform 0;
    }
    fixedWalls
    {
        type            calculated;
        value           uniform 0;
    }
    frontAndBack
    {
        type            empty;
        value           nonuniform List<scalar> 0();
    }
}


// ************************************************************************* //
