/*--------------------------------*- C++ -*----------------------------------*\
| =========                 |                                                 |
| \\      /  F ield         | OpenFOAM: The Open Source CFD Toolbox           |
|  \\    /   O peration     | Version:  2112                                  |
|   \\  /    A nd           | Website:  www.openfoam.com                      |
|    \\/     M anipulation  |                                                 |
\*---------------------------------------------------------------------------*/
FoamFile
{
    version     2.0;
    format      ascii;
    arch        "LSB;label=32;scalar=64";
    class       surfaceScalarField;
    location    "3";
    object      phi_0;
}
// * * * * * * * * * * * * * * * * * * * * * * * * * * * * * * * * * * * * * //

dimensions      [0 3 -1 0 0 0 0];

oriented        oriented;

internalField   nonuniform List<scalar> 
760
(
4.2510976e-06
-4.2512189e-06
-3.1942535e-05
3.6193638e-05
-0.00010559845
7.3655885e-05
-0.00020257355
9.6975056e-05
-0.00031003098
0.00010745742
-0.00041781071
0.00010777976
-0.0005177021
9.9891437e-05
-0.00060237296
8.4670884e-05
-0.00066465127
6.2278358e-05
-0.00069753048
3.2879181e-05
-0.00069490441
-2.6261483e-06
-0.00065304025
-4.186422e-05
-0.00057243964
-8.0600674e-05
-0.00045950197
-0.0001129377
-0.00032720165
-0.00013230032
-0.00019419673
-0.00013300491
-8.1820478e-05
-0.0001123763
-8.9361127e-06
-7.2884421e-05
1.5374692e-05
-2.4310841e-05
1.5374669e-05
-3.6635574e-05
3.2384368e-05
-0.00016082474
0.0001603829
-0.00035617896
0.00026901023
-0.00059730227
0.0003380984
-0.00085907043
0.00036922557
-0.0011191779
0.0003678872
-0.0013580238
0.00033873739
-0.0015577217
0.00028436878
-0.0017014348
0.00020599153
-0.0017737243
0.00010516862
-0.0017627039
-1.3646725e-05
-0.0016613785
-0.00014318976
-0.0014728555
-0.00026912368
-0.0012119601
-0.00037383307
-0.00090647349
-0.00043778695
-0.00059491052
-0.00044456789
-0.00032027916
-0.00038700766
-0.00012037838
-0.0002727852
-1.7335236e-05
-0.00012735404
-1.9605276e-06
-8.1560309e-05
0.00011394466
-0.00029297795
0.00037180048
-0.00059806688
0.00057409917
-0.0009606736
0.00070070512
-0.0013471833
0.00075573533
-0.001727617
0.00074832082
-0.0020751141
0.00068623456
-0.0023648607
0.00057411538
-0.0025735266
0.00041465741
-0.0026799902
0.00021163205
-0.0026674671
-2.6169876e-05
-0.0025265611
-0.00028409574
-0.0022604464
-0.00053523845
-0.0018880411
-0.00074623845
-0.0014458482
-0.00087997983
-0.00098570742
-0.0009047087
-0.00056716247
-0.00080555258
-0.00024492018
-0.00059502748
-5.4258711e-05
-0.00031801547
-5.6219222e-05
-0.00012114935
0.00023509407
-0.00041357269
0.00066422382
-0.0008198412
0.00098036768
-0.0012916876
0.0011725515
-0.0017881375
0.0012521853
-0.0022740056
0.001234189
-0.0027179994
0.0011302284
-0.0030909409
0.00094705682
-0.0033648515
0.00068856794
-0.003513507
0.00036028745
-0.0035150975
-2.457944e-05
-0.003354837
-0.0004443562
-0.003032545
-0.00085753041
-0.0025667137
-0.0012120697
-0.0019986353
-0.0014480582
-0.0013916858
-0.0015116581
-0.00082347177
-0.0013737666
-0.00037038686
-0.0010481123
-8.8653195e-05
-0.00059974909
-0.00014487245
-0.00015589458
0.00039098869
-0.00052279299
0.0010311223
-0.0010231513
0.001480726
-0.0015967348
0.0017461349
-0.0021960686
0.0018515191
-0.0027824319
0.0018205522
-0.0033221147
0.0016699113
-0.0037833663
0.0014083083
-0.0041345726
0.0010397742
-0.0043440898
0.00056980464
-0.0043834727
1.4803421e-05
-0.0042286259
-0.00059920301
-0.0038712621
-0.0012148942
-0.00332403
-0.0017593018
-0.0026290205
-0.0021430676
-0.0018606244
-0.0022800542
-0.0011189895
-0.0021154015
-0.00051116656
-0.0016559352
-0.00012403845
-0.00098687722
-0.00026891093
-0.00018723022
0.00057821888
-0.0006231469
0.001467039
-0.0012119277
0.0020695068
-0.0018823304
0.0024165377
-0.0025815003
0.0025506889
-0.0032687277
0.0025077796
-0.0039096517
0.0023108352
-0.0044714898
0.0019701464
-0.0049198095
0.0014880939
-0.0052174315
0.00086742672
-0.0053249185
0.00012229038
-0.0052081818
-0.00071593973
-0.0048427073
-0.0015803687
-0.0042287549
-0.0023732542
-0.0034033211
-0.0029685014
-0.0024497655
-0.0032336097
-0.0014955906
-0.0030695763
-0.00069078646
-0.0024607394
-0.00016810889
-0.0015095548
-0.0004370198
-0.00021620537
0.00079442424
-0.00071664728
0.0019674809
-0.0013887996
0.0027416591
-0.0021515846
0.0031793226
-0.0029480881
0.0033471924
-0.0037372627
0.0032969542
-0.0044859386
0.0030595111
-0.0051620149
0.0026462228
-0.0057293743
0.0020554533
-0.0061450401
0.0012830926
-0.0063589736
0.00033622382
-0.0063202361
-0.00075467726
-0.0059838095
-0.0019167954
-0.0053286999
-0.0030283639
-0.0043774313
-0.00391977
-0.0032157616
-0.0043952794
-0.002000192
-0.004285146
-0.00093774901
-0.0035231823
-0.00023029877
-0.0022170051
-0.00066731854
-0.00024325667
0.0010376809
-0.00080395142
0.0025281757
-0.0015536979
0.0034914056
-0.0024024728
0.0040280976
-0.0032905967
0.0042353162
-0.004178418
0.0041847756
-0.0050360067
0.0039170999
-0.0058341074
0.0034443234
-0.0065369304
0.0027582763
-0.0070972658
0.0018434282
-0.0074545541
0.00069351199
-0.0075394937
-0.00066973768
-0.0072815121
-0.0021747771
-0.0066293049
-0.003680571
-0.005577717
-0.0049713578
-0.0042009046
-0.0057720919
-0.0026776592
-0.0058083914
-0.0012834959
-0.0049173456
-0.00032169947
-0.0031788014
-0.00098901794
-0.00026841331
0.0013060942
-0.0008846262
0.0031443886
-0.0017040427
0.0043108222
-0.0026278488
0.0049519037
-0.0035945931
0.0052020606
-0.0045676818
0.0051578643
-0.0055226016
0.0048720198
-0.0064356075
0.0043573293
-0.0072744055
0.0035970743
-0.0079911162
0.0025601389
-0.0085181045
0.0012205002
-0.0087695521
-0.00041829013
-0.0086486243
-0.0022957048
-0.0080664335
-0.0042627617
-0.0069745768
-0.0060632145
-0.0054125731
-0.0073340956
-0.0035599685
-0.0076609959
-0.0017602184
-0.0067170956
-0.00045592867
-0.0044830911
-0.0014449467
-0.00029194865
0.001598043
-0.0009585386
0.0038109785
-0.0018365773
0.005188861
-0.0028174652
0.0059327916
-0.0038385143
0.0062231097
-0.0048676564
0.0061870063
-0.0058879448
0.0058923082
-0.0068841638
0.0053535484
-0.0078318112
0.0045447217
-0.0086882455
0.0034165732
-0.0093862442
0.001918499
-0.0098306457
2.6111376e-05
-0.0099045471
-0.0022218032
-0.00948
-0.0046873088
-0.0084517863
-0.0070914282
-0.0067947291
-0.0089911528
-0.0046478901
-0.0098078349
-0.0023958413
-0.0089691445
-0.00065048382
-0.0062284486
-0.0020954305
-0.00031557747
0.0019136205
-0.0010284542
0.0045238553
-0.0019508892
0.0061112961
-0.0029621151
0.0069440175
-0.0039985144
0.007259509
-0.0050339882
0.0072224801
-0.0060612302
0.0069195501
-0.0070766639
0.006368982
-0.0080685896
0.0055366475
-0.0090073971
0.0043553806
-0.0098370927
0.0027481946
-0.010467713
0.00065673188
-0.010774824
-0.0019146922
-0.010601775
-0.0048603578
-0.0097816196
-0.007911584
-0.0081953225
-0.01057745
-0.0058826727
-0.012120485
-0.0032018257
-0.011649992
-0.00092748403
-0.0085027902
-0.0030229144
-0.00034450069
0.0022581213
-0.001104062
0.0052834167
-0.0020544769
0.0070617109
-0.0030594266
0.0079489672
-0.00405551
0.0082555924
-0.0050248035
0.0081917735
-0.0059719268
0.0078666734
-0.0069079082
0.0073049634
-0.0078387562
0.0064674955
-0.00875614
0.0052727644
-0.009628097
0.0036201515
-0.010388282
0.0014169168
-0.010924188
-0.0013787858
-0.011075058
-0.0047094884
-0.010623689
-0.0083629529
-0.0093428939
-0.011858245
-0.0071112076
-0.014352171
-0.0041491532
-0.014612046
-0.0013111539
-0.011340789
-0.0043340682
-0.00039090716
0.0026490285
-0.0012076363
0.006100146
-0.0021685395
0.0080226141
-0.003119382
0.0088998098
-0.0040015266
0.0091377369
-0.0048099057
0.0090001527
-0.0055643711
0.0086211387
-0.0062933124
0.0080339046
-0.0070241622
0.0071983452
-0.0077762732
0.0060248754
-0.0085527027
0.0043965811
-0.0093285916
0.0021928057
-0.010026511
-0.00068086675
-0.010517372
-0.0042186272
-0.010566315
-0.0083140099
-0.0098542297
-0.01257033
-0.0080599578
-0.016146443
-0.0051328694
-0.017539134
-0.0018170757
-0.014656583
-0.0061511439
-0.00048008241
0.0031291109
-0.0013811071
0.0070011708
-0.0023317077
0.0089732147
-0.0031642636
0.0097323656
-0.0038377058
0.009811179
-0.0043696138
0.0095320607
-0.004800592
0.0090521169
-0.0051790742
0.0084123867
-0.0055554421
0.007574713
-0.0059788588
0.0064482921
-0.0064922353
0.0049099577
-0.0071234984
0.0028240689
-0.007849853
4.548777e-05
-0.0086131009
-0.0034553792
-0.0092101523
-0.0077169584
-0.0092875409
-0.012492941
-0.0083393434
-0.01709464
-0.0059355857
-0.019942892
-0.0024263249
-0.018165844
-0.0085774686
-0.00066099401
0.0037901049
-0.0016920288
0.0080322056
-0.0025929596
0.0098741456
-0.0032092068
0.010348613
-0.0035460753
0.010148047
-0.0036615648
0.00964755
-0.0036255889
0.009016141
-0.003509114
0.0082959118
-0.0033839768
0.0074495758
-0.0033250938
0.006389409
-0.0034121229
0.0049969869
-0.0037171354
0.0031290814
-0.0043140825
0.00064243476
-0.0051883484
-0.0025811132
-0.0062604905
-0.0066448164
-0.007227003
-0.011526429
-0.0074872837
-0.016834359
-0.0062062653
-0.02122391
-0.0030401637
-0.021331946
-0.011617632
-0.0010221396
0.0048122446
-0.0022242714
0.0092343373
-0.0029636601
0.010613534
-0.0031835959
0.010568549
-0.0029904937
0.0099549453
-0.0025092086
0.009166265
-0.0018487602
0.0083556927
-0.0011029886
0.0075501401
-0.00036056254
0.0067071497
0.00028663233
0.0057422141
0.00074176211
0.004541857
0.00088822195
0.0029826215
0.00060504981
0.00092560691
-0.0001994144
-0.001776649
-0.0015602449
-0.005283986
-0.0033453534
-0.0097413203
-0.0050268667
-0.015152846
-0.0054602175
-0.020790559
-0.003432608
-0.023359555
-0.01505024
-0.0017012983
0.006513543
-0.0029774363
0.010510475
-0.0032194609
0.010855559
-0.0026754153
0.010024503
-0.0016375996
0.0089171297
-0.0003204935
0.0078491589
0.0011301381
0.006905061
0.0026097157
0.0060705625
0.0040304895
0.0052863759
0.0053027585
0.0044699452
0.0063202674
0.003524348
0.0069581817
0.0023447072
0.0070611802
0.00082260824
0.0064619276
-0.0011773965
0.0050004839
-0.0038225422
0.0026126728
-0.0073535089
-0.00041152732
-0.012128646
-0.0030731187
-0.018128968
-0.0032502593
-0.023182415
-0.0183005
-0.0027474776
0.0092610207
-0.0033107953
0.011073793
-0.0021905692
0.0097353328
-0.00021289597
0.0080468297
0.0020911298
0.0066131039
0.0044635279
0.0054767608
0.0067777406
0.0045908483
0.0089632092
0.0038850937
0.010966335
0.0032832507
0.012726078
0.0027102017
0.01415856
0.0020918664
0.015148614
0.0013546527
0.015540021
0.00043120175
0.015136262
-0.00077363799
0.013693022
-0.0023793022
0.010940966
-0.0046014529
0.0067397609
-0.0079274409
0.0017995148
-0.013188722
-0.0014825117
-0.019900388
-0.019783011
-0.0023637169
0.011624738
8.3547608e-05
0.0086265283
0.0042193673
0.0055995131
0.0082080682
0.0040581287
0.011796737
0.0030244355
0.014973468
0.0023000292
0.017767255
0.001797061
0.020214591
0.0014377585
0.022338402
0.0011594395
0.02413361
0.00091499303
0.025558514
0.00066696294
0.026527916
0.00038525089
0.026907598
5.1518938e-05
0.026552552
-0.00041859207
0.025173093
-0.0009998424
0.022407458
-0.0018358188
0.017743923
-0.0032639054
0.010907019
-0.0063518174
0.0033017447
-0.012295114
-0.016481267
0.011624737
0.020251266
0.025850779
0.029908908
0.032933343
0.035233372
0.037030433
0.038468192
0.039627631
0.040542624
0.041209587
0.041594838
0.041646357
0.041227765
0.040227923
0.038392104
0.035128198
0.028776381
0.016481267
)
;

boundaryField
{
    movingWall
    {
        type            calculated;
        value           uniform 0;
    }
    fixedWalls
    {
        type            calculated;
        value           uniform 0;
    }
    frontAndBack
    {
        type            empty;
        value           nonuniform List<scalar> 0();
    }
}


// ************************************************************************* //
