/*--------------------------------*- C++ -*----------------------------------*\
| =========                 |                                                 |
| \\      /  F ield         | OpenFOAM: The Open Source CFD Toolbox           |
|  \\    /   O peration     | Version:  2112                                  |
|   \\  /    A nd           | Website:  www.openfoam.com                      |
|    \\/     M anipulation  |                                                 |
\*---------------------------------------------------------------------------*/
FoamFile
{
    version     2.0;
    format      ascii;
    arch        "LSB;label=32;scalar=64";
    class       volVectorField;
    location    "3";
    object      U;
}
// * * * * * * * * * * * * * * * * * * * * * * * * * * * * * * * * * * * * * //

dimensions      [0 1 -1 0 0 0 0];

internalField   nonuniform List<vector> 
400
(
(0.00017221905 -0.00016825319 0)
(-6.8348868e-05 0.00011799966 0)
(-0.0012515561 0.00041069403 0)
(-0.0030170921 0.00058737006 0)
(-0.0051092552 0.0006657636 0)
(-0.0073039612 0.00067445799 0)
(-0.0094183344 0.00063200565 0)
(-0.011298709 0.00054508697 0)
(-0.012800612 0.00041246635 0)
(-0.013780079 0.00023169084 0)
(-0.014101617 5.7006836e-06 0)
(-0.013660145 -0.00025393294 0)
(-0.012416638 -0.00051618234 0)
(-0.010436787 -0.00073799489 0)
(-0.0079162101 -0.00086905214 0)
(-0.005180239 -0.00086385974 0)
(-0.0026413839 -0.00069862196 0)
(-0.00070793115 -0.00039020677 0)
(0.00028745665 -1.9190689e-05 0)
(0.00025725671 0.00024026111 0)
(-0.00011356406 6.0459459e-05 0)
(-0.0015395677 0.001508171 0)
(-0.0048860701 0.0028180078 0)
(-0.0093933176 0.0036503859 0)
(-0.014539741 0.0040306019 0)
(-0.019865069 0.0040387884 0)
(-0.024951818 0.0037381207 0)
(-0.029426711 0.0031597636 0)
(-0.032941946 0.0023130514 0)
(-0.035169646 0.0012090982 0)
(-0.035825526 -0.00011286284 0)
(-0.034706457 -0.0015628681 0)
(-0.031759871 -0.0029838394 0)
(-0.027157692 -0.0041649115 0)
(-0.021330379 -0.0048726047 0)
(-0.01496143 -0.004908873 0)
(-0.0089020983 -0.0041857792 0)
(-0.0039953983 -0.0027971073 0)
(-0.00088341876 -0.0010739943 0)
(8.0429084e-05 0.00031308005 0)
(-0.00045447505 0.0012891363 0)
(-0.0031285803 0.0049289394 0)
(-0.0085233216 0.0079192699 0)
(-0.015412841 0.0098227388 0)
(-0.023070064 0.010675365 0)
(-0.030889978 0.010613834 0)
(-0.038308357 0.0097580214 0)
(-0.044809248 0.0081782741 0)
(-0.049909687 0.0059125534 0)
(-0.053157413 0.0030127535 0)
(-0.054159564 -0.00040036574 0)
(-0.052635328 -0.0040895309 0)
(-0.048502915 -0.0076753135 0)
(-0.041972478 -0.010659812 0)
(-0.033600467 -0.012500342 0)
(-0.024295289 -0.012742031 0)
(-0.015217967 -0.011186866 0)
(-0.0075502383 -0.0080458938 0)
(-0.0022581777 -0.0040183894 0)
(-0.00015457729 -0.00040810135 0)
(-0.00074033776 0.0033417246 0)
(-0.0045582975 0.01002019 0)
(-0.011867125 0.015109818 0)
(-0.020927115 0.018263885 0)
(-0.030813485 0.01961139 0)
(-0.040817172 0.01937906 0)
(-0.050283156 0.017755615 0)
(-0.058608928 0.014854367 0)
(-0.065222009 0.010743805 0)
(-0.069572583 0.0055209332 0)
(-0.071164194 -0.00060062023 0)
(-0.069607831 -0.0072174629 0)
(-0.064727368 -0.013684767 0)
(-0.056686196 -0.019151116 0)
(-0.046075732 -0.022672519 0)
(-0.033964899 -0.023431557 0)
(-0.021817251 -0.021029487 0)
(-0.01121669 -0.015756174 0)
(-0.003586451 -0.0087107613 0)
(-0.00033934572 -0.0018404105 0)
(-0.00097957238 0.0061302238 0)
(-0.0058312156 0.016649057 0)
(-0.014918623 0.024219272 0)
(-0.025999319 0.028763523 0)
(-0.037961793 0.030610529 0)
(-0.050019247 0.030130164 0)
(-0.061465269 0.027599069 0)
(-0.071651734 0.023172333 0)
(-0.07994729 0.016935258 0)
(-0.085714069 0.0090079699 0)
(-0.08833197 -0.00032583113 0)
(-0.087249368 -0.010493205 0)
(-0.082106728 -0.020584745 0)
(-0.07291068 -0.029336247 0)
(-0.060184975 -0.035286941 0)
(-0.04510464 -0.037092996 0)
(-0.029471316 -0.033982806 0)
(-0.015411182 -0.026214799 0)
(-0.0050112199 -0.01529614 0)
(-0.00049108117 -0.0039362038 0)
(-0.0011890555 0.0095778693 0)
(-0.0069871371 0.024711243 0)
(-0.017735865 0.035151496 0)
(-0.030725169 0.041243857 0)
(-0.044676644 0.043628633 0)
(-0.058751908 0.042883325 0)
(-0.072228126 0.039397335 0)
(-0.084447479 0.03336203 0)
(-0.094746846 0.024850824 0)
(-0.10240603 0.013961846 0)
(-0.10664252 0.00099514693 0)
(-0.10669001 -0.013364629 0)
(-0.10191258 -0.027946387 0)
(-0.092011121 -0.041023772 0)
(-0.07730422 -0.050475764 0)
(-0.058980089 -0.054189123 0)
(-0.039194471 -0.05072876 0)
(-0.020786587 -0.040102721 0)
(-0.0068120164 -0.024214126 0)
(-0.00066377811 -0.006793603 0)
(-0.0013801759 0.013627418 0)
(-0.0080575972 0.034109023 0)
(-0.020364561 0.047805303 0)
(-0.035159956 0.055623335 0)
(-0.051022534 0.058628338 0)
(-0.067091471 0.057676467 0)
(-0.082663927 0.053298301 0)
(-0.097110065 0.045711906 0)
(-0.10976515 0.034936302 0)
(-0.11984089 0.020978284 0)
(-0.12639181 0.004065224 0)
(-0.12837461 -0.015107679 0)
(-0.12476895 -0.035149562 0)
(-0.11483133 -0.053852542 0)
(-0.09848576 -0.068283721 0)
(-0.076754334 -0.07524253 0)
(-0.052069974 -0.072184431 0)
(-0.028120326 -0.05845732 0)
(-0.0093383607 -0.036248285 0)
(-0.00092334809 -0.010674633 0)
(-0.0015578131 0.018236852 0)
(-0.0090557844 0.044756233 0)
(-0.022814438 0.062075955 0)
(-0.039286685 0.071801314 0)
(-0.056929983 0.075540592 0)
(-0.074891186 0.074506547 0)
(-0.092526395 0.069403752 0)
(-0.10927742 0.060466338 0)
(-0.12452142 0.047607491 0)
(-0.13743967 0.030653 0)
(-0.14694489 0.0096373538 0)
(-0.15170418 -0.014856331 0)
(-0.15025053 -0.041340386 0)
(-0.14126047 -0.067166838 0)
(-0.12403682 -0.088478743 0)
(-0.099144351 -0.10063769 0)
(-0.069038314 -0.099374635 0)
(-0.038235109 -0.08266146 0)
(-0.013002449 -0.052586195 0)
(-0.0013513249 -0.016046393 0)
(-0.0017231143 0.023367662 0)
(-0.0099822367 0.056563517 0)
(-0.025064274 0.077830468 0)
(-0.043018709 0.089613481 0)
(-0.062193865 0.094193673 0)
(-0.081771338 0.093228985 0)
(-0.10120529 0.087638769 0)
(-0.12005808 0.077668007 0)
(-0.13780776 0.063075027 0)
(-0.15367436 0.043412263 0)
(-0.16650177 0.018387068 0)
(-0.17472551 -0.011698738 0)
(-0.17645206 -0.045441261 0)
(-0.16971032 -0.079897305 0)
(-0.1529632 -0.11029453 0)
(-0.1259251 -0.13027511 0)
(-0.090568775 -0.13311719 0)
(-0.051883652 -0.11428775 0)
(-0.018295455 -0.07482751 0)
(-0.0020646357 -0.023623667 0)
(-0.0018803077 0.028981165 0)
(-0.010846083 0.069428394 0)
(-0.02709546 0.094879917 0)
(-0.046239441 0.10877785 0)
(-0.066515343 0.11422812 0)
(-0.087161439 0.11343829 0)
(-0.10776651 0.10759549 0)
(-0.12806418 0.096963804 0)
(-0.14770543 0.081114662 0)
(-0.1660515 0.059253149 0)
(-0.18201306 0.03063697 0)
(-0.19394805 -0.0048943951 0)
(-0.19968123 -0.046271989 0)
(-0.19666029 -0.090521802 0)
(-0.18238536 -0.13217834 0)
(-0.15530385 -0.16311323 0)
(-0.11615256 -0.17348834 0)
(-0.069516229 -0.15472629 0)
(-0.025801862 -0.10490991 0)
(-0.0032525731 -0.034435594 0)
(-0.0020491838 0.035053366 0)
(-0.01170413 0.083247951 0)
(-0.028954964 0.11296738 0)
(-0.048879765 0.12885087 0)
(-0.069591305 0.13502068 0)
(-0.090407017 0.13435949 0)
(-0.11108578 0.12838965 0)
(-0.13158179 0.11742307 0)
(-0.15179668 0.10084515 0)
(-0.17135806 0.07748393 0)
(-0.18943152 0.046070103 0)
(-0.20455651 0.0058227101 0)
(-0.21455674 -0.042801499 0)
(-0.21655196 -0.097185662 0)
(-0.20717462 -0.15167123 0)
(-0.18331914 -0.19672144 0)
(-0.1436266 -0.21910079 0)
(-0.090830125 -0.20450409 0)
(-0.036155353 -0.1448632 0)
(-0.0052295855 -0.049919587 0)
(-0.002288055 0.041621504 0)
(-0.012724749 0.097966547 0)
(-0.030848681 0.13177859 0)
(-0.051026314 0.14920042 0)
(-0.07123949 0.15563067 0)
(-0.090929308 0.15477603 0)
(-0.11007053 0.1485716 0)
(-0.12888637 0.13742659 0)
(-0.14760191 0.12058378 0)
(-0.1662372 0.096529762 0)
(-0.18442272 0.063470139 0)
(-0.20119026 0.019919835 0)
(-0.21474903 -0.034510831 0)
(-0.22235599 -0.098037568 0)
(-0.22017531 -0.16556901 0)
(-0.20360272 -0.2270571 0)
(-0.16852555 -0.26635866 0)
(-0.11406747 -0.26225568 0)
(-0.049825588 -0.19622725 0)
(-0.008484048 -0.07200979 0)
(-0.002737647 0.048884665 0)
(-0.014289134 0.11366782 0)
(-0.033260117 0.15097051 0)
(-0.053032661 0.1689907 0)
(-0.071510187 0.17477403 0)
(-0.08837061 0.17301629 0)
(-0.10388629 0.1661351 0)
(-0.11860472 0.15469298 0)
(-0.13313164 0.13786884 0)
(-0.14797259 0.11391139 0)
(-0.16339097 0.080603156 0)
(-0.1791914 0.035798693 0)
(-0.19437484 -0.021851947 0)
(-0.20694662 -0.091853038 0)
(-0.21330455 -0.17055 0)
(-0.20792438 -0.2487878 0)
(-0.18389122 -0.30908289 0)
(-0.1352526 -0.32355154 0)
(-0.066581604 -0.25895097 0)
(-0.01365427 -0.1031071 0)
(-0.0037069274 0.057399945 0)
(-0.017148779 0.13070741 0)
(-0.037066688 0.17018131 0)
(-0.055552403 0.18714066 0)
(-0.070655165 0.19079899 0)
(-0.082548756 0.18698868 0)
(-0.091957574 0.178631 0)
(-0.099828371 0.16646964 0)
(-0.10718137 0.14970274 0)
(-0.11503374 0.12648751 0)
(-0.12433926 0.094374503 0)
(-0.1358178 0.05074886 0)
(-0.1495675 -0.0065882103 0)
(-0.16492391 -0.078837657 0)
(-0.17937611 -0.16430184 0)
(-0.18764719 -0.2564227 0)
(-0.18094255 -0.33904568 0)
(-0.14780437 -0.38018093 0)
(-0.084530727 -0.32974365 0)
(-0.021268348 -0.14565053 0)
(-0.0058361127 0.068456886 0)
(-0.022651886 0.1498473 0)
(-0.043544312 0.188918 0)
(-0.059264939 0.20215214 0)
(-0.068633765 0.20157529 0)
(-0.072824863 0.1941885 0)
(-0.073271399 0.18331531 0)
(-0.071417582 0.16982387 0)
(-0.06869717 0.15296642 0)
(-0.066571857 0.13094038 0)
(-0.066589085 0.1012751 0)
(-0.070290514 0.061128208 0)
(-0.079146438 0.0077452507 0)
(-0.093908723 -0.061302889 0)
(-0.1138325 -0.14678564 0)
(-0.13559725 -0.24610471 0)
(-0.15052919 -0.34768117 0)
(-0.14285409 -0.42060977 0)
(-0.098904527 -0.40034016 0)
(-0.030985164 -0.20099243 0)
(-0.010356433 0.0847627 0)
(-0.032936635 0.17220443 0)
(-0.05381319 0.20610116 0)
(-0.063572693 0.21162539 0)
(-0.063292102 0.20415277 0)
(-0.055963665 0.19155866 0)
(-0.044052781 0.17722526 0)
(-0.029573537 0.16193345 0)
(-0.014299525 0.14492438 0)
(3.0634957e-05 0.12447841 0)
(0.011471399 0.098253685 0)
(0.017915522 0.063522585 0)
(0.017063919 0.017380479 0)
(0.0066786422 -0.043073877 0)
(-0.014846483 -0.12076073 0)
(-0.047137095 -0.21725588 0)
(-0.084515017 -0.32851224 0)
(-0.10997339 -0.43173915 0)
(-0.10124023 -0.45681021 0)
(-0.04023326 -0.26815796 0)
(-0.019218912 0.11146384 0)
(-0.050211514 0.19795227 0)
(-0.065764868 0.21839512 0)
(-0.06188086 0.21084119 0)
(-0.044877937 0.19379187 0)
(-0.020449789 0.17497263 0)
(0.0078268542 0.15703592 0)
(0.037560369 0.14022682 0)
(0.066918127 0.12357789 0)
(0.094200947 0.10542886 0)
(0.11750454 0.083673076 0)
(0.13457468 0.055974714 0)
(0.14264997 0.01974135 0)
(0.13854565 -0.02789331 0)
(0.11891386 -0.090503455 0)
(0.080799681 -0.17277646 0)
(0.024312841 -0.27910252 0)
(-0.03727405 -0.40130101 0)
(-0.079745927 -0.48074523 0)
(-0.042743949 -0.34255955 0)
(-0.033240829 0.15768181 0)
(-0.070030417 0.22055923 0)
(-0.060508237 0.21360642 0)
(-0.026615198 0.18807788 0)
(0.017876942 0.16130382 0)
(0.065523435 0.13796494 0)
(0.11286071 0.1186247 0)
(0.15812637 0.1024225 0)
(0.20021014 0.087982026 0)
(0.2380589 0.073716871 0)
(0.2702934 0.057907602 0)
(0.29500349 0.038762622 0)
(0.30948674 0.014335098 0)
(0.31036951 -0.017569434 0)
(0.29332782 -0.059720173 0)
(0.25301143 -0.11755601 0)
(0.18445068 -0.20127946 0)
(0.090643527 -0.32156334 0)
(-0.018350053 -0.45073918 0)
(-0.02526932 -0.40532285 0)
(-0.03245912 0.24082491 0)
(-0.041454961 0.21951854 0)
(0.042492594 0.16404214 0)
(0.1253809 0.12561093 0)
(0.2015168 0.097692801 0)
(0.2692991 0.077153948 0)
(0.32895665 0.06217541 0)
(0.38124776 0.050977571 0)
(0.42685932 0.041979808 0)
(0.4660363 0.033869424 0)
(0.49835483 0.025505761 0)
(0.52262092 0.015858149 0)
(0.53659455 0.0039222533 0)
(0.53768486 -0.011170971 0)
(0.52156342 -0.031218378 0)
(0.4822096 -0.05961533 0)
(0.41071962 -0.10530511 0)
(0.29908611 -0.19250231 0)
(0.12025306 -0.33646792 0)
(0.051437547 -0.39401714 0)
(0.24357954 0.15309968 0)
(0.30692507 0.11935747 0)
(0.45690827 0.076592451 0)
(0.56160097 0.050788849 0)
(0.63219472 0.034591693 0)
(0.68411136 0.023981642 0)
(0.72434797 0.017059121 0)
(0.75628697 0.012497201 0)
(0.78197932 0.0093112729 0)
(0.80255784 0.0068097904 0)
(0.81833364 0.0044958319 0)
(0.82893762 0.0020082561 0)
(0.83339765 -0.00095194379 0)
(0.83009279 -0.0043575599 0)
(0.81622004 -0.0089225166 0)
(0.78852683 -0.015590061 0)
(0.7379557 -0.026627809 0)
(0.65350095 -0.051275668 0)
(0.45624535 -0.11389429 0)
(0.31787422 -0.17221795 0)
)
;

boundaryField
{
    movingWall
    {
        type            fixedValue;
        value           uniform (1 0 0);
    }
    fixedWalls
    {
        type            fixedValue;
        value           uniform (0 0 0);
    }
    frontAndBack
    {
        type            empty;
    }
}


// ************************************************************************* //
