/*--------------------------------*- C++ -*----------------------------------*\
| =========                 |                                                 |
| \\      /  F ield         | OpenFOAM: The Open Source CFD Toolbox           |
|  \\    /   O peration     | Version:  2112                                  |
|   \\  /    A nd           | Website:  www.openfoam.com                      |
|    \\/     M anipulation  |                                                 |
\*---------------------------------------------------------------------------*/
FoamFile
{
    version     2.0;
    format      ascii;
    arch        "LSB;label=32;scalar=64";
    class       volVectorField;
    location    "3";
    object      U_0;
}
// * * * * * * * * * * * * * * * * * * * * * * * * * * * * * * * * * * * * * //

dimensions      [0 1 -1 0 0 0 0];

internalField   nonuniform List<vector> 
400
(
(0.00017188255 -0.00016791553 0)
(-6.8922495e-05 0.00011811696 0)
(-0.0012514081 0.00041049582 0)
(-0.0030153209 0.00058690924 0)
(-0.0051052096 0.0006651111 0)
(-0.0072971995 0.00067367709 0)
(-0.0094086405 0.0006311643 0)
(-0.011286149 0.00054427757 0)
(-0.012785611 0.00041181413 0)
(-0.01376348 0.00023134158 0)
(-0.01408467 5.7877721e-06 0)
(-0.013644384 -0.00025332914 0)
(-0.01240363 -0.00051509747 0)
(-0.010427766 -0.0007366067 0)
(-0.0079117071 -0.00086766678 0)
(-0.0051798339 -0.00086284257 0)
(-0.0026437376 -0.00069827524 0)
(-0.0007112467 -0.00039060362 0)
(0.00028522348 -1.9917029e-05 0)
(0.00025669098 0.00023971522 0)
(-0.00011366153 6.105047e-05 0)
(-0.0015386506 0.001507381 0)
(-0.004881889 0.0028155649 0)
(-0.0093840146 0.0036465689 0)
(-0.01452391 0.0040257889 0)
(-0.019841798 0.0040333865 0)
(-0.024920788 0.0037326079 0)
(-0.029388338 0.0031547405 0)
(-0.032897524 0.0023092393 0)
(-0.035121413 0.0012072541 0)
(-0.035776559 -0.00011211186 0)
(-0.034660376 -0.0015592411 0)
(-0.031720282 -0.0029776178 0)
(-0.02712745 -0.0041570314 0)
(-0.021310881 -0.0048645627 0)
(-0.014952148 -0.0049023933 0)
(-0.0089005919 -0.004182273 0)
(-0.0039979353 -0.0027970384 0)
(-0.00088605579 -0.0010762625 0)
(7.955427e-05 0.00031075704 0)
(-0.00045410398 0.0012888168 0)
(-0.0031252809 0.004924669 0)
(-0.0085134706 0.0079109001 0)
(-0.01539393 0.0098110268 0)
(-0.023040258 0.010661271 0)
(-0.030848125 0.010598453 0)
(-0.038254167 0.0097426698 0)
(-0.044743503 0.0081645666 0)
(-0.049834433 0.0059023457 0)
(-0.05307603 0.0030079065 0)
(-0.054076615 -0.00039838481 0)
(-0.052556144 -0.0040801325 0)
(-0.048432865 -0.007659235 0)
(-0.041916006 -0.010639299 0)
(-0.033560152 -0.012478919 0)
(-0.024271146 -0.012723759 0)
(-0.015207309 -0.011175147 0)
(-0.0075483192 -0.0080421356 0)
(-0.0022596751 -0.0040209769 0)
(-0.00015553573 -0.00041208416 0)
(-0.00073941248 0.00333898 0)
(-0.0045522808 0.010009446 0)
(-0.011850954 0.015091741 0)
(-0.020897709 0.018240026 0)
(-0.0307687 0.019583498 0)
(-0.040755675 0.019349118 0)
(-0.050204656 0.017726033 0)
(-0.058514448 0.014828082 0)
(-0.065114144 0.010724151 0)
(-0.069455611 0.0055112149 0)
(-0.071043931 -0.00059780851 0)
(-0.069491191 -0.0072010113 0)
(-0.064621554 -0.013655823 0)
(-0.05659755 -0.019113397 0)
(-0.046008554 -0.022631991 0)
(-0.033920424 -0.023395286 0)
(-0.021793174 -0.021003707 0)
(-0.011207632 -0.015744042 0)
(-0.003585484 -0.0087105817 0)
(-0.00033998214 -0.0018448048 0)
(-0.00097809153 0.0061235112 0)
(-0.0058225057 0.016628727 0)
(-0.014896229 0.024187606 0)
(-0.025959626 0.028723222 0)
(-0.037902348 0.030564301 0)
(-0.049938478 0.030081012 0)
(-0.061362742 0.027550655 0)
(-0.071528496 0.023129146 0)
(-0.079806215 0.016902411 0)
(-0.085560067 0.008990583 0)
(-0.08817188 -0.00032362356 0)
(-0.087091603 -0.010469486 0)
(-0.081960436 -0.020540772 0)
(-0.072784431 -0.029277113 0)
(-0.060085346 -0.035221293 0)
(-0.045034775 -0.037031554 0)
(-0.029429944 -0.033935665 0)
(-0.015392672 -0.026188066 0)
(-0.0050069415 -0.01528906 0)
(-0.00049128829 -0.0039397357 0)
(-0.0011870891 0.0095657452 0)
(-0.0069761144 0.024678445 0)
(-0.017708155 0.035102634 0)
(-0.030676667 0.041183078 0)
(-0.044604547 0.043559713 0)
(-0.058654292 0.042810343 0)
(-0.072104232 0.039325305 0)
(-0.08429813 0.033297171 0)
(-0.094574896 0.024800312 0)
(-0.10221669 0.013932996 0)
(-0.10644347 0.00099409877 0)
(-0.10649094 -0.013334573 0)
(-0.10172439 -0.027886147 0)
(-0.091844685 -0.040939533 0)
(-0.07716872 -0.050378905 0)
(-0.058881159 -0.054094584 0)
(-0.039132615 -0.050651667 0)
(-0.020756555 -0.040053705 0)
(-0.0068036431 -0.024194877 0)
(-0.0006634622 -0.0067943866 0)
(-0.0013778744 0.013608745 0)
(-0.0080450424 0.034061536 0)
(-0.020333369 0.047736438 0)
(-0.035105624 0.055538851 0)
(-0.050941887 0.058533102 0)
(-0.066982152 0.057575626 0)
(-0.082524718 0.053198258 0)
(-0.096941387 0.04562074 0)
(-0.10956959 0.034863495 0)
(-0.11962369 0.020933699 0)
(-0.12616098 0.0040574615 0)
(-0.12814063 -0.015073305 0)
(-0.124544 -0.035073115 0)
(-0.11462809 -0.053740828 0)
(-0.098315723 -0.068150591 0)
(-0.07662584 -0.075107373 0)
(-0.05198608 -0.072068401 0)
(-0.028077237 -0.05837738 0)
(-0.0093251291 -0.036210637 0)
(-0.00092236638 -0.01067035 0)
(-0.001555419 0.018211042 0)
(-0.0090429152 0.044692969 0)
(-0.022782588 0.06198567 0)
(-0.03923114 0.071691366 0)
(-0.056847255 0.075416869 0)
(-0.074778514 0.074375214 0)
(-0.092382113 0.069272597 0)
(-0.1091015 0.060345377 0)
(-0.12431608 0.047508671 0)
(-0.13720982 0.03058898 0)
(-0.14669836 0.0096195083 0)
(-0.15145142 -0.01482038 0)
(-0.15000384 -0.041249394 0)
(-0.141033 -0.06702763 0)
(-0.12384128 -0.088306976 0)
(-0.098991296 -0.10045674 0)
(-0.068933918 -0.099211995 0)
(-0.038178567 -0.082542054 0)
(-0.012983722 -0.052523353 0)
(-0.0013494735 -0.016034322 0)
(-0.0017209625 0.023334922 0)
(-0.0099706854 0.056484997 0)
(-0.025035527 0.077719336 0)
(-0.04296813 0.08947848 0)
(-0.062117838 0.094041585 0)
(-0.081666895 0.093066924 0)
(-0.10107052 0.087475888 0)
(-0.11989267 0.077516256 0)
(-0.13761354 0.062948809 0)
(-0.15345567 0.043326991 0)
(-0.16626557 0.018356813 0)
(-0.17448105 -0.01166412 0)
(-0.17621009 -0.045339122 0)
(-0.16948236 -0.079733969 0)
(-0.15276111 -0.1100864 0)
(-0.12576023 -0.13004809 0)
(-0.090450268 -0.13290413 0)
(-0.051815331 -0.11412223 0)
(-0.018270925 -0.074732882 0)
(-0.0020616365 -0.023600737 0)
(-0.0018788018 0.028942716 0)
(-0.010837773 0.069337156 0)
(-0.027074222 0.094751019 0)
(-0.046201114 0.10862102 0)
(-0.066456494 0.11405088 0)
(-0.087079258 0.11324866 0)
(-0.10765921 0.10740393 0)
(-0.12793145 0.096784073 0)
(-0.14754881 0.080963367 0)
(-0.16587453 0.05914801 0)
(-0.18182107 0.030594096 0)
(-0.19374786 -0.0048636687 0)
(-0.19948011 -0.046163691 0)
(-0.19646572 -0.090341675 0)
(-0.18220569 -0.13194227 0)
(-0.15514876 -0.16284729 0)
(-0.11603285 -0.17322798 0)
(-0.069441164 -0.15451254 0)
(-0.025771968 -0.10477842 0)
(-0.0032480943 -0.03439856 0)
(-0.0020487415 0.035011558 0)
(-0.01170102 0.083148743 0)
(-0.028945716 0.11282659 0)
(-0.048861153 0.12867863 0)
(-0.06956048 0.1348251 0)
(-0.090361754 0.13414945 0)
(-0.11102482 0.12817681 0)
(-0.13150509 0.11722273 0)
(-0.15170554 0.10067553 0)
(-0.17125493 0.077364191 0)
(-0.18931957 0.046017291 0)
(-0.2044387 0.0058485023 0)
(-0.21443549 -0.04269299 0)
(-0.2164291 -0.096999702 0)
(-0.20705241 -0.15142208 0)
(-0.18320266 -0.19643248 0)
(-0.14352558 -0.21880582 0)
(-0.090758115 -0.20424769 0)
(-0.036122076 -0.14469339 0)
(-0.0052233771 -0.049865504 0)
(-0.0022890229 0.041579748 0)
(-0.012728448 0.097866178 0)
(-0.030855119 0.13163439 0)
(-0.051033649 0.14902228 0)
(-0.071245838 0.15542707 0)
(-0.090933376 0.15455662 0)
(-0.1100718 0.14834904 0)
(-0.12888509 0.13721718 0)
(-0.14759889 0.12040652 0)
(-0.16623341 0.096404081 0)
(-0.18441857 0.063412696 0)
(-0.20118475 0.019941304 0)
(-0.21473925 -0.0344077 0)
(-0.22233736 -0.097858406 0)
(-0.22014295 -0.16532593 0)
(-0.20355489 -0.22676847 0)
(-0.16846748 -0.26605196 0)
(-0.11401335 -0.26197259 0)
(-0.049793489 -0.19602415 0)
(-0.0084762604 -0.071937037 0)
(-0.0027401857 0.048847119 0)
(-0.014300406 0.11357453 0)
(-0.033284066 0.15083328 0)
(-0.053069179 0.16881844 0)
(-0.071558614 0.1745753 0)
(-0.088430678 0.17280129 0)
(-0.10395808 0.16591704 0)
(-0.11868839 0.15448842 0)
(-0.13322696 0.13769655 0)
(-0.14807845 0.1137899 0)
(-0.16350481 0.080547619 0)
(-0.17930846 0.035817621 0)
(-0.19448823 -0.021757715 0)
(-0.20704666 -0.091691656 0)
(-0.21337984 -0.17033175 0)
(-0.20796603 -0.24852522 0)
(-0.18389742 -0.30879391 0)
(-0.13523333 -0.3232679 0)
(-0.066558324 -0.25872872 0)
(-0.01364593 -0.10301703 0)
(-0.0037108699 0.05737089 0)
(-0.017166978 0.1306297 0)
(-0.037106924 0.17006195 0)
(-0.055616469 0.18698678 0)
(-0.070743692 0.19061883 0)
(-0.082662321 0.18679247 0)
(-0.092096391 0.1784318 0)
(-0.099991844 0.16628339 0)
(-0.10736756 0.14954693 0)
(-0.1152388 0.12637879 0)
(-0.12455754 0.094326186 0)
(-0.13604133 0.050765912 0)
(-0.14978862 -0.0065085172 0)
(-0.16513033 -0.078701206 0)
(-0.17955194 -0.1641212 0)
(-0.18777888 -0.25620647 0)
(-0.18102127 -0.33880233 0)
(-0.14783227 -0.37992753 0)
(-0.084525548 -0.3295255 0)
(-0.021261729 -0.14554931 0)
(-0.0058408024 0.068439741 0)
(-0.022674398 0.14979214 0)
(-0.043595468 0.18882578 0)
(-0.059348358 0.20202759 0)
(-0.068751296 0.20142569 0)
(-0.072977645 0.19402338 0)
(-0.073459352 0.18314668 0)
(-0.071638997 0.16966611 0)
(-0.068948236 0.15283495 0)
(-0.066845586 0.13084936 0)
(-0.066878044 0.1012369 0)
(-0.070585928 0.061144986 0)
(-0.079434925 0.0078129517 0)
(-0.094179716 -0.061190919 0)
(-0.11407475 -0.14664568 0)
(-0.13579435 -0.24594302 0)
(-0.15066787 -0.34750031 0)
(-0.14292871 -0.42041192 0)
(-0.098923982 -0.40015317 0)
(-0.030983412 -0.20089165 0)
(-0.010360609 0.084758666 0)
(-0.032958531 0.17217498 0)
(-0.053865145 0.20604115 0)
(-0.063659823 0.21153682 0)
(-0.063417431 0.20404131 0)
(-0.056128904 0.19143234 0)
(-0.044257713 0.17709416 0)
(-0.029815776 0.16180966 0)
(-0.014574383 0.14482093 0)
(-0.00026671142 0.12440757 0)
(0.011160729 0.098224645 0)
(0.017600677 0.063538571 0)
(0.016759297 0.017438226 0)
(0.0063905179 -0.042986178 0)
(-0.015108192 -0.12065573 0)
(-0.047357366 -0.21714362 0)
(-0.084681629 -0.32839433 0)
(-0.11007777 -0.43160784 0)
(-0.10128242 -0.4566756 0)
(-0.040238516 -0.26807236 0)
(-0.019220897 0.11147041 0)
(-0.050226164 0.19794567 0)
(-0.065803923 0.21836567 0)
(-0.061950473 0.21078857 0)
(-0.04498259 0.19371968 0)
(-0.02059241 0.17488679 0)
(0.007645634 0.15694414 0)
(0.037342497 0.14013832 0)
(0.066668301 0.12350293 0)
(0.093928132 0.10537784 0)
(0.11721903 0.083651446 0)
(0.134287 0.05598667 0)
(0.14237284 0.019784341 0)
(0.13828727 -0.027829741 0)
(0.11868079 -0.090427896 0)
(0.080599453 -0.17270192 0)
(0.024156858 -0.27903348 0)
(-0.037380193 -0.40123219 0)
(-0.079797991 -0.4806693 0)
(-0.042754476 -0.34250222 0)
(-0.033239481 0.15769265 0)
(-0.070032734 0.22056645 0)
(-0.060523131 0.21359905 0)
(-0.026649303 0.18805462 0)
(0.017817091 0.16126614 0)
(0.06543301 0.13791637 0)
(0.11273713 0.11857035 0)
(0.1579698 0.10236853 0)
(0.20002374 0.08793535 0)
(0.23784945 0.073684445 0)
(0.27007033 0.057893699 0)
(0.29477758 0.038770176 0)
(0.30926981 0.014362797 0)
(0.31017072 -0.017527782 0)
(0.29315361 -0.059671998 0)
(0.25286543 -0.11751079 0)
(0.18433572 -0.20124278 0)
(0.090561917 -0.32153645 0)
(-0.018392714 -0.45070987 0)
(-0.025280018 -0.40529826 0)
(-0.032455982 0.24083248 0)
(-0.04144815 0.21952801 0)
(0.042499082 0.16404563 0)
(0.12538152 0.12560619 0)
(0.2015032 0.097680111 0)
(0.26926501 0.077134942 0)
(0.32889794 0.062152746 0)
(0.38116289 0.050954476 0)
(0.4267497 0.041959793 0)
(0.46590665 0.033855926 0)
(0.49821269 0.025501166 0)
(0.5224755 0.01586377 0)
(0.53645632 0.0039375311 0)
(0.53756215 -0.011149599 0)
(0.52146239 -0.031194602 0)
(0.48213182 -0.059594275 0)
(0.41066351 -0.10529065 0)
(0.29904786 -0.19249578 0)
(0.12023137 -0.33646366 0)
(0.05143058 -0.3940141 0)
(0.2435818 0.15310147 0)
(0.30693186 0.11936084 0)
(0.45691865 0.0765954 0)
(0.5616121 0.050789794 0)
(0.63220135 0.034590382 0)
(0.6841089 0.02397845 0)
(0.72433334 0.017054771 0)
(0.75625894 0.012492603 0)
(0.78193874 0.0093074012 0)
(0.80250762 0.0068075604 0)
(0.81827846 0.0044958812 0)
(0.82888309 0.0020108563 0)
(0.83334936 -0.00094683425 0)
(0.83005522 -0.0043513577 0)
(0.81619598 -0.0089159713 0)
(0.78851512 -0.015584628 0)
(0.73795278 -0.026624331 0)
(0.65350161 -0.051274679 0)
(0.45624593 -0.11389489 0)
(0.31787405 -0.17221896 0)
)
;

boundaryField
{
    movingWall
    {
        type            fixedValue;
        value           uniform (1 0 0);
    }
    fixedWalls
    {
        type            fixedValue;
        value           uniform (0 0 0);
    }
    frontAndBack
    {
        type            empty;
    }
}


// ************************************************************************* //
