/*--------------------------------*- C++ -*----------------------------------*\
| =========                 |                                                 |
| \\      /  F ield         | OpenFOAM: The Open Source CFD Toolbox           |
|  \\    /   O peration     | Version:  2112                                  |
|   \\  /    A nd           | Website:  www.openfoam.com                      |
|    \\/     M anipulation  |                                                 |
\*---------------------------------------------------------------------------*/
FoamFile
{
    version     2.0;
    format      ascii;
    arch        "LSB;label=32;scalar=64";
    class       surfaceScalarField;
    location    "10.5";
    object      phi;
}
// * * * * * * * * * * * * * * * * * * * * * * * * * * * * * * * * * * * * * //

dimensions      [0 3 -1 0 0 0 0];

oriented        oriented;

internalField   nonuniform List<scalar> 
17370
(
-0.0915946
0.0960624
0.284543
-0.077686
0.05955
0.364911
-0.0431649
0.0317005
0.427633
-0.0223439
0.0162358
0.50536
-0.0115805
0.00865773
0.602325
-0.00641656
0.0049438
0.72053
-0.0037473
0.00290801
0.863746
-0.00217618
0.00163091
1.036
-0.00113037
0.000730345
1.2429
-0.000332088
-4.87442e-05
1.49157
0.000428852
-0.00082652
1.49159
0.00122146
-0.00171656
1.24319
0.00225628
-0.00298083
1.03636
0.00381265
-0.00500152
0.864095
0.00646837
-0.00870367
0.721293
0.0116198
-0.0162677
0.603862
0.0223681
-0.031716
0.508787
0.0431715
-0.0595506
0.432547
0.0776861
-0.0960617
0.365151
0.0916024
0.197408
-0.127205
0.0882126
0.0389919
-0.364477
0.354201
-0.0712663
0.0815426
-0.446506
0.454413
-0.0789967
0.0710901
-0.520881
0.529126
-0.0630259
0.0547806
-0.613016
0.620732
-0.0473702
0.0396548
-0.727293
0.733736
-0.0331131
0.0266702
-0.867653
0.872434
-0.0215252
0.0167439
-1.03854
1.04179
-0.0131052
0.0098568
-1.24464
1.24692
-0.00739782
0.00512237
-1.4927
1.49454
-0.00329256
0.00145204
-1.49253
1.4942
0.00023792
-0.00191352
-1.24402
1.24583
0.00373485
-0.0055426
-1.03758
1.04001
0.00779041
-0.0102252
-0.86622
0.869842
0.0134539
-0.0170757
-0.724727
0.729849
0.0218375
-0.0269599
-0.609181
0.615685
0.0333706
-0.0398741
-0.515085
0.522466
0.0475533
-0.0549346
-0.439714
0.447744
0.0631459
-0.0711757
-0.374779
0.377333
0.0790336
-0.0815878
-0.257071
0.224773
0.0713018
-0.0390044
-0.069155
0.0596929
0.00946201
-0.0512801
0.0578628
-0.375087
0.368504
-0.0568595
0.0528614
-0.454187
0.458185
-0.0472238
0.0425253
-0.527748
0.532447
-0.037847
0.0338488
-0.620693
0.624691
-0.0297003
0.0259124
-0.734463
0.738251
-0.0218315
0.0182008
-0.8737
0.877331
-0.0144468
0.0112498
-1.04303
1.04623
-0.0080133
0.005232
-1.24825
1.25104
-0.00227977
-0.000471502
-1.49656
1.49931
0.00321247
-0.00612593
-1.49698
1.49989
0.00886811
-0.0120539
-1.24972
1.2529
0.0151963
-0.0188786
-1.04539
1.04907
0.0224446
-0.0264584
-0.876961
0.880975
0.0302005
-0.0343121
-0.738859
0.74297
0.0382628
-0.0428874
-0.626082
0.630706
0.0475474
-0.053147
-0.535322
0.540922
0.0571046
-0.0580632
-0.458494
0.459453
0.0514257
-0.0314717
-0.337385
0.317431
0.00948864
-0.069088
0.0595993
-0.054139
0.0503814
0.00375759
-0.0309061
0.0405655
-0.359438
0.349779
-0.0439781
0.0435357
-0.459853
0.460296
-0.0410059
0.0381612
-0.536324
0.539169
-0.034767
0.0316226
-0.628324
0.631468
-0.0281451
0.0250113
-0.741609
0.744743
-0.0216343
0.0186
-0.880642
0.883677
-0.0152842
0.0122521
-1.04945
1.05249
-0.00891858
0.00586758
-1.25405
1.2571
-0.00250735
-0.000644091
-1.50227
1.50542
0.00378849
-0.00711166
-1.50308
1.5064
0.0100983
-0.0133468
-1.25624
1.25949
0.016299
-0.0195294
-1.0526
1.05583
0.0224882
-0.0257861
-0.88451
0.887808
0.0288592
-0.0322813
-0.746707
0.750129
0.0353689
-0.0386889
-0.634853
0.638173
0.0414748
-0.0439452
-0.544947
0.547417
0.044331
-0.0408456
-0.457658
0.454172
0.0310987
-0.0150601
-0.298935
0.282897
0.00378706
-0.0540205
0.0502335
-0.0475964
0.0454901
0.0021063
-0.0192752
0.0281362
-0.340263
0.331402
-0.0329233
0.0335659
-0.460143
0.459501
-0.0323301
0.0303694
-0.541372
0.543333
-0.028226
0.0261626
-0.634105
0.636168
-0.0237026
0.0213297
-0.747591
0.749963
-0.018647
0.0161666
-0.886462
0.888942
-0.0134213
0.0108863
-1.05525
1.05779
-0.00804648
0.00534657
-1.26
1.2627
-0.00219754
-0.000927259
-1.50864
1.51176
0.00402669
-0.00711463
-1.50967
1.51276
0.00974009
-0.0124844
-1.26249
1.26523
0.0149207
-0.0175455
-1.05874
1.06137
0.0199068
-0.0224665
-0.890809
0.893368
0.0247312
-0.0270646
-0.753111
0.755444
0.0290108
-0.0310509
-0.640739
0.642779
0.032936
-0.0340846
-0.549125
0.550274
0.0333571
-0.0284574
-0.449806
0.444907
0.0194843
-0.00839447
-0.269277
0.258187
0.00213877
-0.0474163
0.0452775
-0.0440509
0.0432241
0.000826821
-0.00923106
0.0153913
-0.32376
0.3176
-0.0202127
0.0220477
-0.458225
0.45639
-0.0221357
0.0213032
-0.544881
0.545714
-0.0201363
0.0189556
-0.637812
0.638992
-0.0177003
0.016543
-0.751603
0.75276
-0.015121
0.0136041
-0.890973
0.89249
-0.011665
0.00964174
-1.06008
1.06211
-0.00718673
0.00472592
-1.26526
1.26772
-0.00177348
-0.00118383
-1.5148
1.51776
0.00410247
-0.00696079
-1.5157
1.51856
0.0093146
-0.0116293
-1.26775
1.27006
0.0135063
-0.0152752
-1.06361
1.06538
0.0166415
-0.017897
-0.895226
0.896482
0.0189081
-0.0200948
-0.757028
0.758215
0.0211304
-0.0221826
-0.644486
0.645538
0.0229095
-0.0227025
-0.550723
0.550516
0.020749
-0.0157834
-0.439783
0.434818
0.00949017
-0.0036146
-0.249829
0.243954
0.000869775
-0.0438001
0.0429303
-0.0428059
0.0426001
0.000205834
-0.0039533
0.0078534
-0.312744
0.308844
-0.0121584
0.0148787
-0.45414
0.45142
-0.0164009
0.0169294
-0.545821
0.545293
-0.017108
0.0171058
-0.639429
0.639432
-0.0167037
0.0158799
-0.753741
0.754565
-0.0146234
0.0132283
-0.89386
0.895255
-0.0114013
0.00946373
-1.06399
1.06593
-0.00701544
0.00450855
-1.27014
1.27265
-0.0014887
-0.00148206
-1.52066
1.52363
0.0044288
-0.00736051
-1.5214
1.52433
0.00973618
-0.012012
-1.27228
1.27456
0.0137877
-0.0154364
-1.06698
1.06863
0.0166792
-0.0177516
-0.897612
0.898684
0.0183769
-0.0185368
-0.758872
0.759032
0.0183957
-0.0180659
-0.645708
0.645379
0.0173865
-0.0156933
-0.549639
0.547946
0.0128116
-0.00832551
-0.43014
0.425654
0.00426539
-0.00136103
-0.239886
0.236981
0.000256989
-0.042466
0.042209
-0.0425164
0.0425016
1.48198e-05
-0.00181082
0.00443363
-0.305658
0.303035
-0.00835546
0.011853
-0.448242
0.444745
-0.0148294
0.0166974
-0.544098
0.54223
-0.017645
0.0179398
-0.639316
0.639021
-0.0176924
0.0171024
-0.755219
0.755809
-0.0160236
0.0145989
-0.896617
0.898042
-0.0126026
0.0104063
-1.06799
1.07019
-0.00762061
0.00476115
-1.27533
1.27819
-0.00133366
-0.00204045
-1.52679
1.53016
0.00537144
-0.00865623
-1.52744
1.53072
0.0113108
-0.0138269
-1.27695
1.27947
0.0157655
-0.0174744
-1.07029
1.072
0.0186284
-0.0194556
-0.899564
0.900391
0.0198592
-0.0197956
-0.759005
0.758942
0.0192993
-0.0181213
-0.644734
0.643556
0.0160545
-0.0128734
-0.545446
0.542265
0.00917856
-0.00503359
-0.421323
0.417178
0.00220968
-0.000593714
-0.234852
0.233236
7.89334e-05
-0.0420694
0.0419904
-0.0425018
0.042499
2.78925e-06
-0.000992146
0.00273357
-0.30087
0.299129
-0.00589831
0.00936196
-0.441131
0.437667
-0.0129609
0.01563
-0.53985
0.537181
-0.0174792
0.0181366
-0.638596
0.637939
-0.0181896
0.017687
-0.756337
0.75684
-0.0165034
0.0149575
-0.899572
0.901118
-0.0128073
0.0104805
-1.07249
1.07482
-0.00756005
0.00457723
-1.28116
1.28414
-0.000932718
-0.00270122
-1.53371
1.53735
0.00626956
-0.00972827
-1.53414
1.5376
0.0124884
-0.0151008
-1.28208
1.28469
0.0170902
-0.0188492
-1.07378
1.07554
0.0200225
-0.0207408
-0.901207
0.901926
0.0208568
-0.020632
-0.758771
0.758546
0.0196653
-0.0175022
-0.641863
0.6397
0.0145555
-0.010659
-0.538582
0.534685
0.00692749
-0.00347425
-0.413307
0.409854
0.00148012
-0.000434881
-0.231947
0.230902
8.12417e-05
-0.0419185
0.0418372
-0.0425078
0.0425387
-3.09138e-05
-0.000342125
0.00127312
-0.297805
0.296874
-0.00324479
0.00571557
-0.434616
0.432145
-0.00862786
0.0109773
-0.534531
0.532182
-0.0129096
0.0140512
-0.636875
0.635733
-0.0145071
0.0143028
-0.757308
0.757512
-0.0135218
0.0123395
-0.902552
0.903734
-0.0105696
0.00856252
-1.07704
1.07905
-0.00596528
0.00325398
-1.28704
1.28975
9.88348e-05
-0.00346271
-1.54093
1.54429
0.00673731
-0.00985521
-1.54096
1.54408
0.0122992
-0.0145317
-1.28718
1.28941
0.016123
-0.0174082
-1.07714
1.07842
0.0181572
-0.0185076
-0.902593
0.902944
0.0183112
-0.017329
-0.757953
0.756971
0.0157561
-0.0133639
-0.637249
0.634857
0.0106285
-0.00732004
-0.530934
0.527625
0.00450955
-0.00218197
-0.406942
0.404614
0.000941949
-0.000302575
-0.230074
0.229435
6.77265e-05
-0.0417585
0.0416908
-0.0425864
0.0426488
-6.2391e-05
0.000108654
0.000250128
-0.296268
0.295909
-0.00119303
0.00252803
-0.430273
0.428938
-0.00426249
0.00578352
-0.530233
0.528712
-0.00716933
0.0080708
-0.634686
0.633785
-0.00862009
0.00871934
-0.757511
0.757412
-0.00838145
0.00767908
-0.904653
0.905356
-0.00648553
0.00502859
-1.08078
1.08224
-0.00304587
0.000918303
-1.29219
1.29432
0.0017306
-0.0043654
-1.54732
1.54995
0.00689377
-0.00923766
-1.54684
1.54918
0.0109672
-0.0124221
-1.29128
1.29274
0.0133525
-0.0139266
-1.07934
1.07991
0.0140529
-0.0137613
-0.902914
0.902622
0.0131053
-0.0119574
-0.755847
0.754699
0.0105497
-0.008643
-0.632684
0.630777
0.0066764
-0.00448453
-0.524883
0.522691
0.0027498
-0.00137989
-0.402818
0.401448
0.000647337
-0.000236629
-0.228934
0.228524
6.03549e-05
-0.0416301
0.0415697
-0.0427242
0.0428118
-8.75561e-05
0.000374978
-0.00036648
-0.295759
0.295751
5.70843e-05
0.000498814
-0.428042
0.427486
-0.0013019
0.00206167
-0.527598
0.526838
-0.00280007
0.00331458
-0.633069
0.632554
-0.00365411
0.003735
-0.757293
0.757213
-0.00354266
0.0030968
-0.9059
0.906345
-0.00229583
0.00128036
-1.08345
1.08447
0.000142377
-0.0016891
-1.29615
1.29769
0.00358801
-0.00544165
-1.55218
1.55404
0.00717277
-0.00867692
-1.5511
1.5526
0.00969643
-0.0104402
-1.29381
1.29455
0.0107787
-0.0108035
-1.08019
1.08021
0.0105255
-0.00993753
-0.902149
0.901561
0.00916642
-0.00810455
-0.753577
0.752515
0.00697245
-0.00560416
-0.629152
0.627784
0.00430818
-0.00295287
-0.520969
0.519614
0.00191173
-0.00107381
-0.400393
0.399555
0.000578365
-0.000244774
-0.228165
0.227832
7.03024e-05
-0.0415058
0.0414355
-0.0429091
0.0430179
-0.000108782
0.000583099
-0.000763748
-0.295832
0.296013
0.000817251
-0.000721186
-0.427192
0.427096
0.000499814
-0.000268577
-0.52637
0.526139
4.62432e-05
8.73921e-05
-0.632237
0.632104
-0.000123948
3.38985e-05
-0.757207
0.757297
0.000227013
-0.000630758
-0.906747
0.907151
0.00127322
-0.00204575
-1.08534
1.08611
0.00309525
-0.00420905
-1.299
1.30011
0.00553553
-0.00677741
-1.55556
1.5568
0.00786125
-0.00872033
-1.55375
1.55461
0.00917762
-0.00932666
-1.29498
1.29513
0.00925708
-0.00893877
-1.08005
1.07973
0.00845988
-0.00776218
-0.900907
0.900209
0.00700451
-0.00608274
-0.751527
0.750605
0.00518859
-0.00418817
-0.626626
0.625625
0.00329374
-0.00238569
-0.518525
0.517617
0.00167667
-0.00105946
-0.398856
0.398239
0.00063503
-0.000294074
-0.227502
0.227161
9.01502e-05
-0.0413563
0.0412661
-0.0431379
0.0432718
-0.000133955
0.000771973
-0.00110429
-0.296278
0.29661
0.00139056
-0.0015697
-0.427154
0.427333
0.00170518
-0.00181836
-0.526098
0.526211
0.00196393
-0.00213862
-0.632134
0.632309
0.00239263
-0.00269585
-0.757493
0.757796
0.00312143
-0.00360714
-0.907584
0.90807
0.00425575
-0.00495376
-1.08683
1.08753
0.00582476
-0.0066875
-1.30108
1.30194
0.00764687
-0.00846648
-1.55781
1.55863
0.00908552
-0.0094437
-1.55521
1.55557
0.00950667
-0.00934928
-1.2951
1.29494
0.00897848
-0.0084191
-1.07927
1.07871
0.00779309
-0.00702136
-0.899473
0.898701
0.00626867
-0.00541966
-0.749731
0.748882
0.00464405
-0.00381529
-0.624732
0.623903
0.00309551
-0.00236614
-0.516823
0.516094
0.00177163
-0.00120461
-0.397662
0.397095
0.000763522
-0.000368892
-0.226798
0.226403
0.00011657
-0.0411634
0.0410469
-0.0434235
0.0435927
-0.000169185
0.00100298
-0.00147235
-0.29701
0.297479
0.00194367
-0.00232647
-0.427617
0.428
0.00271627
-0.00307876
-0.526454
0.526817
0.00350472
-0.00393171
-0.632614
0.633041
0.00444829
-0.00497084
-0.758209
0.758731
0.00560395
-0.00623964
-0.908625
0.909261
0.00699719
-0.00773474
-1.08824
1.08897
0.00857181
-0.00932665
-1.30274
1.30349
0.0100809
-0.0106259
-1.5593
1.55984
0.0109203
-0.0109225
-1.55573
1.55573
0.0106841
-0.0102117
-1.29463
1.29416
0.00963551
-0.00888959
-1.07806
1.07732
0.00813932
-0.00727797
-0.897891
0.897029
0.00648
-0.00561557
-0.748036
0.747172
0.00485015
-0.00405019
-0.623104
0.622304
0.00336226
-0.00265841
-0.515392
0.514688
0.00206119
-0.0014531
-0.396516
0.395908
0.000944729
-0.000464939
-0.22597
0.22549
0.000148828
-0.040915
0.0407662
-0.0437851
0.0439992
-0.000214062
0.00128663
-0.00191047
-0.298022
0.298646
0.00256942
-0.00314139
-0.428472
0.429043
0.00375642
-0.00433761
-0.527286
0.527867
0.00501458
-0.00567574
-0.633586
0.634247
0.00644915
-0.0072013
-0.759368
0.760121
0.00807216
-0.00890357
-0.909989
0.910821
0.00983985
-0.0106967
-1.08976
1.09062
0.0116024
-0.0123521
-1.30423
1.30498
0.0130162
-0.0133916
-1.56029
1.56067
0.0134518
-0.0131761
-1.55559
1.55531
0.0126803
-0.0119438
-1.29355
1.29282
0.0111516
-0.0101977
-1.07647
1.07552
0.00928771
-0.00827971
-0.896102
0.895094
0.00737144
-0.00640756
-0.746267
0.745303
0.00556659
-0.0046959
-0.62148
0.62061
0.00394872
-0.00317723
-0.513961
0.51319
0.00250559
-0.00179608
-0.395257
0.394547
0.00118095
-0.000585765
-0.224957
0.224361
0.000188501
-0.0405989
0.0404104
-0.0442451
0.0445191
-0.000273927
0.00165329
-0.00246648
-0.299356
0.30017
0.00334328
-0.00412249
-0.429703
0.430482
0.00497347
-0.00577974
-0.528554
0.52936
0.00671396
-0.0076193
-0.635035
0.63594
0.00866813
-0.00967623
-0.761003
0.762011
0.0108252
-0.0118998
-0.911767
0.912842
0.0130779
-0.0141202
-1.09156
1.0926
0.015174
-0.0159938
-1.30576
1.30658
0.0166466
-0.0169173
-1.56098
1.56126
0.0167913
-0.0162643
-1.55491
1.55438
0.0155198
-0.0145051
-1.29194
1.29093
0.0134675
-0.0122627
-1.07444
1.07324
0.0111412
-0.00992141
-0.893985
0.892766
0.00883727
-0.0076978
-0.74426
0.74312
0.00671001
-0.00569076
-0.619677
0.618658
0.00481569
-0.00390668
-0.512363
0.511454
0.00310452
-0.00224173
-0.393769
0.392907
0.00148104
-0.000736889
-0.223697
0.222953
0.00023764
-0.0401997
0.039962
-0.044835
0.0451903
-0.000355337
0.00213762
-0.00319279
-0.301089
0.302144
0.00433916
-0.00536347
-0.431355
0.43238
0.00648142
-0.00753752
-0.530292
0.531348
0.00875517
-0.00993475
-0.637005
0.638185
0.0113011
-0.0126132
-0.763179
0.764491
0.014102
-0.0154831
-0.914053
0.915434
0.0169765
-0.018272
-1.09375
1.09504
0.019546
-0.0204964
-1.30745
1.3084
0.0211934
-0.0213944
-1.56148
1.56169
0.0210967
-0.0203087
-1.55373
1.55294
0.0192903
-0.0179566
-1.28976
1.28843
0.0166241
-0.0151049
-1.07188
1.07036
0.0137093
-0.0122064
-0.891405
0.889902
0.0108799
-0.00949175
-0.741861
0.740473
0.00829064
-0.00705088
-0.617544
0.616305
0.00598391
-0.00487052
-0.510465
0.509352
0.00388179
-0.00281066
-0.391953
0.390882
0.00186056
-0.000927053
-0.222122
0.221189
0.000299543
-0.0396988
0.0393993
-0.0455969
0.0460642
-0.000467376
0.00278562
-0.00415456
-0.303329
0.304698
0.00563869
-0.00695463
-0.433521
0.434837
0.00837599
-0.00971344
-0.532595
0.533932
0.0112558
-0.0127625
-0.639594
0.641101
0.0145222
-0.0162186
-0.765999
0.767696
0.0181417
-0.0199158
-0.916962
0.918736
0.0218172
-0.0234428
-1.09645
1.09807
0.0250094
-0.0261428
-1.3094
1.31054
0.0269217
-0.0270643
-1.56184
1.56198
0.0265804
-0.0254918
-1.552
1.55091
0.0241468
-0.0224265
-1.2869
1.28518
0.0207312
-0.0188179
-1.06864
1.06673
0.0170748
-0.0152097
-0.888205
0.886339
0.0135708
-0.0118597
-0.738917
0.737206
0.0103784
-0.00884506
-0.614941
0.613408
0.00751881
-0.00612687
-0.508145
0.506753
0.00488603
-0.00353921
-0.389702
0.388355
0.00234484
-0.00117007
-0.220151
0.218976
0.000379552
-0.0390739
0.0386943
-0.0465909
0.0472106
-0.000619732
0.00365209
-0.00542833
-0.306232
0.308008
0.00733434
-0.00899796
-0.436343
0.438007
0.0107712
-0.0124415
-0.535601
0.537271
0.0143891
-0.0163299
-0.642936
0.644877
0.0186289
-0.0208527
-0.769604
0.771828
0.0233521
-0.0256163
-0.920648
0.922912
0.0279999
-0.0300194
-1.09979
1.10181
0.0319416
-0.0332968
-1.31171
1.31307
0.0341722
-0.03424
-1.56206
1.56212
0.0335251
-0.0320652
-1.54963
1.54817
0.0303156
-0.0281151
-1.28322
1.28102
0.0259681
-0.0235626
-1.06455
1.06214
0.0213847
-0.019067
-0.884204
0.881886
0.0170392
-0.0149269
-0.735254
0.733142
0.0130971
-0.0111948
-0.611713
0.609811
0.00953611
-0.00777792
-0.505272
0.503514
0.00620047
-0.0044856
-0.386896
0.385181
0.00297165
-0.00148512
-0.217685
0.216199
0.000484754
-0.0382978
0.037813
-0.0479053
0.0487311
-0.000825826
0.00481533
-0.00713085
-0.310013
0.312329
0.00958475
-0.0116915
-0.440009
0.442116
0.0139084
-0.0160062
-0.539502
0.5416
0.0184866
-0.0209913
-0.647235
0.649739
0.023989
-0.0268794
-0.774192
0.777083
0.0300988
-0.0329883
-0.925275
0.928165
0.0359983
-0.0385029
-1.10392
1.10643
0.0408321
-0.0424219
-1.31443
1.31602
0.0433699
-0.0433065
-1.56207
1.56201
0.0422776
-0.0403394
-1.54645
1.54451
0.0380795
-0.0352767
-1.2785
1.2757
0.0325653
-0.0295455
-1.05939
1.05637
0.0268254
-0.0239456
-0.879191
0.876312
0.0214391
-0.0188396
-0.730676
0.728076
0.0165904
-0.0142454
-0.607681
0.605336
0.012181
-0.00996055
-0.501687
0.499467
0.0079418
-0.00573215
-0.383394
0.381185
0.0037909
-0.00189358
-0.214607
0.212709
0.000621085
-0.0373364
0.0367154
-0.0496662
0.0507917
-0.00112548
0.00647489
-0.00955004
-0.314961
0.318037
0.0127571
-0.0154612
-0.444769
0.447473
0.018273
-0.0209592
-0.54455
0.547236
0.0241855
-0.0274618
-0.652751
0.656027
0.0313515
-0.0350545
-0.780047
0.78375
0.039133
-0.0427542
-0.931079
0.9347
0.0464757
-0.0495028
-1.10896
1.11199
0.0522418
-0.0540347
-1.31758
1.31937
0.0549813
-0.0546814
-1.56175
1.56145
0.0532101
-0.0506468
-1.54223
1.53967
0.0477403
-0.0441847
-1.2725
1.26894
0.0407722
-0.0369899
-1.05291
1.04913
0.0335942
-0.0300125
-0.872924
0.869342
0.0269095
-0.0237101
-0.724953
0.721754
0.0209542
-0.0180855
-0.602632
0.599763
0.015544
-0.012772
-0.497193
0.494421
0.0102068
-0.00736049
-0.379013
0.376167
0.00484749
-0.00240119
-0.210766
0.20832
0.000784097
-0.0361434
0.0353593
-0.0520604
0.0536699
-0.00160957
0.00905907
-0.0132292
-0.321498
0.325668
0.0174321
-0.0208945
-0.451016
0.454478
0.0244759
-0.0279447
-0.551123
0.554592
0.0321736
-0.0364625
-0.659832
0.664121
0.041487
-0.0461741
-0.787475
0.792162
0.051242
-0.0556538
-0.938308
0.94272
0.0601007
-0.0636438
-1.11501
1.11855
0.0667522
-0.0686682
-1.32106
1.32297
0.0694818
-0.0687872
-1.56087
1.56018
0.0667011
-0.0633296
-1.53667
1.5333
0.0596154
-0.0551375
-1.26491
1.26043
0.0508714
-0.0461597
-1.04481
1.0401
0.0419347
-0.0374805
-0.865126
0.860672
0.0336267
-0.0296666
-0.717832
0.713872
0.0262714
-0.0227546
-0.596325
0.592808
0.0196363
-0.0162109
-0.491546
0.488121
0.0129913
-0.00936348
-0.3735
0.369872
0.00615706
-0.00304554
-0.205951
0.20284
0.000986178
-0.0346565
0.0336704
-0.0554058
0.0578422
-0.00243635
0.013285
-0.0190359
-0.330294
0.336045
0.0245617
-0.0290356
-0.459309
0.463783
0.0336899
-0.0382655
-0.559713
0.564289
0.0438475
-0.0494061
-0.668967
0.674526
0.0557465
-0.0615101
-0.796862
0.802626
0.0676071
-0.0728083
-0.947112
0.952313
0.0779309
-0.0818847
-1.122
1.12595
0.0851849
-0.0870209
-1.32464
1.32648
0.0874478
-0.0861153
-1.55904
1.55771
0.083184
-0.0787874
-1.52936
1.52497
0.0740939
-0.0685243
-1.25538
1.24981
0.0632601
-0.0574647
-1.03478
1.02899
0.0522676
-0.0467773
-0.855488
0.849997
0.0420148
-0.037116
-0.709018
0.70412
0.0329198
-0.0285881
-0.588483
0.584151
0.0247547
-0.0205377
-0.484455
0.480238
0.0165338
-0.0119752
-0.36651
0.361952
0.00787034
-0.00385836
-0.199898
0.195886
0.00123343
-0.0328003
0.0315669
-0.0603183
0.0642441
-0.00392582
0.0204269
-0.0284913
-0.342463
0.350527
0.0358464
-0.0417014
-0.470462
0.476317
0.0478578
-0.0539744
-0.570982
0.577098
0.0613285
-0.0683985
-0.680673
0.687743
0.0761772
-0.0830282
-0.808436
0.815287
0.090066
-0.0958824
-0.95743
0.963247
0.101391
-0.105427
-1.12963
1.13367
0.108513
-0.109886
-1.32786
1.32923
0.10951
-0.10718
-1.55573
1.5534
0.103096
-0.0974208
-1.51985
1.51417
0.0915705
-0.0847543
-1.24358
1.23676
0.0783773
-0.0713887
-1.02251
1.01552
0.0651268
-0.0584964
-0.843704
0.837074
0.0527244
-0.0467618
-0.698185
0.692222
0.0416371
-0.0363434
-0.578764
0.573471
0.0316532
-0.0264493
-0.475552
0.470348
0.0214193
-0.0155821
-0.357642
0.351805
0.0102498
-0.0050086
-0.192195
0.186954
0.00158322
-0.0304764
0.0288932
-0.0679843
0.0752404
-0.00725611
0.0342715
-0.0459757
-0.360135
0.37184
0.0558047
-0.0633101
-0.48566
0.493165
0.0712536
-0.0791846
-0.585692
0.593623
0.088401
-0.0968133
-0.695228
0.70364
0.105671
-0.113174
-0.821986
0.82949
0.12059
-0.126448
-0.968703
0.974561
0.131696
-0.135214
-1.13714
1.14066
0.13747
-0.137826
-1.32987
1.33023
0.13611
-0.132327
-1.55017
1.54639
0.126727
-0.119498
-1.5076
1.50037
0.112309
-0.104122
-1.22918
1.22099
0.0965543
-0.0883233
-1.0078
0.999569
0.0809711
-0.0731889
-0.829581
0.821799
0.066396
-0.0593459
-0.685092
0.678042
0.0532606
-0.0469639
-0.566835
0.560538
0.0413777
-0.0350936
-0.464359
0.458074
0.0287536
-0.0210755
-0.346183
0.338505
0.0137906
-0.00656416
-0.182187
0.17496
0.00197305
-0.0275465
0.0255734
-0.0822816
0.0854961
-0.00321451
0.0228015
-0.0327733
-0.386644
0.396616
0.0418782
-0.0496313
-0.505921
0.513674
0.0588358
-0.0685443
-0.603623
0.613331
0.0792439
-0.0888085
-0.711796
0.721361
0.0994582
-0.108874
-0.836306
0.845722
0.11865
-0.127034
-0.979545
0.987929
0.135371
-0.142053
-1.14314
1.14983
0.148005
-0.151895
-1.32945
1.33334
0.153959
-0.153313
-1.54141
1.54076
0.149824
-0.143879
-1.49209
1.48614
0.136877
-0.127966
-1.21197
1.20306
0.119217
-0.108692
-0.990597
0.980071
0.098999
-0.088308
-0.813161
0.80247
0.0787166
-0.0685061
-0.66979
0.65958
0.0592565
-0.049749
-0.552641
0.543134
0.0415187
-0.0321607
-0.450448
0.44109
0.0234013
-0.01429
-0.330944
0.321833
0.00746931
-0.00253641
-0.168384
0.163451
0.000316013
-0.0237796
0.0234636
-0.0927296
0.0890586
0.00367095
-0.000732276
-0.00506628
-0.409605
0.415404
0.0127055
-0.0196014
-0.525734
0.53263
0.0283395
-0.0367648
-0.623279
0.631704
0.0463661
-0.0551459
-0.730923
0.739703
0.064523
-0.0730358
-0.854729
0.863241
0.0818961
-0.0892239
-0.996106
1.00343
0.0967223
-0.102417
-1.15644
1.16213
0.10747
-0.110533
-1.33705
1.34012
0.111607
-0.110312
-1.53946
1.53816
0.106358
-0.100165
-1.4796
1.47341
0.0929314
-0.0840103
-1.19385
1.18493
0.0754194
-0.0655837
-0.96945
0.959614
0.0563706
-0.0461449
-0.791143
0.780918
0.0369998
-0.0276143
-0.647628
0.638242
0.0195956
-0.0113354
-0.531124
0.522864
0.00428659
0.00241023
-0.429245
0.422548
-0.00702232
0.00934165
-0.311486
0.309167
-0.00861761
0.00558316
-0.156814
0.159849
-0.00234237
-0.0220941
0.0244365
-0.0912918
0.0874829
0.00380884
-0.00823621
0.00581341
-0.424626
0.427049
-0.000956052
-0.00468395
-0.54246
0.5481
0.0118272
-0.0190072
-0.640462
0.647642
0.0271622
-0.0346597
-0.748027
0.755525
0.0428902
-0.0502262
-0.871112
0.878448
0.0576673
-0.0641994
-1.01063
1.01716
0.0707418
-0.0758528
-1.16754
1.17265
0.0800336
-0.0824324
-1.34273
1.34513
0.0832824
-0.0818414
-1.53647
1.53503
0.0780323
-0.0723138
-1.46701
1.46129
0.0658598
-0.0582235
-1.17637
1.16874
0.0506647
-0.0423998
-0.950033
0.941768
0.0348044
-0.0265387
-0.771448
0.763182
0.0194802
-0.0122759
-0.628654
0.62145
0.00637651
-0.000391066
-0.513191
0.507205
-0.00419771
0.0081535
-0.413915
0.40996
-0.010329
0.0101896
-0.302847
0.302986
-0.00787141
0.00448153
-0.158372
0.161762
-0.0017378
-0.0246645
0.0264023
-0.0883361
0.0847665
0.00356957
-0.0104908
0.00998451
-0.433918
0.434424
-0.00681421
0.00231324
-0.555596
0.560097
0.00377199
-0.00969219
-0.654651
0.660572
0.016571
-0.0229229
-0.76278
0.769132
0.029865
-0.0360896
-0.885361
0.891586
0.0428017
-0.0483565
-1.02333
1.02888
0.0541537
-0.0583147
-1.17748
1.18164
0.0620816
-0.0642726
-1.34753
1.34972
0.0649796
-0.0635069
-1.5335
1.53203
0.0603277
-0.0555692
-1.45555
1.45079
0.0501674
-0.0435503
-1.16148
1.15486
0.0374003
-0.0307831
-0.933904
0.927287
0.0246428
-0.0183298
-0.755606
0.749293
0.0126571
-0.00713639
-0.614031
0.60851
0.00267691
0.00140994
-0.500205
0.496118
-0.00430437
0.00660944
-0.403636
0.401331
-0.00771974
0.00694527
-0.298544
0.299318
-0.00516442
0.0028839
-0.160481
0.162762
-0.00114157
-0.0261555
0.0272971
-0.0855755
0.082684
0.00289149
-0.0102435
0.0109636
-0.439851
0.439131
-0.00848477
0.00489417
-0.566368
0.569959
6.77627e-06
-0.00525026
-0.666515
0.671759
0.0109411
-0.0164511
-0.775101
0.780611
0.022387
-0.0277488
-0.89746
0.902822
0.0334997
-0.0384744
-1.03436
1.03933
0.043463
-0.0474191
-1.18577
1.18973
0.0508379
-0.0528789
-1.35176
1.3538
0.0536348
-0.052451
-1.53069
1.52951
0.0498157
-0.0456673
-1.44581
1.44166
0.0411361
-0.0357322
-1.1487
1.1433
0.0306401
-0.0250737
-0.920908
0.915341
0.0201353
-0.0149934
-0.743226
0.738084
0.0105877
-0.00622297
-0.602977
0.598612
0.00281223
0.000248314
-0.490835
0.487774
-0.00251133
0.00413954
-0.396591
0.394962
-0.00476318
0.00449718
-0.295637
0.295903
-0.00344438
0.00187122
-0.160781
0.162354
-0.000813917
-0.0266919
0.0275058
-0.0834623
0.0811013
0.00236101
-0.00916581
0.0100821
-0.443634
0.442717
-0.00864689
0.00555008
-0.574707
0.577804
-0.00100551
-0.00340793
-0.67652
0.680934
0.00825402
-0.0130036
-0.785618
0.790368
0.0182403
-0.0230125
-0.907943
0.912715
0.0282767
-0.0326648
-1.0441
1.04849
0.0372233
-0.0408892
-1.19349
1.19716
0.0440719
-0.0460499
-1.35572
1.3577
0.0469064
-0.0463595
-1.52849
1.52794
0.0441371
-0.0407241
-1.43741
1.434
0.0367935
-0.0320917
-1.13804
1.13334
0.0278771
-0.0229545
-0.90998
0.905057
0.0186602
-0.0143416
-0.733133
0.728814
0.0105841
-0.00685427
-0.594285
0.590556
0.00389086
-0.00106777
-0.483629
0.480806
-0.000711228
0.00210088
-0.391013
0.389623
-0.0030063
0.00306124
-0.292453
0.292399
-0.00239717
0.00140339
-0.159886
0.16088
-0.00062736
-0.026683
0.0273104
-0.0819903
0.0801923
0.00179795
-0.00758471
0.00861439
-0.446299
0.44527
-0.00735726
0.00491864
-0.582021
0.58446
-0.000881555
-0.00303246
-0.685131
0.689045
0.00759267
-0.0116597
-0.794937
0.799004
0.0162462
-0.0204766
-0.917546
0.921776
0.025482
-0.0295015
-1.05297
1.05699
0.033622
-0.0371854
-1.20074
1.2043
0.0406381
-0.0426272
-1.3598
1.36179
0.0437573
-0.0434176
-1.52717
1.52683
0.0418538
-0.0386627
-1.43056
1.42736
0.0353148
-0.031241
-1.12865
1.12458
0.0273432
-0.0230678
-0.900329
0.896054
0.0191372
-0.0150355
-0.724371
0.720269
0.0118166
-0.00829572
-0.586657
0.583136
0.00540612
-0.00286298
-0.477196
0.474653
0.000966462
0.000655684
-0.386189
0.384566
-0.00157646
0.00189723
-0.289243
0.288922
-0.00159208
0.00100214
-0.158342
0.158932
-0.000486619
-0.026396
0.0268826
-0.081189
0.0797816
0.00140739
-0.00608007
0.00710437
-0.448343
0.447319
-0.00588947
0.00357686
-0.588315
0.590628
1.21701e-05
-0.00347734
-0.692778
0.696243
0.00736155
-0.0112662
-0.803176
0.80708
0.0154874
-0.0198433
-0.925896
0.930252
0.0241613
-0.0280171
-1.06117
1.06503
0.0322844
-0.0356598
-1.20783
1.21121
0.0387384
-0.0412205
-1.36379
1.36627
0.042657
-0.042733
-1.52663
1.5267
0.0414638
-0.0389165
-1.42444
1.42189
0.0359134
-0.0321472
-1.12026
1.11649
0.0285741
-0.0245234
-0.891692
0.887642
0.0208066
-0.0170331
-0.716224
0.712451
0.0136369
-0.0102712
-0.579418
0.576053
0.00751889
-0.00476624
-0.471323
0.46857
0.00268287
-0.00113185
-0.381253
0.379702
-1.19755e-05
0.000699013
-0.285759
0.285072
-0.000838298
0.000627378
-0.156387
0.156598
-0.000371216
-0.0259363
0.0263076
-0.0809862
0.0798037
0.00118251
-0.00453226
0.00523553
-0.450223
0.44952
-0.00422364
0.00199273
-0.59398
0.596211
0.00120435
-0.00447829
-0.699812
0.703086
0.00816149
-0.0116622
-0.810908
0.814409
0.0159675
-0.0195549
-0.934107
0.937694
0.0238271
-0.0275125
-1.06908
1.07277
0.0316953
-0.0352946
-1.21465
1.21825
0.0387042
-0.0410513
-1.36862
1.37097
0.042906
-0.0434413
-1.52678
1.52732
0.0428296
-0.0405794
-1.41925
1.417
0.0379213
-0.0343864
-1.11278
1.10924
0.0309925
-0.0269933
-0.883343
0.879344
0.0234273
-0.0195588
-0.708411
0.704542
0.0161631
-0.0126847
-0.572427
0.568949
0.00972552
-0.00703436
-0.465249
0.462558
0.00472536
-0.00290131
-0.376247
0.374423
0.00146948
-0.000491712
-0.281912
0.280934
-1.15704e-05
0.000310428
-0.153919
0.15362
-0.000257426
-0.0252755
0.0255329
-0.0810668
0.0802136
0.000853248
-0.00324648
0.00343082
-0.452323
0.452138
-0.00261999
0.000469924
-0.598851
0.601001
0.00234676
-0.00544472
-0.706247
0.709345
0.00892262
-0.0125105
-0.817869
0.821457
0.0162035
-0.0199169
-0.941509
0.945222
0.0241367
-0.0276203
-1.0769
1.08039
0.0319027
-0.0354918
-1.22174
1.22532
0.0390104
-0.0419227
-1.37382
1.37673
0.0443231
-0.045194
-1.528
1.52887
0.044849
-0.0432529
-1.4149
1.4133
0.0410218
-0.0376546
-1.10553
1.10216
0.0342682
-0.0304771
-0.87519
0.871399
0.0265521
-0.0227533
-0.700352
0.696553
0.0192732
-0.0155889
-0.565381
0.561697
0.0126144
-0.009594
-0.458982
0.455962
0.00714782
-0.0048531
-0.371138
0.368843
0.00324088
-0.00189846
-0.277647
0.276305
0.000829429
-6.42582e-05
-0.150948
0.150183
-0.000166608
-0.024384
0.0245506
-0.0815423
0.0808269
0.000715366
-0.00226211
0.0024225
-0.454656
0.454495
-0.00111918
-0.000749135
-0.603654
0.605522
0.00361985
-0.00652868
-0.71211
0.715019
0.00981079
-0.0129839
-0.824794
0.827967
0.0167556
-0.0201403
-0.948956
0.952341
0.0242893
-0.0281755
-1.08433
1.08822
0.0321163
-0.0360422
-1.22901
1.23294
0.0400159
-0.0430888
-1.37967
1.38274
0.0459409
-0.0476466
-1.53009
1.5318
0.0477866
-0.0467927
-1.41161
1.41062
0.0447001
-0.0416223
-1.09877
1.09569
0.0384186
-0.0345061
-0.867146
0.863233
0.0306481
-0.0266238
-0.69217
0.688146
0.0229759
-0.0190186
-0.55773
0.553773
0.0157221
-0.0125232
-0.452351
0.449152
0.0096684
-0.00706572
-0.365415
0.362813
0.00504657
-0.00326983
-0.272768
0.270991
0.00181517
-0.000542935
-0.14741
0.146138
-1.45273e-05
-0.0233217
0.0233362
-0.0822362
0.0816657
0.000570417
-0.00127626
0.00121026
-0.457137
0.457203
-0.00014326
-0.00194884
-0.607939
0.610031
0.00465463
-0.0073514
-0.717634
0.720331
0.0106607
-0.0136508
-0.831157
0.834147
0.0172358
-0.0207035
-0.956185
0.959653
0.0247319
-0.0285675
-1.09198
1.09582
0.0327138
-0.0366775
-1.23683
1.24079
0.0408698
-0.0447308
-1.38619
1.39005