/*--------------------------------*- C++ -*----------------------------------*\
| =========                 |                                                 |
| \\      /  F ield         | OpenFOAM: The Open Source CFD Toolbox           |
|  \\    /   O peration     | Version:  2112                                  |
|   \\  /    A nd           | Website:  www.openfoam.com                      |
|    \\/     M anipulation  |                                                 |
\*---------------------------------------------------------------------------*/
FoamFile
{
    version     2.0;
    format      ascii;
    arch        "LSB;label=32;scalar=64";
    class       volScalarField;
    location    "20";
    object      p;
}
// * * * * * * * * * * * * * * * * * * * * * * * * * * * * * * * * * * * * * //

dimensions      [0 2 -2 0 0 0 0];

internalField   nonuniform List<scalar> 
400
(
1.2991797e-06
-0.00067138511
-0.0013838046
-0.0019411112
-0.0022183591
-0.0021548183
-0.0017260851
-0.00092447732
0.00023714606
0.0017091196
0.0033889798
0.005113868
0.006675136
0.0078507619
0.0084600707
0.008425407
0.0078151752
0.0068463536
0.0058631724
0.0053008298
0.00065927392
-3.9045757e-05
-0.00056814676
-0.00093907304
-0.0011092702
-0.0010382896
-0.00070412449
-9.3851203e-05
0.00079081093
0.001917904
0.0032112995
0.0045564109
0.0057836667
0.0067179699
0.0072161603
0.0072162993
0.0067717663
0.0060546211
0.0053124091
0.0047403834
0.0014250992
0.00044209934
-0.00011511601
-0.00045172136
-0.00061324459
-0.00058320313
-0.00034492913
0.0001214321
0.00083017771
0.0017716427
0.0028960345
0.0040999072
0.0052299824
0.0061127243
0.0065956403
0.0065994668
0.0061575772
0.005423388
0.0045956545
0.0037501615
0.0020155561
0.00068311002
1.8233318e-05
-0.00035734915
-0.00056999771
-0.00062495367
-0.0005084198
-0.0001889151
0.00037026061
0.001186174
0.0022317157
0.0034192322
0.0045931683
0.0055587444
0.0061253702
0.006168403
0.0056854985
0.0048189675
0.0037492457
0.0024755823
0.0021686045
0.00049753191
-0.00029479852
-0.00074719819
-0.0010566882
-0.0012436359
-0.0012910382
-0.0011495182
-0.00075320541
-5.1213963e-05
0.00095893076
0.0022121921
0.00354661
0.0047345532
0.0055237307
0.0057117836
0.0052312148
0.0042035721
0.0028081942
0.00098601593
0.0016553056
-0.00031304682
-0.0012373021
-0.0017977587
-0.0022510461
-0.0026262038
-0.0028968158
-0.0029891784
-0.0028005489
-0.0022356322
-0.0012490265
0.00013296422
0.0017466997
0.0033291348
0.0045436418
0.0050677647
0.0047194927
0.0035682288
0.0017916701
-0.00072378504
0.00028842348
-0.0019180815
-0.0029714514
-0.0036697657
-0.0043185853
-0.0049513736
-0.0055281653
-0.0059458708
-0.006056809
-0.0057051061
-0.0047733982
-0.0032563854
-0.0012642352
0.00090939709
0.0028252867
0.0039889494
0.004027189
0.0028898174
0.00071753238
-0.0026782727
-0.0020749258
-0.004449604
-0.0056251547
-0.0064905911
-0.0073910711
-0.008363767
-0.0093547637
-0.010229465
-0.010788511
-0.010802277
-0.010060741
-0.0084591434
-0.0060382008
-0.0030807375
-0.00012392909
0.002114907
0.0029660488
0.0021377869
-0.00036379674
-0.0048702887
-0.0055225128
-0.0079903893
-0.0092761328
-0.010331907
-0.011535978
-0.01293322
-0.014460314
-0.01595373
-0.017159705
-0.017763145
-0.017435121
-0.015916508
-0.013120054
-0.0092489687
-0.0048963631
-0.0010275188
0.001271789
0.0012800808
-0.0013316339
-0.0071992671
-0.010075073
-0.012563209
-0.013934715
-0.01518195
-0.016716172
-0.018600217
-0.020771567
-0.023045904
-0.025118627
-0.026583145
-0.02696606
-0.025809639
-0.02284244
-0.018071344
-0.012048166
-0.0059492241
-0.0013681859
0.00030302918
-0.0019447995
-0.0093797459
-0.015682947
-0.018130357
-0.019535443
-0.020924585
-0.02275535
-0.025127278
-0.027994169
-0.031163317
-0.034288162
-0.036873381
-0.038290618
-0.037840698
-0.035062362
-0.029598121
-0.021819344
-0.012982648
-0.005182266
-0.0007132115
-0.0017617396
-0.010789748
-0.022241364
-0.024610821
-0.025943336
-0.027332597
-0.029321631
-0.032076481
-0.035585956
-0.039661419
-0.043923817
-0.047797683
-0.050526497
-0.051232824
-0.048953289
-0.043140106
-0.033765772
-0.021923323
-0.010034092
-0.0014128518
-7.3960209e-06
-0.010223147
-0.029638818
-0.031921549
-0.032976384
-0.034077427
-0.035936913
-0.038828701
-0.042792562
-0.047648302
-0.052987047
-0.058159957
-0.062280563
-0.064261892
-0.062871641
-0.057108844
-0.046473598
-0.03164615
-0.015035129
-0.00086184259
0.0046491726
-0.0055191838
-0.037863498
-0.04004609
-0.040437724
-0.040750059
-0.042012476
-0.044650295
-0.048755182
-0.054140823
-0.060352617
-0.066661823
-0.072057151
-0.075264833
-0.074808081
-0.069266198
-0.057625454
-0.039958847
-0.018245471
0.0027914018
0.014447404
0.0069096918
-0.047228043
-0.049131931
-0.048138195
-0.046879901
-0.046903036
-0.048796068
-0.052665436
-0.058272928
-0.065072839
-0.07222865
-0.078592449
-0.082709138
-0.082877248
-0.077306694
-0.064521495
-0.04393271
-0.016745874
0.012504984
0.032940756
0.032410813
-0.058894289
-0.059637529
-0.055881657
-0.051938821
-0.049970038
-0.050627461
-0.053926013
-0.059492475
-0.066608804
-0.074282159
-0.081188078
-0.085676489
-0.085829151
-0.079519866
-0.064874075
-0.040687472
-0.0072392636
0.032140998
0.064983068
0.07775072
-0.076224155
-0.072611527
-0.063514143
-0.055433418
-0.050723013
-0.049779429
-0.052309945
-0.057661723
-0.064888978
-0.072772039
-0.079776483
-0.084034051
-0.083389253
-0.075346917
-0.057600975
-0.028373719
0.012934572
0.065397738
0.11555278
0.15150745
-0.10809011
-0.089554348
-0.071232051
-0.057231349
-0.049070433
-0.046328328
-0.048075108
-0.053200172
-0.06043197
-0.068293107
-0.075024674
-0.078524376
-0.07638676
-0.065807791
-0.043863961
-0.0078172319
0.044394696
0.11299913
0.18838143
0.27186175
-0.17684366
-0.10828788
-0.076200893
-0.054649783
-0.042990894
-0.038996352
-0.040568547
-0.045925781
-0.053439037
-0.061435733
-0.068024977
-0.070960113
-0.06754898
-0.054737998
-0.029147324
0.013564787
0.078147939
0.17006525
0.28949635
0.47421912
-0.37208173
-0.1247068
-0.054971559
-0.031961138
-0.022062166
-0.020298965
-0.024357629
-0.031955873
-0.041259178
-0.050638349
-0.058314338
-0.062185009
-0.059780318
-0.048054912
-0.022656969
0.021475473
0.092819771
0.21015371
0.40288934
0.77641022
)
;

boundaryField
{
    movingWall
    {
        type            zeroGradient;
    }
    fixedWalls
    {
        type            zeroGradient;
    }
    frontAndBack
    {
        type            empty;
    }
}


// ************************************************************************* //
