/*--------------------------------*- C++ -*----------------------------------*\
| =========                 |                                                 |
| \\      /  F ield         | OpenFOAM: The Open Source CFD Toolbox           |
|  \\    /   O peration     | Version:  2112                                  |
|   \\  /    A nd           | Website:  www.openfoam.com                      |
|    \\/     M anipulation  |                                                 |
\*---------------------------------------------------------------------------*/
FoamFile
{
    version     2.0;
    format      ascii;
    arch        "LSB;label=32;scalar=64";
    class       surfaceScalarField;
    location    "20";
    object      phi;
}
// * * * * * * * * * * * * * * * * * * * * * * * * * * * * * * * * * * * * * //

dimensions      [0 3 -1 0 0 0 0];

oriented        oriented;

internalField   nonuniform List<scalar> 
760
(
1.2694406e-05
-1.2709512e-05
-2.872734e-05
4.1421752e-05
-0.00012229133
9.3563997e-05
-0.00025039067
0.00012809936
-0.00039606444
0.00014567378
-0.00054537564
0.00014931121
-0.00068625162
0.00014087599
-0.00080686849
0.00012061689
-0.0008949264
8.8057928e-05
-0.00093836377
4.3437385e-05
-0.00092724891
-1.1114845e-05
-0.00085683951
-7.0409385e-05
-0.00073041169
-0.00012642781
-0.00056133008
-0.00016908159
-0.00037275473
-0.00018857533
-0.00019447345
-0.00017828127
-5.6524374e-05
-0.00013794906
1.9611381e-05
-7.6135734e-05
3.0409619e-05
-1.0798217e-05
3.0409639e-05
-4.318517e-05
3.0475666e-05
-0.00020456304
0.00020279964
-0.00046831118
0.00035731215
-0.00080068134
0.00046046954
-0.0011673099
0.00051230234
-0.0015363949
0.00051839626
-0.0018781606
0.00048264176
-0.0021636055
0.00040606182
-0.002364462
0.00028891439
-0.0024552681
0.00013424357
-0.0024180657
-4.8317267e-05
-0.0022452907
-0.00024318435
-0.0019475019
-0.00042421653
-0.0015544296
-0.00056215384
-0.0011142968
-0.00062870813
-0.00068746315
-0.0006051149
-0.00033452298
-0.00049088921
-0.00010089824
-0.00030976044
-1.5533929e-06
-0.00011014304
2.8856264e-05
-0.00011002477
0.00014050045
-0.00040301876
0.00049579365
-0.00083135926
0.00078565266
-0.001345569
0.00097467933
-0.0018985299
0.0010652632
-0.0024464924
0.0010663588
-0.002947927
0.00098407638
-0.0033625006
0.00082063541
-0.0036517655
0.00057817937
-0.0037821922
0.00026467024
-0.0037297045
-0.00010080486
-0.0034857056
-0.00048718322
-0.0030631851
-0.00084673704
-0.0024999249
-0.001125414
-0.0018581876
-0.0012704454
-0.0012181171
-0.0012451854
-0.00066372475
-0.0010452815
-0.0002630868
-0.00071039835
-4.7956764e-05
-0.00032527305
-1.9100484e-05
-0.00017343333
0.00031393379
-0.00059327008
0.00091563042
-0.0011776509
0.0013700335
-0.0018583006
0.0016553291
-0.0025768138
0.0017837765
-0.0032811891
0.0017707341
-0.0039226542
0.0016255415
-0.0044539817
0.0013519629
-0.0048300968
0.00095429447
-0.0050110702
0.00044564366
-0.0049670965
-0.00014477846
-0.0046842891
-0.00076999065
-0.0041722262
-0.0013587998
-0.0034690292
-0.001828611
-0.0026439392
-0.0020955354
-0.0017931566
-0.0020959679
-0.0010258277
-0.0018126105
-0.00044020659
-0.0012960194
-9.6722663e-05
-0.00066875694
-0.00011582313
-0.0002297862
0.00054372
-0.00076504439
0.0014508886
-0.0014914277
0.0020964169
-0.0023224599
0.0024863613
-0.0031900234
0.00265134
-0.0040366786
0.0026173893
-0.0048098708
0.0023987337
-0.0054587831
0.0020008752
-0.0059339919
0.0014295033
-0.0061896232
0.00070127492
-0.0061882128
-0.0001461888
-0.0059054003
-0.0010528031
-0.005340261
-0.0019239392
-0.0045229896
-0.0026458823
-0.0035228823
-0.0030956427
-0.0024497423
-0.0031691079
-0.0014425045
-0.0028198482
-0.00064121677
-0.0020973071
-0.00014883392
-0.0011611398
-0.00026465703
-0.00027728653
0.00082100654
-0.00091151148
0.0020851136
-0.001760664
0.0029455694
-0.0027227095
0.0034484068
-0.0037220804
0.0036507109
-0.0046985357
0.0035938446
-0.0055987095
0.0032989077
-0.0063709936
0.0027731594
-0.0069635229
0.0020220326
-0.0073246305
0.0010623826
-0.0074072612
-6.3558074e-05
-0.0071715083
-0.001288556
-0.0065987204
-0.002496727
-0.0057015373
-0.0035430653
-0.0045399076
-0.0042572724
-0.0032317643
-0.0044772512
-0.0019489745
-0.004102638
-0.00088726701
-0.0031590146
-0.00021158939
-0.0018368173
-0.0004762464
-0.00031410341
0.00113511
-0.0010262999
0.0027973101
-0.0019734355
0.003892705
-0.003041647
0.0045166183
-0.0041505766
0.0047596405
-0.0052397752
0.0046830432
-0.0062578822
0.0043170147
-0.0071553192
0.0036705964
-0.007880153
0.0027468664
-0.0083766273
0.001558857
-0.00858518
0.00014499467
-0.0084511229
-0.001422613
-0.007929321
-0.0030185289
-0.0070048096
-0.0044675766
-0.0057149193
-0.0055471626
-0.0041734904
-0.00601868
-0.0025817881
-0.0056943403
-0.001204078
-0.0045367246
-0.0002944973
-0.002746398
-0.00077074368
-0.0003382364
0.0014733464
-0.0011031314
0.0035622052
-0.0021175643
0.004907138
-0.0032597865
0.0056588405
-0.0044472727
0.0059471267
-0.005621801
0.0058575715
-0.0067367674
0.0054319812
-0.0077477716
0.0046816006
-0.0086061719
0.0036052668
-0.0092550471
0.0022077322
-0.009626815
0.00051676271
-0.0096490156
-0.0014004124
-0.0092488047
-0.0034187398
-0.0083737872
-0.0053425941
-0.0070219422
-0.0068990076
-0.0052817146
-0.0077589076
-0.0033676021
-0.0076084527
-0.0016173312
-0.0062869955
-0.00040826022
-0.003955469
-0.0011790039
-0.00034814653
0.0018214929
-0.0011371845
0.0043512432
-0.0021827319
0.0059526853
-0.003358536
0.0068346447
-0.0045821338
0.0071707244
-0.005799693
0.0070751308
-0.0069720506
0.0066043389
-0.0080635147
0.0057730647
-0.0090332843
0.0045750364
-0.0098288363
0.0030032842
-0.01038112
0.0010690465
-0.010604376
-0.001177156
-0.010400636
-0.0036224805
-0.0096747638
-0.0060684658
-0.0083685585
-0.0082052128
-0.0065155909
-0.0096118752
-0.0043098184
-0.0098142251
-0.0021482879
-0.008448526
-0.00056491489
-0.0055388419
-0.0017439187
-0.00034392921
0.0021654221
-0.0011278411
0.0051351552
-0.0021646744
0.0069895186
-0.0033258491
0.0079958194
-0.0045307339
0.0083756093
-0.0057318639
0.0082762608
-0.0069001336
0.0077726087
-0.0080122907
0.0068852218
-0.0090407356
0.0056034814
-0.0099448786
0.0039074273
-0.010663309
0.0017874769
-0.011106661
-0.00073380422
-0.011163335
-0.0035658057
-0.010697043
-0.0065347584
-0.0095825159
-0.0093197395
-0.0077667015
-0.01142769
-0.0053714419
-0.012209485
-0.0028071433
-0.011012825
-0.00077835736
-0.0075676278
-0.0025222761
-0.00032890741
0.0024943296
-0.0010824179
0.0058886657
-0.0020707684
0.0079778691
-0.0031635982
0.0090886493
-0.0042838826
0.0094958937
-0.0053928321
0.0093852104
-0.0064741204
0.0088538971
-0.0075205321
0.0079316336
-0.0085229075
0.0066058569
-0.0094603395
0.0048448594
-0.010291331
0.0026184681
-0.010933222
-9.1912459e-05
-0.011283202
-0.0032158256
-0.011173614
-0.0066443471
-0.010415682
-0.010077671
-0.0088466957
-0.012996676
-0.0064557129
-0.014600468
-0.003581497
-0.01388704
-0.0010642112
-0.010084914
-0.0035864873
-0.00031178922
0.0028061188
-0.0010206921
0.0065975686
-0.0019261209
0.0088832979
-0.002894977
0.010057505
-0.003856918
0.010457835
-0.0047856069
0.010313899
-0.0056808193
0.0097491095
-0.0065545188
0.0088053331
-0.007419962
0.0074713003
-0.008281905
0.0057068025
-0.0091252379
0.0034618011
-0.0099087223
0.00069157202
-0.010527328
-0.0025972195
-0.010827068
-0.0063446071
-0.01057366
-0.010331079
-0.0094932157
-0.01407712
-0.0073911272
-0.016702556
-0.0044188969
-0.016859271
-0.0014372019
-0.013066609
-0.0050236891
-0.0003100533
0.0031161721
-0.0009803942
0.0072679096
-0.001779099
0.0096820027
-0.0025694361
0.010847843
-0.0032946846
0.011183083
-0.0039480029
0.010967218
-0.0045500924
0.010351199
-0.0051349218
0.0093901625
-0.0057400677
0.0080764462
-0.0063986795
0.0063654143
-0.0071302845
0.0041934062
-0.0079304127
0.0014917003
-0.0087389476
-0.0017886845
-0.0094304803
-0.0056530743
-0.0097686739
-0.0099928856
-0.0094004021
-0.014445392
-0.0079306042
-0.018172354
-0.0052061622
-0.019583713
-0.0019026067
-0.016370164
-0.0069262958
-0.0003560554
0.0034722276
-0.001024041
0.0079358952
-0.0017043065
0.010362268
-0.0022609062
0.011404442
-0.002665858
0.011588035
-0.0029441704
0.01124553
-0.0031444296
0.010551458
-0.0033250624
0.0095707954
-0.0035473976
0.0082987815
-0.0038712549
0.0066892717
-0.0043493789
0.0046715303
-0.0050185815
0.002160903
-0.005876801
-0.00093046491
-0.0068580028
-0.0046718724
-0.0077764268
-0.0090744615
-0.0082659367
-0.013955882
-0.0077688
-0.01866949
-0.0057511222
-0.02160139
-0.0024366727
-0.019684613
-0.0093629684
-0.00050827957
0.0039805072
-0.0012456856
0.0086733012
-0.0017959794
0.010912562
-0.0020481354
0.011656599
-0.0020326784
0.011572578
-0.0018256279
0.01103848
-0.0015124159
0.010238246
-0.0011780972
0.0092364768
-0.00090495638
0.0080256408
-0.00077396251
0.0065582779
-0.00086372591
0.0047612938
-0.0012475822
0.0025447593
-0.0019830406
-0.00019500646
-0.003082056
-0.0035728569
-0.0044601926
-0.007696325
-0.0058276134
-0.012588461
-0.0065662488
-0.017930855
-0.0057684891
-0.02239915
-0.0029512346
-0.022501868
-0.012314203
-0.00086857241
0.0048490796
-0.0017630402
0.0095677691
-0.0021214574
0.011270979
-0.0019369918
0.011472133
-0.0013511075
0.010986694
-0.00051640886
0.010203781
0.00043680349
0.009285034
0.0013993651
0.0082739153
0.0022721268
0.0071528791
0.0029606717
0.0058697331
0.0033689191
0.0043530464
0.0033965841
0.0025170943
0.0029383491
0.00026322858
0.0019094349
-0.0025439426
0.00026953203
-0.006056422
-0.001854289
-0.01046464
-0.0039516883
-0.015833456
-0.0048608864
-0.021489952
-0.0032547195
-0.024108035
-0.015568923
-0.0015910987
0.0064401784
-0.0026109007
0.010587571
-0.002513226
0.011173305
-0.0015900391
0.010548946
-0.00017234199
0.0095689968
0.0014925978
0.0085388416
0.003232673
0.0075449589
0.0049230015
0.0065835869
0.0064627597
0.005613121
0.0077572723
0.0045752205
0.0087072931
0.0034030257
0.0092013009
0.0020230866
0.0091031682
0.00036136135
0.0082749396
-0.001715714
0.0065653318
-0.0043468142
0.0039041298
-0.0078034378
0.00055887685
-0.012488203
-0.0024681041
-0.018462971
-0.0030273354
-0.023548804
-0.018596258
-0.0027183652
0.0091585436
-0.0031498901
0.011019096
-0.0018030538
0.0098264682
0.00046661031
0.008279282
0.0030892967
0.0069463104
0.0057736533
0.005854485
0.0083627171
0.0049558952
0.010760201
0.0041861031
0.012893293
0.0034800293
0.014690467
0.0027780464
0.016068166
0.002025327
0.016923124
0.0011681284
0.017119575
0.00016491004
0.016490715
-0.0010868536
0.014816747
-0.0026728467
0.011846584
-0.0048332742
0.0074354358
-0.0080770547
0.0022628922
-0.013290427
-0.0012724835
-0.020013428
-0.019868741
-0.0024132746
0.011571818
2.805829e-05
0.0085777637
0.0042551254
0.0055994013
0.0084160855
0.004118322
0.012231419
0.0031309767
0.01565617
0.002429734
0.01868643
0.0019256352
0.021329058
0.0015434756
0.023583351
0.0012257358
0.025429089
0.00093230907
0.026820043
0.00063437283
0.027677072
0.00031109931
0.027900114
-5.8131631e-05
0.027347156
-0.00053389635
0.025771583
-0.0010972732
0.022843013
-0.001904704
0.018054746
-0.003288788
0.011113571
-0.006349252
0.0033886687
-0.012288526
-0.016480073
0.011571818
0.020149582
0.025748983
0.029867305
0.032998282
0.035428016
0.037353651
0.038897127
0.040122862
0.041055171
0.041689544
0.042000644
0.041942512
0.041408616
0.040311342
0.038406638
0.03511785
0.028768598
0.016480073
)
;

boundaryField
{
    movingWall
    {
        type            calculated;
        value           uniform 0;
    }
    fixedWalls
    {
        type            calculated;
        value           uniform 0;
    }
    frontAndBack
    {
        type            empty;
        value           nonuniform List<scalar> 0();
    }
}


// ************************************************************************* //
