/*--------------------------------*- C++ -*----------------------------------*\
| =========                 |                                                 |
| \\      /  F ield         | OpenFOAM: The Open Source CFD Toolbox           |
|  \\    /   O peration     | Version:  2112                                  |
|   \\  /    A nd           | Website:  www.openfoam.com                      |
|    \\/     M anipulation  |                                                 |
\*---------------------------------------------------------------------------*/
FoamFile
{
    version     2.0;
    format      ascii;
    arch        "LSB;label=32;scalar=64";
    class       volVectorField;
    location    "20";
    object      U;
}
// * * * * * * * * * * * * * * * * * * * * * * * * * * * * * * * * * * * * * //

dimensions      [0 1 -1 0 0 0 0];

internalField   nonuniform List<vector> 
400
(
(0.00028433434 -0.00028147198 0)
(0.00011054081 7.9924126e-05 0)
(-0.0013272333 0.00047800111 0)
(-0.0036218386 0.00073590161 0)
(-0.006423492 0.00086749227 0)
(-0.0094312176 0.0009072408 0)
(-0.012387644 0.00087483919 0)
(-0.015056003 0.00077150646 0)
(-0.017194046 0.00058847141 0)
(-0.018552316 0.00032007593 0)
(-0.018902088 -2.4807254e-05 0)
(-0.018085657 -0.00041824766 0)
(-0.016079487 -0.00079968988 0)
(-0.013048647 -0.0010930428 0)
(-0.0093662193 -0.0012211722 0)
(-0.0055776024 -0.00112945 0)
(-0.0023003687 -0.00081285694 0)
(-8.3016684e-05 -0.00033798681 0)
(0.00076009882 0.00015227524 0)
(0.00040942307 0.0003893207 0)
(-8.6112549e-05 -0.00012368677 0)
(-0.0018692904 0.0017871351 0)
(-0.0063063815 0.0036259066 0)
(-0.012452318 0.0048623202 0)
(-0.019600031 0.0054983403 0)
(-0.02710608 0.0056204822 0)
(-0.034357783 0.0052858558 0)
(-0.040767568 0.0045042351 0)
(-0.045756723 0.0032661242 0)
(-0.048774398 0.0015896241 0)
(-0.049365193 -0.0004354183 0)
(-0.047252518 -0.0026180603 0)
(-0.042450896 -0.00466435 0)
(-0.03536065 -0.006218695 0)
(-0.026778048 -0.0069373696 0)
(-0.017826955 -0.0065920922 0)
(-0.0097754304 -0.0051796736 0)
(-0.0037463102 -0.0029994103 0)
(-0.00038880258 -0.00066557778 0)
(0.00028987053 0.00078349678 0)
(-0.00058808134 0.001433553 0)
(-0.0042426932 0.0063772624 0)
(-0.011758179 0.010640194 0)
(-0.021467962 0.013483131 0)
(-0.032365082 0.014897788 0)
(-0.043586518 0.015016875 0)
(-0.054285572 0.0139357 0)
(-0.063640436 0.011683873 0)
(-0.070853548 0.0082811387 0)
(-0.075186015 0.0038286144 0)
(-0.076037275 -0.0014057427 0)
(-0.073055677 -0.0069352967 0)
(-0.066264868 -0.012071249 0)
(-0.056167914 -0.015999678 0)
(-0.043779773 -0.017942174 0)
(-0.030568535 -0.017379471 0)
(-0.018250327 -0.014289648 0)
(-0.0084178667 -0.0093121583 0)
(-0.0021511249 -0.0037618518 0)
(-1.9856533e-06 0.00031689393 0)
(-0.0010530297 0.0043002171 0)
(-0.0065146175 0.013565221 0)
(-0.016998485 0.020863312 0)
(-0.03002978 0.025560307 0)
(-0.044298971 0.027760465 0)
(-0.0587822 0.027686996 0)
(-0.072485014 0.025486789 0)
(-0.084444061 0.021217773 0)
(-0.093725866 0.014944751 0)
(-0.099461075 0.0068783547 0)
(-0.10092709 -0.0025009439 0)
(-0.097659993 -0.012377771 0)
(-0.089590564 -0.02160449 0)
(-0.077180152 -0.028823728 0)
(-0.061503521 -0.032705004 0)
(-0.044252584 -0.032298995 0)
(-0.027561615 -0.027445224 0)
(-0.013581498 -0.01908034 0)
(-0.0040262963 -0.009270618 0)
(-0.00026772548 -0.0011082581 0)
(-0.0014558013 0.0083646941 0)
(-0.008548703 0.023180299 0)
(-0.021745328 0.034050303 0)
(-0.037790937 0.040761491 0)
(-0.055094746 0.043700099 0)
(-0.072516809 0.04325746 0)
(-0.08898114 0.039660129 0)
(-0.10345478 0.033000362 0)
(-0.11492831 0.023383704 0)
(-0.12243292 0.011116751 0)
(-0.12511142 -0.0031283868 0)
(-0.12231625 -0.018218324 0)
(-0.11375829 -0.032540165 0)
(-0.099695542 -0.044130943 0)
(-0.081098386 -0.050964567 0)
(-0.059774839 -0.051439688 0)
(-0.038290277 -0.045012455 0)
(-0.019520021 -0.032754833 0)
(-0.0060922193 -0.017491591 0)
(-0.00051101685 -0.0035220547 0)
(-0.0017888526 0.013474882 0)
(-0.010269278 0.034959404 0)
(-0.02580445 0.049906607 0)
(-0.044465002 0.058792487 0)
(-0.064425256 0.062456016 0)
(-0.084474451 0.061548713 0)
(-0.10351293 0.056414203 0)
(-0.12049949 0.047180877 0)
(-0.13439968 0.033969656 0)
(-0.14416958 0.017132389 0)
(-0.14879921 -0.0025351671 0)
(-0.14738929 -0.023635001 0)
(-0.13930751 -0.044140684 0)
(-0.12443246 -0.061439863 0)
(-0.10342914 -0.07263996 0)
(-0.078054069 -0.075171735 0)
(-0.051259746 -0.067704995 0)
(-0.026808851 -0.051123024 0)
(-0.0086121128 -0.028965136 0)
(-0.00078705679 -0.0070521048 0)
(-0.0020419471 0.019435692 0)
(-0.011605188 0.048526909 0)
(-0.02899469 0.06799561 0)
(-0.049755903 0.079222969 0)
(-0.071889097 0.08365434 0)
(-0.094158908 0.082294931 0)
(-0.11549634 0.075647364 0)
(-0.13491093 0.063875244 0)
(-0.15139895 0.047075128 0)
(-0.16388036 0.025567803 0)
(-0.17118804 0.00016396239 0)
(-0.17215043 -0.027608875 0)
(-0.16571188 -0.055393895 0)
(-0.15118864 -0.079942844 0)
(-0.12869782 -0.097348113 0)
(-0.099667891 -0.10369564 0)
(-0.067240414 -0.096283647 0)
(-0.036118356 -0.075218491 0)
(-0.011929473 -0.044538946 0)
(-0.001170789 -0.012001325 0)
(-0.0022012064 0.026012278 0)
(-0.01248429 0.063417008 0)
(-0.03113889 0.087761026 0)
(-0.053352878 0.10148646 0)
(-0.077015389 0.10677336 0)
(-0.10090916 0.10507035 0)
(-0.12404671 0.09708539 0)
(-0.14554805 0.0830194 0)
(-0.16450571 0.062901179 0)
(-0.17987196 0.036930843 0)
(-0.19039529 0.0057965874 0)
(-0.19465188 -0.029031402 0)
(-0.19113273 -0.065015282 0)
(-0.17848653 -0.098387688 0)
(-0.15602212 -0.12417378 0)
(-0.12444268 -0.13675917 0)
(-0.086645039 -0.1313259 0)
(-0.048062847 -0.10623048 0)
(-0.016429035 -0.065391923 0)
(-0.0017537492 -0.018878104 0)
(-0.0022556459 0.032931932 0)
(-0.012853373 0.079085417 0)
(-0.032098098 0.10853095 0)
(-0.054980474 0.12485981 0)
(-0.079332976 0.13108852 0)
(-0.10399187 0.12919537 0)
(-0.12809764 0.12014817 0)
(-0.15094215 0.10419925 0)
(-0.17179425 0.081277211 0)
(-0.18974162 0.051375596 0)
(-0.20357317 0.014916551 0)
(-0.21172609 -0.026873937 0)
(-0.21232231 -0.071529287 0)
(-0.20333547 -0.11502233 0)
(-0.18306035 -0.15144293 0)
(-0.15101581 -0.17328085 0)
(-0.10916399 -0.172818 0)
(-0.063025378 -0.1452408 0)
(-0.022524576 -0.09297625 0)
(-0.002658901 -0.028421681 0)
(-0.0022086001 0.039903018 0)
(-0.012716879 0.094940775 0)
(-0.031840781 0.12953562 0)
(-0.05449594 0.14845357 0)
(-0.078498857 0.15563067 0)
(-0.10276949 0.15366216 0)
(-0.12661972 0.14384261 0)
(-0.14957479 0.126511 0)
(-0.1711691 0.10149132 0)
(-0.19075396 0.068517158 0)
(-0.20732536 0.027628754 0)
(-0.21937602 -0.020392016 0)
(-0.22488611 -0.073458793 0)
(-0.22130488 -0.12768493 0)
(-0.2058531 -0.17661621 0)
(-0.17647465 -0.21098743 0)
(-0.13334518 -0.21960874 0)
(-0.080898199 -0.19275027 0)
(-0.03064146 -0.12885025 0)
(-0.0040699922 -0.041636301 0)
(-0.0020933537 0.046661719 0)
(-0.012189706 0.11041492 0)
(-0.030536102 0.149961 0)
(-0.052017355 0.17123778 0)
(-0.074464647 0.17918747 0)
(-0.096919482 0.17711666 0)
(-0.11891362 0.16672629 0)
(-0.14026613 0.14850041 0)
(-0.1608618 0.12219134 0)
(-0.18044307 0.087272756 0)
(-0.19840287 0.043353861 0)
(-0.21353678 -0.0093873865 0)
(-0.22401449 -0.069673574 0)
(-0.22708261 -0.13412969 0)
(-0.21908908 -0.19644904 0)
(-0.19626575 -0.24624761 0)
(-0.15621842 -0.26885573 0)
(-0.10070548 -0.24798404 0)
(-0.041145594 -0.17433222 0)
(-0.0062705237 -0.059832952 0)
(-0.0019963742 0.053055941 0)
(-0.011565683 0.12507991 0)
(-0.028661303 0.16904039 0)
(-0.048057106 0.19210392 0)
(-0.067639058 0.20035164 0)
(-0.086644654 0.19790846 0)
(-0.10489684 0.18696386 0)
(-0.12257057 0.16821639 0)
(-0.13996534 0.14140815 0)
(-0.15729911 0.1057993 0)
(-0.17451723 0.060573131 0)
(-0.19108537 0.0052279782 0)
(-0.20560316 -0.059919512 0)
(-0.21550715 -0.13260444 0)
(-0.21690224 -0.20752399 0)
(-0.20457843 -0.27431392 0)
(-0.17317481 -0.31571344 0)
(-0.12017061 -0.30807571 0)
(-0.05414716 -0.22988067 0)
(-0.0096748022 -0.084651949 0)
(-0.0020996861 0.059182908 0)
(-0.011415239 0.13881255 0)
(-0.027116177 0.18616889 0)
(-0.04362606 0.20994217 0)
(-0.058982816 0.21759679 0)
(-0.072779762 0.21419366 0)
(-0.085252228 0.20247052 0)
(-0.097003729 0.1833922 0)
(-0.10879143 0.15675546 0)
(-0.12135333 0.1216867 0)
(-0.1352571 0.077016804 0)
(-0.1507059 0.021620344 0)
(-0.16712505 -0.045108073 0)
(-0.18274271 -0.12251302 0)
(-0.19405574 -0.20712283 0)
(-0.19523658 -0.29011115 0)
(-0.17829507 -0.35358129 0)
(-0.13540565 -0.36743431 0)
(-0.069088882 -0.29414984 0)
(-0.01479494 -0.11798311 0)
(-0.0027678125 0.065618855 0)
(-0.012741539 0.15199573 0)
(-0.027331172 0.20099332 0)
(-0.04024636 0.22367926 0)
(-0.049930999 0.2293266 0)
(-0.056646322 0.22403386 0)
(-0.06123589 0.21107786 0)
(-0.064819635 0.19168013 0)
(-0.068624564 0.16571992 0)
(-0.073879001 0.13227407 0)
(-0.081732236 0.08996166 0)
(-0.093124076 0.037202169 0)
(-0.10847307 -0.027476656 0)
(-0.1272173 -0.10497376 0)
(-0.14705725 -0.19421803 0)
(-0.16280585 -0.28948361 0)
(-0.16509234 -0.37509637 0)
(-0.14090225 -0.41772381 0)
(-0.084061694 -0.36281118 0)
(-0.022011588 -0.16157266 0)
(-0.0047197199 0.073834008 0)
(-0.017223081 0.16572423 0)
(-0.031285795 0.21337515 0)
(-0.039685457 0.23217055 0)
(-0.041886446 0.23379887 0)
(-0.039354663 0.22539153 0)
(-0.033816604 0.21061021 0)
(-0.027004759 0.19080947 0)
(-0.020596596 0.16589766 0)
(-0.01622006 0.13493983 0)
(-0.015480932 0.096472227 0)
(-0.019929964 0.048691872 0)
(-0.030922777 -0.010410573 0)
(-0.04923809 -0.082918275 0)
(-0.074402477 -0.17014099 0)
(-0.10327945 -0.27050047 0)
(-0.12725664 -0.3736932 0)
(-0.12973619 -0.4486855 0)
(-0.094915216 -0.4275047 0)
(-0.030930689 -0.21612675 0)
(-0.0093001336 0.086951792 0)
(-0.027432772 0.18185202 0)
(-0.040983163 0.22303132 0)
(-0.042681844 0.23378689 0)
(-0.034408562 0.22879957 0)
(-0.019626407 0.2159206 0)
(-0.0012426712 0.19877825 0)
(0.018341005 0.17856372 0)
(0.037066865 0.15508333 0)
(0.053051121 0.12735987 0)
(0.064417189 0.093937385 0)
(0.06922682 0.053016101 0)
(0.065411265 0.0024643408 0)
(0.051043925 -0.060337595 0)
(0.024639836 -0.13837501 0)
(-0.013704648 -0.23416999 0)
(-0.058755951 -0.34516899 0)
(-0.093512342 -0.44953858 0)
(-0.094470515 -0.47558675 0)
(-0.039216217 -0.28048182 0)
(-0.018580407 0.11087147 0)
(-0.046040194 0.2017759 0)
(-0.055231338 0.22793032 0)
(-0.043986922 0.22501588 0)
(-0.019375292 0.21061104 0)
(0.012329952 0.1922783 0)
(0.046989193 0.17278361 0)
(0.081749984 0.15265316 0)
(0.1144336 0.13135259 0)
(0.14314899 0.10779585 0)
(0.16601276 0.080592396 0)
(0.18097738 0.048113277 0)
(0.18557264 0.0084505582 0)
(0.17716265 -0.040816242 0)
(0.15275679 -0.1031751 0)
(0.10948654 -0.18390532 0)
(0.047238678 -0.28855397 0)
(-0.021440584 -0.41050973 0)
(-0.072253562 -0.49101625 0)
(-0.041147623 -0.35054233 0)
(-0.03335225 0.15561564 0)
(-0.068601877 0.22040431 0)
(-0.055188071 0.21729165 0)
(-0.016080021 0.19532343 0)
(0.034509116 0.17092233 0)
(0.088505132 0.14849353 0)
(0.14176541 0.1286117 0)
(0.19196552 0.11057699 0)
(0.23753701 0.093297373 0)
(0.27711651 0.075575226 0)
(0.30921468 0.056181941 0)
(0.33204014 0.033824016 0)
(0.34317288 0.0070280998 0)
(0.33982649 -0.025909653 0)
(0.31813054 -0.067741058 0)
(0.27327567 -0.12410744 0)
(0.200446 -0.2058468 0)
(0.10213888 -0.32506888 0)
(-0.012387746 -0.45457142 0)
(-0.023756777 -0.40864046 0)
(-0.033081056 0.23907338 0)
(-0.042647047 0.21792024 0)
(0.042207155 0.16426617 0)
(0.12760414 0.12783543 0)
(0.20769703 0.101435 0)
(0.2802801 0.081657642 0)
(0.34487111 0.066647686 0)
(0.40158064 0.054702743 0)
(0.45054804 0.044399355 0)
(0.49161776 0.034639998 0)
(0.52415933 0.024550823 0)
(0.54698381 0.013382052 0)
(0.55822046 0.00040013716 0)
(0.5557079 -0.015136936 0)
(0.5355251 -0.034968845 0)
(0.4924458 -0.062487961 0)
(0.41797217 -0.10694751 0)
(0.30410556 -0.1931754 0)
(0.1231376 -0.33691903 0)
(0.052374134 -0.39437911 0)
(0.24299934 0.15257487 0)
(0.30529638 0.11854297 0)
(0.45481238 0.076108184 0)
(0.56000896 0.050840167 0)
(0.63223309 0.035126006 0)
(0.68654873 0.024812205 0)
(0.72943756 0.017960003 0)
(0.7637954 0.013255861 0)
(0.79127824 0.0097621817 0)
(0.8127504 0.0068543881 0)
(0.82841039 0.0041185856 0)
(0.83794315 0.0012769475 0)
(0.84057013 -0.0018441211 0)
(0.8349752 -0.0053261774 0)
(0.81886681 -0.009828892 0)
(0.78942864 -0.016232704 0)
(0.73784292 -0.026935693 0)
(0.65316768 -0.051286559 0)
(0.45609769 -0.11374605 0)
(0.31788988 -0.17206004 0)
)
;

boundaryField
{
    movingWall
    {
        type            fixedValue;
        value           uniform (1 0 0);
    }
    fixedWalls
    {
        type            fixedValue;
        value           uniform (0 0 0);
    }
    frontAndBack
    {
        type            empty;
    }
}


// ************************************************************************* //
