/*--------------------------------*- C++ -*----------------------------------*\
| =========                 |                                                 |
| \\      /  F ield         | OpenFOAM: The Open Source CFD Toolbox           |
|  \\    /   O peration     | Version:  2112                                  |
|   \\  /    A nd           | Website:  www.openfoam.com                      |
|    \\/     M anipulation  |                                                 |
\*---------------------------------------------------------------------------*/
FoamFile
{
    version     2.0;
    format      ascii;
    arch        "LSB;label=32;scalar=64";
    class       volScalarField;
    location    "43";
    object      p;
}
// * * * * * * * * * * * * * * * * * * * * * * * * * * * * * * * * * * * * * //

dimensions      [0 2 -2 0 0 0 0];

internalField   nonuniform List<scalar> 
400
(
2.073321e-09
-0.00067287367
-0.0013853515
-0.0019427096
-0.0022200028
-0.0021564997
-0.0017277952
-0.00092620458
0.00023541585
0.0017074004
0.0033872809
0.0051121915
0.0066734755
0.0078491028
0.0084583919
0.0084236864
0.0078133974
0.0068445152
0.0058612936
0.0052989353
0.000657841
-4.0526218e-05
-0.00056966003
-0.00094062589
-0.0011108637
-0.0010399214
-0.00070579076
-9.5545878e-05
0.000789097
0.0019161822
0.00320958
0.0045546984
0.0057819575
0.0067162542
0.0072144244
0.0072145297
0.0067699541
0.0060527654
0.0053105212
0.0047384787
0.0014236984
0.00044064895
-0.00011660084
-0.00045324407
-0.00061480938
-0.00058481203
-0.00034658119
0.00011974091
0.00082845446
0.0017698978
0.00289428
0.0040981508
0.0052282257
0.0061109621
0.0065938625
0.0065976623
0.0061557371
0.005421508
0.0045937392
0.003748226
0.002014193
0.00068168317
1.6767176e-05
-0.00035885516
-0.00057155139
-0.00062656214
-0.00051008556
-0.00019063449
0.00036849637
0.0011843774
0.002229901
0.0034174116
0.00459135
0.0055569275
0.0061235456
0.0061665581
0.0056836204
0.0048170478
0.0037472855
0.0024735904
0.0021672635
0.00049611241
-0.00029626386
-0.00074870942
-0.0010582571
-0.0012452748
-0.0012927537
-0.0011513068
-0.0007550543
-5.310496e-05
0.00095701672
0.0022102716
0.0035446965
0.0047326503
0.0055218321
0.0057098756
0.0052292801
0.0042015971
0.0028061748
0.00098395139
0.0016539544
-0.00031448612
-0.0012387944
-0.0017993072
-0.0022526678
-0.0026279156
-0.0028986283
-0.0029910893
-0.0028025416
-0.0022376802
-0.0012511006
0.00013088386
0.0017446339
0.0033270952
0.0045416282
0.0050657639
0.0047174822
0.0035661863
0.001789581
-0.00072593436
0.00028701682
-0.0019195781
-0.0029730062
-0.00367139
-0.0043203038
-0.004953208
-0.0055301296
-0.0059479648
-0.0060590138
-0.0057073885
-0.0047757216
-0.0032587055
-0.001266524
0.00090716052
0.0028231096
0.0039868205
0.0040250799
0.0028876939
0.00071536457
-0.002680515
-0.002076438
-0.0044511999
-0.0056268117
-0.0064923306
-0.0073929285
-0.0083657715
-0.0093569322
-0.010231797
-0.010790988
-0.010804857
-0.010063373
-0.0084617726
-0.0060407808
-0.0030832339
-0.00012632443
0.0021126066
0.0029638116
0.002135566
-0.00036605025
-0.0048726268
-0.0055241765
-0.007992123
-0.0092779287
-0.010333797
-0.011538007
-0.012935426
-0.014462721
-0.015956336
-0.017162486
-0.017766056
-0.017438101
-0.015919489
-0.013122973
-0.0092517762
-0.0048990266
-0.0010300339
0.0012693929
0.001277747
-0.0013339751
-0.0072016947
-0.010076923
-0.012565106
-0.013936674
-0.015184012
-0.016718388
-0.018602634
-0.020774214
-0.023048783
-0.025121708
-0.026586377
-0.026969377
-0.025812966
-0.022845699
-0.01807447
-0.012051113
-0.0059519735
-0.0013707579
0.00030057607
-0.0019472205
-0.0093822424
-0.015684998
-0.018132425
-0.01953757
-0.020926821
-0.022757747
-0.025129886
-0.027997026
-0.031166426
-0.034291493
-0.036876876
-0.038294205
-0.037844311
-0.035065885
-0.029601495
-0.021822521
-0.012985599
-0.0051849956
-0.00071576938
-0.0017642174
-0.010792273
-0.022243613
-0.02461305
-0.025945611
-0.027334977
-0.029324174
-0.032079238
-0.035588961
-0.03966468
-0.043927303
-0.047801332
-0.050530218
-0.051236512
-0.048956909
-0.043143576
-0.033769042
-0.021926366
-0.010036904
-0.0014154633
-9.8851797e-06
-0.010225637
-0.029641235
-0.03192391
-0.032978765
-0.034079894
-0.035939534
-0.038831531
-0.042795632
-0.047651613
-0.05299057
-0.058163622
-0.062284278
-0.064265561
-0.062875187
-0.057112215
-0.046476769
-0.031649111
-0.015037883
-0.00086440865
0.0046467459
-0.0055215543
-0.037866028
-0.040048535
-0.040440156
-0.040752537
-0.04201508
-0.044653095
-0.048758214
-0.054144081
-0.060356064
-0.066665382
-0.072060721
-0.075268312
-0.074811389
-0.069269293
-0.057628332
-0.039961531
-0.018247991
0.0027890209
0.014445141
0.0069075326
-0.047230611
-0.049134389
-0.048140603
-0.046882308
-0.046905526
-0.048798731
-0.052668324
-0.05827604
-0.065076128
-0.072232027
-0.0785958
-0.082712351
-0.082880236
-0.077309416
-0.064523962
-0.043934976
-0.016748006
0.012502932
0.032938771
0.032408941
-0.05889681
-0.059639912
-0.055883944
-0.051941064
-0.04997233
-0.050629905
-0.053928684
-0.059495376
-0.066611891
-0.074285327
-0.081191199
-0.085679435
-0.085831825
-0.07952222
-0.064876123
-0.040689287
-0.0072409365
0.032139359
0.064981439
0.07774917
-0.076226538
-0.072613752
-0.06351621
-0.0554354
-0.050725032
-0.049781612
-0.052312364
-0.057664395
-0.064891852
-0.072775003
-0.079779398
-0.084036778
-0.083391684
-0.075348988
-0.057602697
-0.02837516
0.012933313
0.065396465
0.1155515
0.15150622
-0.10809228
-0.089556359
-0.071233858
-0.057233038
-0.04907216
-0.046330239
-0.048077287
-0.053202632
-0.060434652
-0.068295896
-0.075027425
-0.078526945
-0.076389037
-0.065809703
-0.043865504
-0.0078184678
0.044393655
0.11299814
0.18838042
0.27186076
-0.1768456
-0.10828972
-0.076202499
-0.054651264
-0.04299241
-0.03899806
-0.040570539
-0.045928072
-0.053441567
-0.061438389
-0.068027616
-0.070962589
-0.067551163
-0.054739863
-0.029148839
0.013563581
0.078146942
0.17006435
0.28949545
0.47421821
-0.37208364
-0.12470856
-0.054973113
-0.031962547
-0.022063585
-0.020300551
-0.024359486
-0.031958029
-0.04126159
-0.050640917
-0.058316932
-0.062187495
-0.059782584
-0.048056839
-0.022658554
0.021474186
0.092818705
0.21015276
0.40288841
0.77640928
)
;

boundaryField
{
    movingWall
    {
        type            zeroGradient;
    }
    fixedWalls
    {
        type            zeroGradient;
    }
    frontAndBack
    {
        type            empty;
    }
}


// ************************************************************************* //
