/*--------------------------------*- C++ -*----------------------------------*\
| =========                 |                                                 |
| \\      /  F ield         | OpenFOAM: The Open Source CFD Toolbox           |
|  \\    /   O peration     | Version:  2112                                  |
|   \\  /    A nd           | Website:  www.openfoam.com                      |
|    \\/     M anipulation  |                                                 |
\*---------------------------------------------------------------------------*/
FoamFile
{
    version     2.0;
    format      ascii;
    arch        "LSB;label=32;scalar=64";
    class       volScalarField;
    location    "34";
    object      p;
}
// * * * * * * * * * * * * * * * * * * * * * * * * * * * * * * * * * * * * * //

dimensions      [0 2 -2 0 0 0 0];

internalField   nonuniform List<scalar> 
400
(
3.3509033e-08
-0.00067283834
-0.0013853158
-0.0019426737
-0.0022199667
-0.0021564634
-0.0017277591
-0.00092616886
0.00023545125
0.0017074351
0.0033873141
0.0051122231
0.0066735072
0.0078491375
0.0084584317
0.0084237314
0.0078134444
0.0068445602
0.0058613351
0.005298975
0.00065787632
-4.0490438e-05
-0.00056962437
-0.00094059025
-0.0011108278
-0.0010398852
-0.00070575447
-9.5509939e-05
0.00078913279
0.0019162183
0.0032096158
0.0045547326
0.0057819904
0.0067162878
0.0072144612
0.0072145697
0.0067699942
0.0060528035
0.0053105593
0.0047385166
0.0014237339
0.0004406847
-0.00011656514
-0.0004532085
-0.00061477378
-0.000584776
-0.00034654438
0.00011977857
0.00082849319
0.0017699379
0.0028943206
0.0040981898
0.0052282593
0.0061109895
0.0065938878
0.0065976894
0.0061557663
0.0054215397
0.0045937749
0.0037482648
0.0020142286
0.00068171876
1.6802884e-05
-0.00035881943
-0.00057151587
-0.00062652667
-0.00051004937
-0.00019059683
0.00036853564
0.0011844181
0.0022299433
0.0034174533
0.0045913863
0.0055569566
0.0061235711
0.0061665842
0.0056836488
0.0048170803
0.0037473231
0.0024736308
0.0021672993
0.00049614794
-0.00029622825
-0.00074867354
-0.0010582213
-0.0012452399
-0.0012927197
-0.0011512729
-0.00075501915
-5.3067447e-05
0.00095705782
0.0022103159
0.0035447411
0.0047326921
0.00552187
0.0057099099
0.0052293127
0.0042016316
0.0028062134
0.0009839918
0.0016539904
-0.00031445036
-0.0012387587
-0.0017992713
-0.0022526315
-0.00262788
-0.0028985954
-0.0029910593
-0.0028025118
-0.0022376473
-0.0012510627
0.00013092817
0.0017446829
0.0033271449
0.0045416741
0.0050658031
0.0047175161
0.0035662201
0.0017896185
-0.0007258951
0.00028705278
-0.0019195419
-0.0029729702
-0.0036713539
-0.0043202663
-0.0049531696
-0.0055300933
-0.0059479332
-0.0060589861
-0.0057073605
-0.0047756897
-0.0032586684
-0.0012664826
0.00090720488
0.0028231533
0.0039868593
0.0040251138
0.0028877274
0.00071540116
-0.0026804768
-0.0020764024
-0.0044511637
-0.0056267754
-0.0064922942
-0.0073928903
-0.0083657302
-0.0093568892
-0.010231758
-0.010790957
-0.010804832
-0.010063347
-0.0084617445
-0.0060407488
-0.0030831973
-0.00012628512
0.0021126446
0.0029638469
0.0021356009
-0.00036601359
-0.0048725893
-0.0055241409
-0.0079920874
-0.0092778932
-0.010333761
-0.011537969
-0.012935386
-0.014462674
-0.015956287
-0.017162445
-0.017766026
-0.017438075
-0.015919462
-0.013122942
-0.0092517406
-0.0048989883
-0.0010299958
0.0012694295
0.0012777833
-0.0013339381
-0.0072016575
-0.010076886
-0.012565071
-0.013936641
-0.015183978
-0.016718353
-0.018602598
-0.020774171
-0.02304873
-0.025121656
-0.026586335
-0.026969342
-0.025812933
-0.022845663
-0.018074432
-0.012051074
-0.0059519352
-0.0013707208
0.00030061284
-0.0019471835
-0.0093822054
-0.015684959
-0.018132389
-0.019537538
-0.020926789
-0.022757716
-0.025129856
-0.02799699
-0.031166379
-0.034291439
-0.036876825
-0.038294162
-0.037844273
-0.035065848
-0.029601458
-0.021822482
-0.01298556
-0.005184958
-0.00071573225
-0.0017641803
-0.010792236
-0.022243573
-0.02461301
-0.025945573
-0.027334945
-0.029324147
-0.032079211
-0.035588932
-0.039664645
-0.043927261
-0.047801285
-0.050530173
-0.051236472
-0.048956872
-0.04314354
-0.033769004
-0.021926328
-0.010036866
-0.0014154258
-9.8478629e-06
-0.0102256
-0.029641197
-0.031923868
-0.032978717
-0.034079854
-0.03593951
-0.038831506
-0.042795601
-0.047651584
-0.05299054
-0.058163586
-0.062284237
-0.06426552
-0.062875149
-0.057112178
-0.046476731
-0.031649073
-0.015037845
-0.00086437107
0.0046467833
-0.005521517
-0.037865996
-0.040048497
-0.040440099
-0.040752483
-0.04201505
-0.044653068
-0.048758178
-0.054144046
-0.060356032
-0.06666535
-0.072060685
-0.075268273
-0.074811351
-0.069269255
-0.057628295
-0.039961494
-0.018247954
0.0027890581
0.014445179
0.0069075696
-0.047230584
-0.049134361
-0.048140553
-0.046882242
-0.046905479
-0.048798697
-0.052668287
-0.058276
-0.06507609
-0.07223199
-0.078595763
-0.082712314
-0.082880199
-0.077309379
-0.064523925
-0.043934939
-0.016747969
0.012502969
0.032938807
0.032408977
-0.058896783
-0.059639887
-0.055883917
-0.05194101
-0.049972272
-0.050629859
-0.053928646
-0.05949534
-0.066611854
-0.074285289
-0.081191161
-0.085679397
-0.085831789
-0.079522184
-0.064876087
-0.040689251
-0.0072409004
0.032139395
0.064981475
0.077749207
-0.076226507
-0.072613708
-0.063516203
-0.055435383
-0.050724989
-0.049781561
-0.052312319
-0.057664357
-0.064891816
-0.072774966
-0.07977936
-0.08403674
-0.083391647
-0.075348952
-0.057602661
-0.028375124
0.012933349
0.065396501
0.11555154
0.15150625
-0.10809225
-0.089556288
-0.071233833
-0.057233034
-0.049072142
-0.046330204
-0.048077246
-0.053202593
-0.060434615
-0.068295859
-0.075027388
-0.078526908
-0.076389
-0.065809667
-0.043865468
-0.0078184322
0.04439369
0.11299818
0.18838045
0.27186079
-0.1768456
-0.10828965
-0.076202426
-0.05465122
-0.042992379
-0.038998027
-0.040570503
-0.045928034
-0.05344153
-0.061438352
-0.06802758
-0.070962553
-0.067551127
-0.054739827
-0.029148803
0.013563616
0.078146978
0.17006438
0.28949549
0.47421824
-0.37208365
-0.12470855
-0.054973072
-0.031962503
-0.022063547
-0.020300516
-0.024359451
-0.031957993
-0.041261553
-0.05064088
-0.058316895
-0.062187459
-0.059782548
-0.048056803
-0.022658518
0.021474222
0.09281874
0.21015279
0.40288845
0.77640931
)
;

boundaryField
{
    movingWall
    {
        type            zeroGradient;
    }
    fixedWalls
    {
        type            zeroGradient;
    }
    frontAndBack
    {
        type            empty;
    }
}


// ************************************************************************* //
