/*--------------------------------*- C++ -*----------------------------------*\
| =========                 |                                                 |
| \\      /  F ield         | OpenFOAM: The Open Source CFD Toolbox           |
|  \\    /   O peration     | Version:  2112                                  |
|   \\  /    A nd           | Website:  www.openfoam.com                      |
|    \\/     M anipulation  |                                                 |
\*---------------------------------------------------------------------------*/
FoamFile
{
    version     2.0;
    format      ascii;
    arch        "LSB;label=32;scalar=64";
    class       surfaceScalarField;
    location    "34";
    object      phi_0;
}
// * * * * * * * * * * * * * * * * * * * * * * * * * * * * * * * * * * * * * //

dimensions      [0 3 -1 0 0 0 0];

oriented        oriented;

internalField   nonuniform List<scalar> 
760
(
1.2702983e-05
-1.2703372e-05
-2.8723113e-05
4.1426096e-05
-0.000122292
9.3568892e-05
-0.00025039692
0.00012810492
-0.00039607664
0.00014567972
-0.00054539379
0.00014931715
-0.0006862753
0.00014088151
-0.00080689673
0.00012062143
-0.00089495764
8.8060908e-05
-0.00093839589
4.3438253e-05
-0.00092727943
-1.1116448e-05
-0.00085686598
-7.0413441e-05
-0.00073043211
-0.00012643386
-0.00056134336
-0.00016908875
-0.00037276102
-0.00018858236
-0.00019447414
-0.00017828691
-5.6521845e-05
-0.00013795234
1.9614539e-05
-7.6136417e-05
3.0411353e-05
-1.0796818e-05
3.0411367e-05
-4.3182866e-05
3.0479495e-05
-0.00020456665
0.00020280988
-0.00046832591
0.00035732815
-0.00080071023
0.00046048924
-0.0011673542
0.00051232365
-0.0015364543
0.0005184173
-0.0018782335
0.00048266068
-0.0021636887
0.00040607669
-0.0023645512
0.00028892335
-0.002455358
0.00013424512
-0.0024181506
-4.8323883e-05
-0.0022453652
-0.00024319879
-0.001947562
-0.00042423716
-0.0015544729
-0.00056217785
-0.0011143234
-0.00062873189
-0.00068747562
-0.00060513469
-0.00033452579
-0.00049090219
-0.00010089667
-0.00030976552
-1.551871e-06
-0.00011014159
2.8859505e-05
-0.00011002749
0.00014050699
-0.00040303346
0.00049581585
-0.00083139249
0.00078568719
-0.0013456245
0.00097472126
-0.0018986088
0.0010653079
-0.0024465935
0.0010664021
-0.0029480472
0.00098411433
-0.0033626347
0.00082066425
-0.0036519071
0.00057819569
-0.0037823336
0.00026467159
-0.003729838
-0.00010081949
-0.003485824
-0.00048721274
-0.0030632829
-0.00084677827
-0.0024999989
-0.0011254617
-0.0018582375
-0.0012704932
-0.0012181457
-0.0012452265
-0.00066373722
-0.0010453106
-0.00026308975
-0.00071041298
-4.7956312e-05
-0.00032527502
-1.909682e-05
-0.00017344053
0.00031394751
-0.00059329588
0.0009156712
-0.0011777026
0.0013700939
-0.0018583817
0.0016554004
-0.0025769247
0.0017838509
-0.0032813275
0.0017708048
-0.0039228154
0.0016256023
-0.004454159
0.0013520079
-0.0048302821
0.0009543188
-0.0050112546
0.00044564407
-0.0049672711
-0.00014480301
-0.0046844457
-0.00077003812
-0.0041723585
-0.0013588655
-0.0034691329
-0.0018286872
-0.0026440132
-0.0020956129
-0.001793203
-0.0020960367
-0.0010258515
-0.0018126621
-0.00044021526
-0.0012960492
-9.6723907e-05
-0.00066876639
-0.00011582074
-0.0002297969
0.00054374442
-0.00076507934
0.0014509536
-0.0014914945
0.002096509
-0.0023225615
0.0024864674
-0.0031901592
0.0026514486
-0.0040368451
0.0026174908
-0.0048100623
0.0023988194
-0.0054589919
0.0020009375
-0.0059342091
0.001429536
-0.0061898394
0.0007012743
-0.0061884186
-0.00014622375
-0.0059055875
-0.0010528693
-0.0053404224
-0.0019240306
-0.0045231202
-0.0026459895
-0.0035229794
-0.0030957537
-0.0024498067
-0.0031692095
-0.0014425404
-0.0028199284
-0.00064123162
-0.002097358
-0.00014883697
-0.001161161
-0.00026465772
-0.00027729944
0.00082104385
-0.00091155223
0.0020852064
-0.0017607401
0.0029456969
-0.0027228234
0.0034485506
-0.0037222305
0.0036508558
-0.0046987177
0.003593978
-0.005598917
0.0032990187
-0.0063712185
0.002773239
-0.0069637563
0.0020220739
-0.0073248636
0.0010623816
-0.0074074848
-6.3602591e-05
-0.0071717148
-0.0012886393
-0.0065989025
-0.0024968429
-0.0057016889
-0.003543203
-0.0045400246
-0.004257418
-0.0032318454
-0.0044773887
-0.0019490222
-0.0041027516
-0.00088728818
-0.003159092
-0.00021159431
-0.0018368549
-0.00047625204
-0.00031411697
0.0011351608
-0.0010263422
0.0027974316
-0.0019735137
0.0038928684
-0.0030417628
0.0045167997
-0.0041507279
0.0047598209
-0.0052399572
0.0046832073
-0.0062580882
0.0043171498
-0.0071555415
0.0036706923
-0.0078803835
0.0027469159
-0.008376858
0.0015588561
-0.0085854041
0.00014494351
-0.0084513328
-0.0014227107
-0.0079295103
-0.0030186655
-0.0070049721
-0.0044677412
-0.0057150495
-0.0055473406
-0.0041735847
-0.0060188535
-0.0025818464
-0.0056944899
-0.0012041054
-0.004536833
-0.00029450418
-0.0027464561
-0.00077075621
-0.00033824892
0.0014734097
-0.0011031704
0.0035623531
-0.0021176363
0.0049073343
-0.0032598927
0.0056590561
-0.0044474107
0.0059473389
-0.0056219659
0.0058577624
-0.0067369529
0.0054321368
-0.0077479706
0.0046817101
-0.0086063778
0.003605323
-0.0092552536
0.002207732
-0.0096270169
0.00051670683
-0.0096492079
-0.0014005196
-0.0092489825
-0.0034188909
-0.0083739451
-0.0053427786
-0.0070220744
-0.0068992113
-0.0052818153
-0.0077591126
-0.0033676679
-0.0076086373
-0.0016173639
-0.0062871369
-0.00040826907
-0.0039555509
-0.0011790253
-0.00034815635
0.0018215661
-0.0011372155
0.0043514123
-0.0021827895
0.0059529082
-0.0033586212
0.0068348879
-0.0045822441
0.0071709617
-0.0057998238
0.0070753422
-0.0069721963
0.0066045093
-0.0080636695
0.0057731832
-0.0090334429
0.0045750965
-0.0098289948
0.0030032839
-0.010381275
0.0010689875
-0.010604527
-0.0011772683
-0.010400779
-0.0036226388
-0.0096748968
-0.0060686606
-0.0083686763
-0.0082054317
-0.0065156869
-0.0096121021
-0.0043098859
-0.0098144383
-0.0021483241
-0.0084486987
-0.00056492553
-0.0055389494
-0.0017439508
-0.0003439349
0.002165501
-0.00112786
0.0051353374
-0.0021647104
0.0069897587
-0.003325903
0.0079960805
-0.0045308037
0.0083758624
-0.0057319456
0.0082764841
-0.0069002227
0.0077727863
-0.0080123826
0.0068853431
-0.009040827
0.0056035409
-0.0099449676
0.0039074244
-0.010663395
0.0017874152
-0.011106746
-0.00073391751
-0.011163421
-0.0035659642
-0.010697128
-0.0065349528
-0.0095826001
-0.0093199602
-0.0077667781
-0.011427924
-0.0053715021
-0.012209714
-0.0028071794
-0.011013022
-0.00077836919
-0.0075677596
-0.00252232
-0.00032890793
0.0024944089
-0.0010824215
0.0058888509
-0.0020707773
0.0079781145
-0.0031636132
0.0090889164
-0.0042839023
0.0094961515
-0.0053928538
0.0093854356
-0.0064741408
0.0088540733
-0.0075205484
0.0079317506
-0.0085229182
0.0066059107
-0.0094603448
0.004844851
-0.010291332
0.0026184024
-0.010933227
-9.2022546e-05
-0.011283212
-0.0032159791
-0.011173633
-0.0066445314
-0.010415714
-0.010077879
-0.0088467368
-0.012996901
-0.0064557546
-0.014600697
-0.0035815275
-0.013887249
-0.0010642231
-0.010085064
-0.0035865431
-0.00031178408
0.002806193
-0.0010206788
0.0065977456
-0.0019260998
0.0088835356
-0.0028949489
0.010057765
-0.0038568827
0.010458085
-0.0047855634
0.010314116
-0.0056807663
0.0097492762
-0.0065544555
0.0088054398
-0.007419889
0.0074713442
-0.0082818245
0.0057067865
-0.0091251549
0.0034617328
-0.009908639
0.00069146155
-0.010527256
-0.0025973622
-0.010827013
-0.0063447741
-0.010573628
-0.010331265
-0.0094932085
-0.014077321
-0.0073911391
-0.016702766
-0.0044189149
-0.016859473
-0.0014372118
-0.013066767
-0.0050237548
-0.0003100426
0.0031162356
-0.00098036416
0.0072680672
-0.0017790479
0.0096822193
-0.0025693649
0.010848082
-0.0032945945
0.011183315
-0.0039478953
0.010967417
-0.0045499686
0.01035135
-0.0051347838
0.009390255
-0.0057399182
0.0080764786
-0.0063985224
0.0063653907
-0.0071301249
0.0041933353
-0.0079302569
0.0014915935
-0.0087388036
-0.0017888154
-0.009430357
-0.0056532207
-0.0097685796
-0.0099930422
-0.0094003427
-0.014445558
-0.0079305791
-0.01817253
-0.0052061613
-0.019583891
-0.0019026121
-0.016370316
-0.0069263669
-0.00035603983
0.0034722754
-0.0010239961
0.0079360234
-0.0017042285
0.010362452
-0.0022607961
0.01140465
-0.0026657187
0.011588238
-0.0029440062
0.011245705
-0.003144245
0.010551588
-0.0033248625
0.0095708725
-0.0035471878
0.0082988039
-0.0038710406
0.0066892435
-0.0043491658
0.0046714606
-0.0050183755
0.0021608032
-0.0058766087
-0.00093058218
-0.0068578317
-0.0046719978
-0.0077762855
-0.0090745884
-0.0082658333
-0.01395601
-0.0077687389
-0.018669624
-0.005751099
-0.021601531
-0.0024366711
-0.019684744
-0.009363038
-0.00050826058
0.003980536
-0.00124563
0.0086733929
-0.0017958814
0.010912703
-0.0020479958
0.011656764
-0.0020325018
0.011572744
-0.0018254212
0.011038624
-0.0015121873
0.010238354
-0.0011778549
0.0092365401
-0.00090470838
0.0080256574
-0.00077371592
0.0065582511
-0.00086348644
0.0047612311
-0.0012473545
0.0025446712
-0.0019828291
-0.00019510753
-0.0030818657
-0.0035729612
-0.0044600294
-0.0076964247
-0.005827485
-0.012588554
-0.0065661623
-0.017930947
-0.0057684461
-0.022399247
-0.0029512247
-0.022501966
-0.012314263
-0.00086855278
0.0048490888
-0.0017629815
0.0095678216
-0.0021213517
0.011271073
-0.0019368393
0.011472252
-0.0013509134
0.010986818
-0.00051618222
0.010203893
0.00043705293
0.0092851193
0.0013996262
0.0082739668
0.0022723897
0.0071528939
0.0029609279
0.0058697129
0.0033691622
0.0043529968
0.0033968096
0.0025170239
0.0029385541
0.00026314793
0.0019096177
-0.0025440249
0.00026969015
-0.0060564971
-0.0018541594
-0.010464705
-0.0039515931
-0.015833513
-0.0048608328
-0.021490007
-0.0032547029
-0.024108095
-0.015568966
-0.0015910835
0.0064401723
-0.0026108511
0.010587589
-0.0025131325
0.011173355
-0.0015898998
0.010549019
-0.00017216123
0.0095690792
0.0014928124
0.0085389192
0.0032329104
0.0075450213
0.0049232505
0.0065836267
0.0064630093
0.005613135
0.0077575132
0.004575209
0.0087075177
0.0034029923
0.0092015045
0.0020230371
0.0091033479
0.0003613045
0.0082750955
-0.0017157725
0.0065654641
-0.0043468658
0.0039042378
-0.0078034782
0.0005589561
-0.012488231
-0.0024680531
-0.018462998
-0.0030273163
-0.023548832
-0.018596282
-0.0027183593
0.0091585317
-0.0031498646
0.011019095
-0.001802996
0.0098264859
0.00046670609
0.0082793172
0.0030894303
0.006946355
0.0057738195
0.00585453
0.0083629077
0.0049559331
0.010760406
0.0041861286
0.012893501
0.0034800397
0.014690669
0.0027780414
0.016068353
0.0020253083
0.01692329
0.0011680996
0.017119717
0.00016487746
0.016490832
-0.0010868876
0.014816842
-0.0026728754
0.011846659
-0.0048332947
0.0074354935
-0.0080770663
0.0022629302
-0.013290435
-0.001272466
-0.020013436
-0.019868748
-0.0024132795
0.011571811
2.8056935e-05
0.0085777583
0.0042551386
0.0055994041
0.0084161235
0.0041183324
0.012231487
0.0031309919
0.015656266
0.0024297502
0.01868655
0.0019256491
0.021329194
0.001543485
0.023583494
0.0012257394
0.025429229
0.00093230678
0.026820172
0.00063436561
0.027677182
0.00031108899
0.027900206
-5.8145913e-05
0.027347226
-0.00053390763
0.025771633
-0.0010972823
0.022843047
-0.0019047096
0.01805477
-0.0032887893
0.011113587
-0.0063492511
0.0033886755
-0.012288525
-0.016480072
0.011571811
0.020149569
0.025748973
0.029867306
0.032998298
0.035428048
0.037353697
0.038897182
0.040122921
0.041055228
0.041689594
0.042000683
0.041942537
0.041408629
0.040311347
0.038406637
0.035117848
0.028768597
0.016480072
)
;

boundaryField
{
    movingWall
    {
        type            calculated;
        value           uniform 0;
    }
    fixedWalls
    {
        type            calculated;
        value           uniform 0;
    }
    frontAndBack
    {
        type            empty;
        value           nonuniform List<scalar> 0();
    }
}


// ************************************************************************* //
