/*--------------------------------*- C++ -*----------------------------------*\
| =========                 |                                                 |
| \\      /  F ield         | OpenFOAM: The Open Source CFD Toolbox           |
|  \\    /   O peration     | Version:  2112                                  |
|   \\  /    A nd           | Website:  www.openfoam.com                      |
|    \\/     M anipulation  |                                                 |
\*---------------------------------------------------------------------------*/
FoamFile
{
    version     2.0;
    format      ascii;
    arch        "LSB;label=32;scalar=64";
    class       volVectorField;
    location    "34";
    object      U_0;
}
// * * * * * * * * * * * * * * * * * * * * * * * * * * * * * * * * * * * * * //

dimensions      [0 1 -1 0 0 0 0];

internalField   nonuniform List<vector> 
400
(
(0.00028444995 -0.00028139057 0)
(0.00011070369 7.9969876e-05 0)
(-0.001327192 0.00047803564 0)
(-0.0036219062 0.00073593475 0)
(-0.0064236757 0.00086752614 0)
(-0.0094315225 0.00090727531 0)
(-0.012388066 0.00087487282 0)
(-0.015056529 0.00077153628 0)
(-0.01719465 0.00058849335 0)
(-0.01855296 0.00032008566 0)
(-0.018902725 -2.4813138e-05 0)
(-0.018086236 -0.00041827026 0)
(-0.016079962 -0.00079972675 0)
(-0.013048986 -0.0010930877 0)
(-0.0093664121 -0.0012212161 0)
(-0.0055776646 -0.0011294833 0)
(-0.0023003388 -0.00081287231 0)
(-8.2950252e-05 -0.00033798302 0)
(0.00076015218 0.00015229456 0)
(0.00040944194 0.0003893389 0)
(-8.6058383e-05 -0.0001235768 0)
(-0.0018692588 0.0017872681 0)
(-0.0063065454 0.0036260816 0)
(-0.012452746 0.0048625289 0)
(-0.019600762 0.0054985663 0)
(-0.027107123 0.0056207087 0)
(-0.034359118 0.0052860646 0)
(-0.040769148 0.0045044054 0)
(-0.045758472 0.0032662341 0)
(-0.048776216 0.0015896543 0)
(-0.049366968 -0.0004354796 0)
(-0.047254135 -0.0026182114 0)
(-0.042452257 -0.0046645736 0)
(-0.035361688 -0.0062189582 0)
(-0.02677874 -0.0069376289 0)
(-0.017827329 -0.0065923025 0)
(-0.0097755604 -0.005179801 0)
(-0.0037462993 -0.0029994441 0)
(-0.00038875079 -0.00066553606 0)
(0.00028989579 0.00078354982 0)
(-0.00058807961 0.0014336371 0)
(-0.0042428202 0.0063775555 0)
(-0.011758631 0.010640663 0)
(-0.021468838 0.01348371 0)
(-0.032366427 0.014898413 0)
(-0.04358833 0.015017488 0)
(-0.054287807 0.013936247 0)
(-0.063643011 0.011684299 0)
(-0.070856342 0.0082813909 0)
(-0.075188884 0.0038286525 0)
(-0.07604006 -0.001405937 0)
(-0.073058225 -0.0069357105 0)
(-0.06626705 -0.012071836 0)
(-0.056169639 -0.01600036 0)
(-0.043781007 -0.017942851 0)
(-0.030569302 -0.017380042 0)
(-0.018250709 -0.014290034 0)
(-0.0084179893 -0.0093123276 0)
(-0.0021511229 -0.0037618389 0)
(-1.9697073e-06 0.00031696964 0)
(-0.0010530687 0.0043004031 0)
(-0.006514893 0.013565821 0)
(-0.016999229 0.02086423 0)
(-0.030031097 0.025561411 0)
(-0.044300896 0.027761633 0)
(-0.058784711 0.027688119 0)
(-0.07248804 0.025487766 0)
(-0.084447486 0.021218508 0)
(-0.093729538 0.01494516 0)
(-0.099464819 0.006878379 0)
(-0.10093072 -0.0025013244 0)
(-0.09766334 -0.012378527 0)
(-0.089593478 -0.02160554 0)
(-0.077182524 -0.028824945 0)
(-0.061505296 -0.032706228 0)
(-0.04425377 -0.032300062 0)
(-0.027562287 -0.027445998 0)
(-0.013581785 -0.019080755 0)
(-0.0040263576 -0.009270711 0)
(-0.00026772033 -0.0011081891 0)
(-0.0014558702 0.0083650648 0)
(-0.0085490978 0.023181336 0)
(-0.021746314 0.034051806 0)
(-0.037792614 0.040763246 0)
(-0.055097131 0.043701917 0)
(-0.072519859 0.043259175 0)
(-0.088984758 0.03966159 0)
(-0.10345883 0.033001435 0)
(-0.11493262 0.023384275 0)
(-0.1224373 0.011116751 0)
(-0.12511569 -0.0031289779 0)
(-0.12232021 -0.018219458 0)
(-0.1137618 -0.03254173 0)
(-0.099698479 -0.044132767 0)
(-0.081100667 -0.050966434 0)
(-0.059776443 -0.051441367 0)
(-0.038291251 -0.045013743 0)
(-0.019520485 -0.032755611 0)
(-0.0060923492 -0.017491877 0)
(-0.00051102269 -0.0035220292 0)
(-0.0017889397 0.013475494 0)
(-0.010269748 0.034960973 0)
(-0.025805588 0.049908794 0)
(-0.044466901 0.058794979 0)
(-0.064427913 0.06245855 0)
(-0.084477803 0.061551063 0)
(-0.10351687 0.056416174 0)
(-0.12050386 0.047182298 0)
(-0.13440432 0.033970397 0)
(-0.14417429 0.01713237 0)
(-0.14880382 -0.0025359571 0)
(-0.14739363 -0.023636506 0)
(-0.13931143 -0.044142767 0)
(-0.12443582 -0.061442318 0)
(-0.10343184 -0.072642524 0)
(-0.078056047 -0.075174114 0)
(-0.051261012 -0.067706909 0)
(-0.026809496 -0.05112428 0)
(-0.0086123141 -0.028965702 0)
(-0.00078707404 -0.0070521595 0)
(-0.0020420399 0.019436575 0)
(-0.01160568 0.048529055 0)
(-0.028995865 0.067998524 0)
(-0.049757844 0.079226228 0)
(-0.071891788 0.083657603 0)
(-0.094162275 0.082297916 0)
(-0.11550027 0.075649835 0)
(-0.13491526 0.063877005 0)
(-0.15140353 0.047076035 0)
(-0.16388501 0.025567777 0)
(-0.17119263 0.00016299809 0)
(-0.1721548 -0.027610709 0)
(-0.1657159 -0.055396448 0)
(-0.15119218 -0.079945895 0)
(-0.12870077 -0.09735137 0)
(-0.099670144 -0.10369876 0)
(-0.067241929 -0.096286272 0)
(-0.036119173 -0.075220331 0)
(-0.011929748 -0.044539883 0)
(-0.0011708192 -0.012001499 0)
(-0.0022012917 0.026013428 0)
(-0.012484743 0.06341972 0)
(-0.031139974 0.087764644 0)
(-0.053354664 0.10149045 0)
(-0.077017854 0.10677731 0)
(-0.10091222 0.10507392 0)
(-0.12405026 0.097088313 0)
(-0.14555193 0.083021463 0)
(-0.1645098 0.062902237 0)
(-0.17987612 0.036930821 0)
(-0.1903994 0.0057954919 0)
(-0.19465584 -0.029033487 0)
(-0.19113645 -0.065018205 0)
(-0.17848991 -0.098391231 0)
(-0.15602505 -0.12417765 0)
(-0.12444503 -0.13676299 0)
(-0.086646709 -0.13132926 0)
(-0.048063805 -0.10623297 0)
(-0.016429383 -0.065393311 0)
(-0.0017537948 -0.018878437 0)
(-0.0022557108 0.032933311 0)
(-0.012853728 0.079088617 0)
(-0.032098962 0.10853517 0)
(-0.054981907 0.12486444 0)
(-0.079334954 0.13109305 0)
(-0.10399431 0.12919942 0)
(-0.12810044 0.12015145 0)
(-0.15094519 0.10420154 0)
(-0.17179742 0.08127838 0)
(-0.18974481 0.051375581 0)
(-0.20357632 0.014915379 0)
(-0.21172916 -0.026876171 0)
(-0.21232525 -0.071532441 0)
(-0.20333824 -0.1150262 0)
(-0.18306288 -0.15144724 0)
(-0.15101797 -0.17328524 0)
(-0.10916565 -0.17282203 0)
(-0.063026409 -0.14524397 0)
(-0.022524986 -0.092978146 0)
(-0.0026589644 -0.028422212 0)
(-0.0022086339 0.039904557 0)
(-0.012717086 0.094944328 0)
(-0.031841312 0.1295403 0)
(-0.054496844 0.14845866 0)
(-0.078500115 0.15563561 0)
(-0.10277104 0.15366654 0)
(-0.12662146 0.14384611 0)
(-0.14957662 0.12651342 0)
(-0.17117095 0.10149253 0)
(-0.19075578 0.068517124 0)
(-0.20732711 0.027627534 0)
(-0.21937773 -0.020394309 0)
(-0.2248878 -0.07346202 0)
(-0.22130659 -0.1276889 0)
(-0.20585481 -0.1766207 0)
(-0.17647628 -0.21099215 0)
(-0.13334659 -0.21961326 0)
(-0.080899185 -0.19275402 0)
(-0.030641905 -0.12885266 0)
(-0.0040700742 -0.041637062 0)
(-0.002093349 0.046663323 0)
(-0.012189726 0.11041864 0)
(-0.030536215 0.14996591 0)
(-0.052017597 0.17124312 0)
(-0.074465011 0.17919263 0)
(-0.096919921 0.17712119 0)
(-0.11891406 0.16672986 0)
(-0.14026652 0.14850281 0)
(-0.16086208 0.12219249 0)
(-0.18044322 0.087272644 0)
(-0.19840292 0.043352576 0)
(-0.21353681 -0.0093897091 0)
(-0.2240146 -0.069676739 0)
(-0.22708288 -0.13413355 0)
(-0.21908959 -0.19645342 0)
(-0.1962665 -0.24625232 0)
(-0.15621929 -0.26886043 0)
(-0.10070625 -0.24798819 0)
(-0.041146022 -0.17433509 0)
(-0.0062706215 -0.059833958 0)
(-0.0019963285 0.0530575 0)
(-0.0115655 0.12508358 0)
(-0.028660952 0.16904528 0)
(-0.048056613 0.19210925 0)
(-0.067638434 0.20035677 0)
(-0.086643882 0.19791293 0)
(-0.10489589 0.18696732 0)
(-0.12256942 0.16821865 0)
(-0.13996398 0.14140913 0)
(-0.15729757 0.10579906 0)
(-0.17451556 0.060571788 0)
(-0.19108366 0.0052257102 0)
(-0.20560156 -0.059922492 0)
(-0.21550584 -0.13260799 0)
(-0.21690135 -0.20752799 0)
(-0.20457804 -0.27431827 0)
(-0.17317489 -0.31571794 0)
(-0.12017098 -0.30807993 0)
(-0.054147491 -0.22988384 0)
(-0.0096749058 -0.084653184 0)
(-0.0020996012 0.059184306 0)
(-0.011414855 0.13881595 0)
(-0.027115363 0.18617349 0)
(-0.043624829 0.20994723 0)
(-0.058981202 0.21760166 0)
(-0.072777789 0.21419786 0)
(-0.085249918 0.20247371 0)
(-0.097001111 0.18339421 0)
(-0.10878855 0.15675623 0)
(-0.12135024 0.1216863 0)
(-0.1352539 0.077015417 0)
(-0.1507027 0.021618186 0)
(-0.167122 -0.045110804 0)
(-0.18273999 -0.12251614 0)
(-0.19405353 -0.20712626 0)
(-0.19523503 -0.29011484 0)
(-0.17829425 -0.35358521 0)
(-0.13540546 -0.36743821 0)
(-0.069089022 -0.29415304 0)
(-0.014795029 -0.11798451 0)
(-0.0027676948 0.065619985 0)
(-0.01274098 0.15199863 0)
(-0.027329946 0.20099737 0)
(-0.040244464 0.22368379 0)
(-0.049928492 0.22933099 0)
(-0.056643277 0.22403763 0)
(-0.061232392 0.21108068 0)
(-0.064815778 0.19168183 0)
(-0.068620449 0.16572047 0)
(-0.073874735 0.13227354 0)
(-0.08172793 0.089960249 0)
(-0.093119844 0.037200109 0)
(-0.10846904 -0.027479128 0)
(-0.12721362 -0.10497645 0)
(-0.14705408 -0.19422082 0)
(-0.16280337 -0.28948652 0)
(-0.16509069 -0.37509946 0)
(-0.14090145 -0.41772704 0)
(-0.084061562 -0.36281408 0)
(-0.022011634 -0.16157411 0)
(-0.0047195816 0.073834782 0)
(-0.0172224 0.16572645 0)
(-0.031284265 0.21337843 0)
(-0.039683059 0.23217432 0)
(-0.041883259 0.23380259 0)
(-0.039350806 0.22539474 0)
(-0.033812226 0.21061261 0)
(-0.02700002 0.19081087 0)
(-0.020591656 0.16589803 0)
(-0.016215069 0.13493926 0)
(-0.015476021 0.096470886 0)
(-0.019925245 0.048689984 0)
(-0.030918344 -0.01041276 0)
(-0.04923403 -0.082920543 0)
(-0.074398897 -0.1701432 0)
(-0.10327649 -0.27050262 0)
(-0.12725447 -0.3736954 0)
(-0.12973492 -0.44868784 0)
(-0.094914796 -0.42750701 0)
(-0.030930662 -0.21612807 0)
(-0.0092999976 0.086952164 0)
(-0.027432064 0.18185346 0)
(-0.040981528 0.22303367 0)
(-0.042679237 0.23378976 0)
(-0.034405064 0.22880248 0)
(-0.019622164 0.21592317 0)
(-0.0012378793 0.1987802 0)
(0.018346138 0.17856487 0)
(0.037072136 0.15508364 0)
(0.053056343 0.12735939 0)
(0.06442221 0.093936244 0)
(0.069231531 0.053014499 0)
(0.065415591 0.0024625039 0)
(0.051047827 -0.060339451 0)
(0.024643275 -0.13837673 0)
(-0.013701744 -0.23417151 0)
(-0.058753683 -0.34517039 0)
(-0.093510867 -0.44954003 0)
(-0.094469895 -0.4755883 0)
(-0.039216113 -0.28048286 0)
(-0.018580313 0.11087148 0)
(-0.046039616 0.20177658 0)
(-0.055229918 0.22793174 0)
(-0.043984575 0.2250178 0)
(-0.019372057 0.21061312 0)
(0.012333943 0.19228022 0)
(0.046993745 0.17278511 0)
(0.081754883 0.15265409 0)
(0.11443863 0.1313529 0)
(0.14315393 0.10779554 0)
(0.16601745 0.080591562 0)
(0.18098169 0.048112067 0)
(0.18557649 0.0084491531 0)
(0.17716602 -0.040817652 0)
(0.15275969 -0.10317636 0)
(0.10948896 -0.18390634 0)
(0.047240633 -0.28855476 0)
(-0.021439219 -0.41051048 0)
(-0.072252924 -0.49101708 0)
(-0.041147482 -0.35054299 0)
(-0.033352244 0.15561542 0)
(-0.068601623 0.22040443 0)
(-0.055187253 0.21729228 0)
(-0.016078488 0.19532449 0)
(0.034511412 0.1709236 0)
(0.088508142 0.14849477 0)
(0.141769 0.12861272 0)
(0.1919695 0.11057767 0)
(0.23754119 0.093297646 0)
(0.27712065 0.075575087 0)
(0.30921861 0.056181441 0)
(0.33204371 0.033823246 0)
(0.34317599 0.0070271757 0)
(0.3398291 -0.025910574 0)
(0.31813267 -0.067741858 0)
(0.27327736 -0.12410803 0)
(0.20044733 -0.20584717 0)
(0.10213984 -0.32506916 0)
(-0.012387252 -0.45457172 0)
(-0.023756651 -0.40864073 0)
(-0.033081119 0.23907316 0)
(-0.042647159 0.2179201 0)
(0.042207225 0.16426629 0)
(0.12760463 0.12783581 0)
(0.20769806 0.10143554 0)
(0.28028173 0.081658208 0)
(0.34487328 0.066648175 0)
(0.40158323 0.05470308 0)
(0.45055087 0.044399497 0)
(0.49162064 0.034639937 0)
(0.52416207 0.024550586 0)
(0.54698625 0.013381689 0)
(0.55822251 0.00039972132 0)
(0.55570952 -0.015137355 0)
(0.53552629 -0.034969205 0)
(0.49244663 -0.062488209 0)
(0.41797274 -0.10694763 0)
(0.30410596 -0.19317544 0)
(0.12313783 -0.33691905 0)
(0.052374208 -0.39437913 0)
(0.24299926 0.15257479 0)
(0.30529617 0.11854286 0)
(0.45481214 0.076108139 0)
(0.56000885 0.050840197 0)
(0.63223324 0.035126092 0)
(0.6865492 0.024812316 0)
(0.72943835 0.017960107 0)
(0.76379643 0.013255932 0)
(0.79127941 0.0097622054 0)
(0.81275158 0.006854362 0)
(0.82841148 0.0041185176 0)
(0.83794405 0.0012768537 0)
(0.8405708 -0.0018442024 0)
(0.83497559 -0.0053262622 0)
(0.81886698 -0.0098289669 0)
(0.78942866 -0.01623275 0)
(0.73784287 -0.026935706 0)
(0.65316763 -0.05128655 0)
(0.45609767 -0.11374603 0)
(0.31788988 -0.17206002 0)
)
;

boundaryField
{
    movingWall
    {
        type            fixedValue;
        value           uniform (1 0 0);
    }
    fixedWalls
    {
        type            fixedValue;
        value           uniform (0 0 0);
    }
    frontAndBack
    {
        type            empty;
    }
}


// ************************************************************************* //
