/*--------------------------------*- C++ -*----------------------------------*\
| =========                 |                                                 |
| \\      /  F ield         | OpenFOAM: The Open Source CFD Toolbox           |
|  \\    /   O peration     | Version:  2112                                  |
|   \\  /    A nd           | Website:  www.openfoam.com                      |
|    \\/     M anipulation  |                                                 |
\*---------------------------------------------------------------------------*/
FoamFile
{
    version     2.0;
    format      ascii;
    arch        "LSB;label=32;scalar=64";
    class       volScalarField;
    location    "42";
    object      p;
}
// * * * * * * * * * * * * * * * * * * * * * * * * * * * * * * * * * * * * * //

dimensions      [0 2 -2 0 0 0 0];

internalField   nonuniform List<scalar> 
400
(
2.8631824e-09
-0.00067287286
-0.0013853506
-0.0019427089
-0.0022200023
-0.002156499
-0.0017277942
-0.00092620364
0.00023541605
0.0017073999
0.0033872803
0.0051121911
0.0066734742
0.0078491009
0.0084583921
0.0084236912
0.0078134057
0.0068445233
0.0058612995
0.0052989407
0.0006578418
-4.0525504e-05
-0.00056965916
-0.00094062486
-0.0011108628
-0.001039921
-0.00070579024
-9.5544778e-05
0.00078909828
0.0019161827
0.0032095798
0.0045546985
0.0057819584
0.0067162547
0.0072144246
0.007214531
0.0067699567
0.006052768
0.0053105241
0.0047384823
0.0014236992
0.00044064956
-0.00011660029
-0.00045324319
-0.0006148082
-0.00058481106
-0.00034658053
0.00011974219
0.00082845735
0.0017699018
0.0028942834
0.0040981529
0.0052282266
0.0061109608
0.0065938583
0.0065976557
0.0061557303
0.0054215038
0.0045937394
0.0037482292
0.0020141939
0.000681684
1.6767623e-05
-0.00035885472
-0.00057155039
-0.00062656072
-0.00051008448
-0.00019063373
0.00036849835
0.0011843818
0.0022299064
0.0034174153
0.0045913507
0.0055569261
0.0061235424
0.0061665523
0.0056836132
0.0048170433
0.0037472862
0.0024735938
0.0021672643
0.00049611348
-0.00029626305
-0.00074870917
-0.0010582569
-0.001245274
-0.0012927528
-0.0011513072
-0.00075505552
-5.3104219e-05
0.00095702117
0.0022102774
0.0035447014
0.0047326546
0.0055218359
0.0057098767
0.0052292781
0.0042015954
0.0028061761
0.00098395416
0.0016539549
-0.00031448526
-0.0012387931
-0.0017993064
-0.0022526679
-0.0026279159
-0.0028986282
-0.0029910899
-0.0028025445
-0.0022376836
-0.0012510999
0.00013088994
0.0017446427
0.0033271042
0.0045416357
0.0050657683
0.004717483
0.0035661862
0.0017895822
-0.00072593252
0.00028701741
-0.0019195778
-0.0029730051
-0.0036713881
-0.0043203025
-0.004953208
-0.0055301299
-0.0059479642
-0.0060590148
-0.0057073935
-0.0047757268
-0.0032587055
-0.0012665188
0.0009071675
0.002823115
0.0039868229
0.0040250801
0.0028876942
0.00071536595
-0.0026805134
-0.0020764369
-0.0044511997
-0.0056268114
-0.0064923287
-0.007392925
-0.0083657688
-0.0093569313
-0.010231796
-0.010790986
-0.01080486
-0.010063381
-0.0084617811
-0.0060407837
-0.0030832318
-0.00012632153
0.0021126075
0.0029638111
0.0021355663
-0.00036604877
-0.0048726251
-0.005524175
-0.0079921217
-0.0092779289
-0.010333797
-0.011538004
-0.012935421
-0.014462717
-0.015956335
-0.017162482
-0.017766054
-0.017438105
-0.015919498
-0.01312298
-0.0092517771
-0.0048990243
-0.0010300322
0.0012693933
0.0012777474
-0.0013339739
-0.0072016931
-0.010076922
-0.012565104
-0.013936673
-0.015184014
-0.016718389
-0.01860263
-0.020774206
-0.023048778
-0.025121704
-0.026586372
-0.026969373
-0.025812967
-0.022845702
-0.018074471
-0.012051111
-0.0059519714
-0.0013707565
0.00030057703
-0.0019472194
-0.0093822412
-0.015684999
-0.018132424
-0.019537567
-0.020926821
-0.022757754
-0.025129891
-0.027997019
-0.031166417
-0.034291488
-0.036876872
-0.0382942
-0.037844307
-0.035065883
-0.029601495
-0.021822521
-0.012985598
-0.0051849943
-0.00071576809
-0.0017642161
-0.010792272
-0.022243613
-0.024613052
-0.025945607
-0.02733497
-0.029324178
-0.032079252
-0.035588965
-0.039664671
-0.043927296
-0.04780133
-0.050530218
-0.05123651
-0.048956907
-0.043143575
-0.033769041
-0.021926366
-0.010036903
-0.0014154621
-9.8838297e-06
-0.010225636
-0.029641232
-0.031923914
-0.032978767
-0.034079885
-0.035939525
-0.038831543
-0.042795647
-0.047651616
-0.052990564
-0.058163619
-0.062284279
-0.064265563
-0.062875188
-0.057112214
-0.046476767
-0.03164911
-0.015037882
-0.00086440745
0.0046467472
-0.0055215529
-0.037866023
-0.040048531
-0.040440161
-0.04075254
-0.042015063
-0.044653087
-0.048758225
-0.054144094
-0.060356067
-0.066665379
-0.072060719
-0.075268312
-0.07481139
-0.069269293
-0.057628331
-0.03996153
-0.01824799
0.0027890221
0.014445143
0.0069075339
-0.047230612
-0.049134374
-0.048140596
-0.046882326
-0.046905522
-0.04879871
-0.052668314
-0.058276045
-0.065076136
-0.072232029
-0.078595798
-0.082712349
-0.082880236
-0.077309416
-0.064523962
-0.043934975
-0.016748005
0.012502934
0.032938772
0.032408942
-0.058896826
-0.059639904
-0.055883911
-0.051941076
-0.049972349
-0.050629899
-0.053928667
-0.059495366
-0.06661189
-0.074285328
-0.081191199
-0.085679434
-0.085831825
-0.07952222
-0.064876123
-0.040689286
-0.0072409355
0.03213936
0.06498144
0.077749172
-0.076226556
-0.072613779
-0.063516171
-0.05543538
-0.050725046
-0.049781627
-0.052312366
-0.05766439
-0.064891848
-0.072775002
-0.079779398
-0.084036778
-0.083391683
-0.075348988
-0.057602697
-0.028375159
0.012933314
0.065396466
0.1155515
0.15150622
-0.10809226
-0.089556428
-0.071233865
-0.057233004
-0.049072139
-0.046330236
-0.04807729
-0.053202633
-0.060434651
-0.068295894
-0.075027424
-0.078526945
-0.076389037
-0.065809703
-0.043865504
-0.007818467
0.044393656
0.11299814
0.18838042
0.27186076
-0.17684552
-0.10828977
-0.07620256
-0.054651281
-0.042992404
-0.038998052
-0.040570536
-0.045928072
-0.053441567
-0.061438388
-0.068027616
-0.070962589
-0.067551163
-0.054739863
-0.029148838
0.013563582
0.078146943
0.17006435
0.28949545
0.47421821
-0.37208351
-0.12470851
-0.054973105
-0.031962552
-0.022063586
-0.020300548
-0.024359484
-0.031958028
-0.04126159
-0.050640917
-0.058316931
-0.062187495
-0.059782584
-0.048056839
-0.022658553
0.021474187
0.092818706
0.21015276
0.40288841
0.77640928
)
;

boundaryField
{
    movingWall
    {
        type            zeroGradient;
    }
    fixedWalls
    {
        type            zeroGradient;
    }
    frontAndBack
    {
        type            empty;
    }
}


// ************************************************************************* //
