/*--------------------------------*- C++ -*----------------------------------*\
| =========                 |                                                 |
| \\      /  F ield         | OpenFOAM: The Open Source CFD Toolbox           |
|  \\    /   O peration     | Version:  2112                                  |
|   \\  /    A nd           | Website:  www.openfoam.com                      |
|    \\/     M anipulation  |                                                 |
\*---------------------------------------------------------------------------*/
FoamFile
{
    version     2.0;
    format      ascii;
    arch        "LSB;label=32;scalar=64";
    class       volVectorField;
    location    "42";
    object      U;
}
// * * * * * * * * * * * * * * * * * * * * * * * * * * * * * * * * * * * * * //

dimensions      [0 1 -1 0 0 0 0];

internalField   nonuniform List<vector> 
400
(
(0.00028445235 -0.00028138818 0)
(0.00011070701 7.9971129e-05 0)
(-0.0013271907 0.00047803623 0)
(-0.0036219056 0.00073593501 0)
(-0.0064236756 0.00086752626 0)
(-0.0094315227 0.00090727539 0)
(-0.012388067 0.00087487287 0)
(-0.015056529 0.00077153626 0)
(-0.01719465 0.00058849325 0)
(-0.018552961 0.00032008554 0)
(-0.018902726 -2.4813222e-05 0)
(-0.018086237 -0.00041827027 0)
(-0.016079963 -0.00079972662 0)
(-0.013048987 -0.0010930872 0)
(-0.0093664135 -0.0012212152 0)
(-0.0055776651 -0.0011294819 0)
(-0.0023003378 -0.00081287099 0)
(-8.2948251e-05 -0.00033798207 0)
(0.00076015399 0.00015229487 0)
(0.0004094426 0.00038933872 0)
(-8.6057149e-05 -0.0001235735 0)
(-0.0018692568 0.0017872703 0)
(-0.0063065442 0.003626083 0)
(-0.012452745 0.0048625298 0)
(-0.019600762 0.0054985669 0)
(-0.027107123 0.005620709 0)
(-0.03435912 0.0052860648 0)
(-0.04076915 0.0045044054 0)
(-0.045758474 0.0032662339 0)
(-0.048776218 0.0015896539 0)
(-0.04936697 -0.00043547972 0)
(-0.047254137 -0.0026182108 0)
(-0.042452259 -0.0046645722 0)
(-0.035361689 -0.0062189559 0)
(-0.026778742 -0.0069376261 0)
(-0.017827329 -0.0065922996 0)
(-0.00977556 -0.0051797988 0)
(-0.0037462983 -0.0029994429 0)
(-0.00038875001 -0.000665536 0)
(0.00028989603 0.000783549 0)
(-0.00058807905 0.0014336385 0)
(-0.0042428192 0.0063775573 0)
(-0.01175863 0.010640664 0)
(-0.021468838 0.013483711 0)
(-0.032366427 0.014898414 0)
(-0.043588332 0.015017489 0)
(-0.054287809 0.013936248 0)
(-0.063643014 0.0116843 0)
(-0.070856345 0.008281391 0)
(-0.075188886 0.0038286521 0)
(-0.076040062 -0.0014059375 0)
(-0.073058227 -0.0069357104 0)
(-0.066267051 -0.012071835 0)
(-0.056169641 -0.016000358 0)
(-0.043781009 -0.017942849 0)
(-0.030569304 -0.017380041 0)
(-0.01825071 -0.014290034 0)
(-0.0084179898 -0.0093123277 0)
(-0.0021511231 -0.0037618395 0)
(-1.969911e-06 0.00031696871 0)
(-0.0010530685 0.004300404 0)
(-0.0065148926 0.013565823 0)
(-0.016999229 0.020864232 0)
(-0.030031098 0.025561413 0)
(-0.044300897 0.027761635 0)
(-0.058784713 0.027688121 0)
(-0.072488043 0.025487767 0)
(-0.08444749 0.021218509 0)
(-0.093729542 0.014945161 0)
(-0.099464823 0.0068783785 0)
(-0.10093072 -0.0025013261 0)
(-0.097663343 -0.01237853 0)
(-0.08959348 -0.021605543 0)
(-0.077182526 -0.028824948 0)
(-0.061505299 -0.032706231 0)
(-0.044253773 -0.032300064 0)
(-0.027562289 -0.027445999 0)
(-0.013581786 -0.019080756 0)
(-0.0040263581 -0.0092707114 0)
(-0.00026772055 -0.0011081892 0)
(-0.0014558702 0.0083650656 0)
(-0.0085490979 0.023181338 0)
(-0.021746314 0.034051809 0)
(-0.037792616 0.040763249 0)
(-0.055097133 0.04370192 0)
(-0.072519862 0.043259178 0)
(-0.088984762 0.039661592 0)
(-0.10345883 0.033001436 0)
(-0.11493262 0.023384277 0)
(-0.1224373 0.01111675 0)
(-0.12511569 -0.00312898 0)
(-0.12232022 -0.018219462 0)
(-0.11376181 -0.032541735 0)
(-0.099698482 -0.044132772 0)
(-0.081100669 -0.050966439 0)
(-0.059776444 -0.05144137 0)
(-0.038291252 -0.045013744 0)
(-0.019520486 -0.032755611 0)
(-0.0060923497 -0.017491877 0)
(-0.00051102285 -0.0035220288 0)
(-0.0017889398 0.013475495 0)
(-0.010269749 0.034960975 0)
(-0.025805589 0.049908798 0)
(-0.044466902 0.058794983 0)
(-0.064427915 0.062458553 0)
(-0.084477806 0.061551067 0)
(-0.10351687 0.056416177 0)
(-0.12050386 0.047182301 0)
(-0.13440432 0.033970398 0)
(-0.1441743 0.017132371 0)
(-0.14880382 -0.0025359571 0)
(-0.14739363 -0.023636508 0)
(-0.13931143 -0.04414277 0)
(-0.12443582 -0.061442322 0)
(-0.10343184 -0.072642527 0)
(-0.078056048 -0.075174116 0)
(-0.051261013 -0.067706911 0)
(-0.026809497 -0.051124281 0)
(-0.0086123148 -0.028965703 0)
(-0.00078707417 -0.0070521592 0)
(-0.00204204 0.019436576 0)
(-0.01160568 0.048529058 0)
(-0.028995866 0.067998528 0)
(-0.049757846 0.079226233 0)
(-0.071891791 0.083657607 0)
(-0.094162278 0.08229792 0)
(-0.11550027 0.075649839 0)
(-0.13491526 0.063877008 0)
(-0.15140353 0.047076038 0)
(-0.16388502 0.02556778 0)
(-0.17119263 0.00016300041 0)
(-0.17215481 -0.027610707 0)
(-0.1657159 -0.055396449 0)
(-0.15119218 -0.079945898 0)
(-0.12870077 -0.097351374 0)
(-0.099670146 -0.10369876 0)
(-0.06724193 -0.096286275 0)
(-0.036119175 -0.075220333 0)
(-0.011929749 -0.044539884 0)
(-0.0011708193 -0.012001499 0)
(-0.0022012917 0.026013429 0)
(-0.012484743 0.063419723 0)
(-0.031139975 0.087764649 0)
(-0.053354666 0.10149045 0)
(-0.077017857 0.10677732 0)
(-0.10091222 0.10507392 0)
(-0.12405026 0.097088316 0)
(-0.14555194 0.083021466 0)
(-0.1645098 0.062902239 0)
(-0.17987612 0.036930823 0)
(-0.1903994 0.0057954931 0)
(-0.19465585 -0.029033486 0)
(-0.19113646 -0.065018207 0)
(-0.17848991 -0.098391234 0)
(-0.15602505 -0.12417766 0)
(-0.12444503 -0.136763 0)
(-0.086646711 -0.13132926 0)
(-0.048063806 -0.10623298 0)
(-0.016429384 -0.065393313 0)
(-0.0017537949 -0.018878437 0)
(-0.0022557109 0.032933313 0)
(-0.012853728 0.079088621 0)
(-0.032098963 0.10853518 0)
(-0.054981909 0.12486444 0)
(-0.079334956 0.13109305 0)
(-0.10399431 0.12919943 0)
(-0.12810044 0.12015145 0)
(-0.15094519 0.10420154 0)
(-0.17179742 0.08127838 0)
(-0.18974481 0.05137558 0)
(-0.20357633 0.014915377 0)
(-0.21172916 -0.026876174 0)
(-0.21232525 -0.071532444 0)
(-0.20333824 -0.1150262 0)
(-0.18306288 -0.15144724 0)
(-0.15101798 -0.17328524 0)
(-0.10916565 -0.17282204 0)
(-0.06302641 -0.14524397 0)
(-0.022524986 -0.092978148 0)
(-0.0026589644 -0.028422213 0)
(-0.002208634 0.039904559 0)
(-0.012717086 0.094944332 0)
(-0.031841312 0.1295403 0)
(-0.054496846 0.14845867 0)
(-0.078500118 0.15563562 0)
(-0.10277104 0.15366655 0)
(-0.12662147 0.14384612 0)
(-0.14957662 0.12651342 0)
(-0.17117095 0.10149253 0)
(-0.19075578 0.068517122 0)
(-0.20732711 0.027627531 0)
(-0.21937773 -0.020394313 0)
(-0.22488781 -0.073462024 0)
(-0.22130659 -0.1276889 0)
(-0.20585481 -0.17662071 0)
(-0.17647628 -0.21099215 0)
(-0.13334659 -0.21961326 0)
(-0.080899186 -0.19275403 0)
(-0.030641905 -0.12885267 0)
(-0.0040700743 -0.041637063 0)
(-0.0020933491 0.046663325 0)
(-0.012189726 0.11041864 0)
(-0.030536214 0.14996592 0)
(-0.052017597 0.17124312 0)
(-0.074465012 0.17919263 0)
(-0.096919924 0.1771212 0)
(-0.11891407 0.16672986 0)
(-0.14026652 0.14850282 0)
(-0.16086208 0.12219249 0)
(-0.18044322 0.087272644 0)
(-0.19840292 0.043352574 0)
(-0.21353681 -0.009389712 0)
(-0.2240146 -0.069676743 0)
(-0.22708288 -0.13413355 0)
(-0.21908959 -0.19645343 0)
(-0.1962665 -0.24625233 0)
(-0.15621929 -0.26886044 0)
(-0.10070625 -0.24798819 0)
(-0.041146022 -0.17433509 0)
(-0.0062706216 -0.05983396 0)
(-0.0019963282 0.053057501 0)
(-0.011565499 0.12508359 0)
(-0.028660952 0.16904529 0)
(-0.048056612 0.19210926 0)
(-0.067638433 0.20035678 0)
(-0.086643882 0.19791293 0)
(-0.10489589 0.18696733 0)
(-0.12256942 0.16821865 0)
(-0.13996398 0.14140914 0)
(-0.15729756 0.10579906 0)
(-0.17451556 0.060571787 0)
(-0.19108366 0.005225708 0)
(-0.20560156 -0.059922495 0)
(-0.21550583 -0.13260799 0)
(-0.21690134 -0.207528 0)
(-0.20457804 -0.27431827 0)
(-0.17317489 -0.31571794 0)
(-0.12017098 -0.30807993 0)
(-0.054147492 -0.22988384 0)
(-0.0096749059 -0.084653186 0)
(-0.0020996003 0.059184306 0)
(-0.011414854 0.13881595 0)
(-0.027115362 0.1861735 0)
(-0.043624828 0.20994723 0)
(-0.058981199 0.21760167 0)
(-0.072777786 0.21419787 0)
(-0.085249917 0.20247372 0)
(-0.09700111 0.18339422 0)
(-0.10878854 0.15675624 0)
(-0.12135024 0.1216863 0)
(-0.1352539 0.077015416 0)
(-0.1507027 0.021618184 0)
(-0.167122 -0.045110807 0)
(-0.18273999 -0.12251615 0)
(-0.19405352 -0.20712626 0)
(-0.19523503 -0.29011485 0)
(-0.17829425 -0.35358521 0)
(-0.13540546 -0.36743821 0)
(-0.069089023 -0.29415304 0)
(-0.014795029 -0.11798451 0)
(-0.002767694 0.065619987 0)
(-0.012740978 0.15199863 0)
(-0.027329943 0.20099738 0)
(-0.040244462 0.22368379 0)
(-0.049928489 0.22933099 0)
(-0.056643272 0.22403763 0)
(-0.061232388 0.21108068 0)
(-0.064815775 0.19168183 0)
(-0.068620445 0.16572047 0)
(-0.07387473 0.13227354 0)
(-0.081727924 0.089960247 0)
(-0.093119838 0.037200107 0)
(-0.10846903 -0.027479131 0)
(-0.12721361 -0.10497645 0)
(-0.14705408 -0.19422083 0)
(-0.16280336 -0.28948652 0)
(-0.16509069 -0.37509947 0)
(-0.14090145 -0.41772705 0)
(-0.084061562 -0.36281408 0)
(-0.022011634 -0.16157411 0)
(-0.0047195821 0.073834785 0)
(-0.0172224 0.16572646 0)
(-0.031284262 0.21337843 0)
(-0.039683055 0.23217433 0)
(-0.041883256 0.2338026 0)
(-0.039350801 0.22539475 0)
(-0.03381222 0.21061261 0)
(-0.027000014 0.19081087 0)
(-0.020591651 0.16589803 0)
(-0.016215064 0.13493926 0)
(-0.015476016 0.096470885 0)
(-0.01992524 0.048689982 0)
(-0.030918339 -0.010412762 0)
(-0.049234025 -0.082920546 0)
(-0.074398893 -0.17014321 0)
(-0.10327649 -0.27050262 0)
(-0.12725447 -0.3736954 0)
(-0.12973492 -0.44868785 0)
(-0.094914796 -0.42750701 0)
(-0.030930662 -0.21612807 0)
(-0.0092999992 0.086952167 0)
(-0.027432067 0.18185346 0)
(-0.040981526 0.22303367 0)
(-0.04267923 0.23378976 0)
(-0.03440506 0.22880249 0)
(-0.019622161 0.21592318 0)
(-0.0012378741 0.1987802 0)
(0.018346145 0.17856487 0)
(0.037072143 0.15508364 0)
(0.05305635 0.12735939 0)
(0.064422216 0.093936243 0)
(0.069231537 0.053014498 0)
(0.065415596 0.0024625021 0)
(0.051047831 -0.060339453 0)
(0.024643279 -0.13837673 0)
(-0.013701741 -0.23417151 0)
(-0.05875368 -0.34517039 0)
(-0.093510865 -0.44954003 0)
(-0.094469895 -0.4755883 0)
(-0.039216113 -0.28048286 0)
(-0.018580313 0.11087147 0)
(-0.046039621 0.20177658 0)
(-0.05522992 0.22793175 0)
(-0.043984568 0.2250178 0)
(-0.019372051 0.21061312 0)
(0.012333947 0.19228022 0)
(0.046993749 0.17278511 0)
(0.081754889 0.15265409 0)
(0.11443863 0.1313529 0)
(0.14315394 0.10779554 0)
(0.16601746 0.080591562 0)
(0.1809817 0.048112066 0)
(0.1855765 0.0084491517 0)
(0.17716603 -0.040817654 0)
(0.15275969 -0.10317636 0)
(0.10948896 -0.18390634 0)
(0.047240636 -0.28855476 0)
(-0.021439218 -0.41051048 0)
(-0.072252923 -0.49101708 0)
(-0.041147482 -0.35054299 0)
(-0.03335224 0.15561542 0)
(-0.068601623 0.22040443 0)
(-0.05518726 0.21729229 0)
(-0.016078488 0.1953245 0)
(0.034511417 0.1709236 0)
(0.088508147 0.14849477 0)
(0.141769 0.12861272 0)
(0.19196951 0.11057767 0)
(0.23754119 0.093297646 0)
(0.27712066 0.075575087 0)
(0.30921861 0.05618144 0)
(0.33204371 0.033823245 0)
(0.34317599 0.0070271747 0)
(0.3398291 -0.025910575 0)
(0.31813267 -0.067741859 0)
(0.27327737 -0.12410803 0)
(0.20044733 -0.20584717 0)
(0.10213984 -0.32506916 0)
(-0.012387251 -0.45457172 0)
(-0.023756651 -0.40864073 0)
(-0.033081112 0.23907315 0)
(-0.042647151 0.21792009 0)
(0.042207222 0.16426629 0)
(0.12760463 0.12783582 0)
(0.20769806 0.10143554 0)
(0.28028174 0.081658209 0)
(0.34487329 0.066648176 0)
(0.40158324 0.05470308 0)
(0.45055087 0.044399497 0)
(0.49162065 0.034639937 0)
(0.52416207 0.024550585 0)
(0.54698625 0.013381689 0)
(0.55822251 0.0003997208 0)
(0.55570953 -0.015137356 0)
(0.53552629 -0.034969205 0)
(0.49244663 -0.06248821 0)
(0.41797274 -0.10694763 0)
(0.30410596 -0.19317544 0)
(0.12313783 -0.33691905 0)
(0.052374208 -0.39437913 0)
(0.24299926 0.15257479 0)
(0.30529618 0.11854286 0)
(0.45481215 0.076108136 0)
(0.56000885 0.050840197 0)
(0.63223324 0.035126093 0)
(0.6865492 0.024812316 0)
(0.72943835 0.017960107 0)
(0.76379643 0.013255932 0)
(0.79127941 0.0097622054 0)
(0.81275158 0.0068543619 0)
(0.82841148 0.0041185175 0)
(0.83794405 0.0012768536 0)
(0.8405708 -0.0018442025 0)
(0.83497559 -0.0053262623 0)
(0.81886698 -0.009828967 0)
(0.78942866 -0.01623275 0)
(0.73784287 -0.026935706 0)
(0.65316763 -0.05128655 0)
(0.45609767 -0.11374603 0)
(0.31788988 -0.17206002 0)
)
;

boundaryField
{
    movingWall
    {
        type            fixedValue;
        value           uniform (1 0 0);
    }
    fixedWalls
    {
        type            fixedValue;
        value           uniform (0 0 0);
    }
    frontAndBack
    {
        type            empty;
    }
}


// ************************************************************************* //
