/*--------------------------------*- C++ -*----------------------------------*\
| =========                 |                                                 |
| \\      /  F ield         | OpenFOAM: The Open Source CFD Toolbox           |
|  \\    /   O peration     | Version:  2112                                  |
|   \\  /    A nd           | Website:  www.openfoam.com                      |
|    \\/     M anipulation  |                                                 |
\*---------------------------------------------------------------------------*/
FoamFile
{
    version     2.0;
    format      ascii;
    arch        "LSB;label=32;scalar=64";
    class       volScalarField;
    location    "49";
    object      p;
}
// * * * * * * * * * * * * * * * * * * * * * * * * * * * * * * * * * * * * * //

dimensions      [0 2 -2 0 0 0 0];

internalField   nonuniform List<scalar> 
400
(
1.8631633e-10
-0.00067287584
-0.0013853537
-0.0019427118
-0.0022200049
-0.0021565017
-0.0017277977
-0.0009262076
0.00023541243
0.0017073963
0.0033872753
0.0051121842
0.0066734679
0.0078490983
0.0084583933
0.0084236947
0.0078134099
0.0068445271
0.0058613022
0.0052989423
0.00065783888
-4.0528343e-05
-0.00056966227
-0.00094062823
-0.0011108658
-0.0010399232
-0.00070579266
-9.5548297e-05
0.00078909435
0.00191618
0.0032095777
0.0045546943
0.0057819516
0.0067162486
0.0072144223
0.0072145314
0.0067699565
0.0060527665
0.0053105235
0.0047384824
0.0014236962
0.00044064691
-0.00011660288
-0.0004532463
-0.00061481161
-0.00058481372
-0.00034658197
0.000119741
0.00082845554
0.0017699004
0.0028942835
0.0040981526
0.0052282209
0.0061109494
0.0065938461
0.0065976464
0.0061557229
0.0054214979
0.0045937367
0.0037482292
0.0020141908
0.000681681
1.6765177e-05
-0.00035885714
-0.00057155358
-0.00062656431
-0.00051008686
-0.00019063424
0.00036849817
0.0011843807
0.0022299061
0.003417416
0.0045913485
0.0055569177
0.0061235305
0.0061665414
0.0056836051
0.0048170381
0.0037472846
0.0024735943
0.0021672615
0.00049611013
-0.00029626611
-0.00074871144
-0.0010582593
-0.0012452781
-0.001292758
-0.0011513112
-0.00075505719
-5.3105192e-05
0.00095702037
0.0022102792
0.0035447058
0.0047326574
0.0055218341
0.0057098712
0.0052292718
0.0042015911
0.0028061751
0.00098395429
0.0016539527
-0.00031448817
-0.0012387967
-0.0017993095
-0.0022526699
-0.0026279188
-0.0028986345
-0.0029910985
-0.0028025506
-0.0022376856
-0.0012511007
0.00013089123
0.0017446482
0.0033271123
0.004541641
0.0050657669
0.0047174771
0.0035661807
0.0017895801
-0.00072593336
0.0002870151
-0.0019195796
-0.0029730081
-0.003671392
-0.0043203049
-0.0049532085
-0.0055301326
-0.0059479729
-0.006059026
-0.0057074005
-0.0047757301
-0.0032587087
-0.0012665208
0.00090716939
0.0028231184
0.0039868226
0.0040250751
0.0028876884
0.00071536249
-0.0026805154
-0.0020764402
-0.0044512014
-0.0056268127
-0.0064923317
-0.0073929284
-0.0083657686
-0.0093569282
-0.010231798
-0.010790998
-0.010804874
-0.010063391
-0.0084617885
-0.0060407912
-0.0030832369
-0.00012632322
0.0021126062
0.002963808
0.0021355621
-0.00036605228
-0.0048726279
-0.0055241793
-0.0079921256
-0.0092779304
-0.010333798
-0.011538007
-0.012935424
-0.014462713
-0.015956326
-0.017162484
-0.017766067
-0.017438119
-0.015919506
-0.013122985
-0.0092517816
-0.0048990279
-0.0010300351
0.0012693904
0.0012777445
-0.0013339768
-0.0072016962
-0.010076925
-0.01256511
-0.013936679
-0.015184015
-0.01671839
-0.018602636
-0.020774209
-0.023048767
-0.025121692
-0.026586373
-0.026969382
-0.025812975
-0.022845705
-0.018074472
-0.012051113
-0.0059519747
-0.0013707602
0.00030057387
-0.0019472222
-0.0093822441
-0.015684999
-0.018132429
-0.019537578
-0.020926828
-0.022757754
-0.025129893
-0.027997029
-0.031166417
-0.034291474
-0.03687686
-0.038294199
-0.037844313
-0.035065888
-0.029601498
-0.021822522
-0.0129856
-0.0051849976
-0.00071577152
-0.0017642192
-0.010792275
-0.022243612
-0.02461305
-0.025945615
-0.027334986
-0.029324187
-0.032079249
-0.035588972
-0.039664686
-0.043927299
-0.047801322
-0.050530211
-0.051236511
-0.048956913
-0.04314358
-0.033769044
-0.021926368
-0.010036906
-0.0014154652
-9.8869733e-06
-0.010225639
-0.029641236
-0.031923907
-0.032978758
-0.034079897
-0.035939552
-0.038831546
-0.042795643
-0.047651627
-0.052990582
-0.058163627
-0.062284277
-0.064265561
-0.06287519
-0.057112218
-0.046476771
-0.031649113
-0.015037885
-0.00086441035
0.0046467442
-0.005521556
-0.037866034
-0.040048536
-0.040440139
-0.040752523
-0.042015092
-0.044653111
-0.04875822
-0.054144088
-0.060356074
-0.066665392
-0.072060726
-0.075268314
-0.074811391
-0.069269295
-0.057628334
-0.039961533
-0.018247993
0.0027890191
0.01444514
0.0069075309
-0.047230621
-0.0491344
-0.048140591
-0.046882277
-0.046905518
-0.048798739
-0.052668329
-0.058276041
-0.065076129
-0.07223203
-0.078595803
-0.082712353
-0.082880239
-0.077309418
-0.064523964
-0.043934978
-0.016748008
0.01250293
0.032938769
0.032408939
-0.058896818
-0.059639926
-0.055883957
-0.051941044
-0.049972306
-0.050629897
-0.053928687
-0.05949538
-0.066611893
-0.074285327
-0.0811912
-0.085679436
-0.085831828
-0.079522223
-0.064876125
-0.040689289
-0.0072409385
0.032139357
0.064981437
0.077749169
-0.076226542
-0.072613744
-0.063516245
-0.055435423
-0.050725023
-0.049781596
-0.052312357
-0.057664396
-0.064891855
-0.072775005
-0.079779399
-0.08403678
-0.083391686
-0.075348991
-0.057602699
-0.028375162
0.012933311
0.065396463
0.1155515
0.15150621
-0.10809229
-0.08955632
-0.071233873
-0.057233078
-0.049072182
-0.046330241
-0.048077283
-0.053202632
-0.060434654
-0.068295899
-0.075027427
-0.078526947
-0.076389039
-0.065809705
-0.043865506
-0.0078184698
0.044393653
0.11299814
0.18838041
0.27186076
-0.17684564
-0.10828969
-0.07620246
-0.054651258
-0.042992418
-0.038998066
-0.040570541
-0.045928073
-0.053441569
-0.061438391
-0.068027619
-0.070962592
-0.067551165
-0.054739865
-0.029148841
0.013563579
0.07814694
0.17006434
0.28949545
0.47421821
-0.3720837
-0.1247086
-0.054973112
-0.031962541
-0.022063584
-0.020300553
-0.024359489
-0.031958032
-0.041261592
-0.050640919
-0.058316934
-0.062187497
-0.059782587
-0.048056841
-0.022658556
0.021474184
0.092818703
0.21015275
0.40288841
0.77640927
)
;

boundaryField
{
    movingWall
    {
        type            zeroGradient;
    }
    fixedWalls
    {
        type            zeroGradient;
    }
    frontAndBack
    {
        type            empty;
    }
}


// ************************************************************************* //
