/*--------------------------------*- C++ -*----------------------------------*\
| =========                 |                                                 |
| \\      /  F ield         | OpenFOAM: The Open Source CFD Toolbox           |
|  \\    /   O peration     | Version:  2112                                  |
|   \\  /    A nd           | Website:  www.openfoam.com                      |
|    \\/     M anipulation  |                                                 |
\*---------------------------------------------------------------------------*/
FoamFile
{
    version     2.0;
    format      ascii;
    arch        "LSB;label=32;scalar=64";
    class       volScalarField;
    location    "24";
    object      p;
}
// * * * * * * * * * * * * * * * * * * * * * * * * * * * * * * * * * * * * * //

dimensions      [0 2 -2 0 0 0 0];

internalField   nonuniform List<scalar> 
400
(
5.56819e-07
-0.00067224643
-0.0013847128
-0.0019420631
-0.0022193497
-0.0021558413
-0.001727133
-0.00092554034
0.00023608008
0.0017080629
0.0033879406
0.0051128472
0.0066741262
0.0078497503
0.0084590414
0.0084243443
0.0078140672
0.0068451967
0.0058619837
0.0052996304
0.00065846153
-3.989479e-05
-0.00056902476
-0.00093998539
-0.0011102175
-0.0010392701
-0.00070513456
-9.4885608e-05
0.00078975962
0.0019168451
0.0032102421
0.0045553598
0.0057826187
0.0067169147
0.007215086
0.0072151965
0.0067706291
0.006053449
0.0053112114
0.0047391724
0.001424319
0.00044127643
-0.000115969
-0.00045260719
-0.00061416695
-0.000584164
-0.00034592745
0.0001204006
0.00082911969
0.0017705669
0.0028949508
0.0040988238
0.0052289012
0.006111638
0.0065945363
0.0065983342
0.0061564108
0.0054221886
0.0045944288
0.0037489196
0.002014811
0.00068230852
1.7397379e-05
-0.00035821982
-0.00057090978
-0.00062591351
-0.00050942978
-0.00018997166
0.00036916612
0.0011850531
0.0022305807
0.0034180937
0.0045920333
0.0055576109
0.0061242268
0.0061672357
0.0056842977
0.0048177318
0.0037479789
0.0024742894
0.00216788
0.00049673791
-0.00029563276
-0.00074807268
-0.0010576129
-0.0012446213
-0.0012920906
-0.0011506359
-0.00075437764
-5.2423285e-05
0.00095770318
0.0022109604
0.0035453855
0.0047333401
0.0055225222
0.0057105643
0.0052299689
0.0042022909
0.002806876
0.0009846592
0.0016545725
-0.00031385742
-0.0012381588
-0.0017986648
-0.0022520166
-0.0026272528
-0.0028979521
-0.0029904022
-0.0028018487
-0.0022369845
-0.0012504011
0.00013158688
0.0017453386
0.0033278001
0.0045423324
0.0050664667
0.0047181846
0.0035668915
0.0017902917
-0.00072521584
0.00028764177
-0.0019189422
-0.0029723623
-0.0036707371
-0.0043196397
-0.0049525298
-0.0055294337
-0.0059472509
-0.0060582887
-0.0057066603
-0.0047749919
-0.0032579735
-0.0012657911
0.00090789006
0.002823833
0.0039875379
0.0040257943
0.0028884096
0.00071608566
-0.0026797845
-0.0020757997
-0.0044505517
-0.0056261557
-0.0064916635
-0.0073922461
-0.0083650709
-0.0093562097
-0.01023105
-0.01079022
-0.010804081
-0.010062598
-0.0084610006
-0.0060400123
-0.0030824728
-0.00012557525
0.0021133431
0.0029645398
0.0021362928
-0.00036531845
-0.004871884
-0.0055235187
-0.0079914567
-0.0092772559
-0.010333113
-0.011537304
-0.012934699
-0.014461968
-0.015955556
-0.017161677
-0.017765231
-0.017437274
-0.01591867
-0.013122164
-0.0092509777
-0.0048982441
-0.0010292704
0.0012701407
0.0012784873
-0.0013332327
-0.0072009407
-0.010076241
-0.012564418
-0.01393598
-0.015183308
-0.016717666
-0.018601884
-0.020773432
-0.023047973
-0.02512087
-0.026585515
-0.026968504
-0.025812098
-0.022844843
-0.018073631
-0.012050294
-0.0059511794
-0.0013699867
0.00030133207
-0.0019464681
-0.0093814801
-0.015684292
-0.018131715
-0.019536851
-0.020926091
-0.022757007
-0.02512912
-0.02799622
-0.031165588
-0.03429063
-0.036875989
-0.0382933
-0.037843403
-0.035064991
-0.029600622
-0.021821673
-0.012984779
-0.0051842039
-0.00071499939
-0.0017634574
-0.010791507
-0.022242883
-0.024612323
-0.025944871
-0.027334221
-0.02932341
-0.032078459
-0.035588144
-0.039663822
-0.043926418
-0.047800428
-0.050529303
-0.051235597
-0.048956002
-0.043142689
-0.033768181
-0.021925535
-0.010036102
-0.0014146862
-9.1233528e-06
-0.010224875
-0.029640482
-0.031923169
-0.032978017
-0.034079124
-0.035938744
-0.038830735
-0.042794812
-0.047650753
-0.052989675
-0.058162711
-0.062283364
-0.064264652
-0.062874292
-0.05711134
-0.046475919
-0.031648289
-0.015037087
-0.00086363709
0.0046475001
-0.0055208071
-0.03786526
-0.040047778
-0.040439408
-0.040751778
-0.042014283
-0.044652281
-0.048757391
-0.054143234
-0.060355183
-0.066664482
-0.072059821
-0.075267425
-0.074810525
-0.069268455
-0.05762752
-0.039960744
-0.018247225
0.0027897692
0.014445875
0.0069082531
-0.047229843
-0.049133619
-0.048139851
-0.046881578
-0.04690476
-0.048797924
-0.052667501
-0.058275205
-0.065075272
-0.072231155
-0.078594928
-0.082711496
-0.082879412
-0.077308625
-0.064523203
-0.043934242
-0.016747289
0.012503639
0.032939469
0.032409624
-0.05889606
-0.059639156
-0.055883184
-0.051940354
-0.049971617
-0.050629146
-0.053927885
-0.059494555
-0.066611054
-0.074284481
-0.081190358
-0.085678615
-0.08583104
-0.079521476
-0.064875417
-0.040688611
-0.0072402786
0.032140012
0.064982092
0.077749813
-0.076225805
-0.072613049
-0.063515469
-0.055434691
-0.050724351
-0.049780911
-0.052311619
-0.057663609
-0.06489104
-0.072774181
-0.079778583
-0.084035987
-0.08339093
-0.07534828
-0.057602033
-0.028374532
0.012933918
0.065397072
0.11555211
0.15150682
-0.10809154
-0.089555727
-0.071233192
-0.057232348
-0.049071479
-0.046329553
-0.048076573
-0.053201879
-0.060433867
-0.068295096
-0.075026631
-0.078526174
-0.076388303
-0.065809015
-0.043864863
-0.0078178661
0.044394232
0.11299871
0.18838099
0.27186133
-0.17684483
-0.10828909
-0.076201911
-0.054650648
-0.042991767
-0.038997392
-0.040569841
-0.045927338
-0.053440803
-0.061437608
-0.068026837
-0.070961831
-0.067550442
-0.054739182
-0.029148202
0.013564179
0.078147514
0.17006491
0.28949601
0.47421877
-0.37208282
-0.12470784
-0.054972461
-0.031961926
-0.02206296
-0.020299903
-0.024358804
-0.031957311
-0.04126084
-0.050640148
-0.058316159
-0.062186735
-0.059781853
-0.04805615
-0.022657908
0.021474794
0.092819285
0.21015332
0.40288897
0.77640984
)
;

boundaryField
{
    movingWall
    {
        type            zeroGradient;
    }
    fixedWalls
    {
        type            zeroGradient;
    }
    frontAndBack
    {
        type            empty;
    }
}


// ************************************************************************* //
