/*--------------------------------*- C++ -*----------------------------------*\
| =========                 |                                                 |
| \\      /  F ield         | OpenFOAM: The Open Source CFD Toolbox           |
|  \\    /   O peration     | Version:  2112                                  |
|   \\  /    A nd           | Website:  www.openfoam.com                      |
|    \\/     M anipulation  |                                                 |
\*---------------------------------------------------------------------------*/
FoamFile
{
    version     2.0;
    format      ascii;
    arch        "LSB;label=32;scalar=64";
    class       surfaceScalarField;
    location    "24";
    object      phi;
}
// * * * * * * * * * * * * * * * * * * * * * * * * * * * * * * * * * * * * * //

dimensions      [0 3 -1 0 0 0 0];

oriented        oriented;

internalField   nonuniform List<scalar> 
760
(
1.2699812e-05
-1.2706261e-05
-2.8724733e-05
4.1424549e-05
-0.00012229248
9.3567755e-05
-0.00025039643
0.00012810396
-0.00039607528
0.00014567885
-0.00054539162
0.00014931636
-0.00068627241
0.00014088079
-0.00080689325
0.00012062085
-0.00089495377
8.8060525e-05
-0.0009383919
4.3438137e-05
-0.00092727563
-1.1116254e-05
-0.00085686268
-7.0412942e-05
-0.00073042957
-0.00012643311
-0.00056134172
-0.00016908785
-0.00037276026
-0.00018858146
-0.00019447408
-0.00017828617
-5.6522166e-05
-0.0001379519
1.9614148e-05
-7.6136309e-05
3.0411139e-05
-1.0796985e-05
3.0411153e-05
-4.3184129e-05
3.0477872e-05
-0.00020456715
0.00020280759
-0.00046832482
0.00035732543
-0.00080070716
0.00046048632
-0.001167349
0.00051232072
-0.0015364472
0.00051841452
-0.0018782246
0.00048265823
-0.0021636785
0.00040607477
-0.0023645401
0.00028892218
-0.0024553469
0.00013424489
-0.00241814
-4.8323086e-05
-0.002245356
-0.000243197
-0.0019475545
-0.00042423458
-0.0015544675
-0.00056217483
-0.0011143201
-0.00062872888
-0.00068747409
-0.00060513216
-0.00033452545
-0.00049090052
-0.00010089687
-0.00030976486
-1.5520666e-06
-0.00011014176
2.88591e-05
-0.00011002767
0.00014050555
-0.00040303232
0.00049581225
-0.00083138902
0.00078568214
-0.0013456182
0.00097471547
-0.0018985994
0.001065302
-0.0024465813
0.0010663964
-0.0029480324
0.00098410942
-0.0033626182
0.00082066053
-0.0036518896
0.00057819357
-0.003782316
0.00026467136
-0.0037298214
-0.00010081771
-0.0034858093
-0.00048720908
-0.0030632707
-0.00084677312
-0.0024999897
-0.0011254558
-0.0018582313
-0.0012704873
-0.0012181421
-0.0012452213
-0.00066373569
-0.001045307
-0.0002630894
-0.00071041113
-4.7956379e-05
-0.00032527476
-1.9097273e-05
-0.00017343989
0.00031394545
-0.00059329312
0.00091566549
-0.0011776966
0.0013700857
-0.0018583721
0.0016553909
-0.0025769113
0.0017838412
-0.0032813106
0.0017707957
-0.0039227956
0.0016255945
-0.0044541371
0.0013520021
-0.0048302592
0.00095431564
-0.0050112317
0.00044564393
-0.0049672494
-0.00014480002
-0.0046844262
-0.00077003224
-0.004172342
-0.0013588573
-0.00346912
-0.0018286777
-0.002644004
-0.0020956032
-0.0017931972
-0.0020960281
-0.0010258486
-0.0018126556
-0.0004402142
-0.0012960455
-9.6723762e-05
-0.00066876518
-0.00011582103
-0.0002297957
0.00054374116
-0.00076507526
0.0014509451
-0.0014914865
0.0020964969
-0.0023225492
0.0024864536
-0.0031901426
0.0026514346
-0.0040368247
0.0026174778
-0.0048100387
0.0023988085
-0.0054589661
0.0020009295
-0.0059341822
0.0014295317
-0.0061898125
0.00070127425
-0.006188393
-0.00014621947
-0.0059055641
-0.0010528611
-0.0053404022
-0.0019240192
-0.0045231039
-0.0026459761
-0.0035229673
-0.0030957398
-0.0024497986
-0.0031691968
-0.0014425359
-0.0028199183
-0.00064122978
-0.0020973516
-0.0001488366
-0.0011611583
-0.00026465762
-0.00027729789
0.00082103906
-0.00091154732
0.0020851945
-0.0017607309
0.0029456805
-0.0027228095
0.0034485322
-0.003722212
0.0036508372
-0.0046986952
0.0035939609
-0.0055988913
0.0032990046
-0.0063711905
0.0027732288
-0.0069637273
0.0020220685
-0.0073248346
0.0010623816
-0.0074074569
-6.3597126e-05
-0.007171689
-0.001288629
-0.0065988797
-0.0024968285
-0.00570167
-0.0035431858
-0.0045400099
-0.0042573998
-0.0032318352
-0.0044773715
-0.0019490162
-0.0041027373
-0.00088728554
-0.0031590822
-0.0002115937
-0.0018368502
-0.00047625132
-0.00031411531
0.0011351544
-0.001026337
0.0027974162
-0.0019735041
0.0038928476
-0.0030417485
0.0045167767
-0.0041507092
0.0047597979
-0.0052399346
0.0046831864
-0.0062580626
0.0043171326
-0.0071555139
0.00367068
-0.0078803548
0.0027469094
-0.0083768293
0.001558856
-0.0085853762
0.00014494978
-0.0084513066
-0.0014226985
-0.0079294866
-0.0030186484
-0.0070049518
-0.0044677206
-0.0057150332
-0.0055473183
-0.0041735729
-0.0060188318
-0.0025818391
-0.0056944711
-0.0012041019
-0.0045368194
-0.00029450332
-0.0027464488
-0.00077075463
-0.00033824738
0.0014734018
-0.0011031656
0.0035623344
-0.0021176274
0.0049073095
-0.0032598796
0.0056590289
-0.0044473936
0.005947312
-0.0056219454
0.0058577382
-0.0067369298
0.005432117
-0.0077479458
0.0046816961
-0.0086063521
0.0036053157
-0.0092552278
0.0022077318
-0.0096269917
0.00051671365
-0.0096491839
-0.0014005063
-0.0092489603
-0.003418872
-0.0083739254
-0.0053427555
-0.0070220578
-0.0068991858
-0.0052818027
-0.0077590869
-0.0033676597
-0.0076086141
-0.0016173598
-0.0062871192
-0.00040826797
-0.0039555406
-0.0011790226
-0.00034815513
0.0018215569
-0.0011372117
0.004351391
-0.0021827823
0.0059528801
-0.0033586107
0.0068348572
-0.0045822304
0.0071709317
-0.0057998076
0.0070753154
-0.0069721782
0.0066044876
-0.0080636502
0.0057731681
-0.0090334231
0.0045750887
-0.009828975
0.0030032837
-0.010381256
0.0010689947
-0.010604508
-0.0011772544
-0.010400761
-0.0036226191
-0.0096748801
-0.0060686362
-0.0083686616
-0.0082054043
-0.0065156749
-0.0096120737
-0.0043098774
-0.0098144115
-0.0021483195
-0.0084486771
-0.0005649242
-0.0055389359
-0.0017439468
-0.00034393419
0.0021654911
-0.0011278576
0.0051353145
-0.0021647059
0.0069897285
-0.0033258963
0.0079960476
-0.004530795
0.0083758305
-0.0057319355
0.0082764559
-0.0069002116
0.0077727638
-0.0080123711
0.0068853276
-0.0090408156
0.0056035332
-0.0099449565
0.0039074246
-0.010663384
0.0017874228
-0.011106735
-0.00073390345
-0.01116341
-0.0035659444
-0.010697118
-0.0065349285
-0.0095825896
-0.0093199325
-0.0077667686
-0.011427895
-0.0053714946
-0.012209686
-0.0028071748
-0.011012997
-0.00077836771
-0.007567743
-0.0025223145
-0.00032890786
0.002494399
-0.0010824211
0.0058888277
-0.0020707762
0.0079780836
-0.0031636113
0.0090888827
-0.0042838999
0.009496119
-0.0053928512
0.0093854072
-0.0064741383
0.008854051
-0.0075205464
0.0079317357
-0.0085229169
0.0066059037
-0.0094603442
0.0048448519
-0.010291332
0.0026184105
-0.010933226
-9.2008845e-05
-0.011283211
-0.0032159599
-0.011173631
-0.0066445083
-0.01041571
-0.010077853
-0.0088467317
-0.012996873
-0.0064557494
-0.014600668
-0.0035815237
-0.013887222
-0.0010642216
-0.010085045
-0.0035865361
-0.00031178471
0.0028061837
-0.0010206805
0.0065977234
-0.0019261025
0.0088835057
-0.0028949524
0.010057733
-0.0038568871
0.010458054
-0.0047855689
0.010314089
-0.005680773
0.0097492551
-0.0065544634
0.0088054262
-0.0074198982
0.0074713385
-0.0082818346
0.0057067883
-0.0091251653
0.0034617412
-0.0099086495
0.00069147531
-0.010527265
-0.0025973444
-0.01082702
-0.0063447532
-0.010573632
-0.010331242
-0.0094932095
-0.014077295
-0.0073911376
-0.01670274
-0.0044189127
-0.016859447
-0.0014372105
-0.013066747
-0.0050237466
-0.00031004391
0.0031162276
-0.00098036791
0.0072680474
-0.0017790543
0.0096821921
-0.0025693738
0.010848052
-0.0032946057
0.011183286
-0.0039479088
0.010967392
-0.0045499842
0.01035133
-0.0051348011
0.0093902432
-0.005739937
0.0080764744
-0.0063985421
0.0063653935
-0.0071301449
0.0041933441
-0.0079302764
0.0014916068
-0.0087388217
-0.001788799
-0.0094303725
-0.0056532024
-0.0097685915
-0.0099930225
-0.0094003502
-0.014445537
-0.0079305822
-0.018172508
-0.0052061614
-0.019583868
-0.0019026114
-0.016370297
-0.006926358
-0.00035604176
0.0034722694
-0.0010240017
0.0079360073
-0.0017042382
0.010362429
-0.0022608099
0.011404624
-0.0026657361
0.011588212
-0.0029440267
0.011245683
-0.0031442682
0.010551572
-0.0033248876
0.0095708626
-0.0035472142
0.0082988009
-0.0038710675
0.0066892469
-0.0043491926
0.0046714692
-0.0050184014
0.0021608156
-0.0058766329
-0.00093056752
-0.0068578532
-0.0046719821
-0.0077763032
-0.0090745725
-0.0082658463
-0.013955994
-0.0077687466
-0.018669607
-0.0057511019
-0.021601513
-0.0024366713
-0.019684728
-0.0093630293
-0.000508263
0.0039805324
-0.0012456369
0.0086733814
-0.0017958936
0.010912685
-0.0020480133
0.011656744
-0.002032524
0.011572723
-0.0018254471
0.011038606
-0.0015122159
0.010238341
-0.0011778853
0.009236532
-0.00090473955
0.0080256551
-0.00077374692
0.0065582543
-0.00086351654
0.0047612388
-0.0012473831
0.0025446822
-0.0019828557
-0.0001950949
-0.0030818896
-0.0035729481
-0.0044600499
-0.0076964122
-0.0058275012
-0.012588542
-0.0065661732
-0.017930935
-0.0057684515
-0.022399235
-0.0029512259
-0.022501953
-0.012314255
-0.00086855532
0.0048490877
-0.0017629889
0.0095678151
-0.0021213648
0.011271061
-0.0019368584
0.011472237
-0.0013509378
0.010986802
-0.00051621069
0.010203879
0.00043702163
0.0092851086
0.0013995934
0.0082739603
0.0022723567
0.0071528919
0.0029608957
0.0058697153
0.0033691316
0.004353003
0.0033967812
0.0025170326
0.0029385283
0.00026315801
0.0019095947
-0.0025440146
0.00026967026
-0.0060564877
-0.0018541757
-0.010464696
-0.0039516051
-0.015833506
-0.0048608395
-0.02149
-0.003254705
-0.024108088
-0.01556896
-0.0015910854
0.006440173
-0.0026108575
0.010587587
-0.0025131441
0.011173348
-0.0015899171
0.01054901
-0.00017218391
0.0095690687
0.0014927854
0.0085389094
0.0032328805
0.0075450134
0.0049232192
0.0065836217
0.0064629779
0.0056131332
0.0077574829
0.0045752104
0.0087074894
0.0034029964
0.0092014788
0.0020230433
0.0091033253
0.0003613116
0.0082750758
-0.0017157651
0.0065654475
-0.0043468593
0.0039042241
-0.0078034731
0.00055894611
-0.012488228
-0.0024680595
-0.018462994
-0.0030273187
-0.023548829
-0.018596279
-0.0027183598
0.009158533
-0.003149868
0.011019095
-0.0018030033
0.0098264838
0.00046669415
0.008279313
0.0030894136
0.0069463495
0.0057737986
0.0058545243
0.0083628837
0.0049559283
0.01076038
0.0041861254
0.012893475
0.0034800384
0.014690643
0.002778042
0.016068329
0.0020253106
0.016923269
0.0011681032
0.017119699
0.00016488153
0.016490817
-0.0010868833
0.01481683
-0.0026728718
0.011846649
-0.0048332921
0.0074354862
-0.0080770648
0.0022629254
-0.013290434
-0.0012724683
-0.020013435
-0.019868747
-0.0024132784
0.011571812
2.8057008e-05
0.0085777586
0.0042551368
0.0055994035
0.0084161187
0.004118331
0.012231478
0.00313099
0.015656254
0.0024297482
0.018686535
0.0019256474
0.021329177
0.0015434838
0.023583476
0.0012257389
0.025429211
0.00093230705
0.026820155
0.0006343665
0.027677168
0.00031109027
0.027900194
-5.8144129e-05
0.027347217
-0.00053390621
0.025771626
-0.0010972811
0.022843043
-0.0019047089
0.018054767
-0.0032887892
0.011113585
-0.0063492512
0.0033886747
-0.012288525
-0.016480072
0.011571812
0.020149571
0.025748975
0.029867306
0.032998296
0.035428044
0.037353691
0.038897175
0.040122914
0.041055221
0.041689588
0.042000678
0.041942534
0.041408628
0.040311346
0.038406638
0.035117848
0.028768597
0.016480072
)
;

boundaryField
{
    movingWall
    {
        type            calculated;
        value           uniform 0;
    }
    fixedWalls
    {
        type            calculated;
        value           uniform 0;
    }
    frontAndBack
    {
        type            empty;
        value           nonuniform List<scalar> 0();
    }
}


// ************************************************************************* //
