/*--------------------------------*- C++ -*----------------------------------*\
| =========                 |                                                 |
| \\      /  F ield         | OpenFOAM: The Open Source CFD Toolbox           |
|  \\    /   O peration     | Version:  2112                                  |
|   \\  /    A nd           | Website:  www.openfoam.com                      |
|    \\/     M anipulation  |                                                 |
\*---------------------------------------------------------------------------*/
FoamFile
{
    version     2.0;
    format      ascii;
    arch        "LSB;label=32;scalar=64";
    class       volVectorField;
    location    "24";
    object      U;
}
// * * * * * * * * * * * * * * * * * * * * * * * * * * * * * * * * * * * * * //

dimensions      [0 1 -1 0 0 0 0];

internalField   nonuniform List<vector> 
400
(
(0.00028440732 -0.00028142924 0)
(0.00011064436 7.99493e-05 0)
(-0.0013272128 0.00047802439 0)
(-0.0036219053 0.00073592752 0)
(-0.006423657 0.00086752064 0)
(-0.0094314869 0.00090727052 0)
(-0.012388015 0.00087486843 0)
(-0.015056464 0.00077153248 0)
(-0.017194575 0.00058849057 0)
(-0.01855288 0.00032008442 0)
(-0.018902646 -2.4812442e-05 0)
(-0.018086164 -0.00041826752 0)
(-0.016079903 -0.00079972224 0)
(-0.013048944 -0.0010930821 0)
(-0.0093663885 -0.0012212105 0)
(-0.0055776573 -0.0011294788 0)
(-0.0023003427 -0.00081287001 0)
(-8.2958527e-05 -0.00033798319 0)
(0.0007601456 0.00015229229 0)
(0.0004094396 0.00038933666 0)
(-8.6079688e-05 -0.00012363006 0)
(-0.0018692873 0.0017872262 0)
(-0.0063065421 0.0036260453 0)
(-0.012452705 0.0048624949 0)
(-0.019600679 0.0054985341 0)
(-0.027106999 0.0056206784 0)
(-0.034358956 0.0052860375 0)
(-0.040768954 0.0045043835 0)
(-0.045758256 0.0032662199 0)
(-0.048775991 0.0015896501 0)
(-0.049366748 -0.00043547223 0)
(-0.047253934 -0.0026181927 0)
(-0.042452088 -0.0046645457 0)
(-0.035361558 -0.006218925 0)
(-0.026778654 -0.0069375959 0)
(-0.017827283 -0.0065922753 0)
(-0.0097755445 -0.0051797842 0)
(-0.0037463008 -0.0029994392 0)
(-0.00038875734 -0.000665541 0)
(0.00028989259 0.00078354321 0)
(-0.0005880867 0.0014336101 0)
(-0.0042428186 0.0063775004 0)
(-0.011758589 0.010640589 0)
(-0.021468741 0.013483627 0)
(-0.032366269 0.014898328 0)
(-0.043588112 0.015017408 0)
(-0.054287535 0.013936176 0)
(-0.063642694 0.011684244 0)
(-0.070855996 0.0082813582 0)
(-0.075188528 0.0038286467 0)
(-0.076039714 -0.0014059134 0)
(-0.073057908 -0.0069356592 0)
(-0.066266778 -0.012071763 0)
(-0.056169424 -0.016000274 0)
(-0.043780853 -0.017942765 0)
(-0.030569206 -0.01737997 0)
(-0.018250661 -0.014289985 0)
(-0.0084179745 -0.0093123058 0)
(-0.0021511235 -0.0037618403 0)
(-1.971838e-06 0.00031696019 0)
(-0.001053067 0.0043003711 0)
(-0.0065148666 0.013565732 0)
(-0.016999147 0.020864101 0)
(-0.030030944 0.025561261 0)
(-0.044300665 0.027761478 0)
(-0.058784406 0.027687973 0)
(-0.072487669 0.02548764 0)
(-0.084447064 0.021218413 0)
(-0.093729083 0.014945107 0)
(-0.099464354 0.0068783744 0)
(-0.10093027 -0.0025012781 0)
(-0.097662923 -0.012378433 0)
(-0.089593114 -0.021605409 0)
(-0.077182228 -0.028824793 0)
(-0.061505074 -0.032706075 0)
(-0.044253622 -0.032299928 0)
(-0.027562203 -0.027445901 0)
(-0.01358175 -0.019080703 0)
(-0.0040263503 -0.009270699 0)
(-0.0002677211 -0.0011081976 0)
(-0.0014558629 0.0083650132 0)
(-0.0085490528 0.023181196 0)
(-0.021746198 0.034051606 0)
(-0.037792413 0.040763016 0)
(-0.055096842 0.043701681 0)
(-0.072519485 0.043258954 0)
(-0.088984313 0.039661402 0)
(-0.10345833 0.033001297 0)
(-0.11493208 0.023384201 0)
(-0.12243675 0.011116749 0)
(-0.12511516 -0.0031289058 0)
(-0.12231972 -0.018219318 0)
(-0.11376136 -0.032541535 0)
(-0.099698112 -0.04413254 0)
(-0.081100382 -0.050966201 0)
(-0.059776242 -0.051441156 0)
(-0.038291129 -0.045013581 0)
(-0.019520427 -0.032755513 0)
(-0.0060923332 -0.01749184 0)
(-0.00051102204 -0.0035220321 0)
(-0.0017889294 0.013475415 0)
(-0.010269692 0.034960769 0)
(-0.025805451 0.049908511 0)
(-0.04446667 0.058794658 0)
(-0.064427588 0.062458225 0)
(-0.084477391 0.061550762 0)
(-0.10351638 0.056415922 0)
(-0.12050332 0.047182116 0)
(-0.13440374 0.0339703 0)
(-0.1441737 0.017132369 0)
(-0.14880324 -0.0025358603 0)
(-0.14739309 -0.023636319 0)
(-0.13931094 -0.044142507 0)
(-0.1244354 -0.061442011 0)
(-0.1034315 -0.072642203 0)
(-0.078055799 -0.075173815 0)
(-0.051260854 -0.067706668 0)
(-0.026809415 -0.051124122 0)
(-0.0086122891 -0.028965631 0)
(-0.00078707193 -0.0070521524 0)
(-0.0020420285 0.019436463 0)
(-0.01160562 0.048528782 0)
(-0.028995721 0.067998152 0)
(-0.049757606 0.079225813 0)
(-0.071891457 0.083657187 0)
(-0.094161859 0.082297536 0)
(-0.11549978 0.07564952 0)
(-0.13491472 0.063876779 0)
(-0.15140296 0.047075917 0)
(-0.16388443 0.025567777 0)
(-0.17119206 0.00016311647 0)
(-0.17215425 -0.02761048 0)
(-0.16571539 -0.05539613 0)
(-0.15119174 -0.079945513 0)
(-0.1287004 -0.097350962 0)
(-0.099669862 -0.10369837 0)
(-0.067241739 -0.096285942 0)
(-0.036119071 -0.0752201 0)
(-0.011929714 -0.044539765 0)
(-0.0011708154 -0.012001477 0)
(-0.0022012811 0.026013282 0)
(-0.012484687 0.063419376 0)
(-0.03113984 0.087764186 0)
(-0.053354444 0.10148994 0)
(-0.077017549 0.10677681 0)
(-0.10091184 0.10507346 0)
(-0.12404982 0.097087941 0)
(-0.14555145 0.083021199 0)
(-0.16450929 0.062902099 0)
(-0.1798756 0.03693082 0)
(-0.19039889 0.0057956259 0)
(-0.19465535 -0.029033228 0)
(-0.19113599 -0.06501784 0)
(-0.17848949 -0.098390787 0)
(-0.15602468 -0.12417717 0)
(-0.12444473 -0.13676251 0)
(-0.0866465 -0.13132883 0)
(-0.048063685 -0.10623266 0)
(-0.01642934 -0.065393136 0)
(-0.0017537891 -0.018878395 0)
(-0.0022557027 0.032933137 0)
(-0.012853684 0.079088213 0)
(-0.032098855 0.10853464 0)
(-0.05498173 0.12486385 0)
(-0.079334709 0.13109247 0)
(-0.10399401 0.12919891 0)
(-0.12810009 0.12015103 0)
(-0.15094481 0.10420125 0)
(-0.17179702 0.081278228 0)
(-0.18974441 0.051375578 0)
(-0.20357593 0.014915522 0)
(-0.21172878 -0.026875894 0)
(-0.21232488 -0.071532047 0)
(-0.20333789 -0.11502571 0)
(-0.18306256 -0.1514467 0)
(-0.1510177 -0.17328469 0)
(-0.10916544 -0.17282153 0)
(-0.06302628 -0.14524357 0)
(-0.022524934 -0.092977907 0)
(-0.0026589565 -0.028422145 0)
(-0.0022086297 0.039904364 0)
(-0.01271706 0.094943881 0)
(-0.031841246 0.12953971 0)
(-0.054496732 0.14845802 0)
(-0.078499959 0.15563499 0)
(-0.10277085 0.15366599 0)
(-0.12662125 0.14384567 0)
(-0.1495764 0.12651311 0)
(-0.17117072 0.10149237 0)
(-0.19075555 0.068517123 0)
(-0.20732689 0.027627683 0)
(-0.21937752 -0.020394024 0)
(-0.22488759 -0.073461618 0)
(-0.22130638 -0.1276884 0)
(-0.20585459 -0.17662014 0)
(-0.17647608 -0.21099155 0)
(-0.13334641 -0.21961269 0)
(-0.080899062 -0.19275355 0)
(-0.030641849 -0.12885236 0)
(-0.0040700639 -0.041636967 0)
(-0.0020933496 0.046663122 0)
(-0.012189724 0.11041817 0)
(-0.0305362 0.14996529 0)
(-0.052017567 0.17124244 0)
(-0.074464966 0.17919198 0)
(-0.096919868 0.17712062 0)
(-0.11891401 0.16672941 0)
(-0.14026647 0.14850251 0)
(-0.16086205 0.12219234 0)
(-0.1804432 0.087272654 0)
(-0.19840291 0.043352734 0)
(-0.21353681 -0.0093894205 0)
(-0.22401459 -0.069676344 0)
(-0.22708284 -0.13413307 0)
(-0.21908953 -0.19645287 0)
(-0.1962664 -0.24625173 0)
(-0.15621918 -0.26885984 0)
(-0.10070616 -0.24798766 0)
(-0.041145968 -0.17433473 0)
(-0.0062706092 -0.059833832 0)
(-0.0019963341 0.053057304 0)
(-0.011565523 0.12508312 0)
(-0.028660996 0.16904466 0)
(-0.048056674 0.19210858 0)
(-0.067638512 0.20035613 0)
(-0.086643979 0.19791236 0)
(-0.10489601 0.18696688 0)
(-0.12256956 0.16821836 0)
(-0.13996415 0.14140901 0)
(-0.15729776 0.10579909 0)
(-0.17451577 0.060571953 0)
(-0.19108388 0.0052259925 0)
(-0.20560176 -0.059922119 0)
(-0.215506 -0.13260755 0)
(-0.21690146 -0.20752749 0)
(-0.20457809 -0.27431772 0)
(-0.17317488 -0.31571737 0)
(-0.12017093 -0.3080794 0)
(-0.05414745 -0.22988344 0)
(-0.0096748928 -0.084653029 0)
(-0.0020996115 0.05918413 0)
(-0.011414903 0.13881552 0)
(-0.027115465 0.18617291 0)
(-0.043624983 0.20994659 0)
(-0.058981403 0.21760105 0)
(-0.072778036 0.21419733 0)
(-0.085250208 0.20247331 0)
(-0.09700144 0.18339396 0)
(-0.10878891 0.15675613 0)
(-0.12135063 0.12168635 0)
(-0.1352543 0.077015588 0)
(-0.1507031 0.021618455 0)
(-0.16712239 -0.045110463 0)
(-0.18274033 -0.12251575 0)
(-0.1940538 -0.20712583 0)
(-0.19523522 -0.29011438 0)
(-0.17829435 -0.35358472 0)
(-0.13540548 -0.36743772 0)
(-0.069089005 -0.29415263 0)
(-0.014795018 -0.11798433 0)
(-0.0027677093 0.065619844 0)
(-0.01274105 0.15199827 0)
(-0.027330099 0.20099687 0)
(-0.040244702 0.22368322 0)
(-0.049928806 0.22933044 0)
(-0.056643658 0.22403715 0)
(-0.061232831 0.21108032 0)
(-0.064816263 0.19168161 0)
(-0.068620966 0.1657204 0)
(-0.073875271 0.13227361 0)
(-0.081728471 0.089960423 0)
(-0.093120375 0.037200366 0)
(-0.10846955 -0.027478819 0)
(-0.12721408 -0.10497611 0)
(-0.14705448 -0.19422047 0)
(-0.16280368 -0.28948615 0)
(-0.1650909 -0.37509908 0)
(-0.14090155 -0.41772664 0)
(-0.084061579 -0.36281372 0)
(-0.022011628 -0.16157393 0)
(-0.0047195992 0.073834686 0)
(-0.017222485 0.16572617 0)
(-0.031284455 0.21337802 0)
(-0.039683358 0.23217385 0)
(-0.041883659 0.23380212 0)
(-0.039351289 0.22539434 0)
(-0.033812774 0.2106123 0)
(-0.027000615 0.19081069 0)
(-0.020592277 0.16589798 0)
(-0.016215696 0.13493933 0)
(-0.015476639 0.096471052 0)
(-0.019925838 0.048690219 0)
(-0.030918901 -0.010412487 0)
(-0.04923454 -0.082920259 0)
(-0.074399347 -0.17014292 0)
(-0.10327686 -0.27050235 0)
(-0.12725474 -0.37369512 0)
(-0.12973508 -0.44868755 0)
(-0.094914849 -0.42750672 0)
(-0.030930666 -0.21612791 0)
(-0.0093000155 0.086952118 0)
(-0.027432154 0.18185328 0)
(-0.040981732 0.22303337 0)
(-0.042679562 0.2337894 0)
(-0.034405502 0.22880212 0)
(-0.019622697 0.21592285 0)
(-0.0012384809 0.19877995 0)
(0.018345493 0.17856472 0)
(0.037071474 0.1550836 0)
(0.053055687 0.12735945 0)
(0.064421579 0.093936386 0)
(0.069230938 0.053014699 0)
(0.065415047 0.0024627335 0)
(0.051047336 -0.060339219 0)
(0.024642842 -0.13837651 0)
(-0.013702109 -0.23417132 0)
(-0.058753968 -0.34517021 0)
(-0.093511052 -0.44953985 0)
(-0.094469973 -0.4755881 0)
(-0.039216127 -0.28048273 0)
(-0.018580324 0.11087147 0)
(-0.04603969 0.20177649 0)
(-0.055230097 0.22793156 0)
(-0.043984867 0.22501756 0)
(-0.019372462 0.21061286 0)
(0.012333442 0.19227997 0)
(0.046993173 0.17278492 0)
(0.081754267 0.15265397 0)
(0.11443799 0.13135286 0)
(0.14315331 0.10779558 0)
(0.16601686 0.080591665 0)
(0.18098115 0.048112218 0)
(0.18557601 0.0084493287 0)
(0.1771656 -0.040817476 0)
(0.15275932 -0.1031762 0)
(0.10948865 -0.18390621 0)
(0.047240387 -0.28855466 0)
(-0.021439391 -0.41051038 0)
(-0.072253004 -0.49101697 0)
(-0.0411475 -0.3505429 0)
(-0.033352243 0.15561545 0)
(-0.068601654 0.22040442 0)
(-0.055187358 0.21729221 0)
(-0.016078681 0.19532436 0)
(0.034511125 0.17092344 0)
(0.088507765 0.14849461 0)
(0.14176855 0.12861259 0)
(0.191969 0.11057759 0)
(0.23754066 0.09329761 0)
(0.27712013 0.075575103 0)
(0.30921811 0.056181503 0)
(0.33204326 0.033823342 0)
(0.3431756 0.0070272911 0)
(0.33982877 -0.025910459 0)
(0.3181324 -0.067741757 0)
(0.27327715 -0.12410796 0)
(0.20044716 -0.20584712 0)
(0.10213972 -0.32506912 0)
(-0.012387314 -0.45457168 0)
(-0.023756667 -0.40864069 0)
(-0.033081108 0.23907318 0)
(-0.042647141 0.21792011 0)
(0.042207215 0.16426627 0)
(0.12760457 0.12783576 0)
(0.20769793 0.10143547 0)
(0.28028153 0.081658136 0)
(0.34487301 0.066648113 0)
(0.40158291 0.054703037 0)
(0.45055051 0.044399478 0)
(0.49162028 0.034639944 0)
(0.52416173 0.024550615 0)
(0.54698594 0.013381734 0)
(0.55822225 0.00039977326 0)
(0.55570932 -0.015137303 0)
(0.53552614 -0.03496916 0)
(0.49244652 -0.062488178 0)
(0.41797267 -0.10694762 0)
(0.30410591 -0.19317543 0)
(0.1231378 -0.33691905 0)
(0.052374199 -0.39437913 0)
(0.24299927 0.1525748 0)
(0.3052962 0.11854287 0)
(0.45481218 0.076108143 0)
(0.56000886 0.050840193 0)
(0.63223322 0.035126082 0)
(0.68654914 0.024812302 0)
(0.72943825 0.017960094 0)
(0.7637963 0.013255923 0)
(0.79127926 0.0097622023 0)
(0.81275143 0.0068543651 0)
(0.82841134 0.004118526 0)
(0.83794394 0.0012768654 0)
(0.84057071 -0.0018441922 0)
(0.83497554 -0.0053262515 0)
(0.81886696 -0.0098289574 0)
(0.78942866 -0.016232744 0)
(0.73784287 -0.026935705 0)
(0.65316764 -0.051286551 0)
(0.45609767 -0.11374603 0)
(0.31788988 -0.17206002 0)
)
;

boundaryField
{
    movingWall
    {
        type            fixedValue;
        value           uniform (1 0 0);
    }
    fixedWalls
    {
        type            fixedValue;
        value           uniform (0 0 0);
    }
    frontAndBack
    {
        type            empty;
    }
}


// ************************************************************************* //
