/*--------------------------------*- C++ -*----------------------------------*\
| =========                 |                                                 |
| \\      /  F ield         | OpenFOAM: The Open Source CFD Toolbox           |
|  \\    /   O peration     | Version:  2112                                  |
|   \\  /    A nd           | Website:  www.openfoam.com                      |
|    \\/     M anipulation  |                                                 |
\*---------------------------------------------------------------------------*/
FoamFile
{
    version     2.0;
    format      ascii;
    arch        "LSB;label=32;scalar=64";
    class       volVectorField;
    location    "24";
    object      U_0;
}
// * * * * * * * * * * * * * * * * * * * * * * * * * * * * * * * * * * * * * //

dimensions      [0 1 -1 0 0 0 0];

internalField   nonuniform List<vector> 
400
(
(0.00028440717 -0.00028142937 0)
(0.00011064414 7.9949239e-05 0)
(-0.0013272129 0.00047802436 0)
(-0.0036219053 0.00073592749 0)
(-0.0064236569 0.00086752061 0)
(-0.0094314867 0.00090727049 0)
(-0.012388015 0.00087486842 0)
(-0.015056464 0.00077153248 0)
(-0.017194575 0.00058849058 0)
(-0.01855288 0.00032008441 0)
(-0.018902646 -2.4812444e-05 0)
(-0.018086163 -0.00041826748 0)
(-0.016079903 -0.00079972213 0)
(-0.013048943 -0.0010930819 0)
(-0.0093663882 -0.0012212104 0)
(-0.0055776571 -0.0011294787 0)
(-0.0023003426 -0.00081286997 0)
(-8.295843e-05 -0.00033798313 0)
(0.00076014569 0.00015229232 0)
(0.00040943965 0.00038933663 0)
(-8.6079753e-05 -0.00012363024 0)
(-0.0018692874 0.001787226 0)
(-0.0063065421 0.0036260452 0)
(-0.012452705 0.0048624948 0)
(-0.019600679 0.0054985339 0)
(-0.027106998 0.0056206783 0)
(-0.034358955 0.0052860374 0)
(-0.040768953 0.0045043835 0)
(-0.045758255 0.0032662199 0)
(-0.04877599 0.0015896502 0)
(-0.049366747 -0.00043547212 0)
(-0.047253933 -0.0026181925 0)
(-0.042452087 -0.0046645453 0)
(-0.035361558 -0.0062189246 0)
(-0.026778654 -0.0069375955 0)
(-0.017827282 -0.0065922751 0)
(-0.0097755442 -0.0051797841 0)
(-0.0037463007 -0.0029994392 0)
(-0.00038875733 -0.00066554104 0)
(0.00028989258 0.00078354309 0)
(-0.00058808671 0.00143361 0)
(-0.0042428186 0.0063775002 0)
(-0.011758588 0.010640589 0)
(-0.021468741 0.013483626 0)
(-0.032366268 0.014898328 0)
(-0.043588111 0.015017407 0)
(-0.054287533 0.013936176 0)
(-0.063642693 0.011684244 0)
(-0.070855995 0.0082813581 0)
(-0.075188526 0.0038286468 0)
(-0.076039712 -0.0014059132 0)
(-0.073057906 -0.0069356588 0)
(-0.066266776 -0.012071762 0)
(-0.056169423 -0.016000274 0)
(-0.043780852 -0.017942765 0)
(-0.030569206 -0.017379969 0)
(-0.018250661 -0.014289985 0)
(-0.0084179743 -0.0093123058 0)
(-0.0021511234 -0.0037618404 0)
(-1.9718611e-06 0.00031696002 0)
(-0.0010530669 0.004300371 0)
(-0.0065148664 0.013565732 0)
(-0.016999146 0.020864101 0)
(-0.030030943 0.025561261 0)
(-0.044300664 0.027761478 0)
(-0.058784404 0.027687973 0)
(-0.072487667 0.025487639 0)
(-0.084447062 0.021218413 0)
(-0.093729081 0.014945107 0)
(-0.099464352 0.0068783744 0)
(-0.10093027 -0.0025012779 0)
(-0.097662921 -0.012378433 0)
(-0.089593112 -0.021605408 0)
(-0.077182226 -0.028824793 0)
(-0.061505073 -0.032706074 0)
(-0.044253622 -0.032299928 0)
(-0.027562203 -0.0274459 0)
(-0.013581749 -0.019080703 0)
(-0.0040263502 -0.0092706991 0)
(-0.00026772111 -0.0011081977 0)
(-0.0014558628 0.008365013 0)
(-0.0085490526 0.023181195 0)
(-0.021746197 0.034051605 0)
(-0.037792412 0.040763015 0)
(-0.05509684 0.04370168 0)
(-0.072519483 0.043258953 0)
(-0.08898431 0.039661401 0)
(-0.10345832 0.033001296 0)
(-0.11493208 0.023384201 0)
(-0.12243675 0.011116748 0)
(-0.12511515 -0.0031289057 0)
(-0.12231972 -0.018219317 0)
(-0.11376136 -0.032541535 0)
(-0.09969811 -0.044132539 0)
(-0.08110038 -0.0509662 0)
(-0.059776241 -0.051441155 0)
(-0.038291129 -0.04501358 0)
(-0.019520427 -0.032755512 0)
(-0.0060923331 -0.01749184 0)
(-0.00051102203 -0.0035220322 0)
(-0.0017889293 0.013475414 0)
(-0.010269692 0.034960768 0)
(-0.02580545 0.04990851 0)
(-0.044466668 0.058794657 0)
(-0.064427586 0.062458223 0)
(-0.084477389 0.061550761 0)
(-0.10351638 0.056415921 0)
(-0.12050332 0.047182115 0)
(-0.13440374 0.0339703 0)
(-0.1441737 0.017132369 0)
(-0.14880324 -0.0025358601 0)
(-0.14739308 -0.023636318 0)
(-0.13931094 -0.044142506 0)
(-0.1244354 -0.06144201 0)
(-0.1034315 -0.072642201 0)
(-0.078055798 -0.075173814 0)
(-0.051260853 -0.067706667 0)
(-0.026809415 -0.051124121 0)
(-0.008612289 -0.02896563 0)
(-0.00078707191 -0.0070521524 0)
(-0.0020420285 0.019436462 0)
(-0.011605619 0.04852878 0)
(-0.02899572 0.067998151 0)
(-0.049757605 0.079225811 0)
(-0.071891455 0.083657185 0)
(-0.094161857 0.082297534 0)
(-0.11549978 0.075649518 0)
(-0.13491472 0.063876778 0)
(-0.15140295 0.047075917 0)
(-0.16388443 0.025567777 0)
(-0.17119205 0.00016311698 0)
(-0.17215425 -0.027610479 0)
(-0.16571539 -0.055396128 0)
(-0.15119174 -0.079945511 0)
(-0.1287004 -0.09735096 0)
(-0.099669861 -0.10369836 0)
(-0.067241738 -0.09628594 0)
(-0.036119071 -0.075220098 0)
(-0.011929714 -0.044539765 0)
(-0.0011708154 -0.012001477 0)
(-0.0022012811 0.026013282 0)
(-0.012484687 0.063419375 0)
(-0.031139839 0.087764183 0)
(-0.053354443 0.10148994 0)
(-0.077017548 0.10677681 0)
(-0.10091184 0.10507346 0)
(-0.12404981 0.097087939 0)
(-0.14555145 0.083021198 0)
(-0.16450929 0.062902099 0)
(-0.1798756 0.03693082 0)
(-0.19039888 0.0057956268 0)
(-0.19465534 -0.029033226 0)
(-0.19113599 -0.065017839 0)
(-0.17848948 -0.098390785 0)
(-0.15602468 -0.12417716 0)
(-0.12444473 -0.13676251 0)
(-0.086646499 -0.13132883 0)
(-0.048063684 -0.10623266 0)
(-0.016429339 -0.065393136 0)
(-0.0017537891 -0.018878394 0)
(-0.0022557027 0.032933137 0)
(-0.012853684 0.079088212 0)
(-0.032098855 0.10853464 0)
(-0.054981729 0.12486385 0)
(-0.079334707 0.13109247 0)
(-0.10399401 0.12919891 0)
(-0.12810009 0.12015103 0)
(-0.15094481 0.10420125 0)
(-0.17179702 0.081278227 0)
(-0.18974441 0.051375578 0)
(-0.20357593 0.014915523 0)
(-0.21172878 -0.026875893 0)
(-0.21232488 -0.071532045 0)
(-0.20333789 -0.11502571 0)
(-0.18306256 -0.1514467 0)
(-0.1510177 -0.17328469 0)
(-0.10916544 -0.17282152 0)
(-0.063026279 -0.14524357 0)
(-0.022524934 -0.092977906 0)
(-0.0026589564 -0.028422145 0)
(-0.0022086296 0.039904363 0)
(-0.01271706 0.094943879 0)
(-0.031841245 0.12953971 0)
(-0.054496732 0.14845801 0)
(-0.078499958 0.15563498 0)
(-0.10277085 0.15366598 0)
(-0.12662125 0.14384567 0)
(-0.14957639 0.12651311 0)
(-0.17117072 0.10149237 0)
(-0.19075555 0.068517123 0)
(-0.20732689 0.027627684 0)
(-0.21937752 -0.020394023 0)
(-0.22488759 -0.073461616 0)
(-0.22130638 -0.1276884 0)
(-0.20585459 -0.17662014 0)
(-0.17647608 -0.21099155 0)
(-0.13334641 -0.21961269 0)
(-0.080899061 -0.19275355 0)
(-0.030641849 -0.12885236 0)
(-0.0040700639 -0.041636966 0)
(-0.0020933496 0.046663121 0)
(-0.012189724 0.11041817 0)
(-0.0305362 0.14996529 0)
(-0.052017567 0.17124244 0)
(-0.074464966 0.17919197 0)
(-0.096919867 0.17712062 0)
(-0.11891401 0.1667294 0)
(-0.14026647 0.14850251 0)
(-0.16086205 0.12219234 0)
(-0.1804432 0.087272654 0)
(-0.19840291 0.043352734 0)
(-0.21353681 -0.0093894192 0)
(-0.22401459 -0.069676342 0)
(-0.22708284 -0.13413307 0)
(-0.21908953 -0.19645287 0)
(-0.1962664 -0.24625173 0)
(-0.15621918 -0.26885984 0)
(-0.10070616 -0.24798766 0)
(-0.041145968 -0.17433473 0)
(-0.0062706092 -0.059833831 0)
(-0.0019963342 0.053057303 0)
(-0.011565523 0.12508312 0)
(-0.028660996 0.16904466 0)
(-0.048056675 0.19210858 0)
(-0.067638513 0.20035612 0)
(-0.08664398 0.19791236 0)
(-0.10489601 0.18696688 0)
(-0.12256956 0.16821836 0)
(-0.13996415 0.14140901 0)
(-0.15729776 0.10579909 0)
(-0.17451577 0.060571954 0)
(-0.19108388 0.0052259937 0)
(-0.20560176 -0.059922117 0)
(-0.215506 -0.13260754 0)
(-0.21690146 -0.20752749 0)
(-0.20457809 -0.27431772 0)
(-0.17317488 -0.31571737 0)
(-0.12017093 -0.3080794 0)
(-0.05414745 -0.22988344 0)
(-0.0096748927 -0.084653028 0)
(-0.0020996118 0.059184129 0)
(-0.011414903 0.13881552 0)
(-0.027115465 0.18617291 0)
(-0.043624983 0.20994659 0)
(-0.058981405 0.21760105 0)
(-0.072778038 0.21419733 0)
(-0.08525021 0.20247331 0)
(-0.097001441 0.18339395 0)
(-0.10878891 0.15675613 0)
(-0.12135063 0.12168635 0)
(-0.13525431 0.077015589 0)
(-0.1507031 0.021618456 0)
(-0.16712239 -0.045110461 0)
(-0.18274033 -0.12251575 0)
(-0.19405381 -0.20712583 0)
(-0.19523522 -0.29011438 0)
(-0.17829435 -0.35358471 0)
(-0.13540548 -0.36743772 0)
(-0.069089005 -0.29415263 0)
(-0.014795018 -0.11798433 0)
(-0.0027677094 0.065619843 0)
(-0.012741051 0.15199827 0)
(-0.0273301 0.20099686 0)
(-0.040244702 0.22368322 0)
(-0.049928807 0.22933043 0)
(-0.056643661 0.22403715 0)
(-0.061232833 0.21108032 0)
(-0.064816265 0.19168161 0)
(-0.068620968 0.16572039 0)
(-0.073875273 0.13227361 0)
(-0.081728473 0.089960424 0)
(-0.093120378 0.037200367 0)
(-0.10846955 -0.027478818 0)
(-0.12721408 -0.10497611 0)
(-0.14705448 -0.19422047 0)
(-0.16280368 -0.28948615 0)
(-0.1650909 -0.37509907 0)
(-0.14090155 -0.41772663 0)
(-0.084061579 -0.36281371 0)
(-0.022011628 -0.16157392 0)
(-0.0047195989 0.073834685 0)
(-0.017222485 0.16572617 0)
(-0.031284457 0.21337802 0)
(-0.03968336 0.23217385 0)
(-0.04188366 0.23380212 0)
(-0.039351291 0.22539434 0)
(-0.033812778 0.2106123 0)
(-0.027000618 0.19081069 0)
(-0.02059228 0.16589798 0)
(-0.016215699 0.13493933 0)
(-0.015476641 0.096471052 0)
(-0.019925841 0.04869022 0)
(-0.030918904 -0.010412485 0)
(-0.049234542 -0.082920258 0)
(-0.074399349 -0.17014292 0)
(-0.10327687 -0.27050235 0)
(-0.12725474 -0.37369512 0)
(-0.12973508 -0.44868755 0)
(-0.094914849 -0.42750672 0)
(-0.030930666 -0.21612791 0)
(-0.0093000149 0.086952118 0)
(-0.027432153 0.18185327 0)
(-0.040981734 0.22303337 0)
(-0.042679565 0.2337894 0)
(-0.034405504 0.22880211 0)
(-0.019622699 0.21592285 0)
(-0.0012384835 0.19877995 0)
(0.01834549 0.17856472 0)
(0.03707147 0.1550836 0)
(0.053055684 0.12735945 0)
(0.064421576 0.093936386 0)
(0.069230935 0.0530147 0)
(0.065415044 0.0024627346 0)
(0.051047333 -0.060339217 0)
(0.02464284 -0.13837651 0)
(-0.013702111 -0.23417131 0)
(-0.058753969 -0.34517021 0)
(-0.093511053 -0.44953985 0)
(-0.094469973 -0.4755881 0)
(-0.039216127 -0.28048273 0)
(-0.018580325 0.11087147 0)
(-0.046039689 0.20177649 0)
(-0.055230096 0.22793156 0)
(-0.04398487 0.22501756 0)
(-0.019372465 0.21061286 0)
(0.01233344 0.19227997 0)
(0.046993171 0.17278492 0)
(0.081754265 0.15265397 0)
(0.11443799 0.13135286 0)
(0.14315331 0.10779558 0)
(0.16601686 0.080591666 0)
(0.18098115 0.048112219 0)
(0.185576 0.0084493295 0)
(0.17716559 -0.040817475 0)
(0.15275932 -0.1031762 0)
(0.10948865 -0.18390621 0)
(0.047240386 -0.28855466 0)
(-0.021439392 -0.41051038 0)
(-0.072253005 -0.49101697 0)
(-0.0411475 -0.3505429 0)
(-0.033352246 0.15561545 0)
(-0.068601655 0.22040442 0)
(-0.055187356 0.2172922 0)
(-0.016078681 0.19532436 0)
(0.034511123 0.17092344 0)
(0.088507762 0.14849461 0)
(0.14176854 0.12861259 0)
(0.191969 0.11057759 0)
(0.23754066 0.09329761 0)
(0.27712013 0.075575103 0)
(0.30921811 0.056181503 0)
(0.33204325 0.033823342 0)
(0.3431756 0.0070272916 0)
(0.33982877 -0.025910459 0)
(0.3181324 -0.067741757 0)
(0.27327715 -0.12410796 0)
(0.20044716 -0.20584712 0)
(0.10213972 -0.32506912 0)
(-0.012387315 -0.45457168 0)
(-0.023756667 -0.40864069 0)
(-0.033081112 0.23907318 0)
(-0.042647145 0.21792012 0)
(0.042207216 0.16426627 0)
(0.12760457 0.12783576 0)
(0.20769793 0.10143547 0)
(0.28028153 0.081658136 0)
(0.34487301 0.066648113 0)
(0.40158291 0.054703037 0)
(0.45055051 0.044399478 0)
(0.49162028 0.034639944 0)
(0.52416172 0.024550615 0)
(0.54698594 0.013381735 0)
(0.55822225 0.00039977349 0)
(0.55570932 -0.015137302 0)
(0.53552614 -0.034969159 0)
(0.49244652 -0.062488178 0)
(0.41797267 -0.10694762 0)
(0.30410591 -0.19317543 0)
(0.1231378 -0.33691905 0)
(0.052374199 -0.39437913 0)
(0.24299927 0.1525748 0)
(0.3052962 0.11854288 0)
(0.45481217 0.076108146 0)
(0.56000886 0.050840194 0)
(0.63223322 0.035126082 0)
(0.68654914 0.024812302 0)
(0.72943825 0.017960094 0)
(0.7637963 0.013255923 0)
(0.79127926 0.0097622023 0)
(0.81275143 0.0068543651 0)
(0.82841134 0.004118526 0)
(0.83794394 0.0012768654 0)
(0.84057071 -0.0018441921 0)
(0.83497554 -0.0053262514 0)
(0.81886696 -0.0098289574 0)
(0.78942866 -0.016232744 0)
(0.73784287 -0.026935704 0)
(0.65316764 -0.051286551 0)
(0.45609767 -0.11374603 0)
(0.31788988 -0.17206002 0)
)
;

boundaryField
{
    movingWall
    {
        type            fixedValue;
        value           uniform (1 0 0);
    }
    fixedWalls
    {
        type            fixedValue;
        value           uniform (0 0 0);
    }
    frontAndBack
    {
        type            empty;
    }
}


// ************************************************************************* //
