/*--------------------------------*- C++ -*----------------------------------*\
| =========                 |                                                 |
| \\      /  F ield         | OpenFOAM: The Open Source CFD Toolbox           |
|  \\    /   O peration     | Version:  2112                                  |
|   \\  /    A nd           | Website:  www.openfoam.com                      |
|    \\/     M anipulation  |                                                 |
\*---------------------------------------------------------------------------*/
FoamFile
{
    version     2.0;
    format      ascii;
    arch        "LSB;label=32;scalar=64";
    class       surfaceScalarField;
    location    "36.5";
    object      phi;
}
// * * * * * * * * * * * * * * * * * * * * * * * * * * * * * * * * * * * * * //

dimensions      [0 3 -1 0 0 0 0];

oriented        oriented;

internalField   nonuniform List<scalar> 
17370
(
-0.0916071
0.0960068
0.284611
-0.0775903
0.0594139
0.364952
-0.0430359
0.0316165
0.427588
-0.0223115
0.0162572
0.505306
-0.0116614
0.0087846
0.602279
-0.00657121
0.00508769
0.720541
-0.00385777
0.00298769
0.863777
-0.00222693
0.00165774
1.03602
-0.0011329
0.000716089
1.24292
-0.00030833
-8.62903e-05
1.49159
0.000471878
-0.000873564
1.49159
0.00127579
-0.00178409
1.2432
0.00234029
-0.00309009
1.03639
0.00395333
-0.00517707
0.86413
0.00665397
-0.00885782
0.721261
0.0117238
-0.016306
0.603797
0.0223472
-0.0316382
0.50873
0.0430427
-0.0594111
0.432536
0.0775891
-0.0960043
0.365191
0.0916193
0.197392
-0.127087
0.0880169
0.0390698
-0.36435
0.354024
-0.0714798
0.0818061
-0.446655
0.454246
-0.0791698
0.0715788
-0.521009
0.529105
-0.0637303
0.0556342
-0.612986
0.620757
-0.0482477
0.0404772
-0.727159
0.73368
-0.0338636
0.0273425
-0.867579
0.872418
-0.0221436
0.0173049
-1.03856
1.04188
-0.0136232
0.010301
-1.24471
1.24711
-0.00776098
0.00536237
-1.49284
1.49485
-0.00340272
0.00139408
-1.49269
1.49451
0.000419317
-0.00223098
-1.24411
1.24602
0.00420016
-0.00610974
-1.03761
1.04009
0.00844929
-0.0109364
-0.866188
0.869828
0.0142056
-0.0178456
-0.724598
0.729759
0.0226431
-0.0278046
-0.609069
0.615643
0.0342838
-0.0408579
-0.515126
0.522469
0.0485837
-0.0559259
-0.43988
0.447667
0.0639578
-0.0717452
-0.374713
0.37736
0.0792517
-0.0818985
-0.256906
0.224451
0.0715513
-0.0390964
-0.0687993
0.0591844
0.00961485
-0.0521254
0.0589618
-0.374831
0.367994
-0.0581187
0.0542807
-0.453939
0.457777
-0.048796
0.044238
-0.527606
0.532164
-0.0396883
0.0357934
-0.620788
0.624682
-0.0315849
0.0276003
-0.734647
0.738632
-0.0232622
0.0193947
-0.873944
0.877812
-0.0153693
0.0119258
-1.04335
1.04679
-0.00841816
0.00539517
-1.24863
1.25166
-0.00219804
-0.000774527
-1.49693
1.49991
0.00372623
-0.00686566
-1.49742
1.50055
0.00980889
-0.0132159
-1.25007
1.25348
0.0165646
-0.0204897
-1.04566
1.04958
0.0242746
-0.0285303
-0.877147
0.881403
0.0324424
-0.0365711
-0.738997
0.743126
0.0403948
-0.0448728
-0.625988
0.630466
0.0493729
-0.054802
-0.53503
0.540459
0.0585781
-0.0593479
-0.458091
0.458861
0.0524137
-0.0320434
-0.336788
0.316417
0.0096667
-0.0686786
0.0590119
-0.0533918
0.0492775
0.00411432
-0.0332653
0.0436991
-0.358537
0.348103
-0.0473822
0.0468006
-0.45956
0.460142
-0.0438762
0.0406662
-0.536109
0.539319
-0.036991
0.0336383
-0.628368
0.631721
-0.030011
0.0267845
-0.742008
0.745234
-0.0233579
0.020188
-0.881309
0.884479
-0.0166241
0.0132945
-1.05021
1.05354
-0.00961705
0.0062293
-1.25491
1.25829
-0.00245384
-0.00115171
-1.50325
1.50686
0.00472974
-0.00842458
-1.50406
1.50775
0.0117031
-0.0152384
-1.25705
1.26058
0.0184297
-0.0218434
-1.05329
1.05671
0.0248882
-0.0281929
-0.885013
0.888317
0.0313148
-0.03483
-0.746816
0.750331
0.0380808
-0.0416472
-0.634595
0.638162
0.0447643
-0.0475875
-0.544611
0.547434
0.0480669
-0.0442434
-0.45699
0.453167
0.0336396
-0.0163529
-0.297122
0.279836
0.00417065
-0.0531697
0.048999
-0.0461036
0.0435451
0.00255847
-0.0230703
0.033433
-0.337497
0.327134
-0.039179
0.0401364
-0.459881
0.458923
-0.038892
0.0365675
-0.541963
0.544288
-0.033928
0.0313874
-0.634671
0.637212
-0.028425
0.0256017
-0.748311
0.751134
-0.0223994
0.0194174
-0.887532
0.890514
-0.0160951
0.0129838
-1.0567
1.05981
-0.00945292
0.00607836
-1.26167
1.26505
-0.00219651
-0.00157726
-1.51057
1.51435
0.00531632
-0.00909305
-1.51153
1.51531
0.0123262
-0.015672
-1.26404
1.26739
0.0186006
-0.0217214
-1.05991
1.06303
0.0245305
-0.027562
-0.891513
0.894544
0.0302419
-0.0330529
-0.75352
0.756331
0.0354567
-0.0379515
-0.641133
0.643628
0.040154
-0.0412434
-0.549287
0.550376
0.0401287
-0.0341567
-0.448067
0.442095
0.0235485
-0.0103394
-0.264682
0.251473
0.00262821
-0.0457647
0.0431365
-0.0414224
0.0396193
0.00180306
-0.0169653
0.0262635
-0.317248
0.30795
-0.0328729
0.0350034
-0.457345
0.455214
-0.034578
0.0328872
-0.546296
0.547987
-0.0306668
0.0285483
-0.639498
0.641616
-0.0261285
0.0237782
-0.753724
0.756074
-0.0210053
0.0182985
-0.893366
0.896073
-0.0151548
0.0121563
-1.06284
1.06583
-0.00872966
0.00544914
-1.26834
1.27162
-0.00164413
-0.0020761
-1.51809
1.52181
0.00575308
-0.00942665
-1.51905
1.52272
0.0125279
-0.0157158
-1.27067
1.27386
0.018476
-0.0213542
-1.06607
1.06895
0.0238322
-0.026379
-0.897337
0.899884
0.0285428
-0.030772
-0.758777
0.761007
0.0327205
-0.0347576
-0.645869
0.647906
0.0362748
-0.0364901
-0.550977
0.551192
0.0341201
-0.0271832
-0.435546
0.428609
0.0175589
-0.00742685
-0.239945
0.229813
0.00188809
-0.0409399
0.0390518
-0.0380657
0.0367115
0.00135419
-0.0129626
0.0209736
-0.299294
0.291283
-0.0277566
0.0306909
-0.452641
0.449707
-0.0309064
0.0297876
-0.549405
0.550524
-0.0277905
0.0258716
-0.64365
0.645569
-0.0236818
0.0215762
-0.758301
0.760407
-0.0191207
0.016703
-0.898599
0.901017
-0.0138372
0.0110301
-1.0687
1.0715
-0.00775362
0.00458757
-1.27482
1.27799
-0.000910665
-0.00267019
-1.52545
1.52903
0.00619608
-0.00970817
-1.52633
1.52984
0.0126516
-0.0156318
-1.27698
1.27996
0.0181406
-0.0206693
-1.07167
1.0742
0.0227945
-0.0249579
-0.902197
0.904361
0.0268217
-0.0287677
-0.76306
0.765006
0.0304745
-0.0322562
-0.6498
0.651582
0.0331263
-0.0326182
-0.551057
0.550549
0.0293446
-0.0221168
-0.421471
0.414243
0.0136901
-0.00570912
-0.220859
0.212878
0.00145736
-0.037408
0.0359507
-0.0355276
0.0344845
0.00104312
-0.0101285
0.0169087
-0.283908
0.277128
-0.0234401
0.0268431
-0.446507
0.443104
-0.0276512
0.0269839
-0.551393
0.55206
-0.0252472
0.0234936
-0.647427
0.649181
-0.0214724
0.0195124
-0.762454
0.764414
-0.0172074
0.0149389
-0.903317
0.905585
-0.0122668
0.00964776
-1.07416
1.07678
-0.00656939
0.00356244
-1.28105
1.28405
-4.19595e-05
-0.00338793
-1.53252
1.53595
0.00675105
-0.0100637
-1.53326
1.53657
0.012794
-0.0155038
-1.28283
1.28554
0.0177497
-0.0199975
-1.0766
1.07885
0.0218921
-0.023825
-0.906397
0.90833
0.0254831
-0.0272033
-0.766802
0.768522
0.0286952
-0.0301387
-0.653216
0.65466
0.0304957
-0.0292879
-0.549706
0.548499
0.025424
-0.0183133
-0.407051
0.399941
0.0110151
-0.00455893
-0.205732
0.199276
0.00116804
-0.0346569
0.0334889
-0.0335681
0.0327558
0.000812334
-0.0080199
0.0137171
-0.270915
0.265218
-0.0197646
0.0233687
-0.439583
0.435979
-0.0246557
0.0242327
-0.552622
0.553045
-0.0227646
0.0211211
-0.650912
0.652556
-0.0192048
0.0173518
-0.766335
0.768188
-0.0151763
0.0130355
-0.907741
0.909882
-0.0105108
0.00803897
-1.07925
1.08172
-0.00513966
0.00230349
-1.28693
1.28976
0.00101967
-0.00425969
-1.53927
1.54251
0.00741573
-0.0104847
-1.53978
1.54285
0.012976
-0.0154148
-1.28815
1.29059
0.0174224
-0.0194223
-1.081
1.083
0.0211002
-0.0228118
-0.910138
0.91185
0.0242871
-0.0258294
-0.770111
0.771654
0.0271525
-0.0282557
-0.655916
0.657019
0.0282731
-0.0264355
-0.546989
0.545152
0.0222207
-0.0154359
-0.392992
0.386207
0.00909976
-0.00374861
-0.193426
0.188075
0.000964156
-0.0324385
0.0314743
-0.0320419
0.0314082
0.000633683
-0.00638605
0.011151
-0.260012
0.255247
-0.0166042
0.0202186
-0.432364
0.428749
-0.0218515
0.021677
-0.553374
0.553549
-0.0204692
0.0189103
-0.654201
0.65576
-0.0170747
0.0152891
-0.770022
0.771808
-0.0131874
0.0111188
-0.911916
0.913985
-0.00868182
0.00630327
-1.08407
1.08645
-0.00352598
0.000832722
-1.29248
1.29517
0.00229291
-0.00531263
-1.54561
1.54863
0.00822854
-0.0110453
-1.54579
1.54861
0.0133218
-0.0155455
-1.29295
1.29518
0.0173689
-0.0191721
-1.08492
1.08673
0.0206715
-0.0221827
-0.913456
0.914968
0.0234776
-0.0248367
-0.773082
0.774441
0.0260076
-0.026716
-0.657908
0.658617
0.026377
-0.0240242
-0.543088
0.540735
0.0196242
-0.0132492
-0.379644
0.373269
0.00770012
-0.00316435
-0.183175
0.178639
0.000817761
-0.0305979
0.0297801
-0.0308554
0.0303676
0.000487808
-0.00505792
0.00900831
-0.250913
0.246963
-0.0138063
0.0172641
-0.425216
0.421758
-0.0190869
0.019123
-0.553645
0.553609
-0.0181454
0.0166608
-0.657335
0.658819
-0.0148894
0.0131528
-0.77358
0.775316
-0.0111019
0.00908536
-0.915952
0.917968
-0.00672022
0.00442499
-1.0887
1.09099
-0.00175957
-0.000808924
-1.29774
1.30031
0.00377447
-0.00661189
-1.55152
1.55436
0.00932265
-0.0119066
-1.55131
1.5539
0.0139613
-0.0159386
-1.29732
1.2993
0.017541
-0.0191185
-1.08845
1.09003
0.0204291
-0.0217533
-0.916398
0.917722
0.0228915
-0.0240807
-0.775687
0.776877
0.0250707
-0.0254079
-0.659109
0.659446
0.02471
-0.0219561
-0.538207
0.535453
0.0175035
-0.0115659
-0.367134
0.361197
0.00665788
-0.00273651
-0.174447
0.170526
0.000712106
-0.0290283
0.0283162
-0.0299494
0.0295851
0.000364306
-0.0039353
0.00716227
-0.243398
0.240171
-0.0112881
0.0144756
-0.418452
0.415264
-0.0163539
0.0165458
-0.553543
0.553351
-0.0156582
0.0142521
-0.660335
0.661741
-0.0124935
0.0107696
-0.777048
0.778771
-0.00875063
0.00678351
-0.91986
0.921827
-0.00449124
0.00227648
-1.09314
1.09536
0.000281447
-0.00274053
-1.30275
1.30521
0.00554916
-0.00819971
-1.55707
1.55972
0.0106958
-0.013037
-1.55636
1.5587
0.0148689
-0.0166027
-1.3012
1.30293
0.0179846
-0.0193216
-1.09152
1.09286
0.0204206
-0.0215387
-0.918945
0.920063
0.0225143
-0.0235344
-0.77796
0.77898
0.0242962
-0.0243861
-0.659656
0.659746
0.0233258
-0.0202561
-0.532574
0.529504
0.0158198
-0.0102885
-0.355493
0.349962
0.00589006
-0.0024292
-0.16687
0.163409
0.000638782
-0.0276561
0.0270173
-0.0292843
0.0290314
0.000252896
-0.00293212
0.00549055
-0.237301
0.234742
-0.00892983
0.0117607
-0.41228
0.409449
-0.0135976
0.0139076
-0.553164
0.552854
-0.013115
0.0118044
-0.663184
0.664494
-0.0100721
0.00834499
-0.780481
0.782208
-0.00631044
0.00433142
-0.923673
0.925652
-0.00204247
-0.00014311
-1.09745
1.09963
0.00264944
-0.00501601
-1.30755
1.30991
0.00767873
-0.0101521
-1.56224
1.56471
0.0124358
-0.0145286
-1.56092
1.56301
0.016126
-0.017607
-1.30459
1.30607
0.0187714
-0.0198832
-1.09412
1.09523
0.0207879
-0.0216994
-0.921105
0.922016
0.0224941
-0.0233116
-0.779894
0.780712
0.0238007
-0.0236131
-0.659662
0.659474
0.0221998
-0.018859
-0.526335
0.522994
0.0144759
-0.00931054
-0.344653
0.339488
0.0053201
-0.00220806
-0.160159
0.157047
0.000588322
-0.0264208
0.0258325
-0.02884
0.0286955
0.000144525
-0.00198432
0.00390276
-0.232527
0.230609
-0.00663324
0.00901393
-0.40688
0.4045
-0.0106756
0.0110135
-0.552606
0.552268
-0.0102873
0.00904678
-0.665857
0.667098
-0.00732583
0.00557348
-0.78391
0.785662
-0.00350073
0.00149697
-0.927505
0.929509
0.000795395
-0.00296524
-1.1017
1.10387
0.00541614
-0.00770627
-1.31216
1.31445
0.0102472
-0.012561
-1.56705
1.56936
0.0146419
-0.0164832
-1.56498
1.56682
0.0178399
-0.0190544
-1.30748
1.30869
0.0199761
-0.0208343
-1.09629
1.09715
0.021522
-0.0222019
-0.922859
0.923539
0.0227753
-0.0233604
-0.781369
0.781954
0.0235269
-0.0230486
-0.659061
0.658583
0.0212911
-0.0177266
-0.519581
0.516016
0.0134212
-0.0085759
-0.334531
0.329686
0.00490885
-0.00205757
-0.154105
0.151254
0.000557805
-0.0252787
0.0247209
-0.0286098
0.0285776
3.21788e-05
-0.00103826
0.00232028
-0.229031
0.227749
-0.00431416
0.00616934
-0.402427
0.400571
-0.007532
0.00778301
-0.552078
0.551827
-0.0070318
0.00578466
-0.668452
0.669699
-0.0040242
0.00223854
-0.78738
0.789165
-0.000147045
-0.0018594
-0.931352
0.933358
0.00414776
-0.00630815
-1.1059
1.10806
0.00873324
-0.0109658
-1.31661
1.31884
0.0133835
-0.0155126
-1.57153
1.57366
0.0173566
-0.0189254
-1.56851
1.57008
0.0200092
-0.0209043
-1.3098
1.31069
0.0215343
-0.0220774
-1.09789
1.09843
0.0224857
-0.0228845
-0.924128
0.924527
0.0232439
-0.0236309
-0.782438
0.782825
0.0235002
-0.0226897
-0.657794
0.656983
0.0206198
-0.0168748
-0.512444
0.508699
0.0126414
-0.00805382
-0.325042
0.320455
0.0046324
-0.00196596
-0.148546
0.145879
0.00054271
-0.0241957
0.023653
-0.0286017
0.0286802
-7.85265e-05
-5.04674e-05
0.000691026
-0.226809
0.226168
-0.00192582
0.00320349
-0.39905
0.397773
-0.00420838
0.0043462
-0.551781
0.551644
-0.00357788
0.0023241
-0.671095
0.672348
-0.000523151
-0.00132921
-0.7909
0.792752
0.00351046
-0.00560097
-0.935214
0.937304
0.00797262
-0.0101848
-1.11009
1.1123
0.0126284
-0.014837
-1.32096
1.32317
0.0171704
-0.0191501
-1.57564
1.57762
0.0207861
-0.0220822
-1.57149
1.57279
0.0228963
-0.0234789
-1.31151
1.31209
0.0238192
-0.024051
-1.09887
1.09911
0.0241696
-0.0242633
-0.924815
0.924909
0.0243686
-0.0243921
-0.782948
0.782971
0.0240005
-0.0227706
-0.655837
0.654607
0.0203176
-0.016337
-0.504956
0.500976
0.0121347
-0.00773734
-0.31605
0.311653
0.00448711
-0.00193423
-0.143326
0.140774
0.000545567
-0.0231362
0.0225907
-0.0288272
0.0290458
-0.000218633
0.000945042
-0.00101451
-0.2259
0.225969
0.000615597
-1.0213e-05
-0.396875
0.39627
-0.000508063
0.00043063
-0.551786
0.551864
0.000417219
-0.00171799
-0.67377
0.675071
0.00358656
-0.00555021
-0.794556
0.796519
0.00788196
-0.0101077
-0.939268
0.941494
0.012607
-0.0149046
-1.1144
1.1167
0.0173943
-0.0195878
-1.32525
1.32745
0.0218315
-0.0236478
-1.57944
1.58126
0.0250266
-0.0259908
-1.57389
1.57486
0.0264696
-0.0266823
-1.31256
1.31277
0.0266944
-0.0265782
-1.09922
1.09911
0.0263979
-0.0261641
-0.92488
0.924647
0.0259383
-0.0255856
-0.78265
0.782298
0.0248334
-0.0230585
-0.653065
0.65129
0.0202393
-0.0160673
-0.497061
0.492889
0.0118839
-0.00760811
-0.307433
0.303157
0.0044552
-0.00195011
-0.138313
0.135808
0.000560595
-0.0220687
0.0215081
-0.0293311
0.0296915
-0.000360431
0.00209452
-0.00285212
-0.226359
0.227116
0.00335595
-0.00353782
-0.396089
0.396271
0.00366967
-0.00411167
-0.552386
0.552828
0.00514863
-0.00660721
-0.676611
0.67807
0.00863351
-0.0107336
-0.798416
0.800516
0.0132028
-0.0155414
-0.943551
0.945889
0.0181547
-0.0205401
-1.11886
1.12124
0.0230983
-0.0253101
-1.32951
1.33172
0.0275014
-0.0291767
-1.58292
1.58459
0.0303227
-0.0309483
-1.57562
1.57624
0.0310961
-0.0308862
-1.31283
1.31262
0.0304899
-0.0299252
-1.09879
1.09823
0.029347
-0.02871
-0.924199
0.923561
0.0281365
-0.02737
-0.781533
0.780767
0.0261615
-0.0238605
-0.649318
0.647017
0.0206679
-0.0162428
-0.488815
0.48439
0.0119844
-0.00771472
-0.299031
0.294761
0.004561
-0.00202119
-0.133369
0.130829
0.000588496
-0.0209689
0.0203804
-0.0301341
0.0306758
-0.000541698
0.00335606
-0.00490037
-0.228289
0.229834
0.0063248
-0.0073147
-0.396835
0.397825
0.00817492
-0.00905692
-0.553826
0.554708
0.0103733
-0.0120449
-0.679838
0.681509
0.0143028
-0.0166191
-0.802561
0.804877
0.019328
-0.0218837
-0.948068
0.950624
0.0247263
-0.0273016
-1.1235
1.12608
0.0300189
-0.0323061
-1.33382
1.33611
0.0344616
-0.0359668
-1.58609
1.58759
0.0368366
-0.0370789
-1.57663
1.57687
0.0368378
-0.0361903
-1.31221
1.31156
0.0353648
-0.0343305
-1.09741
1.09637
0.0333328
-0.0322395
-0.922641
0.921548
0.0313053
-0.0300266
-0.779512
0.778234
0.02834
-0.0254616
-0.644604
0.641726
0.0217907
-0.017001
-0.480043
0.475254
0.0125581
-0.00815079
-0.290601
0.286194
0.00486283
-0.0021717
-0.128316
0.125624
0.000635291
-0.0198092
0.0191739
-0.0313048
0.0320663
-0.000761503
0.00481263
-0.00720764
-0.2318
0.234195
0.00965437
-0.0115258
-0.399239
0.401111
0.0131954
-0.014592
-0.556239
0.557635
0.0162515
-0.0181811
-0.683544
0.685474
0.0207543
-0.0233986
-0.807158
0.809803
0.0265005
-0.0294195
-0.953066
0.955985
0.032637
-0.0355037
-1.12856
1.13143
0.0384587
-0.0408594
-1.33829
1.34069
0.0430044
-0.0443525
-1.5889
1.59025
0.0449233
-0.0447464
-1.57685
1.57667
0.044057
-0.0429242
-1.31065
1.30951
0.0416528
-0.0401271
-1.09503
1.0935
0.0386842
-0.0371113
-0.920098
0.918525
0.0357257
-0.0338369
-0.776436
0.774548
0.0315549
-0.0280034
-0.638742
0.63519
0.0238029
-0.018564
-0.470564
0.465325
0.0137888
-0.00903189
-0.281837
0.27708
0.00542364
-0.00242641
-0.122905
0.119908
0.000706776
-0.0185517
0.017845
-0.032908
0.0339426
-0.00103459
0.00653856
-0.0099016
-0.237007
0.24037
0.0135024
-0.016392
-0.403535
0.406424
0.019018
-0.0211006
-0.559856
0.561938
0.0233177
-0.0256863
-0.68789
0.690258
0.0287608
-0.0318868
-0.812443
0.815569
0.0355193
-0.0388946
-0.958817
0.962192
0.04255
-0.0457339
-1.1342
1.13739
0.0489226
-0.0514143
-1.34295
1.34544
0.0535
-0.0546124
-1.59137
1.59248
0.054791
-0.0540828
-1.57616
1.57545
0.0528644
-0.051129
-1.30802
1.30628
0.0493488
-0.0472967
-1.09159
1.08954
0.0453909
-0.043319
-0.916507
0.914435
0.0414046
-0.0389019
-0.772165
0.769663
0.0360106
-0.0317805
-0.631605
0.627375
0.0269811
-0.021115
-0.460191
0.454325
0.0157741
-0.0103952
-0.272285
0.266906
0.00625783
-0.00279372
-0.116819
0.113355
0.000808314
-0.0171418
0.0163335
-0.0350429
0.0364451
-0.00140214
0.00877501
-0.0133145
-0.244121
0.248661
0.0182364
-0.0222501
-0.409995
0.414009
0.0259619
-0.0289134
-0.565128
0.568079
0.0319639
-0.0350388
-0.69332
0.696395
0.0388587
-0.0426202
-0.818715
0.822476
0.0468764
-0.0507522
-0.965468
0.969344
0.0548716
-0.0583883
-1.14045
1.14397
0.0618141
-0.0643766
-1.34775
1.35031
0.0663397
-0.0671331
-1.59329
1.59408
0.0668172
-0.065479
-1.57435
1.57301
0.0636376
-0.0611963
-1.30412
1.30167
0.0587709
-0.056055
-1.08697
1.08425
0.0536238
-0.0510483
-0.911818
0.909242
0.0486264
-0.0455316
-0.766654
0.763559
0.0420088
-0.0369956
-0.623139
0.618126
0.0314047
-0.0246307
-0.448535
0.441761
0.0184492
-0.0121741
-0.261416
0.255141
0.00731702
-0.00325027
-0.109757
0.105691
0.000932911
-0.0155261
0.0145932
-0.0378869
0.0398218
-0.00193491
0.0119055
-0.0179769
-0.253535
0.259606
0.0244903
-0.029784
-0.418954
0.424248
0.0346788
-0.0385904
-0.572451
0.576363
0.0426049
-0.0465636
-0.700322
0.704281
0.0513147
-0.0558457
-0.826258
0.830789
0.0608627
-0.0653472
-0.97313
0.977615
0.0700308
-0.0739387
-1.14737
1.15127
0.0776253
-0.0802362
-1.35266
1.35527
0.082008
-0.0823848
-1.59449
1.59487
0.0814784
-0.079386
-1.57119
1.5691
0.0768098
-0.0735549
-1.29873
1.29548
0.0704048
-0.0669513
-1.08091
1.07746
0.0639011
-0.0607062
-0.905965
0.90277
0.0577008
-0.0539592
-0.759939
0.756198
0.0496477
-0.0435994
-0.613033
0.606985
0.0369537
-0.0289679
-0.435032
0.427046
0.0216691
-0.014242
-0.248708
0.241281
0.00851128
-0.00375205
-0.101474
0.0967145
0.00106773
-0.0136626
0.0125949
-0.0417526
0.0445186
-0.00276602
0.0165737
-0.0247191
-0.265934
0.274079
0.0332361
-0.0400749
-0.430994
0.437833
0.0463547
-0.0513496
-0.582123
0.587117
0.0564983
-0.0615497
-0.709172
0.714224
0.0673773
-0.0728089
-0.835342
0.840774
0.0787126
-0.0838882
-0.98203
0.987206
0.0891587
-0.0934099
-1.15503
1.15928
0.0972248
-0.0997112
-1.35757
1.36006
0.10107
-0.100812
-1.59475
1.59449
0.0991113
-0.0961005
-1.56643
1.56342
0.0926931
-0.0885387
-1.29164
1.28749
0.0845855
-0.0802805
-1.07328
1.06898
0.0765078
-0.0725857
-0.898673
0.894751
0.0688078
-0.0641183
-0.751741
0.747052
0.0587584
-0.0514162
-0.600732
0.59339
0.0434861
-0.0339917
-0.41911
0.409615
0.0252892
-0.0164724
-0.233707
0.22489
0.00974948
-0.00424937
-0.0918334
0.0863333
0.00119408
-0.0115449
0.0103508
-0.0472106
0.0514126
-0.00420205
0.0239994
-0.0350416
-0.282502
0.293544
0.0462457
-0.0552329
-0.447147
0.456134
0.0632848
-0.0696288
-0.594553
0.600897
0.0762523
-0.0826215
-0.720178
0.726547
0.0896882
-0.0960291
-0.846198
0.852539
0.102718
-0.1084
-0.992236
0.997918
0.113956
-0.118197
-1.16321
1.16745
0.121689
-0.123604
-1.36201
1.36393
0.124036
-0.122671
-1.5935
1.59213
0.119726
-0.115403
-1.55963
1.55531
0.110894
-0.105673
-1.28266
1.27744
0.100864
-0.0956979
-1.06388
1.05871
0.0911614
-0.0863377
-0.889621
0.884798
0.0817047
-0.0759363
-0.741418
0.735649
0.0693747
-0.0605197
-0.585745
0.57689
0.051016
-0.0396265
-0.400131
0.388742
0.0292109
-0.0187933
-0.216017
0.205599
0.0109795
-0.00471069
-0.0807919
0.0745231
0.0012989
-0.00919943
0.00790052
-0.0553478
0.0626187
-0.0072709
0.03738
-0.0527719
-0.305457
0.320849
0.0677849
-0.0796024
-0.468991
0.480808
0.0895958
-0.0974662
-0.610344
0.618214
0.105805
-0.113467
-0.733622
0.741284
0.1215
-0.128348
-0.858658
0.865506
0.135249
-0.14081
-1.00318
1.00874
0.145905
-0.149418
-1.17101
1.17452
0.151821
-0.152453
-1.36493
1.36556
0.15124
-0.148136
-1.58967
1.58657
0.143414
-0.137317
-1.54992
1.54383
0.131327
-0.124678
-1.27134
1.26469
0.118752
-0.112591
-1.05264
1.04648
0.107307
-0.101735
-0.878661
0.873089
0.0964085
-0.0896329
-0.728722
0.721947
0.0817935
-0.0709965
-0.567547
0.55675
0.0593487
-0.0456245
-0.377183
0.363458
0.0333153
-0.0212035
-0.195355
0.183243
0.0122179
-0.00514043
-0.0684152
0.0613377
0.00137527
-0.00668374
0.00530847
-0.0694661
0.0734295
-0.0039634
0.0281385
-0.0414004
-0.338802
0.352064
0.0547255
-0.0653741
-0.497775
0.508424
0.0750051
-0.0843194
-0.629593
0.638907
0.0949009
-0.104224
-0.748781
0.758105
0.114578
-0.123783
-0.871561
0.880765
0.133452
-0.141861
-1.01333
1.02174
0.150355
-0.157309
-1.17685
1.18381
0.163717
-0.168206
-1.3649
1.36939
0.171183
-0.171673
-1.58209
1.58258
0.169565
-0.165309
-1.53648
1.53222
0.160038
-0.153318
-1.25701
1.25029
0.146962
-0.13961
-1.03924
1.03189
0.133402
-0.12688
-0.86604
0.859518
0.120494
-0.111537
-0.713644
0.704687
0.0997811
-0.0840833
-0.544872
0.529174
0.0680721
-0.0500437
-0.349331
0.331303
0.0349382
-0.0210191
-0.171556
0.157637
0.0113949
-0.00446413
-0.0549604
0.0480296
0.00107517
-0.00411592
0.00304075
-0.0804673
0.0784475
0.00201974
0.00621983
-0.0146495
-0.36817
0.3766
0.0246545
-0.032324
-0.523739
0.531409
0.0402821
-0.0484476
-0.650564
0.658729
0.0582278
-0.0671476
-0.767281
0.7762
0.0765561
-0.0850772
-0.889473
0.897994
0.0939646
-0.101365
-1.02983
1.03723
0.109047
-0.115019
-1.19056
1.19653
0.120518
-0.124148
-1.37358
1.37721
0.126061
-0.125812
-1.58229
1.58204
0.12313
-0.118434
-1.52729
1.5226
0.11263
-0.105318
-1.24317
1.23585
0.0982244
-0.0900259
-1.02384
1.01564
0.0821749
-0.0729871
-0.84995
0.840762
0.0640188
-0.0537608
-0.690438
0.68018
0.0436282
-0.0319514
-0.510731
0.499054
0.0219897
-0.0132176
-0.312794
0.304022
0.00752147
-0.00345326
-0.144315
0.140246
0.00132458
-0.00028645
-0.041644
0.0406058
6.70713e-07
-0.00191445
0.00191378
-0.0815158
0.0785502
0.00296558
-0.00281101
-0.00171178
-0.387675
0.392197
0.00827153
-0.0139778
-0.542988
0.548694
0.0201607
-0.0271679
-0.66867
0.675677
0.0355922
-0.0433234
-0.784338
0.792069
0.0517133
-0.0591527
-0.905791
0.913231
0.0666942
-0.0733733
-1.04446
1.05114
0.0801695
-0.0856221
-1.20214
1.20759
0.0903284
-0.0933697
-1.38034
1.38339
0.0951468
-0.0947679
-1.5814
1.58102
0.0921186
-0.0875789
-1.51766
1.51312
0.081989
-0.0749689
-1.22864
1.22162
0.0674933
-0.0586474
-1.00666
0.997811
0.0496839
-0.0389891
-0.829696
0.819001
0.0290732
-0.0186559
-0.665723
0.655306
0.0100761
-0.00194331
-0.485216
0.477083
-0.003004
0.00551644
-0.293918
0.291406
-0.005867
0.00488675
-0.134698
0.135678
-0.00340093
0.00170342
-0.03899
0.0406875
-0.000539398
-0.00167388
0.00221328
-0.0800271
0.0771981
0.00282901
-0.00623638
0.00434419
-0.400224
0.402116
-0.000484553
-0.00375461
-0.557337
0.561576
0.00899232
-0.0147882
-0.683501
0.689297
0.0218968
-0.0284961
-0.799267
0.805866
0.0356585
-0.0420585
-0.920162
0.926562
0.0489814
-0.0547819
-1.05744
1.06324
0.0609455
-0.0655271
-1.21276
1.21734
0.0698886
-0.0727464
-1.3864
1.38926
0.0742996
-0.0736367
-1.58045
1.57979
0.0711352
-0.0667452
-1.50822
1.50383
0.0611962
-0.0537817
-1.21431
1.20689
0.0462005
-0.0371394
-0.988232
0.979171
0.0278845
-0.0174797
-0.80719
0.796786
0.00790804
0.00118039
-0.642145
0.633057
-0.00770512
0.012543
-0.467343
0.462505
-0.0142762
0.0135082
-0.285822
0.28659
-0.0114178
0.00827498
-0.134917
0.13806
-0.00540549
0.0025458
-0.0414964
0.0443561
-0.000766661
-0.00241846
0.00318512
-0.0783393
0.0758815
0.00245773
-0.00711042
0.00674616
-0.408308
0.408672
-0.00402642
0.00111441
-0.568686
0.571598
0.00299378
-0.00811253
-0.695705
0.700824
0.013944
-0.0196704
-0.811808
0.817535
0.0258513
-0.0314502
-0.932553
0.938152
0.0375065
-0.0428329
-1.06898
1.07431
0.048284
-0.0527344
-1.2219
1.22635
0.0567611
-0.0593915
-1.3919
1.39453
0.0607599
-0.0599577
-1.57904
1.57824
0.0573449
-0.0526652
-1.49873
1.49405
0.0470713
-0.0398226
-1.19932
1.19207
0.0323811
-0.0235218
-0.969616
0.960757
0.0150121
-0.00566411
-0.785798
0.77645
-0.00235317
0.00965833
-0.622402
0.615096
-0.0143409
0.0174129
-0.455307
0.452235
-0.0180793
0.0161783
-0.283445
0.285346
-0.0130975
0.00938729
-0.139266
0.142977
-0.00605267
0.00279819
-0.0462294
0.0494839
-0.000845456
-0.00363057
0.00447602
-0.0768506
0.0747829
0.00206771
-0.00673461
0.00677738
-0.413638
0.413595
-0.00540804
0.00311153
-0.577123
0.579419
0.000721808
-0.00497822
-0.705758
0.710014
0.00987709
-0.0147782
-0.822488
0.827389
0.02026
-0.0253158
-0.94345
0.948506
0.030974
-0.0357931
-1.07943
1.08425
0.0408899
-0.0450778
-1.23061
1.2348
0.048816
-0.0512265
-1.39697
1.39938
0.0523697
-0.0517631
-1.57734
1.57673
0.0490149
-0.0444759
-1.48886
1.48432
0.0389998
-0.0320609
-1.18461
1.17767
0.0253427
-0.0172101
-0.951865
0.943733
0.00969686
-0.00181223
-0.767031
0.759146
-0.00484829
0.0108464
-0.606541
0.600543
-0.0147202
0.0171453
-0.446859
0.444434
-0.0172441
0.0153188
-0.283526
0.285451
-0.0124904
0.00888398
-0.144715
0.148321
-0.00566537
0.00264658
-0.0514328
0.0544516
-0.000810953
-0.00492987
0.00574082
-0.075783
0.0742066
0.00157645
-0.00560108
0.00585526
-0.417515
0.417261
-0.00479702
0.00317135
-0.584353
0.585979
0.000348106
-0.00409794
-0.714224
0.717974
0.00866725
-0.0128356
-0.83191
0.836078
0.0176584
-0.0221976
-0.953577
0.958117
0.0276556
-0.0321463
-1.08916
1.09365
0.0368181
-0.0408797
-1.23886
1.24293
0.0448096
-0.047073
-1.40183
1.40409
0.04823
-0.0475197
-1.5757
1.57499
0.0451345
-0.0405645
-1.47953
1.47496
0.0355909
-0.0293676
-1.17064
1.16442
0.0232287
-0.0162765
-0.935848
0.928896
0.00980005
-0.00300232
-0.751153
0.744355
-0.00231844
0.007343
-0.59351
0.588485
-0.0106693
0.0125892
-0.439689
0.437769
-0.0129553
0.0117804
-0.284145
0.285319
-0.00958954
0.00677879
-0.149641
0.152452
-0.00431134
0.00203069
-0.0559425
0.0582231
-0.000638117
-0.00607864
0.00671676
-0.0752889
0.0740818
0.00120704
-0.00431789
0.00456675
-0.420625
0.420376
-0.00349984
0.00190395
-0.590561
0.592157
0.00134499
-0.00460157
-0.721689
0.724946
0.00845103
-0.0124592
-0.84021
0.844218
0.0169277
-0.021632
-0.962508
0.967212
0.0264153
-0.0307613
-1.09828
1.10262
0.0355872
-0.0394174
-1.2469
1.25073
0.0428631
-0.0454957
-1.40627
1.4089
0.0467705
-0.0462863
-1.5743
1.57381
0.044049
-0.0401095
-1.47057
1.46664
0.0356022
-0.0299794
-1.15798
1.15236
0.0245864
-0.0184724
-0.921997
0.915883
0.0128756
-0.00716743
-0.737684
0.731976
0.0022716
0.00214656
-0.582524
0.578106
-0.00506058
0.00703419
-0.433555
0.431581
-0.00764135
0.00699806
-0.283833
0.284476
-0.00573905
0.00400184
-0.152848
0.154585
-0.00253683
0.00121432
-0.0589564
0.0602789
-0.000405462
-0.00687081
0.00727627
-0.0753728
0.0743885
0.000984284
-0.00289272
0.00279786
-0.423568
0.423663
-0.00182236
0.000218622
-0.596327
0.59793
0.00285373
-0.00601632
-0.728537
0.7317
0.00970335
-0.0133214
-0.848036
0.851654
0.0179198
-0.0218653
-0.971384
0.975329
0.0266302
-0.0307999
-1.10715
1.11132
0.0355013
-0.0394981
-1.25455
1.25855
0.0431794
-0.0455456
-1.41128
1.41365
0.0470963
-0.0469675
-1.57323
1.5731
0.0453538
-0.0417738
-1.46258
1.459
0.0378047
-0.0327677
-1.14689
1.14186
0.027991
-0.0224954
-0.909674
0.904178
0.0176298
-0.0124681
-0.726068
0.720906
0.00810757
-0.00398511
-0.572914
0.568791
0.000982023
0.00105011
-0.427547
0.425515
-0.00204137
0.002109
-0.282376
0.282309
-0.00189006
0.00134198
-0.154008
0.154556
-0.000878774
0.000490121
-0.0601573
0.0605459
-0.000192055
-0.00723327
0.00742533
-0.0757735
0.0751087
0.000664733
-0.00165756
0.00111223
-0.426814
0.427359
-0.000264888
-0.00174853
-0.601356
0.603369
0.004501
-0.00757562
-0.73493
0.738004
0.0111344
-0.0149093
-0.855173
0.858948
0.0189251
-0.023038
-0.979507
0.98362
0.0277623
-0.0317117
-1.11592
1.11987
0.0364704
-0.0403816
-1.26235
1.26626
0.0440674
-0.0469036
-1.4164
1.41924
0.0488858
-0.0490096
-1.573
1.57312
0.047645
-0.0448063
-1.45559
1.45275
0.041436
-0.0368672
-1.13673
1.13216
0.0324701
-0.0276799
-0.898669
0.893879
0.0229347
-0.0183731
-0.715505
0.710943
0.0143601
-0.0103785
-0.564227
0.560245
0.00749879
-0.00505252
-0.421451
0.419004
0.00357916
-0.00252441
-0.279679
0.278624
0.00179299
-0.00107621
-0.153012
0.152295
0.000467407
-4.26758e-05
-0.0596349
0.0592102
-7.01799e-05
-0.00713345
0.00720363
-0.076603
0.0760967
0.000506324
-0.000648378
0.000173602
-0.430437
0.430911
0.00148653
-0.00335851
-0.606763
0.608635
0.00632489
-0.00934157
-0.740925
0.743942
0.0128059
-0.0162262
-0.86244
0.865861
0.0203903
-0.0242012
-0.987762
0.991573
0.0288659
-0.0332214
-1.12427
1.12863
0.0375867
-0.0417794
-1.27021
1.2744
0.0458282
-0.0487112
-1.42197
1.42485
0.0510236
-0.0519017
-1.57345
1.57433
0.0509792
-0.0487805
-1.44979
1.44759
0.0456556
-0.0415954
-1.12763
1.12357
0.0376643
-0.0331207
-0.888713
0.884169
0.0288202
-0.0244494
-0.705866
0.701495
0.0206038
-0.0166007
-0.555714
0.551711
0.0134632
-0.0106702
-0.414992
0.412199
0.0084344
-0.00648471
-0.275287
0.273337
0.00477901
-0.00302208
-0.149826
0.148069
0.0016351
-0.000563564
-0.0575873
0.0565158
8.38024e-05
-0.00672133
0.00663753
-0.0777039
0.0773832
0.000320665
0.000445597
-0.00123488
-0.434236
0.435025
0.00274714
-0.00497925
-0.611878
0.61411
0.00794326
-0.0108678
-0.746823
0.749747
0.014471
-0.0177845
-0.869303
0.872617
0.0218227
-0.0257611
-0.995879
0.999818
0.0303185
-0.0346149
-1.13284
1.13713
0.0391605
-0.043338
-1.27851
1.28269
0.0475247
-0.0511085
-1.428
1.43159
0.053829
-0.0549844
-1.57513
1.57629
0.0547447
-0.0528757
-1.44527
1.44341
0.0503131
-0.0467923
-1.11943
1.11591
0.0429472
-0.0386509
-0.87934
0.875044
0.0345544
-0.0301792
-0.696715