/*--------------------------------*- C++ -*----------------------------------*\
| =========                 |                                                 |
| \\      /  F ield         | OpenFOAM: The Open Source CFD Toolbox           |
|  \\    /   O peration     | Version:  2112                                  |
|   \\  /    A nd           | Website:  www.openfoam.com                      |
|    \\/     M anipulation  |                                                 |
\*---------------------------------------------------------------------------*/
FoamFile
{
    version     2.0;
    format      ascii;
    arch        "LSB;label=32;scalar=64";
    class       volScalarField;
    location    "58.5";
    object      p;
}
// * * * * * * * * * * * * * * * * * * * * * * * * * * * * * * * * * * * * * //

dimensions      [0 2 -2 0 0 0 0];

internalField   nonuniform List<scalar> 
8800
(
0.7794
0.731614
0.692925
0.663931
0.643069
0.628241
0.61765
0.610177
0.605368
0.603326
0.604612
0.608816
0.615472
0.624795
0.63758
0.655318
0.680097
0.714039
0.75659
0.815292
0.610649
0.618328
0.625804
0.629113
0.62761
0.622535
0.616052
0.609981
0.605267
0.602437
0.602175
0.604697
0.609199
0.615154
0.621929
0.628213
0.631856
0.631122
0.625704
0.617014
0.589051
0.595211
0.599338
0.602283
0.604334
0.604942
0.60384
0.601743
0.599739
0.598848
0.599829
0.602226
0.605037
0.607225
0.607837
0.606642
0.604303
0.600912
0.596354
0.592594
0.58324
0.585891
0.588643
0.591046
0.592683
0.593847
0.594593
0.594719
0.594436
0.594405
0.595178
0.596364
0.597216
0.597289
0.596685
0.595598
0.593785
0.591216
0.588814
0.58731
0.577858
0.579283
0.581062
0.583094
0.58488
0.586223
0.587217
0.588023
0.588652
0.589237
0.589911
0.590425
0.590538
0.590259
0.589568
0.588324
0.586631
0.584785
0.583479
0.582647
0.57278
0.573701
0.574942
0.576509
0.578142
0.579669
0.580959
0.582036
0.583016
0.583932
0.584647
0.584996
0.584968
0.584538
0.583664
0.582469
0.581145
0.579887
0.579066
0.578515
0.567872
0.568542
0.569504
0.570806
0.572215
0.573676
0.57512
0.576452
0.577668
0.578801
0.579652
0.580042
0.579974
0.579476
0.578678
0.577735
0.576727
0.575806
0.575221
0.574816
0.563087
0.563604
0.564386
0.565516
0.566794
0.568169
0.56962
0.571102
0.572548
0.573913
0.574952
0.575448
0.575441
0.575068
0.574474
0.573755
0.572985
0.572304
0.571871
0.571554
0.558354
0.558765
0.559419
0.560425
0.56163
0.562958
0.564408
0.565974
0.567614
0.569243
0.570524
0.57121
0.571394
0.571238
0.570864
0.570354
0.569788
0.569299
0.568977
0.568719
0.553586
0.553921
0.554486
0.555412
0.556568
0.557881
0.559366
0.561028
0.562855
0.56477
0.566366
0.567343
0.567801
0.567895
0.567748
0.56746
0.567086
0.566756
0.566518
0.566302
0.548696
0.548974
0.549478
0.550357
0.551495
0.552831
0.554388
0.556189
0.558242
0.560489
0.562482
0.563835
0.56462
0.564999
0.565102
0.565036
0.564853
0.564662
0.564492
0.564305
0.543596
0.543829
0.544294
0.545157
0.546316
0.547719
0.54939
0.551383
0.553727
0.556386
0.558866
0.56067
0.561839
0.562545
0.562925
0.563087
0.563095
0.563033
0.562918
0.562752
0.538195
0.538393
0.538839
0.539715
0.540936
0.54245
0.544291
0.546542
0.549257
0.552433
0.555504
0.557844
0.559462
0.56054
0.56123
0.561635
0.561852
0.561908
0.56184
0.561687
0.532393
0.532562
0.533005
0.533924
0.535248
0.536925
0.539002
0.541592
0.544778
0.548596
0.552382
0.555361
0.557506
0.559013
0.560055
0.560754
0.561173
0.561345
0.561317
0.561173
0.526072
0.526218
0.526673
0.527664
0.529139
0.531036
0.533427
0.536449
0.540231
0.544837
0.54949
0.553233
0.556003
0.558013
0.559455
0.56047
0.561123
0.561415
0.561424
0.561285
0.519097
0.519217
0.519701
0.520795
0.522471
0.524661
0.527452
0.531024
0.535545
0.541115
0.546818
0.551476
0.554986
0.557589
0.559503
0.560882
0.561795
0.562211
0.562253
0.562115
0.511289
0.511387
0.511913
0.513147
0.515083
0.517642
0.520946
0.525212
0.53065
0.5374
0.544367
0.550117
0.5545
0.5578
0.560281
0.562085
0.563287
0.563833
0.563907
0.563766
0.50242
0.502521
0.503101
0.504491
0.506759
0.5098
0.513757
0.518892
0.52547
0.533663
0.542149
0.549194
0.554608
0.558728
0.561877
0.56418
0.565707
0.566391
0.566495
0.566347
0.492186
0.492268
0.492938
0.494554
0.497254
0.500913
0.505697
0.511928
0.519922
0.529878
0.540185
0.548756
0.555381
0.560465
0.564381
0.567269
0.569167
0.569996
0.570128
0.569969
0.480217
0.480283
0.481053
0.482981
0.486238
0.490691
0.496531
0.504151
0.513909
0.526013
0.538491
0.548854
0.556889
0.563098
0.567905
0.571476
0.573777
0.574755
0.574907
0.574735
0.465965
0.46602
0.466932
0.469275
0.473268
0.478767
0.485987
0.495388
0.507356
0.522071
0.537117
0.549563
0.559213
0.566713
0.572554
0.57689
0.579624
0.580746
0.580912
0.580723
0.448671
0.448715
0.44984
0.452765
0.457767
0.464679
0.473737
0.485458
0.500214
0.518097
0.536145
0.550966
0.562441
0.571398
0.57839
0.58358
0.58676
0.588009
0.588177
0.587967
0.427182
0.427225
0.428696
0.4325
0.438957
0.447861
0.45944
0.474226
0.492492
0.514178
0.535683
0.553158
0.566661
0.577229
0.58546
0.591572
0.595174
0.596514
0.596666
0.596434
0.39978
0.399841
0.401897
0.407117
0.415822
0.427651
0.442782
0.461638
0.484292
0.510477
0.535879
0.556254
0.57193
0.584225
0.593797
0.600817
0.604767
0.606135
0.60625
0.605997
0.363434
0.363594
0.366853
0.374685
0.387189
0.403482
0.423674
0.447875
0.475899
0.507269
0.53695
0.560388
0.578327
0.592401
0.603352
0.611175
0.615327
0.616633
0.616688
0.616416
0.312369
0.31334
0.319816
0.333007
0.352112
0.375305
0.402474
0.433434
0.467798
0.504935
0.539129
0.56569
0.585894
0.601712
0.613961
0.622387
0.626524
0.627664
0.627643
0.62736
0.237695
0.244924
0.259903
0.283123
0.312079
0.344518
0.380218
0.418959
0.460353
0.503751
0.542809
0.572749
0.595417
0.613145
0.626702
0.635577
0.639581
0.640539
0.640473
0.640226
0.157394
0.174516
0.198795
0.232702
0.271882
0.313701
0.358008
0.404739
0.45359
0.503971
0.548825
0.582996
0.608745
0.628811
0.643957
0.653118
0.656692
0.657384
0.657342
0.65719
0.0904759
0.110649
0.14262
0.185601
0.23382
0.284483
0.33714
0.391712
0.44787
0.505029
0.555425
0.593566
0.622189
0.64429
0.660438
0.669501
0.672756
0.673367
0.673369
0.673264
0.0356666
0.0574917
0.0949642
0.144366
0.199729
0.257845
0.317892
0.379661
0.442698
0.506333
0.562006
0.603874
0.635112
0.658964
0.676094
0.685321
0.688573
0.689253
0.689284
0.689207
-0.00997517
0.0130305
0.0542858
0.108787
0.169894
0.234169
0.300571
0.368752
0.438095
0.507786
0.568459
0.613862
0.647582
0.673171
0.691315
0.701103
0.70461
0.70519
0.705248
0.705205
-0.0487115
-0.0250364
0.0190797
0.0776269
0.143567
0.213086
0.285008
0.358885
0.43397
0.509304
0.574707
0.623491
0.659616
0.686918
0.70615
0.716619
0.720356
0.720987
0.721062
0.721046
-0.0825598
-0.0584437
-0.0120595
0.0498187
0.119841
0.193918
0.270736
0.349757
0.430131
0.51075
0.580642
0.632655
0.671079
0.70004
0.720284
0.731399
0.735479
0.736221
0.736326
0.736326
-0.11301
-0.0885045
-0.0402732
0.0244532
0.0979961
0.176071
0.257282
0.340997
0.426279
0.511886
0.586059
0.641159
0.681757
0.712227
0.733478
0.745167
0.749577
0.750501
0.750613
0.750622
-0.141022
-0.116164
-0.0663518
0.000826803
0.0774695
0.159087
0.244246
0.332263
0.422135
0.512496
0.590804
0.648865
0.691513
0.723353
0.74548
0.75769
0.762379
0.763437
0.763541
0.763538
-0.167394
-0.142136
-0.0908529
-0.0215748
0.0578309
0.142607
0.231336
0.323313
0.417498
0.51242
0.594768
0.655726
0.700334
0.733465
0.756288
0.768877
0.773755
0.774901
0.775
0.774979
-0.192502
-0.16683
-0.114329
-0.0430824
0.0387766
0.126386
0.218352
0.313978
0.412215
0.511545
0.597893
0.661749
0.70827
0.742591
0.765998
0.778835
0.783796
0.784979
0.78505
0.785004
-0.216761
-0.190555
-0.137024
-0.0639373
0.020099
0.110251
0.205156
0.304138
0.406184
0.509781
0.600139
0.666956
0.71542
0.750868
0.774759
0.787671
0.79266
0.793841
0.793905
0.793869
-0.240304
-0.213685
-0.159011
-0.084317
0.00167209
0.0941037
0.191664
0.29373
0.399341
0.507069
0.601476
0.67138
0.721889
0.758463
0.782725
0.79562
0.800538
0.801673
0.801719
0.801657
-0.263263
-0.236134
-0.180436
-0.104302
-0.0165649
0.0779026
0.177849
0.28272
0.391651
0.503357
0.601856
0.675049
0.72779
0.765555
0.790115
0.802857
0.807603
0.808646
0.80863
0.808515
-0.285768
-0.258074
-0.201381
-0.123927
-0.0346405
0.0616414
0.16372
0.271124
0.38311
0.498606
0.60123
0.677962
0.733222
0.7723
0.797077
0.809507
0.813938
0.814825
0.814754
0.814617
-0.307841
-0.279494
-0.221877
-0.143196
-0.0525287
0.0453449
0.149316
0.258977
0.373738
0.492792
0.599539
0.680079
0.738237
0.778878
0.803813
0.815684
0.819612
0.820271
0.820146
0.819997
-0.329327
-0.300363
-0.241862
-0.162089
-0.0702013
0.0290739
0.134692
0.246349
0.36359
0.485931
0.596716
0.681329
0.742833
0.785458
0.810621
0.821654
0.824757
0.825055
0.82487
0.824724
-0.350209
-0.320656
-0.261324
-0.180562
-0.0876044
0.0128835
0.119935
0.233312
0.352738
0.478046
0.59271
0.681587
0.746935
0.792148
0.817905
0.827936
0.829697
0.829276
0.82898
0.828888
-0.370553
-0.34034
-0.28024
-0.198585
-0.104679
-0.00314644
0.105129
0.219968
0.34127
0.469199
0.587472
0.680705
0.750367
0.798872
0.826033
0.835411
0.835328
0.833344
0.83263
0.832837
-0.390191
-0.359394
-0.298555
-0.216101
-0.121367
-0.0189352
0.0903654
0.206424
0.329299
0.45948
0.580988
0.678506
0.752853
0.805283
0.834991
0.845083
0.843613
0.839206
0.836586
0.836178
-0.409218
-0.377809
-0.316288
-0.23314
-0.137703
-0.0345252
0.0755904
0.192624
0.316759
0.448817
0.573121
0.674717
0.754087
0.810857
0.84414
0.857227
0.856988
0.85052
0.842383
0.828372
-0.42756
-0.39557
-0.333556
-0.249902
-0.153968
-0.0502431
0.0603954
0.178097
0.303128
0.43659
0.563242
0.668576
0.753521
0.814881
0.851787
0.869687
0.871328
0.858738
0.838893
0.827328
-0.445042
-0.412813
-0.350165
-0.266185
-0.169814
-0.0657489
0.0450039
0.163162
0.288702
0.423049
0.551403
0.659592
0.750301
0.816184
0.853738
0.871471
0.875764
0.852361
0.784723
0.754393
-0.461
-0.430788
-0.365789
-0.281498
-0.184453
-0.0805433
0.0297297
0.148046
0.273699
0.408311
0.537524
0.647439
0.742969
0.814079
0.844973
0.857341
0.846194
0.791792
0.722712
0.680226
-0.516499
-0.446648
-0.379966
-0.296966
-0.199506
-0.0960875
0.0145047
0.132465
0.257743
0.39191
0.520986
0.631444
0.727612
0.805218
0.809541
0.811746
0.761502
0.690796
0.614016
0.571289
-0.477961
-0.461935
-0.401145
-0.317173
-0.221765
-0.118406
-0.00884295
0.108457
0.232729
0.365458
0.492594
0.601383
0.689665
0.772097
0.758235
0.644103
0.538355
0.464775
0.391163
0.421443
-0.508854
-0.479526
-0.417816
-0.334664
-0.239265
-0.13604
-0.0262176
0.090435
0.213627
0.344543
0.468859
0.573438
0.652165
0.69623
0.64725
0.497572
0.369209
0.277449
0.178521
0.228347
-0.532657
-0.500392
-0.437451
-0.354142
-0.258632
-0.155512
-0.0457786
0.070032
0.191813
0.320316
0.440878
0.539256
0.609229
0.618714
0.511636
0.338297
0.185215
0.0660892
-0.065202
-0.0325447
-0.555957
-0.522153
-0.458022
-0.373788
-0.27819
-0.175221
-0.066015
0.0488235
0.168997
0.294707
0.410579
0.501096
0.555846
0.533862
0.374972
0.178425
-0.0120375
-0.180044
-0.368634
-0.387265
-0.578668
-0.544407
-0.479377
-0.394361
-0.298611
-0.195861
-0.0873084
0.0264342
0.144744
0.267262
0.377744
0.460364
0.495632
0.437558
0.244984
0.0344429
-0.182768
-0.371949
-0.613802
-0.911636
-0.60168
-0.567407
-0.501826
-0.416314
-0.32037
-0.217785
-0.109813
0.00279834
0.119135
0.238199
0.342982
0.417272
0.431497
0.322401
0.131936
-0.0778785
-0.282043
-0.454201
-0.523377
-0.602354
-0.625952
-0.591605
-0.525716
-0.439964
-0.343961
-0.241634
-0.134337
-0.0230297
0.0910154
0.206097
0.304814
0.368121
0.357478
0.214777
0.0315313
-0.159239
-0.321916
-0.414701
-0.438743
-0.454647
-0.651789
-0.617308
-0.551219
-0.46539
-0.369515
-0.267618
-0.161236
-0.0515374
0.059796
0.170252
0.262446
0.311664
0.283479
0.114921
-0.0594221
-0.225112
-0.351452
-0.390435
-0.403309
-0.404636
-0.679394
-0.644691
-0.578399
-0.492589
-0.396981
-0.295741
-0.190528
-0.0827735
0.0254103
0.130668
0.215409
0.250465
0.20281
0.0227505
-0.142554
-0.290922
-0.366814
-0.383907
-0.385245
-0.385059
-0.708829
-0.673821
-0.607279
-0.521556
-0.426373
-0.32599
-0.222216
-0.116752
-0.0121352
0.0874098
0.163822
0.18743
0.103809
-0.0613653
-0.218488
-0.340765
-0.377276
-0.375529
-0.374553
-0.37393
-0.739809
-0.704511
-0.637755
-0.552202
-0.457602
-0.358307
-0.256266
-0.153445
-0.0528069
0.04057
0.108477
0.115262
0.0136361
-0.139638
-0.278636
-0.354052
-0.364406
-0.367106
-0.367812
-0.367512
-0.771781
-0.736324
-0.66957
-0.584295
-0.490477
-0.392531
-0.29252
-0.192718
-0.0964235
-0.00951148
0.0498138
0.0419966
-0.0673274
-0.205872
-0.32199
-0.353653
-0.361907
-0.363353
-0.363185
-0.362922
-0.804275
-0.768698
-0.702279
-0.617434
-0.524652
-0.428335
-0.330694
-0.23428
-0.142705
-0.0621784
-0.0132885
-0.0280682
-0.14175
-0.259328
-0.352044
-0.367676
-0.360321
-0.359613
-0.359631
-0.359446
-0.83639
-0.800897
-0.734978
-0.651034
-0.559574
-0.46524
-0.370326
-0.277646
-0.191177
-0.11686
-0.0778577
-0.0934052
-0.206878
-0.300431
-0.353777
-0.364363
-0.360755
-0.358948
-0.358185
-0.357898
-0.866546
-0.831741
-0.766701
-0.684153
-0.594468
-0.502534
-0.410752
-0.322111
-0.241025
-0.173032
-0.137565
-0.167522
-0.260629
-0.334214
-0.342912
-0.358339
-0.361363
-0.359209
-0.358432
-0.357961
-0.893131
-0.85942
-0.796309
-0.715588
-0.628283
-0.539271
-0.451087
-0.366785
-0.291105
-0.229792
-0.194863
-0.240929
-0.312973
-0.345719
-0.369379
-0.368126
-0.367448
-0.367368
-0.367497
-0.367097
-0.914014
-0.882016
-0.82178
-0.743912
-0.659728
-0.574277
-0.490214
-0.410591
-0.340195
-0.285657
-0.254763
-0.30584
-0.368933
-0.390856
-0.398351
-0.401833
-0.400602
-0.401056
-0.400005
-0.398688
-0.926927
-0.897632
-0.841115
-0.767261
-0.687285
-0.606207
-0.526866
-0.452252
-0.387049
-0.338711
-0.313177
-0.365281
-0.445243
-0.498749
-0.466543
-0.459684
-0.457192
-0.452133
-0.446245
-0.444895
-0.929227
-0.903992
-0.85239
-0.783791
-0.709245
-0.633648
-0.559661
-0.490356
-0.430297
-0.386851
-0.360785
-0.411046
-0.51831
-0.681098
-0.603208
-0.506436
-0.463671
-0.445491
-0.438861
-0.437268
-0.918759
-0.898415
-0.853434
-0.791889
-0.724121
-0.655086
-0.587247
-0.52349
-0.468299
-0.427811
-0.395618
-0.402041
-0.430574
-0.599651
-0.536632
-0.423481
-0.376293
-0.367352
-0.366338
-0.364705
-0.89342
-0.878069
-0.842419
-0.790339
-0.730949
-0.669537
-0.608429
-0.55038
-0.499342
-0.461099
-0.41228
-0.315179
-0.11934
0.0368568
-0.0353251
-0.172312
-0.258357
-0.291046
-0.301431
-0.302468
-0.855726
-0.845794
-0.820095
-0.779306
-0.729738
-0.67678
-0.622735
-0.570057
-0.522769
-0.485664
-0.438488
-0.282802
0.0176532
0.386489
0.138045
-0.13295
-0.302495
-0.37309
-0.394781
-0.401233
-0.812382
-0.806735
-0.791359
-0.761607
-0.722459
-0.677668
-0.63043
-0.582788
-0.538578
-0.50339
-0.472421
-0.487587
-0.64132
-0.856657
-0.956509
-0.918956
-0.825327
-0.770339
-0.75384
-0.75958
-0.773292
-0.769886
-0.762504
-0.742759
-0.712051
-0.674335
-0.632583
-0.588795
-0.546017
-0.514376
-0.501168
-0.716426
-1.21286
-1.79872
-2.02986
-1.867
-1.7023
-1.47122
-1.2823
-1.24194
-0.745531
-0.743396
-0.739727
-0.727449
-0.702938
-0.669736
-0.631008
-0.587724
-0.543135
-0.49947
-0.483545
-0.525548
-0.752634
-1.03077
-1.24114
-1.23085
-1.14269
-1.00167
-0.852863
-0.796389
-0.725098
-0.724314
-0.723175
-0.717052
-0.697916
-0.666872
-0.627644
-0.582377
-0.530493
-0.47321
-0.430891
-0.403316
-0.352282
-0.167888
0.0765395
0.308531
0.436462
0.5114
0.556725
0.576283
-0.713748
-0.713382
-0.71276
-0.710051
-0.69626
-0.666273
-0.624673
-0.574889
-0.516733
-0.45109
-0.379012
-0.307254
-0.0971064
0.313473
0.720377
1.08393
1.29845
1.39154
1.42487
1.42995
-0.707176
-0.706807
-0.705928
-0.705126
-0.697171
-0.668497
-0.623297
-0.567485
-0.502738
-0.421222
-0.326929
-0.226798
0.0353042
0.460466
0.899056
1.28567
1.51332
1.61014
1.6353
1.63781
-0.705355
-0.705293
-0.705216
-0.706066
-0.701739
-0.67401
-0.624115
-0.563202
-0.489199
-0.400485
-0.298416
-0.19109
0.0406578
0.412451
0.763334
1.06775
1.25983
1.34845
1.38169
1.39098
-0.703172
-0.704185
-0.706805
-0.710603
-0.707852
-0.679143
-0.627556
-0.562549
-0.482515
-0.38823
-0.284327
-0.18897
-0.00475838
0.307927
0.587978
0.809706
0.954126
1.03545
1.08218
1.09979
-0.697906
-0.698235
-0.696684
-0.693347
-0.690385
-0.673432
-0.633401
-0.567213
-0.481988
-0.383122
-0.285775
-0.198278
-0.0480486
0.205609
0.44712
0.640467
0.782644
0.869644
0.915203
0.930271
-0.717265
-0.713121
-0.695257
-0.66635
-0.655704
-0.670728
-0.649848
-0.579795
-0.486612
-0.383191
-0.289486
-0.209454
-0.0960073
0.132935
0.339361
0.507443
0.642027
0.723892
0.761778
0.771981
-0.78697
-0.783103
-0.777865
-0.775604
-0.771509
-0.767515
-0.702737
-0.602202
-0.49101
-0.382266
-0.291769
-0.216422
-0.127615
0.0493972
0.223118
0.366498
0.477586
0.544056
0.57307
0.579846
-0.910182
-0.92462
-0.962388
-0.991891
-0.983773
-0.924943
-0.779769
-0.626144
-0.492366
-0.377667
-0.286872
-0.213955
-0.142925
-0.00985317
0.128358
0.237226
0.322837
0.373116
0.394854
0.398641
-0.980103
-1.00368
-1.04131
-1.06681
-1.05489
-0.975157
-0.795262
-0.618898
-0.477315
-0.363973
-0.278164
-0.209946
-0.145938
-0.0539753
0.0492984
0.132269
0.196805
0.233396
0.247778
0.24951
-0.858675
-0.881162
-0.916592
-0.945432
-0.936444
-0.848361
-0.694517
-0.550856
-0.431862
-0.335586
-0.261452
-0.204206
-0.15447
-0.0939725
-0.0169607
0.0475598
0.097624
0.124353
0.135237
0.134946
-0.552967
-0.568795
-0.596382
-0.624259
-0.628372
-0.585603
-0.50941
-0.430021
-0.35866
-0.29344
-0.238922
-0.196869
-0.166854
-0.126006
-0.0718331
-0.0248951
0.0108883
0.0301249
0.0355067
0.0345697
-0.227471
-0.235102
-0.252382
-0.278599
-0.304871
-0.316234
-0.314944
-0.300621
-0.276896
-0.245192
-0.212634
-0.185664
-0.166885
-0.145622
-0.11216
-0.0825894
-0.0619782
-0.0530738
-0.0510225
-0.0526542
-0.0187599
-0.0221672
-0.0338794
-0.05895
-0.0970566
-0.139906
-0.174633
-0.197162
-0.205344
-0.200248
-0.186581
-0.171876
-0.163042
-0.1539
-0.140695
-0.130185
-0.125116
-0.125669
-0.126594
-0.1275
0.0643342
0.0623374
0.0534729
0.0317107
-0.00505905
-0.0502361
-0.0937034
-0.129317
-0.153416
-0.1649
-0.164387
-0.156808
-0.149441
-0.151855
-0.157403
-0.16263
-0.16878
-0.174648
-0.177192
-0.177684
0.0770837
0.0755533
0.0689499
0.0525197
0.0241037
-0.0126758
-0.0522597
-0.0891515
-0.11949
-0.140984
-0.151071
-0.149777
-0.145224
-0.155803
-0.169153
-0.181256
-0.192004
-0.199086
-0.201267
-0.201648
0.0627106
0.0615914
0.0569529
0.0454328
0.0251342
-0.00245311
-0.0346787
-0.0677248
-0.0992732
-0.127759
-0.150072
-0.163502
-0.168891
-0.18076
-0.189827
-0.196837
-0.203206
-0.206533
-0.207553
-0.208062
0.0423406
0.0415617
0.0384039
0.0305529
0.0164061
-0.00370739
-0.0288719
-0.0570869
-0.0874117
-0.120887
-0.157855
-0.197672
-0.223652
-0.22102
-0.212767
-0.209799
-0.208665
-0.209001
-0.209224
-0.209678
0.0240534
0.0235261
0.0214214
0.0161443
0.00638654
-0.00809355
-0.027273
-0.0505416
-0.0782416
-0.113416
-0.161155
-0.222284
-0.261765
-0.243323
-0.222744
-0.212114
-0.208946
-0.208697
-0.208624
-0.208723
0.0103156
0.00995451
0.00858594
0.00509091
-0.00155681
-0.011845
-0.0261104
-0.0444159
-0.0675405
-0.0999559
-0.146495
-0.207908
-0.236163
-0.215364
-0.19792
-0.193121
-0.194174
-0.195868
-0.196088
-0.195841
0.00138563
0.00114238
0.000270713
-0.00198141
-0.00639569
-0.0134705
-0.0236284
-0.0371351
-0.0547266
-0.0786547
-0.111928
-0.151711
-0.162914
-0.151196
-0.14697
-0.152227
-0.159257
-0.162974
-0.163447
-0.163123
-0.003558
-0.00368693
-0.00421992
-0.00557168
-0.00831221
-0.0129053
-0.0196563
-0.0286583
-0.0398856
-0.0533091
-0.0669101
-0.0776153
-0.0739867
-0.072461
-0.0841164
-0.0980878
-0.108207
-0.112681
-0.1135
-0.113371
-0.00544627
-0.0055099
-0.00578843
-0.00649946
-0.00803378
-0.0107365
-0.0147783
-0.0199761
-0.0255226
-0.0290457
-0.0243411
-0.00835094
0.014632
-0.0022373
-0.0255985
-0.0444097
-0.0553548
-0.0585464
-0.0601147
-0.0605288
-0.0051583
-0.00517121
-0.00528308
-0.00556431
-0.00629404
-0.0076657
-0.00976016
-0.0122164
-0.0139267
-0.0112095
0.00411891
0.0336692
0.0603272
0.0402467
0.0128822
-0.005376
-0.0137431
-0.0165745
-0.0179215
-0.0184038
-0.00349357
-0.00348781
-0.00349759
-0.00353221
-0.00374156
-0.00426139
-0.00509069
-0.00596038
-0.00594174
-0.00193395
0.0131807
0.0403289
0.0619359
0.0462122
0.0243595
0.0129222
0.00970084
0.00895045
0.00776805
0.00683256
-0.000904363
-0.000878459
-0.000892031
-0.000831653
-0.000749411
-0.000722355
-0.000863147
-0.00104276
-0.0010911
-0.00061932
0.00164541
0.0081971
0.0166266
0.0188573
0.0121945
0.0116897
0.0107278
0.00850436
0.004982
0.00418531
-0.1407
0.0258562
0.220263
0.389945
0.525442
0.632046
0.720143
0.79516
0.82937
0.806099
0.16114
0.281581
0.411148
0.523089
0.617384
0.695369
0.758508
0.803348
0.825792
0.837914
0.379411
0.462022
0.550585
0.628768
0.695987
0.752225
0.796962
0.829663
0.853326
0.871341
0.53984
0.598986
0.660435
0.717399
0.766934
0.809006
0.843578
0.871176
0.893933
0.912253
0.665024
0.70804
0.753917
0.79763
0.836257
0.870008
0.898908
0.922974
0.943339
0.961187
0.769189
0.80201
0.840067
0.875556
0.908142
0.937362
0.962903
0.984381
1.00222
1.01957
0.861642
0.890305
0.92424
0.956346
0.986271
1.01343
1.03716
1.05688
1.07237
1.08945
0.950176
0.979361
1.01335
1.04538
1.07497
1.10154
1.1244
1.14288
1.15625
1.17329
1.04546
1.07865
1.11529
1.14886
1.17889
1.20507
1.22702
1.2443
1.25616
1.27356
1.16044
1.19826
1.23689
1.27113
1.30048
1.32522
1.34559
1.36148
1.37294
1.39101
1.30537
1.34391
1.38004
1.41073
1.4364
1.45849
1.47755
1.49308
1.5055
1.5235
1.48044
1.51206
1.53823
1.56068
1.58065
1.59937
1.61709
1.63357
1.64891
1.66698
1.66905
1.68625
1.70128
1.71751
1.73342
1.74795
1.76115
1.77508
1.79262
1.81277
1.85076
1.8603
1.87184
1.88265
1.89193
1.90152
1.9123
1.92367
1.93503
1.95038
2.058
2.06166
2.04671
2.03191
2.02563
2.0313
2.04978
2.08009
2.11227
2.13892
2.36432
2.22945
2.15281
2.11043
2.09301
2.09697
2.12437
2.18079
2.2834
2.50777
0.669999
0.66787
0.663387
0.654763
0.642539
0.630412
0.620185
0.612293
0.606681
0.603434
0.603088
0.605834
0.610944
0.618171
0.627561
0.639102
0.651754
0.662789
0.668901
0.671956
0.59445
0.600297
0.60663
0.611123
0.613594
0.613271
0.610535
0.606729
0.603224
0.600972
0.600834
0.60304
0.606708
0.611001
0.614811
0.616695
0.615759
0.612278
0.607116
0.600495
0.586021
0.588317
0.591721
0.594718
0.596793
0.598291
0.599048
0.598735
0.597715
0.59684
0.597025
0.59846
0.600281
0.601591
0.601773
0.600884
0.599335
0.597
0.593737
0.590816
0.580505
0.581591
0.583424
0.585802
0.587826
0.589255
0.590278
0.591033
0.591441
0.591672
0.592174
0.592989
0.593593
0.593663
0.593252
0.592405
0.590936
0.588852
0.586767
0.585384
0.575295
0.575958
0.577066
0.57877
0.580552
0.582185
0.583482
0.584502
0.585391
0.586191
0.586932
0.587493
0.587692
0.587528
0.586963
0.58591
0.584482
0.582939
0.581621
0.580842
0.57031
0.570771
0.571556
0.572854
0.574341
0.575859
0.577325
0.578627
0.57977
0.580836
0.581764
0.582341
0.582493
0.582222
0.581526
0.580538
0.579413
0.578281
0.577366
0.576849
0.565471
0.565815
0.566426
0.567493
0.568787
0.570161
0.571601
0.57305
0.57443
0.575721
0.576845
0.577547
0.577731
0.577459
0.576861
0.576086
0.575235
0.574369
0.573697
0.573319
0.560722
0.56099
0.561482
0.56239
0.563559
0.564855
0.56625
0.567742
0.569289
0.570821
0.572183
0.573064
0.573372
0.573255
0.572864
0.572305
0.571657
0.571019
0.570528
0.570239
0.555983
0.556195
0.556605
0.557402
0.55849
0.559738
0.561123
0.562661
0.564339
0.566106
0.567754
0.568894
0.569439
0.569561
0.569398
0.569058
0.568616
0.568168
0.567817
0.567591
0.551165
0.551336
0.551687
0.552411
0.553452
0.554678
0.55609
0.557711
0.559544
0.561564
0.563552
0.565045
0.56591
0.566316
0.566402
0.566289
0.566058
0.565782
0.565546
0.565366
0.546181
0.54632
0.546629
0.547308
0.548332
0.549581
0.551059
0.552804
0.554846
0.557174
0.559578
0.561511
0.562759
0.563494
0.563864
0.563992
0.563969
0.563858
0.56372
0.563576
0.540943
0.541054
0.541336
0.541995
0.543037
0.544354
0.545942
0.547866
0.550182
0.552901
0.555818
0.55828
0.55998
0.561096
0.561786
0.562177
0.562365
0.562424
0.562371
0.562254
0.535354
0.535443
0.535708
0.536372
0.537468
0.538895
0.540647
0.542818
0.545487
0.548701
0.552248
0.555346
0.557581
0.559136
0.560185
0.560884
0.561313
0.561526
0.561548
0.561452
0.529308
0.529376
0.529634
0.530326
0.531513
0.533099
0.535079
0.537574
0.540695
0.544528
0.548845
0.552706
0.555576
0.557649
0.559111
0.560151
0.560842
0.561224
0.561319
0.56124
0.522677
0.522725
0.522985
0.523727
0.525046
0.526845
0.529127
0.532039
0.535732
0.54033
0.545584
0.550363
0.55399
0.556674
0.558619
0.56004
0.561036
0.5616
0.561765
0.5617
0.515308
0.515338
0.515603
0.516418
0.517914
0.519991
0.522659
0.526102
0.53051
0.53605
0.542444
0.548328
0.552852
0.556255
0.558775
0.560649
0.561989
0.56275
0.562985
0.56293
0.507009
0.507026
0.507293
0.508205
0.509933
0.512356
0.515521
0.519636
0.524939
0.531639
0.539415
0.54662
0.552208
0.556456
0.559653
0.562075
0.563805
0.564778
0.565084
0.565038
0.49747
0.497457
0.497785
0.498837
0.500851
0.503728
0.507527
0.512491
0.518912
0.527044
0.536495
0.54527
0.552114
0.557357
0.561348
0.564407
0.566586
0.567797
0.568176
0.568134
0.486409
0.486371
0.486744
0.48799
0.490375
0.49384
0.498446
0.504485
0.512308
0.522205
0.533676
0.544315
0.552628
0.55904
0.563962
0.567753
0.570452
0.571917
0.572366
0.572326
0.473345
0.47328
0.473731
0.47523
0.478099
0.48233
0.487983
0.495404
0.504998
0.517072
0.530973
0.543803
0.553822
0.56158
0.567593
0.572225
0.575505
0.577237
0.577751
0.577706
0.457634
0.45754
0.458115
0.459965
0.463485
0.46874
0.475782
0.485008
0.49686
0.511622
0.528425
0.543805
0.555778
0.565065
0.572321
0.577908
0.581823
0.583823
0.584388
0.584333
0.438341
0.43822
0.438996
0.441361
0.445798
0.452476
0.461415
0.473049
0.487811
0.505898
0.526132
0.544422
0.55859
0.569588
0.578206
0.584859
0.58944
0.591687
0.592282
0.59221
0.41406
0.413921
0.415029
0.418191
0.424012
0.432774
0.444402
0.45931
0.477826
0.499977
0.524207
0.545763
0.562338
0.575206
0.58529
0.593095
0.598322
0.600762
0.601355
0.601256
0.382492
0.382374
0.384092
0.388633
0.396749
0.40875
0.424322
0.443725
0.467049
0.494085
0.522868
0.54799
0.567121
0.581962
0.593603
0.602566
0.608336
0.610871
0.611415
0.611283
0.339498
0.339542
0.342598
0.350013
0.362381
0.379665
0.401072
0.426528
0.45584
0.488582
0.522393
0.551278
0.573037
0.589885
0.603076
0.61312
0.61923
0.621698
0.622142
0.621976
0.277342
0.278535
0.286005
0.29983
0.319963
0.345649
0.375271
0.408439
0.44484
0.483943
0.523069
0.555782
0.580141
0.598922
0.613543
0.624405
0.630588
0.632751
0.633028
0.632838
0.203605
0.205348
0.219644
0.243381
0.274404
0.310013
0.348602
0.389991
0.433991
0.480114
0.525416
0.562876
0.590618
0.611866
0.62826
0.63998
0.646107
0.648051
0.648291
0.648197
0.1275
0.133648
0.154763
0.188701
0.230098
0.275337
0.322861
0.372536
0.42424
0.477515
0.529177
0.571545
0.602774
0.626644
0.644969
0.657363
0.663048
0.664542
0.664707
0.664669
0.0652421
0.0736853
0.0993591
0.140291
0.189814
0.243275
0.298856
0.356279
0.415324
0.475478
0.533246
0.580254
0.614723
0.640893
0.660584
0.673408
0.679038
0.680365
0.680585
0.680612
0.0145962
0.023635
0.0528482
0.0990058
0.154666
0.214753
0.27715
0.341426
0.407189
0.473799
0.537357
0.588766
0.626255
0.654562
0.675712
0.689069
0.694628
0.696247
0.696551
0.696624
-0.0278121
-0.0184904
0.01317
0.0633206
0.124022
0.189613
0.257796
0.328067
0.399869
0.472426
0.541424
0.597012
0.637393
0.667784
0.690311
0.704455
0.710484
0.712373
0.712702
0.712786
-0.0643367
-0.0549015
-0.0213986
0.0319535
0.0968218
0.167107
0.240331
0.315908
0.39318
0.471239
0.54536
0.604929
0.64809
0.680489
0.704393
0.71947
0.726046
0.7281
0.728471
0.728551
-0.0966423
-0.0871675
-0.0522496
0.00380595
0.0721645
0.146495
0.224181
0.30454
0.386831
0.470018
0.548988
0.61235
0.658161
0.69245
0.717675
0.733585
0.740745
0.742981
0.743376
0.743437
-0.126006
-0.116487
-0.0804068
-0.0220152
0.0493355
0.12721
0.208864
0.29356
0.380479
0.468492
0.552092
0.619096
0.667432
0.703475
0.729909
0.746549
0.754262
0.75666
0.757068
0.757111
-0.153299
-0.143728
-0.10662
-0.0462265
0.0277946
0.108806
0.194006
0.282646
0.373863
0.466447
0.554518
0.625062
0.675809
0.713505
0.740984
0.75823
0.76634
0.768878
0.769301
0.769321
-0.179082
-0.169448
-0.131375
-0.0692915
0.00713944
0.0909446
0.179339
0.271582
0.366794
0.463725
0.556152
0.630199
0.683314
0.722572
0.75098
0.7687
0.777018
0.77965
0.780077
0.78007
-0.203857
-0.194061
-0.155137
-0.0914645
-0.0128984
0.0733975
0.164679
0.260209
0.359139
0.46021
0.556917
0.634494
0.689995
0.730766
0.760021
0.778063
0.786446
0.789087
0.789512
0.789475
-0.227865
-0.217846
-0.178172
-0.112961
-0.0325012
0.0560184
0.149901
0.248433
0.35081
0.455827
0.556761
0.637938
0.695916
0.738224
0.76821
0.786449
0.794821
0.797427
0.797822
0.797755
-0.251213
-0.240985
-0.200516
-0.133932
-0.0517836
0.0387344
0.134947
0.236203
0.34176
0.450514
0.555625
0.64053
0.701148
0.745088
0.775783
0.794108
0.802349
0.80485
0.805193
0.80511
-0.274064
-0.263534
-0.222312
-0.154451
-0.0707898
0.0215061
0.119799
0.223509
0.33198
0.444248
0.553456
0.642248
0.705755
0.751505
0.782906
0.801177
0.809177
0.811496
0.811756
0.811646
-0.296378
-0.285573
-0.243617
-0.174557
-0.0895291
0.00434299
0.104486
0.210383
0.321488
0.437016
0.55021
0.64304
0.709767
0.757599
0.78976
0.80781
0.815358
0.817397
0.817546
0.817408
-0.318216
-0.307104
-0.264368
-0.194234
-0.107985
-0.0127252
0.0890444
0.196879
0.310333
0.428836
0.545846
0.642839
0.713158
0.763478
0.796573
0.814228
0.821028
0.822611
0.822626
0.822469
-0.339407
-0.328059
-0.284559
-0.213448
-0.126113
-0.0296297
0.0735387
0.183066
0.298586
0.419762
0.540341
0.641559
0.715847
0.769186
0.803613
0.82083
0.826492
0.827276
0.827058
0.826897
-0.36009
-0.348396
-0.304179
-0.232177
-0.143882
-0.0463335
0.0580586
0.169022
0.28633
0.40987
0.533704
0.639096
0.717687
0.77465
0.811085
0.8282
0.832414
0.831732
0.830923
0.830754
-0.380102
-0.368093
-0.323199
-0.250377
-0.161216
-0.0627533
0.0426837
0.154866
0.273675
0.399223
0.525972
0.635343
0.718477
0.779636
0.818932
0.83697
0.840109
0.837207
0.834723
0.833774
-0.399505
-0.387192
-0.341565
-0.268
-0.178078
-0.0788205
0.0274969
0.140677
0.26073
0.387958
0.517213
0.630197
0.717981
0.783742
0.826628
0.847206
0.851148
0.846781
0.840286
0.831881
-0.418215
-0.405652
-0.359371
-0.285199
-0.194675
-0.0948049
0.012169
0.126064
0.247056
0.375581
0.506903
0.623113
0.715714