/*--------------------------------*- C++ -*----------------------------------*\
| =========                 |                                                 |
| \\      /  F ield         | OpenFOAM: The Open Source CFD Toolbox           |
|  \\    /   O peration     | Version:  2112                                  |
|   \\  /    A nd           | Website:  www.openfoam.com                      |
|    \\/     M anipulation  |                                                 |
\*---------------------------------------------------------------------------*/
FoamFile
{
    version     2.0;
    format      ascii;
    arch        "LSB;label=32;scalar=64";
    class       surfaceScalarField;
    location    "58.5";
    object      phi;
}
// * * * * * * * * * * * * * * * * * * * * * * * * * * * * * * * * * * * * * //

dimensions      [0 3 -1 0 0 0 0];

oriented        oriented;

internalField   nonuniform List<scalar> 
17370
(
-0.0916066
0.0960095
0.284608
-0.0775949
0.0594204
0.36495
-0.043043
0.0316239
0.427587
-0.022321
0.0162692
0.505303
-0.0116768
0.00880316
0.602276
-0.00659187
0.00510667
0.720543
-0.00386946
0.00298894
0.863787
-0.00221589
0.00163774
1.03603
-0.00110634
0.000685336
1.24292
-0.000273977
-0.00011998
1.49158
0.000508365
-0.000922015
1.4916
0.00132639
-0.00183127
1.2432
0.00238205
-0.00312519
1.03638
0.00398233
-0.00520089
0.864125
0.00667495
-0.00887676
0.721259
0.0117403
-0.0163182
0.603793
0.022355
-0.0316417
0.508726
0.043043
-0.0594096
0.432535
0.0775882
-0.0960034
0.365191
0.091621
0.19739
-0.127091
0.0880225
0.0390685
-0.364356
0.35403
-0.0714755
0.0818013
-0.446654
0.454254
-0.0791705
0.0715703
-0.521011
0.529109
-0.0637179
0.0556198
-0.612991
0.62076
-0.048233
0.0404637
-0.727164
0.733685
-0.0338519
0.0273311
-0.867581
0.872434
-0.022127
0.0172741
-1.03857
1.04191
-0.0135747
0.0102341
-1.24472
1.24713
-0.00768194
0.00527441
-1.49284
1.49486
-0.00330851
0.00129195
-1.49269
1.49452
0.000529157
-0.00235086
-1.24411
1.24602
0.00432544
-0.00623768
-1.03761
1.04009
0.00857412
-0.0110539
-0.866187
0.869814
0.0143123
-0.0179398
-0.724594
0.729746
0.0227242
-0.0278765
-0.609064
0.615632
0.0343484
-0.0409169
-0.515123
0.522458
0.0486361
-0.0559713
-0.43988
0.447657
0.063993
-0.0717705
-0.374706
0.377355
0.0792646
-0.0819133
-0.256896
0.224434
0.0715631
-0.0391009
-0.0688113
0.0591998
0.00961141
-0.0521056
0.0589317
-0.374838
0.368012
-0.0580839
0.0542416
-0.453947
0.457789
-0.0487547
0.0441953
-0.527618
0.532178
-0.0396457
0.0357502
-0.620804
0.624699
-0.0315375
0.0275419
-0.734662
0.738658
-0.0231836
0.0192942
-0.873958
0.877847
-0.0152462
0.0117862
-1.04336
1.04682
-0.00826334
0.00522761
-1.24865
1.25169
-0.00201671
-0.000967291
-1.49695
1.49993
0.00392937
-0.00707936
-1.49742
1.50057
0.0100253
-0.0134268
-1.25006
1.25346
0.016764
-0.0206719
-1.04565
1.04955
0.0244372
-0.0286716
-0.877133
0.881367
0.0325673
-0.0366824
-0.738978
0.743094
0.0404976
-0.0449681
-0.625966
0.630437
0.0494613
-0.0548834
-0.535013
0.540435
0.0586507
-0.0594097
-0.458072
0.458831
0.0524603
-0.0320686
-0.336758
0.316366
0.00967467
-0.068659
0.0589843
-0.0534114
0.0493006
0.00411072
-0.0332381
0.0436594
-0.358567
0.348146
-0.0473332
0.0467451
-0.459583
0.460171
-0.0438157
0.0406027
-0.536136
0.539349
-0.0369258
0.0335714
-0.628401
0.631756
-0.0299377
0.0266958
-0.742041
0.745283
-0.0232408
0.0200404
-0.881344
0.884544
-0.0164436
0.0130879
-1.05025
1.05361
-0.00938414
0.00597537
-1.25495
1.25836
-0.00218061
-0.00143874
-1.50328
1.5069
0.00502661
-0.00872973
-1.50406
1.50777
0.0120131
-0.0155459
-1.25702
1.26055
0.0187274
-0.0221239
-1.05326
1.05665
0.0251463
-0.0284236
-0.884974
0.888251
0.0315221
-0.0350157
-0.746774
0.750268
0.0382523
-0.0418069
-0.634554
0.638108
0.0449135
-0.0477232
-0.544575
0.547384
0.0481872
-0.0443407
-0.456943
0.453097
0.0337075
-0.0163861
-0.297043
0.279722
0.00418066
-0.0531326
0.048952
-0.0461323
0.0435777
0.00255452
-0.0230399
0.0333854
-0.337558
0.327213
-0.0391154
0.0400617
-0.459924
0.458978
-0.0388083
0.036479
-0.542008
0.544338
-0.033836
0.0312891
-0.634727
0.637274
-0.0283112
0.0254615
-0.748372
0.751221
-0.0222207
0.0192033
-0.887602
0.89062
-0.0158479
0.0127094
-1.05679
1.05992
-0.00914771
0.00574322
-1.26176
1.26516
-0.00182855
-0.00197191
-1.51063
1.51443
0.00573178
-0.00952331
-1.51154
1.51534
0.0127623
-0.0161004
-1.26401
1.26735
0.0190106
-0.0221045
-1.05986
1.06295
0.0248871
-0.0278882
-0.891443
0.894445
0.0305406
-0.0333241
-0.753444
0.756228
0.0357093
-0.0381889
-0.641057
0.643537
0.0403783
-0.0414469
-0.549214
0.550283
0.040308
-0.0342968
-0.447965
0.441954
0.0236423
-0.0103836
-0.264525
0.251266
0.00264116
-0.0457055
0.0430644
-0.0414608
0.0396618
0.001799
-0.0169348
0.0262142
-0.317349
0.30807
-0.0328042
0.0349199
-0.457421
0.455305
-0.0344813
0.0327793
-0.546371
0.548073
-0.0305485
0.0284176
-0.639591
0.641721
-0.0259762
0.0235936
-0.753826
0.756209
-0.0207732
0.0180212
-0.893481
0.896233
-0.0148307
0.0117904
-1.06297
1.06601
-0.00831942
0.00499893
-1.26848
1.2718
-0.00115505
-0.00259475
-1.5182
1.52195
0.00629241
-0.00998151
-1.51908
1.52277
0.0130928
-0.0162812
-1.27061
1.2738
0.019032
-0.0218872
-1.06597
1.06883
0.0243348
-0.0268437
-0.897225
0.899734
0.0289714
-0.0311634
-0.758665
0.760857
0.0330882
-0.0351083
-0.645757
0.647777
0.0366061
-0.0367928
-0.550857
0.551043
0.0343812
-0.0273799
-0.435352
0.428351
0.0176865
-0.00748584
-0.239678
0.229478
0.00190503
-0.0408518
0.0389468
-0.0381137
0.0367638
0.00134993
-0.0129336
0.0209249
-0.299437
0.291446
-0.0276842
0.0305998
-0.452757
0.449841
-0.0308011
0.0296718
-0.549516
0.550645
-0.0276678
0.0257365
-0.643785
0.645716
-0.0235186
0.0213712
-0.758458
0.760606
-0.0188559
0.0163807
-0.898788
0.901263
-0.0134532
0.0105911
-1.06891
1.07178
-0.00725463
0.00403277
-1.27504
1.27826
-0.000295447
-0.00333765
-1.52562
1.52925
0.00690595
-0.0104491
-1.52637
1.52992
0.0134094
-0.0163918
-1.27691
1.27989
0.0188908
-0.0213976
-1.07154
1.07405
0.0234917
-0.0256165
-0.902041
0.904165
0.027442
-0.0293423
-0.762893
0.764793
0.0310128
-0.0327646
-0.649639
0.65139
0.0335953
-0.033043
-0.550861
0.550309
0.0297047
-0.0223824
-0.421131
0.413809
0.0138598
-0.00578659
-0.220442
0.212369
0.00147922
-0.0372821
0.0358028
-0.0355848
0.0345456
0.00103925
-0.0101071
0.016872
-0.284091
0.277327
-0.0233803
0.026758
-0.446674
0.443296
-0.0275366
0.0268399
-0.551552
0.552248
-0.0250698
0.0232822
-0.647617
0.649404
-0.0212143
0.0192021
-0.762685
0.764697
-0.0168338
0.0145093
-0.903598
0.905923
-0.0117747
0.00909328
-1.07448
1.07716
-0.00593853
0.00285961
-1.28137
1.28445
0.000735177
-0.00423075
-1.53279
1.53628
0.00764585
-0.0110014
-1.53336
1.53671
0.0137576
-0.0164764
-1.28276
1.28548
0.0187121
-0.0209284
-1.07643
1.07865
0.0227809
-0.0246633
-0.906185
0.908067
0.0262746
-0.0279472
-0.766576
0.768249
0.029411
-0.0308337
-0.652993
0.654415
0.0311586
-0.029881
-0.549407
0.54813
0.0259216
-0.0186731
-0.406497
0.399249
0.0112415
-0.00466096
-0.205112
0.198532
0.00119647
-0.034482
0.0332855
-0.0336327
0.0328232
0.000809535
-0.00801286
0.0137037
-0.271127
0.265436
-0.0197354
0.0233185
-0.439805
0.436222
-0.0245802
0.0241324
-0.552852
0.5533
-0.0226356
0.0209589
-0.651188
0.652864
-0.018989
0.0170684
-0.766662
0.768583
-0.0148035
0.0125764
-0.908134
0.910361
-0.00995229
0.00738645
-1.07971
1.08228
-0.00437966
0.00144388
-1.2874
1.29034
0.00198353
-0.00531107
-1.53967
1.54299
0.0085412
-0.0116757
-1.53994
1.54308
0.0142146
-0.0166885
-1.28808
1.29055
0.0187075
-0.0206941
-1.0808
1.08278
0.0223407
-0.0240096
-0.909866
0.911535
0.0254392
-0.0269238
-0.769827
0.771312
0.0281979
-0.0292461
-0.655626
0.656674
0.0292018
-0.0272593
-0.546524
0.544582
0.0228992
-0.0159181
-0.39213
0.385149
0.00939959
-0.00388196
-0.192534
0.187016
0.00100073
-0.0322003
0.0311995
-0.0321113
0.031479
0.000632262
-0.00640058
0.0111735
-0.260232
0.255459
-0.016621
0.0202122
-0.432633
0.429042
-0.0218047
0.0215866
-0.553669
0.553887
-0.0203272
0.0187152
-0.654559
0.656171
-0.0168049
0.0149367
-0.770474
0.772342
-0.0127341
0.0105701
-0.912481
0.914645
-0.00802235
0.00553485
-1.08472
1.08721
-0.00262819
-0.00018853
-1.29316
1.29598
0.00346844
-0.0066277
-1.5462
1.54936
0.00966592
-0.0125837
-1.54608
1.549
0.0149257
-0.0171863
-1.29293
1.29519
0.0190095
-0.0207801
-1.08472
1.08649
0.0222326
-0.0237036
-0.913129
0.9146
0.0249687
-0.0262813
-0.772709
0.774021
0.0274101
-0.0280438
-0.657499
0.658133
0.0276318
-0.0251318
-0.542376
0.539876
0.0205294
-0.0138857
-0.378348
0.371704
0.00809214
-0.00333679
-0.18192
0.177165
0.000864502
-0.0302783
0.0294138
-0.0309261
0.030437
0.000489076
-0.0051056
0.0090876
-0.251107
0.247125
-0.0139054
0.0173554
-0.425528
0.422078
-0.019138
0.0191144
-0.55405
0.554074
-0.0180558
0.0164804
-0.657831
0.659407
-0.0145959
0.0127463
-0.774195
0.776044
-0.0105671
0.00843191
-0.916709
0.918844
-0.0059276
0.00349267
-1.08958
1.09202
-0.000658653
-0.00207741
-1.29869
1.30143
0.00522787
-0.0082322
-1.5524
1.55541
0.01109
-0.0138039
-1.55179
1.55451
0.0159568
-0.0180072
-1.29736
1.29941
0.0196374
-0.0211973
-1.08822
1.08978
0.0224657
-0.0237553
-0.916011
0.917301
0.0248734
-0.0260324
-0.775253
0.776412
0.0269795
-0.0272376
-0.658566
0.658824
0.0264323
-0.0234624
-0.537157
0.534187
0.0187189
-0.0124078
-0.365248
0.358937
0.00717037
-0.00295918
-0.172716
0.168505
0.000771643
-0.0286066
0.0278349
-0.0300152
0.0296469
0.000368296
-0.00402299
0.00731093
-0.243512
0.240224
-0.011487
0.0146862
-0.418766
0.415567
-0.0165342
0.01667
-0.554067
0.553931
-0.0157005
0.0142022
-0.661021
0.662519
-0.012318
0.0104568
-0.777888
0.779749
-0.00826455
0.00612402
-0.920884
0.923024
-0.0036263
0.00120923
-1.09435
1.09677
0.00158199
-0.00425737
-1.30406
1.30674
0.00731145
-0.0101884
-1.5583
1.56118
0.0128876
-0.0154115
-1.5571
1.55962
0.0173812
-0.0192258
-1.30136
1.30321
0.0206675
-0.022021
-1.09132
1.09268
0.0231092
-0.0242221
-0.918537
0.91965
0.0251945
-0.0261835
-0.777481
0.77847
0.0268739
-0.0268359
-0.658951
0.658913
0.0256202
-0.0222364
-0.531028
0.527645
0.0173995
-0.0113705
-0.352795
0.346766
0.00654165
-0.00270824
-0.164514
0.16068
0.000711941
-0.0271039
0.0263919
-0.0293384
0.0290776
0.000260843
-0.00307603
0.00573833
-0.23727
0.234608
-0.00927307
0.0121381
-0.412553
0.409688
-0.0139375
0.0141615
-0.553806
0.553582
-0.0132396
0.0117901
-0.664076
0.665525
-0.00988363
0.00798141
-0.781612
0.783514
-0.00574121
0.00356265
-0.925073
0.927252
-0.00103504
-0.00139409
-1.09908
1.1015
0.00418053
-0.00682506
-1.30932
1.31197
0.00980845
-0.0125785
-1.56395
1.56672
0.0151336
-0.0174755
-1.56202
1.56436
0.0192661
-0.0209074
-1.30496
1.3066
0.022161
-0.0233042
-1.09404
1.09518
0.024206
-0.02514
-0.920718
0.921652
0.0259685
-0.0267847
-0.779366
0.780182
0.027191
-0.0268928
-0.658739
0.658441
0.0252306
-0.0214553
-0.524086
0.520311
0.0165295
-0.0107018
-0.340874
0.335046
0.00614896
-0.00255863
-0.157
0.153409
0.000678968
-0.025708
0.0250291
-0.0288731
0.0287141
0.000159031
-0.00220092
0.00427691
-0.232258
0.230182
-0.00716615
0.00962767
-0.407047
0.404585
-0.0112714
0.0115052
-0.553418
0.553184
-0.0105981
0.00915912
-0.667069
0.668508
-0.00720464
0.00523333
-0.785423
0.787394
-0.0029113
0.000662877
-0.929339
0.931587
0.00193368
-0.00441058
-1.10384
1.10632
0.00722765
-0.0098702
-1.31452
1.31717
0.0128089
-0.0154888
-1.56939
1.57207
0.0179092
-0.0200733
-1.56658
1.56874
0.0216868
-0.023125
-1.30814
1.30958
0.0241867
-0.0251098
-1.09634
1.09727
0.0258118
-0.0265491
-0.922536
0.923274
0.0272239
-0.0278969
-0.780896
0.781568
0.0279967
-0.0273326
-0.657917
0.657253
0.0252391
-0.0210785
-0.516384
0.512223
0.016044
-0.0103303
-0.329322
0.323608
0.00594151
-0.00248759
-0.14992
0.146467
0.000666482
-0.024369
0.0237026
-0.0286108
0.0285546
5.62598e-05
-0.00134841
0.00285323
-0.228408
0.226903
-0.00508308
0.00707739
-0.402381
0.400387
-0.00846235
0.00862592
-0.553063
0.5529
-0.0076913
0.00623142
-0.670077
0.671537
-0.00419414
0.00212332
-0.789374
0.791445
0.000317233
-0.00267665
-0.933745
0.936104
0.0053823
-0.00794415
-1.10871
1.11127
0.0108285
-0.0135011
-1.31973
1.3224
0.0164259
-0.0190378
-1.57465
1.57726
0.0213366
-0.0233268
-1.57078
1.57277
0.0247597
-0.025986
-1.3109
1.31213
0.0268453
-0.0275329
-1.09823
1.09892
0.0280221
-0.0285488
-0.923969
0.924496
0.02906
-0.0295311
-0.782066
0.782537
0.0293413
-0.0282545
-0.656343
0.655256
0.0256947
-0.021123
-0.507926
0.503354
0.0159302
-0.010229
-0.317959
0.312257
0.00589831
-0.00248625
-0.14307
0.139658
0.000672512
-0.0230472
0.0223746
-0.0285543
0.0286073
-5.29449e-05
-0.000472871
0.00140165
-0.225702
0.224773
-0.0029452
0.00440793
-0.398682
0.39722
-0.00543035
0.00543684
-0.552909
0.552903
-0.00441462
0.00287651
-0.673179
0.674717
-0.000720114
-0.00149206
-0.793528
0.79574
0.00409928
-0.00660357
-0.938372
0.940876
0.00945881
-0.0121413
-1.11375
1.11643
0.0151318
-0.0178657
-1.325
1.32774
0.0208024
-0.0233595
-1.57978
1.58234
0.0255397
-0.0273514
-1.57462
1.57644
0.0285925
-0.0295897
-1.31322
1.31422
0.0302316
-0.0306774
-1.09967
1.10011
0.0309426
-0.0312409
-0.924985
0.925284
0.0315646
-0.0317697
-0.782718
0.782923
0.031306
-0.0296992
-0.653913
0.652306
0.0266279
-0.0215989
-0.498657
0.493628
0.0161775
-0.0103789
-0.306577
0.300778
0.00600478
-0.00254784
-0.136264
0.132807
0.000695126
-0.0217063
0.0210112
-0.0287153
0.0288835
-0.00016814
0.000448047
-0.000126513
-0.224161
0.22384
-0.000680773
0.00153187
-0.396077
0.395226
-0.00208587
0.00185104
-0.553135
0.55337
-0.000684639
-0.00099682
-0.676496
0.678177
0.003325
-0.0057218
-0.797971
0.800368
0.00854211
-0.0112396
-0.943293
0.94599
0.0142976
-0.0171475
-1.11904
1.12189
0.0202897
-0.0231193
-1.3304
1.33323
0.0260974
-0.0286163
-1.5848
1.58732
0.0306812
-0.0323053
-1.5781
1.57972
0.0333443
-0.034093
-1.31507
1.31582
0.0344993
-0.0346825
-1.10061
1.10079
0.0347075
-0.0347568
-0.925541
0.92559
0.0348802
-0.0347506
-0.782746
0.782617
0.0339368
-0.0317267
-0.650489
0.648279
0.0280849
-0.0225254
-0.48847
0.482911
0.0167837
-0.0107683
-0.294951
0.288936
0.00625023
-0.00266674
-0.129331
0.125747
0.000732557
-0.0203143
0.0195818
-0.0291318
0.0294414
-0.000309621
0.00144581
-0.0017695
-0.223872
0.224196
0.00180422
-0.00167341
-0.394691
0.39456
0.00171905
-0.00230237
-0.553952
0.554535
0.00369213
-0.00556242
-0.680157
0.682027
0.00811598
-0.0107479
-0.802779
0.805411
0.01384
-0.0167849
-0.948604
0.951549
0.0201025
-0.0231669
-1.12467
1.12774
0.0265053
-0.0294639
-1.336
1.33896
0.0325085
-0.0349982
-1.58974
1.59223
0.0369411
-0.0383504
-1.58118
1.58259
0.0391614
-0.0396388
-1.31638
1.31686
0.0397908
-0.0396892
-1.10099
1.10089
0.0394504
-0.0392312
-0.925572
0.925352
0.0391482
-0.0385658
-0.782014
0.781432
0.0373021
-0.0344138
-0.645913
0.643024
0.0301152
-0.023922
-0.477206
0.471013
0.017749
-0.0113885
-0.28284
0.27648
0.00662641
-0.00283836
-0.12211
0.118322
0.000783291
-0.0188422
0.0180589
-0.0298219
0.0303078
-0.000485892
0.00272642
-0.00379657
-0.224906
0.225976
0.00469754
-0.00536232
-0.394752
0.395416
0.00612768
-0.00716909
-0.555594
0.556636
0.00887062
-0.0110067
-0.684269
0.686405
0.01387
-0.0168081
-0.808064
0.811002
0.0202443
-0.0234976
-0.954416
0.95767
0.0271355
-0.0304641
-1.13074
1.13407
0.0340436
-0.0371582
-1.34185
1.34497
0.0402786
-0.0427271
-1.59461
1.59706
0.0445209
-0.0456859
-1.58381
1.58497
0.0462179
-0.0464046
-1.31711
1.31729
0.0462777
-0.0458602
-1.10075
1.10034
0.0453294
-0.0448187
-0.925013
0.924502
0.0444302
-0.0433957
-0.78037
0.779335
0.0415637
-0.0378713
-0.640006
0.636313
0.0327936
-0.0258261
-0.464645
0.457678
0.0190859
-0.0122385
-0.269983
0.263136
0.00712869
-0.00305903
-0.114447
0.110377
0.000845834
-0.0172645
0.0164187
-0.0308628
0.0315681
-0.000705338
0.0042179
-0.00617746
-0.227461
0.229421
0.00813711
-0.00970536
-0.396467
0.398035
0.0112931
-0.0129114
-0.558318
0.559937
0.0150597
-0.0175539
-0.688998
0.691492
0.0208246
-0.0241473
-0.813968
0.817291
0.0280115
-0.0316476
-0.960854
0.96449
0.0356815
-0.0393325
-1.13734
1.14099
0.0431994
-0.046494
-1.34801
1.35131
0.0496957
-0.0520889
-1.59938
1.60177
0.0537026
-0.0545796
-1.58593
1.58681
0.0547852
-0.0546245
-1.31718
1.31702
0.0541694
-0.0533944
-1.09981
1.09904
0.0525388
-0.0516936
-0.923802
0.922957
0.0509041
-0.0493687
-0.777816
0.77628
0.0468261
-0.0421779
-0.632516
0.627868
0.0361668
-0.028251
-0.450497
0.442581
0.0207878
-0.0133031
-0.256094
0.248609
0.00774246
-0.00331991
-0.10619
0.101767
0.000916971
-0.0155588
0.0146418
-0.0323363
0.0333286
-0.000992316
0.00609478
-0.00910714
-0.231795
0.234807
0.0123332
-0.0149597
-0.400104
0.40273
0.0175149
-0.0198369
-0.5624
0.564722
0.0225696
-0.025541
-0.694536
0.697508
0.0293446
-0.0331555
-0.820655
0.824466
0.0375537
-0.0416581
-0.96807
0.972174
0.0461641
-0.0501863
-1.1446
1.14862
0.0543691
-0.0578445
-1.35452
1.358
0.0610982
-0.063381
-1.604
1.60629
0.0647434
-0.0652495
-1.58743
1.58794
0.065077
-0.0644979
-1.31645
1.31587
0.0636757
-0.0624914
-1.09808
1.0969
0.0612732
-0.0600886
-0.921842
0.920657
0.0587684
-0.0566292
-0.774237
0.772098
0.0532338
-0.0474266
-0.623121
0.617314
0.0402795
-0.0311987
-0.434406
0.425325
0.0228341
-0.014554
-0.240872
0.232591
0.00844387
-0.00360747
-0.0972025
0.0923661
0.000992019
-0.0137105
0.0127185
-0.0343704
0.0357578
-0.00138748
0.00854213
-0.0129068
-0.238224
0.242588
0.017622
-0.0214879
-0.406033
0.409899
0.025185
-0.0283661
-0.56817
0.571351
0.031865
-0.0354764
-0.701152
0.704763
0.0399805
-0.04441
-0.828328
0.832758
0.0494521
-0.0541009
-0.976231
0.98088
0.0591356
-0.0635525
-1.15259
1.157
0.0680419
-0.0716542
-1.36136
1.36497
0.0748739
-0.0769389
-1.60835
1.61041
0.0779338
-0.0779519
-1.58812
1.58814
0.0773171
-0.0762096
-1.31476
1.31365
0.0749671
-0.0733389
-1.09543
1.0938
0.0717292
-0.0701246
-0.919104
0.9175
0.0682311
-0.065349
-0.769411
0.766529
0.0608903
-0.0536584
-0.611398
0.604166
0.0451244
-0.0346242
-0.41594
0.40544
0.0251647
-0.0159339
-0.224008
0.214777
0.00918997
-0.00389917
-0.0873733
0.0820825
0.00106359
-0.0117151
0.0106515
-0.0371613
0.0391051
-0.00194381
0.0119518
-0.0180316
-0.247277
0.253357
0.0245483
-0.0298667
-0.41475
0.420068
0.0349138
-0.0391401
-0.57603
0.580256
0.0436103
-0.0480584
-0.709191
0.713639
0.0534581
-0.0586459
-0.837237
0.842425
0.064446
-0.0697066
-0.985487
0.990748
0.0752979
-0.0800878
-1.16133
1.16612
0.0848076
-0.0884468
-1.3684
1.37204
0.0914751
-0.0931539
-1.61216
1.61384
0.0936114
-0.0929793
-1.58776
1.58712
0.0917487
-0.0899909
-1.31193
1.31017
0.0882247
-0.0861257
-1.09173
1.08963
0.0841174
-0.0819282
-0.915394
0.913205
0.0794928
-0.0756164
-0.762968
0.759092
0.0698336
-0.060854
-0.5968
0.587821
0.0506334
-0.0384237
-0.394601
0.382392
0.0276683
-0.0173487
-0.205211
0.194892
0.00991536
-0.00416297
-0.0766392
0.0708868
0.0011218
-0.00958413
0.00846233
-0.0410294
0.0438431
-0.00281366
0.0168969
-0.0252332
-0.259682
0.268019
0.0339935
-0.0410674
-0.42692
0.433994
0.047763
-0.0532546
-0.586449
0.59194
0.0589669
-0.0644962
-0.719056
0.724585
0.0709963
-0.0770628
-0.847643
0.853709
0.0836794
-0.089536
-0.995948
1.0018
0.0955951
-0.100618
-1.17074
1.17577
0.105361
-0.108801
-1.37537
1.37881
0.111364
-0.112392
-1.61506
1.61609
0.112068
-0.110568
-1.58597
1.58447
0.108579
-0.106056
-1.30775
1.30522
0.103663
-0.101005
-1.08688
1.08422
0.0985478
-0.0956802
-0.910327
0.907459
0.0926173
-0.0874682
-0.75439
0.749241
0.0800207
-0.0688877
-0.578641
0.567509
0.0566295
-0.0423992
-0.369838
0.355608
0.0301593
-0.0186552
-0.184251
0.172747
0.0105261
-0.00435549
-0.0650161
0.0588455
0.00115385
-0.00735015
0.0061963
-0.0465545
0.0508349
-0.00428033
0.0245667
-0.035976
-0.276601
0.28801
0.0476477
-0.0570485
-0.443572
0.452973
0.0657634
-0.0727211
-0.600033
0.606991
0.0799634
-0.0869789
-0.731121
0.738136
0.0946431
-0.101504
-0.859745
0.866606
0.108765
-0.114992
-1.0075
1.01372
0.121196
-0.126109
-1.18045
1.18536
0.13046
-0.133302
-1.38173
1.38457
0.134951
-0.134931
-1.61645
1.61643
0.13348
-0.130834
-1.5823
1.57965
0.127903
-0.124471
-1.30194
1.29851
0.121373
-0.118096
-1.08074
1.07746
0.115121
-0.111501
-0.903707
0.900087
0.107516
-0.100695
-0.743077
0.736256
0.0911645
-0.0774125
-0.55605
0.542298
0.0627569
-0.0462291
-0.34109
0.324563
0.0323688
-0.0196635
-0.161028
0.148323
0.0109043
-0.0044248
-0.0526403
0.0461607
0.00114445
-0.00507058
0.00392613
-0.0548007
0.0621559
-0.00735521
0.0380372
-0.0539211
-0.300179
0.316063
0.0696663
-0.0822767
-0.46636
0.47897
0.0931693
-0.10148
-0.617238
0.625548
0.110222
-0.118492
-0.745778
0.754048
0.127039
-0.134277
-0.873248
0.880487
0.141603
-0.147604
-1.01951
1.02551
0.153284
-0.157455
-1.18962
1.19379
0.160745
-0.162374
-1.38658
1.38821
0.162524
-0.160985
-1.61546
1.61392
0.158034
-0.153932
-1.57617
1.57207
0.149811
-0.145261
-1.29421
1.28966
0.141345
-0.137414
-1.07309
1.06916
0.133791
-0.129336
-0.895347
0.890892
0.124005
-0.114944
-0.728092
0.719031
0.102739
-0.085789
-0.527947
0.510996
0.0684319
-0.0494875
-0.307885
0.28894
0.0340169
-0.020236
-0.135689
0.121908
0.0109882
-0.00435455
-0.0398211
0.0331875
0.0010872
-0.00283368
0.00174649
-0.069014
0.0731376
-0.00412366
0.0291515
-0.042912
-0.334421
0.348181
0.0568511
-0.0683938
-0.49673
0.508273
0.0786871
-0.0882438
-0.637615
0.647171
0.0988544
-0.108537
-0.761927
0.77161
0.119272
-0.128819
-0.886861
0.896408
0.138956
-0.147929
-1.03057
1.03954
0.157218
-0.165083
-1.19685
1.20472
0.172743
-0.178666
-1.38865
1.39457
0.183635
-0.186458
-1.61113
1.61395
0.187101
-0.18613
-1.56692
1.56595
0.1841
-0.18121
-1.28414
1.28125
0.178667
-0.175682
-1.06374
1.06075
0.172965
-0.168597
-0.884707
0.880339
0.161244
-0.147893
-0.708138
0.694787
0.12971
-0.105442
-0.493153
0.468885
0.0818321
-0.0571375
-0.269947
0.245252
0.0380732
-0.0219273
-0.108783
0.0926374
0.0115622
-0.00445564
-0.0270918
0.0199852
0.00109053
-0.000743686
-0.000346842
-0.0802827
0.0784534
0.00182929
0.0074831
-0.0165433
-0.36475
0.37381
0.0271213
-0.035278
-0.524501
0.532658
0.0435155
-0.0515938
-0.659231
0.667309
0.0613659
-0.0704318
-0.780974
0.79004
0.080049
-0.0888166
-0.905402
0.914169
0.0980868
-0.105945
-1.04821
1.05607
0.114249
-0.120898
-1.21236
1.21901
0.127287
-0.131894
-1.40014
1.40474
0.135106
-0.136335
-1.61587
1.6171
0.135373
-0.132764
-1.56414
1.56153
0.129096
-0.12444
-1.27762
1.27296
0.120164
-0.115479
-1.0556
1.05091
0.111078
-0.105298
-0.871125
0.865345
0.0975133
-0.0857179
-0.677471
0.665676
0.0719488
-0.05539
-0.443121
0.426562
0.0408318
-0.0272224
-0.221
0.207391
0.0176023
-0.00995863
-0.0775792
0.0699355
0.00525533
-0.00206808
-0.0133391
0.0101518
0.000441716
0.00145383
-0.00189554
-0.0817334
0.0788478
0.00288566
-0.00170401
-0.00355234
-0.385219
0.390476
0.0107651
-0.0166457
-0.544998
0.550878
0.0227406
-0.0298102
-0.677485
0.684555
0.03825
-0.0461172
-0.798252
0.806119
0.0546886
-0.0623323
-0.922193
0.929837
0.0701543
-0.0771287
-1.06373
1.0707
0.0842695
-0.0900432
-1.22519
1.23096
0.0950905
-0.0984395
-1.40861
1.41196
0.100567
-0.100563
-1.61752
1.61752
0.0983827
-0.0945534
-1.55819
1.55436
0.0899059
-0.0843998
-1.26794
1.26243
0.0789236
-0.0730706
-1.04454
1.03869
0.0675487
-0.0609518
-0.855661
0.849064
0.0538341
-0.0441521
-0.650571
0.640889
0.0342946
-0.0238375
-0.408261
0.397804
0.0161367
-0.0100675
-0.193293
0.187224
0.00637816
-0.00376062
-0.0623153
0.0596978
0.00211954
-0.000860858
-0.00703293
0.00577425
0.000173574
0.00251425
-0.00268783
-0.0804766
0.0777433
0.00273327
-0.00533999
0.00281771
-0.398853
0.401375
0.00184162
-0.00628027
-0.560117
0.564555
0.0114203
-0.0173421
-0.692548
0.69847
0.0245384
-0.0312649
-0.813378
0.820104
0.0385787
-0.0451203
-0.936947
0.943489
0.0521851
-0.0580669
-1.07722
1.08311
0.0642558
-0.0687706
-1.23628
1.2408
0.0729522
-0.0755386
-1.41503
1.41761
0.0766798
-0.0755842
-1.61698
1.61588
0.0727463
-0.0682899
-1.54987
1.54541
0.0630901
-0.0566335
-1.25651
1.25005
0.050581
-0.0439766
-1.03158
1.02497
0.0376191
-0.0308554
-0.8393
0.832536
0.0243658
-0.0169476
-0.62815
0.620732
0.0104103
-0.00500449
-0.386243
0.380837
0.00215292
-0.000688262
-0.179827
0.178362
0.000225722
-0.000242485
-0.0561216
0.0561384
0.00023412
-9.0767e-05
-0.00429061
0.00414725
-1.076e-05
0.00314539
-0.00313463
-0.0789615
0.0765343
0.00242722
-0.00649221
0.00558149
-0.407921
0.408832
-0.00216168
-0.00103663
-0.572215
0.575413
0.00520429
-0.0105697
-0.705166
0.710531
0.0166023
-0.0224939
-0.826152
0.832043
0.0288117
-0.0344724
-0.94957
0.95523
0.0405033
-0.0457048
-1.08883
1.09404
0.0508909
-0.0549659
-1.24514
1.24922
0.0584211
-0.0603911
-1.41979
1.42176
0.0609109
-0.0592942
-1.61454
1.61292
0.0560204
-0.0509819
-1.5402
1.53516
0.0454788
-0.0388448
-1.24344
1.23681
0.0324749
-0.0253317
-1.01745
1.0103
0.018804
-0.0119063
-0.82325
0.816352
0.00607875
-0.000220626
-0.610677
0.604819
-0.00388412
0.00611588
-0.373256
0.371025
-0.00628112
0.00529833
-0.174819
0.175801
-0.00395166
0.0024365
-0.0553725
0.0568876
-0.00131989
0.000551086
-0.00394114
0.00470995
-0.000171336
0.00338898
-0.00321764
-0.077543
0.0754584
0.00208464
-0.00639462
0.00600332
-0.414109
0.414501
-0.00397768
0.00141298
-0.581496
0.58406
0.00262509
-0.00720244
-0.715837
0.720414
0.0123759
-0.017484
-0.837161
0.842269
0.0230926
-0.0281377
-0.960535
0.96558
0.0336313
-0.0381553
-1.09894
1.10347
0.0427702
-0.0463706
-1.25298
1.25658
0.0493039
-0.0508526
-1.42342
1.42497
0.0509574
-0.0494036
-1.61116
1.60961
0.0458749
-0.0408196
-1.52965
1.5246
0.0351908
-0.0284374
-1.22993
1.22318
0.0222011
-0.0148509
-1.00266
0.99531
0.00822333
-0.00150388
-0.807656
0.800936
-0.00371296
0.00837373
-0.596475
0.591814
-0.0112807
0.0121901
-0.365918
0.365008
-0.0109352
0.0087956
-0.174731
0.176871
-0.00667152
0.00427525
-0.0577262
0.0601225
-0.00242335
0.00100221
-0.00545037
0.0068715
-0.000287364
0.0032086
-0.00292124
-0.0764514
0.0748218
0.00162964
-0.00553441
0.00548382
-0.418669
0.41872
-0.00387195
0.00195916
-0.58956
0.591472
0.00180753
-0.00593489
-0.725044
0.729172
0.0108335
-0.0152227
-0.846986
0.851375
0.0201387
-0.024598
-0.970586
0.975045
0.0297902
-0.0338744
-1.10801
1.11209
0.0379329
-0.0412947
-1.25997
1.26333
0.0443184
-0.045647
-1.42651
1.42784
0.0457153
-0.0440056
-1.60763
1.60592
0.0407627
-0.0355064
-1.51931
1.51405
0.0301362
-0.0236961
-1.21626
1.20982
0.0175062
-0.0105804
-0.987832
0.980907
0.00411757
0.00248304
-0.792722
0.786122
-0.0072749
0.0113452
-0.584329
0.580259
-0.0137841
0.0142157
-0.36121
0.360779
-0.0128599
0.0104532
-0.177014
0.17942
-0.00802693
0.00527935
-0.0618266
0.0645742
-0.0030779
0.0012869
-0.00813087
0.00992186
-0.000380282
0.00273202
-0.00235174
-0.0758583
0.0745754
0.0012829
-0.00447278
0.00455247
-0.422258
0.422178
-0.00314907
0.00132769
-0.59655
0.598371
0.00228046
-0.0059526
-0.733288
0.736961
0.0101393
-0.0143627
-0.855705
0.859929
0.0188896
-0.0234699
-0.979301
0.983882
0.0279141
-0.0317934
-1.11626
1.12014
0.035952
-0.0390405
-1.26656
1.26965
0.0415509
-0.0432525
-1.42905
1.43075
0.0434457
-0.0419583
-1.60424
1.60275
0.0388226
-0.0341075
-1.50901
1.50429
0.0290551
-0.0229623
-1.20313
1.19704
0.0171778
-0.0105814
-0.97378
0.967184
0.00445595
0.00171647
-0.77856
0.772388
-0.00665406
0.0103709
-0.573339
0.569623
-0.01249
0.0132772
-0.35768
0.356893
-0.0123816
0.0102308
-0.179655
0.181806
-0.00799772
0.00538324
-0.0664034
0.0690179
-0.00323125
0.00140781
-0.0113448
0.0131682
-0.000415572
0.00207487
-0.0016593
-0.0757901
0.074722
0.00106817
-0.00320768
0.00305645
-0.425459
0.42561
-0.00191825
0.000150098
-0.602954
0.604723
0.00330987
-0.00685211
-0.740929
0.744471
0.0108586
-0.0146668
-0.863927
0.867736
0.0192952
-0.0230726
-0.987873
0.991651
0.0274663
-0.0311466
-1.12415
1.12783
0.0351708
-0.0384359
-1.27271
1.27597
0.041209
-0.0426707
-1.4322
1.43366
0.0431795
-0.0420782
-1.60119
1.60009
0.0395875
-0.0352162
-1.49951
1.49514
0.0306415
-0.0249918
-1.19113
1.18548
0.019631
-0.0134008
-0.960361
0.95413
0.00777761
-0.0018109
-0.765325
0.759358
-0.00298317
0.0068315
-0.563075
0.559227
-0.00901884
0.0099838
-0.353922
0.352957
-0.00977939
0.00835347
-0.181686
0.183112
-0.00669585
0.00460848
-0.0705475
0.0726349
-0.00282751
0.00127786
-0.0144596
0.0160093
-0.000378831
0.00135486
-0.000976026
-0.0760032
0.0752599
0.000743375
-0.00206035
0.00146713
-0.428742
0.429335
-0.000498517
-0.00152799
-0.608525
0.610552
0.00456704
-0.0079538
-0.748038
0.751425
0.0117851
-0.0157128
-0.871394
0.875322
0.0197127
-0.0236379
-0.995621
0.999546
0.027981
-0.0314437
-1.13193
1.13539
0.0355471
-0.0387572
-1.27902
1.28223
0.0415803
-0.0435641
-1.43552
1.43751
0.0445605
-0.0437586
-1.59903
1.59823
0.0415471
-0.0379262
-1.491
1.48738
0.0339211
-0.0286763
-1.17979
1.17454
0.0236367
-0.0180873
-0.947871
0.942322
0.0125377
-0.00709091
-0.752715
0.747268
0.00238043
0.00185013
-0.553345
0.549114
-0.00418755
0.00558979
-0.349483
0.348081
-0.00595695
0.00547384
-0.18258
0.183063
-0.00453012
0.00322854
-0.0735254
0.074827
-0.00205414
0.000960003
-0.0169292
0.0180233
-0.000288658
0.000718453
-0.000429795
-0.07664
0.076055
0.000585011
-0.00108655
0.000592787
-0.432249
0.432743
0.00101124
-0.00291145
-0.614292
0.616192
0.0060996
-0.00935269
-0.754617
0.75787
0.0130292
-0.0165482
-0.878905
0.882424
0.0206629
-0.0242661
-1.00346
1.00707
0.0285531
-0.0324465
-1.13929
1.14319
0.0361876
-0.0397253
-1.28548
1.28901
0.0429684
-0.0450487
-1.43939
1.44147
0.0464316
-0.0464334
-1.59766
1.59766
0.0446864
-0.0417049
-1.48366
1.48068
0.0379391
-0.0332311
-1.16941
1.1647
0.0287328
-0.0235323
-0.936441
0.93124
0.0185293
-0.0132936
-0.740976
0.73574
0.00867152
-0.00413657
-0.543344
0.538809
0.00117351
0.00079324
-0.344242
0.342275
-0.00191439
0.00225646
-0.181864
0.181522
-0.00209272
0.00160831
-0.0749276
0.075412
-0.00109011
0.000542564
-0.0184537
0.0190012
-0.000165048
0.000254002
-8.89539e-05
-0.0775527
0.0771522
0.000400507
-6.45544e-05
-0.000678371
-0.435874
0.436617
0.00218746
-0.00440656
-0.619658
0.621877
0.00750877
-0.0105954
-0.760963
0.76405
0.0143589
-0.0177236
-0.88591
0.889275
0.021677
-0.0254005
-1.01114
1.01486
0.0295895
-0.0334493
-1.14692
1.15078
0.0374142
-0.0409813
-1.29246
1.29603
0.0444171
-0.0472531
-1.44383
1.44667
0.049094
-0.0494023
-1.5976
1.59791
0.0483481
-0.0457012
-1.47761
1.47496
0.0425413
-0.0384896
-1.16004
1.15598
0.0342122
-0.0294214
-0.925858
0.921067
0.0247308
-0.01952
-0.729826
0.724615
0.0149717