/*--------------------------------*- C++ -*----------------------------------*\
| =========                 |                                                 |
| \\      /  F ield         | OpenFOAM: The Open Source CFD Toolbox           |
|  \\    /   O peration     | Version:  2112                                  |
|   \\  /    A nd           | Website:  www.openfoam.com                      |
|    \\/     M anipulation  |                                                 |
\*---------------------------------------------------------------------------*/
FoamFile
{
    version     2.0;
    format      ascii;
    arch        "LSB;label=32;scalar=64";
    class       volVectorField;
    location    "58.5";
    object      U;
}
// * * * * * * * * * * * * * * * * * * * * * * * * * * * * * * * * * * * * * //

dimensions      [0 1 -1 0 0 0 0];

internalField   nonuniform List<vector> 
8800
(
(0.980139 -0.0915209 0)
(1.00234 -0.0587304 0)
(0.999579 -0.03213 0)
(0.999972 -0.0165245 0)
(1.00006 -0.00884476 0)
(1.00008 -0.00509927 0)
(1.00005 -0.00299461 0)
(1.00002 -0.0016833 0)
(0.999999 -0.00078194 0)
(1.00006 -8.316e-05 0)
(0.999987 0.000625407 0)
(0.999995 0.00138055 0)
(1.00002 0.00240568 0)
(1.00004 0.00400692 0)
(1.00004 0.00675081 0)
(0.999995 0.0120517 0)
(0.999794 0.0230952 0)
(0.99903 0.0431566 0)
(1.00724 0.0790256 0)
(0.775025 0.0478395 0)
(0.35899 -0.0147484 0)
(1.0465 -0.0724824 0)
(1.08847 -0.0660198 0)
(1.04943 -0.0509142 0)
(1.02553 -0.0376943 0)
(1.01273 -0.0258887 0)
(1.00657 -0.0166919 0)
(1.00363 -0.0101998 0)
(1.00219 -0.0055665 0)
(1.00151 -0.00197042 0)
(1.00138 0.00124366 0)
(1.00173 0.00455334 0)
(1.0027 0.00844242 0)
(1.00475 0.0137531 0)
(1.00898 0.0214254 0)
(1.01795 0.0319128 0)
(1.03578 0.0446831 0)
(1.06741 0.0581232 0)
(1.09469 0.0699557 0)
(0.845617 0.0555084 0)
(0.217801 -0.00138037 0)
(1.07568 -0.0506441 0)
(1.09941 -0.0489256 0)
(1.06438 -0.0400079 0)
(1.0399 -0.0325476 0)
(1.02381 -0.0253327 0)
(1.01403 -0.0181089 0)
(1.00852 -0.0114816 0)
(1.00566 -0.00571924 0)
(1.00448 -0.000424282 0)
(1.00479 0.0046891 0)
(1.00663 0.00997622 0)
(1.01056 0.0159423 0)
(1.01789 0.0226916 0)
(1.03049 0.0297858 0)
(1.05047 0.0368668 0)
(1.08002 0.0446384 0)
(1.10563 0.0519578 0)
(0.943232 0.0410193 0)
(0.217166 0.00140616 0)
(0.176666 -0.00062824 0)
(1.01943 -0.0354516 0)
(1.10572 -0.0413916 0)
(1.07799 -0.0363722 0)
(1.05247 -0.030325 0)
(1.03525 -0.0244458 0)
(1.02339 -0.018644 0)
(1.01557 -0.0126375 0)
(1.01095 -0.00653274 0)
(1.00891 -0.000288426 0)
(1.00943 0.00587211 0)
(1.0125 0.0117862 0)
(1.01846 0.0175474 0)
(1.02805 0.0231107 0)
(1.04224 0.0286476 0)
(1.06305 0.0344195 0)
(1.09382 0.0402983 0)
(1.09438 0.0418137 0)
(0.830107 0.0227914 0)
(0.175582 0.000648952 0)
(0.154769 -0.000462014 0)
(0.958245 -0.0256759 0)
(1.10444 -0.0350904 0)
(1.08811 -0.0326362 0)
(1.0613 -0.0281264 0)
(1.04326 -0.0231601 0)
(1.03087 -0.0178498 0)
(1.02226 -0.0122972 0)
(1.0167 -0.00637597 0)
(1.01403 8.66302e-05 0)
(1.01466 0.00654985 0)
(1.01843 0.0124209 0)
(1.02521 0.0177275 0)
(1.03535 0.0227196 0)
(1.05006 0.0275278 0)
(1.07199 0.031956 0)
(1.10094 0.0358245 0)
(1.06959 0.0340183 0)
(0.742373 0.0144715 0)
(0.153144 0.000485248 0)
(0.140099 -0.000333874 0)
(0.901277 -0.0193092 0)
(1.09687 -0.0301917 0)
(1.09626 -0.029307 0)
(1.06902 -0.0255209 0)
(1.0502 -0.0214305 0)
(1.03722 -0.016721 0)
(1.02822 -0.0114596 0)
(1.02227 -0.00572488 0)
(1.01926 0.000640678 0)
(1.01985 0.00701728 0)
(1.02383 0.0126659 0)
(1.03085 0.0176352 0)
(1.04136 0.022085 0)
(1.0567 0.0260133 0)
(1.07948 0.0295148 0)
(1.10322 0.0322185 0)
(1.03775 0.0281926 0)
(0.675472 0.0103294 0)
(0.137809 0.000361475 0)
(0.129377 -0.000252382 0)
(0.851451 -0.0149108 0)
(1.08455 -0.0260887 0)
(1.10197 -0.026427 0)
(1.07587 -0.0231023 0)
(1.05654 -0.0194418 0)
(1.04313 -0.0152348 0)
(1.03376 -0.0103594 0)
(1.02752 -0.0048471 0)
(1.02429 0.00133231 0)
(1.02476 0.00749241 0)
(1.02875 0.0128566 0)
(1.03592 0.0174021 0)
(1.04671 0.0212467 0)
(1.06242 0.0245753 0)
(1.08565 0.0275976 0)
(1.1024 0.0293987 0)
(1.00298 0.0236647 0)
(0.623324 0.0079316 0)
(0.126276 0.000285945 0)
(0.121208 -0.00019355 0)
(0.809006 -0.0117246 0)
(1.06927 -0.0224928 0)
(1.10551 -0.0237964 0)
(1.08214 -0.0209251 0)
(1.06235 -0.0174918 0)
(1.04867 -0.0135673 0)
(1.03903 -0.00901434 0)
(1.03252 -0.00377805 0)
(1.02905 0.00216675 0)
(1.02936 0.00805688 0)
(1.03329 0.0130676 0)
(1.04053 0.0171563 0)
(1.05141 0.0205263 0)
(1.06736 0.023457 0)
(1.09097 0.0261615 0)
(1.09872 0.0270537 0)
(0.967787 0.0201057 0)
(0.581438 0.00636926 0)
(0.11712 0.000234308 0)
(0.114878 -0.000148914 0)
(0.773222 -0.00934031 0)
(1.05244 -0.0193273 0)
(1.10787 -0.0213659 0)
(1.08802 -0.0188768 0)
(1.06781 -0.0156055 0)
(1.05388 -0.0118512 0)
(1.04406 -0.00750184 0)
(1.03732 -0.00250655 0)
(1.03358 0.0031741 0)
(1.03368 0.00874989 0)
(1.03748 0.0133797 0)
(1.04464 0.017063 0)
(1.05555 0.020055 0)
(1.07173 0.022658 0)
(1.09504 0.0250192 0)
(1.09222 0.0251087 0)
(0.933517 0.017352 0)
(0.546809 0.00529832 0)
(0.10959 0.000198406 0)
(0.109937 -0.000113652 0)
(0.743172 -0.00749306 0)
(1.03514 -0.0165198 0)
(1.10927 -0.019082 0)
(1.0936 -0.0169096 0)
(1.07309 -0.0137408 0)
(1.05888 -0.0100864 0)
(1.04886 -0.00586407 0)
(1.04191 -0.00104356 0)
(1.0379 0.00438612 0)
(1.03771 0.00963878 0)
(1.04129 0.0139079 0)
(1.04832 0.0172321 0)
(1.05921 0.0198768 0)
(1.07562 0.0221877 0)
(1.09782 0.0241809 0)
(1.08327 0.0235074 0)
(0.900761 0.0152526 0)
(0.517371 0.00454986 0)
(0.103193 0.000173639 0)
(0.106096 -8.45575e-05 0)
(0.718035 -0.00600643 0)
(1.01819 -0.0140001 0)
(1.10983 -0.0168748 0)
(1.09907 -0.0149875 0)
(1.07829 -0.0118376 0)
(1.06377 -0.00822329 0)
(1.05353 -0.00407351 0)
(1.04633 0.000628859 0)
(1.042 0.005843 0)
(1.04146 0.0107878 0)
(1.04474 0.0147138 0)
(1.05159 0.0176914 0)
(1.06247 0.0199977 0)
(1.07906 0.022048 0)
(1.09925 0.0236577 0)
(1.07228 0.0222427 0)
(0.869654 0.0136934 0)
(0.49166 0.00403193 0)
(0.0975811 0.000157427 0)
(0.103161 -5.94379e-05 0)
(0.697167 -0.00476209 0)
(1.00221 -0.0117018 0)
(1.1097 -0.0147098 0)
(1.10437 -0.0130314 0)
(1.08347 -0.00985641 0)
(1.06862 -0.0062265 0)
(1.05812 -0.00208668 0)
(1.05062 0.00254627 0)
(1.04591 0.0075951 0)
(1.04494 0.012267 0)
(1.04786 0.0158653 0)
(1.05449 0.0185045 0)
(1.06531 0.0204772 0)
(1.08205 0.0222658 0)
(1.09969 0.0234565 0)
(1.05952 0.0213199 0)
(0.840049 0.0125828 0)
(0.468583 0.00368727 0)
(0.092493 0.000147924 0)
(0.10101 -3.63476e-05 0)
(0.680092 -0.0036715 0)
(0.987661 -0.00955422 0)
(1.10907 -0.0124989 0)
(1.10947 -0.010947 0)
(1.08871 -0.00772566 0)
(1.07351 -0.00402138 0)
(1.0627 0.000168929 0)
(1.05483 0.00478237 0)
(1.04965 0.0097129 0)
(1.04816 0.0141353 0)
(1.05064 0.0174105 0)
(1.05701 0.0197115 0)
(1.06775 0.0213426 0)
(1.08456 0.0228611 0)
(1.09913 0.023642 0)
(1.04518 0.0207662 0)
(0.811633 0.0118534 0)
(0.447286 0.003479 0)
(0.0877258 0.000143873 0)
(0.0995798 -1.35904e-05 0)
(0.666503 -0.00266528 0)
(0.974898 -0.00748394 0)
(1.10827 -0.0101851 0)
(1.1145 -0.00867696 0)
(1.0941 -0.00537559 0)
(1.07852 -0.00153693 0)
(1.06733 0.00276345 0)
(1.05901 0.00742081 0)
(1.05324 0.012276 0)
(1.05112 0.0164666 0)
(1.05309 0.0194214 0)
(1.05914 0.0213776 0)
(1.06978 0.0226498 0)
(1.08662 0.0239053 0)
(1.09735 0.0242325 0)
(1.02933 0.0205499 0)
(0.784005 0.0114434 0)
(0.427085 0.00337864 0)
(0.0831185 0.000143924 0)
(0.0988522 1.07101e-05 0)
(0.656242 -0.00168875 0)
(0.964235 -0.00541723 0)
(1.10762 -0.00770164 0)
(1.1196 -0.0061523 0)
(1.09971 -0.00272786 0)
(1.08371 0.00131125 0)
(1.07208 0.00578791 0)
(1.06321 0.0105542 0)
(1.05673 0.0153835 0)
(1.05384 0.0193647 0)
(1.05518 0.0219947 0)
(1.06085 0.0235853 0)
(1.07137 0.0244711 0)
(1.08814 0.0254327 0)
(1.0943 0.0252553 0)
(1.01195 0.0207114 0)
(0.756716 0.0113267 0)
(0.407406 0.00337327 0)
(0.0785382 0.000147837 0)
(0.0988477 3.28457e-05 0)
(0.649281 -0.000695468 0)
(0.955976 -0.00328312 0)
(1.10745 -0.0049758 0)
(1.12491 -0.00327394 0)
(1.10564 0.000341375 0)
(1.08918 0.00465089 0)
(1.07701 0.00937152 0)
(1.06747 0.0143111 0)
(1.06013 0.0191557 0)
(1.05632 0.022932 0)
(1.05691 0.0252195 0)
(1.06212 0.0264178 0)
(1.07249 0.0268983 0)
(1.08892 0.0274993 0)
(1.08975 0.0267503 0)
(0.99292 0.0212741 0)
(0.729257 0.0114848 0)
(0.387731 0.00345355 0)
(0.0738635 0.000155139 0)
(0.0996014 7.02968e-05 0)
(0.645695 0.000325802 0)
(0.950438 -0.00100527 0)
(1.10812 -0.00192622 0)
(1.13065 4.13783e-05 0)
(1.11201 0.00392087 0)
(1.09503 0.00858376 0)
(1.08221 0.0136369 0)
(1.07185 0.0188238 0)
(1.06346 0.0237315 0)
(1.05855 0.027311 0)
(1.05826 0.0292302 0)
(1.0629 0.0300079 0)
(1.07309 0.0300556 0)
(1.08882 0.0302361 0)
(1.08355 0.0287673 0)
(0.971992 0.0222681 0)
(0.701078 0.0119075 0)
(0.367573 0.00361228 0)
(0.0689859 0.000165342 0)
(0.101321 9.87548e-05 0)
(0.645867 0.00148598 0)
(0.947966 0.00150082 0)
(1.11006 0.00155872 0)
(1.137 0.00389894 0)
(1.11893 0.00816742 0)
(1.10136 0.0132826 0)
(1.08777 0.0187598 0)
(1.07639 0.0242665 0)
(1.06673 0.0292786 0)
(1.0605 0.032658 0)
(1.05916 0.0341552 0)
(1.06315 0.034478 0)
(1.07308 0.034058 0)
(1.08761 0.0337529 0)
(1.0754 0.0313999 0)
(0.948827 0.0237194 0)
(0.671588 0.0125905 0)
(0.346475 0.00384378 0)
(0.0638086 0.00017799 0)
(0.104065 0.000145995 0)
(0.650168 0.00291528 0)
(0.949062 0.00438501 0)
(1.11376 0.0055887 0)
(1.1442 0.00847717 0)
(1.12657 0.0132857 0)
(1.10832 0.0189663 0)
(1.09377 0.0249677 0)
(1.08115 0.0308686 0)
(1.06994 0.0360007 0)
(1.06212 0.039132 0)
(1.05956 0.0401402 0)
(1.06277 0.0399716 0)
(1.07241 0.0390204 0)
(1.0851 0.0381729 0)
(1.06497 0.0347458 0)
(0.922959 0.0256828 0)
(0.640153 0.0135357 0)
(0.323996 0.0041442 0)
(0.0582457 0.000192539 0)
(0.108111 0.000207856 0)
(0.659151 0.00459438 0)
(0.954178 0.00779938 0)
(1.11973 0.0103412 0)
(1.15253 0.013966 0)
(1.13514 0.0194779 0)
(1.11605 0.0258599 0)
(1.10032 0.0325105 0)
(1.08617 0.038882 0)
(1.07309 0.044145 0)
(1.06339 0.0469731 0)
(1.05941 0.0474184 0)
(1.06167 0.0466655 0)
(1.07097 0.0451025 0)
(1.08132 0.043656 0)
(1.05182 0.03891 0)
(0.893782 0.0281784 0)
(0.606075 0.0147305 0)
(0.299706 0.00450238 0)
(0.0522252 0.000207917 0)
(0.113793 0.000291364 0)
(0.673525 0.00668065 0)
(0.963964 0.0119443 0)
(1.12851 0.0160617 0)
(1.16232 0.0206352 0)
(1.14487 0.0270717 0)
(1.12473 0.0343264 0)
(1.10751 0.0417507 0)
(1.09146 0.0486411 0)
(1.07611 0.0539899 0)
(1.06421 0.0563919 0)
(1.05856 0.0561486 0)
(1.05978 0.054736 0)
(1.06862 0.0525258 0)
(1.07605 0.0503238 0)
(1.03541 0.0439836 0)
(0.860571 0.0312277 0)
(0.568634 0.0161505 0)
(0.273229 0.00490144 0)
(0.0457046 0.000222684 0)
(0.121619 0.000411347 0)
(0.694233 0.00941049 0)
(0.979298 0.0171214 0)
(1.14078 0.0230978 0)
(1.17405 0.0288998 0)
(1.15609 0.0365599 0)
(1.13456 0.0448636 0)
(1.11542 0.0531567 0)
(1.09698 0.0605536 0)
(1.07889 0.0658518 0)
(1.06444 0.0676317 0)
(1.05687 0.0665218 0)
(1.05697 0.0643451 0)
(1.06534 0.0613836 0)
(1.06899 0.0583129 0)
(1.01501 0.0500362 0)
(0.822462 0.03481 0)
(0.527107 0.017741 0)
(0.244276 0.00531245 0)
(0.0386815 0.000234711 0)
(0.132299 0.000580833 0)
(0.722561 0.0131602 0)
(1.00134 0.0238121 0)
(1.15734 0.031991 0)
(1.18834 0.0393366 0)
(1.1691 0.0485712 0)
(1.14566 0.0581072 0)
(1.12402 0.0673223 0)
(1.1026 0.0751076 0)
(1.08125 0.0801006 0)
(1.0639 0.0809687 0)
(1.05423 0.0787734 0)
(1.0531 0.0756332 0)
(1.06085 0.071779 0)
(1.05953 0.0676553 0)
(0.98972 0.0570815 0)
(0.7785 0.0388483 0)
(0.480855 0.0194068 0)
(0.212725 0.00569292 0)
(0.031215 0.000241393 0)
(0.147113 0.000857648 0)
(0.760537 0.018538 0)
(1.03173 0.0328035 0)
(1.17909 0.0436918 0)
(1.20591 0.05303 0)
(1.18425 0.064144 0)
(1.15812 0.0750196 0)
(1.13318 0.085025 0)
(1.10808 0.0928659 0)
(1.08293 0.0971038 0)
(1.06235 0.0966413 0)
(1.05046 0.0930753 0)
(1.04805 0.0888019 0)
(1.05475 0.0839854 0)
(1.04697 0.0785326 0)
(0.958388 0.0650339 0)
(0.727706 0.0431791 0)
(0.429464 0.0209973 0)
(0.178734 0.00598426 0)
(0.0234469 0.000239609 0)
(0.168246 0.0013332 0)
(0.811416 0.0267107 0)
(1.07303 0.0456511 0)
(1.20717 0.0600328 0)
(1.22739 0.0721119 0)
(1.20162 0.0849326 0)
(1.17165 0.0969404 0)
(1.14244 0.107214 0)
(1.11293 0.114431 0)
(1.08349 0.117188 0)
(1.05947 0.114795 0)
(1.04533 0.10949 0)
(1.04165 0.103906 0)
(1.04695 0.0981267 0)
(1.03045 0.0907703 0)
(0.919599 0.0736193 0)
(0.669299 0.0475051 0)
(0.373055 0.0223064 0)
(0.142921 0.00611528 0)
(0.0156297 0.000225547 0)
(0.199079 0.0023886 0)
(0.880904 0.0403784 0)
(1.12892 0.0661958 0)
(1.24205 0.0845794 0)
(1.25255 0.0992665 0)
(1.22058 0.113233 0)
(1.18545 0.125419 0)
(1.15101 0.134852 0)
(1.11644 0.140345 0)
(1.08239 0.140627 0)
(1.05489 0.135547 0)
(1.0386 0.128041 0)
(1.03378 0.120908 0)
(1.03714 0.114018 0)
(1.00867 0.104204 0)
(0.871715 0.0823318 0)
(0.603138 0.0513764 0)
(0.312994 0.023156 0)
(0.106841 0.00605823 0)
(0.00824726 0.000196987 0)
(0.241105 0.00861093 3.48376e-20)
(0.973114 0.0676358 3.06353e-20)
(1.19717 0.100591 -1.08371e-20)
(1.28063 0.12096 0)
(1.2786 0.138041 -2.90157e-34)
(1.23904 0.151345 4.27671e-21)
(1.19796 0.16198 -7.90613e-21)
(1.15777 0.16918 0)
(1.1178 0.171871 1.66692e-34)
(1.07886 0.168869 -1.01814e-20)
(1.04764 0.160614 0)
(1.02898 0.150707 -1.2262e-20)
(1.02306 0.142079 -3.62837e-20)
(1.02404 0.134748 -1.71856e-20)
(0.978217 0.121508 -5.18943e-21)
(0.809245 0.0929677 -3.08794e-21)
(0.523803 0.0553763 0)
(0.24744 0.023922 2.16124e-21)
(0.0706364 0.00613913 2.55169e-21)
(0.00133747 0.000192308 4.59536e-20)
(0.270587 0.024041 2.25132e-20)
(1.04921 0.110207 5.32959e-22)
(1.25347 0.149601 2.7556e-21)
(1.315 0.17016 0)
(1.3014 0.187084 -1.43153e-20)
(1.25481 0.198195 -1.65282e-20)
(1.20782 0.206498 -7.87922e-21)
(1.16175 0.211177 -2.87077e-20)
(1.11609 0.211029 0)
(1.07175 0.204802 4.33203e-20)
(1.03618 0.193445 4.32949e-20)
(1.01477 0.181121 1.29388e-20)
(1.00677 0.17051 4.75013e-20)
(1.00042 0.160688 6.70839e-20)
(0.931104 0.142399 0)
(0.726027 0.105048 9.48211e-20)
(0.431301 0.0596821 1.36048e-19)
(0.179367 0.0242627 1.51101e-19)
(0.035033 0.00513053 -1.72735e-19)
(-0.00553668 -0.000445829 -3.2513e-21)
(0.271656 0.0398036 0)
(1.09725 0.165395 3.27032e-21)
(1.29124 0.2099 0)
(1.34162 0.229936 -1.6676e-20)
(1.31919 0.243823 0)
(1.26668 0.251085 -3.17006e-20)
(1.21414 0.255658 1.59315e-20)
(1.1625 0.256742 -5.70872e-20)
(1.11142 0.252927 -1.57478e-21)
(1.06191 0.242889 2.2309e-20)
(1.02216 0.228069 9.56382e-20)
(0.997969 0.213121 -2.49848e-22)
(0.987551 0.200491 -3.46131e-20)
(0.974197 0.18804 -6.34338e-20)
(0.88867 0.16406 7.51835e-20)
(0.667808 0.11733 -1.33232e-19)
(0.379492 0.0642291 -1.76205e-20)
(0.146749 0.0247652 0)
(0.0192679 0.0037241 -9.07672e-24)
(-0.00868622 -0.00124311 0)
(0.26534 0.0534577 2.41592e-20)
(1.12312 0.223891 -1.46274e-20)
(1.31443 0.27466 -1.49822e-20)
(1.35918 0.294886 7.39396e-21)
(1.3306 0.304901 -1.27152e-20)
(1.27363 0.307658 6.60557e-20)
(1.21652 0.307833 3.30684e-20)
(1.16007 0.3047 0)
(1.10412 0.2967 -1.10206e-19)
(1.04982 0.282435 0)
(1.00611 0.263841 -5.00994e-20)
(0.979221 0.246098 -6.25336e-20)
(0.966404 0.231276 -3.78128e-20)
(0.947549 0.215869 -4.62014e-20)
(0.853391 0.186449 0)
(0.630488 0.131772 0)
(0.353841 0.0718103 -1.14906e-19)
(0.13355 0.0269438 2.27382e-20)
(0.0125879 0.00266655 -1.32899e-20)
(-0.0105556 -0.00210721 -1.55493e-20)
(0.257826 0.0655376 4.23178e-21)
(1.13445 0.282245 0)
(1.32709 0.340352 2.34832e-20)
(1.36864 0.361241 1.91529e-20)
(1.33572 0.367456 3.06367e-20)
(1.2755 0.365694 0)
(1.21478 0.361381 3.16109e-20)
(1.15434 0.353862 6.27865e-20)
(1.09417 0.341479 5.60192e-20)
(1.03558 0.32279 1.05767e-19)
(0.988188 0.300312 0)
(0.958669 0.279692 -1.35149e-19)
(0.943459 0.262568 -8.18922e-20)
(0.920549 0.244381 -4.85341e-20)
(0.823608 0.209953 2.99058e-19)
(0.606767 0.14836 3.56195e-20)
(0.343491 0.0821615 1.67178e-19)
(0.133195 0.0311606 -7.92025e-19)
(0.0129844 0.00265632 4.68434e-19)
(-0.011024 -0.00276474 -5.64577e-19)
(0.25062 0.076449 1.94407e-20)
(1.1365 0.338614 -1.27231e-21)
(1.3321 0.405067 -7.59921e-22)
(1.37157 0.427111 -1.37042e-20)
(1.33551 0.42976 -2.25393e-20)
(1.27286 0.423673 1.80109e-21)
(1.20929 0.415037 -3.44026e-20)
(1.14556 0.40321 6.44977e-20)
(1.08178 0.386482 -1.20813e-19)
(1.01938 0.363383 0)
(0.968606 0.336983 -6.09369e-20)
(0.936528 0.31338 -1.61649e-21)
(0.918996 0.29397 -8.99475e-20)
(0.893153 0.273079 0)
(0.797105 0.234273 -6.49958e-20)
(0.590366 0.166986 -1.54561e-19)
(0.341713 0.094865 4.11798e-19)
(0.139226 0.037474 -4.05982e-19)
(0.0183997 0.00428278 5.76655e-19)
(-0.010018 -0.00301656 -5.99174e-19)
(0.244564 0.0865404 -4.12301e-22)
(1.13278 0.392348 5.75561e-21)
(1.33161 0.467819 7.21275e-21)
(1.3694 0.491293 2.81315e-21)
(1.33103 0.490773 -1.08625e-20)
(1.26654 0.480654 0)
(1.20068 0.467953 -3.06611e-20)
(1.13419 0.452024 -6.72429e-20)
(1.06728 0.431118 -6.24726e-20)
(1.00145 0.403716 0)
(0.94755 0.373396 -6.30453e-20)
(0.913056 0.346842 -7.90273e-20)
(0.893375 0.325254 9.78643e-20)
(0.865312 0.301828 -5.97368e-20)
(0.772035 0.259065 -2.8533e-19)
(0.576664 0.187039 1.69721e-19)
(0.34301 0.108953 5.05028e-20)
(0.147839 0.0454705 0)
(0.0262834 0.00738227 -5.60004e-19)
(-0.00812502 -0.00285945 -2.05623e-20)
(0.23976 0.0961232 5.99616e-21)
(1.12562 0.443258 -8.92501e-21)
(1.32711 0.528133 -5.17751e-21)
(1.36337 0.553084 1.41033e-20)
(1.32322 0.549829 -3.49805e-20)
(1.25734 0.53605 5.49987e-20)
(1.1896 0.519586 6.62744e-20)
(1.12077 0.499825 -1.07408e-19)
(1.0511 0.474976 3.96574e-20)
(0.982171 0.443434 -2.60824e-19)
(0.925376 0.409336 -7.19182e-20)
(0.888641 0.379999 0)
(0.866967 0.35629 1.06464e-19)
(0.837155 0.330388 1.28195e-19)
(0.746933 0.283999 1.53965e-19)
(0.562911 0.207725 -1.85138e-19)
(0.343369 0.123883 -5.48639e-20)
(0.156029 0.0548395 6.43545e-20)
(0.0346599 0.0115614 0)
(-0.00582768 -0.00234322 -4.48073e-20)
(0.23612 0.105358 -8.6748e-20)
(1.11662 0.49145 4.96916e-20)
(1.31989 0.58594 7.20267e-21)
(1.3545 0.612157 4.81325e-21)
(1.31288 0.606529 -1.25958e-20)
(1.24594 0.589454 -4.07703e-21)
(1.17667 0.569575 -7.30306e-20)
(1.10584 0.546301 -3.90303e-20)
(1.0337 0.517774 -1.08967e-19)
(0.961908 0.482321 3.09624e-22)
(0.902425 0.444647 -2.24658e-19)
(0.863615 0.41262 1.92309e-19)
(0.840089 0.386713 -1.17521e-19)
(0.808826 0.358431 1.41992e-19)
(0.720988 0.308622 0)
(0.54775 0.228408 -1.00901e-19)
(0.340959 0.139086 7.87378e-23)
(0.161887 0.064712 -2.81937e-19)
(0.0419277 0.0162949 -4.13586e-20)
(-0.00352151 -0.00159516 0)
(0.233506 0.114392 0)
(1.10671 0.537146 5.65966e-20)
(1.31076 0.641297 2.68692e-20)
(1.34359 0.668371 -4.26843e-22)
(1.3007 0.660657 -2.00864e-20)
(1.23292 0.640637 0)
(1.16239 0.617691 -3.11813e-20)
(1.08982 0.591234 -1.06181e-21)
(1.01544 0.559333 2.33781e-19)
(0.94099 0.52023 -3.56174e-20)
(0.878977 0.479123 -1.6257e-19)
(0.838211 0.444318 9.96678e-20)
(0.812992 0.416178 -2.22121e-21)
(0.780401 0.385492 1.50996e-19)
(0.694518 0.332119 9.37042e-20)
(0.530777 0.247743 -2.18312e-19)
(0.335222 0.153561 2.5863e-19)
(0.164167 0.0740334 7.66402e-20)
(0.0468332 0.0207822 3.15766e-19)
(-0.00164742 -0.000830026 -8.43201e-19)
(0.231868 0.12335 -2.76622e-20)
(1.09657 0.580534 3.82394e-20)
(1.30044 0.693715 -2.65653e-20)
(1.33124 0.721688 -7.65053e-21)
(1.28724 0.712104 0)
(1.2188 0.689464 -2.08278e-20)
(1.14722 0.663799 1.06941e-19)
(1.07311 0.634494 8.47517e-20)
(0.996678 0.599533 0)
(0.919695 0.557056 -5.16295e-19)
(0.855223 0.512577 4.40705e-19)
(0.81258 0.474927 0)
(0.785869 0.444609 1.37812e-19)
(0.751977 0.411379 -2.23187e-21)
(0.6674 0.354102 -2.99789e-19)
(0.511621 0.265235 1.17314e-19)
(0.326268 0.166398 0)
(0.162555 0.0819609 4.13765e-19)
(0.0488968 0.0243685 0)
(-0.000407198 -0.000221062 -3.99781e-19)
(0.231023 0.13232 3.28875e-20)
(1.08663 0.621778 4.87748e-20)
(1.28926 0.743304 -2.66176e-20)
(1.31793 0.772095 0)
(1.27295 0.760847 -1.07227e-20)
(1.20398 0.735895 0)
(1.13152 0.707829 -1.02054e-19)
(1.05603 0.676003 -3.7803e-20)
(0.977691 0.63831 4.05866e-20)
(0.898258 0.592733 -2.55542e-19)
(0.83131 0.544956 4.52862e-20)
(0.786848 0.504525 0)
(0.758759 0.472006 -2.94309e-19)
(0.723465 0.435877 2.19918e-21)
(0.639654 0.374163 0)
(0.490421 0.280403 1.42309e-21)
(0.314101 0.17686 3.7887e-19)
(0.157655 0.0877582 -3.5788e-19)
(0.048295 0.0265907 1.05518e-19)
(0.000156542 0.000109858 0)
(0.230661 0.141169 0)
(1.0772 0.660964 5.82807e-20)
(1.27754 0.790209 3.77005e-20)
(1.30408 0.819659 -2.49939e-21)
(1.2582 0.806914 1.4488e-21)
(1.18881 0.779927 -4.63384e-20)
(1.11561 0.749763 3.9167e-20)
(1.03888 0.715727 -4.59777e-20)
(0.958733 0.675624 1.82943e-19)
(0.876872 0.627235 -4.08419e-19)
(0.807387 0.576323 -3.90544e-21)
(0.761097 0.533229 -1.27915e-19)
(0.731621 0.49826 4.78284e-19)
(0.69481 0.458623 -2.59096e-21)
(0.611305 0.391906 -2.33124e-19)
(0.467315 0.29279 -4.15918e-19)
(0.299214 0.184647 0)
(0.149784 0.0912632 0)
(0.0456814 0.0273886 1.13887e-19)
(0.000165484 0.000121902 -6.69026e-20)
(0.230939 0.150028 4.55858e-20)
(1.06826 0.697961 -1.32064e-19)
(1.26558 0.834505 -4.04971e-20)
(1.28999 0.864474 0)
(1.24326 0.850365 -1.52604e-21)
(1.17355 0.821591 -3.60755e-20)
(1.09973 0.789607 9.03809e-20)
(1.02187 0.753657 1.7676e-19)
(0.940014 0.71147 2.36401e-19)
(0.85573 0.660577 -3.32702e-19)
(0.783611 0.606793 -3.79195e-19)
(0.735368 0.561071 3.42162e-19)
(0.704362 0.523182 0)
(0.66591 0.479402 -1.05844e-19)
(0.582274 0.407057 -2.52366e-19)
(0.442481 0.302253 -2.99029e-19)
(0.282001 0.189486 -3.53771e-19)
(0.139378 0.0923014 1.04538e-19)
(0.0413911 0.0268933 -6.13844e-20)
(-0.000182361 -7.15487e-05 2.8557e-22)
(0.231342 0.15882 0)
(1.06 0.733288 0)
(1.25359 0.876297 2.51483e-21)
(1.27585 0.906652 0)
(1.22836 0.891291 -1.918e-20)
(1.15842 0.860949 1.90284e-20)
(1.08408 0.82739 0)
(1.0052 0.789804 2.01842e-20)
(0.92172 0.745848 3.92454e-19)
(0.83501 0.692794 -7.655e-19)
(0.760121 0.63646 0)
(0.709693 0.588017 -2.20314e-19)
(0.676917 0.546669 -3.0576e-21)
(0.636703 0.498157 -2.40711e-21)
(0.552621 0.41948 2.69848e-19)
(0.416479 0.308671 -1.75324e-22)
(0.262849 0.191298 -7.62219e-19)
(0.127036 0.0909535 2.24929e-19)
(0.0358622 0.0251618 6.64786e-20)
(-0.000731193 -0.000449261 0)
(0.231831 0.167468 -1.80623e-19)
(1.05216 0.766953 -8.82618e-20)
(1.24165 0.915664 -1.17101e-19)
(1.26183 0.946311 1.21006e-19)
(1.21368 0.929768 -4.96931e-20)
(1.14358 0.898064 0)
(1.06881 0.863156 5.12534e-20)
(0.98902 0.824193 -4.56517e-20)
(0.903998 0.778776 3.8919e-21)
(0.814876 0.723934 5.67195e-20)
(0.737051 0.665378 4.90494e-19)
(0.684103 0.614072 -7.71404e-20)
(0.649242 0.568827 -2.95009e-19)
(0.607045 0.514878 -1.23492e-19)
(0.52234 0.428892 1.46761e-19)
(0.389822 0.311788 1.34972e-23)
(0.242396 0.189975 2.05366e-19)
(0.113609 0.0873462 -4.84011e-19)
(0.0298897 0.0224902 5.72119e-19)
(-0.00138951 -0.000936963 8.34039e-20)
(0.232216 0.175853 6.84783e-20)
(1.04473 0.799059 -4.96477e-20)
(1.22991 0.952706 6.22983e-21)
(1.24806 0.983565 7.64829e-20)
(1.19935 0.96591 1.73863e-20)
(1.12916 0.933012 -2.75494e-20)
(1.05406 0.896955 1.28538e-20)
(0.973444 0.856846 -1.88701e-19)
(0.886974 0.810256 -4.29133e-19)
(0.795463 0.754012 -4.54655e-19)
(0.714534 0.693579 0)
(0.658647 0.639342 -3.39837e-19)
(0.621282 0.589924 4.25707e-19)
(0.576661 0.529515 0)
(0.491335 0.434907 -3.14312e-19)
(0.362923 0.311192 1.87434e-19)
(0.221833 0.185303 -2.20803e-19)
(0.100395 0.0818352 -2.60463e-19)
(0.0241757 0.0192953 -4.60807e-19)
(-0.00202688 -0.00144861 -3.59283e-19)
(0.232938 0.184106 -7.72761e-20)
(1.03757 0.829589 5.31177e-20)
(1.21841 0.987493 1.21863e-19)
(1.23463 1.01848 1.11023e-19)
(1.18545 0.999811 -3.30498e-20)
(1.11524 0.965878 -7.66304e-21)
(1.03989 0.928838 4.43826e-20)
(0.958559 0.887805 -1.91184e-19)
(0.870735 0.840312 -2.53311e-19)
(0.776892 0.783049 4.74202e-19)
(0.692686 0.721084 1.07629e-18)
(0.633414 0.664039 0)
(0.592968 0.610293 0)
(0.545165 0.542047 -1.42254e-19)
(0.459274 0.437182 0)
(0.33591 0.306097 4.03023e-19)
(0.202376 0.176508 4.74839e-19)
(0.0893489 0.0744434 0)
(0.0199642 0.0160141 0)
(-0.00250256 -0.00187594 3.86062e-19)
(0.233317 0.191926 8.77672e-20)
(1.03071 0.858532 7.10381e-20)
(1.20722 1.02015 8.85363e-20)
(1.22161 1.05118 -1.06263e-19)
(1.17206 1.03158 -4.25816e-20)
(1.10188 0.996739 -2.38093e-21)
(1.02637 0.958867 -5.91302e-20)
(0.944427 0.9171 -3.60739e-22)
(0.855359 0.868954 -5.05503e-21)
(0.759254 0.81104 -4.86576e-21)
(0.671643 0.747922 5.54051e-19)
(0.608535 0.688416 0)
(0.564258 0.630249 4.31549e-19)
(0.512161 0.552589 3.03435e-19)
(0.425475 0.435693 7.34251e-19)
(0.308202 0.295333 2.17124e-19)
(0.185237 0.161186 -2.55642e-19)
(0.0844353 0.0625801 -1.50092e-19)
(0.0227737 0.0117104 0)
(-0.000927535 -0.00141166 4.14861e-19)
(0.234001 0.199757 -1.97715e-19)
(1.02411 0.885992 0)
(1.19633 1.05072 1.03892e-19)
(1.20903 1.08175 -8.9919e-20)
(1.15923 1.06131 5.67308e-20)
(1.08913 1.02568 2.06818e-20)
(1.01354 0.9871 1.04916e-19)
(0.931085 0.944767 -1.63749e-20)
(0.840886 0.896192 0)
(0.742621 0.837954 -5.20034e-19)
(0.651539 0.774113 -1.2017e-18)
(0.584176 0.712708 4.99228e-20)
(0.535201 0.650042 5.95545e-19)
(0.477425 0.561514 0)
(0.38889 0.431105 4.95825e-19)
(0.27755 0.278022 0)
(0.168788 0.134117 0)
(0.0898424 0.0328182 -1.62389e-19)
(0.0532216 -0.00456773 0)
(0.0281065 0.0114418 1.11155e-19)
(0.234314 0.206995 -2.20886e-19)
(1.01773 0.912288 0)
(1.18574 1.07942 1.72674e-19)
(1.19683 1.11045 0)
(1.1469 1.08927 -3.41043e-20)
(1.07693 1.05299 0)
(1.00135 1.01385 3.53722e-21)
(0.918437 0.971145 2.57823e-20)
(0.827197 0.922389 3.16269e-20)
(0.726826 0.864171 -5.682e-19)
(0.63219 0.800118 3.57513e-20)
(0.560108 0.737609 4.03206e-19)
(0.505379 0.67035 5.8104e-19)
(0.44015 0.569488 7.87947e-20)
(0.347625 0.425053 3.8893e-19)
(0.239171 0.255189 0)
(0.141051 0.0913281 5.39544e-19)
(0.0760607 -0.0153318 -3.15658e-19)
(0.0430962 0.0449457 3.6596e-19)
(-0.0690645 0.436194 -4.31153e-19)
(0.234613 0.21404 1.82923e-19)
(1.01132 0.937201 2.82628e-19)
(1.17536 1.10657 0)
(1.18489 1.1377 5.02837e-21)
(1.1349 1.11603 9.99298e-20)
(1.065 1.07934 -7.63203e-20)
(0.989481 1.03991 3.04607e-20)
(0.90607 0.997168 0)
(0.813758 0.948631 2.05015e-19)
(0.711197 0.890991 -2.91423e-20)
(0.612687 0.827453 0)
(0.535082 0.764847 0)
(0.472877 0.692611 5.20272e-19)
(0.398137 0.577258 -2.44092e-19)
(0.298503 0.419649 -3.94172e-19)
(0.188172 0.230455 0)
(0.0822059 0.0956561 2.72139e-19)
(0.00419162 0.439524 -3.14385e-19)
(0.0335361 1.88956 -1.71087e-19)
(0.0628686 2.81132 -2.19491e-19)
(0.234727 0.220253 -1.37386e-19)
(1.00506 0.960918 -3.62547e-19)
(1.1652 1.13214 1.0252e-19)
(1.17318 1.16338 8.64899e-20)
(1.12323 1.14136 0)
(1.05343 1.10446 -6.43196e-20)
(0.978122 1.06498 3.26647e-20)
(0.894176 1.02241 -1.19443e-20)
(0.800837 0.974403 3.07458e-20)
(0.696113 0.917799 5.37867e-19)
(0.593633 0.855519 6.0401e-19)
(0.510004 0.793975 4.49976e-19)
(0.438544 0.716679 5.23103e-19)
(0.35313 0.583978 -5.73224e-19)
(0.247122 0.418527 -5.95124e-19)
(0.125887 0.270116 0)
(0.0442935 0.828841 0)
(0.101506 2.55035 1.49454e-19)
(0.102568 3.2012 0)
(0.105713 3.38814 3.54396e-19)
(0.237398 0.225939 0)
(0.999538 0.983638 0)
(1.15504 1.15598 0)
(1.16149 1.18733 2.58953e-20)
(1.11158 1.16502 9.14222e-20)
(1.042 1.1282 -6.02698e-20)
(0.967169 1.08894 1.74908e-20)
(0.882714 1.04676 -1.13334e-20)
(0.788402 0.999574 2.49785e-19)
(0.681605 0.94446 -9.23829e-21)
(0.57519 0.884275 1.18824e-18)
(0.485161 0.824716 -5.20781e-20)
(0.4026 0.743469 6.3071e-20)
(0.307889 0.587631 8.29564e-20)
(0.184104 0.431837 -4.8363e-21)
(0.100648 0.960835 1.83638e-21)
(0.140716 2.71978 -7.89903e-19)
(0.148929 3.2924 -2.95536e-19)
(0.137763 3.42594 1.51141e-19)
(0.125073 3.4482 -1.67257e-19)
(0.155641 0.182775 8.11955e-20)
(0.988765 1.00813 0)
(1.14453 1.1783 -2.05114e-19)
(1.15035 1.21003 -2.33153e-19)
(1.1008 1.18782 2.11789e-19)
(1.03162 1.15126 6.83599e-20)
(0.956588 1.11187 -1.30784e-20)
(0.871796 1.07036 1.11408e-19)
(0.776621 1.02432 -2.01078e-19)
(0.667962 0.971154 0)
(0.557766 0.913966 5.80059e-19)
(0.461086 0.856797 -3.65545e-19)
(0.366187 0.775695 0)
(0.256366 0.59024 7.70302e-20)
(0.146465 0.755055 1.85084e-19)
(0.156388 2.4912 -2.15383e-19)
(0.213627 3.32284 2.41049e-19)
(0.193507 3.439 1.28378e-19)
(0.160939 3.46066 1.43809e-19)
(0.139088 3.471 2.24838e-19)
(0.280647 0.264545 -1.4849e-19)
(0.973742 1.01821 0)
(1.12659 1.20384 2.22463e-19)
(1.13584 1.24081 2.54457e-19)
(1.08366 1.22094 -2.327e-19)
(1.01376 1.18478 -9.17987e-20)
(0.9378 1.14701 -1.20528e-20)
(0.852511 1.10675 8.93552e-21)
(0.756059 1.06291 1.84942e-19)
(0.644701 1.01361 4.52341e-19)
(0.52944 0.963236 3.21831e-20)
(0.422419 0.911371 3.22596e-19)
(0.300289 0.815081 5.8598e-20)
(0.213872 0.931622 -7.53409e-20)
(0.230397 2.33997 -1.71185e-19)
(0.291914 3.32541 1.60521e-19)
(0.274957 3.46827 -1.7531e-19)
(0.239404 3.4902 -1.0082e-19)
(0.202166 3.51795 -8.01465e-20)
(0.150624 3.51203 -9.53034e-21)
(0.268612 0.261487 0)
(0.971549 1.04104 6.37887e-20)
(1.11843 1.22741 -4.57364e-20)
(1.1254 1.2645 -3.01395e-20)
(1.07301 1.24419 -1.60107e-19)
(1.00308 1.20826 9.3995e-20)
(0.92681 1.17064 1.59744e-20)
(0.841338 1.13121 7.55543e-21)
(0.744392 1.08885 -1.88556e-19)
(0.631796 1.04238 -1.39002e-20)
(0.513892 0.997176 -1.03524e-18)
(0.401969 0.949136 4.60896e-20)
(0.284001 0.880618 -5.49413e-20)
(0.255673 1.47907 -6.90796e-20)
(0.331259 3.09756 1.80391e-20)
(0.351026 3.46594 4.32182e-22)
(0.31057 3.52245 2.37846e-19)
(0.27311 3.54911 1.10455e-19)
(0.224323 3.5727 -1.63659e-20)
(0.165257 3.56879 -3.94786e-20)
(0.252382 0.259974 1.61293e-19)
(0.967787 1.06656 4.3508e-19)
(1.10986 1.25308 -1.31276e-19)
(1.11438 1.2896 -1.14033e-19)
(1.06174 1.26879 0)
(0.991973 1.23292 1.62086e-19)
(0.915693 1.19555 3.82765e-20)
(0.830315 1.15691 6.0631e-21)
(0.733187 1.11613 -2.12418e-20)
(0.619875 1.07275 -3.96636e-19)
(0.50014 1.03304 -4.717e-19)
(0.384974 0.988034 -3.72659e-19)
(0.285441 1.00831 -4.1329e-19)
(0.325248 2.19385 4.28484e-19)
(0.418271 3.37467 3.50032e-19)
(0.395519 3.52379 0)
(0.34981 3.569 0)
(0.311647 3.61007 -1.08363e-20)
(0.26057 3.67052 0)
(0.177633 3.64674 2.30808e-21)
(0.24168 0.261915 -2.41391e-19)
(0.962066 1.09319 -3.69123e-19)
(1.09986 1.27997 0)
(1.10201 1.31545 6.02618e-21)
(1.04922 1.29401 -1.70894e-19)
(0.979745 1.25806 2.58421e-19)
(0.903792 1.22099 3.34986e-20)
(0.81871 1.18304 1.19137e-21)
(0.721638 1.14377 -1.22383e-19)