/*--------------------------------*- C++ -*----------------------------------*\
| =========                 |                                                 |
| \\      /  F ield         | OpenFOAM: The Open Source CFD Toolbox           |
|  \\    /   O peration     | Version:  2112                                  |
|   \\  /    A nd           | Website:  www.openfoam.com                      |
|    \\/     M anipulation  |                                                 |
\*---------------------------------------------------------------------------*/
FoamFile
{
    version     2.0;
    format      ascii;
    arch        "LSB;label=32;scalar=64";
    class       surfaceScalarField;
    location    "51.5";
    object      phi;
}
// * * * * * * * * * * * * * * * * * * * * * * * * * * * * * * * * * * * * * //

dimensions      [0 3 -1 0 0 0 0];

oriented        oriented;

internalField   nonuniform List<scalar> 
17370
(
-0.0916071
0.0960097
0.284608
-0.0775954
0.059421
0.36495
-0.043044
0.0316252
0.427587
-0.0223223
0.0162707
0.505303
-0.0116785
0.00880507
0.602276
-0.00659415
0.00510965
0.720542
-0.00387356
0.00299385
0.863786
-0.0022211
0.00164275
1.03603
-0.00111105
0.000689999
1.24292
-0.000279061
-0.000113577
1.49158
0.000501035
-0.000913016
1.4916
0.00131573
-0.00181922
1.24319
0.00236956
-0.00311372
1.03638
0.00397327
-0.00519522
0.864128
0.0066719
-0.00887528
0.721261
0.0117392
-0.0163174
0.603793
0.0223546
-0.0316419
0.508727
0.043044
-0.0594111
0.432535
0.0775893
-0.096004
0.36519
0.0916206
0.19739
-0.12709
0.0880201
0.0390696
-0.364354
0.354027
-0.0714781
0.0818048
-0.446654
0.454252
-0.0791744
0.0715768
-0.521011
0.529107
-0.0637267
0.0556315
-0.612991
0.620758
-0.0482466
0.0404788
-0.727163
0.733683
-0.0338678
0.0273476
-0.86758
0.872431
-0.0221444
0.0172929
-1.03856
1.0419
-0.0135946
0.0102546
-1.24472
1.24712
-0.0077032
0.00529704
-1.49284
1.49485
-0.00333264
0.00131787
-1.49269
1.49451
0.000502753
-0.0023229
-1.24411
1.24602
0.00429589
-0.00620654
-1.03761
1.04009
0.00854211
-0.0110225
-0.866187
0.869818
0.0142833
-0.0179146
-0.724594
0.729751
0.0227038
-0.0278606
-0.609065
0.615635
0.0343362
-0.0409067
-0.515124
0.52246
0.0486272
-0.0559633
-0.43988
0.447659
0.0639867
-0.0717663
-0.374708
0.377355
0.0792644
-0.0819111
-0.256899
0.224438
0.0715612
-0.0391004
-0.068808
0.0591946
0.00961344
-0.0521162
0.0589453
-0.374835
0.368006
-0.0581006
0.054261
-0.453945
0.457784
-0.0487769
0.0442199
-0.527616
0.532173
-0.0396723
0.0357779
-0.620799
0.624694
-0.0315661
0.0275716
-0.734657
0.738651
-0.0232151
0.0193276
-0.873952
0.87784
-0.015282
0.0118247
-1.04336
1.04682
-0.0083052
0.00527254
-1.24865
1.25168
-0.00206424
-0.000917565
-1.49694
1.49993
0.00387826
-0.00702678
-1.49742
1.50057
0.00997229
-0.0133749
-1.25007
1.25347
0.0167147
-0.0206268
-1.04565
1.04956
0.0243967
-0.0286363
-0.877138
0.881377
0.032537
-0.0366572
-0.738983
0.743103
0.0404753
-0.0449479
-0.625971
0.630444
0.0494424
-0.0548659
-0.535017
0.54044
0.0586352
-0.0593962
-0.458077
0.458838
0.0524513
-0.0320637
-0.336765
0.316378
0.00967314
-0.068664
0.0589909
-0.0534047
0.0492922
0.00411251
-0.0332502
0.0436772
-0.358558
0.348131
-0.0473564
0.0467726
-0.459577
0.460161
-0.0438477
0.0406383
-0.53613
0.539339
-0.0369643
0.0336114
-0.628392
0.631745
-0.0299789
0.0267385
-0.74203
0.74527
-0.0232862
0.0200888
-0.881332
0.884529
-0.0164963
0.0131454
-1.05024
1.05359
-0.00944754
0.00604356
-1.25494
1.25835
-0.00225285
-0.00136391
-1.50328
1.50689
0.00494973
-0.00865107
-1.50407
1.50777
0.0119336
-0.0154676
-1.25703
1.26056
0.0186529
-0.0220562
-1.05327
1.05667
0.0250859
-0.0283706
-0.884985
0.88827
0.0314751
-0.0349747
-0.746785
0.750284
0.0382153
-0.041773
-0.634564
0.638122
0.0448818
-0.0476939
-0.544584
0.547396
0.0481611
-0.0443194
-0.456954
0.453113
0.0336926
-0.016379
-0.297061
0.279748
0.00417853
-0.0531412
0.0489627
-0.0461222
0.0435655
0.00255667
-0.023055
0.0334085
-0.337537
0.327184
-0.0391465
0.0400987
-0.459911
0.458959
-0.0388511
0.0365258
-0.541996
0.544321
-0.0338864
0.0313419
-0.634711
0.637256
-0.0283666
0.02552
-0.748353
0.751199
-0.0222834
0.0192708
-0.887582
0.890594
-0.0159216
0.0127896
-1.05677
1.0599
-0.00923546
0.00583738
-1.26174
1.26514
-0.00192858
-0.00186787
-1.51062
1.51442
0.00562475
-0.00941416
-1.51155
1.51534
0.0126523
-0.015993
-1.26402
1.26736
0.0189092
-0.0220121
-1.05987
1.06298
0.024803
-0.0278116
-0.891464
0.894472
0.0304705
-0.0332618
-0.753464
0.756255
0.0356532
-0.038138
-0.641075
0.64356
0.0403311
-0.0414037
-0.549232
0.550305
0.04027
-0.0342671
-0.447989
0.441986
0.0236225
-0.0103744
-0.26456
0.251312
0.00263849
-0.0457191
0.0430806
-0.0414465
0.0396449
0.00180153
-0.016953
0.0262429
-0.317312
0.308023
-0.0328439
0.0349683
-0.457398
0.455273
-0.0345374
0.032841
-0.546351
0.548047
-0.0306155
0.0284888
-0.639565
0.641692
-0.0260518
0.0236737
-0.753796
0.756174
-0.0208591
0.0181134
-0.893448
0.896193
-0.0149311
0.0118993
-1.06294
1.06597
-0.00843758
0.00512498
-1.26846
1.27177
-0.00128818
-0.00245691
-1.51818
1.52193
0.00615172
-0.00983883
-1.51908
1.52277
0.012949
-0.0161398
-1.27064
1.27383
0.018897
-0.0217632
-1.066
1.06887
0.0242214
-0.0267396
-0.897257
0.899776
0.0288745
-0.0310747
-0.758696
0.760896
0.033006
-0.0350324
-0.645785
0.647812
0.0365365
-0.0367297
-0.550886
0.551079
0.034327
-0.0273392
-0.435397
0.428409
0.0176602
-0.00747363
-0.239738
0.229551
0.00190148
-0.0408716
0.0389701
-0.0380944
0.0367416
0.00135281
-0.012955
0.0209592
-0.299379
0.291375
-0.0277328
0.0306596
-0.452718
0.449791
-0.0308702
0.0297478
-0.549485
0.550607
-0.0277499
0.0258243
-0.643748
0.645674
-0.0236136
0.0214737
-0.758414
0.760554
-0.0189677
0.0165016
-0.898738
0.901204
-0.0135845
0.0107323
-1.06886
1.07172
-0.00740665
0.00419446
-1.275
1.27821
-0.000466821
-0.00315911
-1.52559
1.52922
0.00672224
-0.0102624
-1.52638
1.52992
0.0132217
-0.0162077
-1.27695
1.27993
0.0187153
-0.0212365
-1.07158
1.0741
0.0233443
-0.0254791
-0.902088
0.904223
0.0273106
-0.029218
-0.76294
0.764848
0.0308957
-0.032656
-0.64968
0.65144
0.0334976
-0.0329546
-0.550908
0.550365
0.0296299
-0.0223276
-0.421207
0.413905
0.0138251
-0.00577065
-0.220532
0.212478
0.00147463
-0.0373097
0.0358351
-0.0355596
0.0345172
0.00104245
-0.0101313
0.0169113
-0.284008
0.277228
-0.0234367
0.0268282
-0.446613
0.443222
-0.027619
0.0269318
-0.551505
0.552192
-0.0251717
0.0233937
-0.647565
0.649343
-0.0213372
0.0193357
-0.762623
0.764625
-0.0169795
0.0146662
-0.903528
0.905841
-0.0119447
0.00927567
-1.07441
1.07708
-0.00613484
0.00306796
-1.28131
1.28438
0.000516351
-0.00400393
-1.53275
1.53624
0.00741471
-0.0107675
-1.53336
1.53672
0.0135219
-0.0162432
-1.2828
1.28552
0.0184874
-0.0207198
-1.07649
1.07872
0.0225882
-0.0244825
-0.906251
0.908145
0.0261006
-0.0277809
-0.766642
0.768322
0.0292526
-0.030685
-0.65305
0.654483
0.0310201
-0.0297619
-0.549476
0.548217
0.0258221
-0.0186017
-0.406619
0.399398
0.0111968
-0.00464081
-0.205243
0.198687
0.00119079
-0.0345198
0.033329
-0.0336007
0.0327875
0.000813226
-0.00804038
0.0137482
-0.271013
0.265305
-0.0197999
0.0233995
-0.439715
0.436116
-0.0246765
0.0242407
-0.552786
0.553221
-0.0227568
0.0210922
-0.651117
0.652782
-0.0191364
0.017229
-0.766579
0.768486
-0.0149798
0.012768
-0.908038
0.91025
-0.0101614
0.00761163
-1.07961
1.08216
-0.00462222
0.00170239
-1.28731
1.29023
0.00170965
-0.00502501
-1.53961
1.54293
0.00824721
-0.0113765
-1.53995
1.54308
0.0139124
-0.016388
-1.28814
1.29061
0.0184157
-0.02042
-1.08087
1.08288
0.022084
-0.0237648
-0.909954
0.911635
0.025201
-0.0266941
-0.769914
0.771407
0.0279785
-0.0290432
-0.655704
0.656768
0.0290157
-0.027098
-0.546633
0.544715
0.0227689
-0.0158269
-0.392312
0.38537
0.00934315
-0.00385668
-0.192718
0.187231
0.000993644
-0.0322505
0.0312569
-0.0320717
0.0314351
0.000636628
-0.00643182
0.0112239
-0.260083
0.255291
-0.0166946
0.0203067
-0.432508
0.428896
-0.0219201
0.0217191
-0.553578
0.553779
-0.0204782
0.0188822
-0.654466
0.656062
-0.0169905
0.0151398
-0.770362
0.772213
-0.0129571
0.0108117
-0.912352
0.914497
-0.00828465
0.00581636
-1.08459
1.08705
-0.00293145
0.000133167
-1.29304
1.29583
0.00312535
-0.00626873
-1.54612
1.54926
0.00929586
-0.0122065
-1.54608
1.54899
0.0145456
-0.0168099
-1.293
1.29526
0.0186458
-0.0204402
-1.08481
1.08661
0.0219149
-0.0233982
-0.913244
0.914727
0.0246671
-0.025984
-0.772825
0.774142
0.0271189
-0.0277753
-0.657608
0.658264
0.0273861
-0.024921
-0.542537
0.540072
0.0203604
-0.0137684
-0.378614
0.372022
0.0080201
-0.00330478
-0.182171
0.177455
0.000855628
-0.0303443
0.0294886
-0.0308779
0.0303839
0.000493944
-0.00513986
0.00914291
-0.250918
0.246915
-0.0139871
0.0174619
-0.425359
0.421884
-0.0192705
0.0192685
-0.553926
0.553928
-0.0182332
0.0166775
-0.657709
0.659264
-0.0148153
0.0129864
-0.774046
0.775875
-0.0108311
0.00871962
-0.916538
0.91865
-0.00624319
0.0038347
-1.0894
1.09181
-0.00102899
-0.0016785
-1.29852
1.30123
0.00480239
-0.00778631
-1.55228
1.55527
0.0106293
-0.0133325
-1.55178
1.55448
0.0154771
-0.0175242
-1.29744
1.29948
0.019161
-0.0207427
-1.08834
1.08992
0.0220352
-0.0233417
-0.916154
0.91746
0.0244686
-0.0256342
-0.775396
0.776562
0.0265875
-0.0268788
-0.658712
0.659004
0.0261085
-0.0231892
-0.537389
0.53447
0.0185024
-0.0122592
-0.365625
0.359381
0.00707992
-0.00291943
-0.173052
0.168892
0.000760801
-0.0286922
0.0279314
-0.0299571
0.0295834
0.000373679
-0.00406013
0.00737114
-0.243281
0.23997
-0.0115774
0.0148061
-0.418547
0.415318
-0.0166862
0.0168485
-0.553904
0.553741
-0.0159055
0.0144301
-0.660862
0.662338
-0.0125725
0.0107371
-0.777697
0.779532
-0.0085754
0.00646481
-0.92066
0.922771
-0.00400153
0.00161809
-1.09411
1.09649
0.00113553
-0.0037754
-1.30383
1.30647
0.00679086
-0.0096357
-1.55813
1.56098
0.0123105
-0.0148173
-1.55706
1.55957
0.0167774
-0.0186208
-1.30145
1.30329
0.020074
-0.0214562
-1.09146
1.09285
0.02257
-0.0236954
-0.918713
0.919839
0.0246718
-0.02567
-0.777662
0.77866
0.0263765
-0.0263698
-0.65915
0.659143
0.0252034
-0.0218879
-0.531362
0.528046
0.0171254
-0.0111836
-0.353318
0.347376
0.00642863
-0.002659
-0.16496
0.16119
0.000698661
-0.0272141
0.0265154
-0.0292693
0.0290025
0.000266838
-0.00311636
0.00580367
-0.236991
0.234304
-0.00937143
0.0122698
-0.412275
0.409377
-0.0141073
0.0143653
-0.553591
0.553333
-0.0134797
0.0120633
-0.663872
0.665288
-0.0101942
0.00832594
-0.781366
0.783234
-0.00612318
0.00397986
-0.924784
0.926927
-0.00149163
-0.000892784
-1.09876
1.10115
0.00363359
-0.00623388
-1.30901
1.31161
0.00917033
-0.0119018
-1.56371
1.56644
0.0144265
-0.0167447
-1.56195
1.56427
0.0185188
-0.0201517
-1.30504
1.30668
0.0214132
-0.0225886
-1.0942
1.09537
0.0235209
-0.0244678
-0.920927
0.921874
0.0252985
-0.0261237
-0.779579
0.780405
0.0265592
-0.0262975
-0.659
0.658739
0.0246988
-0.021006
-0.524564
0.520871
0.0161774
-0.0104636
-0.341589
0.335875
0.00600606
-0.00249684
-0.157585
0.154076
0.000662391
-0.0258482
0.0251858
-0.0287919
0.0286262
0.000165684
-0.00224435
0.00434662
-0.231929
0.229827
-0.00727059
0.00976786
-0.406704
0.404206
-0.0114536
0.0117257
-0.55314
0.552868
-0.0108595
0.00945792
-0.666803
0.668204
-0.00754557
0.00561373
-0.785106
0.787038
-0.00333752
0.00113373
-0.928967
0.931171
0.00140645
-0.00382781
-1.10343
1.10586
0.006581
-0.00916497
-1.31412
1.3167
0.0120404
-0.0146655
-1.56906
1.57169
0.0170408
-0.0191699
-1.56646
1.56859
0.0207588
-0.0221788
-1.30822
1.30964
0.0232398
-0.0241889
-1.09653
1.09748
0.0249194
-0.0256689
-0.922778
0.923528
0.0263436
-0.0270241
-0.781144
0.781824
0.0271654
-0.0265606
-0.658252
0.657647
0.0245487
-0.0205064
-0.517048
0.513006
0.0156015
-0.0100345
-0.330284
0.324718
0.00576588
-0.00241266
-0.15068
0.147327
0.000646729
-0.0245459
0.0238991
-0.0285164
0.0284526
6.37399e-05
-0.00139423
0.0029257
-0.228028
0.226496
-0.00519155
0.00722533
-0.401967
0.399933
-0.00866047
0.00887197
-0.552713
0.552502
-0.00798812
0.00657396
-0.66974
0.671154
-0.00458746
0.002566
-0.788974
0.790996
-0.000181421
-0.00212165
-0.933269
0.935572
0.00475981
-0.00725544
-1.10818
1.11067
0.0100625
-0.0126608
-1.31919
1.32179
0.0155022
-0.0180389
-1.5742
1.57674
0.0202734
-0.0222114
-1.57059
1.57252
0.0236082
-0.0248074
-1.31096
1.31216
0.0256651
-0.0263846
-1.09842
1.09914
0.0268964
-0.0274267
-0.924245
0.924775
0.0279317
-0.0284137
-0.782356
0.782838
0.0282653
-0.0272617
-0.656784
0.655781
0.0248118
-0.0203958
-0.508844
0.504428
0.0153716
-0.0098592
-0.31924
0.313728
0.00568091
-0.00239463
-0.144048
0.140762
0.000648719
-0.0232681
0.0226194
-0.0284452
0.0284902
-4.50083e-05
-0.000518674
0.0014737
-0.22527
0.224315
-0.00305269
0.00455572
-0.398192
0.396689
-0.00563349
0.00569803
-0.55247
0.552405
-0.00474082
0.00326229
-0.672747
0.674226
-0.00117258
-0.000975897
-0.793022
0.79517
0.00351255
-0.00594846
-0.93777
0.940206
0.00872172
-0.011322
-1.11307
1.11568
0.0142159
-0.0168577
-1.3243
1.32695
0.019693
-0.0221585
-1.57917
1.58164
0.024258
-0.0259997
-1.57432
1.57607
0.0271904
-0.0281452
-1.31324
1.31419
0.0287715
-0.0292366
-1.09986
1.10032
0.0295174
-0.0298089
-0.925284
0.925576
0.0301228
-0.0303385
-0.783054
0.783269
0.0299246
-0.0284359
-0.654495
0.653006
0.0255088
-0.0206864
-0.499915
0.495092
0.015484
-0.00992544
-0.30827
0.302711
0.00574135
-0.0024385
-0.137513
0.134211
0.000667276
-0.0219802
0.0213129
-0.0285901
0.0287508
-0.00016069
0.000405701
-5.77525e-05
-0.22368
0.223332
-0.000784232
0.00167544
-0.395508
0.394617
-0.00228935
0.00211635
-0.552593
0.552766
-0.00102114
-0.000594302
-0.675945
0.67756
0.00284848
-0.00517187
-0.79733
0.799653
0.00790415
-0.0105119
-0.942536
0.945144
0.0134613
-0.0162044
-1.11818
1.12093
0.0192233
-0.0219357
-1.3295
1.33221
0.0247809
-0.0271758
-1.58399
1.58638
0.0291282
-0.0306521
-1.57765
1.57918
0.0316169
-0.0322991
-1.31501
1.31569
0.0326722
-0.0328633
-1.10078
1.10097
0.0328921
-0.0329236
-0.925848
0.92588
0.0330281
-0.0329289
-0.783127
0.783027
0.0321896
-0.0301369
-0.651262
0.64921
0.0266821
-0.0213909
-0.490181
0.484889
0.0159302
-0.010218
-0.297166
0.291454
0.00593526
-0.00253846
-0.130912
0.127515
0.000700663
-0.0206499
0.0199492
-0.0289908
0.0292909
-0.000300076
0.00139874
-0.00170231
-0.223344
0.223648
0.00170237
-0.00152922
-0.394044
0.393871
0.00150442
-0.00201339
-0.553293
0.553802
0.00332199
-0.0051175
-0.679473
0.681269
0.00758091
-0.0101202
-0.801982
0.804521
0.0131026
-0.0159389
-0.947651
0.950488
0.019128
-0.0220661
-1.12359
1.12652
0.0252561
-0.0280707
-1.33484
1.33766
0.0309511
-0.0332883
-1.58866
1.591
0.0350921
-0.0363736
-1.58052
1.58181
0.0370871
-0.0374588
-1.31622
1.31659
0.0375484
-0.0374348
-1.1011
1.10099
0.037185
-0.0369303
-0.925866
0.925611
0.036813
-0.0362857
-0.782465
0.781938
0.0351306
-0.0324258
-0.646963
0.644258
0.0283723
-0.0225289
-0.47951
0.473667
0.0167148
-0.0107329
-0.285714
0.279732
0.00625767
-0.00269141
-0.124092
0.120526
0.000747739
-0.0192483
0.0185005
-0.0296629
0.0301394
-0.000476514
0.00268352
-0.00373357
-0.224336
0.225386
0.004605
-0.00522964
-0.394024
0.394649
0.00592416
-0.00687855
-0.5548
0.555755
0.00847758
-0.010516
-0.683416
0.685454
0.0132623
-0.0160882
-0.807069
0.809894
0.0193963
-0.0225238
-0.953233
0.95636
0.0260111
-0.0291891
-1.12938
1.13256
0.0325899
-0.0355306
-1.34039
1.34333
0.0384514
-0.040713
-1.5932
1.59546
0.0423317
-0.0433316
-1.58288
1.58388
0.0437358
-0.0437689
-1.31677
1.31681
0.0435403
-0.0430864
-1.10076
1.10031
0.0425269
-0.0419505
-0.925252
0.924676
0.0415274
-0.0405384
-0.780891
0.779902
0.0388431
-0.0353913
-0.64142
0.637968
0.0306424
-0.0241335
-0.467727
0.461218
0.0178499
-0.0114714
-0.273678
0.2673
0.00670669
-0.00289568
-0.116903
0.113092
0.000807876
-0.0177483
0.0169405
-0.0306867
0.0313809
-0.000694256
0.00417159
-0.00611063
-0.226856
0.228795
0.00805215
-0.00957505
-0.39567
0.397193
0.0110917
-0.012626
-0.557373
0.558907
0.0146688
-0.0170565
-0.687937
0.690324
0.0202047
-0.023397
-0.812735
0.815927
0.027103
-0.0305787
-0.959396
0.962871
0.034421
-0.0378839
-1.13566
1.13913
0.0415309
-0.0446113
-1.34618
1.34926
0.0475627
-0.0497152
-1.59756
1.59971
0.0510996
-0.0517604
-1.58464
1.5853
0.0517918
-0.0514355
-1.31659
1.31624
0.0508393
-0.0499934
-1.09967
1.09882
0.0490826
-0.0481371
-0.923929
0.922984
0.0473026
-0.045825
-0.77836
0.776883
0.0434653
-0.0391426
-0.634424
0.630102
0.0335676
-0.0262426
-0.454591
0.447266
0.0193507
-0.0124352
-0.260801
0.253885
0.00727925
-0.00314791
-0.109194
0.105063
0.000879481
-0.0161251
0.0152456
-0.0321419
0.0331219
-0.000979924
0.00604516
-0.00904574
-0.23116
0.234161
0.0122376
-0.0148177
-0.399235
0.401815
0.0173014
-0.0195325
-0.561292
0.563523
0.022148
-0.0249995
-0.693251
0.696102
0.0286544
-0.0323126
-0.81914
0.822799
0.036523
-0.0404403
-0.96627
0.970187
0.0447259
-0.0485318
-1.14252
1.14632
0.0524586
-0.0556806
-1.35223
1.35545
0.0586345
-0.0606232
-1.60167
1.60365
0.0616985
-0.0619279
-1.58567
1.5859
0.061529
-0.0606868
-1.31554
1.31469
0.059658
-0.0583559
-1.09768
1.09638
0.0570424
-0.0556898
-0.921796
0.920444
0.0543437
-0.0522768
-0.774811
0.772744
0.0491257
-0.0437617
-0.625703
0.620339
0.037196
-0.0288742
-0.439804
0.431482
0.021215
-0.0136112
-0.246803
0.239199
0.00796104
-0.0034385
-0.10082
0.0962971
0.00095874
-0.0143576
0.0133989
-0.034157
0.0355268
-0.0013698
0.00849556
-0.012848
-0.237577
0.24193
0.0175259
-0.0213423
-0.405094
0.408911
0.0249633
-0.0280421
-0.566868
0.569947
0.0314027
-0.034866
-0.699593
0.703057
0.039185
-0.0434354
-0.826485
0.830735
0.0482681
-0.0527112
-0.974046
0.978489
0.0575014
-0.0616741
-1.15005
1.15423
0.0658714
-0.0691949
-1.35853
1.36185
0.072072
-0.0737976
-1.60539
1.60711
0.0744516
-0.0741316
-1.58578
1.58546
0.0732141
-0.0717665
-1.31339
1.31194
0.0702358
-0.0684066
-1.09466
1.09283
0.0666424
-0.0648222
-0.918737
0.916917
0.0628575
-0.0600765
-0.770029
0.767248
0.055959
-0.0493395
-0.614912
0.608292
0.0415746
-0.0320329
-0.423005
0.413464
0.0234242
-0.0149714
-0.231386
0.222933
0.00872701
-0.00375274
-0.0916443
0.08667
0.00104048
-0.0124335
0.0113931
-0.0369278
0.0388567
-0.00192893
0.0118977
-0.0179526
-0.246629
0.252684
0.0244318
-0.0297013
-0.413733
0.419003
0.0346766
-0.0388023
-0.574503
0.578628
0.0431389
-0.0474355
-0.7073
0.711597
0.0526289
-0.0576117
-0.835019
0.840002
0.063168
-0.0681859
-0.982874
0.987892
0.0734887
-0.077994
-1.15829
1.16279
0.0823767
-0.0856813
-1.36496
1.36826
0.0883084
-0.0895835
-1.60847
1.60975
0.0896342
-0.0885908
-1.58468
1.58364
0.0869993
-0.0848492
-1.30995
1.3078
0.0827234
-0.0803215
-1.09047
1.08806
0.0780718
-0.0756498
-0.914608
0.912186
0.073066
-0.0693507
-0.7637
0.759985
0.0640548
-0.0559138
-0.601599
0.593458
0.0466975
-0.0356767
-0.403759
0.392738
0.0259175
-0.0164534
-0.214243
0.204779
0.00952807
-0.00406407
-0.0815611
0.0760971
0.00111597
-0.0103518
0.00923585
-0.0407785
0.0435734
-0.00279497
0.0168232
-0.0251279
-0.259021
0.267326
0.0338414
-0.0408584
-0.42582
0.432837
0.0474691
-0.0528553
-0.584689
0.590075
0.0584201
-0.0637911
-0.716818
0.722189
0.0700663
-0.0759011
-0.845003
0.850838
0.0822414
-0.0878256
-0.992829
0.998413
0.0935658
-0.0982762
-1.16711
1.17182
0.102647
-0.105715
-1.37123
1.37429
0.107823
-0.108389
-1.61052
1.61108
0.107588
-0.105587
-1.58202
1.58002
0.103147
-0.100129
-1.305
1.30198
0.097306
-0.0942559
-1.08493
1.08188
0.0914688
-0.0883531
-0.90909
0.905974
0.0851001
-0.0802305
-0.755358
0.750488
0.0734727
-0.0634775
-0.585196
0.5752
0.0525102
-0.0397114
-0.381566
0.368768
0.0285819
-0.0179509
-0.195084
0.184453
0.0102843
-0.00433072
-0.0705213
0.0645677
0.00117154
-0.00813181
0.00696027
-0.0462809
0.050538
-0.0042571
0.0244706
-0.0358362
-0.275917
0.287283
0.0474429
-0.0567728
-0.442362
0.451692
0.0653759
-0.0722013
-0.597997
0.604823
0.0792591
-0.086084
-0.72851
0.735335
0.0935028
-0.100123
-0.856638
0.863258
0.107106
-0.113062
-1.00383
1.00978
0.118944
-0.123533
-1.17618
1.18076
0.127489
-0.12993
-1.37682
1.37926
0.131083
-0.130551
-1.61094
1.61041
0.128558
-0.125328
-1.57731
1.57408
0.121862
-0.117829
-1.29822
1.29419
0.114198
-0.110405
-1.07787
1.07407
0.107028
-0.103103
-0.901925
0.898001
0.0990065
-0.0926624
-0.744499
0.738155
0.0841022
-0.0718682
-0.564985
0.552751
0.0588226
-0.043943
-0.355864
0.340984
0.0312316
-0.0193086
-0.173679
0.161756
0.0108837
-0.00449586
-0.0585759
0.0521881
0.00118818
-0.00582156
0.00463339
-0.0544971
0.0618218
-0.00732464
0.0379182
-0.0537439
-0.29945
0.315276
0.0693932
-0.0818928
-0.464994
0.477494
0.0926395
-0.100814
-0.614857
0.623031
0.109374
-0.117428
-0.742745
0.7508
0.125724
-0.132721
-0.86966
0.876657
0.139765
-0.145487
-1.0153
1.02102
0.150827
-0.154656
-1.18468
1.18851
0.15753
-0.158734
-1.38084
1.38204
0.158351
-0.156249
-1.60888
1.60677
0.152707
-0.147965
-1.56997
1.56523
0.143245
-0.138006
-1.28933
1.28409
0.133427
-0.128798
-1.06914
1.06451
0.124764
-0.120029
-0.892872
0.888138
0.114724
-0.106473
-0.73043
0.722178
0.0956677
-0.0807043
-0.540053
0.52509
0.065245
-0.0480747
-0.326062
0.308892
0.0336573
-0.0204114
-0.149936
0.13669
0.0112634
-0.00453459
-0.0459372
0.0392084
0.00115269
-0.00350661
0.00235393
-0.0686673
0.0727785
-0.00411121
0.0290675
-0.0427683
-0.333607
0.347308
0.0566132
-0.0680178
-0.495147
0.506551
0.0781725
-0.0876282
-0.634867
0.644323
0.0981159
-0.107602
-0.758454
0.76794
0.118071
-0.12735
-0.882793
0.892071
0.137158
-0.145792
-1.02578
1.03442
0.15466
-0.162086
-1.19122
1.19864
0.169186
-0.174504
-1.38204
1.38735
0.178672
-0.180605
-1.60339
1.60532
0.180253
-0.178157
-1.55937
1.55727
0.175043
-0.170874
-1.27791
1.27374
0.167053
-0.162615
-1.05853
1.05409
0.158838
-0.153969
-0.881604
0.876734
0.147036
-0.135229
-0.712141
0.700334
0.119461
-0.0984038
-0.509339
0.488282
0.0775767
-0.0551679
-0.291565
0.269157
0.0373131
-0.021755
-0.124043
0.108485
0.0115589
-0.00448412
-0.0330645
0.0259897
0.00110649
-0.00130631
0.000199821
-0.0799017
0.0780847
0.00181693
0.00747606
-0.0164968
-0.363849
0.37287
0.0269924
-0.0350412
-0.522676
0.530725
0.043151
-0.0511705
-0.656174
0.664194
0.0608365
-0.0697359
-0.777105
0.786004
0.0791263
-0.0876604
-0.900809
0.909343
0.0966444
-0.104212
-1.04275
1.05032
0.112154
-0.118419
-1.20585
1.21212
0.12431
-0.12837
-1.3923
1.39636
0.130856
-0.131262
-1.60631
1.60671
0.129359
-0.125668
-1.55426
1.55057
0.120964
-0.11511
-1.26887
1.26302
0.109664
-0.103626
-1.04793
1.04189
0.098077
-0.0915696
-0.867203
0.860696
0.0844763
-0.0742579
-0.68459
0.674372
0.0625576
-0.0484777
-0.465688
0.451609
0.0358942
-0.0239019
-0.24693
0.234938
0.0153239
-0.00853709
-0.0937746
0.0869878
0.00441891
-0.00169564
-0.0193611
0.0166379
0.000387101
0.000878724
-0.00126583
-0.0813611
0.0784997
0.00286143
-0.00165267
-0.00359537
-0.384261
0.38951
0.0107397
-0.0165872
-0.542959
0.548807
0.0226318
-0.029594
-0.674225
0.681187
0.0379407
-0.0456635
-0.794041
0.801764
0.0540482
-0.0615091
-0.917152
0.924613
0.0691145
-0.075865
-1.0577
1.06445
0.0827193
-0.0881814
-1.21792
1.22338
0.0928187
-0.0957122
-1.39969
1.40258
0.0972188
-0.0964979
-1.60629
1.60557
0.0934936
-0.0887126
-1.5461
1.54132
0.0831586
-0.076625
-1.25682
1.25029
0.0701822
-0.0632526
-1.03467
1.02774
0.0568245
-0.0495227
-0.851248
0.843946
0.0426837
-0.0341098
-0.660582
0.652008
0.0256029
-0.0167532
-0.435629
0.42678
0.0104331
-0.00575188
-0.222239
0.217557
0.00318911
-0.00166412
-0.0800448
0.0785198
0.000907568
-0.000416945
-0.0137868
0.0132962
5.39663e-05
0.00180729
-0.00186126
-0.0801418
0.0774457
0.00269605
-0.00521905
0.00267513
-0.397891
0.400435
0.00193929
-0.0063766
-0.557977
0.562415
0.0114873
-0.0173148
-0.689116
0.694943
0.024459
-0.0310897
-0.808874
0.815504
0.0382757
-0.0446933
-0.931566
0.937983
0.0516075
-0.0573295
-1.07077
1.07649
0.0633059
-0.0675888
-1.22841
1.2327
0.0714607
-0.0737028
-1.40521
1.40746
0.0743839
-0.0727764
-1.60435
1.60274
0.069361
-0.0642308
-1.53594
1.53081
0.0583675
-0.0511216
-1.24341
1.23616
0.0442947
-0.036821
-1.01983
1.01235
0.0297443
-0.0223681
-0.834288
0.826912
0.0157388
-0.00876199
-0.640354
0.633378
0.00280133
0.00180543
-0.416543
0.411936
-0.00381905
0.00420573
-0.210829
0.210442
-0.00364643
0.00245026
-0.0759187
0.0771149
-0.00142403
0.000550202
-0.0124145
0.0132883
-0.00021745
0.00218481
-0.00196736
-0.0786898
0.0763085
0.00238124
-0.00631232
0.00534731
-0.407011
0.407976
-0.00194549
-0.00130678
-0.570028
0.57328
0.00547475
-0.0107649
-0.701609
0.7069
0.0167853
-0.0226226
-0.821447
0.827284
0.0288621
-0.0344442
-0.943964
0.949546
0.0403754
-0.0454675
-1.08208
1.08717
0.0505113
-0.0544341
-1.23683
1.24075
0.0576929
-0.0594474
-1.40933
1.41108
0.0596803
-0.0577306
-1.60094
1.59899
0.0540482
-0.0484991
-1.52496
1.51941
0.0424817
-0.0352509
-1.2288
1.22157
0.0283269
-0.020586
-1.00422
0.99648
0.013538
-0.00612113
-0.81756
0.810144
-7.72252e-05
0.00561318
-0.623609
0.618073
-0.00961443
0.0118113
-0.404855
0.402658
-0.0117095
0.0100048
-0.207409
0.209114
-0.00783157
0.00525549
-0.0773328
0.0799089
-0.00311284
0.00129545
-0.0138485
0.0156659
-0.000387276
0.00197771
-0.00159043
-0.0773542
0.0753196
0.00203457
-0.00617128
0.00569598
-0.413308
0.413783
-0.00366341
0.00104163
-0.579359
0.581981
0.00306728
-0.00760433
-0.712225
0.716762
0.0128033
-0.0178885
-0.832338
0.837423
0.0234537
-0.0284533
-0.954789
0.959789
0.0338885
-0.0383538
-1.09199
1.09645
0.0428985
-0.0464298
-1.24439
1.24792
0.0492763
-0.0507251
-1.41257
1.41402
0.0506782
-0.0489129
-1.59693
1.59516
0.0451042
-0.0397041
-1.51341
1.50801
0.0337569
-0.0266776
-1.21416
1.20708
0.0201813
-0.012589
-0.988491
0.980899
0.00573597
0.00127762
-0.801545
0.794532
-0.00697844
0.0117386
-0.609668
0.604908
-0.014777
0.0161679
-0.397568
0.396177
-0.0150988
0.0125143
-0.208174
0.210759
-0.00981413
0.00664561
-0.0815606
0.0847291
-0.00398987
0.00172353
-0.0171187
0.019385
-0.000482706
0.00131797
-0.000835269
-0.0763575
0.0747779
0.00157953
-0.00528462
0.00513045
-0.418029
0.418183
-0.00348638
0.00149256
-0.58752
0.589514
0.00237663
-0.00649119
-0.721448
0.725563
0.0114413
-0.015837
-0.842111
0.846507
0.0207414
-0.0251862
-0.964763
0.969208
0.0303614
-0.0344382
-1.10095
1.10503
0.0384974
-0.041865
-1.25128
1.25465
0.0448934
-0.0462194
-1.41549
1.41682
0.0462584
-0.0444935
-1.59301
1.59125
0.0411875
-0.0358913
-1.50247
1.49717
0.0305116
-0.0240845
-1.19999
1.19356
0.0179073
-0.01096
-0.973369
0.966422
0.00442178
0.00241555
-0.786461
0.779624
-0.00756626
0.0120834
-0.597159
0.592641
-0.0147973
0.0159012
-0.392185
0.391081
-0.0150955
0.0127473
-0.210554
0.212902
-0.0100627
0.00687634
-0.0868889
0.0900753
-0.00417645
0.00184003
-0.0211112
0.0234476
-0.000502942
0.000435338
6.76033e-05
-0.0758644
0.0746297
0.00123474
-0.00421073
0.00417779
-0.421814
0.421847
-0.00272211
0.000821952
-0.59465
0.59655
0.00291572
-0.00660757
-0.729762
0.733454
0.010866
-0.0151173
-0.850839
0.85509
0.019661
-0.0242559
-0.973466
0.978061
0.0287305
-0.0326522
-1.10921
1.11313
0.0368735
-0.0400338
-1.25791
1.26107
0.0426325
-0.0444164
-1.41807
1.41985
0.04471
-0.0433464
-1.58959
1.58822
0.0403814
-0.0358833
-1.49221
1.48771
0.0310241
-0.0251055
-1.18697
1.18106
0.0194291
-0.012888
-0.959352
0.952811
0.00677271
-0.000515484
-0.772272
0.766015
-0.00458218
0.00887042
-0.585607
0.581319
-0.0112941
0.0126941
-0.38748
0.38608
-0.0124764
0.010659
-0.212658
0.214476
-0.00852906
0.00590993
-0.0919021
0.0945212
-0.00364903
0.00164895
-0.0250224
0.0270225
-0.000477376
-0.00047447
0.000951846
-0.0758975
0.074872
0.00102554
-0.00294423
0.00267289
-0.425224
0.425495
-0.00142656
-0.000512533
-0.601184
0.603123
0.00398273
-0.00755231
-0.737514
0.741083
0.0116458
-0.0155027
-0.859116
0.862973
0.0201739
-0.0240027
-0.98209
0.985919
0.0284708
-0.0322404
-1.11722
1.12099
0.0363817
-0.0397693
-1.26422
1.26761
0.0426943
-0.0443168
-1.42142
1.42304
0.0450391
-0.0441935
-1.58685
1.58601
0.0419904
-0.0379063
-1.48319
1.47911
0.0335353
-0.0280431
-1.1753
1.16981
0.0227918
-0.0166909
-0.946095
0.939994
0.011214
-0.00540004
-0.75924
0.753426
0.000488376
0.00386026
-0.575022
0.570673
-0.00657904
0.00801977
-0.38229
0.380849
-0.00839602
0.00744024
-0.213764
0.21472
-0.00609834
0.00429765
-0.0957079
0.0975086
-0.00270012
0.00126801
-0.0281438
0.0295759
-0.000385726
-0.00124767
0.00163339
-0.076212
0.0755031
0.00070885
-0.00180503
0.00112142
-0.428739
0.429423
-9.22649e-05
-0.0021402
-0.60693
0.609162
0.00524211
-0.00867433
-0.744745
0.748178
0.0126015
-0.016592
-0.866678
0.870668
0.0206631
-0.0246687
-0.989958
0.993964
0.0291248
-0.0327146
-1.12519
1.12878
0.0369745
-0.0403467
-1.27081
1.27418
0.0433726
-0.0455731
-1.42509
1.42729
0.0468586
-0.0463702
-1.58525
1.58476
0.0444557
-0.0410725
-1.47522
1.47184
0.0372179
-0.0321139
-1.16424
1.15913
0.0272365
-0.0219498
-0.933933
0.928646
0.016714
-0.0115606
-0.747184
0.74203
0.00689225
-0.00223496
-0.564899
0.560242
-0.000855091
0.00288415
-0.376597
0.374568
-0.00368325
0.00367192
-0.213591
0.213602
-0.00311762
0.00226582
-0.0978356
0.0986874
-0.00150292
0.000752042
-0.0301209
0.0308718
-0.000248175
-0.00180217
0.00205034
-0.0769434
0.0763911
0.000552372
-0.000841788
0.000273521
-0.432485
0.433053
0.00150243
-0.00351643
-0.612924
0.614938
0.00676328
-0.010071
-0.751473
0.75478
0.0138496
-0.0174477
-0.874316
0.877914
0.0216551
-0.0253654
-0.997978
1.00169
0.0297943
-0.0338373
-1.13282
1.13687
0.0377645
-0.04149
-1.2776
1.28133
0.0449717
-0.0473111
-1.42941
1.43175
0.0490231
-0.0493441
-1.58451
1.58483
0.0478673
-0.0450919
-1.46833
1.46555
0.0414853
-0.0369925
-1.15415
1.14966
0.0327824
-0.0280097
-0.923136
0.918364
0.023421
-0.018484
-0.7362
0.731263
0.0138229
-0.00885357
-0.554371
0.549402
0.00519759
-0.00257698
-0.370133
0.367513
0.00100996
-0.000149539
-0.211724
0.210864
-0.000227561
0.000369043
-0.0981035
0.097962
-0.000363649
0.000256779
-0.0307892
0.0308961
-0.000111422
-0.00208182
0.00219325
-0.0779451
0.0775798
0.00036531
0.000208605
-0.00104424
-0.436329
0.437164
0.00264479
-0.00497669
-0.618465
0.620797
0.00815535
-0.0113086
-0.757969
0.761123
0.0151709
-0.0186243
-0.881479
0.884932
0.0226884
-0.0265362
-1.00588
1.00972
0.030886
-0.0349102
-1.14076
1.14479
0.0390763
-0.0428504
-1.28498
1.28875
0.0465513
-0.04967
-1.43439
1.43751
0.0518592
-0.0524882
-1.58509
1.58572
0.0517064
-0.0493112
-1.4627
1.4603
0.0464016
-0.0426986
-1.14527
1.14156
0.0388334
-0.0345369
-0.913475
0.909179
0.0302068
-0.0251175
-0.725692
0.720603