/*--------------------------------*- C++ -*----------------------------------*\
| =========                 |                                                 |
| \\      /  F ield         | OpenFOAM: The Open Source CFD Toolbox           |
|  \\    /   O peration     | Version:  2112                                  |
|   \\  /    A nd           | Website:  www.openfoam.com                      |
|    \\/     M anipulation  |                                                 |
\*---------------------------------------------------------------------------*/
FoamFile
{
    version     2.0;
    format      ascii;
    arch        "LSB;label=32;scalar=64";
    class       volVectorField;
    location    "51.5";
    object      U;
}
// * * * * * * * * * * * * * * * * * * * * * * * * * * * * * * * * * * * * * //

dimensions      [0 1 -1 0 0 0 0];

internalField   nonuniform List<vector> 
8800
(
(0.980141 -0.0915214 0)
(1.00234 -0.0587306 0)
(0.999576 -0.0321311 0)
(0.99997 -0.0165258 0)
(1.00006 -0.00884634 0)
(1.00007 -0.00510145 0)
(1.00005 -0.0029987 0)
(1.00002 -0.00168782 0)
(0.999998 -0.000785987 0)
(1.00006 -8.81613e-05 0)
(0.999988 0.000618393 0)
(0.999995 0.00137046 0)
(1.00001 0.00239473 0)
(1.00003 0.00400038 0)
(1.00004 0.00674916 0)
(0.999993 0.0120508 0)
(0.999788 0.0230952 0)
(0.999028 0.0431577 0)
(1.00723 0.0790264 0)
(0.775024 0.0478395 0)
(0.358982 -0.0147488 0)
(1.0465 -0.0724867 0)
(1.08846 -0.0660258 0)
(1.04942 -0.0509232 0)
(1.02553 -0.0377069 0)
(1.01272 -0.0259027 0)
(1.00656 -0.0167076 0)
(1.00362 -0.0102172 0)
(1.00218 -0.00558553 0)
(1.00151 -0.00199245 0)
(1.00138 0.00122011 0)
(1.00173 0.00452703 0)
(1.0027 0.00841461 0)
(1.00474 0.0137295 0)
(1.00897 0.0214096 0)
(1.01795 0.0319035 0)
(1.03578 0.0446759 0)
(1.0674 0.0581165 0)
(1.09469 0.0699609 0)
(0.845625 0.0555078 0)
(0.217786 -0.00138123 0)
(1.07566 -0.0506563 0)
(1.09939 -0.0489411 0)
(1.06437 -0.0400283 0)
(1.03988 -0.0325714 0)
(1.02379 -0.0253577 0)
(1.01401 -0.0181369 0)
(1.00851 -0.0115136 0)
(1.00565 -0.00575665 0)
(1.00448 -0.000466473 0)
(1.00479 0.00464429 0)
(1.00663 0.00993039 0)
(1.01056 0.0159012 0)
(1.01788 0.0226588 0)
(1.03049 0.0297619 0)
(1.05047 0.0368486 0)
(1.08002 0.0446227 0)
(1.10563 0.0519459 0)
(0.943251 0.0410142 0)
(0.217185 0.00140556 0)
(0.176639 -0.000628768 0)
(1.01938 -0.0354649 0)
(1.10569 -0.0414138 0)
(1.07796 -0.0364017 0)
(1.05243 -0.0303593 0)
(1.03521 -0.024482 0)
(1.02336 -0.0186844 0)
(1.01555 -0.012685 0)
(1.01094 -0.00658972 0)
(1.00891 -0.00035199 0)
(1.00943 0.00580494 0)
(1.01251 0.0117173 0)
(1.01846 0.0174853 0)
(1.02805 0.0230618 0)
(1.04225 0.0286094 0)
(1.06307 0.0343891 0)
(1.09383 0.0402719 0)
(1.09439 0.0417931 0)
(0.830162 0.0227823 0)
(0.175614 0.000648352 0)
(0.154729 -0.000462593 0)
(0.958166 -0.0256925 0)
(1.10439 -0.0351203 0)
(1.08806 -0.0326753 0)
(1.06123 -0.0281712 0)
(1.0432 -0.0232093 0)
(1.03082 -0.0179059 0)
(1.02223 -0.0123637 0)
(1.01668 -0.00645482 0)
(1.01403 -1.58821e-06 0)
(1.01466 0.00645637 0)
(1.01844 0.0123258 0)
(1.02522 0.0176431 0)
(1.03535 0.0226505 0)
(1.05009 0.0274701 0)
(1.07202 0.03191 0)
(1.10097 0.0357861 0)
(1.06964 0.0339887 0)
(0.742481 0.0144592 0)
(0.153193 0.00048461 0)
(0.140044 -0.000334533 0)
(0.901148 -0.0193295 0)
(1.09679 -0.0302302 0)
(1.09619 -0.0293584 0)
(1.06893 -0.025581 0)
(1.05011 -0.0214979 0)
(1.03716 -0.0167979 0)
(1.02818 -0.0115501 0)
(1.02224 -0.00583076 0)
(1.01925 0.000523299 0)
(1.01987 0.00689504 0)
(1.02386 0.0125413 0)
(1.03087 0.017522 0)
(1.04138 0.0219917 0)
(1.05674 0.0259323 0)
(1.07954 0.0294465 0)
(1.10327 0.0321621 0)
(1.03785 0.0281511 0)
(0.675652 0.010313 0)
(0.137882 0.000360631 0)
(0.129304 -0.000253118 0)
(0.851261 -0.0149348 0)
(1.08443 -0.0261361 0)
(1.10187 -0.0264901 0)
(1.07575 -0.023176 0)
(1.05642 -0.0195273 0)
(1.04305 -0.0153356 0)
(1.0337 -0.0104774 0)
(1.02748 -0.00498288 0)
(1.02428 0.00118077 0)
(1.02478 0.0073323 0)
(1.02879 0.0126944 0)
(1.03595 0.0172549 0)
(1.04675 0.0211252 0)
(1.06249 0.0244635 0)
(1.08573 0.0274992 0)
(1.1025 0.0293206 0)
(1.00316 0.023608 0)
(0.623599 0.00791009 0)
(0.126377 0.000284861 0)
(0.121114 -0.000194345 0)
(0.808742 -0.011752 0)
(1.0691 -0.0225481 0)
(1.10537 -0.023872 0)
(1.08198 -0.0210176 0)
(1.06219 -0.0176032 0)
(1.04855 -0.0136984 0)
(1.03895 -0.00916703 0)
(1.03247 -0.0039533 0)
(1.02903 0.0019732 0)
(1.02939 0.00785589 0)
(1.03335 0.0128633 0)
(1.04057 0.0169667 0)
(1.05147 0.0203669 0)
(1.06746 0.0233083 0)
(1.09108 0.0260272 0)
(1.09885 0.0269413 0)
(0.968081 0.0200312 0)
(0.581836 0.00634192 0)
(0.117257 0.000233021 0)
(0.11476 -0.000149859 0)
(0.772871 -0.00937142 0)
(1.0522 -0.0193907 0)
(1.10769 -0.0214548 0)
(1.08782 -0.0189872 0)
(1.06763 -0.015739 0)
(1.05373 -0.0120106 0)
(1.04394 -0.0076903 0)
(1.03724 -0.00272372 0)
(1.03355 0.00293115 0)
(1.0337 0.0084934 0)
(1.03754 0.0131174 0)
(1.04471 0.0168152 0)
(1.05563 0.0198407 0)
(1.07186 0.0224538 0)
(1.09518 0.0248327 0)
(1.09242 0.0249573 0)
(0.933962 0.0172558 0)
(0.547362 0.00526391 0)
(0.109773 0.000196819 0)
(0.109793 -0.000114827 0)
(0.742718 -0.00752824 0)
(1.0348 -0.0165928 0)
(1.10903 -0.0191902 0)
(1.09336 -0.0170477 0)
(1.07287 -0.0139093 0)
(1.05869 -0.0102876 0)
(1.04871 -0.0060996 0)
(1.0418 -0.00131456 0)
(1.03785 0.00408143 0)
(1.03774 0.00931551 0)
(1.04137 0.0135785 0)
(1.0484 0.0169237 0)
(1.05933 0.0196113 0)
(1.07578 0.0219268 0)
(1.09802 0.0239295 0)
(1.08358 0.0233092 0)
(0.90141 0.015128 0)
(0.518123 0.00450616 0)
(0.103432 0.0001717 0)
(0.105921 -8.58936e-05 0)
(0.717464 -0.00604493 0)
(1.01774 -0.0140818 0)
(1.10952 -0.0170001 0)
(1.09877 -0.0151505 0)
(1.07801 -0.0120367 0)
(1.06353 -0.00846207 0)
(1.05333 -0.00435813 0)
(1.04618 0.000294332 0)
(1.04193 0.00546502 0)
(1.04148 0.0103845 0)
(1.04484 0.0142952 0)
(1.0517 0.0172828 0)
(1.06261 0.0196367 0)
(1.07926 0.0216989 0)
(1.09952 0.0233154 0)
(1.07273 0.0219853 0)
(0.870575 0.0135346 0)
(0.492668 0.00397739 0)
(0.0978897 0.000155149 0)
(0.102951 -6.09555e-05 0)
(0.696464 -0.00480374 0)
(1.00164 -0.0117931 0)
(1.1093 -0.0148543 0)
(1.10402 -0.0132195 0)
(1.08313 -0.0100882 0)
(1.06832 -0.00650881 0)
(1.05786 -0.00242726 0)
(1.05043 0.00214415 0)
(1.04581 0.00712974 0)
(1.04495 0.0117589 0)
(1.04797 0.0153394 0)
(1.05462 0.0179966 0)
(1.06549 0.0200203 0)
(1.08231 0.0218141 0)
(1.10005 0.0230207 0)
(1.06018 0.0209926 0)
(0.841331 0.0123815 0)
(0.469917 0.0036194 0)
(0.0928889 0.000145217 0)
(0.100761 -3.80948e-05 0)
(0.679248 -0.00371663 0)
(0.986941 -0.00965401 0)
(1.10857 -0.0126618 0)
(1.10904 -0.0111698 0)
(1.0883 -0.00801042 0)
(1.07313 -0.00436733 0)
(1.06237 -0.000246556 0)
(1.05457 0.00428974 0)
(1.0495 0.00914272 0)
(1.04814 0.0135122 0)
(1.05075 0.0167575 0)
(1.05716 0.0190689 0)
(1.06798 0.0207605 0)
(1.08486 0.022277 0)
(1.0996 0.0231128 0)
(1.04613 0.0203378 0)
(0.813393 0.0115958 0)
(0.449038 0.00339376 0)
(0.0882295 0.00014052 0)
(0.0992867 -1.55903e-05 0)
(0.665512 -0.00271367 0)
(0.974018 -0.00758991 0)
(1.10764 -0.0103606 0)
(1.11398 -0.00892037 0)
(1.09359 -0.0056889 0)
(1.07804 -0.001926 0)
(1.0669 0.00228323 0)
(1.05867 0.0068351 0)
(1.05303 0.011586 0)
(1.05107 0.0156986 0)
(1.05319 0.0186091 0)
(1.05929 0.0205586 0)
(1.07004 0.0218861 0)
(1.08696 0.0231366 0)
(1.09797 0.023536 0)
(1.03066 0.0200031 0)
(0.786382 0.0111208 0)
(0.429358 0.00327443 0)
(0.0837525 0.000140125 0)
(0.0985118 8.32191e-06 0)
(0.655101 -0.00173929 0)
(0.963179 -0.00552777 0)
(1.10684 -0.00789559 0)
(1.11896 -0.00643044 0)
(1.09908 -0.00309104 0)
(1.0831 0.000854786 0)
(1.07152 0.00522063 0)
(1.06275 0.00985851 0)
(1.05642 0.01455 0)
(1.05374 0.0184202 0)
(1.05526 0.0209844 0)
(1.061 0.0225658 0)
(1.07165 0.0234986 0)
(1.08854 0.024449 0)
(1.09512 0.0243539 0)
(1.01381 0.0200124 0)
(0.759891 0.0109205 0)
(0.410334 0.00324525 0)
(0.0793299 0.000143434 0)
(0.0984566 2.97511e-05 0)
(0.647991 -0.000746103 0)
(0.954733 -0.00339305 0)
(1.10648 -0.00517804 0)
(1.12411 -0.00358423 0)
(1.10486 -8.0178e-05 0)
(1.08843 0.00411319 0)
(1.07632 0.00869812 0)
(1.06689 0.0134778 0)
(1.05973 0.018154 0)
(1.05616 0.0217905 0)
(1.05697 0.0239865 0)
(1.06225 0.0251483 0)
(1.07278 0.0256597 0)
(1.08938 0.0262408 0)
(1.09081 0.0256011 0)
(0.995488 0.0203909 0)
(0.733463 0.0109831 0)
(0.391471 0.00330012 0)
(0.0748432 0.000150258 0)
(0.0991562 6.86529e-05 0)
(0.644269 0.000277451 0)
(0.949005 -0.00111198 0)
(1.10696 -0.00213112 0)
(1.12965 -0.000282393 0)
(1.11103 0.00347632 0)
(1.09408 0.00799306 0)
(1.08133 0.0128659 0)
(1.07109 0.0178492 0)
(1.06291 0.0225366 0)
(1.05829 0.0259208 0)
(1.05824 0.0277065 0)
(1.06299 0.028413 0)
(1.07338 0.0284706 0)
(1.08935 0.0286313 0)
(1.08489 0.0273321 0)
(0.975509 0.0211611 0)
(0.706595 0.0112944 0)
(0.372308 0.00343129 0)
(0.0701846 0.000160133 0)
(0.100817 9.52688e-05 0)
(0.644315 0.00144058 0)
(0.946334 0.00139794 0)
(1.10866 0.00134081 0)
(1.13579 0.00354672 0)
(1.11773 0.00766334 0)
(1.10018 0.0125968 0)
(1.08666 0.0178609 0)
(1.07542 0.0231215 0)
(1.06599 0.0278614 0)
(1.06008 0.0310018 0)
(1.05904 0.0323185 0)
(1.06316 0.0325116 0)
(1.07334 0.0320755 0)
(1.08825 0.0317287 0)
(1.0772 0.0295936 0)
(0.953596 0.0223504 0)
(0.678764 0.0118528 0)
(0.352407 0.00363521 0)
(0.0652561 0.000172662 0)
(0.103498 0.000142412 0)
(0.648482 0.0028671 0)
(0.947222 0.00428616 0)
(1.11209 0.00537395 0)
(1.14268 0.00809586 0)
(1.12508 0.0127087 0)
(1.10686 0.0181774 0)
(1.09239 0.023929 0)
(1.07992 0.0295332 0)
(1.06897 0.0343349 0)
(1.06151 0.0371648 0)
(1.05929 0.0379405 0)
(1.06265 0.0375613 0)
(1.07257 0.0365704 0)
(1.08587 0.035644 0)
(1.0674 0.0324865 0)
(0.929378 0.0240019 0)
(0.649395 0.0126633 0)
(0.331341 0.00391014 0)
(0.0599656 0.000187637 0)
(0.107479 0.00020363 0)
(0.657362 0.00454781 0)
(0.952138 0.00770344 0)
(1.11776 0.0101308 0)
(1.15065 0.0135849 0)
(1.13331 0.0188849 0)
(1.11426 0.025004 0)
(1.09861 0.0313363 0)
(1.08463 0.0373436 0)
(1.07183 0.042191 0)
(1.06253 0.044622 0)
(1.05893 0.0447612 0)
(1.06137 0.0437206 0)
(1.07097 0.0420798 0)
(1.08213 0.0405215 0)
(1.05513 0.0361239 0)
(0.902349 0.0261613 0)
(0.61786 0.0137298 0)
(0.308677 0.00425247 0)
(0.0542294 0.000204378 0)
(0.11309 0.000286471 0)
(0.671627 0.00663627 0)
(0.961735 0.0118413 0)
(1.12623 0.0158398 0)
(1.16006 0.0202266 0)
(1.14264 0.0264097 0)
(1.12253 0.0333519 0)
(1.10541 0.0404101 0)
(1.08953 0.046876 0)
(1.07449 0.0517265 0)
(1.06303 0.0536308 0)
(1.05779 0.0529988 0)
(1.05916 0.0511719 0)
(1.06843 0.0487819 0)
(1.07692 0.0464674 0)
(1.03991 0.040591 0)
(0.871906 0.0288584 0)
(0.583486 0.0150439 0)
(0.284002 0.00465089 0)
(0.0479825 0.000221503 0)
(0.120827 0.000403447 0)
(0.692232 0.00936711 0)
(0.976896 0.017018 0)
(1.13812 0.0228688 0)
(1.17132 0.0284524 0)
(1.15338 0.0357922 0)
(1.1319 0.0437477 0)
(1.11287 0.0516357 0)
(1.09461 0.0585471 0)
(1.07683 0.063275 0)
(1.06284 0.0644662 0)
(1.05572 0.0628612 0)
(1.05593 0.0601181 0)
(1.06474 0.056902 0)
(1.06992 0.0536298 0)
(1.02117 0.0459905 0)
(0.837335 0.0321176 0)
(0.545567 0.0165828 0)
(0.256947 0.00508712 0)
(0.0411909 0.000237423 0)
(0.131439 0.000574637 0)
(0.720513 0.0131033 0)
(0.998771 0.023691 0)
(1.15425 0.0317548 0)
(1.18505 0.0388925 0)
(1.16586 0.0477618 0)
(1.14249 0.0568941 0)
(1.12095 0.0656311 0)
(1.09973 0.072857 0)
(1.0787 0.0771785 0)
(1.0618 0.0773379 0)
(1.05259 0.0745268 0)
(1.05152 0.0707106 0)
(1.05972 0.0664857 0)
(1.06066 0.062085 0)
(0.998154 0.05238 0)
(0.797801 0.0359187 0)
(0.503412 0.0182885 0)
(0.227254 0.00552697 0)
(0.0338686 0.000249631 0)
(0.146188 0.000849876 0)
(0.758477 0.0184606 0)
(1.02898 0.0326482 0)
(1.17557 0.0434077 0)
(1.20204 0.0525087 0)
(1.18041 0.0632359 0)
(1.15435 0.0736546 0)
(1.12954 0.0831295 0)
(1.10463 0.0903515 0)
(1.07978 0.0938327 0)
(1.05964 0.0925328 0)
(1.04816 0.0881871 0)
(1.04574 0.0830934 0)
(1.05303 0.0776824 0)
(1.04848 0.0720411 0)
(0.969923 0.0597771 0)
(0.752414 0.0401988 0)
(0.456439 0.0200593 0)
(0.194879 0.0059161 0)
(0.0261138 0.000254234 0)
(0.167244 0.0013239 0)
(0.809331 0.0266071 0)
(1.07006 0.0454492 0)
(1.20311 0.0596607 0)
(1.22288 0.0714334 0)
(1.19711 0.0838369 0)
(1.16724 0.095384 0)
(1.13816 0.105122 0)
(1.10883 0.11168 0)
(1.07967 0.113608 0)
(1.05603 0.110259 0)
(1.0422 0.104021 0)
(1.03839 0.097425 0)
(1.04431 0.0909337 0)
(1.03266 0.0835057 0)
(0.935334 0.0680666 0)
(0.70033 0.0447926 0)
(0.404425 0.0217401 0)
(0.160201 0.00618007 0)
(0.0181566 0.000245563 0)
(0.19798 0.00237688 0)
(0.878733 0.0402492 0)
(1.12555 0.0659136 0)
(1.23732 0.0840848 0)
(1.24733 0.0984501 0)
(1.21542 0.111986 0)
(1.18042 0.123704 0)
(1.14611 0.132568 0)
(1.11171 0.13736 0)
(1.07789 0.136757 0)
(1.05066 0.130648 0)
(1.03454 0.122075 0)
(1.02943 0.113741 0)
(1.03351 0.106074 0)
(1.01231 0.0963859 0)
(0.893005 0.0769499 0)
(0.641046 0.0493982 0)
(0.348145 0.0231917 0)
(0.124548 0.00628258 0)
(0.0104938 0.000217701 0)
(0.239897 0.00857226 3.77603e-20)
(0.970715 0.0674468 3.31247e-20)
(1.19329 0.100157 -1.16695e-20)
(1.2752 0.120212 0)
(1.2727 0.137072 -3.0738e-34)
(1.23322 0.14995 4.51834e-21)
(1.19226 0.160093 -8.28587e-21)
(1.15217 0.166713 0)
(1.1123 0.168698 1.73146e-34)
(1.07348 0.164761 -1.05307e-20)
(1.04239 0.155388 0)
(1.02374 0.144271 -1.26158e-20)
(1.01727 0.134245 -3.72846e-20)
(1.01923 0.125743 -1.76461e-20)
(0.984675 0.113642 -5.32229e-21)
(0.838071 0.088787 -3.16596e-21)
(0.568795 0.0550508 0)
(0.285367 0.0249129 2.2174e-21)
(0.0883323 0.00670911 2.61829e-21)
(0.00339262 0.000263216 4.71181e-20)
(0.269305 0.0239307 2.55103e-20)
(1.0466 0.109929 5.25597e-22)
(1.24906 0.148975 3.01941e-21)
(1.30907 0.169175 0)
(1.29492 0.185878 -1.53403e-20)
(1.24835 0.19659 -1.76145e-20)
(1.20146 0.204431 -8.30075e-21)
(1.15548 0.208575 -3.0029e-20)
(1.10985 0.207743 0)
(1.06545 0.20058 4.48877e-20)
(1.02973 0.18805 4.47469e-20)
(1.00792 0.174423 1.33568e-20)
(0.999145 0.162361 4.89017e-20)
(0.995054 0.151545 6.89142e-20)
(0.942434 0.135774 0)
(0.765463 0.103473 9.74216e-20)
(0.484565 0.0620428 1.39858e-19)
(0.219361 0.0268091 1.55376e-19)
(0.0532339 0.00644664 -1.77677e-19)
(-0.00339748 -0.000237425 -3.33937e-21)
(0.270439 0.0396362 0)
(1.09452 0.165044 4.00553e-21)
(1.28645 0.209037 0)
(1.3353 0.22872 -1.85862e-20)
(1.31222 0.242368 0)
(1.25973 0.249275 -3.41097e-20)
(1.20728 0.253476 1.68651e-20)
(1.15566 0.254096 -6.002e-20)
(1.10447 0.249647 -1.5676e-21)
(1.05469 0.238702 2.31926e-20)
(1.01448 0.222694 9.88933e-20)
(0.98958 0.206441 -2.73469e-22)
(0.978372 0.192489 -3.56559e-20)
(0.968645 0.179534 -6.52861e-20)
(0.904226 0.159174 7.7389e-20)
(0.714963 0.118893 -1.37156e-19)
(0.438448 0.069608 -1.81619e-20)
(0.190335 0.0294367 0)
(0.0396548 0.00624748 -1.24881e-24)
(-0.0060383 -0.000882526 0)
(0.264291 0.0532665 3.89062e-20)
(1.1204 0.223518 -2.10699e-20)
(1.30947 0.273658 -1.89347e-20)
(1.35253 0.293462 8.44286e-21)
(1.32323 0.303255 -1.442e-20)
(1.26629 0.305742 7.1331e-20)
(1.20923 0.305638 3.51349e-20)
(1.15272 0.302109 0)
(1.09655 0.293549 -1.15239e-19)
(1.04181 0.278492 0)
(0.997377 0.258905 -5.19225e-20)
(0.969434 0.239995 -6.45846e-20)
(0.955732 0.223959 -3.8991e-20)
(0.941633 0.208533 -4.75892e-20)
(0.871571 0.183884 0)
(0.681875 0.136774 0)
(0.416663 0.0805412 -1.18599e-19)
(0.182577 0.0345143 2.34909e-20)
(0.0374083 0.00690312 -1.37258e-20)
(-0.00693114 -0.00140554 -1.60641e-20)
(0.257018 0.0653594 -5.46969e-21)
(1.13192 0.281901 0)
(1.32211 0.339292 3.36053e-20)
(1.36175 0.359693 2.26158e-20)
(1.32806 0.365702 3.4293e-20)
(1.26789 0.363757 0)
(1.20719 0.359228 3.3886e-20)
(1.14662 0.351384 6.63077e-20)
(1.08615 0.338558 5.8777e-20)
(1.02698 0.319238 1.10049e-19)
(0.978637 0.295847 0)
(0.947742 0.274045 -1.39696e-19)
(0.931508 0.255874 -8.45261e-20)
(0.914081 0.238254 -5.00623e-20)
(0.842651 0.209808 3.08901e-19)
(0.659456 0.15699 3.68141e-20)
(0.409078 0.0947891 1.72896e-19)
(0.187137 0.0422025 -8.19103e-19)
(0.0429759 0.00932243 4.85067e-19)
(-0.00583962 -0.00149207 -5.84583e-19)
(0.250103 0.0763198 1.0067e-20)
(1.1343 0.338366 6.40025e-22)
(1.32726 0.404011 -2.33938e-21)
(1.36459 0.425489 -1.87783e-20)
(1.32768 0.427943 -2.65558e-20)
(1.26507 0.421739 1.79245e-21)
(1.20147 0.412942 -3.68509e-20)
(1.13757 0.400889 6.83398e-20)
(1.07342 0.383854 -1.26788e-19)
(1.01029 0.360232 0)
(0.958327 0.332937 -6.3091e-20)
(0.924672 0.308277 -1.62041e-21)
(0.906163 0.288224 -9.28072e-20)
(0.886062 0.268621 0)
(0.815386 0.236549 -6.71581e-20)
(0.641943 0.179267 -1.59746e-19)
(0.408003 0.111277 4.27149e-19)
(0.196467 0.0523799 -4.20211e-19)
(0.0526975 0.0137151 5.97322e-19)
(-0.00329611 -0.00103754 -6.20618e-19)
(0.244357 0.0864925 -4.10223e-22)
(1.13104 0.392256 3.67641e-21)
(1.32702 0.466812 3.85671e-22)
(1.36246 0.489625 5.56697e-21)
(1.32312 0.488901 -1.30237e-20)
(1.25864 0.478717 0)
(1.19273 0.465928 -3.33241e-20)
(1.12606 0.4499 -7.13705e-20)
(1.05871 0.428823 -6.56869e-20)
(0.992017 0.401013 0)
(0.936758 0.370055 -6.53681e-20)
(0.900591 0.342887 -8.1672e-20)
(0.879936 0.321037 1.00938e-19)
(0.857666 0.299374 -6.15989e-20)
(0.788185 0.264176 -2.94336e-19)
(0.625754 0.202905 1.75481e-19)
(0.407742 0.129105 5.24636e-20)
(0.206456 0.0641755 0)
(0.0631204 0.0194797 -5.79826e-19)
(-0.000299374 -0.000165672 -2.12822e-20)
(0.239867 0.0961879 4.63928e-21)
(1.1244 0.443372 -6.69215e-21)
(1.32285 0.527205 -1.51529e-21)
(1.35658 0.551384 2.28798e-20)
(1.31533 0.547894 -4.42827e-20)
(1.24941 0.5341 6.22893e-20)
(1.18163 0.517656 7.19453e-20)
(1.1126 0.497936 -1.14013e-19)
(1.04243 0.473046 4.13508e-20)
(0.972543 0.441283 -2.71384e-19)
(0.914344 0.406938 -7.43892e-20)
(0.87588 0.377297 0)
(0.85313 0.353374 1.09689e-19)
(0.829043 0.329637 1.31935e-19)
(0.760985 0.291609 1.5853e-19)
(0.608727 0.226766 -1.91146e-19)
(0.405123 0.147655 -5.66798e-20)
(0.213706 0.0769249 6.65552e-20)
(0.0720589 0.0259274 0)
(0.00254768 0.000921084 -4.63148e-20)
(0.236526 0.105564 -7.22509e-20)
(1.11593 0.491816 4.0135e-20)
(1.31605 0.585331 3.29577e-21)
(1.34793 0.61043 1.1063e-20)
(1.30509 0.604526 -1.75848e-20)
(1.23807 0.587498 -4.05985e-21)
(1.16876 0.567776 -7.90344e-20)
(1.0977 0.544675 -4.13671e-20)
(1.02502 0.516233 -1.14434e-19)
(0.95225 0.480779 2.86726e-22)
(0.891371 0.443079 -2.32414e-19)
(0.850766 0.410633 1.98168e-19)
(0.8261 0.384451 -1.20851e-19)
(0.800623 0.358812 1.45895e-19)
(0.733827 0.318078 0)
(0.590278 0.249246 -1.03941e-19)
(0.399344 0.165606 -1.34775e-22)
(0.217081 0.0892444 -2.90808e-19)
(0.0781511 0.0321387 -4.27068e-20)
(0.00478493 0.00201283 0)
(0.234198 0.11475 0)
(1.10657 0.5378 4.64118e-20)
(1.30729 0.640757 1.85092e-20)
(1.33727 0.666639 -7.09497e-21)
(1.29307 0.658596 -2.53479e-20)
(1.2252 0.638704 0)
(1.15463 0.616057 -3.44114e-20)
(1.0818 0.589887 -1.09043e-21)
(1.00684 0.55819 2.45306e-19)
(0.931416 0.519266 -3.70939e-20)
(0.867964 0.478077 -1.68029e-19)
(0.82534 0.442593 1.02765e-19)
(0.799108 0.414335 -2.17823e-21)
(0.772443 0.387025 1.54977e-19)
(0.70619 0.34296 9.62847e-20)
(0.57007 0.269898 -2.24677e-19)
(0.390256 0.182125 2.66352e-19)
(0.215945 0.100151 7.88422e-20)
(0.0806843 0.0373425 3.25339e-19)
(0.00618858 0.00290995 -8.6889e-19)
(0.232831 0.123878 -2.43967e-20)
(1.09696 0.581517 3.28342e-20)
(1.29739 0.693282 -2.21255e-20)
(1.32518 0.719984 -5.70088e-22)
(1.27983 0.710007 0)
(1.21129 0.687593 -2.52324e-20)
(1.13967 0.662352 1.17083e-19)
(1.06526 0.633423 8.99466e-20)
(0.988221 0.598777 0)
(0.910244 0.556579 -5.36306e-19)
(0.844236 0.511844 4.54794e-19)
(0.799722 0.47346 0)
(0.772258 0.443473 1.41358e-19)
(0.744296 0.414232 -2.19326e-21)
(0.677739 0.365911 -3.07274e-19)
(0.547861 0.28844 1.20392e-19)
(0.377863 0.19645 0)
(0.210796 0.108811 4.25429e-19)
(0.0797856 0.0409421 0)
(0.00672634 0.00346158 -4.11216e-19)
(0.232244 0.133026 2.94349e-20)
(1.08758 0.623075 4.30523e-20)
(1.28654 0.742995 -2.1894e-20)
(1.31215 0.770463 0)
(1.26579 0.758748 -1.66141e-20)
(1.19674 0.734121 0)
(1.12421 0.706576 -1.12851e-19)
(1.04839 0.675196 -4.05841e-20)
(0.969426 0.637923 4.27177e-20)
(0.888945 0.592666 -2.65286e-19)
(0.82034 0.54454 4.67724e-20)
(0.774041 0.503618 0)
(0.745472 0.471961 -3.01606e-19)
(0.715817 0.439811 2.18634e-21)
(0.648498 0.386369 0)
(0.523814 0.304348 1.65778e-21)
(0.362266 0.207839 3.88779e-19)
(0.201917 0.114764 -3.67655e-19)
(0.0761492 0.0427035 1.08313e-19)
(0.0064416 0.00357182 0)
(0.23211 0.142056 0)
(1.07866 0.662598 5.22316e-20)
(1.27513 0.790044 3.27033e-20)
(1.29858 0.818129 -2.46178e-21)
(1.25131 0.804846 -1.72706e-21)
(1.18186 0.778273 -5.60169e-20)
(1.10857 0.748698 4.29114e-20)
(1.03148 0.715167 -4.88576e-20)
(0.950697 0.675584 1.91853e-19)
(0.86771 0.627547 -4.23448e-19)
(0.796462 0.576374 -3.69974e-21)
(0.748386 0.533222 -1.31311e-19)
(0.718524 0.499434 4.8963e-19)
(0.686744 0.463125 -2.55417e-21)
(0.618617 0.404053 -2.38353e-19)
(0.498339 0.317509 -4.26006e-19)
(0.343937 0.216208 0)
(0.189804 0.117846 0)
(0.070301 0.0428116 1.16908e-19)
(0.00568414 0.00338275 -6.86234e-20)
(0.232552 0.151096 4.17412e-20)
(1.07021 0.699911 -1.19293e-19)
(1.2635 0.834487 -3.52124e-20)
(1.28477 0.863049 0)
(1.23666 0.848352 -1.54678e-21)
(1.16691 0.820066 -4.63058e-20)
(1.09298 0.788717 1.00312e-19)
(1.01474 0.753329 1.88983e-19)
(0.932237 0.711759 2.48051e-19)
(0.846742 0.661278 -3.44865e-19)
(0.772795 0.6075 -3.902e-19)
(0.722791 0.562183 3.51013e-19)
(0.69124 0.525397 0)
(0.657049 0.483833 -1.08074e-19)
(0.588342 0.419098 -2.57932e-19)
(0.471774 0.327951 -3.0593e-19)
(0.323176 0.221304 -3.626e-19)
(0.17493 0.118011 1.07169e-19)
(0.0624722 0.0411743 -6.3018e-20)
(0.00454151 0.00289488 2.62042e-22)
(0.233124 0.160051 0)
(1.06239 0.735593 0)
(1.25184 0.876435 2.55252e-21)
(1.27093 0.905317 0)
(1.22208 0.88935 -8.67675e-21)
(1.1521 0.859553 2.71113e-20)
(1.07762 0.826656 0)
(0.998368 0.789697 2.17909e-20)
(0.914224 0.746453 4.11828e-19)
(0.826237 0.693918 -7.92732e-19)
(0.749501 0.637978 0)
(0.69727 0.5903 -2.2569e-19)
(0.663529 0.549507 -3.04013e-21)
(0.626836 0.50197 -2.41918e-21)
(0.557896 0.431679 2.75388e-19)
(0.444345 0.335488 -2.69064e-22)
(0.300198 0.222958 -7.80437e-19)
(0.157945 0.115218 2.30452e-19)
(0.0535964 0.0380354 6.80995e-20)
(0.00319393 0.00217623 0)
(0.233733 0.16885 -1.67764e-19)
(1.05493 0.769586 -8.11171e-20)
(1.24022 0.915951 -1.05394e-19)
(1.25722 0.945043 1.02352e-19)
(1.20772 0.927908 -3.13206e-20)
(1.13758 0.896789 0)
(1.06266 0.862562 5.77468e-20)
(0.982494 0.824295 -4.89866e-20)
(0.896801 0.779685 3.86609e-21)
(0.806368 0.725517 5.8581e-20)
(0.726715 0.667796 5.03881e-19)
(0.671826 0.61742 -7.90155e-20)
(0.635382 0.571734 -3.01387e-19)
(0.596203 0.517774 -1.25831e-19)
(0.527314 0.441716 1.49782e-19)
(0.41626 0.339722 -8.4147e-23)
(0.275953 0.221013 2.10185e-19)
(0.13998 0.109767 -4.9556e-19)
(0.044426 0.0337865 5.85738e-19)
(0.00180009 0.00132463 8.53996e-20)
(0.23421 0.177371 6.39737e-20)
(1.04784 0.802003 -4.58944e-20)
(1.22879 0.953134 6.23916e-21)
(1.24378 0.982344 6.66972e-20)
(1.1937 0.964132 1.34935e-20)
(1.12346 0.931843 -4.25016e-20)
(1.0482 0.896485 1.5169e-20)
(0.967234 0.85715 -2.02725e-19)
(0.880093 0.811456 -4.50163e-19)
(0.787271 0.756077 -4.70365e-19)
(0.704561 0.696913 0)
(0.646506 0.643515 -3.47357e-19)
(0.606834 0.592325 4.34365e-19)
(0.565085 0.531542 0)
(0.496357 0.448949 -3.20492e-19)
(0.387705 0.340153 1.91427e-19)
(0.251431 0.215271 -2.25776e-19)
(0.12236 0.102089 -2.6653e-19)
(0.0357805 0.0289393 -4.71564e-19)
(0.000515031 0.000457618 -3.67636e-19)
(0.235004 0.185749 -7.25589e-20)
(1.04098 0.832821 4.91084e-20)
(1.21759 0.988058 1.12156e-19)
(1.23068 1.01731 9.80251e-20)
(1.18012 0.998114 -2.49039e-20)
(1.10985 0.964802 -1.6995e-20)
(1.03433 0.928482 5.16624e-20)
(0.95267 0.888303 -2.05856e-19)
(0.864181 0.841791 -2.65531e-19)
(0.769063 0.785601 4.90175e-19)
(0.683141 0.725283 1.10381e-18)
(0.621404 0.668686 0)
(0.57793 0.611699 0)
(0.533244 0.543637 -1.44835e-19)
(0.464496 0.45308 0)
(0.358654 0.335913 4.11622e-19)
(0.227786 0.204996 4.85459e-19)
(0.107024 0.0923032 0)
(0.0289119 0.0239998 0)
(-0.000513965 -0.000299292 3.94864e-19)
(0.235433 0.193676 8.28202e-20)
(1.03437 0.862027 6.69371e-20)
(1.20669 1.02085 8.16897e-20)
(1.21798 1.05006 -9.53762e-20)
(1.16704 1.02996 -3.40073e-20)
(1.09679 0.995742 9.09021e-21)
(1.0211 0.958617 -6.92664e-20)
(0.938859 0.917782 -1.6213e-22)
(0.849141 0.870693 -5.0138e-21)
(0.751826 0.814064 -5.14226e-21)
(0.662577 0.752873 5.6781e-19)
(0.596662 0.69311 0)
(0.548766 0.630357 4.3921e-19)
(0.500363 0.554505 3.0851e-19)
(0.430838 0.454042 7.47477e-19)
(0.328433 0.325795 2.215e-19)
(0.20613 0.187962 -2.61352e-19)
(0.0978126 0.0781567 -1.53454e-19)
(0.0289519 0.0180672 0)
(0.000415008 -0.000288463 4.24049e-19)
(0.236153 0.201603 -1.87409e-19)
(1.02798 0.889715 0)
(1.19606 1.05155 9.67375e-20)
(1.20571 1.08069 -8.1353e-20)
(1.1545 1.05975 4.77701e-20)
(1.08432 1.02475 5.11751e-21)
(1.00857 0.98695 1.26104e-19)
(0.925832 0.945621 -1.75407e-20)
(0.835009 0.898169 0)
(0.735625 0.841417 -5.37094e-19)
(0.642985 0.779656 -1.23043e-18)
(0.572468 0.717007 5.0919e-20)
(0.519517 0.648786 6.04736e-19)
(0.466212 0.564709 0)
(0.394195 0.452377 5.04154e-19)
(0.294817 0.308998 0)
(0.18481 0.159372 0)
(0.0986199 0.0469936 -1.66026e-19)
(0.0560349 0.000274091 0)
(0.0284044 0.0118665 1.13586e-19)
(0.236485 0.20892 -2.10081e-19)
(1.02177 0.916228 0)
(1.18573 1.08037 1.61477e-19)
(1.19382 1.10944 0)
(1.14247 1.08777 -2.9531e-20)
(1.0724 1.05212 0)
(0.996668 1.0138 4.88597e-21)
(0.913495 0.972161 2.77454e-20)
(0.821667 0.924584 3.30578e-20)
(0.720288 0.868034 -5.86687e-19)
(0.624188 0.80607 3.66453e-20)
(0.548638 0.74109 4.10473e-19)
(0.489853 0.667838 5.89458e-19)
(0.42994 0.575001 7.9831e-20)
(0.35263 0.44959 3.94987e-19)
(0.253116 0.286697 0)
(0.152454 0.116067 5.51537e-19)
(0.0809224 -0.00474357 -3.22997e-19)
(0.043517 0.0456905 3.74153e-19)
(-0.0690389 0.434929 -4.40899e-19)
(0.236792 0.216032 1.74387e-19)
(1.0155 0.941339 2.6841e-19)
(1.17559 1.10764 0)
(1.18217 1.13674 5.10437e-21)
(1.13076 1.11459 8.80204e-20)
(1.06075 1.07853 -4.91093e-20)
(0.985081 1.03996 3.86902e-20)
(0.901443 0.998339 0)
(0.808591 0.95103 2.15299e-19)
(0.705153 0.895212 -3.01932e-20)
(0.605276 0.833577 0)
(0.523967 0.767094 0)
(0.458017 0.689171 5.26842e-19)
(0.389422 0.58632 -2.46903e-19)
(0.302993 0.447816 -3.9962e-19)
(0.198493 0.262996 0)
(0.0887248 0.115177 2.77943e-19)
(0.00501111 0.439959 -3.21491e-19)
(0.0340438 1.88688 -1.75263e-19)
(0.0634618 2.80993 -2.24619e-19)
(0.236909 0.222293 -1.31445e-19)
(1.00935 0.965231 -3.45213e-19)
(1.16565 1.13332 9.64155e-20)
(1.17076 1.16245 8.00747e-20)
(1.1194 1.13997 0)
(1.04944 1.1037 -4.56252e-20)
(0.974004 1.06512 4.52762e-20)
(0.889863 1.02372 -1.2953e-20)
(0.796044 0.976989 3.21828e-20)
(0.690586 0.922315 5.55143e-19)
(0.586831 0.861518 6.17157e-19)
(0.499413 0.794719 4.56685e-19)
(0.424941 0.712891 5.28611e-19)
(0.346315 0.597585 -5.78221e-19)
(0.251056 0.450252 -6.023e-19)
(0.131913 0.298504 0)
(0.04603 0.829841 0)
(0.102752 2.54931 1.52768e-19)
(0.103768 3.20013 0)
(0.106882 3.38769 3.63216e-19)
(0.239591 0.227982 0)
(1.00392 0.988095 0)
(1.1557 1.15728 0)
(1.15935 1.1864 2.42158e-20)
(1.10806 1.16368 8.129e-20)
(1.03826 1.12749 -4.69293e-20)
(0.963335 1.08918 2.6066e-20)
(0.878712 1.04821 -1.2353e-20)
(0.783994 1.00233 2.63049e-19)
(0.676613 0.949193 -9.48607e-21)
(0.568998 0.889802 1.21326e-18)
(0.475323 0.823908 -5.27035e-20)
(0.390856 0.740083 6.36976e-20)
(0.303206 0.606402 8.35102e-20)
(0.18855 0.464842 -4.12454e-21)
(0.10367 0.962159 1.82771e-21)
(0.142222 2.71609 -8.02891e-19)
(0.151097 3.29189 -3.01365e-19)
(0.139595 3.42619 1.54722e-19)
(0.126444 3.4485 -1.71325e-19)
(0.157165 0.184266 7.80314e-20)
(0.993233 1.0127 0)
(1.14542 1.17975 -1.95134e-19)
(1.14848 1.20902 -2.16404e-19)
(1.0976 1.18654 1.92127e-19)
(1.02813 1.1506 5.44929e-20)
(0.953046 1.11218 -2.25729e-20)
(0.868122 1.0719 1.25134e-19)
(0.772618 1.0272 -2.1223e-19)
(0.663511 0.976003 0)
(0.552182 0.918646 5.92482e-19)
(0.452308 0.854612 -3.70625e-19)
(0.356256 0.7738 0)
(0.254978 0.615729 7.73864e-20)
(0.151793 0.773991 1.86314e-19)
(0.157338 2.48589 -2.17996e-19)
(0.216352 3.32339 2.44411e-19)
(0.195593 3.44 1.30603e-19)
(0.162449 3.46155 1.46876e-19)
(0.140339 3.47181 2.30322e-19)
(0.283105 0.267037 -1.42327e-19)
(0.978293 1.02291 0)
(1.12745 1.20529 2.11886e-19)
(1.134 1.24086 2.39469e-19)
(1.08069 1.21974 -2.13565e-19)
(1.01062 1.18423 -7.8421e-20)
(0.934653 1.14748 6.94384e-22)
(0.849251 1.10845 9.94281e-21)
(0.752552 1.06594 1.96347e-19)
(0.640909 1.01844 4.6761e-19)
(0.524192 0.96582 3.29325e-20)
(0.413772 0.906285 3.26354e-19)
(0.295282 0.820891 5.89451e-20)
(0.215083 0.946497 -7.55337e-20)
(0.231516 2.33556 -1.72479e-19)
(0.293448 3.32659 1.62692e-19)
(0.276398 3.4701 -1.78236e-19)
(0.240718 3.49178 -1.0281e-19)
(0.203268 3.51933 -8.25251e-20)
(0.15166 3.51314 -9.82655e-21)
(0.271087 0.263952 0)
(0.976153 1.04584 6.13379e-20)
(1.11944 1.2289 -4.37481e-20)
(1.12378 1.26453 -2.85531e-20)
(1.07021 1.24304 -1.48047e-19)
(1.00019 1.20776 8.12131e-20)
(0.923935 1.17121 7.89993e-21)
(0.838377 1.13299 8.51759e-21)
(0.741256 1.09196 -2.00836e-19)
(0.628459 1.04705 -1.40365e-20)
(0.509023 0.998169 -1.0568e-18)
(0.394103 0.943114 4.65044e-20)
(0.28291 0.888188 -5.53192e-20)
(0.256415 1.48401 -6.93091e-20)
(0.331781 3.09715 1.79255e-20)
(0.352283 3.46829 6.27964e-22)
(0.311623 3.52466 2.43706e-19)
(0.274056 3.55084 1.14149e-19)
(0.225177 3.57425 -1.86488e-20)
(0.166051 3.57015 -4.13794e-20)
(0.254693 0.262332 1.5572e-19)
(0.972428 1.07145 4.19086e-19)
(1.11098 1.25466 -1.25719e-19)
(1.11301 1.28961 -1.08102e-19)
(1.05918 1.2677 0)
(0.989349 1.23248 1.44831e-19)
(0.913095 1.19621 2.66962e-20)
(0.827655 1.15876 6.98285e-21)
(0.730426 1.11927 -2.25235e-20)
(0.616964 1.07711 -4.11429e-19)
(0.495592 1.03229 -4.8206e-19)
(0.378129 0.982026 -3.77265e-19)
(0.281493 1.01798 -4.15407e-19)
(0.325131 2.19244 4.30456e-19)
(0.418211 3.37677 3.53062e-19)
(0.396333 3.52652 0)
(0.350541 3.57124 0)
(0.312295 3.61198 -1.27144e-20)
(0.261072 3.67229 0)
(0.17819 3.64839 -1.54254e-21)
(0.243828 0.264195 -2.33753e-19)
(0.966712 1.09816 -3.5641e-19)
(1.10112 1.28165 0)
(1.10089 1.31549 6.11564e-21)
(1.0469 1.29299 -1.60077e-19)
(0.977397 1.25769 2.33839e-19)
(0.90148 1.22175 2.61711e-20)
(0.816358 1.18496 2.10469e-21)
(0.719252 1.14692 -1.32481e-19)