/*--------------------------------*- C++ -*----------------------------------*\
| =========                 |                                                 |
| \\      /  F ield         | OpenFOAM: The Open Source CFD Toolbox           |
|  \\    /   O peration     | Version:  2112                                  |
|   \\  /    A nd           | Website:  www.openfoam.com                      |
|    \\/     M anipulation  |                                                 |
\*---------------------------------------------------------------------------*/
FoamFile
{
    version     2.0;
    format      ascii;
    arch        "LSB;label=32;scalar=64";
    class       volScalarField;
    location    "37";
    object      p;
}
// * * * * * * * * * * * * * * * * * * * * * * * * * * * * * * * * * * * * * //

dimensions      [0 2 -2 0 0 0 0];

internalField   nonuniform List<scalar> 
400
(
1.3311324e-08
-0.000672861
-0.0013853385
-0.0019426969
-0.0022199905
-0.0021564871
-0.0017277815
-0.00092619024
0.0002354296
0.0017074137
0.0033872954
0.005112207
0.0066734875
0.0078491071
0.0084583897
0.008423683
0.0078133981
0.0068445229
0.005861309
0.0052989567
0.0006578536
-4.0513589e-05
-0.00056964703
-0.00094061249
-0.0011108508
-0.0010399095
-0.0007057786
-9.5532193e-05
0.0007891114
0.0019161951
0.0032095915
0.0045547117
0.0057819734
0.0067162681
0.0072144326
0.0072145348
0.0067699616
0.006052778
0.0053105369
0.004738497
0.0014237113
0.0004406614
-0.0001165885
-0.00045323099
-0.00061479586
-0.00058479954
-0.00034657029
0.00011975205
0.0008284678
0.0017699123
0.0028942938
0.0040981667
0.0052282493
0.0061109917
0.006593889
0.0065976796
0.0061557482
0.0054215188
0.0045937519
0.003748238
0.0020142062
0.00068169625
1.6779442e-05
-0.00035884297
-0.00057153816
-0.00062654839
-0.00051007336
-0.00019062431
0.00036850725
0.0011843911
0.0022299159
0.0034174274
0.0045913706
0.0055569547
0.0061235728
0.0061665771
0.0056836314
0.0048170566
0.0037472948
0.0024735991
0.0021672765
0.00049612613
-0.00029625053
-0.00074869724
-0.0010582448
-0.0012452605
-0.0012927382
-0.0011512939
-0.00075504546
-5.3097428e-05
0.00095702534
0.0022102793
0.0035447034
0.0047326612
0.0055218478
0.005709892
0.005229294
0.0042016088
0.0028061846
0.00098396031
0.0016539667
-0.00031447293
-0.00123878
-0.0017992936
-0.0022526561
-0.0026279031
-0.0028986118
-0.0029910716
-0.00280253
-0.0022376768
-0.0012510991
0.00013088549
0.0017446357
0.0033270988
0.0045416372
0.0050657793
0.0047175006
0.0035662029
0.0017895934
-0.0007259238
0.000287029
-0.0019195664
-0.0029729928
-0.003671375
-0.0043202908
-0.004953198
-0.0055301167
-0.0059479442
-0.006058992
-0.0057073763
-0.0047757171
-0.0032586993
-0.0012665142
0.00090717025
0.0028231195
0.0039868341
0.0040250974
0.0028877113
0.00071537876
-0.0026805027
-0.0020764247
-0.0044511886
-0.0056268009
-0.006492317
-0.0073929136
-0.0083657604
-0.0093569238
-0.010231781
-0.010790958
-0.010804828
-0.010063355
-0.0084617596
-0.0060407662
-0.0030832193
-0.00012631223
0.002112618
0.0029638247
0.0021355803
-0.00036603623
-0.0048726135
-0.0055241621
-0.0079921092
-0.0092779184
-0.010333787
-0.011537993
-0.012935411
-0.014462712
-0.015956331
-0.017162464
-0.017766022
-0.017438073
-0.015919473
-0.013122963
-0.0092517647
-0.0048990141
-0.0010300217
0.0012694048
0.0012777593
-0.0013339621
-0.0072016813
-0.01007691
-0.01256509
-0.013936659
-0.015184004
-0.016718381
-0.018602619
-0.0207742
-0.023048784
-0.025121708
-0.02658636
-0.026969351
-0.025812946
-0.022845688
-0.018074461
-0.012051101
-0.0059519602
-0.0013707443
0.00030058908
-0.0019472076
-0.0093822293
-0.01568499
-0.018132411
-0.019537548
-0.020926804
-0.022757745
-0.025129882
-0.027997007
-0.031166418
-0.034291501
-0.036876879
-0.038294191
-0.037844289
-0.035065867
-0.029601482
-0.02182251
-0.012985586
-0.0051849819
-0.00071575564
-0.001764204
-0.01079226
-0.022243606
-0.024613045
-0.025945591
-0.027334946
-0.029324158
-0.032079243
-0.03558895
-0.039664655
-0.043927291
-0.047801333
-0.050530215
-0.051236498
-0.048956889
-0.043143559
-0.033769028
-0.021926354
-0.010036891
-0.0014154499
-9.8716408e-06
-0.010225624
-0.02964122
-0.03192391
-0.032978765
-0.034079864
-0.035939487
-0.038831523
-0.042795636
-0.047651594
-0.052990539
-0.058163603
-0.062284271
-0.064265554
-0.062875175
-0.0571122
-0.046476754
-0.031649098
-0.01503787
-0.00086439547
0.0046467593
-0.0055215409
-0.037866003
-0.040048519
-0.040440175
-0.040752546
-0.042015023
-0.04465305
-0.048758213
-0.054144085
-0.060356047
-0.066665357
-0.072060702
-0.0752683
-0.074811379
-0.069269281
-0.057628319
-0.039961517
-0.018247978
0.0027890341
0.014445155
0.0069075459
-0.04723059
-0.049134342
-0.048140597
-0.046882363
-0.046905517
-0.048798674
-0.052668291
-0.058276038
-0.065076129
-0.072232018
-0.078595784
-0.082712336
-0.082880224
-0.077309404
-0.06452395
-0.043934963
-0.016747993
0.012502946
0.032938784
0.032408954
-0.058896817
-0.05963987
-0.055883868
-0.051941101
-0.049972382
-0.050629896
-0.053928643
-0.059495345
-0.066611877
-0.074285318
-0.081191188
-0.085679421
-0.085831811
-0.079522207
-0.06487611
-0.040689274
-0.0072409235
0.032139372
0.064981452
0.077749184
-0.076226556
-0.072613792
-0.063516096
-0.055435336
-0.05072506
-0.049781649
-0.052312368
-0.057664377
-0.064891831
-0.072774987
-0.079779385
-0.084036765
-0.08339167
-0.075348975
-0.057602684
-0.028375147
0.012933326
0.065396478
0.11555151
0.15150623
-0.10809224
-0.089556504
-0.07123384
-0.057232926
-0.049072091
-0.046330224
-0.048077288
-0.053202626
-0.060434637
-0.06829588
-0.075027411
-0.078526932
-0.076389024
-0.06580969
-0.043865491
-0.0078184548
0.044393668
0.11299815
0.18838043
0.27186077
-0.17684543
-0.10828982
-0.076202635
-0.054651287
-0.042992382
-0.038998031
-0.040570523
-0.045928061
-0.053441556
-0.061438376
-0.068027603
-0.070962576
-0.06755115
-0.05473985
-0.029148826
0.013563594
0.078146955
0.17006436
0.28949547
0.47421822
-0.37208337
-0.12470842
-0.054973098
-0.031962558
-0.022063581
-0.020300535
-0.024359469
-0.031958016
-0.041261578
-0.050640905
-0.058316919
-0.062187482
-0.059782572
-0.048056826
-0.022658541
0.021474199
0.092818718
0.21015277
0.40288842
0.77640929
)
;

boundaryField
{
    movingWall
    {
        type            zeroGradient;
    }
    fixedWalls
    {
        type            zeroGradient;
    }
    frontAndBack
    {
        type            empty;
    }
}


// ************************************************************************* //
