/*--------------------------------*- C++ -*----------------------------------*\
| =========                 |                                                 |
| \\      /  F ield         | OpenFOAM: The Open Source CFD Toolbox           |
|  \\    /   O peration     | Version:  2112                                  |
|   \\  /    A nd           | Website:  www.openfoam.com                      |
|    \\/     M anipulation  |                                                 |
\*---------------------------------------------------------------------------*/
FoamFile
{
    version     2.0;
    format      ascii;
    arch        "LSB;label=32;scalar=64";
    class       surfaceScalarField;
    location    "37";
    object      phi_0;
}
// * * * * * * * * * * * * * * * * * * * * * * * * * * * * * * * * * * * * * //

dimensions      [0 3 -1 0 0 0 0];

oriented        oriented;

internalField   nonuniform List<scalar> 
760
(
1.27031e-05
-1.2703255e-05
-2.8723052e-05
4.1426152e-05
-0.00012229198
9.3568924e-05
-0.00025039691
0.00012810494
-0.00039607664
0.00014567973
-0.0005453938
0.00014931716
-0.00068627531
0.00014088151
-0.00080689675
0.00012062144
-0.00089495766
8.806091e-05
-0.0009383959
4.3438244e-05
-0.00092727944
-1.1116476e-05
-0.00085686601
-7.0413473e-05
-0.00073043216
-0.00012643387
-0.00056134342
-0.00016908873
-0.00037276107
-0.00018858232
-0.00019447416
-0.00017828685
-5.6521815e-05
-0.00013795226
1.9614592e-05
-7.6136332e-05
3.0411387e-05
-1.0796774e-05
3.0411375e-05
-4.3182813e-05
3.0479558e-05
-0.0002045666
0.00020280994
-0.00046832588
0.0003573282
-0.00080071023
0.00046048929
-0.0011673542
0.00051232369
-0.0015364544
0.00051841733
-0.0018782335
0.00048266069
-0.0021636888
0.00040607669
-0.0023645512
0.00028892333
-0.0024553581
0.0001342451
-0.0024181507
-4.8323915e-05
-0.0022453653
-0.00024319883
-0.001947562
-0.00042423716
-0.001554473
-0.00056217778
-0.0011143234
-0.00062873178
-0.00068747563
-0.00060513457
-0.00033452576
-0.00049090209
-0.00010089665
-0.00030976547
-1.5518706e-06
-0.00011014158
2.8859483e-05
-0.00011002747
0.00014050702
-0.00040303343
0.00049581591
-0.00083139248
0.00078568725
-0.0013456245
0.00097472132
-0.0018986088
0.001065308
-0.0024465936
0.0010664021
-0.0029480473
0.00098411438
-0.0033626348
0.00082066427
-0.0036519072
0.0005781957
-0.0037823337
0.00026467159
-0.0037298381
-0.00010081951
-0.0034858241
-0.00048721278
-0.0030632829
-0.00084677833
-0.002499999
-0.0011254618
-0.0018582376
-0.0012704933
-0.0012181457
-0.0012452265
-0.00066373725
-0.0010453106
-0.00026308979
-0.00071041301
-4.795635e-05
-0.00032527505
-1.9096834e-05
-0.00017344052
0.00031394754
-0.00059329588
0.00091567127
-0.0011777026
0.001370094
-0.0018583817
0.0016554005
-0.0025769248
0.001783851
-0.0032813276
0.0017708049
-0.0039228156
0.0016256024
-0.0044541592
0.0013520079
-0.0048302823
0.00095431885
-0.0050112548
0.00044564408
-0.0049672713
-0.00014480303
-0.0046844458
-0.00077003819
-0.0041723585
-0.0013588656
-0.003469133
-0.0018286874
-0.0026440133
-0.0020956131
-0.001793203
-0.0020960369
-0.0010258516
-0.0018126622
-0.00044021532
-0.0012960493
-9.6723938e-05
-0.0006687664
-0.00011582073
-0.0002297969
0.00054374444
-0.00076507936
0.0014509537
-0.0014914945
0.0020965091
-0.0023225615
0.0024864675
-0.0031901593
0.0026514488
-0.0040368453
0.0026174909
-0.0048100625
0.0023988195
-0.0054589921
0.0020009376
-0.0059342093
0.0014295361
-0.0061898396
0.00070127432
-0.0061884188
-0.00014622377
-0.0059055877
-0.0010528693
-0.0053404225
-0.0019240307
-0.0045231203
-0.0026459896
-0.0035229795
-0.0030957538
-0.0024498067
-0.0031692097
-0.0014425404
-0.0028199284
-0.00064123167
-0.002097358
-0.00014883699
-0.001161161
-0.00026465771
-0.00027729944
0.00082104389
-0.00091155225
0.0020852065
-0.0017607402
0.002945697
-0.0027228235
0.0034485508
-0.0037222306
0.0036508559
-0.0046987178
0.0035939781
-0.0055989171
0.0032990188
-0.0063712187
0.0027732391
-0.0069637565
0.0020220739
-0.0073248638
0.0010623817
-0.007407485
-6.3602569e-05
-0.007171715
-0.0012886393
-0.0065989026
-0.0024968429
-0.005701689
-0.0035432031
-0.0045400246
-0.0042574181
-0.0032318454
-0.0044773888
-0.0019490222
-0.0041027517
-0.00088728823
-0.0031590921
-0.00021159433
-0.0018368549
-0.00047625203
-0.00031411698
0.0011351609
-0.0010263422
0.0027974318
-0.0019735138
0.0038928686
-0.0030417629
0.0045167999
-0.004150728
0.004759821
-0.0052399573
0.0046832074
-0.0062580883
0.0043171499
-0.0071555417
0.0036706923
-0.0078803837
0.0027469159
-0.0083768582
0.0015588562
-0.0085854043
0.00014494356
-0.008451333
-0.0014227107
-0.0079295105
-0.0030186655
-0.0070049722
-0.0044677413
-0.0057150496
-0.0055473407
-0.0041735847
-0.0060188537
-0.0025818464
-0.00569449
-0.0012041054
-0.0045368331
-0.0002945042
-0.0027464561
-0.00077075622
-0.00033824894
0.0014734098
-0.0011031704
0.0035623533
-0.0021176363
0.0049073345
-0.0032598928
0.0056590563
-0.0044474109
0.0059473391
-0.0056219661
0.0058577626
-0.006736953
0.0054321369
-0.0077479707
0.0046817101
-0.0086063779
0.003605323
-0.0092552538
0.002207732
-0.0096270171
0.00051670682
-0.0096492081
-0.0014005197
-0.0092489827
-0.003418891
-0.0083739453
-0.0053427788
-0.0070220745
-0.0068992115
-0.0052818153
-0.0077591128
-0.0033676679
-0.0076086374
-0.0016173639
-0.0062871371
-0.00040826909
-0.003955551
-0.0011790253
-0.00034815636
0.0018215662
-0.0011372156
0.0043514125
-0.0021827895
0.0059529085
-0.0033586213
0.0068348881
-0.0045822442
0.0071709619
-0.005799824
0.0070753424
-0.0069721965
0.0066045095
-0.0080636695
0.0057731833
-0.009033443
0.0045750965
-0.0098289949
0.0030032837
-0.010381276
0.0010689874
-0.010604527
-0.0011772684
-0.010400779
-0.003622639
-0.0096748969
-0.0060686608
-0.0083686765
-0.0082054319
-0.006515687
-0.0096121023
-0.0043098859
-0.0098144385
-0.0021483241
-0.0084486989
-0.00056492554
-0.0055389495
-0.0017439508
-0.00034393488
0.0021655011
-0.00112786
0.0051353375
-0.0021647105
0.006989759
-0.003325903
0.0079960807
-0.0045308037
0.0083758627
-0.0057319457
0.0082764843
-0.0069002228
0.0077727865
-0.0080123826
0.0068853432
-0.0090408269
0.005603541
-0.0099449675
0.0039074243
-0.010663395
0.0017874151
-0.011106746
-0.00073391764
-0.011163421
-0.0035659643
-0.010697129
-0.006534953
-0.0095826001
-0.0093199604
-0.0077667782
-0.011427924
-0.0053715022
-0.012209715
-0.0028071794
-0.011013022
-0.0007783692
-0.0075677597
-0.00252232
-0.0003289079
0.002494409
-0.0010824215
0.0058888511
-0.0020707773
0.0079781147
-0.0031636132
0.0090889167
-0.0042839023
0.0094961519
-0.0053928538
0.0093854358
-0.0064741409
0.0088540734
-0.0075205485
0.0079317508
-0.0085229182
0.0066059109
-0.0094603447
0.004844851
-0.010291332
0.0026184024
-0.010933227
-9.2022668e-05
-0.011283212
-0.0032159792
-0.011173633
-0.0066445316
-0.010415714
-0.01007788
-0.0088467368
-0.012996902
-0.0064557546
-0.014600697
-0.0035815275
-0.013887249
-0.0010642231
-0.010085064
-0.0035865431
-0.00031178408
0.0028061931
-0.0010206787
0.0065977458
-0.0019260998
0.0088835357
-0.0028949489
0.010057766
-0.0038568827
0.010458086
-0.0047855633
0.010314117
-0.0056807662
0.0097492763
-0.0065544555
0.0088054399
-0.007419889
0.0074713444
-0.0082818244
0.0057067866
-0.0091251547
0.0034617328
-0.0099086389
0.00069146144
-0.010527256
-0.0025973623
-0.010827013
-0.0063447742
-0.010573628
-0.010331265
-0.0094932085
-0.014077321
-0.0073911391
-0.016702766
-0.0044189149
-0.016859473
-0.0014372118
-0.013066767
-0.0050237549
-0.00031004265
0.0031162357
-0.00098036416
0.0072680674
-0.0017790477
0.0096822194
-0.0025693647
0.010848083
-0.0032945945
0.011183315
-0.0039478952
0.010967417
-0.0045499685
0.01035135
-0.0051347836
0.009390255
-0.0057399181
0.0080764786
-0.0063985223
0.0063653907
-0.0071301248
0.0041933353
-0.0079302567
0.0014915934
-0.0087388035
-0.0017888155
-0.0094303569
-0.0056532209
-0.0097685796
-0.0099930423
-0.0094003427
-0.014445558
-0.007930579
-0.01817253
-0.0052061613
-0.019583891
-0.0019026121
-0.016370316
-0.006926367
-0.00035603986
0.0034722755
-0.0010239962
0.0079360237
-0.0017042284
0.010362452
-0.0022607957
0.01140465
-0.0026657186
0.011588238
-0.0029440062
0.011245705
-0.0031442448
0.010551589
-0.0033248623
0.0095708726
-0.0035471876
0.0082988038
-0.0038710405
0.0066892434
-0.0043491657
0.0046714605
-0.0050183753
0.0021608031
-0.0058766086
-0.00093058227
-0.0068578316
-0.0046719979
-0.0077762854
-0.0090745885
-0.0082658332
-0.01395601
-0.0077687389
-0.018669624
-0.005751099
-0.021601531
-0.0024366711
-0.019684744
-0.0093630381
-0.00050826049
0.003980536
-0.0012456302
0.008673393
-0.0017958815
0.010912703
-0.0020479954
0.011656765
-0.0020325015
0.011572744
-0.0018254211
0.011038624
-0.0015121872
0.010238355
-0.0011778546
0.0092365402
-0.00090470811
0.0080256575
-0.00077371568
0.006558251
-0.00086348622
0.004761231
-0.0012473543
0.0025446712
-0.001982829
-0.00019510762
-0.0030818655
-0.0035729613
-0.0044600292
-0.0076964248
-0.0058274849
-0.012588554
-0.0065661622
-0.017930947
-0.0057684461
-0.022399247
-0.0029512247
-0.022501966
-0.012314263
-0.00086855263
0.0048490888
-0.0017629814
0.0095678214
-0.002121352
0.011271073
-0.0019368392
0.011472253
-0.001350913
0.010986818
-0.00051618189
0.010203893
0.00043705314
0.0092851192
0.0013996264
0.0082739668
0.0022723899
0.0071528939
0.0029609282
0.0058697129
0.0033691624
0.0043529968
0.0033968098
0.0025170238
0.0029385543
0.00026314786
0.0019096179
-0.0025440249
0.0002696903
-0.0060564972
-0.0018541593
-0.010464705
-0.0039515931
-0.015833513
-0.0048608327
-0.021490007
-0.0032547029
-0.024108096
-0.015568966
-0.0015910836
0.0064401725
-0.0026108504
0.010587589
-0.0025131326
0.011173354
-0.0015899
0.01054902
-0.00017216113
0.0095690797
0.0014928127
0.0085389195
0.0032329107
0.0075450214
0.0049232507
0.0065836267
0.0064630095
0.005613135
0.0077575134
0.004575209
0.008707518
0.0034029922
0.0092015047
0.0020230371
0.0091033481
0.00036130445
0.0082750957
-0.0017157725
0.0065654643
-0.0043468658
0.0039042379
-0.0078034782
0.00055895618
-0.012488231
-0.0024680531
-0.018462998
-0.0030273162
-0.023548832
-0.018596282
-0.0027183601
0.0091585321
-0.0031498639
0.011019095
-0.0018029956
0.0098264852
0.00046670596
0.0082793167
0.0030894301
0.0069463549
0.0057738196
0.0058545301
0.0083629079
0.0049559332
0.010760406
0.0041861287
0.012893501
0.0034800397
0.014690669
0.0027780414
0.016068353
0.0020253083
0.01692329
0.0011680995
0.017119717
0.00016487743
0.016490832
-0.0010868876
0.014816842
-0.0026728755
0.011846659
-0.0048332947
0.0074354935
-0.0080770663
0.0022629302
-0.013290435
-0.001272466
-0.020013436
-0.019868748
-0.0024132804
0.011571811
2.8056756e-05
0.0085777593
0.0042551391
0.0055994047
0.0084161238
0.0041183324
0.012231487
0.0031309918
0.015656267
0.0024297502
0.018686551
0.0019256492
0.021329194
0.001543485
0.023583495
0.0012257394
0.025429229
0.00093230678
0.026820172
0.0006343656
0.027677182
0.00031108898
0.027900206
-5.8145925e-05
0.027347226
-0.00053390764
0.025771633
-0.0010972823
0.022843047
-0.0019047096
0.018054771
-0.0032887893
0.011113587
-0.0063492511
0.0033886755
-0.012288525
-0.016480072
0.011571811
0.020149569
0.025748973
0.029867306
0.032998298
0.035428048
0.037353697
0.038897182
0.040122922
0.041055228
0.041689594
0.042000683
0.041942537
0.041408629
0.040311347
0.038406637
0.035117848
0.028768597
0.016480072
)
;

boundaryField
{
    movingWall
    {
        type            calculated;
        value           uniform 0;
    }
    fixedWalls
    {
        type            calculated;
        value           uniform 0;
    }
    frontAndBack
    {
        type            empty;
        value           nonuniform List<scalar> 0();
    }
}


// ************************************************************************* //
