/*--------------------------------*- C++ -*----------------------------------*\
| =========                 |                                                 |
| \\      /  F ield         | OpenFOAM: The Open Source CFD Toolbox           |
|  \\    /   O peration     | Version:  2112                                  |
|   \\  /    A nd           | Website:  www.openfoam.com                      |
|    \\/     M anipulation  |                                                 |
\*---------------------------------------------------------------------------*/
FoamFile
{
    version     2.0;
    format      ascii;
    arch        "LSB;label=32;scalar=64";
    class       volScalarField;
    location    "10";
    object      T;
}
// * * * * * * * * * * * * * * * * * * * * * * * * * * * * * * * * * * * * * //

dimensions      [0 0 0 1 0 0 0];

internalField   nonuniform List<scalar> 
10000
(
0.996687
1.0016
0.996906
0.997684
0.997835
0.997745
0.997687
0.996904
1.00155
0.996723
0.983076
0.989981
0.985906
0.987366
0.987719
0.987646
0.987368
0.985891
0.989798
0.983222
0.97257
0.978065
0.975953
0.977221
0.977666
0.977729
0.97725
0.975996
0.977985
0.972644
0.955469
0.960369
0.960323
0.961633
0.962201
0.962293
0.961694
0.960422
0.960528
0.955501
0.926098
0.931496
0.933735
0.935815
0.936764
0.93682
0.935881
0.933834
0.931754
0.926225
0.883222
0.889657
0.894172
0.897513
0.899092
0.899133
0.897588
0.894288
0.88991
0.883414
0.826385
0.834165
0.840922
0.84579
0.848161
0.848197
0.845877
0.841072
0.83441
0.826627
0.75595
0.765167
0.774081
0.780546
0.783776
0.783811
0.780651
0.77427
0.765452
0.756272
0.673971
0.684448
0.695197
0.703109
0.707142
0.707184
0.703245
0.695435
0.68479
0.674368
0.584081
0.595396
0.607431
0.616425
0.62108
0.621135
0.616598
0.607722
0.595798
0.584546
0.490927
0.5025
0.515106
0.524671
0.529672
0.529753
0.524889
0.515454
0.502971
0.491436
0.399467
0.41068
0.4231
0.432658
0.437697
0.437805
0.432922
0.423504
0.411213
0.400005
0.314221
0.324529
0.336096
0.345093
0.349886
0.350009
0.345398
0.336553
0.3251
0.314815
0.238673
0.247672
0.257879
0.265895
0.270207
0.270342
0.266236
0.258384
0.24828
0.239318
0.174913
0.182399
0.190955
0.197729
0.201413
0.201546
0.198088
0.191492
0.183035
0.175604
0.123604
0.129546
0.136373
0.141822
0.144817
0.144942
0.142183
0.136926
0.130201
0.124324
0.0842032
0.0886923
0.0938896
0.0980731
0.100396
0.100521
0.0984374
0.0944448
0.0893529
0.0849238
0.0552881
0.0585225
0.062304
0.0653714
0.0670969
0.0672238
0.0657318
0.0628461
0.059167
0.0559874
0.0349775
0.0372114
0.0398424
0.041995
0.0432269
0.0433497
0.0423396
0.0403564
0.0378203
0.0356354
0.0213169
0.0227976
0.0245513
0.0259999
0.0268493
0.0269618
0.026318
0.0250229
0.0233528
0.021918
0.0125153
0.0134554
0.014577
0.0155148
0.016081
0.016181
0.0157979
0.0149945
0.0139453
0.0130438
0.00707604
0.00764883
0.00833746
0.0089226
0.00928852
0.00937457
0.00916501
0.00869386
0.00806601
0.00752286
0.00385007
0.00418578
0.0045919
0.00494399
0.0051743
0.00524524
0.00514361
0.00488501
0.00452795
0.004215
0.00201431
0.00220326
0.00243339
0.00263788
0.00277926
0.00283528
0.00279565
0.00266535
0.00247388
0.00230213
0.00101211
0.00111408
0.00123925
0.00135381
0.0014384
0.00148064
0.00147311
0.00141554
0.00132045
0.00123148
0.000487585
0.000540199
0.000605384
0.000667128
0.000716272
0.000746503
0.000753039
0.000733728
0.000691949
0.000649466
0.000224741
0.000250575
0.000282917
0.00031476
0.000342271
0.000362656
0.000373283
0.00037201
0.000358025
0.000340511
9.88688e-05
0.000110855
0.000126025
0.000141601
0.000156261
0.000169072
0.000178951
0.000184651
0.000184298
0.000179806
4.1401e-05
4.66035e-05
5.32573e-05
6.0388e-05
6.76926e-05
7.50629e-05
8.23171e-05
8.9205e-05
9.44917e-05
9.67034e-05
1.64568e-05
1.8542e-05
2.12295e-05
2.42301e-05
2.75578e-05
3.13574e-05
3.58433e-05
4.14675e-05
4.9128e-05
5.63764e-05
1.00152
1.00702
1.00211
1.00304
1.00324
1.00323
1.00304
1.00214
1.00693
1.00154
0.98971
0.998836
0.994697
0.996283
0.996743
0.996789
0.996284
0.994817
0.998785
0.989771
0.978049
0.985759
0.984011
0.985086
0.985528
0.985498
0.98507
0.984089
0.985884
0.978004
0.960474
0.966312
0.966511
0.967534
0.968024
0.96793
0.967486
0.966445
0.966276
0.960597
0.931647
0.936878
0.93892
0.94068
0.941528
0.941468
0.940648
0.938854
0.936815
0.931838
0.889761
0.895546
0.899604
0.90255
0.903981
0.903958
0.902548
0.899605
0.895628
0.889986
0.834184
0.841048
0.847168
0.851545
0.853724
0.853725
0.851577
0.847239
0.841277
0.834475
0.765162
0.773292
0.781317
0.787194
0.790186
0.790203
0.787262
0.781457
0.773583
0.765511
0.68444
0.693719
0.70338
0.710617
0.71437
0.714402
0.710726
0.70359
0.694063
0.684847
0.595387
0.605459
0.616296
0.624557
0.628905
0.628953
0.624713
0.616573
0.605861
0.595856
0.502499
0.512857
0.524271
0.533071
0.537775
0.537827
0.533271
0.524612
0.513328
0.503037
0.41069
0.420784
0.432105
0.440907
0.44568
0.445734
0.441152
0.432506
0.421318
0.411289
0.324541
0.33387
0.344454
0.352785
0.357324
0.357407
0.353073
0.344909
0.334451
0.325178
0.247684
0.255876
0.265255
0.272716
0.2768
0.276907
0.273037
0.265751
0.256494
0.248355
0.182407
0.18925
0.197138
0.203481
0.20697
0.2071
0.203833
0.197666
0.189891
0.183102
0.129544
0.135
0.141316
0.146443
0.149282
0.149429
0.146816
0.141862
0.135652
0.130259
0.0886816
0.0928412
0.0976728
0.101616
0.103828
0.103965
0.101983
0.098218
0.0934883
0.0894035
0.0585107
0.0615303
0.0650643
0.067966
0.0696195
0.0697427
0.0683182
0.0655934
0.0621618
0.059208
0.0372036
0.0392981
0.0417694
0.0438161
0.0450027
0.0451187
0.0441512
0.0422691
0.039895
0.0378541
0.0227922
0.0241868
0.0258388
0.0272248
0.0280429
0.0281533
0.0275345
0.0262966
0.0247292
0.0233806
0.0134495
0.0143401
0.0154001
0.0163011
0.0168479
0.016947
0.0165773
0.015806
0.0148173
0.013966
0.00764227
0.00818847
0.00884218
0.00940548
0.00976112
0.00984561
0.00964276
0.0091896
0.0085948
0.00808122
0.00417976
0.00450163
0.00488866
0.00522863
0.00545351
0.00552328
0.00542472
0.00517536
0.00483595
0.00453981
0.00219836
0.00238058
0.00260066
0.00279877
0.00293736
0.00299266
0.00295427
0.00282835
0.0026461
0.00248377
0.00111047
0.00120943
0.00132951
0.00144088
0.00152412
0.00156595
0.00155884
0.00150319
0.00141287
0.00132928
0.000537781
0.000589171
0.000651871
0.000712102
0.000760637
0.000790668
0.000797309
0.000778761
0.000739501
0.000700326
0.000249104
0.000274498
0.000305666
0.000336817
0.000364071
0.000384363
0.000394994
0.00039399
0.000381402
0.000366151
0.000110048
0.000121893
0.000136521
0.00015178
0.000166325
0.000179083
0.000188925
0.000194686
0.000195252
0.00019253
4.62098e-05
5.13661e-05
5.77675e-05
6.47446e-05
7.19844e-05
7.93072e-05
8.6495e-05
9.3414e-05
9.91618e-05
0.00010298
1.83722e-05
2.04351e-05
2.30007e-05
2.59183e-05
2.91974e-05
3.29461e-05
3.73524e-05
4.30069e-05
5.11782e-05
5.92606e-05
0.996916
1.00215
0.996916
0.997735
0.997933
0.99795
0.997712
0.996914
1.00215
0.996903
0.985896
0.994765
0.990138
0.991606
0.99212
0.992193
0.991636
0.990262
0.994844
0.98588
0.975956
0.984026
0.981853
0.982783
0.983302
0.983334
0.98284
0.981995
0.984076
0.976005
0.960314
0.96648
0.966649
0.967594
0.96815
0.968149
0.967622
0.966675
0.966393
0.96048
0.933718
0.938873
0.940997
0.942698
0.943554
0.943547
0.942704
0.940985
0.938809
0.933923
0.894163
0.89957
0.90347
0.906256
0.907626
0.907619
0.906257
0.903462
0.899589
0.894391
0.840926
0.84715
0.852759
0.856812
0.85885
0.858848
0.856823
0.852783
0.847253
0.841179
0.774088
0.781311
0.788531
0.793893
0.796655
0.796663
0.79393
0.788614
0.781494
0.774383
0.695199
0.703376
0.711993
0.718535
0.721967
0.72199
0.718612
0.712147
0.703645
0.695558
0.607422
0.616291
0.625917
0.633349
0.637304
0.637343
0.633475
0.626147
0.616642
0.607853
0.515104
0.524246
0.534364
0.542274
0.546532
0.546588
0.542451
0.534668
0.524676
0.515605
0.423116
0.432059
0.442096
0.450021
0.454329
0.454401
0.450247
0.442467
0.43256
0.423683
0.336117
0.344425
0.353846
0.361351
0.365461
0.365549
0.361618
0.354275
0.344985
0.336741
0.257902
0.265241
0.273628
0.280361
0.284076
0.284176
0.280662
0.274102
0.265845
0.258573
0.190969
0.197138
0.204234
0.209973
0.213161
0.213273
0.210297
0.204738
0.19777
0.191669
0.136376
0.14132
0.147034
0.15169
0.154298
0.154418
0.15203
0.147554
0.141961
0.137087
0.0938843
0.0976667
0.102057
0.105658
0.107698
0.107821
0.106003
0.102578
0.0983001
0.094587
0.0622889
0.065054
0.0682779
0.0709401
0.0724684
0.0725884
0.0712787
0.0687835
0.0656643
0.0629647
0.0398224
0.041757
0.0440218
0.0459067
0.0470068
0.0471204
0.0462277
0.0444983
0.0423282
0.0404528
0.0245301
0.0258268
0.0273504
0.0286313
0.0293947
0.0294994
0.0289263
0.0277862
0.0263452
0.0250995
0.0145561
0.01539
0.0163728
0.0172096
0.0177223
0.0178158
0.0174723
0.016759
0.0158458
0.0150546
0.00831823
0.00883317
0.00944185
0.00996811
0.0103025
0.0103831
0.0101941
0.00977278
0.0092215
0.00874116
0.00457529
0.00488089
0.00524302
0.00556219
0.00577455
0.00584133
0.00574943
0.0055168
0.00520115
0.00492302
0.00242014
0.00259442
0.00280138
0.00298821
0.00311971
0.00317276
0.00313716
0.00301961
0.00284986
0.00269714
0.00122954
0.00132493
0.00143839
0.00154387
0.00162322
0.00166347
0.00165727
0.00160557
0.00152174
0.00144338
0.000598878
0.000648806
0.000708304
0.00076557
0.000812039
0.000841013
0.000847749
0.000830946
0.00079515
0.000759068
0.000278961
0.000303814
0.000333481
0.000363194
0.000389376
0.000408997
0.000419435
0.000419138
0.000408548
0.000395406
0.000123866
0.000135528
0.000149464
0.000164043
0.000178044
0.000190384
0.000199971
0.000205964
0.000207797
0.000206821
5.22167e-05
5.73087e-05
6.33896e-05
7.00469e-05
7.70122e-05
8.40787e-05
9.1041e-05
9.7971e-05
0.000104514
0.000109851
2.07938e-05
2.28267e-05
2.52408e-05
2.80068e-05
3.11465e-05
3.47427e-05
3.89782e-05
4.45461e-05
5.32491e-05
6.27121e-05
0.997696
1.00306
0.997722
0.998563
0.998781
0.998783
0.998543
0.997702
1.00306
0.997678
0.987373
0.996295
0.991581
0.992998
0.99351
0.993536
0.993002
0.991642
0.996331
0.987319
0.977241
0.985066
0.982779
0.98357
0.984058
0.984081
0.9836
0.982877
0.985062
0.977252
0.961626
0.967514
0.967603
0.968413
0.968928
0.968938
0.968438
0.967639
0.967424
0.961782
0.935799
0.940657
0.942699
0.944275
0.945078
0.945079
0.944285
0.9427
0.940594
0.936007
0.897504
0.902522
0.906248
0.908881
0.910175
0.910173
0.908886
0.906248
0.90253
0.897729
0.845776
0.851519
0.856801
0.860613
0.86253
0.86253
0.860623
0.856823
0.851601
0.846027
0.780524
0.78717
0.79388
0.798869
0.801445
0.801451
0.798899
0.793949
0.787328
0.780814
0.703081
0.710596
0.718522
0.724552
0.727726
0.727744
0.724615
0.718653
0.710831
0.703429
0.61639
0.624536
0.633338
0.640143
0.643776
0.643809
0.640249
0.633539
0.624854
0.616806
0.524637
0.53304
0.542263
0.549479
0.553374
0.553422
0.549633
0.542537
0.533442
0.525124
0.43263
0.440866
0.450008
0.457226
0.461159
0.461224
0.457429
0.450351
0.441345
0.433185
0.34507
0.352743
0.36133
0.368166
0.371918
0.371999
0.368412
0.361733
0.353283
0.345684
0.265873
0.272674
0.280333
0.286474
0.289869
0.289964
0.286755
0.280783
0.273259
0.266532
0.1977
0.203441
0.209939
0.215183
0.218105
0.21821
0.21549
0.210419
0.204051
0.198384
0.14178
0.146401
0.151653
0.15592
0.158316
0.158428
0.15624
0.152148
0.147018
0.142471
0.0980181
0.101569
0.105621
0.108932
0.110811
0.110925
0.109256
0.106113
0.102176
0.0986959
0.0653076
0.0679155
0.0709018
0.0733584
0.0747706
0.0748826
0.0736759
0.0713786
0.0684958
0.0659535
0.0419294
0.0437623
0.0458682
0.0476139
0.048634
0.0487406
0.0479152
0.0463165
0.0443021
0.0425274
0.025937
0.0271716
0.0285938
0.0297843
0.0304947
0.0305932
0.0300615
0.0290033
0.0276595
0.0264748
0.0154559
0.016254
0.0171751
0.0179555
0.0184342
0.0185222
0.0182024
0.0175378
0.0166824
0.0159261
0.00886992
0.00936561
0.00993825
0.0104308
0.0107441
0.01082
0.0106435
0.0102494
0.00973071
0.00926931
0.00489985
0.00519572
0.00553773
0.00583749
0.00603709
0.00610013
0.00601409
0.00579582
0.0054977
0.00522935
0.00260332
0.00277299
0.00296918
0.00314522
0.00326924
0.0033195
0.00328621
0.00317574
0.00301507
0.00286731
0.00132861
0.00142199
0.00152989
0.00162958
0.00170468
0.00174294
0.00173736
0.00168892
0.00160973
0.00153401
0.000650107
0.000699243
0.000755961
0.000810227
0.000854347
0.000881996
0.000888656
0.000873266
0.000839933
0.000805496
0.000304199
0.000328772
0.000357089
0.000385293
0.000410219
0.000428999
0.000439155
0.000439424
0.000430293
0.000418422
0.000135647
0.000147211
0.000160502
0.000174344
0.000187696
0.00019953
0.000208836
0.000215034
0.0002178
0.000217958
5.73802e-05
6.24287e-05
6.8203e-05
7.45107e-05
8.11522e-05
8.79275e-05
9.46655e-05
0.00010161
0.000108767
0.000115141
2.28895e-05
2.48951e-05
2.71641e-05
2.97687e-05
3.27533e-05
3.61919e-05
4.02751e-05
4.57989e-05
5.49044e-05
6.52634e-05
0.997702
1.00332
0.997949
0.998734
0.998956
0.998955
0.998721
0.997937
1.00333
0.997689
0.987567
0.996852
0.992183
0.993521
0.994011
0.994022
0.993525
0.992236
0.996903
0.987531
0.977795
0.985343
0.983296
0.984076
0.984557
0.984573
0.984101
0.983387
0.985359
0.977811
0.962295
0.96787
0.968122
0.968902
0.969405
0.969417
0.968928
0.968165
0.967807
0.962437
0.936792
0.941447
0.943526
0.945056
0.945833
0.945837
0.945067
0.943533
0.941398
0.936991
0.89909
0.903934
0.907601
0.910161
0.911414
0.911416
0.910168
0.907603
0.903942
0.899317
0.848139
0.853688
0.858826
0.86252
0.864372
0.864374
0.862531
0.858848
0.853762
0.848389
0.783734
0.790151
0.796628
0.801434
0.803911
0.803917
0.801462
0.796694
0.790296
0.784021
0.70708
0.714336
0.721938
0.727714
0.730752
0.730767
0.727771
0.722062
0.714552
0.707429
0.621005
0.628861
0.637273
0.643761
0.647223
0.647253
0.643858
0.637461
0.629162
0.621422
0.529601
0.537695
0.546495
0.553352
0.557053
0.557098
0.553496
0.546753
0.538086
0.530089
0.437632
0.445566
0.454278
0.461128
0.464858
0.46492
0.461319
0.454606
0.446036
0.438189
0.349815
0.357211
0.365392
0.371878
0.375435
0.375513
0.372113
0.365783
0.357745
0.35043
0.270125
0.276689
0.28399
0.289819
0.29304
0.293131
0.290091
0.284429
0.277268
0.270783
0.201309
0.206864
0.213063
0.218047
0.220821
0.220922
0.218343
0.213533
0.207465
0.201992
0.144689
0.149174
0.154194
0.158252
0.160531
0.160638
0.158562
0.154675
0.149779
0.145377
0.100252
0.103707
0.107589
0.110743
0.112532
0.112641
0.111055
0.108065
0.104299
0.100923
0.0669461
0.0694885
0.0723561
0.0747007
0.0760473
0.0761546
0.0750058
0.0728154
0.0700522
0.0675792
0.0430779
0.0448685
0.0468948
0.0485643
0.0495388
0.049641
0.0488536
0.0473259
0.0453901
0.0436591
0.0267075
0.0279161
0.0292873
0.0304281
0.031108
0.0312025
0.0306941
0.0296804
0.0283856
0.0272269
0.0159506
0.0167346
0.017624
0.0183732
0.0188323
0.0189167
0.0186101
0.0179719
0.0171453
0.0164035
0.00917427
0.00966333
0.010217
0.0106907
0.0109915
0.0110644
0.0108948
0.0105155
0.0100129
0.0095591
0.00507973
0.00537229
0.00570382
0.00599257
0.00618456
0.0062452
0.00616232
0.00595172
0.00566217
0.00539758
0.00270538
0.00287346
0.00306409
0.00323394
0.00335343
0.00340187
0.00336976
0.00326301
0.00310669
0.00296079
0.00138409
0.0014769
0.00158184
0.00167817
0.00175065
0.00178762
0.00178228
0.00173553
0.00165853
0.00158382
0.00067896
0.000727927
0.00078314
0.000835628
0.000878279
0.000905062
0.000911611
0.000896939
0.000864773
0.000831021
0.000318502
0.000343039
0.000370611
0.000397906
0.000422038
0.000440273
0.000450232
0.000450792
0.000442367
0.000431083
0.000142369
0.000153922
0.000166851
0.000180244
0.000193184
0.000204696
0.000213825
0.000220133
0.000223382
0.0002241
6.03475e-05
6.53834e-05
7.09833e-05
7.70769e-05
8.35145e-05
9.01111e-05
9.67227e-05
0.000103694
0.000111171
0.000118066
2.41002e-05
2.60937e-05
2.82791e-05
3.07858e-05
3.36752e-05
3.70217e-05
4.1025e-05
4.65346e-05
5.58526e-05
6.66415e-05
0.997844
1.00324
0.997923
0.998771
0.998997
0.998995
0.998757
0.99791
1.00325
0.997827
0.987715
0.99674
0.992098
0.993497
0.994008
0.994015
0.993499
0.992152
0.996798
0.987659
0.977647
0.985544
0.983311
0.984059
0.984538
0.98455
0.984082
0.983398
0.985556
0.977648
0.962185
0.968045
0.96816
0.968933
0.969432
0.969444
0.968954
0.968197
0.967973
0.962327
0.936758
0.941527
0.943548
0.945075
0.94585
0.945855
0.945084
0.943552
0.941473
0.936958
0.899083
0.903969
0.907611
0.910168
0.911419
0.911421
0.910174
0.907612
0.903971
0.899314
0.848142
0.853708
0.858831
0.862522
0.864373
0.864375
0.862533
0.858853
0.853776
0.8484
0.783727
0.790189
0.796634
0.801438
0.803914
0.80392
0.801466
0.7967
0.790309
0.784041
0.707061
0.714402
0.721953
0.727724
0.730761
0.730776
0.727781
0.722074
0.714572
0.707455
0.621007
0.628893
0.637294
0.643779
0.647241
0.64727
0.643877
0.637484
0.62919
0.621456
0.529622
0.537692
0.54652
0.553378
0.557078
0.557124
0.553524
0.546784
0.538124
0.53013
0.437653
0.445573
0.454307
0.46116
0.464889
0.464952
0.461355
0.454645
0.44608
0.438235
0.349838
0.357231
0.365423
0.371912
0.37547
0.37555
0.372153
0.365827
0.357793
0.350479
0.270143
0.276721
0.284022
0.289855
0.293077
0.29317
0.290132
0.284474
0.277316
0.270831
0.201315
0.206908
0.213096
0.218082
0.220857
0.22096
0.218384
0.213576
0.20751
0.202037
0.144691
0.14921
0.154224
0.158284
0.160564
0.160672
0.158598
0.154713
0.149818
0.145417
0.100259
0.103725
0.107614
0.11077
0.112561
0.112671
0.111086
0.108097
0.104333
0.100956
0.0669553
0.0694976
0.0723756
0.0747228
0.0760707
0.076179
0.0750311
0.0728417
0.0700788
0.0676055
0.0430867
0.0448771
0.0469094
0.0485813
0.0495569
0.04966
0.0488731
0.047346
0.0454104
0.0436789
0.0267144
0.0279241
0.0292981
0.0304406
0.0311215
0.0312165
0.0307084
0.0296951
0.0284003
0.0272412
0.0159559
0.0167406
0.0176318
0.0183821
0.0188418
0.0189266
0.0186202
0.0179822
0.0171555
0.0164134
0.00917844
0.00966734
0.0102224
0.0106967
0.010998
0.0110712
0.0109017
0.0105223
0.0100197
0.00956564
0.00508263
0.00537522
0.00570739
0.00599653
0.0061888
0.00624958
0.00616675
0.00595615
0.00566653
0.00540175
0.00270727
0.00287549
0.00306635
0.00323643
0.00335609
0.0034046
0.00337252
0.00326577
0.00310939
0.00296336
0.0013853
0.00147811
0.00158322
0.00167967
0.00175225
0.00178926
0.00178393
0.00173718
0.00166015
0.00158536
0.000679681
0.000728647
0.000783939
0.000836498
0.000879203
0.000906014
0.000912567
0.000897891
0.000865719
0.000831932
0.000318907
0.00034345
0.000371055
0.000398387
0.000422549
0.000440801
0.000450764
0.000451324
0.000442897
0.0004316
0.00014258
0.000154144
0.000167087
0.000180499
0.000193455
0.000204975
0.000214105
0.000220409
0.000223681
0.000224431
6.04496e-05
6.5497e-05
7.11027e-05
7.72057e-05
8.36525e-05
9.02553e-05
9.68716e-05
0.000103857
0.000111327
0.000118198
2.41473e-05
2.61467e-05
2.83357e-05
3.08472e-05
3.37416e-05
3.70924e-05
4.10996e-05
4.66119e-05
5.59454e-05
6.67903e-05
0.997672
1.00306
0.997727
0.998547
0.99876
0.998757
0.99853
0.99771
1.00306
0.997653
0.987328
0.996312
0.991617
0.993
0.993505
0.993508
0.992998
0.99166
0.996368
0.98727
0.977211
0.985094
0.982817
0.983587
0.98407
0.98408
0.983605
0.982898
0.985105
0.977204
0.96167
0.967504
0.967604
0.968425
0.968941
0.96895
0.968442
0.967636
0.967424
0.961806
0.935855
0.940647
0.942686
0.944274
0.945078
0.945082
0.944281
0.942689
0.940587
0.936056
0.897548
0.902531
0.906239
0.908877
0.910174
0.910176
0.908883
0.906241
0.902534
0.897782
0.845815
0.851545
0.8568
0.860614
0.862533
0.862536
0.860626
0.856825
0.85162
0.846085
0.780557
0.787212
0.793893
0.798883
0.801459
0.801467
0.798916
0.793968
0.787367
0.780882
0.703118
0.710656
0.718558
0.724587
0.727761
0.727779
0.724654
0.718699
0.710897
0.703515
0.616438
0.624608
0.633402
0.640205
0.643837
0.64387
0.640316
0.633615
0.624949
0.616915
0.524696
0.53312
0.542351
0.549566
0.553459
0.55351
0.549728
0.542642
0.533562
0.525255
0.432699
0.440954
0.450109
0.457331
0.461263
0.461333
0.457545
0.450477
0.441483
0.43333
0.345143
0.352832
0.361435
0.368279
0.372033
0.37212
0.368541
0.361871
0.353431
0.345834
0.265942
0.272761
0.280435
0.286587
0.289987
0.290088
0.286886
0.280922
0.273405
0.266678
0.19776
0.203525
0.210034
0.215291
0.218218
0.218329
0.215615
0.210551
0.204187
0.19852
0.141831
0.146476
0.15174
0.156016
0.158419
0.158535
0.156353
0.152265
0.147138
0.14259
0.0980616
0.101631
0.105696
0.109015
0.110899
0.111016
0.109352
0.106213
0.102277
0.098795
0.0653449
0.0679643
0.0709627
0.0734262
0.0748428
0.0749576
0.0737536
0.0714585
0.0685764
0.0660322
0.0419584
0.0438008
0.0459147
0.0476662
0.0486899
0.0487988
0.0479752
0.0463777
0.0443634
0.0425867
0.0259577
0.0272014
0.028628
0.0298228
0.030536
0.0306362
0.0301055
0.0290479
0.0277038
0.0265174
0.0154709
0.0162745
0.0171994
0.0179826
0.0184634
0.0185525
0.0182333
0.0175689
0.016713
0.0159554
0.00888083
0.00937897
0.00995479
0.0104492
0.0107638
0.0108404
0.0106642
0.0102702
0.0097511
0.00928876
0.00490746
0.00520454
0.00554851
0.00584949
0.00604992
0.00611342
0.00602754
0.0058092
0.00551077
0.00524179
0.00260836
0.0027787
0.00297593
0.00315274
0.00327727
0.0033278
0.00329458
0.00318404
0.00302315
0.002875
0.00133178
0.00142551
0.00153396
0.0016341
0.0017095
0.00174792
0.00174237
0.00169389
0.00161458
0.00153863
0.000651988
0.000701316
0.000758311
0.000812823
0.000857117
0.000884857
0.000891538
0.000876132
0.000842755
0.000808208
0.000305255
0.000329931
0.000358385
0.00038672
0.000411744
0.000430579
0.000440751
0.000441023
0.000431893
0.000419987
0.000136205
0.000147825
0.000161184
0.000175094
0.0001885
0.000200366
0.000209683
0.000215895
0.000218689
0.000218865
5.76579e-05
6.27365e-05
6.85435e-05
7.48855e-05
8.15567e-05
8.83524e-05
9.51005e-05
0.000102062
0.000109248
0.000115658
2.30191e-05
2.50397e-05
2.73242e-05
2.99457e-05
3.29463e-05
3.63982e-05
4.04909e-05
4.60269e-05
5.51698e-05
6.55787e-05
0.996908
1.00214
0.996921
0.997723
0.99793
0.997928
0.99771
0.996908
1.00215
0.996891
0.985883
0.994795
0.990244
0.991636
0.992141
0.99215
0.991652
0.990314
0.994892
0.985837
0.975972
0.984084
0.981973
0.982855
0.983366
0.983382
0.982892
0.982087
0.984145
0.975977
0.960387
0.966457
0.966656
0.967617
0.968172
0.968181
0.967632
0.966689
0.966368
0.960519
0.933784
0.938846
0.940967
0.942686
0.943544
0.943547
0.942688
0.940964
0.93877
0.933985
0.894224
0.899577
0.903443
0.906242
0.907617
0.907618
0.906244
0.903441
0.899574
0.894465
0.84099
0.847197
0.852756
0.856817
0.858859
0.858862
0.856831
0.852784
0.847276
0.841274
0.774146
0.781386
0.78857
0.793933
0.796696
0.796707
0.793974
0.788658
0.781568
0.774505
0.695269
0.703485
0.712081
0.71862
0.722051
0.722075
0.718702
0.712245
0.703772
0.695714
0.607516
0.616429
0.626051
0.633483
0.637435
0.637476
0.633616
0.626301
0.616822
0.608049
0.515213
0.5244
0.534533
0.542449
0.546704
0.546764
0.542637
0.534868
0.524898
0.515838
0.423233
0.432219
0.442285
0.450223
0.454529
0.454608
0.450466
0.442699
0.432809
0.423936
0.336236
0.344582
0.354037
0.36156
0.365675
0.365772
0.361853
0.354521
0.345242
0.336999
0.258018
0.26539
0.273809
0.280564
0.284289
0.2844
0.280896
0.274345
0.266094
0.25882
0.191074
0.197279
0.204401
0.210161
0.213363
0.213484
0.210518
0.204966
0.198
0.191895
0.136465
0.141445
0.147185
0.151859
0.15448
0.154607
0.152226
0.147757
0.142163
0.137283
0.0939593
0.0977705
0.102186
0.105803
0.107853
0.107981
0.106169
0.102748
0.0984693
0.0947501
0.0623524
0.0651371
0.068382
0.0710575
0.0725943
0.0727188
0.0714129
0.06892
0.0657993
0.0630938
0.0398736
0.0418211
0.0441008
0.0459968
0.0471038
0.0472216
0.0463312
0.0446023
0.0424304
0.0405501
0.0245681
0.0258745
0.027408
0.0286969
0.0294658
0.0295737
0.029002
0.0278618
0.0264188
0.0251693
0.0145828
0.0154237
0.0164134
0.0172555
0.017772
0.0178677
0.017525
0.0168114
0.0158966
0.0151025
0.00833647
0.0088559
0.00946937
0.00999908
0.010336
0.0104179
0.0102294
0.00980769
0.00925514
0.00877272
0.00458749
0.00489572
0.00526091
0.00558234
0.00579625
0.00586387
0.00577218
0.00553922
0.00522269
0.00494315
0.002428
0.00260375
0.00281252
0.00300076
0.00313322
0.00318679
0.0031513
0.0030335
0.00286318
0.00270962
0.00123438
0.00133055
0.00144502
0.00155134
0.00163127
0.00167183
0.0016657
0.00161387
0.00152972
0.00145089
0.000601698
0.000652047
0.000712075
0.000769811
0.000816619
0.000845789
0.000852583
0.000835737
0.00079981
0.000763508
0.000280519
0.000305594
0.000335531
0.000365495
0.000391871
0.000411613
0.000422105
0.000421818
0.000411208
0.000398
0.000124681
0.000136456
0.000150527
0.000165235
0.000179344
0.000191758
0.000201388
0.000207418
0.000209298
0.000208352
5.26192e-05
5.77673e-05
6.39126e-05
7.06347e-05
7.76583e-05
8.47711e-05
9.1769e-05
9.87464e-05
0.000105348
0.000110742
2.09812e-05
2.30403e-05
2.54837e-05
2.82808e-05
3.14511e-05
3.50751e-05
3.93349e-05
4.49437e-05
5.37311e-05
6.32718e-05
1.00154
1.00692
1.00214
1.00304
1.00324
1.00324
1.00305
1.00215
1.00695
1.00153
0.989775
0.998752
0.994796
0.996305
0.99677
0.996782
0.996332
0.994884
0.998871
0.989721
0.977955
0.985938
0.984067
0.985085
0.985576
0.985586
0.985102
0.984146
0.98595
0.977946
0.960463
0.966398
0.966402
0.967456
0.968011
0.968008
0.967435
0.966375
0.966175
0.96061
0.931712
0.936843
0.938804
0.940614
0.941504
0.941501
0.940599
0.938776
0.936733
0.93192
0.889879
0.895582
0.899572
0.90254
0.903993
0.903995
0.902545
0.899579
0.895634
0.890122
0.834309
0.841259
0.847227
0.851603
0.853788
0.853796
0.851632
0.847282
0.841367
0.834649
0.765325
0.773504
0.781445
0.787314
0.790304
0.790323
0.787379
0.781574
0.773743
0.765722
0.684635
0.693922
0.703566
0.710795
0.714543
0.714577
0.710905
0.703777
0.694285
0.685096
0.595529
0.6057
0.616526
0.624789
0.629133
0.629185
0.624952
0.616825
0.606139
0.596141
0.50262
0.513068
0.524512
0.533338
0.538031
0.538101
0.533558
0.5249
0.513639
0.50334
0.410828
0.42096
0.43234
0.441193
0.445947
0.446038
0.44147
0.432808
0.421643
0.411598
0.324684
0.334052
0.344703
0.353081
0.35762
0.357729
0.353407
0.345238
0.334787
0.325499
0.247823
0.256072
0.265503
0.273006
0.277106
0.277228
0.273369
0.266086
0.256825
0.248672
0.182523
0.189451
0.197379
0.203755
0.207269
0.207401
0.204142
0.197989
0.190201
0.183395
0.129638
0.13517
0.141535
0.146688
0.149556
0.149693
0.147085
0.14215
0.135924
0.130514
0.0887713
0.0929663
0.0978512
0.101823
0.104058
0.104195
0.102217
0.098454
0.0937145
0.0896148
0.0585935
0.0616316
0.0652068
0.0681323
0.0698007
0.0699343
0.0685136
0.0657831
0.0623434
0.0593779
0.0372688
0.0393816
0.0418778
0.0439416
0.0451386
0.0452644
0.0442993
0.0424138
0.0400316
0.0379819
0.0228394
0.0242499
0.0259185
0.0273152
0.0281429
0.0282579
0.0276404
0.0264021
0.0248271
0.0234723
0.0134832
0.0143852
0.0154571
0.0163655
0.0169192
0.0170208
0.0166519
0.01588
0.0148861
0.0140295
0.00766604
0.00821902
0.00888063
0.00944959
0.00980913
0.00989579
0.00969334
0.00923884
0.00864106
0.00812308
0.00419556
0.0045214
0.00491329
0.00525701
0.00548429
0.0055555
0.00545712
0.00520669
0.00486534
0.0045663
0.00220834
0.0023928
0.00261571
0.00281612
0.00295623
0.00301241
0.00297413
0.00284757
0.00266409
0.00250003
0.00111646
0.00121665
0.0013383
0.00145102
0.00153518
0.00157756
0.00157056
0.0015146
0.00142358
0.00133902
0.000541205
0.000593255
0.000656789
0.000717763
0.000766852
0.000797226
0.000803984
0.000785336
0.000745758
0.000706082
0.000250966
0.000276702
0.000308298
0.000339845
0.000367415
0.00038793
0.000398673
0.000397688
0.000385002
0.000369531
0.00011101
0.000123026
0.000137865
0.000153329
0.00016805
0.000180946
0.000190883
0.000196723
0.000197322
0.000194551
4.66817e-05
5.19196e-05
5.84207e-05
6.54992e-05
7.28336e-05
8.02404e-05
8.75059e-05
9.45185e-05
0.000100335
0.000104164
1.85908e-05
2.06905e-05
2.33009e-05
2.62663e-05
2.95933e-05
3.33907e-05
3.78473e-05
4.35898e-05
5.18725e-05
6.005e-05
0.996733
1.00155
0.996917
0.997675
0.997829
0.997826
0.997663
0.996899
1.00153
0.996738
0.983264
0.989784
0.985886
0.987303
0.98765
0.987642
0.987277
0.98585
0.989727
0.983263
0.972608
0.978008
0.975977
0.977197
0.977599
0.977597
0.977189
0.975978
0.977947
0.972641
0.955403
0.960618
0.960441
0.961751
0.96229
0.962303
0.961787
0.960513
0.960608
0.955558
0.926159
0.931853
0.933886
0.935994
0.936933
0.936951
0.936045
0.933982
0.931918
0.926343
0.883343
0.889962
0.894353
0.897715
0.899287
0.899308
0.897779
0.894466
0.890122
0.88357
0.826503
0.834427
0.841132
0.846005
0.848372
0.848397
0.846087
0.841275
0.834649
0.826828
0.756102
0.765425
0.774309
0.780779
0.784009
0.784042
0.780887
0.774509
0.765722
0.756525
0.674107
0.684706
0.695448
0.703372
0.707407
0.707452
0.703517
0.695719
0.685096
0.674671
0.584228
0.595637
0.607705
0.616723
0.621382
0.621442
0.616912
0.608052
0.59614
0.584884
0.491123
0.502721
0.515415
0.525003
0.530021
0.530101
0.525246
0.515835
0.503338
0.491815
0.399662
0.410897
0.423436
0.433014
0.438086
0.438185
0.433311
0.423928
0.411594
0.400419
0.314401
0.324746
0.336428
0.345458
0.350288
0.350404
0.345803
0.336987
0.325494
0.315217
0.238825
0.247889
0.258193
0.266252
0.270602
0.270732
0.266634
0.258804
0.248666
0.239692
0.175034
0.182603
0.191236
0.198059
0.201777
0.201916
0.198465
0.191875
0.183389
0.175937
0.123725
0.129718
0.136617
0.142111
0.145134
0.145278
0.142526
0.137261
0.130507
0.124614
0.0843175
0.0888335
0.0940979
0.0983145
0.100662
0.100805
0.0987257
0.0947265
0.0896082
0.0851641
0.0553793
0.0586383
0.0624705
0.0655637
0.0673096
0.0674481
0.0659597
0.0630696
0.0593714
0.0561715
0.0350477
0.0373042
0.0399694
0.0421432
0.0433912
0.0435214
0.0425136
0.0405258
0.0379755
0.0357736
0.0213698
0.0228687
0.024644
0.0261098
0.0269697
0.0270883
0.0264457
0.0251452
0.0234661
0.0220166
0.0125534
0.0135058
0.0146416
0.0155916
0.0161647
0.0162691
0.0158864
0.0150787
0.0140233
0.0131101
0.00710198
0.00768223
0.00838042
0.0089733
0.00934404
0.00943272
0.00922331
0.00874939
0.00811691
0.00756618
0.00386695
0.00420702
0.00461908
0.00497598
0.00520943
0.00528203
0.00518044
0.0049201
0.00455998
0.00424244
0.0020248
0.00221623
0.00244981
0.0026572
0.00280054
0.00285761
0.00281803
0.00268674
0.00249344
0.00231901
0.00101834
0.00112168
0.00124876
0.001365
0.00145077
0.00149367
0.00148624
0.0014282
0.0013321
0.00124164
0.000491114
0.000544462
0.000610671
0.000673339
0.000723175
0.000753835
0.00076051
0.000741035
0.000698784
0.000655509
0.000226647
0.000252865
0.000285733
0.000318068
0.000345974
0.000366639
0.000377413
0.000376149
0.000361998
0.000344095
9.98482e-05
0.000112028
0.000127459
0.000143288
0.000158167
0.000171158
0.000181168
0.000186959
0.000186616