# Field minima and maxima
# Time         	field          	min            	location(min)  	max            	location(max)  
0.05           	p              	-3.77629842e+01	(1.30675477e+01 -1.93303998e+01 1.31458292e-17)	5.08902860e+01	(8.50121714e+00 1.93303998e+01 -3.37940727e-17)
0.05           	U              	(3.02589629e-01 -4.86579629e-01 -3.93678871e-18)	(-1.03680492e+00 -3.82506484e-01 0.00000000e+00)	(1.59022669e+00 -7.31587616e-03 6.17118523e-18)	(4.62739455e-02 1.17685237e+00 3.30045855e-17)
0.1            	p              	-2.36408343e+01	(8.08050238e+00 1.80346557e+01 0.00000000e+00)	1.70630507e+01	(1.30675477e+01 -1.80346557e+01 1.39511689e-17)
0.1            	U              	(1.23998812e-01 -2.03243849e-01 -2.15975894e-18)	(7.02007805e-01 7.59452234e-01 0.00000000e+00)	(1.57238938e+00 -2.16262013e-02 1.21066138e-18)	(5.55685452e-02 1.41263523e+00 0.00000000e+00)
0.15           	p              	-1.52871533e+00	(5.74617736e-01 -8.60004273e-01 -1.32081388e-17)	2.02962293e+00	(-1.02709283e+00 1.21582604e-01 0.00000000e+00)
0.15           	U              	(7.82098358e-02 -2.01702847e-01 -3.59847333e-19)	(-9.39341130e-01 -4.33038181e-01 -1.43717227e-17)	(1.46014158e+00 3.31770554e-01 3.02082326e-19)	(-3.62010175e-01 1.28335018e+00 0.00000000e+00)
0.2            	p              	-1.18631535e+00	(2.80771032e-01 -9.95500333e-01 -1.35833420e-17)	1.22488940e+00	(-1.03340804e+00 4.06193460e-02 0.00000000e+00)
0.2            	U              	(5.99003458e-02 -1.03262480e-01 -2.68434760e-19)	(1.06357317e+00 2.99983060e-01 0.00000000e+00)	(1.55010972e+00 -2.92061396e-02 1.72976831e-19)	(5.23566379e-02 1.33115645e+00 0.00000000e+00)
0.25           	p              	-1.16295838e+00	(2.80771032e-01 -9.95500333e-01 -1.35833420e-17)	1.17003607e+00	(-1.03340804e+00 4.06193460e-02 0.00000000e+00)
0.25           	U              	(7.89348646e-02 -1.55179049e-01 -3.01456883e-19)	(-9.39341130e-01 -4.33038181e-01 -1.43717227e-17)	(1.23278052e+00 5.40984651e-01 2.73540491e-19)	(6.91464900e-01 -1.23486407e+00 -1.78905111e-17)
0.3            	p              	-1.13705962e+00	(2.80771032e-01 -9.95500333e-01 -1.35833420e-17)	1.09612616e+00	(-1.03340804e+00 4.06193460e-02 0.00000000e+00)
0.3            	U              	(7.45727863e-02 -1.49060192e-01 -2.89021608e-19)	(-9.39341130e-01 -4.33038181e-01 -1.43717227e-17)	(1.26970355e+00 4.52258322e-01 2.40413609e-19)	(-5.92566600e-01 1.28544556e+00 0.00000000e+00)
0.35           	p              	-1.11667983e+00	(2.80771032e-01 -9.95500333e-01 -1.35833420e-17)	1.04533330e+00	(-1.03340804e+00 4.06193460e-02 0.00000000e+00)
0.35           	U              	(7.16471431e-02 -1.44448629e-01 -2.82022649e-19)	(-9.39341130e-01 -4.33038181e-01 -1.43717227e-17)	(1.42298704e+00 2.51792974e-01 5.16165615e-19)	(-2.76149616e-01 1.38772196e+00 0.00000000e+00)
0.4            	p              	-1.09919479e+00	(2.01798769e-01 -1.01443079e+00 -1.39798975e-17)	1.00614526e+00	(-1.03340804e+00 4.06193460e-02 0.00000000e+00)
0.4            	U              	(6.97558596e-02 -1.40756674e-01 -2.77210143e-19)	(-9.39341130e-01 -4.33038181e-01 -1.43717227e-17)	(1.39806961e+00 2.55396245e-01 5.01445242e-19)	(-2.76149616e-01 1.38772196e+00 0.00000000e+00)
0.45           	p              	-1.08410463e+00	(2.01798769e-01 -1.01443079e+00 -1.39798975e-17)	9.74498116e-01	(-1.03340804e+00 4.06193460e-02 0.00000000e+00)
0.45           	U              	(6.67497024e-02 -5.82379269e-02 -1.61247632e-19)	(7.02007805e-01 7.59452234e-01 0.00000000e+00)	(1.44068779e+00 1.70422367e-01 3.24661799e-19)	(-1.76335018e-01 1.48871873e+00 0.00000000e+00)
0.5            	p              	-1.07044191e+00	(2.01798769e-01 -1.01443079e+00 -1.39798975e-17)	9.48513541e-01	(-1.03340804e+00 4.06193460e-02 0.00000000e+00)
0.5            	U              	(6.13382654e-02 -5.32964906e-02 -1.58403259e-19)	(7.02007805e-01 7.59452234e-01 0.00000000e+00)	(1.42376063e+00 1.76183896e-01 3.18132552e-19)	(-1.76335018e-01 1.48871873e+00 0.00000000e+00)
0.55           	p              	-1.05793580e+00	(2.01798769e-01 -1.01443079e+00 -1.39798975e-17)	9.26727121e-01	(-1.03340804e+00 4.06193460e-02 0.00000000e+00)
0.55           	U              	(5.66854263e-02 -4.90715769e-02 -1.55508461e-19)	(7.02007805e-01 7.59452234e-01 0.00000000e+00)	(1.40685951e+00 1.81274267e-01 3.11101710e-19)	(-1.76335018e-01 1.48871873e+00 0.00000000e+00)
0.6            	p              	-1.04629830e+00	(2.01798769e-01 -1.01443079e+00 -1.39798975e-17)	9.08463943e-01	(-1.03340804e+00 4.06193460e-02 0.00000000e+00)
0.6            	U              	(5.26413250e-02 -4.54057468e-02 -1.52593890e-19)	(7.02007805e-01 7.59452234e-01 0.00000000e+00)	(1.39032577e+00 1.85810332e-01 3.04140917e-19)	(-1.76335018e-01 1.48871873e+00 0.00000000e+00)
0.65           	p              	-1.03549509e+00	(2.01798769e-01 -1.01443079e+00 -1.39798975e-17)	8.92763151e-01	(-1.03340804e+00 4.06193460e-02 0.00000000e+00)
0.65           	U              	(4.90876227e-02 -4.21885690e-02 -1.49752675e-19)	(7.02007805e-01 7.59452234e-01 0.00000000e+00)	(1.32522094e+00 2.88876124e-01 1.67075145e-19)	(-4.56015003e-01 1.61643192e+00 -2.51411360e-17)
0.7            	p              	-1.02541692e+00	(2.01798769e-01 -1.01443079e+00 -1.39798975e-17)	8.79173459e-01	(-1.03340804e+00 4.06193460e-02 0.00000000e+00)
0.7            	U              	(4.59348460e-02 -3.93389070e-02 -1.46988617e-19)	(7.02007805e-01 7.59452234e-01 0.00000000e+00)	(1.26461695e+00 3.69156131e-01 2.12146337e-19)	(-5.49829753e-01 1.49026173e+00 1.44866118e-17)
0.75           	p              	-1.01590347e+00	(2.01798769e-01 -1.01443079e+00 -1.39798975e-17)	8.67334342e-01	(-1.03340804e+00 4.06193460e-02 0.00000000e+00)
0.75           	U              	(4.31146739e-02 -3.67940186e-02 -1.44331068e-19)	(7.02007805e-01 7.59452234e-01 0.00000000e+00)	(1.30377288e+00 2.72146801e-01 1.86293312e-19)	(-4.81739223e-01 1.70757903e+00 -3.38442467e-17)
0.8            	p              	-1.00690393e+00	(2.01798769e-01 -1.01443079e+00 -1.39798975e-17)	8.56891689e-01	(-1.03340804e+00 4.06193460e-02 0.00000000e+00)
0.8            	U              	(4.05748209e-02 -3.45051654e-02 -1.41781303e-19)	(7.02007805e-01 7.59452234e-01 0.00000000e+00)	(1.24780967e+00 3.73508673e-01 2.09474936e-19)	(-5.49829753e-01 1.49026173e+00 1.44866118e-17)
0.85           	p              	-9.98300008e-01	(2.01798769e-01 -1.01443079e+00 -1.39798975e-17)	8.47740578e-01	(-1.03340804e+00 4.06193460e-02 0.00000000e+00)
0.85           	U              	(3.82753345e-02 -3.24350406e-02 -1.39317389e-19)	(7.02007805e-01 7.59452234e-01 0.00000000e+00)	(1.23982677e+00 3.75290444e-01 2.08191739e-19)	(-5.49829753e-01 1.49026173e+00 1.44866118e-17)
0.9            	p              	-9.90096160e-01	(2.01798769e-01 -1.01443079e+00 -1.39798975e-17)	8.39553465e-01	(-1.03340804e+00 4.06193460e-02 0.00000000e+00)
0.9            	U              	(3.61839985e-02 -3.05535994e-02 -1.36950143e-19)	(7.02007805e-01 7.59452234e-01 0.00000000e+00)	(1.40116635e+00 -9.41029341e-03 1.65469907e-19)	(1.97416220e-01 -1.66645754e+00 0.00000000e+00)
0.95           	p              	-9.82266159e-01	(2.01798769e-01 -1.01443079e+00 -1.39798975e-17)	8.32181928e-01	(-1.03340804e+00 4.06193460e-02 0.00000000e+00)
0.95           	U              	(3.42749777e-02 -2.88368521e-02 -1.34664218e-19)	(7.02007805e-01 7.59452234e-01 0.00000000e+00)	(1.39447472e+00 5.25343324e-02 2.41072557e-19)	(3.65380545e-01 -1.83572112e+00 0.00000000e+00)
1              	p              	-9.74713863e-01	(2.01798769e-01 -1.01443079e+00 -1.39798975e-17)	8.25588987e-01	(-1.03340804e+00 4.06193460e-02 0.00000000e+00)
1              	U              	(3.25275935e-02 -2.72657568e-02 -1.32443264e-19)	(7.02007805e-01 7.59452234e-01 0.00000000e+00)	(1.07515141e+00 4.39141276e-01 1.83938769e-19)	(-5.92566600e-01 1.28544556e+00 0.00000000e+00)
1.05           	p              	-9.67425476e-01	(2.01798769e-01 -1.01443079e+00 -1.39798975e-17)	8.19625845e-01	(-1.03340804e+00 4.06193460e-02 0.00000000e+00)
1.05           	U              	(3.09244634e-02 -2.58244059e-02 -1.30285100e-19)	(7.02007805e-01 7.59452234e-01 0.00000000e+00)	(1.21097020e+00 3.80590224e-01 2.03406810e-19)	(-5.49829753e-01 1.49026173e+00 1.44866118e-17)
1.1            	p              	-9.60359917e-01	(2.01798769e-01 -1.01443079e+00 -1.39798975e-17)	8.14236999e-01	(-1.03340804e+00 4.06193460e-02 0.00000000e+00)
1.1            	U              	(2.94509157e-02 -2.44994509e-02 -1.28181276e-19)	(7.02007805e-01 7.59452234e-01 0.00000000e+00)	(1.20450935e+00 3.81575222e-01 2.02302511e-19)	(-5.49829753e-01 1.49026173e+00 1.44866118e-17)
1.15           	p              	-9.53529095e-01	(2.01798769e-01 -1.01443079e+00 -1.39798975e-17)	8.09335313e-01	(-1.03340804e+00 4.06193460e-02 0.00000000e+00)
1.15           	U              	(2.80946638e-02 -2.32798299e-02 -1.26120674e-19)	(7.02007805e-01 7.59452234e-01 0.00000000e+00)	(1.19833129e+00 3.82457642e-01 2.01227895e-19)	(-5.49829753e-01 1.49026173e+00 1.44866118e-17)
1.2            	p              	-9.46906352e-01	(2.01798769e-01 -1.01443079e+00 -1.39798975e-17)	8.04832230e-01	(-1.03340804e+00 4.06193460e-02 0.00000000e+00)
1.2            	U              	(2.68445697e-02 -2.21555236e-02 -1.24111959e-19)	(7.02007805e-01 7.59452234e-01 0.00000000e+00)	(1.19242430e+00 3.83249691e-01 2.00187513e-19)	(-5.49829753e-01 1.49026173e+00 1.44866118e-17)
1.25           	p              	-9.40484617e-01	(2.01798769e-01 -1.01443079e+00 -1.39798975e-17)	8.00694364e-01	(-1.03340804e+00 4.06193460e-02 0.00000000e+00)
1.25           	U              	(2.52247547e-02 -4.12607724e-02 -1.41565431e-19)	(1.10565837e+00 4.07913059e-01 1.04508224e-17)	(1.18677605e+00 3.83962216e-01 1.99175779e-19)	(-5.49829753e-01 1.49026173e+00 1.44866118e-17)
1.3            	p              	-9.34225974e-01	(2.01798769e-01 -1.01443079e+00 -1.39798975e-17)	7.96878178e-01	(-1.03340804e+00 4.06193460e-02 0.00000000e+00)
1.3            	U              	(2.33210844e-02 -3.85562582e-02 -1.37588763e-19)	(1.10565837e+00 4.07913059e-01 1.04508224e-17)	(1.18137416e+00 3.84604373e-01 1.98193969e-19)	(-5.49829753e-01 1.49026173e+00 1.44866118e-17)
1.35           	p              	-9.28113437e-01	(2.01798769e-01 -1.01443079e+00 -1.39798975e-17)	7.93371903e-01	(-1.03340804e+00 4.06193460e-02 0.00000000e+00)
1.35           	U              	(2.15467188e-02 -3.60233644e-02 -1.33821048e-19)	(1.10565837e+00 4.07913059e-01 1.04508224e-17)	(1.17620701e+00 3.85185040e-01 1.97259121e-19)	(-5.49829753e-01 1.49026173e+00 1.44866118e-17)
1.4            	p              	-9.22159165e-01	(2.01798769e-01 -1.01443079e+00 -1.39798975e-17)	7.90107309e-01	(-1.03340804e+00 4.06193460e-02 0.00000000e+00)
1.4            	U              	(1.98909017e-02 -3.36472771e-02 -1.30244302e-19)	(1.10565837e+00 4.07913059e-01 1.04508224e-17)	(1.17126213e+00 3.85710052e-01 1.96347151e-19)	(-5.49829753e-01 1.49026173e+00 1.44866118e-17)
1.45           	p              	-9.16334626e-01	(2.01798769e-01 -1.01443079e+00 -1.39798975e-17)	7.87108917e-01	(-1.03340804e+00 4.06193460e-02 0.00000000e+00)
1.45           	U              	(1.83445519e-02 -3.14166637e-02 -1.26821973e-19)	(1.10565837e+00 4.07913059e-01 1.04508224e-17)	(1.16652765e+00 3.86185277e-01 1.95459902e-19)	(-5.49829753e-01 1.49026173e+00 1.44866118e-17)
1.5            	p              	-9.10635754e-01	(2.01798769e-01 -1.01443079e+00 -1.39798975e-17)	7.84300508e-01	(-1.03340804e+00 4.06193460e-02 0.00000000e+00)
1.5            	U              	(1.68986827e-02 -2.93203462e-02 -1.23579071e-19)	(1.10565837e+00 4.07913059e-01 1.04508224e-17)	(1.16199264e+00 3.86615726e-01 1.94603414e-19)	(-5.49829753e-01 1.49026173e+00 1.44866118e-17)
1.55           	p              	-9.05074928e-01	(2.01798769e-01 -1.01443079e+00 -1.39798975e-17)	7.81663088e-01	(-1.03340804e+00 4.06193460e-02 0.00000000e+00)
1.55           	U              	(1.55479939e-02 -2.73488983e-02 -1.20425419e-19)	(1.10565837e+00 4.07913059e-01 1.04508224e-17)	(1.32799633e+00 1.05993522e-01 8.47391435e-20)	(6.96548838e-02 1.76997362e+00 0.00000000e+00)
1.6            	p              	-8.99616413e-01	(2.01798769e-01 -1.01443079e+00 -1.39798975e-17)	7.79211738e-01	(-1.03340804e+00 4.06193460e-02 0.00000000e+00)
1.6            	U              	(1.42830980e-02 -2.54931059e-02 -1.17516309e-19)	(1.10565837e+00 4.07913059e-01 1.04508224e-17)	(1.33893345e+00 4.65600952e-02 9.88178619e-20)	(2.20093220e-01 1.85765077e+00 0.00000000e+00)
1.65           	p              	-8.94262703e-01	(2.01798769e-01 -1.01443079e+00 -1.39798975e-17)	7.76912251e-01	(-1.03340804e+00 4.06193460e-02 0.00000000e+00)
1.65           	U              	(1.30992876e-02 -2.37445406e-02 -1.14715610e-19)	(1.10565837e+00 4.07913059e-01 1.04508224e-17)	(1.22795560e+00 3.15885683e-01 1.71113354e-19)	(-4.81739223e-01 1.70757903e+00 -3.38442467e-17)
1.7            	p              	-8.89245509e-01	(1.21582604e-01 -1.02709283e+00 -2.64491183e-17)	7.74736618e-01	(-1.03340804e+00 4.06193460e-02 0.00000000e+00)
1.7            	U              	(1.19902926e-02 -2.20965129e-02 -1.12089770e-19)	(1.10565837e+00 4.07913059e-01 1.04508224e-17)	(1.22465457e+00 3.17111404e-01 1.70267210e-19)	(-4.81739223e-01 1.70757903e+00 -3.38442467e-17)
1.75           	p              	-8.84327126e-01	(1.21582604e-01 -1.02709283e+00 -2.64491183e-17)	7.72694689e-01	(-1.03340804e+00 4.06193460e-02 0.00000000e+00)
1.75           	U              	(1.09521693e-02 -2.05418397e-02 -1.09553033e-19)	(1.10565837e+00 4.07913059e-01 1.04508224e-17)	(1.22145627e+00 3.18268363e-01 1.69428380e-19)	(-4.81739223e-01 1.70757903e+00 -3.38442467e-17)
1.8            	p              	-8.79491873e-01	(1.21582604e-01 -1.02709283e+00 -2.64491183e-17)	7.70780669e-01	(-1.03340804e+00 4.06193460e-02 0.00000000e+00)
1.8            	U              	(9.98051760e-03 -1.90750221e-02 -1.07119210e-19)	(1.10565837e+00 4.07913059e-01 1.04508224e-17)	(1.21835772e+00 3.19361332e-01 1.68607921e-19)	(-4.81739223e-01 1.70757903e+00 -3.38442467e-17)
1.85           	p              	-8.74736063e-01	(1.21582604e-01 -1.02709283e+00 -2.64491183e-17)	7.68955377e-01	(-1.03340804e+00 4.06193460e-02 0.00000000e+00)
1.85           	U              	(9.07081866e-03 -1.76906698e-02 -1.04794542e-19)	(1.10565837e+00 4.07913059e-01 1.04508224e-17)	(1.21535592e+00 3.20394548e-01 1.67806145e-19)	(-4.81739223e-01 1.70757903e+00 -3.38442467e-17)
1.9            	p              	-8.70071112e-01	(1.21582604e-01 -1.02709283e+00 -2.64491183e-17)	7.67212026e-01	(-1.03340804e+00 4.06193460e-02 0.00000000e+00)
1.9            	U              	(8.21937323e-03 -1.63828194e-02 -1.02574247e-19)	(1.10565837e+00 4.07913059e-01 1.04508224e-17)	(1.21244817e+00 3.21372127e-01 1.67025266e-19)	(-4.81739223e-01 1.70757903e+00 -3.38442467e-17)
1.95           	p              	-8.65476101e-01	(1.21582604e-01 -1.02709283e+00 -2.64491183e-17)	7.65559456e-01	(-1.03340804e+00 4.06193460e-02 0.00000000e+00)
1.95           	U              	(7.42250616e-03 -1.51470682e-02 -1.00452585e-19)	(1.10565837e+00 4.07913059e-01 1.04508224e-17)	(1.20963141e+00 3.22297774e-01 1.66262485e-19)	(-4.81739223e-01 1.70757903e+00 -3.38442467e-17)
2              	p              	-8.60950398e-01	(1.21582604e-01 -1.02709283e+00 -2.64491183e-17)	7.63991357e-01	(-1.03340804e+00 4.06193460e-02 0.00000000e+00)
2              	U              	(1.48257891e-02 -4.68064256e-02 -1.84366271e-19)	(1.48871873e+00 1.76335018e-01 0.00000000e+00)	(1.20690266e+00 3.23174933e-01 1.65520812e-19)	(-4.81739223e-01 1.70757903e+00 -3.38442467e-17)
2.05           	p              	-8.56492337e-01	(1.21582604e-01 -1.02709283e+00 -2.64491183e-17)	7.62490831e-01	(-1.03340804e+00 4.06193460e-02 0.00000000e+00)
2.05           	U              	(1.19969866e-02 -4.72402458e-02 -1.80120614e-19)	(1.48871873e+00 1.76335018e-01 0.00000000e+00)	(1.20425904e+00 3.24006821e-01 1.64799478e-19)	(-4.81739223e-01 1.70757903e+00 -3.38442467e-17)
2.1            	p              	-8.52090378e-01	(1.21582604e-01 -1.02709283e+00 -2.64491183e-17)	7.61072278e-01	(-1.03340804e+00 4.06193460e-02 0.00000000e+00)
2.1            	U              	(9.31463745e-03 -4.76431406e-02 -1.75951330e-19)	(1.48871873e+00 1.76335018e-01 0.00000000e+00)	(1.20169731e+00 3.24795959e-01 1.64098898e-19)	(-4.81739223e-01 1.70757903e+00 -3.38442467e-17)
2.15           	p              	-8.47773605e-01	(1.21582604e-01 -1.02709283e+00 -2.64491183e-17)	7.59702586e-01	(-1.03340804e+00 4.06193460e-02 0.00000000e+00)
2.15           	U              	(6.77224897e-03 -4.80159693e-02 -1.71815496e-19)	(1.48871873e+00 1.76335018e-01 0.00000000e+00)	(1.19921497e+00 3.25545092e-01 1.63421693e-19)	(-4.81739223e-01 1.70757903e+00 -3.38442467e-17)
2.2            	p              	-8.43494657e-01	(1.21582604e-01 -1.02709283e+00 -2.64491183e-17)	7.58397922e-01	(-1.03340804e+00 4.06193460e-02 0.00000000e+00)
2.2            	U              	(4.36320751e-03 -4.83593864e-02 -1.67744113e-19)	(1.48871873e+00 1.76335018e-01 0.00000000e+00)	(1.11451068e+00 3.89698176e-01 1.85162493e-19)	(-5.49829753e-01 1.49026173e+00 1.44866118e-17)
2.25           	p              	-8.39318921e-01	(1.21582604e-01 -1.02709283e+00 -2.64491183e-17)	7.57111515e-01	(-1.03340804e+00 4.06193460e-02 0.00000000e+00)
2.25           	U              	(2.08131059e-03 -4.86738461e-02 -1.63756173e-19)	(1.48871873e+00 1.76335018e-01 0.00000000e+00)	(1.11198575e+00 3.89790924e-01 1.84637281e-19)	(-5.49829753e-01 1.49026173e+00 1.44866118e-17)
2.3            	p              	-8.35159456e-01	(1.21582604e-01 -1.02709283e+00 -2.64491183e-17)	7.55903169e-01	(-1.03340804e+00 4.06193460e-02 0.00000000e+00)
2.3            	U              	(-7.92154553e-05 -4.89599934e-02 -1.59856492e-19)	(1.48871873e+00 1.76335018e-01 0.00000000e+00)	(1.10954816e+00 3.89873981e-01 1.84126334e-19)	(-5.49829753e-01 1.49026173e+00 1.44866118e-17)
2.35           	p              	-8.31077453e-01	(1.21582604e-01 -1.02709283e+00 -2.64491183e-17)	7.54726032e-01	(-1.03340804e+00 4.06193460e-02 0.00000000e+00)
2.35           	U              	(-2.12391995e-03 -4.92185537e-02 -1.56046509e-19)	(1.48871873e+00 1.76335018e-01 0.00000000e+00)	(1.10719398e+00 3.89948251e-01 1.83631856e-19)	(-5.49829753e-01 1.49026173e+00 1.44866118e-17)
2.4            	p              	-8.27028243e-01	(1.21582604e-01 -1.02709283e+00 -2.64491183e-17)	7.53603881e-01	(-1.03340804e+00 4.06193460e-02 0.00000000e+00)
2.4            	U              	(-4.05791099e-03 -4.94499388e-02 -1.52266039e-19)	(1.48871873e+00 1.76335018e-01 0.00000000e+00)	(1.10491946e+00 3.90014595e-01 1.83151688e-19)	(-5.49829753e-01 1.49026173e+00 1.44866118e-17)
2.45           	p              	-8.23058363e-01	(1.21582604e-01 -1.02709283e+00 -2.64491183e-17)	7.52497166e-01	(-1.03340804e+00 4.06193460e-02 0.00000000e+00)
2.45           	U              	(-5.88634257e-03 -4.96548328e-02 -1.48576384e-19)	(1.48871873e+00 1.76335018e-01 0.00000000e+00)	(1.10272112e+00 3.90073825e-01 1.82686500e-19)	(-5.49829753e-01 1.49026173e+00 1.44866118e-17)
2.5            	p              	-8.19115208e-01	(1.21582604e-01 -1.02709283e+00 -2.64491183e-17)	7.51464905e-01	(-1.03340804e+00 4.06193460e-02 0.00000000e+00)
2.5            	U              	(-7.61378880e-03 -4.98342811e-02 -1.44981106e-19)	(1.48871873e+00 1.76335018e-01 0.00000000e+00)	(1.10059547e+00 3.90126552e-01 1.82233102e-19)	(-5.49829753e-01 1.49026173e+00 1.44866118e-17)
2.55           	p              	-8.15245423e-01	(1.21582604e-01 -1.02709283e+00 -2.64491183e-17)	7.50431879e-01	(-1.03340804e+00 4.06193460e-02 0.00000000e+00)
2.55           	U              	(-9.24489179e-03 -4.99887275e-02 -1.41482784e-19)	(1.48871873e+00 1.76335018e-01 0.00000000e+00)	(1.29209818e+00 9.08405581e-02 1.57152050e-20)	(2.32067533e-01 1.95860802e+00 0.00000000e+00)
2.6            	p              	-8.11402477e-01	(1.21582604e-01 -1.02709283e+00 -2.64491183e-17)	7.49444546e-01	(-1.03340804e+00 4.06193460e-02 0.00000000e+00)
2.6            	U              	(-1.07839855e-02 -5.01184445e-02 -1.38075741e-19)	(1.48871873e+00 1.76335018e-01 0.00000000e+00)	(1.29590219e+00 4.12011824e-02 6.82824931e-20)	(4.05887266e-01 2.03909204e+00 0.00000000e+00)
2.65           	p              	-8.07636425e-01	(1.21582604e-01 -1.02709283e+00 -2.64491183e-17)	7.48464565e-01	(-1.03340804e+00 4.06193460e-02 0.00000000e+00)
2.65           	U              	(-1.22352295e-02 -5.02239149e-02 -1.34760917e-19)	(1.48871873e+00 1.76335018e-01 0.00000000e+00)	(1.29389227e+00 4.31982906e-02 6.78845537e-20)	(4.05887266e-01 2.03909204e+00 0.00000000e+00)
2.7            	p              	-8.03893802e-01	(1.21582604e-01 -1.02709283e+00 -2.64491183e-17)	7.47531735e-01	(-1.03340804e+00 4.06193460e-02 0.00000000e+00)
2.7            	U              	(-1.36026467e-02 -5.03058443e-02 -1.31541326e-19)	(1.48871873e+00 1.76335018e-01 0.00000000e+00)	(1.29191871e+00 4.51280099e-02 6.74954303e-20)	(4.05887266e-01 2.03909204e+00 0.00000000e+00)
2.75           	p              	-8.00206711e-01	(1.21582604e-01 -1.02709283e+00 -2.64491183e-17)	7.46611702e-01	(-1.03340804e+00 4.06193460e-02 0.00000000e+00)
2.75           	U              	(-1.48901089e-02 -5.03646791e-02 -1.28412403e-19)	(1.48871873e+00 1.76335018e-01 0.00000000e+00)	(1.28998172e+00 4.69927227e-02 6.71148433e-20)	(4.05887266e-01 2.03909204e+00 0.00000000e+00)
2.8            	p              	-7.96547190e-01	(1.21582604e-01 -1.02709283e+00 -2.64491183e-17)	7.45732003e-01	(-1.03340804e+00 4.06193460e-02 0.00000000e+00)
2.8            	U              	(-1.61012867e-02 -5.04009251e-02 -1.25374090e-19)	(1.48871873e+00 1.76335018e-01 0.00000000e+00)	(1.28808131e+00 4.87947145e-02 6.67434955e-20)	(4.05887266e-01 2.03909204e+00 0.00000000e+00)
2.85           	p              	-7.92961447e-01	(1.21582604e-01 -1.02709283e+00 -2.64491183e-17)	7.44851076e-01	(-1.03340804e+00 4.06193460e-02 0.00000000e+00)
2.85           	U              	(-1.72397264e-02 -5.04150562e-02 -1.22424798e-19)	(1.48871873e+00 1.76335018e-01 0.00000000e+00)	(1.28621748e+00 5.05362683e-02 6.63806014e-20)	(4.05887266e-01 2.03909204e+00 0.00000000e+00)
2.9            	p              	-7.89381874e-01	(1.21582604e-01 -1.02709283e+00 -2.64491183e-17)	7.44033690e-01	(-1.03340804e+00 4.06193460e-02 0.00000000e+00)
2.9            	U              	(-1.83086518e-02 -5.04079317e-02 -1.19561489e-19)	(1.48871873e+00 1.76335018e-01 0.00000000e+00)	(1.28438993e+00 5.22194851e-02 6.60276849e-20)	(4.05887266e-01 2.03909204e+00 0.00000000e+00)
2.95           	p              	-7.85868053e-01	(1.21582604e-01 -1.02709283e+00 -2.64491183e-17)	7.43202626e-01	(-1.03340804e+00 4.06193460e-02 0.00000000e+00)
2.95           	U              	(-1.93113761e-02 -5.03799190e-02 -1.16785064e-19)	(1.48871873e+00 1.76335018e-01 0.00000000e+00)	(1.28259855e+00 5.38465361e-02 6.56825268e-20)	(4.05887266e-01 2.03909204e+00 0.00000000e+00)
3              	p              	-7.82378207e-01	(1.21582604e-01 -1.02709283e+00 -2.64491183e-17)	7.42404524e-01	(-1.03340804e+00 4.06193460e-02 0.00000000e+00)
3              	U              	(-2.02510183e-02 -5.03312787e-02 -1.14091388e-19)	(1.48871873e+00 1.76335018e-01 0.00000000e+00)	(1.28084305e+00 5.54195677e-02 6.53459050e-20)	(4.05887266e-01 2.03909204e+00 0.00000000e+00)
3.05           	p              	-7.78965533e-01	(1.21582604e-01 -1.02709283e+00 -2.64491183e-17)	7.41593824e-01	(-1.03340804e+00 4.06193460e-02 0.00000000e+00)
3.05           	U              	(-2.11304391e-02 -5.02623408e-02 -1.11476228e-19)	(1.48871873e+00 1.76335018e-01 0.00000000e+00)	(1.27931611e+00 8.11339461e-02 1.41257742e-19)	(1.30444450e+00 -2.32988990e+00 0.00000000e+00)
3.1            	p              	-7.75565969e-01	(1.21582604e-01 -1.02709283e+00 -2.64491183e-17)	7.40828696e-01	(-1.03340804e+00 4.06193460e-02 0.00000000e+00)
3.1            	U              	(-2.19527753e-02 -5.01739632e-02 -1.08952454e-19)	(1.48871873e+00 1.76335018e-01 0.00000000e+00)	(1.27929978e+00 7.76618098e-02 1.40130868e-19)	(1.30444450e+00 -2.32988990e+00 0.00000000e+00)
3.15           	p              	-7.72206218e-01	(1.21582604e-01 -1.02709283e+00 -2.64491183e-17)	7.40068009e-01	(-1.03340804e+00 4.06193460e-02 0.00000000e+00)
3.15           	U              	(-2.27205726e-02 -5.00661022e-02 -1.06494975e-19)	(1.48871873e+00 1.76335018e-01 0.00000000e+00)	(1.27920739e+00 7.42168628e-02 1.38991754e-19)	(1.30444450e+00 -2.32988990e+00 0.00000000e+00)
3.2            	p              	-7.68890060e-01	(1.21582604e-01 -1.02709283e+00 -2.64491183e-17)	7.39323960e-01	(-1.03340804e+00 4.06193460e-02 0.00000000e+00)
3.2            	U              	(-2.34363433e-02 -4.99391194e-02 -1.04113960e-19)	(1.48871873e+00 1.76335018e-01 0.00000000e+00)	(1.27904238e+00 7.08015653e-02 1.37840859e-19)	(1.30444450e+00 -2.32988990e+00 0.00000000e+00)
3.25           	p              	-7.65601923e-01	(1.21582604e-01 -1.02709283e+00 -2.64491183e-17)	7.38604391e-01	(-1.03340804e+00 4.06193460e-02 0.00000000e+00)
3.25           	U              	(-2.41026551e-02 -4.97935656e-02 -1.01810385e-19)	(1.48871873e+00 1.76335018e-01 0.00000000e+00)	(1.27880793e+00 6.74181110e-02 1.36680623e-19)	(1.30444450e+00 -2.32988990e+00 0.00000000e+00)
3.3            	p              	-7.62359648e-01	(1.21582604e-01 -1.02709283e+00 -2.64491183e-17)	7.37904415e-01	(-1.03340804e+00 4.06193460e-02 0.00000000e+00)
3.3            	U              	(-2.47219513e-02 -4.96301909e-02 -9.95811461e-20)	(1.48871873e+00 1.76335018e-01 0.00000000e+00)	(1.27850722e+00 6.40684495e-02 1.35508962e-19)	(1.30444450e+00 -2.32988990e+00 0.00000000e+00)
3.35           	p              	-7.59143596e-01	(1.21582604e-01 -1.02709283e+00 -2.64491183e-17)	7.37214599e-01	(-1.03340804e+00 4.06193460e-02 0.00000000e+00)
3.35           	U              	(-2.52964792e-02 -4.94492435e-02 -9.74184239e-20)	(1.48871873e+00 1.76335018e-01 0.00000000e+00)	(1.27814309e+00 6.07544210e-02 1.34334727e-19)	(1.30444450e+00 -2.32988990e+00 0.00000000e+00)
3.4            	p              	-7.55961520e-01	(1.21582604e-01 -1.02709283e+00 -2.64491183e-17)	7.36536574e-01	(-1.03340804e+00 4.06193460e-02 0.00000000e+00)
3.4            	U              	(-2.58284567e-02 -4.92509208e-02 -9.53240730e-20)	(1.48871873e+00 1.76335018e-01 0.00000000e+00)	(1.27771824e+00 5.74776796e-02 1.33156293e-19)	(1.30444450e+00 -2.32988990e+00 0.00000000e+00)
3.45           	p              	-7.52865197e-01	(1.21582604e-01 -1.02709283e+00 -2.64491183e-17)	7.35837742e-01	(-1.03340804e+00 4.06193460e-02 0.00000000e+00)
3.45           	U              	(-2.63199110e-02 -4.90355538e-02 -9.32933345e-20)	(1.48871873e+00 1.76335018e-01 0.00000000e+00)	(1.27723542e+00 5.42395829e-02 1.31970401e-19)	(1.30444450e+00 -2.32988990e+00 0.00000000e+00)
3.5            	p              	-7.49770987e-01	(1.21582604e-01 -1.02709283e+00 -2.64491183e-17)	7.35177408e-01	(-1.03340804e+00 4.06193460e-02 0.00000000e+00)
3.5            	U              	(-2.67729484e-02 -4.88034947e-02 -9.13311090e-20)	(1.48871873e+00 1.76335018e-01 0.00000000e+00)	(1.27669679e+00 5.10415437e-02 1.30793031e-19)	(1.30444450e+00 -2.32988990e+00 0.00000000e+00)
3.55           	p              	-7.46705747e-01	(1.21582604e-01 -1.02709283e+00 -2.64491183e-17)	7.34527256e-01	(-1.03340804e+00 4.06193460e-02 0.00000000e+00)
3.55           	U              	(-2.71894708e-02 -4.85549690e-02 -8.94274363e-20)	(1.48871873e+00 1.76335018e-01 0.00000000e+00)	(1.27610483e+00 4.78845745e-02 1.29609308e-19)	(1.30444450e+00 -2.32988990e+00 0.00000000e+00)
3.6            	p              	-7.43679628e-01	(1.21582604e-01 -1.02709283e+00 -2.64491183e-17)	7.33892551e-01	(-1.03340804e+00 4.06193460e-02 0.00000000e+00)
3.6            	U              	(-2.75714086e-02 -4.82906401e-02 -8.75906615e-20)	(1.48871873e+00 1.76335018e-01 0.00000000e+00)	(1.27546183e+00 4.47695965e-02 1.28427073e-19)	(1.30444450e+00 -2.32988990e+00 0.00000000e+00)
3.65           	p              	-7.40678190e-01	(1.21582604e-01 -1.02709283e+00 -2.64491183e-17)	7.33265266e-01	(-1.03340804e+00 4.06193460e-02 0.00000000e+00)
3.65           	U              	(-2.79203741e-02 -4.80102990e-02 -8.57996196e-20)	(1.48871873e+00 1.76335018e-01 0.00000000e+00)	(1.27476985e+00 4.16972706e-02 1.27248055e-19)	(1.30444450e+00 -2.32988990e+00 0.00000000e+00)
3.7            	p              	-7.37720703e-01	(1.21582604e-01 -1.02709283e+00 -2.64491183e-17)	7.32655764e-01	(-1.03340804e+00 4.06193460e-02 0.00000000e+00)
3.7            	U              	(-2.82380130e-02 -4.77145973e-02 -8.40733315e-20)	(1.48871873e+00 1.76335018e-01 0.00000000e+00)	(1.27403106e+00 3.86682314e-02 1.26070269e-19)	(1.30444450e+00 -2.32988990e+00 0.00000000e+00)
3.75           	p              	-7.34793758e-01	(1.21582604e-01 -1.02709283e+00 -2.64491183e-17)	7.32053856e-01	(-1.03340804e+00 4.06193460e-02 0.00000000e+00)
3.75           	U              	(-2.85259948e-02 -4.74039583e-02 -8.24013170e-20)	(1.48871873e+00 1.76335018e-01 0.00000000e+00)	(1.27324741e+00 3.56829679e-02 1.24898692e-19)	(1.30444450e+00 -2.32988990e+00 0.00000000e+00)
3.8            	p              	-7.31905800e-01	(1.21582604e-01 -1.02709283e+00 -2.64491183e-17)	7.31453905e-01	(-1.03340804e+00 4.06193460e-02 0.00000000e+00)
3.8            	U              	(-2.87858787e-02 -4.70785664e-02 -8.07813787e-20)	(1.48871873e+00 1.76335018e-01 0.00000000e+00)	(1.27242076e+00 3.27418851e-02 1.23733557e-19)	(1.30444450e+00 -2.32988990e+00 0.00000000e+00)
3.85           	p              	-7.29043157e-01	(1.21582604e-01 -1.02709283e+00 -2.64491183e-17)	7.30870786e-01	(-1.03340804e+00 4.06193460e-02 0.00000000e+00)
3.85           	U              	(-2.90191523e-02 -4.67387100e-02 -7.92134012e-20)	(1.48871873e+00 1.76335018e-01 0.00000000e+00)	(1.27155293e+00 2.98452488e-02 1.22575038e-19)	(1.30444450e+00 -2.32988990e+00 0.00000000e+00)
3.9            	p              	-7.26225536e-01	(1.21582604e-01 -1.02709283e+00 -2.64491183e-17)	7.30286220e-01	(-1.03340804e+00 4.06193460e-02 0.00000000e+00)