/*--------------------------------*- C++ -*----------------------------------*\
| =========                 |                                                 |
| \\      /  F ield         | OpenFOAM: The Open Source CFD Toolbox           |
|  \\    /   O peration     | Version:  2112                                  |
|   \\  /    A nd           | Website:  www.openfoam.com                      |
|    \\/     M anipulation  |                                                 |
\*---------------------------------------------------------------------------*/
FoamFile
{
    version     2.0;
    format      ascii;
    arch        "LSB;label=32;scalar=64";
    class       volScalarField;
    location    "4";
    object      T;
}
// * * * * * * * * * * * * * * * * * * * * * * * * * * * * * * * * * * * * * //

dimensions      [0 0 0 1 0 0 0];

internalField   nonuniform List<scalar> 
1000
(
0
0
0
0
0
0
0
0
0
0
0
0
0
0
0
0
0
0
0
0
0
0
0
0
0
0
0
0
0
0
0
0
0
0
0
0
0
0
0
0
0
0
0
0
0
0
0
0
0
0
0
0
0
0
0
0
0
0
0
0
0
0
0
0
0
0
0
0
0
0
0
0
0
0
0
0
0
-4.94066e-324
2.47033e-323
6.4772e-321
-5.39421e-320
-5.48824e-318
8.125e-317
4.35092e-315
-1.03626e-313
-3.0608e-312
1.17644e-310
1.66037e-309
-1.2011e-307
-2.49658e-307
1.08875e-304
-1.01657e-303
-8.38724e-302
1.9509e-300
4.80715e-299
-2.37899e-297
-7.86639e-297
2.20475e-294
-2.76994e-293
-1.47668e-291
4.92412e-290
4.22166e-289
-5.06148e-287
5.8843e-286
3.25024e-284
-1.16705e-282
-3.84777e-282
1.09319e-279
-2.0915e-278
-4.66071e-277
2.89939e-275
-3.00248e-274
-1.74577e-272
7.04013e-271
-3.5165e-270
-5.0783e-268
1.70431e-266
-4.97372e-266
-1.30756e-263
4.31445e-262
-2.04352e-261
-3.02079e-259
1.13713e-257
-1.15926e-256
-5.72447e-255
2.92916e-253
-5.39637e-252
-5.3731e-251
6.47411e-249
-1.95285e-247
1.99013e-246
8.58307e-245
-5.03645e-243
1.31079e-241
-1.19553e-240
-5.8475e-239
3.47283e-237
-1.02277e-235
1.65821e-234
9.38106e-234
-1.7857e-231
7.54465e-230
-2.11837e-228
4.07468e-227
-2.79243e-226
-1.90469e-224
1.19085e-222
-4.60326e-221
1.45491e-219
-4.05794e-218
1.03276e-216
-2.4426e-215
5.42998e-214
-1.14339e-212
2.29333e-211
-4.3999e-210
8.10138e-209
-1.43538e-207
2.45254e-206
-4.04854e-205
6.46674e-204
-1.00082e-202
1.5025e-201
-2.19028e-200
3.1031e-199
-4.2761e-198
5.73538e-197
-7.49228e-196
9.53779e-195
-1.18382e-193
1.43327e-192
-1.69339e-191
1.95313e-190
-2.1999e-189
2.42049e-188
-2.60228e-187
2.73439e-186
-2.80881e-185
2.82113e-184
-2.77101e-183
2.66218e-182
-2.50192e-181
2.30038e-180
-2.06943e-179
1.82164e-178
-1.56912e-177
1.32265e-176
-1.09103e-175
8.80701e-175
-6.95682e-174
5.3773e-173
-4.06685e-172
3.00924e-171
-2.17826e-170
1.54226e-169
-1.0679e-168
7.23011e-168
-4.78523e-167
3.09523e-166
-1.95607e-165
1.20734e-164
-7.27547e-164
4.27842e-163
-2.454e-162
1.37208e-161
-7.47315e-161
3.96193e-160
-2.04263e-159
1.02302e-158
-4.97091e-158
2.33975e-157
-1.06478e-156
4.674e-156
-1.97304e-155
7.97761e-155
-3.07272e-154
1.11855e-153
-3.80146e-153
1.18105e-152
-3.21558e-152
6.85714e-152
-6.07557e-152
-4.19009e-151
3.343e-150
-1.5931e-149
5.95083e-149
-1.8003e-148
4.08941e-148
-4.12332e-148
-2.10987e-147
1.67012e-146
-7.23521e-146
2.2786e-145
-4.95889e-145
3.14129e-145
3.50391e-144
-2.21012e-143
8.11128e-143
-1.98876e-142
2.05796e-142
9.53063e-142
-6.88676e-141
2.49921e-140
-5.57027e-140
2.7775e-140
4.06516e-139
-2.20819e-138
6.53292e-138
-9.51683e-138
-1.76438e-137
1.69298e-136
-5.98579e-136
1.10509e-135
6.09336e-136
-1.26729e-134
4.89635e-134
-9.46469e-134
-3.72657e-134
9.88532e-133
-3.72749e-132
6.52098e-132
6.02491e-132
-7.9697e-131
2.60643e-130
-3.35132e-130
-9.04513e-130
6.20835e-129
-1.57029e-128
6.96083e-129
1.0271e-127
-4.26672e-127
6.93589e-127
9.68428e-127
-8.87719e-126
2.28907e-125
-8.24425e-126
-1.50472e-124
5.63158e-124
-6.9122e-124
-2.05732e-123
1.18293e-122
-2.19372e-122
-1.99356e-122
2.24718e-121
-5.38695e-121
-2.49897e-122
4.00419e-120
-1.16073e-119
4.91699e-120
6.89576e-119
-2.30711e-118
1.59431e-118
1.17923e-117
-4.33936e-117
3.54344e-117
2.04688e-116
-7.82449e-116
6.42537e-116
3.6463e-115
-1.35823e-114
9.65884e-115
6.64086e-114
-2.26173e-113
1.09495e-113
1.21641e-112
-3.5723e-112
4.43584e-113
2.19063e-111
-5.23939e-111
-2.19286e-111
3.78684e-110
-6.86204e-110
-8.87239e-110
6.13121e-109
-7.34664e-109
-2.24103e-108
9.03303e-108
-4.55344e-108
-4.53819e-107
1.15859e-106
4.71345e-107
-7.75434e-106
1.17432e-105
2.37191e-105
-1.11536e-104
6.27964e-105
5.31112e-104
-1.28538e-103
-8.16068e-104
8.66064e-103
-9.85055e-103
-3.23224e-102
1.07205e-101
8.12947e-103
-6.03544e-101
8.88921e-101
1.93649e-100
-7.72347e-100
9.55293e-101
4.00453e-99
-6.23484e-99
-1.24841e-98
5.01965e-98
-2.77575e-99
-2.58521e-97
3.54847e-97
8.77041e-97
-2.94114e-96
-8.07555e-97
1.59614e-95
-1.51905e-95
-6.23721e-95
1.48804e-94
1.40666e-94
-8.96051e-94
2.93905e-94
4.08094e-93
-5.76749e-93
-1.38267e-92
4.20021e-92
2.44766e-92
-2.25049e-91
9.97246e-92
9.72529e-91
-1.3667e-90
-3.32926e-90
9.31996e-90
7.41305e-90
-4.93401e-89
6.65388e-90
2.20443e-88
-2.04085e-88
-8.4194e-88
1.55289e-87
2.64041e-87
-8.82223e-87
-5.59045e-87
4.28131e-86
-3.67275e-87
-1.8518e-85
1.31752e-85
7.23385e-85
-9.95628e-85
-2.53857e-84
5.66769e-84
7.75616e-84
-2.80518e-83
-1.85664e-83
1.26767e-82
1.79335e-83
-5.35158e-82
1.59653e-82
2.13703e-81
-1.51803e-81
-8.13168e-81
9.18688e-81
2.96112e-80
-4.70193e-80
-1.03414e-79
2.1929e-79
3.46512e-79
-9.62107e-79
-1.11239e-78
4.03945e-78
3.40907e-78
-1.64033e-77
-9.90761e-78
6.48947e-77
2.69962e-77
-2.51455e-76
-6.76133e-77
9.5814e-76
1.50065e-76
-3.60118e-75
-2.73586e-76
1.33812e-74
3.38306e-76
-4.9234e-74
-1.82656e-76
1.79529e-73
1.93016e-75
-6.48931e-73
-2.98472e-74
2.32413e-72
2.53493e-73
-8.23821e-72
-1.64592e-72
2.88492e-71
9.18785e-72
-9.95563e-71
-4.64433e-71
3.37432e-70
2.18359e-70
-1.11835e-69
-9.69446e-70
3.60317e-69
4.10054e-69
-1.11921e-68
-1.66096e-68
3.30966e-68
6.45983e-68
-9.11996e-68
-2.41408e-67
2.24248e-67
8.66036e-67
-4.37351e-67
-2.97429e-66
3.27915e-67
9.72981e-66
2.75412e-66
-3.00602e-65
-2.12991e-65
8.64198e-65
1.05515e-64
-2.24741e-64
-4.3594e-64
4.95219e-64
1.6009e-63
-7.35325e-64
-5.32823e-63
-5.31267e-64
1.60668e-62
1.04365e-62
-4.30855e-62
-5.63055e-62
9.73699e-62
2.27494e-61
-1.54073e-61
-7.75151e-61
-2.93461e-62
2.28066e-60
1.57483e-60
-5.67036e-60
-8.44848e-60
1.07767e-59
3.21242e-59
-8.50652e-60
-9.90126e-59
-4.78644e-59
2.4874e-58
3.24228e-58
-4.61354e-58
-1.27848e-57
3.01288e-58
3.8462e-57
2.2587e-57
-8.92576e-57
-1.37042e-56
1.33244e-56
4.93247e-56
5.64908e-57
-1.30905e-55
-1.30973e-55
2.41167e-55
5.74862e-55
-1.3016e-55
-1.67718e-54
-1.21566e-54
3.36441e-54
6.47338e-54
-2.74595e-54
-1.99293e-53
-1.23503e-53
4.04733e-53
7.33188e-53
-3.20004e-53
-2.25177e-52
-1.49661e-52
4.30491e-52
8.43739e-52
-2.15938e-52
-2.4123e-51
-2.06373e-51
3.93377e-51
9.63459e-51
7.04411e-52
-2.37354e-50
-2.87309e-50
2.71879e-50
1.03908e-49
5.25388e-50
-1.99127e-49
-3.67156e-49
5.90063e-50
9.84889e-49
1.04729e-48
-1.15902e-48
-4.01276e-48
-2.12352e-48
7.20186e-48
1.42714e-47
5.07822e-49
-3.41334e-47
-4.51738e-47
2.42001e-47
1.40871e-46
1.26858e-46
-1.71086e-46
-5.32739e-46
-3.05414e-46
8.60272e-46
1.89878e-45
5.54876e-46
-3.74079e-45
-6.50569e-45
-2.51186e-46
1.49807e-44
2.17861e-44
-4.13572e-45
-5.69379e-44
-7.24148e-44
2.77249e-44
2.08942e-43
2.42354e-43
-1.26233e-43
-7.4794e-43
-8.26295e-43
4.80767e-43
2.62614e-42
2.88947e-42
-1.59579e-42
-9.05759e-42
-1.03634e-41
4.51369e-42
3.06115e-41
3.78706e-41
-9.49007e-42
-1.007e-40
-1.39405e-40
3.08887e-42
3.18571e-40
5.0986e-40
1.17095e-40
-9.49415e-40
-1.82556e-39
-9.03531e-40
2.56425e-39
6.29728e-39
4.88402e-39
-5.72241e-39
-2.05253e-38
-2.23302e-38
7.08905e-39
6.14503e-38
9.06209e-38
2.22225e-38
-1.603e-37
-3.29734e-37
-2.29345e-37
3.15954e-37
1.06263e-36
1.20652e-36
-1.54539e-37
-2.90599e-36
-4.91797e-36
-2.61537e-36
5.90585e-36
1.64867e-35
1.75283e-35
-3.30238e-36
-4.40123e-35
-7.48247e-35
-4.49567e-35
7.68614e-35
2.41676e-34
2.92028e-34
3.54467e-35
-5.59453e-34
-1.14741e-33
-1.00662e-33
5.14832e-34
3.15163e-33
5.02816e-33
3.08138e-33
-4.69761e-33
-1.58131e-32
-2.1201e-32
-8.31827e-33
2.85933e-32
7.47635e-32
8.89616e-32
1.99821e-32
-1.48584e-31
-3.43208e-31
-3.8215e-31
-5.16525e-32
7.0384e-31
1.55419e-30
1.71201e-30
2.51481e-31
-3.09731e-30
-6.97595e-30
-8.02265e-30
-2.07949e-30
1.2556e-29
3.08568e-29
3.87986e-29
1.73109e-29
-4.48679e-29
-1.3226e-28
-1.88902e-28
-1.27688e-28
1.22027e-28
5.32307e-28
8.98094e-28
8.35507e-28
-6.30784e-29
-1.89242e-27
-4.0221e-27
-4.88483e-27
-2.34917e-27
5.04279e-27
1.61282e-26
2.53585e-26
2.28516e-26
-1.93936e-27
-5.22369e-26
-1.13649e-25
-1.47412e-25
-9.60565e-26
9.03688e-26
4.07009e-25
7.40829e-25
8.45536e-25
3.9224e-25
-8.6563e-25
-2.82001e-24
-4.71997e-24
-5.06109e-24
-1.91062e-24
6.12517e-24
1.83303e-23
3.02003e-23
3.27119e-23
1.39981e-23
-3.53015e-23
-1.12944e-22
-1.94577e-22
-2.27376e-22
-1.3618e-22
1.49382e-22
6.4322e-22
1.23506e-21
1.63349e-21
1.36625e-21
-1.05056e-22
-3.11211e-21
-7.35716e-21
-1.14458e-20
-1.26103e-20
-6.97802e-21
9.22897e-21
3.73288e-20
7.2847e-20
1.02148e-19
1.00895e-19
3.70181e-20
-1.1894e-19
-3.74427e-19
-6.87887e-19
-9.4109e-19
-9.24773e-19
-3.58416e-19
1.03214e-18
3.3615e-18
6.35872e-18
9.10972e-18
9.86511e-18
6.07309e-18
-5.15447e-18
-2.59366e-17
-5.57704e-17
-8.90602e-17
-1.1257e-16
-1.03894e-16
-3.26642e-17
1.33348e-16
4.1507e-16
8.00717e-16
1.21726e-15
1.5e-15
1.3713e-15
4.46581e-16
-1.70802e-15
-5.43852e-15
-1.07635e-14
-1.70264e-14
-2.24699e-14
-2.38226e-14
-1.60672e-14
7.33824e-15
5.34233e-14
1.27429e-13
2.289e-13
3.45944e-13
4.47891e-13
4.77364e-13
3.43914e-13
-7.70405e-14
-9.34378e-13
-2.37306e-12
-4.47867e-12
-7.18573e-12
-1.01433e-11
-1.25379e-11
-1.28867e-11
-8.83398e-12
2.98424e-12
2.69005e-11
6.78415e-11
1.30396e-10
2.17039e-10
3.25179e-10
4.42669e-10
5.41478e-10
5.69386e-10
4.39886e-10
2.1125e-11
-8.74347e-10
-2.49572e-09
-5.15051e-09
-9.18305e-09
-1.49223e-08
-2.25806e-08
-3.2079e-08
-4.27634e-08
-5.29686e-08
-5.93697e-08
-5.60475e-08
-3.31747e-08
2.47911e-08
1.41546e-07
3.52174e-07
7.07368e-07
1.27886e-06
2.16632e-06
3.50598e-06
5.48131e-06
8.3361e-06
1.23902e-05
1.80586e-05
2.58734e-05
3.65103e-05
5.0819e-05
6.98578e-05
9.49329e-05
0.000127643
0.00016993
0.000224131
0.000293038
0.000379965
0.000488812
0.000624138
0.000791235
0.000996205
0.00124604
0.00154868
0.00191313
0.00234946
0.00286894
0.00348406
0.00420857
0.00505753
0.00604734
0.00719571
0.00852168
0.0100456
0.0117889
0.0137745
0.016026
0.0185681
0.0214264
0.0246268
0.028196
0.0321607
0.0365475
0.0413829
0.0466928
0.0525022
0.0588351
0.065714
0.0731598
0.0811915
0.0898255
0.0990762
0.108955
0.119469
0.130625
0.142425
0.154865
0.167942
0.181645
0.195962
0.210876
0.226368
0.242412
0.258982
0.276048
0.293574
0.311525
0.32986
0.348539
0.367517
0.386749
0.406188
0.425787
0.445496
0.465267
0.485051
0.5048
0.524467
0.544004
0.563367
0.582513
0.6014
0.619989
0.638244
0.656129
0.673613
0.690669
0.707269
0.723392
0.739017
0.754127
0.76871
0.782753
0.79625
0.809195
0.821585
0.83342
0.844703
0.855438
0.865632
0.875293
0.884432
0.893059
0.901189
0.908835
0.916012
0.922736
0.929024
0.934893
0.940359
0.94544
0.950153
0.954515
0.958542
0.962251
0.965656
0.968772
0.971613
0.97419
0.976516
0.9786
0.98045
0.982074
0.983476
0.984661
0.98563
0.986384
0.98692
0.987235
0.987324
0.987178
0.986788
0.986142
0.985228
0.984031
0.982533
0.980716
0.978561
0.976048
0.973154
0.969856
0.966132
0.961958
0.95731
0.952166
0.946502
0.940298
0.933532
0.926185
0.91824
0.909682
0.900497
0.890676
0.880212
0.8691
0.857339
0.844931
0.831883
0.818205
0.803909
0.789013
0.773538
0.757507
0.740949
0.723894
0.706376
0.688433
0.670104
0.65143
0.632457
0.613229
0.593793
0.574197
0.554491
0.534722
0.514939
0.495192
0.475527
0.45599
0.436628
0.417483
0.398596
0.380008
0.361754
0.343869
0.326385
0.30933
0.29273
0.276608
0.260983
0.245872
0.23129
0.217246
0.203749
0.190805
0.178415
0.16658
0.155297
0.144561
0.134367
0.124706
0.115567
0.106939
0.0988076
0.0911599
0.0839799
0.0772516
0.0709579
0.0650816
0.0596048
0.0545094
0.0497773
0.0453902
0.0413302
0.0375793
0.0341199
0.0309348
0.0280072
0.0253208
0.0228598
0.020609
0.018554
0.0166798
0.0149785
0.0134088
0.0121124
0.0102564
)
;

boundaryField
{
    sides
    {
        type            zeroGradient;
    }
    empty
    {
        type            empty;
    }
}


// ************************************************************************* //
