/*--------------------------------*- C++ -*----------------------------------*\
| =========                 |                                                 |
| \\      /  F ield         | OpenFOAM: The Open Source CFD Toolbox           |
|  \\    /   O peration     | Version:  2112                                  |
|   \\  /    A nd           | Website:  www.openfoam.com                      |
|    \\/     M anipulation  |                                                 |
\*---------------------------------------------------------------------------*/
FoamFile
{
    version     2.0;
    format      ascii;
    arch        "LSB;label=32;scalar=64";
    class       volScalarField;
    location    "0.003";
    object      mag(U);
}
// * * * * * * * * * * * * * * * * * * * * * * * * * * * * * * * * * * * * * //

dimensions      [0 1 -1 0 0 0 0];

internalField   nonuniform List<scalar> 
100
(
4.19823e-12
5.80575e-12
4.84882e-12
4.21573e-12
2.85328e-12
3.19899e-12
6.79768e-13
2.1881e-14
2.73658e-12
9.8756e-13
3.57389e-13
2.20998e-12
6.33089e-13
7.03108e-13
8.75238e-14
9.3067e-13
3.09251e-12
1.91706e-11
1.15721e-10
6.87835e-10
3.96283e-09
2.20958e-08
1.18407e-07
6.11799e-07
3.02776e-06
1.43897e-05
6.52381e-05
0.000282608
0.00116192
0.00453521
0.0166879
0.0577895
0.186842
0.561077
1.54737
3.86885
8.55924
16.5115
28.1628
43.4162
61.5824
81.6126
102.783
124.187
145.816
166.907
187.386
207.009
225.344
242.502
257.294
269.376
279.728
287.647
292.797
296.558
298.991
298.69
295.939
292.058
287.921
284.45
282.017
279.906
275.928
265.552
234.785
147.408
39.3365
6.3776
0.935919
0.130823
0.0178531
0.002393
0.000315426
4.09251e-05
5.23268e-06
6.6019e-07
8.23101e-08
1.01543e-08
1.24108e-09
1.49815e-10
1.76798e-11
1.63378e-12
5.09098e-13
9.49082e-28
0
8.79296e-28
4.3762e-13
4.3762e-13
4.36161e-13
7.38336e-30
4.36161e-13
0
0
4.36161e-13
7.38336e-30
4.36161e-13
4.3762e-13
4.36161e-13
)
;

boundaryField
{
    sides
    {
        type            calculated;
        value           nonuniform List<scalar> 2(4.36161e-13 4.19823e-12);
    }
    empty
    {
        type            empty;
    }
}


// ************************************************************************* //
