/*--------------------------------*- C++ -*----------------------------------*\
| =========                 |                                                 |
| \\      /  F ield         | OpenFOAM: The Open Source CFD Toolbox           |
|  \\    /   O peration     | Version:  2112                                  |
|   \\  /    A nd           | Website:  www.openfoam.com                      |
|    \\/     M anipulation  |                                                 |
\*---------------------------------------------------------------------------*/
FoamFile
{
    version     2.0;
    format      ascii;
    arch        "LSB;label=32;scalar=64";
    class       volVectorField;
    location    "0.003";
    object      U;
}
// * * * * * * * * * * * * * * * * * * * * * * * * * * * * * * * * * * * * * //

dimensions      [0 1 -1 0 0 0 0];

internalField   nonuniform List<vector> 
100
(
(4.19823e-12 0 0)
(5.80575e-12 0 0)
(4.84882e-12 0 0)
(4.21573e-12 0 0)
(2.85328e-12 0 0)
(3.19899e-12 0 0)
(6.79768e-13 0 0)
(-2.1881e-14 0 0)
(-2.73658e-12 0 0)
(-9.8756e-13 0 0)
(3.57389e-13 0 0)
(-2.20998e-12 0 0)
(-6.33089e-13 0 0)
(-7.03108e-13 0 0)
(8.75238e-14 0 0)
(9.3067e-13 0 0)
(3.09251e-12 0 0)
(1.91706e-11 0 0)
(1.15721e-10 0 0)
(6.87835e-10 0 0)
(3.96283e-09 0 0)
(2.20958e-08 0 0)
(1.18407e-07 0 0)
(6.11799e-07 0 0)
(3.02776e-06 0 0)
(1.43897e-05 0 0)
(6.52381e-05 0 0)
(0.000282608 0 0)
(0.00116192 0 0)
(0.00453521 0 0)
(0.0166879 0 0)
(0.0577895 0 0)
(0.186842 0 0)
(0.561077 0 0)
(1.54737 0 0)
(3.86885 0 0)
(8.55924 0 0)
(16.5115 0 0)
(28.1628 0 0)
(43.4162 0 0)
(61.5824 0 0)
(81.6126 0 0)
(102.783 0 0)
(124.187 0 0)
(145.816 0 0)
(166.907 0 0)
(187.386 0 0)
(207.009 0 0)
(225.344 0 0)
(242.502 0 0)
(257.294 0 0)
(269.376 0 0)
(279.728 0 0)
(287.647 0 0)
(292.797 0 0)
(296.558 0 0)
(298.991 0 0)
(298.69 0 0)
(295.939 0 0)
(292.058 0 0)
(287.921 0 0)
(284.45 0 0)
(282.017 0 0)
(279.906 0 0)
(275.928 0 0)
(265.552 0 0)
(234.785 0 0)
(147.408 0 0)
(39.3365 0 0)
(6.3776 0 0)
(0.935919 0 0)
(0.130823 0 0)
(0.0178531 0 0)
(0.002393 0 0)
(0.000315426 0 0)
(4.09251e-05 0 0)
(5.23268e-06 0 0)
(6.6019e-07 0 0)
(8.23101e-08 0 0)
(1.01543e-08 0 0)
(1.24108e-09 0 0)
(1.49815e-10 0 0)
(1.76798e-11 0 0)
(1.63378e-12 0 0)
(5.09098e-13 0 0)
(9.49082e-28 0 0)
(0 0 0)
(-8.79296e-28 0 0)
(-4.3762e-13 0 0)
(4.3762e-13 0 0)
(4.36161e-13 0 0)
(7.38336e-30 0 0)
(-4.36161e-13 0 0)
(0 0 0)
(0 0 0)
(4.36161e-13 0 0)
(-7.38336e-30 0 0)
(-4.36161e-13 0 0)
(-4.3762e-13 0 0)
(-4.36161e-13 0 0)
)
;

boundaryField
{
    sides
    {
        type            zeroGradient;
    }
    empty
    {
        type            empty;
    }
}


// ************************************************************************* //
