/*--------------------------------*- C++ -*----------------------------------*\
| =========                 |                                                 |
| \\      /  F ield         | OpenFOAM: The Open Source CFD Toolbox           |
|  \\    /   O peration     | Version:  2112                                  |
|   \\  /    A nd           | Website:  www.openfoam.com                      |
|    \\/     M anipulation  |                                                 |
\*---------------------------------------------------------------------------*/
FoamFile
{
    version     2.0;
    format      ascii;
    arch        "LSB;label=32;scalar=64";
    class       volScalarField;
    location    "20";
    object      T;
}
// * * * * * * * * * * * * * * * * * * * * * * * * * * * * * * * * * * * * * //

dimensions      [0 0 0 1 0 0 0];

internalField   nonuniform List<scalar> 
10000
(
4.06598e-20
3.47855e-20
2.87357e-20
2.40892e-20
2.08528e-20
1.91103e-20
1.88468e-20
1.995e-20
2.24345e-20
2.53647e-20
2.89376e-19
2.44823e-19
2.01107e-19
1.67568e-19
1.44466e-19
1.32139e-19
1.30355e-19
1.38459e-19
1.56345e-19
1.78599e-19
1.3947e-18
1.1658e-18
9.46949e-19
7.8092e-19
6.68949e-19
6.09984e-19
6.01905e-19
6.43078e-19
7.32481e-19
8.45773e-19
6.38884e-18
5.30778e-18
4.26632e-18
3.48256e-18
2.96321e-18
2.69257e-18
2.65741e-18
2.85372e-18
3.27477e-18
3.79945e-18
2.85946e-17
2.3701e-17
1.8902e-17
1.5301e-17
1.2941e-17
1.17173e-17
1.15579e-17
1.24477e-17
1.43445e-17
1.66583e-17
1.25908e-16
1.04285e-16
8.27365e-17
6.6558e-17
5.60124e-17
5.05408e-17
4.97696e-17
5.36278e-17
6.18695e-17
7.17653e-17
5.46837e-16
4.52952e-16
3.58293e-16
2.87035e-16
2.4063e-16
2.16382e-16
2.12459e-16
2.28495e-16
2.63223e-16
3.04585e-16
2.3453e-15
1.9438e-15
1.5357e-15
1.22738e-15
1.02611e-15
9.19556e-16
8.99163e-16
9.63061e-16
1.10539e-15
1.27489e-15
9.94087e-15
8.2474e-15
6.51614e-15
5.20325e-15
4.34203e-15
3.8778e-15
3.772e-15
4.01575e-15
4.5841e-15
5.26582e-15
4.16643e-14
3.46135e-14
2.73757e-14
2.18657e-14
1.82272e-14
1.62219e-14
1.56819e-14
1.65673e-14
1.87792e-14
2.1471e-14
1.7272e-13
1.43727e-13
1.13882e-13
9.1068e-14
7.58807e-14
6.72948e-14
6.45981e-14
6.76245e-14
7.60047e-14
8.64325e-14
7.08268e-13
5.90509e-13
4.6906e-13
3.75814e-13
3.13174e-13
2.76743e-13
2.63592e-13
2.73069e-13
3.03879e-13
3.43477e-13
2.87284e-12
2.40039e-12
1.91249e-12
1.53623e-12
1.28091e-12
1.12783e-12
1.06517e-12
1.09057e-12
1.19991e-12
1.34705e-12
1.15243e-11
9.65201e-12
7.71685e-12
6.21858e-12
5.19003e-12
4.55363e-12
4.26161e-12
4.30645e-12
4.67806e-12
5.2109e-12
4.57074e-11
3.83818e-11
3.08073e-11
2.49211e-11
2.08274e-11
1.82104e-11
1.68775e-11
1.68099e-11
1.80005e-11
1.98736e-11
1.79163e-10
1.50877e-10
1.2165e-10
9.8851e-11
8.27583e-11
7.21158e-11
6.61502e-11
6.48443e-11
6.83294e-11
7.46804e-11
6.93674e-10
5.86e-10
4.75e-10
3.87996e-10
3.25553e-10
2.82739e-10
2.56529e-10
2.47143e-10
2.55739e-10
2.76308e-10
2.65078e-09
2.24769e-09
1.83322e-09
1.50646e-09
1.26761e-09
1.09717e-09
9.84035e-10
9.30434e-10
9.43221e-10
1.00565e-09
9.98907e-09
8.50809e-09
6.98816e-09
5.78327e-09
4.88397e-09
4.21362e-09
3.73375e-09
3.45912e-09
3.42641e-09
3.59668e-09
3.70842e-08
3.17481e-08
2.6289e-08
2.19384e-08
1.86114e-08
1.60128e-08
1.40138e-08
1.26979e-08
1.22523e-08
1.26293e-08
1.35435e-07
1.16618e-07
9.74943e-08
8.21657e-08
7.00999e-08
6.01944e-08
5.20222e-08
4.60214e-08
4.31068e-08
4.34899e-08
4.85537e-07
4.20989e-07
3.5598e-07
3.03509e-07
2.608e-07
2.23736e-07
1.90995e-07
1.64732e-07
1.49183e-07
1.46706e-07
1.7045e-06
1.49057e-06
1.27756e-06
1.10427e-06
9.57584e-07
8.2195e-07
6.93698e-07
5.82807e-07
5.07994e-07
4.84421e-07
5.84164e-06
5.16155e-06
4.49552e-06
3.94969e-06
3.46488e-06
2.98269e-06
2.49331e-06
2.0404e-06
1.70393e-06
1.56495e-06
1.94651e-05
1.74164e-05
1.54599e-05
1.38479e-05
1.23268e-05
1.06771e-05
8.86922e-06
7.08163e-06
5.64314e-06
4.94739e-06
6.27396e-05
5.6997e-05
5.17325e-05
4.73997e-05
4.297e-05
3.76169e-05
3.12141e-05
2.44275e-05
1.85383e-05
1.53366e-05
0.000194419
0.000179863
0.000167488
0.000157508
0.000146019
0.000129933
0.000108531
8.39855e-05
6.08908e-05
4.68618e-05
0.000575164
0.000543521
0.000520892
0.000504324
0.000480148
0.000437244
0.000371514
0.000288553
0.000202928
0.00014342
0.00161187
0.00156022
0.00154252
0.00154096
0.00151225
0.00141935
0.00124232
0.000988752
0.000697489
0.000454112
0.00424463
0.00421712
0.00430507
0.00444026
0.00450203
0.00438242
0.00400782
0.00336024
0.00256465
0.0017014
3.50907e-20
3.02305e-20
2.51468e-20
2.11977e-20
1.84199e-20
1.69172e-20
1.66691e-20
1.75844e-20
1.96462e-20
2.2036e-20
2.46952e-19
2.11081e-19
1.74863e-19
1.46565e-19
1.26875e-19
1.16315e-19
1.14647e-19
1.21343e-19
1.35949e-19
1.53505e-19
1.17579e-18
9.96297e-19
8.17941e-19
6.78897e-19
5.84073e-19
5.33752e-19
5.26417e-19
5.60201e-19
6.31803e-19
7.18622e-19
5.35068e-18
4.5154e-18
3.67546e-18
3.0229e-18
2.58434e-18
2.35358e-18
2.32148e-18
2.48037e-18
2.81205e-18
3.20951e-18
2.38839e-17
2.0125e-17
1.62825e-17
1.3298e-17
1.13073e-17
1.02635e-17
1.01135e-17
1.08233e-17
1.22996e-17
1.40418e-17
1.05077e-16
8.85098e-17
7.13486e-17
5.79835e-17
4.90913e-17
4.44129e-17
4.36692e-17
4.67008e-17
5.30583e-17
6.0485e-17
4.56449e-16
3.84553e-16
3.09392e-16
2.50667e-16
2.11551e-16
1.90763e-16
1.86939e-16
1.99335e-16
2.25932e-16
2.56965e-16
1.95927e-15
1.65166e-15
1.32798e-15
1.07432e-15
9.04715e-16
8.13151e-16
7.9329e-16
8.41808e-16
9.50138e-16
1.0774e-15
8.31454e-15
7.01578e-15
5.64338e-15
4.5644e-15
3.83871e-15
3.43894e-15
3.33677e-15
3.51797e-15
3.94787e-15
4.46001e-15
3.48991e-14
2.94846e-14
2.37477e-14
1.92218e-14
1.61553e-14
1.44255e-14
1.39098e-14
1.45499e-14
1.62114e-14
1.82337e-14
1.44919e-13
1.22624e-13
9.89627e-14
8.02236e-14
6.74195e-14
6.00019e-14
5.7456e-14
5.95544e-14
6.5796e-14
7.36259e-14
5.95402e-13
5.04709e-13
4.08358e-13
3.31753e-13
2.78905e-13
2.47401e-13
2.35118e-13
2.41206e-13
2.63909e-13
2.93592e-13
2.42014e-12
2.0557e-12
1.66821e-12
1.3591e-12
1.1434e-12
1.01098e-12
9.52991e-13
9.66475e-13
1.04593e-12
1.15582e-12
9.73085e-12
8.28451e-12
6.74631e-12
5.51482e-12
4.64469e-12
4.0936e-12
3.82538e-12
3.83071e-12
4.09488e-12
4.49105e-12
3.86929e-11
3.30255e-11
2.70004e-11
2.21595e-11
1.86912e-11
1.64215e-11
1.52044e-11
1.50158e-11
1.58314e-11
1.72151e-11
1.52089e-10
1.30182e-10
1.06921e-10
8.81551e-11
7.45028e-11
6.52509e-11
5.98262e-11
5.81991e-11
6.04174e-11
6.50622e-11
5.90623e-10
5.0718e-10
4.18797e-10
3.47116e-10
2.94107e-10
2.56761e-10
2.32995e-10
2.22996e-10
2.27494e-10
2.42272e-10
2.26468e-09
1.95176e-09
1.62162e-09
1.35242e-09
1.14953e-09
1.00057e-09
8.98193e-10
8.44436e-10
8.44778e-10
8.88187e-10
8.5671e-09
7.41528e-09
6.20478e-09
5.21221e-09
4.44744e-09
3.86116e-09
3.42751e-09
3.16027e-09
3.0926e-09
3.20351e-09
3.19403e-08
2.77883e-08
2.34431e-08
1.98598e-08
1.70257e-08
1.47512e-08
1.29452e-08
1.16881e-08
1.11559e-08
1.1357e-08
1.17207e-07
1.02577e-07
8.73867e-08
7.47612e-08
6.44774e-08
5.57839e-08
4.83948e-08
4.27295e-08
3.96428e-08
3.95405e-08
4.22651e-07
3.72524e-07
3.21039e-07
2.7785e-07
2.41447e-07
2.08814e-07
1.79157e-07
1.54505e-07
1.38801e-07
1.35098e-07
1.49443e-06
1.32845e-06
1.16041e-06
1.01822e-06
8.93174e-07
7.73508e-07
6.57015e-07
5.52981e-07
4.79081e-07
4.52652e-07
5.1654e-06
4.63922e-06
4.11747e-06
3.67228e-06
3.25963e-06
2.83349e-06
2.38751e-06
1.96165e-06
1.63202e-06
1.48663e-06
1.73874e-05
1.58125e-05
1.42995e-05
1.30004e-05
1.17123e-05
1.02533e-05
8.59978e-06
6.91166e-06
5.50156e-06
4.78742e-06
5.67326e-05
5.23769e-05
4.84087e-05
4.50064e-05
4.13036e-05
3.65785e-05
3.07024e-05
2.42547e-05
1.8441e-05
1.51444e-05
0.000178399
0.000167688
0.000158889
0.000151555
0.000142262
0.000128181
0.000108509
8.50314e-05
6.19524e-05
4.72703e-05
0.000536993
0.000515428
0.000502102
0.000492783
0.000475121
0.000438499
0.000378284
0.000298515
0.000211633
0.00014781
0.00153537
0.00150891
0.00151423
0.00153218
0.00152284
0.00144978
0.00129038
0.00104751
0.000745364
0.000476787
0.00413537
0.00416879
0.00431216
0.00449996
0.00462005
0.00456439
0.00424952
0.0036463
0.00282683
0.00180936
2.95682e-20
2.56611e-20
2.15241e-20
1.82847e-20
1.59824e-20
1.47198e-20
1.44883e-20
1.52103e-20
1.68759e-20
1.87985e-20
2.06926e-19
1.78435e-19
1.4923e-19
1.26144e-19
1.09887e-19
1.01035e-19
9.94759e-20
1.04717e-19
1.16363e-19
1.30304e-19
9.74319e-19
8.34687e-19
6.93141e-19
5.80926e-19
5.03318e-19
4.61458e-19
4.54475e-19
4.80551e-19
5.36364e-19
6.03757e-19
4.38923e-18
3.7511e-18
3.09652e-18
2.57623e-18
2.22025e-18
2.02945e-18
1.99793e-18
2.11786e-18
2.37012e-18
2.67121e-18
1.94473e-17
1.66206e-17
1.3671e-17
1.13165e-17
9.71096e-18
8.84974e-18
8.69877e-18
9.22048e-18
1.03189e-17
1.16117e-17
8.51446e-17
7.28492e-17
5.98195e-17
4.93628e-17
4.22252e-17
3.83654e-17
3.7607e-17
3.97717e-17
4.44123e-17
4.98354e-17
3.68876e-16
3.15996e-16
2.59373e-16
2.13716e-16
1.82427e-16
1.65259e-16
1.61363e-16
1.69939e-16
1.89038e-16
2.11442e-16
1.5818e-15
1.35676e-15
1.11425e-15
9.17907e-16
7.82528e-16
7.06795e-16
6.86819e-16
7.19186e-16
7.95868e-16
8.87021e-16
6.71464e-15
5.76734e-15
4.74263e-15
3.90976e-15
3.3311e-15
2.9999e-15
2.89897e-15
3.01444e-15
3.31467e-15
3.67939e-15
2.82192e-14
2.42756e-14
1.99998e-14
1.65115e-14
1.40664e-14
1.26309e-14
1.21311e-14
1.2513e-14
1.36575e-14
1.50909e-14
1.17415e-13
1.01181e-13
8.35551e-14
6.91218e-14
5.89058e-14
5.27412e-14
5.03178e-14
5.14356e-14
5.56678e-14
6.11946e-14
4.83651e-13
4.17573e-13
3.45787e-13
2.86787e-13
2.44571e-13
2.18349e-13
2.06836e-13
2.09338e-13
2.24429e-13
2.45291e-13
1.97197e-12
1.70614e-12
1.41733e-12
1.1791e-12
1.00659e-12
8.96123e-13
8.4247e-13
8.43437e-13
8.94762e-13
9.71639e-13
7.95676e-12
6.90021e-12
5.753e-12
4.80305e-12
4.10618e-12
3.64538e-12
3.3998e-12
3.3637e-12
3.52682e-12
3.8022e-12
3.17628e-11
2.76157e-11
2.31194e-11
1.93816e-11
1.65999e-11
1.4697e-11
1.35918e-11
1.3276e-11
1.37396e-11
1.46922e-11
1.25398e-10
1.09335e-10
9.19637e-11
7.74626e-11
6.64978e-11
5.87209e-11
5.38262e-11
5.18488e-11
5.28853e-11
5.60336e-11
4.89385e-10
4.2805e-10
3.61981e-10
3.06576e-10
2.63934e-10
2.32498e-10
2.11154e-10
2.0035e-10
2.0106e-10
2.10808e-10
1.88687e-09
1.65641e-09
1.40943e-09
1.20128e-09
1.03782e-09
9.12229e-10
8.20569e-10
7.6594e-10
7.54767e-10
7.81898e-10
7.18224e-09
6.33201e-09
5.42642e-09
4.65906e-09
4.0423e-09
3.54684e-09
3.15917e-09
2.89721e-09
2.79692e-09
2.85739e-09
2.69678e-08
2.38935e-08
2.06471e-08
1.78796e-08
1.5594e-08
1.3666e-08
1.20516e-08
1.08447e-08
1.02291e-08
1.02813e-08
9.9775e-08
8.8914e-08
7.75845e-08
6.78606e-08
5.95695e-08
5.2183e-08
4.55695e-08
4.01872e-08
3.69209e-08
3.63995e-08
3.63205e-07
3.25894e-07
2.87627e-07
2.54548e-07
2.25239e-07
1.97468e-07
1.70858e-07
1.47527e-07
1.3155e-07
1.26711e-07
1.29823e-06
1.17447e-06
1.05051e-06
9.42621e-07
8.42369e-07
7.40386e-07
6.35521e-07
5.37031e-07
4.6299e-07
4.33443e-07
4.54423e-06
4.15211e-06
3.77259e-06
3.44043e-06
3.11246e-06
2.74926e-06
2.34623e-06
1.94149e-06
1.61186e-06
1.45638e-06
1.55239e-05
1.43562e-05
1.3285e-05
1.23468e-05
1.13405e-05
1.01004e-05
8.6005e-06
6.98553e-06
5.56583e-06
4.80747e-06
5.15323e-05
4.83532e-05
4.57008e-05
4.34116e-05
4.06214e-05
3.66395e-05
3.12969e-05
2.50797e-05
1.91525e-05
1.56141e-05
0.000165322
0.000157831
0.000152783
0.000148765
0.000142349
0.000130737
0.000112879
9.00736e-05
6.61781e-05
5.01048e-05
0.000509222
0.000496029
0.000492959
0.000493215
0.00048441
0.000455846
0.000401788
0.000324022
0.000232711
0.000161296
0.00149445
0.00148903
0.00152139
0.00156624
0.00158363
0.00153654
0.00139855
0.00116328
0.000843003
0.000536157
0.00414309
0.00422907
0.00444147
0.00470273
0.0049014
0.0049282
0.00468963
0.00412545
0.00327397
0.00210168
2.57626e-20
2.24777e-20
1.89918e-20
1.62571e-20
1.42975e-20
1.32069e-20
1.29857e-20
1.35705e-20
1.4969e-20
1.66e-20
1.79277e-19
1.55473e-19
1.31068e-19
1.11703e-19
9.79457e-20
9.0336e-20
8.88391e-20
9.30549e-20
1.02732e-19
1.14491e-19
8.36167e-19
7.20757e-19
6.04032e-19
5.10958e-19
4.45939e-19
4.10262e-19
4.03469e-19
4.24157e-19
4.69795e-19
5.25998e-19
3.7323e-18
3.21245e-18
2.68073e-18
2.25453e-18
1.95917e-18
1.79764e-18
1.76645e-18
1.85947e-18
2.06167e-18
2.30837e-18
1.64155e-17
1.41462e-17
1.17843e-17
9.87748e-18
8.55606e-18
7.82984e-18
7.67831e-18
8.07125e-18
8.93305e-18
9.97321e-18
7.14906e-17
6.1748e-17
5.14422e-17
4.30559e-17
3.72186e-17
3.39699e-17
3.32046e-17
3.47793e-17
3.83446e-17
4.26359e-17
3.08694e-16
2.67241e-16
2.22892e-16
1.86549e-16
1.61075e-16
1.4663e-16
1.42717e-16
1.48706e-16
1.63096e-16
1.80578e-16
1.32169e-15
1.14665e-15
9.5806e-16
8.02597e-16
6.9269e-16
6.28927e-16
6.09091e-16
6.30579e-16
6.87326e-16
7.57687e-16
5.61005e-15
4.8771e-15
4.08391e-15
3.42668e-15
2.95755e-15
2.67837e-15
2.57956e-15
2.65102e-15
2.86947e-15
3.14875e-15
2.36023e-14
2.05603e-14
1.72597e-14
1.45122e-14
1.25305e-14
1.13187e-14
1.08364e-14
1.10467e-14
1.18652e-14
1.29566e-14
9.83988e-14
8.58924e-14
7.23049e-14
6.09453e-14
5.26611e-14
4.74482e-14
4.51408e-14
4.56146e-14
4.85831e-14
5.27732e-14
4.06406e-13
3.55505e-13
3.00183e-13
2.53746e-13
2.19479e-13
1.97264e-13
1.86431e-13
1.8661e-13
1.96933e-13
2.12695e-13
1.66243e-12
1.45747e-12
1.23483e-12
1.04722e-12
9.07009e-13
8.13244e-13
7.63256e-13
7.56231e-13
7.90059e-13
8.47952e-13
6.73318e-12
5.91712e-12
5.03206e-12
4.28348e-12
3.71626e-12
3.32433e-12
3.09737e-12
3.03531e-12
3.13615e-12
3.34266e-12
2.69929e-11
2.37827e-11
2.03106e-11
1.73629e-11
1.50953e-11
1.34735e-11
1.24585e-11
1.2065e-11
1.23143e-11
1.3024e-11
1.07072e-10
9.46067e-11
8.118e-11
6.97365e-11
6.0785e-11
5.41434e-11
4.9669e-11
4.74892e-11
4.78172e-11
5.01345e-11
4.20064e-10
3.72346e-10
3.21235e-10
2.77496e-10
2.42636e-10
2.1573e-10
1.96281e-10
1.85091e-10
1.83572e-10
1.90576e-10
1.62913e-09
1.44932e-09
1.25813e-09
1.09383e-09
9.60058e-10
8.52321e-10
7.68938e-10
7.14361e-10
6.96585e-10
7.15027e-10
6.2422e-09
5.57638e-09
4.87538e-09
4.27031e-09
3.76536e-09
3.33932e-09
2.98677e-09
2.73053e-09
2.61222e-09
2.64643e-09
2.3612e-08
2.1195e-08
1.86842e-08
1.65072e-08
1.46369e-08
1.29753e-08
1.1506e-08
1.03393e-08
9.67972e-09
9.65649e-09
8.80882e-08
7.9514e-08
7.07722e-08
6.3158e-08
5.63845e-08
5.00071e-08
4.3976e-08
3.88014e-08
3.54443e-08
3.4715e-08
3.2368e-07
2.94107e-07
2.64728e-07
2.39033e-07
2.15178e-07
1.91168e-07
1.66832e-07
1.4442e-07
1.28285e-07
1.22872e-07
1.16933e-06
1.0709e-06
9.76655e-07
8.94006e-07
8.13002e-07
7.24785e-07
6.28539e-07
5.33677e-07
4.59236e-07
4.27874e-07
4.14295e-06
3.83057e-06
3.5473e-06
3.29923e-06
3.0378e-06
2.72404e-06
2.35273e-06
1.96082e-06
1.62821e-06
1.46508e-06
1.43501e-05
1.34221e-05
1.26516e-05
1.19856e-05
1.12041e-05
1.01381e-05
8.7516e-06
7.17691e-06
5.73171e-06
4.93212e-06
4.83909e-05
4.58946e-05
4.41464e-05
4.27107e-05
4.06604e-05
3.72788e-05
3.23333e-05
2.62265e-05
2.01216e-05
1.63435e-05
0.000158027
0.000152378
0.000149942
0.000148511
0.000144462
0.000134876
0.000118393
9.58598e-05
7.09459e-05
5.35172e-05
0.000496527
0.000488081
0.000492261
0.000500086
0.000498626
0.000476742
0.000427489
0.000350531
0.00025433
0.000175756
0.00148949
0.00149601
0.00154778
0.00161395
0.00165332
0.00162767
0.00150666
0.00127547
0.000937014
0.000595876
0.00422804
0.0043444
0.00460668
0.00492524
0.00518671
0.00527984
0.00510153
0.00456674
0.00368462
0.00237896
2.37359e-20
2.07728e-20
1.76263e-20
1.51573e-20
1.33825e-20
1.23856e-20
1.2171e-20
1.26871e-20
1.39488e-20
1.54293e-20
1.64701e-19
1.4329e-19
1.21354e-19
1.03943e-19
9.1524e-20
8.45864e-20
8.3129e-20
8.68252e-20
9.55121e-20
1.06163e-19
7.64846e-19
6.61232e-19
5.57108e-19
4.73987e-19
4.15624e-19
3.83235e-19
3.76561e-19
3.94512e-19
4.35095e-19
4.85962e-19
3.39788e-18
2.93455e-18
2.46372e-18
2.08568e-18
1.82204e-18
1.67597e-18
1.64511e-18
1.72479e-18
1.90288e-18
2.12428e-18
1.48855e-17
1.28783e-17
1.08026e-17
9.12276e-18
7.94926e-18
7.29429e-18
7.14365e-18
7.4739e-18
8.22444e-18
9.14953e-18
6.46369e-17
5.60783e-17
4.70869e-17
3.97444e-17
3.45824e-17
3.16568e-17
3.08953e-17
3.21865e-17
3.52527e-17
3.90372e-17
2.7858e-16
2.42379e-16
2.03925e-16
1.72265e-16
1.49808e-16
1.36806e-16
1.32926e-16
1.37683e-16
1.49901e-16
1.652e-16
1.19175e-15
1.03959e-15
8.76844e-16
7.41908e-16
6.45213e-16
5.87808e-16
5.6825e-16
5.84603e-16
6.32195e-16
6.9338e-16
5.05873e-15
4.42361e-15
3.74136e-15
3.17229e-15
2.75998e-15
2.50848e-15
2.41175e-15
2.46261e-15
2.64363e-15
2.8853e-15
2.12989e-14
1.8668e-14
1.58351e-14
1.34593e-14
1.17181e-14
1.06255e-14
1.01567e-14
1.02875e-14
1.09574e-14
1.18985e-14
8.89123e-14
7.81086e-14
6.64585e-14
5.66412e-14
4.93602e-14
4.46553e-14
4.24276e-14
4.26064e-14
4.50016e-14
4.86063e-14
3.6788e-13
3.23924e-13
2.76502e-13
2.3637e-13
2.06233e-13
1.86159e-13
1.75761e-13
1.74894e-13
1.83067e-13
1.96608e-13
1.50816e-12
1.33105e-12
1.14015e-12
9.77963e-13
8.54548e-13
7.69716e-13
7.21972e-13
7.11431e-13
7.37436e-13
7.87115e-13
6.12403e-12
5.4179e-12
4.65853e-12
4.01111e-12
3.51137e-12
3.15634e-12
2.94043e-12
2.86736e-12
2.94066e-12
3.11764e-12
2.46222e-11
2.18388e-11
1.88575e-11
1.6307e-11
1.43074e-11
1.28363e-11
1.18737e-11
1.14493e-11
1.16053e-11
1.2212e-11
9.79813e-11
8.71491e-11
7.5612e-11
6.57072e-11
5.78064e-11
5.17737e-11
4.75396e-11
4.52897e-11
4.53153e-11
4.72864e-11
3.85741e-10
3.44189e-10
3.00248e-10
2.62384e-10
2.31591e-10
2.07118e-10
1.88737e-10
1.77475e-10
1.7503e-10
1.80916e-10
1.50173e-09
1.34486e-09
1.18044e-09
1.03824e-09
9.20018e-10
8.21876e-10
7.4311e-10
6.89e-10
6.68597e-10
6.83598e-10
5.77844e-09
5.19633e-09
4.59343e-09
4.0703e-09
3.62403e-09
3.23536e-09
2.90224e-09
2.65044e-09
2.52541e-09
2.54961e-09
2.19614e-08
1.98423e-08
1.76842e-08
1.58061e-08
1.41543e-08
1.26364e-08
1.12466e-08
1.01054e-08
9.43129e-09
9.38063e-09
8.23641e-08
7.48238e-08
6.73213e-08
6.07776e-08
5.48058e-08
4.89733e-08
4.326e-08
3.82063e-08
3.4825e-08
3.40237e-08
3.04437e-07
2.7834e-07
2.53212e-07
2.31278e-07
2.10318e-07
1.88344e-07
1.65243e-07
1.43338e-07
1.27173e-07
1.21561e-07
1.10706e-06
1.01985e-06
9.39874e-07
8.70144e-07
7.99417e-07
7.18686e-07
6.27101e-07
5.34157e-07
4.59562e-07
4.27486e-07
3.95108e-06
3.6737e-06
3.43678e-06
3.23197e-06
3.00629e-06
2.71957e-06
2.36538e-06
1.97997e-06
1.64542e-06
1.4786e-06
1.37979e-05
1.29746e-05
1.23487e-05
1.18236e-05
1.11636e-05
1.01933e-05
8.86822e-06
7.31283e-06
5.85069e-06
5.02846e-06
4.69573e-05
4.47534e-05
4.34414e-05
4.24502e-05
4.08023e-05
3.77526e-05
3.30228e-05
2.69647e-05
2.0746e-05
1.68304e-05
0.000154908
0.000150032
0.000148859
0.00014878
0.000146022
0.000137559
0.000121829
9.9403e-05
7.38575e-05
5.56456e-05
0.000492168
0.000485676
0.000493374
0.000505143
0.000507666
0.000489477
0.000442862
0.000366219
0.000267088
0.000184401
0.00149428
0.0015057
0.00156686
0.00164399
0.00169507
0.00168113
0.00156944
0.00134025
0.000990946
0.000630265
0.00429596
0.00442517
0.00471115
0.00505832
0.00535218
0.00548057
0.00533487
0.00481464
0.00391288
0.00252927
2.36351e-20
2.06868e-20
1.75577e-20
1.51005e-20
1.33315e-20
1.23372e-20
1.21222e-20
1.26326e-20
1.38843e-20
1.53554e-20
1.63984e-19
1.42696e-19
1.20878e-19
1.03538e-19
9.11603e-20
8.4242e-20
8.27829e-20
8.64483e-20
9.50681e-20
1.0564e-19
7.61405e-19
6.58678e-19
5.54956e-19
4.72111e-19
4.13931e-19
3.8164e-19
3.74968e-19
3.92818e-19
4.3318e-19
4.83481e-19
3.38332e-18
2.92303e-18
2.45408e-18
2.07743e-18
1.81467e-18
1.66904e-18
1.63817e-18
1.71731e-18
1.89437e-18
2.11384e-18
1.4824e-17
1.28269e-17
1.07598e-17
9.08633e-18
7.91695e-18
7.26404e-18
7.11335e-18
7.44121e-18
8.18709e-18
9.10565e-18
6.4374e-17
5.58538e-17
4.68981e-17
3.95836e-17
3.44405e-17
3.15246e-17
3.07632e-17
3.20447e-17
3.50916e-17
3.88517e-17
2.7746e-16
2.41406e-16
2.03096e-16
1.71557e-16
1.49186e-16
1.36229e-16
1.32352e-16
1.37072e-16
1.49213e-16
1.6442e-16
1.18701e-15
1.03542e-15
8.73227e-16
7.38814e-16
6.42499e-16
5.85305e-16
5.6578e-16
5.8199e-16
6.29287e-16
6.9012e-16
5.03897e-15
4.4058e-15
3.72573e-15
3.15891e-15
2.74828e-15
2.49774e-15
2.40123e-15
2.45157e-15
2.63148e-15
2.87182e-15
2.12167e-14
1.8591e-14
1.57683e-14
1.34022e-14
1.16683e-14
1.05799e-14
1.01124e-14
1.02416e-14
1.09073e-14
1.18434e-14
8.85658e-14
7.77824e-14
6.61783e-14
5.64009e-14
4.91506e-14
4.44647e-14
4.22437e-14
4.24174e-14
4.47976e-14
4.83837e-14
3.66424e-13
3.22587e-13
2.75342e-13
2.35372e-13
2.05362e-13
1.85371e-13
1.75008e-13
1.74128e-13
1.82249e-13
1.95721e-13
1.5022e-12
1.32563e-12
1.13539e-12
9.73859e-13
8.50971e-13
7.66492e-13
7.18921e-13
7.08367e-13
7.34199e-13
7.8363e-13
6.10029e-12
5.39626e-12
4.63923e-12
3.99441e-12
3.49683e-12
3.1433e-12
2.92821e-12
2.85526e-12
2.92803e-12
3.10414e-12
2.45297e-11
2.17533e-11
1.87797e-11
1.62396e-11
1.42488e-11
1.27841e-11
1.18253e-11
1.14021e-11
1.15566e-11
1.21604e-11
9.76252e-11
8.68046e-11
7.53012e-11
6.54379e-11
5.75728e-11
5.15669e-11
4.73502e-11
4.51075e-11
4.51305e-11
4.70923e-11
3.84346e-10
3.42796e-10
2.99023e-10
2.61321e-10
2.3067e-10
2.06307e-10
1.88004e-10
1.76781e-10
1.74337e-10
1.80197e-10
1.49616e-09
1.33942e-09
1.17568e-09
1.0341e-09
9.16421e-10
8.18727e-10
7.40298e-10
6.86388e-10
6.66041e-10
6.80973e-10
5.75651e-09
5.17565e-09
4.57514e-09
4.05431e-09
3.61012e-09
3.22324e-09
2.89155e-09
2.64072e-09
2.51609e-09
2.54017e-09
2.18773e-08
1.9764e-08
1.76146e-08
1.5745e-08
1.4101e-08
1.25901e-08
1.12064e-08
1.00696e-08
9.3978e-09
9.34725e-09
8.20458e-08
7.45275e-08
6.7059e-08
6.05459e-08
5.46031e-08
4.87982e-08
4.31097e-08
3.80757e-08
3.47062e-08
3.39075e-08
3.03238e-07
2.77237e-07
2.52239e-07
2.30409e-07
2.09554e-07
1.87685e-07
1.64685e-07
1.42865e-07
1.26757e-07
1.21163e-07
1.10262e-06
1.0159e-06
9.36317e-07
8.66927e-07
7.96562e-07
7.16226e-07
6.25045e-07
5.3246e-07
4.58119e-07
4.26144e-07
3.93529e-06
3.65968e-06
3.42395e-06
3.22021e-06
2.99573e-06
2.71045e-06
2.35785e-06
1.97392e-06
1.64048e-06
1.47416e-06
1.37435e-05
1.29252e-05
1.23034e-05
1.17812e-05
1.1125e-05
1.01598e-05
8.84074e-06
7.29139e-06
5.83398e-06
5.01412e-06
4.67745e-05
4.45874e-05
4.32847e-05
4.23e-05
4.06628e-05
3.76302e-05
3.29228e-05
2.68886e-05
2.069e-05
1.67853e-05
0.000154324
0.000149492
0.000148332
0.00014826
0.000145527
0.000137116
0.000121466
9.91317e-05
7.36692e-05
5.55069e-05
0.000490397
0.000483994
0.000491665
0.000503401
0.000505952
0.0004879
0.000441539
0.000365231
0.000266473
0.000184029
0.00148923
0.00150072
0.00156158
0.00163842
0.00168938
0.00167571
0.00156478
0.00133692
0.000988975
0.000628908
0.00428242
0.00441117
0.00469587
0.0050416
0.00533442
0.00546284
0.00531872
0.00480169
0.0039072
0.00253259
2.54545e-20
2.22295e-20
1.87877e-20
1.6079e-20
1.41364e-20
1.30541e-20
1.28328e-20
1.34079e-20
1.47821e-20
1.63774e-20
1.77123e-19
1.53762e-19
1.2966e-19
1.10476e-19
9.68373e-20
8.92856e-20
8.77886e-20
9.19355e-20
1.01446e-19
1.12941e-19
8.26189e-19
7.12819e-19
5.975e-19
5.05314e-19
4.40868e-19
4.05477e-19
3.98674e-19
4.1902e-19
4.63871e-19
5.18843e-19
3.68862e-18
3.17677e-18
2.65138e-18
2.22944e-18
1.93678e-18
1.7766e-18
1.74535e-18
1.83672e-18
2.03539e-18
2.27714e-18
1.62265e-17
1.39883e-17
1.16536e-17
9.76623e-18
8.45741e-18
7.73753e-18
7.58584e-18
7.97152e-18
8.81836e-18
9.83885e-18
7.06772e-17
6.10545e-17
5.08623e-17
4.25631e-17
3.67841e-17
3.35653e-17
3.28004e-17
3.43447e-17
3.78489e-17
4.20635e-17
3.05209e-16
2.64212e-16
2.20333e-16
1.84374e-16
1.59166e-16
1.44861e-16
1.40959e-16
1.46826e-16
1.60972e-16
1.78161e-16
1.30682e-15
1.13353e-15
9.4688e-16
7.93089e-16
6.84369e-16
6.21256e-16
6.0151e-16
6.2253e-16
6.78329e-16
7.47574e-16
5.547e-15
4.82077e-15
4.03565e-15
3.38559e-15
2.92167e-15
2.64545e-15
2.54725e-15
2.617e-15
2.83184e-15
3.10688e-15
2.33367e-14
2.03212e-14
1.70542e-14
1.43369e-14
1.23777e-14
1.11791e-14
1.07004e-14
1.0905e-14
1.17099e-14
1.27853e-14
9.72883e-14
8.4891e-14
7.14418e-14
6.02077e-14
5.20185e-14
4.6864e-14
4.45765e-14
4.5032e-14
4.79513e-14
5.20819e-14
4.01813e-13
3.51366e-13
2.96604e-13
2.50681e-13
2.1681e-13
1.94849e-13
1.84118e-13
1.8425e-13
1.94399e-13
2.09943e-13
1.64368e-12
1.44054e-12
1.22014e-12
1.03462e-12
8.96051e-13
8.03374e-13
7.53892e-13
7.46796e-13
7.80043e-13
8.3715e-13
6.65755e-12
5.8486e-12
4.97235e-12
4.23218e-12
3.67171e-12
3.28443e-12
3.05989e-12
2.99805e-12
3.09708e-12
3.30084e-12
2.66919e-11
2.3508e-11
2.00703e-11
1.71562e-11
1.49161e-11
1.33139e-11
1.23102e-11
1.19197e-11
1.2164e-11
1.28644e-11
1.05886e-10
9.35167e-11
8.02249e-11
6.8913e-11
6.00716e-11
5.35117e-11
4.90892e-11
4.69295e-11
4.72471e-11
4.95348e-11
4.15429e-10
3.68081e-10
3.1749e-10
2.74255e-10
2.39826e-10
2.13257e-10
1.94038e-10
1.82963e-10
1.8144e-10
1.88358e-10
1.6112e-09
1.43287e-09
1.24362e-09
1.08122e-09
9.49111e-10
8.42735e-10
7.60354e-10
7.06366e-10
6.88729e-10
7.06951e-10
6.17387e-09
5.51379e-09
4.81972e-09
4.22173e-09
3.72315e-09
3.30252e-09
2.95425e-09
2.70086e-09
2.58368e-09
2.61748e-09
2.33561e-08
2.09589e-08
1.84728e-08
1.6322e-08
1.44756e-08
1.28354e-08
1.1384e-08
1.02304e-08
9.57749e-09
9.55436e-09
8.71394e-08
7.86271e-08
6.99788e-08
6.24584e-08
5.57736e-08
4.94793e-08
4.35222e-08
3.84057e-08
3.50829e-08
3.43605e-08
3.20176e-07
2.90832e-07
2.61794e-07
2.36421e-07
2.12884e-07
1.89191e-07
1.65156e-07
1.42994e-07
1.27023e-07
1.21661e-07
1.15657e-06
1.0591e-06
9.65967e-07
8.84373e-07
8.04475e-07
7.17443e-07
6.22392e-07
5.28585e-07
4.54887e-07
4.2381e-07
4.09782e-06
3.78884e-06
3.50901e-06
3.26422e-06
3.00646e-06
2.69701e-06
2.33035e-06
1.94279e-06
1.6134e-06
1.4517e-06
1.41954e-05
1.32779e-05
1.25172e-05
1.18603e-05
1.10903e-05
1.00394e-05
8.67059e-06
7.11341e-06
5.68181e-06
4.88886e-06
4.78788e-05
4.5411e-05
4.36853e-05
4.2271e-05
4.02532e-05
3.69217e-05
3.2041e-05
2.60028e-05
1.99543e-05
1.62061e-05
0.000156401
0.000150811
0.000148405
0.000147004
0.000143031
0.000133597
0.000117341
9.50687e-05
7.03834e-05
5.30856e-05
0.000491605
0.00048321
0.000487329
0.000495088
0.000493726
0.000472239
0.000423704
0.0003477
0.000252402
0.000174398
0.00147542
0.00148165
0.00153272
0.00159812
0.00163721
0.00161231
0.00149328
0.00126526
0.000930117
0.000591376
0.00419032
0.00430473
0.00456354
0.00487823
0.00513696
0.00523023
0.00505604
0.00452947
0.0036577
0.00236151
2.90475e-20
2.52466e-20
2.11831e-20
1.79862e-20
1.57122e-20
1.44629e-20
1.42318e-20
1.49378e-20
1.65645e-20
1.84294e-20
2.03276e-19
1.7558e-19
1.46879e-19
1.24086e-19
1.08025e-19
9.92659e-20
9.77107e-20
1.02843e-19
1.14218e-19
1.2772e-19
9.57304e-19
8.21346e-19
6.82147e-19
5.71399e-19
4.94746e-19
4.53362e-19
4.4637e-19
4.7189e-19
5.26397e-19
5.91679e-19
4.31415e-18
3.6902e-18
3.04637e-18
2.53335e-18
2.18197e-18
1.99347e-18
1.96187e-18
2.07905e-18
2.32527e-18
2.61761e-18
1.91204e-17
1.63476e-17
1.34452e-17
1.11247e-17
9.54109e-18
8.69086e-18
8.53964e-18
9.04868e-18
1.01207e-17
1.13783e-17
8.37323e-17
7.16405e-17
5.88109e-17
4.85094e-17
4.14746e-17
3.7667e-17
3.69086e-17
3.90179e-17
4.35476e-17
4.88331e-17
3.62803e-16
3.10696e-16
2.54912e-16
2.09947e-16
1.79128e-16
1.62206e-16
1.58322e-16
1.66667e-16
1.85317e-16
2.0719e-16
1.55579e-15
1.33374e-15
1.09476e-15
9.01434e-16
7.68162e-16
6.93565e-16
6.73709e-16
7.05171e-16
7.80072e-16
8.69193e-16
6.60406e-15
5.6687e-15
4.65862e-15
3.83864e-15
3.26921e-15
2.94317e-15
2.84314e-15
2.95523e-15
3.24858e-15
3.60553e-15
2.77535e-14
2.38578e-14
1.96424e-14
1.62084e-14
1.3803e-14
1.23906e-14
1.18963e-14
1.22663e-14
1.33849e-14
1.47889e-14
1.15472e-13
9.94323e-14
8.2055e-14
6.78473e-14
5.77984e-14
5.17357e-14
4.93433e-14
5.04224e-14
5.456e-14
5.99765e-14
4.75621e-13
4.1035e-13
3.39572e-13
2.81493e-13
2.39975e-13
2.14193e-13
2.02844e-13
2.05235e-13
2.19991e-13
2.40446e-13
1.93915e-12
1.67662e-12
1.39185e-12
1.15734e-12
9.87723e-13
8.79137e-13
8.26307e-13
8.27044e-13
8.7723e-13
9.52639e-13
7.82429e-12
6.7806e-12
5.64942e-12
4.71453e-12
4.02953e-12
3.57671e-12
3.33511e-12
3.29898e-12
3.45848e-12
3.72872e-12
3.12345e-11
2.71358e-11
2.27028e-11
1.90251e-11
1.62918e-11
1.44225e-11
1.3336e-11
1.30238e-11
1.34769e-11
1.44122e-11
1.23311e-10
1.07431e-10
9.03087e-11
7.60439e-11
6.52725e-11
5.76362e-11
5.28273e-11
5.0879e-11
5.18909e-11
5.49837e-11
4.81215e-10
4.20613e-10
3.55506e-10
3.01005e-10
2.59118e-10
2.2826e-10
2.07299e-10
1.9667e-10
1.97354e-10
2.06936e-10
1.85535e-09
1.62783e-09
1.38443e-09
1.17967e-09
1.01911e-09
8.95843e-10
8.05854e-10
7.52168e-10
7.41161e-10
7.67856e-10
7.06282e-09
6.22344e-09
5.33096e-09
4.57622e-09
3.97052e-09
3.48421e-09
3.10364e-09
2.84632e-09
2.74772e-09
2.80731e-09
2.65227e-08
2.3486e-08
2.02867e-08
1.75654e-08
1.53215e-08
1.34293e-08
1.18446e-08
1.06591e-08
1.00539e-08
1.01058e-08
9.81365e-08
8.74045e-08
7.62416e-08
6.66819e-08
5.85434e-08
5.12962e-08
4.48049e-08
3.95171e-08
3.63059e-08
3.57945e-08
3.57241e-07
3.20393e-07
2.82697e-07
2.5018e-07
2.21413e-07
1.94172e-07
1.68056e-07
1.4513e-07
1.29418e-07
1.24659e-07
1.27693e-06
1.15481e-06
1.03272e-06
9.26665e-07
8.28286e-07
7.28261e-07
6.25339e-07
5.28549e-07
4.55695e-07
4.26604e-07
4.47009e-06
4.08335e-06
3.7096e-06
3.38311e-06
3.06133e-06
2.70514e-06
2.30959e-06
1.91177e-06
1.58724e-06
1.43404e-06
1.52735e-05
1.41218e-05
1.30667e-05
1.21445e-05
1.11575e-05
9.9416e-06
8.46963e-06
6.882e-06
5.48354e-06
4.73576e-06
5.07159e-05
4.75781e-05
4.49632e-05
4.27123e-05
3.99765e-05
3.60742e-05
3.08322e-05
2.47199e-05
1.8879e-05
1.5388e-05
0.000162767
0.000155357
0.000150367
0.000146409
0.000140122
0.00012875
0.000111237
8.8822e-05
6.52664e-05
4.94016e-05
0.000501596
0.000488475
0.000485345
0.000485547
0.000476935
0.000448998
0.000396027
0.000319645
0.000229627
0.000159116
0.00147297
0.00146715
0.00149857
0.00154242
0.00155955
0.00151369
0.00137872
0.00114802
0.000832243
0.000529091
0.00408657
0.00416978
0.00437737
0.00463327
0.00482836
0.00485585
0.00462342
0.00407186
0.00323429
0.00207544
3.43369e-20
2.96342e-20
2.46604e-20
2.07725e-20
1.80343e-20
1.65509e-20
1.63042e-20
1.71976e-20
1.9206e-20
2.15164e-20
2.41648e-19
2.06973e-19
1.71494e-19
1.43621e-19
1.2421e-19
1.13776e-19
1.12129e-19
1.18671e-19
1.32904e-19
1.49851e-19
1.15093e-18
9.77163e-19
8.02006e-19
6.65112e-19
5.71694e-19
5.22059e-19
5.14739e-19
5.47729e-19
6.17498e-19
7.01348e-19
5.24173e-18
4.42673e-18
3.60189e-18
2.96032e-18
2.52871e-18
2.30149e-18
2.26918e-18
2.42398e-18
2.74688e-18
3.13194e-18
2.34106e-17
1.97218e-17
1.59499e-17
1.30177e-17
1.10603e-17
1.00332e-17
9.88241e-18
1.05728e-17
1.20096e-17
1.37011e-17
1.03028e-16
8.67311e-17
6.98694e-17
5.67408e-17
4.80033e-17
4.34028e-17
4.26577e-17
4.56025e-17
5.17902e-17
5.90145e-17