/*--------------------------------*- C++ -*----------------------------------*\
| =========                 |                                                 |
| \\      /  F ield         | OpenFOAM: The Open Source CFD Toolbox           |
|  \\    /   O peration     | Version:  2112                                  |
|   \\  /    A nd           | Website:  www.openfoam.com                      |
|    \\/     M anipulation  |                                                 |
\*---------------------------------------------------------------------------*/
FoamFile
{
    version     2.0;
    format      ascii;
    arch        "LSB;label=32;scalar=64";
    class       volScalarField;
    location    "19";
    object      p;
}
// * * * * * * * * * * * * * * * * * * * * * * * * * * * * * * * * * * * * * //

dimensions      [0 2 -2 0 0 0 0];

internalField   nonuniform List<scalar> 
400
(
1.4825806e-06
-0.00067115602
-0.0013835411
-0.0019408157
-0.002218031
-0.0021544619
-0.001725708
-0.00092408934
0.00023753563
0.0017095036
0.0033893526
0.0051142263
0.0066754817
0.0078511064
0.0084604318
0.0084258004
0.0078156072
0.0068468228
0.0058636653
0.0053013317
0.00065946185
-3.8832364e-05
-0.00056790562
-0.00093880652
-0.0011089759
-0.0010379668
-0.00070377523
-9.3481923e-05
0.00079119092
0.0019182872
0.0032116825
0.0045567925
0.0057840467
0.0067183517
0.0072165543
0.0072167194
0.0067722205
0.0060551067
0.0053129138
0.004740897
0.0014252562
0.00044228822
-0.00011489723
-0.00045147647
-0.00061297113
-0.0005828988
-0.0003445922
0.00012179967
0.00083056788
0.0017720444
0.0028964396
0.0041003139
0.0052303921
0.006113139
0.0065960648
0.0065999109
0.0061580507
0.0054238928
0.0045961825
0.0037507015
0.0020156847
0.00068327992
1.8436212e-05
-0.00035711638
-0.00056973052
-0.00062464877
-0.00050807499
-0.00018853004
0.00037068059
0.0011866165
0.0022321661
0.0034196821
0.0045936178
0.0055591978
0.0061258321
0.0061688802
0.005686
0.0048194994
0.0037498056
0.0024761644
0.0021687172
0.00049769579
-0.00029459884
-0.00074696397
-0.0010564099
-0.0012433067
-0.0012906561
-0.0011490845
-0.00075272522
-5.0698793e-05
0.00095946201
0.0022127218
0.0035471297
0.0047350663
0.0055242449
0.0057123071
0.0052317569
0.0042041414
0.0028087947
0.00098664929
0.001655426
-0.0003128672
-0.0012370832
-0.0017974997
-0.0022507324
-0.0026258217
-0.0028963607
-0.0029886547
-0.0027999667
-0.0022350049
-0.0012483747
0.00013361915
0.0017473353
0.003329745
0.004544234
0.0050683518
0.0047200889
0.0035688472
0.0017923208
-0.00072309166
0.00028858302
-0.0019178596
-0.0029711851
-0.003669451
-0.0043182044
-0.0049509064
-0.0055276008
-0.0059452125
-0.0060560742
-0.0057043164
-0.0047725727
-0.0032555567
-0.0012634324
0.00091015391
0.0028259965
0.0039896265
0.0040278553
0.0028904954
0.00071824135
-0.0026775121
-0.0020746909
-0.0044493115
-0.0056248139
-0.0064901892
-0.0073905878
-0.0083631806
-0.0093540578
-0.010228636
-0.010787578
-0.010801275
-0.010059703
-0.0084580997
-0.0060371869
-0.003079786
-0.00012305583
0.0021157096
0.0029668068
0.0021385346
-0.00036302527
-0.0048694585
-0.0055221674
-0.0079899983
-0.0092756947
-0.010331396
-0.011535365
-0.012932483
-0.01445944
-0.015952713
-0.017158552
-0.017761897
-0.01743383
-0.015915217
-0.013118802
-0.009247793
-0.0048952922
-0.0010265576
0.0012726629
0.0012809093
-0.0013307997
-0.0071983724
-0.010074592
-0.012562697
-0.013934162
-0.015181319
-0.016715421
-0.018599317
-0.02077051
-0.023044694
-0.025117267
-0.026581664
-0.026964518
-0.025808094
-0.022840948
-0.018069945
-0.012046893
-0.005948093
-0.001367183
0.00030394511
-0.0019439072
-0.0093788019
-0.015682319
-0.018129714
-0.019534766
-0.020923834
-0.022754478
-0.025126237
-0.027992943
-0.031161927
-0.034286627
-0.036871722
-0.038288882
-0.037838941
-0.035060676
-0.029596545
-0.021817911
-0.012981376
-0.0051811502
-0.00071221906
-0.001760805
-0.010788783
-0.022240599
-0.024610061
-0.025942545
-0.027331734
-0.029320661
-0.032075354
-0.035584624
-0.039659899
-0.043922155
-0.047795919
-0.050524674
-0.051231016
-0.04895153
-0.043138457
-0.033764269
-0.021921985
-0.010032919
-0.0014118217
-6.4523807e-06
-0.010222206
-0.029637933
-0.031920703
-0.032975519
-0.034076487
-0.035935872
-0.038827537
-0.042791213
-0.047646749
-0.05298534
-0.058158164
-0.062278745
-0.064260106
-0.062869938
-0.057107265
-0.046472165
-0.03164487
-0.015033998
-0.00086084666
0.0046500708
-0.005518327
-0.037862523
-0.040045186
-0.040436845
-0.040749122
-0.042011418
-0.044649126
-0.048753877
-0.05413934
-0.060350974
-0.066660096
-0.072055425
-0.07526318
-0.074806551
-0.069264821
-0.057624232
-0.039957765
-0.018244508
0.0027922637
0.014448183
0.0069103977
-0.047227029
-0.049130991
-0.048137333
-0.046879061
-0.046902076
-0.04879496
-0.052664199
-0.058271554
-0.065071333
-0.072227069
-0.07859088
-0.08270767
-0.082875946
-0.077305586
-0.06452057
-0.043931929
-0.01674519
0.012505608
0.032941335
0.032411312
-0.058893327
-0.059636616
-0.055880816
-0.051938107
-0.049969286
-0.050626538
-0.053924905
-0.059491218
-0.066607433
-0.074280732
-0.081186683
-0.085675216
-0.085828073
-0.079519021
-0.064873451
-0.040687014
-0.0072389082
0.032141327
0.06498339
0.077750986
-0.076223333
-0.072610785
-0.063513391
-0.055432797
-0.050722454
-0.04977875
-0.05230906
-0.057660636
-0.064887749
-0.072770751
-0.079775234
-0.084032938
-0.083388354
-0.075346275
-0.057600584
-0.028373531
0.012934631
0.065397806
0.11555285
0.15150749
-0.10808943
-0.089553895
-0.07123157
-0.057230876
-0.049069986
-0.046327801
-0.048074399
-0.053199253
-0.060430884
-0.068291943
-0.07502354
-0.078523374
-0.076385971
-0.065807264
-0.0438637
-0.0078171921
0.044394597
0.112999
0.18838131
0.27186161
-0.176843
-0.10828755
-0.076200733
-0.054649597
-0.04299063
-0.038995952
-0.040567955
-0.045924981
-0.053438065
-0.061434668
-0.068023924
-0.070959178
-0.067548257
-0.054737504
-0.029147082
0.013564807
0.078147808
0.17006505
0.28949614
0.47421893
-0.37208092
-0.12470624
-0.054971291
-0.031961002
-0.022062006
-0.020298668
-0.024357132
-0.031955162
-0.041258286
-0.050637346
-0.058313319
-0.062184067
-0.059779537
-0.048054375
-0.022656679
0.021475549
0.092819688
0.21015355
0.40288916
0.77641004
)
;

boundaryField
{
    movingWall
    {
        type            zeroGradient;
    }
    fixedWalls
    {
        type            zeroGradient;
    }
    frontAndBack
    {
        type            empty;
    }
}


// ************************************************************************* //
