/*--------------------------------*- C++ -*----------------------------------*\
| =========                 |                                                 |
| \\      /  F ield         | OpenFOAM: The Open Source CFD Toolbox           |
|  \\    /   O peration     | Version:  2112                                  |
|   \\  /    A nd           | Website:  www.openfoam.com                      |
|    \\/     M anipulation  |                                                 |
\*---------------------------------------------------------------------------*/
FoamFile
{
    version     2.0;
    format      ascii;
    arch        "LSB;label=32;scalar=64";
    class       surfaceScalarField;
    location    "19";
    object      phi;
}
// * * * * * * * * * * * * * * * * * * * * * * * * * * * * * * * * * * * * * //

dimensions      [0 3 -1 0 0 0 0];

oriented        oriented;

internalField   nonuniform List<scalar> 
760
(
1.269244e-05
-1.270968e-05
-2.8728201e-05
4.1420643e-05
-0.00012228973
9.3561532e-05
-0.00025038562
0.00012809589
-0.00039605537
0.00014566976
-0.00054536241
0.00014930705
-0.00068623448
0.00014087208
-0.00080684811
0.00012061364
-0.00089490389
8.8055794e-05
-0.00093834065
4.343677e-05
-0.00092722695
-1.1113686e-05
-0.00085682046
-7.0406473e-05
-0.00073039699
-0.00012642347
-0.0005613205
-0.00016907647
-0.00037275019
-0.0001885703
-0.00019447292
-0.00017827725
-5.6526173e-05
-0.00013794673
1.9609117e-05
-7.6135277e-05
3.0408372e-05
-1.0799242e-05
3.0408388e-05
-4.3184874e-05
3.0475197e-05
-0.00020455855
0.00020279432
-0.0004682991
0.0003573021
-0.00080065951
0.00046045631
-0.0011672773
0.00051228757
-0.0015363517
0.00051838144
-0.0018781079
0.00048262834
-0.0021635455
0.00040605123
-0.0023643977
0.00028890801
-0.0024552034
0.00013424249
-0.0024180046
-4.8312499e-05
-0.002245237
-0.00024317399
-0.0019474587
-0.00042420174
-0.0015543985
-0.00056213666
-0.0011142777
-0.00062869114
-0.00068745415
-0.00060510074
-0.00033452093
-0.00049087993
-0.00010089935
-0.00030975681
-1.5544685e-06
-0.00011014409
2.8853933e-05
-0.00011002178
0.00014049698
-0.00040300681
0.00049577935
-0.00083133402
0.00078562933
-0.001345528
0.00097465031
-0.0018984723
0.0010652319
-0.002446419
0.0010663282
-0.0029478401
0.00098404943
-0.0033624038
0.00082061489
-0.0036516635
0.00057816777
-0.0037820903
0.00026466935
-0.0037296085
-0.0001007943
-0.0034856205
-0.00048716199
-0.0030631148
-0.00084670743
-0.0024998717
-0.0011253797
-0.0018581517
-0.0012704112
-0.0012180965
-0.0012451559
-0.00066371573
-0.0010452607
-0.00026308465
-0.00071038787
-4.7957068e-05
-0.00032527164
-1.910312e-05
-0.00017342762
0.0003139246
-0.00059325063
0.00091560236
-0.0011776127
0.0013699914
-0.0018582414
0.001655279
-0.0025767333
0.0017837238
-0.003281089
0.0017706839
-0.0039225378
0.0016254983
-0.0044538538
0.0013519309
-0.0048299632
0.00095427722
-0.0050109374
0.00044564352
-0.0049669709
-0.00014476073
-0.0046841764
-0.00076995649
-0.0041721311
-0.0013587527
-0.0034689546
-0.0018285562
-0.002643886
-0.0020954798
-0.0017931233
-0.0020959186
-0.0010258105
-0.0018125735
-0.00044020032
-0.001295998
-9.6721752e-05
-0.00066875018
-0.00011582485
-0.00022977824
0.00054370284
-0.0007650187
0.0014508428
-0.001491379
0.0020963517
-0.0023223861
0.0024862861
-0.0031899251
0.0026512628
-0.0040365582
0.002617317
-0.0048097327
0.0023986727
-0.0054586327
0.0020008309
-0.0059338356
0.0014294801
-0.0061894676
0.0007012756
-0.0061880648
-0.00014616353
-0.0059052658
-0.0010527555
-0.0053401449
-0.0019238735
-0.0045228958
-0.0026458053
-0.0035228125
-0.003095563
-0.0024496961
-0.003169035
-0.0014424787
-0.0028197907
-0.00064120607
-0.0020972706
-0.00014883171
-0.0011611245
-0.00026465655
-0.00027727712
0.00082097996
-0.00091148185
0.0020850475
-0.0017606088
0.0029454786
-0.0027226271
0.0034483045
-0.0037219719
0.0036506076
-0.0046984043
0.0035937495
-0.00559856
0.0032988285
-0.0063708317
0.0027731026
-0.0069633549
0.0020220033
-0.0073244629
0.0010623836
-0.0074071005
-6.3525882e-05
-0.00717136
-0.001288496
-0.0065985897
-0.0024966437
-0.0057014285
-0.0035429665
-0.0045398236
-0.0042571679
-0.0032317061
-0.0044771525
-0.0019489403
-0.0041025566
-0.00088725179
-0.003158959
-0.00021158584
-0.0018367904
-0.00047624236
-0.0003140936
0.0011350736
-0.0010262693
0.0027972233
-0.001973379
0.0038925883
-0.0030415633
0.0045164888
-0.0041504674
0.0047595117
-0.005239644
0.0046829261
-0.0062577338
0.0043169184
-0.0071551592
0.0036705281
-0.0078799872
0.0027468314
-0.0083764615
0.001558858
-0.008585019
0.00014503167
-0.0084509721
-0.0014225428
-0.0079291851
-0.0030184307
-0.007004693
-0.0044674585
-0.0057148259
-0.0055470349
-0.0041734228
-0.0060185555
-0.0025817463
-0.005694233
-0.0012040584
-0.0045366469
-0.00029449235
-0.0027463564
-0.00077073469
-0.00033822736
0.0014733009
-0.0011031033
0.0035620992
-0.0021175124
0.0049069975
-0.0032597099
0.0056586863
-0.0044471732
0.005946975
-0.0056216822
0.0058574351
-0.0067366339
0.0054318702
-0.0077476284
0.0046815226
-0.0086060239
0.0036052269
-0.0092548986
0.0022077327
-0.00962667
0.00051680316
-0.0096488776
-0.0014003352
-0.0092486771
-0.0034186311
-0.0083736739
-0.0053424617
-0.0070218474
-0.0068988613
-0.0052816424
-0.0077587605
-0.003367555
-0.0076083204
-0.0016173077
-0.0062868941
-0.00040825386
-0.0039554102
-0.0011789885
-0.00034813944
0.0018214404
-0.0011371622
0.004351122
-0.0021826903
0.0059525256
-0.0033584746
0.0068344707
-0.0045820543
0.0071705547
-0.0057995987
0.0070749796
-0.0069719458
0.0066042172
-0.0080634034
0.0057729803
-0.0090331703
0.0045749938
-0.0098287224
0.003003285
-0.010381008
0.0010690892
-0.010604268
-0.0011770751
-0.010400533
-0.0036223667
-0.0096746684
-0.006068326
-0.008368474
-0.0082050557
-0.006515522
-0.0096117124
-0.00430977
-0.0098140723
-0.0021482619
-0.0084484022
-0.00056490725
-0.0055387648
-0.0017438957
-0.00034392512
0.0021653655
-0.0011278276
0.0051350245
-0.0021646485
0.0069893465
-0.0033258102
0.0079956324
-0.0045306836
0.0083754281
-0.005731805
0.0082761011
-0.0069000695
0.0077724819
-0.0080122245
0.0068851354
-0.00904067
0.0056034393
-0.0099448148
0.0039074299
-0.010663247
0.0017875216
-0.011106599
-0.0007337226
-0.011163274
-0.0035656919
-0.010696981
-0.0065346188
-0.0095824557
-0.0093195811
-0.0077666466
-0.011427521
-0.0053713987
-0.01220932
-0.0028071174
-0.011012683
-0.00077834887
-0.0075675333
-0.0025222446
-0.00032890705
0.0024942726
-0.0010824154
0.0058885328
-0.0020707619
0.0079776931
-0.0031635873
0.0090884579
-0.0042838683
0.0094957091
-0.0053928163
0.0093850492
-0.0064741055
0.0088537712
-0.0075205202
0.0079315501
-0.0085228997
0.006605819
-0.0094603357
0.004844866
-0.01029133
0.0026185157
-0.010933219
-9.1833134e-05
-0.011283196
-0.0032157153
-0.0111736
-0.0066442147
-0.01041566
-0.010077521
-0.0088466663
-0.012996515
-0.006455683
-0.014600303
-0.0035814752
-0.013886891
-0.0010642027
-0.010084806
-0.0035864473
-0.00031179293
0.0028060655
-0.0010207016
0.0065974416
-0.001926136
0.0088831275
-0.0028949971
0.010057319
-0.0038569432
0.010457655
-0.004785638
0.010313744
-0.0056808573
0.0097489905
-0.0065545641
0.008805257
-0.0074200143
0.0074712693
-0.0082819626
0.0057068145
-0.0091252974
0.0034618506
-0.009908782
0.00069165163
-0.01052738
-0.0025971169
-0.010827108
-0.0063444872
-0.010573682
-0.010330946
-0.0094932209
-0.014076976
-0.0073911188
-0.016702405
-0.004418884
-0.016859126
-0.0014371948
-0.013066495
-0.005023642
-0.00031006099
0.0031161265
-0.00098041579
0.0072677964
-0.0017791357
0.0096818474
-0.0025694873
0.010847671
-0.0032947491
0.011182917
-0.0039480801
0.010967075
-0.0045501812
0.010351092
-0.0051350208
0.0093900968
-0.0057401749
0.0080764235
-0.0063987921
0.0063654317
-0.0071303988
0.0041934575
-0.0079305244
0.0014917773
-0.0087390508
-0.0017885903
-0.0094305687
-0.0056529691
-0.0097687414
-0.0099927733
-0.0094004447
-0.014445273
-0.0079306222
-0.018172228
-0.0052061629
-0.019583585
-0.0019026028
-0.016370055
-0.0069262448
-0.00035606658
0.0034721932
-0.0010240732
0.0079358031
-0.0017043625
0.010362137
-0.0022609853
0.011404294
-0.0026659578
0.01158789
-0.0029442882
0.011245406
-0.0031445619
0.010551365
-0.0033252057
0.0095707406
-0.003547548
0.008298766
-0.0038714085
0.0066892923
-0.0043495317
0.0046715808
-0.0050187291
0.0021609748
-0.0058769388
-0.00093038059
-0.0068581254
-0.0046717824
-0.0077765281
-0.0090743705
-0.0082660108
-0.01395579
-0.0077688438
-0.018669395
-0.0057511388
-0.02160129
-0.0024366738
-0.01968452
-0.0093629186
-0.00050829322
0.0039804864
-0.0012457254
0.0086732354
-0.0017960498
0.010912461
-0.0020482357
0.01165648
-0.0020328052
0.011572459
-0.0018257762
0.011038377
-0.0015125798
0.010238169
-0.001178271
0.0092364318
-0.00090513417
0.0080256293
-0.00077413924
0.0065582975
-0.00086389749
0.0047613392
-0.0012477453
0.0025448227
-0.001983192
-0.00019493377
-0.0030821924
-0.0035727819
-0.0044603095
-0.0076962534
-0.0058277053
-0.012588394
-0.0065663108
-0.017930789
-0.0057685199
-0.022399081
-0.0029512417
-0.022501798
-0.01231416
-0.00086858657
0.004849073
-0.0017630824
0.0095677314
-0.0021215332
0.011270912
-0.0019371014
0.011472048
-0.0013512468
0.010986605
-0.00051657152
0.010203702
0.00043662459
0.0092849732
0.0013991779
0.0082738786
0.0022719384
0.0071528688
0.0029604881
0.0058697479
0.003368745
0.0043530823
0.0033964227
0.0025171451
0.0029382024
0.00026328658
0.0019093041
-0.0025438835
0.00026941886
-0.0060563681
-0.0018543817
-0.010464593
-0.0039517563
-0.015833415
-0.0048609248
-0.021489912
-0.0032547314
-0.024107991
-0.015568892
-0.0015911097
0.0064401827
-0.0026109365
0.010587558
-0.0025132931
0.011173269
-0.0015901391
0.010548894
-0.00017247175
0.0095689376
0.0014924438
0.0085387859
0.0032325027
0.0075449144
0.0049228229
0.0065835585
0.0064625807
0.0056131111
0.0077570997
0.004575229
0.0087071322
0.0034030499
0.0092011552
0.0020231222
0.0091030396
0.00036140224
0.0082748281
-0.001715672
0.0065652371
-0.0043467771
0.0039040527
-0.0078034089
0.00055882018
-0.012488182
-0.0024681406
-0.018462952
-0.0030273492
-0.023548783
-0.018596241
-0.0027183692
0.009158552
-0.0031499088
0.011019098
-0.0018030955
0.0098264558
0.0004665415
0.0082792569
0.0030892008
0.0069462784
0.005773534
0.0058544527
0.0083625804
0.0049558681
0.010760054
0.0041860849
0.012893143
0.003480022
0.014690322
0.0027780502
0.016068032
0.0020253405
0.016923005
0.0011681491
0.017119474
0.00016493347
0.016490631
-0.0010868292
0.01481668
-0.0026728261
0.01184653
-0.0048332594
0.0074353946
-0.0080770465
0.0022628651
-0.013290422
-0.0012724959
-0.020013422
-0.019868737
-0.0024132708
0.011571823
2.8059144e-05
0.0085777673
0.0042551157
0.0055993991
0.008416058
0.0041183145
0.01223137
0.0031309659
0.015656101
0.0024297225
0.018686344
0.0019256252
0.02132896
0.0015434689
0.023583248
0.0012257333
0.025428988
0.00093231076
0.02681995
0.00063437805
0.027676993
0.00031110674
0.027900048
-5.8121363e-05
0.027347107
-0.00053388825
0.025771548
-0.0010972667
0.022842988
-0.0019047
0.018054729
-0.0032887871
0.011113559
-0.0063492527
0.0033886639
-0.012288526
-0.016480073
0.011571823
0.020149591
0.02574899
0.029867304
0.03299827
0.035427993
0.037353618
0.038897087
0.04012282
0.041055131
0.041689509
0.042000616
0.041942494
0.041408606
0.040311339
0.038406639
0.035117852
0.028768599
0.016480073
)
;

boundaryField
{
    movingWall
    {
        type            calculated;
        value           uniform 0;
    }
    fixedWalls
    {
        type            calculated;
        value           uniform 0;
    }
    frontAndBack
    {
        type            empty;
        value           nonuniform List<scalar> 0();
    }
}


// ************************************************************************* //
