/*--------------------------------*- C++ -*----------------------------------*\
| =========                 |                                                 |
| \\      /  F ield         | OpenFOAM: The Open Source CFD Toolbox           |
|  \\    /   O peration     | Version:  2112                                  |
|   \\  /    A nd           | Website:  www.openfoam.com                      |
|    \\/     M anipulation  |                                                 |
\*---------------------------------------------------------------------------*/
FoamFile
{
    version     2.0;
    format      ascii;
    arch        "LSB;label=32;scalar=64";
    class       surfaceScalarField;
    location    "19";
    object      phi_0;
}
// * * * * * * * * * * * * * * * * * * * * * * * * * * * * * * * * * * * * * //

dimensions      [0 3 -1 0 0 0 0];

oriented        oriented;

internalField   nonuniform List<scalar> 
760
(
1.2692425e-05
-1.2709673e-05
-2.8728207e-05
4.1420633e-05
-0.00012228971
9.3561512e-05
-0.00025038555
0.00012809586
-0.00039605525
0.00014566972
-0.00054536224
0.000149307
-0.00068623426
0.00014087203
-0.00080684785
0.00012061361
-0.00089490359
8.8055773e-05
-0.00093834034
4.3436755e-05
-0.00092722666
-1.1113685e-05
-0.00085682022
-7.0406442e-05
-0.0007303968
-0.00012642341
-0.00056132037
-0.00016907641
-0.00037275012
-0.00018857025
-0.00019447291
-0.00017827722
-5.6526206e-05
-0.00013794671
1.9609079e-05
-7.6135263e-05
3.0408355e-05
-1.0799244e-05
3.0408378e-05
-4.3184866e-05
3.0475196e-05
-0.00020455847
0.00020279425
-0.00046829895
0.00035730197
-0.00080065923
0.00046045614
-0.0011672769
0.00051228737
-0.0015363511
0.00051838125
-0.0018781072
0.00048262816
-0.0021635447
0.00040605109
-0.0023643969
0.00028890793
-0.0024552025
0.00013424249
-0.0024180037
-4.8312435e-05
-0.0022452363
-0.00024317386
-0.0019474582
-0.00042420155
-0.0015543981
-0.00056213642
-0.0011142774
-0.00062869091
-0.00068745403
-0.00060510056
-0.00033452089
-0.00049087982
-0.00010089937
-0.00030975677
-1.5544886e-06
-0.0001101441
2.8853906e-05
-0.00011002174
0.00014049694
-0.00040300664
0.00049577917
-0.00083133369
0.00078562902
-0.0013455275
0.00097464994
-0.0018984716
0.0010652315
-0.0024464181
0.0010663278
-0.002947839
0.00098404907
-0.0033624025
0.00082061462
-0.0036516622
0.00057816762
-0.003782089
0.00026466935
-0.0037296073
-0.00010079416
-0.0034856194
-0.00048716172
-0.0030631139
-0.00084670705
-0.002499871
-0.0011253793
-0.0018581512
-0.0012704107
-0.0012180962
-0.0012451555
-0.00066371561
-0.0010452604
-0.00026308462
-0.00071038774
-4.7957075e-05
-0.00032527163
-1.9103153e-05
-0.00017342756
0.00031392449
-0.00059325036
0.000915602
-0.0011776122
0.0013699909
-0.0018582406
0.0016552783
-0.0025767323
0.0017837231
-0.0032810877
0.0017706832
-0.0039225363
0.0016254977
-0.0044538521
0.0013519305
-0.0048299615
0.00095427699
-0.0050109357
0.00044564352
-0.0049669693
-0.00014476048
-0.0046841749
-0.00076995603
-0.0041721299
-0.0013587521
-0.0034689537
-0.0018285555
-0.0026438853
-0.0020954791
-0.0017931228
-0.0020959179
-0.0010258102
-0.001812573
-0.00044020023
-0.0012959977
-9.6721739e-05
-0.00066875009
-0.00011582488
-0.00022977815
0.00054370262
-0.00076501836
0.0014508422
-0.0014913784
0.0020963509
-0.0023223852
0.0024862852
-0.0031899238
0.0026512618
-0.0040365567
0.0026173161
-0.0048097309
0.0023986719
-0.0054586307
0.0020008304
-0.0059338335
0.0014294798
-0.0061894656
0.0007012756
-0.0061880629
-0.0001461632
-0.005905264
-0.0010527548
-0.0053401434
-0.0019238726
-0.0045228946
-0.0026458043
-0.0035228116
-0.003095562
-0.0024496955
-0.0031690341
-0.0014424784
-0.00281979
-0.00064120593
-0.0020972701
-0.00014883168
-0.0011611243
-0.00026465654
-0.00027727701
0.00082097962
-0.00091148146
0.0020850467
-0.001760608
0.0029454775
-0.002722626
0.0034483031
-0.0037219705
0.0036506063
-0.0046984026
0.0035937482
-0.0055985581
0.0032988274
-0.0063708296
0.0027731019
-0.0069633527
0.002022003
-0.0073244607
0.0010623836
-0.0074070984
-6.3525478e-05
-0.0071713581
-0.0012884952
-0.006598588
-0.0024966426
-0.0057014271
-0.0035429652
-0.0045398225
-0.0042571665
-0.0032317054
-0.0044771512
-0.0019489398
-0.0041025555
-0.00088725159
-0.0031589583
-0.00021158579
-0.0018367901
-0.00047624231
-0.00031409348
0.0011350731
-0.0010262689
0.0027972222
-0.0019733783
0.0038925868
-0.0030415623
0.0045164871
-0.004150466
0.00475951
-0.0052396423
0.0046829246
-0.0062577319
0.0043169171
-0.0071551572
0.0036705272
-0.0078799851
0.0027468309
-0.0083764593
0.001558858
-0.0085850169
0.00014503214
-0.0084509702
-0.0014225419
-0.0079291833
-0.0030184295
-0.0070046915
-0.0044674569
-0.0057148247
-0.0055470333
-0.0041734219
-0.0060185539
-0.0025817458
-0.0056942316
-0.0012040581
-0.0045366459
-0.00029449229
-0.0027463559
-0.00077073457
-0.00033822726
0.0014733003
-0.0011031029
0.0035620978
-0.0021175117
0.0049069956
-0.0032597089
0.0056586843
-0.0044471719
0.0059469731
-0.0056216806
0.0058574334
-0.0067366322
0.0054318687
-0.0077476265
0.0046815216
-0.008606022
0.0036052264
-0.0092548967
0.0022077328
-0.0096266681
0.00051680371
-0.0096488758
-0.0014003342
-0.0092486755
-0.0034186297
-0.0083736724
-0.00534246
-0.0070218462
-0.0068988594
-0.0052816415
-0.0077587586
-0.0033675544
-0.0076083187
-0.0016173074
-0.0062868928
-0.00040825378
-0.0039554094
-0.0011789883
-0.00034813937
0.0018214397
-0.0011371619
0.0043511204
-0.0021826897
0.0059525235
-0.0033584738
0.0068344684
-0.0045820532
0.0071705525
-0.0057995975
0.0070749777
-0.0069719444
0.0066042157
-0.008063402
0.0057729792
-0.0090331688
0.0045749933
-0.009828721
0.003003285
-0.010381007
0.0010690898
-0.010604267
-0.001177074
-0.010400531
-0.0036223652
-0.0096746671
-0.0060683242
-0.0083684729
-0.0082050536
-0.0065155211
-0.0096117103
-0.0043097694
-0.0098140703
-0.0021482616
-0.0084484006
-0.00056490716
-0.0055387638
-0.0017438954
-0.00034392508
0.0021653648
-0.0011278274
0.0051350228
-0.0021646481
0.0069893443
-0.0033258097
0.00799563
-0.0045306829
0.0083754258
-0.0057318042
0.008276099
-0.0069000687
0.0077724803
-0.0080122237
0.0068851343
-0.0090406691
0.0056034388
-0.0099448139
0.0039074299
-0.010663246
0.0017875222
-0.011106599
-0.00073372151
-0.011163273
-0.0035656904
-0.01069698
-0.006534617
-0.0095824549
-0.0093195791
-0.0077666459
-0.011427519
-0.0053713981
-0.012209318
-0.0028071171
-0.011012682
-0.00077834876
-0.0075675321
-0.0025222442
-0.00032890702
0.0024942718
-0.0010824153
0.0058885311
-0.0020707618
0.0079776908
-0.0031635872
0.0090884555
-0.004283868
0.0094957067
-0.0053928161
0.0093850471
-0.0064741054
0.0088537695
-0.0075205201
0.0079315491
-0.0085228996
0.0066058185
-0.0094603356
0.0048448661
-0.01029133
0.0026185163
-0.010933219
-9.1832113e-05
-0.011283195
-0.0032157138
-0.011173599
-0.0066442129
-0.010415659
-0.010077519
-0.0088466659
-0.012996512
-0.0064556826
-0.014600301
-0.0035814749
-0.013886889
-0.0010642026
-0.010084804
-0.0035864468
-0.00031179294
0.0028060648
-0.0010207017
0.0065974399
-0.0019261362
0.0088831253
-0.0028949974
0.010057317
-0.0038569435
0.010457653
-0.0047856383
0.010313742
-0.0056808577
0.0097489889
-0.0065545647
0.008805256
-0.007420015
0.007471269
-0.0082819634
0.0057068147
-0.0091252981
0.0034618512
-0.0099087828
0.00069165264
-0.010527381
-0.0025971155
-0.010827108
-0.0063444856
-0.010573683
-0.010330944
-0.009493221
-0.014076974
-0.0073911186
-0.016702404
-0.0044188839
-0.016859124
-0.0014371947
-0.013066493
-0.0050236414
-0.00031006109
0.003116126
-0.00098041605
0.007267795
-0.0017791361
0.0096818453
-0.002569488
0.010847668
-0.0032947501
0.011182915
-0.0039480811
0.010967073
-0.0045501823
0.01035109
-0.0051350221
0.0093900958
-0.0057401763
0.0080764232
-0.0063987936
0.006365432
-0.0071304003
0.0041934582
-0.0079305258
0.0014917783
-0.0087390521
-0.0017885891
-0.0094305699
-0.0056529678
-0.0097687423
-0.0099927719
-0.0094004452
-0.014445271
-0.0079306224
-0.018172226
-0.0052061629
-0.019583583
-0.0019026028
-0.016370054
-0.0069262442
-0.00035606675
0.0034721927
-0.0010240736
0.007935802
-0.0017043632
0.010362135
-0.0022609862
0.011404292
-0.0026659592
0.011587888
-0.0029442899
0.011245404
-0.0031445636
0.010551364
-0.0033252075
0.0095707399
-0.00354755
0.0082987657
-0.0038714105
0.0066892926
-0.0043495337
0.0046715814
-0.005018731
0.0021609758
-0.0058769405
-0.00093037948
-0.006858127
-0.0046717813
-0.0077765294
-0.0090743694
-0.0082660118
-0.013955789
-0.0077688444
-0.018669394
-0.005751139
-0.021601289
-0.0024366738
-0.019684519
-0.009362918
-0.00050829335
0.0039804861
-0.0012457261
0.0086732346
-0.0017960508
0.01091246
-0.0020482368
0.011656478
-0.0020328067
0.011572458
-0.0018257782
0.011038375
-0.001512582
0.010238168
-0.0011782732
0.0092364314
-0.00090513642
0.0080256292
-0.00077414151
0.0065582978
-0.00086389972
0.0047613397
-0.0012477474
0.0025448235
-0.0019831939
-0.00019493283
-0.0030821941
-0.003572781
-0.004460311
-0.0076962525
-0.0058277065
-0.012588393
-0.0065663116
-0.017930788
-0.0057685203
-0.02239908
-0.0029512418
-0.022501797
-0.01231416
-0.00086858656
0.0048490728
-0.001763083
0.0095677307
-0.0021215345
0.011270911
-0.0019371028
0.011472047
-0.0013512484
0.010986604
-0.00051657356
0.0102037
0.00043662221
0.0092849723
0.0013991754
0.0082738781
0.002271936
0.0071528687
0.0029604857
0.0058697482
0.0033687428
0.0043530828
0.0033964206
0.0025171458
0.0029382005
0.00026328732
0.0019093024
-0.0025438828
0.00026941739
-0.0060563675
-0.0018543829
-0.010464593
-0.0039517572
-0.015833414
-0.0048609253
-0.021489912
-0.0032547315
-0.024107991
-0.015568891
-0.0015911097
0.0064401829
-0.0026109365
0.010587558
-0.0025132943
0.011173268
-0.0015901407
0.010548893
-0.00017247343
0.0095689371
0.0014924419
0.0085387854
0.0032325005
0.0075449138
0.0049228206
0.0065835581
0.0064625783
0.005613111
0.0077570975
0.0045752291
0.0087071301
0.0034030503
0.0092011533
0.0020231226
0.0091030379
0.00036140277
0.0082748266
-0.0017156714
0.0065652359
-0.0043467767
0.0039040517
-0.0078034086
0.00055881943
-0.012488182
-0.0024681411
-0.018462951
-0.0030273494
-0.023548783
-0.018596241
-0.0027183698
0.0091585526
-0.0031499084
0.011019098
-0.0018030958
0.009826455
0.00046654043
0.008279256
0.0030891994
0.0069462778
0.0057735325
0.0058544523
0.0083625787
0.0049558678
0.010760052
0.0041860846
0.012893141
0.0034800219
0.01469032
0.0027780502
0.01606803
0.0020253407
0.016923003
0.0011681494
0.017119472
0.00016493378
0.01649063
-0.0010868289
0.014816679
-0.0026728258
0.01184653
-0.0048332592
0.007435394
-0.0080770463
0.0022628647
-0.013290422
-0.0012724961
-0.020013422
-0.019868737
-0.0024132718
0.011571824
2.8059215e-05
0.0085777683
0.0042551159
0.0055993997
0.0084160578
0.0041183144
0.01223137
0.0031309656
0.0156561
0.0024297222
0.018686343
0.0019256251
0.021328958
0.0015434689
0.023583247
0.0012257332
0.025428987
0.00093231078
0.026819949
0.00063437812
0.027676992
0.00031110683
0.027900047
-5.8121241e-05
0.027347106
-0.00053388816
0.025771547
-0.0010972666
0.022842988
-0.0019047
0.018054728
-0.0032887871
0.011113559
-0.0063492528
0.0033886638
-0.012288526
-0.016480073
0.011571823
0.02014959
0.02574899
0.029867304
0.03299827
0.035427992
0.037353617
0.038897086
0.040122819
0.04105513
0.041689508
0.042000615
0.041942494
0.041408606
0.040311339
0.038406639
0.035117852
0.028768599
0.016480073
)
;

boundaryField
{
    movingWall
    {
        type            calculated;
        value           uniform 0;
    }
    fixedWalls
    {
        type            calculated;
        value           uniform 0;
    }
    frontAndBack
    {
        type            empty;
        value           nonuniform List<scalar> 0();
    }
}


// ************************************************************************* //
