/*--------------------------------*- C++ -*----------------------------------*\
| =========                 |                                                 |
| \\      /  F ield         | OpenFOAM: The Open Source CFD Toolbox           |
|  \\    /   O peration     | Version:  2112                                  |
|   \\  /    A nd           | Website:  www.openfoam.com                      |
|    \\/     M anipulation  |                                                 |
\*---------------------------------------------------------------------------*/
FoamFile
{
    version     2.0;
    format      ascii;
    arch        "LSB;label=32;scalar=64";
    class       volVectorField;
    location    "19";
    object      U;
}
// * * * * * * * * * * * * * * * * * * * * * * * * * * * * * * * * * * * * * //

dimensions      [0 1 -1 0 0 0 0];

internalField   nonuniform List<vector> 
400
(
(0.00028430766 -0.00028147348 0)
(0.00011050169 7.9921022e-05 0)
(-0.0013272318 0.00047799014 0)
(-0.0036217752 0.00073588393 0)
(-0.006423352 0.00086747043 0)
(-0.0094309939 0.00090721691 0)
(-0.012387338 0.00087481526 0)
(-0.015055623 0.00077148503 0)
(-0.017193611 0.0005884556 0)
(-0.018551853 0.00032006895 0)
(-0.01890163 -2.4803002e-05 0)
(-0.01808524 -0.00041823144 0)
(-0.016079145 -0.00079966349 0)
(-0.013048403 -0.0010930106 0)
(-0.0093660802 -0.0012211409 0)
(-0.0055775572 -0.0011294264 0)
(-0.0023003897 -0.00081284627 0)
(-8.3064212e-05 -0.00033798993 0)
(0.00076006048 0.00015226109 0)
(0.00040940949 0.00038930752 0)
(-8.6122349e-05 -0.00012368677 0)
(-0.0018692639 0.0017870903 0)
(-0.0063062295 0.0036258099 0)
(-0.012451987 0.0048621861 0)
(-0.019599489 0.005498186 0)
(-0.027105318 0.0056203234 0)
(-0.034356814 0.0052857077 0)
(-0.040766427 0.0045041135 0)
(-0.045755462 0.0032660456 0)
(-0.048773088 0.0015896027 0)
(-0.049363916 -0.00043537414 0)
(-0.047251354 -0.0026179518 0)
(-0.042449917 -0.0046641898 0)
(-0.035359903 -0.0062185067 0)
(-0.02677755 -0.0069371843 0)
(-0.017826685 -0.0065919421 0)
(-0.0097753363 -0.0051795831 0)
(-0.0037463175 -0.0029993867 0)
(-0.00038883941 -0.0006656082 0)
(0.00028985251 0.00078345854 0)
(-0.00058806876 0.0014335255 0)
(-0.0042425734 0.0063770889 0)
(-0.011757825 0.010639888 0)
(-0.021467308 0.013482737 0)
(-0.032364096 0.014897353 0)
(-0.0435852 0.015016442 0)
(-0.054283953 0.013935311 0)
(-0.063638578 0.01168357 0)
(-0.070851533 0.0082809593 0)
(-0.075183949 0.003828588 0)
(-0.076035271 -0.0014056025 0)
(-0.073053844 -0.0069349993 0)
(-0.066263299 -0.012070828 0)
(-0.056166673 -0.01599919 0)
(-0.043778886 -0.017941689 0)
(-0.030567984 -0.017379062 0)
(-0.018250051 -0.014289372 0)
(-0.0084177778 -0.0093120373 0)
(-0.0021511258 -0.0037618613 0)
(-1.9968883e-06 0.00031683947 0)
(-0.0010529953 0.0043001005 0)
(-0.0065144035 0.013564817 0)
(-0.01699793 0.020862681 0)
(-0.030028812 0.025559537 0)
(-0.044297569 0.027759643 0)
(-0.058780379 0.027686201 0)
(-0.072482826 0.025486095 0)
(-0.08444159 0.021217251 0)
(-0.09372322 0.014944461 0)
(-0.099458379 0.0068783396 0)
(-0.10092447 -0.0025006691 0)
(-0.097657586 -0.012377228 0)
(-0.089588469 -0.021603735 0)
(-0.077178447 -0.028822854 0)
(-0.061502244 -0.032704125 0)
(-0.04425173 -0.03229823 0)
(-0.027561131 -0.027444669 0)
(-0.01358129 -0.019080043 0)
(-0.0040262517 -0.0092705514 0)
(-0.00026772899 -0.0011083077 0)
(-0.001455749 0.0083644377 0)
(-0.0085484106 0.023179574 0)
(-0.021744606 0.034049246 0)
(-0.037789716 0.040760251 0)
(-0.055093016 0.043698811 0)
(-0.072514604 0.043256242 0)
(-0.088978528 0.039659089 0)
(-0.10345186 0.0329996 0)
(-0.1149252 0.023383298 0)
(-0.12242976 0.011116756 0)
(-0.12510836 -0.0031279595 0)
(-0.1223134 -0.018217508 0)
(-0.11375576 -0.032539041 0)
(-0.099693432 -0.044129633 0)
(-0.081096747 -0.050963227 0)
(-0.059773687 -0.051438484 0)
(-0.038289576 -0.045011532 0)
(-0.019519686 -0.032754275 0)
(-0.0060921256 -0.017491387 0)
(-0.00051101252 -0.0035220731 0)
(-0.0017887888 0.013474448 0)
(-0.010268936 0.034958292 0)
(-0.025803623 0.049905055 0)
(-0.044463626 0.058790715 0)
(-0.064423334 0.062454213 0)
(-0.08447203 0.061547039 0)
(-0.1035101 0.056412799 0)
(-0.12049634 0.047179865 0)
(-0.13439635 0.033969132 0)
(-0.14416619 0.017132408 0)
(-0.1487959 -0.0025345958 0)
(-0.14738618 -0.023633917 0)
(-0.1393047 -0.044139187 0)
(-0.12443005 -0.0614381 0)
(-0.1034272 -0.072638119 0)
(-0.078052648 -0.075170028 0)
(-0.051258837 -0.067703622 0)
(-0.026808387 -0.051122122 0)
(-0.0086119678 -0.028964729 0)
(-0.00078704429 -0.0070520657 0)
(-0.0020418799 0.019435061 0)
(-0.011604833 0.048525377 0)
(-0.028993839 0.067993531 0)
(-0.049754499 0.079220644 0)
(-0.071887153 0.083652012 0)
(-0.09415648 0.082292801 0)
(-0.11549352 0.075645602 0)
(-0.13490781 0.06387399 0)
(-0.15139566 0.047074485 0)
(-0.16387701 0.025567829 0)
(-0.17118475 0.00016465972 0)
(-0.17214729 -0.027607555 0)
(-0.16570899 -0.05539206 0)
(-0.1511861 -0.079940654 0)
(-0.12869571 -0.097345776 0)
(-0.099666274 -0.1036934 0)
(-0.067239326 -0.096281765 0)
(-0.036117769 -0.075217172 0)
(-0.011929275 -0.044538274 0)
(-0.0011707672 -0.012001201 0)
(-0.0022011449 0.026011454 0)
(-0.012483964 0.063415068 0)
(-0.031138107 0.087758439 0)
(-0.053351588 0.1014836 0)
(-0.077013611 0.10677054 0)
(-0.10090695 0.1050678 0)
(-0.12404416 0.097083305 0)
(-0.14554525 0.08301793 0)
(-0.16450277 0.06290043 0)
(-0.17986897 0.036930866 0)
(-0.19039234 0.0057973801 0)
(-0.19464903 -0.029029902 0)
(-0.19113006 -0.065013181 0)
(-0.17848411 -0.098385145 0)
(-0.15602003 -0.12417101 0)
(-0.12444099 -0.13675643 0)
(-0.086643841 -0.13132349 0)
(-0.048062159 -0.10622869 0)
(-0.016428785 -0.065390928 0)
(-0.0017537164 -0.018877866 0)
(-0.0022555992 0.032930942 0)
(-0.012853117 0.079083124 0)
(-0.032097475 0.10852792 0)
(-0.05497944 0.12485651 0)
(-0.07933155 0.13108528 0)
(-0.10399011 0.12919248 0)
(-0.12809562 0.12014582 0)
(-0.15093996 0.10419761 0)
(-0.17179198 0.081276384 0)
(-0.18973932 0.051375615 0)
(-0.20357091 0.014917399 0)
(-0.21172389 -0.026872328 0)
(-0.21232019 -0.071527021 0)
(-0.20333348 -0.11501956 0)
(-0.18305854 -0.15143984 0)
(-0.15101425 -0.17327769 0)
(-0.1091628 -0.17281511 0)
(-0.063024638 -0.14523853 0)
(-0.022524281 -0.092974891 0)
(-0.0026588555 -0.0284213 0)
(-0.0022085759 0.039901913 0)
(-0.01271673 0.094938227 0)
(-0.031840399 0.12953227 0)
(-0.054495288 0.14844993 0)
(-0.07849795 0.15562713 0)
(-0.10276838 0.15365902 0)
(-0.12661847 0.1438401 0)
(-0.14957346 0.12650928 0)
(-0.17116776 0.10149047 0)
(-0.19075266 0.068517193 0)
(-0.20732411 0.027629639 0)
(-0.2193748 -0.020390365 0)
(-0.22488489 -0.073456474 0)
(-0.22130366 -0.12768208 0)
(-0.20585188 -0.17661299 0)
(-0.17647348 -0.21098404 0)
(-0.13334417 -0.2196055 0)
(-0.080897493 -0.19274757 0)
(-0.030641141 -0.12884852 0)
(-0.0040699333 -0.041635755 0)
(-0.0020933571 0.046660567 0)
(-0.012189691 0.11041225 0)
(-0.030536021 0.14995748 0)
(-0.052017179 0.17123396 0)
(-0.074464382 0.17918377 0)
(-0.096919163 0.17711343 0)
(-0.11891329 0.16672374 0)
(-0.14026585 0.14849869 0)
(-0.1608616 0.12219053 0)
(-0.18044295 0.087272847 0)
(-0.19840283 0.043354792 0)
(-0.21353675 -0.009385713 0)
(-0.22401441 -0.069671298 0)
(-0.22708241 -0.13412693 0)
(-0.21908872 -0.19644589 0)
(-0.19626522 -0.24624424 0)
(-0.15621779 -0.26885236 0)
(-0.10070493 -0.24798107 0)
(-0.041145288 -0.17433016 0)
(-0.0062704536 -0.05983223 0)
(-0.0019964072 0.053054822 0)
(-0.011565814 0.12507727 0)
(-0.028661555 0.16903688 0)
(-0.048057458 0.1921001 0)
(-0.067639505 0.20034796 0)
(-0.086645206 0.19790527 0)
(-0.10489752 0.18696139 0)
(-0.12257139 0.16821478 0)
(-0.13996632 0.14140745 0)
(-0.15730022 0.10579948 0)
(-0.17451842 0.060574104 0)
(-0.19108659 0.0052296126 0)
(-0.20560431 -0.059917369 0)
(-0.2155081 -0.1326019 0)
(-0.21690289 -0.20752113 0)
(-0.20457871 -0.2743108 0)
(-0.17317475 -0.31571021 0)
(-0.12017035 -0.30807269 0)
(-0.054146923 -0.22987841 0)
(-0.0096747279 -0.084651064 0)
(-0.0020997472 0.059181903 0)
(-0.011415514 0.13881012 0)
(-0.027116761 0.18616559 0)
(-0.043626943 0.20993855 0)
(-0.058983974 0.2175933 0)
(-0.072781177 0.21419065 0)
(-0.085253884 0.20246823 0)
(-0.097005607 0.18339078 0)
(-0.1087935 0.15675492 0)
(-0.12135554 0.12168699 0)
(-0.13525939 0.077017807 0)
(-0.15070819 0.021621899 0)
(-0.16712724 -0.045106109 0)
(-0.18274467 -0.12251077 0)
(-0.19405734 -0.20712038 0)
(-0.1952377 -0.2901085 0)
(-0.17829567 -0.35357847 0)
(-0.13540579 -0.36743152 0)
(-0.069088782 -0.29414755 0)
(-0.014794876 -0.11798211 0)
(-0.0027678972 0.065618043 0)
(-0.01274194 0.15199365 0)
(-0.027332053 0.20099042 0)
(-0.040247723 0.22367602 0)
(-0.049932799 0.22932346 0)
(-0.056648506 0.22403116 0)
(-0.061238399 0.21107584 0)
(-0.064822402 0.19167891 0)
(-0.068627515 0.16571954 0)
(-0.07388206 0.13227445 0)
(-0.081735323 0.08996268 0)
(-0.093127108 0.037203654 0)
(-0.10847596 -0.027474878 0)
(-0.12721994 -0.10497183 0)
(-0.14705953 -0.19421602 0)
(-0.16280763 -0.28948152 0)
(-0.16509352 -0.37509415 0)
(-0.14090281 -0.4177215 0)
(-0.084061788 -0.3628091 0)
(-0.022011555 -0.16157163 0)
(-0.0047198196 0.07383345 0)
(-0.017223571 0.16572264 0)
(-0.031286893 0.2133728 0)
(-0.039687179 0.23216784 0)
(-0.041888735 0.23379621 0)
(-0.039357431 0.22538924 0)
(-0.033819744 0.2106085 0)
(-0.027008157 0.19080847 0)
(-0.020600137 0.16589739 0)
(-0.016223637 0.13494025 0)
(-0.01548445 0.096473198 0)
(-0.019933345 0.048693231 0)
(-0.030925952 -0.010409001 0)
(-0.049240998 -0.082916646 0)
(-0.074405041 -0.1701394 0)
(-0.10328156 -0.27049893 0)
(-0.12725819 -0.37369163 0)
(-0.12973709 -0.44868382 0)
(-0.094915518 -0.42750305 0)
(-0.030930708 -0.2161258 0)
(-0.0093002318 0.086951523 0)
(-0.027433283 0.18185099 0)
(-0.040984337 0.22302963 0)
(-0.042683715 0.23378484 0)
(-0.034411074 0.22879747 0)
(-0.019629454 0.21591875 0)
(-0.0012461092 0.19877686 0)
(0.018337325 0.1785629 0)
(0.037063086 0.15508312 0)
(0.053047379 0.12736023 0)
(0.064413591 0.09393821 0)
(0.069223446 0.053017255 0)
(0.065408168 0.0024656619 0)
(0.051041133 -0.060336261 0)
(0.024637375 -0.13837378 0)
(-0.013706726 -0.2341689 0)
(-0.058757574 -0.34516798 0)
(-0.093513398 -0.44953755 0)
(-0.094470959 -0.47558564 0)
(-0.039216292 -0.28048107 0)
(-0.018580474 0.11087147 0)
(-0.046040611 0.20177542 0)
(-0.05523236 0.2279293 0)
(-0.043988607 0.2250145 0)
(-0.019377614 0.21060955 0)
(0.012327087 0.19227693 0)
(0.046985926 0.17278254 0)
(0.081746469 0.15265249 0)
(0.11443 0.13135238 0)
(0.14314545 0.10779608 0)
(0.1660094 0.080592999 0)
(0.18097429 0.048114149 0)
(0.18556988 0.0084515689 0)
(0.17716023 -0.040815228 0)
(0.15275472 -0.1031742 0)
(0.10948481 -0.1839046 0)
(0.047237279 -0.2885534 0)
(-0.02144156 -0.4105092 0)
(-0.072254019 -0.49101566 0)
(-0.041147725 -0.35054186 0)
(-0.033352252 0.1556158 0)
(-0.068602059 0.22040423 0)
(-0.055188664 0.21729119 0)
(-0.016081124 0.19532267 0)
(0.034507467 0.17092142 0)
(0.088502971 0.14849264 0)
(0.14176283 0.12861097 0)
(0.19196266 0.11057651 0)
(0.23753402 0.093297181 0)
(0.27711354 0.075575329 0)
(0.30921186 0.056182303 0)
(0.33203758 0.03382457 0)
(0.34317066 0.0070287645 0)
(0.33982462 -0.025908991 0)
(0.31812902 -0.067740484 0)
(0.27327447 -0.12410701 0)
(0.20044506 -0.20584654 0)
(0.1021382 -0.32506869 0)
(-0.012388099 -0.45457121 0)
(-0.023756868 -0.40864027 0)
(-0.033081007 0.23907353 0)
(-0.042646963 0.21792034 0)
(0.042207102 0.16426608 0)
(0.12760379 0.12783516 0)
(0.20769628 0.10143462 0)
(0.28027893 0.081657237 0)
(0.34486954 0.066647335 0)
(0.40157878 0.054702503 0)
(0.45054601 0.044399256 0)
(0.4916157 0.034640043 0)
(0.52415737 0.024550995 0)
(0.54698207 0.013382313 0)
(0.55821899 0.00040043617 0)
(0.55570673 -0.015136635 0)
(0.53552425 -0.034968586 0)
(0.49244521 -0.062487784 0)
(0.41797177 -0.10694743 0)
(0.30410529 -0.19317537 0)
(0.12313744 -0.33691901 0)
(0.052374081 -0.39437909 0)
(0.24299939 0.15257492 0)
(0.30529653 0.11854305 0)
(0.45481255 0.076108214 0)
(0.56000903 0.050840145 0)
(0.63223299 0.035125944 0)
(0.68654839 0.024812125 0)
(0.729437 0.01795993 0)
(0.76379466 0.013255811 0)
(0.7912774 0.009762165 0)
(0.81274955 0.0068544072 0)
(0.82840961 0.0041186346 0)
(0.8379425 0.0012770149 0)
(0.84056966 -0.0018440628 0)
(0.83497492 -0.0053261166 0)
(0.81886668 -0.0098288385 0)
(0.78942863 -0.016232671 0)
(0.73784296 -0.026935683 0)
(0.65316772 -0.051286565 0)
(0.4560977 -0.11374606 0)
(0.31788988 -0.17206005 0)
)
;

boundaryField
{
    movingWall
    {
        type            fixedValue;
        value           uniform (1 0 0);
    }
    fixedWalls
    {
        type            fixedValue;
        value           uniform (0 0 0);
    }
    frontAndBack
    {
        type            empty;
    }
}


// ************************************************************************* //
