/*--------------------------------*- C++ -*----------------------------------*\
| =========                 |                                                 |
| \\      /  F ield         | OpenFOAM: The Open Source CFD Toolbox           |
|  \\    /   O peration     | Version:  2112                                  |
|   \\  /    A nd           | Website:  www.openfoam.com                      |
|    \\/     M anipulation  |                                                 |
\*---------------------------------------------------------------------------*/
FoamFile
{
    version     2.0;
    format      ascii;
    arch        "LSB;label=32;scalar=64";
    class       volVectorField;
    location    "19";
    object      U_0;
}
// * * * * * * * * * * * * * * * * * * * * * * * * * * * * * * * * * * * * * //

dimensions      [0 1 -1 0 0 0 0];

internalField   nonuniform List<vector> 
400
(
(0.00028430744 -0.00028147338 0)
(0.00011050137 7.9921039e-05 0)
(-0.0013272317 0.00047799011 0)
(-0.0036217744 0.00073588382 0)
(-0.0064233501 0.0008674702 0)
(-0.0094309909 0.00090721664 0)
(-0.012387334 0.00087481502 0)
(-0.015055618 0.00077148486 0)
(-0.017193605 0.00058845546 0)
(-0.018551847 0.0003200688 0)
(-0.018901624 -2.4803078e-05 0)
(-0.018085234 -0.0004182313 0)
(-0.01607914 -0.00079966312 0)
(-0.013048399 -0.0010930102 0)
(-0.0093660782 -0.0012211406 0)
(-0.0055775565 -0.0011294263 0)
(-0.0023003901 -0.00081284619 0)
(-8.3064998e-05 -0.0003379899 0)
(0.0007600599 0.000152261 0)
(0.00040940931 0.0003893074 0)
(-8.6122409e-05 -0.00012368659 0)
(-0.0018692633 0.0017870898 0)
(-0.0063062275 0.0036258087 0)
(-0.012451982 0.0048621844 0)
(-0.019599482 0.0054981841 0)
(-0.027105308 0.0056203213 0)
(-0.034356802 0.0052857058 0)
(-0.040766412 0.0045041121 0)
(-0.045755446 0.0032660447 0)
(-0.048773071 0.0015896025 0)
(-0.049363899 -0.00043537369 0)
(-0.047251338 -0.0026179506 0)
(-0.042449904 -0.0046641877 0)
(-0.035359894 -0.0062185041 0)
(-0.026777544 -0.0069371819 0)
(-0.017826681 -0.0065919403 0)
(-0.0097753349 -0.005179582 0)
(-0.0037463176 -0.0029993864 0)
(-0.00038883998 -0.00066560848 0)
(0.00028985223 0.00078345814 0)
(-0.00058806866 0.0014335253 0)
(-0.0042425718 0.0063770866 0)
(-0.011757821 0.010639884 0)
(-0.021467299 0.013482732 0)
(-0.032364083 0.014897347 0)
(-0.043585183 0.015016436 0)
(-0.054283932 0.013935306 0)
(-0.063638553 0.011683566 0)
(-0.070851507 0.008280957 0)
(-0.075183922 0.0038285879 0)
(-0.076035245 -0.0014056006 0)
(-0.07305382 -0.0069349955 0)
(-0.066263278 -0.012070823 0)
(-0.056166657 -0.015999183 0)
(-0.043778874 -0.017941682 0)
(-0.030567976 -0.017379057 0)
(-0.018250047 -0.014289369 0)
(-0.0084177765 -0.0093120358 0)
(-0.0021511258 -0.0037618614 0)
(-1.9970587e-06 0.00031683882 0)
(-0.001052995 0.0043000992 0)
(-0.0065144007 0.013564812 0)
(-0.016997923 0.020862673 0)
(-0.0300288 0.025559527 0)
(-0.04429755 0.027759632 0)
(-0.058780355 0.027686191 0)
(-0.072482798 0.025486086 0)
(-0.084441558 0.021217244 0)
(-0.093723185 0.014944457 0)
(-0.099458344 0.0068783395 0)
(-0.10092444 -0.0025006653 0)
(-0.097657555 -0.012377221 0)
(-0.089588442 -0.021603726 0)
(-0.077178424 -0.028822843 0)
(-0.061502227 -0.032704113 0)
(-0.044251719 -0.03229822 0)
(-0.027561124 -0.027444662 0)
(-0.013581288 -0.019080039 0)
(-0.0040262511 -0.0092705506 0)
(-0.00026772903 -0.0011083083 0)
(-0.0014557485 0.0083644345 0)
(-0.0085484069 0.023179565 0)
(-0.021744597 0.034049233 0)
(-0.0377897 0.040760235 0)
(-0.055092994 0.043698794 0)
(-0.072514575 0.043256226 0)
(-0.088978495 0.039659076 0)
(-0.10345182 0.03299959 0)
(-0.11492516 0.023383293 0)
(-0.12242972 0.011116756 0)
(-0.12510832 -0.0031279538 0)
(-0.12231336 -0.018217497 0)
(-0.11375573 -0.032539026 0)
(-0.099693404 -0.044129616 0)
(-0.081096726 -0.05096321 0)
(-0.059773672 -0.051438468 0)
(-0.038289567 -0.04501152 0)
(-0.019519682 -0.032754268 0)
(-0.0060921244 -0.017491384 0)
(-0.00051101244 -0.0035220734 0)
(-0.0017887881 0.013474442 0)
(-0.010268932 0.034958277 0)
(-0.025803613 0.049905035 0)
(-0.044463608 0.058790692 0)
(-0.064423309 0.06245419 0)
(-0.084471998 0.061547018 0)
(-0.10351006 0.056412781 0)
(-0.1204963 0.047179852 0)
(-0.13439631 0.033969125 0)
(-0.14416615 0.017132408 0)
(-0.14879585 -0.0025345885 0)
(-0.14738614 -0.023633903 0)
(-0.13930466 -0.044139167 0)
(-0.12443002 -0.061438077 0)
(-0.10342718 -0.072638095 0)
(-0.07805263 -0.075170006 0)
(-0.051258825 -0.067703604 0)
(-0.026808381 -0.051122111 0)
(-0.0086119659 -0.028964724 0)
(-0.00078704414 -0.0070520651 0)
(-0.0020418791 0.019435053 0)
(-0.011604828 0.048525357 0)
(-0.028993828 0.067993504 0)
(-0.049754481 0.079220614 0)
(-0.071887127 0.083651982 0)
(-0.094156448 0.082292774 0)
(-0.11549348 0.075645579 0)
(-0.13490777 0.063873974 0)
(-0.15139562 0.047074477 0)
(-0.16387697 0.025567829 0)
(-0.17118471 0.00016466856 0)
(-0.17214725 -0.027607538 0)
(-0.16570895 -0.055392036 0)
(-0.15118607 -0.079940625 0)
(-0.12869568 -0.097345746 0)
(-0.099666253 -0.10369337 0)
(-0.067239312 -0.09628174 0)
(-0.036117762 -0.075217155 0)
(-0.011929273 -0.044538265 0)
(-0.0011707669 -0.012001199 0)
(-0.0022011442 0.026011443 0)
(-0.01248396 0.063415043 0)
(-0.031138097 0.087758405 0)
(-0.053351571 0.10148357 0)
(-0.077013588 0.10677051 0)
(-0.10090692 0.10506777 0)
(-0.12404413 0.097083278 0)
(-0.14554521 0.083017911 0)
(-0.16450274 0.06290042 0)
(-0.17986894 0.036930867 0)
(-0.1903923 0.0057973905 0)
(-0.194649 -0.029029883 0)
(-0.19113003 -0.065013154 0)
(-0.17848407 -0.098385112 0)
(-0.15602 -0.12417097 0)
(-0.12444097 -0.13675639 0)
(-0.086643826 -0.13132345 0)
(-0.04806215 -0.10622867 0)
(-0.016428782 -0.065390915 0)
(-0.001753716 -0.018877862 0)
(-0.0022555987 0.032930929 0)
(-0.012853114 0.079083094 0)
(-0.032097467 0.10852788 0)
(-0.054979426 0.12485646 0)
(-0.079331532 0.13108524 0)
(-0.10399008 0.12919244 0)
(-0.1280956 0.12014579 0)
(-0.15093994 0.10419759 0)
(-0.17179195 0.081276373 0)
(-0.18973929 0.051375616 0)
(-0.20357088 0.014917411 0)
(-0.21172387 -0.026872307 0)
(-0.21232017 -0.071526992 0)
(-0.20333345 -0.11501952 0)
(-0.18305852 -0.1514398 0)
(-0.15101423 -0.17327765 0)
(-0.10916278 -0.17281507 0)
(-0.063024628 -0.1452385 0)
(-0.022524278 -0.092974873 0)
(-0.002658855 -0.028421295 0)
(-0.0022085756 0.039901899 0)
(-0.012716729 0.094938194 0)
(-0.031840394 0.12953222 0)
(-0.054495279 0.14844988 0)
(-0.078497938 0.15562708 0)
(-0.10276836 0.15365898 0)
(-0.12661845 0.14384007 0)
(-0.14957345 0.12650926 0)
(-0.17116774 0.10149046 0)
(-0.19075265 0.068517193 0)
(-0.20732409 0.027629651 0)
(-0.21937478 -0.020390343 0)
(-0.22488487 -0.073456444 0)
(-0.22130365 -0.12768204 0)
(-0.20585186 -0.17661294 0)
(-0.17647346 -0.210984 0)
(-0.13334416 -0.21960546 0)
(-0.080897484 -0.19274754 0)
(-0.030641137 -0.12884849 0)
(-0.0040699327 -0.041635748 0)
(-0.002093357 0.046660552 0)
(-0.01218969 0.11041221 0)
(-0.03053602 0.14995743 0)
(-0.052017177 0.17123391 0)
(-0.074464379 0.17918373 0)
(-0.096919158 0.17711338 0)
(-0.11891329 0.1667237 0)
(-0.14026585 0.14849867 0)
(-0.16086159 0.12219052 0)
(-0.18044295 0.087272847 0)
(-0.19840283 0.043354804 0)
(-0.21353675 -0.0093856911 0)
(-0.22401441 -0.069671268 0)
(-0.22708241 -0.13412689 0)
(-0.21908872 -0.19644585 0)
(-0.19626521 -0.24624419 0)
(-0.15621778 -0.26885232 0)
(-0.10070492 -0.24798103 0)
(-0.041145284 -0.17433013 0)
(-0.0062704528 -0.05983222 0)
(-0.0019964073 0.053054807 0)
(-0.011565816 0.12507724 0)
(-0.028661558 0.16903683 0)
(-0.048057463 0.19210005 0)
(-0.067639511 0.20034791 0)
(-0.086645212 0.19790523 0)
(-0.10489753 0.18696135 0)
(-0.12257141 0.16821476 0)
(-0.13996633 0.14140744 0)
(-0.15730023 0.10579949 0)
(-0.17451843 0.060574116 0)
(-0.1910866 0.0052296335 0)
(-0.20560433 -0.059917341 0)
(-0.21550811 -0.13260187 0)
(-0.21690289 -0.20752109 0)
(-0.20457871 -0.27431076 0)
(-0.17317475 -0.31571017 0)
(-0.12017035 -0.30807265 0)
(-0.05414692 -0.22987838 0)
(-0.009674727 -0.084651053 0)
(-0.0020997479 0.05918189 0)
(-0.011415517 0.13881008 0)
(-0.027116768 0.18616555 0)
(-0.043626954 0.2099385 0)
(-0.058983991 0.21759326 0)
(-0.072781196 0.21419061 0)
(-0.085253905 0.2024682 0)
(-0.09700563 0.18339076 0)
(-0.10879353 0.15675492 0)
(-0.12135557 0.12168699 0)
(-0.13525942 0.077017821 0)
(-0.15070822 0.021621919 0)
(-0.16712727 -0.045106084 0)
(-0.18274469 -0.12251074 0)
(-0.19405736 -0.20712034 0)
(-0.19523772 -0.29010846 0)
(-0.17829567 -0.35357844 0)
(-0.13540579 -0.36743148 0)
(-0.069088781 -0.29414752 0)
(-0.014794875 -0.11798209 0)
(-0.0027678985 0.065618033 0)
(-0.012741946 0.15199363 0)
(-0.027332065 0.20099038 0)
(-0.040247738 0.22367597 0)
(-0.049932822 0.22932341 0)
(-0.056648537 0.22403113 0)
(-0.061238432 0.21107581 0)
(-0.064822436 0.1916789 0)
(-0.068627552 0.16571954 0)
(-0.073882099 0.13227446 0)
(-0.081735364 0.089962694 0)
(-0.093127148 0.037203673 0)
(-0.10847599 -0.027474854 0)
(-0.12721998 -0.10497181 0)
(-0.14705956 -0.194216 0)
(-0.16280765 -0.28948149 0)
(-0.16509353 -0.37509412 0)
(-0.14090282 -0.41772147 0)
(-0.084061789 -0.36280907 0)
(-0.022011555 -0.16157162 0)
(-0.0047198205 0.073833443 0)
(-0.017223578 0.16572262 0)
(-0.03128691 0.21337277 0)
(-0.0396872 0.23216781 0)
(-0.041888762 0.23379617 0)
(-0.039357467 0.22538921 0)
(-0.033819787 0.21060848 0)
(-0.027008202 0.19080846 0)
(-0.020600183 0.16589739 0)
(-0.016223683 0.13494025 0)
(-0.015484496 0.09647321 0)
(-0.019933389 0.048693249 0)
(-0.030925993 -0.010408981 0)
(-0.049241036 -0.082916625 0)
(-0.074405075 -0.17013938 0)
(-0.10328159 -0.27049891 0)
(-0.12725821 -0.37369161 0)
(-0.1297371 -0.4486838 0)
(-0.094915521 -0.42750303 0)
(-0.030930709 -0.21612579 0)
(-0.0093002313 0.086951518 0)
(-0.027433287 0.18185097 0)
(-0.040984356 0.22302961 0)
(-0.042683743 0.23378481 0)
(-0.034411104 0.22879745 0)
(-0.01962949 0.21591872 0)
(-0.0012461535 0.19877684 0)
(0.018337276 0.17856289 0)
(0.037063036 0.15508312 0)
(0.05304733 0.12736023 0)
(0.064413545 0.093938221 0)
(0.069223402 0.05301727 0)
(0.065408128 0.002465679 0)
(0.051041096 -0.060336244 0)
(0.024637343 -0.13837377 0)
(-0.013706753 -0.23416889 0)
(-0.058757596 -0.34516797 0)
(-0.093513412 -0.44953754 0)
(-0.094470964 -0.47558563 0)
(-0.039216293 -0.28048106 0)
(-0.018580474 0.11087147 0)
(-0.046040611 0.2017754 0)
(-0.055232371 0.22792929 0)
(-0.043988634 0.22501448 0)
(-0.019377647 0.21060954 0)
(0.012327051 0.19227691 0)
(0.046985885 0.17278253 0)
(0.081746424 0.15265249 0)
(0.11442995 0.13135238 0)
(0.1431454 0.10779608 0)
(0.16600936 0.080593007 0)
(0.18097425 0.04811416 0)
(0.18556984 0.008451582 0)
(0.1771602 -0.040815215 0)
(0.15275469 -0.10317418 0)
(0.10948478 -0.18390459 0)
(0.047237261 -0.28855339 0)
(-0.021441572 -0.4105092 0)
(-0.072254025 -0.49101565 0)
(-0.041147726 -0.35054185 0)
(-0.033352257 0.15561581 0)
(-0.068602061 0.22040422 0)
(-0.055188663 0.21729118 0)
(-0.016081137 0.19532266 0)
(0.034507442 0.17092141 0)
(0.088502941 0.14849263 0)
(0.1417628 0.12861096 0)
(0.19196262 0.1105765 0)
(0.23753398 0.093297178 0)
(0.2771135 0.07557533 0)
(0.30921183 0.056182308 0)
(0.33203755 0.033824578 0)
(0.34317063 0.0070287732 0)
(0.33982459 -0.025908983 0)
(0.318129 -0.067740476 0)
(0.27327445 -0.12410701 0)
(0.20044505 -0.20584654 0)
(0.10213819 -0.32506869 0)
(-0.012388104 -0.4545712 0)
(-0.023756869 -0.40864027 0)
(-0.033081015 0.23907354 0)
(-0.042646971 0.21792036 0)
(0.042207105 0.16426608 0)
(0.12760379 0.12783515 0)
(0.20769627 0.10143461 0)
(0.28027891 0.081657231 0)
(0.34486952 0.066647331 0)
(0.40157876 0.0547025 0)
(0.45054598 0.044399254 0)
(0.49161567 0.034640043 0)
(0.52415735 0.024550997 0)
(0.54698205 0.013382317 0)
(0.55821897 0.00040043999 0)
(0.55570672 -0.015136631 0)
(0.53552424 -0.034968583 0)
(0.4924452 -0.062487781 0)
(0.41797176 -0.10694743 0)
(0.30410528 -0.19317537 0)
(0.12313744 -0.33691901 0)
(0.05237408 -0.39437909 0)
(0.24299939 0.15257493 0)
(0.30529653 0.11854306 0)
(0.45481254 0.076108219 0)
(0.56000904 0.050840145 0)
(0.63223299 0.035125942 0)
(0.68654839 0.024812124 0)
(0.72943699 0.017959929 0)
(0.76379465 0.013255811 0)
(0.79127739 0.0097621649 0)
(0.81274954 0.0068544075 0)
(0.8284096 0.0041186352 0)
(0.83794249 0.0012770157 0)
(0.84056966 -0.0018440621 0)
(0.83497492 -0.0053261159 0)
(0.81886668 -0.0098288378 0)
(0.78942863 -0.016232671 0)
(0.73784296 -0.026935683 0)
(0.65316772 -0.051286566 0)
(0.4560977 -0.11374606 0)
(0.31788988 -0.17206005 0)
)
;

boundaryField
{
    movingWall
    {
        type            fixedValue;
        value           uniform (1 0 0);
    }
    fixedWalls
    {
        type            fixedValue;
        value           uniform (0 0 0);
    }
    frontAndBack
    {
        type            empty;
    }
}


// ************************************************************************* //
