/*--------------------------------*- C++ -*----------------------------------*\
| =========                 |                                                 |
| \\      /  F ield         | OpenFOAM: The Open Source CFD Toolbox           |
|  \\    /   O peration     | Version:  2112                                  |
|   \\  /    A nd           | Website:  www.openfoam.com                      |
|    \\/     M anipulation  |                                                 |
\*---------------------------------------------------------------------------*/
FoamFile
{
    version     2.0;
    format      ascii;
    arch        "LSB;label=32;scalar=64";
    class       volScalarField;
    location    "7";
    object      Ma;
}
// * * * * * * * * * * * * * * * * * * * * * * * * * * * * * * * * * * * * * //

dimensions      [0 0 0 0 0 0 0];

internalField   nonuniform List<scalar> 
5250
(
2.99999
2.99996
2.99985
2.9997
2.99908
2.99819
2.9948
2.98908
2.97056
2.92875
2.82596
2.53895
2.01143
0.991543
0.439452
0.315789
0.332279
0.328567
0.294452
0.241427
0.193096
0.153395
0.11392
0.0707613
0.0384635
2.99999
2.99996
2.99985
2.9997
2.99909
2.99822
2.99489
2.98925
2.97102
2.92981
2.82863
2.5453
2.02466
1.00557
0.449154
0.316871
0.334073
0.33125
0.29763
0.245625
0.198541
0.160168
0.122737
0.0843398
0.0607089
2.99999
2.99996
2.99986
2.99971
2.99912
2.99827
2.99505
2.98958
2.97196
2.93201
2.83417
2.55881
2.0536
1.03835
0.471565
0.320508
0.339443
0.338787
0.30641
0.256715
0.212319
0.177051
0.144172
0.113446
0.0972532
2.99999
2.99996
2.99986
2.99973
2.99916
2.99835
2.99527
2.99006
2.97321
2.93516
2.84148
2.57849
2.09154
1.09198
0.505234
0.325584
0.348002
0.351055
0.320576
0.274074
0.233113
0.201678
0.173833
0.149393
0.137347
2.99999
2.99997
2.99987
2.99974
2.99921
2.99845
2.99555
2.99069
2.97484
2.93932
2.85119
2.60506
2.14363
1.16911
0.550867
0.333499
0.360622
0.368342
0.339922
0.296975
0.259549
0.23199
0.208793
0.18943
0.180092
2.99999
2.99997
2.99988
2.99976
2.99927
2.99857
2.99586
2.99142
2.97668
2.94465
2.86315
2.63885
2.21025
1.27375
0.609502
0.347262
0.379017
0.39167
0.365092
0.325981
0.291981
0.268189
0.249425
0.234548
0.228177
2.99999
2.99997
2.99989
2.99978
2.99933
2.99869
2.99617
2.99225
2.97865
2.951
2.87691
2.67882
2.29007
1.40922
0.681922
0.37318
0.407257
0.423
0.397667
0.361905
0.330637
0.310375
0.296355
0.286957
0.285361
2.99999
2.99998
2.9999
2.9998
2.9994
2.99883
2.99653
2.99312
2.98081
2.95765
2.89157
2.72175
2.37886
1.56977
0.769149
0.417825
0.449452
0.464288
0.440171
0.40721
0.377947
0.360689
0.351355
0.348987
0.357324
3
2.99998
2.99992
2.99983
2.99947
2.99896
2.99692
2.99395
2.98281
2.96342
2.90395
2.76133
2.45476
1.75157
0.85127
0.456634
0.48756
0.502153
0.485126
0.45646
0.431495
0.41869
0.415883
0.425891
0.456611
3
2.99998
2.99993
2.99985
2.99954
2.99908
2.9973
2.99464
2.98479
2.96777
2.91416
2.79102
2.50683
1.85111
0.94688
0.508623
0.515669
0.528589
0.525526
0.505337
0.488039
0.481625
0.491049
0.526987
0.621724
3
2.99998
2.99996
2.99986
2.9997
2.99916
2.99819
2.9952
2.98853
2.97135
2.92664
2.82706
2.53195
1.99627
1.02498
0.572782
0.527091
0.545801
0.55531
0.548362
0.542214
0.547105
0.575948
0.649652
0.810724
3
2.99999
2.99995
2.99989
2.99965
2.99931
2.99799
2.99594
2.98877
2.97522
2.9357
2.83853
2.62668
2.05475
1.21524
0.657396
0.541273
0.561518
0.58042
0.586082
0.591215
0.609247
0.654461
0.745581
0.908185
3
2.99999
2.99995
2.9999
2.9997
2.99941
2.99822
2.99653
2.99002
2.97927
2.94404
2.86486
2.67897
2.19119
1.39585
0.752571
0.561999
0.58201
0.60576
0.620891
0.636806
0.66556
0.718796
0.806811
0.940174
3
2.99999
2.99996
2.99992
2.99974
2.99949
2.99846
2.99702
2.99124
2.98256
2.95129
2.89235
2.73099
2.34524
1.60954
0.867008
0.603414
0.616754
0.637068
0.656537
0.677691
0.713077
0.768065
0.846205
0.955503
3
3
2.99997
2.99993
2.99979
2.99958
2.99874
2.99755
2.99282
2.98578
2.96
2.91417
2.77873
2.48206
1.82692
0.988245
0.661852
0.658894
0.675198
0.695372
0.717121
0.751707
0.806723
0.876522
0.968578
3
3
2.99998
2.99995
2.99983
2.99967
2.999
2.99806
2.99435
2.98873
2.96897
2.93017
2.82672
2.56014
2.04201
1.11989
0.733085
0.692158
0.709017
0.729395
0.753054
0.785749
0.835613
0.90079
0.980917
3
3
2.99998
2.99996
2.99987
2.99974
2.99922
2.99848
2.9956
2.99111
2.97574
2.94438
2.86156
2.64174
2.21975
1.33452
0.844939
0.722853
0.735612
0.755304
0.783248
0.8166
0.861906
0.920236
0.9908
3.00001
3
2.99999
2.99997
2.9999
2.9998
2.99938
2.9988
2.99648
2.99305
2.98065
2.95769
2.89177
2.72447
2.387
1.59308
0.995373
0.773833
0.767783
0.781789
0.809273
0.844132
0.886815
0.939376
1.00132
3.00001
3
2.99999
2.99998
2.99992
2.99985
2.99953
2.99909
2.99732
2.99473
2.98495
2.96889
2.91712
2.80434
2.5363
1.94499
1.16238
0.847999
0.813276
0.820337
0.841987
0.872502
0.910093
0.95721
1.01249
3.00001
3
3
2.99998
2.99996
2.99986
2.99973
2.9992
2.99841
2.9956
2.99056
2.97527
2.94007
2.85518
2.62325
2.18281
1.33182
0.932908
0.847628
0.854891
0.873904
0.902467
0.934202
0.974521
1.02313
3.00001
3
3
2.99999
2.99997
2.9999
2.99979
2.99937
2.99877
2.9964
2.99289
2.98011
2.95713
2.88986
2.72647
2.3804
1.64871
1.07332
0.89547
0.888572
0.902282
0.928818
0.961843
0.995877
1.03632
3.00001
3.00001
3
3
2.99997
2.99994
2.99981
2.99963
2.99891
2.99783
2.99384
2.98733
2.96556
2.92429
2.80478
2.55759
1.94013
1.26121
0.970181
0.926977
0.932945
0.953993
0.985491
1.01851
1.05464
3.00001
3.00001
3
3
2.99999
2.99995
2.9999
2.99969
2.99938
2.99825
2.99642
2.99039
2.97821
2.94526
2.86234
2.68642
2.20133
1.47301
1.06488
0.970257
0.966058
0.980015
1.00603
1.03754
1.07151
3.00001
3.00001
3
3
2.99999
2.99997
2.99991
2.99982
2.99946
2.99894
2.99699
2.99382
2.98345
2.96224
2.906
2.76195
2.47088
1.78941
1.21789
1.02198
1.00223
1.01124
1.03127
1.05875
1.08903
3.00001
3.00001
3.00001
3
3
2.99998
2.99994
2.99987
2.99961
2.99924
2.99775
2.99566
2.98744
2.97485
2.93213
2.84429
2.63373
2.12976
1.42541
1.09881
1.03811
1.04018
1.05656
1.08167
1.10966
3.00001
3.00001
3.00001
3
3
2.99999
2.99996
2.99991
2.99973
2.99947
2.99845
2.99698
2.9913
2.9826
2.95239
2.89439
2.74197
2.37752
1.70189
1.22587
1.08386
1.07121
1.07996
1.1007
1.12868
3.00001
3.00001
3.00001
3.00001
3
2.99999
2.99998
2.99993
2.99986
2.99957
2.99916
2.99758
2.99522
2.98664
2.97231
2.92758
2.83092
2.60268
2.09901
1.42149
1.15587
1.11076
1.11055
1.12489
1.1478
3.00001
3.00001
3.00001
3.00001
3
3
2.99999
2.99995
2.9999
2.99971
2.99944
2.99835
2.99681
2.99091
2.98168
2.951
2.88699
2.73405
2.34437
1.69635
1.26415
1.14701
1.13833
1.14675
1.16605
3.00001
3.00001
3.00001
3.00001
3.00001
3
3
2.99997
2.99994
2.99981
2.99963
2.99892
2.99789
2.99397
2.98798
2.96703
2.93014
2.81982
2.59903
2.04879
1.45748
1.21038
1.16897
1.16948
1.18364
3.00001
3.00001
3.00001
3.00001
3.00001
3
3
2.99999
2.99995
2.9999
2.99971
2.99944
2.99839
2.99681
2.99122
2.98154
2.9521
2.88567
2.73552
2.34467
1.7054
1.31244
1.20825
1.19625
1.20274
3.00001
3.00001
3.00001
3.00001
3.00001
3.00001
3
3
2.99997
2.99994
2.99981
2.99963
2.99892
2.99791
2.99402
2.98818
2.96755
2.93164
2.82526
2.60895
2.08502
1.49571
1.26548
1.22717
1.22557
3.00001
3.00001
3.00001
3.00001
3.00001
3.00001
3
3
2.99999
2.99996
2.99988
2.99977
2.99932
2.99867
2.99621
2.99253
2.97941
2.9564
2.89128
2.74145
2.41282
1.77412
1.37505
1.26199
1.24962
3.00001
3.00001
3.00001
3.00001
3.00001
3.00001
3.00001
3
3
2.99998
2.99994
2.99983
2.99965
2.99901
2.99803
2.99455
2.98885
2.97027
2.93603
2.83604
2.64073
2.12327
1.58034
1.33083
1.28006
3.00001
3.00001
3.00001
3.00001
3.00001
3.00001
3.00001
3
3
2.99999
2.99996
2.99991
2.99974
2.99949
2.99855
2.99714
2.99206
2.98376
2.95741
2.90167
2.77064
2.44163
1.85506
1.44736
1.31795
3.00001
3.00001
3.00001
3.00001
3.00001
3.00001
3.00001
3.00001
3
3
2.99998
2.99995
2.99984
2.99969
2.99909
2.99823
2.99497
2.99005
2.97276
2.94326
2.85372
2.67787
2.2256
1.65418
1.38974
3.00001
3.00001
3.00001
3.00001
3.00001
3.00001
3.00001
3.00001
3
3
2.99999
2.99997
2.99991
2.99981
2.99946
2.99894
2.99698
2.99411
2.98357
2.96659
2.91361
2.80253
2.54532
2.00971
1.53549
3.00001
3.00001
3.00001
3.00001
3.00001
3.00001
3.00001
3.00001
3.00001
3
3
2.99998
2.99996
2.99986
2.99973
2.99922
2.99846
2.9957
2.99138
2.97678
2.95041
2.87586
2.71501
2.33302
1.73972
3.00001
3.00001
3.00001
3.00001
3.00001
3.00001
3.00001
3.00001
3.00001
3
3
2.99999
2.99998
2.99992
2.99983
2.99951
2.99903
2.99726
2.99462
2.98514
2.96958
2.92038
2.8266
2.57383
2.11294
3.00001
3.00001
3.00001
3.00001
3.00001
3.00001
3.00001
3.00001
3.00001
3.00001
3
3
2.99998
2.99996
2.99986
2.99972
2.99919
2.9984
2.99546
2.99101
2.97529
2.94738
2.87017
2.68684
2.30844
3.00001
3.00001
3.00001
3.00001
3.00001
3.00001
3.00001
3.00001
3.00001
3.00001
3
3
2.99999
2.99997
2.99989
2.99978
2.99933
2.99871
2.99622
2.99263
2.97914
2.95627
2.88729
2.72362
2.37902
3.00001
3.00001
3.00001
3.00001
3.00001
3.00001
3.00001
3.00001
3.00001
3.00001
3
3
2.99999
2.99997
2.9999
2.99981
2.99943
2.99887
2.99675
2.99338
2.98207
2.95896
2.89698
2.73366
2.40435
3.00001
3.00001
3.00001
3.00001
3.00001
3.00001
3.00001
3.00001
3.00001
3.00001
3.00001
3
2.99999
2.99997
2.99993
2.99976
2.99953
2.99861
2.99727
2.99205
2.98385
2.95539
2.8984
2.74689
2.37695
3.00001
3.00001
3.00001
3.00001
3.00001
3.00001
3.00001
3.00001
3.00001
3.00001
3.00001
3
2.99999
2.99997
2.99993
2.99977
2.99955
2.99864
2.99735
2.99216
2.98434
2.95582
2.90263
2.75127
2.39551
3.00001
3.00001
3.00001
3.00001
3.00001
3.00001
3.00001
3.00001
3.00001
3.00001
3.00001
3
2.99999
2.99997
2.99993
2.99978
2.99956
2.99869
2.99743
2.99248
2.98473
2.95766
2.90345
2.75902
2.40091
3.00001
3.00001
3.00001
3.00001
3.00001
3.00001
3.00001
3.00001
3.00001
3.00001
3
3
2.99999
2.99998
2.99992
2.99983
2.99949
2.99899
2.99704
2.99404
2.98352
2.96324
2.90517
2.7577
2.44721
3.00001
3.00001
3.00001
3.00001
3.00001
3.00001
3.00001
3.00001
3.00001
3.00001
3
3
2.99999
2.99998
2.99992
2.99983
2.99948
2.999
2.99701
2.99414
2.98314
2.96448
2.90532
2.76714
2.45711
3.00001
3.00001
3.00001
3.00001
3.00001
3.00001
3.00001
3.00001
3.00001
3.00001
3
3
2.99999
2.99998
2.99992
2.99984
2.99951
2.99903
2.99715
2.99428
2.984
2.96498
2.90834
2.76914
2.46677
3.00001
3.00001
3.00001
3.00001
3.00001
3.00001
3.00001
3.00001
3.00001
3.00001
3.00001
3
3
2.99997
2.99994
2.99981
2.99961
2.99886
2.99769
2.99355
2.98589
2.96269
2.90744
2.77768
2.42971
3.00001
3.00001
3.00001
3.00001
3.00001
3.00001
3.00001
3.00001
3.00001
3.00001
3
3
2.99999
2.99998
2.99992
2.99984
2.99951
2.99904
2.99717
2.99434
2.98409
2.96544
2.90925
2.77335
2.47391
3.00001
3.00001
3.00001
3.00001
3.00001
3.00001
3.00001
3.00001
3.00001
3.00001
3
3
2.99999
2.99998
2.99992
2.99984
2.9995
2.99903
2.99709
2.99431
2.98353
2.96579
2.90795
2.77786
2.47544
0.98457
0.832905
0.400306
0.264865
0.229091
0.362833
0.412682
0.442795
0.476625
0.518004
0.55725
0.591338
0.623592
0.655633
0.686894
0.715337
0.741842
0.766998
0.785608
0.79345
0.794903
0.790762
0.775098
0.746287
0.706495
0.660214
0.611249
0.56198
0.513653
0.466703
0.42162
0.379011
0.338431
0.299812
0.262572
0.22645
0.190725
0.156355
0.123413
0.0918175
0.061566
0.0333307
0.0156568
0.0348682
0.0602669
0.0864741
0.111763
0.135942
0.158688
0.180347
0.202864
0.225615
0.24746
0.268352
0.288707
0.308489
0.327912
0.346866
0.365488
0.383703
0.401602
0.419158
0.43643
0.453392
0.470112
0.486532
0.502756
0.518699
0.534486
0.550008
0.565419
0.58055
0.595627
0.61041
0.625165
0.639648
0.654075
0.668288
0.682392
0.696327
0.710145
0.723771
0.737338
0.750646
0.763962
0.776973
0.790015
0.802753
0.815493
0.827946
0.840334
0.852406
0.864327
0.8758
0.886945
0.897321
0.906935
0.91513
0.921462
0.925995
0.996431
0.895517
0.668158
0.40943
0.329461
0.201006
0.0874112
0.0969792
0.178457
0.251026
0.303774
0.34181
0.376747
0.413312
0.450066
0.483352
0.513359
0.540886
0.563355
0.574126
0.575055
0.568713
0.550315
0.518271
0.474771
0.425983
0.376053
0.326888
0.279843
0.234537
0.192096
0.152993
0.116856
0.0840592
0.0568705
0.0431355
0.0521437
0.0737731
0.0996027
0.125918
0.152038
0.177293
0.201402
0.224326
0.24681
0.269164
0.291176
0.312558
0.332866
0.35218
0.371818
0.391856
0.411274
0.429862
0.447918
0.465544
0.482834
0.49974
0.516362
0.53261
0.548644
0.564321
0.579832
0.595004
0.610051
0.624773
0.639448
0.653774
0.668142
0.682108
0.696184
0.709836
0.72361
0.736995
0.750462
0.763614
0.776792
0.789717
0.802643
0.815329
0.828026
0.840468
0.852929
0.86514
0.877335
0.889339
0.901237
0.913048
0.924634
0.936233
0.94748
0.958784
0.9696
0.980422
0.990537
1.00047
1.00933
1.0174
1.02316
1.02763
1.01415
0.997683
0.90282
0.776682
0.672547
0.564855
0.452963
0.348228
0.25892
0.180163
0.110027
0.0619406
0.0916356
0.138983
0.185201
0.226473
0.262242
0.292204
0.315603
0.32743
0.325691
0.313978
0.296189
0.262612
0.219481
0.176386
0.135437
0.101918
0.0818628
0.0795206
0.0946586
0.117932
0.145232
0.173107
0.200361
0.226949
0.252106
0.276627
0.300858
0.324436
0.347374
0.369446
0.390738
0.411056
0.430967
0.450417
0.469627
0.488277
0.506185
0.522985
0.539874
0.557073
0.574303
0.590535
0.606519
0.621831
0.637168
0.65188
0.666661
0.680839
0.695085
0.708786
0.722572
0.735852
0.749178
0.762077
0.775036
0.78769
0.800342
0.812789
0.825121
0.837387
0.849397
0.861505
0.873227
0.885181
0.896666
0.908446
0.919721
0.931304
0.942363
0.953742
0.964567
0.975754
0.986341
0.997347
1.00771
1.01852
1.02867
1.03924
1.04914
1.05938
1.069
1.07879
1.08805
1.09702
1.10519
1.11229
1.1177
1.12116
1.03361
1.06277
1.03709
0.977115
0.907864
0.827778
0.742082
0.654101
0.573618
0.497803
0.423526
0.354739
0.290887
0.234547
0.182269
0.13405
0.0891636
0.0500487
0.0291517
0.0485017
0.0644149
0.0427699
0.045153
0.0755517
0.118674
0.153443
0.189254
0.223215
0.254604
0.283214
0.310299
0.336407
0.361744
0.385938
0.409303
0.431441
0.452647
0.472999
0.492957
0.512209
0.531015
0.549043
0.566567
0.583322
0.599837
0.615844
0.631809
0.647322
0.662373
0.676396
0.690332
0.704599
0.71925
0.733275
0.746886
0.760116
0.773178
0.786031
0.798706
0.811181
0.823493
0.835658
0.84764
0.859488
0.871174
0.882809
0.894236
0.905667
0.916827
0.928083
0.939011
0.950104
0.96085
0.971774
0.982399
0.99313
1.00368
1.01419
1.0247
1.03496
1.04542
1.05545
1.06583
1.07566
1.08592
1.09558
1.1057
1.11519
1.12517
1.13451
1.14443
1.15368
1.1635
1.17246
1.1818
1.19006
1.19829
1.20502
1.21059
1.21388
1.04818
1.09401
1.10778
1.08724
1.05214
1.00373
0.946805
0.885474
0.822127
0.760739
0.695745
0.631991
0.572735
0.518308
0.467252
0.419099
0.373153
0.329825
0.292253
0.261966
0.248998
0.256711
0.281616
0.317417
0.357709
0.396202
0.430977
0.46099
0.487346
0.510858
0.532306
0.552272
0.57122
0.589424
0.606798
0.623322
0.639073
0.65423
0.66894
0.683232
0.697113
0.710565
0.723551
0.736167
0.748517
0.760692
0.772798
0.78484
0.796529
0.807591
0.818344
0.829485
0.84112
0.852741
0.863934
0.874911
0.885722
0.896444
0.907139
0.917683
0.928275
0.938604
0.949075
0.959211
0.969567
0.979542
0.989773
0.999614
1.00972
1.01946
1.02946
1.03914
1.04905
1.05868
1.0685
1.07811
1.08783
1.09743
1.10703
1.11659
1.12606
1.13557
1.14491
1.15435
1.16355
1.17293
1.18201
1.19141
1.2005
1.20997
1.21896
1.2283
1.23704
1.24612
1.25444
1.26295
1.27036
1.27752
1.28267
1.28645
1.05752
1.11216
1.14102
1.14949
1.13759
1.11507
1.08226
1.0444
1.00184
0.957153
0.910152
0.861309
0.812596
0.764122
0.716978
0.66965
0.623699
0.580153
0.541527
0.51197
0.4986
0.502251
0.522084
0.553749
0.591284
0.629103
0.66215
0.687929
0.707874
0.723461
0.736854
0.748787
0.760334
0.77144
0.782187
0.792248
0.801918
0.811073
0.820092
0.828895
0.837707
0.846358
0.854999
0.863467
0.872
0.880475
0.889199
0.897957
0.906802
0.915111
0.923297
0.931622
0.940741
0.950145
0.959451
0.968559
0.977573
0.986616
0.995602
1.00472
1.01372
1.02292
1.0319
1.04117
1.05012
1.05949
1.06839
1.07783
1.08667
1.09616
1.10494
1.11445
1.12321
1.13269
1.14148
1.15091
1.15972
1.16906
1.17788
1.1871
1.19589
1.20498
1.21373
1.22271
1.23146
1.24047
1.24931
1.25829
1.2671
1.27593
1.28468
1.29331
1.30192
1.31025
1.31854
1.32634
1.33384
1.34046
1.34587
1.34919
1.0622
1.12119
1.16094
1.18235
1.19022
1.18459
1.17029
1.14994
1.12455
1.09629
1.06511
1.03198
0.99615
0.959024
0.919166
0.878962
0.835344
0.793222
0.753786
0.723098
0.704156
0.702214
0.719688
0.754044
0.79411
0.833708
0.866813
0.89127
0.904745
0.910824
0.913303
0.914898
0.916914
0.919886
0.922966
0.926406
0.92991
0.933639
0.937543
0.94177
0.946223
0.951061
0.956055
0.961485
0.966936
0.972882
0.978809
0.985385
0.991845
0.9986
1.00475
1.01149
1.01852
1.02659
1.03441
1.0425
1.05024
1.05824
1.06606
1.07415
1.08212
1.09033
1.09844
1.10675
1.11496
1.12335
1.13164
1.14009
1.14846
1.15695
1.16541
1.17393
1.18248
1.19102
1.19966
1.20822
1.21693
1.2255
1.23422
1.24279
1.25148
1.26006
1.26873
1.27741
1.28608
1.29477
1.30335
1.31201
1.32052
1.32915
1.33755
1.3461
1.35436
1.36273
1.37069
1.37867
1.38597
1.39293
1.39838
1.40211
1.06589
1.12419
1.17031
1.20119
1.2201
1.22809
1.22769
1.22019
1.20827
1.19282
1.17448
1.15343
1.12893
1.10237
1.07129
1.03685
0.996856
0.957217
0.918568
0.883845
0.85608
0.851803
0.87081
0.905033
0.947238
0.987414
1.01929
1.0425
1.05564
1.05875
1.05317
1.04531
1.03834
1.03375
1.03076
1.02956
1.02934
1.03003
1.03122
1.03282
1.03493
1.03742
1.04037
1.04356
1.04728
1.05124
1.05582
1.06061
1.06608
1.07137
1.07669
1.08178
1.08763
1.094
1.10102
1.10789
1.11494
1.12182
1.12893
1.13598
1.14331
1.15064
1.15821
1.16579
1.17355
1.18132
1.18917
1.19708
1.20499
1.21301
1.22097
1.22911
1.23715
1.24539
1.25355
1.26187
1.27011
1.27845
1.28672
1.29506
1.30339
1.31177
1.32014
1.32846
1.33681
1.34509
1.35341
1.36164
1.36991
1.37806
1.38625
1.39428
1.40234
1.4102
1.41804
1.42558
1.43288
1.43955
1.44521
1.4487
1.07123
1.12624
1.17407
1.21105
1.23719
1.25446
1.26315
1.26667
1.26436
1.25886
1.2499
1.23865
1.22283
1.20459
1.17868
1.14796
1.11085
1.0739
1.03191
0.986244
0.955954
0.955597
0.976493
1.01017
1.0525
1.09494
1.12822
1.15059
1.16664
1.17341
1.17159
1.16161
1.1486
1.13669
1.12723
1.12076
1.11634
1.11393
1.11223
1.11156
1.11119
1.11147
1.11219
1.11339
1.11508
1.11731
1.12003
1.12327
1.12693
1.131
1.13489
1.13884
1.14303
1.14799
1.15357
1.15945
1.16544
1.17153
1.17774
1.18408
1.19057
1.19722
1.20399
1.21097
1.21798
1.22519
1.23238
1.23977
1.24712
1.25469
1.26224
1.26998
1.27776
1.28567
1.29364
1.30166
1.30977
1.31787
1.3261
1.33429
1.34253
1.35074
1.35895
1.3672
1.37538
1.38366
1.39181
1.40008
1.40821
1.41645
1.42454
1.43271
1.4407
1.44876
1.45654
1.46435
1.47164
1.4787
1.4845
1.48846
1.07649
1.12874
1.17605
1.21608
1.24709
1.27064
1.28615
1.29679
1.30153
1.30396
1.3019
1.29687
1.28766
1.27309
1.25001
1.22015
1.18753
1.14653
1.09366
1.04125
1.01838
1.02326
1.04428
1.0794
1.1232
1.16861
1.20297
1.22735
1.24219
1.25306
1.25653
1.25351
1.24272
1.22775
1.21216
1.19886
1.18857
1.18107
1.17593
1.17232
1.17005
1.16845
1.16775
1.1673
1.16768
1.16851
1.16985
1.17179
1.1742
1.17722
1.18035
1.18349
1.18672
1.19064
1.19522
1.20042
1.2057
1.21133
1.21696
1.22293
1.2289
1.23521
1.24149
1.24809
1.25462
1.26146
1.26821
1.27527
1.28223
1.2895
1.29667
1.30415
1.31154
1.31922
1.32682
1.33464
1.3424
1.35035
1.35816
1.36613
1.37395
1.38196
1.38982
1.39787
1.40575
1.41384
1.42172
1.42981
1.43769
1.44576
1.45361
1.46163
1.46941
1.47734
1.48495
1.49267
1.49987
1.50692
1.51278
1.51677
1.08319
1.13161
1.17712
1.21822
1.25198
1.28002
1.30066
1.31649
1.32711
1.33379
1.33722
1.33629
1.32995
1.31468
1.2923
1.26444
1.2284
1.17625
1.11077
1.06411
1.05275
1.06317
1.08716
1.12429
1.17165
1.21457
1.25083
1.27723
1.29554
1.30699
1.31554
1.31811
1.31558
1.307
1.29301
1.27584
1.25966
1.2461
1.23578
1.22845
1.22342
1.22006
1.21787
1.21639
1.21575
1.21542
1.21578
1.21663
1.218
1.21998
1.22241
1.22493
1.22753
1.23049
1.23423
1.23866
1.24354
1.24864
1.25399
1.25947
1.26515
1.27098
1.27695
1.2831
1.28934
1.29578
1.30228
1.30903
1.31581
1.32285
1.32994
1.33724
1.34459
1.3521
1.35967
1.36736
1.37506
1.38278
1.39052
1.39829
1.40608
1.41391
1.42173
1.4296
1.43746
1.44536
1.45324
1.46113
1.46902
1.47687
1.48473
1.49251
1.5003
1.50796
1.5156
1.52304
1.53031
1.53709
1.54311
1.54685
1.09364
1.1368
1.17928
1.21945
1.25439
1.28445
1.30911
1.32847
1.34357
1.35409
1.36022
1.36159
1.35388
1.33734
1.31472
1.28438
1.23685
1.16773
1.10172
1.0734
1.07383
1.08767
1.11635
1.15753
1.20266
1.24326
1.27766
1.30609
1.32771
1.34365
1.35398
1.36139
1.36417
1.36334
1.35762
1.34554
1.32867
1.31085
1.29472
1.28155
1.2717
1.26469
1.26006
1.257
1.25513
1.25388
1.25339
1.25325
1.25381
1.25487
1.25656
1.25862
1.26074
1.26301
1.26586
1.26946
1.27371
1.27828
1.28309
1.28812
1.29329
1.29871
1.30424
1.31006
1.31597
1.32217
1.32845
1.335
1.3416
1.34845
1.35535
1.36249
1.36966
1.37706
1.38444
1.39196
1.39943
1.40705
1.41461
1.42232
1.42997
1.43778
1.44551
1.45339
1.46117
1.4691
1.4769
1.48485
1.49265
1.50061
1.50838
1.51633
1.52404
1.53194
1.5395
1.54725
1.55449
1.56168
1.56775
1.57197
1.10802
1.14622
1.18422
1.22195
1.25632
1.28712
1.313
1.3352
1.35195
1.36546
1.37222
1.37186
1.36086
1.34396
1.31781
1.27739
1.21015
1.13286
1.08691
1.07694
1.08427
1.10409
1.13811
1.18057
1.22152
1.25821
1.29086
1.31909
1.34335
1.36296
1.37846
1.38903
1.39589
1.4
1.40077
1.39756
1.38851
1.37388
1.35607
1.33851
1.32316
1.31107
1.30228
1.29636
1.29248
1.29017
1.28873
1.2881
1.28795
1.28847
1.28949
1.2911
1.29294
1.29485
1.29694
1.29976
1.3033
1.30749
1.31191
1.3167
1.32164
1.32691
1.33226
1.3379
1.34358
1.34956
1.35557
1.36191
1.36826
1.37495
1.38165
1.38865
1.39567
1.4029
1.41006
1.4174
1.42469
1.43214
1.43955
1.44709
1.4546
1.46222
1.46981
1.4775
1.48514
1.49287
1.50052
1.50827
1.51591
1.52363
1.53124
1.5389
1.54645
1.55404
1.56146
1.56889
1.57601
1.58289
1.58894
1.5929
1.12165
1.15681
1.19189
1.22671
1.2593
1.28974
1.31583
1.33876
1.3566
1.36966
1.37494
1.36919
1.35527
1.33459
1.2986
1.23676
1.1566
1.09668
1.07669
1.07948
1.09136
1.11686
1.1544
1.19391
1.23056
1.26393
1.29444
1.32206
1.34731
1.36933
1.38866
1.40399
1.41593
1.42338
1.42842
1.43059
1.42984
1.42446
1.4133
1.39725
1.37983
1.36312
1.34907
1.33823
1.3306
1.32558
1.32253
1.32082
1.32008
1.31989
1.32042
1.32141
1.32291
1.32455
1.32632
1.32837
1.33119
1.33475
1.3388
1.34314
1.34777
1.35261
1.35766
1.36291
1.36834
1.37398
1.37982
1.38588
1.39214
1.39862
1.40529
1.41216
1.41912
1.42618
1.4333
1.44048
1.44773
1.45503
1.46241
1.46983
1.47734
1.48487
1.49249
1.5001
1.50777
1.51543
1.52312
1.53079
1.53846
1.54612
1.55372
1.56134
1.56886
1.57642
1.5838
1.59123
1.5983
1.60522
1.61125
1.61532
1.13846
1.16943
1.20115
1.233
1.26319
1.29206
1.31747
1.33959
1.35676
1.36702
1.36576
1.35512
1.3375
1.30627
1.25015
1.17026
1.10245
1.07277
1.07033
1.07843
1.09852
1.12985
1.16591
1.20048
1.23265
1.26292
1.29127
1.31844
1.3437
1.36741
1.38888
1.40795
1.42445
1.43776
1.44712
1.45315
1.45673
1.45823
1.45628
1.44914
1.43688
1.42055
1.40357
1.38781
1.37472
1.36496
1.35822
1.3542
1.35187
1.35097
1.35074
1.3513
1.3523
1.35369
1.35515
1.35674
1.35872
1.36145
1.3649
1.36881
1.37303
1.37756
1.3823
1.38729
1.39247
1.39789
1.4035
1.40938
1.41544
1.42178
1.42827
1.43495
1.44168
1.44856
1.45548
1.46252
1.46958
1.47675
1.48393
1.49122
1.49853
1.50594
1.51336
1.52088
1.52839
1.53599
1.54353
1.55118
1.55871
1.56635
1.57384
1.58142
1.58881
1.59632
1.60356
1.61092
1.61785
1.62474
1.63064
1.63478
1.15552
1.1834
1.21209
1.24134
1.26929
1.29576
1.31928
1.33891
1.35262
1.35515
1.34706
1.33169
1.30439
1.25275
1.17502
1.10264
1.06686
1.06056
1.06638
1.08218
1.10889
1.14127
1.17245
1.20206
1.2304
1.25825
1.28506
1.3117
1.33687
1.36164
1.38434
1.4061
1.42526
1.44265
1.45702
1.46857
1.47629
1.48137
1.48484
1.48597
1.48276
1.47389
1.45988
1.44328
1.42639
1.4115
1.39955
1.39101
1.38556
1.38233
1.381
1.38051
1.38102
1.38206
1.38333
1.38467
1.38606
1.38804
1.39068
1.3941
1.39788
1.40208
1.40653
1.41132
1.41628
1.42154
1.42694
1.43266
1.43853
1.44474
1.45099
1.4575
1.464
1.47075
1.47745
1.48437
1.49123
1.49828
1.5053
1.51249
1.51965
1.52698
1.53425
1.54167
1.54901
1.5565
1.56385
1.57137
1.57872
1.58623
1.59353
1.60101
1.60822
1.61564
1.62267
1.62995
1.63664
1.64341
1.64909
1.65318
1.17174
1.19656
1.22222
1.24898
1.27489
1.2994
1.32041
1.33586
1.34113
1.33519
1.3209
1.2957
1.24721
1.17195
1.09792
1.05852
1.04972
1.0542
1.06704
1.09019
1.11921
1.14771
1.17428
1.20045
1.22589
1.25193
1.27753
1.30364
1.32881
1.35398
1.37765
1.4008
1.422
1.4421
1.45978
1.47582
1.48877
1.49897
1.5055
1.51054
1.5132
1.51338
1.5086
1.49779
1.48296
1.466
1.44983
1.43573
1.42512
1.41773
1.41331
1.41114
1.4103
1.41074
1.41172
1.41298
1.41413
1.41565
1.41759
1.42043
1.4237
1.42756
1.43164
1.4362
1.44089
1.44599
1.45118
1.45679
1.46249
1.46855
1.47458
1.48096
1.48726
1.49389
1.50038
1.50719
1.51384
1.52079
1.52759
1.53466
1.5416
1.54878
1.55582
1.56309
1.57019
1.5775
1.58463
1.59194
1.59905
1.60633
1.61337
1.6206
1.62753
1.63468
1.64143
1.64844
1.65482
1.66133
1.66668
1.67064
1.19086
1.21326
1.23473
1.25785
1.28072
1.30157
1.3186
1.326
1.32155
1.30784
1.28377
1.23731
1.16401
1.08987
1.04923
1.03906
1.04283
1.05405
1.07481
1.10173
1.12726
1.15151
1.17462
1.19807
1.22178
1.24639
1.27135
1.29666
1.32187
1.34674
1.37114
1.3947
1.41738
1.43885
1.45902
1.47761
1.49431
1.50872
1.52031
1.52909
1.53514
1.54012
1.5419
1.54104
1.53411
1.52209
1.50611
1.48947
1.47374
1.46097
1.45143
1.44542
1.44199
1.44076
1.4408
1.44176
1.44288
1.44421
1.44566
1.44788
1.45058
1.45397
1.45764
1.46189
1.46632
1.47126
1.47628
1.48181
1.48733
1.49324
1.49909
1.50533
1.51145
1.51794
1.52428
1.53097
1.53747
1.54429
1.55091
1.55782
1.56455
1.57154
1.57835
1.58541
1.59228
1.59937
1.60626
1.61334
1.62021
1.62724
1.63405
1.64099
1.64765
1.65447
1.66088
1.66749
1.67345
1.67947
1.68433
1.68788
1.2051
1.22813
1.24945
1.26915
1.28756
1.3028
1.31048
1.30653
1.29298
1.26928
1.22389
1.15241
1.07964
1.03933
1.02895
1.03259
1.04368
1.06388
1.08861
1.112
1.13333
1.1541
1.17482
1.19653
1.21905
1.24267
1.26683
1.29137
1.31611
1.34056
1.36508
1.38868
1.41222
1.4343
1.45621
1.47618
1.49575
1.51276
1.52876
1.54164
1.5523
1.56004
1.5663
1.57029
1.57152
1.56933
1.56078
1.54709
1.53102
1.51446
1.4998
1.48813
1.48004
1.47509
1.4728
1.47221
1.47294
1.47413
1.47525
1.4769
1.47897
1.48184
1.48505
1.48887
1.49297
1.4976
1.50245
1.50772
1.51304
1.51873
1.52439
1.53042
1.53634
1.54264
1.54878
1.55528
1.56159
1.56824
1.57472
1.58147
1.58807
1.59488
1.60158
1.60842
1.61516
1.62199
1.62874
1.63552
1.64221
1.64891
1.65548
1.66207
1.66844
1.67487
1.6809
1.68701
1.69247
1.69782
1.70199
1.70497
1.21864
1.24098
1.26106
1.27939
1.29329
1.29895
1.29394
1.27895
1.25407
1.20748
1.1362
1.06572
1.02742
1.01797
1.02198
1.03418
1.05448
1.07809
1.0996
1.11902
1.13742
1.15586
1.17529
1.19568
1.21748
1.23995
1.26346
1.28713
1.31145
1.3355
1.35981
1.38345
1.40713
1.42987
1.45247
1.47383
1.49484
1.51413
1.53279
1.54899
1.56408
1.57573
1.58566
1.59308
1.59921
1.60221
1.60287
1.59903
1.5889
1.57413
1.5576
1.54134
1.52732
1.51667
1.50969
1.50585
1.50448
1.50484
1.50583
1.50702
1.50847
1.51069
1.51346
1.51679
1.52049
1.52464
1.52914
1.53398
1.53902
1.54437
1.54983
1.55558
1.56137
1.56743
1.57346
1.57976
1.586
1.59247
1.59885
1.60544
1.61191
1.61855
1.62508
1.63172
1.63828
1.64489
1.65145
1.65799
1.66449
1.67091
1.67726
1.68349
1.68957
1.69552
1.70114
1.70662
1.71143
1.71592
1.7191
1.72138
1.23628
1.25355
1.27202
1.28526
1.29146
1.28472
1.26848
1.24091
1.19163
1.11855
1.05033
1.01485
1.00697
1.01161
1.02577
1.04767
1.07052
1.09076
1.10854
1.12496
1.14141
1.15848
1.17701
1.19665
1.21772
1.23953
1.26226
1.28531
1.30892
1.33249
1.35638
1.37999
1.40366
1.42684
1.4498
1.47215
1.49395
1.51486
1.53494
1.55371
1.57131
1.58691
1.60068
1.61172
1.62097
1.62825
1.6337
1.63552
1.63508
1.62915
1.61727
1.60155
1.58456
1.56859
1.55548
1.546
1.54028
1.53762
1.53726
1.53809
1.53903
1.54045
1.54255
1.54544
1.5487
1.55241
1.55643
1.56085
1.56553
1.57058
1.57576
1.58126
1.5868
1.59263
1.59845
1.60454
1.61062
1.61688
1.62315
1.6295
1.63591
1.64227
1.64874
1.65509
1.66157
1.66786
1.67429
1.68051
1.68681
1.69292
1.69898
1.70488
1.71054
1.71607
1.72105
1.72582
1.72963
1.73294
1.73486
1.7365
1.25403
1.26715
1.28228
1.28724
1.27875
1.26038
1.22886
1.17575
1.10011
1.0341
1.00247
0.996723
1.00216
1.01886
1.04286
1.0656
1.08496
1.10145
1.11653
1.13117
1.14662
1.16298
1.18091
1.19986
1.22016
1.24116
1.26315
1.28557
1.30862
1.33183
1.35533
1.3788
1.40228
1.42563
1.4487
1.47153
1.49381
1.51567
1.53665
1.55708
1.57613
1.59443
1.61078
1.62582
1.63816
1.64875
1.65735
1.66426
1.66844
1.66942
1.66729
1.65917
1.64554
1.62904
1.61183
1.5965
1.58439
1.5763
1.57168
1.57015
1.57029
1.57105
1.57235
1.57436
1.57727
1.58049
1.58417
1.5881
1.59245
1.59708
1.60198
1.60715
1.61243
1.61796
1.62356
1.62938
1.63525
1.6413
1.64738
1.65354
1.65977
1.66598
1.6723
1.67847
1.68481
1.69088
1.69717
1.70306
1.70919
1.71486
1.72066
1.72601
1.73123
1.73602
1.7402
1.74387
1.74629
1.74835
1.74905
1.75001
1.27329
1.27664
1.28276
1.2768
1.25609
1.22015
1.16103
1.081
1.01584
0.987988
0.985631
0.992573
1.01239
1.03906
1.06235
1.08118
1.09687
1.11064
1.12413
1.13788
1.15285
1.16889
1.18638
1.20493
1.22459
1.24508
1.26634
1.28822
1.31055
1.3333
1.3563
1.37951
1.4027
1.42607
1.44902
1.47218
1.49454
1.51703
1.53851
1.55992
1.58005
1.59997
1.61817
1.63581
1.65109
1.66524
1.67623
1.6865
1.69436
1.70036
1.70244
1.70268
1.69868
1.68829
1.67308
1.6559
1.63888
1.62424
1.6132
1.60633
1.60287
1.60221
1.60273
1.60357
1.60533
1.60793
1.61129
1.61482
1.61891
1.62305
1.62776
1.63247
1.63768
1.64285
1.64837
1.65387
1.65959
1.66533
1.67121
1.6771
1.68309
1.68905
1.6951
1.70109
1.7071
1.71309
1.71893
1.72483
1.73037
1.73601
1.74111
1.74618
1.75054
1.75458
1.75744
1.75973
1.76069
1.76116
1.75997
1.76009
1.29392
1.2857
1.27587
1.2534
1.2118
1.14499
1.06231
1.00005
0.976428
0.976304
0.986358
1.00851
1.03619
1.06032
1.07953
1.09473
1.10804
1.12061
1.13349
1.1471
1.16172
1.17759
1.19438
1.21255
1.23132
1.25135
1.27174
1.29317
1.31479
1.33722
1.35971
1.38273
1.40562
1.42878
1.45172
1.47468
1.49727
1.51978
1.54172
1.56338
1.58439
1.60476
1.62425
1.64282
1.66015
1.67635
1.69066
1.70321
1.71364
1.72302
1.73005
1.7345
1.73542
1.73407
1.72762
1.71548
1.69887
1.68088
1.66391
1.65007
1.64035
1.63468
1.63263
1.63264
1.6332
1.63464
1.63723
1.64058
1.6444
1.6484
1.65267
1.65722
1.66197
1.66704
1.67222
1.67765
1.68317
1.68881
1.69456
1.70032
1.70616
1.71197
1.71779
1.72361
1.72933
1.73506
1.74061
1.74606
1.7513