/*--------------------------------*- C++ -*----------------------------------*\
| =========                 |                                                 |
| \\      /  F ield         | OpenFOAM: The Open Source CFD Toolbox           |
|  \\    /   O peration     | Version:  2112                                  |
|   \\  /    A nd           | Website:  www.openfoam.com                      |
|    \\/     M anipulation  |                                                 |
\*---------------------------------------------------------------------------*/
FoamFile
{
    version     2.0;
    format      ascii;
    arch        "LSB;label=32;scalar=64";
    class       surfaceScalarField;
    location    "7";
    object      phi;
}
// * * * * * * * * * * * * * * * * * * * * * * * * * * * * * * * * * * * * * //

dimensions      [1 0 -1 0 0 0 0];

oriented        oriented;

internalField   nonuniform List<scalar> 
10325
(
0.00840003
9.44786e-11
0.00840003
7.31888e-10
0.00840003
2.24937e-09
0.00840002
6.79024e-09
0.0084
1.60916e-08
0.00839995
4.29831e-08
0.00839985
9.66421e-08
0.00839952
2.58148e-07
0.00839895
5.564e-07
0.00839689
1.66062e-06
0.00839315
3.60996e-06
0.00837875
1.2599e-05
0.00834071
3.67745e-05
0.00819192
0.000141718
0.00750475
0.000665706
0.00682763
0.000679846
0.00618904
0.000640405
0.00553878
0.000650914
0.00486848
0.000670752
0.00416362
0.000705699
0.00341497
0.000749402
0.00262329
0.00079284
0.00179063
0.000833388
0.00091658
0.000874172
0.000917456
0.00840003
1.83949e-10
0.00840003
1.42905e-09
0.00840003
4.37605e-09
0.00840002
1.32424e-08
0.0084
3.12933e-08
0.00839995
8.41365e-08
0.00839985
1.87796e-07
0.00839954
5.10382e-07
0.00839899
1.08795e-06
0.00839694
3.32264e-06
0.00839327
7.13326e-06
0.00837866
2.54222e-05
0.00834107
7.30977e-05
0.00818988
0.000285809
0.00750042
0.0013332
0.00681724
0.00136613
0.00619012
0.00126955
0.00554887
0.0012929
0.00488387
0.00133625
0.00417496
0.00141552
0.00342084
0.0015043
0.00262262
0.00159225
0.00177945
0.00167729
0.000896848
0.00175686
0.00181521
0.00840003
2.5774e-10
0.00840003
1.99919e-09
0.00840003
6.14885e-09
0.00840002
1.85606e-08
0.00840001
4.38107e-08
0.00839996
1.18255e-07
0.00839989
2.59444e-07
0.00839961
7.27734e-07
0.00839917
1.50989e-06
0.00839744
4.70198e-06
0.0083944
9.99053e-06
0.00838141
3.67892e-05
0.00835411
9.87351e-05
0.00819894
0.000432398
0.00753596
0.00197341
0.00684806
0.00205787
0.00622685
0.00189306
0.00559463
0.00192593
0.00493562
0.00199578
0.00422881
0.00212328
0.00347258
0.00226135
0.00266715
0.00239891
0.00181265
0.00253255
0.000914282
0.00265534
0.00273035
0.00840003
3.28028e-10
0.00840003
2.54504e-09
0.00840003
7.79252e-09
0.00840002
2.35837e-08
0.00840001
5.55515e-08
0.00839997
1.50759e-07
0.00839989
3.30204e-07
0.00839963
9.33403e-07
0.00839918
1.93897e-06
0.00839744
6.09056e-06
0.00839427
1.29773e-05
0.00838145
4.79431e-05
0.00834945
0.000129017
0.00821784
0.000555501
0.0076084
0.00255838
0.00691826
0.002753
0.00630547
0.00250869
0.00568321
0.00254911
0.00503397
0.00264563
0.00433508
0.00282315
0.00357999
0.0030173
0.00276831
0.00321182
0.00188976
0.003412
0.00095907
0.00358612
0.00369027
0.00840003
3.69389e-10
0.00840003
2.86737e-09
0.00840003
8.80584e-09
0.00840002
2.66508e-08
0.00840001
6.25819e-08
0.00839998
1.72173e-07
0.00839994
3.64659e-07
0.00839972
1.1063e-06
0.0083995
2.13141e-06
0.00839772
7.51483e-06
0.00839519
1.53065e-05
0.00838341
5.80183e-05
0.0083542
0.000156361
0.00824481
0.00065662
0.00775447
0.00302225
0.00705822
0.00345569
0.00644042
0.0031298
0.00582506
0.00316556
0.00518659
0.00328487
0.00449487
0.003516
0.00374148
0.00377166
0.00292153
0.00403309
0.00202454
0.00430988
0.00103947
0.00457133
0.00473059
0.00840003
4.04302e-10
0.00840003
3.1325e-09
0.00840003
9.63494e-09
0.00840002
2.91246e-08
0.00840002
6.8274e-08
0.00839999
1.89064e-07
0.00839996
3.91191e-07
0.00839977
1.24489e-06
0.00839966
2.22754e-06
0.0083981
8.70401e-06
0.00839637
1.69162e-05
0.00838739
6.52535e-05
0.00836624
0.000175478
0.00829659
0.000718488
0.00803
0.00326006
0.0073192
0.00417411
0.00666837
0.00378457
0.00604936
0.00378595
0.00542324
0.00391224
0.00473837
0.0042027
0.00398422
0.0045272
0.00314845
0.00487028
0.00221041
0.00524907
0.00115888
0.00562312
0.00589034
0.00840003
4.41798e-10
0.00840003
3.4214e-09
0.00840003
1.0492e-08
0.00840002
3.17385e-08
0.00840002
7.4534e-08
0.00839999
2.0483e-07
0.00839995
4.31912e-07
0.00839981
1.32564e-06
0.00839961
2.41225e-06
0.00839885
9.10886e-06
0.00839795
1.76681e-05
0.0083943
6.71597e-05
0.00838924
0.000178414
0.00838798
0.000712647
0.00850402
0.00311412
0.00777715
0.00490949
0.00703593
0.00453083
0.00639654
0.00442726
0.00576526
0.00454425
0.00507544
0.0048927
0.00431656
0.00528712
0.00346947
0.00571885
0.00249838
0.00622087
0.001352
0.00676972
0.00724324
0.00840003
4.5538e-10
0.00840003
3.52251e-09
0.00840003
1.08244e-08
0.00840003
3.25613e-08
0.00840002
7.68647e-08
0.00840002
2.05038e-07
0.00839999
4.54173e-07
0.00840002
1.24585e-06
0.00839989
2.52635e-06
0.0084004
8.27963e-06
0.00840174
1.61815e-05
0.00840827
5.90036e-05
0.00842549
0.000158945
0.00853393
0.000599433
0.00932247
0.00229449
0.00855109
0.00568813
0.00761821
0.0054693
0.00694635
0.00510278
0.00626412
0.00522887
0.00556767
0.00559169
0.00478996
0.00606651
0.00391112
0.00659974
0.00290037
0.00723296
0.00165776
0.0080126
0.00890182
0.00840003
3.97798e-10
0.00840003
3.7347e-09
0.00840003
1.12378e-08
0.00840003
3.43075e-08
0.00840002
7.99765e-08
0.00840001
2.15331e-07
0.00839999
4.65665e-07
0.00839992
1.2815e-06
0.00839993
2.48612e-06
0.00840008
7.91195e-06
0.00840267
1.34702e-05
0.00840814
5.24924e-05
0.00844297
0.000122001
0.00861127
0.000427747
0.00923434
0.00165056
0.00892737
0.00598718
0.00813904
0.00625822
0.00749377
0.00575085
0.00678934
0.0059334
0.00612074
0.00626039
0.0053649
0.00682289
0.00452379
0.00744178
0.00353986
0.00821765
0.00220144
0.00935114
0.0111038
0.00840003
1.75356e-10
0.00840003
5.52553e-09
0.00840003
8.37975e-09
0.00840002
4.77038e-08
0.00840004
6.02078e-08
0.00839994
3.05699e-07
0.00840008
3.22569e-07
0.00839943
1.90095e-06
0.00840046
1.43889e-06
0.00839645
1.17465e-05
0.0084038
6.01451e-06
0.00837875
7.66571e-05
0.00844537
5.42464e-05
0.00835886
0.000511117
0.00881874
0.00117741
0.00881645
0.00597086
0.00855403
0.00651664
0.00788294
0.00642289
0.00727676
0.0065413
0.00665768
0.0068809
0.00601226
0.0074691
0.00529548
0.00815944
0.00438017
0.00913376
0.00308247
0.010649
0.0141861
0.00840003
6.42327e-10
0.00840003
1.02326e-09
0.00840003
9.642e-09
0.00840007
1.11991e-08
0.00840006
6.87661e-08
0.00840029
6.78916e-08
0.00840015
4.58594e-07
0.0084017
3.45377e-07
0.00839977
3.28652e-06
0.00840967
1.74244e-06
0.00839175
2.34112e-05
0.00845561
1.17008e-05
0.00833269
0.000174852
0.00864241
0.000200079
0.00845555
0.00135689
0.00862406
0.00578259
0.0083781
0.00676179
0.00800875
0.00679321
0.00761937
0.00693162
0.00715448
0.00734693
0.00670312
0.007921
0.00619643
0.00866672
0.0057266
0.00960413
0.00564995
0.0107256
0.0114687
0.00836651
0.00840003
3.49072e-10
0.00840003
1.8981e-09
0.00840003
6.51187e-09
0.00840002
1.80725e-08
0.00840005
4.60733e-08
0.0084
1.13202e-07
0.00840017
2.82586e-07
0.00839982
6.71543e-07
0.00840137
1.73096e-06
0.00839863
4.47032e-06
0.00841051
1.15883e-05
0.0083908
3.17019e-05
0.00847506
9.02693e-05
0.00832602
0.000346323
0.00866733
0.00100886
0.008827
0.00560312
0.00851192
0.00707786
0.00818145
0.0071246
0.00787421
0.00724016
0.00755791
0.00766419
0.00723251
0.00824685
0.00695458
0.00894465
0.00683347
0.00972477
0.00719324
0.0103646
0.0105279
0.00813313
0.00840003
2.78513e-10
0.00840003
2.16465e-09
0.00840003
6.69353e-09
0.00840003
2.01917e-08
0.00840002
4.77755e-08
0.00840001
1.27525e-07
0.0084
2.85092e-07
0.00839989
7.70481e-07
0.00840002
1.58685e-06
0.00839922
5.15987e-06
0.008402
8.756e-06
0.00839437
3.87218e-05
0.00841095
7.31626e-05
0.00841546
0.000339444
0.00849491
0.000925037
0.00915047
0.00492694
0.00882387
0.00740636
0.0084297
0.00752033
0.00815743
0.00751165
0.00795172
0.00787024
0.00775848
0.00844112
0.00764842
0.00905579
0.007758
0.0096155
0.00818165
0.0099396
0.0099091
0.00879871
0.00840003
3.01846e-10
0.00840003
2.34206e-09
0.00840003
7.16728e-09
0.00840003
2.16665e-08
0.00840002
5.12721e-08
0.00840001
1.37035e-07
0.00839999
3.08514e-07
0.00839993
8.11117e-07
0.00839971
1.79519e-06
0.00839991
4.87074e-06
0.00839806
1.05303e-05
0.00840331
3.29279e-05
0.00840684
6.92524e-05
0.00846334
0.000280723
0.00863022
0.000754293
0.00992035
0.00361684
0.00939603
0.00793192
0.00890022
0.00801862
0.00854358
0.00786943
0.00834337
0.00806891
0.00826655
0.00851695
0.00829611
0.0090255
0.008449
0.00946234
0.00878667
0.0096007
0.00944318
0.00925093
0.00840003
2.88787e-10
0.00840003
2.24493e-09
0.00840003
6.86941e-09
0.00840003
2.0789e-08
0.00840003
4.91979e-08
0.00840004
1.31636e-07
0.00840005
2.96662e-07
0.00840007
7.75731e-07
0.00840011
1.74462e-06
0.00840045
4.46058e-06
0.00840028
1.06454e-05
0.00840729
2.5518e-05
0.00840633
6.98266e-05
0.0084936
0.000191563
0.00866569
0.000581906
0.0099487
0.00232119
0.00987664
0.0079946
0.00954874
0.0083451
0.00902521
0.00839334
0.00877567
0.00831893
0.00870805
0.00858434
0.0087946
0.00893827
0.00899054
0.00926553
0.00926002
0.00932952
0.00909909
0.00960255
0.00840003
2.44652e-10
0.00840003
1.89847e-09
0.00840003
5.8441e-09
0.00840003
1.76011e-08
0.00840004
4.17807e-08
0.00840006
1.10702e-07
0.00840011
2.50012e-07
0.00840023
6.43819e-07
0.00840051
1.45613e-06
0.00840123
3.68684e-06
0.00840335
8.4463e-06
0.00840638
2.21999e-05
0.00842382
5.18012e-05
0.00845529
0.000158698
0.00856429
0.000470585
0.0090686
0.00181062
0.0098956
0.0071477
0.00970316
0.008534
0.00940858
0.00868598
0.00917541
0.00855246
0.0091035
0.00865639
0.0091715
0.00886991
0.00936945
0.00906652
0.00961944
0.00907793
0.00883247
0.00988462
0.00840003
1.97213e-10
0.00840003
1.52655e-09
0.00840003
4.72867e-09
0.00840003
1.41689e-08
0.00840004
3.36018e-08
0.00840006
8.83991e-08
0.00840011
1.98388e-07
0.00840024
5.14785e-07
0.00840058
1.10822e-06
0.00840112
3.09888e-06
0.00840348
6.08045e-06
0.00840548
1.98958e-05
0.00841783
3.93617e-05
0.00843413
0.000141051
0.00853669
0.000366454
0.0088682
0.00147427
0.00994482
0.00605232
0.009887
0.0085909
0.00969766
0.00887445
0.00950527
0.00874476
0.00946775
0.00869388
0.00952479
0.00881258
0.0096742
0.00891706
0.00987533
0.0088745
0.00862306
0.0100828
0.00840003
1.62727e-10
0.00840003
1.32191e-09
0.00840003
4.09919e-09
0.00840003
1.2197e-08
0.00840004
2.91543e-08
0.00840005
7.61919e-08
0.00840007
1.72714e-07
0.00840014
4.42675e-07
0.00840026
9.8146e-07
0.00840071
2.61559e-06
0.00840135
5.40884e-06
0.00840409
1.69082e-05
0.00841105
3.22736e-05
0.00843176
0.000119108
0.00849859
0.000298203
0.00881332
0.00115458
0.0107043
0.00414217
0.0103749
0.00891826
0.0102054
0.00904453
0.00994008
0.00900989
0.0098131
0.00882036
0.00984602
0.00877849
0.00996747
0.0087953
0.0101212
0.00872
0.00847454
0.0102677
0.00840003
6.51678e-11
0.00840003
1.40404e-09
0.00840003
2.65559e-09
0.00840003
1.22882e-08
0.00840004
1.95771e-08
0.00840004
7.65082e-08
0.00840009
1.17786e-07
0.00840008
4.47682e-07
0.00840039
6.66408e-07
0.00840032
2.66568e-06
0.00840225
3.44956e-06
0.008402
1.69998e-05
0.00841726
1.68366e-05
0.00842229
0.000113249
0.00857615
0.000143091
0.00888877
0.000838344
0.0106672
0.00235306
0.0111618
0.00841498
0.0108316
0.00937504
0.010473
0.00936801
0.0102164
0.00907639
0.0101456
0.00884822
0.0102148
0.00872419
0.0103365
0.00859723
0.00835684
0.0104521
0.00840003
1.18389e-10
0.00840003
6.95085e-10
0.00840003
2.52751e-09
0.00840004
6.62847e-09
0.00840004
1.78142e-08
0.00840007
4.1339e-08
0.00840008
1.04559e-07
0.00840029
2.361e-07
0.00840035
6.05731e-07
0.00840171
1.29692e-06
0.00840133
3.76848e-06
0.00841102
7.29094e-06
0.00840333
2.41298e-05
0.00846774
4.87095e-05
0.00843491
0.00017419
0.00882519
0.00044669
0.00925468
0.00191739
0.0109424
0.00670725
0.0110637
0.00925089
0.0108765
0.0095534
0.0106061
0.00934635
0.0104816
0.00897253
0.0104568
0.00874787
0.0105151
0.00853765
0.00827233
0.0105981
0.00840003
1.50575e-10
0.00840003
4.37999e-10
0.00840003
2.56333e-09
0.00840003
4.47391e-09
0.00840003
1.77303e-08
0.00840005
2.84023e-08
0.00840004
1.04719e-07
0.00840012
1.63404e-07
0.00840011
6.01966e-07
0.00840049
9.10579e-07
0.00840068
3.53862e-06
0.00840299
4.94481e-06
0.00840432
2.25387e-05
0.00842386
2.89603e-05
0.00844178
0.000154971
0.00859947
0.000287314
0.00926928
0.00124297
0.0112072
0.00474919
0.0113337
0.00911877
0.01131
0.00957691
0.0111087
0.00954742
0.0108864
0.00919445
0.0107827
0.00885157
0.0107486
0.008571
0.00826385
0.0107562
0.00840003
5.4208e-11
0.00840003
5.94484e-10
0.00840003
1.36432e-09
0.00840003
5.36536e-09
0.00840004
9.88487e-09
0.00840003
3.36732e-08
0.00840008
5.95451e-08
0.00840004
1.97212e-07
0.0084003
3.44319e-07
0.00840005
1.14964e-06
0.00840162
1.9515e-06
0.00839965
6.84218e-06
0.00841102
1.11011e-05
0.00839792
4.16373e-05
0.00848172
7.07276e-05
0.00846866
0.000298395
0.00906908
0.000641736
0.0112085
0.00259826
0.0118032
0.0085115
0.0116488
0.0097292
0.0114161
0.00977882
0.0111849
0.00942517
0.011079
0.00895766
0.0110282
0.00862154
0.00831015
0.0109816
0.00840003
7.45588e-11
0.00840003
2.60346e-10
0.00840003
1.36404e-09
0.00840003
2.61129e-09
0.00840003
9.5162e-09
0.00840005
1.6617e-08
0.00840005
5.63412e-08
0.00840015
9.64288e-08
0.00840017
3.24504e-07
0.00840077
5.42727e-07
0.00840078
1.92559e-06
0.00840468
2.93676e-06
0.00840337
1.22634e-05
0.00842865
1.63065e-05
0.00841684
8.18422e-05
0.00859859
0.000115563
0.00860092
0.00063701
0.00961799
0.00157393
0.0117644
0.00634235
0.0119317
0.00955802
0.0118103
0.00989844
0.0115248
0.00971047
0.0113417
0.00914248
0.0112476
0.00871631
0.00835875
0.011199
0.00840003
3.71308e-11
0.00840003
2.46448e-10
0.00840003
7.7936e-10
0.00840003
2.31135e-09
0.00840004
5.52671e-09
0.00840004
1.44546e-08
0.00840006
3.26316e-08
0.00840007
8.31423e-08
0.00840021
1.85058e-07
0.00840027
4.72836e-07
0.00840115
1.04119e-06
0.00840126
2.7799e-06
0.00840762
5.90094e-06
0.00840602
1.75728e-05
0.00845073
3.70956e-05
0.00844539
0.000119329
0.00877111
0.000309372
0.00920169
0.00113846
0.0118456
0.00367483
0.0122724
0.00912515
0.0122818
0.00988988
0.0120712
0.00992148
0.0116836
0.00953136
0.0115071
0.00889351
0.00846561
0.0114002
0.00840003
2.45327e-11
0.00840003
1.93953e-10
0.00840003
6.02842e-10
0.00840003
1.79174e-09
0.00840003
4.28757e-09
0.00840004
1.11764e-08
0.00840004
2.54129e-08
0.00840006
6.44327e-08
0.0084001
1.44776e-07
0.0084002
3.65579e-07
0.00840042
8.17161e-07
0.00840108
2.08568e-06
0.00840235
4.60473e-06
0.00840735
1.24093e-05
0.00841783
2.6405e-05
0.00845538
8.0904e-05
0.0085751
0.000188298
0.00902271
0.00068729
0.0106654
0.002022
0.012353
0.00742164
0.0124735
0.00976854
0.0123657
0.0100293
0.0120032
0.00989538
0.0118202
0.00907745
0.00862766
0.011658
0.00840003
1.10088e-11
0.00840003
1.74903e-10
0.00840003
3.74005e-10
0.00840003
1.54627e-09
0.00840003
2.73008e-09
0.00840003
9.57303e-09
0.00840004
1.63399e-08
0.00840005
5.52226e-08
0.0084001
9.36481e-08
0.00840015
3.14425e-07
0.00840043
5.30674e-07
0.0084007
1.79629e-06
0.00840231
2.98041e-06
0.00840399
1.06052e-05
0.00841401
1.63183e-05
0.0084251
6.90895e-05
0.00850941
0.000103509
0.00868311
0.000510889
0.00939168
0.00130873
0.0121323
0.00465966
0.0125835
0.00931266
0.012626
0.00998659
0.0125572
0.00996443
0.0121261
0.00950975
0.00885474
0.0118988
0.00840003
1.49725e-11
0.00840003
9.04731e-11
0.00840003
3.31246e-10
0.00840003
8.59726e-10
0.00840003
2.3457e-09
0.00840004
5.39428e-09
0.00840004
1.38859e-08
0.00840006
3.11199e-08
0.00840008
7.91133e-08
0.00840021
1.76208e-07
0.00840029
4.47392e-07
0.00840109
9.95184e-07
0.00840149
2.54085e-06
0.00840641
5.65916e-06
0.00840773
1.48056e-05
0.00844321
3.34452e-05
0.00845341
9.23675e-05
0.00872519
0.000237712
0.0092541
0.000776713
0.0115158
0.00238716
0.0129174
0.00789883
0.0129472
0.00995493
0.0128308
0.0100793
0.0124313
0.00990825
0.00909967
0.0121859
0.00840003
1.18298e-11
0.00840003
6.40079e-11
0.00840003
2.35322e-10
0.00840003
6.09384e-10
0.00840003
1.65166e-09
0.00840003
3.81529e-09
0.00840004
9.71981e-09
0.00840005
2.19033e-08
0.00840007
5.4998e-08
0.00840012
1.2313e-07
0.00840026
3.08312e-07
0.00840056
6.8733e-07
0.00840135
1.73608e-06
0.00840319
3.79216e-06
0.00840765
1.02125e-05
0.00842065
2.04537e-05
0.00844527
6.68662e-05
0.00855162
0.000131244
0.0088003
0.000525158
0.00977804
0.00140478
0.0124022
0.00525102
0.0129878
0.00936348
0.0131057
0.00996026
0.0130138
0.00999995
0.0095213
0.0125908
0.00840003
1.07203e-11
0.00840003
3.59649e-11
0.00840003
1.86229e-10
0.00840003
3.63679e-10
0.00840003
1.28738e-09
0.00840003
2.30594e-09
0.00840003
7.54749e-09
0.00840004
1.3297e-08
0.00840005
4.27246e-08
0.0084001
7.49683e-08
0.00840017
2.40378e-07
0.00840043
4.1976e-07
0.0084008
1.35721e-06
0.00840225
2.3276e-06
0.00840452
7.85756e-06
0.00841223
1.26909e-05
0.00843067
4.79468e-05
0.00848437
7.71692e-05
0.00868736
0.000320268
0.00935882
0.000729899
0.0119673
0.00263489
0.0131866
0.00812898
0.0132281
0.00991582
0.0132276
0.00999863
0.00985342
0.0128943
0.00840003
4.56125e-12
0.00840003
3.09356e-11
0.00840003
9.7684e-11
0.00840003
2.89597e-10
0.00840003
6.921e-10
0.00840003
1.80296e-09
0.00840003
4.07409e-09
0.00840004
1.03001e-08
0.00840006
2.29876e-08
0.00840007
5.76703e-08
0.00840019
1.28279e-07
0.00840028
3.21489e-07
0.00840092
7.1395e-07
0.00840141
1.81343e-06
0.00840531
3.93953e-06
0.00840706
1.07813e-05
0.00843299
2.19362e-05
0.00843946
6.98432e-05
0.00861527
0.000143688
0.00879235
0.000549797
0.00993907
0.00148169
0.0127773
0.00526957
0.0133645
0.00932088
0.0134617
0.00989768
0.00998357
0.0133288
0.00840003
2.74175e-12
0.00840003
2.13561e-11
0.00840003
6.64987e-11
0.00840003
1.973e-10
0.00840003
4.71297e-10
0.00840003
1.22328e-09
0.00840003
2.77168e-09
0.00840004
6.98197e-09
0.00840004
1.56278e-08
0.00840006
3.90722e-08
0.0084001
8.71116e-08
0.0084002
2.17534e-07
0.00840043
4.83515e-07
0.00840101
1.21371e-06
0.00840225
2.68712e-06
0.00840604
6.86719e-06
0.00841269
1.5287e-05
0.00844137
4.04053e-05
0.00848782
9.71247e-05
0.00875396
0.000280937
0.00943119
0.00080735
0.011951
0.00273673
0.0134612
0.00778254
0.0135506
0.00980443
0.00989229
0.0136408
0.00840003
1.31842e-12
0.00840003
1.65069e-11
0.00840003
3.86643e-11
0.00840003
1.46903e-10
0.00840003
2.78457e-10
0.00840003
9.02483e-10
0.00840003
1.64282e-09
0.00840003
5.13498e-09
0.00840004
9.26926e-09
0.00840005
2.87425e-08
0.00840008
5.17631e-08
0.00840014
1.6046e-07
0.00840033
2.87997e-07
0.00840065
8.9637e-07
0.00840175
1.59567e-06
0.00840359
5.05366e-06
0.00840999
8.82638e-06
0.00841933
2.95287e-05
0.00847485
5.18092e-05
0.00855135
0.000188036
0.00897102
0.000425096
0.0101002
0.00152607
0.0129029
0.00499575
0.0136811
0.00903167
0.00974371
0.0138281
0.00840003
1.74548e-12
0.00840003
7.12884e-12
0.00840003
3.32885e-11
0.00840003
7.01042e-11
0.00840003
2.31329e-10
0.00840003
4.40423e-10
0.00840003
1.35176e-09
0.00840003
2.52104e-09
0.00840004
7.60281e-09
0.00840005
1.41204e-08
0.00840006
4.2416e-08
0.00840014
7.86919e-08
0.00840019
2.36586e-07
0.00840064
4.3826e-07
0.0084009
1.32543e-06
0.00840349
2.44135e-06
0.00840473
7.53404e-06
0.00842028
1.37751e-05
0.00842715
4.47644e-05
0.00852986
8.40673e-05
0.00865365
0.000300003
0.00945099
0.000722183
0.0120091
0.00244323
0.0136763
0.00734007
0.00962738
0.0137797
0.00840003
8.18095e-13
0.00840003
5.58996e-12
0.00840003
1.75586e-11
0.00840003
5.22114e-11
0.00840003
1.2428e-10
0.00840003
3.24407e-10
0.00840003
7.29728e-10
0.00840003
1.8482e-09
0.00840004
4.10414e-09
0.00840004
1.03155e-08
0.00840006
2.28414e-08
0.00840008
5.7284e-08
0.00840019
1.26758e-07
0.0084003
3.1784e-07
0.00840092
7.03253e-07
0.00840156
1.77515e-06
0.00840518
3.88865e-06
0.00840848
1.03e-05
0.00843183
2.14577e-05
0.00844954
6.50178e-05
0.0086149
0.000134728
0.00885047
0.000480966
0.0100028
0.00128499
0.0130032
0.00429688
0.00866498
0.013949
0.00840003
4.70729e-13
0.00840003
3.65222e-12
0.00840003
1.13758e-11
0.00840003
3.37528e-11
0.00840003
8.05422e-11
0.00840003
2.08786e-10
0.00840003
4.72136e-10
0.00840003
1.18739e-09
0.00840003
2.65173e-09
0.00840004
6.6216e-09
0.00840004
1.47384e-08
0.00840006
3.67552e-08
0.00840011
8.16621e-08
0.00840022
2.03884e-07
0.00840047
4.51964e-07
0.00840109
1.1338e-06
0.00840245
2.50612e-06
0.00840627
6.3638e-06
0.00841339
1.41965e-05
0.00844111
3.67088e-05
0.00848618
8.87069e-05
0.00872113
0.000243021
0.00930113
0.000701981
0.0112973
0.00228559
0.00625339
0.0136803
0.00840003
2.04069e-13
0.00840003
2.60607e-12
0.00840003
6.18704e-12
0.00840003
2.32019e-11
0.00840003
4.45635e-11
0.00840003
1.42e-10
0.00840003
2.6183e-10
0.00840003
8.02607e-10
0.00840003
1.46775e-09
0.00840003
4.45221e-09
0.00840004
8.13156e-09
0.00840005
2.45814e-08
0.00840009
4.48797e-08
0.00840015
1.35579e-07
0.00840036
2.47065e-07
0.00840072
7.48468e-07
0.00840185
1.35702e-06
0.00840395
4.16496e-06
0.00841062
7.43276e-06
0.00842289
2.41107e-05
0.00846833
4.17167e-05
0.00855828
0.000150644
0.0089425
0.000312014
0.0100648
0.00115015
0.00330073
0.0129829
0.00840003
2.09443e-13
0.00840003
1.20823e-12
0.00840003
4.45505e-12
0.00840003
1.14867e-11
0.00840003
3.12213e-11
0.00840003
7.12274e-11
0.00840003
1.81698e-10
0.00840003
4.03259e-10
0.00840003
1.01321e-09
0.00840003
2.23353e-09
0.00840004
5.59188e-09
0.00840005
1.23016e-08
0.00840006
3.07827e-08
0.00840013
6.76245e-08
0.0084002
1.69371e-07
0.00840057
3.71383e-07
0.00840096
9.33621e-07
0.00840305
2.04115e-06
0.00840511
5.20302e-06
0.00841768
1.1346e-05
0.0084284
3.01583e-05
0.00851073
6.67376e-05
0.00862126
0.000197404
0.00924449
0.000524601
0.00184288
0.0106883
0.00840003
1.70319e-13
0.00840003
5.58507e-13
0.00840003
2.92057e-12
0.00840003
5.65722e-12
0.00840003
2.00073e-11
0.00840003
3.53851e-11
0.00840003
1.15251e-10
0.00840003
1.99488e-10
0.00840003
6.3757e-10
0.00840003
1.09536e-09
0.00840003
3.49129e-09
0.00840004
5.96514e-09
0.00840005
1.90569e-08
0.00840009
3.23124e-08
0.00840015
1.03797e-07
0.00840034
1.74009e-07
0.00840068
5.64679e-07
0.00840175
9.33713e-07
0.00840371
3.09517e-06
0.00840986
4.99903e-06
0.00842191
1.74848e-05
0.00845952
2.79072e-05
0.0085496
0.000105251
0.00886363
0.000201638
0.000782611
0.00992383
0.00840003
6.07301e-14
0.00840003
3.872e-13
0.00840003
1.25855e-12
0.00840003
3.62802e-12
0.00840003
8.80506e-12
0.00840003
2.21985e-11
0.00840003
5.06209e-11
0.00840003
1.2314e-10
0.00840003
2.76751e-10
0.00840003
6.64772e-10
0.00840003
1.49009e-09
0.00840004
3.55605e-09
0.00840005
7.97716e-09
0.00840006
1.89636e-08
0.00840011
4.26525e-08
0.00840017
1.01153e-07
0.00840049
2.28448e-07
0.00840083
5.39572e-07
0.00840266
1.22665e-06
0.00840472
2.86039e-06
0.00841516
6.68935e-06
0.00842552
1.50964e-05
0.00850332
3.86805e-05
0.00858862
8.79664e-05
0.000266289
0.00912908
0.00840003
2.51812e-14
0.00840003
2.15936e-13
0.00840003
6.64389e-13
0.00840003
1.96041e-12
0.00840003
4.63764e-12
0.00840003
1.18052e-11
0.00840003
2.63426e-11
0.00840003
6.46084e-11
0.00840003
1.41593e-10
0.00840003
3.43728e-10
0.00840003
7.46595e-10
0.00840003
1.81038e-09
0.00840004
3.90401e-09
0.00840004
9.50791e-09
0.00840006
2.03761e-08
0.0084001
5.00342e-08
0.00840021
1.06709e-07
0.00840043
2.62646e-07
0.00840104
5.67584e-07
0.00840234
1.32722e-06
0.00840579
3.04928e-06
0.00841286
6.66734e-06
0.0084386
1.43223e-05
0.00847455
3.94375e-05
8.51597e-05
0.00865149
0.00840003
-5.9633e-15
0.00840003
1.67617e-13
0.00840003
1.44565e-13
0.00840003
1.37608e-12
0.00840003
1.07368e-12
0.00840003
8.09813e-12
0.00840003
5.72455e-12
0.00840003
4.3938e-11
0.00840003
2.71985e-11
0.00840003
2.32296e-10
0.00840003
1.20235e-10
0.00840003
1.21334e-09
0.00840003
4.90212e-10
0.00840004
6.28888e-09
0.00840005
1.75017e-09
0.00840007
3.25047e-08
0.00840016
1.56277e-09
0.00840023
1.70701e-07
0.0084008
-5.06911e-08
0.00840089
1.01149e-06
0.00840515
-1.14679e-06
0.0084023
7.80501e-06
0.00842951
-1.32097e-05
0.00840347
5.75273e-05
-5.68669e-05
0.00853156
0.00840003
2.4681e-15
0.00840003
5.26668e-14
0.00840003
1.41075e-13
0.00840003
4.7005e-13
0.00840003
9.9331e-13
0.00840003
2.80348e-12
0.00840003
5.48464e-12
0.00840003
1.51531e-11
0.00840003
2.80661e-11
0.00840003
7.93241e-11
0.00840003
1.38399e-10
0.00840003
4.09572e-10
0.00840003
6.61251e-10
0.00840003
2.09721e-09
0.00840003
3.02404e-09
0.00840005
1.06787e-08
0.00840002
1.2716e-08
0.00840011
5.47953e-08
0.00839992
3.97755e-08
0.0084005
3.04676e-07
0.00839873
-4.05678e-09
0.00840382
2.01264e-06
0.00838816
-1.12073e-06
0.0084271
1.4335e-05
1.53503e-06
0.0083523
0.00840003
9.93135e-15
0.00840003
2.62014e-14
0.00840003
1.44605e-13
0.00840003
2.7384e-13
0.00840003
9.72008e-13
0.00840003
1.69839e-12
0.00840003
5.58392e-12
0.00840003
9.41559e-12
0.00840003
3.09681e-11
0.00840003
5.0814e-11
0.00840003
1.70812e-10
0.00840003
2.73541e-10
0.00840003
9.45615e-10
0.00840003
1.48142e-09
0.00840002
5.27722e-09
0.00840002
8.08051e-09
0.00839999
2.98024e-08
0.00839998
4.40186e-08
0.00839976
1.71576e-07
0.00839974
2.21569e-07
0.00839811
1.04923e-06
0.0083988
6.6112e-07
0.00838727
7.08136e-06
0.00839649
1.15328e-06
4.83997e-05
0.00833369
0.00840003
2.29962e-14
0.00840003
-3.5739e-14
0.00840003
2.25345e-13
0.00840003
-1.77527e-13
0.00840003
1.49542e-12
0.00840003
-8.92521e-13
0.00840003
8.95903e-12
0.00840003
-4.71176e-12
0.00840003
5.26412e-11
0.00840003
-2.51017e-11
0.00840003
3.08099e-10
0.00840003
-1.32492e-10
0.00840003
1.80432e-09
0.00840003
-6.91263e-10
0.00840002
1.06235e-08
0.00840003
-3.63456e-09
0.00839998
6.33586e-08
0.00840003
-2.07868e-08
0.00839973
3.89011e-07
0.00840006
-1.92201e-07
0.00839785
2.73907e-06
0.00840105
-3.01708e-06
0.00838312
2.19141e-05
0.0084096
-2.85149e-05
0.000131081
0.00831202
0.00840003
5.70816e-15
0.00840003
-2.30729e-15
0.00840003
6.20487e-14
0.00840003
1.83448e-14
0.00840003
4.29465e-13
0.00840003
2.15169e-13
0.00840003
2.62951e-12
0.00840003
1.64174e-12
0.00840003
1.5627e-11
0.00840003
1.08961e-11
0.00840003
9.18379e-11
0.00840003
6.82451e-11
0.00840003
5.35785e-10
0.00840003
4.10067e-10
0.00840004
3.1127e-09
0.00840002
2.3698e-09
0.00840006
1.81358e-08
0.0084
1.34259e-08
0.00840025
1.0644e-07
0.00839981
7.70788e-08
0.00840183
6.61251e-07
0.00839737
1.86092e-07
0.00841335
5.32621e-06
0.00838026
-8.22068e-07
3.86212e-05
0.00845863
0.00840003
-2.06503e-15
0.00840003
2.7099e-14
0.00840003
2.78857e-14
0.00840003
2.24602e-13
0.00840003
2.42473e-13
0.00840003
1.39595e-12
0.00840003
1.55893e-12
0.00840003
8.28202e-12
0.00840003
9.53554e-12
0.00840003
4.86351e-11
0.00840003
5.73615e-11
0.00840003
2.84036e-10
0.00840003
3.39951e-10
0.00840003
1.65084e-09
0.00840003
1.97213e-09
0.00840001
9.55461e-09
0.00840002
1.0912e-08
0.00839995
5.49679e-08
0.00839997
4.8449e-08
0.00839956
3.27891e-07
0.00839999
1.59376e-08
0.00839691
2.16382e-06
0.00840319
-1.81406e-06
0.00838306
1.39137e-05
-5.10032e-06
0.00841507
0.00840003
-1.09159e-14
0.00840003
5.48027e-14
0.00840003
-4.9266e-14
0.00840003
4.04777e-13
0.00840003
-2.58821e-13
0.00840003
2.44956e-12
0.00840003
-1.3891e-12
0.00840003
1.43544e-11
0.00840003
-7.465e-12
0.00840003
8.36125e-11
0.00840003
-4.01181e-11
0.00840003
4.85774e-10
0.00840003
-2.2444e-10
0.00840003
2.82205e-09
0.00840003
-1.29617e-09
0.00840002
1.64708e-08
0.00840003
-8.12474e-09
0.00839997
9.72719e-08
0.00840006
-7.30606e-08
0.00839961
6.42686e-07
0.00840041
-9.70668e-07
0.00839651
5.07634e-06
0.00840507
-1.09811e-05
0.00837935
3.47706e-05
-5.64459e-05
0.00842006
0.00840003
1.14558e-14
0.00840003
-4.89596e-14
0.00840003
6.95494e-14
0.00840003
-3.49032e-13
0.00840003
4.19914e-13
0.00840003
-2.0723e-12
0.00840003
2.45566e-12
0.00840003
-1.19575e-11
0.00840003
1.4282e-11
0.00840003
-6.86542e-11
0.00840003
8.30231e-11
0.00840003
-3.93732e-10
0.00840003
4.83686e-10
0.00840003
-2.2652e-09
0.00840003
2.8459e-09
0.00840005
-1.31635e-08
0.00840001
1.73539e-08
0.00840017
-7.7765e-08
0.00839989
1.23477e-07
0.00840097
-5.19012e-07
0.00839835
1.22249e-06
0.00840701
-4.11759e-06
0.00838105
1.26082e-05
0.00843981
-2.68362e-05
7.83654e-05
0.00829429
0.00840003
2.73354e-15
0.00840003
-2.08685e-14
0.00840003
-2.63716e-15
0.00840003
-1.65115e-13
0.00840003
-4.10314e-14
0.00840003
-9.90174e-13
0.00840003
-2.44318e-13
0.00840003
-5.69243e-12
0.00840003
-1.30171e-12
0.00840003
-3.2497e-11
0.00840003
-6.7288e-12
0.00840003
-1.8533e-10
0.00840003
-3.44816e-11
0.00840003
-1.05951e-09
0.00840003
-1.74612e-10
0.00840002
-6.08804e-09
0.00840003
-6.88328e-10
0.00839996
-3.49476e-08
0.00840006
5.15767e-09
0.00839961
-2.05721e-07
0.00840047
1.89614e-07
0.00839673
-1.27049e-06
0.0084059
2.8907e-06
0.00838181
-7.15008e-06
2.21291e-05
0.00842846
0.00840003
0.00840003
0.00840003
0.00840003
0.00840003
0.00840003
0.00840003
0.00840003
0.00840003
0.00840003
0.00840003
0.00840003
0.00840003
0.00840003
0.00840003
0.00840002
0.00840001
0.00839995
0.00839992
0.00839957
0.0083996
0.00839751
0.00839968
0.00838851
0.00840086
0.00401061
0.00434739
0.00194902
0.0020589
9.28186e-05
0.00182664
-0.00133347
0.00142723
-0.00192165
0.000593688
-0.00238613
0.000466812
-0.00259485
0.000211088
-0.00270015
0.000108106
-0.00286192
0.00016492
-0.00302512
0.000166281
-0.00316162
0.000139962
-0.0032659
0.000107511
-0.00335764
9.48373e-05
-0.00344298
8.85844e-05
-0.00351879
7.86779e-05
-0.00357886
6.20698e-05
-0.00361632
3.85245e-05
-0.00363605
1.92744e-05
-0.00366669
2.83427e-05
-0.00369825
2.85267e-05
-0.00371957
1.80061e-05
-0.00372852
2.93845e-06
-0.00371877
-1.75374e-05
-0.00368002
-4.89385e-05
-0.00360324
-8.73327e-05
-0.00349119
-0.00012283
-0.00335135
-0.000149886
-0.00318962
-0.000170938
-0.00301137
-0.000186837
-0.00281752
-0.000201347
-0.00261466
-0.000210207
-0.00240499
-0.000216009
-0.00219169
-0.00021902
-0.00197409
-0.000223127
-0.00175117
-0.000227528
-0.00152418
-0.000231671
-0.00129031
-0.000238144
-0.00105407
-0.00024012
-0.000821325
-0.000236165
-0.000590144
-0.000234557
-0.000358552
-0.000234414
-0.000125344
-0.000235288
0.000114099
-0.000241323
0.000344335
-0.000231828
0.000562093
-0.000218684
0.000771429
-0.000209709
0.000973457
-0.000202308
0.00116716
-0.000193646
0.00135275
-0.000185071
0.00153146
-0.000178179
0.00170722
-0.000174919
0.00187997
-0.000171367
0.00204633
-0.000164671
0.00220512
-0.000156908
0.00235732