/*--------------------------------*- C++ -*----------------------------------*\
| =========                 |                                                 |
| \\      /  F ield         | OpenFOAM: The Open Source CFD Toolbox           |
|  \\    /   O peration     | Version:  2112                                  |
|   \\  /    A nd           | Website:  www.openfoam.com                      |
|    \\/     M anipulation  |                                                 |
\*---------------------------------------------------------------------------*/
FoamFile
{
    version     2.0;
    format      ascii;
    arch        "LSB;label=32;scalar=64";
    class       volScalarField;
    location    "7";
    object      T;
}
// * * * * * * * * * * * * * * * * * * * * * * * * * * * * * * * * * * * * * //

dimensions      [0 0 0 1 0 0 0];

internalField   nonuniform List<scalar> 
5250
(
1.00001
1.00002
1.00007
1.00013
1.00043
1.00079
1.00232
1.00493
1.01257
1.03371
1.07514
1.23552
1.55435
2.36721
2.69494
2.73574
2.73396
2.7362
2.74936
2.76155
2.77274
2.78054
2.78541
2.79197
2.79536
1.00001
1.00002
1.00007
1.00013
1.00042
1.00078
1.00228
1.00485
1.01236
1.0332
1.0739
1.23213
1.54317
2.35589
2.69126
2.73583
2.73377
2.73555
2.74854
2.76046
2.77141
2.77895
2.78353
2.78932
2.79242
1.00001
1.00002
1.00007
1.00013
1.00041
1.00076
1.00221
1.0047
1.01195
1.03216
1.07135
1.22492
1.51925
2.33001
2.68181
2.73514
2.73279
2.73352
2.74654
2.75812
2.76911
2.77661
2.78144
2.78715
2.78905
1.00001
1.00002
1.00007
1.00012
1.00039
1.00072
1.00211
1.00449
1.01142
1.03063
1.0682
1.21378
1.493
2.29056
2.6658
2.73335
2.73016
2.72982
2.74254
2.75355
2.76397
2.77118
2.77488
2.78273
2.78509
1.00001
1.00002
1.00006
1.00011
1.00037
1.00068
1.00199
1.0042
1.01074
1.02862
1.06403
1.19892
1.45779
2.23112
2.643
2.7305
2.72635
2.72396
2.73663
2.74769
2.75864
2.76611
2.76983
2.77394
2.77591
1.00001
1.00002
1.00006
1.00011
1.00034
1.00063
1.00186
1.00385
1.01001
1.02599
1.05893
1.18026
1.41413
2.1461
2.61162
2.72529
2.72128
2.71467
2.72785
2.73674
2.74684
2.75378
2.75829
2.76554
2.76733
1.00001
1.00002
1.00005
1.0001
1.00031
1.00057
1.00174
1.00345
1.00927
1.02279
1.05309
1.15857
1.36384
2.03171
2.56901
2.71671
2.71274
2.70411
2.71751
2.72671
2.73721
2.74414
2.74531
2.74756
2.7486
1.00001
1.00001
1.00005
1.00009
1.00028
1.00051
1.00159
1.00303
1.00845
1.01947
1.04689
1.13575
1.31024
1.90536
2.50565
2.6958
2.69268
2.68497
2.70226
2.70871
2.71659
2.72463
2.72796
2.73046
2.72694
1.00001
1.00001
1.00004
1.00008
1.00025
1.00045
1.00142
1.00265
1.00767
1.01663
1.0419
1.1152
1.26755
1.71566
2.50391
2.67491
2.67
2.66288
2.6807
2.69288
2.69946
2.70071
2.69964
2.69484
2.6786
1
1.00001
1.00004
1.00007
1.00022
1.0004
1.00124
1.00234
1.00681
1.01458
1.03752
1.10062
1.23639
1.65878
2.50487
2.65506
2.64389
2.64585
2.65043
2.66581
2.67595
2.6752
2.66909
2.65103
2.60257
1
1.00001
1.00002
1.00007
1.00013
1.00038
1.00082
1.00205
1.00532
1.01203
1.03498
1.07366
1.23959
1.56853
2.35661
2.63663
2.64498
2.63768
2.63285
2.6397
2.64476
2.64122
2.62266
2.57535
2.41274
1
1.00001
1.00003
1.00005
1.00016
1.0003
1.00092
1.00179
1.00493
1.01131
1.02752
1.07817
1.16744
1.53614
2.28945
2.57104
2.63781
2.62849
2.61709
2.61483
2.61625
2.60856
2.58115
2.52154
2.34942
1
1.00001
1.00002
1.00004
1.00014
1.00026
1.00082
1.00151
1.00449
1.00933
1.02422
1.06458
1.1444
1.44014
2.14978
2.51403
2.62845
2.61826
2.60431
2.59286
2.58022
2.5676
2.53853
2.48676
2.35312
1
1.00001
1.00002
1.00004
1.00012
1.00022
1.00071
1.00129
1.00402
1.00767
1.02181
1.04971
1.12208
1.33745
1.95283
2.42195
2.60362
2.59624
2.59054
2.57776
2.56081
2.53186
2.49697
2.45764
2.36178
1
1
1.00002
1.00003
1.0001
1.00018
1.00059
1.00106
1.0033
1.00622
1.01808
1.03882
1.10137
1.25493
1.76029
2.33317
2.56367
2.56148
2.5595
2.55288
2.53906
2.51505
2.46221
2.42536
2.35726
1
1
1.00001
1.00003
1.00008
1.00015
1.00046
1.00084
1.00258
1.00498
1.01365
1.03235
1.0761
1.21959
1.54151
2.25697
2.53
2.54169
2.53262
2.52433
2.51187
2.4949
2.45336
2.40354
2.34533
1
1
1.00001
1.00002
1.00006
1.00012
1.00036
1.00066
1.00199
1.00396
1.01053
1.02592
1.0599
1.17871
1.40869
2.06378
2.46072
2.53069
2.5153
2.50624
2.48433
2.4654
2.43527
2.39225
2.33966
1
1
1.00001
1.00002
1.00005
1.00009
1.00029
1.00052
1.00162
1.00306
1.00854
1.01941
1.04689
1.1343
1.30529
1.88624
2.31895
2.49998
2.49867
2.49132
2.47332
2.44561
2.41273
2.37303
2.32802
1
1
1.00001
1.00001
1.00004
1.00007
1.00022
1.0004
1.00124
1.0023
1.0068
1.01395
1.03662
1.09278
1.22346
1.58489
2.26841
2.43099
2.45248
2.45376
2.4466
2.43013
2.40154
2.36145
2.31674
1
1
1
1.00001
1.00002
1.00007
1.00012
1.00037
1.0007
1.00195
1.00427
1.01052
1.02823
1.06255
1.1889
1.43411
2.09392
2.40104
2.43857
2.42765
2.41669
2.39753
2.38358
2.35379
2.31327
1
1
1
1.00001
1.00002
1.00005
1.00009
1.00029
1.00053
1.00165
1.00312
1.00885
1.01954
1.04815
1.1323
1.31367
1.79033
2.296
2.42195
2.41564
2.39883
2.37509
2.34808
2.33045
2.30455
1
1
1
1
1.00002
1.00003
1.00009
1.00016
1.0005
1.00095
1.00279
1.00557
1.01542
1.034
1.08974
1.21245
1.66944
2.07955
2.35704
2.39343
2.38784
2.36953
2.336
2.30667
2.28001
1
1
1
1
1.00001
1.00003
1.00005
1.00014
1.00027
1.00079
1.00159
1.00417
1.01001
1.02331
1.06632
1.13833
1.44121
2.03592
2.26472
2.33422
2.35237
2.3481
2.3303
2.30071
2.26887
1
1
1
1
1.00001
1.00001
1.00004
1.00008
1.00025
1.00047
1.00136
1.00275
1.00718
1.01745
1.04065
1.11543
1.25693
1.72965
2.17518
2.3155
2.31982
2.3124
2.30424
2.2869
2.26095
1
1
1
1
1.00001
1.00001
1.00003
1.00006
1.00018
1.00033
1.00104
1.00188
1.00573
1.01117
1.0301
1.07339
1.1699
1.46977
2.04507
2.26426
2.30218
2.29857
2.28451
2.2654
2.24287
1
1
1
1
1
1.00001
1.00002
1.00004
1.00013
1.00023
1.00072
1.00131
1.00398
1.00766
1.02123
1.04885
1.11679
1.31956
1.85471
2.14918
2.2646
2.27307
2.26716
2.25399
2.23102
1
1
1
1
1
1.00001
1.00001
1.00004
1.00007
1.0002
1.00037
1.00111
1.00208
1.00602
1.0124
1.03199
1.07937
1.1885
1.48596
2.03725
2.21278
2.23741
2.23946
2.23124
2.21479
1
1
1
1
1
1
1.00001
1.00002
1.00004
1.00014
1.00025
1.00076
1.00139
1.00412
1.00816
1.02146
1.05317
1.11927
1.34334
1.8395
2.13023
2.21898
2.21762
2.2098
2.19532
1
1
1
1
1
1
1.00001
1.00002
1.00003
1.00009
1.00016
1.0005
1.00092
1.00276
1.00525
1.01493
1.03104
1.08296
1.18982
1.57934
1.94562
2.17101
2.19976
2.19871
2.18669
1
1
1
1
1
1
1
1.00001
1.00002
1.00004
1.00013
1.00025
1.00074
1.0014
1.00391
1.00831
1.0207
1.05416
1.11786
1.346
1.8264
2.07942
2.16045
2.17158
2.16781
1
1
1
1
1
1
1
1.00001
1.00002
1.00003
1.00009
1.00016
1.0005
1.00091
1.00274
1.00515
1.01471
1.03037
1.08019
1.18472
1.54274
1.93414
2.12712
2.14708
2.14785
1
1
1
1
1
1
1
1
1.00001
1.00002
1.00006
1.0001
1.00032
1.00058
1.00174
1.00326
1.00928
1.01959
1.04809
1.12213
1.29586
1.71159
2.04068
2.12781
2.1288
1
1
1
1
1
1
1
1
1
1.00001
1.00003
1.00008
1.00015
1.00045
1.00086
1.00247
1.00488
1.01336
1.02833
1.07539
1.16796
1.51793
1.84284
2.0718
2.11202
1
1
1
1
1
1
1
1
1
1.00001
1.00002
1.00004
1.00012
1.00022
1.00067
1.00124
1.00358
1.00724
1.01862
1.04599
1.10256
1.28509
1.70518
1.96739
2.07728
1
1
1
1
1
1
1
1
1
1
1.00001
1.00003
1.00008
1.00014
1.00042
1.00077
1.00231
1.00433
1.01237
1.02501
1.06705
1.14923
1.4385
1.81134
2.02632
1
1
1
1
1
1
1
1
1
1
1.00001
1.00002
1.00005
1.00008
1.00025
1.00046
1.00139
1.00256
1.00746
1.01488
1.03851
1.09237
1.22101
1.5406
1.90369
1
1
1
1
1
1
1
1
1
1
1
1.00001
1.00002
1.00007
1.00012
1.00036
1.00067
1.00196
1.00377
1.01042
1.02218
1.0558
1.13315
1.3526
1.74939
1
1
1
1
1
1
1
1
1
1
1
1.00001
1.00001
1.00004
1.00008
1.00023
1.00042
1.00126
1.00234
1.00676
1.01338
1.03606
1.07863
1.21071
1.46213
1
1
1
1
1
1
1
1
1
1
1
1
1.00001
1.00002
1.00007
1.00012
1.00038
1.00069
1.00208
1.00392
1.01114
1.02377
1.05746
1.15051
1.35704
1
1
1
1
1
1
1
1
1
1
1
1
1.00001
1.00002
1.00006
1.0001
1.00031
1.00056
1.00174
1.00322
1.0094
1.01983
1.04956
1.13376
1.31297
1
1
1
1
1
1
1
1
1
1
1
1
1.00001
1.00002
1.00005
1.00009
1.00027
1.00049
1.00148
1.00295
1.00779
1.01906
1.04439
1.13039
1.29632
1
1
1
1
1
1
1
1
1
1
1
1
1.00001
1.00002
1.00004
1.00011
1.0002
1.00064
1.00119
1.00363
1.00716
1.01979
1.04727
1.11437
1.31958
1
1
1
1
1
1
1
1
1
1
1
1
1.00001
1.00002
1.00003
1.00011
1.0002
1.00063
1.00115
1.0036
1.00689
1.01984
1.04478
1.11313
1.30696
1
1
1
1
1
1
1
1
1
1
1
1
1.00001
1.00002
1.00003
1.00011
1.00019
1.00061
1.00112
1.00343
1.00677
1.01877
1.04491
1.10832
1.30557
1
1
1
1
1
1
1
1
1
1
1
1
1.00001
1.00001
1.00004
1.00008
1.00024
1.00044
1.00135
1.00263
1.00723
1.01693
1.04093
1.11818
1.27049
1
1
1
1
1
1
1
1
1
1
1
1
1.00001
1.00001
1.00004
1.00008
1.00024
1.00044
1.00138
1.00256
1.00758
1.01612
1.04147
1.1125
1.26526
1
1
1
1
1
1
1
1
1
1
1
1
1.00001
1.00001
1.00004
1.00007
1.00023
1.00042
1.00131
1.00252
1.00708
1.01602
1.0397
1.11228
1.25886
1
1
1
1
1
1
1
1
1
1
1
1
1.00001
1.00002
1.00003
1.00009
1.00017
1.00052
1.00102
1.00285
1.00642
1.01596
1.0439
1.09839
1.29124
1
1
1
1
1
1
1
1
1
1
1
1
1.00001
1.00001
1.00004
1.00007
1.00023
1.00042
1.0013
1.00249
1.00706
1.01577
1.03941
1.10997
1.25492
1
1
1
1
1
1
1
1
1
1
1
1
1.00001
1.00001
1.00004
1.00007
1.00024
1.00042
1.00135
1.00248
1.00745
1.01543
1.04053
1.1068
1.25457
2.43086
2.68985
2.88534
3.01167
3.07922
3.03462
3.01748
3.00659
2.99206
2.97376
2.95287
2.93559
2.91527
2.89637
2.87507
2.85652
2.83623
2.81784
2.80213
2.79503
2.79306
2.7931
2.80381
2.82144
2.84701
2.87473
2.90262
2.92882
2.95204
2.9721
2.9897
3.00139
3.01379
3.02135
3.02941
3.03506
3.03792
3.03972
3.03985
3.03832
3.03327
3.03113
3.02683
3.02409
3.01708
3.0111
3.00168
2.99618
2.9862
2.97855
2.96976
2.96155
2.95131
2.94272
2.93259
2.92375
2.91325
2.90344
2.89269
2.88247
2.87183
2.86138
2.85058
2.84004
2.82907
2.81862
2.80763
2.79719
2.78612
2.77568
2.76441
2.7541
2.74266
2.7324
2.72098
2.71059
2.69942
2.68881
2.67795
2.66729
2.65647
2.64604
2.63504
2.62492
2.61382
2.60391
2.59291
2.58303
2.57228
2.56244
2.55202
2.54239
2.53234
2.52324
2.51379
2.50566
2.49746
2.49114
2.48568
2.48213
2.32085
2.45389
2.67246
2.90087
3.02781
3.11527
3.15504
3.18362
3.18842
3.18131
3.16628
3.15952
3.14466
3.13643
3.11852
3.10487
3.08751
3.07222
3.05772
3.04898
3.04753
3.04714
3.05506
3.06683
3.08299
3.09673
3.10504
3.11256
3.11681
3.1191
3.11947
3.11962
3.11569
3.10306
3.09322
3.08545
3.0735
3.06572
3.0512
3.04051
3.02796
3.0163
3.00544
2.99279
2.98071
2.96974
2.95729
2.94579
2.9338
2.92254
2.91051
2.89839
2.88611
2.87444
2.86263
2.8512
2.83939
2.82788
2.81569
2.80409
2.79162
2.77993
2.76731
2.75559
2.74289
2.73116
2.71809
2.70637
2.69285
2.68122
2.66753
2.65597
2.64248
2.63088
2.6178
2.60608
2.59337
2.58159
2.56905
2.55732
2.54483
2.53323
2.52085
2.50933
2.4973
2.48577
2.47426
2.46267
2.45173
2.44013
2.4297
2.41821
2.40826
2.39712
2.38785
2.37745
2.36931
2.36045
2.35518
2.3492
2.28926
2.30588
2.4108
2.52487
2.67941
2.81577
2.97421
3.07439
3.15145
3.20138
3.22337
3.22411
3.25243
3.2561
3.25301
3.24765
3.23849
3.23391
3.22519
3.22201
3.22522
3.22627
3.23382
3.23759
3.2395
3.23654
3.22467
3.1991
3.17776
3.15582
3.13149
3.1062
3.07296
3.04386
3.01849
2.99267
2.96865
2.94667
2.92431
2.90377
2.88313
2.86436
2.84487
2.82809
2.81038
2.79492
2.77859
2.76443
2.74944
2.7369
2.723
2.71098
2.69696
2.68567
2.67216
2.66174
2.64893
2.63917
2.62686
2.61739
2.60569
2.59646
2.58518
2.57618
2.56565
2.55691
2.54674
2.5376
2.52757
2.51802
2.50841
2.49849
2.48943
2.47919
2.47057
2.46008
2.45167
2.44113
2.4328
2.42236
2.41418
2.40389
2.39595
2.38578
2.37812
2.36804
2.36063
2.35071
2.34349
2.33388
2.32683
2.31775
2.31079
2.30244
2.2955
2.28817
2.28181
2.27629
2.27192
2.2695
2.29364
2.25304
2.27824
2.33064
2.40543
2.50096
2.60518
2.73874
2.86536
2.98688
3.08941
3.12968
3.17912
3.21841
3.25101
3.27042
3.28
3.27634
3.26565
3.27369
3.28788
3.29507
3.29529
3.28785
3.26735
3.23781
3.19668
3.15313
3.11099
3.06892
3.02857
2.99013
2.95297
2.92052
2.888
2.85978
2.8321
2.80745
2.78282
2.76136
2.73977
2.72079
2.70149
2.68474
2.66705
2.65188
2.6356
2.62167
2.60719
2.5951
2.58227
2.5707
2.55814
2.54665
2.53509
2.5243
2.51347
2.50303
2.49278
2.48287
2.47309
2.46337
2.45398
2.44466
2.4356
2.42621
2.41739
2.40803
2.39961
2.39024
2.38213
2.37278
2.36479
2.35555
2.34743
2.33845
2.32999
2.32142
2.31253
2.3044
2.2951
2.28732
2.27777
2.27021
2.26059
2.25317
2.24359
2.23627
2.22676
2.21958
2.21006
2.20302
2.19359
2.18688
2.17796
2.17186
2.16414
2.15924
2.15413
2.15191
2.2918
2.25123
2.2247
2.24273
2.2687
2.31624
2.37458
2.44393
2.53377
2.61911
2.73153
2.84437
2.94622
3.03075
3.10158
3.15276
3.18906
3.21037
3.21815
3.22681
3.23089
3.22671
3.21188
3.18591
3.14345
3.0951
3.03838
2.98503
2.93299
2.88405
2.83949
2.80063
2.76649
2.73501
2.70675
2.68158
2.65898
2.63837
2.6195
2.60237
2.58678
2.57259
2.55988
2.54806
2.53692
2.52638
2.51609
2.50625
2.49692
2.48821
2.48007
2.47171
2.4633
2.45457
2.44643
2.4382
2.43018
2.42223
2.41409
2.40642
2.39817
2.39095
2.38269
2.37581
2.36756
2.36091
2.35275
2.34621
2.33817
2.33161
2.32364
2.31694
2.30899
2.30204
2.29411
2.28686
2.27896
2.2714
2.26357
2.25571
2.24796
2.23985
2.23219
2.2239
2.21633
2.20791
2.20043
2.19181
2.18434
2.1755
2.16813
2.15923
2.15207
2.14328
2.13648
2.12811
2.12204
2.11471
2.11048
2.1058
2.28484
2.24174
2.21781
2.19982
2.20886
2.22348
2.25207
2.28472
2.33019
2.38165
2.44175
2.51389
2.59126
2.6751
2.75735
2.84566
2.92547
2.99539
3.05261
3.08528
3.09726
3.08972
3.06202
3.0067
2.94319
2.86997
2.79917
2.73779
2.68529
2.64473
2.60993
2.58243
2.55803
2.53733
2.51896
2.50439
2.49158
2.48152
2.47234
2.46479
2.45751
2.45134
2.44521
2.43999
2.43445
2.42956
2.42383
2.41871
2.41291
2.40819
2.40299
2.39813
2.39217
2.38615
2.37983
2.37365
2.36748
2.36099
2.35474
2.34785
2.34155
2.33429
2.328
2.32033
2.31408
2.30595
2.2998
2.29127
2.28528
2.27648
2.27062
2.26172
2.2558
2.24693
2.24078
2.23204
2.22559
2.21707
2.21039
2.2021
2.19524
2.18716
2.18018
2.17222
2.16511
2.15715
2.14981
2.1419
2.13441
2.12669
2.11909
2.11166
2.10406
2.09702
2.08965
2.08312
2.07648
2.0709
2.06616
2.06319
2.28355
2.235
2.20359
2.18554
2.17251
2.17542
2.18528
2.199
2.22044
2.24578
2.27795
2.31476
2.35975
2.4088
2.46899
2.52642
2.59695
2.65778
2.71802
2.76157
2.78823
2.78311
2.7544
2.6965
2.63423
2.56526
2.50972
2.46413
2.43591
2.41927
2.40916
2.4026
2.39845
2.39431
2.39309
2.3921
2.39195
2.39153
2.39115
2.39029
2.38956
2.38804
2.38673
2.3841
2.3822
2.37877
2.37644
2.37209
2.36909
2.36397
2.36074
2.35517
2.35084
2.34403
2.33863
2.33172
2.32612
2.31933
2.31349
2.30666
2.30055
2.29362
2.2873
2.28029
2.27386
2.26681
2.26028
2.25321
2.24654
2.23948
2.23263
2.22561
2.21854
2.21155
2.20425
2.19725
2.18974
2.18269
2.17507
2.16791
2.16029
2.153
2.14541
2.13789
2.13034
2.12266
2.11523
2.10743
2.10004
2.09213
2.08479
2.07684
2.06959
2.06172
2.05473
2.04717
2.04082
2.03407
2.02939
2.02525
2.28026
2.23436
2.19623
2.17294
2.15549
2.14674
2.14391
2.14836
2.15582
2.16697
2.1817
2.19992
2.22497
2.25139
2.28797
2.32645
2.37601
2.42168
2.47168
2.50938
2.53989
2.53853
2.51415
2.47254
2.42072
2.37433
2.33723
2.3119
2.2991
2.29349
2.29884
2.30612
2.31393
2.31916
2.32449
2.32736
2.32963
2.33018
2.33009
2.3296
2.32849
2.32715
2.32516
2.32347
2.32081
2.31841
2.31455
2.31103
2.30605
2.30201
2.29705
2.2932
2.28785
2.28292
2.27661
2.27112
2.26487
2.25939
2.2532
2.24751
2.24107
2.23494
2.22819
2.22167
2.21476
2.20801
2.20117
2.19435
2.18771
2.18084
2.17436
2.16741
2.16091
2.15387
2.14722
2.1401
2.13332
2.12621
2.11937
2.11235
2.10545
2.09845
2.09147
2.08457
2.07757
2.07072
2.0637
2.05691
2.04993
2.04323
2.03633
2.02975
2.02293
2.0165
2.00984
2.00364
1.99744
1.99186
1.9871
1.98401
2.27113
2.23087
2.19289
2.16421
2.14421
2.12908
2.12215
2.11588
2.11659
2.11906
2.12509
2.13143
2.14558
2.15816
2.18482
2.2094
2.24869
2.28368
2.32661
2.36819
2.39532
2.39549
2.37446
2.33973
2.30152
2.26408
2.23373
2.21651
2.20237
2.19835
2.19999
2.20939
2.22158
2.23318
2.24256
2.24845
2.25333
2.2554
2.25802
2.25885
2.26042
2.26105
2.26127
2.26109
2.26053
2.25932
2.25765
2.25532
2.25292
2.24984
2.24719
2.24423
2.24136
2.23767
2.23357
2.22903
2.22438
2.21956
2.21456
2.20942
2.20409
2.19851
2.19287
2.18688
2.18108
2.17486
2.16903
2.16273
2.15683
2.15044
2.1443
2.13774
2.13123
2.1245
2.11768
2.11085
2.10383
2.09695
2.08981
2.08283
2.0757
2.06866
2.06163
2.05447
2.04751
2.04025
2.03333
2.02602
2.01909
2.01177
2.00484
1.99756
1.99069
1.98349
1.97684
1.96979
1.96362
1.95712
1.95229
1.94821
2.26821
2.22664
2.18946
2.15752
2.13442
2.11525
2.10457
2.0945
2.09167
2.08682
2.08783
2.09044
2.09675
2.1068
2.1243
2.14991
2.1764
2.21341
2.25668
2.30209
2.32367
2.31969
2.3013
2.27135
2.2389
2.19961
2.17372
2.15243
2.14405
2.1353
2.13545
2.13871
2.14962
2.16346
2.178
2.19009
2.19971
2.20716
2.21246
2.21684
2.21952
2.22208
2.22293
2.22447
2.2244
2.22412
2.2235
2.22217
2.22067
2.21839
2.21618
2.21368
2.21137
2.20818
2.20477
2.2004
2.19631
2.19143
2.18689
2.18147
2.17646
2.17066
2.16538
2.1594
2.15404
2.14801
2.14259
2.13648
2.13101
2.1248
2.11919
2.11283
2.10698
2.10045
2.09438
2.08777
2.08155
2.07487
2.06864
2.06197
2.05575
2.04901
2.04276
2.03593
2.02963
2.02271
2.01635
2.00937
2.00294
1.99594
1.98947
1.98245
1.976
1.96901
1.9627
1.95582
1.94987
1.94346
1.93867
1.93465
2.26606
2.22551
2.18914
2.15482
2.1292
2.10574
2.09098
2.07808
2.07041
2.06558
2.06196
2.06227
2.06697
2.07906
2.096
2.11937
2.14831
2.19079
2.24524
2.28385
2.2958
2.28727
2.26574
2.24107
2.20066
2.16701
2.13627
2.11649
2.10122
2.09431
2.08758
2.08737
2.08978
2.09809
2.10969
2.12495
2.13949
2.15167
2.16094
2.16757
2.17228
2.1755
2.17759
2.17931
2.17971
2.18049
2.18032
2.17987
2.17907
2.17773
2.17601
2.17413
2.1721
2.16979
2.16669
2.16299
2.15868
2.15428
2.14947
2.14464
2.13954
2.13437
2.12913
2.12374
2.11846
2.11289
2.10754
2.10175
2.09616
2.09009
2.08418
2.07788
2.07171
2.06531
2.05896
2.05251
2.04613
2.03974
2.03339
2.02702
2.02069
2.01429
2.00795
2.00153
1.99516
1.98871
1.9823
1.97585
1.96941
1.96301
1.95656
1.95025
1.94384
1.93765
1.93139
1.9254
1.91947
1.91401
1.90913
1.90609
2.25647
2.22243
2.18853
2.15458
2.12694
2.10242
2.08251
2.06752
2.05524
2.04748
2.04334
2.04156
2.04811
2.06232
2.08222
2.10605
2.14633
2.20107
2.25677
2.28103
2.28146
2.27009
2.24716
2.21523
2.17852
2.14527
2.11762
2.09422
2.07773
2.06406
2.05713
2.05119
2.05023
2.05114
2.05642
2.06709
2.08194
2.09752
2.11187
2.12394
2.13306
2.13983
2.14415
2.14725
2.14906
2.15073
2.15134
2.15213
2.15191
2.15137
2.15026
2.14877
2.14711
2.14539
2.14302
2.14013
2.13655
2.13272
2.12873
2.12448
2.12022
2.11557
2.11099
2.10593
2.10096
2.09551
2.0902
2.08445
2.07889
2.07293
2.06716
2.061
2.05505
2.04873
2.04265
2.03631
2.03023
2.02387
2.01775
2.0113
2.0051
1.99854
1.99224
1.98557
1.97922
1.97248
1.96611
1.95931
1.95293
1.94608
1.9397
1.9328
1.92647
1.91955
1.91334
1.90648
1.90058
1.89412
1.88922
1.88508
2.23884
2.21001
2.1832
2.1527
2.12562
2.10035
2.0804
2.06164
2.04972
2.03754
2.03411
2.03379
2.04423
2.0579
2.08146
2.11388
2.16807
2.23481
2.27522
2.28323
2.27708
2.25984
2.23369
2.19949
2.16558
2.13563
2.10832
2.08523
2.06492
2.04916
2.03636
2.02807
2.02289
2.02018
2.02028
2.02332
2.03154
2.04423
2.06002
2.07575
2.08951
2.10015
2.10787
2.11303
2.11671
2.11883
2.12053
2.12124
2.12181
2.12145
2.12077
2.11951
2.11807
2.11644
2.11483
2.11246
2.10964
2.10599
2.1023
2.098
2.09376
2.08894
2.08434
2.07922
2.07444
2.06912
2.06413
2.05856
2.05331
2.04747
2.04197
2.03593
2.03022
2.02409
2.01834
2.01222
2.00642
2.00029
1.99443
1.9883
1.98236
1.97618
1.97017
1.96392
1.95788
1.95159
1.94553
1.93924
1.93319
1.92693
1.92089
1.91466
1.90866
1.90247
1.89655
1.89044
1.88478
1.87905
1.87426
1.87081
2.23297
2.20224
2.17516
2.14754
2.12251
2.09721
2.07733
2.05817
2.04469
2.03424
2.03016
2.03559
2.04906
2.06631
2.09746
2.14919
2.21694
2.26868
2.28669
2.28448
2.27487
2.25491
2.22291
2.19008
2.15965
2.13179
2.10603
2.08329
2.06196
2.04421
2.02775
2.01592
2.00591
2.00096
1.99679
1.9962
1.997
2.0019
2.01144
2.02572
2.04075
2.05525
2.0673
2.07681
2.08356
2.08819
2.09115
2.09302
2.09387
2.09451
2.09414
2.09354
2.09234
2.09106
2.08951
2.08784
2.08548
2.08256
2.07908
2.07542
2.07147
2.06738
2.06313
2.05873
2.05418
2.04942
2.04448
2.0393
2.03395
2.02836
2.02265
2.01674
2.01083
2.00487
1.99892
1.99299
1.98703
1.9811
1.97507
1.96907
1.96293
1.95684
1.95059
1.94441
1.93811
1.93188
1.92559
1.91935
1.91311
1.90687
1.90072
1.89449
1.88844
1.8822
1.87629
1.87008
1.86443
1.85856
1.85377
1.85009
2.22006
2.19343
2.16766
2.14198
2.11928
2.09559
2.07601
2.05807
2.04437
2.0364
2.03774
2.04788
2.06417
2.09121
2.13842
2.20653
2.26428
2.29202
2.294
2.28747
2.27121
2.2463
2.21575
2.18641
2.1593
2.13346
2.11002
2.08688
2.06618
2.0463
2.0286
2.01297
1.99898
1.98784
1.98046
1.97593
1.97384
1.97302
1.97465
1.981
1.99075
2.00452
2.019
2.03276
2.04457
2.0535
2.06005
2.06384
2.06647
2.06739
2.06809
2.06771
2.0671
2.06609
2.06501
2.0638
2.06233
2.06022
2.0575
2.05428
2.05086
2.04712
2.04324
2.0391
2.03483
2.03027
2.02557
2.02055
2.01541
2.00996
2.00447
1.99877
1.99315
1.98736
1.9817
1.9759
1.97024
1.96445
1.95875
1.95292
1.94712
1.94117
1.93525
1.92914
1.9231
1.91684
1.91074
1.9044
1.89829
1.89192
1.88587
1.87953
1.87358
1.86727
1.86147
1.85519
1.84967
1.84367
1.839
1.83509
2.20842
2.18357
2.15881
2.13357
2.11167
2.09082
2.0731
2.058
2.0476
2.04604
2.05386
2.06921
2.0919
2.13595
2.20109
2.26422
2.29671
2.30217
2.2975
2.28446
2.26344
2.23621
2.21003
2.18484
2.16106
2.13703
2.115
2.09194
2.07163
2.05011
2.03188
2.01295
1.99762
1.98289
1.97135
1.96185
1.95585
1.95188
1.94953
1.94855
1.95138
1.95913
1.97151
1.9859
2.00108
2.01436
2.02532
2.03329
2.03847
2.04194
2.04322
2.04436
2.04409
2.04345
2.04271
2.04173
2.04094
2.03946
2.03761
2.03483
2.03188
2.02838
2.02477
2.02069
2.01658
2.01207
2.00757
2.00263
1.99774
1.99236
1.98718
1.98156
1.97625
1.97053
1.96517
1.95944
1.95406
1.94833
1.94286
1.93705
1.93145
1.92551
1.91979
1.91373
1.90794
1.90178
1.89596
1.88973
1.8839
1.87762
1.8718
1.86548
1.85973
1.85338
1.84779
1.84146
1.83619
1.83017
1.82573
1.82175
2.19833
2.17761
2.15531
2.13079
2.10868
2.08772
2.07085
2.05938
2.05636
2.06235
2.07714
2.09837
2.14079
2.20344
2.26819
2.30391
2.31201
2.30844
2.29783
2.27994
2.25618
2.23126
2.20899
2.18586
2.16508
2.14249
2.12161
2.09871
2.07802
2.05593
2.03652
2.01641
1.99923
1.98211
1.96818
1.95457
1.94452
1.93564
1.93123
1.92738
1.92644
1.92665
1.93109
1.94112
1.95407
1.96945
1.9837
1.9967
2.00632
2.01335
2.01762
2.01975
2.02111
2.02088
2.02038
2.01947
2.0189
2.01768
2.01639
2.01395
2.01142
2.00805
2.00477
2.00078
1.99695
1.99245
1.98816
1.9832
1.97849
1.97311
1.96815
1.96254
1.95746
1.95175
1.94664
1.94094
1.93583
1.93015
1.92499
1.91929
1.91404
1.90827
1.90292
1.89706
1.89163
1.88571
1.88024
1.87429
1.86881
1.86287
1.85742
1.85146
1.84608
1.84006
1.83482
1.82875
1.82379
1.81797
1.81382
1.80989
2.1759
2.15976
2.14602
2.12679
2.10703
2.0893
2.07374
2.06745
2.07176
2.08579
2.1062
2.14749
2.20883
2.27413
2.31004
2.3199
2.31707
2.30822
2.29327
2.27002
2.24841
2.22679
2.20747
2.18723
2.16758
2.14636
2.12513
2.10331
2.08172
2.06062
2.03989
2.02024
2.00139
1.98383
1.96743
1.95249
1.93921
1.92805
1.91923
1.91232
1.90878
1.90527
1.90553
1.90658
1.91353
1.92392
1.9384
1.95296
1.96729
1.97858
1.98739
1.99274
1.99616
1.99739
1.99769
1.99699
1.9963
1.9951
1.9941
1.99209
1.98997
1.9869
1.9839
1.98003
1.97632
1.97183
1.9676
1.96259
1.95796
1.95263
1.94776
1.94221
1.93723
1.93158
1.92656
1.9209
1.9159
1.91031
1.90535
1.89981
1.89485
1.88932
1.8843
1.87874
1.87365
1.86805
1.8629
1.85729
1.8521
1.8465
1.84132
1.83573
1.83066
1.82507
1.8202
1.81463
1.81011
1.80486
1.80118
1.79776
2.1684
2.14782
2.12989
2.11541
2.10169
2.08985
2.08281
2.08595
2.09888
2.11829
2.15768
2.21663
2.28043
2.3161
2.32614
2.3235
2.31533
2.29999
2.27966
2.25913
2.24107
2.22297
2.2058
2.18719
2.1683
2.14781
2.12719
2.10633
2.08529
2.06507
2.04415
2.0252
2.00528
1.9881
1.96974
1.95467
1.93833
1.92588
1.91284
1.90382
1.89539
1.89049
1.88633
1.88418
1.8844
1.88655
1.89433
1.90643
1.92031
1.93469
1.94724
1.95741
1.96445
1.96899
1.97109
1.97204
1.97151
1.97041
1.96963
1.96807
1.96646
1.96379
1.96109
1.95755
1.95403
1.94976
1.94559
1.9408
1.93628
1.93115
1.92642
1.92106
1.91625
1.91079
1.90598
1.9005
1.89568
1.89025
1.88539
1.88002
1.87509
1.86977
1.86478
1.8595
1.85446
1.84922
1.84417
1.83898
1.83395
1.82881
1.82387
1.81874
1.81397
1.80885
1.80434
1.79934
1.79527
1.79075
1.78764
1.78491
2.1592
2.1408
2.12411
2.10685
2.09562
2.09255
2.09741
2.1126
2.13323
2.17365
2.23301
2.29414
2.32782
2.33614
2.33314
2.32401
2.30887
2.28891
2.27079
2.25399
2.23806
2.22254
2.20589
2.18891
2.16998
2.15125
2.13084
2.11125
2.09027
2.07051
2.04986
2.03091
2.01119
1.99325
1.97462
1.95799
1.94073
1.92602
1.91069
1.89891
1.88666
1.8787
1.87089
1.86646
1.86178
1.86059
1.86071
1.86409
1.87275
1.88516
1.89921
1.91314
1.92524
1.93456
1.94068
1.94414
1.94545
1.94515
1.94431
1.94317
1.94202
1.93995
1.9375
1.93441
1.93114
1.92741
1.92352
1.91927
1.91501
1.91034
1.90576
1.90077
1.89598
1.8908
1.88593
1.88066
1.87575
1.87048
1.86557
1.86033
1.85545
1.85029
1.84542
1.84035
1.83547
1.83047
1.82556
1.82063
1.81572
1.81089
1.80608
1.80138
1.79679
1.79221
1.788
1.78366
1.78008
1.77638
1.77402
1.77196
2.14032
2.12936
2.11648
2.10713
2.09868
2.10505
2.12041
2.14459
2.18614
2.24909
2.30836
2.34063
2.34692
2.34331
2.33284
2.31535
2.29642
2.27945
2.26428
2.25042
2.23622
2.22206
2.20594
2.18936
2.1708
2.1523
2.13265
2.11344
2.09344
2.07423
2.05428
2.03514
2.01555
1.99684
1.97804
1.96004
1.9424
1.92579
1.90977
1.89519
1.88129
1.86955
1.8589
1.85084
1.84404
1.83938
1.83511
1.83499
1.83543
1.84058
1.85079
1.86394
1.8783
1.89191
1.90302
1.91117
1.916
1.91825
1.91853
1.91764
1.91673
1.91537
1.91354
1.9109
1.90801
1.90471
1.90125
1.89738
1.89341
1.88903
1.88472
1.88
1.87548
1.87055
1.86589
1.86085
1.85604
1.85099
1.84606
1.84111
1.83613
1.83132
1.82634
1.82166
1.8167
1.81212
1.80721
1.80268
1.79788
1.79338
1.78879
1.78433
1.7801
1.77579
1.77213
1.7683
1.76558
1.76282
1.76157
1.76013
2.12465
2.11468
2.10273
2.10148
2.11024
2.12706
2.15676
2.19943
2.26452
2.32143
2.35109
2.3552
2.35121
2.33916
2.32002
2.30137
2.28525
2.27147
2.25844
2.24628
2.23282
2.21927
2.20356
2.18773
2.17011
2.15257
2.13371
2.11495
2.09531
2.07599
2.05626
2.03689
2.0175
1.9983
1.97948
1.9608
1.94286
1.92515
1.90862
1.89224
1.87769
1.86315
1.85096
1.83924
1.83027
1.82223
1.81643
1.81144
1.80866
1.80871
1.81055
1.8173
1.82877
1.8425
1.85688
1.8696
1.87982
1.88649
1.89048
1.89166
1.89147
1.89068
1.8893
1.88757
1.88484
1.88207
1.87876
1.8754
1.87161
1.86767
1.86356
1.85925
1.85499
1.85046
1.84605
1.84134
1.83674
1.83192
1.82718
1.82237
1.81754
1.81282
1.80792
1.80335
1.79842
1.79405
1.78914
1.78499
1.78019
1.77619
1.77169
1.76782
1.76384
1.76023
1.75716
1.7542
1.75256
1.75078
1.75037
1.74943
2.11477
2.11211
2.10547
2.11102
2.12944
2.1642
2.21183
2.28203
2.33949
2.3682
2.36765
2.36198
2.34654
2.32452
2.30513
2.28999
2.27697
2.26597
2.25457
2.24342
2.23048
2.21695
2.20154
2.18553
2.1684
2.15077
2.13257
2.1139
2.09504
2.07584
2.05658
2.03711
2.01793
1.99831
1.97972
1.96029
1.94256
1.92396
1.90719
1.88975
1.87438
1.85828
1.84468
1.83055
1.81958
1.8084
1.80106
1.79302
1.78834
1.78354
1.78317
1.78338
1.78678
1.7955
1.80778
1.82173
1.83564
1.84766
1.85688
1.86248
1.86542
1.86579
1.86519
1.86443
1.86284
1.86074
1.85766
1.85477
1.85105
1.84769
1.8435
1.83975
1.83528
1.83125
1.82671
1.82248
1.81796
1.81357
1.80904
1.8046
1.80005
1.79563
1.79108
1.78664
1.78216
1.77767
1.77338
1.76887
1.76488
1.76048
1.75684
1.75287
1.74973
1.74649
1.74449
1.74249
1.74204
1.7414
1.74244
1.74216
2.09416
2.102
2.11161
2.13244
2.16898
2.22072
2.2912
2.34477
2.36756
2.36993
2.36317
2.3465
2.32502
2.30614
2.29024
2.27795
2.26657
2.25605
2.24524
2.23402
2.22209
2.20858
2.19481
2.17892
2.16344
2.14579
2.12883
2.11002
2.09196
2.07243
2.05356
2.03371
2.01467
1.99509
1.97622
1.95725
1.93901
1.92066
1.90329
1.88602
1.86959
1.85378
1.83897
1.82495
1.81221
1.80009
1.78989
1.7806
1.77347
1.76664
1.76201
1.7588
1.75889
1.76009
1.76553
1.77524
1.78871
1.80333
1.81723
1.82851
1.83643
1.84104
1.8426
1.8424
1.84177
1.84038
1.83799
1.83508
1.83166
1.82819
1.82455
1.8207
1.81685
1.81268
1.8086
1.80425
1.79995
1.79557
1.79111
1.78677
1.78234
1.77804
1.77376
1.76947
1.76534
1.76112
1.75713
1.75315
1.74933
1.74581
1.74249
1.73941
1.73736
1.73518
1.73473
1.73423
1.735
1.73661
1.74003
1.74019
2.07928
2.10224
2.12778
2.17533
2.24853
2.3188
2.36816
2.38404
2.38192
2.37069
2.34898
2.32455
2.30471
2.28948
2.27803
2.26811
2.25909
2.24903
2.23901
2.22731
2.21541
2.20167
2.18746
2.17163
2.15523
2.13799
2.12001
2.10195
2.08296
2.06452
2.04551
2.02713
2.00837
1.99011
1.9718
1.95385
1.93585
1.91822
1.90069
1.88381
1.86727
1.85186
1.83637
1.82258
1.8082
1.79607
1.78335
1.77312
1.76289
1.75536
1.74768
1.74231
1.73742
1.7365
1.73667
1.73938
1.74637
1.75768
1.77124
1.78612
1.79861
1.80913
1.81506
1.81863
1.81867
1.81826
1.81722
1.81499
1.81221
1.80866
1.8055
1.80142
1.79799
1.79362
1.78997
1.78552
1.78166
1.77719
1.77326
1.7688
1.76492
1.76058
1.75673
1.75272
1.74877
1.74528
1.74118
1.73832
1.73435
1.73203
1.729
1.72735
1.72599
1.72594
1.72622
1.72787
1.73078
1.73444
1.74197
1.7451
2.05884
2.11173
2.17329
2.25967
2.33686
2.37814
2.38788
2.38383
2.37027
2.34788
2.32534
2.30646
2.29152
2.28013
2.27077
2.26156
2.252
2.24136
2.22966
2.21718
2.20384
2.19005
2.17556
2.16087
2.14515
2.12952
2.11249
2.09604
2.07809
2.06098
2.0427
2.02517
2.00687
1.98913
1.97102
1.95322
1.93502
1.91742
1.89953
1.88272
1.86585
1.84998
1.8343
1.81939
1.80493
1.79114
1.77807
1.76577
1.75455
1.74448
1.73571
1.72867
1.72183
1.71694
1.71384
1.71386
1.715
1.71901
1.72744
1.73986
1.75414
1.76834
1.78015
1.7886
1.79354
1.79476
1.79438
1.7935
1.79137
1.78883
1.78526
1.78182
1.77814
1.77452
1.77094
1.76706
1.76356
1.75933
1.75584
1.75146
1.74794
1.74369
1.74011
1.73627
1.73263
1.72941
1.72589
1.72327
1.7204
1.7186
1.7169
1.71686
1.71708
1.71823
1.72103
1.72428
1.73065
1.73929
1.75374
1.76235
2.01261
2.13868
2.2779
2.37013
2.41166
2.41127
2.40101
2.37879
2.34888
2.32553
2.30538
2.28829
2.27653
2.26754
2.25962
2.25139
2.24274
2.23306
2.2224
2.21039
2.19776
2.1842
2.17032
2.15561
2.13993
2.1237
2.10647
2.08928
2.07142
2.05391
2.03602
2.01821
2.00051
1.98253
1.96483
1.94681
1.92945
1.91201
1.89521
1.87859
1.86241
1.84651
1.83131
1.81624
1.80204
1.78807
1.77492
1.76225