/*--------------------------------*- C++ -*----------------------------------*\
| =========                 |                                                 |
| \\      /  F ield         | OpenFOAM: The Open Source CFD Toolbox           |
|  \\    /   O peration     | Version:  2112                                  |
|   \\  /    A nd           | Website:  www.openfoam.com                      |
|    \\/     M anipulation  |                                                 |
\*---------------------------------------------------------------------------*/
FoamFile
{
    version     2.0;
    format      ascii;
    arch        "LSB;label=32;scalar=64";
    class       volVectorField;
    location    "7";
    object      U;
}
// * * * * * * * * * * * * * * * * * * * * * * * * * * * * * * * * * * * * * //

dimensions      [0 1 -1 0 0 0 0];

internalField   nonuniform List<vector> 
5250
(
(2.99999 1.40685e-08 0)
(2.99998 1.09137e-07 0)
(2.99995 3.36047e-07 0)
(2.99989 1.01458e-06 0)
(2.99971 2.40563e-06 0)
(2.99937 6.41844e-06 0)
(2.99827 1.44182e-05 0)
(2.99643 3.83565e-05 0)
(2.98915 8.21379e-05 0)
(2.97769 0.000240112 0)
(2.93021 0.000505569 0)
(2.82214 0.00159999 0)
(2.50771 0.00404399 0)
(1.52552 0.0113114 0)
(0.720924 0.0265527 0)
(0.521679 0.0257873 0)
(0.548816 0.0255795 0)
(0.542836 0.0267858 0)
(0.487422 0.0281498 0)
(0.400095 0.0297602 0)
(0.31996 0.0317744 0)
(0.2535 0.0341148 0)
(0.186575 0.0365811 0)
(0.111465 0.0394382 0)
(0.047665 0.0431695 0)
(2.99999 4.14838e-08 0)
(2.99998 3.22701e-07 0)
(2.99995 9.92598e-07 0)
(2.99989 3.00186e-06 0)
(2.99972 7.11204e-06 0)
(2.99938 1.90563e-05 0)
(2.9983 4.26717e-05 0)
(2.99649 0.00011479 0)
(2.98932 0.000244589 0)
(2.97805 0.000726161 0)
(2.93128 0.00152584 0)
(2.82531 0.00492137 0)
(2.51509 0.0124385 0)
(1.54303 0.0353415 0)
(0.732402 0.0807312 0)
(0.518894 0.0737917 0)
(0.547934 0.069774 0)
(0.543267 0.0708763 0)
(0.488069 0.0725443 0)
(0.401137 0.0750425 0)
(0.321142 0.0781823 0)
(0.254212 0.0816458 0)
(0.186354 0.0848759 0)
(0.109923 0.0880784 0)
(0.0453831 0.0907304 0)
(2.99999 6.57706e-08 0)
(2.99998 5.11157e-07 0)
(2.99995 1.57192e-06 0)
(2.9999 4.75011e-06 0)
(2.99972 1.12246e-05 0)
(2.9994 3.02143e-05 0)
(2.99835 6.67727e-05 0)
(2.9966 0.00018401 0)
(2.98966 0.000384888 0)
(2.97877 0.00116587 0)
(2.93353 0.0024264 0)
(2.83196 0.00809135 0)
(2.53114 0.0195833 0)
(1.58379 0.0610252 0)
(0.759455 0.139964 0)
(0.515144 0.124868 0)
(0.548864 0.116718 0)
(0.54733 0.119052 0)
(0.49278 0.122602 0)
(0.406692 0.127938 0)
(0.326923 0.133979 0)
(0.259429 0.14048 0)
(0.190498 0.146711 0)
(0.112413 0.152426 0)
(0.0456938 0.155857 0)
(2.99999 8.72589e-08 0)
(2.99998 6.78091e-07 0)
(2.99996 2.08519e-06 0)
(2.9999 6.30434e-06 0)
(2.99974 1.4879e-05 0)
(2.99943 4.02319e-05 0)
(2.99842 8.82273e-05 0)
(2.99675 0.00024745 0)
(2.99013 0.000511822 0)
(2.97977 0.00157261 0)
(2.93676 0.00325223 0)
(2.84073 0.0110664 0)
(2.55548 0.026046 0)
(1.65043 0.0859266 0)
(0.800259 0.20015 0)
(0.508989 0.175149 0)
(0.55157 0.162498 0)
(0.55565 0.166354 0)
(0.502254 0.172012 0)
(0.417443 0.180492 0)
(0.337903 0.189789 0)
(0.269768 0.199847 0)
(0.199389 0.209986 0)
(0.118501 0.219232 0)
(0.0478967 0.224152 0)
(3 1.03874e-07 0)
(2.99999 8.07397e-07 0)
(2.99996 2.48173e-06 0)
(2.99991 7.51162e-06 0)
(2.99975 1.76861e-05 0)
(2.99946 4.8289e-05 0)
(2.99852 0.00010402 0)
(2.99695 0.000303994 0)
(2.99075 0.000605263 0)
(2.98108 0.00198852 0)
(2.94105 0.00403281 0)
(2.85238 0.013985 0)
(2.58797 0.0331618 0)
(1.74287 0.109172 0)
(0.856721 0.260875 0)
(0.502882 0.225384 0)
(0.557967 0.207913 0)
(0.569367 0.21306 0)
(0.517211 0.220682 0)
(0.433914 0.232481 0)
(0.354442 0.245373 0)
(0.28552 0.259514 0)
(0.213373 0.274264 0)
(0.128724 0.288043 0)
(0.0522608 0.295464 0)
(3 1.15134e-07 0)
(2.99999 8.92926e-07 0)
(2.99996 2.74453e-06 0)
(2.99991 8.29996e-06 0)
(2.99977 1.94701e-05 0)
(2.9995 5.37038e-05 0)
(2.99864 0.000112385 0)
(2.99717 0.000348144 0)
(2.99152 0.000645947 0)
(2.98266 0.0023626 0)
(2.94629 0.00462369 0)
(2.86679 0.0164327 0)
(2.62806 0.0392857 0)
(1.86154 0.128795 0)
(0.932207 0.318092 0)
(0.502609 0.27573 0)
(0.571566 0.253442 0)
(0.591039 0.259068 0)
(0.539932 0.268464 0)
(0.458232 0.284322 0)
(0.378443 0.30159 0)
(0.308329 0.320933 0)
(0.233779 0.341976 0)
(0.143897 0.362537 0)
(0.0593252 0.374913 0)
(3 1.25955e-07 0)
(2.99999 9.76448e-07 0)
(2.99996 3.00196e-06 0)
(2.99992 9.07776e-06 0)
(2.99979 2.13127e-05 0)
(2.99954 5.87379e-05 0)
(2.99877 0.000122912 0)
(2.9974 0.000382166 0)
(2.99242 0.000692944 0)
(2.98443 0.00260713 0)
(2.95227 0.00502405 0)
(2.88333 0.017923 0)
(2.67408 0.0430198 0)
(2.00372 0.140773 0)
(1.03086 0.363257 0)
(0.519161 0.329859 0)
(0.597289 0.305242 0)
(0.623739 0.307882 0)
(0.573646 0.317287 0)
(0.493371 0.337216 0)
(0.412365 0.359429 0)
(0.340654 0.385102 0)
(0.263544 0.414311 0)
(0.16748 0.445191 0)
(0.0713033 0.467692 0)
(3 1.33567e-07 0)
(2.99999 1.03532e-06 0)
(2.99997 3.18609e-06 0)
(2.99993 9.61379e-06 0)
(2.99981 2.26746e-05 0)
(2.99958 6.1348e-05 0)
(2.99891 0.000132882 0)
(2.99765 0.000384485 0)
(2.99337 0.000739413 0)
(2.9863 0.00256038 0)
(2.95858 0.00494167 0)
(2.90055 0.0172784 0)
(2.72264 0.042026 0)
(2.1627 0.133505 0)
(1.16389 0.357298 0)
(0.577731 0.369934 0)
(0.644225 0.359043 0)
(0.671108 0.358319 0)
(0.622539 0.368791 0)
(0.543574 0.392023 0)
(0.460157 0.419884 0)
(0.385968 0.45331 0)
(0.306192 0.492964 0)
(0.204062 0.539356 0)
(0.092111 0.582829 0)
(3 1.35625e-07 0)
(2.99999 1.03942e-06 0)
(2.99997 3.20407e-06 0)
(2.99994 9.56716e-06 0)
(2.99983 2.26211e-05 0)
(2.99963 5.96045e-05 0)
(2.99904 0.00013249 0)
(2.9979 0.000353331 0)
(2.99423 0.000727943 0)
(2.98796 0.00223125 0)
(2.96414 0.00433167 0)
(2.91601 0.0142534 0)
(2.76346 0.0358044 0)
(2.2921 0.0995881 0)
(1.31549 0.289772 0)
(0.633978 0.394748 0)
(0.680567 0.414153 0)
(0.71002 0.409065 0)
(0.672176 0.423167 0)
(0.600161 0.4482 0)
(0.518896 0.483064 0)
(0.444849 0.524923 0)
(0.365905 0.577094 0)
(0.263312 0.64766 0)
(0.130817 0.735767 0)
(3 5.58294e-08 0)
(2.99999 1.53531e-06 0)
(2.99998 3.07662e-06 0)
(2.99994 1.35857e-05 0)
(2.99985 2.22255e-05 0)
(2.99967 8.682e-05 0)
(2.99915 0.000121805 0)
(2.99814 0.000533663 0)
(2.99493 0.000538795 0)
(2.98932 0.00323873 0)
(2.96831 0.00196131 0)
(2.928 0.0197408 0)
(2.78737 0.0166558 0)
(2.38187 0.103305 0)
(1.48229 0.220518 0)
(0.704416 0.436635 0)
(0.696164 0.467334 0)
(0.724745 0.462609 0)
(0.709297 0.478416 0)
(0.652861 0.504504 0)
(0.582437 0.54601 0)
(0.514543 0.59648 0)
(0.446654 0.666401 0)
(0.361454 0.778189 0)
(0.204239 0.981977 0)
(3 1.11729e-07 0)
(2.99999 8.72757e-07 0)
(2.99998 2.68454e-06 0)
(2.99995 8.11946e-06 0)
(2.99989 1.9255e-05 0)
(2.99971 5.12805e-05 0)
(2.99941 0.000115983 0)
(2.99825 0.000299286 0)
(2.99647 0.000681062 0)
(2.98916 0.00174393 0)
(2.97739 0.0039027 0)
(2.9293 0.0107534 0)
(2.81886 0.0273975 0)
(2.49909 0.0722959 0)
(1.55829 0.21805 0)
(0.797628 0.478342 0)
(0.695529 0.501075 0)
(0.72876 0.504644 0)
(0.733555 0.523242 0)
(0.697508 0.554292 0)
(0.645571 0.600654 0)
(0.595278 0.660469 0)
(0.559093 0.746585 0)
(0.552289 0.884247 0)
(0.578144 1.11874 0)
(3 1.66713e-07 0)
(2.99999 1.90222e-07 0)
(2.99998 2.23404e-06 0)
(2.99996 2.40882e-06 0)
(2.99989 1.56345e-05 0)
(2.99976 1.37546e-05 0)
(2.99936 0.000103837 0)
(2.99861 5.90091e-05 0)
(2.99613 0.000750476 0)
(2.992 0.000347195 0)
(2.9758 0.00551242 0)
(2.94738 0.00265007 0)
(2.83783 0.0372686 0)
(2.54613 0.0523486 0)
(1.82651 0.211981 0)
(0.917081 0.519696 0)
(0.702842 0.528039 0)
(0.737018 0.534389 0)
(0.757014 0.555509 0)
(0.738946 0.593405 0)
(0.707126 0.64377 0)
(0.680519 0.710732 0)
(0.67844 0.803288 0)
(0.727272 0.934223 0)
(0.845532 1.10583 0)
(3 8.42702e-08 0)
(2.99999 6.5774e-07 0)
(2.99998 2.02044e-06 0)
(2.99996 6.12979e-06 0)
(2.9999 1.44533e-05 0)
(2.99979 3.8937e-05 0)
(2.99945 8.65351e-05 0)
(2.99879 0.000237983 0)
(2.99671 0.000484859 0)
(2.99313 0.00157069 0)
(2.97948 0.00283394 0)
(2.95588 0.0106979 0)
(2.86579 0.0216434 0)
(2.6283 0.0812852 0)
(2.03677 0.20043 0)
(1.05563 0.556314 0)
(0.718156 0.560736 0)
(0.753048 0.565518 0)
(0.784853 0.582787 0)
(0.781624 0.623394 0)
(0.766849 0.676959 0)
(0.762971 0.745143 0)
(0.786283 0.832663 0)
(0.857834 0.939603 0)
(0.99382 1.04513 0)
(3 8.63703e-08 0)
(3 6.70451e-07 0)
(2.99999 2.0615e-06 0)
(2.99997 6.22263e-06 0)
(2.99992 1.47152e-05 0)
(2.99982 3.92742e-05 0)
(2.99952 8.80345e-05 0)
(2.99895 0.000234179 0)
(2.99724 0.0004992 0)
(2.99396 0.00147493 0)
(2.98329 0.00278867 0)
(2.96335 0.0101648 0)
(2.89282 0.019623 0)
(2.71119 0.074464 0)
(2.24184 0.182139 0)
(1.23451 0.544574 0)
(0.773618 0.591194 0)
(0.78884 0.604401 0)
(0.822106 0.612798 0)
(0.830658 0.648939 0)
(0.826884 0.701675 0)
(0.837196 0.765827 0)
(0.875242 0.840811 0)
(0.952912 0.92292 0)
(1.08331 0.991313 0)
(3 8.81466e-08 0)
(3 6.8699e-07 0)
(2.99999 2.11302e-06 0)
(2.99997 6.39432e-06 0)
(2.99993 1.51732e-05 0)
(2.99985 4.05409e-05 0)
(2.99961 9.15292e-05 0)
(2.99913 0.000239452 0)
(2.99774 0.000535304 0)
(2.99505 0.00140132 0)
(2.98663 0.00316904 0)
(2.97019 0.00848946 0)
(2.9161 0.0195113 0)
(2.77988 0.0581416 0)
(2.41933 0.148319 0)
(1.44178 0.447102 0)
(0.868581 0.607103 0)
(0.838367 0.639669 0)
(0.862465 0.650387 0)
(0.882036 0.675597 0)
(0.886543 0.720957 0)
(0.903702 0.777483 0)
(0.947459 0.839481 0)
(1.02454 0.902044 0)
(1.14339 0.950837 0)
(3 7.949e-08 0)
(3 6.18646e-07 0)
(2.99999 1.90349e-06 0)
(2.99998 5.74937e-06 0)
(2.99995 1.36439e-05 0)
(2.99988 3.63276e-05 0)
(2.99969 8.20395e-05 0)
(2.99932 0.000212795 0)
(2.99821 0.000479947 0)
(2.99616 0.00121663 0)
(2.98915 0.00283925 0)
(2.97717 0.00692515 0)
(2.93225 0.0171744 0)
(2.82694 0.0443903 0)
(2.53259 0.117449 0)
(1.64804 0.338466 0)
(0.975973 0.638066 0)
(0.873669 0.674072 0)
(0.892661 0.690154 0)
(0.921199 0.703115 0)
(0.938424 0.737436 0)
(0.961795 0.784409 0)
(1.00744 0.835536 0)
(1.08096 0.884191 0)
(1.18699 0.920719 0)
(3 6.5671e-08 0)
(3 5.08338e-07 0)
(2.99999 1.5661e-06 0)
(2.99998 4.70493e-06 0)
(2.99996 1.11496e-05 0)
(2.9999 2.94501e-05 0)
(2.99976 6.6222e-05 0)
(2.99946 0.00017111 0)
(2.99858 0.00037743 0)
(2.99701 0.000997268 0)
(2.99136 0.00212015 0)
(2.98227 0.00605793 0)
(2.94598 0.0129118 0)
(2.86782 0.0392072 0)
(2.63276 0.0976535 0)
(1.894 0.296981 0)
(1.14334 0.670467 0)
(0.908993 0.704309 0)
(0.9177 0.720355 0)
(0.950173 0.725903 0)
(0.981054 0.749405 0)
(1.0115 0.787958 0)
(1.05798 0.830542 0)
(1.12695 0.869375 0)
(1.2211 0.897623 0)
(3 5.48894e-08 0)
(3 4.22794e-07 0)
(2.99999 1.30339e-06 0)
(2.99999 3.90234e-06 0)
(2.99997 9.23702e-06 0)
(2.99992 2.43129e-05 0)
(2.99981 5.44862e-05 0)
(2.99957 0.000141058 0)
(2.99889 0.000305863 0)
(2.99761 0.000837159 0)
(2.99335 0.00167522 0)
(2.98624 0.00531832 0)
(2.95877 0.0103179 0)
(2.90143 0.0351409 0)
(2.72587 0.0828914 0)
(2.17225 0.261484 0)
(1.36218 0.664831 0)
(0.981865 0.730046 0)
(0.960357 0.742058 0)
(0.983046 0.74585 0)
(1.02117 0.759624 0)
(1.05741 0.790264 0)
(1.10271 0.825518 0)
(1.16601 0.857 0)
(1.2494 0.879295 0)
(3 3.02721e-08 0)
(3 4.13616e-07 0)
(3 1.00893e-06 0)
(2.99999 3.71188e-06 0)
(2.99997 7.32312e-06 0)
(2.99994 2.31848e-05 0)
(2.99985 4.38139e-05 0)
(2.99967 0.000135517 0)
(2.99916 0.000248813 0)
(2.99816 0.000805648 0)
(2.99508 0.00131843 0)
(2.98952 0.00512762 0)
(2.97003 0.00684096 0)
(2.93135 0.0328347 0)
(2.80486 0.0548311 0)
(2.43914 0.214832 0)
(1.66978 0.526047 0)
(1.09517 0.740761 0)
(1.02051 0.762014 0)
(1.02809 0.770899 0)
(1.064 0.776139 0)
(1.10274 0.796186 0)
(1.14517 0.823222 0)
(1.20174 0.848223 0)
(1.27496 0.86571 0)
(3 2.2528e-08 0)
(3 3.12979e-07 0)
(3 7.58502e-07 0)
(2.99999 2.80685e-06 0)
(2.99998 5.49812e-06 0)
(2.99996 1.7466e-05 0)
(2.9999 3.27628e-05 0)
(2.99975 0.000101323 0)
(2.99945 0.000186999 0)
(2.99851 0.000585285 0)
(2.99693 0.0010398 0)
(2.99087 0.00354379 0)
(2.98127 0.00551352 0)
(2.94302 0.0225861 0)
(2.86005 0.0377877 0)
(2.61013 0.142298 0)
(1.89082 0.372612 0)
(1.23787 0.746545 0)
(1.06503 0.785965 0)
(1.06463 0.800481 0)
(1.09811 0.799865 0)
(1.14162 0.805826 0)
(1.18387 0.823808 0)
(1.23501 0.842676 0)
(1.29936 0.85626 0)
(3 4.36175e-08 0)
(3 1.57159e-07 0)
(3 7.50417e-07 0)
(2.99999 1.56643e-06 0)
(2.99999 5.19256e-06 0)
(2.99997 9.82006e-06 0)
(2.99992 3.04465e-05 0)
(2.9998 5.57211e-05 0)
(2.99956 0.00017485 0)
(2.99887 0.000300686 0)
(2.99754 0.00105478 0)
(2.99326 0.00159664 0)
(2.98587 0.00679171 0)
(2.9586 0.0100342 0)
(2.90087 0.044618 0)
(2.72688 0.0882447 0)
(2.18347 0.314597 0)
(1.45819 0.720203 0)
(1.13511 0.808459 0)
(1.10846 0.823778 0)
(1.12869 0.823992 0)
(1.17343 0.819783 0)
(1.21912 0.828277 0)
(1.26662 0.840799 0)
(1.32362 0.850309 0)
(3 2.87268e-08 0)
(3 1.56387e-07 0)
(3 5.82461e-07 0)
(3 1.49478e-06 0)
(2.99999 4.12178e-06 0)
(2.99998 9.45896e-06 0)
(2.99994 2.46308e-05 0)
(2.99987 5.51969e-05 0)
(2.99966 0.000142142 0)
(2.99924 0.000317777 0)
(2.99802 0.000816651 0)
(2.99563 0.00182213 0)
(2.98833 0.00484373 0)
(2.97357 0.0104635 0)
(2.92776 0.0298802 0)
(2.81517 0.0757003 0)
(2.49845 0.204117 0)
(1.71617 0.602165 0)
(1.25015 0.809733 0)
(1.16485 0.836512 0)
(1.16793 0.845147 0)
(1.20562 0.838436 0)
(1.25228 0.836958 0)
(1.29701 0.842976 0)
(1.34761 0.848475 0)
(3 1.63437e-08 0)
(3 1.27502e-07 0)
(3 3.92292e-07 0)
(3 1.18551e-06 0)
(2.99999 2.81067e-06 0)
(2.99998 7.47483e-06 0)
(2.99996 1.68457e-05 0)
(2.9999 4.3734e-05 0)
(2.99978 9.74561e-05 0)
(2.99943 0.000252573 0)
(2.9988 0.000563379 0)
(2.99661 0.00145599 0)
(2.99307 0.00332621 0)
(2.97937 0.00841724 0)
(2.95565 0.0207262 0)
(2.86571 0.0525138 0)
(2.63856 0.147946 0)
(2.0646 0.393535 0)
(1.38376 0.808275 0)
(1.20868 0.858205 0)
(1.20082 0.867995 0)
(1.23031 0.86111 0)
(1.27889 0.850252 0)
(1.32529 0.84868 0)
(1.37189 0.850206 0)
(3 1.8022e-08 0)
(3 6.81078e-08 0)
(3 3.14896e-07 0)
(3 6.79368e-07 0)
(2.99999 2.19157e-06 0)
(2.99999 4.29607e-06 0)
(2.99997 1.29093e-05 0)
(2.99993 2.46941e-05 0)
(2.99983 7.36902e-05 0)
(2.99963 0.000137632 0)
(2.99902 0.000429772 0)
(2.99793 0.000745701 0)
(2.99413 0.00265327 0)
(2.98796 0.00424174 0)
(2.96442 0.0170935 0)
(2.91686 0.0284697 0)
(2.76779 0.114689 0)
(2.33675 0.279012 0)
(1.64602 0.718972 0)
(1.29709 0.857891 0)
(1.24788 0.879199 0)
(1.26017 0.881266 0)
(1.30279 0.867942 0)
(1.35106 0.859157 0)
(1.39618 0.855642 0)
(3 8.4332e-09 0)
(3 6.52643e-08 0)
(3 2.01244e-07 0)
(3 6.03809e-07 0)
(3 1.43101e-06 0)
(2.99999 3.76443e-06 0)
(2.99998 8.45789e-06 0)
(2.99995 2.16608e-05 0)
(2.99988 4.79584e-05 0)
(2.99973 0.000123194 0)
(2.9993 0.000267674 0)
(2.99847 0.000720421 0)
(2.99599 0.00147025 0)
(2.99141 0.00444982 0)
(2.97591 0.00868642 0)
(2.94667 0.0277534 0)
(2.84795 0.0645848 0)
(2.57459 0.195387 0)
(1.97009 0.523374 0)
(1.42458 0.839293 0)
(1.3025 0.885701 0)
(1.29591 0.898674 0)
(1.32658 0.889036 0)
(1.37408 0.873156 0)
(1.41907 0.86485 0)
(3 4.88082e-09 0)
(3 5.51782e-08 0)
(3 1.44307e-07 0)
(3 4.97938e-07 0)
(3 1.0392e-06 0)
(2.99999 3.0934e-06 0)
(2.99998 6.18978e-06 0)
(2.99997 1.78481e-05 0)
(2.99991 3.53896e-05 0)
(2.99981 0.000101491 0)
(2.99952 0.000200228 0)
(2.99893 0.000578252 0)
(2.99723 0.00112321 0)
(2.99399 0.00339319 0)
(2.98356 0.00614998 0)
(2.96416 0.021307 0)
(2.89741 0.0384517 0)
(2.72743 0.141545 0)
(2.29309 0.33729 0)
(1.60665 0.805198 0)
(1.36079 0.899198 0)
(1.33107 0.914631 0)
(1.34684 0.911161 0)
(1.39083 0.892409 0)
(1.43913 0.878073 0)
(3 3.5221e-09 0)
(3 3.89976e-08 0)
(3 1.02816e-07 0)
(3 3.52956e-07 0)
(3 7.41388e-07 0)
(3 2.19512e-06 0)
(2.99999 4.41952e-06 0)
(2.99998 1.26683e-05 0)
(2.99995 2.52851e-05 0)
(2.99986 7.20294e-05 0)
(2.9997 0.000143255 0)
(2.99924 0.000409919 0)
(2.99833 0.000807802 0)
(2.99561 0.00238079 0)
(2.99066 0.00449482 0)
(2.97399 0.0146952 0)
(2.94099 0.0264247 0)
(2.83583 0.0941383 0)
(2.54885 0.224219 0)
(1.93295 0.616604 0)
(1.47872 0.877341 0)
(1.38603 0.916203 0)
(1.38027 0.925626 0)
(1.41067 0.912867 0)
(1.45711 0.891446 0)
(3 4.13134e-09 0)
(3 2.22512e-08 0)
(3 8.28434e-08 0)
(3 2.12372e-07 0)
(3 5.82037e-07 0)
(3 1.33163e-06 0)
(2.99999 3.43227e-06 0)
(2.99998 7.6598e-06 0)
(2.99996 1.94751e-05 0)
(2.99991 4.31687e-05 0)
(2.9998 0.00010956 0)
(2.99949 0.000241951 0)
(2.99888 0.000618622 0)
(2.99706 0.00134875 0)
(2.99381 0.00359898 0)
(2.98248 0.00750617 0)
(2.96266 0.0218993 0)
(2.89209 0.048402 0)
(2.71316 0.147656 0)
(2.26772 0.388272 0)
(1.64611 0.833409 0)
(1.43855 0.921905 0)
(1.41285 0.936717 0)
(1.42752 0.931743 0)
(1.46913 0.909138 0)
(3 3.40332e-09 0)
(3 1.46142e-08 0)
(3 6.24333e-08 0)
(3 1.42866e-07 0)
(3 4.3431e-07 0)
(3 8.9914e-07 0)
(3 2.54982e-06 0)
(2.99999 5.1707e-06 0)
(2.99998 1.44256e-05 0)
(2.99994 2.90979e-05 0)
(2.99987 8.09695e-05 0)
(2.99966 0.000162553 0)
(2.99925 0.000456001 0)
(2.99809 0.000896287 0)
(2.9958 0.00265279 0)
(2.98908 0.00479381 0)
(2.97521 0.016445 0)
(2.93431 0.0283409 0)
(2.83304 0.10498 0)
(2.56393 0.235781 0)
(1.91984 0.668724 0)
(1.54497 0.890858 0)
(1.46227 0.931495 0)
(1.45655 0.941042 0)
(1.48419 0.927768 0)
(3 2.2536e-09 0)
(3 9.65037e-09 0)
(3 4.12672e-08 0)
(3 9.44631e-08 0)
(3 2.87183e-07 0)
(3 5.94461e-07 0)
(3 1.68558e-06 0)
(2.99999 3.41563e-06 0)
(2.99998 9.53085e-06 0)
(2.99996 1.92105e-05 0)
(2.99991 5.3477e-05 0)
(2.9998 0.000107431 0)
(2.99949 0.000300376 0)
(2.99889 0.000600099 0)
(2.99706 0.00170212 0)
(2.99389 0.00338255 0)
(2.98247 0.0098513 0)
(2.96271 0.0202814 0)
(2.8916 0.0602645 0)
(2.71629 0.146133 0)
(2.26715 0.414585 0)
(1.69498 0.841935 0)
(1.51254 0.93069 0)
(1.48678 0.947115 0)
(1.49842 0.943738 0)
(3 9.89217e-10 0)
(3 7.64649e-09 0)
(3 2.35791e-08 0)
(3 7.05569e-08 0)
(3 1.67121e-07 0)
(3 4.37357e-07 0)
(3 9.82578e-07 0)
(3 2.49447e-06 0)
(2.99999 5.53435e-06 0)
(2.99998 1.39462e-05 0)
(2.99994 3.07948e-05 0)
(2.99987 7.75701e-05 0)
(2.99966 0.000170543 0)
(2.99926 0.000434841 0)
(2.99812 0.000933624 0)
(2.99586 0.00253123 0)
(2.98928 0.0051241 0)
(2.97578 0.0154781 0)
(2.93618 0.0319648 0)
(2.83792 0.100479 0)
(2.57721 0.25436 0)
(1.96853 0.672209 0)
(1.61138 0.89993 0)
(1.53173 0.941915 0)
(1.52417 0.950273 0)
(3 5.54041e-10 0)
(3 5.61329e-09 0)
(3 1.53399e-08 0)
(3 5.07297e-08 0)
(3 1.0945e-07 0)
(3 3.1272e-07 0)
(3 6.44342e-07 0)
(3 1.78168e-06 0)
(2.99999 3.63404e-06 0)
(2.99998 9.97239e-06 0)
(2.99996 2.02752e-05 0)
(2.99992 5.56051e-05 0)
(2.99979 0.000112659 0)
(2.99953 0.000310273 0)
(2.99881 0.000624548 0)
(2.99739 0.00174443 0)
(2.9932 0.00348113 0)
(2.98519 0.00999207 0)
(2.95991 0.0204842 0)
(2.90338 0.0608661 0)
(2.74298 0.14192 0)
(2.28137 0.427238 0)
(1.78456 0.820832 0)
(1.58988 0.927925 0)
(1.55679 0.948999 0)
(3 4.3861e-10 0)
(3 3.38011e-09 0)
(3 1.04292e-08 0)
(3 3.11423e-08 0)
(3 7.37817e-08 0)
(3 1.92787e-07 0)
(3 4.33185e-07 0)
(3 1.09916e-06 0)
(3 2.43995e-06 0)
(2.99999 6.15356e-06 0)
(2.99998 1.3619e-05 0)
(2.99994 3.43346e-05 0)
(2.99988 7.58798e-05 0)
(2.99969 0.000191598 0)
(2.99931 0.000422487 0)
(2.99824 0.00107376 0)
(2.99612 0.00235523 0)
(2.99003 0.0061273 0)
(2.97729 0.0135657 0)
(2.94077 0.0361693 0)
(2.85244 0.0907688 0)
(2.60423 0.247339 0)
(2.04345 0.653246 0)
(1.6947 0.89297 0)
(1.60338 0.943291 0)
(3 4.02313e-10 0)
(3 1.75433e-09 0)
(3 7.3883e-09 0)
(3 1.71538e-08 0)
(3 5.13783e-08 0)
(3 1.07669e-07 0)
(3 3.00474e-07 0)
(3 6.15852e-07 0)
(3 1.68979e-06 0)
(2.99999 3.44544e-06 0)
(2.99999 9.41924e-06 0)
(2.99997 1.9167e-05 0)
(2.99992 5.24455e-05 0)
(2.99982 0.000106489 0)
(2.99954 0.000292896 0)
(2.999 0.000591842 0)
(2.99741 0.0016484 0)
(2.99453 0.00334028 0)
(2.98479 0.00941708 0)
(2.96756 0.0199474 0)
(2.9087 0.0564497 0)
(2.76438 0.138808 0)
(2.39102 0.388545 0)
(1.86317 0.806189 0)
(1.65594 0.930621 0)
(3 1.75344e-10 0)
(3 1.35385e-09 0)
(3 4.1773e-09 0)
(3 1.24859e-08 0)
(3 2.95727e-08 0)
(3 7.72535e-08 0)
(3 1.73463e-07 0)
(3 4.39486e-07 0)
(3 9.74678e-07 0)
(3 2.45112e-06 0)
(2.99999 5.41858e-06 0)
(2.99998 1.36035e-05 0)
(2.99995 3.00203e-05 0)
(2.99989 7.54154e-05 0)
(2.99971 0.000166018 0)
(2.99937 0.00041994 0)
(2.99841 0.000912793 0)
(2.99651 0.00239744 0)
(2.99108 0.00498553 0)
(2.9798 0.014306 0)
(2.94768 0.0300667 0)
(2.86935 0.0890911 0)
(2.65976 0.225726 0)
(2.14421 0.598974 0)
(1.76652 0.890491 0)
(3 9.41744e-11 0)
(3 9.20926e-10 0)
(3 2.55213e-09 0)
(3 8.32809e-09 0)
(3 1.81572e-08 0)
(3 5.11861e-08 0)
(3 1.06448e-07 0)
(3 2.90181e-07 0)
(3 5.97232e-07 0)
(3 1.6144e-06 0)
(2.99999 3.31481e-06 0)
(2.99999 8.94129e-06 0)
(2.99997 1.83365e-05 0)
(2.99993 4.94836e-05 0)
(2.99983 0.000101244 0)
(2.99962 0.000274255 0)
(2.99905 0.000558574 0)
(2.99793 0.00152896 0)
(2.99467 0.00310248 0)
(2.98856 0.00867227 0)
(2.96912 0.0179772 0)
(2.92864 0.0520522 0)
(2.81 0.120045 0)
(2.46838 0.359762 0)
(1.98477 0.740998 0)
(3 5.57838e-11 0)
(3 5.52508e-10 0)
(3 1.52312e-09 0)
(3 4.99427e-09 0)
(3 1.08361e-08 0)
(3 3.06397e-08 0)
(3 6.33766e-08 0)
(3 1.73149e-07 0)
(3 3.54283e-07 0)
(3 9.59489e-07 0)
(3 1.95826e-06 0)
(2.99999 5.29036e-06 0)
(2.99998 1.07864e-05 0)
(2.99996 2.91292e-05 0)
(2.9999 5.92835e-05 0)
(2.99975 0.000160388 0)
(2.99946 0.0003252 0)
(2.99863 0.000886962 0)
(2.99701 0.00177671 0)
(2.99224 0.00502478 0)
(2.98294 0.00973834 0)
(2.95485 0.0294154 0)
(2.88943 0.0625585 0)
(2.70682 0.187799 0)
(2.24881 0.487468 0)
(3 5.83205e-11 0)
(3 2.5046e-10 0)
(3 1.06381e-09 0)
(3 2.44183e-09 0)
(3 7.34561e-09 0)
(3 1.5196e-08 0)
(3 4.25259e-08 0)
(3 8.59006e-08 0)
(3 2.36299e-07 0)
(3 4.74287e-07 0)
(3 1.29992e-06 0)
(2.99999 2.60195e-06 0)
(2.99999 7.13238e-06 0)
(2.99997 1.42308e-05 0)
(2.99994 3.9093e-05 0)
(2.99984 7.76012e-05 0)
(2.99966 0.000214391 0)
(2.99914 0.000422186 0)
(2.99811 0.00118635 0)
(2.9952 0.00229637 0)
(2.98935 0.00675859 0)
(2.97253 0.0129371 0)
(2.93535 0.0400906 0)
(2.83068 0.0876144 0)
(2.54051 0.271071 0)
(3 3.3356e-11 0)
(3 1.32684e-10 0)
(3 5.92827e-10 0)
(3 1.30326e-09 0)
(3 4.0694e-09 0)
(3 8.0682e-09 0)
(3 2.3376e-08 0)
(3 4.51037e-08 0)
(3 1.28565e-07 0)
(3 2.45405e-07 0)
(3 6.98623e-07 0)
(3 1.32323e-06 0)
(2.99999 3.7798e-06 0)
(2.99998 7.09696e-06 0)
(2.99995 2.04021e-05 0)
(2.9999 3.78585e-05 0)
(2.99974 0.000110018 0)
(2.99944 0.000200922 0)
(2.99857 0.000595697 0)
(2.99687 0.00105426 0)
(2.99181 0.0032874 0)
(2.98219 0.00554294 0)
(2.95141 0.0188549 0)
(2.88176 0.0326608 0)
(2.68694 0.108848 0)
(3 1.12445e-11 0)
(3 8.61429e-11 0)
(3 2.66346e-10 0)
(3 7.87203e-10 0)
(3 1.86002e-09 0)
(3 4.76836e-09 0)
(3 1.06329e-08 0)
(3 2.62687e-08 0)
(3 5.76678e-08 0)
(3 1.40796e-07 0)
(3 3.07363e-07 0)
(3 7.47328e-07 0)
(2.99999 1.6265e-06 0)
(2.99999 3.95478e-06 0)
(2.99996 8.59954e-06 0)
(2.99992 2.09584e-05 0)
(2.99979 4.56924e-05 0)
(2.99954 0.000110971 0)
(2.99882 0.000245325 0)
(2.99744 0.000571798 0)
(2.9931 0.00134178 0)
(2.98543 0.00278962 0)
(2.95796 0.00711472 0)
(2.90002 0.0140747 0)
(2.72573 0.0370795 0)
(3 1.22828e-12 0)
(3 5.60712e-11 0)
(3 1.02146e-10 0)
(3 4.79927e-10 0)
(3 7.25772e-10 0)
(3 2.84378e-09 0)
(3 4.00958e-09 0)
(3 1.5439e-08 0)
(3 2.05247e-08 0)
(3 8.15682e-08 0)
(3 1.01351e-07 0)
(3 4.26094e-07 0)
(2.99999 4.86655e-07 0)
(2.99999 2.21414e-06 0)
(2.99997 2.2667e-06 0)
(2.99993 1.15029e-05 0)
(2.99982 1.01019e-05 0)
(2.9996 6.00313e-05 0)
(2.99895 4.07898e-05 0)
(2.99778 0.000323633 0)
(2.99365 7.47693e-05 0)
(2.98702 0.00202775 0)
(2.96057 -0.00108359 0)
(2.90638 0.012581 0)
(2.73749 -0.00276663 0)
(3 -1.86828e-12 0)
(3 2.98892e-11 0)
(3 2.45965e-11 0)
(3 2.4464e-10 0)
(3 1.86023e-10 0)
(3 1.43034e-09 0)
(3 9.36921e-10 0)
(3 7.69269e-09 0)
(3 3.91717e-09 0)
(3 4.02089e-08 0)
(3 1.31262e-08 0)
(3 2.07164e-07 0)
(2.99999 2.0817e-08 0)
(2.99999 1.05594e-06 0)
(2.99997 -1.99574e-07 0)
(2.99993 5.3409e-06 0)
(2.99983 -3.09178e-06 0)
(2.99957 2.73969e-05 0)
(2.99904 -3.18347e-05 0)
(2.99746 0.000163302 0)
(2.99451 -0.000331168 0)
(2.98448 0.00129794 0)
(2.96611 -0.00284447 0)
(2.8997 0.00904422 0)
(2.73044 -0.0108222 0)
(3 2.12721e-12 0)
(3 1.15316e-11 0)
(3 4.22463e-11 0)
(3 1.0827e-10 0)
(3 2.89146e-10 0)
(3 6.57044e-10 0)
(3 1.63456e-09 0)
(3 3.60276e-09 0)
(3 8.78762e-09 0)
(3 1.91879e-08 0)
(3 4.65651e-08 0)
(3 1.0135e-07 0)
(3 2.4602e-07 0)
(2.99999 5.35028e-07 0)
(2.99997 1.30236e-06 0)
(2.99993 2.83201e-06 0)
(2.99984 6.92616e-06 0)
(2.99958 1.50784e-05 0)
(2.99907 3.7202e-05 0)
(2.99754 8.08842e-05 0)
(2.99459 0.00020456 0)
(2.98499 0.000438757 0)
(2.9669 0.00116933 0)
(2.90271 0.002605 0)
(2.73858 0.00738722 0)
(3 5.44176e-12 0)
(3 -2.72543e-12 0)
(3 5.94757e-11 0)
(3 2.23347e-12 0)
(3 3.9596e-10 0)
(3 4.59099e-11 0)
(3 2.33866e-09 0)
(3 2.92653e-10 0)
(3 1.34984e-08 0)
(3 1.67936e-09 0)
(3 7.76984e-08 0)
(3 9.95623e-09 0)
(3 4.48677e-07 0)
(2.99999 6.21988e-08 0)
(2.99997 2.61106e-06 0)
(2.99993 3.91284e-07 0)
(2.99984 1.54008e-05 0)
(2.99959 2.14381e-06 0)
(2.9991 9.31742e-05 0)
(2.9976 -3.23782e-06 0)
(2.9948 0.000626783 0)
(2.98527 -0.000379359 0)
(2.96792 0.00456662 0)
(2.9046 -0.00400087 0)
(2.7432 0.0241942 0)
(3 4.52154e-12 0)
(3 -7.99215e-12 0)
(3 4.01991e-11 0)
(3 -4.53878e-11 0)
(3 2.67216e-10 0)
(3 -2.36419e-10 0)
(3 1.62327e-09 0)
(3 -1.23804e-09 0)
(3 9.67325e-09 0)
(3 -6.48354e-09 0)
(3 5.72904e-08 0)
(3 -3.38461e-08 0)
(3 3.38393e-07 0)
(2.99999 -1.76904e-07 0)
(2.99997 2.00218e-06 0)
(2.99994 -9.40173e-07 0)
(2.99984 1.19696e-05 0)
(2.99964 -5.23637e-06 0)
(2.99906 7.33517e-05 0)
(2.99798 -3.82551e-05 0)
(2.99428 0.000508946 0)
(2.98821 -0.000518133 0)
(2.96402 0.0041086 0)
(2.9161 -0.00462783 0)
(2.7583 0.0218948 0)
(3 5.68567e-13 0)
(3 4.37939e-12 0)
(3 1.32888e-11 0)
(3 4.09128e-11 0)
(3 9.68788e-11 0)
(3 2.62852e-10 0)
(3 5.95007e-10 0)
(3 1.566e-09 0)
(3 3.50983e-09 0)
(3 9.11949e-09 0)
(3 2.03697e-08 0)
(3 5.23945e-08 0)
(3 1.16712e-07 0)
(2.99999 2.97324e-07 0)
(2.99997 6.59885e-07 0)
(2.99994 1.66613e-06 0)
(2.99984 3.67439e-06 0)
(2.99964 9.27613e-06 0)
(2.99907 1.98375e-05 0)
(2.99797 5.46454e-05 0)
(2.99441 9.54753e-05 0)
(2.98826 0.00035516 0)
(2.96495 0.000606536 0)
(2.91864 0.00219229 0)
(2.76384 0.00567554 0)
(3 -2.97131e-12 0)
(3 1.66278e-11 0)
(3 -7.85669e-12 0)
(3 1.28035e-10 0)
(3 -3.209e-11 0)
(3 7.79833e-10 0)
(3 -1.5175e-10 0)
(3 4.58439e-09 0)
(3 -7.22275e-10 0)
(3 2.67877e-08 0)
(3 -3.34696e-09 0)
(3 1.56128e-07 0)
(3 -1.55017e-08 0)
(2.99999 9.09316e-07 0)
(2.99997 -8.18844e-08 0)
(2.99994 5.31045e-06 0)
(2.99985 -6.62068e-07 0)
(2.99966 3.11885e-05 0)
(2.9991 -1.05146e-05 0)
(2.99804 0.000199021 0)
(2.99453 -0.000208553 0)
(2.98863 0.00144557 0)
(2.9655 -0.00265719 0)
(2.92045 0.00875237 0)
(2.76765 -0.0126492 0)
(3 5.00457e-14 0)
(3 6.00369e-13 0)
(3 1.80106e-12 0)
(3 5.78561e-12 0)
(3 1.37116e-11 0)
(3 3.88631e-11 0)
(3 8.85175e-11 0)
(3 2.43272e-10 0)
(3 5.5058e-10 0)
(3 1.49059e-09 0)
(3 3.368e-09 0)
(3 8.98979e-09 0)
(3 2.0268e-08 0)
(2.99999 5.32539e-08 0)
(2.99998 1.19318e-07 0)
(2.99994 3.09318e-07 0)
(2.99986 6.85162e-07 0)
(2.99964 1.79321e-06 0)
(2.99921 3.7967e-06 0)
(2.9978 1.14744e-05 0)
(2.99544 1.93291e-05 0)
(2.98624 9.10095e-05 0)
(2.97056 0.000133194 0)
(2.91112 0.000704121 0)
(2.76093 0.00178415 0)
(3 3.15315e-12 0)
(3 -1.48757e-11 0)
(3 1.30118e-11 0)
(3 -1.11464e-10 0)
(3 7.13244e-11 0)
(3 -6.66851e-10 0)
(3 4.10487e-10 0)
(3 -3.85637e-09 0)
(3 2.38292e-09 0)
(3 -2.21735e-08 0)
(3 1.38706e-08 0)
(3 -1.2731e-07 0)
(3 8.11174e-08 0)
(2.99999 -7.3255e-07 0)
(2.99997 4.81893e-07 0)
(2.99994 -4.24713e-06 0)
(2.99985 3.03476e-06 0)
(2.99966 -2.48857e-05 0)
(2.99911 2.42973e-05 0)
(2.99806 -0.000160261 0)
(2.9946 0.000283613 0)
(2.98873 -0.00117238 0)
(2.96601 0.00311178 0)
(2.92185 -0.0068241 0)
(2.77129 0.0174249 0)
(3 -2.76235e-13 0)
(3 -2.23808e-12 0)
(3 -6.69548e-12 0)
(3 -1.99142e-11 0)
(3 -4.62079e-11 0)
(3 -1.21074e-10 0)
(3 -2.68631e-10 0)
(3 -6.87048e-10 0)
(3 -1.51158e-09 0)
(3 -3.8459e-09 0)
(3 -8.44591e-09 0)
(3 -2.14678e-08 0)
(3 -4.73294e-08 0)
(2.99999 -1.19986e-07 0)
(2.99997 -2.68608e-07 0)
(2.99994 -6.69902e-07 0)
(2.99984 -1.54129e-06 0)
(2.99965 -3.63149e-06 0)
(2.9991 -8.76627e-06 0)
(2.99802 -1.54971e-05 0)
(2.99461 -5.32232e-05 0)
(2.98858 -6.01492e-06 0)
(2.96629 -0.000225001 0)
(2.92243 0.000349164 0)
(2.77268 0.000454992 0)
(1.16245 1.00256 0)
(1.16662 0.710639 0)
(0.48662 0.474931 0)
(-0.439222 0.135505 0)
(-0.401837 -0.0115214 0)
(-0.631913 -0.0135898 0)
(-0.716651 -0.017477 0)
(-0.767783 -0.00033249 0)
(-0.824274 0.0167594 0)
(-0.893046 0.0201675 0)
(-0.957424 0.0167611 0)
(-1.01311 0.010973 0)
(-1.0647 0.0076188 0)
(-1.11579 0.00604042 0)
(-1.16469 0.00482947 0)
(-1.209 0.0033022 0)
(-1.24934 0.00150065 0)
(-1.28751 0.00109795 0)
(-1.31507 0.00351866 0)
(-1.32651 0.00371124 0)
(-1.32847 0.00232637 0)
(-1.32156 0.000373328 0)
(-1.29786 -0.00231021 0)
(-1.25353 -0.00583685 0)
(-1.19203 -0.00981497 0)
(-1.11931 -0.0132604 0)
(-1.04127 -0.0155778 0)
(-0.96161 -0.0168726 0)
(-0.88236 -0.0173351 0)
(-0.804396 -0.0173762 0)
(-0.728812 -0.0170047 0)
(-0.65641 -0.0164485 0)
(-0.587308 -0.0159338 0)
(-0.520887 -0.0159766 0)
(-0.456712 -0.0164976 0)
(-0.394123 -0.0174134 0)
(-0.331851 -0.0195464 0)
(-0.271805 -0.0208273 0)
(-0.21408 -0.0216578 0)
(-0.158455 -0.0224999 0)
(-0.104656 -0.0233326 0)
(-0.0526036 -0.0244996 0)
(-0.000824844 -0.0272268 0)
(0.0549009 -0.0257397 0)
(0.102112 -0.0230518 0)
(0.148488 -0.0216197 0)
(0.192528 -0.0206573 0)
(0.234489 -0.0196122 0)
(0.273593 -0.0185635 0)
(0.310738 -0.0178744 0)
(0.349139 -0.0178288 0)
(0.387859 -0.0177177 0)
(0.42478 -0.0170056 0)
(0.460055 -0.0161605 0)
(0.494161 -0.0154783 0)
(0.527272 -0.0149032 0)
(0.559501 -0.0143898 0)
(0.590877 -0.0138931 0)
(0.621471 -0.0134182 0)
(0.651315 -0.0129636 0)
(0.680456 -0.0125272 0)
(0.708926 -0.0121127 0)
(0.736759 -0.0117129 0)
(0.763988 -0.0113326 0)
(0.790643 -0.0109669 0)
(0.816756 -0.0106173 0)
(0.842351 -0.0102813 0)
(0.867456 -0.00995728 0)
(0.892092 -0.00964357 0)
(0.916284 -0.00933781 0)
(0.94005 -0.0090393 0)
(0.963409 -0.00874501 0)
(0.986378 -0.00845705 0)
(1.00897 -0.00817083 0)
(1.0312 -0.00788985 0)
(1.05308 -0.00760936 0)
(1.07461 -0.00733203 0)
(1.09581 -0.00705463 0)
(1.11667 -0.00677813 0)
(1.13721 -0.00650099 0)
(1.15742 -0.00622349 0)
(1.17731 -0.00594461 0)
(1.19689 -0.00566484 0)
(1.21615 -0.00538321 0)
(1.23511 -0.00510024 0)
(1.25376 -0.00481603 0)
(1.27211 -0.00452924 0)
(1.29016 -0.00424121 0)
(1.30791 -0.00394776 0)
(1.32534 -0.00365016 0)
(1.34243 -0.00334095 0)