/*--------------------------------*- C++ -*----------------------------------*\
| =========                 |                                                 |
| \\      /  F ield         | OpenFOAM: The Open Source CFD Toolbox           |
|  \\    /   O peration     | Version:  2112                                  |
|   \\  /    A nd           | Website:  www.openfoam.com                      |
|    \\/     M anipulation  |                                                 |
\*---------------------------------------------------------------------------*/
FoamFile
{
    version     2.0;
    format      ascii;
    arch        "LSB;label=32;scalar=64";
    class       volScalarField;
    location    "4";
    object      T;
}
// * * * * * * * * * * * * * * * * * * * * * * * * * * * * * * * * * * * * * //

dimensions      [0 0 0 1 0 0 0];

internalField   nonuniform List<scalar> 
1000
(
1.06045e-182
1.0605e-182
1.06068e-182
1.06118e-182
1.06244e-182
1.06555e-182
1.07302e-182
1.09088e-182
1.13347e-182
1.2348e-182
1.47566e-182
2.04778e-182
3.40599e-182
6.62892e-182
1.42734e-181
3.23976e-181
7.53511e-181
1.77107e-180
4.18066e-180
9.88427e-180
2.33795e-179
5.52973e-179
1.30756e-178
3.09078e-178
7.30313e-178
1.72495e-177
4.07255e-177
9.6112e-177
2.2673e-176
5.3464e-176
1.26018e-175
2.96909e-175
6.99248e-175
1.64611e-174
3.87349e-174
9.11094e-174
2.14211e-173
5.03425e-173
1.18262e-172
2.77696e-172
6.51793e-172
1.5292e-171
3.58618e-171
8.40647e-171
1.96974e-170
4.61335e-170
1.08003e-169
2.52736e-169
5.91166e-169
1.38217e-168
3.23018e-168
7.5457e-168
1.7619e-167
4.1122e-167
9.59343e-167
2.23708e-166
5.21431e-166
1.21484e-165
2.8291e-165
6.58542e-165
1.53223e-164
3.56344e-164
8.28362e-164
1.92475e-163
4.47026e-163
1.03775e-162
2.408e-162
5.585e-162
1.29476e-161
3.00026e-161
6.9491e-161
1.60878e-160
3.72278e-160
8.61064e-160
1.99068e-159
4.6001e-159
1.0625e-158
2.45295e-158
5.66038e-158
1.30556e-157
3.00986e-157
6.93568e-157
1.59745e-156
3.67754e-156
8.46219e-156
1.94626e-155
4.47415e-155
1.02805e-154
2.36106e-154
5.41989e-154
1.24356e-153
2.85187e-153
6.53706e-153
1.4977e-152
3.42969e-152
7.85006e-152
1.79588e-151
4.10647e-151
9.38525e-151
2.14392e-150
4.89503e-150
1.11709e-149
2.54802e-149
5.80898e-149
1.32367e-148
3.0147e-148
6.86258e-148
1.56139e-147
3.55073e-147
8.07054e-147
1.83344e-146
4.16302e-146
9.44777e-146
2.14302e-145
4.85849e-145
1.10091e-144
2.49332e-144
5.6439e-144
1.27689e-143
2.88738e-143
6.5257e-143
1.47408e-142
3.32804e-142
7.50979e-142
1.6937e-141
3.81783e-141
8.60132e-141
1.93679e-140
4.35882e-140
9.80443e-140
2.20416e-139
4.95257e-139
1.1122e-138
2.49633e-138
5.59995e-138
1.25554e-137
2.81346e-137
6.30105e-137
1.41042e-136
3.15532e-136
7.05504e-136
1.57658e-135
3.52121e-135
7.86006e-135
1.75355e-134
3.90992e-134
8.71315e-134
1.94061e-133
4.31972e-133
9.61011e-133
2.13676e-132
4.74827e-132
1.05455e-131
2.34074e-131
5.19266e-131
1.15127e-130
2.55102e-130
5.64937e-130
1.25036e-129
2.76578e-129
6.1143e-129
1.3509e-128
2.98294e-128
6.58282e-128
1.45185e-127
3.20021e-127
7.04979e-127
1.55209e-126
3.41506e-126
7.50966e-126
1.65037e-125
3.6248e-125
7.95654e-125
1.74543e-124
3.82664e-124
8.38434e-124
1.83593e-123
4.0177e-123
8.78686e-123
1.92054e-122
4.19513e-122
9.15797e-122
1.99795e-121
4.35611e-121
9.4917e-121
2.06689e-120
4.49799e-120
9.78245e-120
2.12619e-119
4.61832e-119
1.00251e-118
2.1748e-118
4.7149e-118
1.02152e-117
2.2118e-117
4.7859e-117
1.03491e-116
2.23645e-116
4.82988e-116
1.04239e-115
2.24823e-115
4.84582e-115
1.04378e-114
2.24681e-114
4.83321e-114
1.03901e-113
2.2321e-113
4.79202e-113
1.0281e-112
2.20424e-112
4.72273e-112
1.01119e-111
2.16363e-111
4.62634e-111
9.88546e-111
2.11086e-110
4.5043e-110
9.60499e-110
2.04677e-109
4.35853e-109
9.27495e-109
1.97234e-108
4.19133e-108
8.90056e-108
1.88877e-107
4.00533e-107
8.4877e-107
1.79737e-106
3.80343e-106
8.04277e-106
1.69952e-105
3.58871e-105
7.57249e-105
1.59672e-104
3.36437e-104
7.08379e-104
1.49043e-103
3.13361e-103
6.58355e-103
1.38216e-102
2.89959e-102
6.07851e-102
1.27332e-101
2.66535e-101
5.57508e-101
1.16526e-100
2.43373e-100
5.0792e-100
1.05924e-99
2.20731e-99
4.59626e-99
9.56352e-99
1.98839e-98
4.13097e-98
8.57575e-98
1.77893e-97
3.68732e-97
7.63709e-97
1.58055e-96
3.26853e-96
6.75397e-96
1.39452e-95
2.87708e-95
5.93113e-95
1.22174e-94
2.51466e-94
5.17172e-94
1.06278e-93
2.18227e-93
4.47737e-93
9.1789e-93
1.88022e-92
3.84835e-92
7.87028e-92
1.60824e-91
3.28368e-91
6.69906e-91
1.36556e-90
2.78132e-90
5.66021e-90
1.15095e-89
2.33839e-89
4.74697e-89
9.6284e-89
1.95132e-88
3.95127e-88
7.99429e-88
1.61605e-87
3.2641e-87
6.5872e-87
1.32822e-86
2.67586e-86
5.38626e-86
1.08327e-85
2.17676e-85
4.37026e-85
8.76654e-85
1.75699e-84
3.51829e-84
7.03902e-84
1.40706e-83
2.81013e-83
5.60736e-83
1.1179e-82
2.2267e-82
4.43132e-82
8.81079e-82
1.75027e-81
3.47381e-81
6.88831e-81
1.36466e-80
2.70111e-80
5.34151e-80
1.05533e-79
2.08311e-79
4.10806e-79
8.09393e-79
1.59324e-78
3.13326e-78
6.15614e-78
1.20841e-77
2.3698e-77
4.64302e-77
9.08824e-77
1.77724e-76
3.47218e-76
6.77709e-76
1.32151e-75
2.57442e-75
5.01039e-75
9.74191e-75
1.89233e-74
3.67222e-74
7.11929e-74
1.37886e-73
2.66796e-73
5.15718e-73
9.95901e-73
1.92128e-72
3.70284e-72
7.12931e-72
1.37128e-71
2.63494e-71
5.058e-71
9.69952e-71
1.85816e-70
3.55611e-70
6.79871e-70
1.29848e-69
2.47742e-69
4.72193e-69
8.99068e-69
1.71008e-68
3.24933e-68
6.16763e-68
1.16947e-67
2.21519e-67
4.19155e-67
7.92288e-67
1.49601e-66
2.8218e-66
5.31689e-66
1.00075e-65
1.88163e-65
3.53408e-65
6.63061e-65
1.24269e-64
2.3265e-64
4.35085e-64
8.12782e-64
1.5167e-63
2.82718e-63
5.26417e-63
9.79105e-63
1.81908e-62
3.37592e-62
6.25824e-62
1.15886e-61
2.1435e-61
3.96033e-61
7.30891e-61
1.34737e-60
2.48101e-60
4.56331e-60
8.38377e-60
1.53853e-59
2.82017e-59
5.16354e-59
9.44326e-59
1.72503e-58
3.14753e-58
5.73643e-58
1.04426e-57
1.89876e-57
3.44845e-57
6.25562e-57
1.13346e-56
2.05131e-56
3.70804e-56
6.69489e-56
1.20733e-55
2.17466e-55
3.91236e-55
7.03019e-55
1.26175e-54
2.26181e-54
4.04963e-54
7.24185e-54
1.29347e-53
2.30746e-53
4.11133e-53
7.31642e-53
1.30042e-52
2.30851e-52
4.09304e-52
7.24808e-52
1.28192e-51
2.26443e-51
3.995e-51
7.03932e-51
1.2388e-50
2.17733e-50
3.82209e-50
6.70084e-50
1.1733e-49
2.0518e-49
3.58351e-49
6.25069e-49
1.08891e-48
1.89452e-48
3.29191e-48
5.71264e-48
9.90067e-48
1.71368e-47
2.96231e-47
5.11406e-47
8.81727e-47
1.51822e-46
2.61075e-46
4.48358e-46
7.68974e-46
1.31712e-45
2.25301e-45
3.8488e-45
6.56613e-45
1.1187e-44
1.90344e-44
3.23431e-44
5.48833e-44
9.30069e-44
1.574e-43
2.66015e-43
4.48971e-43
7.56731e-43
1.27372e-42
2.14098e-42
3.59384e-42
6.02434e-42
1.00847e-41
1.68586e-41
2.81435e-41
4.69176e-41
7.81074e-41
1.29851e-40
2.15574e-40
3.57388e-40
5.91668e-40
9.78156e-40
1.61484e-39
2.6622e-39
4.3827e-39
7.20493e-39
1.18278e-38
1.93893e-38
3.174e-38
5.18839e-38
8.46917e-38
1.38048e-37
2.24697e-37
3.65211e-37
5.92744e-37
9.60653e-37
1.55468e-36
2.5124e-36
4.05425e-36
6.53287e-36
1.05116e-35
1.68889e-35
2.70959e-35
4.34083e-35
6.94398e-35
1.1092e-34
1.7692e-34
2.81778e-34
4.48125e-34
7.11629e-34
1.12841e-33
1.78666e-33
2.82473e-33
4.45931e-33
7.02937e-33
1.10642e-32
1.73893e-32
2.72895e-32
4.27625e-32
6.69089e-32
1.04534e-31
1.63072e-31
2.54011e-31
3.95072e-31
6.13548e-31
9.51412e-31
1.47311e-30
2.27745e-30
3.51567e-30
5.41892e-30
8.33991e-30
1.2816e-29
1.96648e-29
3.01278e-29
4.60878e-29
7.03958e-29
1.07361e-28
1.63489e-28
2.48582e-28
3.77388e-28
5.72065e-28
8.65845e-28
1.3085e-27
1.97443e-27
2.97472e-27
4.47493e-27
6.72144e-27
1.00803e-26
1.50945e-26
2.25682e-26
3.36906e-26
5.02175e-26
7.47366e-26
1.11057e-25
1.64774e-25
2.44097e-25
3.61051e-25
5.33221e-25
7.86277e-25
1.15764e-24
1.70179e-24
2.49785e-24
3.66063e-24
5.35644e-24
7.82576e-24
1.14158e-23
1.66271e-23
2.41799e-23
3.51093e-23
5.09001e-23
7.36791e-23
1.06488e-22
1.53668e-22
2.21409e-22
3.18521e-22
4.57519e-22
6.56158e-22
9.39588e-22
1.34337e-21
1.91771e-21
2.73338e-21
3.88996e-21
5.5274e-21
7.84198e-21
1.11086e-20
1.57118e-20
2.21881e-20
3.12857e-20
4.40456e-20
6.19142e-20
8.68977e-20
1.21775e-19
1.70388e-19
2.38042e-19
3.32046e-19
4.62463e-19
6.43116e-19
8.92964e-19
1.23798e-18
1.71367e-18
2.3685e-18
3.26856e-18
4.50376e-18
6.19625e-18
8.51177e-18
1.16748e-17
1.59887e-17
2.18633e-17
2.98509e-17
4.06948e-17
5.53936e-17
7.52871e-17
1.0217e-16
1.38441e-16
1.87306e-16
2.53034e-16
3.41311e-16
4.59692e-16
6.18197e-16
8.30105e-16
1.11297e-15
1.48999e-15
1.99173e-15
2.65844e-15
3.543e-15
4.71483e-15
6.26487e-15
8.31207e-15
1.10118e-14
1.45667e-14
1.92406e-14
2.53764e-14
3.34194e-14
4.39464e-14
5.7704e-14
7.56567e-14
9.90486e-14
1.29482e-13
1.69018e-13
2.20301e-13
2.86725e-13
3.72631e-13
4.83567e-13
6.26616e-13
8.10799e-13
1.0476e-12
1.35159e-12
1.74126e-12
2.24004e-12
2.87754e-12
3.69114e-12
4.72796e-12
6.04732e-12
7.72378e-12
9.85087e-12
1.25458e-11
1.59553e-11
2.02624e-11
2.56956e-11
3.25397e-11
4.11483e-11
5.19609e-11
6.55223e-11
8.2507e-11
1.03749e-10
1.30276e-10
1.63358e-10
2.04555e-10
2.55785e-10
3.194e-10
3.98284e-10
4.95964e-10
6.16748e-10
7.6589e-10
9.49791e-10
1.17623e-09
1.45467e-09
1.79656e-09
2.21579e-09
2.72913e-09
3.35684e-09
4.12333e-09
5.05801e-09
6.19622e-09
7.58036e-09
9.26126e-09
1.12998e-08
1.37686e-08
1.67545e-08
2.03609e-08
2.47108e-08
2.99503e-08
3.62531e-08
4.38245e-08
5.29078e-08
6.37902e-08
7.68107e-08
9.23685e-08
1.10933e-07
1.33057e-07
1.59387e-07
1.90682e-07
2.27828e-07
2.71862e-07
3.23993e-07
3.85628e-07
4.58405e-07
5.44227e-07
6.453e-07
7.64181e-07
9.03825e-07
1.06765e-06
1.25959e-06
1.48419e-06
1.74666e-06
2.05301e-06
2.4101e-06
2.82583e-06
3.30919e-06
3.87049e-06
4.52147e-06
5.2755e-06
6.14782e-06
7.1557e-06
8.31878e-06
9.65926e-06
1.12023e-05
1.29763e-05
1.50133e-05
1.73495e-05
2.00254e-05
2.30868e-05
2.65848e-05
3.05769e-05
3.51273e-05
4.03079e-05
4.61988e-05
5.28892e-05
6.04786e-05
6.90774e-05
7.88083e-05
8.98072e-05
0.000102224
0.000116226
0.000131996
0.000149737
0.000169671
0.000192043
0.000217123
0.000245204
0.000276609
0.000311692
0.000350838
0.000394467
0.000443035
0.000497041
0.000557024
0.000623571
0.000697314
0.00077894
0.00086919
0.00096886
0.00107881
0.00119997
0.00133333
0.00147994
0.00164097
0.00181761
0.00201117
0.00222304
0.0024547
0.00270772
0.00298376
0.00328458
0.00361207
0.00396819
0.00435503
0.00477478
0.00522977
0.00572241
0.00625525
0.00683096
0.00745232
0.00812226
0.00884379
0.00962008
0.0104544
0.0113502
0.0123109
0.0133402
0.0144418
0.0156197
0.0168777
0.0182199
0.0196506
0.021174
0.0227945
0.0245164
0.0263442
0.0282826
0.0303361
0.0325094
0.0348072
0.0372341
0.0397949
0.0424943
0.0453369
0.0483275
0.0514705
0.0547705
0.058232
0.0618594
0.0656568
0.0696284
0.0737781
0.0781098
0.0826271
0.0873334
0.0922319
0.0973256
0.102617
0.108109
0.113804
0.119703
0.125809
0.132121
0.138642
0.145372
0.152311
0.159459
0.166816
0.174379
0.18215
0.190124
0.198301
0.206678
0.215251
0.224019
0.232975
0.242118
0.251441
0.26094
0.270609
0.280443
0.290436
0.30058
0.31087
0.321296
0.331853
0.342532
0.353325
0.364223
0.375217
0.386298
0.397458
0.408685
0.419971
0.431306
0.44268
0.454081
0.465501
0.476928
0.488352
0.499763
0.511149
0.5225
0.533806
0.545056
0.556239
0.567345
0.578363
0.589283
0.600096
0.61079
0.621356
0.631785
0.642066
0.65219
0.662148
0.671931
0.681531
0.690937
0.700143
0.70914
0.71792
0.726476
0.734799
0.742883
0.750722
0.758307
0.765633
0.772694
0.779484
0.785997
0.792227
0.79817
0.80382
0.809174
0.814225
0.818971
0.823407
0.82753
0.831336
0.834821
0.837984
0.84082
0.843328
0.845506
0.847351
0.848861
0.850035
0.850872
0.851371
0.851531
0.851351
0.850831
0.849972
0.848772
0.847234
0.845358
0.843145
0.840596
0.837713
0.834499
0.830955
0.827084
0.822889
0.818374
0.813542
0.808396
0.802942
0.797184
0.791127
0.784776
0.778136
0.771215
0.764017
0.75655
0.74882
0.740835
0.732602
0.72413
0.715426
0.706499
0.697358
0.688011
0.678468
0.668739
0.658833
0.64876
0.63853
0.628154
0.617642
0.607005
0.596253
0.585398
0.574449
0.56342
0.552319
0.541158
0.529949
0.518703
0.507429
0.49614
0.484845
0.473556
0.462283
0.451037
0.439827
0.428663
0.417556
0.406515
0.395548
0.384666
0.373877
0.363188
0.352609
0.342147
0.331809
0.321603
0.311535
0.301611
0.291838
0.28222
0.272764
0.263474
0.254355
0.24541
0.236643
0.228057
0.219656
0.211442
0.203417
0.195582
0.187939
0.18049
0.173235
0.166174
0.159307
0.152635
0.146156
0.13987
0.133775
0.12787
0.122154
0.116626
0.111282
0.106123
0.10115
0.0963693
0.0918037
0.0875153
0.083671
0.0807091
)
;

boundaryField
{
    sides
    {
        type            zeroGradient;
    }
    empty
    {
        type            empty;
    }
}


// ************************************************************************* //
