/*--------------------------------*- C++ -*----------------------------------*\
| =========                 |                                                 |
| \\      /  F ield         | OpenFOAM: The Open Source CFD Toolbox           |
|  \\    /   O peration     | Version:  2112                                  |
|   \\  /    A nd           | Website:  www.openfoam.com                      |
|    \\/     M anipulation  |                                                 |
\*---------------------------------------------------------------------------*/
FoamFile
{
    version     2.0;
    format      ascii;
    arch        "LSB;label=32;scalar=64";
    class       volScalarField;
    location    "2";
    object      T;
}
// * * * * * * * * * * * * * * * * * * * * * * * * * * * * * * * * * * * * * //

dimensions      [0 0 0 1 0 0 0];

internalField   nonuniform List<scalar> 
1000
(
0
0
0
0
0
0
0
0
0
0
0
0
0
0
0
0
0
0
0
0
0
0
0
0
0
0
0
0
0
0
0
0
0
0
0
0
0
0
0
0
0
0
0
0
0
0
0
0
0
0
0
0
0
0
0
0
0
0
0
0
0
0
0
0
0
0
0
0
0
0
0
0
0
0
0
0
0
0
0
0
0
0
0
0
0
0
0
0
0
0
0
0
0
0
0
0
0
0
0
0
0
0
0
0
0
0
0
0
0
0
0
0
0
0
0
0
0
0
0
0
0
0
0
0
0
0
0
0
0
0
0
0
0
0
0
0
0
0
0
0
0
0
0
0
0
0
0
0
0
0
0
0
0
0
0
0
0
0
2.96439e-323
1.51678e-321
8.16938e-320
4.34751e-318
2.28328e-316
1.18293e-314
6.04279e-313
3.04207e-311
1.50838e-309
7.36206e-308
3.53463e-306
1.66811e-304
7.73186e-303
3.51663e-301
1.56785e-299
6.84389e-298
2.92104e-296
1.21708e-294
4.94126e-293
1.95034e-291
7.46329e-290
2.75907e-288
9.80843e-287
3.33188e-285
1.07162e-283
3.21654e-282
8.78422e-281
2.06869e-279
3.58036e-278
6.55407e-278
-3.11224e-275
-1.83915e-273
-7.35506e-272
-2.32095e-270
-5.68289e-269
-8.53564e-268
9.00539e-267
1.31065e-264
6.06254e-263
1.90081e-261
3.9531e-260
1.78759e-259
-2.92362e-257
-1.62995e-255
-5.19457e-254
-9.48629e-253
4.67394e-252
1.13598e-249
4.84618e-248
1.13355e-246
4.71065e-246
-8.79989e-244
-4.32132e-242
-1.0252e-240
-2.19954e-240
8.90915e-238
3.88189e-236
7.19317e-235
-8.51142e-234
-1.02017e-231
-3.10012e-230
-1.93019e-229
2.24367e-227
9.95041e-226
1.38762e-224
-4.65363e-223
-2.89556e-221
-5.17449e-220
1.07183e-218
8.28611e-217
1.53623e-215
-3.2281e-214
-2.39327e-212
-3.74496e-211
1.22398e-209
6.79882e-208
6.097e-207
-4.86046e-205
-1.74924e-203
4.70837e-203
1.74407e-200
3.33099e-199
-9.38507e-198
-4.97187e-196
-6.78745e-196
4.50566e-193
8.35307e-192
-2.82902e-190
-1.20692e-188
8.88896e-188
1.23515e-185
7.14446e-185
-1.05716e-182
-1.7659e-181
8.04454e-180
2.30448e-178
-5.65034e-177
-2.47445e-175
3.81942e-174
2.42533e-172
-2.66912e-171
-2.2662e-169
2.15047e-168
2.0561e-166
-2.14669e-165
-1.81164e-163
2.51596e-162
1.52036e-160
-3.09278e-159
-1.15674e-157
3.66917e-156
7.02074e-155
-3.98255e-153
-1.69723e-152
3.74473e-150
-3.68901e-149
-2.74698e-147
7.74565e-146
1.04487e-144
-8.76479e-143
8.62527e-142
5.77657e-140
-2.07363e-138
2.73166e-139
1.78513e-135
-4.84957e-134
-1.54569e-133
4.61545e-131
-1.31259e-129
3.71117e-129
9.86426e-127
-3.83731e-125
5.97678e-124
9.04364e-123
-8.64361e-121
2.86631e-119
-5.28622e-118
1.39544e-118
4.2851e-115
-2.08342e-113
6.92689e-112
-1.89086e-110
4.50628e-109
-9.65866e-108
1.89431e-106
-3.43786e-105
5.81885e-104
-9.23865e-103
1.38204e-101
-1.95471e-100
2.62123e-99
-3.34019e-98
4.0522e-97
-4.6874e-96
5.17665e-95
-5.46381e-94
5.51624e-93
-5.33074e-92
4.93353e-91
-4.37441e-90
3.71687e-89
-3.02675e-88
2.36213e-87
-1.76637e-86
1.26523e-85
-8.67656e-85
5.69268e-84
-3.5701e-83
2.13758e-82
-1.22007e-81
6.62554e-81
-3.4146e-80
1.6646e-79
-7.64216e-79
3.28393e-78
-1.30907e-77
4.77385e-77
-1.5546e-76
4.30266e-76
-8.81268e-76
4.63707e-76
7.10322e-75
-4.62519e-74
1.84809e-73
-5.28769e-73
9.1811e-73
6.07694e-73
-1.24246e-71
5.63459e-71
-1.54469e-70
1.95604e-70
5.5486e-70
-4.37182e-69
1.44057e-68
-2.30767e-68
-3.0846e-68
3.32587e-67
-1.08475e-66
1.45449e-66
3.54428e-66
-2.56092e-65
6.5717e-65
-2.96934e-65
-4.2232e-64
1.69429e-63
-2.4176e-63
-5.09827e-63
3.48097e-62
-7.10783e-62
-4.01511e-62
6.40862e-61
-1.58325e-60
-5.95724e-62
1.13344e-59
-3.03805e-59
2.51475e-60
2.00075e-58
-5.21374e-58
-4.62492e-59
3.53074e-57
-7.94828e-57
-4.52669e-57
6.03696e-56
-1.02065e-55
-1.58876e-55
9.49646e-55
-9.313e-55
-3.87369e-54
1.28102e-53
-8.28395e-55
-7.2608e-53
1.304e-52
1.91607e-52
-1.04233e-51
5.89342e-52
4.80342e-51
-1.03414e-50
-1.08389e-50
6.99839e-50
-3.76618e-50
-3.1427e-49
5.90429e-49
8.78578e-49
-4.00664e-48
1.69031e-49
1.95784e-47
-2.14321e-47
-7.29438e-47
1.73483e-46
1.83735e-46
-9.78063e-46
-1.63556e-47
4.51156e-45
-3.44707e-45
-1.77838e-44
2.79725e-44
5.98926e-44
-1.60619e-43
-1.63467e-43
7.82873e-43
2.80064e-43
-3.44141e-42
4.25961e-43
1.40631e-41
-7.34231e-42
-5.4466e-41
4.77215e-41
2.02917e-40
-2.43522e-40
-7.36777e-40
1.09922e-39
2.63942e-39
-4.58336e-39
-9.43522e-39
1.8013e-38
3.39677e-38
-6.7373e-38
-1.23822e-37
2.40586e-37
4.5718e-37
-8.18437e-37
-1.70165e-36
2.63021e-36
6.33012e-36
-7.84252e-36
-2.32842e-35
2.08766e-35
8.37106e-35
-4.48248e-35
-2.90588e-34
4.64676e-35
9.60839e-34
2.298e-34
-2.97448e-33
-2.04945e-33
8.39877e-33
1.05327e-32
-2.05821e-32
-4.34888e-32
3.83004e-32
1.54142e-31
-2.11452e-32
-4.73179e-31
-2.47413e-31
1.22319e-30
1.57841e-30
-2.40361e-30
-6.32976e-30
2.01455e-30
1.95408e-29
1.01479e-29
-4.62271e-29
-6.76001e-29
6.85122e-29
2.46597e-28
3.9189e-29
-6.30444e-28
-7.08555e-28
9.91296e-28
2.86937e-27
3.06106e-28
-7.20323e-27
-8.41743e-27
9.58162e-27
3.21829e-26
1.14273e-26
-6.88989e-26
-1.08545e-25
4.57842e-26
3.26241e-25
2.81881e-25
-4.60122e-25
-1.26956e-24
-4.8495e-25
2.46889e-24
4.40194e-24
-1.23605e-25
-1.07354e-23
-1.43215e-23
5.77689e-24
4.19849e-23
4.58121e-23
-3.28775e-23
-1.54768e-22
-1.50771e-22
1.34663e-22
5.50522e-22
5.27539e-22
-4.49828e-22
-1.90355e-21
-1.96956e-21
1.18408e-21
6.34945e-21
7.63715e-21
-1.72677e-21
-1.99399e-20
-2.94933e-20
-5.47232e-21
5.60497e-20
1.08558e-19
6.50057e-20
-1.24748e-19
-3.63254e-19
-3.75371e-19
1.17099e-19
1.0302e-18
1.63243e-18
7.81037e-19
-2.07841e-18
-5.58952e-18
-6.0985e-18
3.94805e-19
1.38617e-17
2.60122e-17
2.11006e-17
-1.41171e-17
-7.3033e-17
-1.15685e-16
-7.706e-17
9.00283e-17
3.47302e-16
5.22048e-16
3.42953e-16
-3.91887e-16
-1.54673e-15
-2.43341e-15
-1.89778e-15
1.08245e-15
6.32988e-15
1.14103e-14
1.14988e-14
1.15473e-15
-2.16537e-14
-5.04097e-14
-6.6828e-14
-4.38654e-14
4.15045e-14
1.86227e-13
3.37418e-13
3.82555e-13
1.73544e-13
-4.0065e-13
-1.29745e-12
-2.19765e-12
-2.45095e-12
-1.18822e-12
2.31646e-12
8.0286e-12
1.44209e-11
1.7955e-11
1.32763e-11
-5.33784e-12
-4.09375e-11
-8.94757e-11
-1.35101e-10
-1.4737e-10
-8.35537e-11
1.00498e-10
4.28473e-10
8.71145e-10
1.30892e-09
1.50184e-09
1.08714e-09
-3.69957e-10
-3.24564e-09
-7.62919e-09
-1.30007e-08
-1.78557e-08
-1.93724e-08
-1.32785e-08
5.85363e-09
4.36112e-08
1.03756e-07
1.85024e-07
2.76649e-07
3.5284e-07
3.6693e-07
2.46526e-07
-1.08119e-07
-8.19366e-07
-2.01677e-06
-3.80556e-06
-6.21254e-06
-9.10202e-06
-1.20539e-05
-1.41961e-05
-1.39839e-05
-8.91982e-06
4.78837e-06
3.26347e-05
8.22823e-05
0.000164085
0.00029165
0.000482429
0.000758307
0.00114617
0.00167844
0.00239348
0.00333593
0.00455687
0.0061138
0.00807045
0.0104963
0.0134659
0.0170581
0.0213545
0.0264388
0.0323944
0.0393033
0.047244
0.0562899
0.066507
0.0779525
0.0906728
0.104702
0.120061
0.136755
0.154775
0.174096
0.194677
0.21646
0.239375
0.263334
0.288238
0.313979
0.340434
0.367477
0.394974
0.422787
0.450777
0.478805
0.506735
0.534435
0.561779
0.588647
0.61493
0.640527
0.66535
0.689318
0.712367
0.73444
0.755494
0.775498
0.794429
0.812277
0.829042
0.84473
0.859359
0.87295
0.885534
0.897144
0.90782
0.917603
0.926539
0.934675
0.942059
0.948738
0.954762
0.960178
0.965032
0.96937
0.973236
0.97667
0.979713
0.982401
0.984768
0.986848
0.988671
0.990263
0.991651
0.992857
0.993902
0.994806
0.995586
0.996257
0.996833
0.997326
0.997747
0.998106
0.998411
0.998671
0.998892
0.999079
0.999238
0.999371
0.999483
0.999575
0.999646
0.999696
0.999722
0.999716
0.999671
0.999573
0.999407
0.999152
0.998781
0.998262
0.997558
0.996625
0.995412
0.993861
0.991909
0.989487
0.986521
0.982931
0.978637
0.973554
0.9676
0.960692
0.952753
0.943707
0.933491
0.922046
0.909326
0.895297
0.879938
0.863244
0.845224
0.825903
0.805323
0.783539
0.760625
0.736666
0.711761
0.686021
0.659566
0.632523
0.605026
0.577213
0.549223
0.521195
0.493265
0.465565
0.438221
0.411353
0.38507
0.359473
0.33465
0.310682
0.287633
0.26556
0.244506
0.224502
0.205571
0.187723
0.170958
0.15527
0.140641
0.12705
0.114466
0.102856
0.0921803
0.0823968
0.0734606
0.0653247
0.0579412
0.0512618
0.045238
0.0398223
0.0349678
0.0306296
0.026764
0.0233297
0.0202872
0.0175994
0.0152317
0.0131516
0.0113293
0.00973693
0.0083493
0.00714323
0.00609767
0.00519358
0.00441379
0.00374288
0.00316708
0.00267411
0.00225307
0.00189432
0.00158936
0.00133074
0.00111191
0.000927173
0.000771569
0.000640796
0.000531133
0.000439372
0.000362756
0.000298921
0.000245849
0.000201815
0.000165357
0.000135232
0.000110391
8.99476e-05
7.31571e-05
5.93937e-05
4.81335e-05
3.8939e-05
3.14455e-05
2.53498e-05
2.04005e-05
1.63894e-05
1.31445e-05
1.05244e-05
8.41245e-06
6.71317e-06
5.34834e-06
4.25404e-06
3.37818e-06
2.67834e-06
2.12011e-06
1.67558e-06
1.32219e-06
1.04171e-06
8.19461e-07
6.43646e-07
5.04787e-07
3.95289e-07
3.09082e-07
2.41317e-07
1.88133e-07
1.46457e-07
1.13848e-07
8.83722e-08
6.84996e-08
5.30209e-08
4.09822e-08
3.16329e-08
2.43828e-08
1.87686e-08
1.44274e-08
1.10753e-08
8.49069e-09
6.50057e-09
4.97033e-09
3.79533e-09
2.89433e-09
2.20437e-09
1.67673e-09
1.27376e-09
9.66418e-10
7.3231e-10
5.54222e-10
4.18922e-10
3.16264e-10
2.38471e-10
1.79595e-10
1.35092e-10
1.01495e-10
7.61634e-11
5.70867e-11
4.2738e-11
3.19586e-11
2.38704e-11
1.78088e-11
1.32713e-11
9.87867e-12
7.34508e-12
5.45519e-12
4.04707e-12
2.99911e-12
2.22008e-12
1.64162e-12
1.21257e-12
8.94693e-13
6.59445e-13
4.85537e-13
3.57116e-13
2.62386e-13
1.92585e-13
1.41206e-13
1.03428e-13
7.56801e-14
5.53203e-14
4.0397e-14
2.947e-14
2.14772e-14
1.56367e-14
1.13733e-14
8.2643e-15
5.99933e-15
4.35091e-15
3.1524e-15
2.28186e-15
1.65015e-15
1.19221e-15
8.60541e-16
6.20566e-16
4.47098e-16
3.21824e-16
2.3144e-16
1.66288e-16
1.1937e-16
8.56123e-17
6.13467e-17
4.39198e-17
3.14157e-17
2.24518e-17
1.60316e-17
1.14374e-17
8.15273e-18
5.80639e-18
4.1318e-18
2.93768e-18
2.08691e-18
1.48128e-18
1.05054e-18
7.44431e-19
5.27084e-19
3.72888e-19
2.63587e-19
1.86173e-19
1.3139e-19
9.26523e-20
6.52837e-20
4.59631e-20
3.23349e-20
2.27296e-20
1.59652e-20
1.12052e-20
7.85834e-21
5.5069e-21
3.85614e-21
2.69816e-21
1.88649e-21
1.318e-21
9.20133e-22
6.41894e-22
4.4746e-22
3.11692e-22
2.1696e-22
1.5091e-22
1.04891e-22
7.28532e-23
5.05646e-23
3.50699e-23
2.4306e-23
1.68339e-23
1.16507e-23
8.0578e-24
5.569e-24
3.84625e-24
2.6546e-24
1.83089e-24
1.26191e-24
8.69165e-25
5.98248e-25
4.11499e-25
2.82856e-25
1.943e-25
1.33381e-25
9.15011e-26
6.273e-26
4.29774e-26
2.94255e-26
2.01338e-26
1.37673e-26
9.40793e-27
6.42484e-27
4.38485e-27
2.9907e-27
2.03854e-27
1.38865e-27
9.45358e-28
6.43178e-28
4.37319e-28
2.97165e-28
2.01806e-28
1.36963e-28
9.28992e-29
6.29736e-29
4.26623e-29
2.88849e-29
1.95451e-29
1.32175e-29
8.93318e-30
6.03402e-30
4.07346e-30
2.74734e-30
1.86253e-30
1.14771e-30
)
;

boundaryField
{
    sides
    {
        type            zeroGradient;
    }
    empty
    {
        type            empty;
    }
}


// ************************************************************************* //
