/*--------------------------------*- C++ -*----------------------------------*\
| =========                 |                                                 |
| \\      /  F ield         | OpenFOAM: The Open Source CFD Toolbox           |
|  \\    /   O peration     | Version:  2112                                  |
|   \\  /    A nd           | Website:  www.openfoam.com                      |
|    \\/     M anipulation  |                                                 |
\*---------------------------------------------------------------------------*/
FoamFile
{
    version     2.0;
    format      ascii;
    arch        "LSB;label=32;scalar=64";
    class       volScalarField;
    location    "0.06";
    object      p;
}
// * * * * * * * * * * * * * * * * * * * * * * * * * * * * * * * * * * * * * //

dimensions      [1 -1 -2 0 0 0 0];

internalField   nonuniform List<scalar> 
1000
(
1
1
1
1
1
1
1
1
1
1
1
1
1
1
1
1
1
1
1
1
1
1
1
1
1
1
1
1
1
1
1
1
1
1
1
1
1
1
1
1
1
1
1
1
1
1
1
1
1
1
1
1
1
1
1
1
1
1
1
1
1
1
1
1
1
1
1
1
1
1
1
1
1
1
1
1
1
1
1
1
1
1
1
1
1
1
1
1
1
1
1
1
1
1
1
1
1
1
1
1
1
1
1
1
1
1
1
1
1
1
1
1
1
1
1
1
1
1
1
1
1
1
1
1
1
1
1
1
1
1
1
1
1
1
1
1
1
1
1
1
1
1
1
1
1
1
1
1
1
1
1
1
1
1
1
1
1
1
1
1
1
1
1
1
1
1
1
1
1
1
1
1
1
1
1
1
1
1
1
1
1
1
1
1
1
1
1
1
1
1
1
1
1
1
1
1
1
1
1
1
1
1
1
1
1
1
1
1
1
1
1
1
1
1
1
1
1
1
1
1
1
1
1
1
1
1
1
1
1
1
1
1
1
1
1
1
1
1
1
1
1
1
1
1
1
1
1
1
1
1
1
1
1
1
1
1
1
1
1
1
1
1
1
1
1
1
1
1
1
1
1
1
1
1
1
1
1
1
1
1
1
1
1
1
1
1
1
1
1
1
1
1
1
1
1
1
1
1
1
1
1
1
1
1
1
1
1
1
1
1
1
1
1
1
1
1
1
1
1
1
1
1
1
1
1
1
1
1
1
1
1
1
1
1
1
1
1
1
1
1
1
1
1
1
1
1
1
1
1
1
1
1
1
1
1
1
1
1
1
1
1
1
1
1
1
1
0.99999999
0.99999999
0.99999999
0.99999998
0.99999997
0.99999995
0.99999993
0.9999999
0.99999986
0.9999998
0.9999997
0.99999957
0.99999939
0.99999912
0.99999875
0.99999823
0.9999975
0.99999649
0.99999508
0.99999314
0.99999047
0.99998683
0.99998189
0.9999752
0.99996619
0.99995414
0.99993809
0.99991684
0.99988886
0.99985221
0.99980448
0.9997427
0.9996632
0.99956152
0.99943228
0.99926904
0.99906417
0.99880874
0.99849239
0.99810323
0.99762774
0.99705083
0.99635573
0.99552414
0.99453634
0.99337135
0.99200724
0.99042137
0.98859086
0.98649295
0.98410544
0.98140723
0.97837869
0.97500214
0.97126227
0.96714641
0.96264483
0.9577509
0.95246122
0.94677556
0.94069687
0.93423105
0.92738682
0.92017541
0.91261026
0.90470677
0.89648188
0.88795382
0.87914174
0.87006547
0.86074518
0.85120123
0.84145387
0.83152315
0.82142867
0.81118958
0.80082437
0.79035088
0.77978623
0.76914678
0.75844811
0.74770503
0.73693157
0.726141
0.71534583
0.70455787
0.69378819
0.68304722
0.67234472
0.66168982
0.65109107
0.64055645
0.63009338
0.61970881
0.60940917
0.59920047
0.58908824
0.57907767
0.56917351
0.55938014
0.54970177
0.54014153
0.5307038
0.52138898
0.51220182
0.50313889
0.49420203
0.48539028
0.4767128
0.46828534
0.4598637
0.45188693
0.4438613
0.4361388
0.42826726
0.42062474
0.41316408
0.40590681
0.39884048
0.39195558
0.3852583
0.378755
0.37245026
0.36635135
0.36046863
0.35481394
0.34939961
0.34423886
0.33934566
0.33473476
0.33042095
0.32641867
0.32274116
0.31939964
0.31640223
0.3137527
0.31144949
0.30948472
0.30784383
0.30650555
0.30544248
0.30462254
0.30401033
0.30356955
0.30326478
0.30306442
0.30293372
0.30286774
0.30281772
0.302811
0.30278464
0.30278161
0.30278367
0.30277703
0.30277494
0.30278082
0.30278677
0.30280532
0.30283507
0.30287388
0.30291693
0.30295838
0.30299421
0.30302321
0.30304604
0.30306407
0.30307849
0.30309024
0.30309997
0.30310801
0.30311441
0.30311782
0.30311615
0.3031133
0.30310779
0.30309937
0.30308897
0.30307752
0.30306598
0.30305514
0.30304574
0.30303793
0.30303548
0.30303605
0.30303981
0.30304758
0.30305958
0.30307536
0.30309432
0.30311551
0.30313779
0.3031601
0.30318132
0.30320023
0.3032156
0.3032268
0.30323335
0.30323439
0.30323181
0.30322768
0.30321768
0.30320206
0.30319054
0.30317724
0.3031645
0.30314588
0.30312669
0.30310615
0.30308345
0.30305773
0.3030286
0.30299228
0.3029503
0.30289477
0.30283294
0.30275004
0.30264159
0.30250376
0.30232743
0.30210122
0.30181085
0.30143833
0.30096101
0.30035045
0.299571
0.29857818
0.29731667
0.29571804
0.29369807
0.29115399
0.28796151
0.28397233
0.27901256
0.27288346
0.26536622
0.25623406
0.24527601
0.23233875
0.21739394
0.20063669
0.18260792
0.1642862
0.14701331
0.1321438
0.12056113
0.11239633
0.10713431
0.10397595
0.10217205
0.10117314
0.10062971
0.10033691
0.10017995
0.10009603
0.10005122
0.10002731
0.10001456
0.10000776
0.10000413
0.1000022
0.10000117
0.10000062
0.10000033
0.10000018
0.10000009
0.10000005
0.10000003
0.10000001
0.10000001
0.1
0.1
0.1
0.1
0.1
0.1
0.1
0.1
0.1
0.1
0.1
0.1
0.1
0.1
0.1
0.1
0.1
0.1
0.1
0.1
0.1
0.1
0.1
0.1
0.1
0.1
0.1
0.1
0.1
0.1
0.1
0.1
0.1
0.1
0.1
0.1
0.1
0.1
0.1
0.1
0.1
0.1
0.1
0.1
0.1
0.1
0.1
0.1
0.1
0.1
0.1
0.1
0.1
0.1
0.1
0.1
0.1
0.1
0.1
0.1
0.1
0.1
0.1
0.1
0.1
0.1
0.1
0.1
0.1
0.1
0.1
0.1
0.1
0.1
0.1
0.1
0.1
0.1
0.1
0.1
0.1
0.1
0.1
0.1
0.1
0.1
0.1
0.1
0.1
0.1
0.1
0.1
0.1
0.1
0.1
0.1
0.1
0.1
0.1
0.1
0.1
0.1
0.1
0.1
0.1
0.1
0.1
0.1
0.1
0.1
0.1
0.1
0.1
0.1
0.1
0.1
0.1
0.1
0.1
0.1
0.1
0.1
0.1
0.1
0.1
0.1
0.1
0.1
0.1
0.1
0.1
0.1
0.1
0.1
0.1
0.1
0.1
0.1
0.1
0.1
0.1
0.1
0.1
0.1
0.1
0.1
0.1
0.1
0.1
0.1
0.1
0.1
0.1
0.1
0.1
0.1
0.1
0.1
0.1
0.1
0.1
0.1
0.1
0.1
0.1
0.1
0.1
0.1
0.1
0.1
0.1
0.1
0.1
0.1
0.1
0.1
0.1
0.1
0.1
0.1
0.1
0.1
0.1
0.1
0.1
0.1
0.1
0.1
0.1
0.1
0.1
0.1
0.1
0.1
0.1
0.1
0.1
0.1
0.1
0.1
0.1
0.1
0.1
0.1
0.1
0.1
0.1
0.1
0.1
0.1
0.1
0.1
0.1
0.1
0.1
0.1
0.1
0.1
0.1
0.1
0.1
0.1
0.1
0.1
0.1
0.1
0.1
0.1
0.1
0.1
0.1
0.1
0.1
0.1
0.1
0.1
0.1
0.1
0.1
0.1
0.1
0.1
0.1
0.1
0.1
0.1
0.1
0.1
0.1
0.1
0.1
0.1
0.1
0.1
0.1
0.1
0.1
0.1
0.1
0.1
0.1
0.1
0.1
0.1
0.1
0.1
0.1
0.1
0.1
0.1
0.1
0.1
0.1
0.1
0.1
0.1
0.1
0.1
0.1
0.1
0.1
0.1
0.1
0.1
0.1
0.1
0.1
0.1
0.1
0.1
0.1
0.1
0.1
0.1
0.1
0.1
0.1
0.1
0.1
0.1
0.1
0.1
0.1
0.1
0.1
0.1
0.1
0.1
0.1
0.1
0.1
0.1
0.1
0.1
0.1
0.1
0.1
0.1
0.1
0.1
0.1
0.1
0.1
0.1
0.1
0.1
0.1
0.1
0.1
0.1
0.1
0.1
0.1
0.1
0.1
0.1
0.1
0.1
0.1
0.1
0.1
0.1
0.1
0.1
0.1
0.1
0.1
0.1
0.1
0.1
0.1
0.1
0.1
0.1
0.1
0.1
0.1
0.1
0.1
0.1
0.1
0.1
0.1
0.1
0.1
)
;

boundaryField
{
    sides
    {
        type            zeroGradient;
    }
    emptywalls
    {
        type            empty;
    }
}


// ************************************************************************* //
