/*--------------------------------*- C++ -*----------------------------------*\
| =========                 |                                                 |
| \\      /  F ield         | OpenFOAM: The Open Source CFD Toolbox           |
|  \\    /   O peration     | Version:  2112                                  |
|   \\  /    A nd           | Website:  www.openfoam.com                      |
|    \\/     M anipulation  |                                                 |
\*---------------------------------------------------------------------------*/
FoamFile
{
    version     2.0;
    format      ascii;
    arch        "LSB;label=32;scalar=64";
    class       surfaceScalarField;
    location    "0.06";
    object      phi;
}
// * * * * * * * * * * * * * * * * * * * * * * * * * * * * * * * * * * * * * //

dimensions      [1 0 -1 0 0 0 0];

oriented        oriented;

internalField   nonuniform List<scalar> 
999
(
2.1709079e-11
2.2996161e-11
7.4499296e-12
4.0810133e-11
1.592837e-11
1.7960633e-11
1.9766633e-11
3.8706816e-11
4.6355364e-11
3.7615466e-11
5.5055294e-11
4.7332693e-11
4.198708e-11
5.6080141e-11
4.8974047e-11
4.4224291e-11
3.9872994e-11
3.6323389e-11
3.7745806e-11
5.0378035e-11
4.4512505e-11
4.868661e-11
5.0407234e-11
3.3588687e-11
2.4892199e-11
5.2368998e-11
5.9104055e-11
6.2764793e-11
5.4384275e-11
3.72814e-11
3.805678e-11
5.3444915e-11
3.9872994e-11
4.404499e-11
3.8558268e-11
3.9606429e-11
4.0077275e-11
5.7861826e-11
6.6912809e-11
6.3262173e-11
5.8750671e-11
5.7958305e-11
3.5887182e-11
2.3381075e-11
2.9529268e-11
3.9719894e-11
6.1781025e-11
6.8513417e-11
3.6801007e-11
3.7092662e-11
2.7322478e-11
4.5661253e-11
4.306977e-11
3.6463832e-11
1.5536683e-11
1.4450663e-11
8.6515239e-12
-5.9572347e-12
-1.7576385e-11
-2.1398439e-12
-9.5026209e-12
-1.3628876e-11
9.2403862e-12
7.3496764e-13
-4.4775295e-13
-4.9400484e-12
3.3426595e-12
-1.6597723e-11
-6.6273653e-12
-1.7752799e-11
2.0696778e-12
-1.1793233e-11
-1.7323254e-11
-2.3318902e-11
-2.1447844e-11
-1.3040902e-11
-1.255851e-11
4.3901549e-12
2.7120639e-11
3.3354652e-11
1.2466361e-11
2.4356739e-11
-3.1716851e-12
-5.7851501e-12
-1.8207658e-11
-1.5749624e-12
-1.0576873e-11
-7.7146067e-12
-7.6347817e-12
-9.2628127e-12
-1.061895e-11
-1.9351187e-11
-2.1529112e-11
-2.4282798e-12
-1.6191715e-11
-9.8591135e-12
1.0781265e-11
-7.780443e-13
5.4574123e-12
-1.86966e-11
-1.4693802e-11
2.6690872e-12
6.3665739e-12
-1.2519985e-12
-7.4482642e-12
-1.5843993e-12
-1.4984569e-11
-1.9119151e-11
-1.7264412e-11
5.4889426e-12
-6.0513816e-12
1.8504087e-12
2.6393332e-12
-4.2698067e-12
-4.7477577e-12
1.7019386e-11
8.2812646e-12
1.2695511e-11
1.9095836e-14
1.1870616e-11
-9.1315844e-13
1.938627e-11
-2.6902924e-12
-1.0395018e-12
1.4557244e-12
1.5467627e-11
1.3366086e-11
5.0061066e-12
6.371792e-12
-7.8657081e-12
-1.0350054e-11
-3.0094816e-12
2.7452485e-12
-7.850276e-12
-1.4368506e-12
-3.3655967e-11
-5.1370241e-11
-2.1100233e-11
-1.6198265e-11
-6.6773254e-12
-3.2164049e-11
-2.1298852e-11
-2.6125102e-11
-4.4835469e-11
-4.8785309e-11
-5.1648463e-11
-3.0652814e-11
-2.3794522e-11
-6.5345507e-12
-2.6937674e-11
-1.1088463e-11
9.8450137e-12
-1.3016477e-11
-2.7346347e-11
-9.8876463e-12
-2.2114532e-11
-2.0315971e-11
-1.7398749e-11
-1.6910029e-11
-3.7587489e-11
-4.7205906e-11
-3.8764991e-11
-3.413092e-11
-4.3516635e-11
-5.1404325e-11
-4.7682081e-11
-3.3050229e-11
-2.7971625e-11
-2.6049385e-11
-2.7871483e-11
-2.0644153e-11
-2.0875635e-11
-1.3297141e-11
-2.3818059e-11
-2.3550051e-11
-3.1534775e-11
-9.6999075e-12
-2.0747848e-12
-1.2119306e-11
-1.4138135e-11
-1.8413382e-11
-4.2810422e-11
-4.2162163e-11
-4.2077453e-11
-4.2119419e-11
-4.8137827e-11
-2.6871505e-11
-4.2778003e-11
-3.209788e-11
-2.4215074e-11
-2.3675839e-11
-3.4754533e-11
-1.4555801e-11
-4.4961812e-12
-4.1674442e-12
7.8647089e-12
2.2271074e-13
-1.5234369e-11
-1.3945622e-11
-1.1574075e-11
-2.3245073e-11
-1.453393e-11
-1.0296208e-11
2.5775049e-11
1.1600054e-11
5.6259442e-12
1.5832669e-11
1.5078383e-11
2.7199021e-11
2.6522118e-11
9.4784181e-12
7.4096285e-12
8.7468921e-12
4.2831294e-12
7.3456796e-12
1.4658497e-11
2.0970448e-11
2.0755175e-11
4.2372328e-11
2.4017122e-11
3.4951819e-11
3.1548542e-11
9.9624753e-12
2.6147529e-11
2.9132141e-11
2.8437919e-11
9.9364961e-12
6.8730577e-12
1.5253021e-11
-6.6416872e-12
1.3082646e-11
1.9239499e-11
1.4234058e-11
1.8733237e-11
1.7184143e-11
4.6682658e-12
1.969569e-11
2.0652147e-11
2.5779379e-13
6.3460348e-13
5.5099258e-12
-4.4648729e-12
8.7282404e-12
-5.2635674e-12
4.6557203e-12
-1.6292523e-12
-4.8528959e-12
7.3987483e-12
1.7242874e-12
1.1858292e-12
2.8129055e-11
5.044376e-11
3.5788039e-11
3.573386e-11
1.5404789e-11
2.7702285e-12
-5.5397908e-12
-9.3469676e-12
5.3770322e-12
-4.1620041e-12
-9.2965635e-12
8.318235e-12
4.4235726e-12
1.8068547e-11
-7.0105033e-12
6.0041971e-12
-1.0817458e-11
-1.8487101e-11
-8.5084162e-12
-1.071343e-11
-1.9248492e-11
-8.6728402e-12
-1.5247581e-11
-6.9764194e-12
-9.930945e-12
-2.0532021e-11
-2.0385249e-11
-7.6902928e-12
-6.4519501e-12
1.9233504e-12
-1.1490808e-12
1.253575e-11
6.4431793e-12
8.6686214e-13
-1.4532264e-11
-1.5980217e-11
-1.1592505e-11
-1.1443291e-11
-1.585343e-11
9.1571195e-12
-2.9825697e-11
-3.2086112e-11
-2.1987301e-11
-6.3944405e-12
-3.5991765e-11
-3.2665204e-11
-4.4601212e-11
-3.5582426e-11
-2.5832114e-11
-1.5977664e-11
-2.5451419e-11
-2.4715119e-11
-3.1624814e-11
-2.4745539e-11
-3.5436432e-11
-2.6084468e-11
-2.5751734e-11
-5.8828498e-12
-1.1073364e-12
1.7228441e-12
-8.109069e-13
1.3572032e-11
4.3391957e-12
6.8816064e-12
2.6961433e-11
1.5521584e-11
1.1305845e-11
1.4295454e-11
1.0279777e-11
4.4448889e-12
1.7377211e-12
5.7978067e-12
-9.1022745e-12
-3.8211656e-12
1.2107426e-11
3.2240877e-12
-7.0035089e-12
-8.4449114e-12
-9.2013064e-12
-1.6009971e-11
-1.0719203e-11
-1.1704193e-11
-8.1054052e-12
5.3401727e-12
6.8078876e-12
8.8040686e-13
-6.4939165e-12
-6.77014e-12
-1.1613599e-11
1.0145551e-11
1.7629898e-11
7.4384943e-14
2.4250935e-11
1.6710522e-11
2.0970559e-11
1.8012702e-11
3.1900704e-11
7.5683904e-12
2.4384939e-11
3.1040726e-11
2.4059865e-11
2.838707e-11
3.8489878e-11
3.7219561e-11
6.2971517e-11
8.883505e-11
1.4005497e-10
1.7025192e-10
2.6003044e-10
3.9276959e-10
5.8073146e-10
8.7130592e-10
1.3209442e-09
1.9505224e-09
2.9120423e-09
4.3544176e-09
6.5228359e-09
9.7012279e-09
1.4421101e-08
2.1348144e-08
3.1495473e-08
4.6340303e-08
6.7881607e-08
9.9144137e-08
1.4417189e-07
2.0894325e-07
3.0160913e-07
4.3376336e-07
6.2132747e-07
8.8644701e-07
1.2595871e-06
1.7824197e-06
2.5117419e-06
3.5245277e-06
4.9244515e-06
6.8503841e-06
9.4873015e-06
1.3080074e-05
1.7950921e-05
2.4521116e-05
3.3337942e-05
4.5107447e-05
6.0734415e-05
8.1369943e-05
0.00010846771
0.00014384955
0.00018978081
0.00024905495
0.00032508789
0.00042201954
0.00054482167
0.00069940799
0.00089274281
0.001132943
0.0014293666
0.0017926807
0.0022349014
0.0027693965
0.0034108449
0.0041751444
0.0050792637
0.0061410368
0.0073788999
0.0088115744
0.010457705
0.012335465
0.014462139
0.016853707
0.019524437
0.022486518
0.025749738
0.029321218
0.033205232
0.037403093
0.041913127
0.046730727
0.051848472
0.057256316
0.062941829
0.068890472
0.075085908
0.081510315
0.088144719
0.094969303
0.10196371
0.10910729
0.11637941
0.12375958
0.13122771
0.13876421
0.14635018
0.15396742
0.16159856
0.16922709
0.1768374
0.18441478
0.19194544
0.19941647
0.20681588
0.2141325
0.22135605
0.22847702
0.2354867
0.24237712
0.24914104
0.25577189
0.26226377
0.26861132
0.27481004
0.28085526
0.28674474
0.292472
0.29804205
0.3034368
0.30868459
0.31373303
0.31865717
0.32336132
0.32793551
0.33234363
0.33650447
0.34067904
0.3444268
0.34830343
0.3517385
0.3552083
0.35844216
0.36120587
0.36418254
0.36687538
0.3697316
0.37204866
0.37424097
0.37638613
0.37841572
0.38027387
0.38197326
0.38354165
0.38497758
0.3862829
0.38745397
0.38850295
0.38943101
0.39024458
0.39094949
0.39154756
0.39205087
0.3924607
0.39278901
0.39304089
0.39322522
0.39335289
0.39342919
0.39346851
0.39347333
0.3934578
0.39342359
0.39338021
0.39333082
0.39327782
0.39322614
0.39317307
0.39311875
0.39307301
0.39300924
0.39296629
0.39290595
0.39285278
0.39279028
0.39272664
0.39266458
0.39258945
0.39251329
0.39243743
0.39235469
0.39226649
0.39217382
0.39207733
0.39197363
0.3918597
0.39173391
0.39159302
0.39143706
0.39125895
0.39105288
0.3908034
0.39048588
0.39005439
0.3894439
0.38856936
0.38733501
0.38563122
0.38335306
0.38040005
0.37669668
0.37219266
0.36687818
0.36078319
0.35397765
0.34657503
0.33871524
0.33056101
0.32228375
0.31405689
0.30603991
0.2983757
0.29117935
0.2845382
0.27851081
0.27312522
0.26838644
0.26427758
0.26076526
0.25780581
0.25534499
0.2533259
0.25169184
0.25038858
0.24936115
0.24856063
0.24794375
0.24747733
0.24712806
0.24686967
0.24667926
0.2465365
0.24642832
0.24633782
0.2462577
0.24617251
0.24608101
0.24597097
0.24582852
0.24564169
0.24539625
0.24507485
0.24465595
0.24411265
0.24341128
0.24250971
0.24135537
0.23988289
0.2380114
0.2356414
0.23265152
0.22889511
0.22419733
0.21835351
0.21113006
0.20227026
0.19150818
0.17859563
0.16334844
0.14571874
0.12589639
0.10443027
0.08232935
0.061052979
0.042257715
0.027259189
0.016501948
0.0095036134
0.005289404
0.002883565
0.0015541636
0.00083277048
0.00044496846
0.00023744979
0.00012663831
6.7521763e-05
3.59963e-05
1.9187574e-05
1.0226526e-05
5.4497178e-06
2.9036869e-06
1.546849e-06
8.238731e-07
4.3870806e-07
2.3356074e-07
1.2431047e-07
6.6147378e-08
3.5188706e-08
1.8711825e-08
9.9481604e-09
5.2871287e-09
2.8121188e-09
1.49196e-09
7.8791665e-10
4.1342392e-10
2.194786e-10
1.1354885e-10
5.9575692e-11
3.1580058e-11
1.6591839e-11
4.1995574e-12
-1.1396439e-12
-7.0094625e-12
-2.9538455e-12
-2.3058222e-12
-3.5713793e-12
-3.6674414e-12
-2.4471952e-12
1.1321499e-13
-4.1673609e-13
-1.93566e-12
-4.6031234e-13
1.6512902e-12
1.047662e-12
-1.0828283e-12
2.0123903e-12
2.1400937e-13
1.3902768e-12
2.294831e-12
-3.7694847e-13
-3.060302e-12
-3.0159486e-12
-7.4911188e-12
-6.5617234e-12
-5.9095506e-12
-5.0433407e-12
-3.2116393e-12
-4.2134352e-13
3.1501468e-12
1.2209955e-12
4.8628462e-12
3.6963904e-12
5.9593996e-12
8.9542262e-13
2.2496449e-12
1.5378948e-12
1.3309215e-12
2.3245988e-12
6.322276e-12
3.2396169e-12
6.8149097e-12
6.1902983e-12
4.6671694e-12
5.2509108e-12
2.7859937e-12
4.5241311e-12
5.5840887e-12
2.0674157e-12
1.6339291e-12
1.6021628e-12
4.1299603e-12
3.5576819e-12
-1.3042345e-13
4.7663679e-12
6.4662442e-12
6.2833488e-12
4.6103538e-12
4.5220633e-12
-1.1285001e-12
-4.5345672e-13
2.5263264e-12
4.563544e-12
1.5920182e-12
1.0880324e-12
-2.741668e-12
-4.0348558e-12
-1.8667151e-12
-1.3892359e-12
-1.0726836e-12
-2.9418551e-12
-5.0746213e-12
2.8185787e-14
-1.7887358e-12
-8.3139051e-13
-1.1347867e-13
-2.3678282e-12
-6.8153816e-13
-6.6791017e-13
-1.4253182e-12
1.5978885e-12
1.9855367e-12
5.2463589e-13
-1.915329e-12
-1.4604845e-12
-1.9893809e-12
-3.4657138e-12
-1.6786988e-12
-2.2894187e-12
-4.4393378e-12
-2.4634184e-12
-5.351608e-12
-2.0867197e-12
-6.9995398e-13
-9.857809e-13
-4.1790182e-13
3.0660197e-13
3.4755948e-12
2.4436286e-12
4.989606e-12
2.9745928e-12
2.6632863e-12
2.7871039e-12
6.6609079e-12
4.8212545e-12
1.452935e-12
-1.9918234e-12
8.9009355e-13
-1.3182372e-12
-1.941225e-13
-1.3535562e-12
-1.4829388e-12
-2.0668883e-12
-3.5606657e-12
-1.4201973e-12
-3.0301456e-12
-1.5935447e-12
-4.4252657e-12
-6.5679684e-12
-7.5550538e-12
-8.4084406e-12
-5.8460181e-12
-6.8707817e-12
-7.6361695e-12
-6.6033568e-12
-7.2831602e-12
-5.2768206e-12
-4.8178267e-12
-4.5470294e-12
-4.2143372e-12
-8.6531754e-12
-7.0620038e-12
-8.2420321e-12
-6.8595546e-12
-7.5066064e-12
-3.4908326e-12
-3.8045261e-12
-6.8041406e-13
-5.083628e-12
-2.484471e-12
-1.3259116e-12
4.1003173e-12
3.0914993e-12
-2.6654789e-12
-1.4973994e-12
-3.3524572e-13
5.1321447e-13
8.3795471e-13
-5.8814065e-14
3.6054493e-14
9.9817377e-13
2.6608993e-12
-2.5175001e-12
-5.4498073e-13
-2.5695696e-12
1.1091406e-12
-2.875214e-12
-5.2784027e-12
-3.0198344e-12
-6.6777556e-12
-2.9000968e-12
-3.4585668e-12
-3.6437242e-12
-2.8552993e-12
-3.181469e-12
-3.3192754e-12
-6.514414e-12
-3.6363829e-12
-4.8142046e-13
-1.5920043e-12
-3.6004394e-12
-1.4161033e-12
8.3032192e-13
1.2823631e-12
-6.0249028e-13
1.1726731e-14
1.3012785e-12
1.2995854e-12
1.3754692e-12
-1.6281698e-12
2.0719537e-12
3.1213643e-12
2.0613372e-12
4.1966708e-12
3.8513082e-12
6.7100353e-12
4.7065962e-12
5.6106647e-12
5.2971377e-12
3.3859998e-12
1.3684054e-12
1.368905e-13
1.8346297e-12
2.6705999e-12
1.0579038e-12
2.3400032e-12
3.6818465e-12
2.1848495e-12
2.7691044e-12
1.7037344e-12
1.942016e-12
1.0941942e-12
2.5398156e-12
1.1901868e-12
2.6032093e-12
1.493583e-12
1.6697754e-13
9.043738e-13
2.1112279e-12
7.6295914e-13
1.2831541e-12
2.1279922e-12
3.7886361e-14
-1.8066104e-12
-2.3854391e-12
-6.1013417e-12
-4.268419e-12
-6.7110345e-12
1.1939061e-12
1.7351259e-12
9.1787689e-13
1.2787132e-12
6.3417327e-13
-1.2744111e-12
-2.4059782e-12
-3.260503e-12
-4.6235377e-12
-5.4326266e-12
-2.3632207e-12
-2.0073804e-12
-3.024983e-12
-3.095954e-12
-1.7795349e-12
-1.7960772e-12
-3.5751263e-12
-5.7055749e-12
-1.4692692e-12
-1.5682733e-12
1.708772e-13
-2.3402669e-12
1.2606027e-12
-4.1870674e-13
-1.0390994e-12
-2.7068625e-13
-1.9649699e-12
-4.2860299e-12
-1.8790941e-12
-1.9508145e-12
4.0040193e-13
-1.1655538e-12
-4.046069e-13
3.698708e-13
2.7895325e-12
3.2968073e-12
2.1081054e-12
5.780626e-12
5.2878951e-12
6.8142575e-12
3.6400188e-12
4.689471e-12
1.293507e-12
3.7920778e-12
1.6060486e-12
2.09463e-12
1.1374651e-12
3.6682463e-12
1.9478308e-12
1.2428947e-13
-4.7471888e-12
-7.2902101e-12
-7.5422862e-12
-7.1570111e-12
-8.553741e-12
-4.8051979e-12
-4.6323223e-12
-2.841824e-12
-1.3370416e-12
1.045164e-12
1.034034e-12
6.7111594e-13
-1.1683432e-12
6.1395333e-14
1.7629925e-12
2.0955321e-12
3.3388847e-12
7.5563444e-12
5.5192101e-12
2.6540159e-12
-4.3569315e-13
1.1224077e-12
4.1945614e-13
2.8836794e-12
2.8897856e-12
8.2145402e-13
1.9958757e-12
5.0791593e-12
4.23378e-12
5.4948546e-12
5.5025429e-12
2.4061725e-12
-2.6241509e-13
2.30789e-12
-3.5929593e-14
8.5904894e-13
8.4346419e-13
4.026085e-13
8.2032992e-13
1.1869949e-12
3.7558706e-12
3.3947567e-12
5.7460009e-12
7.7016865e-12
7.1030681e-12
6.5010636e-12
7.2510609e-12
6.9466793e-12
6.5097788e-12
2.7422647e-12
1.9080432e-12
1.1215751e-12
-2.6099678e-12
-3.0230124e-12
-8.084089e-13
1.2308071e-12
1.5693002e-12
7.7003681e-13
4.3309245e-12
5.3273636e-12
4.8921839e-12
3.6773223e-12
2.7700758e-12
3.1676051e-12
3.198497e-12
4.1193854e-12
1.6946167e-12
4.0182024e-12
2.1486424e-12
3.6262937e-12
2.5431046e-12
4.3111348e-12
4.9670268e-12
5.0297405e-12
4.9904664e-12
4.7089971e-12
7.4523582e-12
4.1692622e-12
3.8396647e-12
-6.8799133e-13
-1.9521884e-13
-3.2700093e-12
-2.7523261e-12
-1.8509777e-12
-4.9895782e-12
-1.0356299e-12
-1.72308e-12
1.2955609e-12
)
;

boundaryField
{
    sides
    {
        type            calculated;
        value           nonuniform List<scalar> 2(1.693949e-21 2.7268132e-21);
    }
    emptywalls
    {
        type            empty;
        value           nonuniform List<scalar> 0();
    }
}


// ************************************************************************* //
