/*--------------------------------*- C++ -*----------------------------------*\
| =========                 |                                                 |
| \\      /  F ield         | OpenFOAM: The Open Source CFD Toolbox           |
|  \\    /   O peration     | Version:  2112                                  |
|   \\  /    A nd           | Website:  www.openfoam.com                      |
|    \\/     M anipulation  |                                                 |
\*---------------------------------------------------------------------------*/
FoamFile
{
    version     2.0;
    format      ascii;
    arch        "LSB;label=32;scalar=64";
    class       volScalarField;
    location    "0.06";
    object      T;
}
// * * * * * * * * * * * * * * * * * * * * * * * * * * * * * * * * * * * * * //

dimensions      [0 0 0 1 0 0 0];

internalField   nonuniform List<scalar> 
1000
(
0.00348
0.00348
0.00348
0.00348
0.00348
0.00348
0.00348
0.00348
0.00348
0.00348
0.00348
0.00348
0.00348
0.00348
0.00348
0.00348
0.00348
0.00348
0.00348
0.00348
0.00348
0.00348
0.00348
0.00348
0.00348
0.00348
0.00348
0.00348
0.00348
0.00348
0.00348
0.00348
0.00348
0.00348
0.00348
0.00348
0.00348
0.00348
0.00348
0.00348
0.00348
0.00348
0.00348
0.00348
0.00348
0.00348
0.00348
0.00348
0.00348
0.00348
0.00348
0.00348
0.00348
0.00348
0.00348
0.00348
0.00348
0.00348
0.00348
0.00348
0.00348
0.00348
0.00348
0.00348
0.00348
0.00348
0.00348
0.00348
0.00348
0.00348
0.00348
0.00348
0.00348
0.00348
0.00348
0.00348
0.00348
0.00348
0.00348
0.00348
0.00348
0.00348
0.00348
0.00348
0.00348
0.00348
0.00348
0.00348
0.00348
0.00348
0.00348
0.00348
0.00348
0.00348
0.00348
0.00348
0.00348
0.00348
0.00348
0.00348
0.00348
0.00348
0.00348
0.00348
0.00348
0.00348
0.00348
0.00348
0.00348
0.00348
0.00348
0.00348
0.00348
0.00348
0.00348
0.00348
0.00348
0.00348
0.00348
0.00348
0.00348
0.00348
0.00348
0.00348
0.00348
0.00348
0.00348
0.00348
0.00348
0.00348
0.00348
0.00348
0.00348
0.00348
0.00348
0.00348
0.00348
0.00348
0.00348
0.00348
0.00348
0.00348
0.00348
0.00348
0.00348
0.00348
0.00348
0.00348
0.00348
0.00348
0.00348
0.00348
0.00348
0.00348
0.00348
0.00348
0.00348
0.00348
0.00348
0.00348
0.00348
0.00348
0.00348
0.00348
0.00348
0.00348
0.00348
0.00348
0.00348
0.00348
0.00348
0.00348
0.00348
0.00348
0.00348
0.00348
0.00348
0.00348
0.00348
0.00348
0.00348
0.00348
0.00348
0.00348
0.00348
0.00348
0.00348
0.00348
0.00348
0.00348
0.00348
0.00348
0.00348
0.00348
0.00348
0.00348
0.00348
0.00348
0.00348
0.00348
0.00348
0.00348
0.00348
0.00348
0.00348
0.00348
0.00348
0.00348
0.00348
0.00348
0.00348
0.00348
0.00348
0.00348
0.00348
0.00348
0.00348
0.00348
0.00348
0.00348
0.00348
0.00348
0.00348
0.00348
0.00348
0.00348
0.00348
0.00348
0.00348
0.00348
0.00348
0.00348
0.00348
0.00348
0.00348
0.00348
0.00348
0.00348
0.00348
0.00348
0.00348
0.00348
0.00348
0.00348
0.00348
0.00348
0.00348
0.00348
0.00348
0.00348
0.00348
0.00348
0.00348
0.00348
0.00348
0.00348
0.00348
0.00348
0.00348
0.00348
0.00348
0.00348
0.00348
0.00348
0.00348
0.00348
0.00348
0.00348
0.00348
0.00348
0.00348
0.00348
0.00348
0.00348
0.00348
0.00348
0.00348
0.00348
0.00348
0.00348
0.00348
0.00348
0.00348
0.00348
0.00348
0.00348
0.00348
0.00348
0.00348
0.00348
0.00348
0.00348
0.00348
0.00348
0.00348
0.00348
0.00348
0.00348
0.00348
0.00348
0.00348
0.00348
0.00348
0.00348
0.00348
0.00348
0.00348
0.00348
0.00348
0.00348
0.00348
0.00348
0.00348
0.00348
0.00348
0.00348
0.00348
0.00348
0.00348
0.00348
0.00348
0.00348
0.00348
0.00348
0.00348
0.00348
0.00348
0.00348
0.00348
0.00348
0.00348
0.00348
0.00348
0.00348
0.00348
0.00348
0.00348
0.00348
0.00348
0.00348
0.00348
0.00348
0.00348
0.00348
0.00348
0.00348
0.00348
0.00348
0.00348
0.00348
0.00348
0.00348
0.00348
0.00348
0.00348
0.00348
0.00348
0.00348
0.00348
0.00348
0.00348
0.00348
0.00348
0.00348
0.00348
0.00348
0.00348
0.00348
0.00348
0.00348
0.00348
0.00348
0.0034799999
0.0034799999
0.0034799999
0.0034799998
0.0034799997
0.0034799996
0.0034799994
0.0034799991
0.0034799988
0.0034799983
0.0034799975
0.0034799965
0.0034799952
0.0034799932
0.0034799906
0.003479987
0.0034799821
0.0034799755
0.0034799666
0.0034799547
0.0034799388
0.0034799178
0.00347989
0.0034798537
0.0034798063
0.003479745
0.0034796661
0.0034795651
0.0034794367
0.0034792744
0.0034790707
0.0034788166
0.0034785016
0.003478114
0.0034776402
0.0034770651
0.0034763716
0.0034755415
0.0034745546
0.0034733899
0.0034720248
0.0034704362
0.0034686003
0.0034664936
0.0034640925
0.0034613745
0.003458318
0.0034549031
0.003451112
0.0034469288
0.0034423404
0.0034373363
0.0034319088
0.0034260528
0.0034197662
0.0034130495
0.0034059057
0.0033983401
0.0033903601
0.0033819748
0.0033731951
0.003364033
0.0033545016
0.0033446148
0.003334387
0.003323833
0.003312968
0.0033018069
0.0032903648
0.0032786566
0.0032666966
0.0032544993
0.0032420784
0.0032294474
0.0032166194
0.0032036069
0.003190422
0.0031770767
0.003163582
0.0031499491
0.0031361884
0.0031223101
0.003108324
0.0030942394
0.0030800658
0.0030658113
0.0030514865
0.0030370935
0.0030226582
0.0030081406
0.0029936686
0.0029789685
0.002964656
0.0029495252
0.0029357981
0.0029198093
0.002907019
0.0028903408
0.0028774882
0.0028622892
0.002846322
0.0028356581
0.0028149112
0.002808575
0.0027833337
0.0027809918
0.0027559539
0.0027535949
0.0027324653
0.0027188259
0.0027065321
0.002693164
0.0026794642
0.0026658876
0.0026529708
0.0026401348
0.0026276292
0.0026152957
0.0026033752
0.0025918028
0.0025806098
0.0025698874
0.0025596142
0.0025498968
0.0025407816
0.0025322427
0.0025244733
0.0025173084
0.0025110212
0.0025053872
0.002500627
0.0024965616
0.0024932554
0.0024906428
0.0024885965
0.0024871696
0.0024861049
0.0024855077
0.0024851231
0.0024850059
0.0024850979
0.0024851497
0.0024855049
0.0024856468
0.0024862189
0.0024860489
0.0024867499
0.0024872085
0.0024872116
0.0024878268
0.0024882663
0.0024888305
0.0024892814
0.0024899678
0.0024905246
0.0024912871
0.0024918824
0.0024927094
0.0024934058
0.002494359
0.0024952299
0.0024963602
0.002497502
0.0024989811
0.0025006656
0.0025029893
0.0025060958
0.0025106589
0.0025171847
0.0025264341
0.0025391855
0.0025562339
0.0025784306
0.0026064119
0.0026408925
0.002682171
0.0027306337
0.0027861018
0.0028484141
0.0029168629
0.0029907183
0.0030687541
0.0031496872
0.0032319491
0.0033139461
0.0033940779
0.0034708465
0.0035429289
0.0036093524
0.0036693309
0.0037225127
0.0037687542
0.0038082791
0.003841415
0.0038687538
0.0038909469
0.0039086164
0.0039224718
0.0039331501
0.0039411851
0.0039471154
0.0039513938
0.0039543446
0.0039563159
0.0039575039
0.003958147
0.0039584049
0.0039582739
0.0039580524
0.0039575403
0.0039567992
0.0039559235
0.0039548955
0.0039536824
0.0039522352
0.0039504876
0.0039483513
0.0039457142
0.0039424318
0.0039383232
0.0039331582
0.0039266478
0.003918427
0.0039080364
0.0038948976
0.0038782833
0.003857283
0.0038307603
0.0037973147
0.0037552473
0.0037025714
0.0036371119
0.0035568265
0.0034605566
0.0033494926
0.0032291754
0.003110269
0.0030054877
0.0029236847
0.0028665015
0.0028299435
0.0028080301
0.0027954436
0.0027884082
0.0027845429
0.0027824425
0.0027813091
0.0027807002
0.002780374
0.0027801996
0.0027801065
0.0027800568
0.0027800303
0.0027800161
0.0027800086
0.0027800046
0.0027800024
0.0027800013
0.0027800007
0.0027800004
0.0027800002
0.0027800001
0.0027800001
0.00278
0.00278
0.00278
0.00278
0.00278
0.00278
0.00278
0.00278
0.00278
0.00278
0.00278
0.00278
0.00278
0.00278
0.00278
0.00278
0.00278
0.00278
0.00278
0.00278
0.00278
0.00278
0.00278
0.00278
0.00278
0.00278
0.00278
0.00278
0.00278
0.00278
0.00278
0.00278
0.00278
0.00278
0.00278
0.00278
0.00278
0.00278
0.00278
0.00278
0.00278
0.00278
0.00278
0.00278
0.00278
0.00278
0.00278
0.00278
0.00278
0.00278
0.00278
0.00278
0.00278
0.00278
0.00278
0.00278
0.00278
0.00278
0.00278
0.00278
0.00278
0.00278
0.00278
0.00278
0.00278
0.00278
0.00278
0.00278
0.00278
0.00278
0.00278
0.00278
0.00278
0.00278
0.00278
0.00278
0.00278
0.00278
0.00278
0.00278
0.00278
0.00278
0.00278
0.00278
0.00278
0.00278
0.00278
0.00278
0.00278
0.00278
0.00278
0.00278
0.00278
0.00278
0.00278
0.00278
0.00278
0.00278
0.00278
0.00278
0.00278
0.00278
0.00278
0.00278
0.00278
0.00278
0.00278
0.00278
0.00278
0.00278
0.00278
0.00278
0.00278
0.00278
0.00278
0.00278
0.00278
0.00278
0.00278
0.00278
0.00278
0.00278
0.00278
0.00278
0.00278
0.00278
0.00278
0.00278
0.00278
0.00278
0.00278
0.00278
0.00278
0.00278
0.00278
0.00278
0.00278
0.00278
0.00278
0.00278
0.00278
0.00278
0.00278
0.00278
0.00278
0.00278
0.00278
0.00278
0.00278
0.00278
0.00278
0.00278
0.00278
0.00278
0.00278
0.00278
0.00278
0.00278
0.00278
0.00278
0.00278
0.00278
0.00278
0.00278
0.00278
0.00278
0.00278
0.00278
0.00278
0.00278
0.00278
0.00278
0.00278
0.00278
0.00278
0.00278
0.00278
0.00278
0.00278
0.00278
0.00278
0.00278
0.00278
0.00278
0.00278
0.00278
0.00278
0.00278
0.00278
0.00278
0.00278
0.00278
0.00278
0.00278
0.00278
0.00278
0.00278
0.00278
0.00278
0.00278
0.00278
0.00278
0.00278
0.00278
0.00278
0.00278
0.00278
0.00278
0.00278
0.00278
0.00278
0.00278
0.00278
0.00278
0.00278
0.00278
0.00278
0.00278
0.00278
0.00278
0.00278
0.00278
0.00278
0.00278
0.00278
0.00278
0.00278
0.00278
0.00278
0.00278
0.00278
0.00278
0.00278
0.00278
0.00278
0.00278
0.00278
0.00278
0.00278
0.00278
0.00278
0.00278
0.00278
0.00278
0.00278
0.00278
0.00278
0.00278
0.00278
0.00278
0.00278
0.00278
0.00278
0.00278
0.00278
0.00278
0.00278
0.00278
0.00278
0.00278
0.00278
0.00278
0.00278
0.00278
0.00278
0.00278
0.00278
0.00278
0.00278
0.00278
0.00278
0.00278
0.00278
0.00278
0.00278
0.00278
0.00278
0.00278
0.00278
0.00278
0.00278
0.00278
0.00278
0.00278
0.00278
0.00278
0.00278
0.00278
0.00278
0.00278
0.00278
0.00278
0.00278
0.00278
0.00278
0.00278
0.00278
0.00278
0.00278
0.00278
0.00278
0.00278
0.00278
0.00278
0.00278
0.00278
0.00278
0.00278
0.00278
0.00278
0.00278
0.00278
0.00278
0.00278
0.00278
0.00278
0.00278
0.00278
0.00278
0.00278
0.00278
0.00278
0.00278
0.00278
0.00278
0.00278
0.00278
0.00278
0.00278
0.00278
0.00278
0.00278
0.00278
0.00278
0.00278
0.00278
0.00278
0.00278
0.00278
0.00278
0.00278
0.00278
0.00278
0.00278
0.00278
0.00278
0.00278
0.00278
0.00278
0.00278
0.00278
0.00278
0.00278
0.00278
0.00278
0.00278
0.00278
0.00278
0.00278
0.00278
0.00278
0.00278
0.00278
0.00278
0.00278
)
;

boundaryField
{
    sides
    {
        type            zeroGradient;
    }
    emptywalls
    {
        type            empty;
    }
}


// ************************************************************************* //
