/*--------------------------------*- C++ -*----------------------------------*\
| =========                 |                                                 |
| \\      /  F ield         | OpenFOAM: The Open Source CFD Toolbox           |
|  \\    /   O peration     | Version:  2112                                  |
|   \\  /    A nd           | Website:  www.openfoam.com                      |
|    \\/     M anipulation  |                                                 |
\*---------------------------------------------------------------------------*/
FoamFile
{
    version     2.0;
    format      ascii;
    arch        "LSB;label=32;scalar=64";
    class       volVectorField;
    location    "0.06";
    object      U;
}
// * * * * * * * * * * * * * * * * * * * * * * * * * * * * * * * * * * * * * //

dimensions      [0 1 -1 0 0 0 0];

internalField   nonuniform List<vector> 
1000
(
(-2.7300564e-21 0 0)
(1.7940857e-11 0 0)
(1.7794245e-11 0 0)
(2.0660914e-11 0 0)
(2.9930069e-11 0 0)
(1.6992711e-11 0 0)
(1.986127e-11 0 0)
(2.7804911e-11 0 0)
(3.7976528e-11 0 0)
(3.8472054e-11 0 0)
(4.2383128e-11 0 0)
(5.0422473e-11 0 0)
(5.3535238e-11 0 0)
(5.9779218e-11 0 0)
(4.8438036e-11 0 0)
(5.4594427e-11 0 0)
(4.2469051e-11 0 0)
(4.4716146e-11 0 0)
(2.4270871e-11 0 0)
(4.4937232e-11 0 0)
(3.41008e-11 0 0)
(6.0708691e-11 0 0)
(4.0426035e-11 0 0)
(4.4409693e-11 0 0)
(2.7485453e-11 0 0)
(4.909907e-11 0 0)
(6.0375339e-11 0 0)
(5.6729812e-11 0 0)
(3.9939179e-11 0 0)
(4.9790116e-11 0 0)
(2.4339009e-11 0 0)
(4.8002978e-11 0 0)
(3.9425424e-11 0 0)
(3.991417e-11 0 0)
(4.2623555e-11 0 0)
(1.9757452e-11 0 0)
(5.0026986e-11 0 0)
(4.0545415e-11 0 0)
(5.8589312e-11 0 0)
(6.4398791e-11 0 0)
(5.6148364e-11 0 0)
(5.2119243e-11 0 0)
(4.2237183e-11 0 0)
(2.2748391e-11 0 0)
(3.5092297e-11 0 0)
(2.7633622e-11 0 0)
(6.3217109e-11 0 0)
(6.4096673e-11 0 0)
(3.9655958e-11 0 0)
(3.1720987e-11 0 0)
(4.9226008e-11 0 0)
(2.0465616e-11 0 0)
(5.0584758e-11 0 0)
(2.3411871e-11 0 0)
(4.8337997e-11 0 0)
(6.5679955e-12 0 0)
(9.9045136e-12 0 0)
(1.4478957e-12 0 0)
(-1.3006385e-11 0 0)
(-8.5803326e-12 0 0)
(-4.9660399e-12 0 0)
(-6.7042706e-12 0 0)
(-1.6611452e-11 0 0)
(1.1553043e-11 0 0)
(-8.3599137e-13 0 0)
(-8.011445e-12 0 0)
(9.1077597e-12 0 0)
(-9.1852343e-12 0 0)
(-2.3379081e-12 0 0)
(-1.3346517e-11 0 0)
(-1.0248092e-11 0 0)
(-1.6775405e-12 0 0)
(-1.3760567e-11 0 0)
(-1.0733058e-11 0 0)
(-2.602622e-11 0 0)
(-1.3012721e-11 0 0)
(-1.7659415e-11 0 0)
(1.5337068e-12 0 0)
(8.1577241e-12 0 0)
(3.2695143e-11 0 0)
(1.8997379e-11 0 0)
(2.174778e-11 0 0)
(-1.1903846e-11 0 0)
(1.1482349e-11 0 0)
(-3.5707758e-11 0 0)
(-2.4991929e-12 0 0)
(-1.3707546e-12 0 0)
(-6.9171312e-13 0 0)
(-1.3254481e-11 0 0)
(-9.4876851e-12 0 0)
(-6.6084556e-12 0 0)
(-1.8702598e-11 0 0)
(-2.2409704e-11 0 0)
(-1.9145881e-11 0 0)
(-7.7796883e-12 0 0)
(-1.367609e-11 0 0)
(9.163448e-12 0 0)
(2.8418816e-12 0 0)
(3.1415535e-12 0 0)
(-1.9689981e-11 0 0)
(-7.4867968e-12 0 0)
(-1.1550709e-11 0 0)
(1.5991322e-11 0 0)
(-7.5908372e-12 0 0)
(7.5092499e-12 0 0)
(-1.4462951e-11 0 0)
(-8.4017077e-12 0 0)
(-1.7251701e-11 0 0)
(-1.3674645e-11 0 0)
(-1.1105647e-11 0 0)
(-4.3205671e-13 0 0)
(7.6775375e-12 0 0)
(-6.1888482e-12 0 0)
(8.7850788e-12 0 0)
(-1.4457838e-11 0 0)
(1.2655693e-11 0 0)
(6.0668008e-12 0 0)
(1.2813644e-11 0 0)
(1.2095365e-11 0 0)
(1.6230082e-11 0 0)
(3.1251027e-12 0 0)
(6.718943e-12 0 0)
(-8.8598856e-12 0 0)
(5.6663119e-12 0 0)
(-5.0407356e-12 0 0)
(6.7487323e-12 0 0)
(1.4753286e-11 0 0)
(7.2311419e-12 0 0)
(1.6249867e-11 0 0)
(-6.7020475e-12 0 0)
(-4.09937e-13 0 0)
(-2.0011217e-11 0 0)
(1.4957476e-11 0 0)
(-1.7617287e-11 0 0)
(3.6533078e-12 0 0)
(-1.5547928e-11 0 0)
(-3.8712481e-11 0 0)
(-3.2810188e-11 0 0)
(-9.9259664e-12 0 0)
(-1.1013166e-12 0 0)
(-2.1229468e-11 0 0)
(-3.6093686e-11 0 0)
(-1.1909292e-11 0 0)
(-4.0164822e-11 0 0)
(-3.2546641e-11 0 0)
(-5.95897e-11 0 0)
(-3.9191667e-11 0 0)
(-2.8165273e-11 0 0)
(-1.0448725e-11 0 0)
(-1.0189624e-11 0 0)
(-1.5730777e-11 0 0)
(-2.1264926e-12 0 0)
(-7.4521167e-12 0 0)
(-1.3503578e-11 0 0)
(-1.9690426e-11 0 0)
(-1.9723216e-12 0 0)
(-1.5818366e-11 0 0)
(-2.1179226e-11 0 0)
(-6.0191156e-12 0 0)
(-3.528326e-11 0 0)
(-2.7414648e-11 0 0)
(-4.3642506e-11 0 0)
(-4.7163318e-11 0 0)
(-3.1351399e-11 0 0)
(-4.3403414e-11 0 0)
(-3.7861817e-11 0 0)
(-3.479407e-11 0 0)
(-3.6187722e-11 0 0)
(-1.3719551e-11 0 0)
(-3.6223514e-11 0 0)
(-1.3949085e-11 0 0)
(-2.7035278e-11 0 0)
(-1.1850158e-11 0 0)
(-1.4508524e-11 0 0)
(-3.2199395e-11 0 0)
(-1.4578885e-11 0 0)
(-2.6668803e-11 0 0)
(5.2390348e-12 0 0)
(-9.4582292e-12 0 0)
(-1.3890729e-11 0 0)
(-1.6153719e-11 0 0)
(-1.4502299e-11 0 0)
(-4.8020096e-11 0 0)
(-3.2546864e-11 0 0)
(-4.3798567e-11 0 0)
(-3.4928678e-11 0 0)
(-4.9922168e-11 0 0)
(-1.2718051e-11 0 0)
(-5.2365895e-11 0 0)
(-1.1919741e-11 0 0)
(-4.5914278e-11 0 0)
(-1.9425767e-11 0 0)
(-3.0835866e-11 0 0)
(-5.7925832e-12 0 0)
(4.0967023e-12 0 0)
(-9.7939151e-12 0 0)
(1.6595112e-11 0 0)
(-1.3316839e-11 0 0)
(-8.9483645e-12 0 0)
(-1.5449334e-11 0 0)
(-1.6140825e-11 0 0)
(-1.5491017e-11 0 0)
(-1.7581051e-11 0 0)
(1.3969203e-11 0 0)
(1.8948471e-11 0 0)
(6.605121e-12 0 0)
(8.6529164e-12 0 0)
(3.9658737e-12 0 0)
(2.2627455e-11 0 0)
(2.136741e-11 0 0)
(1.9477343e-11 0 0)
(-1.3410764e-12 0 0)
(1.140065e-11 0 0)
(-6.3524673e-13 0 0)
(1.3665419e-11 0 0)
(1.3898065e-11 0 0)
(8.8317636e-12 0 0)
(2.92358e-11 0 0)
(1.7358742e-11 0 0)
(2.6963028e-11 0 0)
(3.466791e-11 0 0)
(2.0538088e-11 0 0)
(2.4269871e-11 0 0)
(1.8953362e-11 0 0)
(2.3433435e-11 0 0)
(3.2190948e-11 0 0)
(8.6648099e-12 0 0)
(8.3203428e-12 0 0)
(6.3633604e-12 0 0)
(-7.965316e-12 0 0)
(1.1351631e-11 0 0)
(9.2961662e-12 0 0)
(1.8630236e-11 0 0)
(4.6868204e-12 0 0)
(2.488989e-11 0 0)
(1.0439499e-11 0 0)
(1.1722664e-11 0 0)
(1.6494962e-11 0 0)
(6.5971179e-12 0 0)
(-8.303225e-13 0 0)
(1.569832e-12 0 0)
(1.9238583e-12 0 0)
(1.0586334e-12 0 0)
(-1.2381365e-11 0 0)
(2.2775513e-12 0 0)
(-1.2030228e-12 0 0)
(-2.2675475e-14 0 0)
(1.0561324e-11 0 0)
(6.5792221e-13 0 0)
(1.1182121e-12 0 0)
(1.9679866e-11 0 0)
(3.1049171e-11 0 0)
(2.8021106e-11 0 0)
(3.2942462e-11 0 0)
(2.935718e-11 0 0)
(1.182237e-12 0 0)
(3.6695364e-12 0 0)
(-9.0579626e-12 0 0)
(-8.0266731e-12 0 0)
(-4.8454375e-12 0 0)
(-4.149834e-12 0 0)
(-1.2684149e-11 0 0)
(9.484017e-12 0 0)
(8.9493649e-12 0 0)
(7.0291746e-12 0 0)
(-1.1403651e-11 0 0)
(5.1775665e-13 0 0)
(-1.7109868e-11 0 0)
(-3.7295597e-12 0 0)
(-1.4979596e-11 0 0)
(-4.4546191e-12 0 0)
(-2.1034281e-11 0 0)
(-9.234698e-13 0 0)
(-1.8633348e-11 0 0)
(-3.8507179e-12 0 0)
(-1.4817644e-11 0 0)
(-1.7264706e-11 0 0)
(-1.4969147e-11 0 0)
(-2.1730551e-11 0 0)
(9.4152125e-12 0 0)
(-9.0650765e-12 0 0)
(6.7561797e-12 0 0)
(1.1381421e-11 0 0)
(-3.7081069e-12 0 0)
(-1.668637e-11 0 0)
(-3.4580098e-12 0 0)
(-2.1591608e-11 0 0)
(-7.6471924e-12 0 0)
(-1.012371e-11 0 0)
(-1.7492239e-11 0 0)
(9.8155902e-12 0 0)
(-2.8396474e-11 0 0)
(-1.9354073e-11 0 0)
(-2.1328729e-11 0 0)
(-1.7615064e-11 0 0)
(-2.8032555e-11 0 0)
(-3.7675633e-11 0 0)
(-3.6316772e-11 0 0)
(-2.9444659e-11 0 0)
(-3.1104192e-11 0 0)
(2.4233857e-12 0 0)
(-3.9703866e-11 0 0)
(-1.9255924e-11 0 0)
(-4.0115915e-11 0 0)
(-2.1019831e-11 0 0)
(-4.1773781e-11 0 0)
(-3.1203008e-11 0 0)
(-6.666367e-12 0 0)
(-2.8848983e-12 0 0)
(-2.6299104e-13 0 0)
(5.3763104e-12 0 0)
(1.9832147e-12 0 0)
(5.1016482e-12 0 0)
(4.6233513e-12 0 0)
(1.370121e-11 0 0)
(1.9302497e-11 0 0)
(3.0221738e-12 0 0)
(2.1422321e-11 0 0)
(7.1447751e-12 0 0)
(9.8497146e-12 0 0)
(-2.3478008e-12 0 0)
(7.1251008e-12 0 0)
(-5.0122801e-12 0 0)
(-4.5340944e-12 0 0)
(3.8171493e-12 0 0)
(4.4522848e-12 0 0)
(2.2603224e-12 0 0)
(-1.5960532e-11 0 0)
(-1.2471511e-12 0 0)
(-6.3658058e-12 0 0)
(-2.3003379e-11 0 0)
(6.630353e-12 0 0)
(-1.3558155e-11 0 0)
(6.6914879e-13 0 0)
(8.4976339e-12 0 0)
(-4.7847473e-12 0 0)
(1.1372195e-11 0 0)
(-2.3987428e-11 0 0)
(7.5191427e-12 0 0)
(-2.4076351e-11 0 0)
(3.2259863e-11 0 0)
(-3.6818745e-12 0 0)
(2.616783e-11 0 0)
(1.4080247e-11 0 0)
(2.7976755e-11 0 0)
(2.0481177e-11 0 0)
(3.8581096e-11 0 0)
(2.9799241e-11 0 0)
(1.1780242e-11 0 0)
(2.799554e-11 0 0)
(2.5925181e-11 0 0)
(2.3098749e-11 0 0)
(2.707585e-11 0 0)
(2.6428821e-11 0 0)
(3.2804741e-11 0 0)
(6.6780605e-11 0 0)
(1.1035931e-10 0 0)
(1.5283536e-10 0 0)
(2.1301874e-10 0 0)
(3.2476147e-10 0 0)
(4.853494e-10 0 0)
(7.2267736e-10 0 0)
(1.0924841e-09 0 0)
(1.6345279e-09 0 0)
(2.4160592e-09 0 0)
(3.6399596e-09 0 0)
(5.4262411e-09 0 0)
(8.1080588e-09 0 0)
(1.2050972e-08 0 0)
(1.7868717e-08 0 0)
(2.6417244e-08 0 0)
(3.8885654e-08 0 0)
(5.7093098e-08 0 0)
(8.3470004e-08 0 0)
(1.2162107e-07 0 0)
(1.7648171e-07 0 0)
(2.5520006e-07 0 0)
(3.6758672e-07 0 0)
(5.2741027e-07 0 0)
(7.5373259e-07 0 0)
(1.0728218e-06 0 0)
(1.5207834e-06 0 0)
(2.1468458e-06 0 0)
(3.0179113e-06 0 0)
(4.2243243e-06 0 0)
(5.8873925e-06 0 0)
(8.1691121e-06 0 0)
(1.1284456e-05 0 0)
(1.5517166e-05 0 0)
(2.1239116e-05 0 0)
(2.8934939e-05 0 0)
(3.9231691e-05 0 0)
(5.2935496e-05 0 0)
(7.1075199e-05 0 0)
(9.4954692e-05 0 0)
(0.0001262138 0 0)
(0.0001668993 0 0)
(0.00021954533 0 0)
(0.00028726359 0 0)
(0.00037384249 0 0)
(0.00048385351 0 0)
(0.00062276253 0 0)
(0.00079704286 0 0)
(0.0010142853 0 0)
(0.0012833005 0 0)
(0.0016142066 0 0)
(0.002018496 0 0)
(0.0025090734 0 0)
(0.0031002588 0 0)
(0.0038077485 0 0)
(0.0046485289 0 0)
(0.0056407412 0 0)
(0.0068034943 0 0)
(0.0081566301 0 0)
(0.0097204449 0 0)
(0.011515375 0 0)
(0.013561658 0 0)
(0.015878981 0 0)
(0.018486134 0 0)
(0.021400672 0 0)
(0.024638611 0 0)
(0.028214166 0 0)
(0.032139535 0 0)
(0.036424741 0 0)
(0.041077535 0 0)
(0.046103358 0 0)
(0.051505358 0 0)
(0.057284465 0 0)
(0.063439506 0 0)
(0.069967356 0 0)
(0.076863124 0 0)
(0.084120353 0 0)
(0.091731232 0 0)
(0.099686812 0 0)
(0.10797721 0 0)
(0.1165918 0 0)
(0.12551942 0 0)
(0.13474851 0 0)
(0.14426727 0 0)
(0.1540638 0 0)
(0.16412616 0 0)
(0.17444254 0 0)
(0.18500125 0 0)
(0.19579083 0 0)
(0.20680007 0 0)
(0.21801803 0 0)
(0.2294341 0 0)
(0.24103797 0 0)
(0.25281964 0 0)
(0.26476945 0 0)
(0.27687806 0 0)
(0.28913642 0 0)
(0.3015358 0 0)
(0.31406775 0 0)
(0.32672409 0 0)
(0.33949691 0 0)
(0.35237854 0 0)
(0.36536155 0 0)
(0.3784387 0 0)
(0.39160296 0 0)
(0.40484751 0 0)
(0.41816555 0 0)
(0.43155077 0 0)
(0.44499616 0 0)
(0.45849677 0 0)
(0.47204342 0 0)
(0.48563589 0 0)
(0.49925781 0 0)
(0.51292034 0 0)
(0.52659525 0 0)
(0.54030608 0 0)
(0.55402663 0 0)
(0.56776646 0 0)
(0.58153568 0 0)
(0.59523469 0 0)
(0.60888419 0 0)
(0.62238189 0 0)
(0.6358474 0 0)
(0.64907319 0 0)
(0.66278344 0 0)
(0.67641313 0 0)
(0.68962214 0 0)
(0.70310251 0 0)
(0.71631968 0 0)
(0.72935954 0 0)
(0.74225344 0 0)
(0.75498524 0 0)
(0.76752895 0 0)
(0.7798617 0 0)
(0.7919573 0 0)
(0.80378271 0 0)
(0.8152998 0 0)
(0.82646744 0 0)
(0.83724235 0 0)
(0.84757772 0 0)
(0.85742439 0 0)
(0.86673165 0 0)
(0.87544848 0 0)
(0.88352666 0 0)
(0.89092209 0 0)
(0.89759899 0 0)
(0.90353229 0 0)
(0.90871114 0 0)
(0.91314142 0 0)
(0.91684688 0 0)
(0.91986961 0 0)
(0.92226766 0 0)
(0.92411259 0 0)
(0.92548426 0 0)
(0.92646618 0 0)
(0.92713852 0 0)
(0.92758408 0 0)
(0.92785803 0 0)
(0.92801584 0 0)
(0.92807491 0 0)
(0.92811989 0 0)
(0.92814066 0 0)
(0.92813788 0 0)
(0.92814471 0 0)
(0.92815575 0 0)
(0.92814367 0 0)
(0.92813269 0 0)
(0.9281157 0 0)
(0.92806072 0 0)
(0.92798508 0 0)
(0.92788635 0 0)
(0.92777914 0 0)
(0.92767652 0 0)
(0.92758747 0 0)
(0.92751447 0 0)
(0.92745567 0 0)
(0.92740784 0 0)
(0.92736789 0 0)
(0.92733332 0 0)
(0.92730289 0 0)
(0.92727568 0 0)
(0.92725033 0 0)
(0.92722427 0 0)
(0.92719979 0 0)
(0.92717446 0 0)
(0.9271477 0 0)
(0.92712219 0 0)
(0.92709638 0 0)
(0.92706946 0 0)
(0.92704092 0 0)
(0.92701026 0 0)
(0.92697751 0 0)
(0.92694136 0 0)
(0.92690612 0 0)
(0.92687173 0 0)
(0.92683561 0 0)
(0.9268033 0 0)
(0.92677485 0 0)
(0.92675143 0 0)
(0.92673359 0 0)
(0.92672126 0 0)
(0.92671334 0 0)
(0.92670807 0 0)
(0.92670315 0 0)
(0.92669612 0 0)
(0.92668805 0 0)
(0.92667558 0 0)
(0.92665941 0 0)
(0.92663473 0 0)
(0.92660938 0 0)
(0.92658486 0 0)
(0.92656574 0 0)
(0.92653797 0 0)
(0.92650338 0 0)
(0.92647131 0 0)
(0.92643734 0 0)
(0.92640104 0 0)
(0.92635465 0 0)
(0.92630322 0 0)
(0.92624468 0 0)
(0.92617207 0 0)
(0.92608732 0 0)
(0.925986 0 0)
(0.92586298 0 0)
(0.92570755 0 0)
(0.9255161 0 0)
(0.92528515 0 0)
(0.9249858 0 0)
(0.92459942 0 0)
(0.92410491 0 0)
(0.92347098 0 0)
(0.92265769 0 0)
(0.92161435 0 0)
(0.92027664 0 0)
(0.91856317 0 0)
(0.91637104 0 0)
(0.91357038 0 0)
(0.90999751 0 0)
(0.90544635 0 0)
(0.89965777 0 0)
(0.89230645 0 0)
(0.88298471 0 0)
(0.87118305 0 0)
(0.85626728 0 0)
(0.83745289 0 0)
(0.81377927 0 0)
(0.78408962 0 0)
(0.74703067 0 0)
(0.70110029 0 0)
(0.64479892 0 0)
(0.57698174 0 0)
(0.49754797 0 0)
(0.40853384 0 0)
(0.31524977 0 0)
(0.22622983 0 0)
(0.15056218 0 0)
(0.09362292 0 0)
(0.055162092 0 0)
(0.03125857 0 0)
(0.017257902 0 0)
(0.0093771343 0 0)
(0.00504912 0 0)
(0.0027055145 0 0)
(0.0014460726 0 0)
(0.00077191596 0 0)
(0.00041177149 0 0)
(0.00021957132 0 0)
(0.00011705357 0 0)
(6.2388675e-05 0 0)
(3.3246459e-05 0 0)
(1.7713445e-05 0 0)
(9.435739e-06 0 0)
(5.0252293e-06 0 0)
(2.6757257e-06 0 0)
(1.4243596e-06 0 0)
(7.5804301e-07 0 0)
(4.033305e-07 0 0)
(2.1452433e-07 0 0)
(1.1406783e-07 0 0)
(6.0632405e-08 0 0)
(3.2235229e-08 0 0)
(1.7122363e-08 0 0)
(9.0720437e-09 0 0)
(4.7848168e-09 0 0)
(2.5013742e-09 0 0)
(1.318488e-09 0 0)
(6.8443342e-10 0 0)
(3.7015405e-10 0 0)
(1.7847362e-10 0 0)
(8.0700718e-11 0 0)
(9.828237e-12 0 0)
(-2.0816589e-11 0 0)
(-3.9193407e-11 0 0)
(-1.5291168e-11 0 0)
(-2.2098022e-11 0 0)
(-2.1792898e-11 0 0)
(-3.5628483e-11 0 0)
(-9.6142395e-12 0 0)
(-6.5702131e-12 0 0)
(-1.0700987e-11 0 0)
(-1.3313911e-11 0 0)
(-5.7477433e-12 0 0)
(2.3854511e-11 0 0)
(-8.1643173e-12 0 0)
(-2.1691671e-12 0 0)
(1.3800622e-11 0 0)
(-7.3078829e-13 0 0)
(1.4351599e-11 0 0)
(1.3448214e-11 0 0)
(-1.9760365e-11 0 0)
(-2.5433409e-11 0 0)
(-3.5212808e-11 0 0)
(-3.8192236e-11 0 0)
(-5.9635723e-11 0 0)
(-4.7905039e-11 0 0)
(-2.3896023e-11 0 0)
(-3.112066e-12 0 0)
(1.1084696e-11 0 0)
(2.1660925e-11 0 0)
(1.2664371e-11 0 0)
(4.2981097e-11 0 0)
(2.2183266e-11 0 0)
(9.1681522e-13 0 0)
(1.3854787e-11 0 0)
(1.3483733e-11 0 0)
(9.1389607e-12 0 0)
(2.1857053e-12 0 0)
(4.2850456e-11 0 0)
(3.706331e-11 0 0)
(1.4730757e-11 0 0)
(6.3654281e-11 0 0)
(3.899728e-11 0 0)
(2.9104111e-11 0 0)
(3.3774097e-11 0 0)
(1.9083742e-11 0 0)
(3.1968881e-11 0 0)
(2.0471174e-11 0 0)
(1.0545373e-11 0 0)
(1.3078269e-11 0 0)
(2.6024455e-11 0 0)
(3.5208369e-11 0 0)
(1.6724996e-11 0 0)
(6.963356e-12 0 0)
(5.3434566e-11 0 0)
(4.4152978e-11 0 0)
(3.7762798e-11 0 0)
(3.7364993e-11 0 0)
(1.9686887e-11 0 0)
(-8.9754656e-12 0 0)
(5.569486e-12 0 0)
(2.494359e-11 0 0)
(3.0869368e-11 0 0)
(-1.7270868e-11 0 0)
(3.4674929e-11 0 0)
(-4.0643551e-11 0 0)
(-2.1453032e-11 0 0)
(-1.1073152e-11 0 0)
(-1.4051803e-11 0 0)
(-1.121012e-11 0 0)
(-2.4236887e-11 0 0)
(-6.9247298e-12 0 0)
(-1.4285779e-11 0 0)
(-3.111844e-12 0 0)
(-2.5283788e-11 0 0)
(2.3787803e-11 0 0)
(-1.7631933e-11 0 0)
(-4.1463135e-12 0 0)
(-4.6954037e-12 0 0)
(-1.3429678e-11 0 0)
(1.9230477e-11 0 0)
(-6.6822066e-12 0 0)
(1.5928055e-11 0 0)
(-3.4580472e-11 0 0)
(3.317295e-12 0 0)
(-2.0629009e-11 0 0)
(-1.7586536e-11 0 0)
(-7.8821691e-12 0 0)
(-3.6188562e-11 0 0)
(-2.8382424e-11 0 0)
(-4.2834917e-11 0 0)
(-2.3197756e-11 0 0)
(-1.879449e-11 0 0)
(7.3491731e-12 0 0)
(-1.4946863e-11 0 0)
(3.0774357e-12 0 0)
(1.0793002e-11 0 0)
(2.0018316e-11 0 0)
(4.6531037e-11 0 0)
(2.8301176e-11 0 0)
(2.0530445e-11 0 0)
(2.192265e-11 0 0)
(2.2659765e-11 0 0)
(4.9298686e-11 0 0)
(9.2204307e-12 0 0)
(3.992808e-12 0 0)
(6.409937e-13 0 0)
(3.7894659e-12 0 0)
(-1.2603324e-11 0 0)
(9.4980281e-12 0 0)
(-3.1149297e-11 0 0)
(-6.9484827e-12 0 0)
(-2.3479349e-11 0 0)
(-2.403299e-11 0 0)
(-1.4415199e-11 0 0)
(-2.8803537e-11 0 0)
(-4.8815416e-12 0 0)
(-5.5953366e-11 0 0)
(-4.479386e-11 0 0)
(-7.2077993e-11 0 0)
(-4.2738352e-11 0 0)
(-4.1520186e-11 0 0)
(-3.9788116e-11 0 0)
(-6.4395281e-11 0 0)
(-3.5945373e-11 0 0)
(-5.67149e-11 0 0)
(-3.4632307e-11 0 0)
(-4.1887134e-11 0 0)
(-3.1884747e-11 0 0)
(-5.0842066e-11 0 0)
(-4.4546232e-11 0 0)
(-6.8151227e-11 0 0)
(-2.7252943e-11 0 0)
(-6.2894745e-11 0 0)
(-2.3605217e-11 0 0)
(-5.2003291e-11 0 0)
(8.5277135e-12 0 0)
(-3.006377e-11 0 0)
(-7.8100226e-12 0 0)
(-4.5099096e-11 0 0)
(3.8901269e-11 0 0)
(8.9449422e-12 0 0)
(3.4864396e-11 0 0)
(-3.9051001e-11 0 0)
(8.4484634e-12 0 0)
(-6.9794501e-12 0 0)
(9.0378446e-12 0 0)
(4.5514437e-12 0 0)
(7.2390665e-13 0 0)
(7.4699333e-14 0 0)
(7.1985535e-12 0 0)
(1.2278997e-11 0 0)
(-1.1020319e-11 0 0)
(2.6123684e-12 0 0)
(-2.3036925e-11 0 0)
(-1.8026075e-11 0 0)
(-2.8009038e-11 0 0)
(-3.3966228e-11 0 0)
(-4.2239875e-11 0 0)
(-1.5886432e-11 0 0)
(-3.1589168e-11 0 0)
(-3.5261979e-11 0 0)
(-1.1509028e-11 0 0)
(-5.0660368e-11 0 0)
(4.3153582e-12 0 0)
(-6.9110553e-11 0 0)
(-3.2453261e-11 0 0)
(7.310103e-13 0 0)
(-9.1783638e-12 0 0)
(-9.2161019e-12 0 0)
(-1.5735147e-11 0 0)
(-5.6607234e-13 0 0)
(3.0370337e-12 0 0)
(1.3499494e-11 0 0)
(-1.2804557e-11 0 0)
(1.1265506e-11 0 0)
(2.6741924e-12 0 0)
(7.0458249e-12 0 0)
(1.6627876e-11 0 0)
(1.1908275e-11 0 0)
(3.6560505e-12 0 0)
(3.8511123e-11 0 0)
(1.4842417e-11 0 0)
(4.4023336e-11 0 0)
(2.9027524e-11 0 0)
(4.4380073e-11 0 0)
(3.6887828e-11 0 0)
(2.6854806e-11 0 0)
(3.5571432e-11 0 0)
(1.7565225e-11 0 0)
(4.4984993e-12 0 0)
(2.1942185e-11 0 0)
(1.3360529e-11 0 0)
(2.3450491e-11 0 0)
(-3.0472452e-12 0 0)
(1.8041059e-11 0 0)
(1.7601298e-11 0 0)
(1.8786166e-11 0 0)
(1.6719114e-11 0 0)
(5.509105e-12 0 0)
(2.3516311e-11 0 0)
(7.2103189e-12 0 0)
(2.187459e-11 0 0)
(-8.457787e-13 0 0)
(8.2047193e-12 0 0)
(1.5686864e-11 0 0)
(8.7549195e-12 0 0)
(2.867323e-12 0 0)
(1.143222e-11 0 0)
(1.3251088e-11 0 0)
(8.7774514e-12 0 0)
(1.582372e-11 0 0)
(-1.1054616e-11 0 0)
(-7.9219051e-12 0 0)
(-3.2236156e-11 0 0)
(-3.9529166e-11 0 0)
(-1.6054034e-11 0 0)
(-3.2084315e-11 0 0)
(3.5469428e-11 0 0)
(-1.2676025e-11 0 0)
(2.1265229e-11 0 0)
(-2.4517593e-12 0 0)
(1.1438768e-11 0 0)
(-1.6940215e-11 0 0)
(-1.0901444e-11 0 0)
(-3.9649262e-11 0 0)
(-3.1185481e-11 0 0)
(-2.3355923e-11 0 0)
(-2.1855499e-11 0 0)
(-1.6767951e-11 0 0)
(-2.7909365e-11 0 0)
(-1.0450806e-11 0 0)
(-2.5822667e-11 0 0)
(-9.4761622e-12 0 0)
(-4.7711686e-11 0 0)
(-5.1535894e-12 0 0)
(-2.6879002e-11 0 0)
(-2.8536706e-13 0 0)
(2.5012628e-12 0 0)
(-2.2659876e-11 0 0)
(-2.6507726e-12 0 0)
(-5.387677e-13 0 0)
(4.2197919e-12 0 0)
(-8.5493575e-12 0 0)
(-2.4525695e-11 0 0)
(-1.4553831e-11 0 0)
(-1.1043184e-11 0 0)
(-1.9457461e-11 0 0)
(7.7740603e-12 0 0)
(-1.5920397e-11 0 0)
(9.2617207e-12 0 0)
(-3.1712261e-12 0 0)
(2.3149806e-11 0 0)
(1.3584294e-11 0 0)
(4.7045718e-11 0 0)
(3.3275065e-11 0 0)
(5.177997e-11 0 0)
(1.826105e-11 0 0)
(4.3712662e-11 0 0)
(-6.9043068e-12 0 0)
(3.3078938e-11 0 0)
(1.8435201e-11 0 0)
(2.1095519e-11 0 0)
(1.3353758e-11 0 0)
(2.5903471e-11 0 0)
(3.3300483e-11 0 0)
(2.6836269e-12 0 0)
(-3.9094511e-12 0 0)
(-5.437347e-11 0 0)
(-4.4960019e-11 0 0)
(-5.319282e-11 0 0)
(-5.6304886e-11 0 0)
(-4.2465083e-11 0 0)
(-4.5468485e-11 0 0)
(-1.7260212e-11 0 0)
(-2.0116547e-11 0 0)
(2.2590727e-12 0 0)
(9.1192036e-12 0 0)
(1.1723913e-11 0 0)
(-7.6927013e-12 0 0)
(-1.0996011e-11 0 0)
(1.258057e-11 0 0)
(2.050525e-11 0 0)
(7.2849072e-12 0 0)
(4.7734662e-11 0 0)
(6.1742178e-11 0 0)
(1.0263891e-11 0 0)
(1.4094092e-11 0 0)
(-1.7700084e-11 0 0)
(2.7016747e-11 0 0)
(5.1334993e-12 0 0)
(2.3864168e-11 0 0)
(8.1455592e-12 0 0)
(1.2547493e-11 0 0)
(3.5703959e-11 0 0)
(3.3727812e-11 0 0)
(2.9027302e-11 0 0)
(4.2024768e-11 0 0)
(3.0130145e-11 0 0)
(4.935929e-12 0 0)
(1.4417308e-11 0 0)
(1.4988153e-11 0 0)
(-1.239532e-11 0 0)
(2.0001224e-13 0 0)
(6.4158197e-12 0 0)
(2.2086811e-12 0 0)
(7.0148574e-12 0 0)
(1.7628381e-11 0 0)
(3.1011997e-11 0 0)
(1.904778e-11 0 0)
(5.7828953e-11 0 0)
(5.4627758e-11 0 0)
(3.4212636e-11 0 0)
(5.5328023e-11 0 0)
(3.102576e-11 0 0)
(6.5446622e-11 0 0)
(2.4421582e-11 0 0)
(1.7751807e-11 0 0)
(8.0518798e-12 0 0)
(-1.1535001e-11 0 0)
(-1.6694584e-11 0 0)
(-2.0520567e-11 0 0)
(7.8906044e-13 0 0)
(1.8898936e-11 0 0)
(-4.7624444e-12 0 0)
(2.7830559e-11 0 0)
(3.4733201e-11 0 0)
(2.8814082e-11 0 0)
(4.1114723e-11 0 0)
(2.0229317e-11 0 0)
(1.8913143e-11 0 0)
(2.985954e-11 0 0)
(2.4410927e-11 0 0)
(3.3906513e-11 0 0)
(1.3141092e-11 0 0)
(3.0909881e-11 0 0)
(4.4979443e-11 0 0)
(4.4989433e-12 0 0)
(2.5225849e-11 0 0)
(2.1618858e-11 0 0)
(5.7662461e-11 0 0)
(3.3505268e-11 0 0)
(3.8445858e-11 0 0)
(3.5160197e-11 0 0)
(2.9923362e-11 0 0)
(3.635916e-11 0 0)
(2.1823976e-11 0 0)
(7.9762925e-12 0 0)
(-1.066558e-11 0 0)
(-2.937183e-11 0 0)
(-1.0972036e-11 0 0)
(-2.2866881e-11 0 0)
(-1.3583961e-11 0 0)
(-3.4453827e-11 0 0)
(1.4878934e-11 0 0)
(1.3548208e-20 0 0)
)
;

boundaryField
{
    sides
    {
        type            zeroGradient;
    }
    emptywalls
    {
        type            empty;
    }
}


// ************************************************************************* //
