/*--------------------------------*- C++ -*----------------------------------*\
| =========                 |                                                 |
| \\      /  F ield         | OpenFOAM: The Open Source CFD Toolbox           |
|  \\    /   O peration     | Version:  2112                                  |
|   \\  /    A nd           | Website:  www.openfoam.com                      |
|    \\/     M anipulation  |                                                 |
\*---------------------------------------------------------------------------*/
FoamFile
{
    version     2.0;
    format      ascii;
    arch        "LSB;label=32;scalar=64";
    class       volScalarField;
    location    "1";
    object      T;
}
// * * * * * * * * * * * * * * * * * * * * * * * * * * * * * * * * * * * * * //

dimensions      [0 0 0 1 0 0 0];

internalField   nonuniform List<scalar> 
1000
(
0.000129046
0.000129109
0.000129235
0.000129424
0.000129679
0.000129999
0.000130385
0.000130838
0.000131358
0.000131948
0.000132606
0.000133336
0.000134136
0.000135009
0.000135954
0.000136974
0.00013807
0.000139242
0.000140491
0.000141819
0.000143227
0.000144715
0.000146287
0.000147941
0.000149681
0.000151507
0.000153421
0.000155424
0.000157517
0.000159703
0.000161983
0.000164357
0.000166829
0.0001694
0.000172071
0.000174844
0.000177721
0.000180704
0.000183795
0.000186996
0.000190308
0.000193735
0.000197277
0.000200938
0.000204719
0.000208622
0.000212651
0.000216806
0.000221092
0.00022551
0.000230062
0.000234752
0.000239582
0.000244555
0.000249673
0.00025494
0.000260358
0.00026593
0.000271659
0.000277549
0.000283602
0.000289822
0.000296212
0.000302776
0.000309516
0.000316437
0.000323542
0.000330834
0.000338317
0.000345996
0.000353874
0.000361954
0.000370242
0.000378741
0.000387455
0.000396388
0.000405546
0.000414932
0.000424551
0.000434408
0.000444507
0.000454853
0.000465451
0.000476306
0.000487423
0.000498808
0.000510465
0.0005224
0.000534619
0.000547126
0.000559928
0.000573031
0.00058644
0.000600161
0.000614201
0.000628566
0.000643261
0.000658294
0.000673671
0.000689399
0.000705484
0.000721933
0.000738754
0.000755953
0.000773538
0.000791516
0.000809894
0.000828681
0.000847884
0.000867511
0.00088757
0.000908069
0.000929017
0.000950421
0.000972291
0.000994635
0.00101746
0.00104078
0.0010646
0.00108893
0.00111378
0.00113916
0.00116508
0.00119155
0.00121857
0.00124617
0.00127435
0.00130311
0.00133248
0.00136246
0.00139306
0.00142429
0.00145617
0.00148871
0.00152191
0.0015558
0.00159037
0.00162565
0.00166165
0.00169838
0.00173584
0.00177407
0.00181306
0.00185283
0.0018934
0.00193477
0.00197696
0.00202
0.00206388
0.00210862
0.00215425
0.00220077
0.0022482
0.00229655
0.00234584
0.00239609
0.0024473
0.0024995
0.00255271
0.00260694
0.0026622
0.00271851
0.00277589
0.00283436
0.00289394
0.00295463
0.00301647
0.00307946
0.00314363
0.00320899
0.00327557
0.00334338
0.00341244
0.00348277
0.00355439
0.00362733
0.00370159
0.0037772
0.00385419
0.00393256
0.00401235
0.00409357
0.00417625
0.0042604
0.00434605
0.00443323
0.00452194
0.00461223
0.0047041
0.00479758
0.0048927
0.00498947
0.00508793
0.00518809
0.00528998
0.00539363
0.00549905
0.00560628
0.00571533
0.00582625
0.00593904
0.00605373
0.00617036
0.00628894
0.00640951
0.00653209
0.0066567
0.00678338
0.00691215
0.00704304
0.00717608
0.00731129
0.0074487
0.00758835
0.00773025
0.00787445
0.00802096
0.00816982
0.00832106
0.0084747
0.00863077
0.00878932
0.00895036
0.00911392
0.00928005
0.00944876
0.00962009
0.00979407
0.00997073
0.0101501
0.0103322
0.0105171
0.0107048
0.0108954
0.0110888
0.0112851
0.0114844
0.0116866
0.0118919
0.0121002
0.0123115
0.012526
0.0127436
0.0129643
0.0131883
0.0134155
0.013646
0.0138798
0.0141169
0.0143574
0.0146014
0.0148487
0.0150996
0.015354
0.0156119
0.0158734
0.0161385
0.0164073
0.0166797
0.0169559
0.0172359
0.0175196
0.0178072
0.0180987
0.018394
0.0186933
0.0189966
0.0193038
0.0196152
0.0199305
0.02025
0.0205737
0.0209015
0.0212336
0.0215699
0.0219105
0.0222554
0.0226047
0.0229584
0.0233165
0.023679
0.0240461
0.0244177
0.0247938
0.0251746
0.02556
0.02595
0.0263448
0.0267443
0.0271485
0.0275576
0.0279715
0.0283902
0.0288139
0.0292425
0.029676
0.0301145
0.0305581
0.0310067
0.0314604
0.0319193
0.0323832
0.0328524
0.0333267
0.0338063
0.0342912
0.0347813
0.0352768
0.0357776
0.0362838
0.0367954
0.0373124
0.0378349
0.0383629
0.0388964
0.0394354
0.0399799
0.0405301
0.0410858
0.0416472
0.0422142
0.0427869
0.0433653
0.0439494
0.0445392
0.0451348
0.0457362
0.0463433
0.0469562
0.047575
0.0481996
0.0488301
0.0494664
0.0501087
0.0507568
0.0514108
0.0520708
0.0527367
0.0534085
0.0540863
0.0547701
0.0554599
0.0561556
0.0568573
0.0575651
0.0582788
0.0589985
0.0597243
0.0604561
0.0611939
0.0619377
0.0626875
0.0634434
0.0642052
0.0649731
0.065747
0.0665269
0.0673128
0.0681047
0.0689026
0.0697065
0.0705164
0.0713322
0.072154
0.0729817
0.0738154
0.074655
0.0755004
0.0763518
0.077209
0.0780721
0.078941
0.0798157
0.0806962
0.0815825
0.0824745
0.0833723
0.0842757
0.0851848
0.0860996
0.0870199
0.0879459
0.0888773
0.0898143
0.0907568
0.0917047
0.0926581
0.0936168
0.0945809
0.0955502
0.0965248
0.0975046
0.0984896
0.0994797
0.100475
0.101475
0.10248
0.103491
0.104506
0.105525
0.10655
0.10758
0.108614
0.109652
0.110695
0.111743
0.112795
0.113852
0.114913
0.115978
0.117047
0.118121
0.119198
0.12028
0.121365
0.122454
0.123547
0.124644
0.125744
0.126848
0.127955
0.129066
0.13018
0.131297
0.132418
0.133541
0.134667
0.135797
0.136929
0.138064
0.139201
0.140341
0.141484
0.142629
0.143776
0.144925
0.146076
0.14723
0.148385
0.149542
0.1507
0.151861
0.153022
0.154186
0.15535
0.156515
0.157682
0.15885
0.160018
0.161187
0.162357
0.163527
0.164698
0.165869
0.16704
0.168211
0.169383
0.170554
0.171724
0.172895
0.174065
0.175234
0.176402
0.17757
0.178737
0.179902
0.181067
0.18223
0.183391
0.184551
0.185709
0.186866
0.18802
0.189172
0.190322
0.19147
0.192615
0.193758
0.194898
0.196035
0.197169
0.1983
0.199428
0.200552
0.201673
0.20279
0.203904
0.205013
0.206119
0.20722
0.208317
0.20941
0.210498
0.211582
0.212661
0.213734
0.214803
0.215867
0.216925
0.217978
0.219025
0.220067
0.221103
0.222132
0.223156
0.224174
0.225185
0.226189
0.227187
0.228179
0.229163
0.230141
0.231111
0.232074
0.23303
0.233979
0.23492
0.235853
0.236778
0.237695
0.238604
0.239505
0.240398
0.241282
0.242158
0.243025
0.243884
0.244733
0.245573
0.246405
0.247227
0.248039
0.248843
0.249636
0.25042
0.251194
0.251959
0.252713
0.253458
0.254192
0.254915
0.255629
0.256332
0.257024
0.257706
0.258377
0.259037
0.259686
0.260324
0.260951
0.261567
0.262171
0.262764
0.263346
0.263916
0.264474
0.265021
0.265556
0.266079
0.26659
0.267089
0.267576
0.268051
0.268514
0.268965
0.269403
0.269828
0.270242
0.270642
0.27103
0.271406
0.271769
0.272119
0.272456
0.272781
0.273093
0.273391
0.273677
0.27395
0.27421
0.274456
0.27469
0.27491
0.275118
0.275312
0.275493
0.27566
0.275815
0.275956
0.276084
0.276198
0.276299
0.276387
0.276461
0.276522
0.27657
0.276604
0.276625
0.276633
0.276627
0.276608
0.276575
0.276529
0.27647
0.276397
0.276311
0.276211
0.276099
0.275973
0.275833
0.275681
0.275515
0.275336
0.275144
0.274939
0.27472
0.274489
0.274244
0.273987
0.273716
0.273433
0.273137
0.272828
0.272506
0.272171
0.271824
0.271464
0.271091
0.270706
0.270309
0.269899
0.269476
0.269042
0.268595
0.268136
0.267665
0.267182
0.266686
0.26618
0.265661
0.26513
0.264588
0.264034
0.263469
0.262893
0.262305
0.261705
0.261095
0.260473
0.259841
0.259198
0.258543
0.257879
0.257203
0.256517
0.255821
0.255114
0.254397
0.25367
0.252932
0.252185
0.251428
0.250662
0.249885
0.2491
0.248304
0.2475
0.246686
0.245863
0.245032
0.244191
0.243342
0.242484
0.241617
0.240743
0.239859
0.238968
0.238069
0.237162
0.236247
0.235324
0.234394
0.233456
0.232511
0.231559
0.230599
0.229633
0.22866
0.22768
0.226694
0.225701
0.224702
0.223696
0.222685
0.221667
0.220644
0.219615
0.218581
0.217541
0.216495
0.215445
0.214389
0.213329
0.212263
0.211193
0.210119
0.20904
0.207957
0.206869
0.205778
0.204682
0.203583
0.20248
0.201374
0.200264
0.199151
0.198034
0.196915
0.195793
0.194668
0.19354
0.19241
0.191277
0.190142
0.189005
0.187866
0.186725
0.185582
0.184438
0.183292
0.182144
0.180995
0.179845
0.178694
0.177542
0.176389
0.175235
0.174081
0.172926
0.171771
0.170615
0.169459
0.168304
0.167148
0.165992
0.164837
0.163682
0.162528
0.161374
0.160221
0.159069
0.157917
0.156767
0.155618
0.15447
0.153323
0.152178
0.151034
0.149892
0.148751
0.147613
0.146476
0.145341
0.144209
0.143078
0.14195
0.140824
0.139701
0.13858
0.137461
0.136346
0.135233
0.134123
0.133016
0.131912
0.130811
0.129714
0.128619
0.127528
0.12644
0.125356
0.124276
0.123199
0.122125
0.121056
0.11999
0.118928
0.11787
0.116817
0.115767
0.114721
0.11368
0.112643
0.11161
0.110582
0.109558
0.108538
0.107524
0.106513
0.105508
0.104507
0.103511
0.102519
0.101533
0.100551
0.0995748
0.0986031
0.0976365
0.096675
0.0957185
0.0947672
0.0938211
0.0928802
0.0919446
0.0910143
0.0900892
0.0891696
0.0882553
0.0873465
0.0864431
0.0855451
0.0846527
0.0837658
0.0828844
0.0820087
0.0811385
0.0802739
0.079415
0.0785618
0.0777142
0.0768723
0.0760361
0.0752057
0.074381
0.0735621
0.0727489
0.0719415
0.0711399
0.0703442
0.0695542
0.06877
0.0679917
0.0672192
0.0664526
0.0656918
0.0649369
0.0641878
0.0634446
0.0627072
0.0619757
0.06125
0.0605303
0.0598163
0.0591083
0.058406
0.0577097
0.0570191
0.0563345
0.0556556
0.0549826
0.0543154
0.053654
0.0529984
0.0523487
0.0517047
0.0510665
0.050434
0.0498073
0.0491864
0.0485712
0.0479617
0.0473579
0.0467598
0.0461674
0.0455807
0.0449996
0.0444241
0.0438542
0.04329
0.0427313
0.0421782
0.0416307
0.0410886
0.0405521
0.0400211
0.0394956
0.0389755
0.0384608
0.0379516
0.0374477
0.0369493
0.0364561
0.0359683
0.0354859
0.0350087
0.0345367
0.0340701
0.0336086
0.0331523
0.0327013
0.0322553
0.0318146
0.0313789
0.0309483
0.0305228
0.0301023
0.0296868
0.0292763
0.0288708
0.0284703
0.0280747
0.027684
0.0272981
0.0269172
0.026541
0.0261697
0.0258032
0.0254414
0.0250844
0.0247321
0.0243845
0.0240416
0.0237033
0.0233697
0.0230406
0.0227162
0.0223964
0.0220811
0.0217703
0.0214641
0.0211623
0.020865
0.0205722
0.0202838
0.0199998
0.0197202
0.019445
0.0191742
0.0189077
0.0186455
0.0183877
0.0181341
0.0178848
0.0176399
0.0173991
0.0171626
0.0169303
0.0167023
0.0164784
0.0162588
0.0160433
0.015832
0.0156249
0.015422
0.0152231
0.0150285
0.0148379
0.0146515
0.0144692
0.0142911
0.014117
0.0139471
0.0137813
0.0136196
0.013462
0.0133086
0.0131592
0.013014
0.0128729
0.012736
0.0126031
0.0124744
0.0123499
0.0122295
0.0121133
0.0120013
0.0118935
0.0117899
0.0116905
0.0115953
0.0115044
0.0114178
0.0113355
0.0112575
0.0111838
0.0111145
0.0110496
0.0109891
0.010933
0.0108814
0.0108343
0.0107917
0.0107538
0.0107204
0.0106916
0.0106676
0.0106482
0.0106337
0.0106239
0.010619
)
;

boundaryField
{
    sides
    {
        type            zeroGradient;
    }
    empty
    {
        type            empty;
    }
}


// ************************************************************************* //
