/*--------------------------------*- C++ -*----------------------------------*\
| =========                 |                                                 |
| \\      /  F ield         | OpenFOAM: The Open Source CFD Toolbox           |
|  \\    /   O peration     | Version:  2112                                  |
|   \\  /    A nd           | Website:  www.openfoam.com                      |
|    \\/     M anipulation  |                                                 |
\*---------------------------------------------------------------------------*/
FoamFile
{
    version     2.0;
    format      ascii;
    arch        "LSB;label=32;scalar=64";
    class       volScalarField;
    location    "1";
    object      T;
}
// * * * * * * * * * * * * * * * * * * * * * * * * * * * * * * * * * * * * * //

dimensions      [0 0 0 1 0 0 0];

internalField   nonuniform List<scalar> 
1000
(
0.00147941
0.00148014
0.0014816
0.00148379
0.00148671
0.00149036
0.00149475
0.00149987
0.00150573
0.00151232
0.00151965
0.00152773
0.00153655
0.00154612
0.00155644
0.00156752
0.00157935
0.00159194
0.0016053
0.00161942
0.00163432
0.00165
0.00166646
0.0016837
0.00170174
0.00172058
0.00174023
0.00176068
0.00178195
0.00180405
0.00182697
0.00185073
0.00187533
0.00190079
0.00192711
0.00195429
0.00198234
0.00201128
0.00204112
0.00207185
0.00210349
0.00213605
0.00216954
0.00220397
0.00223935
0.00227569
0.00231299
0.00235128
0.00239056
0.00243084
0.00247213
0.00251445
0.00255781
0.00260221
0.00264768
0.00269422
0.00274186
0.00279059
0.00284044
0.00289141
0.00294353
0.0029968
0.00305125
0.00310688
0.00316371
0.00322176
0.00328103
0.00334156
0.00340334
0.00346641
0.00353077
0.00359644
0.00366345
0.00373179
0.0038015
0.0038726
0.00394509
0.004019
0.00409434
0.00417114
0.00424942
0.00432918
0.00441046
0.00449327
0.00457763
0.00466356
0.00475108
0.00484022
0.00493099
0.00502342
0.00511752
0.00521332
0.00531085
0.00541011
0.00551114
0.00561395
0.00571858
0.00582504
0.00593336
0.00604355
0.00615565
0.00626968
0.00638567
0.00650363
0.00662359
0.00674558
0.00686962
0.00699575
0.00712397
0.00725433
0.00738684
0.00752154
0.00765844
0.00779758
0.00793899
0.00808268
0.0082287
0.00837706
0.0085278
0.00868093
0.0088365
0.00899453
0.00915505
0.00931809
0.00948367
0.00965183
0.0098226
0.009996
0.0101721
0.0103508
0.0105323
0.0107166
0.0109036
0.0110935
0.0112862
0.0114818
0.0116803
0.0118817
0.0120861
0.0122936
0.012504
0.0127176
0.0129342
0.013154
0.013377
0.0136032
0.0138326
0.0140652
0.0143012
0.0145405
0.0147832
0.0150293
0.0152788
0.0155318
0.0157882
0.0160483
0.0163119
0.0165791
0.0168499
0.0171244
0.0174027
0.0176846
0.0179704
0.0182599
0.0185533
0.0188506
0.0191518
0.0194569
0.019766
0.0200792
0.0203963
0.0207176
0.021043
0.0213725
0.0217063
0.0220442
0.0223864
0.0227329
0.0230838
0.0234389
0.0237985
0.0241625
0.024531
0.0249039
0.0252814
0.0256634
0.02605
0.0264413
0.0268372
0.0272378
0.0276431
0.0280532
0.028468
0.0288877
0.0293122
0.0297416
0.0301759
0.0306152
0.0310594
0.0315087
0.031963
0.0324223
0.0328867
0.0333563
0.033831
0.0343109
0.034796
0.0352863
0.0357819
0.0362828
0.036789
0.0373006
0.0378175
0.0383398
0.0388676
0.0394008
0.0399395
0.0404836
0.0410333
0.0415885
0.0421493
0.0427157
0.0432877
0.0438653
0.0444485
0.0450374
0.0456321
0.0462324
0.0468384
0.0474502
0.0480678
0.0486911
0.0493202
0.0499551
0.0505959
0.0512425
0.0518949
0.0525532
0.0532173
0.0538874
0.0545633
0.0552452
0.0559329
0.0566266
0.0573262
0.0580318
0.0587433
0.0594607
0.0601841
0.0609134
0.0616487
0.06239
0.0631372
0.0638904
0.0646495
0.0654146
0.0661856
0.0669626
0.0677455
0.0685344
0.0693292
0.07013
0.0709366
0.0717492
0.0725677
0.0733921
0.0742223
0.0750584
0.0759004
0.0767482
0.0776018
0.0784612
0.0793264
0.0801974
0.0810741
0.0819565
0.0828446
0.0837385
0.0846379
0.085543
0.0864537
0.08737
0.0882918
0.0892191
0.0901519
0.0910902
0.0920339
0.0929829
0.0939373
0.094897
0.095862
0.0968322
0.0978076
0.0987882
0.0997739
0.100765
0.10176
0.102761
0.103767
0.104777
0.105793
0.106813
0.107837
0.108867
0.109901
0.11094
0.111983
0.11303
0.114082
0.115139
0.116199
0.117264
0.118333
0.119406
0.120483
0.121564
0.122648
0.123737
0.124829
0.125925
0.127024
0.128127
0.129234
0.130343
0.131456
0.132573
0.133692
0.134814
0.135939
0.137067
0.138198
0.139331
0.140467
0.141606
0.142747
0.14389
0.145036
0.146183
0.147333
0.148485
0.149638
0.150793
0.15195
0.153108
0.154268
0.155429
0.156592
0.157755
0.15892
0.160085
0.161252
0.162419
0.163586
0.164754
0.165923
0.167091
0.16826
0.169429
0.170598
0.171767
0.172935
0.174103
0.175271
0.176438
0.177604
0.178769
0.179933
0.181096
0.182258
0.183418
0.184577
0.185734
0.18689
0.188043
0.189195
0.190345
0.191492
0.192637
0.19378
0.194919
0.196057
0.197191
0.198322
0.19945
0.200575
0.201697
0.202815
0.203929
0.20504
0.206147
0.207249
0.208348
0.209442
0.210532
0.211617
0.212698
0.213774
0.214844
0.21591
0.216971
0.218026
0.219076
0.22012
0.221159
0.222191
0.223218
0.224239
0.225253
0.226261
0.227263
0.228258
0.229246
0.230227
0.231202
0.232169
0.233129
0.234082
0.235027
0.235965
0.236894
0.237816
0.23873
0.239636
0.240534
0.241423
0.242304
0.243177
0.24404
0.244895
0.245741
0.246578
0.247406
0.248225
0.249034
0.249833
0.250624
0.251404
0.252175
0.252935
0.253686
0.254427
0.255157
0.255877
0.256587
0.257286
0.257974
0.258652
0.259319
0.259975
0.26062
0.261254
0.261877
0.262489
0.263089
0.263678
0.264255
0.264821
0.265375
0.265917
0.266447
0.266966
0.267472
0.267967
0.268449
0.268919
0.269377
0.269823
0.270256
0.270677
0.271085
0.271481
0.271864
0.272234
0.272592
0.272936
0.273268
0.273587
0.273893
0.274186
0.274466
0.274733
0.274987
0.275228
0.275456
0.27567
0.275871
0.276059
0.276234
0.276395
0.276543
0.276677
0.276798
0.276906
0.277
0.277081
0.277148
0.277202
0.277243
0.27727
0.277283
0.277283
0.27727
0.277243
0.277202
0.277148
0.277081
0.277
0.276906
0.276798
0.276677
0.276543
0.276395
0.276234
0.276059
0.275871
0.27567
0.275456
0.275228
0.274987
0.274733
0.274466
0.274186
0.273893
0.273587
0.273268
0.272936
0.272592
0.272234
0.271864
0.271481
0.271085
0.270677
0.270256
0.269823
0.269377
0.268919
0.268449
0.267967
0.267472
0.266966
0.266447
0.265917
0.265375
0.264821
0.264255
0.263678
0.263089
0.262489
0.261877
0.261254
0.26062
0.259975
0.259319
0.258652
0.257974
0.257286
0.256587
0.255877
0.255157
0.254427
0.253686
0.252935
0.252175
0.251404
0.250624
0.249833
0.249034
0.248225
0.247406
0.246578
0.245741
0.244895
0.24404
0.243177
0.242304
0.241423
0.240534
0.239636
0.23873
0.237816
0.236894
0.235965
0.235027
0.234082
0.233129
0.232169
0.231202
0.230227
0.229246
0.228258
0.227263
0.226261
0.225253
0.224239
0.223218
0.222191
0.221159
0.22012
0.219076
0.218026
0.216971
0.21591
0.214844
0.213774
0.212698
0.211617
0.210532
0.209442
0.208348
0.207249
0.206147
0.20504
0.203929
0.202815
0.201697
0.200575
0.19945
0.198322
0.197191
0.196057
0.194919
0.19378
0.192637
0.191492
0.190345
0.189195
0.188043
0.18689
0.185734
0.184577
0.183418
0.182258
0.181096
0.179933
0.178769
0.177604
0.176438
0.175271
0.174103
0.172935
0.171767
0.170598
0.169429
0.16826
0.167091
0.165923
0.164754
0.163586
0.162419
0.161252
0.160085
0.15892
0.157755
0.156592
0.155429
0.154268
0.153108
0.15195
0.150793
0.149638
0.148485
0.147333
0.146183
0.145036
0.14389
0.142747
0.141606
0.140467
0.139331
0.138198
0.137067
0.135939
0.134814
0.133692
0.132573
0.131456
0.130343
0.129234
0.128127
0.127024
0.125925
0.124829
0.123737
0.122648
0.121564
0.120483
0.119406
0.118333
0.117264
0.116199
0.115139
0.114082
0.11303
0.111983
0.11094
0.109901
0.108867
0.107837
0.106813
0.105793
0.104777
0.103767
0.102761
0.10176
0.100765
0.0997739
0.0987882
0.0978076
0.0968322
0.095862
0.094897
0.0939373
0.0929829
0.0920339
0.0910902
0.0901519
0.0892191
0.0882918
0.08737
0.0864537
0.085543
0.0846379
0.0837385
0.0828446
0.0819565
0.0810741
0.0801974
0.0793264
0.0784612
0.0776018
0.0767482
0.0759004
0.0750584
0.0742223
0.0733921
0.0725677
0.0717492
0.0709366
0.07013
0.0693292
0.0685344
0.0677455
0.0669626
0.0661856
0.0654146
0.0646495
0.0638904
0.0631372
0.06239
0.0616487
0.0609134
0.0601841
0.0594607
0.0587433
0.0580318
0.0573262
0.0566266
0.0559329
0.0552452
0.0545633
0.0538874
0.0532173
0.0525532
0.0518949
0.0512425
0.0505959
0.0499551
0.0493202
0.0486911
0.0480678
0.0474502
0.0468384
0.0462324
0.0456321
0.0450374
0.0444485
0.0438653
0.0432877
0.0427157
0.0421493
0.0415885
0.0410333
0.0404836
0.0399395
0.0394008
0.0388676
0.0383398
0.0378175
0.0373006
0.036789
0.0362828
0.0357819
0.0352863
0.034796
0.0343109
0.033831
0.0333563
0.0328867
0.0324223
0.031963
0.0315087
0.0310594
0.0306152
0.0301759
0.0297416
0.0293122
0.0288877
0.028468
0.0280532
0.0276431
0.0272378
0.0268372
0.0264413
0.02605
0.0256634
0.0252814
0.0249039
0.024531
0.0241625
0.0237985
0.0234389
0.0230838
0.0227329
0.0223864
0.0220442
0.0217063
0.0213725
0.021043
0.0207176
0.0203963
0.0200792
0.019766
0.0194569
0.0191518
0.0188506
0.0185533
0.0182599
0.0179704
0.0176846
0.0174027
0.0171244
0.0168499
0.0165791
0.0163119
0.0160483
0.0157882
0.0155318
0.0152788
0.0150293
0.0147832
0.0145405
0.0143012
0.0140652
0.0138326
0.0136032
0.013377
0.013154
0.0129342
0.0127176
0.012504
0.0122936
0.0120861
0.0118817
0.0116803
0.0114818
0.0112862
0.0110935
0.0109036
0.0107166
0.0105323
0.0103508
0.0101721
0.009996
0.0098226
0.00965183
0.00948367
0.00931809
0.00915505
0.00899453
0.0088365
0.00868093
0.0085278
0.00837706
0.0082287
0.00808268
0.00793899
0.00779758
0.00765844
0.00752154
0.00738684
0.00725433
0.00712397
0.00699575
0.00686962
0.00674558
0.00662359
0.00650363
0.00638567
0.00626968
0.00615565
0.00604355
0.00593336
0.00582504
0.00571858
0.00561395
0.00551114
0.00541011
0.00531085
0.00521332
0.00511752
0.00502342
0.00493099
0.00484022
0.00475108
0.00466356
0.00457763
0.00449327
0.00441046
0.00432918
0.00424942
0.00417114
0.00409434
0.004019
0.00394509
0.0038726
0.0038015
0.00373179
0.00366345
0.00359644
0.00353077
0.00346641
0.00340334
0.00334156
0.00328103
0.00322176
0.00316371
0.00310688
0.00305125
0.0029968
0.00294353
0.00289141
0.00284044
0.00279059
0.00274186
0.00269422
0.00264768
0.00260221
0.00255781
0.00251445
0.00247213
0.00243084
0.00239056
0.00235128
0.00231299
0.00227569
0.00223935
0.00220397
0.00216954
0.00213605
0.00210349
0.00207185
0.00204112
0.00201128
0.00198234
0.00195429
0.00192711
0.00190079
0.00187533
0.00185073
0.00182697
0.00180405
0.00178195
0.00176068
0.00174023
0.00172058
0.00170174
0.0016837
0.00166646
0.00165
0.00163432
0.00161942
0.0016053
0.00159194
0.00157935
0.00156752
0.00155644
0.00154612
0.00153655
0.00152773
0.00151965
0.00151232
0.00150573
0.00149987
0.00149475
0.00149036
0.00148671
0.00148379
0.0014816
0.00148014
0.00147941
)
;

boundaryField
{
    sides
    {
        type            zeroGradient;
    }
    empty
    {
        type            empty;
    }
}


// ************************************************************************* //
