/*--------------------------------*- C++ -*----------------------------------*\
| =========                 |                                                 |
| \\      /  F ield         | OpenFOAM: The Open Source CFD Toolbox           |
|  \\    /   O peration     | Version:  2112                                  |
|   \\  /    A nd           | Website:  www.openfoam.com                      |
|    \\/     M anipulation  |                                                 |
\*---------------------------------------------------------------------------*/
FoamFile
{
    version     2.0;
    format      ascii;
    arch        "LSB;label=32;scalar=64";
    class       volScalarField;
    location    "0.09";
    object      p;
}
// * * * * * * * * * * * * * * * * * * * * * * * * * * * * * * * * * * * * * //

dimensions      [1 -1 -2 0 0 0 0];

internalField   nonuniform List<scalar> 
1000
(
1
1
1
1
1
1
1
1
1
1
1
1
1
1
1
1
1
1
1
1
1
1
1
1
1
1
1
1
1
1
1
1
1
1
1
1
1
1
1
1
1
1
1
1
1
1
1
1
1
1
1
1
1
1
1
1
1
1
1
1
1
1
1
1
1
1
1
1
1
1
1
1
1
1
1
1
1
1
1
1
1
1
1
1
1
1
1
1
1
1
1
1
1
1
1
1
1
1
1
1
1
1
1
1
1
1
1
1
1
1
1
1
1
1
1
1
1
1
1
1
1
1
1
1
1
1
1
1
1
1
1
1
1
1
1
1
1
1
1
1
1
1
1
1
1
1
1
1
1
1
1
1
1
1
1
1
1
1
1
1
1
1
1
1
1
1
1
1
1
1
1
1
1
1
1
1
1
1
1
1
1
1
1
1
1
1
1
1
1
1
1
1
1
1
1
1
1
1
1
1
1
1
1
1
1
1
1
1
1
1
1
1
1
1
1
1
1
1
1
1
1
1
1
1
1
1
1
1
1
1
1
1
1
1
1
1
1
1
1
1
1
1
1
1
1
1
1
1
1
1
1
1
1
1
1
1
1
1
1
1
1
1
1
1
1
1
1
1
1
1
1
1
1
1
1
1
1
1
1
1
1
1
1
1
1
1
1
1
1
1
1
1
1
1
1
1
1
1
1
1
1
1
1
1
1
1
1
1
1
1
1
1
1
1
1
1
1
1
1
0.99999999
0.99999999
0.99999999
0.99999999
0.99999998
0.99999997
0.99999996
0.99999994
0.99999992
0.99999989
0.99999985
0.99999979
0.99999971
0.99999961
0.99999946
0.99999927
0.99999901
0.99999866
0.9999982
0.99999758
0.99999676
0.99999568
0.99999425
0.99999238
0.99998994
0.99998676
0.99998263
0.99997731
0.99997046
0.99996169
0.99995049
0.99993627
0.99991826
0.99989559
0.99986713
0.9998316
0.99978741
0.99973271
0.99966531
0.99958264
0.99948172
0.9993591
0.99921083
0.99903243
0.99881882
0.99856432
0.99826263
0.9979068
0.99748925
0.99700178
0.99643561
0.99578142
0.99502942
0.99416945
0.99319105
0.99208361
0.99083649
0.98943914
0.98788127
0.98615296
0.98424486
0.98214828
0.97985532
0.97735902
0.9746534
0.97173357
0.96859581
0.96523753
0.96165734
0.95785502
0.9538315
0.94958882
0.94513002
0.94045913
0.93558107
0.93050152
0.9252269
0.91976418
0.91412089
0.90830494
0.90232457
0.89618826
0.88990465
0.88348248
0.87693049
0.87025739
0.86347182
0.85658226
0.84959706
0.84252434
0.83537199
0.82814768
0.8208588
0.81351245
0.80611549
0.79867445
0.7911956
0.7836849
0.77614805
0.76859044
0.76101719
0.75343318
0.74584298
0.73825095
0.73066117
0.7230775
0.71550357
0.70794277
0.7003983
0.69287313
0.68537002
0.67789163
0.67044008
0.66301818
0.65562649
0.64826957
0.64094419
0.63365793
0.62640723
0.61919551
0.61202423
0.60488827
0.59779067
0.59072595
0.5836916
0.57666917
0.56970062
0.56277113
0.55582522
0.54963969
0.54295047
0.53634398
0.52955928
0.52357167
0.51701017
0.5106554
0.5042414
0.49800699
0.49189392
0.48557209
0.47961834
0.47339053
0.46734338
0.46143283
0.45548008
0.4496343
0.44380847
0.4380685
0.43242701
0.42689997
0.42149507
0.41621816
0.41106794
0.40605635
0.4011755
0.39643977
0.39184877
0.38740621
0.38309409
0.37889945
0.37481842
0.37086148
0.36706553
0.36345828
0.36005391
0.35673207
0.35377545
0.35067017
0.34777546
0.34502602
0.34152709
0.33852209
0.33521983
0.33202028
0.32814774
0.32487164
0.32167786
0.31871398
0.31608575
0.31382185
0.31195506
0.31044348
0.30919628
0.30812519
0.30719006
0.30638649
0.30571804
0.30515862
0.30467417
0.30424687
0.30388017
0.30358411
0.30339151
0.30331963
0.30332055
0.30333956
0.30336243
0.30343703
0.30346802
0.30354479
0.30366039
0.30375931
0.30384215
0.30390913
0.30396968
0.30401978
0.30406048
0.30409113
0.30411911
0.30414899
0.30416945
0.30420305
0.30426987
0.30431306
0.30434172
0.30435097
0.30435099
0.30435749
0.30437399
0.30437902
0.30439593
0.30440437
0.30441135
0.30441799
0.30441811
0.30442254
0.30441335
0.30440733
0.30434784
0.30428068
0.30420014
0.3041518
0.30409969
0.30403205
0.30398265
0.30393364
0.30389075
0.30387128
0.30386702
0.30386221
0.30385967
0.30385639
0.30385039
0.30384382
0.30383953
0.30383564
0.30382995
0.30382571
0.3038203
0.30381234
0.30380563
0.30379883
0.30379413
0.3037916
0.30378872
0.30378987
0.30379509
0.30379893
0.30380602
0.30381336
0.30381755
0.30381967
0.30382148
0.30382288
0.30382484
0.30382887
0.30383489
0.30383692
0.30383568
0.30383439
0.30383493
0.30383728
0.30384073
0.30384618
0.30384985
0.30385798
0.30386155
0.30386353
0.30386245
0.30385761
0.3038507
0.30384075
0.30383063
0.30381163
0.30379299
0.30377788
0.30376779
0.30376565
0.30376514
0.30376507
0.30376259
0.30376308
0.30375644
0.30374958
0.30373823
0.30372589
0.3037105
0.30369698
0.30368682
0.30367978
0.30367662
0.30367037
0.30366158
0.3036475
0.30364016
0.30363754
0.30363913
0.30364129
0.30364018
0.30363503
0.30363149
0.30362111
0.3036011
0.30359285
0.3035991
0.30357975
0.30354819
0.30350754
0.30343085
0.30330036
0.30308669
0.30279178
0.30236166
0.30180101
0.30100441
0.30001342
0.29886944
0.29701053
0.29453802
0.29186764
0.2876894
0.28278676
0.2759146
0.26786603
0.25793228
0.24532255
0.2306245
0.21327703
0.19438111
0.1744287
0.15501364
0.13789728
0.12435054
0.11472382
0.10849906
0.10475453
0.10260931
0.1014165
0.10076445
0.10041129
0.10022094
0.10011859
0.10006363
0.10003413
0.10001831
0.10000982
0.10000527
0.10000282
0.10000151
0.10000081
0.10000044
0.10000023
0.10000013
0.10000007
0.10000004
0.10000002
0.10000001
0.10000001
0.1
0.1
0.1
0.1
0.1
0.1
0.1
0.1
0.1
0.1
0.1
0.1
0.1
0.1
0.1
0.1
0.1
0.1
0.1
0.1
0.1
0.1
0.1
0.1
0.1
0.1
0.1
0.1
0.1
0.1
0.1
0.1
0.1
0.1
0.1
0.1
0.1
0.1
0.1
0.1
0.1
0.1
0.1
0.1
0.1
0.1
0.1
0.1
0.1
0.1
0.1
0.1
0.1
0.1
0.1
0.1
0.1
0.1
0.1
0.1
0.1
0.1
0.1
0.1
0.1
0.1
0.1
0.1
0.1
0.1
0.1
0.1
0.1
0.1
0.1
0.1
0.1
0.1
0.1
0.1
0.1
0.1
0.1
0.1
0.1
0.1
0.1
0.1
0.1
0.1
0.1
0.1
0.1
0.1
0.1
0.1
0.1
0.1
0.1
0.1
0.1
0.1
0.1
0.1
0.1
0.1
0.1
0.1
0.1
0.1
0.1
0.1
0.1
0.1
0.1
0.1
0.1
0.1
0.1
0.1
0.1
0.1
0.1
0.1
0.1
0.1
0.1
0.1
0.1
0.1
0.1
0.1
0.1
0.1
0.1
0.1
0.1
0.1
0.1
0.1
0.1
0.1
0.1
0.1
0.1
0.1
0.1
0.1
0.1
0.1
0.1
0.1
0.1
0.1
0.1
0.1
0.1
0.1
0.1
0.1
0.1
0.1
0.1
0.1
0.1
0.1
0.1
0.1
0.1
0.1
0.1
0.1
0.1
0.1
0.1
0.1
0.1
0.1
0.1
0.1
0.1
0.1
0.1
0.1
0.1
0.1
0.1
0.1
0.1
0.1
0.1
0.1
0.1
0.1
0.1
0.1
0.1
0.1
0.1
0.1
0.1
0.1
0.1
0.1
0.1
0.1
0.1
0.1
0.1
0.1
0.1
0.1
0.1
0.1
0.1
0.1
0.1
0.1
0.1
0.1
0.1
0.1
0.1
0.1
0.1
0.1
0.1
0.1
0.1
0.1
0.1
0.1
0.1
0.1
0.1
0.1
0.1
0.1
0.1
0.1
0.1
0.1
0.1
0.1
0.1
0.1
0.1
0.1
0.1
0.1
0.1
0.1
0.1
0.1
0.1
0.1
0.1
0.1
0.1
0.1
0.1
0.1
0.1
0.1
0.1
0.1
0.1
0.1
0.1
0.1
0.1
0.1
0.1
0.1
0.1
0.1
0.1
0.1
0.1
0.1
0.1
0.1
0.1
0.1
0.1
0.1
0.1
0.1
0.1
0.1
0.1
0.1
0.1
0.1
0.1
0.1
0.1
0.1
0.1
0.1
0.1
0.1
0.1
0.1
0.1
0.1
0.1
0.1
0.1
0.1
0.1
0.1
0.1
)
;

boundaryField
{
    sides
    {
        type            zeroGradient;
    }
    emptywalls
    {
        type            empty;
    }
}


// ************************************************************************* //
