/*--------------------------------*- C++ -*----------------------------------*\
| =========                 |                                                 |
| \\      /  F ield         | OpenFOAM: The Open Source CFD Toolbox           |
|  \\    /   O peration     | Version:  2112                                  |
|   \\  /    A nd           | Website:  www.openfoam.com                      |
|    \\/     M anipulation  |                                                 |
\*---------------------------------------------------------------------------*/
FoamFile
{
    version     2.0;
    format      ascii;
    arch        "LSB;label=32;scalar=64";
    class       surfaceScalarField;
    location    "0.09";
    object      phi;
}
// * * * * * * * * * * * * * * * * * * * * * * * * * * * * * * * * * * * * * //

dimensions      [1 0 -1 0 0 0 0];

oriented        oriented;

internalField   nonuniform List<scalar> 
999
(
-4.3292037e-12
-8.8605789e-12
-9.553025e-12
1.5160984e-11
1.5241142e-11
5.7431837e-12
5.8379968e-12
1.3169688e-11
2.762901e-12
-1.0587531e-11
-9.6183062e-12
-1.1686652e-11
-1.0630163e-11
-8.4066087e-12
-1.1517898e-11
-3.9264147e-12
3.2795988e-12
1.146605e-11
1.6360802e-11
1.9321544e-11
2.2219782e-11
9.3214325e-13
5.6035176e-12
-4.3152149e-12
5.3490545e-12
1.9910518e-11
1.3883783e-11
-1.7319479e-14
2.9839908e-11
4.7410964e-12
2.1518343e-11
1.2962076e-11
2.8665514e-11
1.3703705e-11
2.2803093e-11
8.7032603e-12
3.0034419e-11
3.8633541e-11
3.5507597e-11
2.376388e-11
2.7164271e-11
2.5466296e-11
2.1956659e-11
3.8846926e-11
3.8865577e-11
4.3307136e-11
5.1203264e-11
4.3655191e-11
5.6175287e-11
4.8335669e-11
4.4464099e-11
4.8075766e-11
3.0624614e-11
2.4043101e-11
2.2753244e-11
5.1914806e-11
5.3851812e-11
5.5308091e-11
4.876588e-11
4.4232285e-11
4.8796744e-11
4.5248916e-11
4.0669912e-11
4.4840132e-11
2.4490743e-11
2.2179814e-11
1.6327828e-11
2.0404345e-11
1.7141844e-12
-1.3849144e-11
-1.6104229e-11
-3.7551295e-11
-1.0806689e-11
-1.4268586e-11
9.8610009e-13
1.9188207e-11
2.4021674e-11
2.7372993e-11
1.8313129e-11
1.7319701e-11
-1.8005597e-12
-4.1622261e-12
5.7698291e-12
1.9998669e-11
7.5244255e-12
2.6427749e-12
-9.3689501e-12
-1.4467538e-11
-8.0757623e-12
1.4912405e-11
3.1028069e-11
1.8762769e-11
2.0207724e-11
3.3362646e-11
4.7755133e-12
4.7560844e-12
-1.301903e-11
-1.016498e-11
-2.7812863e-11
-2.7466918e-11
-3.3856251e-11
-2.2078783e-11
-1.5854318e-11
-1.3520185e-11
-1.2292389e-12
-1.1173729e-11
-1.4274359e-11
-2.548739e-11
-2.6066704e-11
-1.8278046e-11
-1.2248647e-11
-2.1765256e-11
-7.2477579e-12
-5.81446e-12
-1.903433e-11
-3.4572678e-11
-2.4863889e-11
-1.894862e-11
-2.4274138e-11
-1.0529355e-11
-1.4672596e-11
-2.1503466e-11
-1.1311618e-11
-2.7249092e-11
-1.1634915e-11
-1.0301537e-11
-1.5006441e-11
-7.686074e-12
-5.8707483e-12
1.8924862e-12
-1.340994e-11
-1.6672663e-11
-1.7904234e-11
-1.9044766e-12
-3.5331738e-12
1.234457e-11
3.2041036e-13
1.7090773e-11
-1.7652546e-12
3.4264813e-12
1.3481438e-11
2.4835911e-11
1.0981882e-11
1.724576e-11
9.249268e-12
7.631229e-12
8.5951246e-12
2.1899704e-11
2.6183611e-11
1.5368706e-11
1.9765078e-11
3.5871306e-12
2.444589e-11
1.9147572e-11
-7.1123107e-12
8.4882101e-12
-2.9894975e-12
1.2700951e-12
2.0126567e-11
5.0462967e-12
-6.1531891e-12
-8.3936191e-12
-8.0083717e-12
-8.3079099e-12
-9.5734531e-13
-1.6172286e-11
5.216938e-13
7.96474e-12
-9.5500274e-12
2.4782398e-12
-1.6440183e-11
8.2316376e-12
9.8669961e-12
5.3578253e-12
1.679612e-11
3.4607761e-11
1.5022539e-11
7.5239814e-12
6.2733152e-12
-2.2442048e-12
2.3253621e-12
-1.3213541e-11
1.2535417e-11
8.6373131e-12
4.5119464e-12
4.1701087e-12
5.4102278e-12
4.5409232e-12
1.7188473e-12
2.6290192e-11
1.0980328e-11
1.0188073e-11
1.3274715e-11
1.0151879e-11
1.5282886e-11
1.0429213e-11
-5.6654681e-12
1.1387558e-12
-2.400713e-11
9.7392094e-12
1.3809065e-11
4.5182746e-12
3.2724268e-11
2.8374747e-11
3.5361492e-11
2.2655433e-11
4.0801473e-11
1.9475421e-11
1.5067503e-11
2.0927371e-11
3.7472692e-11
1.3902768e-11
1.9987012e-11
1.6002755e-11
1.8565705e-11
7.4248385e-12
1.6132207e-11
2.3411495e-11
3.0064951e-11
1.2204238e-11
2.460554e-11
2.028977e-11
3.9138359e-11
1.3007262e-11
2.9900193e-11
2.5360491e-11
2.8352876e-11
2.4799385e-11
2.3107405e-11
4.1279868e-11
4.908407e-11
4.2963855e-11
2.7459923e-11
3.1230352e-11
2.5776603e-11
2.0527247e-11
1.1744494e-11
2.5583979e-12
-5.7108762e-12
-3.8691272e-13
1.196776e-11
1.8226531e-12
1.0241696e-11
-2.1265878e-11
-1.7569168e-11
-1.8807733e-11
-1.9478308e-11
-1.4426016e-11
-2.4473645e-11
-2.1587399e-11
-2.3402391e-11
-4.9510285e-11
-4.3227644e-11
-3.5916825e-11
-2.7536418e-11
-3.2867153e-11
-3.6101566e-11
-1.390088e-11
-1.3705037e-11
-7.9054541e-12
-1.7744028e-11
-3.2497116e-11
-8.3377749e-12
-1.9656277e-11
-1.6705526e-12
-2.6440072e-11
-2.9866887e-11
-2.9540259e-11
-4.6598836e-11
-3.3687719e-11
-3.326539e-11
-1.9320656e-11
-3.2439829e-11
-1.0178303e-11
-2.2678304e-11
-3.0577763e-11
-3.9649506e-11
-1.9261148e-11
-2.3476554e-11
-1.6487034e-11
-1.0444423e-11
-1.9037993e-11
-3.0044855e-12
-1.5843771e-11
-6.4819261e-12
-2.2367552e-11
-2.9755087e-11
-1.1032286e-11
-1.946443e-11
-2.4274915e-11
-1.6043278e-11
-1.8286928e-11
-1.4838131e-11
-2.8528957e-11
-1.9501956e-11
-2.6632918e-11
-5.2079674e-11
-2.3564151e-11
-2.9806824e-11
-9.7942765e-12
-3.4961589e-11
-2.4730884e-11
-7.6813e-12
-6.7733597e-12
-1.2029266e-12
2.5268787e-11
2.4466429e-11
2.9561464e-11
7.3979489e-11
1.01954e-10
1.4227353e-10
2.6843539e-10
4.1416115e-10
5.9823368e-10
8.5047802e-10
1.2232293e-09
1.7646228e-09
2.5617584e-09
3.6849775e-09
5.2506436e-09
7.4656576e-09
1.0549244e-08
1.4857832e-08
2.0889753e-08
2.9225737e-08
4.0784277e-08
5.6757352e-08
7.8800187e-08
1.0904988e-07
1.5044423e-07
2.0696963e-07
2.837927e-07
3.8801648e-07
5.2884502e-07
7.1845188e-07
9.7297194e-07
1.3134266e-06
1.7671896e-06
2.3698565e-06
3.1674441e-06
4.2190817e-06
5.6007148e-06
7.4090874e-06
9.7670289e-06
1.2829829e-05
1.6792712e-05
2.1900067e-05
2.8456089e-05
3.6837685e-05
4.7509204e-05
6.1039701e-05
7.8122587e-05
9.959817e-05
0.00012647866
0.00015997592
0.00020153201
0.00025285189
0.00031593804
0.00039312656
0.00048712366
0.00060104157
0.00073843304
0.0009033224
0.0011002318
0.0013342013
0.0016108
0.0019361275
0.0023168033
0.0027599427
0.0032731185
0.0038643069
0.0045418183
0.0053142132
0.0061902041
0.0071785453
0.008287913
0.009526779
0.010903281
0.012425093
0.014099302
0.015932291
0.01792963
0.020095993
0.02243508
0.024949559
0.027641041
0.030510055
0.033556057
0.036777457
0.040171651
0.043735081
0.0474633
0.051351052
0.05539235
0.059580569
0.063908536
0.068368621
0.072952824
0.077652866
0.08246027
0.087366434
0.092362708
0.097440449
0.10259108
0.10780616
0.11307737
0.11839663
0.12375606
0.12914804
0.13456521
0.14000052
0.1454472
0.15089878
0.15634909
0.16179229
0.16722282
0.17263544
0.17802519
0.18338741
0.18871772
0.194012
0.19926641
0.20447737
0.20964151
0.21475572
0.21981712
0.22482304
0.229771
0.23465874
0.23948425
0.24424539
0.24894118
0.25356821
0.25812961
0.26261449
0.26704082
0.27137521
0.27566419
0.2798446
0.2839949
0.28801982
0.29203948
0.29590246
0.29981301
0.30350007
0.30732125
0.31099302
0.31397274
0.31775063
0.32090932
0.32432564
0.32699607
0.33045487
0.33347528
0.33637089
0.3391445
0.34186906
0.34463383
0.34714089
0.34991331
0.35237311
0.35464026
0.35706454
0.35934464
0.36153796
0.36364678
0.36567224
0.36761511
0.36949793
0.37126879
0.37295761
0.37455135
0.37607032
0.37748259
0.37883298
0.38006422
0.38124527
0.38230422
0.38332493
0.38422759
0.38510102
0.38589249
0.38654501
0.38724696
0.38777401
0.38831464
0.38891392
0.38904596
0.38995959
0.39037101
0.39070389
0.39107726
0.39181172
0.39231686
0.39264381
0.39307392
0.39338303
0.39359222
0.39375563
0.39389688
0.39400564
0.39408852
0.3941384
0.3941766
0.39421308
0.39423817
0.39425417
0.39424427
0.39421621
0.3941798
0.39414531
0.39412255
0.39409679
0.39406364
0.39405986
0.39400555
0.39402694
0.39402685
0.39395769
0.39393187
0.39390694
0.39388774
0.39385955
0.39383751
0.39380377
0.39378379
0.39374041
0.39370426
0.39368047
0.39364937
0.39359457
0.3935643
0.3935351
0.3935037
0.39347482
0.39343409
0.39339668
0.39336465
0.39332048
0.39327621
0.39323656
0.39318571
0.39314982
0.39310449
0.39307213
0.39302031
0.39298054
0.3929308
0.39289288
0.39284224
0.39276207
0.39269967
0.3926276
0.3925336
0.39241722
0.39227761
0.39210829
0.39191745
0.39168046
0.39138933
0.3910155
0.39054547
0.38993929
0.38916515
0.3881917
0.38697273
0.38547096
0.38363543
0.38143318
0.37882011
0.37576402
0.37223563
0.36821281
0.36370978
0.35871983
0.35329904
0.34747617
0.34132914
0.33492576
0.32836082
0.32171917
0.31509914
0.308583
0.30225886
0.29619659
0.29045226
0.28508168
0.28011395
0.27557868
0.27147246
0.26779829
0.26454086
0.26168384
0.25920042
0.25706599
0.25524521
0.25370694
0.25241735
0.25134726
0.25046363
0.24974774
0.24916335
0.2487002
0.24832364
0.24803463
0.2477994
0.24762481
0.24747805
0.2473809
0.24729375
0.24723574
0.24718879
0.24715256
0.24712637
0.2471078
0.24709269
0.24707772
0.24706826
0.24705786
0.24704903
0.24704069
0.24703632
0.24703291
0.24703154
0.24702587
0.24702121
0.24702134
0.24702598
0.24703319
0.24703451
0.2470295
0.24702551
0.24701325
0.24698677
0.24696302
0.2469068
0.24680519
0.24660061
0.24635488
0.24590965
0.24541457
0.24462987
0.24372281
0.24244802
0.24077696
0.23847309
0.23587892
0.23180691
0.22738129
0.22151446
0.21354254
0.20435225
0.19152148
0.17728839
0.15960437
0.13950352
0.11706287
0.093285266
0.069913015
0.048868031
0.031784104
0.019369632
0.011220708
0.0062812113
0.0034444438
0.0018675235
0.0010066416
0.00054106556
0.00029044158
0.00015582062
8.3578752e-05
4.4826422e-05
2.4041564e-05
1.2894014e-05
6.9152822e-06
3.7087329e-06
1.9889965e-06
1.0666745e-06
5.7202619e-07
3.0674819e-07
1.6448852e-07
8.8204405e-08
4.7295026e-08
2.5358402e-08
1.3597113e-08
7.2909943e-09
3.9086259e-09
2.0987035e-09
1.1272486e-09
6.0704738e-10
3.2531594e-10
1.7742727e-10
9.6977051e-11
5.3207466e-11
2.9472036e-11
1.6265531e-11
1.0945592e-11
7.3475809e-12
6.3474365e-12
3.4499903e-12
1.1067675e-12
-5.4109495e-14
-1.5144552e-12
-6.9226569e-13
-3.2557845e-12
2.3603342e-13
4.180406e-13
2.0872332e-12
-2.0175528e-13
1.3303525e-12
1.1980972e-12
-3.4421077e-13
3.8020975e-13
-2.347178e-12
3.5710324e-13
-1.4691859e-12
-1.1702167e-12
-5.6273181e-12
-2.8774622e-12
-8.9078744e-13
2.220446e-13
7.9679319e-13
-7.7911289e-13
-1.1616957e-12
-5.853068e-12
-4.1947279e-12
-4.5703857e-12
-6.2080202e-12
-3.9376002e-12
-3.4012515e-12
-2.3692021e-12
-4.9150961e-13
-1.9196866e-12
-2.6514901e-12
-1.1971812e-12
6.6280315e-13
-2.6071784e-12
1.9335644e-12
7.1061212e-13
-2.7213232e-12
-6.1099736e-13
1.570008e-12
1.7959106e-12
-1.787237e-12
1.878997e-12
2.8889807e-12
2.6190161e-12
4.9171223e-12
3.3163611e-12
1.6634194e-12
3.3604924e-12
-9.9106834e-13
2.5063285e-14
-1.1164403e-12
3.2806258e-12
-1.8609558e-12
8.4861285e-13
-1.8426788e-12
-2.5956876e-12
-3.7651271e-12
-4.605441e-12
5.3454463e-13
-1.0648704e-12
5.8933414e-13
1.6684293e-12
-8.2404916e-13
-3.3649195e-12
-5.1605109e-12
-5.2332721e-12
-4.8119841e-12
-6.7503642e-12
-4.4499127e-12
-8.8087038e-12
-6.3615779e-12
-9.8289848e-12
-7.4540096e-12
-6.5010219e-12
-7.0948941e-12
-2.5340008e-12
-4.1309178e-12
-2.9969915e-12
-3.868128e-12
-2.2016972e-12
-1.4826196e-12
-3.7785886e-12
-3.6557007e-12
-5.1335741e-12
-3.1388225e-12
-6.3780509e-12
-1.5245999e-12
4.731493e-13
-4.2344461e-12
-2.4198699e-12
-6.958531e-12
-7.1752743e-12
-5.2748778e-12
-2.528075e-12
-8.1210871e-12
-5.246345e-12
-1.9846486e-12
-4.0363962e-12
-3.131953e-12
-5.6824823e-12
-5.3389515e-12
-3.7900794e-12
-2.1045249e-12
-6.159101e-13
7.3194228e-13
3.1309677e-12
8.9574181e-13
1.0476342e-13
2.0308616e-12
1.5717427e-12
7.5882356e-13
-1.1498857e-12
-4.7807591e-13
1.1465134e-12
1.5697582e-12
6.1121941e-12
4.9697885e-12
2.2558067e-12
4.205164e-12
3.1301489e-12
3.3186925e-12
2.7436942e-12
2.1031787e-12
7.0067563e-13
-3.7970876e-12
-8.8258567e-13
-3.0134645e-12
-5.378295e-12
-1.4338114e-12
-2.9846958e-12
-1.0344503e-12
-3.7023301e-12
-3.0564024e-12
-1.3145318e-12
-2.2876562e-12
-3.0168229e-12
-2.918929e-12
3.5994818e-13
3.0488945e-12
1.884784e-12
1.7490176e-12
4.3220982e-13
1.6286555e-12
2.6398467e-12
2.6227631e-13
1.8234997e-12
1.0848822e-12
1.5059204e-12
3.1788461e-12
6.2122668e-12
4.9171084e-12
6.7498923e-12
5.110648e-12
8.9700192e-12
6.561876e-12
9.6446046e-12
5.6024352e-12
1.7689877e-12
9.2677255e-13
-1.6156937e-12
-7.180645e-13
-4.2292836e-12
-1.3134355e-12
7.8524687e-13
2.6469521e-12
1.0396406e-12
-6.3771211e-13
-1.6085189e-12
-9.3287877e-13
2.4633073e-13
-1.6740775e-13
3.7557457e-13
2.1922741e-13
2.4175106e-13
1.8787055e-12
-6.7851141e-12
-5.4023036e-12
-1.332795e-12
1.3609947e-13
7.5799089e-13
-1.9290125e-15
1.4091089e-12
4.1514153e-12
2.9088537e-12
2.4289876e-12
-4.4225734e-13
-9.0745467e-13
-9.0752406e-13
5.941081e-14
-4.3644532e-12
-1.8971769e-12
-3.6264464e-12
-6.6148892e-12
-6.4222933e-12
-3.4655334e-12
-4.144296e-12
-4.0905335e-12
1.1850104e-12
4.5904114e-12
4.4385606e-12
4.7573334e-12
6.2503336e-12
5.4741073e-12
6.0280808e-12
6.0169925e-12
5.7665678e-12
8.669121e-12
7.674153e-12
4.2841286e-12
7.7601259e-12
5.2073762e-12
4.1178866e-12
-1.3168633e-12
-1.6072421e-12
2.4073799e-13
2.7849528e-12
6.3167527e-13
-6.0179639e-13
-2.1621732e-12
-2.1516261e-12
1.2332496e-12
2.8935188e-13
-2.3459429e-12
-5.7188976e-13
-2.1763841e-12
1.3103407e-13
1.8557378e-13
1.057654e-12
-7.7819695e-13
7.7921003e-13
2.5128788e-12
7.070039e-13
5.7839844e-12
3.4766495e-12
6.4930977e-12
5.0260074e-12
2.4084484e-12
3.4923731e-12
3.3477804e-12
5.5709326e-12
1.2062712e-12
1.1234763e-12
6.2699707e-12
6.9047545e-13
2.6317976e-12
1.8136326e-12
1.4415968e-12
3.5823844e-12
1.2881779e-12
2.4296259e-12
1.3429674e-12
2.6575964e-12
1.742495e-13
6.0849936e-13
-9.3322572e-13
2.5915659e-12
6.3228589e-13
4.8722276e-12
4.4148296e-12
4.8395871e-12
4.9384941e-12
1.667208e-12
4.4705628e-12
1.3179458e-12
1.9834967e-12
-1.8253732e-12
-1.1426415e-12
-2.0576041e-12
-2.7872565e-12
4.8049065e-13
-1.1383394e-12
1.2479601e-12
-1.77236e-12
-3.0592057e-12
1.1150664e-12
-3.2671088e-13
-1.8315904e-13
-2.7898239e-12
-4.536399e-12
-3.1981501e-12
-2.0035223e-12
-5.9253991e-13
1.9165225e-13
-2.8564651e-13
-1.7722213e-12
-3.8508641e-12
-4.7028353e-12
-6.5945582e-12
-8.7233137e-12
-9.9117936e-13
-1.7817275e-12
-5.7532451e-12
-8.7659047e-13
-2.7125524e-12
-3.3308495e-12
-1.5158708e-12
)
;

boundaryField
{
    sides
    {
        type            calculated;
        value           nonuniform List<scalar> 2(3.9440685e-21 2.2121713e-21);
    }
    emptywalls
    {
        type            empty;
        value           nonuniform List<scalar> 0();
    }
}


// ************************************************************************* //
