/*--------------------------------*- C++ -*----------------------------------*\
| =========                 |                                                 |
| \\      /  F ield         | OpenFOAM: The Open Source CFD Toolbox           |
|  \\    /   O peration     | Version:  2112                                  |
|   \\  /    A nd           | Website:  www.openfoam.com                      |
|    \\/     M anipulation  |                                                 |
\*---------------------------------------------------------------------------*/
FoamFile
{
    version     2.0;
    format      ascii;
    arch        "LSB;label=32;scalar=64";
    class       volScalarField;
    location    "0.09";
    object      T;
}
// * * * * * * * * * * * * * * * * * * * * * * * * * * * * * * * * * * * * * //

dimensions      [0 0 0 1 0 0 0];

internalField   nonuniform List<scalar> 
1000
(
0.00348
0.00348
0.00348
0.00348
0.00348
0.00348
0.00348
0.00348
0.00348
0.00348
0.00348
0.00348
0.00348
0.00348
0.00348
0.00348
0.00348
0.00348
0.00348
0.00348
0.00348
0.00348
0.00348
0.00348
0.00348
0.00348
0.00348
0.00348
0.00348
0.00348
0.00348
0.00348
0.00348
0.00348
0.00348
0.00348
0.00348
0.00348
0.00348
0.00348
0.00348
0.00348
0.00348
0.00348
0.00348
0.00348
0.00348
0.00348
0.00348
0.00348
0.00348
0.00348
0.00348
0.00348
0.00348
0.00348
0.00348
0.00348
0.00348
0.00348
0.00348
0.00348
0.00348
0.00348
0.00348
0.00348
0.00348
0.00348
0.00348
0.00348
0.00348
0.00348
0.00348
0.00348
0.00348
0.00348
0.00348
0.00348
0.00348
0.00348
0.00348
0.00348
0.00348
0.00348
0.00348
0.00348
0.00348
0.00348
0.00348
0.00348
0.00348
0.00348
0.00348
0.00348
0.00348
0.00348
0.00348
0.00348
0.00348
0.00348
0.00348
0.00348
0.00348
0.00348
0.00348
0.00348
0.00348
0.00348
0.00348
0.00348
0.00348
0.00348
0.00348
0.00348
0.00348
0.00348
0.00348
0.00348
0.00348
0.00348
0.00348
0.00348
0.00348
0.00348
0.00348
0.00348
0.00348
0.00348
0.00348
0.00348
0.00348
0.00348
0.00348
0.00348
0.00348
0.00348
0.00348
0.00348
0.00348
0.00348
0.00348
0.00348
0.00348
0.00348
0.00348
0.00348
0.00348
0.00348
0.00348
0.00348
0.00348
0.00348
0.00348
0.00348
0.00348
0.00348
0.00348
0.00348
0.00348
0.00348
0.00348
0.00348
0.00348
0.00348
0.00348
0.00348
0.00348
0.00348
0.00348
0.00348
0.00348
0.00348
0.00348
0.00348
0.00348
0.00348
0.00348
0.00348
0.00348
0.00348
0.00348
0.00348
0.00348
0.00348
0.00348
0.00348
0.00348
0.00348
0.00348
0.00348
0.00348
0.00348
0.00348
0.00348
0.00348
0.00348
0.00348
0.00348
0.00348
0.00348
0.00348
0.00348
0.00348
0.00348
0.00348
0.00348
0.00348
0.00348
0.00348
0.00348
0.00348
0.00348
0.00348
0.00348
0.00348
0.00348
0.00348
0.00348
0.00348
0.00348
0.00348
0.00348
0.00348
0.00348
0.00348
0.00348
0.00348
0.00348
0.00348
0.00348
0.00348
0.00348
0.00348
0.00348
0.00348
0.00348
0.00348
0.00348
0.00348
0.00348
0.00348
0.00348
0.00348
0.00348
0.00348
0.00348
0.00348
0.00348
0.00348
0.00348
0.00348
0.00348
0.00348
0.00348
0.00348
0.00348
0.00348
0.00348
0.00348
0.00348
0.00348
0.00348
0.00348
0.00348
0.00348
0.00348
0.00348
0.00348
0.00348
0.00348
0.00348
0.00348
0.00348
0.00348
0.00348
0.00348
0.00348
0.00348
0.00348
0.00348
0.00348
0.00348
0.00348
0.00348
0.00348
0.00348
0.00348
0.00348
0.00348
0.00348
0.00348
0.00348
0.00348
0.00348
0.00348
0.00348
0.00348
0.00348
0.00348
0.00348
0.00348
0.00348
0.00348
0.00348
0.00348
0.00348
0.00348
0.00348
0.00348
0.00348
0.00348
0.00348
0.00348
0.00348
0.00348
0.00348
0.00348
0.00348
0.00348
0.00348
0.00348
0.00348
0.00348
0.00348
0.00348
0.00348
0.0034799999
0.0034799999
0.0034799999
0.0034799999
0.0034799998
0.0034799997
0.0034799996
0.0034799995
0.0034799993
0.003479999
0.0034799987
0.0034799982
0.0034799976
0.0034799968
0.0034799957
0.0034799943
0.0034799925
0.00347999
0.0034799869
0.0034799828
0.0034799775
0.0034799707
0.003479962
0.0034799509
0.0034799368
0.0034799189
0.0034798964
0.0034798681
0.0034798328
0.0034797889
0.0034797345
0.0034796675
0.0034795853
0.0034794848
0.0034793628
0.0034792152
0.0034790376
0.0034788248
0.0034785713
0.0034782706
0.0034779159
0.0034774995
0.0034770132
0.0034764481
0.0034757948
0.0034750435
0.0034741839
0.0034732052
0.0034720966
0.0034708472
0.0034694461
0.0034678825
0.003466146
0.0034642265
0.0034621146
0.0034598015
0.0034572793
0.0034545409
0.0034515801
0.0034483918
0.0034449719
0.0034413174
0.0034374263
0.0034332977
0.0034289315
0.0034243288
0.0034194916
0.0034144224
0.0034091248
0.0034036028
0.0033978613
0.0033919054
0.0033857408
0.0033793735
0.0033728098
0.0033660562
0.0033591193
0.0033520059
0.0033447228
0.0033372769
0.0033296747
0.003321923
0.0033140285
0.0033059974
0.0032978361
0.0032895508
0.0032811473
0.0032726315
0.0032640089
0.0032552848
0.0032464644
0.0032375527
0.0032285544
0.0032194741
0.0032103161
0.0032010847
0.0031917837
0.0031824171
0.0031729883
0.0031635009
0.0031539582
0.0031443631
0.0031347186
0.003125028
0.003115292
0.0031055189
0.0030956938
0.0030858648
0.0030759201
0.0030661185
0.0030559298
0.0030463462
0.003035705
0.0030265588
0.0030152545
0.0030068083
0.0029944237
0.0029872594
0.0029727904
0.0029682361
0.0029502749
0.0029474659
0.0029312973
0.0029283171
0.0029098826
0.0029075794
0.0028907868
0.0028889468
0.0028680041
0.0028687992
0.0028481647
0.0028493104
0.0028269633
0.0028294935
0.0028062515
0.0028075213
0.0027868242
0.0027878179
0.0027657299
0.0027674871
0.0027451587
0.0027473967
0.0027248937
0.0027276227
0.0027048931
0.0027086446
0.0026855639
0.0026903094
0.0026671543
0.0026726313
0.0026499147
0.0026554787
0.002633697
0.0026385118
0.0026185427
0.002622149
0.0026057991
0.0026056028
0.002593497
0.0025864469
0.002586264
0.0025709481
0.002579483
0.0025544316
0.0025631817
0.0025401367
0.0025541525
0.0025268151
0.0025322059
0.0025188237
0.0025140146
0.0025078218
0.0025030229
0.0024988897
0.0024955284
0.0024927936
0.0024903008
0.0024882945
0.0024863382
0.002484881
0.0024835581
0.0024824383
0.0024815439
0.0024806801
0.0024802519
0.0024797966
0.0024799157
0.0024800066
0.0024801546
0.0024804809
0.002480396
0.0024809518
0.00248029
0.0024815608
0.0024817751
0.0024821366
0.0024823581
0.0024827198
0.0024828532
0.0024833453
0.0024832364
0.0024839324
0.002483889
0.0024845251
0.0024841986
0.0024851127
0.0024850306
0.0024855943
0.0024855551
0.0024860035
0.0024860155
0.0024865634
0.0024865379
0.0024870036
0.0024872655
0.0024874915
0.002487995
0.0024879287
0.0024885588
0.0024883743
0.0024891508
0.0024888929
0.0024895783
0.0024892975
0.0024899669
0.0024898531
0.0024906253
0.0024904178
0.002491291
0.0024917954
0.0024928442
0.0024938871
0.0024952324
0.0024968743
0.0024988652
0.0025015807
0.002504838
0.0025092944
0.0025147321
0.0025218141
0.0025305203
0.0025413947
0.0025546477
0.0025706785
0.0025898833
0.0026125808
0.0026390741
0.0026698441
0.0027046788
0.0027444289
0.0027882571
0.002836907
0.0028896217
0.0029463536
0.0030063317
0.0030692603
0.0031340357
0.0032002925
0.0032666886
0.0033327761
0.0033972664
0.0034596035
0.0035189577
0.0035745952
0.0036264028
0.0036734439
0.0037162466
0.0037541049
0.0037876548
0.0038166648
0.00384174
0.0038629967
0.0038808904
0.0038957223
0.0039080543
0.0039178201
0.0039261378
0.0039320279
0.0039376845
0.0039408205
0.0039448808
0.0039460018
0.0039488774
0.0039491141
0.0039507775
0.0039510458
0.0039516136
0.0039518407
0.0039519558
0.0039519744
0.0039519049
0.0039519966
0.0039517899
0.0039518105
0.0039515966
0.0039516047
0.0039513647
0.0039512246
0.0039511734
0.003951042
0.0039508992
0.0039507748
0.0039505714
0.0039505168
0.0039504043
0.0039503171
0.0039503444
0.003950358
0.0039501468
0.0039499722
0.0039493911
0.0039493846
0.003948471
0.0039487813
0.0039461131
0.0039469632
0.0039420951
0.0039432183
0.0039344003
0.0039368939
0.0039216559
0.003927197
0.0038983094
0.0039095153
0.0038534646
0.0038554792
0.0037902441
0.0037710676
0.0036979628
0.0036290703
0.0035325826
0.0034229974
0.0032986931
0.0031686768
0.0030487072
0.0029522043
0.0028838831
0.0028400796
0.002813803
0.002798686
0.0027902137
0.002785543
0.0027829947
0.0027816134
0.0027808677
0.0027804662
0.0027802503
0.0027801343
0.0027800721
0.0027800387
0.0027800207
0.0027800111
0.002780006
0.0027800032
0.0027800017
0.0027800009
0.0027800005
0.0027800003
0.0027800001
0.0027800001
0.00278
0.00278
0.00278
0.00278
0.00278
0.00278
0.00278
0.00278
0.00278
0.00278
0.00278
0.00278
0.00278
0.00278
0.00278
0.00278
0.00278
0.00278
0.00278
0.00278
0.00278
0.00278
0.00278
0.00278
0.00278
0.00278
0.00278
0.00278
0.00278
0.00278
0.00278
0.00278
0.00278
0.00278
0.00278
0.00278
0.00278
0.00278
0.00278
0.00278
0.00278
0.00278
0.00278
0.00278
0.00278
0.00278
0.00278
0.00278
0.00278
0.00278
0.00278
0.00278
0.00278
0.00278
0.00278
0.00278
0.00278
0.00278
0.00278
0.00278
0.00278
0.00278
0.00278
0.00278
0.00278
0.00278
0.00278
0.00278
0.00278
0.00278
0.00278
0.00278
0.00278
0.00278
0.00278
0.00278
0.00278
0.00278
0.00278
0.00278
0.00278
0.00278
0.00278
0.00278
0.00278
0.00278
0.00278
0.00278
0.00278
0.00278
0.00278
0.00278
0.00278
0.00278
0.00278
0.00278
0.00278
0.00278
0.00278
0.00278
0.00278
0.00278
0.00278
0.00278
0.00278
0.00278
0.00278
0.00278
0.00278
0.00278
0.00278
0.00278
0.00278
0.00278
0.00278
0.00278
0.00278
0.00278
0.00278
0.00278
0.00278
0.00278
0.00278
0.00278
0.00278
0.00278
0.00278
0.00278
0.00278
0.00278
0.00278
0.00278
0.00278
0.00278
0.00278
0.00278
0.00278
0.00278
0.00278
0.00278
0.00278
0.00278
0.00278
0.00278
0.00278
0.00278
0.00278
0.00278
0.00278
0.00278
0.00278
0.00278
0.00278
0.00278
0.00278
0.00278
0.00278
0.00278
0.00278
0.00278
0.00278
0.00278
0.00278
0.00278
0.00278
0.00278
0.00278
0.00278
0.00278
0.00278
0.00278
0.00278
0.00278
0.00278
0.00278
0.00278
0.00278
0.00278
0.00278
0.00278
0.00278
0.00278
0.00278
0.00278
0.00278
0.00278
0.00278
0.00278
0.00278
0.00278
0.00278
0.00278
0.00278
0.00278
0.00278
0.00278
0.00278
0.00278
0.00278
0.00278
0.00278
0.00278
0.00278
0.00278
0.00278
0.00278
0.00278
0.00278
0.00278
0.00278
0.00278
0.00278
0.00278
0.00278
0.00278
0.00278
0.00278
0.00278
0.00278
0.00278
0.00278
0.00278
0.00278
0.00278
0.00278
0.00278
0.00278
0.00278
0.00278
0.00278
0.00278
0.00278
0.00278
0.00278
0.00278
0.00278
0.00278
0.00278
0.00278
0.00278
0.00278
0.00278
0.00278
0.00278
0.00278
0.00278
0.00278
0.00278
0.00278
0.00278
0.00278
0.00278
0.00278
0.00278
0.00278
0.00278
0.00278
0.00278
0.00278
0.00278
0.00278
0.00278
0.00278
0.00278
0.00278
0.00278
0.00278
0.00278
0.00278
0.00278
0.00278
0.00278
0.00278
0.00278
0.00278
0.00278
0.00278
0.00278
0.00278
0.00278
0.00278
0.00278
0.00278
0.00278
0.00278
0.00278
0.00278
0.00278
0.00278
0.00278
0.00278
0.00278
0.00278
0.00278
0.00278
0.00278
0.00278
0.00278
0.00278
0.00278
0.00278
0.00278
0.00278
0.00278
0.00278
0.00278
0.00278
0.00278
0.00278
0.00278
0.00278
0.00278
0.00278
0.00278
)
;

boundaryField
{
    sides
    {
        type            zeroGradient;
    }
    emptywalls
    {
        type            empty;
    }
}


// ************************************************************************* //
