/*--------------------------------*- C++ -*----------------------------------*\
| =========                 |                                                 |
| \\      /  F ield         | OpenFOAM: The Open Source CFD Toolbox           |
|  \\    /   O peration     | Version:  2112                                  |
|   \\  /    A nd           | Website:  www.openfoam.com                      |
|    \\/     M anipulation  |                                                 |
\*---------------------------------------------------------------------------*/
FoamFile
{
    version     2.0;
    format      ascii;
    arch        "LSB;label=32;scalar=64";
    class       volScalarField;
    location    "0.09";
    object      Ux;
}
// * * * * * * * * * * * * * * * * * * * * * * * * * * * * * * * * * * * * * //

dimensions      [0 1 -1 0 0 0 0];

internalField   nonuniform List<scalar> 
1000
(
-2.2148009e-21
-6.1184876e-12
-1.1678203e-11
6.7625155e-12
8.3753641e-12
1.5790689e-11
-5.2414802e-12
1.3530255e-11
1.3091196e-11
-1.0557434e-11
-4.5665515e-12
-1.6305111e-11
-9.1317691e-12
-2.6492512e-12
-1.9552817e-11
1.0747952e-11
-1.3684315e-11
1.2469065e-11
1.3684537e-11
1.0175508e-11
2.4876329e-11
1.7374748e-11
-5.7427861e-12
1.0984044e-11
-1.1243034e-11
2.314021e-11
1.0311005e-11
8.4481702e-12
4.6337998e-12
2.3325393e-11
1.5947527e-11
1.8616119e-11
2.0706265e-11
2.2906119e-11
5.9645389e-12
1.3379085e-11
2.2016885e-11
2.4291657e-11
3.7095075e-11
1.589573e-11
3.8241853e-11
7.1433301e-12
3.4119586e-11
1.7470675e-11
4.5382849e-11
3.2590103e-11
3.3807687e-11
3.7745994e-11
4.5591597e-11
4.9240459e-11
5.0212614e-11
4.4293982e-11
4.4950237e-11
3.0035999e-11
1.3180564e-11
6.2263294e-11
4.5978414e-11
5.1699969e-11
6.3027035e-11
2.1359741e-11
5.7008364e-11
3.0928235e-11
4.1438539e-11
3.097881e-11
4.2858646e-11
1.6011886e-11
2.4870993e-11
7.477571e-12
1.0519864e-11
-4.2681022e-12
-1.9558374e-11
-1.4152608e-11
-3.0095134e-11
-2.0819864e-11
3.3346284e-14
1.0009332e-11
2.5623286e-11
2.3201901e-11
8.8037528e-12
3.4526744e-11
-1.5459338e-12
-6.1322707e-12
8.2329755e-12
2.5048618e-12
2.1780904e-11
-3.9293039e-13
-1.4520084e-12
-1.6413931e-11
-1.3174006e-12
-1.2366359e-11
2.5379191e-11
2.0799745e-11
1.648218e-11
2.5394863e-11
1.0509193e-11
1.4914682e-12
-1.0900456e-11
-9.3088378e-12
-6.0232283e-12
-3.2865321e-11
-1.8247421e-11
-2.9259031e-11
-1.7837706e-11
-1.8418154e-11
7.8499378e-12
-1.2681259e-11
-7.9399728e-12
-1.6230304e-11
-1.2526865e-11
-3.1968083e-11
-3.3638621e-12
-2.0016441e-11
-2.3427655e-11
-2.9303604e-12
-1.0207409e-11
-3.5819357e-11
-9.2242494e-12
-3.3237354e-11
-1.6976483e-11
-1.4833873e-11
-1.5839374e-11
-1.3335624e-11
-1.7810473e-11
-1.3648857e-11
-2.0151382e-11
-3.146222e-12
-1.16443e-11
-1.6094918e-11
-1.9108533e-12
-1.1314061e-11
1.5103422e-11
-2.5897281e-11
-1.1598283e-11
-9.1106497e-12
1.2101367e-12
-8.1153743e-12
4.88612e-12
-2.6896002e-12
7.7514551e-12
-8.411267e-12
1.6824201e-11
6.0173372e-12
1.3660083e-11
1.291924e-11
8.7238328e-12
1.1867387e-11
2.2476508e-12
1.0238977e-11
2.8115809e-11
1.8277877e-11
1.8424045e-11
1.0076136e-11
1.7170336e-11
1.9497462e-11
-1.223364e-11
8.4073766e-12
-4.1557252e-12
7.3571909e-12
-5.3315152e-12
1.9259814e-11
-8.2616533e-12
-3.9952184e-12
-6.1812897e-12
-4.5756661e-12
-1.0807309e-11
-1.3793135e-12
-1.9195233e-11
1.6470842e-11
-8.7134955e-12
8.7217209e-12
-1.4520751e-11
2.4620674e-12
1.4307224e-11
-1.3471899e-12
1.0332791e-11
2.3497015e-11
2.7819694e-11
1.2253648e-12
1.3822369e-11
-2.2113033e-12
4.837879e-12
-3.6597548e-12
2.2061235e-11
-4.4965242e-12
1.638781e-11
-2.1693981e-12
7.2213603e-12
3.1647848e-12
-9.9816549e-13
4.6749269e-12
1.3638297e-11
5.1518899e-12
1.0789302e-11
8.7789653e-12
1.7444442e-11
7.5012468e-12
4.4110466e-12
1.14988e-11
-1.7241586e-11
3.7834695e-12
5.7564581e-12
1.1828817e-11
1.8386141e-11
4.2250521e-11
3.6155932e-11
3.6301989e-11
2.5053286e-11
3.4782732e-11
4.1266028e-12
2.433334e-11
9.9785424e-12
3.2317219e-11
-2.5088633e-12
3.1556701e-11
-2.0625789e-12
2.1634736e-11
3.7347842e-13
1.0484183e-11
2.9903392e-11
2.2249864e-11
2.5136874e-11
2.5999543e-11
1.5948639e-11
1.5004383e-11
1.0276992e-11
1.8223189e-11
2.5843816e-11
3.0228074e-11
2.6383692e-11
2.38018e-11
3.878373e-11
5.0778611e-11
4.2231847e-11
2.3299939e-11
1.8450722e-11
1.5362411e-11
2.3215906e-11
-3.8359343e-12
-6.5175314e-12
5.7288918e-13
9.8576065e-12
9.1697838e-12
9.0515156e-12
-1.726893e-12
-2.3648185e-11
-1.2688817e-11
-1.1360079e-11
-2.7642737e-11
-1.1758567e-11
-2.2117146e-11
-1.958205e-11
-2.8793961e-11
-4.5607047e-11
-3.4978252e-11
-2.3882054e-11
-3.626164e-11
-2.1669861e-11
-2.5905729e-11
-2.6475839e-12
-1.6600003e-11
-1.5487238e-11
-1.8660581e-11
-2.8072904e-11
-1.6517193e-11
-2.1441439e-11
-1.1102201e-11
-3.0870768e-11
-1.6214298e-11
-4.1622277e-11
-2.0782628e-11
-3.9148872e-11
-2.2291992e-11
-2.4261646e-11
-1.4671921e-11
-1.733929e-11
-3.058788e-11
-2.1632291e-11
-3.0005321e-11
-1.7904621e-11
-2.5495347e-11
-5.7835797e-12
-1.2698154e-11
-1.2853214e-11
4.757848e-12
-1.9389753e-11
-2.4687366e-11
-1.4702488e-11
-2.9209456e-11
-1.2634463e-11
-1.8929463e-11
-1.4397814e-11
-2.0926017e-11
-8.8967889e-12
-2.1864603e-11
-1.7788576e-11
-2.529149e-11
-3.4025216e-11
-3.9138201e-11
-2.248929e-11
-2.934562e-11
-1.3958533e-11
-5.0385237e-11
-8.1497209e-12
-1.8435049e-11
3.1226573e-12
6.9452531e-12
2.3096749e-11
2.6395363e-11
4.5180104e-11
7.4684897e-11
1.2697632e-10
2.0235115e-10
3.4278847e-10
5.0013881e-10
7.2076284e-10
1.0299766e-09
1.4929002e-09
2.1608139e-09
3.1252842e-09
4.4660486e-09
6.345666e-09
9.0138602e-09
1.2690492e-08
1.7883129e-08
2.5046987e-08
3.50074e-08
4.8767339e-08
6.7785367e-08
9.3918728e-08
1.2976957e-07
1.7871987e-07
2.4541705e-07
3.3595313e-07
4.5851742e-07
6.2377947e-07
8.4590346e-07
1.1434913e-06
1.5407355e-06
2.0691493e-06
2.7695475e-06
3.6945525e-06
4.911727e-06
6.5074868e-06
8.5916756e-06
1.1303462e-05
1.4818258e-05
1.9356008e-05
2.5191297e-05
3.2664932e-05
4.2198036e-05
5.4307833e-05
6.9626322e-05
8.892143e-05
0.00011312076
0.00014333827
0.00018090346
0.00022739336
0.00028466649
0.0003548987
0.00044062021
0.0005447526
0.00067064528
0.00082210998
0.0010034512
0.0012194925
0.0014755953
0.0017776695
0.0021321748
0.0025461094
0.0030269872
0.0035828005
0.00422197
0.00495328
0.005785801
0.0067288009
0.0077916458
0.0089836934
0.010314182
0.011792117
0.013426159
0.015224518
0.017194853
0.019344185
0.021678815
0.024204268
0.026925243
0.02984558
0.032968249
0.036295347
0.039828109
0.043566942
0.047511456
0.051660515
0.05601229
0.060564317
0.065313564
0.070256492
0.075389125
0.08070711
0.086205787
0.091880241
0.097725365
0.10373591
0.10990652
0.11623179
0.12270633
0.12932471
0.13608161
0.14297174
0.14998991
0.15713107
0.16439027
0.17176271
0.17924372
0.1868288
0.1945136
0.20229394
0.21016579
0.21812527
0.22616869
0.23429249
0.24249329
0.25076783
0.25911302
0.26752593
0.27600374
0.2845438
0.29314355
0.30180072
0.31051268
0.31927851
0.32809277
0.33696311
0.34586398
0.35484968
0.36380026
0.3729425
0.38188193
0.39122309
0.40012871
0.40966012
0.41856715
0.42827416
0.43722312
0.44703688
0.45618454
0.46592906
0.47494003
0.48441206
0.49347816
0.50344754
0.51210232
0.52219007
0.53098506
0.54147744
0.54986847
0.5605477
0.568766
0.57988125
0.5878862
0.59949729
0.60711102
0.61897989
0.62651618
0.63869346
0.6458549
0.65832139
0.66510392
0.67767146
0.68403229
0.69662829
0.70249063
0.71505731
0.72037496
0.73282523
0.7376362
0.74974041
0.75437524
0.76600971
0.77085376
0.78156812
0.78699352
0.79586031
0.80184392
0.80886058
0.81531284
0.82104566
0.82901041
0.83261684
0.84325919
0.84448074
0.85676351
0.85990605
0.87218536
0.87586932
0.88557123
0.890566
0.89720478
0.90209215
0.90638494
0.90981546
0.91259287
0.91514109
0.91735225
0.91933809
0.92091249
0.92224758
0.92347938
0.92454803
0.92560621
0.92629837
0.92695584
0.92700007
0.9270348
0.92699072
0.92695378
0.92682864
0.92668169
0.92651405
0.92614748
0.92600601
0.92575237
0.92563167
0.92546821
0.9253754
0.925271
0.9251927
0.92513707
0.92512464
0.92502877
0.92497183
0.92480591
0.92477196
0.92469469
0.92466154
0.92466182
0.9246116
0.92457538
0.9245448
0.92450357
0.92447711
0.92445366
0.92445379
0.92441989
0.92440594
0.92440335
0.92438933
0.92458186
0.9246382
0.92489094
0.92492627
0.92512492
0.92519674
0.92535347
0.92542668
0.92560807
0.92562593
0.92562476
0.92562795
0.9256323
0.92563663
0.92564552
0.92565987
0.92565791
0.92565562
0.92565942
0.92565874
0.92564631
0.92564121
0.92564077
0.92563262
0.92562866
0.92560318
0.92557846
0.92556706
0.9255221
0.92550754
0.92545565
0.92541832
0.92536998
0.92535849
0.92535144
0.92535459
0.9253609
0.92537696
0.9253799
0.9253808
0.92540421
0.9254276
0.9254596
0.92547348
0.92548063
0.92546513
0.92546063
0.92541705
0.92541423
0.92537521
0.92536122
0.92535102
0.9253406
0.92531729
0.92531323
0.92534456
0.92537302
0.92537447
0.92535078
0.92533913
0.9252639
0.92522999
0.92520968
0.92512957
0.9251448
0.92509517
0.92510034
0.92507518
0.92505659
0.92504246
0.92501291
0.92498659
0.92494163
0.92491105
0.92489734
0.92488626
0.92486388
0.92484935
0.92481791
0.92478585
0.92477056
0.92477289
0.92479492
0.92483107
0.9249215
0.92490158
0.9248908
0.92482723
0.92474142
0.92474669
0.92469366
0.92450492
0.9239863
0.92358978
0.92206446
0.92134684
0.91808117
0.91682912
0.91067026
0.90807615
0.89908158
0.89287609
0.87867456
0.86757395
0.84095151
0.82395427
0.77913883
0.74733653
0.68602258
0.62483351
0.54370074
0.45219078
0.35423856
0.25813356
0.17426028
0.10965527
0.065196356
0.037204055
0.020665992
0.01129491
0.0061172969
0.00329709
0.0017726403
0.00095185382
0.0005108052
0.00027403863
0.00014699574
7.8843145e-05
4.2286575e-05
2.2679077e-05
1.2162873e-05
6.5227394e-06
3.4979417e-06
1.8757296e-06
1.0058451e-06
5.3933475e-07
2.8921913e-07
1.550343e-07
8.3165548e-08
4.4563791e-08
2.3920358e-08
1.2825853e-08
6.9176987e-09
3.6979501e-09
2.0006958e-09
1.0915266e-09
5.8526176e-10
3.118032e-10
1.7372738e-10
1.1947346e-10
5.3350766e-11
5.078557e-11
3.4509103e-11
2.0843339e-11
-8.1828534e-12
4.504382e-12
-1.730794e-11
-3.9869253e-12
-1.4706005e-11
1.8276034e-11
-1.1338318e-11
2.9885734e-11
-1.5755681e-11
1.6745308e-11
-4.7490141e-12
8.7132965e-12
-3.4284006e-12
1.1394593e-11
-1.4513762e-11
7.941662e-13
-1.6832328e-11
-3.7527268e-12
-3.611919e-11
1.1817482e-11
3.1489165e-13
6.0533114e-12
-3.4370582e-12
-2.1985362e-11
-1.6326304e-11
-4.8377986e-11
-2.2263182e-11
-4.9268385e-11
-1.4462594e-11
-3.2003733e-11
-6.2895079e-12
1.0616632e-12
-3.9419836e-11
-5.3603722e-12
-1.5015236e-11
8.2794186e-12
-1.0679454e-11
2.5695467e-11
-1.6314094e-11
4.8465783e-12
-1.4646068e-11
2.1914881e-11
6.8125143e-12
1.7284187e-11
1.4032823e-11
1.7508951e-11
2.2344652e-11
1.8727671e-11
2.9469505e-11
-4.8492422e-12
1.6357493e-11
-1.0946951e-11
1.3178387e-12
8.0403363e-12
1.2684128e-11
-2.2322675e-11
1.2084979e-11
-3.2849734e-11
-1.2470242e-12
-5.8557965e-11
-3.0960829e-12
3.4064241e-13
6.4048312e-12
-1.802552e-12
-6.2906178e-12
-6.8909875e-12
-3.4600784e-11
-4.0214224e-11
-3.343412e-11
-3.7120694e-11
-5.6945436e-11
-6.151697e-11
-4.9477277e-11
-8.4614498e-11
-2.8379538e-11
-6.6539918e-11
-3.7412832e-11
-4.2817491e-11
-7.1325117e-12
-3.6656626e-11
-1.517973e-11
-1.7754471e-11
-1.4840419e-11
-2.3916779e-11
-2.5780156e-11
-3.3446996e-11
-4.8852044e-11
-3.2959729e-11
-1.3689849e-11
-1.0697547e-11
-1.1834908e-11
-2.6901645e-11
-5.3749236e-11
-3.864132e-11
-4.7314658e-11
-5.0939963e-11
-5.3953466e-11
-4.2520358e-11
-3.6722779e-11
-4.1799449e-11
-5.1545883e-12
-4.8879016e-11
-3.666151e-11
-4.0059498e-11
-1.2640729e-11
-1.9782009e-11
1.154943e-11
1.9739942e-11
1.6072237e-11
6.3656501e-12
-4.6899649e-12
2.8468112e-11
-2.4401048e-12
1.4945198e-11
-2.7065584e-11
1.6092438e-11
3.3545892e-12
3.1926703e-11
4.0524454e-11
4.3235386e-11
1.8454181e-11
3.4926442e-11
1.6994491e-11
3.1005115e-11
1.7002705e-11
7.698584e-13
7.1089808e-12
-2.8404512e-11
2.3354369e-12
-4.2749895e-11
1.7325143e-12
-3.5776106e-11
1.6648328e-15
-4.9575951e-11
4.9836502e-14
-3.2307525e-11
-1.2844737e-11
-2.1888575e-11
-2.265921e-11
-6.6789878e-12
4.8107271e-12
2.3966949e-11
1.7041331e-11
7.2638183e-12
1.0335482e-11
8.2403486e-12
2.963744e-11
-1.3588955e-11
2.3328397e-11
-8.4709953e-12
2.6165862e-11
2.8389861e-11
2.6833273e-11
4.7374373e-11
3.3343549e-11
6.1435278e-11
4.9553974e-11
7.6129184e-11
4.5332628e-11
2.8731169e-11
1.3491502e-11
-6.5658843e-12
-8.2588847e-12
-3.6806913e-12
-1.9503191e-11
-2.2630685e-12
1.8762191e-11
-5.0535833e-13
1.2586341e-11
-3.092753e-12
-1.2733853e-11
1.699438e-12
-3.0017374e-12
8.5696695e-12
-1.6237841e-11
2.2979319e-11
-1.518983e-11
-1.4104525e-11
-4.573909e-11
-1.5017789e-11
-6.3016062e-12
8.4787649e-12
1.7168642e-12
1.0420171e-12
2.0400471e-11
2.8133796e-11
2.7647418e-11
-2.5086995e-12
-2.1447483e-12
-1.0260228e-11
-1.5403828e-12
-1.0974922e-11
-2.1332714e-11
-2.1185979e-11
-4.0601373e-11
-4.8407955e-11
-4.533063e-11
-1.4213633e-11
-3.6112197e-11
-1.8865971e-11
2.149521e-11
3.8549194e-11
3.8915477e-11
2.7072688e-11
5.5241003e-11
4.6021128e-11
3.175233e-11
3.7668785e-11
4.8877129e-11
4.9667299e-11
4.6335353e-11
7.185778e-11
3.654552e-11
3.4450942e-11
8.3849745e-12
-2.0710701e-11
1.3616149e-11
-9.7655251e-12
1.8313884e-11
-7.0814541e-13
-6.4475642e-12
-2.0948562e-11
1.1957446e-12
6.6734381e-12
-3.4467147e-12
-2.8631607e-11
1.6281129e-11
6.9275047e-12
-6.0596381e-12
2.4588518e-11
-1.6698357e-11
2.0765976e-11
-9.8579835e-12
3.1854778e-11
-4.9172818e-12
5.1581623e-11
3.0265225e-11
6.3355373e-11
2.6561114e-11
2.6217586e-11
2.3853623e-11
1.7155988e-11
5.5602735e-11
2.6355663e-12
2.9625452e-11
1.9658028e-11
2.586984e-11
8.1758607e-12
1.6896039e-11
6.3793025e-12
3.7051767e-11
-3.9932519e-12
3.6154486e-11
-1.0977364e-13
1.4466589e-11
2.6276857e-12
-6.3926218e-12
9.0449483e-12
1.855563e-11
7.4702682e-12
3.6249165e-11
3.1263177e-11
3.9468341e-11
9.7910538e-12
3.0027364e-11
1.2292539e-11
3.2153465e-11
1.6904474e-12
-1.720416e-11
-1.158184e-11
-1.7515167e-11
9.8454412e-12
-8.4844256e-12
-1.5309482e-12
-2.1882803e-11
3.5813511e-12
-1.9391197e-11
-1.7098715e-11
1.6722998e-11
-2.5738422e-11
-2.3800457e-11
-3.7971468e-11
-2.0865871e-11
-3.0784458e-11
2.265699e-11
-1.0010268e-11
-6.0034747e-12
-9.0814656e-12
-5.9244578e-11
-2.9757314e-11
-5.2058345e-11
-4.5044486e-11
-1.7822067e-11
-6.1911667e-12
-1.8829009e-11
-4.8388087e-12
-2.7907478e-11
-1.568087e-11
3.1544669e-20
)
;

boundaryField
{
    sides
    {
        type            calculated;
        value           nonuniform List<scalar> 2(3.1544669e-20 -2.2148009e-21);
    }
    emptywalls
    {
        type            empty;
    }
}


// ************************************************************************* //
