/*--------------------------------*- C++ -*----------------------------------*\
| =========                 |                                                 |
| \\      /  F ield         | OpenFOAM: The Open Source CFD Toolbox           |
|  \\    /   O peration     | Version:  2112                                  |
|   \\  /    A nd           | Website:  www.openfoam.com                      |
|    \\/     M anipulation  |                                                 |
\*---------------------------------------------------------------------------*/
FoamFile
{
    version     2.0;
    format      ascii;
    arch        "LSB;label=32;scalar=64";
    class       volScalarField;
    location    "3";
    object      T;
}
// * * * * * * * * * * * * * * * * * * * * * * * * * * * * * * * * * * * * * //

dimensions      [0 0 0 1 0 0 0];

internalField   nonuniform List<scalar> 
1000
(
0
0
0
0
0
0
0
0
0
0
0
0
0
0
0
0
0
0
0
0
0
0
0
0
0
0
0
0
0
0
0
0
0
0
0
0
0
0
0
0
0
0
0
0
0
0
0
0
0
0
0
0
0
0
0
0
0
0
0
0
0
0
0
0
0
0
0
0
0
0
0
0
0
0
0
0
0
0
0
0
0
0
0
0
0
0
0
0
0
0
0
0
0
0
0
0
0
0
0
0
0
0
0
0
0
0
0
0
0
0
0
0
0
0
0
0
-9.88131e-324
7.41098e-323
9.92578e-321
2.22438e-319
-2.91767e-318
-2.91934e-316
-5.37064e-315
1.27927e-313
8.45697e-312
1.01084e-310
-5.34123e-309
-2.28361e-307
-5.86945e-307
1.99563e-304
5.20354e-303
-6.7978e-302
-6.36304e-300
-7.40127e-299
4.3734e-297
1.58201e-295
-9.31302e-295
-1.6494e-292
-2.20814e-291
1.1323e-289
4.01938e-288
-3.73202e-287
-4.32388e-285
-3.28271e-284
3.50352e-282
8.04708e-281
-2.12893e-279
-1.0192e-277
6.94219e-277
1.01882e-274
4.95215e-274
-8.83118e-272
-1.32028e-270
6.8803e-269
1.79147e-267
-4.88921e-266
-1.9845e-264
3.17822e-263
1.99143e-261
-1.88059e-260
-1.8929e-258
1.00955e-257
1.74709e-255
-5.17e-255
-1.58913e-252
3.33156e-252
1.43511e-249
-3.87655e-249
-1.2873e-246
6.16533e-246
1.13907e-243
-9.60312e-243
-9.79107e-241
1.3577e-239
7.95528e-238
-1.73891e-236
-5.80283e-235
2.02272e-233
3.34202e-232
-2.12163e-230
-7.19358e-230
1.95924e-227
-1.75211e-226
-1.50063e-224
3.61858e-223
7.89302e-222
-4.40047e-220
2.70446e-220
3.80483e-217
-7.10171e-216
-1.97612e-214
1.00916e-212
-3.66329e-212
-7.96739e-210
2.10378e-208
1.98203e-207
-2.29539e-205
4.06192e-204
9.14893e-203
-5.95247e-201
8.77884e-200
2.55331e-198
-1.50922e-196
2.46827e-195
4.98564e-194
-3.72024e-192
8.30823e-191
2.58758e-190
-7.91208e-188
2.68199e-186
-3.47369e-185
-8.96752e-184
6.45418e-182
-1.88396e-180
2.52185e-179
4.77125e-178
-4.17345e-176
1.48452e-174
-3.4149e-173
3.96339e-172
8.71176e-171
-7.51949e-169
3.08922e-167
-9.86734e-166
2.71707e-164
-6.72461e-163
1.52901e-161
-3.23679e-160
6.43659e-159
-1.21005e-157
2.1609e-156
-3.67929e-155
5.99075e-154
-9.35066e-153
1.40192e-151
-2.02238e-150
2.81118e-149
-3.77003e-148
4.88314e-147
-6.11448e-146
7.4077e-145
-8.68926e-144
9.87487e-143
-1.08785e-141
1.16227e-140
-1.20482e-139
1.21221e-138
-1.18414e-137
1.12335e-136
-1.03514e-135
9.26688e-135
-8.06057e-134
6.81288e-133
-5.59556e-132
4.4658e-131
-3.46318e-130
2.6093e-129
-1.90977e-128
1.35755e-127
-9.36985e-127
6.27727e-126
-4.08032e-125
2.57215e-124
-1.57153e-123
9.29995e-123
-5.32613e-122
2.94914e-121
-1.57697e-120
8.13167e-120
-4.0366e-119
1.92484e-118
-8.79304e-118
3.83451e-117
-1.58873e-116
6.21259e-116
-2.27037e-115
7.6317e-115
-2.29232e-114
5.76872e-114
-9.80405e-114
-5.5868e-114
1.47093e-112
-8.2919e-112
3.29979e-111
-1.01847e-110
2.26742e-110
-1.85033e-110
-1.39646e-109
9.65662e-109
-3.77073e-108
1.01003e-107
-1.43357e-107
-2.84904e-107
2.89118e-106
-1.16515e-105
2.90056e-105
-2.73152e-105
-1.49147e-104
9.62604e-104
-3.05028e-103
4.90751e-103
6.21562e-103
-7.24899e-102
2.59097e-101
-4.5847e-101
-3.73241e-101
5.59516e-100
-1.96247e-99
3.06033e-99
4.69261e-99
-4.4314e-98
1.30822e-97
-1.25509e-97
-6.13292e-97
3.27674e-96
-6.85509e-96
-1.97965e-96
6.15496e-95
-1.96367e-94
1.83994e-94
9.0956e-94
-4.40313e-93
7.30188e-93
1.00453e-92
-8.61828e-92
1.91012e-91
5.54951e-92
-1.56094e-90
4.18282e-90
-8.76629e-91
-2.73018e-89
8.25686e-89
-3.59577e-89
-4.76389e-88
1.51638e-87
-7.1492e-88
-8.44075e-87
2.61899e-86
-8.91396e-87
-1.5153e-85
4.23399e-85
-1.49774e-86
-2.70199e-84
6.27528e-84
3.09043e-84
-4.64489e-83
8.14328e-83
1.15181e-82
-7.43645e-82
8.24448e-82
2.85318e-81
-1.06316e-80
3.62955e-81
5.62159e-80
-1.26895e-79
-9.52886e-80
9.09314e-79
-1.06265e-78
-3.35673e-78
1.17627e-77
-7.36989e-79
-6.46576e-77
1.07997e-76
1.86784e-76
-8.79941e-76
3.13679e-76
4.2888e-75
-7.89709e-75
-1.1638e-74
5.79124e-74
-1.75356e-74
-2.78666e-73
4.52687e-73
8.58173e-73
-3.37604e-72
-2.60827e-73
1.73109e-71
-1.86921e-71
-6.49228e-71
1.63609e-70
1.42737e-70
-9.45487e-70
2.7244e-70
4.2703e-69
-5.41963e-69
-1.51472e-68
3.9332e-68
3.59456e-68
-2.13648e-67
1.27056e-68
9.6909e-67
-8.19309e-67
-3.76123e-66
6.45303e-66
1.22029e-65
-3.70304e-65
-2.92103e-65
1.80923e-64
1.55549e-65
-7.91737e-64
3.84626e-64
3.17064e-63
-3.29493e-63
-1.17172e-62
1.94238e-62
3.99192e-62
-9.7747e-62
-1.23824e-61
4.47975e-61
3.37499e-61
-1.92614e-60
-7.25032e-61
7.90356e-60
6.25199e-61
-3.13055e-59
5.15839e-60
1.20717e-58
-4.43479e-59
-4.56251e-58
2.43308e-58
1.6996e-57
-1.12631e-57
-6.26856e-57
4.72287e-57
2.29709e-56
-1.84349e-56
-8.38235e-56
6.77099e-56
3.04895e-55
-2.34335e-55
-1.10496e-54
7.58616e-55
3.98287e-54
-2.25069e-54
-1.42366e-53
5.81467e-54
5.02616e-53
-1.10747e-53
-1.74385e-52
4.76664e-55
5.9102e-52
1.45332e-52
-1.94209e-51
-1.03432e-51
6.12737e-51
5.3543e-51
-1.83035e-50
-2.38883e-50
5.05941e-50
9.65302e-50
-1.23695e-49
-3.59818e-49
2.36808e-49
1.24332e-48
-1.64765e-49
-3.96674e-48
-1.46349e-48
1.15223e-47
1.06105e-47
-2.95024e-47
-4.88909e-47
6.12507e-47
1.83767e-46
-7.21856e-47
-5.93838e-46
-1.64469e-46
1.64874e-45
1.58617e-45
-3.74433e-45
-7.23793e-45
5.69723e-45
2.50406e-44
2.23356e-45
-6.99045e-44
-6.03258e-44
1.50553e-43
2.90672e-43
-1.85494e-43
-9.65882e-43
-2.99329e-43
2.41685e-42
2.93289e-42
-4.03106e-42
-1.16394e-41
3.20728e-43
3.18095e-41
2.90953e-41
-5.75727e-41
-1.33561e-40
2.19327e-41
3.75789e-40
3.21662e-40
-6.58366e-40
-1.52446e-39
1.15098e-40
4.0799e-39
4.09519e-39
-6.04391e-39
-1.71714e-38
-3.72092e-39
3.95061e-38
5.45528e-38
-3.67861e-38
-1.80244e-37
-1.20576e-37
3.06351e-37
6.69599e-37
5.63739e-38
-1.58523e-36
-2.11082e-36
1.23763e-36
6.73229e-36
5.61062e-36
-9.0928e-36
-2.54584e-35
-1.16251e-35
4.57585e-35
8.93152e-35
1.16719e-35
-1.96815e-34
-2.99158e-34
4.98163e-35
7.76089e-34
9.80972e-34
-4.21488e-34
-2.90191e-33
-3.22597e-33
2.03489e-33
1.04853e-32
1.08689e-32
-7.92584e-33
-3.69793e-32
-3.8027e-32
2.64348e-32
1.27671e-31
1.3826e-31
-7.37043e-32
-4.29837e-31
-5.16138e-31
1.44537e-31
1.39544e-30
1.93905e-30
3.79539e-32
-4.27685e-30
-7.16533e-30
-2.4099e-30
1.18941e-29
2.54314e-29
1.68625e-29
-2.74014e-29
-8.43735e-29
-8.57258e-29
3.6214e-29
2.517e-28
3.64501e-28
9.58669e-29
-6.25259e-28
-1.33151e-27
-1.04231e-27
1.00288e-27
4.09492e-27
5.3461e-27
1.00651e-27
-9.69149e-27
-2.02705e-26
-1.71541e-26
1.12857e-26
5.83225e-26
8.70059e-26
4.16579e-26
-1.06246e-25
-2.95066e-25
-3.47275e-25
-4.90314e-26
6.45034e-25
1.37957e-24
1.36565e-24
-2.11511e-25
-3.3293e-24
-6.25939e-24
-5.60259e-24
1.88625e-24
1.57345e-23
2.83057e-23
2.50605e-23
-7.9751e-24
-6.95856e-23
-1.28592e-22
-1.23006e-22
1.20499e-23
2.8499e-22
5.80682e-22
6.39646e-22
1.48852e-22
-1.02599e-21
-2.53201e-21
-3.34017e-21
-1.95908e-21
2.7313e-21
1.01188e-20
1.65915e-20
1.551e-20
-3.30567e-22
-3.32814e-20
-7.38912e-20
-9.64269e-20
-6.28127e-20
5.97643e-20
2.67597e-19
4.85765e-19
5.52551e-19
2.53268e-19
-5.72693e-19
-1.85695e-18
-3.11736e-18
-3.38382e-18
-1.39435e-18
3.80877e-18
1.18958e-17
2.01594e-17
2.29348e-17
1.24049e-17
-1.83765e-17
-7.00067e-17
-1.29853e-16
-1.66673e-16
-1.31481e-16
2.97696e-17
3.47794e-16
7.87305e-16
1.20099e-15
1.30327e-15
6.9778e-16
-1.0045e-15
-3.95386e-15
-7.73276e-15
-1.10107e-14
-1.13496e-14
-5.40592e-15
1.01899e-14
3.70665e-14
7.24812e-14
1.06282e-13
1.18536e-13
7.96025e-14
-4.50365e-14
-2.82831e-13
-6.33684e-13
-1.0419e-12
-1.36566e-12
-1.35482e-12
-6.54624e-13
1.14148e-12
4.36448e-12
9.04825e-12
1.46119e-11
1.94789e-11
2.07187e-11
1.3869e-11
-6.82239e-12
-4.74255e-11
-1.12275e-10
-2.00532e-10
-3.01221e-10
-3.86986e-10
-4.07406e-10
-2.83636e-10
9.26609e-11
8.51682e-10
2.12327e-09
3.99294e-09
6.4285e-09
9.17042e-09
1.15826e-08
1.24669e-08
9.85646e-09
8.22424e-10
-1.86454e-08
-5.35852e-08
-1.09688e-07
-1.92393e-07
-3.05156e-07
-4.46522e-07
-6.05504e-07
-7.54674e-07
-8.40224e-07
-7.68154e-07
-3.85585e-07
5.43875e-07
2.37193e-06
5.60581e-06
1.09581e-05
1.94075e-05
3.22717e-05
5.12931e-05
7.87381e-05
0.000117511
0.000171281
0.000244622
0.000343169
0.000473777
0.000644693
0.000865734
0.00114846
0.00150635
0.00195495
0.00251206
0.00319779
0.00403473
0.00504799
0.00626518
0.00771648
0.00943445
0.011454
0.0138122
0.0165479
0.0197017
0.0233151
0.0274307
0.0320911
0.0373388
0.0432155
0.0497616
0.0570152
0.065012
0.0737842
0.0833603
0.0937642
0.105015
0.117126
0.130105
0.143953
0.158665
0.174228
0.190625
0.207829
0.225808
0.244524
0.263931
0.283979
0.304612
0.325768
0.347384
0.36939
0.391715
0.414286
0.437028
0.459866
0.482724
0.505528
0.528206
0.550686
0.572902
0.594789
0.616286
0.637337
0.65789
0.677899
0.697323
0.716123
0.734271
0.751739
0.768506
0.784559
0.799885
0.814479
0.82834
0.841471
0.853877
0.865571
0.876564
0.886874
0.896519
0.905521
0.913902
0.921686
0.9289
0.935569
0.94172
0.947382
0.95258
0.957343
0.961697
0.965669
0.969285
0.972569
0.975545
0.978236
0.980665
0.982852
0.984816
0.986575
0.988146
0.989545
0.990785
0.991878
0.992835
0.993663
0.994371
0.994962
0.99544
0.995804
0.996053
0.996182
0.996185
0.996052
0.995769
0.995323
0.994694
0.993861
0.9928
0.991484
0.989883
0.987963
0.985692
0.98303
0.97994
0.976381
0.972312
0.967692
0.962478
0.95663
0.950108
0.942875
0.934896
0.926139
0.916575
0.906182
0.89494
0.882837
0.869864
0.856021
0.841314
0.825754
0.80936
0.792159
0.774182
0.755468
0.736062
0.716015
0.695384
0.674228
0.652613
0.630607
0.608283
0.585712
0.562971
0.540133
0.517275
0.494471
0.471794
0.449313
0.427098
0.405211
0.383714
0.362663
0.34211
0.322101
0.302677
0.283876
0.265729
0.248261
0.231493
0.215441
0.200115
0.185521
0.17166
0.158529
0.146123
0.134429
0.123436
0.113126
0.103481
0.0944793
0.0860984
0.078314
0.0711005
0.0644314
0.0582798
0.0526185
0.04742
0.0426571
0.038303
0.0343311
0.0307159
0.0274322
0.024456
0.0217641
0.0193345
0.0171461
0.0151789
0.0134142
0.0118342
0.0104226
0.00916366
0.00804322
0.00704792
0.00616548
0.00538457
0.00469482
0.00408671
0.00355158
0.00308152
0.00266937
0.00230865
0.0019935
0.00171865
0.00147937
0.00127142
0.001091
0.000934746
0.000799643
0.000683026
0.000582535
0.000496081
0.000421828
0.000358156
0.000303647
0.000257056
0.000217298
0.000183423
0.000154606
0.00013013
0.000109373
9.17978e-05
7.69384e-05
6.43945e-05
5.3821e-05
4.49218e-05
3.74427e-05
3.11663e-05
2.5907e-05
2.15063e-05
1.78292e-05
1.47613e-05
1.22051e-05
1.00783e-05
8.31134e-06
6.84526e-06
5.63053e-06
4.62544e-06
3.79493e-06
3.1096e-06
2.54484e-06
2.08004e-06
1.69803e-06
1.38446e-06
1.12742e-06
9.16973e-07
7.44908e-07
6.044e-07
4.89808e-07
3.96469e-07
3.20537e-07
2.58842e-07
2.08777e-07
1.682e-07
1.35352e-07
1.08794e-07
8.73465e-08
7.00476e-08
5.61112e-08
4.48969e-08
3.58838e-08
2.86481e-08
2.28462e-08
1.81993e-08
1.44817e-08
1.15109e-08
9.13972e-09
7.24916e-09
5.74352e-09
4.54576e-09
3.59397e-09
2.83848e-09
2.23946e-09
1.76501e-09
1.38964e-09
1.09298e-09
8.58766e-10
6.74056e-10
5.28539e-10
4.14019e-10
3.23987e-10
2.53281e-10
1.97809e-10
1.54334e-10
1.20296e-10
9.36738e-11
7.28722e-11
5.66352e-11
4.39737e-11
3.41103e-11
2.64341e-11
2.0466e-11
1.58303e-11
1.22344e-11
9.4369e-12
7.34351e-12
5.18456e-12
)
;

boundaryField
{
    sides
    {
        type            zeroGradient;
    }
    empty
    {
        type            empty;
    }
}


// ************************************************************************* //
