/*--------------------------------*- C++ -*----------------------------------*\
| =========                 |                                                 |
| \\      /  F ield         | OpenFOAM: The Open Source CFD Toolbox           |
|  \\    /   O peration     | Version:  2112                                  |
|   \\  /    A nd           | Website:  www.openfoam.com                      |
|    \\/     M anipulation  |                                                 |
\*---------------------------------------------------------------------------*/
FoamFile
{
    version     2.0;
    format      ascii;
    arch        "LSB;label=32;scalar=64";
    class       surfaceScalarField;
    location    "0.15";
    object      phi;
}
// * * * * * * * * * * * * * * * * * * * * * * * * * * * * * * * * * * * * * //

dimensions      [1 0 -1 0 0 0 0];

oriented        oriented;

internalField   nonuniform List<scalar> 
13790
(
0.00290515
7.41689e-10
0.00290515
1.68398e-10
0.00290515
-1.95933e-10
0.00290515
-3.25089e-10
0.00290515
-2.76722e-10
0.00290515
-1.66666e-10
0.00290515
-1.24127e-10
0.00290515
-8.08937e-11
0.00290515
-4.22156e-11
0.00290515
-1.08819e-11
0.00290515
1.23315e-11
0.00290515
2.7988e-11
0.00290515
3.73304e-11
0.00290515
4.17861e-11
0.00290515
4.26756e-11
0.00290515
4.11326e-11
0.00290515
3.82051e-11
0.00290515
3.49808e-11
0.00290515
4.1319e-11
0.00290515
1.9365e-11
0.00290515
-5.22713e-11
0.00290514
-1.35741e-11
0.00290515
3.7901e-10
0.00290512
1.28073e-09
0.00290504
2.83763e-09
0.00290513
5.16588e-09
0.00290456
8.61467e-09
0.0029041
1.37218e-08
0.00290311
2.14867e-08
0.00290015
3.41655e-08
0.00289616
5.70691e-08
0.00288277
1.02584e-07
0.0028542
1.95247e-07
0.00280249
3.72527e-07
0.00269317
4.93238e-07
0.00252931
2.8351e-06
0.00109242
3.82283e-05
0.000101615
0.000459696
0.000866994
0.000105756
0.000373247
0.000143381
0.000295639
0.000182044
0.000461922
9.10713e-05
0.000297897
0.000105632
0.000306654
0.000122348
0.000236667
0.000115814
0.000134935
0.000119494
0.000236983
0.000117014
0.000118071
0.000114469
-0.000152044
0.000122403
0.000109895
0.00301309
7.55254e-10
0.00301309
2.85465e-10
0.00301309
-4.97677e-11
0.00301309
-2.05064e-10
0.00301309
-2.51543e-10
0.00301309
-1.8131e-10
0.00301309
-1.487e-10
0.00301309
-1.13542e-10
0.00301309
-8.19132e-11
0.00301309
-5.50008e-11
0.00301309
-3.33788e-11
0.00301309
-1.71014e-11
0.00301309
-5.82446e-12
0.00301309
1.05906e-12
0.00301309
4.29911e-12
0.00301309
4.77082e-12
0.00301309
3.53944e-12
0.00301309
1.846e-12
0.00301309
1.25804e-12
0.00301309
-1.0994e-11
0.00301309
-7.65469e-11
0.00301309
4.63484e-11
0.00301309
6.24103e-10
0.00301306
1.97915e-09
0.00301297
4.36885e-09
0.00301308
8.10674e-09
0.00301254
1.40076e-08
0.00301202
2.37693e-08
0.00301106
4.09456e-08
0.00300813
7.32669e-08
0.00300398
1.38523e-07
0.00299065
2.79743e-07
0.00296185
6.05339e-07
0.00290886
1.44604e-06
0.0027984
3.9588e-06
0.00260878
1.70499e-05
0.00119176
0.000104906
6.82859e-05
0.000933909
0.000879569
0.000232575
0.000386451
0.00025908
0.000268377
0.00038004
0.000462492
0.000179336
0.000300362
0.000212025
0.000300253
0.000256836
0.000235123
0.000228118
0.000131377
0.000241903
0.000237095
0.000241825
0.000115474
0.000231203
-0.00015984
0.000245875
0.000218744
0.00312505
8.20106e-10
0.00312505
4.64344e-10
0.00312505
1.50871e-10
0.00312505
-7.42131e-11
0.00312504
-2.3714e-10
0.00312505
-2.677e-10
0.00312505
-2.26311e-10
0.00312505
-1.91409e-10
0.00312505
-1.58619e-10
0.00312505
-1.28376e-10
0.00312505
-1.01347e-10
0.00312505
-7.81394e-11
0.00312505
-5.91142e-11
0.00312505
-4.43135e-11
0.00312505
-3.3484e-11
0.00312505
-2.6042e-11
0.00312505
-2.10333e-11
0.00312505
-1.71548e-11
0.00312505
-1.27614e-11
0.00312505
-1.96998e-11
0.00312504
-6.99268e-11
0.00312504
8.89848e-11
0.00312504
7.6417e-10
0.00312501
2.31816e-09
0.00312491
5.15171e-09
0.00312504
9.93985e-09
0.00312453
1.80282e-08
0.00312396
3.23932e-08
0.003123
5.94234e-08
0.00312007
1.1314e-07
0.00311577
2.25352e-07
0.00310258
4.73037e-07
0.00307333
1.05654e-06
0.0030191
2.61709e-06
0.00290893
7.52228e-06
0.00269659
3.18187e-05
0.00133887
0.000172377
2.45968e-05
0.00141376
0.000935208
0.000395032
0.000422085
0.000355634
0.000239111
0.00059868
0.000468466
0.000283531
0.000311403
0.000315781
0.000298041
0.000397872
0.000237525
0.000336695
0.000134845
0.000364699
0.000247068
0.000370633
0.000120644
0.000351124
-0.000163415
0.000372183
0.000336996
0.00324116
7.90698e-10
0.00324116
4.64781e-10
0.00324116
1.92725e-10
0.00324116
2.62036e-12
0.00324116
-1.40007e-10
0.00324116
-1.82391e-10
0.00324116
-1.68196e-10
0.00324116
-1.50298e-10
0.00324116
-1.32564e-10
0.00324116
-1.16298e-10
0.00324116
-1.02317e-10
0.00324116
-9.09699e-11
0.00324116
-8.22775e-11
0.00324116
-7.60725e-11
0.00324116
-7.21153e-11
0.00324116
-7.00301e-11
0.00324116
-6.92545e-11
0.00324116
-5.76875e-11
0.00324116
-5.44507e-11
0.00324116
-6.7124e-11
0.00324116
-1.13862e-10
0.00324115
7.15575e-11
0.00324115
8.10151e-10
0.00324113
2.53407e-09
0.003241
5.7589e-09
0.00324114
1.14571e-08
0.00324069
2.12681e-08
0.00324007
3.94749e-08
0.00323913
7.51282e-08
0.00323629
1.4808e-07
0.00323187
3.03338e-07
0.00321888
6.48981e-07
0.00318991
1.46732e-06
0.00313557
3.66383e-06
0.0030279
1.06143e-05
0.00279244
4.39778e-05
0.00157353
0.0002162
1.13982e-05
0.00182738
0.000996115
0.000628235
0.000490552
0.000453388
0.000234806
0.000805543
0.000508023
0.000421103
0.000333898
0.000408508
0.000299865
0.000541784
0.000239476
0.000451889
0.000138529
0.000489542
0.000253827
0.000505981
0.000124505
0.000475402
-0.000169231
0.000496143
0.000461242
0.00336158
7.61767e-10
0.00336158
4.79669e-10
0.00336158
2.54917e-10
0.00336158
1.17942e-10
0.00336158
-1.73397e-11
0.00336158
-4.89652e-11
0.00336158
-7.08261e-11
0.00336158
-8.7837e-11
0.00336158
-1.01329e-10
0.00336158
-1.12471e-10
0.00336158
-1.21983e-10
0.00336158
-1.30217e-10
0.00336158
-1.37322e-10
0.00336158
-1.4341e-10
0.00336158
-1.48594e-10
0.00336158
-1.28265e-10
0.00336158
-1.26958e-10
0.00336158
-1.27409e-10
0.00336158
-1.29207e-10
0.00336158
-1.46989e-10
0.00336158
-1.78582e-10
0.00336157
4.71885e-11
0.00336157
8.58416e-10
0.00336156
2.72355e-09
0.00336142
6.28595e-09
0.00336153
1.26868e-08
0.00336119
2.4101e-08
0.00336051
4.56084e-08
0.00335959
8.85001e-08
0.00335691
1.78039e-07
0.00335244
3.71228e-07
0.00333967
8.04151e-07
0.00331136
1.83115e-06
0.00325762
4.57738e-06
0.00315268
1.32384e-05
0.00289631
5.35222e-05
0.00183748
0.000244268
-2.33059e-05
0.0021975
0.0010452
0.00091489
0.000592042
0.000570607
0.0002435
0.00100409
0.000581196
0.000596207
0.000361054
0.000504969
0.000305253
0.000686348
0.00024423
0.000587888
0.000147099
0.000614162
0.000263633
0.000648532
0.00013108
0.00060434
-0.000174148
0.000622769
0.000595747
0.00348648
7.2756e-10
0.00348648
4.5551e-10
0.00348648
2.52386e-10
0.00348648
1.24994e-10
0.00348648
2.08313e-11
0.00348648
-1.43258e-11
0.00348648
-4.04719e-11
0.00348648
-6.25157e-11
0.00348648
-8.12724e-11
0.00348648
-9.75103e-11
0.00348648
-1.11892e-10
0.00348648
-1.24926e-10
0.00348648
-1.36987e-10
0.00348648
-1.48357e-10
0.00348648
-1.59125e-10
0.00348648
-1.39835e-10
0.00348648
-1.44014e-10
0.00348648
-1.50227e-10
0.00348648
-1.58029e-10
0.00348648
-1.81508e-10
0.00348648
-2.02775e-10
0.00348647
5.01184e-11
0.00348647
9.05391e-10
0.00348647
2.87828e-09
0.00348632
6.67732e-09
0.00348639
1.35989e-08
0.00348615
2.62941e-08
0.00348545
5.05438e-08
0.00348457
9.9171e-08
0.00348212
2.01107e-07
0.00347771
4.2245e-07
0.00346525
9.20711e-07
0.0034381
2.1028e-06
0.00338598
5.23869e-06
0.00328417
1.50429e-05
0.00301408
5.90762e-05
0.0021395
0.000257329
-2.73146e-05
0.00246694
0.00108893
0.00128341
0.000721271
0.000711247
0.000271028
0.00116062
0.000637734
0.000833587
0.000399986
0.000622458
0.000313214
0.000832358
0.000250571
0.000735109
0.000159198
0.000734586
0.000275373
0.000795632
0.000138246
0.000740554
-0.000176776
0.0007523
0.000739893
0.00361602
6.91858e-10
0.00361602
4.31851e-10
0.00361602
2.52906e-10
0.00361602
1.40109e-10
0.00361602
7.26609e-11
0.00361602
3.69539e-11
0.00361602
6.33341e-12
0.00361602
-2.13341e-11
0.00361602
-4.64776e-11
0.00361602
-6.96803e-11
0.00361602
-9.14797e-11
0.00361602
-1.12317e-10
0.00361602
-1.32525e-10
0.00361602
-1.523e-10
0.00361602
-1.45455e-10
0.00361602
-1.55019e-10
0.00361602
-1.67365e-10
0.00361602
-1.8217e-10
0.00361602
-1.99059e-10
0.00361602
-2.31576e-10
0.00361602
-2.46455e-10
0.00361602
3.00717e-11
0.00361601
9.22864e-10
0.00361602
2.9608e-09
0.00361586
6.91053e-09
0.0036159
1.41969e-08
0.00361574
2.78494e-08
0.00361502
5.41667e-08
0.00361416
1.07125e-07
0.00361208
2.18048e-07
0.00360792
4.57949e-07
0.00359595
9.95618e-07
0.00357056
2.26494e-06
0.00352129
5.58983e-06
0.00342305
1.58201e-05
0.00315177
5.97145e-05
0.0024664
0.000256385
3.6218e-05
0.00252443
0.00113354
0.00176039
0.000872899
0.000890651
0.000338995
0.0012855
0.000685546
0.0011275
0.000459315
0.000767557
0.00032831
0.000966199
0.000259903
0.000891533
0.000178978
0.000860577
0.000291275
0.000945532
0.000145883
0.000884281
-0.000177264
0.000880938
0.000893389
0.00375038
6.52433e-10
0.00375038
4.06025e-10
0.00375038
2.37707e-10
0.00375038
1.32023e-10
0.00375038
7.2545e-11
0.00375038
4.31058e-11
0.00375038
1.67759e-11
0.00375038
-6.98836e-12
0.00375038
-2.89185e-11
0.00375038
-4.98272e-11
0.00375038
-7.03657e-11
0.00375038
-9.09526e-11
0.00375038
-1.11773e-10
0.00375038
-1.12002e-10
0.00375038
-1.53032e-10
0.00375038
-1.42316e-10
0.00375038
-1.55664e-10
0.00375038
-1.71229e-10
0.00375038
-1.88497e-10
0.00375038
-2.19179e-10
0.00375037
-2.18646e-10
0.00375037
7.97194e-11
0.00375036
9.93035e-10
0.00375039
3.04863e-09
0.00375022
7.05284e-09
0.00375022
1.453e-08
0.00375014
2.88381e-08
0.00374942
5.67301e-08
0.00374854
1.13041e-07
0.00374683
2.30814e-07
0.00374302
4.84107e-07
0.00373189
1.04584e-06
0.00370923
2.35212e-06
0.00366458
5.69048e-06
0.0035723
1.5635e-05
0.00332035
5.53525e-05
0.00281358
0.000236362
0.000262214
0.00218011
0.00135544
0.00249737
0.00103559
0.00111174
0.000431666
0.00140937
0.000741091
0.00144735
0.000522324
0.000942392
0.000353131
0.0010875
0.000281781
0.00105694
0.000209607
0.000999074
0.000308171
0.00108371
0.000154841
0.00103884
-0.000178078
0.00100739
0.001055
0.00388972
6.11329e-10
0.00388972
3.78961e-10
0.00388972
2.23037e-10
0.00388972
1.2388e-10
0.00388972
7.63002e-11
0.00388972
5.03552e-11
0.00388972
2.91965e-11
0.00388972
1.02721e-11
0.00388972
-7.42275e-12
0.00388972
-2.49956e-11
0.00388972
-4.33415e-11
0.00388972
-6.29819e-11
0.00388972
-8.40346e-11
0.00388972
-1.06234e-10
0.00388972
-1.29043e-10
0.00388972
-1.24339e-10
0.00388972
-1.39601e-10
0.00388972
-1.57367e-10
0.00388972
-1.77164e-10
0.00388972
-2.09717e-10
0.00388972
-2.07469e-10
0.00388972
9.35515e-11
0.00388971
1.00531e-09
0.00388974
3.02914e-09
0.00388958
6.97525e-09
0.00388955
1.44442e-08
0.00388954
2.89948e-08
0.00388881
5.77459e-08
0.00388789
1.16247e-07
0.00388655
2.38989e-07
0.00388298
5.02798e-07
0.00387261
1.08414e-06
0.00385298
2.41664e-06
0.00381417
5.72558e-06
0.00373128
1.51664e-05
0.00351689
4.95281e-05
0.00316311
0.000205488
0.00073726
0.00159748
0.00146668
0.0034594
0.00118446
0.00142869
0.000538251
0.0015112
0.000860632
0.00178503
0.000586321
0.00115167
0.000376128
0.00120413
0.000327647
0.00122936
0.00025023
0.00115048
0.000320509
0.00120174
0.000173831
0.00120204
-0.000174046
0.00113346
0.00122381
0.00403424
5.67677e-10
0.00403424
3.50881e-10
0.00403424
2.04889e-10
0.00403424
1.13087e-10
0.00403424
6.7528e-11
0.00403424
4.71965e-11
0.00403424
2.88294e-11
0.00403424
1.17877e-11
0.00403424
-4.6676e-12
0.00403424
-2.14059e-11
0.00403424
-3.91075e-11
0.00403424
-5.81049e-11
0.00403424
-7.83497e-11
0.00403424
-9.2085e-11
0.00403424
-1.20817e-10
0.00403424
-1.16242e-10
0.00403424
-1.29754e-10
0.00403424
-1.45197e-10
0.00403424
-1.61969e-10
0.00403424
-1.88918e-10
0.00403424
-1.76157e-10
0.00403424
1.31769e-10
0.00403423
1.0359e-09
0.00403426
2.99132e-09
0.00403413
6.76639e-09
0.00403407
1.39802e-08
0.00403411
2.8164e-08
0.0040334
5.64783e-08
0.00403246
1.14533e-07
0.00403147
2.36948e-07
0.00402802
5.01001e-07
0.00401817
1.08361e-06
0.00400073
2.41391e-06
0.00396639
5.66504e-06
0.00389232
1.46521e-05
0.00372278
4.50137e-05
0.00351182
0.000181265
0.00162348
0.0010902
0.00157473
0.00445444
0.00128484
0.00176999
0.000757687
0.00166866
0.00095157
0.00212249
0.00065668
0.00142967
0.000401243
0.00132259
0.00038876
0.0014211
0.000291474
0.00131956
0.00033012
0.0013189
0.000209623
0.00136361
-0.000148152
0.00126127
0.00139567
0.00418414
5.22288e-10
0.00418414
3.21471e-10
0.00418414
1.86434e-10
0.00418414
1.02235e-10
0.00418414
5.96658e-11
0.00418414
4.39169e-11
0.00418414
3.02929e-11
0.00418414
1.68565e-11
0.00418414
2.92326e-12
0.00418414
-1.2125e-11
0.00418414
-2.86185e-11
0.00418414
-4.65414e-11
0.00418414
-6.55691e-11
0.00418414
-8.26046e-11
0.00418414
-1.04592e-10
0.00418414
-1.01303e-10
0.00418414
-1.1289e-10
0.00418414
-1.26131e-10
0.00418414
-1.40527e-10
0.00418414
-1.63926e-10
0.00418414
-1.45529e-10
0.00418413
1.56227e-10
0.00418412
1.03411e-09
0.00418415
2.90206e-09
0.00418404
6.49549e-09
0.00418398
1.33191e-08
0.00418406
2.67136e-08
0.00418338
5.35237e-08
0.00418249
1.08567e-07
0.00418183
2.24696e-07
0.00417861
4.7541e-07
0.00416951
1.02883e-06
0.00415407
2.28993e-06
0.00412215
5.33946e-06
0.00404993
1.35699e-05
0.00390835
4.02347e-05
0.00372204
0.000161781
0.00240103
0.000780364
0.00162827
0.00557445
0.00149052
0.00220074
0.000952296
0.00183077
0.00106483
0.00235593
0.000747657
0.00176102
0.000501394
0.00152744
0.000460322
0.00162263
0.000335073
0.00151762
0.000329152
0.00144204
0.000242908
0.0015209
-0.00010011
0.00139513
0.00156847
0.0043396
4.73461e-10
0.0043396
2.90962e-10
0.0043396
1.67452e-10
0.0043396
9.05883e-11
0.0043396
5.10552e-11
0.0043396
3.71219e-11
0.0043396
2.44791e-11
0.0043396
1.20811e-11
0.0043396
-7.24479e-13
0.0043396
-1.44168e-11
0.0043396
-2.92205e-11
0.0043396
-4.50767e-11
0.0043396
-6.1659e-11
0.0043396
-7.84247e-11
0.0043396
-9.47139e-11
0.0043396
-9.06827e-11
0.0043396
-9.96136e-11
0.0043396
-1.09785e-10
0.0043396
-1.20684e-10
0.0043396
-1.38734e-10
0.0043396
-1.11792e-10
0.0043396
1.91298e-10
0.00433958
1.03192e-09
0.00433961
2.7994e-09
0.00433952
6.19463e-09
0.00433946
1.26288e-08
0.00433957
2.51105e-08
0.00433896
5.00138e-08
0.00433814
1.00805e-07
0.00433781
2.06949e-07
0.00433498
4.34015e-07
0.00432719
9.31041e-07
0.0043146
2.05295e-06
0.00428633
4.72224e-06
0.00421929
1.17124e-05
0.00409134
3.34305e-05
0.00379721
0.00012798
0.00294143
0.000588902
0.00166014
0.00587621
0.00157553
0.00282476
0.00125357
0.00199991
0.00123284
0.00241579
0.000930975
0.00212911
0.000618291
0.00179098
0.00054469
0.00179873
0.00040759
0.0017176
0.000360839
0.00157236
0.000280037
0.0016834
-3.04022e-05
0.0015463
0.0017239
0.00450084
4.2258e-10
0.00450084
2.59089e-10
0.00450084
1.48691e-10
0.00450084
7.8348e-11
0.00450084
4.36746e-11
0.00450084
2.94887e-11
0.00450084
1.74794e-11
0.00450084
5.83295e-12
0.00450084
-5.85282e-12
0.00450084
-1.78754e-11
0.00450084
-3.03977e-11
0.00450084
-4.33885e-11
0.00450084
-5.65976e-11
0.00450084
-6.68963e-11
0.00450084
-8.1864e-11
0.00450084
-7.69507e-11
0.00450084
-8.28204e-11
0.00450084
-8.95996e-11
0.00450084
-9.69415e-11
0.00450084
-1.10348e-10
0.00450084
-8.29103e-11
0.00450084
1.90459e-10
0.00450082
9.62057e-10
0.00450084
2.58572e-09
0.00450078
5.72728e-09
0.00450071
1.17015e-08
0.00450084
2.32376e-08
0.00450029
4.61789e-08
0.00449955
9.29346e-08
0.00449943
1.90097e-07
0.00449699
3.95456e-07
0.00449092
8.37076e-07
0.00448193
1.81094e-06
0.00445988
4.05404e-06
0.00440713
9.65273e-06
0.0042992
2.58782e-05
0.00402725
8.77494e-05
0.00338421
0.000389971
0.00172659
0.00292945
0.00178272
0.00380847
0.00159311
0.00230324
0.00145887
0.00256763
0.00111814
0.00249476
0.000781307
0.00210929
0.000608928
0.00192575
0.000500399
0.00186743
0.000407241
0.0017548
0.000329729
0.00184877
2.8656e-05
0.00171902
0.00185713
0.00466806
3.69875e-10
0.00466806
2.27362e-10
0.00466806
1.27977e-10
0.00466806
6.81818e-11
0.00466806
3.46112e-11
0.00466806
2.54633e-11
0.00466806
1.61234e-11
0.00466806
7.02611e-12
0.00466807
-1.93834e-12
0.00466807
-1.08371e-11
0.00466807
-1.97026e-11
0.00466806
-2.84838e-11
0.00466806
-3.70284e-11
0.00466806
-4.51046e-11
0.00466806
-5.24483e-11
0.00466806
-4.49283e-11
0.00466806
-5.24601e-11
0.00466806
-5.45627e-11
0.00466806
-5.69133e-11
0.00466806
-6.36372e-11
0.00466806
-3.86393e-11
0.00466806
1.99745e-10
0.00466805
8.6214e-10
0.00466807
2.26079e-09
0.00466802
4.99568e-09
0.00466796
1.02272e-08
0.00466806
2.03188e-08
0.00466757
4.05856e-08
0.00466699
8.23533e-08
0.0046668
1.69895e-07
0.00466446
3.55919e-07
0.0046596
7.55924e-07
0.00465259
1.63014e-06
0.00463491
3.59942e-06
0.00459594
8.30845e-06
0.00452039
2.09981e-05
0.00435294
6.31228e-05
0.00415287
0.000248011
0.00285934
0.00140519
0.00208231
0.00494206
0.0019015
0.00294457
0.00168796
0.00283815
0.00140247
0.0027702
0.00102308
0.00249152
0.000771434
0.00218132
0.000619117
0.00207199
0.000465626
0.00196506
0.000380585
0.00203155
7.91239e-05
0.00191871
0.00203129
0.00484151
3.15012e-10
0.00484151
1.94243e-10
0.00484151
1.07139e-10
0.00484151
5.7993e-11
0.00484151
2.72643e-11
0.00484151
2.06398e-11
0.00484151
1.47968e-11
0.00484151
9.60834e-12
0.00484151
4.65763e-12
0.00484151
4.06502e-14
0.00484151
-4.1398e-12
0.00484151
-7.82552e-12
0.00484151
-1.09774e-11
0.00484151
-1.3547e-11
0.00484151
-1.54734e-11
0.00484151
-1.66643e-11
0.00484151
-1.6993e-11
0.00484151
-1.63372e-11
0.00484151
-1.30793e-11
0.00484151
-1.21806e-11
0.00484151
1.50674e-11
0.00484151
2.17351e-10
0.0048415
7.70945e-10
0.00484151
1.93744e-09
0.00484147
4.19524e-09
0.00484144
8.46694e-09
0.00484149
1.67534e-08
0.0048411
3.33828e-08
0.00484074
6.76946e-08
0.00484036
1.40054e-07
0.00483821
2.95434e-07
0.00483425
6.33717e-07
0.00482751
1.38105e-06
0.00481038
3.07258e-06
0.004775
7.0868e-06
0.00470628
1.75815e-05
0.00458268
5.02936e-05
0.00444155
0.000189255
0.00367475
0.000841535
0.00246918
0.00588034
0.00241799
0.00363378
0.0019671
0.00306152
0.00168815
0.0030831
0.00135288
0.00288513
0.00102159
0.00253124
0.000773768
0.00235209
0.000587537
0.00220017
0.00043251
0.00220894
0.000132854
0.00215195
0.00225275
0.00502139
2.58357e-10
0.00502139
1.58483e-10
0.00502139
8.77302e-11
0.00502139
4.64069e-11
0.00502139
2.22347e-11
0.00502139
1.70268e-11
0.00502139
1.52442e-11
0.00502139
1.43262e-11
0.00502139
1.3971e-11
0.00502139
1.40054e-11
0.00502139
1.43497e-11
0.00502139
1.49592e-11
0.00502139
1.57902e-11
0.00502139
1.68319e-11
0.00502139
1.8121e-11
0.00502139
1.97495e-11
0.00502139
2.66103e-11
0.00502139
3.25202e-11
0.00502139
3.70493e-11
0.00502139
3.77484e-11
0.00502139
5.92091e-11
0.00502139
2.28379e-10
0.00502138
6.93497e-10
0.00502139
1.67386e-09
0.00502137
3.61942e-09
0.00502135
7.32227e-09
0.00502133
1.44518e-08
0.00502113
2.85303e-08
0.00502097
5.69698e-08
0.00502056
1.1568e-07
0.00501902
2.39403e-07
0.00501627
5.04758e-07
0.00501081
1.08447e-06
0.00499602
2.384e-06
0.00496458
5.42983e-06
0.00489718
1.31752e-05
0.00476799
3.6185e-05
0.00451221
0.000128475
0.00397039
0.000605553
0.00279444
0.00550863
0.00284912
0.00438852
0.00238487
0.00343543
0.00205979
0.00335218
0.0017047
0.00325322
0.00132738
0.00296438
0.00105461
0.0027107
0.000800278
0.00251888
0.000528308
0.00249744
0.000203246
0.00244135
0.00254132
0.00520796
1.98756e-10
0.00520796
1.21482e-10
0.00520796
6.81877e-11
0.00520796
3.63498e-11
0.00520796
1.91499e-11
0.00520796
1.77746e-11
0.00520796
1.85625e-11
0.00520796
2.09398e-11
0.00520796
2.45002e-11
0.00520796
2.87419e-11
0.00520796
3.32444e-11
0.00520796
3.74918e-11
0.00520796
4.24396e-11
0.00520796
5.28155e-11
0.00520796
5.88955e-11
0.00520796
6.23453e-11
0.00520796
6.40928e-11
0.00520796
6.48054e-11
0.00520796
6.48351e-11
0.00520796
6.10724e-11
0.00520796
8.10769e-11
0.00520796
2.02996e-10
0.00520796
5.65104e-10
0.00520796
1.35911e-09
0.00520794
2.91777e-09
0.00520794
5.92263e-09
0.00520791
1.17935e-08
0.00520772
2.35246e-08
0.00520758
4.74935e-08
0.00520732
9.73523e-08
0.0052062
2.02341e-07
0.00520415
4.25315e-07
0.00520062
9.0346e-07
0.00519185
1.94518e-06
0.00517242
4.28516e-06
0.00513037
9.869e-06
0.00503949
2.49165e-05
0.00483764
7.57022e-05
0.00438905
0.000307022
0.00416842
0.00182769
0.00318432
0.00556881
0.00280973
0.0038569
0.00249511
0.00365875
0.00214061
0.00360673
0.00174848
0.00341429
0.00137751
0.00316425
0.00105666
0.00287872
0.00069819
0.00286323
0.000310206
0.00281772
0.00293646
0.00540147
1.36038e-10
0.00540147
8.36817e-11
0.00540147
4.80613e-11
0.00540147
2.75653e-11
0.00540147
1.80288e-11
0.00540147
1.86607e-11
0.00540147
2.08604e-11
0.00540147
2.47082e-11
0.00540147
2.98242e-11
0.00540147
3.55074e-11
0.00540147
4.10783e-11
0.00540147
5.47234e-11
0.00540147
6.29569e-11
0.00540147
6.64568e-11
0.00540147
6.7401e-11
0.00540147
6.64454e-11
0.00540147
6.40543e-11
0.00540147
6.11525e-11
0.00540147
5.68233e-11
0.00540147
4.47323e-11
0.00540147
5.95036e-11
0.00540147
1.68668e-10
0.00540146
4.54975e-10
0.00540147
1.05463e-09
0.00540145
2.23035e-09
0.00540143
4.4877e-09
0.00540144
8.8827e-09
0.00540132
1.77186e-08
0.00540111
3.59391e-08
0.00540087
7.42632e-08
0.00540009
1.56093e-07
0.00539823
3.32571e-07
0.00539478
7.16371e-07
0.0053876
1.56064e-06
0.00537224
3.45592e-06
0.00534016
7.88046e-06
0.00527552
1.91025e-05
0.00516006
5.2776e-05
0.00501616
0.000192728
0.00487139
0.000861713
0.00366403
0.00568186
0.00323256
0.00450685
0.00302402
0.00407062
0.00270423
0.00397926
0.00230755
0.00388001
0.00182714
0.00371266
0.00141725
0.00334996
0.000998432
0.00331119
0.000517995
0.00328376
0.00348465
0.00560216
7.10843e-11
0.00560216
4.74236e-11
0.00560216
3.29772e-11
0.00560216
2.65307e-11
0.00560216
2.54327e-11
0.00560216
2.77674e-11
0.00560216
3.13953e-11
0.00560216
3.5403e-11
0.00560216
4.63524e-11
0.00560216
5.48444e-11
0.00560216
6.0466e-11
0.00560216
6.39355e-11
0.00560216
6.58692e-11
0.00560216
6.71622e-11
0.00560216
6.69468e-11
0.00560216
6.57549e-11
0.00560216
6.36721e-11
0.00560216
6.1278e-11
0.00560216
5.597e-11
0.00560216
4.12615e-11
0.00560216
4.89281e-11
0.00560216
1.21408e-10
0.00560215
3.17702e-10
0.00560215
7.43272e-10
0.00560216
1.59234e-09
0.00560214
3.26379e-09
0.0056021
6.60282e-09
0.00560208
1.34025e-08
0.00560199
2.74948e-08
0.00560172
5.7071e-08
0.00560126
1.19696e-07
0.00560027
2.53297e-07
0.00559784
5.40597e-07
0.00559272
1.16503e-06
0.00558145
2.54258e-06
0.00555657
5.67434e-06
0.00550206
1.32607e-05
0.00539059
3.41814e-05
0.00520062
0.000107961
0.00476862
0.00047461
0.00474619
0.00272791
0.00406295
0.0056937
0.0036331
0.00467875
0.00331066
0.00431522
0.00292073
0.00424737
0.00246527
0.00417906
0.00196201
0.00394659
0.00149738
0.00383935
0.00089545
0.00389162
0.00437135
0.00581031
7.07741e-12
0.00581031
6.98803e-12
0.00581031
1.19438e-11
0.00581031
2.10418e-11
0.00581031
2.94782e-11
0.00581031
3.67706e-11
0.00581031
4.28763e-11
0.00581031
4.75612e-11
0.00581031
5.09905e-11
0.00581031
5.34693e-11
0.00581031
5.52798e-11
0.00581031
5.68505e-11
0.00581031
5.87198e-11
0.00581031
6.14828e-11
0.00581031
6.43889e-11
0.00581031
6.71172e-11
0.00581031
6.98922e-11
0.00581031
7.14489e-11
0.00581031
7.23112e-11
0.00581031
7.3696e-11
0.00581031
8.8903e-11
0.00581031
1.38225e-10
0.00581031
2.53492e-10
0.0058103
5.09113e-10
0.0058103
1.04168e-09
0.00581029
2.14177e-09
0.00581028
4.42733e-09
0.00581024
9.21768e-09
0.00581017
1.93416e-08
0.00581001
4.08781e-08
0.00580966
8.69195e-08
0.0058089
1.85698e-07
0.00580729
3.98299e-07
0.00580383
8.58009e-07
0.00579642
1.86078e-06
0.00578066
4.08818e-06
0.00574753
9.23698e-06
0.00568085
2.22291e-05
0.00556569
6.15415e-05
0.00549443
0.000225944
0.00627294
0.00108342
0.00465089
0.00604551
0.00448307
0.00506163
0.00405249
0.00480619
0.00368094
0.00457161
0.00326593
0.00459771
0.00277414
0.00454071
0.0022189
0.00452567
0.00163601
0.00451991
0.00598791
0.00840003
1.11541e-12
0.00840003
3.82999e-12
0.00840003
7.48737e-12
0.00840003
1.11204e-11
0.00840003
1.46441e-11
0.00840003
1.8056e-11
0.00840003
2.13691e-11
0.00840003
2.46125e-11
0.00840003
2.7832e-11
0.00840003
3.11873e-11
0.00840003
3.47628e-11
0.00840003
3.86771e-11
0.00840003
4.29123e-11
0.00840003
4.74508e-11
0.00840003
5.25902e-11
0.00840003
5.79437e-11
0.00840003
6.32741e-11
0.00840003
6.94969e-11
0.00840003
7.6469e-11
0.00840003
8.61588e-11
0.00840003
1.03242e-10
0.00840003
1.3656e-10
0.00840003
2.05469e-10
0.00840003
3.49433e-10
0.00840003
6.52071e-10
0.00840002
1.29108e-09
0.00840001
2.64542e-09
0.00839998
5.52504e-09
0.00839992
1.16634e-08
0.00839979
2.47758e-08
0.0083995
5.28349e-08
0.0083989
1.12974e-07
0.0083976
2.42068e-07
0.00839484
5.19826e-07
0.00838895
1.12019e-06
0.00837644
2.43055e-06
0.00835
5.35272e-06
0.00829514
1.21912e-05
0.00818828
2.99892e-05
0.00805437
8.70048e-05
0.00791929
0.000341135
0.00949465
0.00171401
0.00791857
0.00635837
0.00750195
0.00525373
0.00706581
0.00506989
0.00671293
0.00492721
0.00650829
0.00482454
0.00645771
0.00473478
0.00654731
0.00455144
0.00396922
0.00860126
0.00840003
1.08224e-13
0.00840003
3.8676e-13
0.00840003
8.81552e-13
0.00840003
1.69463e-12
0.00840003
2.93881e-12
0.00840003
4.65493e-12
0.00840003
6.8541e-12
0.00840003
9.53173e-12
0.00840003
1.26441e-11
0.00840003
1.61034e-11
0.00840003
1.98717e-11
0.00840003
2.39153e-11
0.00840003
2.81835e-11
0.00840003
3.2643e-11
0.00840003
3.72355e-11
0.00840003
4.21998e-11
0.00840003
4.73271e-11
0.00840003
5.25262e-11
0.00840003
5.88025e-11
0.00840003
6.70929e-11
0.00840003
7.94696e-11
0.00840003
1.00572e-10
0.00840003
1.40558e-10
0.00840003
2.21027e-10
0.00840003
3.87844e-10
0.00840003
7.38857e-10
0.00840002
1.48296e-09
0.00840001
3.06646e-09
0.00839998
6.44346e-09
0.00839992
1.36551e-08
0.00839978
2.90718e-08
0.0083995
6.20594e-08
0.00839888
1.32716e-07
0.00839757
2.84269e-07
0.00839479
6.10107e-07
0.00838887
1.31396e-06
0.00837623
2.84999e-06
0.00834919
6.28046e-06
0.00829242
1.43601e-05
0.00818374
3.57696e-05
0.00809318
0.000106885
0.00838101
0.000441884
0.00976757
0.00207697
0.00888663
0.00580395
0.0090115
0.00479407
0.00888409
0.00512002
0.00875773
0.00496172
0.00889988
0.00462039
0.00918919
0.00435729
0.00361584
0.009628
0.00840003
1.45967e-14
0.00840003
8.614e-14
0.00840003
2.67267e-13
0.00840003
6.13123e-13
0.00840003
1.16385e-12
0.00840003
1.94585e-12
0.00840003
2.97682e-12
0.00840003
4.27707e-12
0.00840003
5.8439e-12
0.00840003
7.67812e-12
0.00840003
9.78091e-12
0.00840003
1.21814e-11
0.00840003
1.48716e-11
0.00840003
1.78609e-11
0.00840003
2.11804e-11
0.00840003
2.47694e-11
0.00840003
2.88256e-11
0.00840003
3.30953e-11
0.00840003
3.76636e-11
0.00840003
4.3248e-11
0.00840003
5.09372e-11
0.00840003
6.29633e-11
0.00840003
8.42884e-11
0.00840003
1.25449e-10
0.00840003
2.08955e-10
0.00840003
3.82896e-10
0.00840003
7.50055e-10
0.00840002
1.53025e-09
0.00840001
3.19391e-09
0.00839998
6.74841e-09
0.00839993
1.43526e-08
0.0083998
3.06366e-08
0.00839953
6.55406e-08
0.00839895
1.4043e-07
0.00839771
3.01318e-07
0.00839504
6.47701e-07
0.00838934
1.39663e-06
0.00837717
3.03128e-06
0.00835128
6.67877e-06
0.00829842
1.52538e-05
0.0082082
3.79389e-05
0.00822431
0.000113294
0.00920306
0.000457652
0.0107142
0.00189132
0.0101805
0.00503653
0.0107761
0.0043665
0.0107713
0.00487641
0.0104656
0.00488388
0.0105435
0.00433078
0.00367961
0.0105769
0.00840003
1.8213e-15
0.00840003
1.12224e-14
0.00840003
3.52184e-14
0.00840003
8.61425e-14
0.00840003
1.84128e-13
0.00840003
3.53485e-13
0.00840003
6.21299e-13
0.00840003
1.01804e-12
0.00840003
1.57632e-12
0.00840003
2.32468e-12
0.00840003
3.29279e-12
0.00840003
4.4987e-12
0.00840003
5.98605e-12
0.00840003
7.75203e-12
0.00840003
9.80746e-12
0.00840003
1.21626e-11
0.00840003
1.4839e-11
0.00840003
1.78802e-11
0.00840003
2.11109e-11
0.00840003
2.4673e-11
0.00840003
2.89488e-11
0.00840003
3.50186e-11
0.00840003
4.48527e-11
0.00840003
6.28229e-11
0.00840003
9.81715e-11
0.00840003
1.70651e-10
0.00840003
3.22538e-10
0.00840003
6.44366e-10
0.00840002
1.33011e-09
0.00840002
2.79557e-09
0.0084
5.93255e-09
0.00839996
1.26554e-08
0.00839987
2.70772e-08
0.00839967
5.80458e-08
0.00839923
1.24626e-07
0.00839825
2.67994e-07
0.00839608
5.77465e-07
0.00839134
1.24837e-06
0.00838116
2.71562e-06
0.00836001
5.98788e-06
0.00831957
1.36291e-05
0.0082641
3.34722e-05
0.00839232
9.65691e-05
0.0096135
0.000350434
0.0120738
0.00128773
0.0116819
0.0036306
0.0119551
0.00431401
0.0126012
0.00399737
0.0118236
0.00494316
0.00416473
0.0114126
0.00840003
4.27968e-16
0.00840003
2.98476e-15
0.00840003
9.71043e-15
0.00840003
2.44886e-14
0.00840003
5.45815e-14
0.00840003
1.10607e-13
0.00840003
2.06082e-13
0.00840003
3.56197e-13
0.00840003
5.76868e-13
0.00840003
8.85038e-13
0.00840003
1.30008e-12
0.00840003
1.84011e-12
0.00840003
2.52714e-12
0.00840003
3.38044e-12
0.00840003
4.40556e-12
0.00840003
5.63643e-12
0.00840003
7.07281e-12
0.00840003
8.7486e-12
0.00840003
1.06406e-11
0.00840003
1.27125e-11
0.00840003
1.5066e-11
0.00840003
1.78825e-11
0.00840003
2.19808e-11
0.00840003
2.86919e-11
0.00840003
4.10463e-11
0.00840003
6.55379e-11
0.00840003
1.16079e-10
0.00840003
2.22522e-10
0.00840003
4.48956e-10
0.00840003
9.33031e-10
0.00840002
1.97053e-09
0.00840001
4.1975e-09
0.00839999
8.98278e-09
0.00839994
1.92754e-08
0.00839982
4.14364e-08
0.00839957
8.92097e-08
0.00839902
1.92361e-07
0.00839778
4.15603e-07
0.00839505
9.00619e-07
0.00838912
1.96204e-06
0.00837686
4.32063e-06
0.00835419
9.74708e-06
0.00832902
2.32959e-05
0.00841579
6.27324e-05
0.0091749
0.000198149
0.0117924
0.000568679
0.0126098
0.00154597
0.0127687
0.00304987
0.013271
0.00382201
0.00413636
0.0130289
0.00840003
2.31247e-16
0.00840003
7.81445e-16
0.00840003
1.86762e-15
0.00840003
4.29591e-15
0.00840003
9.25475e-15
0.00840003
1.90681e-14
0.00840003
3.70205e-14
0.00840003
6.79966e-14
0.00840003
1.22405e-13
0.00840003
2.0861e-13
0.00840003
3.35734e-13
0.00840003
5.15433e-13
0.00840003
7.61388e-13
0.00840003
1.08772e-12
0.00840003
1.50841e-12
0.00840003
2.03782e-12
0.00840003
2.69376e-12
0.00840003
3.47559e-12
0.00840003
4.41583e-12
0.00840003
5.46965e-12
0.00840003
6.6857e-12
0.00840003
8.04595e-12
0.00840003
9.5626e-12
0.00840003
1.17212e-11
0.00840003
1.52747e-11
0.00840003
2.18036e-11
0.00840003