/*--------------------------------*- C++ -*----------------------------------*\
| =========                 |                                                 |
| \\      /  F ield         | OpenFOAM: The Open Source CFD Toolbox           |
|  \\    /   O peration     | Version:  2112                                  |
|   \\  /    A nd           | Website:  www.openfoam.com                      |
|    \\/     M anipulation  |                                                 |
\*---------------------------------------------------------------------------*/
FoamFile
{
    version     2.0;
    format      ascii;
    arch        "LSB;label=32;scalar=64";
    class       volVectorField;
    location    "0.15";
    object      U;
}
// * * * * * * * * * * * * * * * * * * * * * * * * * * * * * * * * * * * * * //

dimensions      [0 1 -1 0 0 0 0];

internalField   nonuniform List<vector> 
7000
(
(3 -1.55497e-07 0.000130532)
(3 -3.30684e-07 0.000124287)
(3 -4.413e-07 0.000118046)
(3 -4.70875e-07 0.000111811)
(3 -4.27276e-07 0.000105581)
(3 -3.63966e-07 9.93564e-05)
(3 -3.15047e-07 9.31378e-05)
(3 -2.66694e-07 8.69254e-05)
(3 -2.21322e-07 8.07194e-05)
(3 -1.80458e-07 7.45199e-05)
(3 -1.44692e-07 6.83272e-05)
(3 -1.13951e-07 6.21415e-05)
(3 -8.78049e-08 5.59631e-05)
(3 -6.57132e-08 4.97921e-05)
(3 -4.71717e-08 4.36288e-05)
(3 -3.17551e-08 3.74735e-05)
(3 -1.90758e-08 3.13264e-05)
(3 -8.72483e-09 2.51877e-05)
(3 -1.13785e-10 1.90577e-05)
(3 -2.64181e-09 1.29386e-05)
(3 -4.52354e-08 6.83755e-06)
(2.99999 -7.4638e-08 7.56486e-07)
(2.99999 -3.71605e-08 -5.30089e-06)
(2.99997 1.05565e-07 -1.13174e-05)
(2.99995 3.43907e-07 -1.72608e-05)
(2.9999 5.70712e-07 -2.3049e-05)
(2.99979 5.59256e-07 -2.85082e-05)
(2.99957 -2.69652e-07 -3.32697e-05)
(2.99907 -3.25296e-06 -3.64537e-05)
(2.99797 -1.12926e-05 -3.62159e-05)
(2.99546 -3.09248e-05 -2.8201e-05)
(2.9896 -7.81433e-05 -1.70824e-06)
(2.97497 -0.0001999 7.3388e-05)
(2.9341 -0.000561654 0.000292798)
(2.79685 -0.00188118 0.00101376)
(2.30756 -0.00598473 0.00316985)
(0.675447 -0.0143681 0.00553929)
(-0.148288 0.0112051 0.000448154)
(0.145415 0.004051 -0.00184017)
(0.321756 0.0109657 0.00028816)
(-0.0654669 0.00875827 -0.000432804)
(0.143956 0.00637344 -0.000927931)
(0.157433 0.00812009 -0.000231589)
(0.02548 0.00811443 -0.000503659)
(0.0875953 0.0102938 -0.000646838)
(0.0714359 0.0114878 -0.000553313)
(0.000636047 0.012195 -0.000635742)
(0.109468 0.0123074 -0.000566437)
(-0.0284065 0.0141421 -0.000591598)
(-0.0654684 0.0116851 -0.0005787)
(3 -2.10947e-07 0.000126059)
(3 -4.12071e-07 0.000120018)
(3 -5.262e-07 0.000113983)
(3 -5.33861e-07 0.000107954)
(3 -4.67549e-07 0.000101931)
(3 -3.64558e-07 9.59143e-05)
(3 -3.08525e-07 8.99041e-05)
(3 -2.54411e-07 8.39009e-05)
(3 -2.04489e-07 7.79047e-05)
(3 -1.60107e-07 7.19158e-05)
(3 -1.21782e-07 6.59344e-05)
(3 -8.9443e-08 5.99607e-05)
(3 -6.26631e-08 5.39949e-05)
(3 -4.08657e-08 4.80372e-05)
(3 -2.34602e-08 4.20879e-05)
(3 -9.88706e-09 3.61472e-05)
(3 4.28461e-10 3.02153e-05)
(3 8.14538e-09 2.42925e-05)
(3 1.41336e-08 1.83789e-05)
(3 9.43884e-09 1.24768e-05)
(3 -2.67043e-08 6.59252e-06)
(2.99999 5.25174e-08 7.27816e-07)
(2.99999 3.98987e-07 -5.11375e-06)
(2.99998 1.18855e-06 -1.09159e-05)
(2.99995 2.60551e-06 -1.66481e-05)
(2.9999 4.90112e-06 -2.22341e-05)
(2.9998 8.63628e-06 -2.75123e-05)
(2.99958 1.48895e-05 -3.21407e-05)
(2.9991 2.59011e-05 -3.52995e-05)
(2.99804 4.667e-05 -3.52677e-05)
(2.99562 8.86094e-05 -2.80067e-05)
(2.98996 0.000178587 -3.61674e-06)
(2.9759 0.000381688 6.55631e-05)
(2.93688 0.000869527 0.00026682)
(2.80653 0.00216605 0.000930223)
(2.34453 0.00755153 0.00288981)
(0.718337 0.0310007 0.00554153)
(-0.137294 0.1043 0.000505904)
(0.112488 0.0412045 -0.00173857)
(0.327083 0.046572 0.000259808)
(-0.0686047 0.0530766 -0.000411917)
(0.134491 0.0328597 -0.000891223)
(0.155238 0.0372766 -0.000223178)
(0.0221177 0.0412786 -0.000485053)
(0.0830614 0.0415863 -0.000622554)
(0.0690789 0.042581 -0.00053173)
(-0.00235768 0.0424062 -0.000611129)
(0.107871 0.0395353 -0.000544455)
(-0.0312453 0.0405141 -0.000568515)
(-0.0635958 0.0338045 -0.000556032)
(3 -1.21292e-07 0.000121405)
(3 -2.16125e-07 0.000115577)
(3 -2.98933e-07 0.000109757)
(3 -3.4669e-07 0.000103943)
(3 -3.81022e-07 9.81354e-05)
(3 -3.55104e-07 9.23353e-05)
(3 -3.14926e-07 8.65423e-05)
(3 -2.76928e-07 8.0757e-05)
(3 -2.41169e-07 7.49794e-05)
(3 -2.07551e-07 6.92098e-05)
(3 -1.76306e-07 6.34483e-05)
(3 -1.4781e-07 5.76952e-05)
(3 -1.22411e-07 5.19506e-05)
(3 -1.00329e-07 4.62148e-05)
(3 -8.16111e-08 4.04879e-05)
(3 -6.60959e-08 3.47702e-05)
(3 -5.33798e-08 2.9062e-05)
(3 -4.28769e-08 2.33634e-05)
(3 -3.37884e-08 1.76746e-05)
(3 -3.52033e-08 1.19977e-05)
(3 -6.95353e-08 6.33845e-06)
(2.99999 1.18481e-08 6.98366e-07)
(2.99999 3.67145e-07 -4.91909e-06)
(2.99998 1.19544e-06 -1.04986e-05)
(2.99995 2.71244e-06 -1.60112e-05)
(2.99991 5.2473e-06 -2.13858e-05)
(2.99981 9.48094e-06 -2.64711e-05)
(2.9996 1.68517e-05 -3.09511e-05)
(2.99913 3.0394e-05 -3.40617e-05)
(2.9981 5.68263e-05 -3.41936e-05)
(2.99575 0.000111399 -2.75955e-05)
(2.99027 0.000230197 -5.08876e-06)
(2.9767 0.000502763 5.88084e-05)
(2.93923 0.0011769 0.000244101)
(2.81497 0.00303368 0.000855233)
(2.37661 0.010755 0.00263894)
(0.776795 0.0404431 0.00548594)
(-0.12071 0.154947 0.000567539)
(0.0732184 0.0585971 -0.00163244)
(0.347005 0.0587467 0.000205154)
(-0.0663242 0.080815 -0.00037958)
(0.120542 0.0458095 -0.000849484)
(0.157634 0.0521903 -0.000219264)
(0.020287 0.062965 -0.000466371)
(0.0793464 0.061682 -0.000598268)
(0.0686532 0.0658786 -0.000509563)
(-0.00280125 0.0683024 -0.00058636)
(0.108126 0.0639689 -0.000522608)
(-0.031206 0.0665887 -0.000545011)
(-0.0622198 0.0564834 -0.000533079)
(3 -1.20556e-07 0.000116561)
(3 -2.26638e-07 0.000110956)
(3 -3.22041e-07 0.000105359)
(3 -3.90063e-07 9.97697e-05)
(3 -4.28113e-07 9.41876e-05)
(3 -4.18817e-07 8.86133e-05)
(3 -3.65835e-07 8.30468e-05)
(3 -3.14879e-07 7.74887e-05)
(3 -2.66618e-07 7.19389e-05)
(3 -2.21684e-07 6.63977e-05)
(3 -1.80613e-07 6.08652e-05)
(3 -1.43782e-07 5.53416e-05)
(3 -1.11386e-07 4.98272e-05)
(3 -8.34549e-08 4.43221e-05)
(3 -5.98957e-08 3.88266e-05)
(3 -4.04687e-08 3.33407e-05)
(3 -2.47484e-08 2.78648e-05)
(3 -1.20435e-08 2.23991e-05)
(3 -1.39944e-09 1.69437e-05)
(3 -1.53651e-09 1.15006e-05)
(3 -2.57694e-08 6.07483e-06)
(3 8.0403e-08 6.67771e-07)
(2.99999 4.89526e-07 -4.71733e-06)
(2.99998 1.4497e-06 -1.00664e-05)
(2.99996 3.27271e-06 -1.53526e-05)
(2.99991 6.51487e-06 -2.05104e-05)
(2.99982 1.22019e-05 -2.54005e-05)
(2.99961 2.2811e-05 -2.97359e-05)
(2.99917 4.36222e-05 -3.28189e-05)
(2.99818 8.63564e-05 -3.31725e-05)
(2.99594 0.000177523 -2.73762e-05)
(2.99072 0.000379551 -7.09572e-06)
(2.97784 0.000849958 5.05723e-05)
(2.9426 0.00203958 0.000216943)
(2.82698 0.00542739 0.000764574)
(2.42164 0.0186398 0.00234236)
(0.873054 0.0646372 0.00543216)
(-0.080899 0.223029 0.000661041)
(0.0309018 0.10313 -0.00149223)
(0.372337 0.0851823 0.000126892)
(-0.0561123 0.123379 -0.000327783)
(0.105767 0.0758452 -0.00079509)
(0.165278 0.0771814 -0.000223101)
(0.0213654 0.0953211 -0.000443992)
(0.0744079 0.0900238 -0.000571821)
(0.0688656 0.0953972 -0.000487473)
(-0.00373563 0.099594 -0.000560727)
(0.107492 0.0921518 -0.000500371)
(-0.031359 0.0948333 -0.00052048)
(-0.0614268 0.0818569 -0.000508863)
(3 -1.10352e-07 0.000111518)
(3 -1.8577e-07 0.000106147)
(3 -2.39511e-07 0.000100784)
(3 -2.59569e-07 9.54283e-05)
(3 -2.78462e-07 9.00813e-05)
(3 -2.59875e-07 8.47425e-05)
(3 -2.3943e-07 7.94122e-05)
(3 -2.18906e-07 7.40909e-05)
(3 -1.99198e-07 6.87784e-05)
(3 -1.80932e-07 6.34751e-05)
(3 -1.64425e-07 5.81811e-05)
(3 -1.49755e-07 5.28965e-05)
(3 -1.36869e-07 4.76216e-05)
(3 -1.25699e-07 4.23565e-05)
(3 -1.1622e-07 3.71014e-05)
(3 -1.08399e-07 3.18566e-05)
(3 -1.02153e-07 2.66222e-05)
(3 -9.71984e-08 2.13983e-05)
(3 -9.3097e-08 1.61853e-05)
(3 -9.89265e-08 1.09848e-05)
(3 -1.17104e-07 5.80136e-06)
(3 8.1342e-09 6.36137e-07)
(2.99999 4.53604e-07 -4.50793e-06)
(2.99998 1.49809e-06 -9.61819e-06)
(2.99996 3.5237e-06 -1.46704e-05)
(2.99992 7.22594e-06 -1.96039e-05)
(2.99983 1.38724e-05 -2.42921e-05)
(2.99964 2.65899e-05 -2.84794e-05)
(2.99921 5.22049e-05 -3.15385e-05)
(2.99828 0.000106022 -3.21333e-05)
(2.99616 0.000222658 -2.71939e-05)
(2.99124 0.000483358 -9.27473e-06)
(2.97917 0.00109328 4.18364e-05)
(2.94647 0.00264124 0.000188441)
(2.84078 0.00706833 0.000668364)
(2.47179 0.0239255 0.00204516)
(1.00102 0.0795705 0.00530888)
(-0.0328075 0.283147 0.000781863)
(-0.0254019 0.147746 -0.00130307)
(0.403717 0.106007 1.54101e-05)
(-0.0364871 0.15709 -0.000270364)
(0.0866764 0.104394 -0.00073117)
(0.17542 0.0951634 -0.000240201)
(0.0257567 0.122962 -0.00041656)
(0.0684367 0.116609 -0.000541539)
(0.0710573 0.122263 -0.000465721)
(-0.00359187 0.129944 -0.000534115)
(0.106838 0.119405 -0.000478549)
(-0.0304185 0.121956 -0.000495354)
(-0.0606788 0.107257 -0.00048367)
(3 -1.06237e-07 0.000106269)
(3 -1.7965e-07 0.000101141)
(3 -2.35898e-07 9.60219e-05)
(3 -2.60734e-07 9.09113e-05)
(3 -2.90788e-07 8.58094e-05)
(3 -2.76682e-07 8.07164e-05)
(3 -2.58945e-07 7.56325e-05)
(3 -2.40993e-07 7.0558e-05)
(3 -2.23191e-07 6.54929e-05)
(3 -2.05877e-07 6.04374e-05)
(3 -1.89338e-07 5.53917e-05)
(3 -1.73778e-07 5.03559e-05)
(3 -1.59352e-07 4.53303e-05)
(3 -1.46201e-07 4.03149e-05)
(3 -1.34425e-07 3.53099e-05)
(3 -1.24043e-07 3.03156e-05)
(3 -1.14921e-07 2.53321e-05)
(3 -1.06779e-07 2.03596e-05)
(3 -9.92809e-08 1.53982e-05)
(3 -1.0122e-07 1.04496e-05)
(3 -1.05908e-07 5.5177e-06)
(3 4.27262e-08 6.03414e-07)
(2.99999 5.25632e-07 -4.29062e-06)
(2.99998 1.65157e-06 -9.15324e-06)
(2.99996 3.86269e-06 -1.39623e-05)
(2.99992 7.96331e-06 -1.86648e-05)
(2.99984 1.55468e-05 -2.31464e-05)
(2.99966 3.02488e-05 -2.71801e-05)
(2.99927 6.01874e-05 -3.02148e-05)
(2.99839 0.000123786 -3.1068e-05)
(2.99641 0.000262978 -2.70359e-05)
(2.99184 0.000576173 -1.16037e-05)
(2.9807 0.00131102 3.26565e-05)
(2.95091 0.0031744 0.000158789)
(2.85647 0.00849997 0.000567328)
(2.5275 0.0283529 0.00174932)
(1.17071 0.0926086 0.00508083)
(0.0321642 0.343953 0.000931079)
(-0.0834542 0.203435 -0.00106662)
(0.434909 0.135807 -0.000125703)
(-0.00802393 0.191707 -0.000214049)
(0.0664707 0.145709 -0.000650106)
(0.18563 0.11965 -0.000265769)
(0.0340342 0.153409 -0.000385308)
(0.0606531 0.147407 -0.000508524)
(0.0743128 0.150126 -0.000445798)
(-0.00216831 0.162693 -0.000505942)
(0.105083 0.148788 -0.000456457)
(-0.0284773 0.150505 -0.000469477)
(-0.0592946 0.135359 -0.000457577)
(3 -9.92415e-08 0.000100803)
(3 -1.70269e-07 9.593e-05)
(3 -2.10806e-07 9.10658e-05)
(3 -2.25791e-07 8.62107e-05)
(3 -2.22658e-07 8.13649e-05)
(3 -2.07529e-07 7.65284e-05)
(3 -1.92687e-07 7.17015e-05)
(3 -1.78685e-07 6.68844e-05)
(3 -1.65702e-07 6.20771e-05)
(3 -1.54009e-07 5.72799e-05)
(3 -1.43871e-07 5.24929e-05)
(3 -1.35517e-07 4.77161e-05)
(3 -1.29128e-07 4.29499e-05)
(3 -1.24818e-07 3.81943e-05)
(3 -1.2257e-07 3.34495e-05)
(3 -1.22219e-07 2.87157e-05)
(3 -1.23453e-07 2.39929e-05)
(3 -1.25788e-07 1.92815e-05)
(3 -1.28747e-07 1.45815e-05)
(3 -1.40501e-07 9.89439e-06)
(3 -1.45105e-07 5.22346e-06)
(3 1.30503e-08 5.69615e-07)
(2.99999 5.15713e-07 -4.06494e-06)
(2.99998 1.68974e-06 -8.67041e-06)
(2.99996 4.01647e-06 -1.32271e-05)
(2.99993 8.38803e-06 -1.76897e-05)
(2.99985 1.66703e-05 -2.19572e-05)
(2.99969 3.28935e-05 -2.58319e-05)
(2.99932 6.60586e-05 -2.88372e-05)
(2.99852 0.000136596 -2.99446e-05)
(2.9967 0.000291143 -2.68274e-05)
(2.99251 0.000639306 -1.39264e-05)
(2.98239 0.00145596 2.33989e-05)
(2.95572 0.0035166 0.000128989)
(2.87335 0.00937198 0.000465012)
(2.58697 0.0307086 0.00146103)
(1.38739 0.100827 0.00467937)
(0.113918 0.39792 0.00112322)
(-0.13549 0.267575 -0.000778137)
(0.45629 0.169769 -0.000285758)
(0.0316091 0.219585 -0.000167343)
(0.0519837 0.194074 -0.000556986)
(0.193069 0.14679 -0.000297683)
(0.0476861 0.182003 -0.000355926)
(0.0518354 0.179586 -0.000471009)
(0.078481 0.178139 -0.000425143)
(0.00171394 0.195599 -0.000475852)
(0.101896 0.179504 -0.000434047)
(-0.0254966 0.179051 -0.000443059)
(-0.0568792 0.164486 -0.000430486)
(3 -9.4268e-08 9.51115e-05)
(3 -1.62006e-07 9.05044e-05)
(3 -2.01306e-07 8.59068e-05)
(3 -2.16629e-07 8.13186e-05)
(3 -2.16689e-07 7.67402e-05)
(3 -2.04974e-07 7.21714e-05)
(3 -1.93524e-07 6.76127e-05)
(3 -1.82827e-07 6.3064e-05)
(3 -1.72997e-07 5.85256e-05)
(3 -1.6423e-07 5.39975e-05)
(3 -1.5671e-07 4.948e-05)
(3 -1.50591e-07 4.4973e-05)
(3 -1.45996e-07 4.04768e-05)
(3 -1.42999e-07 3.59916e-05)
(3 -1.41564e-07 3.15173e-05)
(3 -1.41545e-07 2.70543e-05)
(3 -1.42649e-07 2.26027e-05)
(3 -1.44504e-07 1.81625e-05)
(3 -1.46804e-07 1.37339e-05)
(3 -1.57151e-07 9.31826e-06)
(3 -1.51423e-07 4.91827e-06)
(3 2.37974e-08 5.34762e-07)
(2.99999 5.47304e-07 -3.83046e-06)
(2.99998 1.75236e-06 -8.16895e-06)
(2.99997 4.14898e-06 -1.24636e-05)
(2.99993 8.702e-06 -1.66764e-05)
(2.99986 1.75054e-05 -2.07198e-05)
(2.99971 3.49118e-05 -2.44238e-05)
(2.99938 7.06001e-05 -2.73866e-05)
(2.99865 0.000146378 -2.87322e-05)
(2.997 0.000311587 -2.64958e-05)
(2.99321 0.000681379 -1.60496e-05)
(2.98416 0.00154169 1.45441e-05)
(2.9607 0.00368303 0.000100241)
(2.89049 0.00966552 0.000365444)
(2.64816 0.0306578 0.00117658)
(1.65052 0.102041 0.00400519)
(0.213029 0.425408 0.00142413)
(-0.164912 0.350293 -0.000435821)
(0.460964 0.210894 -0.000475694)
(0.0832328 0.247548 -0.000130243)
(0.0478072 0.248322 -0.000459942)
(0.192973 0.180559 -0.000327999)
(0.0659715 0.209344 -0.000329493)
(0.0443922 0.21361 -0.000427344)
(0.0829414 0.208186 -0.000403687)
(0.0085935 0.227788 -0.00044543)
(0.0974584 0.212099 -0.000410441)
(-0.0216663 0.207571 -0.000416165)
(-0.0525625 0.195214 -0.000402649)
(3 -8.83896e-08 8.91834e-05)
(3 -1.52808e-07 8.48547e-05)
(3 -1.88338e-07 8.05357e-05)
(3 -2.0147e-07 7.62265e-05)
(3 -1.94625e-07 7.19273e-05)
(3 -1.78477e-07 6.76381e-05)
(3 -1.62484e-07 6.33592e-05)
(3 -1.47371e-07 5.90907e-05)
(3 -1.33627e-07 5.48326e-05)
(3 -1.21778e-07 5.05851e-05)
(3 -1.12243e-07 4.63483e-05)
(3 -1.05282e-07 4.21223e-05)
(3 -1.00973e-07 3.79073e-05)
(3 -9.92189e-08 3.37033e-05)
(3 -9.97738e-08 2.95106e-05)
(3 -1.02255e-07 2.53292e-05)
(3 -1.06107e-07 2.11593e-05)
(3 -1.10796e-07 1.70009e-05)
(3 -1.15868e-07 1.28543e-05)
(3 -1.27944e-07 8.7205e-06)
(3 -1.19093e-07 4.60177e-06)
(3 6.12676e-08 4.98853e-07)
(2.99999 5.89401e-07 -3.58681e-06)
(2.99999 1.78911e-06 -7.64811e-06)
(2.99997 4.18424e-06 -1.16704e-05)
(2.99994 8.79416e-06 -1.56229e-05)
(2.99988 1.7886e-05 -1.94314e-05)
(2.99974 3.60892e-05 -2.29514e-05)
(2.99945 7.36324e-05 -2.58505e-05)
(2.99879 0.000153429 -2.73961e-05)
(2.99731 0.000326916 -2.59631e-05)
(2.99394 0.000712551 -1.77778e-05)
(2.98595 0.00159833 6.68801e-06)
(2.9656 0.00375542 7.45139e-05)
(2.90668 0.00960145 0.000277011)
(2.70626 0.0288893 0.000908749)
(1.92358 0.0957 0.00309524)
(0.344636 0.40735 0.00187351)
(-0.154259 0.45321 -8.78812e-05)
(0.431345 0.260709 -0.00066454)
(0.144707 0.275612 -0.000108438)
(0.0565658 0.302971 -0.00036173)
(0.18523 0.221546 -0.000349549)
(0.0878898 0.235252 -0.000305008)
(0.0417625 0.248758 -0.000381985)
(0.0865374 0.24027 -0.00038164)
(0.0178434 0.257682 -0.00041466)
(0.0922121 0.245967 -0.000384763)
(-0.0169638 0.236013 -0.000388677)
(-0.0453791 0.226964 -0.000373996)
(3 -8.28468e-08 8.30081e-05)
(3 -1.43457e-07 7.89705e-05)
(3 -1.7683e-07 7.49429e-05)
(3 -1.89908e-07 7.09254e-05)
(3 -1.83652e-07 6.6918e-05)
(3 -1.70438e-07 6.29208e-05)
(3 -1.57366e-07 5.8934e-05)
(3 -1.45023e-07 5.49577e-05)
(3 -1.33781e-07 5.0992e-05)
(3 -1.24134e-07 4.7037e-05)
(3 -1.16533e-07 4.30928e-05)
(3 -1.11287e-07 3.91595e-05)
(3 -1.08505e-07 3.52373e-05)
(3 -1.08095e-07 3.13262e-05)
(3 -1.09797e-07 2.74263e-05)
(3 -1.13178e-07 2.35378e-05)
(3 -1.17714e-07 1.96607e-05)
(3 -1.22957e-07 1.57952e-05)
(3 -1.28489e-07 1.19415e-05)
(3 -1.40092e-07 8.10028e-06)
(3 -1.28266e-07 4.27355e-06)
(3 5.42215e-08 4.61823e-07)
(2.99999 5.81835e-07 -3.33364e-06)
(2.99999 1.7528e-06 -7.10693e-06)
(2.99997 4.07677e-06 -1.08462e-05)
(2.99995 8.5991e-06 -1.45273e-05)
(2.99989 1.7641e-05 -1.80892e-05)
(2.99977 3.59611e-05 -2.14117e-05)
(2.99951 7.40579e-05 -2.42272e-05)
(2.99893 0.000155395 -2.59338e-05)
(2.99764 0.000332618 -2.52134e-05)
(2.99469 0.000726345 -1.90429e-05)
(2.98775 0.0016249 7.57338e-08)
(2.97038 0.00377715 5.28301e-05)
(2.92152 0.00944399 0.000205271)
(2.75811 0.0269379 0.000683318)
(2.16354 0.0874972 0.00219092)
(0.528994 0.353006 0.00239737)
(-0.0887172 0.559734 0.000186884)
(0.353178 0.318655 -0.000763823)
(0.211792 0.308021 -0.000107941)
(0.0827109 0.354725 -0.000278032)
(0.170697 0.270868 -0.000355205)
(0.111697 0.261756 -0.000278289)
(0.0473169 0.285202 -0.000334795)
(0.0878822 0.274775 -0.000361196)
(0.0291193 0.285352 -0.000383159)
(0.0878981 0.280611 -0.000357398)
(-0.0118375 0.265041 -0.000360578)
(-0.0348573 0.259111 -0.000344821)
(3 -7.67285e-08 7.65742e-05)
(3 -1.33389e-07 7.28414e-05)
(3 -1.64735e-07 6.91186e-05)
(3 -1.76136e-07 6.54059e-05)
(3 -1.70769e-07 6.17034e-05)
(3 -1.54589e-07 5.80113e-05)
(3 -1.3933e-07 5.43295e-05)
(3 -1.25535e-07 5.06583e-05)
(3 -1.13479e-07 4.69976e-05)
(3 -1.03479e-07 4.33476e-05)
(3 -9.57595e-08 3.97084e-05)
(3 -9.03872e-08 3.60801e-05)
(3 -8.72666e-08 3.24627e-05)
(3 -8.61665e-08 2.88564e-05)
(3 -8.67388e-08 2.52612e-05)
(3 -8.8545e-08 2.16773e-05)
(3 -9.11299e-08 1.81048e-05)
(3 -9.41575e-08 1.45436e-05)
(3 -9.72391e-08 1.09941e-05)
(3 -1.05374e-07 7.45675e-06)
(3 -8.90559e-08 3.93316e-06)
(3 9.33055e-08 4.23708e-07)
(2.99999 6.11008e-07 -3.07053e-06)
(2.99999 1.73694e-06 -6.54464e-06)
(2.99998 3.95391e-06 -9.98935e-06)
(2.99996 8.27308e-06 -1.33867e-05)
(2.99991 1.69365e-05 -1.66881e-05)
(2.9998 3.45923e-05 -1.9797e-05)
(2.99958 7.1473e-05 -2.25051e-05)
(2.99908 0.000150446 -2.43341e-05)
(2.99797 0.000323015 -2.42481e-05)
(2.99544 0.000707451 -1.98969e-05)
(2.98955 0.00158481 -5.51661e-06)
(2.97505 0.00367265 3.44209e-05)
(2.93536 0.00907919 0.000148053)
(2.80538 0.0250724 0.000512447)
(2.35534 0.0813714 0.00153147)
(0.780354 0.293845 0.00278662)
(0.024859 0.663545 0.000361606)
(0.234151 0.384145 -0.000722821)
(0.282282 0.34794 -0.000128821)
(0.1245 0.399831 -0.000216045)
(0.154429 0.327587 -0.000333742)
(0.135411 0.297487 -0.000256254)
(0.0642961 0.320871 -0.000294558)
(0.086788 0.311485 -0.000337246)
(0.0410193 0.313115 -0.000352076)
(0.0857065 0.314812 -0.000329118)
(-0.00651622 0.295306 -0.000331501)
(-0.0214528 0.290815 -0.000315251)
(3 -7.05012e-08 6.98697e-05)
(3 -1.22768e-07 6.64558e-05)
(3 -1.51858e-07 6.3052e-05)
(3 -1.62364e-07 5.96582e-05)
(3 -1.57984e-07 5.62746e-05)
(3 -1.43401e-07 5.29011e-05)
(3 -1.29507e-07 4.95379e-05)
(3 -1.17049e-07 4.61851e-05)
(3 -1.06397e-07 4.28428e-05)
(3 -9.78499e-08 3.95109e-05)
(3 -9.15585e-08 3.61897e-05)
(3 -8.75042e-08 3.28791e-05)
(3 -8.5523e-08 2.95793e-05)
(3 -8.53407e-08 2.62904e-05)
(3 -8.6601e-08 2.30123e-05)
(3 -8.89013e-08 1.97452e-05)
(3 -9.18788e-08 1.64892e-05)
(3 -9.52748e-08 1.32444e-05)
(3 -9.87104e-08 1.00108e-05)
(3 -1.06441e-07 6.78901e-06)
(3 -8.76656e-08 3.58014e-06)
(3 9.16307e-08 3.84537e-07)
(3 5.90679e-07 -2.79696e-06)
(2.99999 1.66259e-06 -5.96046e-06)
(2.99998 3.76811e-06 -9.09874e-06)
(2.99996 7.85124e-06 -1.21985e-05)
(2.99992 1.59853e-05 -1.5223e-05)
(2.99983 3.25477e-05 -1.80976e-05)
(2.99964 6.70379e-05 -2.0666e-05)
(2.99922 0.000140546 -2.25627e-05)
(2.99828 0.000300516 -2.30061e-05)
(2.99616 0.000655812 -2.02472e-05)
(2.99128 0.00146378 -1.00485e-05)
(2.97947 0.00337337 1.86712e-05)
(2.94814 0.00824695 9.93956e-05)
(2.84996 0.0223291 0.000358216)
(2.51274 0.0727698 0.00108687)
(1.16019 0.245871 0.00292231)
(0.188155 0.754242 0.000513254)
(0.0947349 0.464166 -0.000591982)
(0.344189 0.391766 -0.000199966)
(0.182763 0.436204 -0.00016048)
(0.151235 0.387896 -0.00027989)
(0.155553 0.34614 -0.00023549)
(0.0877568 0.354942 -0.000264411)
(0.087637 0.350204 -0.000310134)
(0.0526856 0.342634 -0.000318938)
(0.0856721 0.346987 -0.000298372)
(-0.000838113 0.328086 -0.000302055)
(-0.00653026 0.321407 -0.000285421)
(3 -6.46239e-08 6.28818e-05)
(3 -1.1165e-07 5.9802e-05)
(3 -1.37903e-07 5.67321e-05)
(3 -1.47918e-07 5.36719e-05)
(3 -1.43658e-07 5.06216e-05)
(3 -1.30719e-07 4.75813e-05)
(3 -1.18324e-07 4.45509e-05)
(3 -1.07085e-07 4.15307e-05)
(3 -9.72394e-08 3.85206e-05)
(3 -8.89607e-08 3.55206e-05)
(3 -8.23544e-08 3.25309e-05)
(3 -7.74288e-08 2.95516e-05)
(3 -7.4068e-08 2.65826e-05)
(3 -7.20297e-08 2.3624e-05)
(3 -7.0997e-08 2.0676e-05)
(3 -7.06604e-08 1.77385e-05)
(3 -7.07595e-08 1.48117e-05)
(3 -7.11187e-08 1.18956e-05)
(3 -7.14265e-08 8.99027e-06)
(3 -7.5261e-08 6.09614e-06)
(3 -5.24071e-08 3.21404e-06)
(3 1.21412e-07 3.44219e-07)
(3 5.94249e-07 -2.51262e-06)
(2.99999 1.59908e-06 -5.3536e-06)
(2.99998 3.5757e-06 -8.17324e-06)
(2.99997 7.40921e-06 -1.09613e-05)
(2.99993 1.49793e-05 -1.3691e-05)
(2.99986 3.03337e-05 -1.63069e-05)
(2.9997 6.2174e-05 -1.86947e-05)
(2.99935 0.000129494 -2.05839e-05)
(2.99857 0.000274443 -2.14069e-05)
(2.99682 0.000592355 -1.99144e-05)
(2.99283 0.00130436 -1.31381e-05)
(2.98337 0.00295434 6.35456e-06)
(2.95913 0.00704291 5.99344e-05)
(2.88795 0.0184142 0.000223038)
(2.64769 0.0575706 0.000722193)
(1.69254 0.194459 0.00240154)
(0.402239 0.740505 0.000757852)
(-0.0145647 0.565537 -0.000255387)
(0.37293 0.447517 -0.000277482)
(0.253167 0.469409 -0.000141873)
(0.171679 0.445103 -0.000226836)
(0.173499 0.400616 -0.000217978)
(0.116068 0.391849 -0.000235433)
(0.0942798 0.389523 -0.000273351)
(0.0629596 0.37915 -0.000282478)
(0.0888755 0.378301 -0.000267449)
(0.00626432 0.364502 -0.000271658)
(0.00673881 0.351826 -0.000255449)
(3 -5.76306e-08 5.55971e-05)
(3 -9.95426e-08 5.28674e-05)
(3 -1.22999e-07 5.0147e-05)
(3 -1.32277e-07 4.74361e-05)
(3 -1.28599e-07 4.47345e-05)
(3 -1.17484e-07 4.20425e-05)
(3 -1.06929e-07 3.93599e-05)
(3 -9.74524e-08 3.6687e-05)
(3 -8.91759e-08 3.40237e-05)
(3 -8.22081e-08 3.13701e-05)
(3 -7.66176e-08 2.87262e-05)
(3 -7.23878e-08 2.6092e-05)
(3 -6.94037e-08 2.34677e-05)
(3 -6.74679e-08 2.08533e-05)
(3 -6.63545e-08 1.82488e-05)
(3 -6.58436e-08 1.56543e-05)
(3 -6.5723e-08 1.30698e-05)
(3 -6.5826e-08 1.04953e-05)
(3 -6.58815e-08 7.93105e-06)
(3 -6.87525e-08 5.37721e-06)
(3 -4.94614e-08 2.83437e-06)
(3 1.02594e-07 3.02728e-07)
(3 5.22271e-07 -2.21717e-06)
(2.99999 1.41614e-06 -4.72329e-06)
(2.99999 3.19053e-06 -7.21165e-06)
(2.99997 6.6494e-06 -9.6749e-06)
(2.99995 1.34545e-05 -1.20935e-05)
(2.99989 2.72918e-05 -1.44275e-05)
(2.99976 5.61468e-05 -1.65942e-05)
(2.99947 0.000117303 -1.83983e-05)
(2.99884 0.000248712 -1.94353e-05)
(2.99742 0.000534704 -1.88209e-05)
(2.99419 0.0011659 -1.44967e-05)
(2.98664 0.00259467 -1.52613e-06)
(2.96783 0.0059999 3.34462e-05)
(2.91544 0.0149165 0.000132489)
(2.74557 0.0425905 0.000428101)
(2.14324 0.138708 0.00130896)
(0.683592 0.550104 0.00121659)
(0.0154959 0.667047 0.000144473)
(0.345746 0.521203 -0.0003171)
(0.319323 0.513867 -0.000145761)
(0.213082 0.499709 -0.000186277)
(0.196766 0.461033 -0.000195557)
(0.150113 0.437968 -0.000208538)
(0.115271 0.430518 -0.000233458)
(0.0767346 0.424601 -0.000244436)
(0.0912419 0.414017 -0.000235567)
(0.0151955 0.404781 -0.000240226)
(0.0163201 0.385166 -0.000224697)
(3 -5.04474e-08 4.80015e-05)
(3 -8.59535e-08 4.56387e-05)
(3 -1.08159e-07 4.32845e-05)
(3 -1.14338e-07 4.09391e-05)
(3 -1.13466e-07 3.86025e-05)
(3 -1.01172e-07 3.62747e-05)
(3 -9.04597e-08 3.39558e-05)
(3 -8.06376e-08 3.16457e-05)
(3 -7.17182e-08 2.93446e-05)
(3 -6.3646e-08 2.70524e-05)
(3 -5.63729e-08 2.47692e-05)
(3 -4.98511e-08 2.2495e-05)
(3 -4.4026e-08 2.02299e-05)
(3 -3.88361e-08 1.79739e-05)
(3 -3.42088e-08 1.5727e-05)
(3 -3.00513e-08 1.34894e-05)
(3 -2.62484e-08 1.12608e-05)
(3 -2.27216e-08 9.04161e-06)
(3 -1.9323e-08 6.83165e-06)
(3 -1.83648e-08 4.63121e-06)
(3 -4.1214e-10 2.44063e-06)
(3 1.28682e-07 2.60067e-07)
(3 4.81826e-07 -1.91014e-06)
(3 1.23388e-06 -4.06856e-06)
(2.99999 2.7297e-06 -6.21255e-06)
(2.99998 5.63812e-06 -8.33719e-06)
(2.99996 1.13744e-05 -1.04291e-05)
(2.99991 2.31202e-05 -1.24615e-05)
(2.99981 4.77785e-05 -1.43768e-05)
(2.99958 0.00010043 -1.60418e-05)
(2.99908 0.000214513 -1.71795e-05)
(2.99796 0.000464517 -1.71789e-05)
(2.99543 0.00101835 -1.46387e-05)
(2.98955 0.00226906 -6.27497e-06)
(2.97517 0.00520486 1.65446e-05)
(2.93643 0.0126246 7.97431e-05)
(2.81356 0.0338655 0.000270826)
(2.39899 0.104578 0.000772728)
(1.00811 0.358508 0.00143027)
(0.162553 0.777834 0.000294002)
(0.28328 0.612036 -0.000267788)
(0.369039 0.565579 -0.000164664)
(0.265641 0.556516 -0.000148936)
(0.228593 0.528858 -0.000164417)
(0.185718 0.500179 -0.00017919)
(0.151017 0.482676 -0.000195997)
(0.10172 0.476494 -0.000207077)
(0.0947021 0.459122 -0.000202094)
(0.0254607 0.45207 -0.000206812)
(0.0230234 0.426524 -0.000193051)
(3 -4.23299e-08 4.00801e-05)
(3 -7.22992e-08 3.81019e-05)
(3 -9.10162e-08 3.61315e-05)
(3 -9.63808e-08 3.4169e-05)
(3 -9.52278e-08 3.22144e-05)
(3 -8.5989e-08 3.02677e-05)
(3 -7.63612e-08 2.83289e-05)
(3 -6.72385e-08 2.63981e-05)
(3 -5.88386e-08 2.44752e-05)
(3 -5.11001e-08 2.25603e-05)
(3 -4.39402e-08 2.06535e-05)
(3 -3.73181e-08 1.87547e-05)
(3 -3.12184e-08 1.6864e-05)
(3 -2.56214e-08 1.49814e-05)
(3 -2.05011e-08 1.31069e-05)
(3 -1.58131e-08 1.12405e-05)
(3 -1.14832e-08 9.38229e-06)
(3 -7.40234e-09 7.53229e-06)
(3 -3.37916e-09 5.6905e-06)
(3 -1.09147e-09 3.85709e-06)
(3 1.42524e-08 2.03225e-06)
(3 1.2463e-07 2.16112e-07)
(3 4.22124e-07 -1.5911e-06)
(3 1.05265e-06 -3.38849e-06)
(2.99999 2.3148e-06 -5.17434e-06)
(2.99998 4.76203e-06 -6.94533e-06)
(2.99997 9.58292e-06 -8.69305e-06)
(2.99993 1.93673e-05 -1.0401e-05)
(2.99985 3.96894e-05 -1.20323e-05)
(2.99968 8.27455e-05 -1.35051e-05)
(2.99929 0.000175602 -1.4646e-05)
(2.99843 0.000378714 -1.50696e-05)
(2.99651 0.000829 -1.39025e-05)
(2.99209 0.00184686 -9.12695e-06)
(2.98155 0.00422929 4.40583e-06)
(2.95426 0.0101758 4.18673e-05)
(2.87193 0.0267946 0.000157201)
(2.58889 0.0826576 0.000488814)
(1.49425 0.271504 0.00131302)
(0.406742 0.869939 0.000370533)
(0.206056 0.697139 -0.000160194)
(0.391044 0.626863 -0.000165848)
(0.330812 0.617158 -0.000122239)
(0.275356 0.601797 -0.000132819)
(0.226379 0.576872 -0.000145956)
(0.193152 0.555505 -0.000158376)
(0.138521 0.541642 -0.000170233)
(0.108135 0.519537 -0.000168347)
(0.0402486 0.512973 -0.000171841)
(0.0283616 0.480854 -0.000159944)
(3 -3.35783e-08 3.18171e-05)
(3 -5.80386e-08 3.02423e-05)
(3 -7.24047e-08 2.86743e-05)
(3 -7.73038e-08 2.71129e-05)
(3 -7.59332e-08 2.55583e-05)
(3 -6.74296e-08 2.40104e-05)
(3 -5.78128e-08 2.24692e-05)
(3 -4.81974e-08 2.09348e-05)
(3 -3.87415e-08 1.94072e-05)
(3 -2.96452e-08 1.78863e-05)
(3 -2.10477e-08 1.63723e-05)
(3 -1.30118e-08 1.4865e-05)
(3 -5.57385e-09 1.33646e-05)
(3 1.25673e-09 1.1871e-05)
(3 7.5176e-09 1.03842e-05)
(3 1.32885e-08 8.90433e-06)
(3 1.86795e-08 7.43131e-06)
(3 2.38617e-08 5.96519e-06)
(3 2.90211e-08 4.50599e-06)
(3 3.2746e-08 3.05379e-06)
(3 4.78266e-08 1.60869e-06)
(3 1.34286e-07 1.70761e-07)
(3 3.74176e-07 -1.25983e-06)
(3 8.94363e-07 -2.68256e-06)
(2.99999 1.94801e-06 -4.0964e-06)
(2.99999 4.01303e-06 -5.49922e-06)
(2.99998 8.09207e-06 -6.88598e-06)
(2.99995 1.63253e-05 -8.24668e-06)
(2.99989 3.33171e-05 -9.55898e-06)
(2.99975 6.90656e-05 -1.07739e-05)
(2.99946 0.000145396 -1.17892e-05)
(2.99881 0.000310263 -1.23821e-05)
(2.99736 0.000670516 -1.20587e-05)
(2.99407 0.0014709 -9.71486e-06)
(2.98641 0.00330211 -2.70397e-06)
(2.96749 0.00771301 1.61561e-05)
(2.91521 0.0194463 6.98907e-05)
(2.74625 0.05688 0.000235871)
(2.13332 0.191022 0.000750264)
(0.775192 0.744368 0.000538811)
(0.198668 0.760149 4.80654e-05)
(0.392865 0.705406 -0.000151028)
(0.387681 0.681612 -0.000102828)
(0.335699 0.674432 -0.00010089)
(0.280715 0.658835 -0.000109425)
(0.243492 0.642451 -0.000120277)
(0.18329 0.623412 -0.000132327)
(0.136793 0.600888 -0.00013272)
(0.0621492 0.594427 -0.000135669)
(0.0323768 0.553985 -0.00012618)
(3 -2.45881e-08 2.31956e-05)
(3 -4.24453e-08 2.20443e-05)
(3 -5.25317e-08 2.08981e-05)
(3 -5.55695e-08 1.97572e-05)
(3 -5.36001e-08 1.86216e-05)
(3 -4.59706e-08 1.74912e-05)
(3 -3.85173e-08 1.63661e-05)
(3 -3.06984e-08 1.52462e-05)
(3 -2.261e-08 1.41316e-05)
(3 -1.44765e-08 1.30223e-05)
(3 -6.53083e-09 1.19182e-05)
(3 7.89606e-10 1.08194e-05)
(3 7.06569e-09 9.72597e-06)
(3 1.18384e-08 8.63778e-06)
(3 1.58284e-08 7.55487e-06)
(3 1.91268e-08 6.47731e-06)
(3 2.18674e-08 5.40502e-06)
(3 2.4191e-08 4.33806e-06)
(3 2.60957e-08 3.27643e-06)
(3 2.5401e-08 2.22017e-06)
(3 3.86862e-08 1.16933e-06)
(3 1.08117e-07 1.23945e-07)
(3 2.96941e-07 -9.15926e-07)
(3 7.05687e-07 -1.94995e-06)
(3 1.5245e-06 -2.97763e-06)
(2.99999 3.13227e-06 -3.99787e-06)
(2.99998 6.33219e-06 -5.00798e-06)
(2.99996 1.28563e-05 -6.00253e-06)
(2.99992 2.64563e-05 -6.96976e-06)
(2.99982 5.53208e-05 -7.88322e-06)
(2.99961 0.000117385 -8.68703e-06)
(2.99914 0.000251994 -9.2612e-06)
(2.99808 0.000546127 -9.34225e-06)
(2.99569 0.00119554 -8.34754e-06)
(2.9902 0.00265643 -4.9339e-06)
(2.97696 0.00605735 4.3262e-06)
(2.94203 0.0145363 2.94234e-05)
(2.83505 0.0385325 0.000102851)
(2.47868 0.118971 0.000293394)
(1.26816 0.422714 0.000585726)
(0.372722 0.856538 0.000146378)
(0.37323 0.788849 -9.4383e-05)
(0.427767 0.753089 -8.08345e-05)
(0.402738 0.748034 -7.28936e-05)
(0.347838 0.741822 -7.70835e-05)
(0.304266 0.732775 -8.36124e-05)
(0.244569 0.721063 -9.35817e-05)
(0.190281 0.705674 -9.60637e-05)
(0.0997928 0.702927 -9.79649e-05)
(0.0389337 0.660264 -9.08115e-05)
(3 -1.49387e-08 1.41981e-05)
(3 -2.56196e-08 1.34912e-05)
(3 -3.155e-08 1.27878e-05)
(3 -3.27616e-08 1.20878e-05)
(3 -3.04608e-08 1.13912e-05)
(3 -2.55473e-08 1.06981e-05)
(3 -1.97166e-08 1.00084e-05)
(3 -1.34005e-08 9.3221e-06)
(3 -6.78818e-09 8.63927e-06)
(3 -2.82587e-10 7.95988e-06)
(3 5.70973e-09 7.28394e-06)
(3 1.09439e-08 6.61141e-06)
(3 1.52338e-08 5.94234e-06)
(3 1.85762e-08 5.27669e-06)
(3 2.09998e-08 4.61447e-06)
(3 2.26488e-08 3.95573e-06)
(3 2.35099e-08 3.30039e-06)
(3 2.41433e-08 2.64851e-06)
(3 2.33597e-08 2.00006e-06)
(3 1.67354e-08 1.35508e-06)
(3 2.42467e-08 7.13563e-07)
(3 7.89985e-08 7.55383e-08)
(3 2.236e-07 -5.58964e-07)
(3 5.30561e-07 -1.18981e-06)
(3 1.14362e-06 -1.81679e-06)
(2.99999 2.35321e-06 -2.43938e-06)
(2.99999 4.77533e-06 -3.05656e-06)