/*--------------------------------*- C++ -*----------------------------------*\
| =========                 |                                                 |
| \\      /  F ield         | OpenFOAM: The Open Source CFD Toolbox           |
|  \\    /   O peration     | Version:  2112                                  |
|   \\  /    A nd           | Website:  www.openfoam.com                      |
|    \\/     M anipulation  |                                                 |
\*---------------------------------------------------------------------------*/
FoamFile
{
    version     2.0;
    format      ascii;
    arch        "LSB;label=32;scalar=64";
    class       volScalarField;
    location    "29";
    object      p;
}
// * * * * * * * * * * * * * * * * * * * * * * * * * * * * * * * * * * * * * //

dimensions      [0 2 -2 0 0 0 0];

internalField   nonuniform List<scalar> 
400
(
1.4692911e-07
-0.00067271027
-0.001385186
-0.0019425429
-0.0022198351
-0.0021563314
-0.0017276269
-0.00092603673
0.00023558304
0.001707566
0.003387443
0.0051123478
0.0066736271
0.0078492536
0.0084585473
0.0084238516
0.0078135732
0.0068446979
0.0058614792
0.0052991228
0.00065800395
-4.0360989e-05
-0.00056949467
-0.00094046006
-0.0011106969
-0.0010397538
-0.00070562278
-9.5378154e-05
0.00078926486
0.0019163509
0.0032097483
0.0045548634
0.0057821194
0.0067164149
0.0072145879
0.0072146978
0.006770125
0.0060529383
0.0053106986
0.0047386596
0.0014238626
0.00044081401
-0.00011643556
-0.00045307858
-0.0006146434
-0.00058464509
-0.00034641291
0.00011991099
0.00082862763
0.0017700756
0.0028944621
0.004098336
0.0052284075
0.0061111349
0.0065940267
0.0065978204
0.0061558919
0.005421666
0.0045939075
0.0037484008
0.0020143574
0.00068184812
1.693259e-05
-0.0003586894
-0.00057138554
-0.00062639597
-0.00050991803
-0.00019046431
0.00036866984
0.0011845547
0.0022300844
0.0034176009
0.0045915366
0.0055571041
0.0061237108
0.0061667143
0.0056837733
0.0048172061
0.0037474545
0.0024737648
0.0021674282
0.00049627745
-0.00029609829
-0.0007485431
-0.0010580905
-0.0012451088
-0.0012925886
-0.0011511425
-0.00075489076
-5.2941196e-05
0.00095718527
0.0022104478
0.0035448782
0.004732833
0.0055220099
0.0057100455
0.0052294449
0.0042017643
0.0028063486
0.00098412855
0.0016541195
-0.00031432051
-0.0012386284
-0.0017991403
-0.0022524995
-0.0026277473
-0.0028984628
-0.0029909287
-0.0028023862
-0.0022375272
-0.0012509446
0.00013104838
0.0017448124
0.003327284
0.0045418175
0.0050659453
0.0047176552
0.0035663579
0.001789757
-0.00072575525
0.00028718235
-0.0019194114
-0.0029728393
-0.0036712222
-0.0043201331
-0.0049530338
-0.0055299549
-0.005947794
-0.00605885
-0.0057072297
-0.0047755639
-0.0032585423
-0.0012663504
0.00090734402
0.002823296
0.0039870008
0.0040252523
0.002887865
0.00071554044
-0.0026803356
-0.0020762719
-0.0044510323
-0.0056266437
-0.006492162
-0.0073927564
-0.008365592
-0.0093567436
-0.010231606
-0.010790803
-0.010804682
-0.010063204
-0.0084616065
-0.0060406128
-0.0030830598
-0.00012614631
0.0021127821
0.0029639825
0.0021357371
-0.00036587453
-0.004872448
-0.0055240089
-0.0079919548
-0.0092777603
-0.010333628
-0.011537837
-0.012935249
-0.014462528
-0.01595613
-0.017162282
-0.017765866
-0.017437922
-0.015919317
-0.013122802
-0.0092516002
-0.004898848
-0.0010298575
0.0012695659
0.0012779202
-0.0013337989
-0.0072015165
-0.010076752
-0.012564937
-0.013936506
-0.015183843
-0.016718222
-0.018602467
-0.020774034
-0.023048582
-0.025121499
-0.026586177
-0.026969187
-0.025812782
-0.022845515
-0.018074283
-0.012050926
-0.0059517916
-0.0013705806
0.000300752
-0.0019470436
-0.0093820643
-0.015684822
-0.018132252
-0.019537399
-0.020926651
-0.022757583
-0.025129728
-0.027996862
-0.031166244
-0.034291293
-0.03687667
-0.038294005
-0.037844118
-0.035065694
-0.029601303
-0.02182233
-0.012985412
-0.0051848143
-0.00071559089
-0.0017640395
-0.010792094
-0.022243434
-0.02461287
-0.025945429
-0.0273348
-0.029324007
-0.032079074
-0.035588799
-0.039664511
-0.043927117
-0.047801132
-0.050530017
-0.051236317
-0.048956719
-0.043143386
-0.033768852
-0.021926179
-0.010036721
-0.0014152832
-9.7066555e-06
-0.010225459
-0.029641059
-0.031923727
-0.032978568
-0.034079703
-0.03593936
-0.038831356
-0.042795455
-0.047651441
-0.052990393
-0.058163434
-0.062284084
-0.064265369
-0.062874999
-0.057112029
-0.046476582
-0.031648927
-0.015037701
-0.00086422895
0.0046469239
-0.0055213769
-0.037865862
-0.040048359
-0.040439952
-0.040752332
-0.042014896
-0.044652912
-0.048758024
-0.054143895
-0.060355882
-0.066665198
-0.072060534
-0.075268125
-0.074811204
-0.06926911
-0.05762815
-0.039961351
-0.018247813
0.0027891979
0.014445317
0.0069077072
-0.047230452
-0.049134227
-0.048140415
-0.046882099
-0.046905331
-0.048798546
-0.052668137
-0.05827585
-0.065075937
-0.072231836
-0.078595611
-0.082712165
-0.082880054
-0.077309237
-0.064523785
-0.043934801
-0.016747833
0.012503105
0.032938943
0.032409111
-0.058896646
-0.059639753
-0.055883791
-0.051940879
-0.04997213
-0.050629715
-0.053928504
-0.059495196
-0.066611705
-0.074285136
-0.081191009
-0.085679249
-0.085831645
-0.079522044
-0.064875951
-0.040689117
-0.0072407685
0.032139526
0.064981607
0.077749337
-0.076226363
-0.072613568
-0.063516083
-0.055435262
-0.050724856
-0.049781423
-0.052312182
-0.057664219
-0.064891673
-0.072774819
-0.079779212
-0.084036596
-0.083391506
-0.075348816
-0.057602528
-0.028374994
0.012933477
0.065396628
0.11555166
0.15150638
-0.10809211
-0.089556142
-0.071233708
-0.057232914
-0.049072016
-0.046330072
-0.048077112
-0.053202457
-0.060434475
-0.068295716
-0.075027244
-0.078526766
-0.076388861
-0.065809532
-0.043865338
-0.0078183049
0.044393815
0.1129983
0.18838058
0.27186092
-0.17684546
-0.10828951
-0.076202289
-0.054651089
-0.042992248
-0.038997894
-0.040570368
-0.045927897
-0.05344139
-0.06143821
-0.068027438
-0.070962412
-0.06755099
-0.054739693
-0.029148673
0.013563743
0.078147102
0.1700645
0.28949561
0.47421837
-0.37208352
-0.12470842
-0.054972937
-0.031962368
-0.022063411
-0.02030038
-0.024359314
-0.031957855
-0.041261414
-0.050640739
-0.058316754
-0.062187319
-0.059782411
-0.048056669
-0.022658388
0.021474349
0.092818865
0.21015292
0.40288857
0.77640944
)
;

boundaryField
{
    movingWall
    {
        type            zeroGradient;
    }
    fixedWalls
    {
        type            zeroGradient;
    }
    frontAndBack
    {
        type            empty;
    }
}


// ************************************************************************* //
