/*--------------------------------*- C++ -*----------------------------------*\
| =========                 |                                                 |
| \\      /  F ield         | OpenFOAM: The Open Source CFD Toolbox           |
|  \\    /   O peration     | Version:  2112                                  |
|   \\  /    A nd           | Website:  www.openfoam.com                      |
|    \\/     M anipulation  |                                                 |
\*---------------------------------------------------------------------------*/
FoamFile
{
    version     2.0;
    format      ascii;
    arch        "LSB;label=32;scalar=64";
    class       surfaceScalarField;
    location    "29";
    object      phi;
}
// * * * * * * * * * * * * * * * * * * * * * * * * * * * * * * * * * * * * * //

dimensions      [0 3 -1 0 0 0 0];

oriented        oriented;

internalField   nonuniform List<scalar> 
760
(
1.2702314e-05
-1.270402e-05
-2.8723458e-05
4.1425774e-05
-0.00012229215
9.3568694e-05
-0.00025039693
0.00012810478
-0.00039607655
0.00014567962
-0.00054539362
0.00014931707
-0.00068627506
0.00014088144
-0.00080689644
0.00012062138
-0.00089495731
8.8060875e-05
-0.00093839555
4.3438246e-05
-0.00092727911
-1.1116426e-05
-0.00085686571
-7.0413385e-05
-0.0007304319
-0.00012643377
-0.00056134323
-0.00016908864
-0.00037276095
-0.00018858224
-0.00019447412
-0.00017828681
-5.6521852e-05
-0.00013795229
1.9614528e-05
-7.6136405e-05
3.041135e-05
-1.0796838e-05
3.0411332e-05
-4.3183158e-05
3.047914e-05
-0.00020456687
0.00020280949
-0.00046832595
0.00035732778
-0.00080071006
0.0004604889
-0.0011673538
0.00051232334
-0.0015364537
0.00051841703
-0.0018782327
0.00048266045
-0.0021636879
0.00040607652
-0.0023645502
0.00028892325
-0.0024553571
0.00013424511
-0.0024181497
-4.8323788e-05
-0.0022453644
-0.00024319859
-0.0019475613
-0.00042423687
-0.0015544724
-0.00056217752
-0.0011143231
-0.00062873158
-0.00068747549
-0.00060513445
-0.00033452575
-0.00049090205
-0.00010089667
-0.00030976549
-1.5518901e-06
-0.00011014163
2.885945e-05
-0.0001100276
0.00014050674
-0.00040303349
0.00049581538
-0.00083139231
0.00078568661
-0.0013456241
0.00097472065
-0.001898608
0.0010653073
-0.0024465925
0.0010664015
-0.0029480459
0.00098411387
-0.0033626333
0.0008206639
-0.0036519056
0.0005781955
-0.003782332
0.00026467157
-0.0037298365
-0.00010081934
-0.0034858227
-0.00048721242
-0.0030632818
-0.00084677781
-0.0024999982
-0.0011254612
-0.001858237
-0.0012704927
-0.0012181454
-0.001245226
-0.00066373709
-0.0010453103
-0.00026308971
-0.00071041282
-4.7956315e-05
-0.000325275
-1.9096862e-05
-0.00017344052
0.00031394727
-0.00059329572
0.00091567058
-0.0011777021
0.001370093
-0.0018583809
0.0016553994
-0.0025769236
0.00178385
-0.0032813261
0.001770804
-0.0039228137
0.0016256015
-0.0044541571
0.0013520073
-0.0048302802
0.00095431849
-0.0050112526
0.00044564401
-0.0049672692
-0.0001448028
-0.004684444
-0.00077003765
-0.0041723571
-0.0013588648
-0.0034691318
-0.0018286864
-0.0026440125
-0.0020956121
-0.0017932025
-0.0020960359
-0.0010258513
-0.0018126615
-0.00044021516
-0.0012960489
-9.6723889e-05
-0.00066876627
-0.00011582076
-0.00022979682
0.00054374409
-0.00076507904
0.0014509528
-0.0014914938
0.0020965078
-0.0023225605
0.0024864661
-0.0031901578
0.0026514473
-0.0040368434
0.0026174896
-0.0048100603
0.0023988184
-0.0054589897
0.0020009367
-0.0059342068
0.0014295356
-0.006189837
0.00070127425
-0.0061884164
-0.00014622342
-0.0059055854
-0.0010528686
-0.0053404206
-0.0019240296
-0.0045231188
-0.0026459883
-0.0035229784
-0.0030957524
-0.002449806
-0.0031692084
-0.00144254
-0.0028199275
-0.00064123145
-0.0020973574
-0.00014883694
-0.0011611608
-0.00026465771
-0.00027729931
0.00082104341
-0.00091155183
0.0020852053
-0.0017607394
0.0029456954
-0.0027228222
0.0034485489
-0.0037222289
0.0036508541
-0.0046987158
0.0035939764
-0.0055989148
0.0032990175
-0.0063712161
0.0027732381
-0.0069637538
0.0020220734
-0.0073248611
0.0010623816
-0.0074074824
-6.3602119e-05
-0.0071717125
-0.0012886384
-0.0065989005
-0.0024968417
-0.0057016873
-0.0035432015
-0.0045400233
-0.0042574164
-0.0032318445
-0.0044773872
-0.0019490217
-0.0041027503
-0.00088728795
-0.0031590911
-0.00021159426
-0.0018368545
-0.00047625198
-0.00031411683
0.0011351602
-0.0010263417
0.0027974302
-0.0019735129
0.0038928665
-0.0030417616
0.0045167976
-0.0041507263
0.0047598188
-0.0052399552
0.0046832054
-0.006258086
0.0043171482
-0.0071555391
0.0036706912
-0.007880381
0.0027469153
-0.0083768555
0.0015588561
-0.0085854017
0.00014494408
-0.0084513305
-0.0014227096
-0.0079295082
-0.003018664
-0.0070049703
-0.0044677394
-0.0057150481
-0.0055473386
-0.0041735837
-0.0060188516
-0.0025818457
-0.0056944882
-0.0012041051
-0.0045368318
-0.0002945041
-0.0027464554
-0.00077075608
-0.0003382488
0.001473409
-0.00110317
0.0035623515
-0.0021176355
0.0049073321
-0.0032598916
0.0056590537
-0.0044474093
0.0059473364
-0.0056219641
0.0058577603
-0.0067369509
0.005432135
-0.0077479685
0.0046817088
-0.0086063756
0.0036053224
-0.0092552514
0.002207732
-0.0096270147
0.00051670742
-0.0096492058
-0.0014005185
-0.0092489805
-0.0034188893
-0.0083739434
-0.0053427766
-0.0070220729
-0.0068992091
-0.0052818142
-0.0077591104
-0.0033676671
-0.0076086352
-0.0016173635
-0.0062871354
-0.00040826897
-0.00395555
-0.0011790251
-0.00034815625
0.0018215653
-0.0011372152
0.0043514104
-0.0021827889
0.0059529057
-0.0033586203
0.0068348852
-0.0045822429
0.007170959
-0.0057998224
0.0070753398
-0.0069721947
0.0066045073
-0.0080636678
0.0057731818
-0.0090334412
0.0045750958
-0.0098289931
0.0030032838
-0.010381274
0.0010689881
-0.010604525
-0.0011772671
-0.010400777
-0.0036226371
-0.0096748953
-0.0060686585
-0.0083686751
-0.0082054293
-0.0065156858
-0.0096120996
-0.0043098851
-0.0098144359
-0.0021483236
-0.0084486968
-0.00056492541
-0.0055389482
-0.0017439505
-0.00034393484
0.0021655001
-0.0011278598
0.0051353353
-0.00216471
0.006989756
-0.0033259024
0.0079960775
-0.004530803
0.0083758596
-0.0057319447
0.0082764816
-0.0069002217
0.0077727842
-0.0080123816
0.0068853416
-0.009040826
0.0056035402
-0.0099449666
0.0039074244
-0.010663394
0.0017874159
-0.011106745
-0.0007339163
-0.01116342
-0.0035659624
-0.010697128
-0.0065349507
-0.0095825991
-0.0093199578
-0.0077667773
-0.011427921
-0.0053715014
-0.012209712
-0.002807179
-0.011013019
-0.00077836906
-0.0075677581
-0.0025223195
-0.00032890792
0.0024944081
-0.0010824215
0.0058888489
-0.0020707772
0.0079781118
-0.0031636131
0.0090889134
-0.0042839022
0.0094961487
-0.0053928536
0.0093854331
-0.0064741406
0.0088540712
-0.0075205482
0.0079317492
-0.0085229181
0.00660591
-0.0094603447
0.004844851
-0.010291332
0.0026184031
-0.010933227
-9.2021379e-05
-0.011283212
-0.0032159774
-0.011173633
-0.0066445294
-0.010415714
-0.010077877
-0.0088467363
-0.012996899
-0.0064557541
-0.014600694
-0.0035815272
-0.013887246
-0.0010642229
-0.010085062
-0.0035865424
-0.00031178414
0.0028061922
-0.0010206789
0.0065977437
-0.0019261001
0.008883533
-0.0028949493
0.010057763
-0.0038568831
0.010458083
-0.0047855639
0.010314114
-0.0056807669
0.0097492743
-0.0065544562
0.0088054386
-0.0074198898
0.0074713437
-0.0082818254
0.0057067866
-0.0091251558
0.0034617335
-0.0099086399
0.00069146271
-0.010527257
-0.0025973607
-0.010827014
-0.0063447723
-0.010573628
-0.010331263
-0.0094932086
-0.014077318
-0.007391139
-0.016702764
-0.0044189147
-0.016859471
-0.0014372117
-0.013066765
-0.0050237541
-0.00031004271
0.0031162349
-0.00098036446
0.0072680655
-0.0017790484
0.0096822169
-0.0025693657
0.01084808
-0.0032945955
0.011183312
-0.0039478965
0.010967415
-0.00454997
0.010351348
-0.0051347853
0.0093902539
-0.0057399199
0.0080764782
-0.0063985242
0.0063653909
-0.0071301267
0.0041933361
-0.0079302586
0.0014915946
-0.0087388052
-0.001788814
-0.0094303583
-0.0056532192
-0.0097685807
-0.0099930405
-0.0094003434
-0.014445556
-0.0079305793
-0.018172528
-0.0052061613
-0.019583889
-0.0019026121
-0.016370315
-0.0069263662
-0.00035603999
0.0034722749
-0.0010239965
0.007936022
-0.0017042293
0.01036245
-0.0022607973
0.011404648
-0.0026657203
0.011588235
-0.002944008
0.011245703
-0.0031442471
0.010551587
-0.0033248647
0.0095708716
-0.0035471901
0.0082988036
-0.003871043
0.0066892438
-0.0043491682
0.0046714613
-0.0050183778
0.0021608042
-0.0058766109
-0.0009305809
-0.0068578336
-0.0046719964
-0.0077762871
-0.009074587
-0.0082658345
-0.013956008
-0.0077687396
-0.018669623
-0.0057510993
-0.021601529
-0.0024366711
-0.019684743
-0.0093630372
-0.00050826077
0.0039805357
-0.0012456306
0.0086733919
-0.0017958824
0.010912701
-0.0020479973
0.011656763
-0.0020325038
0.011572742
-0.0018254235
0.011038622
-0.0015121898
0.010238353
-0.0011778576
0.0092365393
-0.00090471112
0.0080256572
-0.00077371866
0.0065582513
-0.00086348911
0.0047612317
-0.001247357
0.0025446722
-0.0019828315
-0.00019510644
-0.0030818678
-0.0035729601
-0.0044600312
-0.0076964236
-0.0058274865
-0.012588553
-0.0065661633
-0.017930946
-0.0057684466
-0.022399246
-0.0029512248
-0.022501965
-0.012314262
-0.00086855298
0.0048490887
-0.0017629821
0.0095678211
-0.0021213528
0.011271072
-0.001936841
0.011472251
-0.0013509155
0.010986816
-0.00051618472
0.010203892
0.00043705017
0.0092851183
0.0013996233
0.0082739662
0.0022723868
0.0071528937
0.0029609251
0.005869713
0.0033691595
0.0043529973
0.003396807
0.0025170246
0.0029385518
0.0002631488
0.0019096157
-0.002544024
0.00026968838
-0.0060564963
-0.0018541609
-0.010464704
-0.0039515942
-0.015833512
-0.0048608334
-0.021490006
-0.0032547031
-0.024108095
-0.015568965
-0.0015910836
0.0064401724
-0.0026108516
0.010587589
-0.0025131335
0.011173354
-0.0015899013
0.010549019
-0.0001721632
0.0095690783
0.00149281
0.0085389184
0.0032329077
0.0075450206
0.0049232477
0.0065836263
0.0064630066
0.0056131348
0.0077575105
0.0045752091
0.0087075152
0.0034029926
0.0092015022
0.0020230376
0.0091033459
0.00036130511
0.0082750938
-0.0017157718
0.0065654627
-0.0043468652
0.0039042365
-0.0078034777
0.00055895521
-0.012488231
-0.0024680537
-0.018462998
-0.0030273165
-0.023548832
-0.018596282
-0.0027183594
0.0091585319
-0.0031498649
0.011019095
-0.0018029966
0.0098264857
0.00046670505
0.0082793168
0.0030894288
0.0069463545
0.0057738177
0.0058545295
0.0083629056
0.0049559327
0.010760404
0.0041861283
0.012893499
0.0034800396
0.014690666
0.0027780414
0.016068351
0.0020253085
0.016923288
0.0011680999
0.017119716
0.00016487781
0.016490831
-0.0010868872
0.014816841
-0.0026728751
0.011846658
-0.0048332945
0.0074354928
-0.0080770662
0.0022629297
-0.013290434
-0.0012724662
-0.020013436
-0.019868748
-0.0024132794
0.011571811
2.8056968e-05
0.0085777584
0.0042551385
0.0055994041
0.0084161231
0.0041183323
0.012231486
0.0031309917
0.015656265
0.00242975
0.018686549
0.001925649
0.021329193
0.0015434849
0.023583493
0.0012257393
0.025429227
0.0009323068
0.02682017
0.00063436568
0.027677181
0.0003110891
0.027900205
-5.8145759e-05
0.027347225
-0.0005339075
0.025771632
-0.0010972822
0.022843047
-0.0019047095
0.01805477
-0.0032887893
0.011113587
-0.0063492511
0.0033886755
-0.012288525
-0.016480072
0.011571811
0.020149569
0.025748974
0.029867306
0.032998298
0.035428048
0.037353697
0.038897181
0.040122921
0.041055228
0.041689593
0.042000682
0.041942537
0.041408629
0.040311347
0.038406637
0.035117848
0.028768597
0.016480072
)
;

boundaryField
{
    movingWall
    {
        type            calculated;
        value           uniform 0;
    }
    fixedWalls
    {
        type            calculated;
        value           uniform 0;
    }
    frontAndBack
    {
        type            empty;
        value           nonuniform List<scalar> 0();
    }
}


// ************************************************************************* //
