/*--------------------------------*- C++ -*----------------------------------*\
| =========                 |                                                 |
| \\      /  F ield         | OpenFOAM: The Open Source CFD Toolbox           |
|  \\    /   O peration     | Version:  2112                                  |
|   \\  /    A nd           | Website:  www.openfoam.com                      |
|    \\/     M anipulation  |                                                 |
\*---------------------------------------------------------------------------*/
FoamFile
{
    version     2.0;
    format      ascii;
    arch        "LSB;label=32;scalar=64";
    class       surfaceScalarField;
    location    "29";
    object      phi_0;
}
// * * * * * * * * * * * * * * * * * * * * * * * * * * * * * * * * * * * * * //

dimensions      [0 3 -1 0 0 0 0];

oriented        oriented;

internalField   nonuniform List<scalar> 
760
(
1.2702313e-05
-1.270402e-05
-2.8723459e-05
4.1425774e-05
-0.00012229215
9.3568693e-05
-0.00025039693
0.00012810478
-0.00039607655
0.00014567962
-0.00054539362
0.00014931708
-0.00068627506
0.00014088144
-0.00080689644
0.00012062138
-0.00089495731
8.8060876e-05
-0.00093839556
4.3438258e-05
-0.00092727913
-1.1116398e-05
-0.00085686572
-7.0413349e-05
-0.00073043189
-0.00012643374
-0.0005613432
-0.00016908861
-0.00037276091
-0.00018858223
-0.00019447409
-0.00017828681
-5.6521841e-05
-0.00013795232
1.961452e-05
-7.6136453e-05
3.0411343e-05
-1.0796878e-05
3.0411312e-05
-4.3183158e-05
3.0479139e-05
-0.00020456687
0.00020280949
-0.00046832595
0.00035732778
-0.00080071006
0.0004604889
-0.0011673538
0.00051232334
-0.0015364537
0.00051841703
-0.0018782327
0.00048266045
-0.0021636879
0.00040607653
-0.0023645502
0.00028892327
-0.0024553571
0.00013424515
-0.0024181497
-4.8323735e-05
-0.0022453645
-0.00024319851
-0.0019475613
-0.00042423681
-0.0015544724
-0.0005621775
-0.0011143231
-0.00062873161
-0.00068747548
-0.00060513451
-0.00033452575
-0.00049090211
-0.00010089666
-0.00030976554
-1.5518801e-06
-0.00011014165
2.8859435e-05
-0.0001100276
0.00014050674
-0.00040303349
0.00049581537
-0.00083139231
0.0007856866
-0.0013456241
0.00097472065
-0.001898608
0.0010653073
-0.0024465925
0.0010664015
-0.0029480459
0.00098411386
-0.0033626333
0.0008206639
-0.0036519055
0.0005781955
-0.003782332
0.00026467156
-0.0037298365
-0.00010081933
-0.0034858227
-0.0004872124
-0.0030632819
-0.00084677779
-0.0024999982
-0.0011254612
-0.001858237
-0.0012704927
-0.0012181454
-0.0012452261
-0.00066373708
-0.0010453103
-0.00026308968
-0.00071041282
-4.7956291e-05
-0.00032527499
-1.909686e-05
-0.00017344052
0.00031394727
-0.00059329572
0.00091567058
-0.0011777021
0.001370093
-0.0018583809
0.0016553994
-0.0025769236
0.00178385
-0.003281326
0.001770804
-0.0039228137
0.0016256015
-0.0044541571
0.0013520073
-0.0048302801
0.00095431844
-0.0050112526
0.00044564397
-0.0049672692
-0.00014480285
-0.004684444
-0.00077003769
-0.0041723571
-0.0013588648
-0.0034691319
-0.0018286864
-0.0026440125
-0.002095612
-0.0017932025
-0.0020960359
-0.0010258512
-0.0018126614
-0.00044021513
-0.0012960489
-9.6723872e-05
-0.00066876625
-0.00011582075
-0.00022979682
0.00054374409
-0.00076507903
0.0014509528
-0.0014914938
0.0020965078
-0.0023225605
0.0024864661
-0.0031901578
0.0026514473
-0.0040368434
0.0026174896
-0.0048100603
0.0023988184
-0.0054589897
0.0020009367
-0.0059342068
0.0014295355
-0.006189837
0.0007012742
-0.0061884164
-0.00014622346
-0.0059055854
-0.0010528686
-0.0053404206
-0.0019240296
-0.0045231188
-0.0026459883
-0.0035229784
-0.0030957524
-0.002449806
-0.0031692083
-0.00144254
-0.0028199274
-0.00064123143
-0.0020973574
-0.00014883693
-0.0011611608
-0.0002646577
-0.00027729932
0.0008210434
-0.00091155183
0.0020852053
-0.0017607394
0.0029456954
-0.0027228222
0.0034485489
-0.0037222289
0.0036508541
-0.0046987158
0.0035939764
-0.0055989148
0.0032990175
-0.0063712161
0.0027732381
-0.0069637538
0.0020220734
-0.0073248611
0.0010623816
-0.0074074823
-6.3602123e-05
-0.0071717125
-0.0012886385
-0.0065989004
-0.0024968417
-0.0057016873
-0.0035432016
-0.0045400233
-0.0042574164
-0.0032318445
-0.0044773872
-0.0019490217
-0.0041027503
-0.00088728792
-0.0031590911
-0.00021159425
-0.0018368545
-0.00047625198
-0.00031411683
0.0011351602
-0.0010263418
0.0027974302
-0.0019735129
0.0038928665
-0.0030417616
0.0045167976
-0.0041507263
0.0047598188
-0.0052399552
0.0046832054
-0.006258086
0.0043171483
-0.0071555392
0.0036706913
-0.007880381
0.0027469154
-0.0083768555
0.0015588561
-0.0085854017
0.00014494409
-0.0084513305
-0.0014227096
-0.0079295081
-0.003018664
-0.0070049703
-0.0044677395
-0.0057150481
-0.0055473387
-0.0041735837
-0.0060188517
-0.0025818457
-0.0056944882
-0.001204105
-0.0045368318
-0.00029450409
-0.0027464554
-0.00077075609
-0.00033824879
0.001473409
-0.00110317
0.0035623514
-0.0021176355
0.0049073321
-0.0032598916
0.0056590537
-0.0044474092
0.0059473364
-0.0056219641
0.0058577602
-0.0067369509
0.005432135
-0.0077479685
0.0046817088
-0.0086063756
0.0036053224
-0.0092552514
0.002207732
-0.0096270147
0.00051670743
-0.0096492058
-0.0014005185
-0.0092489805
-0.0034188892
-0.0083739433
-0.0053427766
-0.0070220729
-0.0068992091
-0.0052818142
-0.0077591104
-0.0033676671
-0.0076086352
-0.0016173635
-0.0062871354
-0.00040826896
-0.00395555
-0.0011790251
-0.00034815625
0.0018215653
-0.0011372152
0.0043514104
-0.0021827889
0.0059529057
-0.0033586203
0.0068348851
-0.0045822429
0.007170959
-0.0057998223
0.0070753397
-0.0069721947
0.0066045072
-0.0080636678
0.0057731818
-0.0090334413
0.0045750958
-0.0098289931
0.0030032838
-0.010381274
0.0010689881
-0.010604525
-0.0011772671
-0.010400777
-0.0036226371
-0.0096748953
-0.0060686584
-0.0083686751
-0.0082054293
-0.0065156858
-0.0096120996
-0.0043098851
-0.0098144359
-0.0021483236
-0.0084486968
-0.00056492541
-0.0055389482
-0.0017439505
-0.00034393485
0.0021655001
-0.0011278598
0.0051353353
-0.00216471
0.006989756
-0.0033259024
0.0079960775
-0.004530803
0.0083758595
-0.0057319447
0.0082764815
-0.0069002216
0.0077727841
-0.0080123815
0.0068853415
-0.0090408261
0.0056035401
-0.0099449667
0.0039074244
-0.010663394
0.0017874159
-0.011106745
-0.00073391628
-0.01116342
-0.0035659624
-0.010697128
-0.0065349507
-0.0095825991
-0.0093199577
-0.0077667773
-0.011427921
-0.0053715014
-0.012209712
-0.0028071789
-0.011013019
-0.00077836906
-0.0075677581
-0.0025223195
-0.00032890794
0.0024944081
-0.0010824215
0.0058888489
-0.0020707772
0.0079781118
-0.0031636131
0.0090889134
-0.0042839022
0.0094961486
-0.0053928536
0.0093854331
-0.0064741405
0.0088540712
-0.0075205482
0.0079317492
-0.0085229181
0.0066059099
-0.0094603448
0.004844851
-0.010291332
0.0026184031
-0.010933227
-9.2021357e-05
-0.011283212
-0.0032159775
-0.011173633
-0.0066445294
-0.010415714
-0.010077877
-0.0088467363
-0.012996899
-0.0064557541
-0.014600694
-0.0035815272
-0.013887246
-0.0010642229
-0.010085062
-0.0035865424
-0.00031178413
0.0028061922
-0.001020679
0.0065977437
-0.0019261001
0.008883533
-0.0028949493
0.010057763
-0.0038568831
0.010458083
-0.0047855639
0.010314114
-0.0056807669
0.0097492744
-0.0065544561
0.0088054386
-0.0074198898
0.0074713436
-0.0082818254
0.0057067865
-0.0091251559
0.0034617335
-0.0099086399
0.00069146272
-0.010527257
-0.0025973607
-0.010827014
-0.0063447723
-0.010573628
-0.010331263
-0.0094932086
-0.014077318
-0.007391139
-0.016702764
-0.0044189147
-0.016859471
-0.0014372117
-0.013066765
-0.0050237541
-0.00031004266
0.0031162348
-0.00098036441
0.0072680654
-0.0017790485
0.0096822169
-0.0025693658
0.01084808
-0.0032945954
0.011183312
-0.0039478965
0.010967415
-0.0045499701
0.010351348
-0.0051347853
0.009390254
-0.0057399198
0.0080764782
-0.0063985241
0.0063653909
-0.0071301267
0.004193336
-0.0079302586
0.0014915946
-0.0087388053
-0.001788814
-0.0094303583
-0.0056532191
-0.0097685807
-0.0099930405
-0.0094003434
-0.014445556
-0.0079305793
-0.018172528
-0.0052061613
-0.019583889
-0.0019026121
-0.016370315
-0.0069263661
-0.00035603995
0.0034722749
-0.0010239964
0.0079360219
-0.0017042293
0.01036245
-0.0022607975
0.011404648
-0.0026657203
0.011588235
-0.0029440079
0.011245703
-0.0031442471
0.010551587
-0.0033248648
0.0095708716
-0.0035471901
0.0082988037
-0.003871043
0.0066892438
-0.0043491682
0.0046714613
-0.0050183778
0.0021608043
-0.0058766109
-0.00093058089
-0.0068578336
-0.0046719964
-0.0077762871
-0.009074587
-0.0082658345
-0.013956008
-0.0077687396
-0.018669623
-0.0057510993
-0.021601529
-0.0024366711
-0.019684743
-0.0093630372
-0.00050826082
0.0039805357
-0.0012456304
0.0086733919
-0.0017958823
0.010912701
-0.0020479975
0.011656762
-0.0020325039
0.011572742
-0.0018254235
0.011038622
-0.0015121898
0.010238353
-0.0011778576
0.0092365393
-0.00090471116
0.0080256571
-0.00077371869
0.0065582513
-0.00086348913
0.0047612318
-0.0012473571
0.0025446722
-0.0019828315
-0.00019510643
-0.0030818678
-0.0035729601
-0.0044600312
-0.0076964236
-0.0058274865
-0.012588553
-0.0065661633
-0.017930946
-0.0057684466
-0.022399246
-0.0029512248
-0.022501965
-0.012314262
-0.00086855308
0.0048490888
-0.0017629822
0.0095678213
-0.0021213525
0.011271072
-0.0019368409
0.01147225
-0.0013509157
0.010986816
-0.00051618483
0.010203892
0.00043705017
0.0092851184
0.0013996233
0.0082739662
0.0022723868
0.0071528936
0.002960925
0.005869713
0.0033691594
0.0043529973
0.003396807
0.0025170246
0.0029385518
0.00026314881
0.0019096157
-0.002544024
0.00026968837
-0.0060564963
-0.0018541609
-0.010464704
-0.0039515942
-0.015833512
-0.0048608334
-0.021490006
-0.0032547031
-0.024108095
-0.015568965
-0.0015910835
0.0064401723
-0.0026108521
0.010587589
-0.0025131334
0.011173354
-0.001589901
0.010549018
-0.00017216317
0.009569078
0.0014928099
0.0085389182
0.0032329077
0.0075450205
0.0049232477
0.0065836263
0.0064630066
0.0056131348
0.0077575105
0.0045752091
0.0087075152
0.0034029926
0.0092015022
0.0020230376
0.0091033459
0.00036130511
0.0082750937
-0.0017157718
0.0065654626
-0.0043468652
0.0039042365
-0.0078034777
0.0005589552
-0.012488231
-0.0024680537
-0.018462998
-0.0030273165
-0.023548832
-0.018596282
-0.0027183588
0.0091585315
-0.0031498654
0.011019095
-0.0018029969
0.0098264862
0.00046670519
0.0082793173
0.003089429
0.0069463547
0.0057738177
0.0058545295
0.0083629055
0.0049559326
0.010760404
0.0041861283
0.012893499
0.0034800396
0.014690666
0.0027780414
0.016068351
0.0020253085
0.016923288
0.0011680999
0.017119716
0.00016487781
0.016490831
-0.0010868872
0.014816841
-0.0026728751
0.011846658
-0.0048332945
0.0074354928
-0.0080770662
0.0022629297
-0.013290434
-0.0012724662
-0.020013436
-0.019868748
-0.0024132785
0.011571811
2.8056926e-05
0.0085777577
0.0042551382
0.0055994037
0.008416123
0.0041183322
0.012231486
0.0031309918
0.015656265
0.0024297501
0.018686549
0.001925649
0.021329193
0.0015434849
0.023583493
0.0012257393
0.025429227
0.0009323068
0.02682017
0.00063436568
0.027677181
0.0003110891
0.027900205
-5.8145761e-05
0.027347225
-0.0005339075
0.025771632
-0.0010972822
0.022843047
-0.0019047095
0.01805477
-0.0032887893
0.011113587
-0.0063492511
0.0033886755
-0.012288525
-0.016480072
0.011571812
0.02014957
0.025748974
0.029867306
0.032998298
0.035428048
0.037353697
0.038897181
0.040122921
0.041055228
0.041689593
0.042000682
0.041942537
0.041408629
0.040311347
0.038406637
0.035117848
0.028768597
0.016480072
)
;

boundaryField
{
    movingWall
    {
        type            calculated;
        value           uniform 0;
    }
    fixedWalls
    {
        type            calculated;
        value           uniform 0;
    }
    frontAndBack
    {
        type            empty;
        value           nonuniform List<scalar> 0();
    }
}


// ************************************************************************* //
