/*--------------------------------*- C++ -*----------------------------------*\
| =========                 |                                                 |
| \\      /  F ield         | OpenFOAM: The Open Source CFD Toolbox           |
|  \\    /   O peration     | Version:  2112                                  |
|   \\  /    A nd           | Website:  www.openfoam.com                      |
|    \\/     M anipulation  |                                                 |
\*---------------------------------------------------------------------------*/
FoamFile
{
    version     2.0;
    format      ascii;
    arch        "LSB;label=32;scalar=64";
    class       volVectorField;
    location    "29";
    object      U;
}
// * * * * * * * * * * * * * * * * * * * * * * * * * * * * * * * * * * * * * //

dimensions      [0 1 -1 0 0 0 0];

internalField   nonuniform List<vector> 
400
(
(0.00028444098 -0.00028139926 0)
(0.00011069125 7.996531e-05 0)
(-0.0013271967 0.00047803336 0)
(-0.0036219075 0.00073593354 0)
(-0.0064236749 0.00086752542 0)
(-0.0094315198 0.0009072748 0)
(-0.012388062 0.0008748724 0)
(-0.015056523 0.00077153594 0)
(-0.017194643 0.00058849311 0)
(-0.018552954 0.00032008557 0)
(-0.018902719 -2.4813038e-05 0)
(-0.01808623 -0.00041826993 0)
(-0.016079957 -0.00079972614 0)
(-0.013048982 -0.0010930868 0)
(-0.0093664101 -0.0012212152 0)
(-0.0055776638 -0.0011294825 0)
(-0.0023003387 -0.00081287186 0)
(-8.2950512e-05 -0.00033798297 0)
(0.000760152 0.00015229426 0)
(0.00040944189 0.00038933853 0)
(-8.6062952e-05 -0.00012358881 0)
(-0.0018692658 0.0017872597 0)
(-0.0063065483 0.0036260758 0)
(-0.012452745 0.0048625245 0)
(-0.019600756 0.0054985628 0)
(-0.027107113 0.0056207057 0)
(-0.034359105 0.0052860621 0)
(-0.040769132 0.0045044034 0)
(-0.045758453 0.0032662329 0)
(-0.048776197 0.0015896541 0)
(-0.049366949 -0.00043547858 0)
(-0.047254118 -0.0026182091 0)
(-0.042452243 -0.0046645702 0)
(-0.035361677 -0.0062189543 0)
(-0.026778733 -0.0069376251 0)
(-0.017827325 -0.0065922995 0)
(-0.0097755589 -0.0051797994 0)
(-0.0037462992 -0.0029994438 0)
(-0.00038875114 -0.00066553682 0)
(0.00028989559 0.00078354884 0)
(-0.00058808151 0.0014336317 0)
(-0.0042428227 0.0063775472 0)
(-0.01175863 0.010640653 0)
(-0.021468832 0.0134837 0)
(-0.032366415 0.014898404 0)
(-0.043588313 0.015017481 0)
(-0.054287785 0.013936241 0)
(-0.063642984 0.011684294 0)
(-0.070856312 0.008281388 0)
(-0.075188853 0.0038286521 0)
(-0.07604003 -0.0014059346 0)
(-0.073058197 -0.0069357054 0)
(-0.066267026 -0.012071829 0)
(-0.056169621 -0.016000352 0)
(-0.043780994 -0.017942843 0)
(-0.030569294 -0.017380035 0)
(-0.018250705 -0.01429003 0)
(-0.008417988 -0.0093123259 0)
(-0.0021511227 -0.0037618393 0)
(-1.9698644e-06 0.00031696856 0)
(-0.0010530692 0.0043003986 0)
(-0.0065148922 0.013565811 0)
(-0.016999224 0.020864216 0)
(-0.030031086 0.025561395 0)
(-0.044300877 0.027761618 0)
(-0.058784686 0.027688105 0)
(-0.072488009 0.025487754 0)
(-0.08444745 0.021218499 0)
(-0.093729499 0.014945155 0)
(-0.099464779 0.006878378 0)
(-0.10093068 -0.0025013209 0)
(-0.097663304 -0.012378519 0)
(-0.089593446 -0.021605529 0)
(-0.077182499 -0.028824932 0)
(-0.061505277 -0.032706215 0)
(-0.044253758 -0.03230005 0)
(-0.02756228 -0.027445989 0)
(-0.013581782 -0.01908075 0)
(-0.0040263568 -0.0092707099 0)
(-0.00026772035 -0.0011081898 0)
(-0.0014558698 0.0083650593 0)
(-0.0085490947 0.023181322 0)
(-0.021746305 0.034051786 0)
(-0.037792598 0.040763224 0)
(-0.055097107 0.043701895 0)
(-0.072519828 0.043259154 0)
(-0.088984721 0.039661572 0)
(-0.10345878 0.033001422 0)
(-0.11493257 0.023384268 0)
(-0.12243725 0.011116749 0)
(-0.12511564 -0.0031289727 0)
(-0.12232017 -0.018219447 0)
(-0.11376177 -0.032541714 0)
(-0.099698447 -0.044132748 0)
(-0.081100642 -0.050966414 0)
(-0.059776425 -0.051441348 0)
(-0.038291241 -0.045013728 0)
(-0.01952048 -0.032755602 0)
(-0.0060923477 -0.017491873 0)
(-0.00051102258 -0.0035220293 0)
(-0.0017889389 0.013475487 0)
(-0.010269744 0.034960953 0)
(-0.025805577 0.049908768 0)
(-0.044466882 0.058794949 0)
(-0.064427886 0.06245852 0)
(-0.084477769 0.061551036 0)
(-0.10351683 0.056416151 0)
(-0.12050381 0.047182281 0)
(-0.13440427 0.033970388 0)
(-0.14417424 0.017132369 0)
(-0.14880377 -0.0025359492 0)
(-0.14739358 -0.02363649 0)
(-0.13931138 -0.044142745 0)
(-0.12443578 -0.061442291 0)
(-0.10343181 -0.072642496 0)
(-0.078056025 -0.075174087 0)
(-0.051260998 -0.067706888 0)
(-0.026809489 -0.051124266 0)
(-0.0086123119 -0.028965696 0)
(-0.00078707382 -0.0070521589 0)
(-0.002042039 0.019436565 0)
(-0.011605675 0.04852903 0)
(-0.028995853 0.06799849 0)
(-0.049757824 0.07922619 0)
(-0.07189176 0.083657565 0)
(-0.09416224 0.082297882 0)
(-0.11550022 0.075649807 0)
(-0.13491521 0.063876985 0)
(-0.15140348 0.047076025 0)
(-0.16388496 0.025567777 0)
(-0.17119258 0.00016300868 0)
(-0.17215475 -0.027610688 0)
(-0.16571585 -0.05539642 0)
(-0.15119214 -0.079945862 0)
(-0.12870074 -0.097351335 0)
(-0.09967012 -0.10369872 0)
(-0.067241912 -0.096286243 0)
(-0.036119165 -0.075220311 0)
(-0.011929745 -0.044539873 0)
(-0.0011708188 -0.012001497 0)
(-0.0022012908 0.026013415 0)
(-0.012484738 0.063419689 0)
(-0.031139962 0.087764603 0)
(-0.053354646 0.1014904 0)
(-0.077017828 0.10677727 0)
(-0.10091219 0.10507388 0)
(-0.12405022 0.097088279 0)
(-0.14555189 0.08302144 0)
(-0.16450976 0.062902225 0)
(-0.17987607 0.036930821 0)
(-0.19039935 0.0057955038 0)
(-0.1946558 -0.029033464 0)
(-0.19113641 -0.065018173 0)
(-0.17848987 -0.098391192 0)
(-0.15602502 -0.12417761 0)
(-0.124445 -0.13676295 0)
(-0.08664669 -0.13132922 0)
(-0.048063794 -0.10623295 0)
(-0.016429379 -0.065393296 0)
(-0.0017537943 -0.018878433 0)
(-0.0022557101 0.032933296 0)
(-0.012853724 0.079088581 0)
(-0.032098953 0.10853513 0)
(-0.054981892 0.12486439 0)
(-0.079334933 0.13109299 0)
(-0.10399429 0.12919938 0)
(-0.12810041 0.12015141 0)
(-0.15094516 0.10420152 0)
(-0.17179738 0.081278365 0)
(-0.18974477 0.05137558 0)
(-0.20357629 0.014915391 0)
(-0.21172913 -0.026876147 0)
(-0.21232522 -0.071532406 0)
(-0.20333821 -0.11502615 0)
(-0.18306285 -0.15144719 0)
(-0.15101795 -0.17328519 0)
(-0.10916563 -0.17282199 0)
(-0.063026397 -0.14524393 0)
(-0.022524981 -0.092978125 0)
(-0.0026589637 -0.028422206 0)
(-0.0022086335 0.03990454 0)
(-0.012717084 0.094944289 0)
(-0.031841306 0.12954025 0)
(-0.054496835 0.1484586 0)
(-0.078500102 0.15563556 0)
(-0.10277102 0.15366649 0)
(-0.12662144 0.14384607 0)
(-0.1495766 0.12651339 0)
(-0.17117093 0.10149252 0)
(-0.19075576 0.068517122 0)
(-0.20732709 0.027627546 0)
(-0.21937771 -0.020394284 0)
(-0.22488778 -0.073461985 0)
(-0.22130657 -0.12768886 0)
(-0.20585479 -0.17662065 0)
(-0.17647626 -0.21099209 0)
(-0.13334657 -0.21961321 0)
(-0.080899174 -0.19275398 0)
(-0.0306419 -0.12885264 0)
(-0.0040700733 -0.041637054 0)
(-0.0020933491 0.046663305 0)
(-0.012189726 0.1104186 0)
(-0.030536214 0.14996586 0)
(-0.052017595 0.17124306 0)
(-0.074465008 0.17919257 0)
(-0.096919917 0.17712114 0)
(-0.11891406 0.16672982 0)
(-0.14026651 0.14850279 0)
(-0.16086208 0.12219247 0)
(-0.18044322 0.087272644 0)
(-0.19840292 0.043352589 0)
(-0.21353681 -0.0093896844 0)
(-0.2240146 -0.069676705 0)
(-0.22708287 -0.13413351 0)
(-0.21908959 -0.19645337 0)
(-0.19626649 -0.24625227 0)
(-0.15621928 -0.26886038 0)
(-0.10070625 -0.24798814 0)
(-0.041146017 -0.17433506 0)
(-0.0062706204 -0.059833947 0)
(-0.001996329 0.053057483 0)
(-0.011565502 0.12508354 0)
(-0.028660956 0.16904523 0)
(-0.048056619 0.19210919 0)
(-0.067638442 0.20035672 0)
(-0.086643891 0.19791288 0)
(-0.1048959 0.18696728 0)
(-0.12256943 0.16821862 0)
(-0.13996399 0.14140912 0)
(-0.15729758 0.10579906 0)
(-0.17451558 0.060571801 0)
(-0.19108368 0.0052257342 0)
(-0.20560158 -0.05992246 0)
(-0.21550585 -0.13260795 0)
(-0.21690136 -0.20752795 0)
(-0.20457804 -0.27431822 0)
(-0.17317489 -0.31571789 0)
(-0.12017097 -0.30807988 0)
(-0.054147488 -0.2298838 0)
(-0.0096749046 -0.08465317 0)
(-0.0020996021 0.05918429 0)
(-0.011414859 0.13881591 0)
(-0.027115372 0.18617344 0)
(-0.043624843 0.20994717 0)
(-0.05898122 0.21760161 0)
(-0.072777812 0.21419782 0)
(-0.085249944 0.20247368 0)
(-0.09700114 0.18339419 0)
(-0.10878858 0.15675622 0)
(-0.12135028 0.12168631 0)
(-0.13525394 0.077015431 0)
(-0.15070274 0.021618209 0)
(-0.16712204 -0.045110775 0)
(-0.18274002 -0.12251611 0)
(-0.19405355 -0.20712622 0)
(-0.19523505 -0.2901148 0)
(-0.17829426 -0.35358517 0)
(-0.13540546 -0.36743817 0)
(-0.069089021 -0.294153 0)
(-0.014795028 -0.11798449 0)
(-0.0027676959 0.065619973 0)
(-0.012740986 0.1519986 0)
(-0.027329959 0.20099733 0)
(-0.040244485 0.22368374 0)
(-0.04992852 0.22933094 0)
(-0.056643311 0.22403758 0)
(-0.061232431 0.21108065 0)
(-0.064815821 0.19168181 0)
(-0.068620495 0.16572046 0)
(-0.073874782 0.13227355 0)
(-0.081727978 0.089960263 0)
(-0.093119891 0.037200131 0)
(-0.10846908 -0.027479102 0)
(-0.12721366 -0.10497642 0)
(-0.14705412 -0.19422079 0)
(-0.16280339 -0.28948648 0)
(-0.16509071 -0.37509943 0)
(-0.14090146 -0.41772701 0)
(-0.084061563 -0.36281405 0)
(-0.022011634 -0.16157409 0)
(-0.0047195829 0.073834774 0)
(-0.017222407 0.16572643 0)
(-0.031284281 0.21337839 0)
(-0.039683085 0.23217428 0)
(-0.041883294 0.23380255 0)
(-0.039350848 0.22539471 0)
(-0.033812274 0.21061258 0)
(-0.027000073 0.19081086 0)
(-0.020591711 0.16589803 0)
(-0.016215124 0.13493927 0)
(-0.015476076 0.0964709 0)
(-0.019925298 0.048690004 0)
(-0.030918394 -0.010412736 0)
(-0.049234075 -0.082920518 0)
(-0.074398937 -0.17014318 0)
(-0.10327653 -0.27050259 0)
(-0.12725449 -0.37369538 0)
(-0.12973494 -0.44868782 0)
(-0.094914801 -0.42750698 0)
(-0.030930663 -0.21612806 0)
(-0.009299999 0.08695216 0)
(-0.027432071 0.18185344 0)
(-0.040981546 0.22303364 0)
(-0.042679265 0.23378973 0)
(-0.034405102 0.22880245 0)
(-0.01962221 0.21592314 0)
(-0.0012379322 0.19878018 0)
(0.018346081 0.17856485 0)
(0.037072078 0.15508363 0)
(0.053056286 0.12735939 0)
(0.064422155 0.093936256 0)
(0.069231478 0.053014516 0)
(0.065415543 0.0024625238 0)
(0.051047783 -0.060339431 0)
(0.024643237 -0.13837671 0)
(-0.013701777 -0.23417149 0)
(-0.058753708 -0.34517037 0)
(-0.093510883 -0.44954001 0)
(-0.094469902 -0.47558828 0)
(-0.039216115 -0.28048285 0)
(-0.018580313 0.11087148 0)
(-0.046039622 0.20177657 0)
(-0.055229933 0.22793172 0)
(-0.0439846 0.22501778 0)
(-0.019372092 0.2106131 0)
(0.0123339 0.19228019 0)
(0.046993695 0.17278509 0)
(0.081754829 0.15265408 0)
(0.11443857 0.13135289 0)
(0.14315388 0.10779554 0)
(0.1660174 0.080591571 0)
(0.18098165 0.04811208 0)
(0.18557645 0.0084491683 0)
(0.17716598 -0.040817637 0)
(0.15275966 -0.10317634 0)
(0.10948893 -0.18390633 0)
(0.047240611 -0.28855475 0)
(-0.021439235 -0.41051047 0)
(-0.072252931 -0.49101707 0)
(-0.041147483 -0.35054298 0)
(-0.033352244 0.15561543 0)
(-0.068601626 0.22040443 0)
(-0.055187263 0.21729228 0)
(-0.016078505 0.19532448 0)
(0.034511387 0.17092359 0)
(0.088508109 0.14849475 0)
(0.14176896 0.12861271 0)
(0.19196946 0.11057767 0)
(0.23754114 0.093297642 0)
(0.27712061 0.075575088 0)
(0.30921856 0.056181446 0)
(0.33204367 0.033823254 0)
(0.34317596 0.0070271857 0)
(0.33982907 -0.025910564 0)
(0.31813265 -0.067741849 0)
(0.27327734 -0.12410803 0)
(0.20044731 -0.20584716 0)
(0.10213983 -0.32506916 0)
(-0.012387258 -0.45457171 0)
(-0.023756653 -0.40864072 0)
(-0.033081118 0.23907316 0)
(-0.042647158 0.2179201 0)
(0.042207225 0.16426629 0)
(0.12760462 0.12783581 0)
(0.20769805 0.10143553 0)
(0.28028172 0.081658201 0)
(0.34487326 0.06664817 0)
(0.40158321 0.054703076 0)
(0.45055084 0.044399495 0)
(0.49162061 0.034639937 0)
(0.52416204 0.024550588 0)
(0.54698622 0.013381693 0)
(0.55822248 0.00039972579 0)
(0.5557095 -0.01513735 0)
(0.53552628 -0.034969201 0)
(0.49244662 -0.062488207 0)
(0.41797273 -0.10694763 0)
(0.30410595 -0.19317544 0)
(0.12313782 -0.33691905 0)
(0.052374207 -0.39437913 0)
(0.24299926 0.15257479 0)
(0.30529618 0.11854286 0)
(0.45481215 0.07610814 0)
(0.56000885 0.050840196 0)
(0.63223324 0.035126091 0)
(0.68654919 0.024812314 0)
(0.72943834 0.017960105 0)
(0.76379641 0.013255931 0)
(0.79127939 0.0097622051 0)
(0.81275157 0.0068543622 0)
(0.82841147 0.0041185183 0)
(0.83794404 0.0012768547 0)
(0.84057079 -0.0018442015 0)
(0.83497559 -0.0053262612 0)
(0.81886698 -0.009828966 0)
(0.78942866 -0.01623275 0)
(0.73784287 -0.026935706 0)
(0.65316763 -0.05128655 0)
(0.45609767 -0.11374603 0)
(0.31788988 -0.17206002 0)
)
;

boundaryField
{
    movingWall
    {
        type            fixedValue;
        value           uniform (1 0 0);
    }
    fixedWalls
    {
        type            fixedValue;
        value           uniform (0 0 0);
    }
    frontAndBack
    {
        type            empty;
    }
}


// ************************************************************************* //
