/*--------------------------------*- C++ -*----------------------------------*\
| =========                 |                                                 |
| \\      /  F ield         | OpenFOAM: The Open Source CFD Toolbox           |
|  \\    /   O peration     | Version:  2112                                  |
|   \\  /    A nd           | Website:  www.openfoam.com                      |
|    \\/     M anipulation  |                                                 |
\*---------------------------------------------------------------------------*/
FoamFile
{
    version     2.0;
    format      ascii;
    arch        "LSB;label=32;scalar=64";
    class       volVectorField;
    location    "29";
    object      U_0;
}
// * * * * * * * * * * * * * * * * * * * * * * * * * * * * * * * * * * * * * //

dimensions      [0 1 -1 0 0 0 0];

internalField   nonuniform List<vector> 
400
(
(0.00028444095 -0.00028139928 0)
(0.00011069121 7.9965303e-05 0)
(-0.0013271967 0.00047803335 0)
(-0.0036219075 0.00073593351 0)
(-0.0064236748 0.0008675254 0)
(-0.0094315199 0.00090727482 0)
(-0.012388062 0.00087487244 0)
(-0.015056523 0.00077153596 0)
(-0.017194643 0.00058849313 0)
(-0.018552954 0.0003200857 0)
(-0.018902719 -2.4812763e-05 0)
(-0.01808623 -0.00041826958 0)
(-0.016079957 -0.00079972583 0)
(-0.013048982 -0.0010930866 0)
(-0.0093664094 -0.0012212151 0)
(-0.0055776631 -0.0011294825 0)
(-0.0023003383 -0.00081287214 0)
(-8.2950469e-05 -0.0003379834 0)
(0.00076015186 0.00015229396 0)
(0.00040944183 0.00038933834 0)
(-8.6062964e-05 -0.00012358883 0)
(-0.0018692659 0.0017872597 0)
(-0.0063065483 0.0036260757 0)
(-0.012452745 0.0048625244 0)
(-0.019600756 0.0054985627 0)
(-0.027107113 0.0056207057 0)
(-0.034359105 0.0052860621 0)
(-0.040769132 0.0045044036 0)
(-0.045758453 0.0032662332 0)
(-0.048776197 0.0015896546 0)
(-0.049366949 -0.00043547782 0)
(-0.047254118 -0.0026182081 0)
(-0.042452243 -0.0046645693 0)
(-0.035361676 -0.0062189539 0)
(-0.026778733 -0.0069376253 0)
(-0.017827325 -0.0065923001 0)
(-0.0097755589 -0.0051798003 0)
(-0.0037462992 -0.0029994447 0)
(-0.000388751 -0.0006655374 0)
(0.00028989566 0.00078354851 0)
(-0.00058808151 0.0014336317 0)
(-0.0042428227 0.0063775471 0)
(-0.01175863 0.010640653 0)
(-0.021468832 0.0134837 0)
(-0.032366415 0.014898404 0)
(-0.043588312 0.01501748 0)
(-0.054287784 0.013936241 0)
(-0.063642984 0.011684294 0)
(-0.070856312 0.0082813882 0)
(-0.075188852 0.0038286524 0)
(-0.07604003 -0.0014059341 0)
(-0.073058197 -0.0069357046 0)
(-0.066267027 -0.012071828 0)
(-0.056169622 -0.016000351 0)
(-0.043780994 -0.017942843 0)
(-0.030569294 -0.017380036 0)
(-0.018250705 -0.014290031 0)
(-0.0084179876 -0.0093123263 0)
(-0.0021511222 -0.0037618395 0)
(-1.9696579e-06 0.00031696844 0)
(-0.0010530692 0.0043003986 0)
(-0.0065148922 0.013565811 0)
(-0.016999224 0.020864216 0)
(-0.030031086 0.025561395 0)
(-0.044300877 0.027761617 0)
(-0.058784685 0.027688105 0)
(-0.072488009 0.025487754 0)
(-0.08444745 0.021218498 0)
(-0.093729498 0.014945154 0)
(-0.099464778 0.0068783776 0)
(-0.10093068 -0.0025013213 0)
(-0.097663304 -0.012378519 0)
(-0.089593447 -0.021605528 0)
(-0.077182499 -0.028824931 0)
(-0.061505278 -0.032706214 0)
(-0.044253758 -0.03230005 0)
(-0.02756228 -0.027445989 0)
(-0.013581781 -0.01908075 0)
(-0.0040263563 -0.0092707097 0)
(-0.0002677202 -0.0011081897 0)
(-0.0014558698 0.0083650593 0)
(-0.0085490947 0.023181322 0)
(-0.021746305 0.034051786 0)
(-0.037792598 0.040763224 0)
(-0.055097107 0.043701895 0)
(-0.072519828 0.043259154 0)
(-0.088984721 0.039661572 0)
(-0.10345878 0.033001421 0)
(-0.11493257 0.023384267 0)
(-0.12243725 0.011116749 0)
(-0.12511564 -0.0031289736 0)
(-0.12232017 -0.018219447 0)
(-0.11376177 -0.032541714 0)
(-0.099698447 -0.044132747 0)
(-0.081100643 -0.050966413 0)
(-0.059776426 -0.051441347 0)
(-0.038291241 -0.045013727 0)
(-0.01952048 -0.032755601 0)
(-0.0060923474 -0.017491873 0)
(-0.00051102249 -0.0035220292 0)
(-0.0017889389 0.013475487 0)
(-0.010269744 0.034960953 0)
(-0.025805577 0.049908768 0)
(-0.044466882 0.058794949 0)
(-0.064427886 0.06245852 0)
(-0.084477769 0.061551036 0)
(-0.10351683 0.056416151 0)
(-0.12050381 0.047182281 0)
(-0.13440427 0.033970387 0)
(-0.14417424 0.017132369 0)
(-0.14880377 -0.0025359496 0)
(-0.14739358 -0.02363649 0)
(-0.13931138 -0.044142745 0)
(-0.12443578 -0.061442291 0)
(-0.10343181 -0.072642495 0)
(-0.078056026 -0.075174087 0)
(-0.051260999 -0.067706887 0)
(-0.026809489 -0.051124266 0)
(-0.0086123116 -0.028965696 0)
(-0.00078707371 -0.0070521589 0)
(-0.002042039 0.019436565 0)
(-0.011605675 0.04852903 0)
(-0.028995853 0.06799849 0)
(-0.049757824 0.07922619 0)
(-0.07189176 0.083657565 0)
(-0.09416224 0.082297882 0)
(-0.11550022 0.075649808 0)
(-0.13491521 0.063876986 0)
(-0.15140348 0.047076025 0)
(-0.16388496 0.025567777 0)
(-0.17119258 0.00016300871 0)
(-0.17215475 -0.027610689 0)
(-0.16571585 -0.055396421 0)
(-0.15119214 -0.079945862 0)
(-0.12870074 -0.097351335 0)
(-0.09967012 -0.10369872 0)
(-0.067241912 -0.096286243 0)
(-0.036119164 -0.075220311 0)
(-0.011929745 -0.044539873 0)
(-0.0011708187 -0.012001497 0)
(-0.0022012908 0.026013415 0)
(-0.012484738 0.063419688 0)
(-0.031139962 0.087764602 0)
(-0.053354645 0.1014904 0)
(-0.077017828 0.10677726 0)
(-0.10091219 0.10507388 0)
(-0.12405022 0.09708828 0)
(-0.14555189 0.083021441 0)
(-0.16450976 0.062902226 0)
(-0.17987607 0.036930822 0)
(-0.19039935 0.0057955039 0)
(-0.1946558 -0.029033464 0)
(-0.19113641 -0.065018174 0)
(-0.17848987 -0.098391192 0)
(-0.15602501 -0.12417761 0)
(-0.124445 -0.13676295 0)
(-0.086646691 -0.13132922 0)
(-0.048063794 -0.10623295 0)
(-0.016429379 -0.065393296 0)
(-0.0017537942 -0.018878433 0)
(-0.0022557101 0.032933296 0)
(-0.012853724 0.079088581 0)
(-0.032098953 0.10853513 0)
(-0.054981892 0.12486438 0)
(-0.079334932 0.13109299 0)
(-0.10399429 0.12919938 0)
(-0.12810041 0.12015141 0)
(-0.15094516 0.10420152 0)
(-0.17179738 0.081278366 0)
(-0.18974477 0.051375581 0)
(-0.20357629 0.014915392 0)
(-0.21172913 -0.026876147 0)
(-0.21232522 -0.071532406 0)
(-0.20333821 -0.11502615 0)
(-0.18306285 -0.15144719 0)
(-0.15101795 -0.17328519 0)
(-0.10916563 -0.17282199 0)
(-0.063026397 -0.14524393 0)
(-0.022524981 -0.092978125 0)
(-0.0026589636 -0.028422206 0)
(-0.0022086337 0.039904541 0)
(-0.012717084 0.094944288 0)
(-0.031841306 0.12954024 0)
(-0.054496835 0.1484586 0)
(-0.078500102 0.15563556 0)
(-0.10277102 0.15366649 0)
(-0.12662144 0.14384607 0)
(-0.1495766 0.12651339 0)
(-0.17117093 0.10149252 0)
(-0.19075576 0.068517123 0)
(-0.20732709 0.027627547 0)
(-0.21937771 -0.020394284 0)
(-0.22488778 -0.073461985 0)
(-0.22130657 -0.12768886 0)
(-0.20585479 -0.17662065 0)
(-0.17647626 -0.21099209 0)
(-0.13334657 -0.21961321 0)
(-0.080899174 -0.19275398 0)
(-0.0306419 -0.12885264 0)
(-0.0040700733 -0.041637054 0)
(-0.0020933493 0.046663306 0)
(-0.012189727 0.1104186 0)
(-0.030536214 0.14996586 0)
(-0.052017595 0.17124306 0)
(-0.074465008 0.17919257 0)
(-0.096919918 0.17712114 0)
(-0.11891406 0.16672982 0)
(-0.14026651 0.14850278 0)
(-0.16086208 0.12219247 0)
(-0.18044322 0.087272644 0)
(-0.19840292 0.043352589 0)
(-0.21353681 -0.009389684 0)
(-0.2240146 -0.069676705 0)
(-0.22708287 -0.13413351 0)
(-0.21908959 -0.19645337 0)
(-0.19626649 -0.24625227 0)
(-0.15621928 -0.26886038 0)
(-0.10070625 -0.24798814 0)
(-0.041146017 -0.17433506 0)
(-0.0062706204 -0.059833947 0)
(-0.001996329 0.053057482 0)
(-0.011565502 0.12508354 0)
(-0.028660957 0.16904523 0)
(-0.04805662 0.19210919 0)
(-0.067638442 0.20035672 0)
(-0.086643892 0.19791288 0)
(-0.1048959 0.18696728 0)
(-0.12256943 0.16821862 0)
(-0.13996399 0.14140912 0)
(-0.15729758 0.10579906 0)
(-0.17451558 0.060571801 0)
(-0.19108368 0.0052257344 0)
(-0.20560158 -0.05992246 0)
(-0.21550585 -0.13260795 0)
(-0.21690136 -0.20752795 0)
(-0.20457804 -0.27431822 0)
(-0.17317489 -0.31571789 0)
(-0.12017097 -0.30807988 0)
(-0.054147488 -0.2298838 0)
(-0.0096749046 -0.08465317 0)
(-0.0020996016 0.059184289 0)
(-0.011414858 0.13881591 0)
(-0.027115372 0.18617344 0)
(-0.043624845 0.20994717 0)
(-0.058981221 0.21760161 0)
(-0.072777811 0.21419782 0)
(-0.085249945 0.20247368 0)
(-0.097001141 0.18339419 0)
(-0.10878858 0.15675622 0)
(-0.12135028 0.12168631 0)
(-0.13525394 0.077015431 0)
(-0.15070274 0.021618209 0)
(-0.16712204 -0.045110775 0)
(-0.18274002 -0.12251611 0)
(-0.19405355 -0.20712622 0)
(-0.19523505 -0.2901148 0)
(-0.17829426 -0.35358517 0)
(-0.13540546 -0.36743816 0)
(-0.069089021 -0.294153 0)
(-0.014795028 -0.11798449 0)
(-0.0027676955 0.065619972 0)
(-0.012740984 0.1519986 0)
(-0.027329957 0.20099733 0)
(-0.040244487 0.22368374 0)
(-0.049928522 0.22933094 0)
(-0.05664331 0.22403758 0)
(-0.061232431 0.21108065 0)
(-0.064815822 0.19168181 0)
(-0.068620496 0.16572046 0)
(-0.073874782 0.13227355 0)
(-0.081727978 0.089960263 0)
(-0.093119891 0.037200131 0)
(-0.10846908 -0.027479101 0)
(-0.12721366 -0.10497642 0)
(-0.14705412 -0.19422079 0)
(-0.16280339 -0.28948648 0)
(-0.16509071 -0.37509943 0)
(-0.14090146 -0.41772701 0)
(-0.084061563 -0.36281405 0)
(-0.022011634 -0.16157409 0)
(-0.0047195833 0.073834774 0)
(-0.017222406 0.16572643 0)
(-0.031284278 0.21337839 0)
(-0.039683085 0.23217428 0)
(-0.041883297 0.23380255 0)
(-0.039350849 0.22539471 0)
(-0.033812274 0.21061258 0)
(-0.027000073 0.19081086 0)
(-0.020591711 0.16589803 0)
(-0.016215125 0.13493927 0)
(-0.015476076 0.0964709 0)
(-0.019925298 0.048690005 0)
(-0.030918394 -0.010412736 0)
(-0.049234075 -0.082920518 0)
(-0.074398937 -0.17014318 0)
(-0.10327653 -0.27050259 0)
(-0.12725449 -0.37369538 0)
(-0.12973494 -0.44868782 0)
(-0.094914801 -0.42750698 0)
(-0.030930663 -0.21612806 0)
(-0.0092999999 0.086952161 0)
(-0.027432073 0.18185344 0)
(-0.040981544 0.22303364 0)
(-0.042679262 0.23378972 0)
(-0.034405103 0.22880245 0)
(-0.019622213 0.21592314 0)
(-0.0012379334 0.19878018 0)
(0.018346081 0.17856485 0)
(0.037072078 0.15508363 0)
(0.053056285 0.12735939 0)
(0.064422154 0.093936256 0)
(0.069231478 0.053014517 0)
(0.065415542 0.002462524 0)
(0.051047783 -0.060339431 0)
(0.024643236 -0.13837671 0)
(-0.013701777 -0.23417149 0)
(-0.058753708 -0.34517037 0)
(-0.093510883 -0.44954001 0)
(-0.094469902 -0.47558828 0)
(-0.039216115 -0.28048285 0)
(-0.018580312 0.11087147 0)
(-0.046039626 0.20177658 0)
(-0.055229937 0.22793173 0)
(-0.043984596 0.22501777 0)
(-0.019372089 0.2106131 0)
(0.012333899 0.19228019 0)
(0.046993693 0.17278509 0)
(0.081754828 0.15265408 0)
(0.11443857 0.13135289 0)
(0.14315388 0.10779554 0)
(0.1660174 0.080591571 0)
(0.18098165 0.04811208 0)
(0.18557645 0.0084491684 0)
(0.17716598 -0.040817637 0)
(0.15275966 -0.10317634 0)
(0.10948893 -0.18390633 0)
(0.047240611 -0.28855475 0)
(-0.021439235 -0.41051047 0)
(-0.072252931 -0.49101707 0)
(-0.041147483 -0.35054298 0)
(-0.033352239 0.15561542 0)
(-0.068601626 0.22040443 0)
(-0.05518727 0.21729228 0)
(-0.016078506 0.19532448 0)
(0.03451139 0.17092358 0)
(0.088508111 0.14849475 0)
(0.14176896 0.12861271 0)
(0.19196946 0.11057767 0)
(0.23754114 0.093297642 0)
(0.27712061 0.075575088 0)
(0.30921856 0.056181446 0)
(0.33204367 0.033823254 0)
(0.34317596 0.0070271857 0)
(0.33982907 -0.025910564 0)
(0.31813265 -0.067741849 0)
(0.27327734 -0.12410803 0)
(0.20044731 -0.20584716 0)
(0.10213983 -0.32506916 0)
(-0.012387258 -0.45457171 0)
(-0.023756653 -0.40864072 0)
(-0.03308111 0.23907315 0)
(-0.04264715 0.21792009 0)
(0.042207222 0.16426629 0)
(0.12760462 0.12783581 0)
(0.20769805 0.10143553 0)
(0.28028172 0.081658202 0)
(0.34487326 0.06664817 0)
(0.40158321 0.054703076 0)
(0.45055084 0.044399495 0)
(0.49162061 0.034639937 0)
(0.52416204 0.024550588 0)
(0.54698622 0.013381693 0)
(0.55822248 0.00039972576 0)
(0.5557095 -0.01513735 0)
(0.53552628 -0.034969201 0)
(0.49244662 -0.062488207 0)
(0.41797273 -0.10694763 0)
(0.30410595 -0.19317544 0)
(0.12313782 -0.33691905 0)
(0.052374207 -0.39437913 0)
(0.24299926 0.15257479 0)
(0.30529618 0.11854286 0)
(0.45481215 0.076108136 0)
(0.56000885 0.050840196 0)
(0.63223324 0.035126092 0)
(0.68654919 0.024812315 0)
(0.72943834 0.017960105 0)
(0.76379641 0.013255931 0)
(0.79127939 0.0097622051 0)
(0.81275157 0.0068543622 0)
(0.82841147 0.0041185183 0)
(0.83794404 0.0012768547 0)
(0.84057079 -0.0018442015 0)
(0.83497559 -0.0053262612 0)
(0.81886698 -0.0098289661 0)
(0.78942866 -0.01623275 0)
(0.73784287 -0.026935706 0)
(0.65316763 -0.05128655 0)
(0.45609767 -0.11374603 0)
(0.31788988 -0.17206002 0)
)
;

boundaryField
{
    movingWall
    {
        type            fixedValue;
        value           uniform (1 0 0);
    }
    fixedWalls
    {
        type            fixedValue;
        value           uniform (0 0 0);
    }
    frontAndBack
    {
        type            empty;
    }
}


// ************************************************************************* //
