/*--------------------------------*- C++ -*----------------------------------*\
| =========                 |                                                 |
| \\      /  F ield         | OpenFOAM: The Open Source CFD Toolbox           |
|  \\    /   O peration     | Version:  2112                                  |
|   \\  /    A nd           | Website:  www.openfoam.com                      |
|    \\/     M anipulation  |                                                 |
\*---------------------------------------------------------------------------*/
FoamFile
{
    version     2.0;
    format      ascii;
    arch        "LSB;label=32;scalar=64";
    class       volScalarField;
    location    "26.5";
    object      p;
}
// * * * * * * * * * * * * * * * * * * * * * * * * * * * * * * * * * * * * * //

dimensions      [0 2 -2 0 0 0 0];

internalField   nonuniform List<scalar> 
8800
(
0.514652
0.466864
0.428171
0.39917
0.378296
0.363447
0.352823
0.345304
0.340427
0.338279
0.339428
0.343503
0.350051
0.359292
0.372016
0.389713
0.414463
0.448384
0.490918
0.549617
0.345912
0.35359
0.361057
0.364362
0.362852
0.357763
0.351259
0.345154
0.340381
0.337457
0.337063
0.339441
0.343819
0.349674
0.356373
0.362602
0.366207
0.36545
0.360003
0.351299
0.324333
0.330494
0.33462
0.33756
0.339601
0.34019
0.339059
0.336913
0.334831
0.333818
0.334645
0.336895
0.339584
0.341674
0.34221
0.340957
0.338571
0.335146
0.330572
0.326806
0.318559
0.32121
0.323964
0.326367
0.327998
0.329147
0.329863
0.329937
0.329567
0.329397
0.33
0.331024
0.331732
0.331687
0.330988
0.329825
0.327951
0.325334
0.322904
0.3214
0.313231
0.314657
0.316444
0.318484
0.32027
0.321603
0.322567
0.323314
0.323845
0.324279
0.324752
0.32507
0.325013
0.324592
0.323781
0.322435
0.320658
0.318745
0.317404
0.316574
0.308222
0.309143
0.310403
0.311992
0.313642
0.315175
0.316447
0.317467
0.318339
0.319079
0.319558
0.319669
0.31943
0.318812
0.317773
0.316434
0.314991
0.31364
0.312775
0.312229
0.303426
0.304094
0.305083
0.306424
0.307867
0.309348
0.310791
0.312081
0.313183
0.314108
0.314677
0.314776
0.314431
0.313681
0.312662
0.31153
0.310359
0.309316
0.308683
0.308287
0.29879
0.299301
0.300125
0.30132
0.302656
0.30407
0.305537
0.306993
0.30833
0.309458
0.310159
0.310284
0.309913
0.309212
0.308332
0.307359
0.306369
0.305525
0.305035
0.304734
0.294288
0.294686
0.295388
0.296481
0.297764
0.299139
0.300594
0.302104
0.303598
0.304949
0.305823
0.306066
0.305834
0.305297
0.304577
0.303747
0.3029
0.302211
0.30183
0.301595
0.289866
0.290177
0.290799
0.29184
0.2931
0.29447
0.295948
0.297525
0.299167
0.300751
0.301858
0.302309
0.302279
0.301926
0.301362
0.30067
0.299936
0.299359
0.299059
0.298878
0.285507
0.285749
0.286309
0.287319
0.288575
0.289983
0.291552
0.293251
0.295039
0.296845
0.298284
0.299065
0.299285
0.2991
0.298674
0.298116
0.297496
0.29702
0.296789
0.296648
0.281161
0.281342
0.28186
0.28287
0.284153
0.285607
0.287246
0.289111
0.291192
0.29337
0.295175
0.296246
0.296715
0.296776
0.296556
0.296132
0.295617
0.295225
0.295057
0.294952
0.27685
0.276969
0.277438
0.278425
0.27972
0.281214
0.282929
0.284911
0.287193
0.28975
0.292053
0.293634
0.294544
0.294953
0.294985
0.294765
0.294407
0.29413
0.294027
0.293957
0.272607
0.272671
0.273094
0.274045
0.275354
0.276922
0.278797
0.281067
0.28377
0.286867
0.289759
0.291839
0.293133
0.293855
0.294199
0.294226
0.294073
0.293938
0.293897
0.293849
0.268194
0.26825
0.268606
0.269464
0.270717
0.27231
0.274314
0.276827
0.279952
0.283689
0.287334
0.290099
0.292005
0.293245
0.293979
0.294383
0.29455
0.294614
0.294636
0.294593
0.263177
0.263221
0.263563
0.264389
0.265685
0.267413
0.26968
0.272626
0.276361
0.280927
0.285486
0.289055
0.291581
0.293325
0.294545
0.295316
0.295768
0.296004
0.296071
0.296023
0.257277
0.25732
0.257678
0.258541
0.259963
0.261924
0.264552
0.268036
0.272559
0.278175
0.283862
0.288398
0.291708
0.294073
0.295745
0.296893
0.297642
0.298031
0.298132
0.298077
0.25017
0.250215
0.250645
0.25163
0.253269
0.255583
0.258735
0.262974
0.268515
0.275448
0.282532
0.288228
0.292428
0.295476
0.297674
0.299228
0.300261
0.300778
0.300902
0.300837
0.241523
0.241573
0.242103
0.243315
0.245317
0.248161
0.252062
0.257333
0.264224
0.272828
0.281602
0.288661
0.2939
0.297713
0.300473
0.302447
0.30374
0.304365
0.304525
0.304453
0.230993
0.231044
0.231709
0.233247
0.235774
0.239354
0.244278
0.250898
0.259512
0.270204
0.281044
0.289736
0.296157
0.300862
0.304324
0.3068
0.308363
0.309104
0.3093
0.309218
0.218121
0.218169
0.219002
0.220988
0.22427
0.228888
0.235188
0.243593
0.254411
0.26768
0.281004
0.291648
0.299523
0.305285
0.309532
0.312476
0.314358
0.31525
0.315494
0.315397
0.202319
0.202368
0.203436
0.20602
0.210317
0.216354
0.22451
0.235251
0.248856
0.265283
0.281573
0.294502
0.304065
0.311076
0.31619
0.319766
0.322011
0.323103
0.323397
0.323281
0.182547
0.182619
0.184053
0.187493
0.19321
0.201215
0.211896
0.225716
0.24286
0.26313
0.282906
0.29848
0.30999
0.318438
0.324579
0.328875
0.331575
0.332891
0.333233
0.33309
0.157076
0.157203
0.159261
0.164106
0.17196
0.182797
0.197023
0.214938
0.236532
0.261396
0.285185
0.303738
0.317425
0.327492
0.334828
0.339986
0.343251
0.344821
0.345201
0.345022
0.122891
0.123173
0.126522
0.133964
0.145406
0.160582
0.179796
0.20307
0.230127
0.260344
0.288625
0.310438
0.326496
0.338347
0.347045
0.353224
0.357151
0.358994
0.359398
0.359171
0.0741768
0.0753906
0.0821736
0.0949855
0.112662
0.134489
0.160546
0.190575
0.224086
0.2603
0.293415
0.31866
0.337207
0.350964
0.361179
0.368561
0.373266
0.37541
0.375815
0.375525
0.00174865
0.0096236
0.0252893
0.0479937
0.0750797
0.105824
0.14026
0.178089
0.218799
0.261613
0.300048
0.329139
0.350561
0.366612
0.378774
0.38779
0.393689
0.396474
0.397065
0.396868
-0.0759701
-0.0579227
-0.032611
0.000407134
0.0371728
0.0770169
0.119962
0.165829
0.214207
0.264448
0.309326
0.343398
0.368704
0.387919
0.402792
0.414225
0.421762
0.425459
0.426578
0.426573
-0.139645
-0.11872
-0.0855674
-0.0440552
0.0012813
0.0496092
0.100727
0.154409
0.210232
0.267561
0.318452
0.357024
0.385747
0.407683
0.424695
0.437648
0.446683
0.451265
0.452104
0.452211
-0.191542
-0.168762
-0.130483
-0.0829397
-0.0308803
0.0245096
0.0827804
0.143545
0.206266
0.2702
0.326564
0.369067
0.400602
0.424587
0.443169
0.457343
0.46745
0.472286
0.473291
0.4735
-0.234546
-0.210748
-0.168908
-0.116612
-0.059201
0.00196746
0.0663181
0.133308
0.202218
0.272142
0.333415
0.379287
0.413091
0.438679
0.458409
0.473457
0.484
0.489316
0.490681
0.490918
-0.271305
-0.246903
-0.20239
-0.146372
-0.0844876
-0.0184237
0.0511679
0.123625
0.198082
0.273413
0.339083
0.387886
0.423554
0.450335
0.470825
0.4864
0.497109
0.502762
0.504349
0.504592
-0.303736
-0.278952
-0.232358
-0.173228
-0.107609
-0.0373133
0.0369007
0.114252
0.193742
0.274045
0.343758
0.395198
0.432452
0.460137
0.481084
0.496861
0.507685
0.513439
0.515119
0.515309
-0.333275
-0.308142
-0.259855
-0.198057
-0.129213
-0.0552138
0.0231094
0.104896
0.189033
0.274012
0.347571
0.401509
0.440237
0.468699
0.490002
0.505868
0.516713
0.522513
0.524303
0.52447
-0.360786
-0.335339
-0.285558
-0.221502
-0.149817
-0.0725385
0.00947468
0.0953151
0.183792
0.273236
0.350577
0.407016
0.447209
0.476479
0.498173
0.514184
0.525042
0.530784
0.532656
0.532841
-0.386982
-0.361163
-0.310012
-0.243978
-0.169764
-0.0895653
-0.00422462
0.0853339
0.177878
0.271639
0.35276
0.411802
0.453607
0.483811
0.505979
0.522178
0.533074
0.538717
0.540563
0.540768
-0.41215
-0.385929
-0.333677
-0.265771
-0.189294
-0.106481
-0.0181346
0.074836
0.171199
0.269152
0.354132
0.415986
0.459617
0.49091
0.513688
0.530181
0.541161
0.546744
0.548461
0.548602
-0.436633
-0.409889
-0.356653
-0.287055
-0.208575
-0.123414
-0.0323428
0.0637544
0.163694
0.265736
0.354695
0.419586
0.465267
0.497869
0.521424
0.538325
0.549421
0.554949
0.556507
0.556562
-0.460497
-0.433346
-0.379058
-0.307955
-0.227676
-0.140409
-0.0468869
0.0520648
0.155345
0.26135
0.354348
0.422521
0.470566
0.50472
0.529221
0.546626
0.55786
0.563293
0.564716
0.564652
-0.483826
-0.456164
-0.400991
-0.328512
-0.246618
-0.157475
-0.0617627
0.0397698
0.146133
0.255909
0.352977
0.424709
0.475459
0.511453
0.537081
0.555068
0.566419
0.571695
0.572941
0.572778
-0.506709
-0.478493
-0.422433
-0.348724
-0.2654
-0.174588
-0.0769305
0.0269025
0.136058
0.249375
0.350506
0.426023
0.479842
0.518031
0.545003
0.563629
0.575049
0.580059
0.581086
0.580847
-0.529143
-0.500317
-0.443394
-0.368566
-0.283967
-0.191696
-0.0923326
0.0135176
0.125166
0.241752
0.346839
0.426297
0.483564
0.524395
0.553015
0.572317
0.58365
0.588267
0.589036
0.588728
-0.550957
-0.521564
-0.463828
-0.387997
-0.302269
-0.208724
-0.107896
-0.000291755
0.113539
0.233067
0.341891
0.425365
0.486411
0.530429
0.561189
0.581267
0.592221
0.596163
0.596604
0.596244
-0.572114
-0.542183
-0.483696
-0.406958
-0.320244
-0.225604
-0.123517
-0.0144335
0.101266
0.223358
0.335625
0.423056
0.488127
0.535916
0.569587
0.590844
0.601038
0.603686
0.603607
0.603238
-0.592677
-0.562136
-0.502959
-0.425405
-0.337822
-0.242246
-0.139104
-0.0287979
0.0884489
0.212712
0.328019
0.419231
0.488402
0.540456
0.57809
0.601626
0.611079
0.611343
0.609964
0.609715
-0.612473
-0.5814
-0.521559
-0.443271
-0.354941
-0.258568
-0.154561
-0.0432707
0.0752166
0.201249
0.319106
0.413776
0.486927
0.543429
0.586101
0.613899
0.624295
0.621792
0.617171
0.615933
-0.631586
-0.599966
-0.539518
-0.460582
-0.371633
-0.274618
-0.169945
-0.0579119
0.0615009
0.188897
0.308763
0.406441
0.483387
0.544025
0.592316
0.626743
0.642016
0.641057
0.630552
0.612324
-0.649951
-0.617834
-0.556958
-0.477527
-0.38819
-0.290727
-0.185673
-0.0732101
0.0467482
0.174989
0.296296
0.39635
0.477067
0.541014
0.59389
0.635744
0.656676
0.649554
0.635204
0.614863
-0.667403
-0.635147
-0.573698
-0.493859
-0.404318
-0.306549
-0.201517
-0.0888321
0.0312869
0.159834
0.28189
0.383234
0.467494
0.533621
0.585641
0.628428
0.650879
0.635643
0.564014
0.528915
-0.683305
-0.653031
-0.589398
-0.508996
-0.419309
-0.321607
-0.217186
-0.104556
0.0153369
0.143579
0.265557
0.366972
0.453717
0.522192
0.56418
0.596656
0.603289
0.554602
0.481241
0.435136
-0.738674
-0.668556
-0.603756
-0.524192
-0.434583
-0.337279
-0.232743
-0.120643
-0.00143869
0.125826
0.246804
0.347226
0.432771
0.508289
0.511213
0.527625
0.495526
0.431072
0.352201
0.307616
-0.699817
-0.684075
-0.624571
-0.545781
-0.456707
-0.359769
-0.256309
-0.145177
-0.027434
0.0976499
0.215515
0.312797
0.389768
0.463743
0.463673
0.356489
0.24993
0.176739
0.101118
0.138248
-0.730324
-0.701453
-0.641287
-0.562803
-0.47393
-0.377361
-0.273801
-0.163484
-0.0470685
0.0758146
0.190329
0.283276
0.352688
0.392073
0.346466
0.198506
0.0649578
-0.0296806
-0.133591
-0.0759174
-0.753783
-0.721876
-0.660663
-0.581844
-0.492999
-0.396607
-0.293276
-0.183963
-0.0691825
0.0509848
0.161452
0.248689
0.308413
0.317252
0.210502
0.0266023
-0.137036
-0.263842
-0.40431
-0.362785
-0.776582
-0.743155
-0.680853
-0.60124
-0.512259
-0.416034
-0.313314
-0.205119
-0.0921419
0.0250032
0.130686
0.211577
0.25702
0.231129
0.0682472
-0.14403
-0.352237
-0.540777
-0.747727
-0.749387
-0.798556
-0.764878
-0.70175
-0.62145
-0.532302
-0.4363
-0.334292
-0.227315
-0.116366
-0.00256345
0.0978012
0.171646
0.199818
0.139047
-0.0678884
-0.297863
-0.539055
-0.756681
-1.02889
-1.36615
-0.820725
-0.787171
-0.723602
-0.642852
-0.553527
-0.457701
-0.356328
-0.250583
-0.141737
-0.0314531
0.0634382
0.129417
0.140273
0.0282162
-0.186547
-0.417029
-0.647965
-0.845433
-0.92165
-1.03214
-0.843885
-0.810454
-0.746702
-0.66576
-0.576382
-0.480815
-0.380165
-0.275809
-0.169359
-0.0630515
0.0259536
0.0825969
0.0689478
-0.0848578
-0.291248
-0.5024
-0.686201
-0.793882
-0.818189
-0.838778
-0.868368
-0.83504
-0.771191
-0.690226
-0.600958
-0.505803
-0.406094
-0.30341
-0.199756
-0.0980344
-0.0153822
0.0298245
-0.00708531
-0.188578
-0.385893
-0.571558
-0.713996
-0.763003
-0.778243
-0.780766
-0.894371
-0.861005
-0.797108
-0.7162
-0.627166
-0.532621
-0.434075
-0.333371
-0.232933
-0.136385
-0.0606518
-0.0288952
-0.0838294
-0.285849
-0.473799
-0.640438
-0.741133
-0.753665
-0.756587
-0.756834
-0.921865
-0.888407
-0.824442
-0.743631
-0.654964
-0.561193
-0.46404
-0.365623
-0.268808
-0.177957
-0.110035
-0.0906514
-0.176006
-0.375453
-0.555309
-0.696744
-0.73782
-0.745242
-0.745977
-0.745144
-0.950536
-0.916896
-0.853062
-0.772382
-0.684202
-0.591387
-0.495863
-0.400034
-0.307257
-0.222544
-0.162964
-0.155785
-0.275325
-0.459934
-0.623722
-0.731878
-0.735989
-0.737124
-0.737965
-0.737503
-0.979803
-0.946169
-0.88261
-0.802186
-0.714625
-0.622953
-0.529283
-0.436343
-0.347958
-0.269869
-0.218329
-0.23248
-0.365803
-0.536319
-0.684279
-0.723158
-0.738603
-0.734348
-0.731588
-0.730694
-1.00925
-0.975834
-0.912524
-0.832601
-0.745816
-0.655469
-0.563883
-0.474109
-0.390399
-0.319292
-0.275524
-0.306011
-0.457108
-0.601754
-0.720314
-0.765287
-0.745763
-0.732117
-0.726185
-0.723788
-1.03795
-1.00505
-0.942206
-0.862968
-0.777165
-0.688346
-0.599053
-0.512656
-0.433867
-0.369765
-0.335282
-0.379865
-0.552807
-0.664035
-0.727799
-0.747856
-0.746788
-0.739916
-0.735058
-0.732739
-1.06467
-1.03244
-0.970806
-0.892444
-0.80784
-0.720758
-0.633943
-0.55103
-0.477357
-0.420369
-0.395268
-0.453031
-0.651417
-0.774295
-0.695608
-0.742426
-0.796898
-0.821701
-0.822812
-0.819371
-1.08802
-1.05695
-0.997011
-0.919922
-0.836823
-0.751655
-0.667437
-0.588025
-0.519378
-0.469991
-0.45086
-0.531159
-0.754474
-1.00623
-1.12992
-1.06008
-1.0285
-1.02954
-1.01836
-1.00667
-1.10631
-1.07706
-1.01925
-0.944079
-0.862839
-0.779772
-0.698141
-0.622157
-0.557975
-0.516074
-0.502702
-0.608597
-0.849852
-1.15883
-1.54538
-1.273
-1.16081
-1.14842
-1.14951
-1.15019
-1.11784
-1.09112
-1.03619
-0.963381
-0.884372
-0.803628
-0.724491
-0.651519
-0.591028
-0.555108
-0.554261
-0.66719
-0.835319
-0.743508
-0.417508
-0.772128
-1.17749
-1.25207
-1.2351
-1.22952
-1.12064
-1.0975
-1.04625
-0.976403
-0.89994
-0.821653
-0.744802
-0.673777
-0.61618
-0.583772
-0.595558
-0.719056
-0.868497
-0.793844
-0.758423
-1.10602
-1.31323
-1.3065
-1.22904
-1.25021
-1.11363
-1.0945
-1.04794
-0.98194
-0.908336
-0.832424
-0.75729
-0.687092
-0.629466
-0.598723
-0.618979
-0.80728
-1.31351
-2.16558
-2.90584
-3.36152
-3.17297
-2.67132
-2.22583
-2.07874
-1.09527
-1.08001
-1.04016
-0.979208
-0.908837
-0.835062
-0.76072
-0.689735
-0.628193
-0.589281
-0.603446
-0.814486
-1.44118
-2.30419
-3.0263
-3.38371
-3.2902
-2.98531
-2.61815
-2.43573
-1.06672
-1.05596
-1.02317
-0.968472
-0.901537
-0.829556
-0.754942
-0.680557
-0.611305
-0.553195
-0.536684
-0.587867
-0.825623
-1.045
-1.19493
-1.0947
-0.838228
-0.557501
-0.343274
-0.236856
-1.03131
-1.02473
-0.99972
-0.951592
-0.888069
-0.817188
-0.741259
-0.661679
-0.580068
-0.498084
-0.407579
-0.278895
-0.0778252
0.328809
0.828367
1.31985
1.70859
1.95451
2.07503
2.10991
-0.99355
-0.989864
-0.973469
-0.931815
-0.871309
-0.800924
-0.722873
-0.638137
-0.54412
-0.438508
-0.309456
-0.165419
0.149643
0.740271
1.41194
2.01722
2.45744
2.70998
2.82148
2.85361
-0.958214
-0.955974
-0.946605
-0.912994
-0.855602
-0.784306
-0.704381
-0.615778
-0.518925
-0.405035
-0.280518
-0.142015
0.040761
0.496669
1.05133
1.52876
1.87381
2.0701
2.15846
2.18493
-0.924775
-0.923633
-0.920525
-0.896357
-0.841742
-0.768994
-0.687956
-0.600458
-0.505749
-0.398354
-0.289385
-0.178134
-0.0624327
0.214643
0.616082
0.953256
1.20263
1.35238
1.42613
1.44828
-0.903227
-0.903858
-0.903738
-0.882347
-0.825514
-0.75062
-0.670311
-0.586903
-0.498507
-0.402612
-0.310924
-0.230572
-0.157316
0.00251968
0.269232
0.505547
0.681862
0.786069
0.832652
0.842526
-0.867072
-0.870461
-0.871665
-0.850427
-0.793087
-0.720329
-0.645137
-0.569638
-0.491401
-0.409375
-0.335796
-0.282311
-0.234133
-0.136496
0.0413087
0.197211
0.309261
0.37414
0.403597
0.410845
-0.778778
-0.782317
-0.783064
-0.76609
-0.723203
-0.66699
-0.607248
-0.545764
-0.481085
-0.413115
-0.355942
-0.322784
-0.299065
-0.232406
-0.109317
-0.00648229
0.0640636
0.102804
0.118743
0.12046
-0.655936
-0.657397
-0.657507
-0.649548
-0.628707
-0.598097
-0.560437
-0.516884
-0.46738
-0.412813
-0.367651
-0.346547
-0.338222
-0.29363
-0.20724
-0.136237
-0.0912278
-0.067974
-0.059202
-0.0589806
-0.552108
-0.552305
-0.552792
-0.552071
-0.547144
-0.535719
-0.516386
-0.488555
-0.452162
-0.408101
-0.368659
-0.345434
-0.337796
-0.300598
-0.244764
-0.202453
-0.175616
-0.161403
-0.15585
-0.156233
-0.4898
-0.4898
-0.490823
-0.493166
-0.494529
-0.491942
-0.48277
-0.465144
-0.438105
-0.400784
-0.362488
-0.330868
-0.304874
-0.272687
-0.240193
-0.219611
-0.206583
-0.198999
-0.195922
-0.196866
-0.461001
-0.461091
-0.4621
-0.464611
-0.466889
-0.466676
-0.461736
-0.449241
-0.427037
-0.394898
-0.355631
-0.316563
-0.275598
-0.247789
-0.235918
-0.22615
-0.21699
-0.211078
-0.20783
-0.208869
-0.452848
-0.452788
-0.453243
-0.454868
-0.456435
-0.456134
-0.452055
-0.441502
-0.422104
-0.391852
-0.354648
-0.317128
-0.276038
-0.253424
-0.247274
-0.235683
-0.223085
-0.21072
-0.206836
-0.209265
-0.459706
-0.459323
-0.459036
-0.459444
-0.459691
-0.458264
-0.453448
-0.442814
-0.423228
-0.393563
-0.359972
-0.332677
-0.308346
-0.295737
-0.284489
-0.265379
-0.245321
-0.230495
-0.224751
-0.226782
-0.480871
-0.480174
-0.479316
-0.478654
-0.477419
-0.474251
-0.467664
-0.455533
-0.433848
-0.401722
-0.369521
-0.354041
-0.355053
-0.361218
-0.334301
-0.302193
-0.278282
-0.266668
-0.262513
-0.263738
-0.516587
-0.515751
-0.514443
-0.512959
-0.510566
-0.506032
-0.498055
-0.484277
-0.459611
-0.422085
-0.382777
-0.362122
-0.378094
-0.386148
-0.356956
-0.324922
-0.302371
-0.289659
-0.287854
-0.288873
-0.566812
-0.565779
-0.564375
-0.562654
-0.560106
-0.555988
-0.549199
-0.53696
-0.513194
-0.470981
-0.413995
-0.366524
-0.365344
-0.372254
-0.348013
-0.317741
-0.297566
-0.287714
-0.285731
-0.285367
-0.630997
-0.630027
-0.628978
-0.627985
-0.627249
-0.627101
-0.627458
-0.626443
-0.618487
-0.585782
-0.504018
-0.411134
-0.376546
-0.373411
-0.340979
-0.299326
-0.262795
-0.247172
-0.247671
-0.248861
-0.705553
-0.705095
-0.705273
-0.706655
-0.71084
-0.720215
-0.737849
-0.766667
-0.804796
-0.812839
-0.701187
-0.545159
-0.465482
-0.433701
-0.372225
-0.301868
-0.245307
-0.220651
-0.225241
-0.225409
-0.781468
-0.782067
-0.78446
-0.790136
-0.802829
-0.828253
-0.875653
-0.958948
-1.08355
-1.1708
-1.03185
-0.783888
-0.638097
-0.556706
-0.443774
-0.323446
-0.239384
-0.216182
-0.222801
-0.227234
-0.842775
-0.844813
-0.850039
-0.861281
-0.884821
-0.930663
-1.01689
-1.17456
-1.42234
-1.62513
-1.45659
-1.0951
-0.873759
-0.737293
-0.572784
-0.434418
-0.349633
-0.340426
-0.343941
-0.348811
-0.869381
-0.87282
-0.880598
-0.896814
-0.930034
-0.99445
-1.11676
-1.34439
-1.70572
-2.00915
-1.82858
-1.39405
-1.12038
-0.935071
-0.751514
-0.622007
-0.575918
-0.567602
-0.567018
-0.569888
-0.84425
-0.848257
-0.857108
-0.875795
-0.913906
-0.987346
-1.12669
-1.3862
-1.80259
-2.16064
-2.01378
-1.56805
-1.29332
-1.11764
-0.958568
-0.852351
-0.828786
-0.822077
-0.819271
-0.820669
-0.761797
-0.765573
-0.773821
-0.791333
-0.827309
-0.89648
-1.02829
-1.27473
-1.6562
-1.97176
-1.86822
-1.53116
-1.36328
-1.26007
-1.19738
-1.12545
-1.08236
-1.06451
-1.05615
-1.05516
-0.633187
-0.635757
-0.641703
-0.654995
-0.683017
-0.737421
-0.841356
-1.03681
-1.33308
-1.54295
-1.46937
-1.32232
-1.26491
-1.34414
-1.44456
-1.35925
-1.28134
-1.24001
-1.21938
-1.21264
-0.479818
-0.48124
-0.484439
-0.492364
-0.510092
-0.545445
-0.613888
-0.745254
-0.955793
-1.10832
-1.07608
-1.03188
-1.05625
-1.23233
-1.42291
-1.36094
-1.26865
-1.21738
-1.1917
-1.18202
-0.327696
-0.327853
-0.32863
-0.331749
-0.34015
-0.358047
-0.393793
-0.465057
-0.595576
-0.720044
-0.730803
-0.717063
-0.710686
-0.844429
-1.02066
-1.01359
-0.97232
-0.947362
-0.934437
-0.928317
-0.195176
-0.194594
-0.194023
-0.194236
-0.196483
-0.202208
-0.214422
-0.23997
-0.293225
-0.367501
-0.366219
-0.334359
-0.349187
-0.458119
-0.568717
-0.588818
-0.58672
-0.585316
-0.585236
-0.584347
-0.0912258
-0.090475
-0.0897878
-0.0893783
-0.0891455
-0.0891038
-0.0895745
-0.0908644
-0.0917807
-0.0916287
-0.11076
-0.0996059
-0.134353
-0.201759
-0.249233
-0.262971
-0.269615
-0.273902
-0.277475
-0.278608
-0.0146978
-0.0144963
-0.0137064
-0.0127841
-0.0120674
-0.0116452
-0.0111012
-0.0100597
-0.00787829
-0.00365209
0.00036282
0.00173348
-0.014451
-0.0260095
-0.0393823
-0.0374478
-0.0427227
-0.0442009
-0.045397
-0.0466618
-0.495101
-0.303467
-0.0807148
0.107767
0.259849
0.381496
0.48335
0.569305
0.607747
0.585024
-0.146608
-0.0106775
0.133715
0.258642
0.364502
0.452753
0.524303
0.57512
0.601074
0.612771
0.0987714
0.191014
0.28875
0.375506
0.450358
0.513076
0.562892
0.599254
0.625183
0.642741
0.27535
0.339556
0.408
0.470659
0.525075
0.571207
0.608951
0.63887
0.662993
0.681024
0.410749
0.457549
0.507254
0.554617
0.596362
0.632669
0.663588
0.689135
0.71035
0.728029
0.521202
0.556335
0.596853
0.634695
0.669271
0.700112
0.726938
0.749353
0.767755
0.78503
0.617554
0.647578
0.683225
0.716755
0.747923
0.776115
0.80067
0.820985
0.836873
0.853933
0.708539
0.738577
0.773611
0.806521
0.836886
0.864125
0.887516
0.906393
0.920037
0.937083
0.805362
0.838992
0.876288
0.910432
0.940967
0.967572
0.989864
1.0074
1.01946
1.03688
0.921379
0.959273
0.998359
1.03301
1.06266
1.08766
1.10824
1.1243
1.1359
1.15399
1.06699
1.10574
1.14191
1.17279
1.19865
1.22089
1.24008
1.25571
1.26822
1.28624
1.24208
1.27402
1.30033
1.32285
1.34292
1.36173
1.37952
1.39606
1.41146
1.42954
1.43089
1.44821
1.46339
1.47971
1.49567
1.51025
1.5235
1.53746
1.55504
1.57521
1.61295
1.62238
1.63395
1.6448
1.65411
1.66374
1.67458
1.68598
1.69737
1.71273
1.82008
1.82378
1.80886
1.79406
1.78784
1.79355
1.81204
1.84238
1.87457
1.90123
2.12643
1.99157
1.91496
1.87266
1.85526
1.85923
1.88665
1.94307
2.0457
2.27007
0.40525
0.403119
0.398633
0.390003
0.377771
0.365631
0.355384
0.347457
0.341787
0.33845
0.337976
0.34058
0.345569
0.3527
0.362018
0.373505
0.386117
0.397125
0.403225
0.406268
0.329713
0.335559
0.341897
0.346385
0.348848
0.348512
0.345757
0.341916
0.338352
0.336002
0.335728
0.337785
0.341323
0.345512
0.349241
0.351066
0.350085
0.346568
0.341377
0.334744
0.321319
0.323615
0.327018
0.330012
0.332083
0.333569
0.334305
0.333954
0.332869
0.331888
0.331922
0.333195
0.334874
0.336064
0.33615
0.335186
0.333579
0.331197
0.327903
0.32497
0.315846
0.316931
0.318768
0.321152
0.323179
0.324603
0.325606
0.326318
0.326653
0.326769
0.327102
0.32773
0.328164
0.328093
0.327566
0.326622
0.325073
0.322923
0.320789
0.319391
0.310699
0.31136
0.312475
0.314193
0.315986
0.317622
0.318908
0.319887
0.320696
0.321364
0.32191
0.322247
0.322244
0.321906
0.32119
0.320006
0.31847
0.316837
0.315458
0.314663
0.305799
0.306255
0.307053
0.308382
0.309898
0.311437
0.312907
0.31418
0.315245
0.316166
0.316866
0.317172
0.317067
0.316566
0.315667
0.314502
0.313224
0.311964
0.310968
0.310437
0.301091
0.301429
0.302056
0.30317
0.304516
0.305931
0.307394
0.308833
0.310142
0.311264
0.312114
0.312495
0.312358
0.31178
0.310909
0.309898
0.308841
0.307805
0.307033
0.306641
0.296527
0.296783
0.297295
0.298267
0.299508
0.300861
0.302286
0.303768
0.305246
0.306604
0.307648
0.308119
0.308014
0.307518
0.306792
0.305937
0.305027
0.304167
0.303555
0.303257
0.29207
0.292265
0.292692
0.293574
0.294768
0.296094
0.297506
0.299006
0.300566
0.302102
0.303369
0.30403
0.304112
0.303804
0.303247
0.302538
0.301751
0.30102
0.300527
0.300297
0.287683
0.287828
0.288191
0.289011
0.290174
0.291494
0.292943
0.294513
0.296186
0.297908
0.299435
0.300374
0.300703
0.300602
0.300204
0.299633
0.29898
0.298363
0.297969
0.297795
0.283335
0.283438
0.283754
0.284542
0.285714
0.28707
0.288592
0.290299
0.29217
0.294138
0.29599
0.297283
0.297885
0.297981
0.297748
0.297314
0.296772
0.296248
0.295934
0.295806
0.278992
0.279054
0.279324
0.280083
0.28126
0.282644
0.284195
0.285972
0.28802
0.290316
0.292588
0.29428
0.295244
0.295693
0.295756
0.295536
0.295142
0.294729
0.294499
0.294417
0.274723
0.27475
0.274979
0.275696
0.276865
0.278291
0.279944
0.281902
0.284201
0.286841
0.28962
0.29188
0.293321
0.294112
0.294459
0.294473
0.294275
0.294016
0.293883
0.293841
0.270455
0.270453
0.270643
0.271292
0.272406
0.273836
0.275568
0.277718
0.280363
0.283544
0.286979
0.28985
0.291822
0.293077
0.293759
0.294115
0.294238
0.294214
0.294196
0.294179
0.265782
0.26578
0.265949
0.266532
0.26759
0.26904
0.270898
0.273291
0.276331
0.280094
0.284321
0.288041
0.290696
0.292518
0.293729
0.294498
0.294956
0.295186
0.295286
0.295285
0.260359
0.260342
0.260522
0.261106
0.262213
0.263788
0.265896
0.2687
0.27235
0.276949
0.282181
0.286842
0.290266
0.292703
0.294415
0.295604
0.296373
0.296837
0.297029
0.297036
0.253892
0.253868
0.25408
0.254726
0.255941
0.257728
0.260187
0.263506
0.267899
0.273515
0.280002
0.285871
0.290252
0.293433
0.295715
0.297344
0.298475
0.29916
0.299427
0.299439
0.246056
0.246025
0.246286
0.247072
0.248508
0.250644
0.253629
0.257711
0.263141
0.2701
0.278141
0.285437
0.290903
0.294918
0.297815
0.299919
0.301397
0.302271
0.302597
0.302616
0.236505
0.236458
0.236789
0.237778
0.239566
0.24222
0.245951
0.251052
0.257827
0.266487
0.276453
0.285464
0.292238
0.297209
0.300794
0.303418
0.305294
0.306364
0.306758
0.306787
0.224846
0.224781
0.225198
0.226467
0.228758
0.232151
0.236909
0.24338
0.251914
0.262713
0.27504
0.286128
0.29442
0.300508
0.304975
0.30825
0.310461
0.311721
0.312202
0.312243
0.21056
0.210468
0.211011
0.212649
0.215636
0.220051
0.226215
0.234499
0.245292
0.258777
0.273969
0.28751
0.297626
0.305058
0.310491
0.314428
0.317101
0.318609
0.3192
0.319255
0.192885
0.192774
0.193523
0.195673
0.199575
0.205397
0.213462
0.22417
0.237891
0.254711
0.273338
0.289764
0.301999
0.310999
0.317575
0.322303
0.325505
0.327333
0.328044
0.328102
0.170425
0.170305
0.171411
0.17438
0.179599
0.187459
0.198184
0.212183
0.229688
0.250624
0.273319
0.293068
0.307706
0.318481
0.32636
0.332025
0.335874
0.338083
0.338922
0.338979
0.140904
0.140823
0.142605
0.146978
0.154398
0.165356
0.179955
0.198429
0.22079
0.246722
0.274124
0.297597
0.314895
0.327638
0.336989
0.34375
0.34838
0.351023
0.351993
0.352037
0.100185
0.100292
0.10357
0.110865
0.122342
0.138367
0.158658
0.183142
0.21155
0.243338
0.276009
0.30352
0.323664
0.338523
0.349497
0.357521
0.363073
0.366192
0.36727
0.36729
0.0405017
0.0418383
0.0497993
0.0634933
0.082545
0.10663
0.134888
0.167001
0.202555
0.240892
0.2792
0.31091
0.333982
0.351027
0.363727
0.373143
0.379744
0.38339
0.384553
0.384535
-0.0309879
-0.0288245
-0.0137159
0.0100351
0.0396171
0.0731858
0.110211
0.150532
0.193826
0.239502
0.284514
0.321624
0.348766
0.369033
0.384336
0.395844
0.404069
0.408594
0.409845
0.409911
-0.104525
-0.0975245
-0.0752178
-0.0415243
-0.00220008
0.0405745
0.0863014
0.13484
0.185923
0.239033
0.290889
0.333542
0.364833
0.388418
0.406557
0.420512
0.430493
0.435285
0.437118
0.437544
-0.163377
-0.154505
-0.127501
-0.0870689
-0.0401907
0.010363
0.0638606
0.120013
0.178441
0.238583
0.296845
0.344514
0.379412
0.405708
0.425915
0.441421
0.452529
0.458523
0.461268
0.461845
-0.21124
-0.201816
-0.171339
-0.126016
-0.0733921
-0.016631
0.0433615
0.106154
0.171205
0.237788
0.301883
0.353994
0.391919
0.420343
0.442122
0.458889
0.471038
0.477925
0.481033
0.481676
-0.251317
-0.241694
-0.208966
-0.159841
-0.102562
-0.0406953
0.0247707
0.0933121
0.164217
0.236605
0.305955
0.36196
0.40242
0.432536
0.455472
0.473056
0.48586
0.493405
0.496719
0.497396
-0.286152
-0.27646
-0.242026
-0.189872
-0.128767
-0.0625713
0.00763934
0.0812316
0.157378
0.235016
0.309157
0.368655
0.411285
0.442735
0.466464
0.484504
0.497611
0.505498
0.508919
0.509632
-0.317299
-0.30759
-0.271875
-0.217138
-0.152835
-0.0829312
-0.00854952
0.0695565
0.150465
0.232951
0.311565
0.374328
0.418923
0.4515
0.475816
0.494092
0.507298
0.515311
0.518695
0.519475
-0.345966
-0.336219
-0.299429
-0.242511
-0.17545
-0.102283
-0.0242107
0.0579697
0.143255
0.230298
0.313193
0.379134
0.425661
0.459308
0.484167
0.502689
0.515948
0.524067
0.527463
0.528102
-0.372924
-0.363121
-0.325377
-0.266585
-0.197069
-0.121019
-0.0396489
0.0462319
0.13557
0.226928
0.314018
0.383147
0.431654
0.466467
0.491945
0.510758
0.52413
0.532221
0.535633
0.53615
-0.398656
-0.388788
-0.350159
-0.289758
-0.218013
-0.139389
-0.0550608
0.0341835
0.127276
0.222747
0.313975
0.386413
0.437084
0.473231
0.499457
0.518647
0.532174
0.540254
0.543621
0.544125
-0.423587
-0.413555
-0.374106
-0.312214
-0.238503
-0.157583
-0.0705849
0.0217202
0.118295
0.217683
0.313046
0.388992
0.442064
0.479732
0.506877
0.526581
0.540351
0.548448
0.551695
0.55219
-0.447878
-0.437613
-0.39744
-0.334125
-0.258667
-0.175697
-0.0862933
0.00879418
0.108581
0.211709
0.311203
0.390821
0.44655
0.48601
0.514272
0.534624
0.548697
0.556821
0.559934
0.560373
-0.471579
-0.461102
-0.420222
-0.355604
-0.278566
-0.193754
-0.102204
-0.00460877
0.0981293
0.204779
0.30833
0.391796
0.4505
0.492053
0.521654
0.542783
0.557201
0.565314
0.568263
0.568605
-0.494821
-0.484043
-0.44245
-0.376665
-0.298216
-0.211765
-0.118304
-0.0184647
0.0869454
0.196859
0.304348
0.391819
0.453825
0.497818
0.529015
0.551049
0.565823
0.573886
0.576609
0.57682
-0.517519
-0.506467
-0.464168
-0.397306
-0.317591
-0.229689
-0.134539
-0.0327246
0.0750618
0.187954
0.299219
0.390763
0.456366
0.503214
0.536348
0.559432
0.57451
0.582372
0.584803
0.584889
-0.539703
-0.52836
-0.485344
-0.417497
-0.336648
-0.247473
-0.150852
-0.0473138
0.0625544
0.178115
0.292902
0.388492
0.457941
0.508094
0.54364
0.568004
0.583276
0.590704
0.592712
0.592661
-0.561204
-0.549635
-0.505927
-0.437187
-0.355328
-0.265035
-0.167164
-0.0621436
0.0495167
0.16741
0.285378
0.384892
0.458337
0.512243
0.550845
0.576956
0.592314
0.59885
0.600161
0.599956
-0.582133
-0.570244
-0.525883
-0.456339
-0.373588
-0.282329
-0.183373
-0.0771211
0.0360474
0.155931
0.276682
0.379865
0.457327
0.515334
0.557774
0.586549
0.602228
0.607159
0.607082
0.606605
-0.602337
-0.590149
-0.545181
-0.474896
-0.391345
-0.299263
-0.199394
-0.0921229
0.0222637
0.143766
0.266884
0.373351
0.454703
0.516938
0.563946
0.596821
0.614128
0.617196
0.614134
0.612342
-0.62186
-0.609401
-0.563767
-0.492803
-0.408553
-0.315768
-0.215144
-0.107065
0.008287
0.13107
0.256089
0.365316
0.450313
0.516571
0.568451
0.606995
0.628682
0.632455
0.62556
0.614956
-0.640619
-0.627948
-0.581745
-0.510212
-0.425424
-0.332129
-0.230963
-0.12236
-0.00635284
0.117302
0.243711