/*--------------------------------*- C++ -*----------------------------------*\
| =========                 |                                                 |
| \\      /  F ield         | OpenFOAM: The Open Source CFD Toolbox           |
|  \\    /   O peration     | Version:  2112                                  |
|   \\  /    A nd           | Website:  www.openfoam.com                      |
|    \\/     M anipulation  |                                                 |
\*---------------------------------------------------------------------------*/
FoamFile
{
    version     2.0;
    format      ascii;
    arch        "LSB;label=32;scalar=64";
    class       surfaceScalarField;
    location    "26.5";
    object      phi;
}
// * * * * * * * * * * * * * * * * * * * * * * * * * * * * * * * * * * * * * //

dimensions      [0 3 -1 0 0 0 0];

oriented        oriented;

internalField   nonuniform List<scalar> 
17370
(
-0.0916071
0.0960074
0.28461
-0.0775913
0.0594151
0.364952
-0.0430364
0.0316159
0.427589
-0.0223092
0.0162525
0.505308
-0.0116532
0.00877273
0.602283
-0.00655448
0.0050665
0.720545
-0.00383387
0.00296503
0.863775
-0.00221002
0.00164903
1.03601
-0.0011344
0.000725085
1.24291
-0.000320625
-6.36101e-05
1.49158
0.00044505
-0.000856492
1.4916
0.00126216
-0.00176943
1.2432
0.00232226
-0.00306798
1.03638
0.00392875
-0.00515262
0.86413
0.0066321
-0.00884032
0.721266
0.0117103
-0.0162961
0.6038
0.0223397
-0.0316326
0.508732
0.0430388
-0.0594089
0.432538
0.0775875
-0.0960038
0.365192
0.0916172
0.197394
-0.127088
0.0880195
0.0390683
-0.364351
0.354025
-0.0714766
0.0818023
-0.446654
0.454247
-0.0791668
0.0715739
-0.521008
0.529104
-0.0637244
0.0556278
-0.612984
0.620753
-0.0482429
0.0404737
-0.727155
0.733677
-0.0338601
0.0273379
-0.867577
0.87242
-0.0221363
0.0172932
-1.03856
1.04188
-0.0136093
0.0102924
-1.24471
1.24709
-0.00776383
0.00538329
-1.49283
1.49482
-0.00344253
0.00145512
-1.49268
1.49448
0.000341347
-0.00214151
-1.2441
1.24601
0.0041042
-0.00601696
-1.03761
1.0401
0.00836134
-0.0108542
-0.866194
0.869839
0.0141303
-0.0177749
-0.724601
0.729766
0.0225747
-0.0277389
-0.60907
0.615648
0.0342226
-0.0408008
-0.515129
0.522474
0.0485299
-0.0558751
-0.43988
0.447676
0.0639156
-0.0717113
-0.374718
0.377367
0.0792275
-0.0818766
-0.256916
0.224471
0.0715346
-0.0390894
-0.0688029
0.0591916
0.00961135
-0.0521064
0.0589385
-0.374832
0.368
-0.0580916
0.0542498
-0.453938
0.45778
-0.0487593
0.0441936
-0.527603
0.532169
-0.0396347
0.035731
-0.620784
0.624687
-0.0315144
0.0275278
-0.734639
0.738626
-0.0231966
0.0193453
-0.873931
0.877783
-0.0153485
0.0119362
-1.04333
1.04674
-0.00846544
0.00547337
-1.24861
1.25161
-0.00230669
-0.000642664
-1.49691
1.49986
0.00357681
-0.00670666
-1.49739
1.50052
0.00964489
-0.0130456
-1.25006
1.25346
0.016388
-0.0203044
-1.04566
1.04958
0.024081
-0.028331
-0.877162
0.881412
0.0322445
-0.0363838
-0.739017
0.743156
0.0402239
-0.0447227
-0.626002
0.630501
0.0492407
-0.0546855
-0.535044
0.540489
0.0584745
-0.0592606
-0.458111
0.458897
0.0523426
-0.0320036
-0.336819
0.31648
0.0096535
-0.068699
0.0590455
-0.0534028
0.0492937
0.00410912
-0.0332314
0.0436547
-0.358549
0.348126
-0.0473341
0.0467549
-0.459562
0.460141
-0.0438375
0.040637
-0.536109
0.539309
-0.0369733
0.0336293
-0.62836
0.631704
-0.030007
0.02678
-0.741989
0.745216
-0.0233444
0.0201721
-0.881275
0.884447
-0.0166227
0.0133176
-1.05017
1.05347
-0.00967782
0.0063303
-1.25485
1.25819
-0.00260373
-0.000956183
-1.50317
1.50673
0.00449501
-0.00816299
-1.50399
1.50766
0.0114331
-0.0149694
-1.25702
1.26055
0.0181714
-0.0216038
-1.05329
1.05672
0.0246687
-0.0279897
-0.885036
0.888357
0.0311168
-0.0346355
-0.746852
0.750371
0.0378892
-0.0414597
-0.634635
0.638205
0.0445813
-0.0474129
-0.544647
0.547479
0.0479056
-0.0441088
-0.457041
0.453244
0.0335436
-0.0163046
-0.297219
0.27998
0.00415595
-0.0532148
0.0490589
-0.0461263
0.0435778
0.00254846
-0.0230005
0.0333314
-0.337539
0.327208
-0.0390499
0.0399893
-0.459881
0.458941
-0.0387291
0.0363948
-0.541939
0.544273
-0.0337457
0.0312007
-0.634637
0.637182
-0.0282433
0.0254379
-0.748275
0.75108
-0.0222714
0.0193375
-0.887487
0.890421
-0.0160776
0.0130292
-1.05662
1.05967
-0.00956564
0.00624701
-1.26155
1.26486
-0.00241527
-0.00131848
-1.51042
1.51416
0.00502583
-0.00877552
-1.51141
1.51516
0.0119853
-0.0153058
-1.26399
1.26731
0.018211
-0.0213075
-1.05993
1.06303
0.0240936
-0.0271047
-0.891566
0.894578
0.0297741
-0.0325903
-0.753571
0.756388
0.0350151
-0.0375443
-0.641174
0.643703
0.0397795
-0.0409109
-0.549341
0.550473
0.0398399
-0.0339327
-0.448182
0.442275
0.0233972
-0.0102668
-0.264886
0.251755
0.00260636
-0.04584
0.0432337
-0.0414656
0.0396762
0.00178941
-0.0168521
0.0260992
-0.317358
0.308111
-0.032676
0.0347975
-0.457379
0.455257
-0.0343755
0.0326915
-0.546297
0.547981
-0.0304774
0.0283617
-0.639468
0.641584
-0.0259446
0.0236047
-0.753636
0.755976
-0.0208584
0.0181916
-0.893231
0.895898
-0.015106
0.0121665
-1.06266
1.0656
-0.00880692
0.00559806
-1.26812
1.27133
-0.00188815
-0.00173228
-1.51784
1.52146
0.00531612
-0.00891749
-1.51885
1.52245
0.0119814
-0.0151552
-1.27055
1.27373
0.0179122
-0.0207921
-1.06603
1.06891
0.0232744
-0.0258269
-0.897355
0.899907
0.0279947
-0.0302305
-0.75886
0.761096
0.0321884
-0.0342423
-0.645977
0.648031
0.0357798
-0.0360261
-0.55111
0.551356
0.0337052
-0.0268577
-0.435794
0.428946
0.0173417
-0.00732613
-0.240317
0.230301
0.0018598
-0.0410591
0.0391993
-0.0381406
0.0368109
0.00132967
-0.0127683
0.020675
-0.299531
0.291624
-0.027365
0.0302535
-0.452693
0.449804
-0.0304653
0.0293678
-0.549354
0.550451
-0.0274205
0.0255452
-0.643568
0.645443
-0.0234
0.0213331
-0.758182
0.760249
-0.0189265
0.0165662
-0.898421
0.900781
-0.0137834
0.0110633
-1.06844
1.07116
-0.00789094
0.00482205
-1.27446
1.27753
-0.00125076
-0.00223636
-1.52501
1.5285
0.00567344
-0.00910089
-1.52597
1.5294
0.0119822
-0.0149162
-1.2768
1.27973
0.0174009
-0.0199154
-1.07163
1.07414
0.0220343
-0.0241881
-0.902251
0.904404
0.0260349
-0.0279512
-0.763162
0.765079
0.0296315
-0.0313903
-0.649895
0.651653
0.0322828
-0.031834
-0.551226
0.550777
0.0286676
-0.0216134
-0.421925
0.414871
0.0133664
-0.00556113
-0.22149
0.213685
0.00141545
-0.0375881
0.0361727
-0.0356522
0.0346416
0.00101064
-0.00983778
0.0164559
-0.284372
0.277754
-0.0228393
0.026151
-0.446674
0.443362
-0.0268988
0.026199
-0.551335
0.552035
-0.0244426
0.0226904
-0.647268
0.649021
-0.0207046
0.0188215
-0.762232
0.764115
-0.0166499
0.0145305
-0.903008
0.905128
-0.0120311
0.0095632
-1.07372
1.07618
-0.00664469
0.00377653
-1.28048
1.28335
-0.000416296
-0.00285613
-1.53188
1.53515
0.00606776
-0.00923935
-1.53272
1.53589
0.0118578
-0.0144654
-1.2825
1.28511
0.0166298
-0.0187912
-1.07645
1.07861
0.0206142
-0.0224806
-0.906389
0.908255
0.0240951
-0.0257974
-0.766875
0.768577
0.0273058
-0.0288008
-0.65332
0.654815
0.029238
-0.0281527
-0.550022
0.548937
0.0244612
-0.0176049
-0.407878
0.401022
0.0105655
-0.00436008
-0.20674
0.200535
0.00111533
-0.0349227
0.0338074
-0.0337634
0.0329975
0.000765923
-0.00759256
0.0130369
-0.271739
0.266295
-0.01885
0.0223341
-0.439928
0.436444
-0.0236
0.0232231
-0.552582
0.552959
-0.0218394
0.0202763
-0.650701
0.652264
-0.0184505
0.016689
-0.765966
0.767728
-0.0146281
0.0126014
-0.907202
0.909229
-0.0102097
0.00787074
-1.07854
1.08088
-0.00513994
0.00248964
-1.28606
1.28871
0.000595742
-0.00359845
-1.53827
1.54128
0.00652536
-0.00937918
-1.53892
1.54178
0.0117198
-0.0140548
-1.28758
1.28991
0.0160037
-0.017958
-1.08067
1.08262
0.0196001
-0.0212706
-0.910014
0.911685
0.0227051
-0.0241924
-0.770166
0.771654
0.025451
-0.0264965
-0.656091
0.657136
0.0265334
-0.0248202
-0.547521
0.545808
0.0208427
-0.014436
-0.39437
0.387963
0.00847659
-0.00347766
-0.194982
0.189983
0.000893343
-0.0328188
0.0319254
-0.0323348
0.0317631
0.000571733
-0.00578326
0.0101724
-0.261393
0.257004
-0.0152469
0.0186241
-0.432992
0.429615
-0.0201517
0.0199981
-0.553217
0.553371
-0.0188825
0.0174551
-0.653753
0.65518
-0.0157694
0.0141418
-0.769461
0.771089
-0.0122431
0.0103796
-0.911188
0.913051
-0.0081801
0.00602904
-1.08307
1.08523
-0.0035127
0.00106924
-1.29121
1.29366
0.00177795
-0.00454165
-1.54415
1.54691
0.00720614
-0.00975803
-1.54451
1.54706
0.0118093
-0.0138142
-1.2921
1.29411
0.0154628
-0.0171091
-1.08445
1.08609
0.018504
-0.0199251
-0.913232
0.914653
0.0211409
-0.022402
-0.772986
0.774247
0.0234612
-0.0241167
-0.657984
0.65864
0.0238181
-0.0216943
-0.543881
0.541757
0.0176828
-0.0118729
-0.381853
0.376043
0.0068582
-0.00280713
-0.185493
0.181442
0.00072796
-0.0311278
0.0303999
-0.0312811
0.0308766
0.000404503
-0.00424484
0.0076769
-0.253109
0.249677
-0.0119433
0.0150519
-0.426366
0.423257
-0.0166796
0.0166763
-0.553458
0.553462
-0.0157322
0.0143645
-0.656604
0.657972
-0.0127896
0.0113195
-0.772693
0.774163
-0.00962988
0.0079569
-0.9148
0.916473
-0.00595677
0.00398133
-1.08721
1.08919
-0.00166082
-0.000586174
-1.29594
1.29819
0.00318668
-0.00566777
-1.5495
1.55198
0.00802781
-0.0102627
-1.54947
1.55171
0.0120281
-0.0137236
-1.296
1.29769
0.0150787
-0.0163657
-1.08758
1.08887
0.0174179
-0.0184939
-0.915866
0.916942
0.0194566
-0.0205185
-0.775362
0.776424
0.0214385
-0.0218
-0.659149
0.65951
0.0212213
-0.0188254
-0.539525
0.537129
0.0149176
-0.00974735
-0.370572
0.365401
0.00555571
-0.00227386
-0.17781
0.174529
0.000596542
-0.0297537
0.0291571
-0.0305477
0.0302869
0.000260802
-0.0028747
0.00540286
-0.246708
0.24418
-0.00880093
0.0115251
-0.420334
0.41761
-0.0131929
0.0134189
-0.55337
0.553144
-0.0127273
0.0115953
-0.659269
0.660401
-0.0101931
0.00882594
-0.77564
0.777007
-0.00720514
0.00558075
-0.918074
0.919698
-0.00365451
0.00178149
-1.09102
1.09289
0.00038367
-0.00246733
-1.3003
1.30238
0.00483883
-0.00706686
-1.5543
1.55653
0.00915524
-0.0110899
-1.55381
1.55575
0.0125795
-0.0139687
-1.29926
1.30065
0.0150678
-0.0161305
-1.09004
1.0911
0.0169821
-0.0178245
-0.917889
0.918731
0.0185531
-0.0193058
-0.777289
0.778041
0.019834
-0.0197877
-0.659684
0.659637
0.0187869
-0.0161317
-0.534644
0.531989
0.0124171
-0.00792281
-0.360592
0.356098
0.00447641
-0.00184757
-0.171602
0.168974
0.00049841
-0.028625
0.0281265
-0.0300968
0.0299831
0.000113624
-0.00154967
0.00320074
-0.242105
0.240454
-0.0056701
0.00785385
-0.415146
0.412963
-0.00938669
0.00976478
-0.55281
0.552432
-0.00929184
0.00839759
-0.661428
0.662323
-0.00714757
0.00587266
-0.77843
0.779704
-0.00432566
0.00276706
-0.921271
0.92283
-0.000932739
-0.000824642
-1.09462
1.09638
0.00283406
-0.00472715
-1.3043
1.3062
0.00685568
-0.00882133
-1.55858
1.56054
0.0105985
-0.012176
-1.55751
1.55909
0.0133286
-0.014359
-1.30194
1.30297
0.0151456
-0.0158615
-1.09208
1.09279
0.0164239
-0.0169804
-0.91947
0.920026
0.0174469
-0.0178957
-0.778497
0.778946
0.0180422
-0.0175931
-0.659339
0.65889
0.0162457
-0.0134963
-0.529312
0.526562
0.0101042
-0.00630113
-0.351998
0.348194
0.00352905
-0.00147129
-0.166667
0.164609
0.000409951
-0.0276878
0.0272779
-0.0299418
0.0299719
-3.01265e-05
-0.000321096
0.00116419
-0.239221
0.238378
-0.00273985
0.00431311
-0.411101
0.409528
-0.00550499
0.00578541
-0.5521
0.55182
-0.00530538
0.00448673
-0.663226
0.664044
-0.00336754
0.00223725
-0.78099
0.78212
-0.000860299
-0.000533034
-0.92422
0.925614
0.00217529
-0.00376766
-1.09795
1.09954
0.00559413
-0.00732006
-1.30794
1.30966
0.0092468
-0.0109873
-1.56236
1.5641
0.0125048
-0.0137524
-1.5605
1.56175
0.0145834
-0.0152241
-1.30383
1.30447
0.0156123
-0.0158885
-1.0933
1.09358
0.0160649
-0.0161704
-0.920342
0.920447
0.016211
-0.0162511
-0.779128
0.779168
0.0161155
-0.0154491
-0.658303
0.657636
0.0139551
-0.0112475
-0.523906
0.521199
0.00819246
-0.00499641
-0.344764
0.341568
0.0027787
-0.0011683
-0.16283
0.16122
0.000331913
-0.0269285
0.0265966
-0.0300718
0.0302305
-0.000158738
0.000586733
-0.000427609
-0.237886
0.237726
-0.000342886
0.00135478
-0.40827
0.407258
-0.00224787
0.0024772
-0.551592
0.551363
-0.0020598
0.00132798
-0.664898
0.66563
-0.000285549
-0.000803093
-0.78329
0.784379
0.00216059
-0.0035375
-0.92687
0.928247
0.00517653
-0.00676719
-1.101
1.10259
0.00859572
-0.0102991
-1.31128
1.31299
0.0121307
-0.0136905
-1.56568
1.56724
0.014976
-0.0159797
-1.56286
1.56387
0.0165669
-0.016949
-1.30502
1.3054
0.0170844
-0.0170357
-1.09375
1.09371
0.0168653
-0.0166282
-0.920393
0.920156
0.0164106
-0.0161539
-0.778907
0.77865
0.0156719
-0.0145826
-0.656726
0.655636
0.012768
-0.00995973
-0.518538
0.51573
0.00711954
-0.00434168
-0.338675
0.335897
0.00244944
-0.00104874
-0.159793
0.158392
0.000300686
-0.0263128
0.0260121
-0.0304289
0.0306677
-0.000238749
0.0012735
-0.00157972
-0.237808
0.238115
0.00151201
-0.00106939
-0.406563
0.406121
0.00050959
-0.000344752
-0.551192
0.551027
0.000707307
-0.00137251
-0.666436
0.667101
0.0023792
-0.0035159
-0.78554
0.786677
0.00499574
-0.00652247
-0.929535
0.931062
0.008331
-0.0100676
-1.10412
1.10586
0.0120178
-0.0137816
-1.31463
1.3164
0.0156136
-0.0171086
-1.56872
1.57021
0.0182485
-0.0190377
-1.56479
1.56558
0.0193876
-0.0194577
-1.30568
1.30575
0.0193273
-0.0190112
-1.09353
1.09321
0.0186153
-0.0181177
-0.919725
0.919227
0.0176281
-0.0170179
-0.778115
0.777505
0.016081
-0.0145593
-0.654329
0.652807
0.0124753
-0.00961314
-0.513011
0.510149
0.00693526
-0.00436497
-0.333341
0.330771
0.00254306
-0.00111431
-0.157058
0.155629
0.00032183
-0.0257357
0.0254139
-0.030951
0.0312721
-0.000321065
0.00181806
-0.00253835
-0.238629
0.23935
0.00306136
-0.00327101
-0.406039
0.406248
0.00331069
-0.00344607
-0.551046
0.551182
0.00390603
-0.00463696
-0.66791
0.668641
0.00577891
-0.00711433
-0.787938
0.789274
0.00885921
-0.0106129
-0.932531
0.934285
0.012626
-0.0144845
-1.10751
1.10937
0.0164858
-0.0182294
-1.31806
1.31981
0.0199725
-0.0213163
-1.57159
1.57293
0.0222239
-0.022673
-1.5662
1.56665
0.0226944
-0.022417
-1.30569
1.30542
0.0219724
-0.0213443
-1.09273
1.0921
0.0206859
-0.0198996
-0.918533
0.917746
0.0191279
-0.0181805
-0.776588
0.775641
0.0169746
-0.0151945
-0.651175
0.649395
0.0129894
-0.0101488
-0.507449
0.504609
0.0075197
-0.00489445
-0.328316
0.325691
0.0029197
-0.00129915
-0.154186
0.152565
0.000378466
-0.0251015
0.0247231
-0.0316418
0.0320573
-0.000415567
0.00242581
-0.00348953
-0.240259
0.241323
0.00449513
-0.00524577
-0.40673
0.40748
0.00593364
-0.00664784
-0.551728
0.552442
0.00765163
-0.00881422
-0.669723
0.670886
0.0103379
-0.0119787
-0.790756
0.792397
0.0139892
-0.0159222
-0.935903
0.937836
0.0180778
-0.0200185
-1.11109
1.11303
0.0220602
-0.0237699
-1.32141
1.32312
0.02539
-0.0265151
-1.5741
1.57522
0.0271102
-0.0271595
-1.56689
1.56694
0.0268223
-0.0261323
-1.30498
1.30429
0.0253378
-0.0243529
-1.09128
1.0903
0.0233649
-0.0222454
-0.916683
0.915563
0.0212055
-0.0199803
-0.774397
0.773172
0.0186149
-0.0167207
-0.647595
0.645701
0.0144756
-0.0115359
-0.501963
0.499023
0.00868798
-0.00572455
-0.323065
0.320102
0.00344278
-0.00154496
-0.150894
0.148996
0.000453936
-0.0243515
0.0238976
-0.0325279
0.0330622
-0.000534243
0.00321163
-0.00468322
-0.242591
0.244063
0.00612506
-0.00726542
-0.408464
0.409604
0.00841777
-0.00958405
-0.553606
0.554772
0.0111181
-0.0127939
-0.672527
0.674202
0.0148493
-0.0169049
-0.794192
0.796248
0.0193151
-0.0215563
-0.939653
0.941894
0.0239906
-0.0261607
-1.11486
1.11703
0.0284132
-0.0302675
-1.32473
1.32658
0.0319378
-0.0329778
-1.57619
1.57723
0.0333764
-0.0331095
-1.56676
1.56649
0.0323807
-0.0312208
-1.30338
1.30222
0.0299691
-0.0285239
-1.08908
1.08763
0.0272565
-0.0259125
-0.914228
0.912884
0.024678
-0.0233145
-0.771675
0.770312
0.0218266
-0.0196995
-0.643812
0.641685
0.0170788
-0.0135786
-0.49613
0.492629
0.0101946
-0.00670251
-0.317054
0.313562
0.00404503
-0.00183364
-0.147042
0.144831
0.000546773
-0.0234494
0.0229026
-0.0336685
0.0343727
-0.000704212
0.00432495
-0.00637115
-0.245797
0.247844
0.00836844
-0.00984903
-0.410954
0.412434
0.0112079
-0.0125229
-0.55636
0.557675
0.0142585
-0.0162064
-0.676256
0.678204
0.0186806
-0.0212084
-0.798425
0.800953
0.0241398
-0.0268597
-0.944067
0.946787
0.0298594
-0.032556
-1.1192
1.12189
0.0353793
-0.0377088
-1.32847
1.3308
0.0398064
-0.0411202
-1.57826
1.57957
0.0416602
-0.0414249
-1.56615
1.56591
0.0406212
-0.0393279
-1.30093
1.29963
0.0378249
-0.0359726
-1.08588
1.08403
0.0341769
-0.0322583
-0.911208
0.909289
0.0306622
-0.0289045
-0.768639
0.766881
0.0268783
-0.0239101
-0.639325
0.636356
0.0203524
-0.0158467
-0.488968
0.484463
0.0117456
-0.00771504
-0.310017
0.305987
0.00468599
-0.00214316
-0.142586
0.140043
0.000644106
-0.0223729
0.0217288
-0.0351564
0.0361004
-0.000944003
0.00587211
-0.00873334
-0.250223
0.253084
0.0115608
-0.0135588
-0.414225
0.416223
0.0151134
-0.0163936
-0.559453
0.560733
0.0180578
-0.0201113
-0.680436
0.682489
0.022908
-0.0258401
-0.803499
0.806431
0.0293542
-0.0327557
-0.949505
0.952906
0.036587
-0.040065
-1.12471
1.12819
0.0437107
-0.0467229
-1.33328
1.33629
0.049473
-0.0512653
-1.58101
1.5828
0.052127
-0.0520779
-1.56572
1.56567
0.0513456
-0.0499902
-1.29827
1.29692
0.0483895
-0.0463309
-1.08199
1.07993
0.0442443
-0.0418306
-0.906901
0.904487
0.0394789
-0.036436
-0.76435
0.761308
0.0330949
-0.0285247
-0.632758
0.628188
0.0236992
-0.0181814
-0.479801
0.474284
0.0134656
-0.00892118
-0.301993
0.297448
0.0054668
-0.00251573
-0.13747
0.134519
0.000758295
-0.021106
0.0203477
-0.0371325
0.038436
-0.00130356
0.0080767
-0.0120828
-0.25635
0.260357
0.016134
-0.0190369
-0.41881
0.421713
0.021177
-0.0226257
-0.562745
0.564194
0.0243003
-0.0264468
-0.684806
0.686953
0.0295263
-0.0329454
-0.80926
0.812679
0.0372284
-0.0414176
-0.956345
0.960534
0.0461479
-0.0504103
-1.1318
1.13606
0.0548194
-0.0584069
-1.33941
1.343
0.0616264
-0.0636658
-1.58462
1.58666
0.0645663
-0.0643788
-1.56554
1.56535
0.0634172
-0.0617218
-1.29539
1.2937
0.0597276
-0.0571568
-1.07753
1.07496
0.0545193
-0.0512831
-0.901446
0.89821
0.0478173
-0.0433415
-0.757295
0.752819
0.0385727
-0.0326403
-0.622976
0.617044
0.0269189
-0.0207511
-0.46883
0.462662
0.0155464
-0.0104257
-0.293027
0.287906
0.00642598
-0.00295562
-0.13154
0.12807
0.000885287
-0.0196167
0.0187314
-0.0398199
0.0416469
-0.00182699
0.0111457
-0.0166502
-0.264775
0.270279
0.022272
-0.0264431
-0.425596
0.429767
0.0296716
-0.0318808
-0.566892
0.569101
0.0341888
-0.0368605
-0.689495
0.692166
0.0407399
-0.0449598
-0.816086
0.820305
0.0500916
-0.0550064
-0.964719
0.969634
0.0604375
-0.0652095
-1.14031
1.14508
0.0700046
-0.073756
-1.3465
1.35025
0.0769139
-0.0786495
-1.58846
1.59019
0.0790324
-0.0781333
-1.56479
1.56389
0.0764304
-0.0738311
-1.29156
1.28896
0.0709571
-0.067398
-1.0718
1.06825
0.063788
-0.0593711
-0.894071
0.889654
0.0547995
-0.0491695
-0.747374
0.741744
0.0435013
-0.0368778
-0.610782
0.604159
0.0307133
-0.024073
-0.456776
0.450136
0.0182875
-0.01238
-0.28293
0.277022
0.00764654
-0.00350372
-0.124558
0.120415
0.00104128
-0.0178742
0.016833
-0.0435307
0.0461936
-0.00266292
0.0157602
-0.0232882
-0.276202
0.28373
0.0309005
-0.0367251
-0.43551
0.441335
0.0415725
-0.0452077
-0.573251
0.576886
0.0490542
-0.0530936
-0.695622
0.699661
0.0582062
-0.0633325
-0.824479
0.829606
0.0692417
-0.0746779
-0.974401
0.979837
0.0804592
-0.0853396
-1.14962
1.1545
0.090002
-0.0933824
-1.35361
1.35699
0.0958243
-0.0966024
-1.59133
1.59211
0.0958253
-0.0935766
-1.56227
1.56002
0.090604
-0.0866083
-1.28563
1.28163
0.0824861
-0.0775763
-1.06387
1.05896
0.0727714
-0.0671776
-0.884232
0.878638
0.061743
-0.0554364
-0.735276
0.728969
0.049352
-0.0424118
-0.597383
0.590442
0.0358705
-0.028553
-0.443809
0.436492
0.0218688
-0.0148183
-0.271245
0.264195
0.00910348
-0.00412642
-0.116245
0.111268
0.00120809
-0.0158369
0.0146288
-0.0488409
0.0529515
-0.00411066
0.0231638
-0.0335239
-0.291754
0.302115
0.0436993
-0.0516181
-0.449652
0.457571
0.0584356
-0.0638633
-0.583112
0.58854
0.0698545
-0.075695
-0.704605
0.710445
0.0823542
-0.0884903
-0.834691
0.840827
0.0951129
-0.100863
-0.984999
0.990749
0.106637
-0.111206
-1.15889
1.16346
0.115189
-0.117644
-1.35966
1.36212
0.118729
-0.117957
-1.59194
1.59117
0.115472
-0.111384
-1.55675
1.55266
0.106801
-0.101149
-1.27673
1.27108
0.0956113
-0.0892581
-1.05314
1.04679
0.0832976
-0.0766876
-0.872041
0.865431
0.0705911
-0.0638204
-0.721801
0.715031
0.0574051
-0.0500264
-0.583237
0.575858
0.0428088
-0.0343798
-0.429366
0.420937
0.0263949
-0.0178176
-0.257292
0.248715
0.0108444
-0.00484201
-0.10632
0.100317
0.00138907
-0.0134832
0.0120941
-0.0568351
0.0640326
-0.00719758
0.0365471
-0.0511247
-0.313555
0.328132
0.0649522
-0.0752489
-0.469324
0.47962
0.0839479
-0.0912554
-0.59716
0.604468
0.0995844
-0.107105
-0.716979
0.7245
0.115044
-0.121854
-0.846777
0.853588
0.128734
-0.134315
-0.995992
1.00157
0.139503
-0.143181
-1.16724
1.17092
0.145848
-0.146775
-1.36354
1.36447
0.1459
-0.143063
-1.58914
1.5863
0.138477
-0.132271
-1.54735
1.54115
0.125907
-0.118493
-1.26443
1.25702
0.111496
-0.103748
-1.03952
1.03177
0.0967193
-0.0891796
-0.857792
0.850252
0.0824492
-0.0751663
-0.707164
0.699881
0.0682827
-0.0600786
-0.567891
0.559687
0.0517085
-0.0416128
-0.412439
0.402343
0.03186
-0.0213717
-0.240311
0.229823
0.0128692
-0.00564574
-0.094533
0.0873096
0.00157304
-0.0108069
0.00923389
-0.070867
0.074671
-0.00380407
0.0270853
-0.039683
-0.345503
0.3581
0.0519153
-0.0612868
-0.49501
0.504381
0.0702275
-0.0794288
-0.615284
0.624485
0.0897876
-0.0989747
-0.731859
0.741046
0.109209
-0.118298
-0.859676
0.868764
0.127815
-0.136078
-1.00616
1.01443
0.144429
-0.151272
-1.17336
1.1802
0.157576
-0.161949
-1.364
1.36838
0.16473
-0.164917
-1.58196
1.58215
0.162343
-0.157357
-1.53356
1.52857
0.151147
-0.143015
-1.24855
1.24042
0.134933
-0.125114
-1.02312
1.0133
0.116118
-0.106293
-0.841639
0.831814
0.0975432
-0.0881084
-0.691141
0.681706
0.0789119
-0.0679803
-0.55043
0.539498
0.0568505
-0.0434356
-0.391814
0.378399
0.031206
-0.0191174
-0.219405
0.207317
0.0103838
-0.00402001
-0.0807329
0.0743691
0.000923333
-0.00793631
0.00701298
-0.0816873
0.079457
0.00223035
0.00523371
-0.0132222
-0.373693
0.381681
0.0222567
-0.0294349
-0.518504
0.525683
0.0375547
-0.045642
-0.635412
0.643499
0.0551403
-0.0637646
-0.750152
0.758776
0.0729186
-0.0812413
-0.877412
0.885735
0.0899266
-0.0971363
-1.02241
1.02962
0.104571
-0.110261
-1.1868
1.19249
0.115364
-0.118506
-1.37229
1.37543
0.119673
-0.118429
-1.58122
1.57998
0.114466
-0.108191
-1.52238
1.5161
0.100806
-0.0916405
-1.23149
1.22232
0.0827913
-0.0726714
-1.00289
0.992769
0.063247
-0.0529026
-0.820427
0.810083
0.0438443
-0.0347945
-0.668895
0.659845
0.0271476
-0.0190085
-0.526036
0.517897
0.0118371
-0.00546843
-0.364217
0.357849
0.00152584
0.00090998
-0.195104
0.192669
-0.00168053
0.00132153
-0.0677371
0.0680961
-0.000587583
-0.00569487
0.00628245
-0.0823996
0.0793932
0.00300645
-0.00332527
-0.000906026
-0.392578
0.396809
0.0067943
-0.0123276
-0.53686
0.542393
0.0190417
-0.0260777
-0.652823
0.659859
0.0342664
-0.0417484
-0.76688
0.774362
0.0499155
-0.0571744
-0.893434
0.900693
0.0645122
-0.0709534
-1.03668
1.04312
0.0773922
-0.0823918
-1.19777
1.20277
0.0864055
-0.0885816
-1.37788
1.38006
0.08908
-0.0871547
-1.57795
1.57602
0.0826852
-0.0760975
-1.50911
1.50253
0.0687158
-0.0599615
-1.21299
1.20423
0.0512762
-0.041712
-0.982307
0.972742
0.0328799
-0.0232844
-0.799618
0.790023
0.0151047
-0.0069082
-0.648839
0.640643
0.000396932
0.00581989
-0.507092
0.500875
-0.00995724
0.0119082
-0.349163
0.347212
-0.0114602
0.00934594
-0.187683
0.189798
-0.00658416
0.00342295
-0.0674398
0.0706011
-0.00115683
-0.0062283
0.00738514
-0.0808276
0.0779938
0.00283386
-0.00639999
0.00455552
-0.404792
0.406636
-0.00103946
-0.00326135
-0.55098
0.555281
0.00924495
-0.0151762
-0.667329
0.67326
0.0222086
-0.0286771
-0.781558
0.788026
0.0356963
-0.0419534
-0.907553
0.91381
0.0486621
-0.0541679
-1.0492
1.0547
0.0598594
-0.0638467
-1.20741
1.2114
0.0673325
-0.0691426
-1.38207
1.38388
0.0692279
-0.0669222
-1.57373
1.57142
0.0626796
-0.0565724
-1.49552
1.48941
0.0497749
-0.0414871
-1.1954
1.18711
0.0336995
-0.0251933
-0.963055
0.954549
0.017234
-0.00891533
-0.780397
0.772078
0.00148331
0.00563985
-0.630899
0.623775
-0.0110841
0.0155084
-0.492459
0.488034
-0.0178015
0.0177456
-0.341706
0.341762
-0.0154075
0.0114683
-0.188941
0.192881
-0.00777966
0.00384002
-0.072285
0.0762246
-0.00122609
-0.00784743
0.00907352
-0.0791649
0.0767402
0.00242477
-0.00708251
0.00664666
-0.412873
0.413309
-0.0040295
0.000847438
-0.56256
0.565742
0.00417019
-0.00957166
-0.679605
0.685006
0.015527
-0.0212647
-0.79407
0.799807
0.0273905
-0.0328769
-0.919748
0.925234
0.0387054
-0.0436944
-1.06015
1.06514
0.0486081
-0.0523981
-1.21533
1.21912
0.0554948
-0.057086
-1.38543
1.38702
0.0571233
-0.0549874
-1.56909
1.56695
0.0511379
-0.0454682
-1.48285
1.47718
0.0394007
-0.0321856
-1.17904
1.17182
0.0253557
-0.0178189
-0.945992
0.938455
0.0110362
-0.00386288
-0.763652
0.756479
-0.00230588
0.00827487
-0.615778
0.609809
-0.0126331
0.015947
-0.481185
0.477871
-0.0175962
0.0171884
-0.338207
0.338615
-0.0145925
0.0107768
-0.19345
0.197265
-0.00722604
0.00349758
-0.0782692
0.0819976
-0.00113028
-0.00960226
0.0107325
-0.077756
0.075718
0.00203798
-0.00668134
0.00658217
-0.41837
0.418469
-0.00503098
0.00227972
-0.571592
0.574343
0.00240033
-0.00702652
-0.690159
0.694785
0.012208
-0.017256
-0.804983
0.810031
0.0227679
-0.0277422
-0.9305
0.935474
0.033167
-0.0376321
-1.06993
1.07439
0.0421785
-0.0457224
-1.22272
1.22626
0.0486037
-0.0501196
-1.38845
1.38997
0.0502149
-0.0486888
-1.56486
1.56333
0.0452576
-0.04039
-1.4713
1.46643
0.0350302
-0.028687
-1.16471
1.15836
0.0229419
-0.0163156
-0.931053
0.924426
0.0104735
-0.00449934
-0.749394
0.74342
-0.000655827
0.00558134
-0.603337
0.598411
-0.00916517
0.0119339
-0.472416
0.469647
-0.0129578
0.0125845
-0.33605
0.336424
-0.0107514
0.00776439
-0.197488
0.200475
-0.00508886
0.00249928
-0.0833498
0.0859394
-0.00082481
-0.011075
0.0118998
-0.0767616
0.0751987
0.00156295
-0.0056129
0.00572597
-0.422481
0.422368
-0.00432022
0.00216384
-0.57966
0.581816
0.00207982
-0.00628854
-0.699403
0.703612
0.0112587
-0.0156757
-0.814859
0.819276
0.0205942
-0.0250811
-0.940524
0.945011
0.0303187
-0.0344741
-1.07896
1.08312
0.0386373
-0.0421239
-1.2297
1.23319
0.0453296
-0.0468946
-1.3916
1.39316
0.0473116
-0.0460501
-1.56154
1.56028
0.0433851
-0.038901
-1.46151
1.45703
0.0343438
-0.0289172
-1.15208
1.14665
0.0237828
-0.0181799
-0.918051
0.912448
0.0130861
-0.00779421
-0.737332
0.73204
0.00362017
0.00068262
-0.592964
0.588662
-0.00384133
0.00605119
-0.465142
0.462932
-0.00708797
0.00714859
-0.334106
0.334046
-0.00603389
0.00419268
-0.199968
0.201809
-0.00265071
0.00130444
-0.0862569
0.0876031
-0.000458848
-0.0119377
0.0123966
-0.0763068
0.0750908
0.00121599
-0.00444152
0.00459941
-0.425802
0.425645
-0.00320304
0.00111962
-0.586764
0.588847
0.00281085
-0.00661397
-0.707796
0.711599
0.0109366
-0.0152434
-0.823777
0.828084
0.0198554
-0.0245332
-0.949405
0.954082
0.0291348
-0.0331876
-1.08743
1.09149
0.0375757
-0.0409329
-1.23663
1.23999
0.0438166
-0.0459409
-1.39472
1.39684
0.046741
-0.0459784
-1.55917
1.5584
0.0437094
-0.0400358
-1.45282
1.44914
0.0360246
-0.0311899
-1.14102
1.13619
0.0266845
-0.0216596
-0.906849
0.901824
0.0171071
-0.0125079
-0.726837
0.722237
0.00848056
-0.00465082
-0.583907
0.580078
0.00179094
0.000596287
-0.459
0.456613
-0.00184914
0.00217471
-0.331452
0.331126
-0.00202278
0.00149039
-0.200333
0.200866
-0.00100549
0.000564742
-0.0870603
0.087501
-0.000259029
-0.0121723
0.0124314
-0.0763841
0.0753724
0.00101171
-0.00313954
0.00307818
-0.42888
0.428942
-0.00186062
-0.000265287
-0.593304
0.59543
0.00393761
-0.00764295
-0.715662
0.719368
0.0118236
-0.0157719
-0.832298
0.836247
0.0205401
-0.0244981
-0.958279
0.962237
0.0291243
-0.0330618
-1.09575
1.09969
0.037416
-0.0410486
-1.24339
1.24702
0.0443202
-0.0463494
-1.3988
1.40083
0.0476256
-0.0474009
-1.55763
1.55741
0.0458962
-0.0426503
-1.44541
1.44216
0.0391359
-0.0347324
-1.13144
1.12704
0.0306351
-0.0259558
-0.896593
0.891914
0.0218461
-0.0174586
-0.717408
0.71302
0.0136887
-0.00997887
-0.575776
0.572066
0.00704722
-0.0047286
-0.452866
0.450548
0.0030825
-0.0021784
-0.328007
0.327103
0.00142052
-0.000818114
-0.198755
0.198152
0.000350192
4.30368e-05
-0.0860817
0.0856884
-0.000123957
-0.0119469
0.0120709
-0.0767302
0.0760304
0.000699741
-0.00199537
0.00155553
-0.432142
0.432582
-0.000515651
-0.00189421
-0.599028
0.601438
0.00517596
-0.0087513
-0.723061
0.726637
0.0127849
-0.0168838
-0.840154
0.844253
0.0210936
-0.0252423
-0.966462
0.970611
0.0298753
-0.0336571
-1.10409
1.10788
0.0381595
-0.0418125
-1.25051
1.25417
0.045225
-0.0478592
-1.40331
1.40595
0.0497197
-0.0498687
-1.55727
1.55742
0.0486795
-0.0461671
-1.43909
1.43658
0.043183
-0.0391025
-1.12249
1.11841
0.035182
-0.0309256
-0.887101
0.882844
0.02666
-0.0225691
-0.708332
0.704242
0.0188989
-0.0151381
-0.568096
0.564336
0.0122544
-0.00954248
-0.446643
0.443931
0.00754168
-0.00582319
-0.323679
0.321961
0.00440704
-0.0028399
-0.195416
0.193849
0.00148318
-0.000433822
-0.0836792
0.0826298
9.28382e-06
-0.0113597
0.0113504
-0.0774778
0.0769208
0.00055699
-0.00104995
0.000695963
-0.435627
0.435981
0.000972496
-0.00320977
-0.604931
0.607168
0.00662059
-0.0100699
-0.729976
0.733425
0.0139644
-0.0176944
-0.848107
0.851837
0.0220504
-0.0259203
-0.974821
0.978691
0.0305366
-0.0347771
-1.11214
1.11638
0.038974
-0.0429978
-1.25791
1.26193
0.0468846
-0.0496756
-1.40853
1.41132
0.0519788
-0.0529636
-1.55782
1.5588
0.0522613
-0.0503741
-1.43394
1.43205
0.0475665
-0.0438666
-1.11431
1.11061
0.0402536
-0.0360346
-0.878123
0.873904
0.0319958
-0.0278599
-0.699591
0.695455
0.0241714
-0.0202526
-0.560182
0.556263
0.0170747
-0.0140743
-0.440042
0.437042
0.0114284
-0.00900537
-0.318056
0.315633
0.00683222
-0.00448574
-0.190398
0.188051
0.00254185
-0.000947106
-0.0801891
0.0785943
0.00017282
-0.0105484
0.0103756
-0.0784662
0.0780768
0.000389397
-7.98222e-05
-0.000508202
-0.43922
0.439808
0.00210179
-0.0045859
-0.610449
0.612933
0.00789665
-0.0111866
-0.736662
0.739952
0.0151658
-0.0187611
-0.855606
0.859201
0.0229847
-0.0269921
-0.983073
0.98708
0.0315364
-0.0357669
-1.12052
1.12475
0.0402117
-0.0442959
-1.26591
1.27
0.0484114
-0.0519844
-1.41443
1.41801
0.0547864
-0.0561207
-1.55976
1.5611
0.0561396
-0.0545831
-1.43006
1.4285
0.0522967
-0.0490404
-1.10679
1.10353
0.0453923
-0.0412561
-0.869319
0.865183
0.03726
-0.0329527
-0.690877
0.68657