/*--------------------------------*- C++ -*----------------------------------*\
| =========                 |                                                 |
| \\      /  F ield         | OpenFOAM: The Open Source CFD Toolbox           |
|  \\    /   O peration     | Version:  2112                                  |
|   \\  /    A nd           | Website:  www.openfoam.com                      |
|    \\/     M anipulation  |                                                 |
\*---------------------------------------------------------------------------*/
FoamFile
{
    version     2.0;
    format      ascii;
    arch        "LSB;label=32;scalar=64";
    class       volScalarField;
    location    "1";
    object      T;
}
// * * * * * * * * * * * * * * * * * * * * * * * * * * * * * * * * * * * * * //

dimensions      [0 0 0 1 0 0 0];

internalField   nonuniform List<scalar> 
1000
(
0
0
0
0
0
0
0
0
0
0
0
0
0
0
0
0
0
0
0
0
0
0
0
0
0
0
0
0
0
0
0
0
0
0
0
0
0
0
0
0
0
0
0
0
0
0
0
0
0
0
0
0
0
0
0
0
0
0
0
0
0
0
0
0
0
0
0
0
0
0
0
0
0
0
0
0
0
0
0
0
0
0
0
0
0
0
0
0
0
0
0
0
0
0
0
0
0
0
0
0
0
0
0
0
0
0
0
0
0
0
0
0
0
0
0
0
0
0
0
0
0
0
0
0
0
0
0
0
0
0
0
0
0
0
0
0
0
0
0
0
0
0
0
0
0
0
0
0
0
0
0
0
0
0
0
0
0
0
0
0
0
0
0
0
0
0
0
0
0
0
0
0
0
0
0
0
0
0
0
0
0
0
0
0
0
0
0
0
0
0
0
0
0
0
0
0
0
0
0
0
0
0
0
0
0
0
0
0
0
0
0
0
0
0
0
0
0
0
0
0
0
0
0
0
0
0
0
0
0
0
0
0
0
0
0
0
0
0
0
0
0
0
0
0
0
0
0
0
0
0
0
0
0
0
0
0
0
0
0
0
0
0
0
0
0
0
0
0
0
0
0
0
0
0
0
0
0
0
0
0
0
0
0
0
0
0
0
0
0
0
0
0
0
0
0
0
0
0
0
0
0
0
0
0
0
0
0
0
0
0
0
0
0
0
0
0
0
0
0
0
0
0
0
0
0
0
0
0
0
0
0
0
0
0
0
0
0
0
0
0
0
0
0
0
0
0
0
0
0
0
1.20747e-108
-1.04526e-105
4.47422e-103
-1.26249e-100
2.64147e-98
-4.3706e-96
5.95627e-94
-6.87567e-92
6.86196e-90
-6.0137e-88
4.6851e-86
-3.27693e-84
2.07451e-82
-1.19677e-80
6.32764e-79
-3.08142e-77
1.38797e-75
-5.80418e-74
2.26069e-72
-8.22483e-71
2.80221e-69
-8.96071e-68
2.69482e-66
-7.63566e-65
2.04172e-63
-5.15949e-62
1.23381e-60
-2.79528e-59
6.00616e-58
-1.22509e-56
2.3741e-55
-4.37434e-54
7.66813e-53
-1.2796e-51
2.03366e-50
-3.07947e-49
4.44435e-48
-6.11489e-47
8.0222e-46
-1.00362e-44
1.19737e-43
-1.36223e-42
1.47769e-41
-1.52801e-40
1.50575e-39
-1.41346e-38
1.26328e-37
-1.07429e-36
8.68585e-36
-6.6707e-35
4.86086e-34
-3.35627e-33
2.19234e-32
-1.35216e-31
7.85592e-31
-4.28708e-30
2.18953e-29
-1.04173e-28
4.58899e-28
-1.85606e-27
6.80893e-27
-2.22231e-26
6.23444e-26
-1.39294e-25
1.89917e-25
1.83916e-25
-2.2492e-24
8.23938e-24
-1.73467e-23
9.26387e-24
8.55429e-23
-3.64332e-22
6.54938e-22
2.79381e-22
-5.01388e-21
1.26236e-20
-3.5559e-21
-6.65921e-20
1.81642e-19
-2.84275e-20
-9.66851e-19
2.08659e-18
1.37839e-18
-1.35351e-17
1.45054e-17
4.8159e-17
-1.38814e-16
-6.63733e-17
7.50826e-16
-4.43715e-16
-3.1261e-15
4.53163e-15
1.10494e-14
-2.66435e-14
-3.5487e-14
1.28197e-13
1.13405e-13
-5.54283e-13
-4.10183e-13
2.2284e-12
1.81359e-12
-8.34165e-12
-9.12149e-12
2.81996e-11
4.59345e-11
-7.90816e-11
-2.1176e-10
1.36156e-10
8.38482e-10
2.30311e-10
-2.61792e-09
-3.33245e-09
5.05495e-09
1.64431e-08
3.61618e-09
-4.69755e-08
-7.39712e-08
3.94234e-08
2.80736e-07
3.1456e-07
-3.19564e-07
-1.44457e-06
-1.58535e-06
1.245e-06
6.74649e-06
9.48542e-06
2.78602e-07
-2.51457e-05
-5.34526e-05
-4.82797e-05
3.41085e-05
0.000203621
0.000385149
0.000393144
-2.67075e-05
-0.00106587
-0.00264759
-0.00420683
-0.0045397
-0.00179923
0.0063257
0.0222694
0.0481606
0.0854086
0.134405
0.194402
0.263595
0.339365
0.418629
0.498218
0.575219
0.647229
0.712494
0.769958
0.819204
0.860358
0.893946
0.920757
0.941713
0.957774
0.969853
0.978779
0.985263
0.9899
0.993164
0.995429
0.99698
0.998027
0.998725
0.999184
0.999484
0.999676
0.999799
0.999876
0.999925
0.999954
0.999973
0.999984
0.99999
0.999994
0.999997
0.999998
0.999999
0.999999
1
1
1
1
1
1
1
1
1
1
1
1
1
1
1
1
1
1
1
1
1
1
1
1
1
1
1
1
1
1
1
1
1
1
1
1
1
1
1
0.999999
0.999993
0.999991
1
1.00003
1.00005
1.00005
0.999966
0.999796
0.999615
0.999607
1.00003
1.00107
1.00265
1.00421
1.00454
1.0018
0.993674
0.977731
0.951839
0.914591
0.865595
0.805598
0.736405
0.660635
0.581371
0.501782
0.424781
0.352771
0.287506
0.230042
0.180796
0.139642
0.106054
0.0792434
0.0582867
0.0422264
0.0301469
0.0212214
0.0147368
0.0101004
0.00683588
0.0045705
0.00302022
0.00197333
0.00127533
0.000815586
0.000516302
0.000323649
0.000200968
0.000123651
7.54084e-05
4.55951e-05
2.73409e-05
1.62637e-05
9.59941e-06
5.62335e-06
3.27017e-06
1.88828e-06
1.08286e-06
6.16847e-07
3.49112e-07
1.96343e-07
1.0975e-07
6.09827e-08
3.36893e-08
1.85067e-08
1.01107e-08
5.4943e-09
2.97017e-09
1.59752e-09
8.54993e-10
4.5539e-10
2.41413e-10
1.27392e-10
6.69232e-11
3.50034e-11
1.823e-11
9.45467e-12
4.88353e-12
2.51239e-12
1.2875e-12
6.57272e-13
3.34288e-13
1.69398e-13
8.55348e-14
4.30381e-14
2.15811e-14
1.07853e-14
5.37227e-15
2.66736e-15
1.32017e-15
6.51369e-16
3.20407e-16
1.57138e-16
7.68393e-17
3.7466e-17
1.82164e-17
8.83253e-18
4.27094e-18
2.05968e-18
9.90682e-19
4.75278e-19
2.27435e-19
1.08564e-19
5.16947e-20
2.45561e-20
1.16371e-20
5.50192e-21
2.5953e-21
1.22147e-21
5.736e-22
2.68774e-22
1.2567e-22
5.86344e-23
2.73004e-23
1.2685e-23
5.88215e-24
2.72216e-24
1.2573e-24
5.79593e-25
2.66673e-25
1.22466e-25
5.61373e-26
2.56857e-26
1.17314e-26
5.34855e-27
2.43423e-27
1.10596e-27
5.01617e-28
2.27132e-28
1.02674e-28
4.63378e-29
2.08789e-29
9.39261e-30
4.21873e-30
1.89192e-30
8.47146e-31
3.78752e-31
1.69084e-31
7.53718e-32
3.35492e-32
1.49118e-32
6.61848e-33
2.93343e-33
1.29835e-33
5.73865e-34
2.53303e-34
1.11657e-34
4.9154e-35
2.16104e-35
9.48863e-36
4.16091e-36
1.82232e-36
7.97107e-37
3.48234e-37
1.51948e-37
6.62206e-38
2.88251e-38
1.25324e-38
5.44241e-39
2.36072e-39
1.02282e-39
4.4265e-40
1.91353e-40
8.26281e-41
3.56405e-41
1.53563e-41
6.6094e-42
2.84168e-42
1.22048e-42
5.23638e-43
2.24431e-43
9.60929e-44
4.11016e-44
1.75627e-44
7.49707e-45
3.19716e-45
1.36212e-45
5.79757e-46
2.46525e-46
1.04729e-46
4.44491e-47
1.88476e-47
7.98455e-48
3.37947e-48
1.42907e-48
6.03767e-49
2.54859e-49
1.07485e-49
4.52918e-50
1.90684e-50
8.02118e-51
3.37127e-51
1.41574e-51
5.94034e-52
2.49047e-52
1.04326e-52
4.36671e-53
1.82627e-53
7.63185e-54
3.18676e-54
1.32963e-54
5.54333e-55
2.30928e-55
9.61282e-56
3.99848e-56
1.66193e-56
6.90248e-57
2.86468e-57
1.18803e-57
4.92338e-58
2.03885e-58
8.43714e-59
3.48896e-59
1.44175e-59
5.95361e-60
2.4568e-60
1.01311e-60
4.17494e-61
1.71928e-61
7.0754e-62
2.90981e-62
1.19589e-62
4.91169e-63
2.01598e-63
8.26915e-64
3.38965e-64
1.38858e-64
5.68478e-65
2.32585e-65
9.50996e-66
3.88603e-66
1.58696e-66
6.47678e-67
2.64173e-67
1.07686e-67
4.38698e-68
1.78614e-68
7.26792e-69
2.95563e-69
1.20126e-69
4.87946e-70
1.98088e-70
8.03706e-71
3.25905e-71
1.32081e-71
5.34991e-72
2.16577e-72
8.76271e-73
3.54346e-73
1.43212e-73
5.78494e-74
2.33553e-74
9.42408e-75
3.8007e-75
1.532e-75
6.17205e-76
2.48527e-76
1.00022e-76
4.02339e-77
1.61759e-77
6.50019e-78
2.61075e-78
1.04806e-78
4.20528e-79
1.68651e-79
6.76034e-80
2.70855e-80
1.08467e-80
4.34157e-81
1.73696e-81
6.94586e-82
2.77624e-82
1.10914e-82
4.42905e-83
1.76781e-83
7.05277e-84
2.81245e-84
1.12102e-84
4.46627e-85
1.77861e-85
7.07984e-86
2.81691e-86
1.12029e-86
4.45346e-87
1.7696e-87
7.02852e-88
2.7904e-88
1.10734e-88
4.3925e-89
1.74164e-89
6.90272e-90
2.73465e-90
1.08293e-90
4.28669e-91
1.69614e-91
6.70851e-92
2.65224e-92
1.04815e-92
4.14055e-93
1.635e-93
6.45368e-94
2.54638e-94
1.00431e-94
3.95953e-95
1.56045e-95
6.14732e-96
2.42078e-96
9.52925e-97
3.7497e-97
1.47492e-97
5.79933e-98
2.27942e-98
8.95586e-99
3.51747e-99
1.38099e-99
5.41994e-100
2.12637e-100
8.33919e-101
3.26928e-101
1.28122e-101
5.01928e-102
1.96564e-102
7.69506e-103
3.01139e-103
1.17807e-103
4.60704e-104
1.80104e-104
7.03838e-105
2.74963e-105
1.07381e-105
4.19211e-106
1.63603e-106
6.38267e-107
2.48925e-107
9.70488e-108
3.7824e-108
1.47367e-108
5.73975e-109
2.23482e-109
8.69861e-110
3.38468e-110
1.31657e-110
5.11956e-111
1.99013e-111
7.73382e-112
3.00447e-112
1.16683e-112
4.5301e-113
1.75822e-113
6.82191e-114
2.64608e-114
1.02605e-114
3.9774e-115
1.54134e-115
5.97127e-116
2.31262e-116
8.95385e-117
3.46567e-117
1.34102e-117
5.18745e-118
2.00607e-118
7.75549e-119
2.99741e-119
1.15813e-119
4.47345e-120
1.72744e-120
6.66866e-121
2.57366e-121
9.92976e-122
3.83005e-122
1.47689e-122
5.69337e-123
2.19417e-123
8.45376e-124
3.25619e-124
1.25386e-124
4.82693e-125
1.85769e-125
7.14756e-126
2.74932e-126
1.05724e-126
4.06451e-127
1.56216e-127
6.00244e-128
2.30576e-128
8.85498e-129
3.39974e-129
1.30494e-129
5.00752e-130
1.92107e-130
7.368e-131
2.82517e-131
1.083e-131
4.15053e-132
1.59026e-132
6.09145e-133
2.33274e-133
8.93102e-134
3.41845e-134
1.30812e-134
5.00449e-135
1.9141e-135
7.31919e-136
2.79805e-136
1.0694e-136
4.08623e-137
1.56098e-137
5.9617e-138
2.27634e-138
8.68964e-139
3.31636e-139
1.26538e-139
4.82698e-140
1.8409e-140
7.0191e-141
2.67567e-141
1.01972e-141
3.88537e-142
1.48007e-142
5.6368e-143
2.14627e-143
8.17026e-144
3.10944e-144
1.1846e-144
4.11792e-145
)
;

boundaryField
{
    sides
    {
        type            zeroGradient;
    }
    empty
    {
        type            empty;
    }
}


// ************************************************************************* //
