/*--------------------------------*- C++ -*----------------------------------*\
| =========                 |                                                 |
| \\      /  F ield         | OpenFOAM: The Open Source CFD Toolbox           |
|  \\    /   O peration     | Version:  2112                                  |
|   \\  /    A nd           | Website:  www.openfoam.com                      |
|    \\/     M anipulation  |                                                 |
\*---------------------------------------------------------------------------*/
FoamFile
{
    version     2.0;
    format      ascii;
    arch        "LSB;label=32;scalar=64";
    class       volScalarField;
    location    "40.5";
    object      p;
}
// * * * * * * * * * * * * * * * * * * * * * * * * * * * * * * * * * * * * * //

dimensions      [0 2 -2 0 0 0 0];

internalField   nonuniform List<scalar> 
8800
(
0.82726
0.779471
0.740777
0.711777
0.690905
0.676061
0.665446
0.657945
0.653095
0.650995
0.652213
0.656362
0.662974
0.672265
0.685026
0.702747
0.727515
0.76145
0.803994
0.862696
0.658519
0.666197
0.673663
0.676968
0.675458
0.67037
0.66387
0.657773
0.65302
0.650138
0.649811
0.652267
0.656715
0.66263
0.669377
0.675641
0.67927
0.678527
0.673099
0.664403
0.636938
0.643096
0.647219
0.650155
0.652194
0.652784
0.651659
0.64953
0.647478
0.646522
0.64743
0.649761
0.652521
0.654672
0.655256
0.65404
0.651684
0.648281
0.643718
0.639956
0.631159
0.633808
0.636553
0.638948
0.640571
0.641717
0.642436
0.642523
0.642187
0.642082
0.642773
0.643889
0.644683
0.644711
0.644073
0.64296
0.641126
0.638543
0.636132
0.634628
0.625821
0.627244
0.629016
0.631038
0.632809
0.634131
0.635095
0.635857
0.636424
0.636926
0.637505
0.637934
0.637979
0.637646
0.636913
0.635636
0.633916
0.632051
0.630735
0.629903
0.6208
0.621719
0.622953
0.624509
0.626125
0.627629
0.628886
0.629912
0.630821
0.631639
0.632242
0.632488
0.632378
0.631881
0.630953
0.629715
0.628357
0.627074
0.626241
0.625691
0.615964
0.616633
0.617588
0.618878
0.62027
0.621704
0.62311
0.624386
0.62552
0.626537
0.627253
0.62752
0.627348
0.626764
0.625897
0.624899
0.623846
0.622893
0.622295
0.621891
0.611269
0.611784
0.612561
0.613679
0.614938
0.616286
0.617695
0.619114
0.620466
0.621695
0.622572
0.622914
0.622775
0.622292
0.621609
0.620817
0.619986
0.619266
0.618819
0.618504
0.606648
0.607058
0.607707
0.608701
0.609887
0.611185
0.612587
0.61408
0.615612
0.61708
0.618165
0.61866
0.618679
0.618384
0.617897
0.617294
0.616652
0.616111
0.615773
0.615519
0.602021
0.602353
0.602914
0.603829
0.604966
0.606245
0.607674
0.60925
0.610946
0.612671
0.614029
0.614774
0.615029
0.614952
0.614662
0.614254
0.613782
0.613388
0.613132
0.612922
0.597308
0.597582
0.598082
0.598951
0.600068
0.601367
0.602858
0.604554
0.606446
0.608461
0.61017
0.611247
0.61179
0.611958
0.61188
0.61166
0.611351
0.611084
0.610893
0.610715
0.592429
0.592659
0.593119
0.593973
0.595111
0.596473
0.598071
0.599944
0.602103
0.604485
0.606625
0.608092
0.608962
0.609403
0.609553
0.60952
0.609372
0.609214
0.609077
0.608922
0.587305
0.587497
0.587938
0.588807
0.590008
0.591478
0.593237
0.595353
0.597855
0.600706
0.60337
0.605302
0.606549
0.607298
0.607698
0.60786
0.607873
0.607817
0.607726
0.607588
0.581852
0.582014
0.58245
0.583362
0.584668
0.586294
0.588276
0.590709
0.593651
0.597094
0.600395
0.602879
0.604572
0.605678
0.606364
0.606749
0.606918
0.606958
0.606907
0.606782
0.575971
0.576106
0.576553
0.577536
0.578986
0.58082
0.583093
0.585924
0.589407
0.593565
0.597654
0.600826
0.603066
0.604592
0.605607
0.606243
0.606589
0.606727
0.606713
0.606597
0.569541
0.569648
0.570118
0.5712
0.572845
0.574958
0.577616
0.580968
0.585143
0.590196
0.595243
0.599229
0.602112
0.604125
0.605508
0.606426
0.606977
0.60722
0.607244
0.607135
0.562412
0.562505
0.563003
0.564213
0.566107
0.568573
0.571713
0.575722
0.580773
0.586937
0.59315
0.598118
0.601759
0.60437
0.60621
0.607453
0.608226
0.608582
0.608643
0.608537
0.554372
0.554453
0.555013
0.556365
0.558562
0.561475
0.56523
0.570055
0.576178
0.583704
0.591338
0.597499
0.602072
0.605397
0.607795
0.609439
0.610478
0.61096
0.611058
0.610952
0.545123
0.545178
0.545807
0.547372
0.549972
0.553462
0.557994
0.563863
0.571339
0.580544
0.589912
0.597501
0.603162
0.607333
0.610412
0.612539
0.61389
0.614518
0.614656
0.614547
0.534325
0.53436
0.535087
0.536935
0.540045
0.544279
0.549818
0.557027
0.566217
0.577509
0.588946
0.598217
0.605187
0.610366
0.614219
0.616933
0.618663
0.619454
0.61963
0.619512
0.521432
0.521454
0.522312
0.52453
0.528304
0.533503
0.540342
0.549253
0.560573
0.574401
0.588355
0.59965
0.608161
0.614546
0.619339
0.62277
0.624946
0.625921
0.626129
0.625996
0.505618
0.505634
0.506698
0.509459
0.514168
0.520707
0.529326
0.540516
0.554595
0.571555
0.588447
0.602027
0.612284
0.62004
0.625927
0.630166
0.632838
0.634004
0.634236
0.634079
0.485697
0.485719
0.48712
0.490721
0.496811
0.505264
0.516335
0.530527
0.548062
0.568797
0.589135
0.60536
0.617602
0.62691
0.634009
0.639171
0.642369
0.643718
0.64396
0.643773
0.459858
0.459913
0.461909
0.466911
0.475199
0.486519
0.501095
0.519322
0.54123
0.566466
0.590714
0.609842
0.624247
0.635241
0.643646
0.649795
0.65351
0.655008
0.655242
0.65502
0.425081
0.425256
0.428484
0.4361
0.448149
0.463885
0.483475
0.507013
0.534293
0.564747
0.593335
0.615585
0.632284
0.645069
0.654869
0.662006
0.666171
0.667754
0.667952
0.667695
0.375621
0.376641
0.383143
0.396127
0.414717
0.437282
0.463791
0.494064
0.527698
0.563987
0.597204
0.6227
0.641743
0.656345
0.667609
0.675671
0.680181
0.681757
0.68189
0.681596
0.30251
0.309858
0.324978
0.348031
0.376343
0.408061
0.443057
0.481124
0.521858
0.564552
0.602834
0.631916
0.653627
0.67034
0.683281
0.69237
0.697292
0.698938
0.699066
0.698817
0.223736
0.241004
0.265502
0.299196
0.337668
0.378712
0.422314
0.468425
0.516739
0.566654
0.611093
0.644845
0.670118
0.68967
0.704942
0.715479
0.720841
0.722474
0.722645
0.722549
0.158332
0.178629
0.210953
0.25353
0.300916
0.350754
0.40268
0.456666
0.512405
0.569338
0.619672
0.657787
0.686355
0.708489
0.725628
0.736988
0.742608
0.744637
0.744861
0.744853
0.104785
0.126784
0.16455
0.213509
0.267894
0.325076
0.384348
0.445545
0.50825
0.571834
0.627714
0.669872
0.701388
0.725723
0.744345
0.756785
0.76337
0.765214
0.765482
0.765518
0.0600932
0.0832426
0.124726
0.178714
0.238764
0.301988
0.367543
0.435118
0.504153
0.573891
0.634912
0.680763
0.714925
0.7412
0.761153
0.774521
0.781598
0.783647
0.784041
0.784098
0.0218814
0.0456914
0.0899864
0.147949
0.212725
0.281087
0.352092
0.425315
0.500076
0.575454
0.64121
0.690426
0.726921
0.754736
0.775587
0.789591
0.797119
0.799605
0.800106
0.800182
-0.0118403
0.0124041
0.058922
0.120171
0.188941
0.261771
0.337597
0.415898
0.495885
0.576489
0.646652
0.698941
0.737438
0.766416
0.787928
0.80238
0.810274
0.813149
0.813775
0.813859
-0.0425045
-0.0178849
0.0304522
0.0945508
0.166768
0.243515
0.323651
0.406574
0.491409
0.576937
0.651271
0.706404
0.746645
0.776607
0.798639
0.813483
0.821662
0.824771
0.825454
0.825518
-0.0709819
-0.0460205
0.00382042
0.0704064
0.145697
0.225931
0.309943
0.397109
0.486487
0.576714
0.655069
0.712912
0.754756
0.785576
0.808008
0.823121
0.831465
0.834715
0.835405
0.835435
-0.097984
-0.0726462
-0.0212919
0.0473229
0.125368
0.208722
0.296253
0.387332
0.480984
0.575741
0.658045
0.718557
0.761972
0.793631
0.816496
0.831784
0.840228
0.843553
0.844263
0.844265
-0.123812
-0.0980821
-0.0455536
0.0250651
0.105536
0.191693
0.282421
0.377116
0.474803
0.573948
0.660184
0.723413
0.768467
0.801025
0.824349
0.83984
0.848319
0.851584
0.852323
0.852317
-0.148827
-0.122591
-0.0690581
0.00338108
0.0860318
0.174709
0.268347
0.366381
0.467864
0.571259
0.661456
0.727531
0.774363
0.807933
0.831766
0.847442
0.855933
0.859152
0.859788
0.859734
-0.17312
-0.146473
-0.0918767
-0.0178369
0.0667516
0.157694
0.253975
0.355079
0.460117
0.567621
0.661829
0.73094
0.779751
0.814474
0.838886
0.854745
0.863178
0.866285
0.866825
0.866699
-0.196801
-0.169661
-0.114087
-0.0386481
0.0476632
0.140629
0.239286
0.343191
0.451534
0.56298
0.66124
0.733622
0.784683
0.820751
0.845804
0.861801
0.870079
0.872982
0.873394
0.873216
-0.219987
-0.192274
-0.135785
-0.0590789
0.0287555
0.123522
0.224306
0.33074
0.442117
0.557299
0.659617
0.73552
0.789176
0.826848
0.852616
0.868674
0.876675
0.879274
0.879553
0.879336
-0.242695
-0.214335
-0.156979
-0.0791216
0.0100638
0.106406
0.209083
0.317769
0.43189
0.55055
0.656882
0.736539
0.793196
0.832844
0.859462
0.875435
0.88294
0.885129
0.885259
0.885016
-0.264773
-0.235798
-0.177609
-0.0987474
-0.00837845
0.0893494
0.193676
0.30435
0.42091
0.542755
0.652964
0.736564
0.796644
0.838789
0.866559
0.882297
0.888938
0.890505
0.890464
0.890215
-0.286203
-0.256639
-0.197669
-0.117906
-0.0265119
0.0724125
0.178176
0.290561
0.409255
0.533942
0.647817
0.735447
0.799356
0.844645
0.874182
0.889732
0.89496
0.895433
0.895127
0.894924
-0.307059
-0.27683
-0.21714
-0.136568
-0.0442735
0.0556787
0.162669
0.276506
0.397019
0.524183
0.641401
0.733038
0.801087
0.850194
0.882501
0.898552
0.901991
0.900369
0.899296
0.899349
-0.327172
-0.296356
-0.235967
-0.154675
-0.0616062
0.0392302
0.14725
0.262294
0.38432
0.513578
0.633716
0.729186
0.801534
0.854965
0.891245
0.909551
0.91219
0.90768
0.904206
0.903492
-0.346642
-0.315208
-0.254173
-0.17226
-0.0785462
0.0230191
0.13186
0.247865
0.371088
0.502053
0.624631
0.723622
0.800361
0.858295
0.899463
0.92256
0.927665
0.92255
0.912835
0.897185
-0.365398
-0.333383
-0.271884
-0.189524
-0.0953869
0.00670615
0.116075
0.232727
0.356775
0.488958
0.613481
0.715523
0.796919
0.859195
0.904889
0.934291
0.942935
0.931745
0.91267
0.898281
-0.383265
-0.351011
-0.288909
-0.206254
-0.111797
-0.00936001
0.100123
0.21721
0.341698
0.47457
0.600383
0.704495
0.790571
0.856543
0.902674
0.931672
0.943987
0.922987
0.853916
0.822212
-0.39958
-0.369306
-0.304925
-0.221916
-0.127023
-0.0246791
0.0843093
0.201542
0.326075
0.459023
0.585305
0.690309
0.780128
0.849941
0.888438
0.910195
0.906695
0.855103
0.785233
0.741935
-0.455525
-0.385454
-0.319558
-0.237597
-0.142625
-0.0406991
0.0685703
0.185446
0.309548
0.441881
0.567687
0.672494
0.762021
0.838965
0.844878
0.854484
0.813216
0.746409
0.67025
0.627595
-0.417268
-0.401298
-0.341251
-0.25892
-0.165488
-0.0637298
0.0445626
0.160739
0.283749
0.414427
0.53783
0.640441
0.721546
0.800598
0.793646
0.68674
0.584227
0.512754
0.43999
0.47273
-0.448555
-0.419259
-0.35832
-0.27676
-0.183349
-0.0818247
0.0267013
0.142239
0.264157
0.392948
0.513357
0.611822
0.68495
0.726548
0.681238
0.537368
0.411609
0.321488
0.22279
0.274993
-0.472726
-0.440492
-0.37831
-0.296577
-0.203123
-0.101734
0.00669798
0.121397
0.241903
0.368255
0.484879
0.577591
0.641425
0.650614
0.547636
0.376421
0.224401
0.106005
-0.0253096
0.00880361
-0.496422
-0.462624
-0.399261
-0.316686
-0.223136
-0.121897
-0.0139686
0.0997725
0.218688
0.342271
0.454287
0.540484
0.58908
0.567091
0.41181
0.21612
0.02522
-0.144622
-0.335643
-0.351126
-0.519542
-0.48528
-0.421037
-0.337747
-0.244038
-0.143001
-0.0356908
0.0769842
0.194074
0.314548
0.421367
0.500361
0.531047
0.473909
0.282704
0.0721649
-0.146628
-0.338813
-0.584631
-0.892395
-0.54298
-0.508704
-0.443924
-0.360175
-0.266279
-0.165384
-0.058615
0.0529769
0.168159
0.285311
0.38676
0.45735
0.46945
0.361738
0.170673
-0.0394877
-0.245218
-0.419315
-0.487133
-0.571631
-0.567689
-0.53334
-0.468267
-0.3843
-0.29035
-0.189688
-0.0835477
0.0268011
0.139783
0.253136
0.348815
0.409065
0.396714
0.255217
0.0716345
-0.119362
-0.282574
-0.375388
-0.399188
-0.41556
-0.593982
-0.559507
-0.494243
-0.410215
-0.31639
-0.216121
-0.110842
-0.00202654
0.108362
0.217302
0.306738
0.353961
0.323432
0.156328
-0.0178375
-0.183354
-0.310408
-0.348715
-0.362332
-0.36365
-0.622063
-0.587382
-0.521919
-0.437918
-0.344346
-0.244685
-0.140512
-0.0335518
0.0738319
0.177812
0.260216
0.293642
0.245908
0.064451
-0.100375
-0.248311
-0.326269
-0.34249
-0.343787
-0.343634
-0.651996
-0.617018
-0.551319
-0.467399
-0.374229
-0.275364
-0.172555
-0.067784
0.036202
0.134751
0.209224
0.231587
0.14851
-0.0199949
-0.176609
-0.297935
-0.333153
-0.333384
-0.333242
-0.332661
-0.683499
-0.648261
-0.582337
-0.498569
-0.405944
-0.308093
-0.206931
-0.104688
-0.00449805
0.0882207
0.154494
0.161109
0.0571447
-0.0987614
-0.236687
-0.313609
-0.323537
-0.325726
-0.326158
-0.325955
-0.716015
-0.680632
-0.614716
-0.531199
-0.439299
-0.342707
-0.243477
-0.144121
-0.0480999
0.0385275
0.0966988
0.0881372
-0.0249655
-0.167571
-0.283848
-0.309812
-0.321028
-0.32222
-0.321458
-0.320979
-0.749095
-0.713608
-0.648004
-0.56489
-0.473936
-0.378872
-0.281905
-0.185791
-0.0943262
-0.0136841
0.0351892
0.0191331
-0.100742
-0.228608
-0.32007
-0.338703
-0.325241
-0.321019
-0.319548
-0.318575
-0.781871
-0.746515
-0.681342
-0.599031
-0.509305
-0.4161
-0.321746
-0.229217
-0.14269
-0.0678345
-0.028233
-0.0430313
-0.164903
-0.280986
-0.343305
-0.336602
-0.328127
-0.320236
-0.316627
-0.315393
-0.812764
-0.778163
-0.713805
-0.632694
-0.544625
-0.453665
-0.362318
-0.273712
-0.192389
-0.123496
-0.0873372
-0.110295
-0.207043
-0.324115
-0.368616
-0.357703
-0.331316
-0.310789
-0.304409
-0.302807
-0.840279
-0.80669
-0.744294
-0.664729
-0.578837
-0.49059
-0.402705
-0.318388
-0.242322
-0.180019
-0.142496
-0.179282
-0.226888
-0.293699
-0.369063
-0.351579
-0.333003
-0.32071
-0.314669
-0.311821
-0.862338
-0.830488
-0.770601
-0.693735
-0.61061
-0.525664
-0.44173
-0.362113
-0.291428
-0.236409
-0.19936
-0.246215
-0.240813
-0.147294
-0.235714
-0.32772
-0.416317
-0.442504
-0.431521
-0.424088
-0.87679
-0.847587
-0.791131
-0.717771
-0.638366
-0.557442
-0.478012
-0.403466
-0.338589
-0.291194
-0.256919
-0.334138
-0.349044
-0.152403
-0.185149
-0.407174
-0.538539
-0.568664
-0.563968
-0.562873
-0.881023
-0.855793
-0.803856
-0.73504
-0.660323
-0.58428
-0.509875
-0.440777
-0.382217
-0.342359
-0.312458
-0.469136
-0.746409
-1.04592
-1.04361
-0.821102
-0.685975
-0.643661
-0.635521
-0.635117
-0.873203
-0.852687
-0.806658
-0.743879
-0.674861
-0.604427
-0.535481
-0.47195
-0.419814
-0.387875
-0.378402
-0.592907
-0.995142
-1.58235
-1.59132
-0.998874
-0.727711
-0.667984
-0.664323
-0.662967
-0.851086
-0.835252
-0.797784
-0.742988
-0.680779
-0.616496
-0.553024
-0.494491
-0.44728
-0.421832
-0.429077
-0.525176
-0.483958
-0.313366
-0.249653
-0.353861
-0.564416
-0.612355
-0.605098
-0.59552
-0.816463
-0.805983
-0.777531
-0.732356
-0.677808
-0.619804
-0.561267
-0.506028
-0.461032
-0.43566
-0.437088
-0.393659
-0.205927
0.112456
0.0955209
-0.304994
-0.491823
-0.549603
-0.522237
-0.537766
-0.774843
-0.768867
-0.750055
-0.714273
-0.667475
-0.614839
-0.559885
-0.50596
-0.458842
-0.429595
-0.442113
-0.499909
-0.742401
-1.24938
-1.77948
-2.13581
-2.09005
-1.7904
-1.4901
-1.3404
-0.734403
-0.730998
-0.720778
-0.693602
-0.652684
-0.603733
-0.550105
-0.494326
-0.441436
-0.402603
-0.402464
-0.510316
-0.789711
-1.18794
-1.55479
-1.71039
-1.60146
-1.37813
-1.1599
-1.06282
-0.701921
-0.699837
-0.694667
-0.675064
-0.638388
-0.58996
-0.534444
-0.472772
-0.408119
-0.339362
-0.28203
-0.21547
-0.152209
0.0166942
0.233014
0.510851
0.791031
0.997174
1.11625
1.16426
-0.674107
-0.673241
-0.671895
-0.660409
-0.627521
-0.577682
-0.517241
-0.447002
-0.367003
-0.275503
-0.162928
0.00378272
0.289553
0.687769
1.13527
1.55874
1.90689
2.14566
2.27292
2.31002
-0.655604
-0.655091
-0.654931
-0.64912
-0.620496
-0.568274
-0.501293
-0.422972
-0.330964
-0.223401
-0.0927159
0.0431432
0.325353
0.768876
1.29404
1.78643
2.16887
2.40101
2.5092
2.5406
-0.641765
-0.641354
-0.641249
-0.639787
-0.616184
-0.561779
-0.488374
-0.403434
-0.306421
-0.193455
-0.0682829
0.0726434
0.263546
0.677021
1.15563
1.5936
1.92486
2.11719
2.20343
2.22707
-0.632444
-0.630865
-0.629628
-0.630812
-0.613506
-0.556928
-0.477154
-0.386869
-0.288772
-0.177011
-0.0577385
0.0721533
0.215605
0.496095
0.882921
1.20991
1.46337
1.60965
1.67347
1.68941
-0.635356
-0.634121
-0.635727
-0.638417
-0.61764
-0.55067
-0.462716
-0.368593
-0.271501
-0.165606
-0.0599061
0.0418922
0.13778
0.316447
0.582041
0.818569
0.998828
1.10213
1.14698
1.15649
-0.638589
-0.642645
-0.650707
-0.649627
-0.615973
-0.533475
-0.437779
-0.343726
-0.252633
-0.158979
-0.0729369
0.00235536
0.0705082
0.18544
0.364176
0.520048
0.635377
0.700906
0.727629
0.732875
-0.588835
-0.596005
-0.606281
-0.602487
-0.561999
-0.480726
-0.392189
-0.308319
-0.230573
-0.153674
-0.0854264
-0.0322636
0.015642
0.0872758
0.203425
0.304113
0.375368
0.413253
0.428612
0.430466
-0.444551
-0.451546
-0.459262
-0.456115
-0.427529
-0.376196
-0.318052
-0.258688
-0.200639
-0.142089
-0.0928369
-0.0594052
-0.0313776
0.0189883
0.0924532
0.154724
0.196096
0.217517
0.225644
0.225618
-0.259759
-0.26348
-0.269264
-0.273062
-0.268081
-0.252785
-0.229292
-0.199907
-0.165652
-0.12765
-0.097079
-0.0782781
-0.0631161
-0.0283974
0.0192825
0.0571893
0.0812934
0.0923403
0.0959453
0.0953444
-0.109684
-0.111495
-0.116738
-0.127037
-0.139675
-0.149128
-0.151273
-0.145171
-0.130786
-0.110289
-0.0924802
-0.0828813
-0.0761432
-0.0512583
-0.020881
0.00198502
0.013865
0.0185752
0.019741
0.0189661
-0.0236505
-0.0247822
-0.0298325
-0.0422999
-0.0615264
-0.0808281
-0.0950606
-0.101734
-0.100211
-0.09179
-0.0830979
-0.0791092
-0.0761695
-0.0571166
-0.036476
-0.0251278
-0.0204686
-0.0191388
-0.0191198
-0.0199391
0.0120385
0.0111955
0.00698398
-0.00400736
-0.0217613
-0.0413475
-0.0585843
-0.0706832
-0.0760212
-0.0746993
-0.0706093
-0.0680231
-0.0653671
-0.0511402
-0.0391335
-0.0337681
-0.0319868
-0.0319788
-0.0323713
-0.0332188
0.0199119
0.0193061
0.0162469
0.00805859
-0.00570015
-0.02196
-0.0375712
-0.0501251
-0.0578098
-0.0595729
-0.0566481
-0.0519741
-0.0464596
-0.0369364
-0.0309648
-0.0295398
-0.0294488
-0.0297909
-0.0302544
-0.0311649
0.0152306
0.014811
0.0127621
0.00722817
-0.00238812
-0.0144315
-0.0268999
-0.0378158
-0.0454062
-0.0477531
-0.0434372
-0.0353109
-0.0252099
-0.018616
-0.0184388
-0.0196093
-0.0203137
-0.020532
-0.0209425
-0.0219561
0.00623451
0.00593843
0.00462459
0.00111385
-0.00519977
-0.0135657
-0.02279
-0.0314098
-0.0379159
-0.0399433
-0.0346273
-0.0225657
-0.00912428
-0.00611462
-0.00957497
-0.0115584
-0.0117764
-0.0110873
-0.0111653
-0.0122491
-0.00306909
-0.003297
-0.00413194
-0.00625872
-0.0102207
-0.0158152
-0.0224339
-0.0291167
-0.0347495
-0.0369688
-0.031943
-0.0194082
-0.00602991
-0.00608348
-0.0101163
-0.0103753
-0.00849974
-0.00646718
-0.00627515
-0.00756824
-0.0108618
-0.0110591
-0.0116224
-0.0129191
-0.0153859
-0.0191335
-0.0239813
-0.0294257
-0.0346873
-0.0382871
-0.0364786
-0.02811
-0.0191103
-0.0213447
-0.0241783
-0.0223016
-0.0178471
-0.0143154
-0.0137085
-0.0149741
-0.0164266
-0.016616
-0.0170614
-0.0179414
-0.0195843
-0.0222622
-0.0260913
-0.0309719
-0.0367006
-0.0429135
-0.0472928
-0.0478772
-0.0476726
-0.0518788
-0.0511605
-0.0447682
-0.0382814
-0.0343987
-0.0338365
-0.0349798
-0.0196343
-0.0198199
-0.0202206
-0.0209521
-0.0221996
-0.0243638
-0.0276947
-0.0324884
-0.0392226
-0.0488729
-0.0614945
-0.0750808
-0.0871746
-0.0920359
-0.0843967
-0.074051
-0.066345
-0.0628277
-0.0624053
-0.0632265
-0.0207118
-0.0208896
-0.0212756
-0.0219785
-0.0230942
-0.0250403
-0.0281271
-0.0329283
-0.0403579
-0.0531437
-0.0735272
-0.100882
-0.124632
-0.126552
-0.112657
-0.0998419
-0.0929256
-0.0903705
-0.0900905
-0.0904956
-0.0200106
-0.0201821
-0.0205485
-0.0212391
-0.0223266
-0.0240923
-0.0271081
-0.0318942
-0.0398658
-0.0535985
-0.077602
-0.112185
-0.142848
-0.1407
-0.123806
-0.111984
-0.107075
-0.106144
-0.105897
-0.105986
-0.0178344
-0.0180048
-0.0183273
-0.0189546
-0.0199533
-0.0215571
-0.0241861
-0.0284677
-0.0356788
-0.0483786
-0.0703148
-0.102318
-0.127745
-0.122401
-0.110497
-0.105095
-0.104402
-0.104734
-0.104568
-0.104527
-0.0143989
-0.0145328
-0.0147687
-0.0153015
-0.0162181
-0.0176017
-0.0197469
-0.0232888
-0.028915
-0.0384695
-0.0535911
-0.0738695
-0.087016
-0.0825577
-0.0792662
-0.0820986
-0.0852575
-0.0867944
-0.0868411
-0.0867271
-0.0102271
-0.0103225
-0.0104626
-0.0107785
-0.0115353
-0.0126605
-0.0141644
-0.0164786
-0.0202763
-0.0260457
-0.0328241
-0.038783
-0.0410593
-0.0385258
-0.0437615
-0.0508802
-0.0550332
-0.0566847
-0.0571971
-0.0573472
-0.00576802
-0.00586868
-0.00594377
-0.00606363
-0.00644704
-0.00705011
-0.00811656
-0.00964619
-0.0114223
-0.0133217
-0.0141561
-0.00827064
0.00162451
-0.00216346
-0.0126005
-0.0221892
-0.0253457
-0.0260313
-0.0270597
-0.027305
-0.000927166
-0.0010066
-0.00110077
-0.0011986
-0.00131523
-0.00153701
-0.0018931
-0.00198895
-0.00200042
-0.00191032
-0.00127788
0.00171095
0.011231
0.00984318
0.000654753
-0.0033898
-0.00475976
-0.00544754
-0.00550617
-0.00506461
-0.102297
0.068827
0.268924
0.442594
0.581976
0.692507
0.784286
0.861998
0.896889
0.873616
0.209261
0.332755
0.465412
0.580306
0.677403
0.757975
0.823166
0.869324
0.892477
0.904457
0.433322
0.517956
0.608499
0.688775
0.757845
0.815629
0.861535
0.895039
0.91919
0.93709
0.597205
0.657432
0.720903
0.778973
0.829671
0.872683
0.907972
0.936087
0.959148
0.9774
0.724828
0.768819
0.815562
0.86008
0.899429
0.933764
0.963121
0.987522
1.00808
1.02589
0.830428
0.86384
0.902461
0.938493
0.971536
1.00112
1.02696
1.04865
1.06662
1.08396
0.923809
0.952802
0.987128
1.01956
1.04978
1.07717
1.1011
1.12095
1.13654
1.15361
1.0129
1.0423
1.07653
1.10876
1.13853
1.16526
1.18824
1.20681
1.22025
1.23728
1.10853
1.14187
1.17864
1.21234
1.24249
1.26877
1.29079
1.30813
1.32004
1.33744
1.22372
1.26163
1.30036
1.33467
1.36409
1.38889
1.40931
1.42524
1.43674
1.45481
1.36878
1.40738
1.44357
1.4743
1.50002
1.52215
1.54124
1.55679
1.56924
1.58724
1.54395
1.57559
1.6018
1.62428
1.64428
1.66302
1.68076
1.69725
1.71261
1.73068
1.73261
1.74982
1.76487
1.78112
1.79704
1.81159
1.8248
1.83874
1.85629
1.87645
1.91434
1.92389
1.93545
1.94626
1.95555
1.96514
1.97594
1.98731
1.99868
2.01404
2.12162
2.12528
2.11033
2.09552
2.08925
2.09493
2.11342
2.14373
2.17591
2.20257
2.42792
2.29306
2.21643
2.17407
2.15665
2.16061
2.18801
2.24443
2.34705
2.57141
0.717858
0.715726
0.711241
0.702611
0.69038
0.678242
0.667999
0.660081
0.654432
0.651134
0.650723
0.653406
0.658465
0.665652
0.675014
0.686536
0.699174
0.7102
0.716307
0.719357
0.642322
0.648167
0.654501
0.658987
0.661448
0.661113
0.65836
0.654527
0.650983
0.648676
0.648472
0.650608
0.654221
0.658473
0.662251
0.664114
0.663163
0.659669
0.654499
0.647876
0.633923
0.636219
0.639618
0.642607
0.644672
0.646156
0.646892
0.646549
0.645488
0.644553
0.644661
0.646023
0.647783
0.649045
0.649191
0.648276
0.646708
0.644357
0.641084
0.638159
0.628445
0.629531
0.631359
0.633729
0.635741
0.637154
0.638152
0.638872
0.639231
0.639396
0.639812
0.640543
0.641076
0.641091
0.640637
0.639757
0.638263
0.63616
0.63406
0.632673
0.623285
0.623948
0.625051
0.626747
0.628516
0.630129
0.6314
0.63238
0.633213
0.633936
0.634577
0.635037
0.635152
0.634922
0.634304
0.633208
0.631748
0.630179
0.628844
0.62806
0.618364
0.618825
0.619607
0.620896
0.622369
0.623866
0.625302
0.62656
0.627638
0.628613
0.629423
0.62988
0.629929
0.629574
0.628811
0.627768
0.6266
0.625434
0.624498
0.623977
0.613605
0.61395
0.614557
0.615616
0.616894
0.618246
0.619653
0.621053
0.622361
0.623547
0.62453
0.625085
0.62514
0.624761
0.624076
0.62323
0.622322
0.621414
0.620717
0.620334
0.608958
0.609226
0.609716
0.610615
0.611768
0.61304
0.614399
0.615836
0.617302
0.618711
0.619906
0.620606
0.620753
0.620501
0.619999
0.619348
0.618627
0.617931
0.617409
0.617117
0.604345
0.604558
0.604964
0.605754
0.606826
0.608047
0.609391
0.610865
0.612446
0.614069
0.615516
0.616436
0.616784
0.616738
0.616436
0.615978
0.61544
0.614921
0.614533
0.614303
0.599684
0.599855
0.600202
0.60092
0.601946
0.603143
0.604507
0.606052
0.607767
0.609613
0.611361
0.612588
0.613214
0.613415
0.613328
0.613065
0.612709
0.612343
0.612063
0.611881
0.594898
0.595035
0.59534
0.596014
0.597025
0.598244
0.599668
0.601324
0.603224
0.605341
0.607456
0.609072
0.610032
0.610514
0.610668
0.610608
0.610426
0.610202
0.610013
0.609867
0.589906
0.590016
0.590293
0.590948
0.591977
0.593262
0.594791
0.596616
0.598772
0.601244
0.603816
0.605897
0.607245
0.608043
0.60846
0.608615
0.608605
0.608517
0.608406
0.608288
0.584628
0.584714
0.584973
0.585635
0.586719
0.588113
0.589799
0.591855
0.594346
0.59728
0.600422
0.603055
0.604856
0.606023
0.606732
0.607125
0.607298
0.607338
0.607295
0.607202
0.578974
0.579037
0.579288
0.579976
0.581151
0.582698
0.584599
0.586957
0.589858
0.593354
0.597194
0.600512
0.602871
0.604479
0.605533
0.606198
0.606572
0.606747
0.606768
0.606695
0.572835
0.572876
0.573125
0.57386
0.575162
0.576914
0.5791
0.58185
0.585285
0.589491
0.59419
0.598334
0.601357
0.603482
0.604931
0.605894
0.606506
0.606823
0.606909
0.606854
0.566084
0.566098
0.566347
0.567152
0.568622
0.570638
0.573192
0.576446
0.580557
0.58564
0.591393
0.596548
0.600368
0.60311
0.605019
0.606334
0.607217
0.607693
0.607847
0.607809
0.558522
0.558528
0.558786
0.559676
0.561364
0.563707
0.56673
0.570621
0.575584
0.581782
0.588836
0.595186
0.599953
0.603432
0.605914
0.607663
0.608853
0.609503
0.609726
0.609703
0.549896
0.549868
0.550173
0.551191
0.553143
0.555901
0.559514
0.564198
0.570206
0.577739
0.586371
0.594221
0.600154
0.604521
0.607689
0.609977
0.61154
0.612398
0.6127
0.612691
0.539909
0.539854
0.540201
0.541395
0.543687
0.546995
0.551374
0.557092
0.564468
0.573725
0.584298
0.593885
0.601156
0.606562
0.610549
0.613469
0.61547
0.616569
0.616956
0.616958
0.52812
0.528038
0.528457
0.52988
0.532608
0.536615
0.541969
0.548997
0.558063
0.569412
0.58234
0.594059
0.602967
0.609634
0.614598
0.618272
0.62081
0.622195
0.622672
0.622679
0.513847
0.513738
0.514276
0.516018
0.519331
0.52428
0.53095
0.539721
0.550997
0.564993
0.580769
0.594955
0.605734
0.613844
0.619956
0.624523
0.627696
0.629403
0.62997
0.629974
0.496091
0.49596
0.496693
0.498921
0.503096
0.509393
0.517894
0.529016
0.543152
0.560432
0.579601
0.59666
0.609573
0.619339
0.626766
0.632324
0.636198
0.638243
0.638893
0.638884
0.473382
0.473237
0.474307
0.477314
0.482823
0.491138
0.502263
0.516602
0.534448
0.555764
0.578929
0.599257
0.614563
0.626146
0.635021
0.641709
0.646331
0.648707
0.649418
0.649386
0.443378
0.443261
0.444952
0.449351
0.457139
0.46865
0.483669
0.502464
0.525098
0.551311
0.579055
0.602977
0.620866
0.634407
0.644807
0.652696
0.658049
0.660704
0.661443
0.661381
0.401973
0.402027
0.405108
0.412404
0.424403
0.441149
0.461948
0.486751
0.51536
0.547302
0.580146
0.607932
0.628525
0.644098
0.656121
0.665243
0.671242
0.674067
0.674782
0.674682
0.34145
0.342663
0.350244
0.363974
0.383695
0.408757
0.437695
0.470169
0.505875
0.544237
0.582517
0.614272
0.637606
0.655214
0.668834
0.679105
0.685643
0.688472
0.689047
0.688907
0.269174
0.271016
0.28549
0.309209
0.339805
0.374681
0.412538
0.453257
0.496643
0.542186
0.586901
0.623739
0.650827
0.671353
0.687132
0.698903
0.706217
0.709212
0.709874
0.709857
0.194551
0.200855
0.222207
0.256091
0.296955
0.341398
0.388164
0.437176
0.488337
0.5412
0.592582
0.634742
0.665742
0.689375
0.707776
0.721346
0.729296
0.73196
0.732442
0.732523
0.133745
0.142256
0.168286
0.209173
0.257939
0.310489
0.365251
0.422012
0.48058
0.540487
0.598246
0.645392
0.680003
0.706368
0.726775
0.741587
0.749874
0.752985
0.753986
0.754139
0.0842226
0.0933194
0.12287
0.168911
0.223747
0.282811
0.344292
0.40787
0.473175
0.539625
0.603353
0.655133
0.693007
0.721792
0.743987
0.759951
0.769138
0.772935
0.774139
0.774314
0.0425654
0.051933
0.083891
0.133877
0.193649
0.258101
0.325278
0.394789
0.466115
0.538543
0.607772
0.663802
0.704639
0.735529
0.759183
0.776106
0.786093
0.790391
0.79178
0.791954
0.00636635
0.0158453
0.0496104
0.102753
0.166606
0.235644
0.307783
0.382535
0.459283
0.537172
0.611485
0.671429
0.714911
0.747527
0.772175
0.789724
0.800409
0.805141
0.806668
0.806875
-0.02599
-0.0164728
0.0186664
0.0745137
0.141799
0.214785
0.291306
0.370763
0.45246
0.535414
0.6145
0.678095
0.723933
0.757978
0.783405
0.801504
0.81262
0.81772
0.819349
0.819576
-0.0557051
-0.0461457
-0.00989107
0.0483087
0.118553
0.195025
0.275436
0.359154
0.445421
0.533148
0.616785
0.683845
0.731852
0.767142
0.793233
0.811729
0.823098
0.8285
0.830188
0.830405
-0.0835558
-0.0739465
-0.0366641
0.023478
0.0963932
0.175975
0.259875
0.34748
0.437997
0.530254
0.6183
0.688733
0.738819
0.775269
0.801959
0.820756
0.832295
0.837809
0.839507
0.839745
-0.110022
-0.100353
-0.0621651
-0.000296191
0.0750101
0.157359
0.244413
0.335576
0.430052
0.526635
0.618997
0.692792
0.744972
0.782607
0.809922
0.829039
0.840727
0.846273
0.847959
0.848077
-0.135542
-0.125719
-0.0867021
-0.0232643
0.0541697
0.138996
0.228902
0.323322
0.421499
0.522209
0.61882
0.696043
0.750417
0.78934
0.817346
0.836789
0.848594
0.854096
0.855725
0.855841
-0.160307
-0.150262
-0.110527
-0.0456028
0.0337248
0.120766
0.213252
0.310657
0.412267
0.516911
0.61772
0.698485
0.755232
0.795592
0.824384
0.844178
0.856073
0.861514
0.863039
0.86313
-0.184393
-0.174144
-0.133659
-0.0673975
0.0135955
0.102619
0.197425
0.297543
0.402326
0.510687
0.615639
0.700099
0.759455
0.80146
0.831154
0.851319
0.863236
0.868528
0.869918
0.869947
-0.207942
-0.1974
-0.156197
-0.0887142
-0.00624391
0.0845393
0.181416
0.283984
0.391672
0.503519
0.612513
0.700822
0.763086
0.807014
0.837754
0.85828
0.87013
0.875189
0.876377
0.876332
-0.230911
-0.220088
-0.178185
-0.109586
-0.0257898
0.0665478
0.165266
0.270022
0.380331
0.495393
0.60829
0.700568
0.766076
0.812294
0.84429
0.865159
0.876765
0.881432
0.882386
0.882279
-0.253364
-0.242231
-0.199573
-0.129986
-0.0450169
0.0486807
0.149021
0.255716
0.368356
0.486331
0.602926
0.69924
0.768326
0.817296
0.8509
0.872122
0.883226
0.887264
0.887916
0.887749
-0.275125
-0.26375
-0.220355
-0.149871
-0.0638752
0.0310126
0.132751
0.241138
0.35582
0.476393
0.596405
0.696741
0.769693
0.821945
0.857724
0.879495
0.889763
0.892723
0.892919
0.892698
-0.296339
-0.284611
-0.240522
-0.169225
-0.0823307
0.0135861
0.116547
0.22637
0.342813
0.465661
0.58874
0.692966
0.769989
0.826048
0.8648
0.887768
0.897039
0.89817
0.897417
0.897102
-0.316845
-0.304795
-0.260047
-0.188004
-0.100305
-0.00351311
0.100492
0.211535
0.329447
0.454206
0.579982
0.687825
0.768999
0.829277
0.871888
0.897358
0.906365
0.905044
0.902014
0.900726
-0.336708
-0.324347
-0.278879
-0.206158
-0.117764
-0.0202161
0.0846703
0.196712
0.315835
0.442171
0.570213
0.681245
0.766517
0.831183
0.878288
0.907954
0.919089