/*--------------------------------*- C++ -*----------------------------------*\
| =========                 |                                                 |
| \\      /  F ield         | OpenFOAM: The Open Source CFD Toolbox           |
|  \\    /   O peration     | Version:  2112                                  |
|   \\  /    A nd           | Website:  www.openfoam.com                      |
|    \\/     M anipulation  |                                                 |
\*---------------------------------------------------------------------------*/
FoamFile
{
    version     2.0;
    format      ascii;
    arch        "LSB;label=32;scalar=64";
    class       surfaceScalarField;
    location    "40.5";
    object      phi;
}
// * * * * * * * * * * * * * * * * * * * * * * * * * * * * * * * * * * * * * //

dimensions      [0 3 -1 0 0 0 0];

oriented        oriented;

internalField   nonuniform List<scalar> 
17370
(
-0.0916071
0.096007
0.284611
-0.0775907
0.0594145
0.364952
-0.0430366
0.0316176
0.427587
-0.0223135
0.0162599
0.505305
-0.0116648
0.00878867
0.602278
-0.00657605
0.00509292
0.720541
-0.00386239
0.00299015
0.863779
-0.00222555
0.00165275
1.03602
-0.00112472
0.000705464
1.24292
-0.000294857
-9.74188e-05
1.49158
0.000483666
-0.00089219
1.4916
0.00129392
-0.00179871
1.2432
0.00235204
-0.0031002
1.03639
0.00396334
-0.00518821
0.864131
0.00666618
-0.00887014
0.721261
0.0117347
-0.0163141
0.603794
0.0223526
-0.0316413
0.508728
0.0430446
-0.0594122
0.432536
0.07759
-0.0960046
0.36519
0.0916199
0.197391
-0.127087
0.0880178
0.0390694
-0.364351
0.354024
-0.0714788
0.0818048
-0.446655
0.454247
-0.0791685
0.071576
-0.521009
0.529106
-0.0637266
0.0556295
-0.612987
0.620758
-0.0482422
0.0404713
-0.72716
0.733681
-0.0338578
0.0273374
-0.867581
0.872421
-0.0221387
0.0172986
-1.03856
1.04189
-0.0136136
0.0102864
-1.24472
1.24712
-0.00774304
0.00534312
-1.49284
1.49485
-0.00338358
0.00137375
-1.49269
1.49451
0.000444403
-0.00226256
-1.24411
1.24602
0.0042339
-0.00614357
-1.03761
1.04009
0.00848085
-0.0109648
-0.866189
0.869826
0.0142307
-0.0178679
-0.724596
0.729758
0.0226643
-0.0278266
-0.609068
0.61564
0.0343061
-0.0408788
-0.515126
0.522465
0.0486015
-0.0559406
-0.43988
0.447664
0.0639687
-0.0717532
-0.374712
0.377357
0.0792576
-0.0819035
-0.256903
0.224446
0.0715552
-0.039098
-0.0688008
0.0591864
0.00961441
-0.0521224
0.0589574
-0.374832
0.367997
-0.0581129
0.0542734
-0.45394
0.457779
-0.0487869
0.0442272
-0.527608
0.532167
-0.039676
0.0357802
-0.62079
0.624686
-0.0315709
0.0275851
-0.734651
0.738637
-0.023244
0.019372
-0.873947
0.877819
-0.0153409
0.0118935
-1.04335
1.0468
-0.00838312
0.00535835
-1.24864
1.25167
-0.00215873
-0.000817212
-1.49694
1.49992
0.00377207
-0.00691504
-1.49742
1.50056
0.00985989
-0.0132649
-1.25007
1.25348
0.0166091
-0.0205282
-1.04566
1.04958
0.0243072
-0.0285586
-0.877145
0.881396
0.0324698
-0.0365989
-0.738991
0.74312
0.0404224
-0.0448987
-0.625983
0.630459
0.0493965
-0.0548234
-0.535026
0.540453
0.0585973
-0.0593641
-0.458086
0.458853
0.0524271
-0.0320507
-0.33678
0.316403
0.009669
-0.0686738
0.0590048
-0.0533944
0.0492798
0.00411454
-0.0332646
0.0436973
-0.358541
0.348108
-0.0473794
0.0467967
-0.459564
0.460146
-0.0438714
0.0406608
-0.536114
0.539325
-0.0369855
0.0336331
-0.628374
0.631727
-0.0300049
0.0267742
-0.742013
0.745244
-0.023339
0.0201587
-0.881314
0.884494
-0.0165836
0.0132467
-1.05022
1.05356
-0.00956413
0.00617299
-1.25492
1.25831
-0.00239373
-0.0012154
-1.50327
1.50687
0.0047962
-0.00849354
-1.50406
1.50776
0.0117737
-0.0153074
-1.25705
1.26058
0.0184952
-0.0219051
-1.05329
1.0567
0.0249466
-0.028248
-0.885003
0.888304
0.0313679
-0.0348817
-0.746804
0.750318
0.0381309
-0.0416943
-0.634586
0.638149
0.0448077
-0.0476262
-0.544603
0.547421
0.048101
-0.0442708
-0.456978
0.453148
0.0336589
-0.0163626
-0.297101
0.279805
0.00417368
-0.05316
0.0489864
-0.0461069
0.0435477
0.00255922
-0.0230726
0.0334353
-0.337504
0.327141
-0.0391807
0.040137
-0.459887
0.458931
-0.0388918
0.0365671
-0.541971
0.544296
-0.0339279
0.0313864
-0.634682
0.637223
-0.0284202
0.025589
-0.748322
0.751154
-0.022374
0.0193797
-0.887545
0.890539
-0.0160463
0.012927
-1.05672
1.05984
-0.00938774
0.00600498
-1.2617
1.26508
-0.00211382
-0.00166696
-1.5106
1.51438
0.00541178
-0.00919409
-1.51154
1.51532
0.0124305
-0.0157739
-1.26404
1.26739
0.0186954
-0.0218071
-1.05991
1.06302
0.0246102
-0.0276376
-0.891498
0.894525
0.0303154
-0.0331247
-0.7535
0.756309
0.0355267
-0.0380191
-0.641115
0.643607
0.0402188
-0.041302
-0.549269
0.550352
0.0401808
-0.0341976
-0.448041
0.442058
0.0235762
-0.0103527
-0.26464
0.251416
0.00263218
-0.045749
0.0431168
-0.0414259
0.0396215
0.00180437
-0.0169726
0.0262737
-0.317258
0.307957
-0.0328858
0.035018
-0.457357
0.455225
-0.0345939
0.0329037
-0.546312
0.548003
-0.0306842
0.0285654
-0.639518
0.641637
-0.0261416
0.0237814
-0.753744
0.756104
-0.0209908
0.0182657
-0.893387
0.896112
-0.0151035
0.0120896
-1.06287
1.06588
-0.00864769
0.00535379
-1.26838
1.27168
-0.00153564
-0.00219448
-1.51813
1.52186
0.00587822
-0.00955774
-1.51907
1.52275
0.0126636
-0.0158532
-1.27067
1.27386
0.0186128
-0.021489
-1.06605
1.06893
0.0239641
-0.026507
-0.897312
0.899855
0.0286657
-0.0308876
-0.758752
0.760974
0.0328307
-0.0348645
-0.645845
0.647879
0.0363771
-0.0365834
-0.550948
0.551155
0.0342004
-0.0272436
-0.435495
0.428538
0.0175982
-0.00744502
-0.239872
0.229719
0.00189335
-0.040916
0.0390226
-0.0380682
0.0367125
0.00135574
-0.0129742
0.0209902
-0.299301
0.291285
-0.0277772
0.0307143
-0.452656
0.449719
-0.0309331
0.0298177
-0.549427
0.550542
-0.0278247
0.0259073
-0.643678
0.645596
-0.0237128
0.0215951
-0.758335
0.760453
-0.0191189
0.01668
-0.898642
0.901081
-0.0137914
0.0109646
-1.06875
1.07158
-0.00766697
0.00448067
-1.27489
1.27807
-0.000781245
-0.00281941
-1.52551
1.52911
0.00636175
-0.00988759
-1.52636
1.52989
0.0128393
-0.0158239
-1.27698
1.27997
0.0183359
-0.0208681
-1.07165
1.07418
0.0229917
-0.025147
-0.90217
0.904325
0.0269996
-0.0289326
-0.763026
0.764959
0.0306304
-0.0324067
-0.649762
0.651539
0.0332681
-0.0327466
-0.551008
0.550486
0.0294537
-0.0221977
-0.421378
0.414122
0.013742
-0.00573267
-0.220741
0.212732
0.00146386
-0.0373729
0.035909
-0.0355279
0.0344823
0.00104558
-0.0101488
0.0169397
-0.283905
0.277114
-0.0234807
0.0268882
-0.446524
0.443116
-0.0276968
0.0270257
-0.551423
0.552094
-0.0252825
0.0235218
-0.647469
0.64923
-0.0214895
0.0195147
-0.762506
0.764481
-0.0171893
0.014902
-0.903385
0.905672
-0.0122091
0.00956871
-1.07425
1.07689
-0.00646338
0.00343056
-1.28115
1.28418
0.000117717
-0.003571
-1.53262
1.53607
0.00695415
-0.0102857
-1.53332
1.53666
0.0130277
-0.0157453
-1.28285
1.28557
0.0179963
-0.0202467
-1.07658
1.07883
0.022139
-0.0240609
-0.906361
0.908283
0.025704
-0.0274112
-0.766759
0.768466
0.0288993
-0.0303425
-0.653167
0.65461
0.0306935
-0.0294707
-0.549628
0.548405
0.0255779
-0.018425
-0.406896
0.399743
0.0110854
-0.00459045
-0.205552
0.199057
0.00117666
-0.0346071
0.0334305
-0.0335641
0.032748
0.000816142
-0.00805351
0.01377
-0.27089
0.265173
-0.0198362
0.0234522
-0.439595
0.435979
-0.0247477
0.024328
-0.552667
0.553087
-0.0228605
0.0212125
-0.650977
0.652625
-0.0192812
0.0174041
-0.766412
0.768289
-0.0151946
0.0130216
-0.907839
0.910012
-0.0104613
0.00795688
-1.07938
1.08188
-0.0050207
0.00215067
-1.28708
1.28995
0.00121015
-0.00448275
-1.53942
1.54269
0.0076685
-0.0107655
-1.53988
1.54297
0.0132773
-0.0157363
-1.28818
1.29064
0.017759
-0.0197705
-1.08099
1.083
0.0214528
-0.0231612
-0.910096
0.911805
0.024627
-0.0261559
-0.770061
0.77159
0.0274691
-0.0285593
-0.655855
0.656945
0.0285603
-0.0266931
-0.546869
0.545002
0.0224358
-0.0155906
-0.392742
0.385896
0.00919631
-0.0037912
-0.19316
0.187755
0.000975596
-0.0323691
0.0313935
-0.0320311
0.031392
0.000639083
-0.00643685
0.0112326
-0.259947
0.255151
-0.0167158
0.0203475
-0.432358
0.428726
-0.0219879
0.0218114
-0.553426
0.553602
-0.0205961
0.0190233
-0.654283
0.655856
-0.0171634
0.0153479
-0.770133
0.771948
-0.0132094
0.0111073
-0.912068
0.91417
-0.00863375
0.00622011
-1.08426
1.08667
-0.00340047
0.000662694
-1.2927
1.29543
0.00251686
-0.00559118
-1.54583
1.5489
0.00855858
-0.0114189
-1.54595
1.54881
0.0137248
-0.0159709
-1.29302
1.29527
0.0178064
-0.0196144
-1.08493
1.08674
0.0211095
-0.0226154
-0.91342
0.914926
0.0239077
-0.0252625
-0.773017
0.774372
0.0264321
-0.0271277
-0.65782
0.658516
0.0267718
-0.0243787
-0.542897
0.540504
0.0199179
-0.0134577
-0.379256
0.372796
0.0078289
-0.0032207
-0.18279
0.178182
0.000832865
-0.0305032
0.0296703
-0.0308346
0.0303394
0.000495192
-0.00513149
0.00912894
-0.250784
0.246786
-0.0139758
0.0174651
-0.42518
0.42169
-0.0193035
0.0193368
-0.553719
0.553686
-0.0183446
0.0168317
-0.657459
0.658972
-0.0150188
0.0132379
-0.773734
0.775515
-0.0111377
0.00907946
-0.916158
0.918217
-0.00666915
0.00432982
-1.08896
1.0913
-0.00160921
-0.00101702
-1.29805
1.30068
0.00404903
-0.00695231
-1.55185
1.55476
0.00972495
-0.012366
-1.55156
1.5542
0.014464
-0.0164787
-1.29744
1.29946
0.0181054
-0.019696
-1.08848
1.09007
0.0210092
-0.0223332
-0.916365
0.917689
0.0234726
-0.0246653
-0.775623
0.776816
0.025656
-0.0259865
-0.658997
0.659327
0.0252665
-0.0224514
-0.53792
0.535105
0.0179076
-0.0118474
-0.366557
0.360497
0.00682898
-0.00281002
-0.173905
0.169886
0.000731345
-0.0289015
0.0281702
-0.0299134
0.0295402
0.0003732
-0.00403249
0.00732442
-0.243169
0.239877
-0.0115191
0.0147527
-0.418354
0.41512
-0.0166556
0.016849
-0.553633
0.55344
-0.015947
0.0145128
-0.660519
0.661953
-0.012708
0.0109313
-0.777273
0.77905
-0.00884793
0.00682079
-0.92015
0.922177
-0.00446048
0.00217947
-1.09351
1.09579
0.000455754
-0.00298857
-1.30318
1.30572
0.00588202
-0.00861373
-1.55754
1.56027
0.0111874
-0.0136043
-1.55672
1.55914
0.0154966
-0.0172875
-1.30139
1.30318
0.0187146
-0.0200944
-1.09159
1.09297
0.0212232
-0.0223602
-0.918943
0.92008
0.0233404
-0.024359
-0.777923
0.778941
0.0251093
-0.0251745
-0.659523
0.659588
0.0240779
-0.020915
-0.532139
0.528976
0.0163502
-0.010653
-0.354647
0.34895
0.00610899
-0.00252176
-0.166117
0.16253
0.000662518
-0.0274877
0.0268252
-0.0292281
0.0289639
0.000264114
-0.00306263
0.00571167
-0.236932
0.234283
-0.00924672
0.0121387
-0.412085
0.409193
-0.0140025
0.0143068
-0.553258
0.552954
-0.0134856
0.0121328
-0.66343
0.664783
-0.0103391
0.00854808
-0.780806
0.782597
-0.0064417
0.00439641
-0.924092
0.926137
-0.00202991
-0.000233156
-1.09796
1.10022
0.00283388
-0.00529472
-1.30813
1.3106
0.00806933
-0.0106506
-1.56287
1.56545
0.0130389
-0.015233
-1.56143
1.56363
0.0169112
-0.0184633
-1.3049
1.30645
0.0196834
-0.0208521
-1.09428
1.09544
0.0218011
-0.0227571
-0.921155
0.922111
0.0235807
-0.0244029
-0.779884
0.780706
0.0248872
-0.024685
-0.659485
0.659283
0.0232116
-0.0197363
-0.525689
0.522214
0.0151747
-0.00978459
-0.343447
0.338057
0.00560119
-0.00232525
-0.159135
0.155859
0.000617918
-0.0262015
0.0255836
-0.0287573
0.0285973
0.000160033
-0.00215498
0.00419262
-0.231962
0.229925
-0.00705369
0.00952328
-0.406545
0.404076
-0.0112285
0.011557
-0.552718
0.55239
-0.0107799
0.00947099
-0.666206
0.667515
-0.007665
0.00583475
-0.784361
0.786191
-0.00367913
0.0015956
-0.928065
0.930149
0.000793757
-0.00306478
-1.10237
1.10465
0.00563532
-0.00804215
-1.31295
1.31535
0.0107174
-0.0131575
-1.56791
1.57035
0.0153624
-0.0173329
-1.5657
1.56767
0.0187953
-0.0201096
-1.30793
1.30925
0.0211116
-0.0220431
-1.09655
1.09748
0.022782
-0.0235139
-0.92299
0.923722
0.0241379
-0.0247602
-0.781441
0.782063
0.024938
-0.0244336
-0.658858
0.658354
0.0225993
-0.0188542
-0.518648
0.514903
0.0143095
-0.00916981
-0.332844
0.327704
0.00525584
-0.00219911
-0.152732
0.149675
0.000592142
-0.0249964
0.0244042
-0.0284942
0.0284398
5.43233e-05
-0.00125745
0.00269128
-0.228206
0.226773
-0.0048589
0.00683905
-0.401891
0.399911
-0.00827711
0.00853622
-0.552205
0.551945
-0.00773756
0.00641723
-0.668943
0.670263
-0.00455265
0.00266115
-0.787993
0.789884
-0.000446134
-0.00167963
-0.932093
0.934219
0.00410609
-0.00639725
-1.10679
1.10908
0.00897077
-0.0113459
-1.31765
1.32002
0.0139312
-0.0162244
-1.57266
1.57495
0.0182307
-0.0199534
-1.56949
1.57121
0.0211736
-0.0222102
-1.31046
1.3115
0.0229519
-0.0235969
-1.09832
1.09896
0.0240824
-0.0245656
-0.924391
0.924874
0.0250106
-0.0254784
-0.782607
0.783075
0.0253636
-0.0245196
-0.65756
0.656716
0.0223168
-0.018311
-0.511107
0.507101
0.0137586
-0.00879177
-0.322721
0.317755
0.00505879
-0.00213826
-0.146733
0.143812
0.000584483
-0.0238375
0.0232531
-0.0284424
0.0284959
-5.34937e-05
-0.000338735
0.00115487
-0.225655
0.224839
-0.00259216
0.00401252
-0.398248
0.396827
-0.00509217
0.00522459
-0.551886
0.551753
-0.00438788
0.00304503
-0.671739
0.673081
-0.00112547
-0.000848724
-0.791742
0.793717
0.00317684
-0.00541012
-0.936217
0.938451
0.0079478
-0.0103175
-1.11126
1.11363
0.0129371
-0.0153074
-1.32229
1.32466
0.0178258
-0.0199898
-1.57711
1.57927
0.0218057
-0.0232786
-1.57279
1.57426
0.0242472
-0.0250018
-1.31244
1.3132
0.0254863
-0.0258546
-1.09954
1.09991
0.0260796
-0.0262837
-0.925289
0.925493
0.0264911
-0.0266404
-0.783272
0.783421
0.026258
-0.0249651
-0.655541
0.654248
0.0223555
-0.0180639
-0.503067
0.498776
0.0134724
-0.00861146
-0.312928
0.308067
0.0049854
-0.00213174
-0.140978
0.138125
0.000591925
-0.0226885
0.0220966
-0.0286168
0.0287962
-0.000179375
0.000618917
-0.000471897
-0.224337
0.22419
-0.000173406
0.000948914
-0.395752
0.394977
-0.00154897
0.00145813
-0.551896
0.551987
-0.000523205
-0.000909961
-0.674626
0.676059
0.00293674
-0.00504535
-0.795673
0.797782
0.00753441
-0.00990737
-0.940562
0.942935
0.0125765
-0.0150388
-1.11588
1.11834
0.0177225
-0.0201082
-1.32692
1.32931
0.0225782
-0.0246207
-1.5813
1.58334
0.0262272
-0.0274148
-1.57556
1.57675
0.0280886
-0.0284839
-1.31382
1.31422
0.0286455
-0.0286781
-1.10018
1.10021
0.0286176
-0.0285233
-0.925627
0.925533
0.0284672
-0.0282715
-0.783208
0.783012
0.0275732
-0.0257498
-0.652662
0.650838
0.0227281
-0.0181513
-0.494496
0.489919
0.0134801
-0.00864157
-0.303325
0.298486
0.00504114
-0.00218169
-0.135331
0.132472
0.000614882
-0.0215209
0.020906
-0.0290517
0.0293816
-0.000329906
0.00172508
-0.00222408
-0.224377
0.224876
0.00245291
-0.00243677
-0.394569
0.394553
0.00247027
-0.00292419
-0.552499
0.552953
0.00408003
-0.00568296
-0.677764
0.679367
0.00788823
-0.0101611
-0.799861
0.802134
0.0128246
-0.0153476
-0.945158
0.947681
0.0181721
-0.0207605
-1.12068
1.12326
0.0235482
-0.0259741
-1.33157
1.334
0.0283973
-0.0302834
-1.58522
1.58711
0.0316488
-0.032506
-1.57773
1.57858
0.0328657
-0.0328809
-1.31447
1.31448
0.0326803
-0.032321
-1.10009
1.09973
0.031911
-0.0314581
-0.925308
0.924855
0.0311039
-0.0304976
-0.782387
0.781781
0.0293992
-0.0270214
-0.648818
0.64644
0.0235507
-0.0186238
-0.485379
0.480452
0.013795
-0.00888296
-0.293743
0.288831
0.00522521
-0.00228784
-0.129649
0.126712
0.000653473
-0.0203044
0.0196509
-0.029779
0.0302807
-0.000501714
0.00300555
-0.00430857
-0.225788
0.227091
0.00547064
-0.00626993
-0.394899
0.395698
0.00702171
-0.00789404
-0.553934
0.554806
0.00929212
-0.0110846
-0.681305
0.683098
0.013518
-0.0160254
-0.804385
0.806893
0.0189644
-0.0217384
-0.95007
0.952844
0.02482
-0.0276092
-1.12574
1.12853
0.0305614
-0.0330667
-1.33631
1.33881
0.0354756
-0.0372297
-1.58882
1.59058
0.0383465
-0.038847
-1.57921
1.57971
0.0388321
-0.0384276
-1.31431
1.31391
0.0378268
-0.037037
-1.09915
1.09836
0.0362445
-0.0353744
-0.924191
0.923321
0.0346434
-0.0335071
-0.78066
0.779524
0.0319064
-0.028897
-0.643932
0.640923
0.0248909
-0.0195289
-0.475568
0.470206
0.0144531
-0.00935453
-0.283987
0.278889
0.00554387
-0.00244987
-0.123785
0.120691
0.000706723
-0.0190076
0.0183008
-0.0308604
0.0315894
-0.000728934
0.0045475
-0.00676269
-0.228827
0.231042
0.00899933
-0.0107187
-0.396919
0.398638
0.0123133
-0.0137342
-0.55635
0.557771
0.0154981
-0.0175626
-0.685297
0.687362
0.0203175
-0.0231527
-0.809387
0.812222
0.0264729
-0.0295877
-0.955509
0.958624
0.0330105
-0.0360574
-1.13122
1.13427
0.0392071
-0.0417951
-1.34119
1.34378
0.0441637
-0.0457386
-1.59213
1.5937
0.0465396
-0.0466093
-1.57993
1.58
0.0461451
-0.0452633
-1.31324
1.31236
0.0442123
-0.0429341
-1.09729
1.09601
0.0417106
-0.0403732
-0.922154
0.920816
0.039174
-0.0374616
-0.777839
0.776126
0.0352255
-0.0314842
-0.637802
0.634061
0.0268743
-0.020979
-0.464912
0.459017
0.015531
-0.0100974
-0.273825
0.268391
0.00601512
-0.00267038
-0.11758
0.114235
0.000772729
-0.0176037
0.016831
-0.032395
0.0334155
-0.00102049
0.00644049
-0.00972211
-0.233689
0.236971
0.0132023
-0.0159817
-0.400901
0.403681
0.0185457
-0.0206621
-0.560066
0.562182
0.0229929
-0.0255078
-0.689967
0.692482
0.0287547
-0.032027
-0.815052
0.818324
0.0358038
-0.0393017
-0.961617
0.965115
0.0430956
-0.046421
-1.1372
1.14052
0.049787
-0.0524628
-1.34621
1.34889
0.0547765
-0.0561297
-1.59503
1.59638
0.0565572
-0.0561194
-1.57973
1.57929
0.0551411
-0.0536603
-1.31111
1.30963
0.052083
-0.0502301
-1.09435
1.0925
0.0485041
-0.0466377
-0.919085
0.917219
0.0449145
-0.0425796
-0.773837
0.771502
0.0396494
-0.0350951
-0.630258
0.625703
0.0297586
-0.0231539
-0.453184
0.44658
0.0171554
-0.0111902
-0.262941
0.256976
0.00668002
-0.00296279
-0.110834
0.107116
0.000853575
-0.0160665
0.0152129
-0.0345001
0.0359067
-0.00140668
0.0088475
-0.0134171
-0.240652
0.245221
0.0183321
-0.0222972
-0.407153
0.411118
0.0259512
-0.0288912
-0.565436
0.568376
0.0319674
-0.0351135
-0.695684
0.69883
0.039041
-0.0428932
-0.821596
0.825448
0.0472547
-0.051239
-0.968496
0.97248
0.055501
-0.0591721
-1.14374
1.14741
0.0627925
-0.0655521
-1.35139
1.35415
0.0677489
-0.0687815
-1.59743
1.59846
0.0687288
-0.0676688
-1.57844
1.57738
0.0660773
-0.0638977
-1.30767
1.30549
0.0616982
-0.0592188
-1.09016
1.08768
0.056949
-0.0545254
-0.914877
0.912453
0.0522189
-0.0492188
-0.768584
0.765584
0.0455091
-0.0399876
-0.621097
0.615575
0.0337554
-0.0262287
-0.44003
0.432503
0.0194523
-0.0126997
-0.250927
0.244175
0.00756863
-0.00333768
-0.103295
0.0990636
0.000952328
-0.0143653
0.013413
-0.0373557
0.0393114
-0.00195569
0.012111
-0.0183007
-0.250129
0.256318
0.0249177
-0.0302528
-0.416068
0.421403
0.0351692
-0.0390851
-0.572771
0.576686
0.0430597
-0.0469989
-0.702787
0.706726
0.0518081
-0.0564168
-0.829305
0.833913
0.061543
-0.066149
-0.97639
0.980996
0.070979
-0.0750237
-1.15096
1.15501
0.0788593
-0.08161
-1.35668
1.35943
0.0835549
-0.0841155
-1.5991
1.59966
0.0834121
-0.0815608
-1.57582
1.57397
0.0792315
-0.0762673
-1.30277
1.29981
0.0733994
-0.0702264
-1.08455
1.08138
0.0673755
-0.0643418
-0.909422
0.906388
0.0613508
-0.0575861
-0.761956
0.758191
0.0529462
-0.046283
-0.610007
0.603344
0.0389693
-0.0302565
-0.425031
0.416318
0.0224183
-0.0145884
-0.237273
0.229443
0.00864329
-0.00377394
-0.0946924
0.0898231
0.00106215
-0.012468
0.0114058
-0.0412677
0.0440685
-0.00280081
0.0168516
-0.0251654
-0.262781
0.271095
0.0338718
-0.0408644
-0.428247
0.43524
0.0473199
-0.0524433
-0.582486
0.58761
0.0576539
-0.0627092
-0.711626
0.716681
0.0686174
-0.0741267
-0.838519
0.844028
0.0801141
-0.0853575
-0.985533
0.990777
0.0906825
-0.0949635
-1.15886
1.16315
0.0987972
-0.101304
-1.36182
1.36433
0.102708
-0.102527
-1.59968
1.5995
0.100918
-0.0980419
-1.57151
1.56863
0.0948006
-0.0908947
-1.29622
1.29232
0.0872374
-0.0833072
-1.07744
1.07351
0.0798458
-0.0761633
-0.902514
0.898831
0.0724854
-0.0677932
-0.753649
0.748957
0.0621155
-0.0541248
-0.59663
0.588639
0.0454632
-0.0351944
-0.407639
0.39737
0.0259532
-0.0167495
-0.221428
0.212224
0.00982495
-0.00423397
-0.084809
0.079218
0.00117272
-0.0103578
0.00918506
-0.0467903
0.0510319
-0.00424159
0.024306
-0.0355514
-0.279703
0.290949
0.0470066
-0.0562191
-0.444752
0.453965
0.0645664
-0.0711539
-0.595227
0.601815
0.0779694
-0.0844958
-0.722722
0.729249
0.091645
-0.098018
-0.849508
0.855881
0.104695
-0.110326
-0.995834
1.00146
0.115798
-0.119957
-1.16705
1.17121
0.123372
-0.125246
-1.36626
1.36814
0.125678
-0.124364
-1.59857
1.59725
0.121518
-0.117339
-1.565
1.56082
0.112978
-0.10795
-1.28772
1.28269
0.103378
-0.0985751
-1.0687
1.0639
0.0944619
-0.0901014
-0.894008
0.889647
0.0857443
-0.0799936
-0.743301
0.73755
0.0730443
-0.0633825
-0.580474
0.570812
0.0529987
-0.0407685
-0.387098
0.374868
0.0298007
-0.0189819
-0.202897
0.192078
0.010974
-0.00464781
-0.0735472
0.067221
0.00126114
-0.00804486
0.00678372
-0.0549915
0.0622949
-0.00730342
0.037665
-0.0532629
-0.303038
0.318635
0.0685579
-0.0806703
-0.46709
0.479202
0.0909896
-0.0990302
-0.611528
0.619568
0.107486
-0.115295
-0.736464
0.744273
0.123359
-0.130143
-0.86201
0.868793
0.136912
-0.14234
-1.00663
1.01206
0.147316
-0.150769
-1.17468
1.17814
0.15317
-0.153868
-1.36915
1.36984
0.152807
-0.14994
-1.59492
1.59205
0.145545
-0.139826
-1.55571
1.54999
0.134168
-0.127843
-1.27687
1.27054
0.1222
-0.116382
-1.05811
1.05229
0.111467
-0.106276
-0.883862
0.878672
0.101139
-0.0940146
-0.730575
0.72345
0.0854109
-0.0735875
-0.560664
0.548841
0.0610809
-0.0465731
-0.362562
0.348054
0.0336809
-0.0211422
-0.181361
0.168822
0.0120167
-0.00498301
-0.061015
0.0539814
0.00131106
-0.00558848
0.00427742
-0.0691402
0.0731779
-0.00403774
0.0286083
-0.0420604
-0.336777
0.350229
0.0555781
-0.0664797
-0.496477
0.507378
0.0762446
-0.0855135
-0.631081
0.64035
0.0959814
-0.105255
-0.751762
0.761036
0.115488
-0.124548
-0.874731
0.883791
0.134077
-0.142417
-1.01654
1.02488
0.150921
-0.157963
-1.18048
1.18752
0.164558
-0.169301
-1.36934
1.37409
0.172666
-0.173651
-1.58791
1.5889
0.172173
-0.1687
-1.54313
1.53965
0.164192
-0.158308
-1.26329
1.25741
0.152668
-0.145976
-1.04537
1.03867
0.140164
-0.133688
-0.871717
0.865241
0.126933
-0.117044
-0.714611
0.704721
0.104636
-0.0881369
-0.53617
0.519671
0.0712821
-0.0521687
-0.333189
0.314076
0.0361489
-0.0215607
-0.156731
0.142143
0.0116363
-0.00456348
-0.0476152
0.0405423
0.00111129
-0.00311346
0.00200216
-0.0802726
0.0783489
0.00192372
0.00687631
-0.015628
-0.36654
0.375292
0.0258417
-0.0335698
-0.522996
0.530724
0.0414066
-0.0493749
-0.651918
0.659886
0.0589375
-0.0676687
-0.770022
0.778753
0.0768797
-0.0852682
-0.892338
0.900726
0.094096
-0.101515
-1.03296
1.04038
0.109271
-0.115327
-1.1944
1.20045
0.120913
-0.124582
-1.3785
1.38217
0.126455
-0.126039
-1.58893
1.58851
0.123075
-0.118047
-1.53516
1.53013
0.111992
-0.104531
-1.25081
1.24334
0.0974634
-0.0894627
-1.03089
1.02289
0.0820539
-0.0738439
-0.855196
0.846986
0.0662778
-0.0575907
-0.690845
0.682158
0.0482465
-0.0368123
-0.501099
0.489665
0.0263464
-0.0165157
-0.294629
0.284798
0.00988313
-0.00502676
-0.128269
0.123413
0.00234237
-0.0008067
-0.0340115
0.0324758
0.000193125
-0.00088455
0.000691425
-0.0815517
0.0786523
0.00289938
-0.00209592
-0.00288177
-0.386537
0.391515
0.00975781
-0.0155184
-0.54253
0.548291
0.0215463
-0.0283936
-0.669704
0.676552
0.0366451
-0.0442255
-0.786648
0.794228
0.0524982
-0.0599078
-0.908433
0.915843
0.067491
-0.0742281
-1.04767
1.05441
0.081052
-0.0864448
-1.2061
1.21149
0.0909281
-0.0935643
-1.38512
1.38776
0.0946024
-0.0932023
-1.58721
1.58581
0.0892755
-0.0833039
-1.52418
1.51821
0.0765497
-0.0686211
-1.23542
1.22749
0.0608817
-0.0526141
-1.01415
1.00588
0.0451351
-0.0369576
-0.837593
0.829416
0.029684
-0.0217488
-0.669477
0.661542
0.0141668
-0.00592381
-0.476065
0.467822
0.000435905
0.00274038
-0.273938
0.270762
-0.003639
0.00322906
-0.117456
0.117866
-0.00224192
0.00106493
-0.0304815
0.0316585
-0.000284908
-0.000414794
0.000699702
-0.0802408
0.0775165
0.00272428
-0.0055287
0.00317278
-0.399795
0.402151
0.00118051
-0.00562583
-0.557218
0.561663
0.0108589
-0.0166642
-0.684391
0.690196
0.0237857
-0.0303813
-0.801278
0.807873
0.0375746
-0.0440465
-0.922799
0.929271
0.0510516
-0.0568682
-1.06077
1.06659
0.0629331
-0.0672698
-1.2165
1.22083
0.0711407
-0.0733139
-1.39018
1.39235
0.0738228
-0.0719568
-1.58399
1.58213
0.0682006
-0.0626553
-1.51182
1.50627
0.0563957
-0.0486983
-1.21951
1.21181
0.0414274
-0.0334117
-0.997239
0.989223
0.0256543
-0.0171235
-0.819898
0.811367
0.0090102
-0.000973757
-0.649567
0.641531
-0.00528806
0.0104442
-0.457934
0.452778
-0.0123727
0.0117788
-0.264879
0.265473
-0.00993729
0.00712369
-0.116871
0.119684
-0.00457722
0.00209976
-0.032108
0.0345855
-0.000597972
-0.000846093
0.00144407
-0.0787414
0.0763536
0.00238772
-0.0065397
0.00571361
-0.408655
0.409481
-0.00245882
-0.000808213
-0.569187
0.572455
0.00520633
-0.0105623
-0.696839
0.702195
0.016641
-0.0225421
-0.813861
0.819763
0.0288941
-0.0346188
-0.935368
0.941093
0.0407286
-0.0459882
-1.0723
1.07756
0.0512093
-0.0552871
-1.22507
1.22914
0.0587189
-0.0606611
-1.39424
1.39619
0.0611743
-0.0596184
-1.58032
1.57877
0.0564671
-0.0515778
-1.50048
1.49559
0.046155
-0.0394371
-1.20446
1.19775
0.0327018
-0.0247061
-0.980816
0.97282
0.016833
-0.00778119
-0.801359
0.792308
-0.000429666
0.00818739
-0.630398
0.62264
-0.0134737
0.0168304
-0.445171
0.441815
-0.0173316
0.0152242
-0.262452
0.26456
-0.0122309
0.00867746
-0.12094
0.124494
-0.00551521
0.00251972
-0.0363058
0.0393013
-0.000747152
-0.0018744
0.00262156
-0.0773887
0.0753505
0.00203821
-0.00638436
0.00603461
-0.414752
0.415102
-0.00409821
0.00135399
-0.578522
0.581266
0.00295995
-0.00762474
-0.70759
0.712255
0.0129737
-0.0182089
-0.824949
0.830184
0.02396
-0.0291501
-0.946525
0.951715
0.0348029
-0.0394728
-1.08257
1.08724
0.044252
-0.0480313
-1.23298
1.23676
0.0512313
-0.0531326
-1.39799
1.39989
0.0538114
-0.0530118
-1.57739
1.57659
0.0504022
-0.0463363
-1.49063
1.48657
0.0414646
-0.0352222
-1.19106
1.18482
0.0290046
-0.0210638
-0.964568
0.956627
0.0132556
-0.00457646
-0.782486
0.773806
-0.00303969
0.00996933
-0.612814
0.605885
-0.0143213
0.0170391
-0.435865
0.433148
-0.0170217
0.0148487
-0.262959
0.265132
-0.0119662
0.00843101
-0.126447
0.129983
-0.00531157
0.00244518
-0.0412525
0.0441189
-0.000732554
-0.00309116
0.00382371
-0.0763796
0.0747914
0.0015882
-0.00551835
0.00550147
-0.419269
0.419286
-0.00393535
0.00182368
-0.58679
0.588902
0.00225727
-0.00654445
-0.71708
0.721367
0.0116989
-0.0162944
-0.835071
0.839667
0.0214202
-0.0260697
-0.956906
0.961556
0.0314653
-0.0357579
-1.09196
1.09625
0.0400911
-0.043782
-1.24041
1.2441
0.0473054
-0.0492822
-1.40193
1.4039
0.0503296
-0.0497976
-1.57559
1.57506
0.0478605
-0.0439247
-1.48243
1.4785
0.0394959
-0.0336681
-1.17844
1.17262
0.0275545
-0.0201344
-0.948612
0.941192
0.0127438
-0.00458805
-0.764532
0.756376
-0.00201147
0.00810844
-0.597372
0.591275
-0.011884
0.0138326
-0.428245
0.426297
-0.0139982
0.0124707
-0.264066
0.265594
-0.0100717
0.00707663
-0.131673
0.134668
-0.0044554
0.00207003
-0.0457635
0.0481489
-0.000634511
-0.00419721
0.00483172
-0.0758637
0.0746121
0.00125164
-0.00448007
0.00460761
-0.422812
0.422684
-0.00322772
0.00122304
-0.59402
0.596025
0.00268314
-0.0065492
-0.725731
0.729597
0.0110281
-0.0154906
-0.844228
0.84869
0.020257
-0.0250417
-0.966032
0.970817
0.0297258
-0.0338625
-1.10065
1.10479
0.0383809
-0.0419218
-1.24772
1.25126
0.045115
-0.0476476
-1.40588
1.40842
0.0490298
-0.048871
-1.57466
1.57451
0.0471025
-0.0436469
-1.47474
1.47128
0.039421
-0.0338239
-1.16641
1.16082
0.0281108
-0.0212317
-0.933629
0.92675
0.0146077
-0.00761268
-0.748205
0.74121
0.00162971
0.00356583
-0.583979
0.578783
-0.00682182
0.00878284
-0.421934
0.419973
-0.00923681
0.00828353
-0.264472
0.265426
-0.00672724
0.00472483
-0.135547
0.137549
-0.00300615
0.00142151
-0.0492109
0.0507956
-0.000458234
-0.00507364
0.00553188
-0.0758572
0.0748114
0.00104586
-0.00323777
0.00314826
-0.425926
0.426015
-0.00198296
5.77173e-05
-0.60066
0.602585
0.00357685
-0.00730732
-0.733817
0.737548
0.0115976
-0.0156487
-0.852938
0.856989
0.0205141
-0.0245115
-0.975042
0.979039
0.0291696
-0.0331546
-1.10909
1.11308
0.0376168
-0.0414225
-1.25483
1.25864
0.0449868
-0.0473804
-1.41077
1.41316
0.0491348
-0.0493277
-1.57428
1.57447
0.0480649
-0.0447469
-1.46764
1.46432
0.0408216
-0.0355666
-1.15526
1.15
0.0303272
-0.0240557
-0.919728
0.913456
0.0183106
-0.0121445
-0.734068
0.727902
0.00699614
-0.00229486
-0.572675
0.567974
-0.000911871
0.00281625
-0.415675
0.413771
-0.00364805
0.00353194
-0.263743
0.263859
-0.00302367
0.00210869
-0.137497
0.138412
-0.00132238
0.000658843
-0.0510276
0.0516912
-0.000224886
-0.00558793
0.00581281
-0.0761173
0.0753923
0.00072502
-0.00209473
0.00159388
-0.429099
0.4296
-0.000632584
-0.00148589
-0.606404
0.608523
0.00467876
-0.00823254
-0.741326
0.74488
0.0123066
-0.0164489
-0.860886
0.865028
0.0206777
-0.0248216
-0.983244
0.987388
0.0294522
-0.0332625
-1.11751
1.12132
0.0378643
-0.0416792
-1.26229
1.2661
0.0453551
-0.048292
-1.41599
1.41893
0.0504971
-0.0508779
-1.57468
1.57506
0.049725
-0.0469651
-1.46109
1.45833
0.0434941
-0.0386087
-1.1446
1.13972
0.0337408
-0.028279
-0.907188
0.901726
0.0228352
-0.0175133
-0.721548
0.716226
0.0129086
-0.00846782
-0.562749
0.558308
0.00537635
-0.00294683
-0.409452
0.407022
0.00163171
-0.000838908
-0.261593
0.2608
0.000464773
-0.000213603
-0.137339
0.137088
8.30318e-06
0.000110528
-0.0512272
0.0511083
-8.72044e-05
-0.005682
0.0057692
-0.076794
0.0762243
0.000569673
-0.00111565
0.000720598
-0.432467
0.432862
0.000809706
-0.00278254
-0.612213
0.614186
0.00606215
-0.00944081
-0.74824
0.751619
0.013308
-0.017014
-0.86882
0.872526
0.0213383
-0.0251654
-0.991538
0.995365
0.0297619
-0.0340306
-1.12559
1.12986
0.0383202
-0.0424968
-1.26999
1.27417
0.0466108
-0.0496301
-1.42178
1.4248
0.052147
-0.0532077
-1.57562
1.57668
0.0523852
-0.0501534
-1.4554
1.45316
0.0468613
-0.0424784
-1.13486
1.13047
0.0381435
-0.0330751
-0.895932
0.890864
0.0282633
-0.0233483
-0.71044
0.705525
0.0190748
-0.0147286
-0.553248
0.548902
0.0114225
-0.00861288
-0.402837
0.400028
0.00652899
-0.00486301
-0.257816
0.25615
0.0034946
-0.00213982
-0.13512
0.133765
0.00109972
-0.000330574
-0.0499084
0.0491393
2.36725e-05
-0.00542439
0.00540072
-0.0777415
0.0773542
0.000387304
-7.71518e-05
-0.000546182
-0.435946
0.436569
0.00199215
-0.00421752
-0.617571
0.619797
0.00735661
-0.0105259
-0.754813
0.757983
0.0144188
-0.0179347
-0.876187
0.879703
0.0220816
-0.0260295
-0.99967
1.00362
0.0305478
-0.0348083
-1.134
1.13826
0.0393474
-0.0435696
-1.27829
1.28251
0.0478689
-0.0515998
-1.42811
1.43184
0.0544931
-0.0557653
-1.57765
1.57892
0.0555491
-0.0535869
-1.45079
1.44883
0.0508453
-0.0470414
-1.12603
1.12223
0.0428791
-0.0382024
-0.885565
0.880888
0.033753
-0.0290112
-0.700247