/*--------------------------------*- C++ -*----------------------------------*\
| =========                 |                                                 |
| \\      /  F ield         | OpenFOAM: The Open Source CFD Toolbox           |
|  \\    /   O peration     | Version:  2112                                  |
|   \\  /    A nd           | Website:  www.openfoam.com                      |
|    \\/     M anipulation  |                                                 |
\*---------------------------------------------------------------------------*/
FoamFile
{
    version     2.0;
    format      ascii;
    arch        "LSB;label=32;scalar=64";
    class       volVectorField;
    location    "40.5";
    object      U;
}
// * * * * * * * * * * * * * * * * * * * * * * * * * * * * * * * * * * * * * //

dimensions      [0 1 -1 0 0 0 0];

internalField   nonuniform List<vector> 
8800
(
(0.980152 -0.0915211 0)
(1.00234 -0.058724 0)
(0.999601 -0.0321251 0)
(0.999993 -0.0165174 0)
(1.00006 -0.00883304 0)
(1.00006 -0.00508533 0)
(1.00004 -0.0029921 0)
(1.00001 -0.00169484 0)
(0.999995 -0.000799008 0)
(1.00006 -0.000101908 0)
(0.999989 0.000601064 0)
(1 0.00135128 0)
(1.00001 0.00238107 0)
(1.00002 0.00399332 0)
(1.00003 0.00674452 0)
(0.999986 0.0120472 0)
(0.999796 0.0230942 0)
(0.999036 0.0431584 0)
(1.00723 0.0790278 0)
(0.775023 0.0478396 0)
(0.358978 -0.014749 0)
(1.04649 -0.0724922 0)
(1.08848 -0.0660288 0)
(1.04946 -0.0509223 0)
(1.02554 -0.0377016 0)
(1.01271 -0.025893 0)
(1.00654 -0.0167071 0)
(1.00361 -0.0102403 0)
(1.00218 -0.00562324 0)
(1.00151 -0.00203933 0)
(1.00138 0.00116879 0)
(1.00174 0.00447249 0)
(1.0027 0.00836266 0)
(1.00473 0.0136858 0)
(1.00897 0.0213782 0)
(1.01794 0.0318788 0)
(1.03579 0.0446549 0)
(1.06741 0.0581004 0)
(1.09471 0.0699645 0)
(0.845648 0.055505 0)
(0.217763 -0.00138157 0)
(1.07567 -0.0506657 0)
(1.09942 -0.0489517 0)
(1.06438 -0.0400358 0)
(1.03987 -0.0325737 0)
(1.02376 -0.025364 0)
(1.01399 -0.0181694 0)
(1.00849 -0.0115695 0)
(1.00564 -0.00582729 0)
(1.00447 -0.000550809 0)
(1.00479 0.00454958 0)
(1.00664 0.00983371 0)
(1.01056 0.0158125 0)
(1.01788 0.0225862 0)
(1.0305 0.0297083 0)
(1.05048 0.0368044 0)
(1.08004 0.0445845 0)
(1.10567 0.0519161 0)
(0.943309 0.0410006 0)
(0.217226 0.00140391 0)
(0.176605 -0.000629354 0)
(1.01936 -0.0354804 0)
(1.1057 -0.0414346 0)
(1.07796 -0.0364219 0)
(1.0524 -0.0303773 0)
(1.03516 -0.0245072 0)
(1.02332 -0.0187381 0)
(1.01552 -0.0127667 0)
(1.01092 -0.00669668 0)
(1.0089 -0.000476984 0)
(1.00944 0.00567057 0)
(1.01252 0.0115784 0)
(1.01847 0.0173508 0)
(1.02806 0.0229475 0)
(1.04227 0.0285236 0)
(1.06309 0.0343191 0)
(1.09387 0.04021 0)
(1.09446 0.041746 0)
(0.830301 0.0227617 0)
(0.175687 0.000647006 0)
(0.154677 -0.000463301 0)
(0.958087 -0.025712 0)
(1.10437 -0.0351527 0)
(1.08805 -0.0327113 0)
(1.06119 -0.0282078 0)
(1.04313 -0.0232612 0)
(1.03076 -0.0179935 0)
(1.02218 -0.012477 0)
(1.01665 -0.00659297 0)
(1.01401 -0.000168533 0)
(1.01467 0.00626873 0)
(1.01847 0.0121346 0)
(1.02524 0.0174606 0)
(1.03537 0.0224907 0)
(1.05013 0.0273445 0)
(1.07208 0.0318044 0)
(1.10105 0.0356935 0)
(1.06978 0.0339195 0)
(0.742739 0.0144304 0)
(0.153307 0.000483109 0)
(0.139972 -0.000335352 0)
(0.901002 -0.0193513 0)
(1.09672 -0.0302706 0)
(1.09614 -0.02941 0)
(1.06885 -0.0256433 0)
(1.05 -0.0215827 0)
(1.03706 -0.0169218 0)
(1.0281 -0.0117068 0)
(1.02218 -0.00602113 0)
(1.01922 0.000302572 0)
(1.01987 0.00665549 0)
(1.02389 0.0122933 0)
(1.03092 0.0172784 0)
(1.04142 0.0217785 0)
(1.05681 0.0257619 0)
(1.07963 0.0292994 0)
(1.1034 0.032029 0)
(1.03811 0.0280541 0)
(0.676075 0.0102743 0)
(0.138047 0.000358815 0)
(0.129212 -0.000254027 0)
(0.851039 -0.0149564 0)
(1.0843 -0.02618 0)
(1.10177 -0.0265476 0)
(1.07563 -0.0232432 0)
(1.05627 -0.0196221 0)
(1.0429 -0.0154794 0)
(1.03357 -0.0106677 0)
(1.02739 -0.0052195 0)
(1.02422 0.000898057 0)
(1.02477 0.00701351 0)
(1.02882 0.0123616 0)
(1.03601 0.0169299 0)
(1.04681 0.0208287 0)
(1.0626 0.0242033 0)
(1.08586 0.0272786 0)
(1.10272 0.0291309 0)
(1.00361 0.0234745 0)
(0.624251 0.00785857 0)
(0.126611 0.000282458 0)
(0.121002 -0.000195475 0)
(0.80844 -0.0117714 0)
(1.06888 -0.0225935 0)
(1.1052 -0.0239467 0)
(1.08179 -0.0211199 0)
(1.06197 -0.0177466 0)
(1.04834 -0.0138926 0)
(1.03877 -0.00940862 0)
(1.03232 -0.00425239 0)
(1.02893 0.00161179 0)
(1.02935 0.00744743 0)
(1.03338 0.012432 0)
(1.04064 0.0165474 0)
(1.05157 0.0199905 0)
(1.06762 0.0229744 0)
(1.09127 0.0257293 0)
(1.09918 0.0266724 0)
(0.968799 0.0198475 0)
(0.582795 0.00627337 0)
(0.11758 0.000229903 0)
(0.11463 -0.000151092 0)
(0.772503 -0.00938569 0)
(1.05189 -0.0194299 0)
(1.10743 -0.0215247 0)
(1.08754 -0.0190831 0)
(1.06732 -0.0158766 0)
(1.05344 -0.012213 0)
(1.04368 -0.00796974 0)
(1.03701 -0.00309147 0)
(1.0334 0.00247956 0)
(1.03364 0.00797892 0)
(1.03758 0.0125585 0)
(1.0448 0.0162459 0)
(1.05576 0.019305 0)
(1.07206 0.0219682 0)
(1.09545 0.0244106 0)
(1.09291 0.024582 0)
(0.935067 0.017008 0)
(0.548729 0.00517422 0)
(0.110209 0.000192984 0)
(0.109649 -0.000116168 0)
(0.742311 -0.00753282 0)
(1.03441 -0.0166197 0)
(1.10869 -0.0192618 0)
(1.09299 -0.0171592 0)
(1.07245 -0.0140736 0)
(1.05829 -0.0105228 0)
(1.04835 -0.00642332 0)
(1.04149 -0.00174919 0)
(1.03762 0.00352375 0)
(1.03763 0.00865581 0)
(1.04139 0.0128552 0)
(1.0485 0.0161971 0)
(1.05948 0.0189238 0)
(1.07604 0.0212776 0)
(1.09842 0.0233653 0)
(1.08434 0.0228048 0)
(0.903052 0.0147996 0)
(0.52003 0.00439041 0)
(0.104014 0.000167076 0)
(0.105768 -8.71179e-05 0)
(0.717071 -0.00603375 0)
(1.01727 -0.0140774 0)
(1.10903 -0.0170452 0)
(1.09824 -0.0152655 0)
(1.07746 -0.0122342 0)
(1.06301 -0.00874855 0)
(1.05286 -0.00475481 0)
(1.04578 -0.000243656 0)
(1.04164 0.00477642 0)
(1.04135 0.00957381 0)
(1.04486 0.0133982 0)
(1.05182 0.0163659 0)
(1.0628 0.0187592 0)
(1.07954 0.0208387 0)
(1.10005 0.0225426 0)
(1.07384 0.0212953 0)
(0.872951 0.013096 0)
(0.495283 0.0038265 0)
(0.098656 0.0001492 0)
(0.102799 -6.19851e-05 0)
(0.696159 -0.00476971 0)
(1.00115 -0.0117432 0)
(1.10867 -0.014842 0)
(1.1033 -0.0132724 0)
(1.08239 -0.0102289 0)
(1.06763 -0.00677899 0)
(1.05722 -0.00286954 0)
(1.04986 0.00150965 0)
(1.04539 0.00629284 0)
(1.04472 0.0107451 0)
(1.04792 0.0142007 0)
(1.0547 0.01681 0)
(1.06568 0.0188656 0)
(1.08263 0.020655 0)
(1.10077 0.0219705 0)
(1.06181 0.0200808 0)
(0.844704 0.0118113 0)
(0.473452 0.00342882 0)
(0.0938863 0.000138326 0)
(0.100622 -3.88902e-05 0)
(0.67913 -0.00365162 0)
(0.986471 -0.00953882 0)
(1.10778 -0.0125905 0)
(1.10811 -0.011202 0)
(1.08734 -0.00816676 0)
(1.07221 -0.00468397 0)
(1.0615 -0.000763284 0)
(1.05381 0.00353735 0)
(1.0489 0.00812266 0)
(1.04778 0.0122555 0)
(1.05063 0.0153245 0)
(1.05718 0.0175549 0)
(1.06816 0.019281 0)
(1.08525 0.0207868 0)
(1.10046 0.0216963 0)
(1.04848 0.0191424 0)
(0.818092 0.0108597 0)
(0.453755 0.00315436 0)
(0.0895128 0.000132417 0)
(0.0991786 -1.60878e-05 0)
(0.665713 -0.00260627 0)
(0.973652 -0.00738252 0)
(1.10663 -0.0101871 0)
(1.11271 -0.00889079 0)
(1.09233 -0.00583415 0)
(1.07685 -0.00227164 0)
(1.06577 0.00168902 0)
(1.05763 0.00593847 0)
(1.05219 0.0103579 0)
(1.05052 0.0141751 0)
(1.05296 0.0168546 0)
(1.05927 0.0186919 0)
(1.07017 0.0200376 0)
(1.08728 0.0211982 0)
(1.09909 0.0216686 0)
(1.03402 0.0184358 0)
(0.79285 0.0101762 0)
(0.435589 0.00297549 0)
(0.0853853 0.000130482 0)
(0.0984528 8.38709e-06 0)
(0.655773 -0.00157523 0)
(0.96305 -0.00520575 0)
(1.10564 -0.00758042 0)
(1.11731 -0.00625025 0)
(1.09746 -0.00311236 0)
(1.08158 0.000549477 0)
(1.07008 0.00456529 0)
(1.06145 0.00881573 0)
(1.05537 0.0130826 0)
(1.05302 0.0165567 0)
(1.05488 0.0187954 0)
(1.06084 0.0201607 0)
(1.0717 0.021061 0)
(1.08883 0.0218994 0)
(1.09657 0.0219118 0)
(1.01859 0.0180221 0)
(0.768676 0.00974524 0)
(0.418462 0.00288398 0)
(0.0813855 0.000132782 0)
(0.0984606 2.79273e-05 0)
(0.649305 -0.000520935 0)
(0.954957 -0.00294085 0)
(1.1051 -0.00473111 0)
(1.12205 -0.00333129 0)
(1.10278 -0.000113919 0)
(1.08643 0.00373304 0)
(1.07443 0.0079281 0)
(1.06517 0.0122537 0)
(1.05828 0.0164039 0)
(1.05512 0.0195466 0)
(1.05634 0.0213407 0)
(1.06187 0.0222366 0)
(1.07262 0.0226681 0)
(1.08959 0.0230403 0)
(1.09277 0.022503 0)
(1.00215 0.0178748 0)
(0.745222 0.00952568 0)
(0.401945 0.00286571 0)
(0.0773937 0.000138469 0)
(0.0992804 6.66286e-05 0)
(0.646447 0.000579265 0)
(0.949714 -0.000509652 0)
(1.10528 -0.00150989 0)
(1.12698 8.05706e-05 0)
(1.10838 0.00345478 0)
(1.09158 0.00757255 0)
(1.07895 0.0119788 0)
(1.06888 0.0164038 0)
(1.06101 0.0204707 0)
(1.05684 0.0232651 0)
(1.05727 0.0245203 0)
(1.06232 0.0248338 0)
(1.07288 0.0247325 0)
(1.0893 0.0246212 0)
(1.08749 0.0234091 0)
(0.984653 0.0180189 0)
(0.722137 0.00953257 0)
(0.385634 0.00292385 0)
(0.0733111 0.000147605 0)
(0.101073 9.77667e-05 0)
(0.647585 0.0017915 0)
(0.947714 0.00212801 0)
(1.10679 0.00215268 0)
(1.13244 0.00412895 0)
(1.11439 0.0078115 0)
(1.09702 0.0122204 0)
(1.08366 0.0168778 0)
(1.07266 0.0214732 0)
(1.06359 0.0254526 0)
(1.05818 0.0278247 0)
(1.05763 0.0285045 0)
(1.06203 0.0281663 0)
(1.07238 0.0274402 0)
(1.08796 0.02672 0)
(1.08064 0.024734 0)
(0.966033 0.0185321 0)
(0.699 0.00976963 0)
(0.369126 0.00305834 0)
(0.0690333 0.0001603 0)
(0.103924 0.000144463 0)
(0.653091 0.00326423 0)
(0.949436 0.00512279 0)
(1.11007 0.00630027 0)
(1.13865 0.00870542 0)
(1.12093 0.0127913 0)
(1.10291 0.0176461 0)
(1.08868 0.0227228 0)
(1.07651 0.0275844 0)
(1.06597 0.0315347 0)
(1.05904 0.0334882 0)
(1.0573 0.0335104 0)
(1.06092 0.032441 0)
(1.07093 0.0310413 0)
(1.08534 0.0295639 0)
(1.07203 0.0266374 0)
(0.945968 0.0194529 0)
(0.675339 0.0102625 0)
(0.351995 0.00327044 0)
(0.0644545 0.000175784 0)
(0.10812 0.000208438 0)
(0.663446 0.00499745 0)
(0.955223 0.00861558 0)
(1.11539 0.0111671 0)
(1.14565 0.0141712 0)
(1.12819 0.0188177 0)
(1.10943 0.0242945 0)
(1.09406 0.029932 0)
(1.08039 0.0351139 0)
(1.068 0.038994 0)
(1.05927 0.040408 0)
(1.05617 0.0396521 0)
(1.05881 0.0377646 0)
(1.06833 0.0356007 0)
(1.08115 0.0332865 0)
(1.06128 0.0291666 0)
(0.924174 0.020907 0)
(0.650566 0.0110579 0)
(0.333768 0.00356774 0)
(0.0594875 0.000192199 0)
(0.11402 0.000294132 0)
(0.679271 0.00709959 0)
(0.965853 0.0127823 0)
(1.12348 0.0169053 0)
(1.15397 0.0208172 0)
(1.13649 0.0263177 0)
(1.11682 0.0325397 0)
(1.10004 0.0387842 0)
(1.08454 0.0443195 0)
(1.06996 0.0481051 0)
(1.05901 0.0488817 0)
(1.05421 0.0471956 0)
(1.05568 0.0443515 0)
(1.06456 0.0412644 0)
(1.07534 0.0380789 0)
(1.04814 0.0326329 0)
(0.900141 0.0230722 0)
(0.623883 0.0122479 0)
(0.313835 0.00397034 0)
(0.0540383 0.000209319 0)
(0.122068 0.000410929 0)
(0.701321 0.0097596 0)
(0.981908 0.0178003 0)
(1.135 0.023704 0)
(1.16422 0.0287987 0)
(1.14609 0.035487 0)
(1.12509 0.0426618 0)
(1.10646 0.049676 0)
(1.08862 0.0556308 0)
(1.0713 0.0592287 0)
(1.0578 0.0591776 0)
(1.05105 0.0563814 0)
(1.05123 0.0524131 0)
(1.05942 0.0483537 0)
(1.06777 0.0442299 0)
(1.03226 0.0372841 0)
(0.873153 0.026123 0)
(0.594261 0.0139152 0)
(0.291442 0.00449146 0)
(0.0479953 0.000228311 0)
(0.132962 0.000581818 0)
(0.730703 0.0133406 0)
(1.00433 0.0241478 0)
(1.15052 0.0321331 0)
(1.17694 0.0386491 0)
(1.15744 0.046881 0)
(1.13463 0.0552957 0)
(1.11363 0.0632516 0)
(1.09288 0.0695682 0)
(1.07228 0.0727483 0)
(1.05577 0.0715873 0)
(1.04674 0.0674466 0)
(1.0454 0.0622762 0)
(1.05281 0.0571124 0)
(1.05821 0.0518839 0)
(1.01314 0.0432347 0)
(0.842412 0.030142 0)
(0.560485 0.0160329 0)
(0.26585 0.00510308 0)
(0.041261 0.000247425 0)
(0.147893 0.000852531 0)
(0.769259 0.0184815 0)
(1.03463 0.0326482 0)
(1.17093 0.0432228 0)
(1.19285 0.0517848 0)
(1.17094 0.0618122 0)
(1.14558 0.071659 0)
(1.12132 0.0804473 0)
(1.09685 0.0867702 0)
(1.07235 0.0890752 0)
(1.05247 0.086358 0)
(1.04101 0.0805514 0)
(1.03808 0.0739494 0)
(1.04442 0.0675535 0)
(1.04623 0.0610855 0)
(0.99026 0.0506306 0)
(0.806856 0.0351397 0)
(0.521343 0.0185 0)
(0.236539 0.00575312 0)
(0.0338037 0.000264769 0)
(0.168988 0.0013221 0)
(0.820075 0.0263983 0)
(1.0757 0.0450039 0)
(1.19746 0.0589072 0)
(1.21267 0.0702791 0)
(1.18681 0.0821137 0)
(1.15769 0.0931587 0)
(1.12912 0.102206 0)
(1.10015 0.107861 0)
(1.07122 0.108574 0)
(1.04767 0.103721 0)
(1.03369 0.0958645 0)
(1.02909 0.0875721 0)
(1.03404 0.0798909 0)
(1.03137 0.072098 0)
(0.962749 0.0594365 0)
(0.765172 0.0408754 0)
(0.476036 0.0211149 0)
(0.203517 0.00635051 0)
(0.025734 0.000273606 0)
(0.199652 0.00237406 0)
(0.888826 0.0399133 0)
(1.13031 0.0650142 0)
(1.2306 0.0825225 0)
(1.23641 0.0967735 0)
(1.20442 0.10985 0)
(1.17009 0.121102 0)
(1.13622 0.129343 0)
(1.1021 0.133343 0)
(1.06835 0.1316 0)
(1.04098 0.124009 0)
(1.02444 0.113728 0)
(1.01833 0.103462 0)
(1.02177 0.0943022 0)
(1.01324 0.0848729 0)
(0.929161 0.0692587 0)
(0.716218 0.0469661 0)
(0.424821 0.0236951 0)
(0.167923 0.00685271 0)
(0.0174887 0.000266752 0)
(0.241425 0.008615 4.43528e-20)
(0.979554 0.0671576 3.87784e-20)
(1.19617 0.0989192 -1.35776e-20)
(1.26755 0.117758 0)
(1.26126 0.134678 -3.47747e-34)
(1.22169 0.147145 5.0859e-21)
(1.18131 0.156935 -9.18051e-21)
(1.14163 0.163137 0)
(1.10195 0.164551 1.88712e-34)
(1.063 0.159718 -1.13827e-20)
(1.03141 0.149054 0)
(1.01188 0.136327 -1.35098e-20)
(1.00396 0.124173 -3.98397e-20)
(1.00574 0.113599 -1.88222e-20)
(0.989443 0.102334 -5.66546e-21)
(0.885475 0.0829375 -3.36708e-21)
(0.654519 0.0550753 0)
(0.365039 0.0270949 2.36113e-21)
(0.130623 0.00809207 2.78923e-21)
(0.00972051 0.000455518 5.01515e-20)
(0.270357 0.0240599 3.20427e-20)
(1.05405 0.109785 5.20605e-22)
(1.2497 0.147552 3.60976e-21)
(1.30096 0.166483 0)
(1.28303 0.182845 -1.76581e-20)
(1.23652 0.193239 -2.00832e-20)
(1.19017 0.200938 -9.27324e-21)
(1.14452 0.204928 -3.3096e-20)
(1.09888 0.203744 0)
(1.05397 0.195789 4.86244e-20)
(1.01721 0.181815 4.82463e-20)
(0.993815 0.166341 1.43629e-20)
(0.982796 0.152072 5.23401e-20)
(0.979575 0.139296 7.34964e-20)
(0.953134 0.125235 0)
(0.826912 0.101021 1.03885e-19)
(0.582319 0.0655536 1.4927e-19)
(0.304308 0.0318561 1.65911e-19)
(0.0971187 0.00960222 -1.89827e-19)
(0.00312626 0.000347508 -3.56078e-21)
(0.271001 0.0397109 0)
(1.10071 0.16523 5.56154e-21)
(1.28565 0.207547 0)
(1.32674 0.22612 -2.27696e-20)
(1.30001 0.239061 0)
(1.24775 0.245838 -3.94552e-20)
(1.19589 0.250128 1.89705e-20)
(1.1445 0.250821 -6.66718e-20)
(1.09303 0.246145 -1.56572e-21)
(1.04222 0.234393 2.52344e-20)
(1.00024 0.216809 1.06567e-19)
(0.973073 0.198525 -3.00549e-22)
(0.959356 0.182503 -3.81661e-20)
(0.952553 0.1688 -6.97252e-20)
(0.917596 0.152149 8.27307e-20)
(0.783349 0.121585 -1.46564e-19)
(0.543249 0.0787071 -1.94024e-20)
(0.282162 0.039196 0)
(0.0902598 0.0122304 3.80134e-24)
(0.00211922 0.000335838 0)
(0.264551 0.0533167 6.93883e-20)
(1.12557 0.223998 -3.44636e-20)
(1.30801 0.272321 -2.72785e-20)
(1.34362 0.290962 1.07022e-20)
(1.31085 0.29993 -1.80666e-20)
(1.25439 0.302556 8.28094e-20)
(1.19795 0.302784 3.9676e-20)
(1.14149 0.299479 0)
(1.08471 0.290818 -1.26516e-19)
(1.02848 0.27518 0)
(0.981685 0.254577 -5.60934e-20)
(0.950934 0.23449 -6.93561e-20)
(0.934732 0.217343 -4.17513e-20)
(0.924466 0.201764 -5.08455e-20)
(0.883458 0.180765 0)
(0.750914 0.144564 0)
(0.525818 0.0963398 -1.27364e-19)
(0.282993 0.0508138 2.51931e-20)
(0.0968162 0.0172376 -1.47492e-20)
(0.00410758 0.000775394 -1.72439e-20)
(0.257161 0.0654097 -2.5191e-20)
(1.13636 0.282587 0)
(1.32052 0.3381 5.46159e-20)
(1.35285 0.357197 2.98925e-20)
(1.31579 0.36245 4.20382e-20)
(1.25626 0.360908 0)
(1.19612 0.356913 3.87545e-20)
(1.13544 0.349396 7.3993e-20)
(1.07417 0.33668 6.48218e-20)
(1.01332 0.317408 1.19533e-19)
(0.962403 0.294265 0)
(0.928347 0.272621 -1.50001e-19)
(0.908873 0.253902 -9.04967e-20)
(0.893736 0.235384 -5.35057e-20)
(0.848774 0.210178 3.29967e-19)
(0.725191 0.170195 3.94089e-20)
(0.518764 0.117599 1.85653e-19)
(0.291772 0.0656294 -8.77795e-19)
(0.109136 0.024676 5.20937e-19)
(0.00800109 0.00190455 -6.27832e-19)
(0.2502 0.0763591 -8.73148e-21)
(1.13818 0.339099 4.51412e-21)
(1.32581 0.402895 -5.55377e-21)
(1.35603 0.422877 -2.92168e-20)
(1.31582 0.424714 -3.48851e-20)
(1.25389 0.41912 1.75893e-21)
(1.19075 0.410966 -4.20324e-20)
(1.12664 0.399329 7.65042e-20)
(1.06169 0.382742 -1.39643e-19)
(0.997056 0.360026 0)
(0.942643 0.334171 -6.79244e-20)
(0.905371 0.310257 -1.61373e-21)
(0.881965 0.289008 -9.91729e-20)
(0.861719 0.267371 0)
(0.815331 0.239251 -7.15622e-20)
(0.702647 0.197442 -1.70565e-19)
(0.51431 0.140853 4.57631e-19)
(0.301426 0.0824789 -4.49908e-19)
(0.121411 0.0335662 6.39919e-19)
(0.0119735 0.00346973 -6.64943e-19)
(0.244406 0.0865115 -4.11647e-22)
(1.13435 0.392881 -4.50457e-22)
(1.32587 0.465668 -1.33132e-20)
(1.35453 0.48683 1.11472e-20)
(1.31196 0.485561 -1.74254e-20)
(1.24806 0.476101 0)
(1.18246 0.463979 -3.8844e-20)
(1.11558 0.448483 -8.00145e-20)
(1.04764 0.428272 -7.25027e-20)
(0.979808 0.402124 0)
(0.922249 0.373015 -7.04149e-20)
(0.881811 0.346001 -8.74563e-20)
(0.854494 0.321654 1.07632e-19)
(0.830116 0.297265 -6.55234e-20)
(0.784153 0.267419 -3.12396e-19)
(0.681616 0.224494 1.86976e-19)
(0.508722 0.164436 5.6138e-20)
(0.308251 0.0996746 0)
(0.131031 0.0428423 -6.18975e-19)
(0.0152047 0.00516027 -2.26976e-20)
(0.239832 0.0961674 1.96998e-21)
(1.12704 0.443747 -2.3118e-21)
(1.32199 0.525962 5.77551e-21)
(1.34942 0.548355 4.04966e-20)
(1.30503 0.544279 -6.29929e-20)
(1.23952 0.531228 7.71045e-20)
(1.17194 0.515438 8.35496e-20)
(1.10282 0.496421 -1.27716e-19)
(1.03235 0.47283 4.49518e-20)
(0.961644 0.443156 -2.93962e-19)
(0.901098 0.410316 -7.97699e-20)
(0.857665 0.37975 0)
(0.826953 0.352358 1.16688e-19)
(0.799577 0.325858 1.39913e-19)
(0.754675 0.295093 1.67856e-19)
(0.660576 0.250968 -2.02945e-19)
(0.500564 0.187542 -6.01234e-20)
(0.310253 0.116397 7.0719e-20)
(0.136632 0.0516371 0)
(0.0174322 0.00675223 -4.92172e-20)
(0.236368 0.105476 -4.40579e-20)
(1.1178 0.491831 2.15452e-20)
(1.31542 0.584041 -4.36975e-21)
(1.34158 0.607122 2.3454e-20)
(1.29571 0.600515 -2.75097e-20)
(1.2289 0.584152 -4.05937e-21)
(1.15976 0.565084 -9.12443e-20)
(1.08879 0.542925 -4.6193e-20)
(1.01609 0.516169 -1.25869e-19)
(0.942677 0.482902 2.45813e-22)
(0.879238 0.446083 -2.49256e-19)
(0.833063 0.411895 2.11009e-19)
(0.799671 0.381718 -1.2807e-19)
(0.770419 0.353548 1.54072e-19)
(0.726791 0.321943 0)
(0.638662 0.276128 -1.09757e-19)
(0.489111 0.209256 -5.3577e-22)
(0.30722 0.13132 -3.07509e-19)
(0.137323 0.0588984 -4.52086e-20)
(0.0183365 0.00794926 0)
(0.233888 0.11458 0)
(1.10756 0.537394 2.67442e-20)
(1.30665 0.63914 2.27523e-21)
(1.33164 0.663027 -2.02134e-20)
(1.28458 0.654108 -3.58016e-20)
(1.21678 0.634753 0)
(1.14641 0.612808 -4.09115e-20)
(1.07387 0.587869 -1.16185e-21)
(0.999134 0.55817 2.69378e-19)
(0.923065 0.521326 -4.02334e-20)
(0.856795 0.480495 -1.79952e-19)
(0.808156 0.442775 1.0959e-19)
(0.772708 0.409973 -2.09294e-21)
(0.74231 0.38016 1.63577e-19)
(0.699725 0.347166 1.01257e-19)
(0.616129 0.298942 -2.36922e-19)
(0.474561 0.228041 2.81303e-19)
(0.2994 0.143408 8.32443e-20)
(0.134227 0.0640193 3.43372e-19)
(0.0181318 0.0086258 -9.18356e-19)
(0.232362 0.12361 -1.81021e-20)
(1.09705 0.580609 2.24561e-20)
(1.2965 0.691341 -1.36166e-20)
(1.3201 0.715996 1.32237e-20)
(1.27213 0.704985 0)
(1.2036 0.682993 -3.39506e-20)
(1.13227 0.658572 1.3751e-19)
(1.05837 0.631188 1.00637e-19)
(0.981694 0.598762 0)
(0.902996 0.55846 -5.79453e-19)
(0.833942 0.513724 4.86118e-19)
(0.783045 0.472583 0)
(0.745971 0.437183 1.49255e-19)
(0.714804 0.405543 -2.05783e-21)
(0.672927 0.370707 -3.22615e-19)
(0.592491 0.319479 1.26483e-19)
(0.456925 0.24387 0)
(0.287333 0.152442 4.48592e-19)
(0.127531 0.0668363 0)
(0.0168662 0.00870989 -4.33822e-19)
(0.231612 0.132647 2.27771e-20)
(1.0867 0.62168 3.2077e-20)
(1.28529 0.740672 -1.28255e-20)
(1.30743 0.766051 0)
(1.25875 0.753171 -2.81678e-20)
(1.18975 0.7289 0)
(1.11768 0.702363 -1.34536e-19)
(1.04255 0.672838 -4.62602e-20)
(0.963999 0.637914 4.71778e-20)
(0.882689 0.594358 -2.86441e-19)
(0.810848 0.545901 5.00894e-20)
(0.757799 0.501405 0)
(0.719346 0.46332 -3.18367e-19)
(0.687596 0.429575 2.07657e-21)
(0.646119 0.39243 0)
(0.567732 0.337588 2.01652e-21)
(0.436314 0.256362 4.08941e-19)
(0.271413 0.157955 -3.8753e-19)
(0.117949 0.0674404 1.14177e-19)
(0.0149296 0.00835331 0)
(0.231338 0.141566 0)
(1.07687 0.660699 4.06135e-20)
(1.2734 0.78727 2.31687e-20)
(1.29401 0.813257 -2.41182e-21)
(1.2448 0.798729 -7.91366e-21)
(1.17553 0.772517 -7.52266e-20)
(1.10288 0.744188 5.04937e-20)
(1.02663 0.71279 -5.48377e-20)
(0.946267 0.675604 2.10767e-19)
(0.862342 0.629069 -4.56828e-19)
(0.787667 0.577118 -3.56929e-21)
(0.732457 0.529293 -1.39251e-19)
(0.692718 0.488353 5.16115e-19)
(0.660453 0.452167 -2.4294e-21)
(0.619104 0.412169 -2.49765e-19)
(0.541778 0.352956 -4.47207e-19)
(0.41305 0.265375 0)
(0.25225 0.159974 0)
(0.106072 0.065793 1.2341e-19)
(0.0125692 0.00754535 -7.22786e-20)
(0.23169 0.150507 3.42699e-20)
(1.06759 0.697543 -9.46492e-20)
(1.26114 0.831221 -2.51218e-20)
(1.28017 0.85768 0)
(1.23055 0.841728 -1.5858e-21)
(1.16119 0.81389 -6.66186e-20)
(1.0881 0.784052 1.20414e-19)
(1.01081 0.751024 2.1434e-19)
(0.928693 0.711831 2.73036e-19)
(0.842158 0.662635 -3.72324e-19)
(0.764559 0.607457 -4.16209e-19)
(0.70706 0.556322 3.72134e-19)
(0.665983 0.5123 0)
(0.63317 0.473259 -1.13255e-19)
(0.591697 0.429836 -2.70299e-19)
(0.514654 0.365459 -3.21013e-19)
(0.387478 0.270688 -3.81565e-19)
(0.230604 0.158513 1.12879e-19)
(0.0924933 0.0619164 -6.63852e-20)
(0.00983978 0.00631128 2.78465e-22)
(0.232183 0.159387 0)
(1.05904 0.732715 0)
(1.24879 0.872633 2.60259e-21)
(1.26615 0.899427 0)
(1.21624 0.882261 1.18427e-20)
(1.14692 0.853076 4.32012e-20)
(1.0735 0.821966 0)
(0.995259 0.78753 2.51347e-20)
(0.911455 0.746592 4.54032e-19)
(0.822328 0.695091 -8.55254e-19)
(0.74168 0.636997 0)
(0.681665 0.582598 -2.39062e-19)
(0.639056 0.535229 -2.94392e-21)
(0.605567 0.492851 -2.37585e-21)
(0.56376 0.445323 2.88497e-19)
(0.486384 0.37491 -3.59053e-22)
(0.359658 0.272208 -8.21146e-19)
(0.206905 0.153552 2.42816e-19)
(0.0783104 0.0563338 7.17648e-20)
(0.00708233 0.00483803 0)
(0.232754 0.168123 -1.4258e-19)
(1.05097 0.766256 -6.72433e-20)
(1.23646 0.911585 -8.2842e-20)
(1.25216 0.938617 6.6022e-20)
(1.20204 0.920406 4.72868e-21)
(1.13288 0.890123 0)
(1.05921 0.85795 7.11204e-20)
(0.980114 0.82231 -5.60597e-20)
(0.894707 0.779897 3.87537e-21)
(0.803027 0.726469 6.30052e-20)
(0.719187 0.665813 5.37216e-19)
(0.656348 0.60826 -8.375e-20)
(0.611864 0.557295 -3.17299e-19)
(0.577437 0.51098 -1.31833e-19)
(0.535098 0.45845 1.57061e-19)
(0.457058 0.381 -1.75867e-22)
(0.330567 0.269825 2.21385e-19)
(0.182475 0.14557 -5.22271e-19)
(0.0642009 0.0494987 6.17557e-19)
(0.00445151 0.00325257 9.00112e-20)
(0.233212 0.176596 5.50342e-20)
(1.04337 0.798257 -3.855e-20)
(1.22432 0.94819 6.22717e-21)
(1.23835 0.975382 4.75364e-20)
(1.18812 0.956269 5.84352e-21)
(1.11919 0.925085 -7.25675e-20)
(1.04536 0.892026 1.99164e-20)
(0.965488 0.855365 -2.32724e-19)
(0.878582 0.811737 -4.97493e-19)
(0.784403 0.756771 -5.07839e-19)
(0.697242 0.693972 0)
(0.631204 0.633459 -3.67195e-19)
(0.584365 0.57872 4.56721e-19)
(0.548524 0.527743 0)
(0.505408 0.468979 -3.36012e-19)
(0.426719 0.383217 2.01316e-19)
(0.300886 0.263222 -2.37818e-19)
(0.158536 0.134926 -2.81169e-19)
(0.0510704 0.0419736 -4.97453e-19)
(0.00211967 0.00169635 -3.87825e-19)
(0.233999 0.184938 -6.30771e-20)
(1.0361 0.828697 4.12701e-20)
(1.21245 0.982533 9.31376e-20)
(1.22485 1.00981 7.25486e-20)
(1.17457 0.989935 -8.77783e-21)
(1.10594 0.958028 -3.59495e-20)
(1.03201 0.924221 6.67438e-20)
(0.951467 0.88672 -2.37612e-19)
(0.863173 0.84213 -2.93694e-19)
(0.766584 0.786005 5.29665e-19)
(0.67599 0.72152 1.17615e-18)
(0.606365 0.658349 0)
(0.556562 0.599771 0)
(0.518523 0.54338 -1.51701e-19)
(0.474129 0.47669 0)
(0.395138 0.380672 4.33351e-19)
(0.27158 0.251567 5.11989e-19)
(0.136933 0.121725 0)
(0.0401904 0.0343662 0)
(0.00024799 0.000366828 4.1687e-19)
(0.234434 0.19284 7.27042e-20)
(1.02917 0.857562 5.86147e-20)
(1.20092 1.01475 6.82139e-20)
(1.21174 1.04204 -7.38748e-20)
(1.16147 1.0215 -1.69392e-20)
(1.09319 0.989008 3.25097e-20)
(1.01924 0.954576 -9.05195e-20)
(0.93812 0.91639 -2.28036e-23)
(0.848563 0.871076 -5.02497e-21)
(0.749671 0.814163 -5.33692e-21)
(0.655596 0.748485 6.04868e-19)
(0.582004 0.683058 0)
(0.528541 0.620746 4.60878e-19)
(0.487159 0.558294 3.23061e-19)
(0.440375 0.48166 7.84473e-19)
(0.361425 0.372253 2.33167e-19)
(0.243428 0.232717 -2.76144e-19)
(0.121263 0.10404 -1.62109e-19)
(0.0362778 0.0259809 0)
(0.000332369 -0.000182238 4.47999e-19)
(0.235164 0.200746 -1.65956e-19)
(1.02254 0.884971 0)
(1.18974 1.04489 8.24528e-20)
(1.19906 1.07217 -6.43016e-20)
(1.1489 1.05106 2.9775e-20)
(1.08098 1.01809 -2.68068e-20)
(1.00709 0.983129 1.71004e-19)
(0.925486 0.944401 -1.99027e-20)
(0.834801 0.898579 0)
(0.733747 0.841213 -5.81358e-19)
(0.63621 0.774861 -1.31093e-18)
(0.558328 0.707694 5.382e-20)
(0.500507 0.641932 6.33486e-19)
(0.45431 0.573049 0)
(0.403054 0.484586 5.28882e-19)
(0.32329 0.357416 0)
(0.214432 0.202493 0)
(0.114811 0.070294 -1.75747e-19)
(0.058893 0.0057235 0)
(0.0269679 0.010934 1.20082e-19)
(0.235511 0.208049 -1.87235e-19)
(1.01614 0.911202 0)
(1.1789 1.07317 1.38958e-19)
(1.18678 1.10042 0)
(1.13681 1.07887 -2.02818e-20)
(1.06927 1.04556 0)
(0.995499 1.01018 7.74001e-21)
(0.913482 0.971089 3.2221e-20)
(0.821782 0.925004 3.657e-20)
(0.718668 0.867544 -6.35763e-19)
(0.617689 0.801081 3.91777e-20)
(0.535168 0.732846 4.32658e-19)
(0.472186 0.664015 6.17035e-19)
(0.419303 0.588531 8.34069e-20)
(0.360353 0.487145 4.14089e-19)
(0.276213 0.337727 0)
(0.173272 0.159317 5.84106e-19)
(0.0892024 0.0126865 -3.4221e-19)
(0.0435397 0.0440532 3.96245e-19)
(-0.0691693 0.430607 -4.67105e-19)
(0.235835 0.215149 1.56104e-19)
(1.00972 0.936059 2.38632e-19)
(1.16831 1.09991 0)
(1.17476 1.12725 5.17335e-21)
(1.12502 1.10549 6.38242e-20)
(1.05779 1.07207 7.39705e-21)
(0.984177 1.03653 5.63718e-20)
(0.901722 0.997394 0)
(0.808996 0.951441 2.4042e-19)
(0.703786 0.894448 -3.29596e-20)
(0.599142 0.828591 0)
(0.511378 0.760251 0)
(0.442057 0.68874 5.5071e-19)
(0.380367 0.606136 -2.57617e-19)
(0.309293 0.491973 -4.18253e-19)
(0.215343 0.318338 0)
(0.100612 0.150079 2.94418e-19)
(0.00628198 0.436607 -3.40946e-19)
(0.0352838 1.87797 -1.86471e-19)
(0.0651785 2.80489 -2.38485e-19)
(0.235964 0.221402 -1.18515e-19)
(1.00348 0.959721 -3.0849e-19)
(1.15799 1.1251 8.39533e-20)
(1.163 1.15251 6.7048e-20)
(1.11358 1.1307 0)
(1.04662 1.09734 -6.5687e-21)
(0.973316 1.06186 7.25859e-20)
(0.89039 1.02288 -1.53078e-20)
(0.796705 0.977371 3.58344e-20)
(0.689474 0.921311 6.02795e-19)
(0.581165 0.856726 6.57693e-19)
(0.487926 0.789494 4.80621e-19)
(0.41113 0.715909 5.51666e-19)
(0.339361 0.624622 -6.01474e-19)
(0.255839 0.502021 -6.29218e-19)
(0.142121 0.347648 0)
(0.0497129 0.827219 0)
(0.106019 2.54348 1.62203e-19)
(0.107092 3.19594 0)
(0.11009 3.38584 3.88346e-19)
(0.238645 0.227098 0)
(0.997969 0.982369 0)
(1.1477 1.14858 0)
(1.15129 1.17601 2.07854e-20)
(1.10216 1.15424 6.03943e-20)
(1.03554 1.12123 -1.87699e-20)
(0.962814 1.08604 4.48161e-20)
(0.879447 1.04744 -1.47669e-20)
(0.784881 1.00266 2.96501e-19)
(0.675767 0.947996 -9.70598e-21)
(0.563915 0.88538 1.29383e-18)
(0.465187 0.820422 -5.52647e-20)
(0.379782 0.746409 6.64963e-20)
(0.29874 0.641382 8.66288e-20)
(0.193629 0.520615 -2.58842e-21)
(0.109228 0.959633 1.79319e-21)
(0.146768 2.70312 -8.45242e-19)
(0.156853 3.28863 -3.18995e-19)
(0.144538 3.4258 1.64967e-19)
(0.130479 3.44856 -1.83217e-19)
(0.156728 0.183751 7.10219e-20)
(0.987254 1.00675 0)
(1.13714 1.17059 -1.72842e-19)
(1.14014 1.19823 -1.84711e-19)
(1.09159 1.17694 1.51175e-19)
(1.02547 1.14439 2.516e-20)
(0.95258 1.1092 -4.34614e-20)
(0.869 1.07119 1.57383e-19)
(0.773717 1.02744 -2.40814e-19)
(0.66298 0.974636 0)
(0.547803 0.914743 6.32838e-19)
(0.443771 0.852905 -3.89669e-19)
(0.34851 0.783242 0)
(0.256595 0.660715 8.01029e-20)
(0.16015 0.797952 1.92018e-19)
(0.161803 2.46652 -2.28038e-19)
(0.223667 3.32199 2.56648e-19)
(0.201764 3.44082 1.38036e-19)
(0.167372 3.46265 1.56213e-19)
(0.144575 3.47305 2.46555e-19)
(0.281958 0.265925 -1.29102e-19)
(0.972372 1.01686 0)
(1.11878 1.19554 1.89308e-19)
(1.12526 1.22961 2.08031e-19)
(1.07477 1.21011 -1.73462e-19)
(1.00827 1.17839 -4.97626e-20)
(0.934661 1.14481 2.9107e-20)
(0.850517 1.10788 1.2379e-20)
(0.753899 1.06602 2.26161e-19)
(0.640451 1.01667 5.12654e-19)
(0.520265 0.962526 3.54281e-20)
(0.407653 0.907449 3.4395e-19)
(0.293557 0.842019 6.16624e-20)
(0.219773 0.966931 -7.8361e-20)
(0.236006 2.31438 -1.80039e-19)
(0.299549 3.3259 1.71822e-19)
(0.283144 3.47254 -1.89492e-19)
(0.246437 3.49435 -1.09688e-19)
(0.208302 3.52187 -9.00788e-20)
(0.155898 3.51538 -1.0709e-20)
(0.269942 0.262859 0)
(0.970206 1.03959 5.59079e-20)
(1.11058 1.21873 -3.94489e-20)
(1.11484 1.25287 -2.52065e-20)
(1.06424 1.2333 -1.22674e-19)
(0.997938 1.20203 5.37685e-20)
(0.924085 1.16866 -1.02351e-20)
(0.839808 1.13246 1.08668e-20)
(0.742768 1.09193 -2.33356e-19)
(0.628251 1.04516 -1.4206e-20)
(0.505766 0.995481 -1.13357e-18)
(0.389462 0.946008 4.89024e-20)
(0.28188 0.909707 -5.80452e-20)
(0.260296 1.47722 -7.22236e-20)
(0.336944 3.08728 1.78017e-20)
(0.359286 3.47052 7.92849e-22)
(0.318285 3.52892 2.65016e-19)
(0.280127 3.55391 1.26583e-19)
(0.230453 3.5777 -2.53475e-20)
(0.170287 3.57338 -4.71391e-20)
(0.253634 0.261285 1.42914e-19)
(0.966479 1.06498 3.83161e-19)
(1.10193 1.24401 -1.13635e-19)
(1.10385 1.27752 -9.55216e-20)
(1.05316 1.25784 0)
(0.987174 1.22683 1.0752e-19)
(0.913361 1.19375 5.90368e-22)
(0.829233 1.15825 9.24594e-21)
(0.732093 1.11911 -2.60273e-20)
(0.617021 1.07513 -4.56584e-19)
(0.493002 1.0302 -5.19484e-19)
(0.374771 0.987005 -3.99902e-19)
(0.283077 1.03781 -4.35328e-19)
(0.328875 2.16731 4.5119e-19)
(0.423999 3.37586 3.73942e-19)
(0.403945 3.53067 0)
(0.35721 3.57509 0)
(0.319147 3.61672 -1.84012e-20)
(0.266115 3.67761 0)
(0.182402 3.65281 -1.22744e-20)
(0.242832 0.263154 -2.15743e-19)
(0.960776 1.09147 -3.27355e-19)
(1.09188 1.2705 0)
(1.09155 1.30296 6.17281e-21)
(1.04084 1.28299 -1.37077e-19)
(0.975296 1.25211 1.80475e-19)
(0.901847 1.21934 9.53249e-21)
(0.818069 1.18443 4.28017e-21)
(0.721065 1.14661 -1.59596e-19)
(0.605829 1.10536 2.24828e-20)
(0.481105 1.0653 0)