/*--------------------------------*- C++ -*----------------------------------*\
| =========                 |                                                 |
| \\      /  F ield         | OpenFOAM: The Open Source CFD Toolbox           |
|  \\    /   O peration     | Version:  2112                                  |
|   \\  /    A nd           | Website:  www.openfoam.com                      |
|    \\/     M anipulation  |                                                 |
\*---------------------------------------------------------------------------*/
FoamFile
{
    version     2.0;
    format      ascii;
    arch        "LSB;label=32;scalar=64";
    class       volScalarField;
    location    "35";
    object      p;
}
// * * * * * * * * * * * * * * * * * * * * * * * * * * * * * * * * * * * * * //

dimensions      [0 2 -2 0 0 0 0];

internalField   nonuniform List<scalar> 
400
(
2.464853e-08
-0.00067284824
-0.0013853256
-0.0019426839
-0.0022199774
-0.0021564741
-0.0017277687
-0.00092617799
0.00023544115
0.0017074246
0.0033873063
0.0051122196
0.0066735041
0.0078491297
0.0084584178
0.0084237128
0.0078134231
0.006844539
0.0058613172
0.005298961
0.00065786632
-4.0500715e-05
-0.00056963409
-0.00094059945
-0.0011108377
-0.0010398963
-0.00070576538
-9.5519076e-05
0.00078912411
0.0019162071
0.0032096027
0.0045547226
0.0057819853
0.0067162824
0.0072144503
0.0072145547
0.0067699804
0.0060527928
0.0053105479
0.0047385039
0.001423724
0.0004406742
-0.00011657566
-0.00045321798
-0.00061478259
-0.00058478593
-0.00034655615
0.00011976685
0.0008284828
0.0017699262
0.0028943046
0.0040981726
0.0052282496
0.0061109893
0.0065938895
0.0065976873
0.0061557621
0.0054215346
0.0045937658
0.0037482506
0.002014219
0.00068170901
1.6792139e-05
-0.00035883017
-0.00057152511
-0.00062653501
-0.00051005943
-0.00019060948
0.00036852308
0.0011844072
0.0022299302
0.0034174357
0.0045913718
0.0055569521
0.0061235731
0.006166585
0.0056836457
0.0048170736
0.0037473115
0.0024736162
0.0021672893
0.00049613892
-0.00029623794
-0.00074868478
-0.0010582324
-0.0012452484
-0.0012927264
-0.0011512814
-0.00075503038
-5.3077998e-05
0.00095704802
0.0022103014
0.0035447212
0.0047326736
0.0055218582
0.0057099034
0.0052293071
0.0042016231
0.0028062005
0.00098397771
0.0016539796
-0.00031446002
-0.0012387672
-0.0017992811
-0.0022526438
-0.0026278917
-0.002898602
-0.0029910624
-0.0028025178
-0.0022376578
-0.0012510731
0.0001309165
0.0017446636
0.0033271196
0.0045416517
0.0050657899
0.0047175098
0.0035662133
0.0017896071
-0.00072590812
0.00028704208
-0.0019195533
-0.0029729795
-0.0036713615
-0.0043202769
-0.0049531848
-0.0055301066
-0.0059479377
-0.0060589863
-0.0057073669
-0.0047757004
-0.0032586772
-0.0012664923
0.00090718843
0.0028231335
0.0039868446
0.0040251062
0.0028877213
0.00071539155
-0.0026804885
-0.0020764116
-0.0044511755
-0.0056267875
-0.0064923026
-0.0073928971
-0.0083657436
-0.0093569106
-0.010231774
-0.010790958
-0.01080483
-0.010063353
-0.0084617512
-0.0060407526
-0.0030832034
-0.0001262966
0.0021126319
0.0029638368
0.0021355923
-0.00036602331
-0.0048726
-0.0055241491
-0.0079920964
-0.0092779064
-0.010333774
-0.011537975
-0.012935391
-0.014462693
-0.015956317
-0.017162459
-0.017766023
-0.017438073
-0.015919468
-0.013122951
-0.0092517486
-0.004898997
-0.0010300057
0.001269419
0.0012777726
-0.0013339489
-0.0072016682
-0.010076896
-0.012565077
-0.013936649
-0.015183993
-0.016718365
-0.018602598
-0.020774175
-0.023048758
-0.025121689
-0.026586349
-0.026969342
-0.025812937
-0.022845675
-0.018074447
-0.012051086
-0.005951945
-0.00137073
0.00030060274
-0.0019471943
-0.0093822161
-0.015684974
-0.018132398
-0.01953754
-0.020926797
-0.022757735
-0.025129866
-0.027996982
-0.031166387
-0.034291473
-0.036876858
-0.038294176
-0.037844277
-0.035065855
-0.029601471
-0.021822497
-0.012985572
-0.005184968
-0.0007157419
-0.0017641905
-0.010792246
-0.022243588
-0.02461303
-0.025945581
-0.027334939
-0.029324155
-0.032079238
-0.035588936
-0.039664632
-0.043927268
-0.047801314
-0.0505302
-0.051236484
-0.048956878
-0.043143547
-0.033769016
-0.02192634
-0.010036877
-0.0014154362
-9.8581153e-06
-0.01022561
-0.029641201
-0.031923893
-0.032978749
-0.034079853
-0.035939487
-0.038831526
-0.042795632
-0.047651583
-0.052990526
-0.058163589
-0.062284256
-0.064265539
-0.062875161
-0.057112187
-0.046476741
-0.031649084
-0.015037856
-0.000864382
0.0046467727
-0.0055215275
-0.037865987
-0.040048502
-0.040440149
-0.040752524
-0.042015017
-0.044653051
-0.048758209
-0.054144076
-0.060356037
-0.066665345
-0.072060688
-0.075268285
-0.074811364
-0.069269267
-0.057628305
-0.039961504
-0.018247964
0.0027890475
0.014445168
0.0069075591
-0.047230583
-0.049134328
-0.048140568
-0.046882332
-0.046905499
-0.048798663
-0.052668279
-0.058276025
-0.065076118
-0.072232005
-0.07859577
-0.082712321
-0.082880209
-0.07730939
-0.064523936
-0.043934949
-0.016747979
0.012502959
0.032938797
0.032408967
-0.058896819
-0.059639863
-0.055883844
-0.051941072
-0.049972359
-0.050629877
-0.053928626
-0.059495331
-0.066611865
-0.074285306
-0.081191175
-0.085679407
-0.085831798
-0.079522194
-0.064876097
-0.040689261
-0.0072409103
0.032139385
0.064981465
0.077749197
-0.076226562
-0.072613788
-0.063516085
-0.055435323
-0.050725044
-0.04978163
-0.05231235
-0.057664361
-0.064891819
-0.072774976
-0.079779373
-0.084036752
-0.083391657
-0.075348962
-0.057602671
-0.028375134
0.012933339
0.065396491
0.11555153
0.15150624
-0.10809224
-0.089556495
-0.071233835
-0.057232923
-0.049072083
-0.04633021
-0.048077272
-0.053202611
-0.060434624
-0.068295867
-0.075027398
-0.078526919
-0.076389011
-0.065809677
-0.043865478
-0.007818442
0.044393681
0.11299817
0.18838044
0.27186078
-0.17684541
-0.10828981
-0.07620262
-0.054651277
-0.042992372
-0.03899802
-0.04057051
-0.045928048
-0.053441542
-0.061438362
-0.068027589
-0.070962563
-0.067551137
-0.054739837
-0.029148813
0.013563607
0.078146968
0.17006437
0.28949548
0.47421823
-0.37208334
-0.1247084
-0.05497308
-0.031962544
-0.02206357
-0.020300525
-0.024359458
-0.031958003
-0.041261564
-0.050640891
-0.058316905
-0.062187469
-0.059782558
-0.048056813
-0.022658528
0.021474212
0.092818731
0.21015278
0.40288844
0.7764093
)
;

boundaryField
{
    movingWall
    {
        type            zeroGradient;
    }
    fixedWalls
    {
        type            zeroGradient;
    }
    frontAndBack
    {
        type            empty;
    }
}


// ************************************************************************* //
