/*--------------------------------*- C++ -*----------------------------------*\
| =========                 |                                                 |
| \\      /  F ield         | OpenFOAM: The Open Source CFD Toolbox           |
|  \\    /   O peration     | Version:  2112                                  |
|   \\  /    A nd           | Website:  www.openfoam.com                      |
|    \\/     M anipulation  |                                                 |
\*---------------------------------------------------------------------------*/
FoamFile
{
    version     2.0;
    format      ascii;
    arch        "LSB;label=32;scalar=64";
    class       surfaceScalarField;
    location    "35";
    object      phi_0;
}
// * * * * * * * * * * * * * * * * * * * * * * * * * * * * * * * * * * * * * //

dimensions      [0 3 -1 0 0 0 0];

oriented        oriented;

internalField   nonuniform List<scalar> 
760
(
1.2703034e-05
-1.2703321e-05
-2.8723086e-05
4.142612e-05
-0.00012229199
9.3568906e-05
-0.00025039692
0.00012810493
-0.00039607664
0.00014567972
-0.00054539379
0.00014931716
-0.00068627531
0.00014088151
-0.00080689675
0.00012062144
-0.00089495765
8.8060916e-05
-0.00093839589
4.3438252e-05
-0.00092727942
-1.111647e-05
-0.00085686597
-7.0413474e-05
-0.00073043211
-0.00012643389
-0.00056134337
-0.00016908878
-0.00037276104
-0.00018858239
-0.00019447419
-0.00017828693
-5.6521884e-05
-0.00013795233
1.9614522e-05
-7.613637e-05
3.0411353e-05
-1.0796776e-05
3.041139e-05
-4.3182843e-05
3.0479522e-05
-0.00020456662
0.0002028099
-0.00046832589
0.00035732817
-0.00080071023
0.00046048926
-0.0011673542
0.00051232367
-0.0015364543
0.00051841732
-0.0018782335
0.00048266069
-0.0021636888
0.0004060767
-0.0023645512
0.00028892335
-0.0024553581
0.00013424512
-0.0024181506
-4.8323914e-05
-0.0022453653
-0.00024319886
-0.001947562
-0.00042423724
-0.0015544729
-0.0005621779
-0.0011143234
-0.0006287319
-0.00068747563
-0.00060513466
-0.00033452579
-0.00049090214
-0.00010089668
-0.00030976547
-1.5518917e-06
-0.00011014156
2.8859528e-05
-0.00011002748
0.000140507
-0.00040303345
0.00049581588
-0.00083139248
0.00078568722
-0.0013456245
0.00097472128
-0.0018986088
0.0010653079
-0.0024465936
0.0010664021
-0.0029480472
0.00098411436
-0.0033626348
0.00082066426
-0.0036519072
0.0005781957
-0.0037823337
0.00026467161
-0.003729838
-0.00010081948
-0.0034858241
-0.00048721275
-0.0030632829
-0.0008467783
-0.0024999989
-0.0011254618
-0.0018582375
-0.0012704933
-0.0012181457
-0.0012452265
-0.00066373723
-0.0010453106
-0.00026308979
-0.00071041299
-4.7956348e-05
-0.00032527502
-1.9096805e-05
-0.00017344052
0.00031394752
-0.00059329588
0.00091567123
-0.0011777026
0.0013700939
-0.0018583817
0.0016554004
-0.0025769247
0.001783851
-0.0032813275
0.0017708049
-0.0039228155
0.0016256023
-0.0044541591
0.0013520079
-0.0048302822
0.00095431883
-0.0050112547
0.0004456441
-0.0049672712
-0.00014480296
-0.0046844458
-0.00077003807
-0.0041723585
-0.0013588655
-0.0034691329
-0.0018286873
-0.0026440132
-0.002095613
-0.001793203
-0.0020960368
-0.0010258515
-0.0018126621
-0.00044021531
-0.0012960493
-9.672393e-05
-0.0006687664
-0.00011582074
-0.0002297969
0.00054374443
-0.00076507935
0.0014509537
-0.0014914945
0.002096509
-0.0023225615
0.0024864675
-0.0031901592
0.0026514487
-0.0040368452
0.0026174908
-0.0048100624
0.0023988195
-0.005458992
0.0020009375
-0.0059342092
0.001429536
-0.0061898394
0.00070127431
-0.0061884187
-0.00014622373
-0.0059055876
-0.0010528692
-0.0053404225
-0.0019240306
-0.0045231202
-0.0026459895
-0.0035229794
-0.0030957538
-0.0024498067
-0.0031692096
-0.0014425404
-0.0028199284
-0.00064123165
-0.002097358
-0.00014883698
-0.001161161
-0.00026465772
-0.00027729944
0.00082104387
-0.00091155224
0.0020852065
-0.0017607402
0.002945697
-0.0027228234
0.0034485507
-0.0037222305
0.0036508559
-0.0046987177
0.003593978
-0.005598917
0.0032990188
-0.0063712185
0.002773239
-0.0069637564
0.0020220739
-0.0073248637
0.0010623816
-0.0074074849
-6.360263e-05
-0.0071717149
-0.0012886394
-0.0065989026
-0.002496843
-0.005701689
-0.0035432031
-0.0045400246
-0.0042574181
-0.0032318454
-0.0044773888
-0.0019490222
-0.0041027516
-0.0008872882
-0.003159092
-0.00021159432
-0.0018368549
-0.00047625204
-0.00031411698
0.0011351609
-0.0010263422
0.0027974317
-0.0019735137
0.0038928685
-0.0030417628
0.0045167998
-0.004150728
0.004759821
-0.0052399572
0.0046832074
-0.0062580883
0.0043171498
-0.0071555416
0.0036706923
-0.0078803836
0.0027469158
-0.0083768581
0.0015588561
-0.0085854042
0.00014494346
-0.0084513329
-0.0014227107
-0.0079295104
-0.0030186655
-0.0070049722
-0.0044677412
-0.0057150496
-0.0055473406
-0.0041735847
-0.0060188536
-0.0025818464
-0.0056944899
-0.0012041054
-0.004536833
-0.00029450419
-0.0027464561
-0.00077075622
-0.00033824894
0.0014734098
-0.0011031704
0.0035623532
-0.0021176363
0.0049073344
-0.0032598927
0.0056590562
-0.0044474108
0.005947339
-0.005621966
0.0058577626
-0.006736953
0.0054321369
-0.0077479707
0.0046817101
-0.0086063779
0.003605323
-0.0092552537
0.002207732
-0.009627017
0.00051670681
-0.009649208
-0.0014005197
-0.0092489826
-0.003418891
-0.0083739452
-0.0053427787
-0.0070220744
-0.0068992114
-0.0052818153
-0.0077591127
-0.0033676679
-0.0076086373
-0.0016173639
-0.006287137
-0.00040826908
-0.0039555509
-0.0011790253
-0.00034815636
0.0018215661
-0.0011372156
0.0043514124
-0.0021827895
0.0059529083
-0.0033586212
0.006834888
-0.0045822441
0.0071709618
-0.0057998239
0.0070753423
-0.0069721964
0.0066045094
-0.0080636695
0.0057731833
-0.009033443
0.0045750965
-0.0098289948
0.0030032838
-0.010381275
0.0010689875
-0.010604527
-0.0011772683
-0.010400779
-0.0036226389
-0.0096748968
-0.0060686607
-0.0083686764
-0.0082054319
-0.0065156869
-0.0096121022
-0.0043098859
-0.0098144384
-0.0021483241
-0.0084486988
-0.00056492553
-0.0055389495
-0.0017439508
-0.00034393489
0.002165501
-0.00112786
0.0051353374
-0.0021647105
0.0069897588
-0.003325903
0.0079960806
-0.0045308037
0.0083758625
-0.0057319457
0.0082764842
-0.0069002228
0.0077727864
-0.0080123826
0.0068853432
-0.009040827
0.005603541
-0.0099449675
0.0039074244
-0.010663395
0.0017874152
-0.011106746
-0.00073391757
-0.011163421
-0.0035659642
-0.010697129
-0.0065349529
-0.0095826001
-0.0093199603
-0.0077667782
-0.011427924
-0.0053715021
-0.012209714
-0.0028071794
-0.011013022
-0.00077836919
-0.0075677596
-0.00252232
-0.00032890791
0.002494409
-0.0010824215
0.005888851
-0.0020707773
0.0079781146
-0.0031636132
0.0090889165
-0.0042839023
0.0094961517
-0.0053928538
0.0093854356
-0.0064741409
0.0088540733
-0.0075205485
0.0079317507
-0.0085229182
0.0066059108
-0.0094603447
0.004844851
-0.010291332
0.0026184024
-0.010933227
-9.2022616e-05
-0.011283212
-0.0032159792
-0.011173633
-0.0066445315
-0.010415714
-0.010077879
-0.0088467368
-0.012996902
-0.0064557546
-0.014600697
-0.0035815275
-0.013887249
-0.0010642231
-0.010085064
-0.0035865431
-0.00031178411
0.0028061931
-0.0010206788
0.0065977457
-0.0019260998
0.0088835356
-0.0028949489
0.010057766
-0.0038568827
0.010458086
-0.0047855632
0.010314116
-0.0056807662
0.0097492761
-0.0065544555
0.0088054398
-0.0074198891
0.0074713443
-0.0082818245
0.0057067866
-0.0091251548
0.0034617328
-0.0099086389
0.00069146149
-0.010527256
-0.0025973623
-0.010827013
-0.0063447741
-0.010573628
-0.010331265
-0.0094932085
-0.014077321
-0.0073911391
-0.016702766
-0.0044189149
-0.016859473
-0.0014372118
-0.013066767
-0.0050237549
-0.00031004267
0.0031162357
-0.00098036419
0.0072680673
-0.0017790478
0.0096822194
-0.0025693648
0.010848082
-0.0032945946
0.011183315
-0.0039478952
0.010967417
-0.0045499684
0.01035135
-0.0051347837
0.0093902549
-0.0057399182
0.0080764786
-0.0063985224
0.0063653907
-0.0071301248
0.0041933354
-0.0079302568
0.0014915935
-0.0087388036
-0.0017888155
-0.0094303569
-0.0056532208
-0.0097685796
-0.0099930422
-0.0094003427
-0.014445558
-0.0079305791
-0.01817253
-0.0052061613
-0.019583891
-0.0019026121
-0.016370316
-0.006926367
-0.00035603987
0.0034722754
-0.0010239962
0.0079360236
-0.0017042284
0.010362452
-0.0022607959
0.01140465
-0.0026657187
0.011588238
-0.0029440062
0.011245705
-0.0031442449
0.010551589
-0.0033248624
0.0095708726
-0.0035471877
0.0082988038
-0.0038710405
0.0066892434
-0.0043491658
0.0046714605
-0.0050183754
0.0021608031
-0.0058766087
-0.00093058222
-0.0068578316
-0.0046719978
-0.0077762854
-0.0090745885
-0.0082658333
-0.01395601
-0.0077687389
-0.018669624
-0.005751099
-0.021601531
-0.0024366711
-0.019684744
-0.009363038
-0.00050826047
0.0039805359
-0.0012456301
0.0086733929
-0.0017958816
0.010912703
-0.0020479955
0.011656765
-0.0020325016
0.011572744
-0.0018254212
0.011038624
-0.0015121873
0.010238355
-0.0011778548
0.0092365402
-0.00090470823
0.0080256575
-0.00077371578
0.006558251
-0.00086348633
0.004761231
-0.0012473544
0.0025446712
-0.0019828291
-0.00019510758
-0.0030818656
-0.0035729613
-0.0044600293
-0.0076964248
-0.005827485
-0.012588554
-0.0065661623
-0.017930947
-0.0057684461
-0.022399247
-0.0029512247
-0.022501966
-0.012314263
-0.00086855257
0.0048490887
-0.0017629813
0.0095678213
-0.0021213521
0.011271073
-0.0019368394
0.011472252
-0.0013509131
0.010986818
-0.00051618198
0.010203893
0.00043705302
0.0092851192
0.0013996262
0.0082739668
0.0022723898
0.0071528939
0.002960928
0.0058697129
0.0033691623
0.0043529968
0.0033968097
0.0025170238
0.0029385542
0.00026314789
0.0019096178
-0.0025440249
0.00026969022
-0.0060564972
-0.0018541594
-0.010464705
-0.0039515931
-0.015833513
-0.0048608327
-0.021490007
-0.0032547029
-0.024108096
-0.015568966
-0.0015910835
0.0064401726
-0.0026108504
0.010587589
-0.0025131326
0.011173354
-0.0015899001
0.010549019
-0.00017216121
0.0095690796
0.0014928126
0.0085389195
0.0032329105
0.0075450213
0.0049232506
0.0065836267
0.0064630094
0.005613135
0.0077575133
0.004575209
0.0087075179
0.0034029923
0.0092015046
0.0020230371
0.009103348
0.00036130447
0.0082750956
-0.0017157725
0.0065654642
-0.0043468658
0.0039042378
-0.0078034782
0.00055895614
-0.012488231
-0.0024680531
-0.018462998
-0.0030273162
-0.023548832
-0.018596282
-0.00271836
0.0091585322
-0.003149864
0.011019095
-0.0018029956
0.0098264853
0.00046670596
0.0082793167
0.0030894301
0.0069463549
0.0057738195
0.0058545301
0.0083629078
0.0049559332
0.010760406
0.0041861286
0.012893501
0.0034800397
0.014690669
0.0027780414
0.016068353
0.0020253083
0.01692329
0.0011680996
0.017119717
0.00016487745
0.016490832
-0.0010868876
0.014816842
-0.0026728754
0.011846659
-0.0048332947
0.0074354935
-0.0080770663
0.0022629302
-0.013290435
-0.001272466
-0.020013436
-0.019868748
-0.0024132805
0.011571812
2.8056729e-05
0.0085777593
0.0042551391
0.0055994047
0.0084161237
0.0041183324
0.012231487
0.0031309918
0.015656266
0.0024297502
0.01868655
0.0019256491
0.021329194
0.001543485
0.023583494
0.0012257394
0.025429229
0.00093230678
0.026820172
0.00063436561
0.027677182
0.00031108899
0.027900206
-5.8145916e-05
0.027347226
-0.00053390763
0.025771633
-0.0010972823
0.022843047
-0.0019047096
0.01805477
-0.0032887893
0.011113587
-0.0063492511
0.0033886755
-0.012288525
-0.016480072
0.011571811
0.020149569
0.025748973
0.029867306
0.032998298
0.035428048
0.037353697
0.038897182
0.040122922
0.041055228
0.041689594
0.042000683
0.041942537
0.041408629
0.040311347
0.038406637
0.035117848
0.028768597
0.016480072
)
;

boundaryField
{
    movingWall
    {
        type            calculated;
        value           uniform 0;
    }
    fixedWalls
    {
        type            calculated;
        value           uniform 0;
    }
    frontAndBack
    {
        type            empty;
        value           nonuniform List<scalar> 0();
    }
}


// ************************************************************************* //
