/*--------------------------------*- C++ -*----------------------------------*\
| =========                 |                                                 |
| \\      /  F ield         | OpenFOAM: The Open Source CFD Toolbox           |
|  \\    /   O peration     | Version:  2112                                  |
|   \\  /    A nd           | Website:  www.openfoam.com                      |
|    \\/     M anipulation  |                                                 |
\*---------------------------------------------------------------------------*/
FoamFile
{
    version     2.0;
    format      ascii;
    arch        "LSB;label=32;scalar=64";
    class       volVectorField;
    location    "35";
    object      U;
}
// * * * * * * * * * * * * * * * * * * * * * * * * * * * * * * * * * * * * * //

dimensions      [0 1 -1 0 0 0 0];

internalField   nonuniform List<vector> 
400
(
(0.00028445064 -0.00028138989 0)
(0.00011070465 7.9970232e-05 0)
(-0.0013271916 0.00047803581 0)
(-0.003621906 0.00073593484 0)
(-0.0064236757 0.00086752619 0)
(-0.0094315226 0.00090727534 0)
(-0.012388066 0.00087487284 0)
(-0.015056529 0.00077153631 0)
(-0.01719465 0.00058849336 0)
(-0.018552961 0.00032008562 0)
(-0.018902725 -2.4813236e-05 0)
(-0.018086236 -0.00041827045 0)
(-0.016079962 -0.00079972701 0)
(-0.013048986 -0.0010930879 0)
(-0.0093664123 -0.0012212163 0)
(-0.005577665 -0.0011294832 0)
(-0.0023003392 -0.00081287201 0)
(-8.2950543e-05 -0.00033798263 0)
(0.00076015202 0.00015229486 0)
(0.00040944189 0.00038933908 0)
(-8.6058029e-05 -0.00012357586 0)
(-0.0018692582 0.0017872687 0)
(-0.006306545 0.0036260821 0)
(-0.012452746 0.0048625292 0)
(-0.019600762 0.0054985665 0)
(-0.027107123 0.0056207089 0)
(-0.034359119 0.0052860647 0)
(-0.040769149 0.0045044055 0)
(-0.045758473 0.0032662341 0)
(-0.048776217 0.0015896541 0)
(-0.049366969 -0.00043547991 0)
(-0.047254135 -0.0026182119 0)
(-0.042452258 -0.0046645742 0)
(-0.035361688 -0.0062189587 0)
(-0.026778741 -0.0069376291 0)
(-0.017827329 -0.0065923022 0)
(-0.0097755605 -0.0051798003 0)
(-0.0037462993 -0.0029994433 0)
(-0.00038875094 -0.00066553556 0)
(0.00028989569 0.00078355016 0)
(-0.00058807946 0.0014336375 0)
(-0.0042428199 0.006377556 0)
(-0.011758631 0.010640663 0)
(-0.021468838 0.01348371 0)
(-0.032366427 0.014898413 0)
(-0.043588331 0.015017489 0)
(-0.054287808 0.013936248 0)
(-0.063643012 0.011684299 0)
(-0.070856343 0.008281391 0)
(-0.075188885 0.0038286524 0)
(-0.076040062 -0.0014059372 0)
(-0.073058226 -0.006935711 0)
(-0.06626705 -0.012071837 0)
(-0.05616964 -0.01600036 0)
(-0.043781007 -0.017942851 0)
(-0.030569302 -0.017380042 0)
(-0.018250709 -0.014290034 0)
(-0.0084179897 -0.0093123273 0)
(-0.0021511234 -0.0037618388 0)
(-1.9699414e-06 0.00031696985 0)
(-0.0010530687 0.0043004033 0)
(-0.0065148929 0.013565822 0)
(-0.016999229 0.020864231 0)
(-0.030031098 0.025561411 0)
(-0.044300896 0.027761633 0)
(-0.058784712 0.02768812 0)
(-0.072488041 0.025487766 0)
(-0.084447488 0.021218508 0)
(-0.09372954 0.01494516 0)
(-0.099464821 0.0068783793 0)
(-0.10093072 -0.0025013243 0)
(-0.097663342 -0.012378527 0)
(-0.089593479 -0.02160554 0)
(-0.077182525 -0.028824946 0)
(-0.061505296 -0.032706229 0)
(-0.044253771 -0.032300063 0)
(-0.027562287 -0.027445999 0)
(-0.013581786 -0.019080756 0)
(-0.0040263581 -0.0092707112 0)
(-0.00026772052 -0.001108189 0)
(-0.0014558702 0.0083650651 0)
(-0.0085490979 0.023181337 0)
(-0.021746314 0.034051807 0)
(-0.037792615 0.040763247 0)
(-0.055097132 0.043701918 0)
(-0.07251986 0.043259176 0)
(-0.08898476 0.039661591 0)
(-0.10345883 0.033001435 0)
(-0.11493262 0.023384276 0)
(-0.1224373 0.011116751 0)
(-0.12511569 -0.0031289777 0)
(-0.12232022 -0.018219458 0)
(-0.11376181 -0.032541731 0)
(-0.09969848 -0.044132768 0)
(-0.081100667 -0.050966436 0)
(-0.059776443 -0.051441368 0)
(-0.038291251 -0.045013744 0)
(-0.019520486 -0.032755611 0)
(-0.0060923495 -0.017491877 0)
(-0.00051102277 -0.0035220292 0)
(-0.0017889397 0.013475495 0)
(-0.010269749 0.034960974 0)
(-0.025805589 0.049908796 0)
(-0.044466901 0.058794981 0)
(-0.064427914 0.062458551 0)
(-0.084477805 0.061551065 0)
(-0.10351687 0.056416175 0)
(-0.12050386 0.047182299 0)
(-0.13440432 0.033970397 0)
(-0.14417429 0.01713237 0)
(-0.14880382 -0.002535957 0)
(-0.14739363 -0.023636506 0)
(-0.13931143 -0.044142768 0)
(-0.12443582 -0.061442319 0)
(-0.10343184 -0.072642525 0)
(-0.078056047 -0.075174115 0)
(-0.051261012 -0.06770691 0)
(-0.026809496 -0.051124281 0)
(-0.0086123143 -0.028965703 0)
(-0.00078707408 -0.0070521595 0)
(-0.00204204 0.019436575 0)
(-0.01160568 0.048529057 0)
(-0.028995865 0.067998526 0)
(-0.049757845 0.07922623 0)
(-0.07189179 0.083657605 0)
(-0.094162277 0.082297918 0)
(-0.11550027 0.075649836 0)
(-0.13491526 0.063877006 0)
(-0.15140353 0.047076035 0)
(-0.16388501 0.025567777 0)
(-0.17119263 0.00016299781 0)
(-0.1721548 -0.027610709 0)
(-0.1657159 -0.055396449 0)
(-0.15119218 -0.079945896 0)
(-0.12870077 -0.097351372 0)
(-0.099670145 -0.10369876 0)
(-0.067241929 -0.096286273 0)
(-0.036119174 -0.075220332 0)
(-0.011929749 -0.044539884 0)
(-0.0011708192 -0.012001499 0)
(-0.0022012918 0.026013428 0)
(-0.012484743 0.063419721 0)
(-0.031139974 0.087764646 0)
(-0.053354665 0.10149045 0)
(-0.077017855 0.10677731 0)
(-0.10091222 0.10507392 0)
(-0.12405026 0.097088314 0)
(-0.14555194 0.083021464 0)
(-0.1645098 0.062902237 0)
(-0.17987612 0.036930821 0)
(-0.1903994 0.0057954912 0)
(-0.19465584 -0.029033487 0)
(-0.19113646 -0.065018206 0)
(-0.17848991 -0.098391232 0)
(-0.15602505 -0.12417765 0)
(-0.12444503 -0.13676299 0)
(-0.086646709 -0.13132926 0)
(-0.048063805 -0.10623298 0)
(-0.016429383 -0.065393312 0)
(-0.0017537949 -0.018878437 0)
(-0.0022557109 0.032933311 0)
(-0.012853728 0.079088618 0)
(-0.032098963 0.10853518 0)
(-0.054981908 0.12486444 0)
(-0.079334954 0.13109305 0)
(-0.10399431 0.12919943 0)
(-0.12810044 0.12015145 0)
(-0.15094519 0.10420154 0)
(-0.17179742 0.08127838 0)
(-0.18974481 0.051375581 0)
(-0.20357632 0.014915378 0)
(-0.21172916 -0.026876173 0)
(-0.21232525 -0.071532442 0)
(-0.20333824 -0.1150262 0)
(-0.18306288 -0.15144724 0)
(-0.15101797 -0.17328524 0)
(-0.10916565 -0.17282203 0)
(-0.063026409 -0.14524397 0)
(-0.022524986 -0.092978147 0)
(-0.0026589644 -0.028422212 0)
(-0.0022086339 0.039904558 0)
(-0.012717086 0.09494433 0)
(-0.031841312 0.1295403 0)
(-0.054496845 0.14845866 0)
(-0.078500115 0.15563561 0)
(-0.10277104 0.15366654 0)
(-0.12662146 0.14384612 0)
(-0.14957663 0.12651342 0)
(-0.17117095 0.10149253 0)
(-0.19075578 0.068517124 0)
(-0.20732711 0.027627533 0)
(-0.21937773 -0.02039431 0)
(-0.2248878 -0.073462022 0)
(-0.22130659 -0.1276889 0)
(-0.20585481 -0.17662071 0)
(-0.17647628 -0.21099215 0)
(-0.13334659 -0.21961326 0)
(-0.080899185 -0.19275402 0)
(-0.030641905 -0.12885266 0)
(-0.0040700743 -0.041637063 0)
(-0.0020933491 0.046663324 0)
(-0.012189727 0.11041864 0)
(-0.030536215 0.14996591 0)
(-0.052017597 0.17124312 0)
(-0.074465011 0.17919263 0)
(-0.096919921 0.17712119 0)
(-0.11891406 0.16672986 0)
(-0.14026652 0.14850282 0)
(-0.16086208 0.12219249 0)
(-0.18044322 0.087272644 0)
(-0.19840292 0.043352575 0)
(-0.21353681 -0.0093897103 0)
(-0.2240146 -0.069676741 0)
(-0.22708288 -0.13413355 0)
(-0.21908959 -0.19645342 0)
(-0.1962665 -0.24625232 0)
(-0.15621929 -0.26886044 0)
(-0.10070625 -0.24798819 0)
(-0.041146022 -0.17433509 0)
(-0.0062706215 -0.059833959 0)
(-0.0019963286 0.053057501 0)
(-0.0115655 0.12508359 0)
(-0.028660952 0.16904528 0)
(-0.048056612 0.19210925 0)
(-0.067638434 0.20035678 0)
(-0.086643881 0.19791293 0)
(-0.10489589 0.18696732 0)
(-0.12256942 0.16821865 0)
(-0.13996398 0.14140914 0)
(-0.15729756 0.10579906 0)
(-0.17451556 0.060571787 0)
(-0.19108366 0.0052257093 0)
(-0.20560156 -0.059922493 0)
(-0.21550584 -0.13260799 0)
(-0.21690135 -0.207528 0)
(-0.20457804 -0.27431827 0)
(-0.17317489 -0.31571794 0)
(-0.12017098 -0.30807993 0)
(-0.054147492 -0.22988384 0)
(-0.0096749058 -0.084653185 0)
(-0.0020996012 0.059184306 0)
(-0.011414856 0.13881595 0)
(-0.027115363 0.18617349 0)
(-0.043624828 0.20994723 0)
(-0.058981201 0.21760167 0)
(-0.072777788 0.21419786 0)
(-0.085249917 0.20247372 0)
(-0.09700111 0.18339421 0)
(-0.10878855 0.15675623 0)
(-0.12135024 0.1216863 0)
(-0.1352539 0.077015417 0)
(-0.1507027 0.021618186 0)
(-0.167122 -0.045110805 0)
(-0.18273999 -0.12251615 0)
(-0.19405352 -0.20712626 0)
(-0.19523503 -0.29011484 0)
(-0.17829425 -0.35358521 0)
(-0.13540546 -0.36743821 0)
(-0.069089023 -0.29415304 0)
(-0.014795029 -0.11798451 0)
(-0.0027676947 0.065619986 0)
(-0.012740981 0.15199863 0)
(-0.027329946 0.20099738 0)
(-0.040244463 0.22368379 0)
(-0.049928491 0.22933099 0)
(-0.056643276 0.22403763 0)
(-0.06123239 0.21108068 0)
(-0.064815776 0.19168183 0)
(-0.068620447 0.16572047 0)
(-0.073874733 0.13227354 0)
(-0.081727928 0.089960248 0)
(-0.093119842 0.037200108 0)
(-0.10846904 -0.027479129 0)
(-0.12721362 -0.10497645 0)
(-0.14705408 -0.19422082 0)
(-0.16280337 -0.28948652 0)
(-0.16509069 -0.37509947 0)
(-0.14090145 -0.41772704 0)
(-0.084061562 -0.36281408 0)
(-0.022011634 -0.16157411 0)
(-0.0047195815 0.073834783 0)
(-0.0172224 0.16572645 0)
(-0.031284265 0.21337843 0)
(-0.039683058 0.23217433 0)
(-0.041883258 0.23380259 0)
(-0.039350804 0.22539475 0)
(-0.033812223 0.21061261 0)
(-0.027000018 0.19081087 0)
(-0.020591654 0.16589803 0)
(-0.016215067 0.13493926 0)
(-0.015476019 0.096470885 0)
(-0.019925243 0.048689983 0)
(-0.030918342 -0.010412761 0)
(-0.049234028 -0.082920544 0)
(-0.074398895 -0.1701432 0)
(-0.10327649 -0.27050262 0)
(-0.12725447 -0.3736954 0)
(-0.12973492 -0.44868785 0)
(-0.094914796 -0.42750701 0)
(-0.030930662 -0.21612807 0)
(-0.0092999978 0.086952165 0)
(-0.027432064 0.18185346 0)
(-0.040981527 0.22303367 0)
(-0.042679236 0.23378976 0)
(-0.034405063 0.22880249 0)
(-0.019622162 0.21592317 0)
(-0.0012378769 0.1987802 0)
(0.01834614 0.17856487 0)
(0.037072139 0.15508364 0)
(0.053056346 0.12735939 0)
(0.064422213 0.093936244 0)
(0.069231533 0.053014498 0)
(0.065415593 0.0024625031 0)
(0.051047828 -0.060339452 0)
(0.024643277 -0.13837673 0)
(-0.013701743 -0.23417151 0)
(-0.058753682 -0.34517039 0)
(-0.093510866 -0.44954003 0)
(-0.094469895 -0.4755883 0)
(-0.039216113 -0.28048286 0)
(-0.018580313 0.11087148 0)
(-0.046039616 0.20177658 0)
(-0.055229917 0.22793174 0)
(-0.043984574 0.2250178 0)
(-0.019372056 0.21061312 0)
(0.012333945 0.19228022 0)
(0.046993747 0.17278511 0)
(0.081754886 0.15265409 0)
(0.11443863 0.1313529 0)
(0.14315394 0.10779554 0)
(0.16601745 0.080591562 0)
(0.1809817 0.048112067 0)
(0.18557649 0.0084491525 0)
(0.17716602 -0.040817653 0)
(0.15275969 -0.10317636 0)
(0.10948896 -0.18390634 0)
(0.047240634 -0.28855476 0)
(-0.021439219 -0.41051048 0)
(-0.072252924 -0.49101708 0)
(-0.041147482 -0.35054299 0)
(-0.033352245 0.15561542 0)
(-0.068601623 0.22040443 0)
(-0.055187253 0.21729228 0)
(-0.016078488 0.19532449 0)
(0.034511413 0.1709236 0)
(0.088508143 0.14849477 0)
(0.141769 0.12861272 0)
(0.1919695 0.11057767 0)
(0.23754119 0.093297646 0)
(0.27712065 0.075575087 0)
(0.30921861 0.056181441 0)
(0.33204371 0.033823246 0)
(0.34317599 0.0070271754 0)
(0.3398291 -0.025910575 0)
(0.31813267 -0.067741858 0)
(0.27327736 -0.12410803 0)
(0.20044733 -0.20584717 0)
(0.10213984 -0.32506916 0)
(-0.012387252 -0.45457172 0)
(-0.023756651 -0.40864073 0)
(-0.03308112 0.23907316 0)
(-0.04264716 0.2179201 0)
(0.042207225 0.16426629 0)
(0.12760463 0.12783581 0)
(0.20769806 0.10143554 0)
(0.28028174 0.081658208 0)
(0.34487328 0.066648176 0)
(0.40158324 0.05470308 0)
(0.45055087 0.044399497 0)
(0.49162064 0.034639937 0)
(0.52416207 0.024550586 0)
(0.54698625 0.013381689 0)
(0.55822251 0.00039972118 0)
(0.55570952 -0.015137355 0)
(0.53552629 -0.034969205 0)
(0.49244663 -0.062488209 0)
(0.41797274 -0.10694763 0)
(0.30410596 -0.19317544 0)
(0.12313783 -0.33691905 0)
(0.052374208 -0.39437913 0)
(0.24299926 0.15257479 0)
(0.30529617 0.11854286 0)
(0.45481214 0.076108139 0)
(0.56000885 0.050840197 0)
(0.63223324 0.035126092 0)
(0.6865492 0.024812316 0)
(0.72943835 0.017960107 0)
(0.76379643 0.013255932 0)
(0.79127941 0.0097622054 0)
(0.81275158 0.006854362 0)
(0.82841148 0.0041185176 0)
(0.83794405 0.0012768537 0)
(0.8405708 -0.0018442024 0)
(0.83497559 -0.0053262622 0)
(0.81886698 -0.0098289669 0)
(0.78942866 -0.01623275 0)
(0.73784287 -0.026935706 0)
(0.65316763 -0.05128655 0)
(0.45609767 -0.11374603 0)
(0.31788988 -0.17206002 0)
)
;

boundaryField
{
    movingWall
    {
        type            fixedValue;
        value           uniform (1 0 0);
    }
    fixedWalls
    {
        type            fixedValue;
        value           uniform (0 0 0);
    }
    frontAndBack
    {
        type            empty;
    }
}


// ************************************************************************* //
