/*--------------------------------*- C++ -*----------------------------------*\
| =========                 |                                                 |
| \\      /  F ield         | OpenFOAM: The Open Source CFD Toolbox           |
|  \\    /   O peration     | Version:  2112                                  |
|   \\  /    A nd           | Website:  www.openfoam.com                      |
|    \\/     M anipulation  |                                                 |
\*---------------------------------------------------------------------------*/
FoamFile
{
    version     2.0;
    format      ascii;
    arch        "LSB;label=32;scalar=64";
    class       volScalarField;
    location    "28.5";
    object      p;
}
// * * * * * * * * * * * * * * * * * * * * * * * * * * * * * * * * * * * * * //

dimensions      [0 2 -2 0 0 0 0];

internalField   nonuniform List<scalar> 
8800
(
1.29321
1.24542
1.20673
1.17773
1.15685
1.142
1.13137
1.12385
1.11898
1.11684
1.118
1.12209
1.12865
1.1379
1.15063
1.16833
1.19309
1.22701
1.26955
1.32825
1.12447
1.13215
1.13962
1.14292
1.14141
1.13632
1.12981
1.1237
1.11893
1.11601
1.11563
1.11802
1.12241
1.12828
1.13499
1.14122
1.14483
1.14408
1.13864
1.12993
1.1029
1.10906
1.11318
1.11612
1.11815
1.11874
1.11761
1.11546
1.11338
1.11237
1.11322
1.11548
1.11818
1.12028
1.12083
1.11959
1.11721
1.11379
1.10922
1.10545
1.09713
1.09978
1.10253
1.10492
1.10655
1.10769
1.1084
1.10848
1.10811
1.10795
1.10856
1.1096
1.11033
1.1103
1.10961
1.10846
1.1066
1.10399
1.10157
1.10006
1.0918
1.09322
1.09501
1.09704
1.09882
1.10014
1.1011
1.10185
1.10238
1.10282
1.10331
1.10365
1.10361
1.10321
1.10242
1.10108
1.09932
1.09742
1.09608
1.09525
1.0868
1.08772
1.08897
1.09054
1.09218
1.0937
1.09496
1.09597
1.09684
1.09759
1.09809
1.09822
1.09801
1.09742
1.09641
1.0951
1.09368
1.09235
1.09149
1.09094
1.08199
1.08266
1.08364
1.08496
1.08639
1.08785
1.08928
1.09055
1.09166
1.0926
1.09319
1.09331
1.093
1.09229
1.0913
1.0902
1.08906
1.08804
1.08742
1.08702
1.07735
1.07787
1.07867
1.07984
1.08115
1.08254
1.08398
1.08541
1.08674
1.08787
1.0886
1.08877
1.08846
1.0878
1.08697
1.08604
1.08509
1.08428
1.0838
1.0835
1.07283
1.07323
1.07391
1.07497
1.07622
1.07757
1.079
1.08051
1.08201
1.08338
1.08429
1.08456
1.08437
1.08388
1.08321
1.08243
1.08164
1.08099
1.08061
1.08037
1.06835
1.06867
1.06927
1.07027
1.07149
1.07283
1.07429
1.07585
1.07749
1.07908
1.08023
1.08074
1.08077
1.08046
1.07996
1.07933
1.07866
1.07813
1.07784
1.07765
1.06387
1.06413
1.06467
1.06564
1.06685
1.06823
1.06977
1.07146
1.07327
1.07512
1.07659
1.0774
1.07766
1.07755
1.0772
1.07671
1.07615
1.07573
1.07551
1.07536
1.05938
1.05957
1.06008
1.06104
1.0623
1.06374
1.06538
1.06725
1.06933
1.07152
1.07338
1.07453
1.07506
1.07517
1.075
1.07464
1.0742
1.07386
1.07369
1.07357
1.0548
1.05494
1.05542
1.05639
1.05767
1.05918
1.06092
1.06296
1.06532
1.06795
1.07029
1.07187
1.07278
1.07321
1.07329
1.07313
1.07282
1.07257
1.07246
1.07237
1.05012
1.05022
1.05067
1.05166
1.05302
1.05464
1.05658
1.05889
1.06162
1.06475
1.06771
1.06985
1.0712
1.07194
1.07226
1.07231
1.07215
1.07201
1.07196
1.07189
1.04536
1.04541
1.04582
1.0468
1.0482
1.04993
1.05206
1.05469
1.05792
1.06175
1.06544
1.06822
1.07011
1.0713
1.07199
1.0723
1.07238
1.07238
1.07239
1.07234
1.04021
1.04026
1.04064
1.04157
1.043
1.04486
1.04723
1.05025
1.05406
1.0587
1.06333
1.06695
1.0695
1.07125
1.0724
1.0731
1.07349
1.07368
1.07373
1.07369
1.03429
1.03433
1.03472
1.03568
1.03723
1.03932
1.04208
1.0457
1.05034
1.05604
1.06178
1.06634
1.06964
1.07199
1.07366
1.07476
1.07545
1.07581
1.0759
1.07584
1.02726
1.0273
1.02773
1.02878
1.03054
1.03297
1.03623
1.04057
1.0462
1.05321
1.06036
1.06612
1.07037
1.07344
1.07565
1.0772
1.07821
1.07873
1.07886
1.07879
1.01878
1.01882
1.01934
1.02058
1.02268
1.02562
1.0296
1.03495
1.0419
1.05058
1.05942
1.06657
1.07187
1.07575
1.07858
1.08058
1.08191
1.08256
1.08273
1.08265
1.00841
1.00846
1.00911
1.01066
1.01324
1.01689
1.02186
1.02851
1.03717
1.04792
1.05884
1.06764
1.07419
1.079
1.08253
1.08505
1.0867
1.08749
1.08769
1.0876
0.995653
0.995708
0.996543
0.998513
1.0018
1.00643
1.01274
1.02116
1.032
1.04534
1.05876
1.0695
1.07749
1.08338
1.08772
1.09083
1.09284
1.09378
1.09401
1.0939
0.979735
0.979797
0.980881
0.983476
0.987781
0.993802
1.00196
1.01271
1.02637
1.04288
1.05927
1.0723
1.08197
1.08907
1.0944
1.09816
1.10055
1.10165
1.10193
1.10181
0.959669
0.959744
0.961191
0.964689
0.970482
0.978504
0.989218
1.00309
1.0203
1.04066
1.06053
1.0762
1.0878
1.09637
1.10274
1.10725
1.11007
1.11138
1.1117
1.11155
0.933817
0.933932
0.935997
0.940936
0.948979
0.959957
0.974271
0.992255
1.01391
1.03885
1.06272
1.08135
1.09514
1.10536
1.11292
1.11828
1.12161
1.12315
1.12351
1.12332
0.899317
0.899576
0.902919
0.910459
0.922184
0.93762
0.956992
0.980357
1.00747
1.03773
1.06605
1.08792
1.10409
1.11611
1.12503
1.13136
1.1353
1.13709
1.13746
1.13722
0.850502
0.851666
0.85836
0.871223
0.889263
0.91143
0.937706
0.967849
1.0014
1.03761
1.07073
1.09602
1.11467
1.12859
1.13899
1.14646
1.1511
1.15313
1.15348
1.15319
0.778267
0.785977
0.801453
0.824187
0.851625
0.882702
0.917389
0.955344
0.996084
1.03887
1.07728
1.10639
1.12789
1.14407
1.15633
1.16532
1.17102
1.17359
1.17408
1.17387
0.700806
0.718544
0.743548
0.776585
0.813681
0.853853
0.897047
0.943063
0.991483
1.04169
1.08654
1.12061
1.14594
1.16517
1.18003
1.19128
1.19844
1.20168
1.20259
1.20257
0.637121
0.657794
0.690613
0.732136
0.777768
0.826409
0.877777
0.931622
0.987525
1.04486
1.09573
1.13429
1.163
1.18491
1.20183
1.21455
1.22301
1.22709
1.22778
1.22785
0.585218
0.607703
0.645688
0.693238
0.745567
0.801266
0.859805
0.92077
0.983604
1.0476
1.10399
1.14649
1.17802
1.20196
1.22046
1.23437
1.24398
1.24823
1.24906
1.24923
0.542134
0.565676
0.607182
0.659532
0.717216
0.778703
0.843338
0.910559
0.979641
1.04967
1.11102
1.15696
1.19079
1.21638
1.23605
1.25085
1.26094
1.26566
1.26681
1.26702
0.505287
0.529445
0.573691
0.629759
0.691903
0.758295
0.828198
0.900926
0.9756
1.0511
1.11691
1.16582
1.20158
1.22842
1.24892
1.26431
1.2747
1.27982
1.28118
1.28139
0.472757
0.497328
0.543658
0.602848
0.66877
0.739418
0.813963
0.891617
0.971368
1.05189
1.12178
1.17337
1.21077
1.23858
1.25961
1.27532
1.2858
1.29111
1.29259
1.29275
0.443124
0.468065
0.516128
0.577996
0.647154
0.72152
0.800208
0.882331
0.966762
1.05199
1.12576
1.17988
1.21876
1.24739
1.2688
1.28465
1.29519
1.30056
1.30212
1.30227
0.415524
0.440801
0.490394
0.554534
0.626559
0.704225
0.786622
0.872824
0.961622
1.05134
1.1289
1.18552
1.22589
1.25531
1.27712
1.29309
1.30366
1.30904
1.31068
1.31081
0.389243
0.414912
0.465896
0.532039
0.606613
0.687222
0.772973
0.86292
0.95581
1.04986
1.1312
1.19041
1.23236
1.2627
1.28497
1.30113
1.31173
1.31701
1.31866
1.31882
0.364
0.390088
0.442165
0.510233
0.587082
0.670332
0.759114
0.852499
0.94923
1.04748
1.13266
1.19463
1.23837
1.26977
1.29263
1.30905
1.31972
1.32494
1.32647
1.32658
0.33944
0.366073
0.419157
0.488927
0.567808
0.653427
0.744957
0.841493
0.941822
1.04416
1.13329
1.19826
1.244
1.27665
1.30024
1.31704
1.3278
1.33295
1.33433
1.33435
0.315487
0.342529
0.396719
0.468007
0.548705
0.63645
0.730459
0.829875
0.933561
1.03987
1.13301
1.20121
1.24924
1.28338
1.30786
1.32511
1.33597
1.34101
1.34226
1.34217
0.292061
0.319635
0.374744
0.447421
0.529756
0.6194
0.715624
0.817645
0.924436
1.03453
1.13172
1.20341
1.25407
1.28997
1.3155
1.33326
1.34418
1.34905
1.35011
1.34994
0.269069
0.297225
0.353236
0.427171
0.510961
0.602298
0.70049
0.80484
0.914452
1.0281
1.12933
1.20476
1.25841
1.2964
1.32318
1.34148
1.3524
1.35697
1.35783
1.35758
0.246519
0.275308
0.332206
0.407283
0.492371
0.585188
0.685115
0.791514
0.903646
1.02058
1.12577
1.2051
1.26211
1.30264
1.33094
1.34979
1.36052
1.36467
1.36528
1.36498
0.224584
0.253959
0.311697
0.387798
0.474035
0.568152
0.669573
0.777754
0.892099
1.012
1.12094
1.20426
1.26499
1.3086
1.33888
1.35832
1.36855
1.372
1.37232
1.37197
0.203295
0.233229
0.291742
0.368774
0.45602
0.551256
0.653961
0.763653
0.879901
1.0024
1.11481
1.20209
1.26681
1.31409
1.3471
1.36748
1.37678
1.37893
1.37877
1.37843
0.182593
0.213157
0.272385
0.350254
0.438391
0.534586
0.638375
0.749322
0.867154
0.991866
1.10735
1.19844
1.26725
1.31874
1.35555
1.3779
1.38619
1.38596
1.38459
1.3844
0.162651
0.193766
0.253682
0.332307
0.421213
0.518228
0.622911
0.734875
0.853984
0.980508
1.09859
1.19319
1.26603
1.32197
1.36368
1.38995
1.39879
1.39569
1.39125
1.39011
0.143383
0.175067
0.235615
0.314908
0.404454
0.502135
0.60751
0.720249
0.840322
0.968257
1.08841
1.18609
1.2628
1.32296
1.37024
1.40286
1.41611
1.41414
1.40352
1.38586
0.124859
0.157062
0.218061
0.297866
0.38782
0.485972
0.591755
0.704957
0.825615
0.954447
1.07611
1.17626
1.25687
1.32049
1.37247
1.41241
1.43105
1.42281
1.40739
1.3882
0.107247
0.139612
0.201202
0.281425
0.37161
0.470086
0.575874
0.689332
0.810191
0.939382
1.06187
1.16342
1.24776
1.31371
1.36517
1.4057
1.4266
1.40998
1.33877
1.30446
0.0911897
0.121577
0.185376
0.266174
0.356533
0.454963
0.560161
0.673597
0.79427
0.923209
1.04569
1.14742
1.23446
1.3029
1.34459
1.3759
1.38065
1.33145
1.25882
1.21334
0.0355016
0.10586
0.17088
0.250895
0.341158
0.439212
0.544554
0.65749
0.777513
0.905525
1.02708
1.12792
1.21389
1.28948
1.29222
1.3083
1.27511
1.21071
1.13264
1.08855
0.0743645
0.0902269
0.149821
0.229207
0.318858
0.416584
0.520878
0.632889
0.751504
0.877403
0.995927
1.09379
1.17114
1.24587
1.24416
1.1382
1.03316
0.960776
0.88613
0.922358
0.0435672
0.0726433
0.132982
0.21197
0.301509
0.398882
0.503302
0.61453
0.731855
0.8556
0.970809
1.06436
1.13417
1.17359
1.12838
0.982159
0.850923
0.757874
0.655832
0.711971
0.0198695
0.0519558
0.113415
0.192729
0.282281
0.379491
0.483711
0.593964
0.709692
0.830753
0.941933
1.02976
1.08986
1.09856
0.993371
0.813044
0.652333
0.527779
0.390936
0.430026
-0.0032103
0.0304074
0.0930003
0.173132
0.262841
0.3599
0.463537
0.5727
0.686658
0.804723
0.91113
0.992596
1.03806
1.01325
0.852842
0.645216
0.44112
0.256751
0.0546971
0.0491049
-0.0255092
0.00841164
0.0718517
0.152695
0.242594
0.33945
0.4424
0.550377
0.662342
0.777089
0.878189
0.952506
0.9808
0.921176
0.718698
0.494123
0.258761
0.0472279
-0.218234
-0.549251
-0.0480255
-0.014191
0.0497166
0.131032
0.221133
0.317837
0.420178
0.526956
0.636854
0.748104
0.843726
0.909973
0.920868
0.810177
0.602071
0.377151
0.153183
-0.0379818
-0.111228
-0.215508
-0.0715865
-0.0378272
0.0262889
0.107822
0.197998
0.294467
0.396115
0.501539
0.609076
0.716366
0.806086
0.862728
0.848873
0.698882
0.49908
0.29355
0.115909
0.0126143
-0.0114401
-0.0308385
-0.0965191
-0.0628102
0.00141967
0.0830037
0.173091
0.269173
0.369908
0.473696
0.578479
0.681208
0.764557
0.809311
0.773208
0.596224
0.405872
0.226098
0.0879368
0.0427257
0.0276002
0.0253444
-0.123026
-0.0892512
-0.0249378
0.0566203
0.146493
0.241989
0.341589
0.443435
0.545048
0.642647
0.718934
0.750338
0.695843
0.499498
0.319579
0.15811
0.063266
0.0498708
0.047554
0.0474348
-0.151104
-0.117205
-0.0527771
0.0287143
0.118238
0.212979
0.311214
0.41081
0.508853
0.600815
0.669114
0.688418
0.601277
0.409683
0.239007
0.104926
0.0636627
0.0579167
0.0573549
0.0580525
-0.180438
-0.146366
-0.0819453
-0.000586491
0.0884638
0.182262
0.278891
0.375938
0.470007
0.555902
0.615774
0.620813
0.50143
0.322836
0.171838
0.0779431
0.0694164
0.0659523
0.0640711
0.0641986
-0.210459
-0.176333
-0.112178
-0.0310163
0.0574139
0.150073
0.244865
0.339066
0.428814
0.508209
0.559867
0.545589
0.409936
0.240676
0.109061
0.0882602
0.0680195
0.0656994
0.066576
0.0668891
-0.240711
-0.206746
-0.142867
-0.0621725
0.0254885
0.116818
0.209525
0.300608
0.385773
0.458374
0.501981
0.471202
0.320886
0.160417
0.0473758
0.0289429
0.0467218
0.0596559
0.0653328
0.0671418
-0.270363
-0.236762
-0.173305
-0.0933695
-0.0067143
0.0830636
0.173458
0.261194
0.341574
0.407368
0.44166
0.396538
0.233795
0.0857
-0.0251961
0.00245563
0.028074
0.0498175
0.0613151
0.0648405
-0.297969
-0.265174
-0.202726
-0.123751
-0.0383585
0.0496106
0.137485
0.22172
0.297175
0.356346
0.382836
0.329617
0.153924
0.0195685
-0.0550656
-0.032249
-0.0166707
-0.00351842
0.00854372
0.0149383
-0.322243
-0.290513
-0.229954
-0.152198
-0.0684319
0.0174986
0.102661
0.183337
0.253961
0.306456
0.329805
0.264458
0.100933
-0.0375843
-0.00684693
-0.083272
-0.10673
-0.122539
-0.11755
-0.110162
-0.341364
-0.311472
-0.253087
-0.17741
-0.0956549
-0.0120365
0.0703049
0.147465
0.213637
0.259582
0.282116
0.201002
0.0626394
-0.0852921
-0.3416
-0.257229
-0.256209
-0.271509
-0.269006
-0.268315
-0.353587
-0.326253
-0.270845
-0.197752
-0.118505
-0.0375177
0.041986
0.115795
0.17796
0.218527
0.235812
0.130907
0.00719253
0.000188804
0.0440653
-0.184676
-0.421296
-0.434896
-0.420638
-0.416873
-0.356806
-0.333143
-0.281581
-0.211728
-0.135419
-0.0573472
0.0193552
0.0903326
0.149123
0.185138
0.186101
0.0516627
-0.0960791
0.0914546
0.227971
-0.12088
-0.409786
-0.43534
-0.453884
-0.464079
-0.349808
-0.330304
-0.283648
-0.218052
-0.145106
-0.0700246
0.00418457
0.0733733
0.130199
0.162503
0.147515
-0.0420867
-0.473248
-1.10426
-1.59138
-1.9652
-1.82523
-1.3248
-0.949069
-0.891369
-0.330952
-0.315471
-0.275868
-0.215834
-0.146738
-0.0744852
-0.00203943
0.0667712
0.125204
0.158953
0.141195
-0.105372
-0.817866
-1.88385
-2.59918
-2.92107
-2.77566
-2.38225
-1.96208
-1.7284
-0.301515
-0.290739
-0.258523
-0.205271
-0.140282
-0.0705505
0.00136906
0.0719859
0.135657
0.18339
0.181147
0.0241351
-0.382679
-0.815378
-1.188
-1.25693
-1.06784
-0.773731
-0.514036
-0.366066
-0.265234
-0.25874
-0.234628
-0.188329
-0.12729
-0.0592235
0.0133662
0.0885724
0.162764
0.232716
0.282822
0.353563
0.449897
0.721708
1.0878
1.48178
1.80394
2.02009
2.14303
2.19072
-0.227212
-0.223614
-0.208184
-0.168547
-0.110691
-0.0432994
0.0313344
0.112215
0.200196
0.294076
0.410516
0.540698
0.886529
1.47746
2.12551
2.70285
3.12203
3.35866
3.45753
3.48585
-0.192666
-0.190601
-0.181669
-0.149674
-0.0949942
-0.0266975
0.0505626
0.13674
0.233001
0.343839
0.464302
0.597763
0.82888
1.37057
1.95701
2.47021
2.83734
3.04917
3.14441
3.17181
-0.157978
-0.156948
-0.15391
-0.132124
-0.0816279
-0.012064
0.0670294
0.154769
0.250136
0.360672
0.476045
0.598037
0.748088
1.10891
1.57168
1.94462
2.2241
2.39294
2.47483
2.50049
-0.134024
-0.133083
-0.132695
-0.117175
-0.0681539
0.00269043
0.0828671
0.168404
0.260434
0.363928
0.468868
0.572476
0.67205
0.886747
1.20369
1.47742
1.68444
1.80837
1.8643
1.87933
-0.117401
-0.119397
-0.121144
-0.105043
-0.0510218
0.0237232
0.103155
0.183889
0.268659
0.361029
0.451952
0.534331
0.615655
0.73947
0.943622
1.12891
1.26723
1.34962
1.3876
1.39532
-0.0681296
-0.0725194
-0.0752315
-0.0585687
-0.00651954
0.0623411
0.133908
0.204899
0.278102
0.355958
0.431406
0.496361
0.560351
0.6381
0.770096
0.887908
0.973349
1.02475
1.04503
1.04706
0.0405805
0.0371116
0.0352367
0.0469816
0.0807316
0.127384
0.178972
0.232933
0.290271
0.352194
0.409486
0.454405
0.496452
0.544532
0.630124
0.709582
0.765464
0.796944
0.810043
0.810793
0.169324
0.167984
0.166814
0.170259
0.18233
0.202378
0.229946
0.264114
0.304521
0.34987
0.389729
0.41582
0.438062
0.466874
0.523466
0.579125
0.618923
0.641176
0.650147
0.649771
0.266429
0.266139
0.264771
0.261735
0.260038
0.263611
0.274447
0.293116
0.319588
0.350443
0.374557
0.382625
0.382338
0.402608
0.445783
0.489637
0.52027
0.537247
0.543921
0.543215
0.319341
0.319131
0.31741
0.313085
0.30746
0.304368
0.306985
0.316718
0.333606
0.354869
0.3689
0.363764
0.34414
0.361228
0.407308
0.444085
0.466399
0.476711
0.48015
0.479319
0.3414
0.341079
0.339508
0.335841
0.331025
0.327433
0.327572
0.333547
0.346119
0.363806
0.37585
0.370089
0.350498
0.369118
0.407252
0.43442
0.449724
0.456373
0.458375
0.45765
0.346938
0.346668
0.345573
0.343018
0.339924
0.337827
0.338558
0.344298
0.356949
0.375466
0.393797
0.401309
0.402348
0.424382
0.447205
0.460014
0.465889
0.468644
0.469895
0.469422
0.342845
0.342829
0.342448
0.341108
0.339552
0.339212
0.341688
0.349009
0.364117
0.387533
0.416238
0.442515
0.468347
0.489776
0.500136
0.504664
0.507132
0.509221
0.510148
0.508923
0.329868
0.330177
0.330548
0.330489
0.330561
0.332163
0.337017
0.347396
0.366544
0.396192
0.434275
0.475253
0.520665
0.542614
0.540527
0.541332
0.548038
0.555747
0.558705
0.556779
0.306422
0.307046
0.308025
0.309131
0.310966
0.314935
0.322785
0.336863
0.361154
0.397062
0.439321
0.486099
0.531684
0.551852
0.554224
0.563418
0.572298
0.580912
0.584111
0.582303
0.27092
0.271736
0.273263
0.275431
0.278925
0.28525
0.296232
0.314489
0.344404
0.387311
0.435303
0.474766
0.509335
0.524118
0.537301
0.556561
0.576211
0.58825
0.589748
0.587414
0.221794
0.222928
0.224892
0.227811
0.232501
0.240429
0.253575
0.275216
0.309975
0.36042
0.415712
0.454102
0.469558
0.474281
0.504294
0.539356
0.562457
0.572104
0.573294
0.573316
0.156765
0.158141
0.16036
0.163616
0.168579
0.176348
0.188793
0.209768
0.244424
0.300468
0.372303
0.427553
0.434925
0.442541
0.490699
0.538612
0.571984
0.583011
0.58307
0.583095
0.0745683
0.0759461
0.0778994
0.0805422
0.0839321
0.0881649
0.0940183
0.10452
0.125854
0.178126
0.279074
0.376091
0.40546
0.428035
0.49499
0.558392
0.598201
0.613518
0.612732
0.614586
-0.0228754
-0.0219365
-0.0210899
-0.0206272
-0.0218068
-0.0265453
-0.0370178
-0.054183
-0.0721129
-0.0428977
0.103726
0.265427
0.337018
0.393025
0.497444
0.597863
0.666707
0.682243
0.677413
0.675566
-0.127499
-0.127567
-0.128836
-0.132495
-0.141924
-0.162294
-0.201538
-0.270022
-0.361516
-0.381643
-0.176101
0.0855376
0.221524
0.329764
0.475077
0.597331
0.674752
0.68366
0.679774
0.676874
-0.223762
-0.225279
-0.229381
-0.2386
-0.258945
-0.299917
-0.378356
-0.519525
-0.720088
-0.798831
-0.524143
-0.157356
0.057379
0.22982
0.410506
0.542227
0.587884
0.594016
0.59274
0.590133
-0.290982
-0.294002
-0.300747
-0.315171
-0.345752
-0.406185
-0.522904
-0.734476
-1.02924
-1.16389
-0.833721
-0.395321
-0.112207
0.124247
0.327996
0.436228
0.456671
0.462965
0.464916
0.463914
-0.310614
-0.31431
-0.322335
-0.339685
-0.375429
-0.445662
-0.580884
-0.82909
-1.16962
-1.33901
-0.99632
-0.535594
-0.256152
0.0275817
0.251835
0.337629
0.345301
0.342777
0.339775
0.336605
-0.275747
-0.279184
-0.286425
-0.301917
-0.335399
-0.401554
-0.530597
-0.765471
-1.07173
-1.23599
-0.931588
-0.576725
-0.347364
-0.130512
0.11871
0.172208
0.181158
0.17811
0.173868
0.168991
-0.197982
-0.200181
-0.204784
-0.215453
-0.239528
-0.288669
-0.385808
-0.564102
-0.781889
-0.868588
-0.673118
-0.47238
-0.420097
-0.463384
-0.324064
-0.169631
-0.0997867
-0.0726286
-0.0625655
-0.0648369
-0.102185
-0.103018
-0.104698
-0.109371
-0.121079
-0.146753
-0.200351
-0.304044
-0.42928
-0.446861
-0.342271
-0.293645
-0.402594
-0.764799
-0.746966
-0.469835
-0.311662
-0.242565
-0.210371
-0.198845
-0.0141881
-0.0141817
-0.0127255
-0.0111124
-0.0110851
-0.0130682
-0.0185249
-0.0342108
-0.0719427
-0.0931873
-0.0866869
-0.0519676
-0.0772739
-0.165029
-0.269316
-0.200931
-0.119684
-0.0795225
-0.0649788
-0.0562753
0.302245
0.489124
0.706856
0.892045
1.04134
1.16061
1.26034
1.34451
1.38212
1.35934
0.64241
0.775522
0.917322
1.04005
1.14403
1.23064
1.30082
1.35061
1.37596
1.38772
0.883004
0.973592
1.06977
1.15511
1.22873
1.29038
1.33935
1.37509
1.40063
1.41825
1.05689
1.12019
1.18753
1.24922
1.30282
1.34827
1.38548
1.41501
1.43889
1.45697
1.19064
1.23688
1.28582
1.33255
1.37377
1.40965
1.44022
1.46552
1.48659
1.5043
1.29995
1.33469
1.37481
1.41225
1.4465
1.47706
1.50367
1.52593
1.54424
1.56153
1.39563
1.42544
1.4608
1.49409
1.52505
1.55307
1.57749
1.5977
1.61353
1.63059
1.4862
1.51611
1.55097
1.58373
1.61396
1.6411
1.6644
1.68321
1.69681
1.71385
1.58278
1.61632
1.65351
1.68756
1.71802
1.74456
1.76679
1.78428
1.79631
1.81373
1.69864
1.73648
1.77551
1.8101
1.8397
1.86466
1.8852
1.90123
1.9128
1.93089
1.84415
1.88288
1.91901
1.94985
1.97568
1.99789
2.01705
2.03267
2.04516
2.06318
2.01918
2.05111
2.07739
2.09989
2.11994
2.13874
2.15651
2.17304
2.18843
2.20651
2.20796
2.22526
2.24043
2.25674
2.27269
2.28726
2.3005
2.31446
2.33203
2.3522
2.38999
2.39942
2.41099
2.42183
2.43114
2.44076
2.4516
2.46299
2.47437
2.48974
2.59712
2.60081
2.58589
2.5711
2.56486
2.57057
2.58906
2.61939
2.65158
2.67824
2.90347
2.7686
2.69199
2.64968
2.63228
2.63624
2.66366
2.72008
2.82271
3.04708
1.18381
1.18168
1.17719
1.16856
1.15633
1.14419
1.13394
1.12601
1.12034
1.11701
1.11654
1.11916
1.12416
1.1313
1.14063
1.15212
1.16474
1.17575
1.18185
1.1849
1.10827
1.11412
1.12046
1.12494
1.1274
1.12706
1.12431
1.12046
1.1169
1.11455
1.11429
1.11636
1.11991
1.12411
1.12785
1.12969
1.12871
1.1252
1.12001
1.11338
1.09988
1.10218
1.10558
1.10857
1.11064
1.11212
1.11286
1.1125
1.11141
1.11044
1.11049
1.11177
1.11347
1.11467
1.11477
1.11382
1.11222
1.10984
1.10655
1.10362
1.09441
1.0955
1.09733
1.09971
1.10173
1.10314
1.10414
1.10485
1.10519
1.10531
1.10565
1.1063
1.10675
1.1067
1.10619
1.10526
1.10372
1.10158
1.09946
1.09807
1.08927
1.08993
1.09104
1.09275
1.09454
1.09616
1.09744
1.09841
1.09921
1.09989
1.10045
1.10081
1.10083
1.10051
1.09982
1.09866
1.09714
1.09552
1.09415
1.09336
1.08438
1.08483
1.08563
1.08694
1.08844
1.08996
1.09142
1.09268
1.09373
1.09465
1.09537
1.0957
1.09563
1.09516
1.09429
1.09316
1.09191
1.09067
1.08969
1.08916
1.07966
1.08
1.08062
1.08171
1.08303
1.08442
1.08586
1.08728
1.08858
1.08971
1.09058
1.09098
1.09088
1.09035
1.08952
1.08855
1.08753
1.08653
1.08578
1.08539
1.07508
1.07534
1.07585
1.07679
1.07801
1.07934
1.08074
1.0822
1.08367
1.08502
1.08608
1.0866
1.08654
1.0861
1.08542
1.08461
1.08374
1.08292
1.08233
1.08203
1.07059
1.07079
1.07121
1.07206
1.0732
1.07449
1.07588
1.07737
1.07892
1.08047
1.08176
1.08246
1.08259
1.08233
1.08182
1.08117
1.08045
1.07978
1.07931
1.07908
1.06611
1.06627
1.06662
1.06741
1.06854
1.06982
1.07125
1.07281
1.07449
1.07624
1.0778
1.07877
1.07914
1.07908
1.07875
1.07824
1.07765
1.07709
1.07672
1.07655
1.06163
1.06174
1.06205
1.06281
1.06394
1.06526
1.06675
1.06844
1.07029
1.07227
1.07415
1.0755
1.07617
1.07634
1.07619
1.07583
1.07536
1.0749
1.07462
1.07448
1.0571
1.05718
1.05746
1.0582
1.05934
1.06072
1.06229
1.06411
1.06621
1.06856
1.07088
1.07261
1.07359
1.07405
1.07414
1.07396
1.07363
1.07328
1.07307
1.07297
1.05247
1.05252
1.05276
1.05349
1.05466
1.0561
1.05777
1.05976
1.06208
1.06477
1.0676
1.06991
1.0714
1.07225
1.07261
1.07266
1.07251
1.07228
1.07215
1.07209
1.04776
1.04776
1.04799
1.0487
1.04992
1.05147
1.05331
1.05556
1.05829
1.06154
1.06503
1.06795
1.06992
1.07115
1.07187
1.07217
1.0722
1.07212
1.07207
1.07205
1.04286
1.04286
1.04305
1.04372
1.04491
1.0465
1.04848
1.05098
1.05411
1.05797
1.06227
1.06602
1.06871
1.07053
1.07163
1.07235
1.07274
1.07291
1.07297
1.07297
1.03736
1.03734
1.03755
1.03821
1.03942
1.04112
1.04336
1.04628
1.05003
1.05471
1.06002
1.06474
1.06818
1.0706
1.0723
1.07342
1.07416
1.07456
1.07473
1.07473
1.03094
1.03091
1.03112
1.03181
1.03314
1.03505
1.03763
1.04108
1.04559
1.05131
1.05787
1.06378
1.06819
1.07139
1.07367
1.07528
1.07638
1.07702
1.07728
1.07729
1.02322
1.02318
1.02343
1.02424
1.02576
1.028
1.03109
1.03526
1.04077
1.0478
1.05591
1.06328
1.06882
1.07288
1.07583
1.07796
1.07944
1.08033
1.08067
1.08069
1.01384
1.01379
1.01411
1.0151
1.01694
1.01969
1.0235
1.02866
1.03549
1.0442
1.05424
1.06334
1.07019
1.07525
1.07894
1.08164
1.08353
1.08464
1.08506
1.08508
1.00234
1.00227
1.00269
1.00394
1.00625
1.00968
1.01447
1.02096
1.02951
1.04036
1.05276
1.06395
1.07236
1.07856
1.08314
1.08648
1.08883
1.09017
1.09066
1.09069
0.988069
0.987984
0.988541
0.990182
0.993147
0.997567
1.00372
1.012
1.02282
1.03637
1.05164
1.06529
1.07551
1.08306
1.08862
1.09271
1.09556
1.09716
1.09774
1.09778
0.970158
0.970049
0.970811
0.972999
0.97693
0.982781
0.990848
1.00157
1.01533
1.03222
1.05095
1.06748
1.0798
1.0889
1.09565
1.10059
1.10399
1.10587
1.10656
1.1066
0.947349
0.947229
0.94834
0.951352
0.956694
0.964646
0.975442
0.989489
1.00705
1.02807
1.05086
1.0707
1.08542
1.09631
1.10438
1.11027
1.11428
1.11651
1.11732
1.11736
0.917472
0.917384
0.919143
0.923552
0.931168
0.942351
0.957113
0.975692
0.998123
1.02411
1.05157
1.07511
1.09249
1.10537
1.11492
1.1219
1.12664
1.12926
1.13019
1.13022
0.876513
0.876604
0.87982
0.887154
0.898858
0.915221
0.935758
0.960387
0.988865
1.02068
1.05336
1.08091
1.10113
1.11613
1.12731
1.1355
1.1411
1.14416
1.14517
1.14517
0.816861
0.818156
0.826003
0.8397
0.858918
0.883376
0.911922
0.944216
0.979847
1.01819
1.05647
1.08819
1.11133
1.1285
1.14135
1.15089
1.15746
1.16095
1.16199
1.16194
0.745564
0.74767
0.762541
0.786196
0.815983
0.849888
0.887211
0.927718
0.971096
1.01677
1.06174
1.09883
1.126
1.14633
1.16169
1.17317
1.1812
1.1855
1.18666
1.18668
0.672265
0.679069
0.701055
0.734627
0.774123
0.81723
0.863258
0.912002
0.96318
1.01631
1.06814
1.11077
1.14206
1.16564
1.18374
1.19754
1.20722
1.21155
1.21311
1.21346
0.613373
0.62211
0.648775
0.689081
0.736128
0.78699
0.840774
0.897148
0.955721
1.01592
1.07418
1.12185
1.15675
1.18301
1.20315
1.21847
1.22916
1.23467
1.23706
1.23754
0.565475
0.574773
0.604899
0.650095
0.70289
0.759957
0.820252
0.883293
0.948518
1.01522
1.07937
1.13151
1.16946
1.19788
1.21962
1.23622
1.24795
1.2543
1.25704
1.25758
0.525313
0.534827
0.567256
0.616244
0.673688
0.735867
0.801647
0.870467
0.941598
1.01415
1.08363
1.13972
1.18025
1.21041
1.23335
1.25083
1.26329
1.27031
1.2733
1.27387
0.490387
0.499985
0.53412
0.586165
0.647463
0.713986
0.784528
0.858426
0.934836
1.01269
1.08701
1.14666
1.18941
1.22096
1.24477
1.26279
1.27564
1.2831
1.28621
1.28681
0.459142
0.468769
0.504223
0.558851
0.623364
0.693621
0.768358
0.846802
0.928011
1.01075
1.08958
1.15253
1.19729
1.23001
1.25446
1.27278
1.28581
1.29344
1.29654
1.29719
0.430386
0.44006
0.476613
0.53345
0.600745
0.674275
0.752726
0.835272
0.920888
1.00821
1.09135
1.15748
1.20418
1.238
1.26301
1.28158
1.29467
1.30242
1.30551
1.3061
0.403347
0.413078
0.450607
0.50934
0.579121
0.655559
0.737328
0.823597
0.913292
1.00496
1.09229
1.16162
1.2103
1.24527
1.27088
1.28975
1.30295
1.31069
1.31381
1.31425
0.377532
0.387344
0.425781
0.48614
0.558168
0.637196
0.721952
0.811613
0.905087
1.00088
1.09237
1.16498
1.21578
1.25205
1.27839
1.29762
1.31097
1.31869
1.32177
1.32219
0.352525
0.362509
0.401774
0.463657
0.537668
0.619021
0.706468
0.799214
0.896195
0.995928
1.09153
1.16761
1.22077
1.25852
1.28574
1.30545
1.31901
1.32673
1.32969
1.33011
0.328151
0.338376
0.378378
0.44172
0.517496
0.60092
0.690796
0.786349
0.886567
0.990047
1.08977
1.16948
1.22524
1.26472
1.29301
1.31332
1.32714
1.33487
1.33769
1.33806
0.304357
0.314799
0.355557
0.420209
0.497581
0.582867
0.674915
0.773003
0.876192
0.983209
1.08699
1.17051
1.22917
1.27067
1.30022
1.32125
1.33537
1.34304
1.3457
1.34597
0.28102
0.291771
0.333253
0.399102
0.477911
0.564859
0.658841
0.759196
0.865085
0.975392
1.0831
1.17058
1.23248
1.27633
1.30739
1.32924
1.34364
1.35121
1.35364
1.35378
0.258214
0.269248
0.311458
0.378406
0.458507
0.546928
0.642623
0.744982
0.853278
0.966586
1.07808
1.1696
1.23503
1.28164
1.31453
1.33731
1.35191
1.35923
1.36135
1.36139
0.235905
0.247243
0.290199
0.358155
0.43941
0.529127
0.62632
0.730433
0.84084
0.95684
1.07187
1.16743
1.23665
1.28648
1.32165
1.34556
1.36021
1.36703
1.36874
1.36865
0.214281
0.225849
0.269522
0.338394
0.420682
0.511539
0.610009
0.715633
0.827863
0.946229
1.06447
1.16396
1.23715
1.29064
1.32873
1.3542
1.36874
1.37459
1.37563
1.3754
0.193213
0.205116
0.249463
0.319164
0.402365
0.494211
0.593791
0.700676
0.814448
0.934843
1.0559
1.15908
1.23629
1.29384
1.33564
1.36353
1.37812
1.38226
1.38197
1.38151
0.172868
0.185075
0.230055
0.30052
0.384543
0.477233
0.57775
0.685687
0.800712
0.922763
1.04623
1.15274
1.23387
1.29565
1.34193
1.37368
1.38952
1.39161
1.38842
1.38673
0.153194
0.165684
0.211352
0.282518
0.36726
0.460676
0.561975
0.670748
0.786774
0.910145
1.03556
1.14489
1.22972
1.29559
1.34673
1.38394
1.40376
1.40617
1.39905
1.38866
0.134274
0.146989
0.193251
0.265007
0.350307
0.444254
0.54612
0.655448
0.772164
0.896451
1.02331
1.13489
1.22323
1.29299
1.34867
1.39254
1.41952
1.42618
1.41849
1.40847
0.116159
0.129086
0.175751
0.248029
0.333696
0.427966
0.53021
0.639773
0.756851
0.881588
1.00933
1.12243
1.21376
1.28718
1.34515
1.39374
1.42417
1.43569
1.40054
1.34591
0.0991046
0.112734
0.158952
0.23164
0.317312
0.411683
0.514203
0.623847
0.740908
0.865638
0.993606
1.10741
1.20041
1.27798
1.3345
1.37602
1.40745
1.39977
1.34237
1.27533
0.0828199
0.0971881
0.143046
0.216431
0.301479
0.39588
0.497883
0.607733
0.72448
0.848782
0.976176
1.08974
1.18224
1.26652
1.31642
1.36917
1.34549
1.30744
1.23748
1.16686
0.0970322
0.115068
0.163497
0.240719
0.33058
0.428635
0.535828
0.648469
0.76806
0.895453
1.01628
1.11653
1.20051
1.28933
1.34208
1.2601
1.21756
1.1559
1.08173
1.03215
0.0727193
0.0892722
0.124665
0.192335
0.277006
0.370851
0.472934
0.582061
0.697843
0.820604
0.945653
1.05678
1.1454
1.22377
1.294
1.29685
1.17638
1.09245
1.02924
0.943508
0.0529
0.0686035
0.109806
0.178894
0.263819
0.357198
0.458076
0.566224
0.680896
0.802017
0.924982
1.03349
1.11889
1.18445
1.21117
1.14186
0.997734
0.899208
0.822322
0.730265
0.0326896
0.0451689
0.0909045
0.161303
0.246376
0.339905
0.440688
0.548417
0.66205
0.781445
0.90128
1.00498
1.08334
1.1332
1.11071
0.979908
0.821248
0.698525
0.597033
0.455149
0.00930543
0.0223647
0.0700833
0.141614
0.226982
0.320532
0.421155
0.528206
0.640599
0.75791
0.874113
0.97235
1.04274
1.07341
1.01367
0.824642
0.632867
0.46961
0.319645
0.11673
-0.012964
-0.000253925
0.0486457
0.121332
0.207179
0.300687
0.400903
0.507033
0.617945
0.73282
0.845014
0.93727
0.999046
1.0011
0.888424
0.677718
0.45188
0.229293
0.0428668
-0.387206
-0.0351135
-0.0228845
0.0264934
0.100038
0.186273
0.279799
0.379602
0.484802
0.594128
0.706343
0.814208
0.899876
0.951405
0.917927
0.762449
0.547194
0.313963
0.0823704
-0.117353
-0.44423
-0.0581032
-0.0460553
0.00343015
0.0774916
0.163994
0.257546
0.356975
0.461272
0.568959
0.678349
0.781651
0.860274
0.899026
0.843879
0.64839
0.441379
0.227602
0.0440552
-0.0337212
-0.0702738
-0.0823554
-0.0705174
-0.0208954
0.0534127
0.139985
0.233408
0.332314
0.435488
0.541217
0.647305
0.74543
0.816294
0.840494
0.756647
0.546277
0.351863
0.176078
0.0568372
0.0190554
0.00641172
-0.108069
-0.0963498
-0.0466319
0.0278062
0.11433
0.20746
0.305641
0.407446
0.510862
0.613149
0.705415
0.768221
0.77128
0.650819
0.453727
0.27344
0.12184
0.0586306
0.0422006
0.0380303
-0.135297
-0.123817