/*--------------------------------*- C++ -*----------------------------------*\
| =========                 |                                                 |
| \\      /  F ield         | OpenFOAM: The Open Source CFD Toolbox           |
|  \\    /   O peration     | Version:  2112                                  |
|   \\  /    A nd           | Website:  www.openfoam.com                      |
|    \\/     M anipulation  |                                                 |
\*---------------------------------------------------------------------------*/
FoamFile
{
    version     2.0;
    format      ascii;
    arch        "LSB;label=32;scalar=64";
    class       volVectorField;
    location    "28.5";
    object      U;
}
// * * * * * * * * * * * * * * * * * * * * * * * * * * * * * * * * * * * * * //

dimensions      [0 1 -1 0 0 0 0];

internalField   nonuniform List<vector> 
8800
(
(0.980153 -0.0915212 0)
(1.00234 -0.0587236 0)
(0.999609 -0.0321242 0)
(0.999998 -0.0165156 0)
(1.00005 -0.00882855 0)
(1.00002 -0.00507475 0)
(1.00001 -0.00297497 0)
(1 -0.00168525 0)
(0.999999 -0.000807497 0)
(1.00005 -0.00012288 0)
(1 0.000565763 0)
(1.00001 0.00132385 0)
(1.00001 0.00236066 0)
(1.00002 0.00397471 0)
(1.00004 0.00672599 0)
(1.00005 0.0120343 0)
(0.999884 0.0230861 0)
(0.999075 0.0431529 0)
(1.00722 0.0790281 0)
(0.775024 0.0478396 0)
(0.358979 -0.0147488 0)
(1.04649 -0.072492 0)
(1.08849 -0.0660291 0)
(1.04947 -0.0509209 0)
(1.02553 -0.0376946 0)
(1.01267 -0.0258785 0)
(1.00648 -0.0166871 0)
(1.00356 -0.0102345 0)
(1.00215 -0.00565077 0)
(1.0015 -0.00209955 0)
(1.00139 0.00108749 0)
(1.00175 0.00438412 0)
(1.00271 0.00827831 0)
(1.00473 0.0136041 0)
(1.00897 0.0212946 0)
(1.01799 0.0318009 0)
(1.03589 0.0445973 0)
(1.06751 0.0580631 0)
(1.09474 0.0699574 0)
(0.84571 0.055496 0)
(0.217764 -0.00138086 0)
(1.07567 -0.0506594 0)
(1.09943 -0.0489481 0)
(1.06437 -0.0400383 0)
(1.03982 -0.0325823 0)
(1.02368 -0.025372 0)
(1.01391 -0.0181779 0)
(1.00843 -0.0116058 0)
(1.0056 -0.00590975 0)
(1.00445 -0.000675861 0)
(1.00478 0.00439733 0)
(1.00665 0.00967774 0)
(1.01058 0.0156719 0)
(1.01789 0.0224669 0)
(1.03052 0.0295966 0)
(1.05058 0.0367045 0)
(1.08019 0.0444988 0)
(1.10582 0.0518451 0)
(0.943467 0.0409639 0)
(0.217317 0.00139905 0)
(0.176621 -0.000628258 0)
(1.01939 -0.0354596 0)
(1.10571 -0.0414037 0)
(1.07794 -0.0363824 0)
(1.05234 -0.0303262 0)
(1.03506 -0.0244544 0)
(1.0232 -0.0187234 0)
(1.01542 -0.0128261 0)
(1.01086 -0.00682096 0)
(1.00887 -0.000656546 0)
(1.00943 0.00545165 0)
(1.01254 0.0113491 0)
(1.01849 0.0171186 0)
(1.02809 0.0227059 0)
(1.04234 0.0282816 0)
(1.06322 0.0341065 0)
(1.09407 0.0400427 0)
(1.09471 0.0416234 0)
(0.830669 0.0227069 0)
(0.175862 0.000642965 0)
(0.154718 -0.000462176 0)
(0.958167 -0.0256701 0)
(1.10439 -0.0350999 0)
(1.08803 -0.0326675 0)
(1.06109 -0.0281806 0)
(1.04297 -0.0232455 0)
(1.03058 -0.0180066 0)
(1.02202 -0.012552 0)
(1.01651 -0.00674547 0)
(1.01391 -0.000410849 0)
(1.01461 0.00594799 0)
(1.01847 0.0117842 0)
(1.02526 0.0171373 0)
(1.03542 0.022206 0)
(1.05023 0.0270736 0)
(1.07225 0.0315405 0)
(1.10134 0.0354554 0)
(1.07022 0.0337332 0)
(0.743418 0.0143492 0)
(0.153585 0.00047877 0)
(0.140062 -0.000333126 0)
(0.901228 -0.01927 0)
(1.09675 -0.0301358 0)
(1.09605 -0.0292572 0)
(1.06868 -0.0254962 0)
(1.04981 -0.0214662 0)
(1.03686 -0.0168968 0)
(1.02789 -0.0118009 0)
(1.02198 -0.00623062 0)
(1.01905 -1.3135e-05 0)
(1.01976 0.00625556 0)
(1.02387 0.0118406 0)
(1.03096 0.0168195 0)
(1.04151 0.0213098 0)
(1.05694 0.0252779 0)
(1.07978 0.0288331 0)
(1.10375 0.0316184 0)
(1.03886 0.0277627 0)
(0.677238 0.0101556 0)
(0.138472 0.000352907 0)
(0.129378 -0.000251561 0)
(0.851526 -0.0148169 0)
(1.08443 -0.0259608 0)
(1.10173 -0.0263069 0)
(1.07543 -0.0229995 0)
(1.05596 -0.0194082 0)
(1.04254 -0.015389 0)
(1.03321 -0.010734 0)
(1.02703 -0.00542565 0)
(1.02391 0.000521343 0)
(1.02454 0.00647467 0)
(1.0287 0.0117236 0)
(1.03596 0.0162594 0)
(1.04684 0.0201405 0)
(1.06274 0.0235269 0)
(1.08612 0.0266287 0)
(1.10327 0.028547 0)
(1.00488 0.0230535 0)
(0.626098 0.00769272 0)
(0.127232 0.000275773 0)
(0.121292 -0.000191757 0)
(0.8094 -0.011549 0)
(1.06912 -0.0222156 0)
(1.10506 -0.0235575 0)
(1.08147 -0.020798 0)
(1.06159 -0.0174978 0)
(1.0479 -0.0137744 0)
(1.03826 -0.00945277 0)
(1.0318 -0.0044886 0)
(1.02847 0.00114804 0)
(1.02899 0.0067745 0)
(1.03316 0.0116025 0)
(1.04056 0.0156576 0)
(1.05161 0.0190988 0)
(1.06778 0.0220973 0)
(1.09149 0.0248312 0)
(1.09992 0.0258206 0)
(0.970852 0.0192392 0)
(0.585632 0.00604513 0)
(0.118471 0.000221233 0)
(0.115101 -0.000145705 0)
(0.774266 -0.00904422 0)
(1.05249 -0.0188211 0)
(1.10723 -0.0208104 0)
(1.08704 -0.0183779 0)
(1.06677 -0.0152882 0)
(1.05284 -0.0118789 0)
(1.043 -0.00791578 0)
(1.0363 -0.00333361 0)
(1.03274 0.00192711 0)
(1.0331 0.007132 0)
(1.03724 0.0114664 0)
(1.04465 0.0149906 0)
(1.05575 0.0179581 0)
(1.07218 0.0205684 0)
(1.09567 0.0230194 0)
(1.0941 0.0233267 0)
(0.938384 0.0161455 0)
(0.552974 0.00486142 0)
(0.111458 0.000181917 0)
(0.110374 -0.000109535 0)
(0.745287 -0.00704535 0)
(1.03559 -0.0157302 0)
(1.10849 -0.0182509 0)
(1.0923 -0.0162024 0)
(1.07162 -0.0133068 0)
(1.05738 -0.0100865 0)
(1.04741 -0.00631104 0)
(1.04058 -0.00199489 0)
(1.0368 0.00285607 0)
(1.03695 0.00756359 0)
(1.0409 0.0114444 0)
(1.04817 0.0145837 0)
(1.05929 0.0171617 0)
(1.07609 0.019437 0)
(1.09876 0.0215068 0)
(1.08623 0.0210847 0)
(0.90818 0.0136207 0)
(0.526209 0.00397875 0)
(0.105732 0.000153982 0)
(0.106834 -7.84194e-05 0)
(0.721852 -0.00535524 0)
(1.01935 -0.012782 0)
(1.10868 -0.0155682 0)
(1.09712 -0.0139498 0)
(1.07625 -0.0112589 0)
(1.06175 -0.0081645 0)
(1.05154 -0.0045456 0)
(1.04445 -0.000503046 0)
(1.04039 0.00396825 0)
(1.04029 0.00823504 0)
(1.04404 0.0116298 0)
(1.05124 0.0143177 0)
(1.06243 0.0165449 0)
(1.07942 0.0184774 0)
(1.10037 0.0200376 0)
(1.07667 0.0189134 0)
(0.88069 0.0114992 0)
(0.504085 0.00328988 0)
(0.100966 0.00013351 0)
(0.104329 -4.98663e-05 0)
(0.703482 -0.0038572 0)
(1.00465 -0.00994375 0)
(1.10818 -0.0126824 0)
(1.10153 -0.0112517 0)
(1.08061 -0.00864905 0)
(1.06577 -0.00580016 0)
(1.05526 -0.00251518 0)
(1.0479 0.00120617 0)
(1.04357 0.00531891 0)
(1.04309 0.00913067 0)
(1.04658 0.0119934 0)
(1.05367 0.0140826 0)
(1.06489 0.0157 0)
(1.08202 0.0171976 0)
(1.1009 0.0184322 0)
(1.0661 0.0168207 0)
(0.856096 0.00970194 0)
(0.485723 0.00273964 0)
(0.0969552 0.000118488 0)
(0.10274 -2.61785e-05 0)
(0.689832 -0.00248433 0)
(0.992042 -0.00720015 0)
(1.10743 -0.00977797 0)
(1.10571 -0.00857382 0)
(1.08473 -0.00619203 0)
(1.0696 -0.0034722 0)
(1.05897 -0.000299717 0)
(1.05137 0.00323266 0)
(1.04663 0.00697761 0)
(1.04576 0.0102789 0)
(1.04886 0.0126456 0)
(1.05561 0.0142659 0)
(1.06674 0.0154417 0)
(1.08418 0.0163759 0)
(1.10071 0.0170984 0)
(1.05497 0.0149175 0)
(0.834365 0.00816298 0)
(0.470494 0.00230423 0)
(0.0935125 0.000110964 0)
(0.102023 1.14924e-06 0)
(0.680707 -0.0011562 0)
(0.981787 -0.00443915 0)
(1.10613 -0.00675305 0)
(1.1092 -0.005952 0)
(1.08862 -0.00378428 0)
(1.07325 -0.00103238 0)
(1.06233 0.00212201 0)
(1.05441 0.00551596 0)
(1.04922 0.00899949 0)
(1.04781 0.0118809 0)
(1.05044 0.0137207 0)
(1.05689 0.0148003 0)
(1.06788 0.0154635 0)
(1.08512 0.0160653 0)
(1.09905 0.0160799 0)
(1.04314 0.0131445 0)
(0.815392 0.00683159 0)
(0.457918 0.00194079 0)
(0.0905104 0.000104672 0)
(0.102246 4.38893e-05 0)
(0.676063 0.000105365 0)
(0.97447 -0.00168067 0)
(1.10481 -0.00333388 0)
(1.11217 -0.00255958 0)
(1.09237 -0.0005463 0)
(1.07688 0.00211352 0)
(1.06566 0.00515258 0)
(1.05728 0.00834509 0)
(1.05148 0.0114938 0)
(1.04939 0.0138732 0)
(1.05147 0.0150521 0)
(1.05754 0.0154812 0)
(1.06822 0.0155995 0)
(1.08511 0.0153847 0)
(1.09597 0.0147702 0)
(1.03122 0.0115254 0)
(0.799052 0.00576929 0)
(0.447568 0.00166391 0)
(0.0879224 9.25268e-05 0)
(0.10342 6.44943e-05 0)
(0.675507 0.00116406 0)
(0.970288 0.000637712 0)
(1.10436 -0.00026125 0)
(1.11524 0.000678925 0)
(1.09603 0.00271604 0)
(1.08039 0.00536236 0)
(1.06893 0.00835874 0)
(1.06015 0.0115287 0)
(1.05373 0.0145188 0)
(1.05077 0.0165024 0)
(1.05204 0.017215 0)
(1.05748 0.0170286 0)
(1.0678 0.0163595 0)
(1.08421 0.0157532 0)
(1.09203 0.0145723 0)
(1.01939 0.0108339 0)
(0.784586 0.00537763 0)
(0.438439 0.00162787 0)
(0.0855634 9.0993e-05 0)
(0.105314 9.43564e-05 0)
(0.677958 0.00197617 0)
(0.968986 0.00264713 0)
(1.10478 0.00238975 0)
(1.11853 0.00348036 0)
(1.09974 0.00565466 0)
(1.08385 0.00854208 0)
(1.07207 0.0118276 0)
(1.06273 0.015244 0)
(1.05539 0.0182622 0)
(1.05147 0.0199777 0)
(1.05181 0.0202468 0)
(1.05646 0.0195282 0)
(1.06623 0.0183541 0)
(1.08235 0.0170924 0)
(1.08684 0.0152272 0)
(1.00719 0.0109392 0)
(0.770971 0.0055851 0)
(0.429291 0.00179001 0)
(0.0831063 9.92651e-05 0)
(0.107922 0.000123977 0)
(0.683422 0.00278956 0)
(0.970551 0.0044786 0)
(1.1061 0.00513486 0)
(1.12209 0.00638226 0)
(1.10393 0.00884001 0)
(1.08799 0.0122589 0)
(1.07587 0.0160754 0)
(1.06581 0.0198392 0)
(1.05733 0.0229125 0)
(1.05212 0.0243277 0)
(1.0513 0.0240481 0)
(1.05497 0.0227669 0)
(1.06405 0.0211135 0)
(1.07935 0.0192564 0)
(1.08034 0.0166185 0)
(0.99449 0.0118229 0)
(0.757171 0.00633347 0)
(0.419096 0.00210254 0)
(0.0802805 0.000118287 0)
(0.111335 0.000161306 0)
(0.691644 0.00370057 0)
(0.975035 0.00642401 0)
(1.10913 0.00826402 0)
(1.12623 0.0102389 0)
(1.10887 0.0133651 0)
(1.0928 0.0174319 0)
(1.07997 0.0217435 0)
(1.0688 0.0257197 0)
(1.05889 0.0286748 0)
(1.05211 0.0295703 0)
(1.05001 0.0285897 0)
(1.0527 0.0266176 0)
(1.06097 0.0242715 0)
(1.07519 0.0217675 0)
(1.07264 0.0185598 0)
(0.981236 0.013454 0)
(0.741956 0.00743938 0)
(0.407167 0.00250041 0)
(0.0769199 0.000142356 0)
(0.115754 0.000211781 0)
(0.702832 0.00490067 0)
(0.982884 0.00870201 0)
(1.11498 0.0117653 0)
(1.13221 0.0149227 0)
(1.11498 0.0191161 0)
(1.09834 0.023945 0)
(1.08448 0.0287645 0)
(1.07189 0.0329859 0)
(1.06021 0.0357773 0)
(1.05154 0.0360083 0)
(1.04798 0.0340796 0)
(1.04958 0.0312537 0)
(1.05697 0.0282354 0)
(1.07 0.0251393 0)
(1.06426 0.021502 0)
(0.966862 0.0158279 0)
(0.724321 0.00877351 0)
(0.393125 0.0029518 0)
(0.0729075 0.000170844 0)
(0.121537 0.00028376 0)
(0.717685 0.00655146 0)
(0.993702 0.0116202 0)
(1.1236 0.015644 0)
(1.14046 0.0198454 0)
(1.12255 0.0252064 0)
(1.1048 0.0310524 0)
(1.08948 0.0366653 0)
(1.07511 0.0415152 0)
(1.06123 0.044523 0)
(1.05029 0.0444188 0)
(1.0449 0.0417251 0)
(1.04538 0.0378003 0)
(1.05217 0.0338957 0)
(1.06405 0.0302682 0)
(1.05461 0.0259915 0)
(0.949512 0.0188301 0)
(0.703583 0.0102165 0)
(0.376832 0.00344747 0)
(0.0681962 0.00019878 0)
(0.129167 0.000385529 0)
(0.73729 0.00884975 0)
(1.00761 0.0155732 0)
(1.13432 0.020371 0)
(1.15061 0.0252492 0)
(1.1319 0.0317304 0)
(1.11259 0.0387489 0)
(1.0955 0.045642 0)
(1.07895 0.051605 0)
(1.06238 0.0553026 0)
(1.04876 0.0553197 0)
(1.04117 0.0523119 0)
(1.03992 0.0478298 0)
(1.0458 0.042891 0)
(1.05654 0.0380231 0)
(1.04161 0.0316074 0)
(0.92772 0.0220336 0)
(0.679678 0.0118671 0)
(0.357999 0.00403996 0)
(0.0627006 0.000230929 0)
(0.139443 0.000549161 0)
(0.763393 0.0122094 0)
(1.02581 0.0212789 0)
(1.14679 0.0272021 0)
(1.16225 0.032692 0)
(1.1428 0.0400678 0)
(1.12214 0.0484663 0)
(1.10298 0.0569475 0)
(1.08365 0.0641563 0)
(1.06384 0.0685298 0)
(1.04715 0.0685161 0)
(1.03703 0.0650602 0)
(1.03363 0.0598805 0)
(1.03769 0.0539054 0)
(1.04537 0.0469904 0)
(1.02281 0.0375457 0)
(0.90142 0.025496 0)
(0.65243 0.0138872 0)
(0.336093 0.0047476 0)
(0.0563288 0.00026446 0)
(0.153646 0.000814021 0)
(0.798233 0.0172054 0)
(1.0507 0.0294379 0)
(1.16192 0.0372263 0)
(1.17531 0.0438186 0)
(1.15558 0.0525624 0)
(1.13362 0.0626027 0)
(1.11179 0.0724363 0)
(1.08896 0.0803624 0)
(1.06526 0.0846408 0)
(1.04501 0.0837575 0)
(1.03201 0.0790632 0)
(1.026 0.072423 0)
(1.02698 0.0646752 0)
(1.02936 0.055226 0)
(0.998864 0.0432776 0)
(0.871798 0.0295776 0)
(0.621384 0.0163958 0)
(0.3105 0.00555912 0)
(0.0489931 0.000296225 0)
(0.17398 0.00128214 0)
(0.845061 0.02504 0)
(1.08513 0.0414996 0)
(1.1819 0.0522879 0)
(1.19116 0.0613633 0)
(1.1707 0.0720253 0)
(1.14663 0.0833841 0)
(1.12118 0.0936751 0)
(1.09404 0.101153 0)
(1.06579 0.104003 0)
(1.04152 0.100983 0)
(1.02521 0.0939507 0)
(1.0161 0.0849863 0)
(1.01296 0.074865 0)
(1.00923 0.0632821 0)
(0.971779 0.0498329 0)
(0.839119 0.0348222 0)
(0.585469 0.0195054 0)
(0.28074 0.00647652 0)
(0.0407271 0.000322243 0)
(0.203859 0.00234476 0)
(0.909698 0.0385979 0)
(1.1324 0.0612673 0)
(1.20884 0.0754965 0)
(1.21123 0.0881856 0)
(1.18772 0.100515 0)
(1.15995 0.112145 0)
(1.12982 0.12148 0)
(1.09766 0.126986 0)
(1.0644 0.126886 0)
(1.03576 0.120416 0)
(1.01583 0.110142 0)
(1.00327 0.0983398 0)
(0.995802 0.085802 0)
(0.986523 0.072673 0)
(0.942639 0.058321 0)
(0.802318 0.04155 0)
(0.543634 0.0232571 0)
(0.247003 0.00753159 0)
(0.031793 0.000340212 0)
(0.245003 0.00869722 1.14171e-19)
(0.99571 0.0659747 9.84638e-20)
(1.19019 0.0946079 -3.36631e-20)
(1.24197 0.110962 0)
(1.23399 0.126922 -7.76157e-34)
(1.20491 0.139317 1.11341e-20)
(1.17192 0.149626 -1.88235e-20)
(1.13631 0.156588 0)
(1.09866 0.158884 3.59654e-34)
(1.05992 0.154815 -2.07824e-20)
(1.02639 0.144165 0)
(1.00234 0.130292 -2.35532e-20)
(0.985756 0.115582 -6.87231e-20)
(0.973854 0.101036 -3.221e-20)
(0.959599 0.0871476 -9.57555e-21)
(0.908553 0.0723097 -5.65369e-21)
(0.756521 0.0524939 0)
(0.49171 0.0294156 3.95191e-21)
(0.209623 0.0102079 4.67057e-21)
(0.0236948 0.000858533 8.42237e-20)
(0.272699 0.0244665 1.00659e-19)
(1.06624 0.109017 5.06935e-22)
(1.23806 0.142536 9.76366e-21)
(1.27348 0.160542 0)
(1.25513 0.175675 -4.18789e-20)
(1.21987 0.186782 -4.60015e-20)
(1.18113 0.195125 -1.96069e-20)
(1.13964 0.199598 -6.58709e-20)
(1.09598 0.198754 0)
(1.05095 0.190865 8.89969e-20)
(1.01131 0.176271 8.61676e-20)
(0.98182 0.159076 2.5172e-20)
(0.960199 0.141826 8.9655e-20)
(0.943283 0.125407 1.23918e-19)
(0.922835 0.110089 0)
(0.8647 0.0938384 1.73012e-19)
(0.70282 0.0696955 2.48062e-19)
(0.439619 0.0405564 2.7514e-19)
(0.178387 0.0155191 -3.14889e-19)
(0.0174703 0.00152354 -5.92899e-21)
(0.272139 0.0398665 0)
(1.11003 0.165149 2.16332e-20)
(1.2717 0.20215 0)
(1.29805 0.219867 -6.57612e-20)
(1.27186 0.231944 0)
(1.23098 0.239989 -9.49791e-20)
(1.18667 0.245074 4.10929e-20)
(1.13954 0.246102 -1.36841e-19)
(1.09007 0.241579 -1.57369e-21)
(1.03904 0.229712 4.68484e-20)
(0.993721 0.21144 1.87842e-19)
(0.959366 0.191483 -3.10903e-22)
(0.93355 0.172466 -6.48138e-20)
(0.912884 0.155036 -1.1607e-19)
(0.888972 0.138931 1.36819e-19)
(0.829793 0.120812 -2.42082e-19)
(0.672785 0.0917806 -3.18476e-20)
(0.424281 0.0563727 0)
(0.180347 0.0237031 3.30195e-23)
(0.0195377 0.00274495 0)
(0.265066 0.0534117 3.83871e-19)
(1.13281 0.22437 -1.7218e-19)
(1.29308 0.266651 -1.12527e-19)
(1.31426 0.283793 3.37497e-20)
(1.28263 0.292283 -5.52564e-20)
(1.23731 0.29657 2.01637e-19)
(1.18831 0.297818 8.7046e-20)
(1.13623 0.29494 0)
(1.08161 0.286415 -2.44848e-19)
(1.02513 0.270498 0)
(0.974734 0.248727 -9.95754e-20)
(0.93625 0.226325 -1.18917e-19)
(0.907129 0.205786 -7.02711e-20)
(0.883847 0.187459 -8.3896e-20)
(0.858196 0.170445 0)
(0.800825 0.150827 0)
(0.656652 0.118521 -2.07861e-19)
(0.427576 0.077188 4.09033e-20)
(0.193883 0.0352072 -2.41332e-20)
(0.0247539 0.00479632 -2.8211e-20)
(0.257475 0.0655288 -2.27514e-19)
(1.14205 0.283336 0)
(1.30513 0.332067 2.68115e-19)
(1.32301 0.348895 1.0394e-19)
(1.28749 0.353912 1.21457e-19)
(1.23879 0.354393 0)
(1.18604 0.351735 8.94767e-20)
(1.12985 0.344883 1.5438e-19)
(1.07079 0.332328 1.28129e-19)
(1.00963 0.312356 2.18556e-19)
(0.954892 0.287161 0)
(0.912967 0.262418 -2.55966e-19)
(0.881264 0.24041 -1.51425e-19)
(0.855995 0.221258 -8.88056e-20)
(0.829478 0.203674 5.35708e-19)
(0.775532 0.182915 6.36891e-20)
(0.645295 0.147777 2.99777e-19)
(0.435019 0.100159 -1.41817e-18)
(0.208356 0.0486476 8.41786e-19)
(0.0300267 0.00737128 -1.01459e-18)
(0.250582 0.0765244 -2.01597e-19)
(1.1428 0.340185 4.41185e-20)
(1.31015 0.396747 -3.83066e-20)
(1.32579 0.413403 -1.35322e-19)
(1.28741 0.415169 -1.2017e-19)
(1.23607 0.412006 1.71463e-21)
(1.18029 0.405608 -9.6303e-20)
(1.12068 0.394912 1.62542e-19)
(1.05788 0.378431 -2.75111e-19)
(0.992692 0.354494 0)
(0.934339 0.325887 -1.1769e-19)
(0.889672 0.298795 -1.57376e-21)
(0.855942 0.275293 -1.64222e-19)
(0.829273 0.255269 0)
(0.802457 0.237168 -1.15465e-19)
(0.751893 0.215373 -2.7394e-19)
(0.634098 0.178045 7.32447e-19)
(0.43934 0.124071 -7.21308e-19)
(0.218696 0.0625806 1.02478e-18)
(0.0341547 0.0101035 -1.06483e-18)
(0.245002 0.0867702 -4.10223e-22)
(1.13834 0.394324 -4.2966e-20)
(1.31017 0.459847 -1.53707e-19)
(1.32395 0.476249 6.80501e-20)
(1.28339 0.475071 -6.30551e-20)
(1.22995 0.468527 0)
(1.17169 0.458627 -9.69781e-20)
(1.10922 0.444303 -1.72058e-19)
(1.0432 0.424071 -1.44961e-19)
(0.974551 0.39628 0)
(0.913105 0.364252 -1.23547e-19)
(0.866255 0.334694 -1.47888e-19)
(0.831062 0.309607 1.77025e-19)
(0.803524 0.288567 -1.05701e-19)
(0.776814 0.269767 -4.99521e-19)
(0.729405 0.246976 2.97198e-19)
(0.621218 0.207565 8.90133e-20)
(0.437971 0.146959 0)
(0.222291 0.075318 -9.81229e-19)
(0.0362274 0.0124799 -3.59653e-20)
(0.240727 0.096573 -2.57232e-20)
(1.13082 0.445607 4.32686e-20)
(1.30628 0.520357 8.09091e-20)
(1.31859 0.536745 2.22781e-19)
(1.27634 0.532996 -2.58527e-19)
(1.22121 0.52341 2.33353e-19)
(1.16089 0.510285 2.07904e-19)
(1.09598 0.492581 -2.75398e-19)
(1.02716 0.468812 8.36754e-20)
(0.95544 0.43728 -5.36027e-19)
(0.891268 0.401824 -1.36536e-19)
(0.842604 0.369624 0)
(0.806376 0.342673 1.90727e-19)
(0.778383 0.320403 2.25547e-19)
(0.752077 0.30064 2.67698e-19)
(0.707315 0.276703 -3.2026e-19)
(0.60607 0.234616 -9.47365e-20)
(0.431096 0.16692 1.11634e-19)
(0.220382 0.0856199 0)
(0.0364357 0.0142316 -7.74577e-20)
(0.237592 0.106072 2.52671e-19)
(1.12172 0.494144 -1.73739e-19)
(1.29966 0.578044 -8.47611e-20)
(1.31064 0.594597 1.5352e-19)
(1.26699 0.588582 -1.32255e-19)
(1.21048 0.576273 -3.97708e-21)
(1.14845 0.560238 -2.24194e-19)
(1.08143 0.539443 -9.88329e-20)
(1.01011 0.512371 -2.50162e-19)
(0.935592 0.477257 2.17108e-22)
(0.868968 0.438333 -4.31126e-19)
(0.818681 0.403335 3.48668e-19)
(0.781653 0.374227 -2.06997e-19)
(0.753453 0.350346 2.45376e-19)
(0.727626 0.329275 0)
(0.684961 0.303655 -1.72244e-19)
(0.588713 0.258367 -9.64027e-22)
(0.419511 0.183554 -4.81613e-19)
(0.214117 0.0932914 -7.09853e-20)
(0.0352945 0.015321 0)
(0.235432 0.115378 0)
(1.11188 0.540137 -1.8242e-19)
(1.29111 0.632807 -1.7002e-19)
(1.30082 0.649661 -1.59405e-19)
(1.25598 0.64165 -1.47528e-19)
(1.19834 0.62692 0)
(1.13485 0.608275 -1.12116e-19)
(1.06598 0.584685 -1.18132e-21)
(0.992398 0.55458 5.35024e-19)
(0.915268 0.516066 -7.48017e-20)
(0.846282 0.473691 -3.09518e-19)
(0.794523 0.435703 1.83243e-19)
(0.756754 0.404179 -2.00238e-21)
(0.728431 0.378404 2.61214e-19)
(0.70305 0.355706 1.58143e-19)
(0.661925 0.327975 -3.70694e-19)
(0.569008 0.278667 4.39435e-19)
(0.40391 0.196773 1.2978e-19)
(0.204071 0.098364 5.3505e-19)
(0.0329538 0.0156927 -1.43358e-18)
(0.234169 0.124605 5.00121e-20)
(1.10189 0.583781 -8.95356e-20)
(1.28138 0.684675 7.87712e-20)
(1.28965 0.701907 1.62267e-19)
(1.24383 0.6921 0)
(1.18523 0.67523 -1.29741e-19)
(1.12048 0.654275 3.65698e-19)
(1.04997 0.628187 2.20927e-19)
(0.974313 0.595333 0)
(0.894676 0.553646 -1.05928e-18)
(0.823359 0.50787 8.31758e-19)
(0.770054 0.46676 0)
(0.731537 0.432565 2.39329e-19)
(0.703086 0.404569 -1.99342e-21)
(0.678082 0.379898 -5.05084e-19)
(0.637973 0.349627 1.97783e-19)
(0.547097 0.295612 0)
(0.385104 0.206363 6.97946e-19)
(0.191189 0.100945 0)
(0.0298586 0.0154989 -6.75079e-19)
(0.233592 0.133814 -5.01157e-20)
(1.09212 0.625227 -8.78536e-20)
(1.27073 0.733699 8.59027e-20)
(1.2776 0.75132 0)
(1.23092 0.739922 -1.561e-19)
(1.17153 0.721165 0)
(1.1057 0.69817 -3.78691e-19)
(1.03372 0.669877 -1.10644e-19)
(0.956112 0.634579 9.77609e-20)
(0.874026 0.589984 -5.23104e-19)
(0.800264 0.540912 8.70478e-20)
(0.745248 0.496577 0)
(0.705888 0.459467 -5.11079e-19)
(0.677264 0.428971 2.04674e-21)
(0.652505 0.402012 0)
(0.612879 0.3687 2.32847e-21)
(0.52293 0.309236 6.34747e-19)
(0.363333 0.212338 -6.01326e-19)
(0.176127 0.101071 1.77304e-19)
(0.0262521 0.0147263 0)
(0.233387 0.142845 0)
(1.08283 0.664548 -8.78154e-20)
(1.25955 0.780027 -8.25087e-20)
(1.26503 0.797952 -2.26725e-21)
(1.21761 0.785141 -7.65463e-20)
(1.15754 0.764728 -2.93898e-19)
(1.09077 0.739945 1.37371e-19)
(1.01746 0.70973 -1.23535e-19)
(0.938022 0.672287 4.26794e-19)
(0.85348 0.625093 -8.3558e-19)
(0.777122 0.572903 -3.3054e-21)
(0.720222 0.525292 -2.28925e-19)
(0.679799 0.485062 8.25113e-19)
(0.650866 0.451768 -2.41639e-21)
(0.626217 0.42219 -3.89157e-19)
(0.586556 0.385295 -6.93164e-19)
(0.496484 0.319642 0)
(0.339038 0.214921 0)
(0.159309 0.0987722 1.91161e-19)
(0.0223526 0.0134244 -1.11844e-19)
(0.233721 0.151847 -4.91883e-20)
(1.07395 0.701613 1.8057e-19)
(1.24813 0.823735 8.77662e-20)
(1.25222 0.841885 0)
(1.20414 0.82781 -1.55005e-21)
(1.1435 0.805944 -3.00538e-19)
(1.07592 0.779609 3.52787e-19)
(1.00141 0.747739 5.08225e-19)
(0.920233 0.708463 5.61507e-19)
(0.833242 0.659008 -6.86962e-19)
(0.754144 0.603951 -7.10848e-19)
(0.69502 0.553089 6.11731e-19)
(0.653248 0.509518 0)
(0.623821 0.473127 -1.77139e-19)
(0.599134 0.440558 -4.19659e-19)
(0.558959 0.399443 -4.96659e-19)
(0.467859 0.326683 -5.89549e-19)
(0.312484 0.214026 1.74362e-19)
(0.140962 0.0940159 -1.02666e-19)
(0.0181447 0.0116133 3.40536e-22)
(0.234088 0.16071 0)
(1.06568 0.736896 0)
(1.23665 0.864902 2.5798e-21)
(1.23935 0.883215 0)
(1.19071 0.868013 2.46997e-19)
(1.1296 0.84487 2.3083e-19)
(1.06133 0.81719 0)
(0.985737 0.783919 6.44007e-20)
(0.90293 0.743116 9.46835e-19)
(0.813512 0.691768 -1.57533e-18)
(0.731468 0.634159 0)
(0.669747 0.580148 -3.92518e-19)
(0.626224 0.533069 -2.95409e-21)
(0.596047 0.49323 -2.42151e-21)
(0.571147 0.457183 4.48346e-19)
(0.530028 0.411065 -4.19122e-22)
(0.437204 0.330302 -1.26705e-18)
(0.283723 0.20948 3.7484e-19)
(0.121632 0.0870211 1.10766e-19)
(0.0138969 0.00945329 0)
(0.234461 0.169369 1.42902e-19)
(1.05775 0.770463 9.03283e-20)
(1.2252 0.903616 1.7518e-19)
(1.22659 0.922038 -3.51693e-19)
(1.17748 0.905817 4.23721e-19)
(1.11599 0.881565 0)
(1.04714 0.852733 2.30246e-19)
(0.970587 0.818296 -1.39895e-19)
(0.886257 0.776263 3.81321e-21)
(0.794435 0.723401 1.14203e-19)
(0.709247 0.663619 9.21014e-19)
(0.644541 0.606662 -1.38388e-19)
(0.598785 0.555983 -5.06118e-19)
(0.567436 0.512282 -2.05056e-19)
(0.542096 0.472053 2.42851e-19)
(0.499714 0.41993 -2.83678e-22)
(0.404856 0.330208 3.41212e-19)
(0.253473 0.201338 -8.0536e-19)
(0.102018 0.078153 9.52355e-19)
(0.00977741 0.00706559 1.3884e-19)
(0.234668 0.177705 -4.67508e-20)
(1.05017 0.802383 4.56819e-20)
(1.21392 0.94 6.07782e-21)
(1.21404 0.958477 -1.7578e-19)
(1.16455 0.941326 -8.38491e-20)
(1.10277 0.916098 -4.29537e-19)
(1.03345 0.886285 7.66894e-20)
(0.956061 0.850891 -5.90933e-19)
(0.870322 0.807904 -1.05934e-18)
(0.77614 0.753907 -9.45496e-19)
(0.687673 0.692405 0)
(0.619572 0.63281 -6.00279e-19)
(0.570988 0.578556 7.25562e-19)
(0.537844 0.530551 0)
(0.511673 0.485119 -5.19446e-19)
(0.467862 0.425569 3.09824e-19)
(0.371089 0.325894 -3.66116e-19)
(0.222836 0.189681 -4.3328e-19)
(0.0830726 0.0679332 -7.66694e-19)
(0.00603148 0.00464249 -5.97705e-19)
(0.235168 0.185847 4.53543e-20)
(1.0428 0.832634 -4.87064e-20)
(1.20286 0.974133 -1.27692e-19)
(1.2018 0.992614 -2.257e-19)
(1.152 0.974626 1.82355e-19)
(1.09002 0.94855 -2.6474e-19)
(1.02033 0.917897 2.48523e-19)
(0.942229 0.881745 -6.2014e-19)
(0.855199 0.838062 -6.3097e-19)
(0.758754 0.783302 9.96252e-19)
(0.666908 0.720562 2.02291e-18)
(0.595029 0.658745 0)
(0.542961 0.601099 0)
(0.507106 0.548431 -2.3541e-19)
(0.479338 0.496415 0)
(0.433981 0.427223 6.66259e-19)
(0.336285 0.316278 7.87638e-19)
(0.193345 0.174229 0)
(0.0661825 0.0569138 0)
(0.00289538 0.00242558 6.42109e-19)
(0.235281 0.1935 -4.33337e-20)
(1.03566 0.861216 -3.75771e-20)
(1.19208 1.00613 -8.8916e-20)
(1.18991 1.02458 1.80961e-19)
(1.13991 1.00582 1.87363e-19)
(1.07779 0.978996 3.17675e-19)
(1.00784 0.947631 -3.49284e-19)
(0.929142 0.910888 2.29092e-22)
(0.84096 0.866743 -4.92005e-21)
(0.742367 0.811579 -5.73889e-21)
(0.647117 0.748108 1.04201e-18)
(0.571132 0.684569 0)
(0.514919 0.623905 7.28671e-19)
(0.475138 0.566449 5.01455e-19)
(0.444297 0.506297 1.20468e-18)
(0.396873 0.424068 3.57571e-19)
(0.300475 0.299138 -4.24654e-19)
(0.167887 0.153044 -2.49646e-19)
(0.0556888 0.0449972 0)
(0.00174689 0.0010403 6.89619e-19)
(0.235671 0.201119 8.09389e-20)
(1.02874 0.888229 0)
(1.18158 1.03606 -8.53792e-20)
(1.17841 1.05444 1.39654e-19)
(1.1283 1.03499 -1.88549e-19)
(1.06611 1.00752 -4.18615e-19)
(0.996014 0.975543 7.23601e-19)
(0.916828 0.938359 -4.72952e-20)
(0.827635 0.893958 0)
(0.727045 0.838703 -1.11258e-18)
(0.628448 0.775024 -2.27408e-18)
(0.548114 0.710346 8.9157e-20)
(0.487194 0.647198 9.99537e-19)
(0.442051 0.58526 0)
(0.405682 0.515667 8.0884e-19)
(0.354211 0.416119 0)
(0.260883 0.271133 0)
(0.148553 0.11661 -2.70107e-19)
(0.069334 0.0208796 0)
(0.0258243 0.0104571 1.84803e-19)
(0.235667 0.208101 7.64227e-20)
(1.02199 0.914005 0)
(1.17136 1.06411 -1.25968e-19)
(1.16727 1.08244 0)
(1.11714 1.0624 9.31728e-20)
(1.05493 1.03439 0)
(0.984777 1.00194 4.31408e-20)
(0.905193 0.964492 8.74026e-20)
(0.815107 0.920068 7.93726e-20)
(0.71264 0.865063 -1.22943e-18)
(0.610769 0.801737 6.97754e-20)
(0.525843 0.736637 7.08813e-19)
(0.459597 0.671572 9.72936e-19)
(0.407411 0.605903 1.29199e-19)
(0.361966 0.526377 6.30041e-19)
(0.301945 0.405672 0)
(0.205757 0.232678 8.92646e-19)
(0.106063 0.0542678 -5.23271e-19)
(0.0466529 0.0464167 6.08928e-19)
(-0.0679236 0.417327 -7.20078e-19)
(0.235639 0.214842 -5.52237e-20)
(1.0152 0.938369 -1.08131e-19)
(1.16135 1.09062 0)
(1.15637 1.109 5.09816e-21)
(1.10626 1.08861 -2.34212e-19)
(1.04399 1.06029 7.11718e-19)
(0.973842 1.02761 2.76996e-19)
(0.893854 0.990216 0)
(0.802882 0.946153 5.48915e-19)
(0.698529 0.89195 -6.67204e-20)
(0.593229 0.829704 0)
(0.503251 0.765209 0)
(0.430834 0.698818 8.68566e-19)
(0.369961 0.630258 -3.95451e-19)
(0.310638 0.541817 -6.3378e-19)
(0.235483 0.39887 0)
(0.11796 0.214066 4.48375e-19)
(0.0115452 0.428589 -5.20476e-19)
(0.0403174 1.8454 -2.92303e-19)
(0.0711186 2.78764 -3.69103e-19)
(0.235461 0.220723 3.15655e-20)
(1.00857 0.961474 1.20425e-19)
(1.15153 1.11556 -6.4156e-20)
(1.14568 1.13397 -9.11422e-20)
(1.09571 1.11339 0)
(1.03336 1.08493 4.83404e-19)
(0.963387 1.05224 4.16248e-19)
(0.882982 1.0151 -4.47607e-20)
(0.791206 0.971698 8.0981e-20)
(0.685068 0.918746 1.18682e-18)
(0.576408 0.85823 1.16071e-18)
(0.481313 0.795572 7.96035e-19)
(0.402032 0.728557 8.70438e-19)
(0.331945 0.656736 -9.2174e-19)
(0.25773 0.564918 -9.51103e-19)
(0.157995 0.424914 0)
(0.0592338 0.814979 0)
(0.115824 2.51865 2.51747e-19)
(0.117675 3.1822 0)
(0.120508 3.38082 6.20165e-19)
(0.237769 0.226138 0)
(1.00267 0.983467 0)
(1.14171 1.13881 0)
(1.135 1.15712 -2.08646e-20)
(1.08517 1.13652 -2.00916e-19)
(1.0228 1.10817 3.38696e-19)
(0.953308 1.07572 2.82238e-19)
(0.87253 1.03905 -4.51408e-20)
(0.780044 0.99657 7.13605e-19)
(0.672288 0.945311 -1.0058e-20)
(0.560453 0.887196 2.31107e-18)
(0.460395 0.827517 -9.05034e-20)
(0.373706 0.761589 1.0636e-19)
(0.295534 0.682202 1.31989e-19)
(0.199806 0.595617 4.84827e-23)
(0.121498 0.941643 1.79859e-21)
(0.159522 2.66358 -1.29063e-18)
(0.173388 3.28017 -4.95241e-19)
(0.158985 3.42493 2.66146e-19)
(0.142916 3.44922 -3.01252e-19)
(0.155307 0.182696 -1.07871e-20)
(0.991094 1.00723 0)
(1.13163 1.16056 9.87801e-20)
(1.12497 1.17899 2.05156e-19)
(1.0754 1.15876 -3.64254e-19)
(1.01322 1.13065 -3.48386e-19)
(0.943502 1.09817 -3.10368e-19)
(0.862598 1.06218 5.69004e-19)
(0.769582 1.02089 -5.99663e-19)
(0.66052 0.971714 0)
(0.54585 0.916648 1.15005e-18)
(0.441161 0.860738 -6.54025e-19)
(0.346725 0.80033 0)
(0.261796 0.710309 1.24168e-19)
(0.17515 0.821762 2.92624e-19)
(0.174952 2.39999 -3.51961e-19)
(0.2432 3.31611 3.99549e-19)
(0.219524 3.44262 2.22448e-19)
(0.182417 3.46591 2.55496e-19)
(0.15776 3.47696 4.23215e-19)
(0.28028 0.26377 2.71984e-20)
(0.975413 1.0161 0)
(1.11327 1.18486 -8.33225e-20)
(1.11075 1.21109 -1.82069e-19)
(1.05961 1.1914 3.36543e-19)
(0.996993 1.1638 3.20794e-19)
(0.926523 1.13271 3.96861e-19)
(0.845113 1.09788 4.35644e-20)
(0.750975 1.05868 6.0496e-19)
(0.639551 1.01327 1.08095e-18)
(0.520469 0.964428 6.75926e-20)
(0.408565 0.916256 5.91503e-19)
(0.29912 0.867465 1.0168e-19)
(0.229932 0.976731 -1.23504e-19)
(0.249742 2.24846 -2.84367e-19)
(0.31819 3.31962 2.89609e-19)
(0.303632 3.47785 -3.29932e-19)
(0.264915 3.50119 -1.93066e-19)
(0.225089 3.52962 -1.83148e-19)
(0.169457 3.52226 -2.10491e-20)
(0.267757 0.260223 0)
(0.972679 1.03797 -8.46673e-21)
(1.10535 1.20767 1.23033e-20)
(1.10102 1.23388 1.61569e-20)
(1.04977 1.21412 2.0282e-19)
(0.987254 1.18674 -3.02272e-19)
(0.916501 1.15581 -2.47039e-19)
(0.835055 1.12175 4.11444e-20)
(0.740685 1.084 -6.49073e-19)
(0.628484 1.04135 -1.43356e-20)
(0.507562 0.997198 -2.1441e-18)
(0.392764 0.955291 8.37604e-20)
(0.286464 0.932256 -9.76333e-20)
(0.270735 1.43201 -1.17209e-19)
(0.354599 3.05169 1.8012e-20)
(0.383966 3.4728 9.15151e-22)
(0.339739 3.53901 5.42441e-19)
(0.300249 3.56363 2.87945e-19)
(0.248413 3.58802 -1.14816e-19)
(0.18446 3.58342 -1.19234e-19)
(0.250998 0.258173 -7.86577e-21)
(0.96824 1.06238 -4.33664e-20)
(1.09688 1.23247 3.36369e-20)
(1.09077 1.25807 6.18902e-20)
(1.03945 1.23813 0)
(0.977097 1.21076 -3.81629e-19)
(0.906362 1.18006 -3.42539e-19)
(0.825164 1.14675 3.86146e-20)
(0.730889 1.1105 -7.09685e-20)
(0.618436 1.07077 -1.03654e-18)
(0.496431 1.03156 -1.01674e-18)
(0.380574 0.996825 -7.11499e-19)
(0.290338 1.05148 -7.45468e-19)
(0.342117 2.07917 7.64255e-19)
(0.445961 3.36694 6.73522e-19)
(0.432498 3.53845 0)
(0.381517 3.58605 0)
(0.342846 3.6299 -9.61256e-20)
(0.28304 3.69538 0)
(0.196884 3.66638 -1.55187e-19)
(0.239679 0.25939 -2.98206e-21)
(0.961819 1.08775 1.82246e-20)
(1.087 1.25839 0)
(1.07925 1.28307 6.00561e-21)
(1.02794 1.26271 1.60509e-19)
(0.965867 1.23522 -5.23646e-19)
(0.895486 1.20475 -2.11056e-19)
(0.814745 1.17207 3.28695e-20)
(0.720815 1.13723 -5.10742e-19)
(0.608515 1.10035 5.60112e-20)
(0.486228 1.06618 0)
(0.371651 1.04094 0)
(0.3175 1.26532 -7.04484e-19)