/*--------------------------------*- C++ -*----------------------------------*\
| =========                 |                                                 |
| \\      /  F ield         | OpenFOAM: The Open Source CFD Toolbox           |
|  \\    /   O peration     | Version:  2112                                  |
|   \\  /    A nd           | Website:  www.openfoam.com                      |
|    \\/     M anipulation  |                                                 |
\*---------------------------------------------------------------------------*/
FoamFile
{
    version     2.0;
    format      ascii;
    arch        "LSB;label=32;scalar=64";
    class       volScalarField;
    location    "10";
    object      p;
}
// * * * * * * * * * * * * * * * * * * * * * * * * * * * * * * * * * * * * * //

dimensions      [0 2 -2 0 0 0 0];

internalField   nonuniform List<scalar> 
400
(
-1.053686e-08
-0.00066521735
-0.001367126
-0.0019136973
-0.002180909
-0.0021087521
-0.0016734377
-0.00086791072
0.0002945883
0.0017645221
0.0034402645
0.0051605662
0.0067187378
0.0078946448
0.0085087522
0.0084832125
0.0078848505
0.0069283995
0.0059533124
0.0053938404
0.00065279076
-3.82052e-05
-0.00055913362
-0.00092131142
-0.0010825011
-0.0010027493
-0.00066065611
-4.4028756e-05
0.00084481158
0.001973712
0.0032669221
0.0046108786
0.0058375448
0.0067733638
0.0072761587
0.007283935
0.0068488866
0.0061410683
0.0054053312
0.0048364691
0.0014089591
0.00043654097
-0.00011235854
-0.00044049929
-0.00059269715
-0.00055270715
-0.00030452007
0.00017075184
0.00088646082
0.0018323245
0.0029585697
0.0041627092
0.0052928349
0.0061770434
0.0066640388
0.0066747747
0.0062416951
0.0055164124
0.004695618
0.0038541072
0.0019901258
0.00067199195
1.6488748e-05
-0.00034988633
-0.00055176921
-0.00059449202
-0.00046507947
-0.0001333798
0.00043589767
0.0012587347
0.002307696
0.0034959656
0.0046693895
0.0056351553
0.0062043342
0.0062530105
0.0057783047
0.0049208904
0.0038593679
0.0025924306
0.0021379754
0.00048450738
-0.00029712377
-0.00073884665
-0.0010350898
-0.001206317
-0.0012366754
-0.0010786202
-0.00066826591
4.3602071e-05
0.001058639
0.0023126968
0.0036450468
0.0048304615
0.0056190034
0.0058098829
0.0053358033
0.0043170233
0.0029311639
0.0011189424
0.0016270969
-0.00032153765
-0.0012337706
-0.0017814196
-0.0022179597
-0.0025727034
-0.0028208641
-0.0028911955
-0.0026836398
-0.0021053199
-0.001112493
0.00027054468
0.0018798325
0.0034554077
0.0046639255
0.0051857188
0.0048402023
0.0036962302
0.0019299707
-0.00057213983
0.00027270483
-0.0019136031
-0.002953796
-0.0036366371
-0.0042643401
-0.0048709624
-0.0054187512
-0.0058077867
-0.0058938516
-0.0055239166
-0.0045818827
-0.003065497
-0.0010811851
0.001079783
0.0029820437
0.0041353651
0.0041697494
0.0030358262
0.00087333901
-0.0025060344
-0.0020670834
-0.0044229561
-0.0055844984
-0.0064314944
-0.0073059448
-0.0082460413
-0.0092007157
-0.010039269
-0.010566599
-0.010556883
-0.0098027515
-0.0082005113
-0.0057902188
-0.0028518102
8.2094794e-05
0.002299909
0.0031373005
0.0023055268
-0.00018891685
-0.0046767911
-0.0054807993
-0.0079331727
-0.0092046006
-0.010239058
-0.011412186
-0.012770352
-0.014253724
-0.015703385
-0.016870608
-0.01744495
-0.017100877
-0.015580697
-0.012797006
-0.0089507204
-0.0046303915
-0.00079458072
0.0014784193
0.0014728727
-0.0011373081
-0.0069858998
-0.0099917253
-0.012469448
-0.013827136
-0.015050853
-0.016550013
-0.018389391
-0.020510561
-0.022734535
-0.024762517
-0.026193315
-0.026557165
-0.025397444
-0.022444913
-0.01770301
-0.011719569
-0.0056643547
-0.0011225446
0.00052227962
-0.0017327487
-0.0091510883
-0.015554268
-0.017997864
-0.019390804
-0.020755661
-0.022549002
-0.024872618
-0.027684946
-0.030799358
-0.033875836
-0.03642496
-0.037821471
-0.037364575
-0.034606614
-0.029175118
-0.021440098
-0.012653432
-0.0049017633
-0.00047074624
-0.0015370739
-0.010554768
-0.02206867
-0.024441979
-0.025765581
-0.027132028
-0.029083939
-0.031789646
-0.035243062
-0.039262492
-0.043476186
-0.047314979
-0.050027544
-0.050741416
-0.048476196
-0.042695996
-0.033365793
-0.021573613
-0.0097355146
-0.0011585667
0.00021981049
-0.0099959303
-0.029428671
-0.031723362
-0.032774395
-0.033856983
-0.035682826
-0.038527653
-0.042436739
-0.047237839
-0.052530467
-0.057672769
-0.061782636
-0.063774057
-0.062410635
-0.056686496
-0.046095719
-0.031314644
-0.014749362
-0.00061771341
0.0048625046
-0.0053183642
-0.037627362
-0.039829657
-0.040224638
-0.040526026
-0.041761269
-0.04435659
-0.048409599
-0.05374326
-0.0599128
-0.066197628
-0.07159096
-0.074818939
-0.074399855
-0.0689052
-0.057312402
-0.03968874
-0.018011646
0.0029944182
0.014624234
0.0070637213
-0.046981826
-0.048911863
-0.04793053
-0.046671541
-0.046675837
-0.048531403
-0.052351214
-0.057908553
-0.064668806
-0.071805164
-0.078174645
-0.082322089
-0.082540085
-0.077028609
-0.064299777
-0.043755379
-0.016598195
0.012634904
0.033056187
0.032501174
-0.058658089
-0.059431797
-0.055698729
-0.051766677
-0.049787107
-0.050410209
-0.053658259
-0.059173967
-0.066249625
-0.073905084
-0.080821609
-0.085348757
-0.085561627
-0.079323327
-0.06474533
-0.040610061
-0.0071932628
0.032179518
0.065019472
0.077769515
-0.076021197
-0.072440786
-0.063376506
-0.055316432
-0.050600205
-0.049620599
-0.052097931
-0.057393332
-0.064576338
-0.072439725
-0.07945539
-0.083754829
-0.083175777
-0.075212886
-0.057544319
-0.028379381
0.012888795
0.065355388
0.11551151
0.15145676
-0.10793809
-0.089434641
-0.071152892
-0.057177726
-0.049010314
-0.046228696
-0.047916127
-0.052978794
-0.060161521
-0.067999245
-0.074739497
-0.07827971
-0.076207168
-0.065709003
-0.043846897
-0.0078681479
0.044300785
0.11289432
0.18828205
0.27175693
-0.17674038
-0.10820822
-0.076171508
-0.054645837
-0.042978251
-0.038941334
-0.040450648
-0.045741923
-0.053202273
-0.061171154
-0.067764284
-0.070735837
-0.067389933
-0.0546494
-0.029136271
0.013507529
0.07804432
0.16994048
0.28936968
0.4740971
-0.37197948
-0.12463791
-0.054952374
-0.031974438
-0.022072569
-0.020271447
-0.024269592
-0.031801421
-0.041048251
-0.050393058
-0.058063608
-0.061958224
-0.059602543
-0.047952559
-0.022630519
0.021435896
0.092731427
0.2100404
0.40277065
0.77629413
)
;

boundaryField
{
    movingWall
    {
        type            zeroGradient;
    }
    fixedWalls
    {
        type            zeroGradient;
    }
    frontAndBack
    {
        type            empty;
    }
}


// ************************************************************************* //
