/*--------------------------------*- C++ -*----------------------------------*\
| =========                 |                                                 |
| \\      /  F ield         | OpenFOAM: The Open Source CFD Toolbox           |
|  \\    /   O peration     | Version:  2112                                  |
|   \\  /    A nd           | Website:  www.openfoam.com                      |
|    \\/     M anipulation  |                                                 |
\*---------------------------------------------------------------------------*/
FoamFile
{
    version     2.0;
    format      ascii;
    arch        "LSB;label=32;scalar=64";
    class       surfaceScalarField;
    location    "10";
    object      phi;
}
// * * * * * * * * * * * * * * * * * * * * * * * * * * * * * * * * * * * * * //

dimensions      [0 3 -1 0 0 0 0];

oriented        oriented;

internalField   nonuniform List<scalar> 
760
(
1.2423556e-05
-1.2423169e-05
-2.881301e-05
4.1236462e-05
-0.00012169738
9.2884425e-05
-0.00024876717
0.00012706985
-0.00039322161
0.00014445454
-0.00054126019
0.00014803855
-0.00068093594
0.00013967577
-0.00080055737
0.00011962142
-0.00088796292
8.7405551e-05
-0.00093121455
4.3251616e-05
-0.0009204606
-1.0754003e-05
-0.00085095374
-6.9506862e-05
-0.00072586929
-0.00012508444
-0.00055837107
-0.00016749825
-0.00037134894
-0.0001870222
-0.00019430959
-0.00017703942
-5.708019e-05
-0.00013722942
1.891201e-05
-7.5992181e-05
3.0025329e-05
-1.111328e-05
3.0025369e-05
-4.2938958e-05
3.0515697e-05
-0.00020301704
0.00020131454
-0.00046445265
0.00035431998
-0.00079383966
0.00045645672
-0.0011571719
0.00050778682
-0.0015229861
0.00051385278
-0.0018618314
0.00047852113
-0.0021450223
0.00040281222
-0.0023445791
0.00028696235
-0.0024352531
0.0001339256
-0.0023991753
-4.6831899e-05
-0.0022287084
-0.00023997376
-0.0019341513
-0.00041964156
-0.0015448105
-0.00055683918
-0.0011083789
-0.00062345385
-0.00068467922
-0.00060073919
-0.0003338869
-0.00048802174
-0.00010124064
-0.00030863834
-1.888826e-06
-0.00011046499
2.8136545e-05
-0.00010901794
0.00013953364
-0.00039921398
0.00049151065
-0.00082345339
0.00077855937
-0.0013328008
0.00096580421
-0.001880659
0.0010556449
-0.002423762
0.0010569558
-0.0029210336
0.00097579277
-0.0033325553
0.0008143339
-0.0036202201
0.00057462717
-0.0037507163
0.00026442172
-0.0037000263
-9.7521948e-05
-0.0034593894
-0.00048061066
-0.0030414519
-0.00083757911
-0.0024834743
-0.0011148168
-0.0018470802
-0.001259848
-0.00121175
-0.0012360695
-0.00066093666
-0.001038835
-0.00026241908
-0.00070715583
-4.804938e-05
-0.00032483462
-1.991287e-05
-0.00017162849
0.00031116214
-0.00058718765
0.0009070699
-0.001165777
0.0013571487
-0.0018399141
0.0016399412
-0.0025518589
0.0017675898
-0.0032501879
0.0017552848
-0.0038866415
0.0016122464
-0.0044144301
0.0013421224
-0.004788806
0.00094900307
-0.0049700178
0.00044563354
-0.0049282699
-0.0001392699
-0.0046494657
-0.0007594149
-0.0041428328
-0.001344212
-0.0034459749
-0.0018116747
-0.0026274854
-0.0020783375
-0.0017828436
-0.0020807113
-0.0010205119
-0.0018011666
-0.00043826692
-0.0012894007
-9.64396e-05
-0.00066666193
-0.0001163525
-0.00022730661
0.0005384686
-0.000757065
0.0014368283
-0.0014763158
0.0020763995
-0.0022996003
0.0024632257
-0.0031595788
0.0026275683
-0.003999436
0.002595142
-0.0047671309
0.0023799412
-0.0054122485
0.00198724
-0.0058856313
0.001422386
-0.0061415207
0.00070152292
-0.0061424436
-0.00013834701
-0.0058637996
-0.0010380589
-0.0053043909
-0.0019036207
-0.0044939857
-0.00262208
-0.0035013078
-0.0030710154
-0.0024354438
-0.0031465751
-0.001434531
-0.0028020793
-0.00063790857
-0.0020860231
-0.00014815051
-0.00115642
-0.000264503
-0.00027436846
0.00081283706
-0.00090232892
0.0020647887
-0.0017435564
0.002917627
-0.0026971896
0.0034168589
-0.0036885057
0.0036188843
-0.0046578916
0.003564528
-0.0055524517
0.0032745014
-0.0063209034
0.0027556916
-0.006911559
0.0020130417
-0.007272769
0.001062733
-0.0073575512
-5.3564906e-05
-0.0071256248
-0.0012699853
-0.0065582848
-0.0024709608
-0.0056678753
-0.0035124895
-0.0045139323
-0.0042249583
-0.0032137657
-0.0044467418
-0.0019383843
-0.0040774606
-0.00088255933
-0.0031418481
-0.00021049125
-0.0018284882
-0.00047499422
-0.00031106371
0.0011239008
-0.0010168307
0.0027705556
-0.0019559382
0.0038567344
-0.0030157547
0.0044766754
-0.0041167835
0.0047199132
-0.005199175
0.0046469195
-0.0062119686
0.004287295
-0.0071058131
0.0036495361
-0.0078288515
0.0027360801
-0.008325319
0.0015592005
-0.0085353518
0.00015646787
-0.0084044732
-0.001400864
-0.007887272
-0.002988162
-0.0069687308
-0.0044310306
-0.0056860166
-0.0055076723
-0.004152567
-0.0059801914
-0.0025688595
-0.0056611682
-0.0011980061
-0.0045127016
-0.0002929669
-0.0027335274
-0.00076796114
-0.00033543701
0.0014593378
-0.0010944132
0.0035295318
-0.0021014777
0.0048637989
-0.0032360617
0.0056112594
-0.0044164685
0.00590032
-0.0055850246
0.0058154757
-0.0066954437
0.0053977141
-0.007703446
0.0046575383
-0.0085603534
0.0035929876
-0.0092090982
0.0022079452
-0.0095819306
0.0005293002
-0.0096062804
-0.0013765142
-0.0092093139
-0.0033851285
-0.0083387224
-0.005301622
-0.0069926118
-0.0068537829
-0.0052593808
-0.0077134224
-0.0033530162
-0.0075675327
-0.0016100685
-0.0062556493
-0.00040629334
-0.0039373025
-0.0011742545
-0.00034595138
0.0018052891
-0.0011302593
0.0043138397
-0.0021698601
0.0059033996
-0.0033395165
0.0067809159
-0.0045575153
0.0071183189
-0.0057705104
0.0070284707
-0.0069395768
0.0065667805
-0.0080290441
0.0057470056
-0.0089979651
0.0045619086
-0.0097935706
0.0030035507
-0.010346548
0.0010822773
-0.010570941
-0.0011521207
-0.010368806
-0.0035872634
-0.0096452251
-0.0060252032
-0.008342394
-0.0081566139
-0.0064942837
-0.0095615326
-0.0042948523
-0.0097669641
-0.0021402596
-0.0084102421
-0.00056255324
-0.0055150088
-0.0017368078
-0.00034265614
0.0021479452
-0.0011236297
0.0050948132
-0.00215662
0.0069363899
-0.0033137899
0.0079380858
-0.0045151343
0.0083196632
-0.0057136021
0.0082269385
-0.0068802582
0.0077334365
-0.0079917935
0.0068585409
-0.0090203745
0.0055904895
-0.009925074
0.0039082502
-0.010644109
0.0018013123
-0.011087657
-0.00070857212
-0.011144344
-0.0035305768
-0.010677975
-0.0064915718
-0.0095638368
-0.0092707524
-0.0077496988
-0.011375671
-0.0053580711
-0.012158592
-0.0027991434
-0.01096917
-0.00077573157
-0.0075384207
-0.0025125394
-0.00032878432
0.0024767295
-0.0010816015
0.0058476303
-0.0020687356
0.007923524
-0.0031601984
0.0090295485
-0.0042794142
0.009438879
-0.0053879185
0.0093354428
-0.0064694968
0.0088150148
-0.0075168299
0.0079058741
-0.0085204756
0.0065941352
-0.0094591343
0.0048469089
-0.010291036
0.0026332145
-0.010932123
-6.7485775e-05
-0.011281025
-0.0031816742
-0.0111692
-0.006603397
-0.010408596
-0.010031356
-0.0088375702
-0.012946697
-0.0064464556
-0.014549706
-0.0035747412
-0.013840884
-0.0010615863
-0.010051576
-0.0035741257
-0.00031292481
0.0027896543
-0.0010236241
0.0065583296
-0.0019307617
0.0088306616
-0.0029011603
0.0099999471
-0.0038646865
0.010402405
-0.0047952021
0.010265958
-0.005692531
0.0097123437
-0.0065685078
0.0087818509
-0.0074361138
0.0074617413
-0.0082997194
0.0057105145
-0.0091435921
0.0034770871
-0.0099272264
0.00071614865
-0.010543395
-0.0025655058
-0.010839255
-0.0063075364
-0.010580702
-0.010289909
-0.0094947948
-0.014032604
-0.0073884869
-0.016656014
-0.0044149035
-0.016814468
-0.0014350058
-0.013031473
-0.0050091316
-0.00031242677
0.003102081
-0.00098705287
0.0072329556
-0.0017904207
0.0096340294
-0.0025852239
0.01079475
-0.0033146405
0.011131822
-0.0039718503
0.010923168
-0.0045775271
0.010318021
-0.0051655237
0.0093698475
-0.0057732182
0.0080694357
-0.0064335083
0.0063708044
-0.0071656653
0.0042092441
-0.00796498
0.0015154633
-0.008770876
-0.00175961
-0.0094578293
-0.0056205831
-0.0097895643
-0.0099581744
-0.0094135584
-0.01440861
-0.0079361661
-0.018133407
-0.0052063664
-0.019544267
-0.0019014046
-0.016336435
-0.0069105362
-0.00035951209
0.0034615931
-0.0010339983
0.0079074418
-0.001721612
0.010321643
-0.0022853414
0.01135848
-0.0026967359
0.011543216
-0.0029805876
0.01120702
-0.003185353
0.010522786
-0.0033693811
0.0095538755
-0.0035939288
0.0082939833
-0.0039187765
0.0066956521
-0.0043966404
0.0046871081
-0.0050642701
0.0021830931
-0.005919442
-0.00090443806
-0.0068959402
-0.0046440849
-0.0078077592
-0.0090463553
-0.0082888514
-0.013927518
-0.007782339
-0.018639919
-0.0057562596
-0.021570347
-0.0024370302
-0.019655664
-0.0093475664
-0.00051249646
0.0039740896
-0.0012580191
0.0086529645
-0.0018177312
0.010881355
-0.0020791189
0.011619867
-0.0020718544
0.011535952
-0.0018714672
0.011006632
-0.0015631022
0.010214421
-0.0012318296
0.0092226029
-0.00095994503
0.0080220988
-0.00082863897
0.006564346
-0.00091682257
0.0047752917
-0.0012980624
0.002564333
-0.0020299128
-0.00017258766
-0.0031242584
-0.0035497393
-0.0044963683
-0.0076742454
-0.0058560581
-0.012567828
-0.0065854217
-0.017910555
-0.0057780111
-0.022377757
-0.002953436
-0.022480239
-0.012301002
-0.00087293422
0.0048470238
-0.0017760837
0.009556114
-0.0021449124
0.011250184
-0.0019708357
0.011445791
-0.0013941563
0.010959273
-0.00056667501
0.010179151
0.00038149985
0.009266246
0.0013415021
0.0082626005
0.0022138818
0.007149719
0.002903907
0.0058743208
0.0033150777
0.0043641211
0.0033466489
0.002532762
0.0028929429
0.00028111838
0.0018689339
-0.0025257303
0.00023450639
-0.0060398177
-0.0018829894
-0.010450332
-0.003972757
-0.015820788
-0.0048727706
-0.021477744
-0.003258388
-0.024094622
-0.01555939
-0.0015944809
0.0064415046
-0.0026219361
0.010583569
-0.0025339928
0.011162241
-0.0016209468
0.010532745
-0.00021243599
0.0095507617
0.0014450369
0.0085216783
0.0031800704
0.0075312125
0.0048678393
0.0065748317
0.0064074663
0.0056100919
0.0077039503
0.0045778367
0.00865757
0.0034105013
0.0091562568
0.0020340752
0.009063403
0.00037397206
0.0082404421
-0.0017027693
0.0065360364
-0.0043354118
0.0038802471
-0.0077945431
0.00054134586
-0.012481886
-0.0024793972
-0.018457001
-0.003031585
-0.023542434
-0.018590975
-0.0027196602
0.0091611649
-0.003155595
0.011019504
-0.0018159207
0.0098225663
0.00044534881
0.0082714752
0.0030596862
0.0069364243
0.0057368324
0.0058445321
0.0083205106
0.0049475342
0.010714853
0.0041804888
0.012847173
0.0034777726
0.014645801
0.0027792083
0.016026809
0.002029494
0.016886352
0.0011745322
0.017088184
0.00017213927
0.016464755
-0.0010793396
0.014795842
-0.0026664987
0.011830047
-0.0048287486
0.0074226761
-0.0080745152
0.0022544949
-0.01328882
-0.0012763412
-0.020011598
-0.019867317
-0.0024121845
0.011573349
2.8373024e-05
0.0085789464
0.0042521585
0.0055987808
0.0084076152
0.0041160186
0.012216418
0.0031276211
0.015634796
0.0024261548
0.018659773
0.0019225565
0.021298851
0.0015414115
0.023551668
0.0012249551
0.025398046
0.0009328309
0.026791557
0.00063598288
0.0276527
0.00031338883
0.027879799
-5.4959531e-05
0.027331866
-0.00053140668
0.025760639
-0.0010952716
0.022835367
-0.001903476
0.018049358
-0.0032885071
0.011110007
-0.0063494682
0.0033871635
-0.012288755
-0.016480153
0.01157335
0.020152296
0.025751077
0.029867095
0.032994717
0.035420871
0.037343428
0.038884839
0.040109794
0.041042625
0.041678608
0.041991997
0.041937037
0.041405631
0.040310359
0.038406883
0.035118376
0.028768908
0.016480153
)
;

boundaryField
{
    movingWall
    {
        type            calculated;
        value           uniform 0;
    }
    fixedWalls
    {
        type            calculated;
        value           uniform 0;
    }
    frontAndBack
    {
        type            empty;
        value           nonuniform List<scalar> 0();
    }
}


// ************************************************************************* //
