/*--------------------------------*- C++ -*----------------------------------*\
| =========                 |                                                 |
| \\      /  F ield         | OpenFOAM: The Open Source CFD Toolbox           |
|  \\    /   O peration     | Version:  2112                                  |
|   \\  /    A nd           | Website:  www.openfoam.com                      |
|    \\/     M anipulation  |                                                 |
\*---------------------------------------------------------------------------*/
FoamFile
{
    version     2.0;
    format      ascii;
    arch        "LSB;label=32;scalar=64";
    class       surfaceScalarField;
    location    "10";
    object      phi_0;
}
// * * * * * * * * * * * * * * * * * * * * * * * * * * * * * * * * * * * * * //

dimensions      [0 3 -1 0 0 0 0];

oriented        oriented;

internalField   nonuniform List<scalar> 
760
(
1.2429914e-05
-1.2413789e-05
-2.8808857e-05
4.1238451e-05
-0.00012169086
9.2882052e-05
-0.00024875582
0.00012706494
-0.00039320415
0.00014444836
-0.00054123608
0.00014803199
-0.0006809056
0.00013966949
-0.00080052184
0.00011961619
-0.00088792404
8.7402166e-05
-0.00093117481
4.3250773e-05
-0.0009204229
-1.0751885e-05
-0.00085092105
-6.950182e-05
-0.00072584402
-0.00012507701
-0.00055835449
-0.00016748949
-0.00037134085
-0.0001870136
-0.00019430832
-0.00017703251
-5.7082937e-05
-0.00013722536
1.8908366e-05
-7.5991256e-05
3.0023312e-05
-1.111486e-05
3.0023419e-05
-4.2934641e-05
3.0520443e-05
-0.00020300568
0.00020130942
-0.0004644291
0.00035430559
-0.00079380028
0.0004564362
-0.001157115
0.00050776314
-0.0015229117
0.00051382871
-0.0018617414
0.00047849923
-0.0021449202
0.00040279496
-0.0023444701
0.00028695208
-0.0024351435
0.00013392416
-0.0023990718
-4.6823567e-05
-0.0022286176
-0.00023995604
-0.0019340782
-0.00041961642
-0.0015447577
-0.00055681001
-0.0011083463
-0.00062342501
-0.00068466373
-0.00060071513
-0.00033388318
-0.00048800589
-0.00010124236
-0.000308632
-1.8906125e-06
-0.00011046651
2.8132859e-05
-0.0001090111
0.00013953155
-0.00039919145
0.0004914899
-0.00082340844
0.00077852268
-0.0013327297
0.00096575735
-0.0018805603
0.0010555937
-0.0024236371
0.0010569055
-0.0029208862
0.00097574838
-0.0033323914
0.00081430017
-0.0036200477
0.00057460835
-0.0037505443
0.00026442083
-0.0036998642
-9.7503668e-05
-0.0034592456
-0.00048057452
-0.0030413331
-0.00083752893
-0.0024833843
-0.0011147588
-0.0018470194
-0.00125979
-0.001211715
-0.0012360196
-0.00066092126
-0.0010387996
-0.00026241531
-0.0007071379
-4.8049831e-05
-0.00032483195
-1.9916977e-05
-0.00017161788
0.00031114954
-0.00058715341
0.00090702551
-0.001165711
0.0013570805
-0.0018398128
0.001639859
-0.002551722
0.0017675029
-0.0032500182
0.0017552017
-0.0038864446
0.0016121748
-0.004414214
0.0013420695
-0.0047885806
0.00094897483
-0.0049697938
0.00044563395
-0.004928058
-0.0001392395
-0.0046492756
-0.00075935697
-0.0041426723
-0.0013441323
-0.003445849
-0.0018115822
-0.0026273955
-0.0020782436
-0.0017827871
-0.0020806279
-0.0010204828
-0.001801104
-0.00043825625
-0.0012893644
-9.6438009e-05
-0.00066665024
-0.00011635505
-0.00022729256
0.00053844217
-0.00075702079
0.0014367537
-0.0014762325
0.0020762923
-0.0022994749
0.0024631013
-0.0031594122
0.0026274402
-0.0039992325
0.0025950219
-0.0047668974
0.0023798398
-0.0054119944
0.0019871665
-0.0058853674
0.0014223478
-0.0061412582
0.00070152472
-0.0061421938
-0.00013830392
-0.0058635725
-0.0010379783
-0.0053041951
-0.0019035098
-0.0044938273
-0.0026219501
-0.0035011899
-0.003070881
-0.0024353657
-0.0031464522
-0.0014344874
-0.0028019824
-0.00063789046
-0.0020859615
-0.00014814673
-0.0011563941
-0.0002645019
-0.0002743522
0.00081279438
-0.00090227839
0.0020646798
-0.0017434626
0.0029174765
-0.00269705
0.0034166886
-0.0036883222
0.0036187123
-0.0046576697
0.0035643694
-0.0055521992
0.0032743693
-0.0063206299
0.0027555972
-0.0069112754
0.0020129932
-0.007272486
0.0010627353
-0.0073572799
-5.3510062e-05
-0.0071253743
-0.0012698839
-0.006558064
-0.0024708202
-0.0056676915
-0.0035123227
-0.0045137906
-0.004224782
-0.0032136674
-0.0044465754
-0.0019383265
-0.0040773234
-0.0008825336
-0.0031417545
-0.00021048522
-0.0018284427
-0.00047498725
-0.00031104686
0.0011238413
-0.0010167788
0.0027704115
-0.0019558424
0.0038565401
-0.0030156131
0.0044764592
-0.0041165989
0.004719698
-0.0051989533
0.0046467238
-0.006211718
0.0042871339
-0.0071055428
0.0036494219
-0.0078285715
0.0027360218
-0.0083250389
0.0015592027
-0.0085350797
0.00015653068
-0.0084042184
-0.0014007453
-0.0078870424
-0.0029879963
-0.0069685338
-0.0044308313
-0.0056858589
-0.005507457
-0.0041524528
-0.0059799816
-0.002568789
-0.0056609874
-0.001197973
-0.0045125706
-0.00029295856
-0.0027334572
-0.00076794589
-0.00033542152
0.0014592628
-0.0010943654
0.0035293553
-0.0021013896
0.0048635643
-0.003235932
0.0056110016
-0.0044163002
0.0059000662
-0.0055848238
0.0058152472
-0.006695218
0.0053975281
-0.0077032038
0.0046574077
-0.0085601031
0.003592921
-0.0092088472
0.0022079467
-0.0095816853
0.00052936873
-0.0096060468
-0.0013763838
-0.0092090981
-0.0033849451
-0.0083385309
-0.0053013986
-0.0069924517
-0.0068535363
-0.0052592589
-0.0077131744
-0.0033529367
-0.0075673097
-0.0016100289
-0.0062554785
-0.00040628269
-0.0039372035
-0.0011742286
-0.00034593921
0.0018052021
-0.0011302213
0.0043136373
-0.0021697896
0.0059031325
-0.0033394124
0.0067806243
-0.0045573806
0.0071180344
-0.0057703508
0.0070282173
-0.0069393993
0.0065665764
-0.0080288556
0.005746864
-0.008997772
0.0045618373
-0.0097933777
0.0030035523
-0.010346359
0.0010823495
-0.010570758
-0.0011519841
-0.010368632
-0.0035870713
-0.0096450636
-0.0060249673
-0.0083422511
-0.0081563489
-0.0064941675
-0.0095612582
-0.0042947707
-0.0097667065
-0.0021402158
-0.0084100334
-0.00056254049
-0.0055148789
-0.001736769
-0.00034264903
0.0021478511
-0.0011236064
0.0050945946
-0.0021565758
0.0069361017
-0.0033137237
0.0079377723
-0.0045150487
0.0083193593
-0.0057135021
0.0082266705
-0.0068801493
0.0077332235
-0.0079916812
0.0068583958
-0.0090202628
0.0055904189
-0.0099249652
0.0039082547
-0.010644004
0.0018013877
-0.011087553
-0.00070843466
-0.01114424
-0.0035303847
-0.010677871
-0.0064913362
-0.0095637346
-0.0092704852
-0.0077496059
-0.011375387
-0.0053579981
-0.012158314
-0.0027990998
-0.010968932
-0.00077571736
-0.0075382615
-0.0025124862
-0.00032878352
0.0024766345
-0.0010815966
0.0058474078
-0.0020687242
0.007923229
-0.0031601793
0.0090292275
-0.0042793892
0.0094385692
-0.0053878911
0.0093351722
-0.006469471
0.0088148033
-0.0075168091
0.0079057339
-0.0085204617
0.0065940714
-0.009459127
0.00484692
-0.010291034
0.0026332949
-0.010932116
-6.7353313e-05
-0.011281013
-0.0031814878
-0.011169175
-0.0066031736
-0.010408557
-0.010031104
-0.0088375202
-0.012946424
-0.006446405
-0.014549429
-0.0035747044
-0.013840632
-0.001061572
-0.010051394
-0.0035740581
-0.00031293091
0.0027895653
-0.0010236397
0.0065581168
-0.0019307866
0.0088303758
-0.0029011934
0.0099996345
-0.0038647282
0.010402104
-0.0047952538
0.010265698
-0.0056925943
0.0097121437
-0.0065685835
0.0087817231
-0.0074362013
0.0074616891
-0.0082998158
0.0057105345
-0.0091436912
0.0034771702
-0.0099273269
0.00071628226
-0.010543482
-0.0025653331
-0.010839321
-0.0063073343
-0.01058074
-0.010289685
-0.0094948032
-0.014032361
-0.0073884723
-0.01665576
-0.0044148818
-0.016814223
-0.0014349939
-0.013031282
-0.005009052
-0.00031243964
0.0031020049
-0.00098708875
0.0072327661
-0.001790482
0.009633769
-0.0025853093
0.010794462
-0.0033147486
0.011131543
-0.0039719797
0.010922929
-0.0045776762
0.01031784
-0.00516569
0.0093697369
-0.0057733984
0.0080693975
-0.0064336976
0.0063708336
-0.0071658576
0.0042093302
-0.007965168
0.0015155926
-0.0087710495
-0.0017594517
-0.0094579779
-0.0056204061
-0.0097896779
-0.0099579852
-0.00941363
-0.014408409
-0.0079361962
-0.018133194
-0.0052063675
-0.019544052
-0.001901398
-0.016336251
-0.0069104501
-0.00035953086
0.0034615357
-0.0010340522
0.0079072877
-0.0017217059
0.010321423
-0.0022854739
0.01135823
-0.0026969036
0.011542973
-0.0029807855
0.011206811
-0.0031855756
0.01052263
-0.0033696223
0.0095537835
-0.003594182
0.0082939572
-0.0039190351
0.0066956867
-0.0043968976
0.0046871927
-0.0050645188
0.0021832138
-0.0059196741
-0.00090429649
-0.0068961467
-0.0046439336
-0.0078079298
-0.0090462022
-0.0082889762
-0.013927363
-0.0077824127
-0.018639758
-0.0057562876
-0.021570178
-0.002437032
-0.019655506
-0.0093474823
-0.00051251936
0.0039740551
-0.001258086
0.0086528545
-0.0018178492
0.010881186
-0.0020792871
0.011619668
-0.0020720672
0.011535753
-0.0018717163
0.011006459
-0.0015633779
0.010214291
-0.001232122
0.0092225275
-0.00096024445
0.0080220795
-0.0008289367
0.006564379
-0.00091711172
0.0047753679
-0.0012983374
0.0025644395
-0.0020301681
-0.00017246569
-0.0031244883
-0.0035496135
-0.0044965655
-0.0076741252
-0.0058562131
-0.012567716
-0.0065855262
-0.017910445
-0.005778063
-0.022377641
-0.0029534479
-0.022480122
-0.01230093
-0.00087295788
0.004847013
-0.0017761544
0.0095560511
-0.0021450397
0.011250071
-0.0019710194
0.011445648
-0.0013943901
0.010959124
-0.00056694821
0.010179017
0.00038119905
0.0092661439
0.0013411873
0.008262539
0.0022135648
0.0071497019
0.0029035981
0.0058743458
0.0033147846
0.0043641814
0.003346377
0.0025328473
0.0028926956
0.00028121575
0.0018687133
-0.0025256312
0.00023431545
-0.0060397273
-0.0018831459
-0.010450254
-0.0039728719
-0.015820719
-0.0048728354
-0.021477677
-0.003258408
-0.024094549
-0.015559338
-0.0015944992
0.0064415122
-0.0026219958
0.010583548
-0.0025341054
0.011162181
-0.0016211146
0.010532657
-0.00021265369
0.009550663
0.0014447786
0.0085215851
0.0031797846
0.0075311378
0.0048675394
0.006574784
0.0064071656
0.0056100754
0.0077036603
0.004577851
0.0086572995
0.0034105421
0.0091560117
0.0020341351
0.0090631867
0.0003740408
0.0082402543
-0.0017026988
0.0065358767
-0.0043353497
0.003880117
-0.0077944946
0.00054125027
-0.012481852
-0.0024794587
-0.018456968
-0.0030316081
-0.0235424
-0.018590946
-0.0027196674
0.0091611795
-0.0031556256
0.011019506
-0.0018159904
0.0098225452
0.0004452336
0.0082714328
0.0030595257
0.0069363706
0.0057366326
0.005844478
0.0083202815
0.0049474887
0.010714607
0.0041804583
0.012846922
0.0034777604
0.014645558
0.0027792147
0.016026584
0.0020295168
0.016886152
0.0011745672
0.017088014
0.00017217878
0.016464614
-0.0010792985
0.014795728
-0.0026664641
0.011829957
-0.0048287239
0.0074226064
-0.0080745014
0.0022544491
-0.013288811
-0.0012763622
-0.020011588
-0.019867309
-0.0024121788
0.011573358
2.8374956e-05
0.0085789531
0.0042521427
0.0055987776
0.0084075695
0.0041160062
0.012216337
0.003127603
0.01563468
0.0024261354
0.018659629
0.0019225398
0.021298687
0.0015414003
0.023551496
0.0012249508
0.025397877
0.00093283375
0.026791402
0.0006359917
0.027652568
0.00031340139
0.027879689
-5.4942166e-05
0.027331783
-0.00053139315
0.02576058
-0.0010952608
0.022835325
-0.0019034694
0.018049329
-0.0032885057
0.011109988
-0.0063494694
0.0033871553
-0.012288756
-0.016480154
0.011573358
0.020152311
0.025751088
0.029867095
0.032994698
0.035420833
0.037343373
0.038884773
0.040109724
0.041042558
0.041678549
0.04199195
0.041937008
0.041405615
0.040310354
0.038406885
0.035118379
0.028768909
0.016480154
)
;

boundaryField
{
    movingWall
    {
        type            calculated;
        value           uniform 0;
    }
    fixedWalls
    {
        type            calculated;
        value           uniform 0;
    }
    frontAndBack
    {
        type            empty;
        value           nonuniform List<scalar> 0();
    }
}


// ************************************************************************* //
