/*--------------------------------*- C++ -*----------------------------------*\
| =========                 |                                                 |
| \\      /  F ield         | OpenFOAM: The Open Source CFD Toolbox           |
|  \\    /   O peration     | Version:  2112                                  |
|   \\  /    A nd           | Website:  www.openfoam.com                      |
|    \\/     M anipulation  |                                                 |
\*---------------------------------------------------------------------------*/
FoamFile
{
    version     2.0;
    format      ascii;
    arch        "LSB;label=32;scalar=64";
    class       volVectorField;
    location    "10";
    object      U;
}
// * * * * * * * * * * * * * * * * * * * * * * * * * * * * * * * * * * * * * //

dimensions      [0 1 -1 0 0 0 0];

internalField   nonuniform List<vector> 
400
(
(0.00028056625 -0.00027742356 0)
(0.00010472539 8.1262848e-05 0)
(-0.0013240784 0.00047568048 0)
(-0.003600768 0.00073093163 0)
(-0.0063792417 0.00086096654 0)
(-0.0093614188 0.00089997084 0)
(-0.012292505 0.00086752323 0)
(-0.014938313 0.00076494863 0)
(-0.017059354 0.0005836375 0)
(-0.018408893 0.00031795218 0)
(-0.018760348 -2.3467958e-05 0)
(-0.017956847 -0.00041321229 0)
(-0.015973808 -0.0007915121 0)
(-0.012973197 -0.0010831087 0)
(-0.0093232139 -0.0012114869 0)
(-0.0055635917 -0.0011221607 0)
(-0.0023068553 -0.00080954996 0)
(-9.7691886e-05 -0.00033893381 0)
(0.00074827616 0.00014791045 0)
(0.00040524424 0.00038527054 0)
(-8.6867587e-05 -0.00011739137 0)
(-0.0018571894 0.0017772364 0)
(-0.0062565448 0.0035982608 0)
(-0.012347606 0.0048221315 0)
(-0.019430755 0.0054513801 0)
(-0.026869434 0.0055718746 0)
(-0.034057604 0.0052404282 0)
(-0.040414181 0.0044669787 0)
(-0.045366655 0.0032420956 0)
(-0.048369397 0.001583212 0)
(-0.048970243 -0.00042163 0)
(-0.046892832 -0.0025844495 0)
(-0.042148277 -0.004614782 0)
(-0.035129873 -0.0061604547 0)
(-0.026624022 -0.0068800835 0)
(-0.017743509 -0.0065456896 0)
(-0.0097462986 -0.0051516543 0)
(-0.003748531 -0.0029920879 0)
(-0.00040012774 -0.00067492838 0)
(0.00028435411 0.00077171041 0)
(-0.00058313532 0.0014277831 0)
(-0.0042034357 0.0063265768 0)
(-0.011646731 0.010547881 0)
(-0.021263666 0.01336298 0)
(-0.032058492 0.014764473 0)
(-0.043177842 0.014884053 0)
(-0.053784413 0.013816401 0)
(-0.063065242 0.011590862 0)
(-0.070230535 0.0082262266 0)
(-0.074547221 0.0038209075 0)
(-0.075417644 -0.0013621213 0)
(-0.072489061 -0.0068431942 0)
(-0.065779885 -0.011940993 0)
(-0.055784332 -0.015848593 0)
(-0.043505466 -0.017792204 0)
(-0.030397951 -0.017253041 0)
(-0.018165096 -0.014204226 0)
(-0.0083903269 -0.009274698 0)
(-0.0021513602 -0.0037647118 0)
(-5.4341581e-06 0.00030010056 0)
(-0.0010419309 0.0042658045 0)
(-0.0064472573 0.013442899 0)
(-0.016825353 0.020670533 0)
(-0.029729092 0.025324263 0)
(-0.043864141 0.027507898 0)
(-0.058218299 0.027442493 0)
(-0.071808013 0.025273414 0)
(-0.083679638 0.021057206 0)
(-0.092907537 0.014855825 0)
(-0.098627563 0.0068743095 0)
(-0.10011904 -0.0024155448 0)
(-0.09691588 -0.012209492 0)
(-0.08894301 -0.021371133 0)
(-0.076653035 -0.028553534 0)
(-0.061108932 -0.032433299 0)
(-0.043988675 -0.032062401 0)
(-0.027411964 -0.027273679 0)
(-0.013517374 -0.018988304 0)
(-0.0040124759 -0.0092499595 0)
(-0.00026879435 -0.0011235386 0)
(-0.0014394508 0.0082866135 0)
(-0.0084576913 0.022958484 0)
(-0.02152116 0.03372609 0)
(-0.03741229 0.040380458 0)
(-0.05455895 0.043303651 0)
(-0.07183408 0.042882443 0)
(-0.088172991 0.039340127 0)
(-0.10255204 0.032765694 0)
(-0.11396859 0.023259311 0)
(-0.12145768 0.011118826 0)
(-0.12416313 -0.0029957265 0)
(-0.12143457 -0.01796572 0)
(-0.11297749 -0.032192274 0)
(-0.09904305 -0.043725861 0)
(-0.080591727 -0.050550229 0)
(-0.059418646 -0.051067404 0)
(-0.038073707 -0.044727049 0)
(-0.019416561 -0.032582382 0)
(-0.0060632167 -0.017428323 0)
(-0.00050966376 -0.0035276835 0)
(-0.0017690472 0.013341698 0)
(-0.010163064 0.03461754 0)
(-0.025548247 0.049428957 0)
(-0.044038905 0.058247001 0)
(-0.063830389 0.061900598 0)
(-0.083725287 0.061032933 0)
(-0.10263476 0.055981663 0)
(-0.11952562 0.046869307 0)
(-0.1333684 0.033808469 0)
(-0.14312124 0.01713902 0)
(-0.14777439 -0.0023581057 0)
(-0.1464255 -0.023299728 0)
(-0.13843794 -0.043677594 0)
(-0.12368671 -0.060894685 0)
(-0.1028302 -0.072070961 0)
(-0.077614916 -0.074644138 0)
(-0.050978597 -0.067280539 0)
(-0.026665421 -0.050844402 0)
(-0.0085672632 -0.028839419 0)
(-0.00078317977 -0.0070399299 0)
(-0.002021118 0.019241597 0)
(-0.011495061 0.048055288 0)
(-0.028731381 0.067355173 0)
(-0.049321435 0.078506291 0)
(-0.071287493 0.082936657 0)
(-0.093407375 0.081638243 0)
(-0.11462183 0.075104086 0)
(-0.13394666 0.063488721 0)
(-0.15038115 0.046877386 0)
(-0.16284529 0.025576401 0)
(-0.17016881 0.0003800234 0)
(-0.17117896 -0.0272005 0)
(-0.1648189 -0.054826321 0)
(-0.15040213 -0.079265474 0)
(-0.12804389 -0.096625417 0)
(-0.09916776 -0.10300383 0)
(-0.066904126 -0.095701712 0)
(-0.035936888 -0.074810618 0)
(-0.011868257 -0.044331099 0)
(-0.0011640408 -0.011962788 0)
(-0.0021821439 0.025758392 0)
(-0.012383098 0.062818963 0)
(-0.030896604 0.086963279 0)
(-0.05295369 0.10060631 0)
(-0.076464935 0.10590319 0)
(-0.10022562 0.10428374 0)
(-0.12325668 0.096441974 0)
(-0.14468239 0.082566048 0)
(-0.16359591 0.062670435 0)
(-0.17894732 0.036938908 0)
(-0.18948128 0.0060423029 0)
(-0.19377094 -0.028567026 0)
(-0.19030613 -0.064365274 0)
(-0.17773642 -0.097601014 0)
(-0.15537328 -0.12331558 0)
(-0.12392172 -0.13591096 0)
(-0.086274536 -0.13058086 0)
(-0.047850177 -0.10567717 0)
(-0.016351734 -0.065084181 0)
(-0.0017435979 -0.018804302 0)
(-0.0022411408 0.032626782 0)
(-0.012774013 0.078378094 0)
(-0.031905072 0.10759688 0)
(-0.054660274 0.12383885 0)
(-0.078891441 0.13008906 0)
(-0.10344644 0.12830138 0)
(-0.1274728 0.11942479 0)
(-0.15026481 0.10369473 0)
(-0.17108979 0.0810222 0)
(-0.18903114 0.051382364 0)
(-0.2028721 0.015179416 0)
(-0.21104438 -0.026376065 0)
(-0.2116681 -0.070828141 0)
(-0.20271942 -0.11416385 0)
(-0.18249911 -0.15048713 0)
(-0.15053516 -0.17230627 0)
(-0.10879596 -0.1719243 0)
(-0.062796602 -0.14453902 0)
(-0.022433555 -0.092555996 0)
(-0.0026448202 -0.028303925 0)
(-0.0022010299 0.039562098 0)
(-0.012670646 0.094154404 0)
(-0.031722055 0.12850094 0)
(-0.054293628 0.14732855 0)
(-0.078217569 0.15453768 0)
(-0.10242418 0.1526942 0)
(-0.12623114 0.14306881 0)
(-0.14916464 0.12597909 0)
(-0.17075592 0.10122794 0)
(-0.19035038 0.06852845 0)
(-0.20693605 0.027902547 0)
(-0.21899591 -0.01988134 0)
(-0.22450832 -0.072741236 0)
(-0.22092555 -0.12680247 0)
(-0.20547387 -0.17561866 0)
(-0.17611199 -0.20994089 0)
(-0.13303289 -0.21860701 0)
(-0.080679594 -0.19191769 0)
(-0.030542835 -0.12831502 0)
(-0.0040517859 -0.041467468 0)
(-0.0020943149 0.046306119 0)
(-0.012184769 0.10959056 0)
(-0.030510402 0.14887373 0)
(-0.05196234 0.17005717 0)
(-0.07438224 0.17804689 0)
(-0.096820182 0.17611655 0)
(-0.11881248 0.1659385 0)
(-0.14017815 0.14797089 0)
(-0.16079795 0.12194136 0)
(-0.18040769 0.087301232 0)
(-0.19839107 0.043642364 0)
(-0.21352808 -0.008868872 0)
(-0.22398884 -0.068969316 0)
(-0.22702204 -0.13327328 0)
(-0.21897608 -0.19547565 0)
(-0.19609996 -0.24520292 0)
(-0.15602485 -0.26781359 0)
(-0.10053448 -0.24706519 0)
(-0.041050845 -0.17369601 0)
(-0.0062488398 -0.059609812 0)
(-0.0020064714 0.052710222 0)
(-0.011606019 0.12426584 0)
(-0.028738647 0.16795704 0)
(-0.048165589 0.19092409 0)
(-0.067776466 0.19921554 0)
(-0.086814692 0.1969219 0)
(-0.10510619 0.18620029 0)
(-0.12282506 0.16771919 0)
(-0.14026644 0.14119264 0)
(-0.15764082 0.10585611 0)
(-0.17488499 0.060874385 0)
(-0.19146251 0.0057340333 0)
(-0.20595858 -0.059256765 0)
(-0.21579927 -0.13181704 0)
(-0.21710075 -0.20663671 0)
(-0.2046648 -0.27335004 0)
(-0.1731561 -0.31471616 0)
(-0.1200896 -0.30714159 0)
(-0.054073695 -0.22917937 0)
(-0.0096518351 -0.084378349 0)
(-0.0021185184 0.058872571 0)
(-0.011500173 0.13805972 0)
(-0.027296484 0.18514953 0)
(-0.043898781 0.20882256 0)
(-0.059340439 0.21651847 0)
(-0.073216824 0.21326489 0)
(-0.085764005 0.20176502 0)
(-0.097584077 0.18295078 0)
(-0.10943084 0.15658823 0)
(-0.1220373 0.12177695 0)
(-0.13596576 0.077326732 0)
(-0.1514151 0.022100356 0)
(-0.16780166 -0.044501412 0)
(-0.18334708 -0.12181915 0)
(-0.1945478 -0.20636322 0)
(-0.19558156 -0.28929154 0)
(-0.17847813 -0.3527117 0)
(-0.13544845 -0.36657065 0)
(-0.069057792 -0.29344183 0)
(-0.014775104 -0.11767333 0)
(-0.0027939929 0.065367783 0)
(-0.012865491 0.15135267 0)
(-0.02760331 0.20009594 0)
(-0.040667066 0.22267708 0)
(-0.050487107 0.22835564 0)
(-0.057321522 0.22320074 0)
(-0.062011492 0.21045494 0)
(-0.06567495 0.19130637 0)
(-0.069537217 0.16560258 0)
(-0.074825202 0.1323934 0)
(-0.082687355 0.09027676 0)
(-0.094062742 0.037660328 0)
(-0.10936691 -0.026927698 0)
(-0.12803466 -0.10437799 0)
(-0.1477611 -0.1935987 0)
(-0.16335612 -0.28883902 0)
(-0.16545746 -0.37441102 0)
(-0.14107731 -0.41700894 0)
(-0.084090871 -0.3621685 0)
(-0.022001433 -0.16125329 0)
(-0.0047505374 0.073661669 0)
(-0.017374426 0.16523128 0)
(-0.031625313 0.21264933 0)
(-0.040217641 0.23133506 0)
(-0.042593716 0.23297655 0)
(-0.040210284 0.2246821 0)
(-0.034787442 0.21008239 0)
(-0.028055347 0.19050158 0)
(-0.021691742 0.16581675 0)
(-0.017326514 0.13506815 0)
(-0.01656952 0.096771736 0)
(-0.020976181 0.049111558 0)
(-0.031905543 -0.009925322 0)
(-0.050138288 -0.082415637 0)
(-0.075196197 -0.16965088 0)
(-0.10393417 -0.27002515 0)
(-0.12773709 -0.37320709 0)
(-0.13001628 -0.44816696 0)
(-0.095008368 -0.42699365 0)
(-0.030936654 -0.21583382 0)
(-0.0093304127 0.086868651 0)
(-0.027590367 0.18153313 0)
(-0.04134626 0.22250963 0)
(-0.043260363 0.23315212 0)
(-0.035184663 0.22815405 0)
(-0.02056756 0.21535143 0)
(-0.0023050313 0.19834931 0)
(0.017203485 0.17831121 0)
(0.035898699 0.15501779 0)
(0.051894081 0.12746953 0)
(0.063304711 0.094192047 0)
(0.06818319 0.053372172 0)
(0.064452982 0.0028718236 0)
(0.050179599 -0.059926395 0)
(0.023877971 -0.13799587 0)
(-0.014347933 -0.23383481 0)
(-0.059258424 -0.34485882 0)
(-0.093839169 -0.44921914 0)
(-0.094607765 -0.47524409 0)
(-0.039239286 -0.28025101 0)
(-0.018601205 0.11087002 0)
(-0.046168879 0.20162571 0)
(-0.055547081 0.2276154 0)
(-0.044507966 0.22459001 0)
(-0.02009262 0.21015116 0)
(0.011445228 0.19185568 0)
(0.045980182 0.17245336 0)
(0.080664378 0.15244838 0)
(0.11332051 0.1312879 0)
(0.14205443 0.10786677 0)
(0.16497455 0.080778573 0)
(0.18002284 0.048382151 0)
(0.1847196 0.0087621464 0)
(0.17641579 -0.04050394 0)
(0.15211597 -0.10289722 0)
(0.10895109 -0.18368146 0)
(0.046805773 -0.28837897 0)
(-0.02174267 -0.41034588 0)
(-0.072394837 -0.49083364 0)
(-0.041178951 -0.35039708 0)
(-0.033353133 0.1556638 0)
(-0.068658414 0.22037802 0)
(-0.055370536 0.21715089 0)
(-0.016420626 0.1950881 0)
(0.033999875 0.17064199 0)
(0.08783801 0.14822011 0)
(0.14097008 0.12838627 0)
(0.1910828 0.11042749 0)
(0.23661357 0.093238272 0)
(0.27619923 0.075607192 0)
(0.30834523 0.056293687 0)
(0.33125088 0.033995108 0)
(0.3424859 0.0072330076 0)
(0.33924881 -0.025705776 0)
(0.31766084 -0.067564339 0)
(0.27290221 -0.12397657 0)
(0.20015341 -0.20576657 0)
(0.10192759 -0.32500847 0)
(-0.012497027 -0.45450601 0)
(-0.023784726 -0.40858228 0)
(-0.03306615 0.23912164 0)
(-0.04262159 0.21795217 0)
(0.042191186 0.16423903 0)
(0.12749565 0.12775153 0)
(0.20746703 0.10131674 0)
(0.27991821 0.081532606 0)
(0.34438894 0.066539609 0)
(0.40100672 0.054628678 0)
(0.44992131 0.044368617 0)
(0.49098136 0.034654011 0)
(0.52355455 0.024603858 0)
(0.54644685 0.013462617 0)
(0.55776782 0.000492176 0)
(0.55534914 -0.015044316 0)
(0.53526221 -0.034889376 0)
(0.49226316 -0.062433369 0)
(0.41784704 -0.10692142 0)
(0.30401904 -0.19316695 0)
(0.12308745 -0.33691368 0)
(0.052357704 -0.39437415 0)
(0.24301642 0.1525916 0)
(0.30534252 0.11856631 0)
(0.4548642 0.076117534 0)
(0.56003316 0.050833274 0)
(0.63220068 0.035106777 0)
(0.68644483 0.024787674 0)
(0.72926416 0.017937252 0)
(0.76356794 0.013240353 0)
(0.79102042 0.0097570455 0)
(0.81248897 0.0068602853 0)
(0.82817019 0.004133702 0)
(0.8377437 0.0012977203 0)
(0.84042441 -0.0018262399 0)
(0.83488887 -0.0053075419 0)
(0.81882856 -0.009812442 0)
(0.78942389 -0.016222627 0)
(0.73785438 -0.026932777 0)
(0.6531791 -0.051288594 0)
(0.4561024 -0.11375008 0)
(0.31789003 -0.17206348 0)
)
;

boundaryField
{
    movingWall
    {
        type            fixedValue;
        value           uniform (1 0 0);
    }
    fixedWalls
    {
        type            fixedValue;
        value           uniform (0 0 0);
    }
    frontAndBack
    {
        type            empty;
    }
}


// ************************************************************************* //
