/*--------------------------------*- C++ -*----------------------------------*\
| =========                 |                                                 |
| \\      /  F ield         | OpenFOAM: The Open Source CFD Toolbox           |
|  \\    /   O peration     | Version:  2112                                  |
|   \\  /    A nd           | Website:  www.openfoam.com                      |
|    \\/     M anipulation  |                                                 |
\*---------------------------------------------------------------------------*/
FoamFile
{
    version     2.0;
    format      ascii;
    arch        "LSB;label=32;scalar=64";
    class       volVectorField;
    location    "10";
    object      U_0;
}
// * * * * * * * * * * * * * * * * * * * * * * * * * * * * * * * * * * * * * //

dimensions      [0 1 -1 0 0 0 0];

internalField   nonuniform List<vector> 
400
(
(0.00028061346 -0.00027733362 0)
(0.00010480961 8.1295881e-05 0)
(-0.0013239823 0.00047567989 0)
(-0.0036005949 0.00073091105 0)
(-0.0063789557 0.00086093539 0)
(-0.009361002 0.00089993477 0)
(-0.012291956 0.00086748592 0)
(-0.014937646 0.00076491476 0)
(-0.017058599 0.00058361283 0)
(-0.018408094 0.00031794226 0)
(-0.018759561 -2.345913e-05 0)
(-0.017956132 -0.00041318359 0)
(-0.015973221 -0.00079146632 0)
(-0.012972776 -0.0010830533 0)
(-0.0093229707 -0.0012114327 0)
(-0.0055635073 -0.0011221196 0)
(-0.0023068841 -0.00080953052 0)
(-9.7767247e-05 -0.00033893755 0)
(0.0007482143 0.00014788795 0)
(0.00040522226 0.00038524988 0)
(-8.6846227e-05 -0.0001172419 0)
(-0.0018570678 0.0017772388 0)
(-0.0062562187 0.0035981415 0)
(-0.012346989 0.0048219326 0)
(-0.019429795 0.0054511379 0)
(-0.026868114 0.0055716202 0)
(-0.034055943 0.0052401887 0)
(-0.040412236 0.0044667821 0)
(-0.045364513 0.00324197 0)
(-0.048367178 0.0015831816 0)
(-0.04896808 -0.00042155083 0)
(-0.046890862 -0.0025842627 0)
(-0.04214662 -0.0046145085 0)
(-0.035128607 -0.0061601338 0)
(-0.026623175 -0.0068797678 0)
(-0.017743047 -0.0065454331 0)
(-0.009746134 -0.0051514979 0)
(-0.003748539 -0.0029920443 0)
(-0.0004001871 -0.00067497567 0)
(0.00028432488 0.00077164998 0)
(-0.00058309597 0.0014278286 0)
(-0.0042031911 0.0063263561 0)
(-0.011646088 0.010547416 0)
(-0.021262519 0.013362353 0)
(-0.032056793 0.014763767 0)
(-0.043175592 0.014883346 0)
(-0.053781663 0.013815764 0)
(-0.063062093 0.011590366 0)
(-0.070227127 0.0082259365 0)
(-0.074543731 0.0038208731 0)
(-0.075414259 -0.0013618773 0)
(-0.072485965 -0.0068426868 0)
(-0.065777235 -0.011940279 0)
(-0.055782235 -0.015847765 0)
(-0.043503965 -0.017791382 0)
(-0.030397015 -0.017252347 0)
(-0.018164626 -0.014203756 0)
(-0.0083901734 -0.009274489 0)
(-0.0021513596 -0.0037647222 0)
(-5.4523912e-06 0.00030001458 0)
(-0.0010418631 0.0042656741 0)
(-0.0064468718 0.013442281 0)
(-0.016824386 0.020669522 0)
(-0.029727429 0.025323008 0)
(-0.043861751 0.027506547 0)
(-0.058215208 0.027441181 0)
(-0.07180431 0.025272268 0)
(-0.08367546 0.021056345 0)
(-0.092903067 0.014855351 0)
(-0.098623012 0.0068742969 0)
(-0.10011463 -0.0024150717 0)
(-0.096911818 -0.012208568 0)
(-0.088939474 -0.021369856 0)
(-0.076650157 -0.028552057 0)
(-0.061106776 -0.032431814 0)
(-0.043987232 -0.032061107 0)
(-0.027411145 -0.027272739 0)
(-0.013517022 -0.018987798 0)
(-0.004012399 -0.0092498414 0)
(-0.00026879965 -0.0011236153 0)
(-0.0014393565 0.0082862349 0)
(-0.0084571827 0.022957318 0)
(-0.021519923 0.033724362 0)
(-0.03741021 0.040378414 0)
(-0.054556016 0.043301517 0)
(-0.071830347 0.042880422 0)
(-0.088168577 0.039338402 0)
(-0.10254711 0.032764431 0)
(-0.11396335 0.023258645 0)
(-0.12145236 0.011118847 0)
(-0.12415795 -0.0029949961 0)
(-0.12142975 -0.017964337 0)
(-0.11297323 -0.032190373 0)
(-0.099039488 -0.043723649 0)
(-0.08058896 -0.050547968 0)
(-0.059416701 -0.051065371 0)
(-0.038072524 -0.04472549 0)
(-0.019415995 -0.032581438 0)
(-0.0060630571 -0.017427973 0)
(-0.00050965571 -0.0035277081 0)
(-0.0017689357 0.013341013 0)
(-0.010162477 0.034615717 0)
(-0.02554684 0.04942639 0)
(-0.044036572 0.058244061 0)
(-0.063827136 0.061897599 0)
(-0.083721194 0.061030146 0)
(-0.10262996 0.055979325 0)
(-0.1195203 0.046867624 0)
(-0.13336277 0.033807602 0)
(-0.14311551 0.017139064 0)
(-0.1477688 -0.0023571348 0)
(-0.14642024 -0.023297896 0)
(-0.1384332 -0.043675066 0)
(-0.12368263 -0.060891711 0)
(-0.10282693 -0.072067857 0)
(-0.077612519 -0.074641261 0)
(-0.050977063 -0.067278224 0)
(-0.026664638 -0.050842881 0)
(-0.0085670175 -0.02883873 0)
(-0.00078315803 -0.0070398593 0)
(-0.0020210017 0.019240574 0)
(-0.011494454 0.048052754 0)
(-0.028729938 0.067351718 0)
(-0.049319058 0.078502417 0)
(-0.071284206 0.082932773 0)
(-0.093403271 0.081634688 0)
(-0.11461706 0.075101144 0)
(-0.1339414 0.063486629 0)
(-0.1503756 0.046876318 0)
(-0.16283963 0.025576455 0)
(-0.17016324 0.00038120591 0)
(-0.17117365 -0.02719827 0)
(-0.16481402 -0.054823224 0)
(-0.15039784 -0.07926178 0)
(-0.12804032 -0.096621477 0)
(-0.099165031 -0.10300006 0)
(-0.066902292 -0.095698541 0)
(-0.035935898 -0.074808394 0)
(-0.011867923 -0.044329964 0)
(-0.0011640038 -0.011962575 0)
(-0.0021820377 0.025757038 0)
(-0.012382541 0.062815737 0)
(-0.030895276 0.086958964 0)
(-0.052951506 0.10060154 0)
(-0.076461926 0.10589848 0)
(-0.10022189 0.10427947 0)
(-0.12325237 0.096438483 0)
(-0.14467766 0.082563589 0)
(-0.16359094 0.062669185 0)
(-0.17894227 0.036938958 0)
(-0.18947629 0.0060436467 0)
(-0.19376612 -0.028564491 0)
(-0.19030161 -0.064361728 0)
(-0.17773232 -0.097596724 0)
(-0.15536974 -0.12331091 0)
(-0.12391888 -0.13590633 0)
(-0.086272515 -0.1305768 0)
(-0.047849017 -0.10567415 0)
(-0.016351313 -0.065082503 0)
(-0.0017435432 -0.018803899 0)
(-0.0022410596 0.032625145 0)
(-0.012773575 0.07837427 0)
(-0.031904013 0.10759182 0)
(-0.054658521 0.12383331 0)
(-0.078889025 0.13008363 0)
(-0.10344345 0.12829653 0)
(-0.12746938 0.11942086 0)
(-0.15026111 0.10369199 0)
(-0.17108594 0.081020816 0)
(-0.18902725 0.051382404 0)
(-0.20286826 0.015180852 0)
(-0.21104065 -0.026373349 0)
(-0.21166452 -0.070824317 0)
(-0.20271605 -0.11415917 0)
(-0.18249604 -0.15048192 0)
(-0.15053254 -0.17230096 0)
(-0.10879396 -0.17191943 0)
(-0.062795355 -0.1445352 0)
(-0.02243306 -0.092553706 0)
(-0.0026447445 -0.028303282 0)
(-0.0022009869 0.039560263 0)
(-0.012670389 0.094150146 0)
(-0.031721401 0.12849533 0)
(-0.054292517 0.14732244 0)
(-0.078216025 0.15453175 0)
(-0.10242229 0.15268894 0)
(-0.12622901 0.1430646 0)
(-0.14916239 0.1259762 0)
(-0.17075365 0.10122651 0)
(-0.19034817 0.068528513 0)
(-0.20693391 0.02790404 0)
(-0.21899382 -0.019878556 0)
(-0.22450625 -0.072737322 0)
(-0.22092347 -0.12679765 0)
(-0.20547179 -0.17561322 0)
(-0.17611001 -0.20993518 0)
(-0.13303118 -0.21860155 0)
(-0.080678402 -0.19191315 0)
(-0.030542299 -0.12831211 0)
(-0.0040516877 -0.041466546 0)
(-0.0020943187 0.0463042 0)
(-0.012184736 0.10958609 0)
(-0.030510255 0.14886783 0)
(-0.051962031 0.17005075 0)
(-0.074381779 0.17804069 0)
(-0.096819629 0.17611111 0)
(-0.11881192 0.16593422 0)
(-0.14017766 0.14796801 0)
(-0.16079758 0.12194 0)
(-0.18040748 0.087301388 0)
(-0.19839099 0.043643939 0)
(-0.21352801 -0.0088660401 0)
(-0.22398869 -0.068965473 0)
(-0.22702169 -0.1332686 0)
(-0.21897545 -0.19547034 0)
(-0.19609905 -0.24519722 0)
(-0.15602379 -0.26780791 0)
(-0.10053355 -0.24706018 0)
(-0.04105033 -0.17369254 0)
(-0.0062487222 -0.059608592 0)
(-0.0020065254 0.052708354 0)
(-0.011606234 0.12426143 0)
(-0.028739061 0.16795116 0)
(-0.048166171 0.19091768 0)
(-0.067777203 0.19920937 0)
(-0.086815607 0.19691654 0)
(-0.10510731 0.18619613 0)
(-0.12282644 0.16771648 0)
(-0.14026807 0.14119147 0)
(-0.15764267 0.10585641 0)
(-0.17488697 0.060876027 0)
(-0.19146455 0.0057367943 0)
(-0.2059605 -0.059253152 0)
(-0.21580085 -0.13181275 0)
(-0.21710182 -0.20663187 0)
(-0.20466526 -0.27334478 0)
(-0.17315599 -0.31471072 0)
(-0.12008916 -0.30713649 0)
(-0.054073296 -0.22917555 0)
(-0.0096517101 -0.084376853 0)
(-0.0021186202 0.058870894 0)
(-0.011500631 0.13805564 0)
(-0.027297458 0.18514399 0)
(-0.043900256 0.20881648 0)
(-0.059342375 0.21651262 0)
(-0.073219194 0.21325984 0)
(-0.085766783 0.20176118 0)
(-0.097587231 0.18294837 0)
(-0.10943432 0.15658731 0)
(-0.12204102 0.12177743 0)
(-0.13596961 0.077328416 0)
(-0.15141895 0.022102965 0)
(-0.16780534 -0.044498108 0)
(-0.18335037 -0.12181537 0)
(-0.19455048 -0.20635907 0)
(-0.19558344 -0.28928707 0)
(-0.17847912 -0.35270695 0)
(-0.13544868 -0.36656594 0)
(-0.069057622 -0.29343797 0)
(-0.014774995 -0.11767164 0)
(-0.0027941349 0.065366428 0)
(-0.012866162 0.15134918 0)
(-0.027604784 0.20009107 0)
(-0.040669348 0.22267164 0)
(-0.050490125 0.22835036 0)
(-0.05732519 0.22319622 0)
(-0.062015709 0.21045156 0)
(-0.065679603 0.19130434 0)
(-0.069542183 0.16560194 0)
(-0.074830351 0.13239405 0)
(-0.082692553 0.090278473 0)
(-0.094067851 0.037662819 0)
(-0.10937178 -0.02692471 0)
(-0.12803911 -0.10437474 0)
(-0.14776493 -0.19359532 0)
(-0.16335911 -0.28883551 0)
(-0.16545945 -0.37440728 0)
(-0.14107826 -0.41700504 0)
(-0.08409103 -0.362165 0)
(-0.022001377 -0.16125155 0)
(-0.0047507045 0.073660742 0)
(-0.017375246 0.16522861 0)
(-0.031627154 0.2126454 0)
(-0.04022053 0.23133053 0)
(-0.042597557 0.23297209 0)
(-0.040214933 0.22467824 0)
(-0.034792721 0.21007952 0)
(-0.028061064 0.19049991 0)
(-0.021697703 0.16581631 0)
(-0.017332538 0.13506884 0)
(-0.016575447 0.096773365 0)
(-0.020981878 0.049113841 0)
(-0.031910895 -0.0099226816 0)
(-0.050143191 -0.082412902 0)
(-0.075200521 -0.16964821 0)
(-0.10393774 -0.27002256 0)
(-0.12773971 -0.37320444 0)
(-0.13001781 -0.44816413 0)
(-0.095008875 -0.42699087 0)
(-0.030936686 -0.21583222 0)
(-0.0093305768 0.086868208 0)
(-0.027591221 0.18153141 0)
(-0.04134823 0.2225068 0)
(-0.043263504 0.23314868 0)
(-0.035188878 0.22815055 0)
(-0.020572673 0.21534834 0)
(-0.0023108062 0.19834698 0)
(0.017197298 0.17830984 0)
(0.035892342 0.15501743 0)
(0.051887784 0.12747013 0)
(0.063298655 0.094193433 0)
(0.068177508 0.053374109 0)
(0.064447764 0.002874041 0)
(0.050174891 -0.059924158 0)
(0.023873819 -0.13799381 0)
(-0.01435144 -0.23383299 0)
(-0.059261163 -0.34485713 0)
(-0.093840951 -0.4492174 0)
(-0.094608512 -0.47524222 0)
(-0.039239411 -0.28024975 0)
(-0.018601317 0.11087002 0)
(-0.046169575 0.2016249 0)
(-0.055548793 0.2276137 0)
(-0.044510793 0.2245877 0)
(-0.020096513 0.21014867 0)
(0.011440426 0.19185339 0)
(0.045974702 0.17245157 0)
(0.080658479 0.15244727 0)
(0.11331446 0.13128755 0)
(0.14204848 0.10786716 0)
(0.1649689 0.080779587 0)
(0.18001765 0.048383615 0)
(0.18471496 0.0087638426 0)
(0.17641173 -0.04050224 0)
(0.15211248 -0.10289571 0)
(0.10894817 -0.18368024 0)
(0.046803413 -0.28837801 0)
(-0.021744318 -0.41034498 0)
(-0.072395606 -0.49083265 0)
(-0.041179122 -0.35039629 0)
(-0.033353138 0.15566407 0)
(-0.068658719 0.22037789 0)
(-0.055371521 0.21715013 0)
(-0.016422471 0.19508683 0)
(0.033997115 0.17064047 0)
(0.087834392 0.14821862 0)
(0.14096576 0.12838505 0)
(0.19107801 0.11042668 0)
(0.23660855 0.093237951 0)
(0.27619425 0.075607366 0)
(0.30834051 0.056294297 0)
(0.33124659 0.033996041 0)
(0.34248216 0.0072341246 0)
(0.33924567 -0.025704664 0)
(0.31765828 -0.067563376 0)
(0.27290018 -0.12397585 0)
(0.20015181 -0.20576613 0)
(0.10192643 -0.32500814 0)
(-0.012497623 -0.45450565 0)
(-0.023784878 -0.40858196 0)
(-0.03306607 0.2391219 0)
(-0.042621451 0.21795235 0)
(0.042191104 0.16423889 0)
(0.12749507 0.12775108 0)
(0.20746579 0.1013161 0)
(0.27991626 0.081531927 0)
(0.34438633 0.066539023 0)
(0.40100361 0.054628276 0)
(0.44991791 0.044368451 0)
(0.49097791 0.034654088 0)
(0.52355127 0.024604149 0)
(0.54644393 0.013463058 0)
(0.55776536 0.00049267836 0)
(0.55534719 -0.015043811 0)
(0.53526079 -0.034888943 0)
(0.49226216 -0.062433071 0)
(0.41784635 -0.10692128 0)
(0.30401857 -0.1931669 0)
(0.12308717 -0.33691365 0)
(0.052357615 -0.39437413 0)
(0.24301651 0.15259169 0)
(0.30534277 0.11856644 0)
(0.45486449 0.076117586 0)
(0.56003329 0.050833237 0)
(0.63220051 0.035106673 0)
(0.68644428 0.024787541 0)
(0.72926323 0.017937129 0)
(0.76356671 0.013240269 0)
(0.79101903 0.0097570178 0)
(0.81248756 0.0068603176 0)
(0.82816889 0.0041337849 0)
(0.83774263 0.0012978343 0)
(0.84042362 -0.0018261422 0)
(0.83488841 -0.0053074408 0)
(0.81882836 -0.0098123535 0)
(0.78942387 -0.016222573 0)
(0.73785445 -0.026932761 0)
(0.65317916 -0.051288605 0)
(0.45610243 -0.11375011 0)
(0.31789003 -0.1720635 0)
)
;

boundaryField
{
    movingWall
    {
        type            fixedValue;
        value           uniform (1 0 0);
    }
    fixedWalls
    {
        type            fixedValue;
        value           uniform (0 0 0);
    }
    frontAndBack
    {
        type            empty;
    }
}


// ************************************************************************* //
