/*--------------------------------*- C++ -*----------------------------------*\
| =========                 |                                                 |
| \\      /  F ield         | OpenFOAM: The Open Source CFD Toolbox           |
|  \\    /   O peration     | Version:  2112                                  |
|   \\  /    A nd           | Website:  www.openfoam.com                      |
|    \\/     M anipulation  |                                                 |
\*---------------------------------------------------------------------------*/
FoamFile
{
    version     2.0;
    format      ascii;
    arch        "LSB;label=32;scalar=64";
    class       volScalarField;
    location    "2";
    object      T;
}
// * * * * * * * * * * * * * * * * * * * * * * * * * * * * * * * * * * * * * //

dimensions      [0 0 0 1 0 0 0];

internalField   nonuniform List<scalar> 
1000
(
0.00150077
0.00150094
0.0015013
0.00150185
0.00150257
0.00150349
0.00150459
0.00150588
0.00150737
0.00150904
0.00151092
0.00151299
0.00151526
0.00151774
0.00152042
0.0015233
0.0015264
0.0015297
0.00153322
0.00153695
0.0015409
0.00154507
0.00154946
0.00155407
0.00155891
0.00156398
0.00156928
0.00157481
0.00158058
0.00158659
0.00159283
0.00159932
0.00160606
0.00161304
0.00162027
0.00162776
0.0016355
0.0016435
0.00165176
0.00166028
0.00166908
0.00167814
0.00168747
0.00169707
0.00170696
0.00171712
0.00172757
0.00173831
0.00174933
0.00176065
0.00177226
0.00178417
0.00179638
0.0018089
0.00182172
0.00183486
0.0018483
0.00186207
0.00187616
0.00189057
0.00190531
0.00192037
0.00193578
0.00195152
0.0019676
0.00198402
0.0020008
0.00201792
0.00203541
0.00205325
0.00207145
0.00209002
0.00210896
0.00212827
0.00214796
0.00216803
0.00218849
0.00220934
0.00223058
0.00225221
0.00227425
0.0022967
0.00231955
0.00234282
0.00236651
0.00239062
0.00241515
0.00244012
0.00246552
0.00249136
0.00251765
0.00254438
0.00257157
0.00259921
0.00262732
0.00265589
0.00268494
0.00271446
0.00274446
0.00277495
0.00280593
0.0028374
0.00286938
0.00290186
0.00293485
0.00296835
0.00300238
0.00303693
0.00307201
0.00310763
0.00314379
0.00318049
0.00321775
0.00325556
0.00329394
0.00333288
0.0033724
0.0034125
0.00345318
0.00349445
0.00353631
0.00357878
0.00362186
0.00366555
0.00370985
0.00375479
0.00380035
0.00384655
0.00389339
0.00394088
0.00398902
0.00403783
0.0040873
0.00413745
0.00418827
0.00423978
0.00429198
0.00434489
0.00439849
0.00445281
0.00450784
0.0045636
0.00462009
0.00467732
0.00473529
0.00479401
0.00485349
0.00491373
0.00497475
0.00503654
0.00509912
0.00516249
0.00522666
0.00529163
0.00535742
0.00542403
0.00549146
0.00555973
0.00562884
0.0056988
0.00576962
0.0058413
0.00591385
0.00598728
0.0060616
0.00613681
0.00621292
0.00628993
0.00636787
0.00644673
0.00652652
0.00660724
0.00668892
0.00677155
0.00685514
0.0069397
0.00702525
0.00711177
0.0071993
0.00728782
0.00737735
0.00746791
0.00755948
0.0076521
0.00774575
0.00784046
0.00793623
0.00803306
0.00813097
0.00822996
0.00833004
0.00843123
0.00853352
0.00863694
0.00874147
0.00884715
0.00895396
0.00906193
0.00917105
0.00928135
0.00939282
0.00950548
0.00961933
0.00973438
0.00985065
0.00996813
0.0100868
0.0102068
0.010328
0.0104505
0.0105742
0.0106992
0.0108254
0.010953
0.0110819
0.011212
0.0113435
0.0114764
0.0116105
0.011746
0.0118828
0.0120211
0.0121606
0.0123016
0.0124439
0.0125877
0.0127328
0.0128794
0.0130274
0.0131768
0.0133277
0.01348
0.0136338
0.0137891
0.0139458
0.014104
0.0142637
0.0144249
0.0145877
0.0147519
0.0149177
0.015085
0.0152539
0.0154244
0.0155964
0.0157699
0.0159451
0.0161219
0.0163002
0.0164802
0.0166618
0.016845
0.0170299
0.0172164
0.0174046
0.0175944
0.0177859
0.0179791
0.018174
0.0183706
0.0185688
0.0187688
0.0189706
0.019174
0.0193792
0.0195862
0.0197949
0.0200053
0.0202176
0.0204316
0.0206474
0.0208651
0.0210845
0.0213057
0.0215288
0.0217537
0.0219804
0.022209
0.0224394
0.0226717
0.0229059
0.0231419
0.0233799
0.0236197
0.0238614
0.0241051
0.0243506
0.0245981
0.0248475
0.0250988
0.0253521
0.0256073
0.0258645
0.0261236
0.0263847
0.0266478
0.0269129
0.02718
0.0274491
0.0277201
0.0279932
0.0282683
0.0285454
0.0288246
0.0291057
0.029389
0.0296742
0.0299615
0.0302509
0.0305423
0.0308358
0.0311314
0.031429
0.0317288
0.0320306
0.0323345
0.0326405
0.0329486
0.0332588
0.0335711
0.0338856
0.0342021
0.0345208
0.0348416
0.0351645
0.0354896
0.0358168
0.0361461
0.0364776
0.0368113
0.0371471
0.037485
0.0378251
0.0381673
0.0385117
0.0388583
0.0392071
0.039558
0.039911
0.0402663
0.0406237
0.0409833
0.0413451
0.041709
0.0420751
0.0424434
0.0428139
0.0431866
0.0435614
0.0439384
0.0443176
0.044699
0.0450826
0.0454683
0.0458562
0.0462463
0.0466386
0.047033
0.0474297
0.0478285
0.0482294
0.0486326
0.0490379
0.0494454
0.049855
0.0502668
0.0506808
0.0510969
0.0515152
0.0519356
0.0523581
0.0527829
0.0532097
0.0536387
0.0540698
0.054503
0.0549384
0.0553759
0.0558155
0.0562572
0.056701
0.0571469
0.0575949
0.0580449
0.0584971
0.0589513
0.0594076
0.0598659
0.0603264
0.0607888
0.0612533
0.0617198
0.0621883
0.0626589
0.0631315
0.063606
0.0640826
0.0645611
0.0650416
0.065524
0.0660085
0.0664948
0.0669831
0.0674733
0.0679654
0.0684595
0.0689554
0.0694532
0.0699529
0.0704544
0.0709578
0.071463
0.07197
0.0724789
0.0729895
0.0735019
0.0740161
0.0745321
0.0750498
0.0755692
0.0760904
0.0766132
0.0771378
0.077664
0.0781919
0.0787214
0.0792526
0.0797853
0.0803197
0.0808556
0.0813932
0.0819322
0.0824728
0.083015
0.0835586
0.0841037
0.0846503
0.0851983
0.0857478
0.0862986
0.0868509
0.0874045
0.0879595
0.0885158
0.0890735
0.0896324
0.0901927
0.0907542
0.0913169
0.0918808
0.092446
0.0930123
0.0935798
0.0941484
0.0947181
0.095289
0.0958609
0.0964338
0.0970078
0.0975828
0.0981587
0.0987357
0.0993135
0.0998923
0.100472
0.101052
0.101634
0.102216
0.102799
0.103383
0.103967
0.104552
0.105138
0.105725
0.106312
0.1069
0.107489
0.108078
0.108667
0.109257
0.109848
0.110439
0.11103
0.111622
0.112214
0.112807
0.1134
0.113993
0.114587
0.11518
0.115774
0.116368
0.116963
0.117557
0.118152
0.118746
0.119341
0.119935
0.12053
0.121125
0.121719
0.122314
0.122908
0.123502
0.124096
0.12469
0.125283
0.125876
0.126469
0.127061
0.127653
0.128245
0.128836
0.129427
0.130017
0.130607
0.131196
0.131785
0.132373
0.13296
0.133547
0.134132
0.134717
0.135302
0.135885
0.136468
0.137049
0.13763
0.13821
0.138789
0.139367
0.139944
0.140519
0.141094
0.141667
0.142239
0.14281
0.14338
0.143949
0.144516
0.145082
0.145646
0.146209
0.146771
0.147331
0.147889
0.148446
0.149002
0.149555
0.150108
0.150658
0.151207
0.151754
0.152299
0.152842
0.153384
0.153924
0.154461
0.154997
0.155531
0.156063
0.156592
0.15712
0.157646
0.158169
0.15869
0.159209
0.159726
0.160241
0.160753
0.161263
0.16177
0.162275
0.162778
0.163278
0.163775
0.16427
0.164763
0.165253
0.16574
0.166225
0.166707
0.167186
0.167662
0.168136
0.168607
0.169075
0.16954
0.170002
0.170461
0.170917
0.17137
0.171821
0.172268
0.172712
0.173153
0.17359
0.174025
0.174456
0.174884
0.175309
0.175731
0.176149
0.176564
0.176975
0.177383
0.177788
0.178189
0.178587
0.178981
0.179371
0.179758
0.180142
0.180521
0.180897
0.18127
0.181639
0.182004
0.182365
0.182722
0.183076
0.183426
0.183771
0.184114
0.184452
0.184786
0.185116
0.185442
0.185765
0.186083
0.186397
0.186707
0.187014
0.187316
0.187613
0.187907
0.188197
0.188482
0.188763
0.18904
0.189313
0.189581
0.189845
0.190105
0.190361
0.190612
0.190859
0.191101
0.191339
0.191573
0.191802
0.192027
0.192247
0.192463
0.192674
0.192881
0.193083
0.193281
0.193475
0.193663
0.193847
0.194027
0.194202
0.194372
0.194538
0.194699
0.194856
0.195007
0.195155
0.195297
0.195435
0.195568
0.195696
0.19582
0.195939
0.196053
0.196163
0.196268
0.196368
0.196463
0.196554
0.196639
0.19672
0.196797
0.196868
0.196935
0.196997
0.197054
0.197106
0.197154
0.197196
0.197234
0.197267
0.197296
0.197319
0.197338
0.197352
0.197361
0.197365
0.197365
0.197359
0.197349
0.197334
0.197315
0.19729
0.197261
0.197227
0.197188
0.197145
0.197096
0.197043
0.196985
0.196922
0.196855
0.196783
0.196706
0.196624
0.196538
0.196447
0.196351
0.196251
0.196146
0.196036
0.195921
0.195802
0.195679
0.19555
0.195417
0.19528
0.195137
0.194991
0.194839
0.194683
0.194523
0.194358
0.194188
0.194014
0.193836
0.193653
0.193465
0.193273
0.193077
0.192876
0.192671
0.192462
0.192248
0.19203
0.191807
0.191581
0.19135
0.191114
0.190875
0.190631
0.190383
0.190131
0.189875
0.189614
0.18935
0.189081
0.188809
0.188532
0.188251
0.187966
0.187678
0.187385
0.187088
0.186788
0.186484
0.186176
0.185864
0.185548
0.185228
0.184905
0.184578
0.184247
0.183913
0.183575
0.183233
0.182888
0.18254
0.182187
0.181832
0.181473
0.18111
0.180744
0.180375
0.180002
0.179626
0.179247
0.178864
0.178479
0.17809
0.177698
0.177303
0.176905
0.176503
0.176099
0.175692
0.175282
0.174869
0.174453
0.174034
0.173613
0.173188
0.172761
0.172332
0.171899
0.171464
0.171027
0.170587
0.170144
0.169699
0.169252
0.168802
0.168349
0.167895
0.167438
0.166979
0.166517
0.166054
0.165588
0.165121
0.164651
0.164179
0.163706
0.16323
0.162752
0.162273
0.161792
0.161309
0.160824
0.160338
0.15985
0.159361
0.15887
0.158377
0.157883
0.157388
0.156891
0.156393
0.155893
0.155393
0.154891
0.154388
0.153884
0.153379
0.152872
0.152365
0.151857
0.151348
0.150838
0.150328
0.149816
0.149304
0.148791
0.148278
0.147764
0.14725
0.146735
0.14622
0.145704
0.145188
0.144672
0.144155
0.143639
0.143122
0.142605
0.142088
0.141571
0.141054
0.140537
0.140021
0.139504
0.138988
0.138472
0.137957
0.137442
0.136927
0.136413
0.1359
0.135387
0.134875
0.134363
0.133853
0.133343
0.132834
0.132326
0.131818
0.131312
0.130807
0.130304
0.129801
0.129299
0.128799
0.128301
0.127803
0.127307
0.126813
0.12632
0.125829
0.125339
0.124851
0.124365
0.123881
0.123399
0.122919
0.12244
0.121964
0.12149
0.121018
0.120549
0.120081
0.119616
0.119154
0.118693
0.118236
0.117781
0.117329
0.116879
0.116432
0.115988
0.115547
0.115108
0.114673
0.114241
0.113812
0.113386
0.112964
0.112544
0.112128
0.111716
0.111307
0.110901
0.1105
0.110101
0.109707
0.109316
0.10893
0.108547
0.108168
0.107793
0.107423
0.107056
0.106694
0.106337
0.105983
0.105634
0.10529
0.10495
0.104615
0.104285
0.103959
0.103638
0.103322
0.103012
0.102706
0.102405
0.10211
0.10182
0.101535
0.101256
0.100982
0.100714
0.100451
0.100194
0.0999432
0.0996979
0.0994586
0.0992253
0.0989981
0.098777
0.0985622
0.0983536
0.0981515
0.0979558
0.0977666
0.097584
0.0974082
0.097239
0.0970768
0.0969214
0.096773
0.0966318
0.0964976
0.0963707
0.0962511
0.096139
0.0960342
0.0959371
0.0958476
0.0957658
0.0956918
0.0956256
0.0955675
0.0955174
0.0954754
0.0954417
0.0954162
0.0953992
0.0953906
)
;

boundaryField
{
    sides
    {
        type            zeroGradient;
    }
    empty
    {
        type            empty;
    }
}


// ************************************************************************* //
