0.0005 	0.00348 	4.7497782e-21 	1
0.0015 	0.00348 	1.2236753e-11 	1
0.0025 	0.00348 	1.4130822e-11 	1
0.0035 	0.00348 	1.4288661e-11 	1
0.0045 	0.00348 	3.4924231e-11 	1
0.0055 	0.00348 	2.9147543e-11 	1
0.0065 	0.00348 	3.5115528e-11 	1
0.0075 	0.00348 	4.4161819e-11 	1
0.0085 	0.00348 	3.215849e-11 	1
0.0095 	0.00348 	5.8045656e-11 	1
0.0105 	0.00348 	5.6981576e-11 	1
0.0115 	0.00348 	7.4404121e-11 	1
0.0125 	0.00348 	5.3422194e-11 	1
0.0135 	0.00348 	5.1797341e-11 	1
0.0145 	0.00348 	3.9958742e-11 	1
0.0155 	0.00348 	4.3513123e-11 	1
0.0165 	0.00348 	4.3012595e-11 	1
0.0175 	0.00348 	2.8551867e-11 	1
0.0185 	0.00348 	1.0164615e-11 	1
0.0195 	0.00348 	3.6251191e-11 	1
0.0205 	0.00348 	1.5676756e-11 	1
0.0215 	0.00348 	4.3760219e-11 	1
0.0225 	0.00348 	2.087822e-11 	1
0.0235 	0.00348 	3.2388469e-11 	1
0.0245 	0.00348 	1.0404042e-13 	1
0.0255 	0.00348 	2.2323671e-11 	1
0.0265 	0.00348 	5.9775439e-12 	1
0.0275 	0.00348 	1.5878278e-11 	1
0.0285 	0.00348 	2.5413204e-12 	1
0.0295 	0.00348 	1.3496131e-11 	1
0.0305 	0.00348 	9.0037193e-12 	1
0.0315 	0.00348 	6.4866305e-12 	1
0.0325 	0.00348 	3.0908672e-12 	1
0.0335 	0.00348 	9.3806435e-12 	1
0.0345 	0.00348 	1.8018999e-11 	1
0.0355 	0.00348 	3.9618166e-11 	1
0.0365 	0.00348 	3.3207453e-11 	1
0.0375 	0.00348 	3.636568e-11 	1
0.0385 	0.00348 	1.6921461e-11 	1
0.0395 	0.00348 	2.4158606e-11 	1
0.0405 	0.00348 	1.5541036e-11 	1
0.0415 	0.00348 	2.1612839e-11 	1
0.0425 	0.00348 	2.2662135e-12 	1
0.0435 	0.00348 	3.6244967e-11 	1
0.0445 	0.00348 	2.1388863e-11 	1
0.0455 	0.00348 	4.0860982e-11 	1
0.0465 	0.00348 	2.0243752e-11 	1
0.0475 	0.00348 	4.4159152e-11 	1
0.0485 	0.00348 	3.7287927e-11 	1
0.0495 	0.00348 	4.503816e-11 	1
0.0505 	0.00348 	4.2794622e-11 	1
0.0515 	0.00348 	3.2505514e-11 	1
0.0525 	0.00348 	3.5482004e-11 	1
0.0535 	0.00348 	3.3629729e-11 	1
0.0545 	0.00348 	5.203321e-11 	1
0.0555 	0.00348 	3.059744e-11 	1
0.0565 	0.00348 	3.5895609e-11 	1
0.0575 	0.00348 	2.4423153e-11 	1
0.0585 	0.00348 	2.8592995e-11 	1
0.0595 	0.00348 	9.0477364e-12 	1
0.0605 	0.00348 	1.1918963e-11 	1
0.0615 	0.00348 	1.11291e-11 	1
0.0625 	0.00348 	9.5233656e-12 	1
0.0635 	0.00348 	1.9686646e-11 	1
0.0645 	0.00348 	1.4684259e-11 	1
0.0655 	0.00348 	1.0456061e-11 	1
0.0665 	0.00348 	1.326493e-11 	1
0.0675 	0.00348 	1.6252424e-11 	1
0.0685 	0.00348 	1.8960364e-11 	1
0.0695 	0.00348 	1.2528977e-11 	1
0.0705 	0.00348 	1.0733391e-11 	1
0.0715 	0.00348 	7.5758314e-12 	1
0.0725 	0.00348 	1.6704377e-11 	1
0.0735 	0.00348 	3.1431097e-12 	1
0.0745 	0.00348 	2.2738832e-12 	1
0.0755 	0.00348 	1.7303387e-12 	1
0.0765 	0.00348 	6.4157141e-12 	1
0.0775 	0.00348 	6.9744867e-12 	1
0.0785 	0.00348 	1.1955532e-11 	1
0.0795 	0.00348 	1.2810531e-12 	1
0.0805 	0.00348 	2.9376966e-12 	1
0.0815 	0.00348 	5.1365506e-12 	1
0.0825 	0.00348 	6.5088614e-12 	1
0.0835 	0.00348 	5.6347441e-12 	1
0.0845 	0.00348 	8.9720403e-12 	1
0.0855 	0.00348 	5.0112797e-12 	1
0.0865 	0.00348 	1.8458058e-11 	1
0.0875 	0.00348 	3.0491843e-12 	1
0.0885 	0.00348 	6.0556854e-12 	1
0.0895 	0.00348 	1.5169225e-12 	1
0.0905 	0.00348 	1.0354577e-11 	1
0.0915 	0.00348 	1.6511413e-11 	1
0.0925 	0.00348 	1.0133936e-12 	1
0.0935 	0.00348 	1.1652192e-11 	1
0.0945 	0.00348 	3.9020711e-12 	1
0.0955 	0.00348 	7.5887253e-12 	1
0.0965 	0.00348 	1.191296e-11 	1
0.0975 	0.00348 	1.6945582e-11 	1
0.0985 	0.00348 	6.168507e-12 	1
0.0995 	0.00348 	3.7362289e-12 	1
0.1005 	0.00348 	1.430978e-11 	1
0.1015 	0.00348 	1.3481458e-11 	1
0.1025 	0.00348 	1.6208962e-11 	1
0.1035 	0.00348 	1.5379529e-11 	1
0.1045 	0.00348 	1.7487792e-11 	1
0.1055 	0.00348 	1.6227303e-11 	1
0.1065 	0.00348 	2.3599166e-11 	1
0.1075 	0.00348 	2.3986428e-11 	1
0.1085 	0.00348 	2.2877441e-11 	1
0.1095 	0.00348 	2.8995818e-11 	1
0.1105 	0.00348 	2.9717098e-12 	1
0.1115 	0.00348 	1.2812643e-11 	1
0.1125 	0.00348 	3.9682079e-12 	1
0.1135 	0.00348 	8.8532164e-12 	1
0.1145 	0.00348 	1.4168058e-11 	1
0.1155 	0.00348 	1.9919292e-11 	1
0.1165 	0.00348 	2.080119e-11 	1
0.1175 	0.00348 	3.3138871e-11 	1
0.1185 	0.00348 	2.4218295e-11 	1
0.1195 	0.00348 	2.2538532e-11 	1
0.1205 	0.00348 	1.2056572e-11 	1
0.1215 	0.00348 	2.2702373e-11 	1
0.1225 	0.00348 	2.0471618e-11 	1
0.1235 	0.00348 	2.1337621e-11 	1
0.1245 	0.00348 	9.2228044e-12 	1
0.1255 	0.00348 	1.1923409e-11 	1
0.1265 	0.00348 	1.0586334e-12 	1
0.1275 	0.00348 	7.2505939e-13 	1
0.1285 	0.00348 	2.3409092e-13 	1
0.1295 	0.00348 	9.9634254e-12 	1
0.1305 	0.00348 	1.9138767e-11 	1
0.1315 	0.00348 	2.1332952e-11 	1
0.1325 	0.00348 	3.4972806e-11 	1
0.1335 	0.00348 	1.2183732e-11 	1
0.1345 	0.00348 	2.5995097e-11 	1
0.1355 	0.00348 	4.4557306e-12 	1
0.1365 	0.00348 	1.2136936e-11 	1
0.1375 	0.00348 	5.6049548e-12 	1
0.1385 	0.00348 	2.6847761e-11 	1
0.1395 	0.00348 	8.9601469e-13 	1
0.1405 	0.00348 	2.9922622e-11 	1
0.1415 	0.00348 	2.5058955e-11 	1
0.1425 	0.00348 	1.8621566e-11 	1
0.1435 	0.00348 	9.110872e-12 	1
0.1445 	0.00348 	1.7125318e-11 	1
0.1455 	0.00348 	1.9371191e-11 	1
0.1465 	0.00348 	1.1349964e-12 	1
0.1475 	0.00348 	1.0734169e-12 	1
0.1485 	0.00348 	3.3798683e-12 	1
0.1495 	0.00348 	2.0197289e-11 	1
0.1505 	0.00348 	9.8479361e-12 	1
0.1515 	0.00348 	8.9555895e-12 	1
0.1525 	0.00348 	4.0984808e-12 	1
0.1535 	0.00348 	1.52756e-11 	1
0.1545 	0.00348 	2.0106143e-11 	1
0.1555 	0.00348 	4.3018931e-12 	1
0.1565 	0.00348 	3.1851594e-11 	1
0.1575 	0.00348 	1.9488014e-11 	1
0.1585 	0.00348 	2.5790573e-11 	1
0.1595 	0.00348 	1.2311893e-11 	1
0.1605 	0.00348 	1.3165891e-11 	1
0.1615 	0.00348 	4.6352448e-12 	1
0.1625 	0.00348 	1.1384311e-11 	1
0.1635 	0.00348 	5.0336217e-12 	1
0.1645 	0.00348 	4.7395075e-12 	1
0.1655 	0.00348 	1.0127489e-11 	1
0.1665 	0.00348 	2.3451887e-11 	1
0.1675 	0.00348 	2.9249694e-11 	1
0.1685 	0.00348 	2.1945746e-11 	1
0.1695 	0.00348 	2.2225633e-11 	1
0.1705 	0.00348 	8.1962946e-12 	1
0.1715 	0.00348 	3.4067677e-12 	1
0.1725 	0.00348 	1.1086306e-11 	1
0.1735 	0.00348 	1.9424656e-11 	1
0.1745 	0.00348 	1.276318e-11 	1
0.1755 	0.00348 	4.0311213e-11 	1
0.1765 	0.00348 	4.1533465e-11 	1
0.1775 	0.00348 	2.0941134e-11 	1
0.1785 	0.00348 	3.2442712e-11 	1
0.1795 	0.00348 	1.8077688e-11 	1
0.1805 	0.00348 	3.7180997e-11 	1
0.1815 	0.00348 	1.4652802e-11 	1
0.1825 	0.00348 	1.8750616e-11 	1
0.1835 	0.00348 	1.1626293e-11 	1
0.1845 	0.00348 	3.7798014e-12 	1
0.1855 	0.00348 	3.7143316e-12 	1
0.1865 	0.00348 	1.4391923e-11 	1
0.1875 	0.00348 	4.6232401e-12 	1
0.1885 	0.00348 	1.3459005e-11 	1
0.1895 	0.00348 	6.2703243e-12 	1
0.1905 	0.00348 	1.3369415e-11 	1
0.1915 	0.00348 	2.2801078e-12 	1
0.1925 	0.00348 	1.1086528e-11 	1
0.1935 	0.00348 	1.4684592e-12 	1
0.1945 	0.00348 	1.151425e-11 	1
0.1955 	0.00348 	1.0592781e-11 	1
0.1965 	0.00348 	2.7326391e-11 	1
0.1975 	0.00348 	1.7531254e-11 	1
0.1985 	0.00348 	1.7685202e-11 	1
0.1995 	0.00348 	5.8771716e-12 	1
0.2005 	0.00348 	4.6834857e-12 	1
0.2015 	0.00348 	1.7814919e-11 	1
0.2025 	0.00348 	1.283832e-13 	1
0.2035 	0.00348 	2.6063234e-11 	1
0.2045 	0.00348 	8.4499487e-12 	1
0.2055 	0.00348 	3.4453048e-11 	1
0.2065 	0.00348 	2.7307051e-11 	1
0.2075 	0.00348 	2.5739331e-11 	1
0.2085 	0.00348 	2.6164607e-11 	1
0.2095 	0.00348 	1.5238919e-11 	1
0.2105 	0.00348 	2.7857709e-11 	1
0.2115 	0.00348 	2.8230743e-11 	1
0.2125 	0.00348 	2.3899394e-11 	1
0.2135 	0.00348 	4.5124193e-11 	1
0.2145 	0.00348 	2.07684e-11 	1
0.2155 	0.00348 	2.5994874e-11 	1
0.2165 	0.00348 	1.2769738e-11 	1
0.2175 	0.00348 	7.5410401e-12 	1
0.2185 	0.00348 	4.1377182e-12 	1
0.2195 	0.00348 	9.3713065e-12 	1
0.2205 	0.00348 	7.1242115e-12 	1
0.2215 	0.00348 	1.8334232e-11 	1
0.2225 	0.00348 	3.5548474e-11 	1
0.2235 	0.00348 	1.4479624e-11 	1
0.2245 	0.00348 	2.4772844e-11 	1
0.2255 	0.00348 	3.0732159e-11 	1
0.2265 	0.00348 	2.7721323e-11 	1
0.2275 	0.00348 	2.8178611e-11 	1
0.2285 	0.00348 	2.0658579e-11 	1
0.2295 	0.00348 	3.5832584e-11 	1
0.2305 	0.00348 	3.0355346e-11 	1
0.2315 	0.00348 	2.908852e-11 	1
0.2325 	0.00348 	2.9166884e-12 	1
0.2335 	0.00348 	2.6237079e-11 	1
0.2345 	0.00348 	1.2974706e-11 	1
0.2355 	0.00348 	2.4185616e-11 	1
0.2365 	0.00348 	1.540943e-11 	1
0.2375 	0.00348 	2.5027499e-11 	1
0.2385 	0.00348 	5.3102848e-12 	1
0.2395 	0.00348 	2.6987816e-11 	1
0.2405 	0.00348 	2.0652577e-11 	1
0.2415 	0.00348 	3.3621837e-11 	1
0.2425 	0.00348 	2.9035055e-11 	1
0.2435 	0.00348 	3.0026996e-11 	1
0.2445 	0.00348 	1.9403536e-11 	1
0.2455 	0.00348 	2.2531196e-11 	1
0.2465 	0.00348 	2.1464448e-11 	1
0.2475 	0.00348 	1.056188e-11 	1
0.2485 	0.00348 	1.4717828e-11 	1
0.2495 	0.00348 	4.7268359e-12 	1
0.2505 	0.00348 	1.2038342e-11 	1
0.2515 	0.00348 	8.5823334e-12 	1
0.2525 	0.00348 	1.8288437e-11 	1
0.2535 	0.00348 	1.9149215e-11 	1
0.2545 	0.00348 	8.5026358e-12 	1
0.2555 	0.00348 	1.7856269e-11 	1
0.2565 	0.00348 	6.8202046e-12 	1
0.2575 	0.00348 	1.0678592e-12 	1
0.2585 	0.00348 	1.3995325e-11 	1
0.2595 	0.00348 	1.7243698e-11 	1
0.2605 	0.00348 	2.3217129e-11 	1
0.2615 	0.00348 	1.1335292e-11 	1
0.2625 	0.00348 	1.1618179e-11 	1
0.2635 	0.00348 	5.3917608e-12 	1
0.2645 	0.00348 	2.3009937e-11 	1
0.2655 	0.00348 	1.0752732e-11 	1
0.2665 	0.00348 	3.0797629e-11 	1
0.2675 	0.00348 	1.3905401e-11 	1
0.2685 	0.00348 	2.3099861e-11 	1
0.2695 	0.00348 	8.8703342e-12 	1
0.2705 	0.00348 	1.6012664e-11 	1
0.2715 	0.00348 	1.2647023e-11 	1
0.2725 	0.00348 	1.0079582e-11 	1
0.2735 	0.00348 	1.6073021e-11 	1
0.2745 	0.00348 	2.722613e-12 	1
0.2755 	0.00348 	2.6127481e-11 	1
0.2765 	0.00348 	1.3952975e-11 	1
0.2775 	0.00348 	5.9724308e-12 	1
0.2785 	0.00348 	7.044625e-12 	1
0.2795 	0.00348 	1.5309391e-11 	1
0.2805 	0.00348 	1.3658194e-11 	1
0.2815 	0.00348 	8.9471418e-12 	1
0.2825 	0.00348 	2.529249e-11 	1
0.2835 	0.00348 	4.328459e-12 	1
0.2845 	0.00348 	2.3591385e-11 	1
0.2855 	0.00348 	5.059743e-12 	1
0.2865 	0.00348 	1.1537704e-11 	1
0.2875 	0.00348 	1.247918e-11 	1
0.2885 	0.00348 	9.452338e-12 	1
0.2895 	0.00348 	2.4481175e-11 	1
0.2905 	0.00348 	2.0175058e-11 	1
0.2915 	0.00348 	2.3537142e-11 	1
0.2925 	0.00348 	6.6256846e-11 	1
0.2935 	0.00348 	6.1706634e-11 	1
0.2945 	0.00348 	1.2504701e-10 	1
0.2955 	0.00348 	1.3924097e-10 	1
0.2965 	0.00348 	2.4660067e-10 	1
0.2975 	0.00348 	3.2732035e-10 	1
0.2985 	0.00348 	5.094611e-10 	1
0.2995 	0.00348 	7.2167552e-10 	1
0.3005 	0.00348 	1.0844473e-09 	1
0.3015 	0.00348 	1.5062619e-09 	1
0.3025 	0.00348 	2.1630591e-09 	1
0.3035 	0.00348 	3.0315697e-09 	1
0.3045 	0.00348 	4.2715788e-09 	1
0.3055 	0.00348 	5.9608509e-09 	0.99999999
0.3065 	0.00348 	8.3437843e-09 	0.99999999
0.3075 	0.00348 	1.1625095e-08 	0.99999999
0.3085 	0.00348 	1.6157491e-08 	0.99999998
0.3095 	0.00348 	2.237713e-08 	0.99999997
0.3105 	0.00348 	3.0939687e-08 	0.99999996
0.3115 	0.00348 	4.2591514e-08 	0.99999995
0.3125 	0.0034799999 	5.8554935e-08 	0.99999993
0.3135 	0.0034799999 	8.0188008e-08 	0.99999991
0.3145 	0.0034799999 	1.0956633e-07 	0.99999987
0.3155 	0.0034799998 	1.4918876e-07 	0.99999983
0.3165 	0.0034799998 	2.027e-07 	0.99999976
0.3175 	0.0034799997 	2.7453773e-07 	0.99999968
0.3185 	0.0034799996 	3.7079022e-07 	0.99999957
0.3195 	0.0034799994 	4.9929447e-07 	0.99999942
0.3205 	0.0034799992 	6.7032184e-07 	0.99999922
0.3215 	0.003479999 	8.9726275e-07 	0.99999895
0.3225 	0.0034799986 	1.1974227e-06 	0.9999986
0.3235 	0.0034799982 	1.5931029e-06 	0.99999814
0.3245 	0.0034799976 	2.1130083e-06 	0.99999753
0.3255 	0.0034799968 	2.7938138e-06 	0.99999673
0.3265 	0.0034799957 	3.6823602e-06 	0.99999569
0.3275 	0.0034799944 	4.8380822e-06 	0.99999433
0.3285 	0.0034799926 	6.336126e-06 	0.99999257
0.3295 	0.0034799904 	8.27101e-06 	0.9999903
0.3305 	0.0034799875 	1.0761312e-05 	0.99998738
0.3315 	0.0034799838 	1.3954958e-05 	0.99998363
0.3325 	0.003479979 	1.8035783e-05 	0.99997884
0.3335 	0.003479973 	2.3230923e-05 	0.99997274
0.3345 	0.0034799653 	2.9820083e-05 	0.999965
0.3355 	0.0034799556 	3.8145661e-05 	0.99995522
0.3365 	0.0034799433 	4.8625074e-05 	0.9999429
0.3375 	0.003479928 	6.1764365e-05 	0.99992745
0.3385 	0.0034799088 	7.8173982e-05 	0.99990815
0.3395 	0.003479885 	9.8586305e-05 	0.99988415
0.3405 	0.0034798554 	0.00012387544 	0.99985439
0.3415 	0.0034798189 	0.00015507864 	0.99981767
0.3425 	0.003479774 	0.0001934198 	0.99977255
0.3435 	0.0034797191 	0.00024033476 	0.99971732
0.3445 	0.0034796521 	0.0002974976 	0.99965001
0.3455 	0.0034795709 	0.00036684837 	0.99956833
0.3465 	0.0034794727 	0.00045062101 	0.99946966
0.3475 	0.0034793545 	0.00055137138 	0.99935097
0.3485 	0.003479213 	0.00067200382 	0.99920884
0.3495 	0.0034790443 	0.00081579642 	0.99903941
0.3505 	0.003478844 	0.00098642278 	0.99883835
0.3515 	0.0034786073 	0.0011879702 	0.99860084
0.3525 	0.003478329 	0.0014249526 	0.99832158
0.3535 	0.0034780032 	0.0017023168 	0.99799475
0.3545 	0.0034776235 	0.002025442 	0.99761403
0.3555 	0.0034771832 	0.0024001302 	0.99717263
0.3565 	0.0034766748 	0.0028325882 	0.99666328
0.3575 	0.0034760908 	0.0033293991 	0.99607831
0.3585 	0.0034754229 	0.0038974847 	0.99540965
0.3595 	0.0034746626 	0.0045440572 	0.99464894
0.3605 	0.0034738013 	0.005276562 	0.9937876
0.3615 	0.00347283 	0.0061026118 	0.99281686
0.3625 	0.0034717396 	0.0070299137 	0.99172794
0.3635 	0.0034705213 	0.0080661894 	0.99051208
0.3645 	0.0034691659 	0.0092190931 	0.9891607
0.3655 	0.0034676649 	0.010496126 	0.98766547
0.3665 	0.0034660098 	0.011904552 	0.98601844
0.3675 	0.0034641925 	0.013451315 	0.98421213
0.3685 	0.0034622056 	0.015142962 	0.98223966
0.3695 	0.0034600421 	0.016985572 	0.9800948
0.3705 	0.0034576957 	0.018984691 	0.97777207
0.3715 	0.0034551608 	0.021145281 	0.97526681
0.3725 	0.0034524326 	0.023471678 	0.97257522
0.3735 	0.0034495071 	0.025967555 	0.9696944
0.3745 	0.0034463812 	0.028635909 	0.96662236
0.3755 	0.0034430524 	0.031479046 	0.96335807
0.3765 	0.0034395192 	0.034498587 	0.95990136
0.3775 	0.0034357809 	0.037695476 	0.95625302
0.3785 	0.0034318376 	0.041070007 	0.95241463
0.3795 	0.00342769 	0.044621845 	0.94838864
0.3805 	0.0034233398 	0.04835007 	0.94417822
0.3815 	0.003418789 	0.052253211 	0.93978724
0.3825 	0.0034140405 	0.056329295 	0.93522022
0.3835 	0.0034090975 	0.060575892 	0.93048222
0.3845 	0.0034039637 	0.064990167 	0.92557879
0.3855 	0.0033986434 	0.069568924 	0.9205159
0.3865 	0.0033931412 	0.074308664 	0.91529988
0.3875 	0.0033874617 	0.079205625 	0.90993731
0.3885 	0.0033816102 	0.084255833 	0.904435
0.3895 	0.0033755919 	0.089455144 	0.89879992
0.3905 	0.0033694121 	0.094799285 	0.89303912
0.3915 	0.0033630765 	0.10028389 	0.88715971
0.3925 	0.0033565905 	0.10590454 	0.88116879
0.3935 	0.0033499597 	0.11165678 	0.87507342
0.3945 	0.0033431897 	0.11753617 	0.86888057
0.3955 	0.003336286 	0.12353828 	0.86259713
0.3965 	0.0033292539 	0.12965873 	0.85622981
0.3975 	0.003322099 	0.13589322 	0.84978521
0.3985 	0.0033148264 	0.14223751 	0.84326971
0.3995 	0.0033074412 	0.14868746 	0.83668951
0.4005 	0.0032999485 	0.15523903 	0.83005063
0.4015 	0.003292353 	0.1618883 	0.82335885
0.4025 	0.0032846595 	0.16863145 	0.81661973
0.4035 	0.0032768726 	0.1754648 	0.80983863
0.4045 	0.0032689966 	0.18238479 	0.80302067
0.4055 	0.0032610357 	0.18938797 	0.79617075
0.4065 	0.003252994 	0.19647105 	0.78929356
0.4075 	0.0032448754 	0.20363084 	0.78239356
0.4085 	0.0032366837 	0.21086428 	0.77547501
0.4095 	0.0032284224 	0.21816844 	0.76854194
0.4105 	0.0032200951 	0.22554052 	0.7615982
0.4115 	0.0032117049 	0.23297781 	0.75464743
0.4125 	0.0032032552 	0.24047775 	0.74769309
0.4135 	0.0031947488 	0.24803786 	0.74073844
0.4145 	0.0031861887 	0.2556558 	0.73378659
0.4155 	0.0031775777 	0.2633293 	0.72684045
0.4165 	0.0031689183 	0.27105622 	0.7199028
0.4175 	0.0031602132 	0.27883449 	0.71297625
0.4185 	0.0031514646 	0.28666216 	0.70606326
0.4195 	0.0031426749 	0.29453734 	0.69916616
0.4205 	0.0031338464 	0.30245824 	0.69228712
0.4215 	0.003124981 	0.31042314 	0.68542822
0.4225 	0.0031160809 	0.31843041 	0.6785914
0.4235 	0.0031071479 	0.32647848 	0.67177848
0.4245 	0.0030981838 	0.33456586 	0.66499117
0.4255 	0.0030891905 	0.3426911 	0.65823109
0.4265 	0.0030801695 	0.35085286 	0.65149975
0.4275 	0.0030711225 	0.35904979 	0.64479856
0.4285 	0.003062051 	0.36728075 	0.63812886
0.4295 	0.0030529564 	0.37554428 	0.63149186
0.4305 	0.0030438402 	0.38383987 	0.62488876
0.4315 	0.0030347037 	0.39216506 	0.61832057
0.4325 	0.0030255481 	0.40052173 	0.61178839
0.4335 	0.0030163749 	0.40890302 	0.60529296
0.4345 	0.003007184 	0.41731947 	0.59883548
0.4355 	0.0029979802 	0.42574855 	0.59241617
0.4365 	0.0029887547 	0.43422869 	0.5860367
0.4375 	0.0029795331 	0.44269034 	0.5796964
0.4385 	0.0029702598 	0.45124763 	0.57339795
0.4395 	0.002961059 	0.45971518 	0.56713967
0.4405 	0.002951681 	0.46837279 	0.56092511
0.4415 	0.0029426109 	0.47681342 	0.55475333
0.4425 	0.0029329754 	0.48558203 	0.54862599
0.4435 	0.0029242709 	0.49399581 	0.54254907
0.4445 	0.0029141152 	0.50280125 	0.53651449
0.4455 	0.0029060757 	0.51131554 	0.53054646
0.4465 	0.0028952336 	0.51987967 	0.52461589
0.4475 	0.0028878363 	0.52886102 	0.51877207
0.4485 	0.0028767829 	0.53664995 	0.51296185
0.4495 	0.0028690547 	0.54668062 	0.50724
0.4505 	0.0028593001 	0.55314771 	0.50154965
0.4515 	0.0028493152 	0.56469983 	0.49589527
0.4525 	0.0028425294 	0.56982903 	0.49025936
0.4535 	0.0028301281 	0.5827048 	0.48462076
0.4545 	0.0028232428 	0.58713623 	0.47909091
0.4555 	0.0028118255 	0.59985871 	0.47349886
0.4565 	0.0028052701 	0.60559039 	0.46805447
0.4575 	0.0027930792 	0.61618948 	0.46268092
0.4585 	0.0027861316 	0.62421812 	0.45735994
0.4595 	0.0027762678 	0.63250928 	0.45218263
0.4605 	0.0027668852 	0.64190155 	0.44698085
0.4615 	0.0027585104 	0.64973676 	0.44191462
0.4625 	0.0027491786 	0.65867379 	0.43687503
0.4635 	0.0027403217 	0.66728178 	0.43188888
0.4645 	0.0027315588 	0.67543557 	0.42699446
0.4655 	0.0027225307 	0.68436249 	0.42212339
0.4665 	0.0027138605 	0.69251268 	0.41732722
0.4675 	0.0027049211 	0.70116246 	0.41259806
0.4685 	0.0026963518 	0.70940041 	0.40791243
0.4695 	0.0026874903 	0.71803499 	0.40331306
0.4705 	0.0026791259 	0.72591586 	0.39878883
0.4715 	0.0026703392 	0.73465007 	0.3943454
0.4725 	0.0026623271 	0.7421754 	0.39001699
0.4735 	0.002653788 	0.75064661 	0.38580603
0.4745 	0.0026461984 	0.75785453 	0.38173059
0.4755 	0.0026381135 	0.76589282 	0.37781501
0.4765 	0.002631012 	0.77257401 	0.37407409
0.4775 	0.0026236288 	0.78002765 	0.370513
0.4785 	0.0026170634 	0.78616575 	0.36716004
0.4795 	0.0026106328 	0.79272695 	0.36400998
0.4805 	0.0026046071 	0.79838116 	0.36107725
0.4815 	0.0025992406 	0.80388596 	0.3583579
0.4825 	0.002593781 	0.80906539 	0.35584716
0.4835 	0.0025894148 	0.81353354 	0.35353708
0.4845 	0.0025845599 	0.81825345 	0.35140664
0.4855 	0.0025809783 	0.82185202 	0.34945044
0.4865 	0.002576749 	0.82608446 	0.34763095
0.4875 	0.00257363 	0.82915378 	0.34594912
0.4885 	0.0025700454 	0.83282197 	0.34436801
0.4895 	0.0025670888 	0.83569667 	0.34288429
0.4905 	0.0025641131 	0.83878624 	0.34146832
0.4915 	0.0025611115 	0.84172396 	0.34011157
0.4925 	0.0025586359 	0.84429782 	0.33879885
0.4935 	0.002555507 	0.84742436 	0.33751348
0.4945 	0.002553341 	0.84965847 	0.33624944
0.4955 	0.0025500685 	0.85300593 	0.33497527
0.4965 	0.0025479169 	0.85521123 	0.33368372
0.4975 	0.0025444675 	0.85880565 	0.33234021
0.4985 	0.002542029 	0.86132943 	0.33094561
0.4995 	0.0025384004 	0.86516801 	0.32947873
0.5005 	0.0025354785 	0.86828684 	0.3279433
0.5015 	0.0025316687 	0.8723899 	0.32631602
0.5025 	0.0025280401 	0.87638194 	0.32457514
0.5035 	0.0025238597 	0.88097185 	0.32268244
0.5045 	0.0025191833 	0.88619249 	0.32060585
0.5055 	0.002514356 	0.89157407 	0.31833071
0.5065 	0.0025084954 	0.89817 	0.31586386
0.5075 	0.0025030284 	0.90433351 	0.31325071
0.5085 	0.0024963895 	0.91190589 	0.31055248
0.5095 	0.0024907459 	0.91831494 	0.30786049
0.5105 	0.0024841799 	0.92592112 	0.30525564
0.5115 	0.0024791126 	0.9316993 	0.30285167
0.5125 	0.0024737147 	0.9380621 	0.30074901
0.5135 	0.0024702082 	0.94212677 	0.29907468
0.5145 	0.0024671903 	0.94587885 	0.29792105
0.5155 	0.002466203 	0.94717707 	0.29737124
0.5165 	0.00246631 	0.94742498 	0.29725484
0.5175 	0.0024663972 	0.94767951 	0.29725006
0.5185 	0.0024663917 	0.94780527 	0.29725289
0.5195 	0.0024665659 	0.94803564 	0.29725928
0.5205 	0.0024665608 	0.94820734 	0.29727105
0.5215 	0.0024668131 	0.94830276 	0.29729939
0.5225 	0.0024668225 	0.94855132 	0.2973084
0.5235 	0.0024670603 	0.94874752 	0.2973205
0.5245 	0.0024669318 	0.94888718 	0.2973745
0.5255 	0.0024677297 	0.94845965 	0.29749598
0.5265 	0.0024677109 	0.94872855 	0.29757133
0.5275 	0.0024680915 	0.94879579 	0.29758919
0.5285 	0.0024679134 	0.94921478 	0.29758334
0.5295 	0.0024680192 	0.94945263 	0.29760492
0.5305 	0.0024684163 	0.94948663 	0.29763931
0.5315 	0.0024683539 	0.95001979 	0.29761878
0.5325 	0.0024679777 	0.9507142 	0.29765134
0.5335 	0.0024692592 	0.94977329 	0.2977299
0.5345 	0.0024683126 	0.95073316 	0.29759187
0.5355 	0.002467062 	0.95280442 	0.29757037
0.5365 	0.0024701264 	0.94948042 	0.29794389
0.5375 	0.0024709071 	0.95051732 	0.2975943
0.5385 	0.0024627035 	0.95976221 	0.29719658
0.5395 	0.0024719509 	0.94700999 	0.29909655
0.5405 	0.0024801103 	0.92703429 	0.30319744
0.5415 	0.0024840347 	0.92353142 	0.30549637
0.5425 	0.0024851156 	0.92139847 	0.30598042
0.5435 	0.002485731 	0.92149921 	0.30581763
0.5445 	0.0024835525 	0.92694969 	0.30492132
0.5455 	0.0024813114 	0.93111875 	0.30381478
0.5465 	0.0024812467 	0.93134918 	0.3034425
0.5475 	0.0024811624 	0.93179552 	0.30337482
0.5485 	0.002481302 	0.9317036 	0.3034409
0.5495 	0.0024821358 	0.93019943 	0.30369472
0.5505 	0.002482823 	0.92913487 	0.30399895
0.5515 	0.0024832319 	0.92907245 	0.30409356
0.5525 	0.0024835055 	0.92909259 	0.30411172
0.5535 	0.0024837199 	0.9291059 	0.30411426
0.5545 	0.0024839873 	0.9291442 	0.30411567
0.5555 	0.0024843234 	0.92915769 	0.30411484
0.5565 	0.002484542 	0.92922451 	0.30410987
0.5575 	0.0024847972 	0.92924203 	0.30411531
0.5585 	0.0024852292 	0.92911433 	0.30413914
0.5595 	0.0024856642 	0.92899133 	0.30417631
0.5605 	0.002486111 	0.92898409 	0.30419279
0.5615 	0.0024865293 	0.92899886 	0.30419677
0.5625 	0.0024870348 	0.92900657 	0.30420099
0.5635 	0.0024876052 	0.92900604 	0.30420756
0.5645 	0.0024883083 	0.92900255 	0.30421574
0.5655 	0.0024891369 	0.92900176 	0.30422399
0.5665 	0.0024901907 	0.92900006 	0.30423254
0.5675 	0.0024915172 	0.92899903 	0.30424172
0.5685 	0.002493236 	0.92899627 	0.30425122
0.5695 	0.0024954646 	0.92899873 	0.30426043
0.5705 	0.0024983723 	0.92900462 	0.30426861
0.5715 	0.0025021239 	0.9290154 	0.30427552
0.5725 	0.002506976 	0.92902768 	0.30428171
0.5735 	0.0025131662 	0.92904411 	0.30428719
0.5745 	0.0025209938 	0.92906035 	0.30429225
0.5755 	0.0025307541 	0.9290786 	0.3042971
0.5765 	0.0025427792 	0.92909653 	0.30430164
0.5775 	0.0025573849 	0.9291185 	0.30430577
0.5785 	0.0025749052 	0.92914032 	0.30430965
0.5795 	0.0025956286 	0.92916527 	0.30431341
0.5805 	0.0026198475 	0.92919056 	0.30431691
0.5815 	0.002647777 	0.9292208 	0.30432014
0.5825 	0.0026796191 	0.92925171 	0.30432309
0.5835 	0.002715467 	0.92928876 	0.30432529
0.5845 	0.0027553847 	0.92933076 	0.30432677
0.5855 	0.0027993187 	0.92937489 	0.30432837
0.5865 	0.0028471438 	0.92942012 	0.30433001
0.5875 	0.002898593 	0.92947584 	0.30433115
0.5885 	0.0029533609 	0.92953381 	0.30433241
0.5895 	0.0030109958 	0.9295991 	0.30433393
0.5905 	0.0030709875 	0.92966776 	0.3043358
0.5915 	0.0031327042 	0.92974198 	0.30433809
0.5925 	0.0031954871 	0.92981911 	0.30434097
0.5935 	0.0032585874 	0.92989924 	0.30434458
0.5945 	0.0033212833 	0.92998185 	0.30434881
0.5955 	0.0033828023 	0.93006832 	0.30435339
0.5965 	0.0034424714 	0.93015723 	0.30435865
0.5975 	0.0034996191 	0.930241 	0.304365
0.5985 	0.0035537137 	0.93032401 	0.30437197
0.5995 	0.0036042835 	0.93040384 	0.30437938
0.6005 	0.0036510171 	0.93048168 	0.30438746
0.6015 	0.0036936744 	0.93054887 	0.30439397
0.6025 	0.0037321604 	0.93061051 	0.30440062
0.6035 	0.0037665166 	0.93066871 	0.3044088
0.6045 	0.0037968257 	0.93073158 	0.30441569
0.6055 	0.0038232831 	0.93079108 	0.30442196
0.6065 	0.0038461314 	0.93084464 	0.30442787
0.6075 	0.0038656676 	0.93089778 	0.30443349
0.6085 	0.0038821989 	0.93094338 	0.30443893
0.6095 	0.0038960533 	0.93099075 	0.3044442
0.6105 	0.0039075535 	0.93103015 	0.30444943
0.6115 	0.0039170005 	0.93107199 	0.30445447
0.6125 	0.003924693 	0.93110975 	0.30445927
0.6135 	0.0039308885 	0.93114968 	0.30446382
0.6145 	0.0039358328 	0.93118829 	0.30446827
0.6155 	0.0039397332 	0.93122538 	0.30447276
0.6165 	0.0039427797 	0.93126367 	0.30447737
0.6175 	0.0039451268 	0.93129719 	0.30448214
0.6185 	0.0039469139 	0.93133572 	0.30448696
0.6195 	0.0039482519 	0.93136851 	0.30449174
0.6205 	0.0039492257 	0.93140868 	0.30449632
0.6215 	0.0039499415 	0.93144301 	0.30450093
0.6225 	0.0039504209 	0.93148121 	0.30450569
0.6235 	0.0039507549 	0.93151575 	0.30451069
0.6245 	0.0039509577 	0.93155226 	0.30451568
0.6255 	0.0039510665 	0.93158905 	0.30452023
0.6265 	0.0039511194 	0.93162476 	0.30452515
0.6275 	0.0039511186 	0.93166393 	0.30452977
0.6285 	0.0039510982 	0.93169731 	0.30453502
0.6295 	0.0039510484 	0.93173935 	0.30453974
0.6305 	0.0039509662 	0.93177342 	0.30454436
0.6315 	0.0039508995 	0.9318156 	0.30454887
0.6325 	0.0039508092 	0.93185112 	0.30455342
0.6335 	0.0039507399 	0.93189142 	0.30455806
0.6345 	0.0039506592 	0.93192729 	0.3045628
0.6355 	0.0039505888 	0.93196446 	0.30456736
0.6365 	0.0039505239 	0.93200387 	0.30457161
0.6375 	0.0039504533 	0.93203979 	0.30457546
0.6385 	0.0039503997 	0.93208172 	0.30457889
0.6395 	0.0039503336 	0.93211479 	0.30458206
0.6405 	0.003950291 	0.93215424 	0.30458497
0.6415 	0.0039502302 	0.93218187 	0.30458723
0.6425 	0.0039501886 	0.93221582 	0.30458844
0.6435 	0.0039501256 	0.93224005 	0.30458799
0.6445 	0.0039500771 	0.9322631 	0.30458589
0.6455 	0.0039500159 	0.93227917 	0.30458093
0.6465 	0.0039499345 	0.93228247 	0.30457182
0.6475 	0.003949851 	0.93227121 	0.30455842
0.6485 	0.0039497359 	0.93224052 	0.30453794
0.6495 	0.0039495825 	0.93218199 	0.30450809
0.6505 	0.0039493845 	0.93208667 	0.30446577
0.6515 	0.0039491219 	0.93194139 	0.30440657
0.6525 	0.0039487709 	0.93172852 	0.30432459
0.6535 	0.0039483003 	0.9314245 	0.30421192
0.6545 	0.0039476681 	0.93099797 	0.30405804
0.6555 	0.003946819 	0.93040702 	0.30384894
0.6565 	0.0039456794 	0.92959603 	0.30356603
0.6575 	0.0039441524 	0.92849123 	0.30318473
0.6585 	0.0039421102 	0.92699517 	0.30267265
0.6595 	0.003939385 	0.92497967 	0.30198734
0.6605 	0.003935758 	0.92227668 	0.30107353
0.6615 	0.0039309441 	0.91866727 	0.29985974
0.6625 	0.0039245749 	0.91386765 	0.2982544
0.6635 	0.0039161754 	0.90751276 	0.29614156
0.6645 	0.0039051379 	0.89913639 	0.29337645
0.6655 	0.0038906881 	0.88814896 	0.28978167
0.6665 	0.0038718459 	0.87381251 	0.28514488
0.6675 	0.0038473788 	0.85521555 	0.27922002
0.6685 	0.0038157528 	0.83125048 	0.2717345
0.6695 	0.0037750875 	0.80060084 	0.26240642
0.6705 	0.0037231433 	0.76175515 	0.25097699
0.6715 	0.0036574069 	0.71307468 	0.23726511
0.6725 	0.0035753933 	0.65297275 	0.22124913
0.6735 	0.0034754264 	0.58034371 	0.20317952
0.6745 	0.0033584613 	0.49543106 	0.18372631
0.6755 	0.0032308876 	0.40111096 	0.16409161
0.6765 	0.0031055288 	0.30400643 	0.14588147
0.6775 	0.0029972624 	0.21385279 	0.13061791
0.6785 	0.002915405 	0.13973194 	0.11913578
0.6795 	0.0028601837 	0.085672249 	0.11133417
0.6805 	0.0028258765 	0.050029818 	0.10645854
0.6815 	0.0028056696 	0.028248231 	0.10358976
0.6825 	0.0027941595 	0.01561467 	0.10196612
0.6835 	0.0027877397 	0.0085251238 	0.10106807
0.6845 	0.0027842064 	0.0046229516 	0.10057769
0.6855 	0.0027822779 	0.0024979795 	0.10031175
0.6865 	0.0027812308 	0.0013473218 	0.10016805
0.6875 	0.0027806641 	0.00072604692 	0.10009053
0.6885 	0.0027803581 	0.00039108398 	0.10004876
0.6895 	0.0027801929 	0.00021061359 	0.10002626
0.6905 	0.0027801039 	0.00011341244 	0.10001414
0.6915 	0.002780056 	6.1068151e-05 	0.10000761
0.6925 	0.0027800301 	3.2881948e-05 	0.1000041
0.6935 	0.0027800162 	1.7704928e-05 	0.10000221
0.6945 	0.0027800087 	9.5328448e-06 	0.10000119
0.6955 	0.0027800047 	5.1327199e-06 	0.10000064
0.6965 	0.0027800025 	2.7634876e-06 	0.10000034
0.6975 	0.0027800014 	1.487836e-06 	0.10000019
0.6985 	0.0027800007 	8.0098752e-07 	0.1000001
0.6995 	0.0027800004 	4.3120483e-07 	0.10000005
0.7005 	0.0027800002 	2.3210337e-07 	0.10000003
0.7015 	0.0027800001 	1.2492882e-07 	0.10000002
0.7025 	0.0027800001 	6.7187527e-08 	0.10000001
0.7035 	0.00278 	3.6127854e-08 	0.1
0.7045 	0.00278 	1.9352349e-08 	0.1
0.7055 	0.00278 	1.0404359e-08 	0.1
0.7065 	0.00278 	5.5210503e-09 	0.1
0.7075 	0.00278 	2.9529626e-09 	0.1
0.7085 	0.00278 	1.5346396e-09 	0.1
0.7095 	0.00278 	7.9428198e-10 	0.1
0.7105 	0.00278 	3.6861033e-10 	0.1
0.7115 	0.00278 	1.2419183e-10 	0.1
0.7125 	0.00278 	4.3436841e-11 	0.1
0.7135 	0.00278 	1.3257637e-11 	0.1
0.7145 	0.00278 	1.4870166e-11 	0.1
0.7155 	0.00278 	1.0206285e-11 	0.1
0.7165 	0.00278 	2.4490177e-11 	0.1
0.7175 	0.00278 	2.4370081e-11 	0.1
0.7185 	0.00278 	1.9556357e-11 	0.1
0.7195 	0.00278 	3.4978943e-11 	0.1
0.7205 	0.00278 	2.4217574e-11 	0.1
0.7215 	0.00278 	2.8594202e-11 	0.1
0.7225 	0.00278 	2.1797559e-11 	0.1
0.7235 	0.00278 	2.6848701e-11 	0.1
0.7245 	0.00278 	2.4967454e-11 	0.1
0.7255 	0.00278 	4.3702007e-11 	0.1
0.7265 	0.00278 	1.6981616e-11 	0.1
0.7275 	0.00278 	1.2151798e-11 	0.1
0.7285 	0.00278 	3.6970075e-12 	0.1
0.7295 	0.00278 	3.3598392e-11 	0.1
0.7305 	0.00278 	6.8825519e-12 	0.1
0.7315 	0.00278 	2.0689279e-11 	0.1
0.7325 	0.00278 	1.3582629e-11 	0.1
0.7335 	0.00278 	3.5937048e-11 	0.1
0.7345 	0.00278 	2.1156788e-11 	0.1
0.7355 	0.00278 	3.1031754e-11 	0.1
0.7365 	0.00278 	3.8754867e-11 	0.1
0.7375 	0.00278 	5.7551244e-11 	0.1
0.7385 	0.00278 	1.2017272e-11 	0.1
0.7395 	0.00278 	3.1834355e-12 	0.1
0.7405 	0.00278 	7.7792771e-12 	0.1
0.7415 	0.00278 	5.2228499e-12 	0.1
0.7425 	0.00278 	8.825401e-12 	0.1
0.7435 	0.00278 	2.2278166e-11 	0.1
0.7445 	0.00278 	2.3018056e-11 	0.1
0.7455 	0.00278 	1.0137468e-11 	0.1
0.7465 	0.00278 	2.6215477e-11 	0.1
0.7475 	0.00278 	1.8272039e-11 	0.1
0.7485 	0.00278 	1.0712309e-11 	0.1