/*--------------------------------*- C++ -*----------------------------------*\
| =========                 |                                                 |
| \\      /  F ield         | OpenFOAM: The Open Source CFD Toolbox           |
|  \\    /   O peration     | Version:  2112                                  |
|   \\  /    A nd           | Website:  www.openfoam.com                      |
|    \\/     M anipulation  |                                                 |
\*---------------------------------------------------------------------------*/
FoamFile
{
    version     2.0;
    format      ascii;
    arch        "LSB;label=32;scalar=64";
    class       volScalarField;
    location    "65";
    object      T;
}
// * * * * * * * * * * * * * * * * * * * * * * * * * * * * * * * * * * * * * //

dimensions      [0 0 0 1 0 0 0];

internalField   nonuniform List<scalar> 
10000
(
0.998128
1.00296
0.998195
0.998943
0.999079
0.998989
0.998945
0.998192
1.00291
0.99816
0.990582
0.99705
0.992635
0.993929
0.994205
0.99413
0.993929
0.992615
0.996858
0.990711
0.99178
0.996164
0.993165
0.993959
0.994189
0.994251
0.993982
0.993194
0.996058
0.991809
0.994612
0.997364
0.995492
0.995744
0.995827
0.995918
0.995792
0.995564
0.997476
0.99456
0.995883
0.997766
0.996808
0.996904
0.996925
0.996976
0.996946
0.996852
0.99794
0.99588
0.996445
0.997722
0.997267
0.997358
0.997376
0.997406
0.99739
0.997292
0.997832
0.996444
0.996947
0.99778
0.997542
0.997637
0.99766
0.997677
0.997655
0.997556
0.997813
0.996922
0.997343
0.99788
0.997768
0.997855
0.997886
0.997891
0.997862
0.997769
0.99789
0.997325
0.997597
0.997951
0.997907
0.997987
0.998021
0.99802
0.997987
0.997902
0.997956
0.997583
0.997759
0.997999
0.997991
0.998059
0.99809
0.998087
0.998055
0.997981
0.998002
0.997745
0.997869
0.998028
0.998026
0.998093
0.998106
0.998118
0.998092
0.998011
0.998052
0.997819
0.99795
0.998054
0.998041
0.998113
0.998106
0.998135
0.998115
0.998023
0.998098
0.997849
0.998009
0.99809
0.998083
0.998132
0.998132
0.998146
0.998126
0.998056
0.998103
0.997937
0.998051
0.998119
0.998113
0.998148
0.998152
0.998157
0.998138
0.998085
0.998101
0.998013
0.998057
0.998176
0.998157
0.998168
0.998186
0.998153
0.998125
0.998116
0.998107
0.99807
0.998016
0.99823
0.998178
0.998182
0.998211
0.998133
0.9981
0.998115
0.998115
0.998062
0.998063
0.99821
0.99816
0.998192
0.998202
0.998162
0.998134
0.998086
0.998083
0.998064
0.998182
0.998177
0.998179
0.998192
0.998177
0.998189
0.998161
0.99808
0.997999
0.998144
0.998151
0.998172
0.998195
0.998169
0.998142
0.998147
0.998104
0.998052
0.997908
0.998105
0.998024
0.998199
0.998225
0.998156
0.998165
0.998106
0.998041
0.998019
0.997759
0.998075
0.998026
0.998211
0.99825
0.998198
0.998208
0.998132
0.998045
0.997958
0.997598
0.998069
0.997976
0.998173
0.99822
0.998225
0.998203
0.998154
0.998029
0.997811
0.997353
0.997886
0.997638
0.998061
0.998116
0.998151
0.998147
0.998092
0.997922
0.997585
0.996853
0.997503
0.996977
0.997733
0.99783
0.99793
0.997985
0.997946
0.997743
0.997255
0.996023
0.996826
0.995722
0.996949
0.997164
0.997394
0.997566
0.997612
0.997429
0.996784
0.994716
0.995547
0.993278
0.995194
0.995662
0.996126
0.996527
0.996798
0.996802
0.996171
0.992868
0.993247
0.988478
0.991391
0.992331
0.993196
0.994017
0.994761
0.995302
0.995231
0.990324
0.988577
0.979196
0.983488
0.985176
0.986661
0.98818
0.989836
0.991699
0.994044
0.989993
0.983707
0.961785
0.967799
0.970467
0.972704
0.975124
0.978087
0.981911
0.988866
0.991344
0.979087
0.930747
0.938555
0.942038
0.944757
0.947978
0.952642
0.960274
0.97817
1.0286
1.06218
1.00288
1.0083
1.00333
1.00423
1.00442
1.00441
1.00423
1.00336
1.00821
1.0029
0.996786
1.00553
1.00108
1.00251
1.0029
1.00294
1.00251
1.0012
1.00547
0.99683
0.996163
1.00292
1.00037
1.001
1.00123
1.0012
1.00098
1.00045
1.00304
0.996076
0.99749
1.00149
1.00004
1.00007
1.00009
0.999996
1.00002
0.999968
1.00142
0.997543
0.997937
1.00013
0.999303
0.999202
0.999163
0.9991
0.999162
0.999211
1
0.998017
0.997832
0.999144
0.99876
0.998672
0.998618
0.998589
0.998652
0.998708
0.99912
0.997892
0.997786
0.998597
0.998479
0.998422
0.998377
0.998367
0.998415
0.998458
0.998673
0.997853
0.997859
0.998387
0.998342
0.998311
0.998283
0.998279
0.998309
0.998337
0.998456
0.997915
0.997933
0.998296
0.998271
0.998259
0.998247
0.998245
0.998259
0.998274
0.99834
0.997974
0.997987
0.998244
0.998232
0.998229
0.998231
0.998227
0.99823
0.998236
0.99827
0.998018
0.998034
0.998218
0.998247
0.998224
0.998258
0.998228
0.99822
0.998247
0.998248
0.998083
0.998082
0.998215
0.99829
0.99823
0.998306
0.998233
0.998222
0.998288
0.99825
0.99815
0.998113
0.998206
0.998261
0.998224
0.998276
0.998228
0.998218
0.998252
0.998222
0.998157
0.998126
0.998204
0.998234
0.998222
0.998242
0.998218
0.998208
0.998212
0.998188
0.998157
0.998155
0.99822
0.998186
0.99821
0.998189
0.998231
0.998225
0.998153
0.998151
0.998156
0.998159
0.998271
0.998169
0.998208
0.99814
0.998275
0.998265
0.99812
0.998129
0.998176
0.998093
0.99833
0.998252
0.998214
0.998158
0.998214
0.998191
0.998155
0.998097
0.998187
0.998076
0.998259
0.998256
0.998209
0.998193
0.998118
0.998077
0.998093
0.998003
0.998133
0.998128
0.998243
0.998273
0.998253
0.998258
0.998149
0.998096
0.998034
0.997937
0.998123
0.998136
0.998349
0.998278
0.998307
0.998222
0.998199
0.998126
0.997924
0.997823
0.99809
0.997973
0.998304
0.998222
0.998231
0.998117
0.998106
0.997988
0.997714
0.997495
0.997973
0.997698
0.998214
0.998213
0.998121
0.99807
0.997966
0.997801
0.997514
0.997055
0.997835
0.997373
0.998175
0.998178
0.998058
0.998015
0.997888
0.997669
0.997252
0.996522
0.997611
0.996763
0.997994
0.997998
0.997885
0.997854
0.997743
0.997473
0.996853
0.995687
0.997136
0.995569
0.997418
0.997468
0.997399
0.99743
0.997393
0.997117
0.996274
0.994367
0.996117
0.993242
0.995959
0.996142
0.996195
0.996391
0.996554
0.996438
0.995505
0.992488
0.994145
0.988661
0.992602
0.993067
0.993364
0.993896
0.994493
0.994903
0.994394
0.989807
0.989731
0.97975
0.98532
0.986265
0.986963
0.98807
0.989508
0.99117
0.99286
0.989383
0.985351
0.96283
0.970378
0.971951
0.973115
0.974962
0.9776
0.981029
0.987822
0.988658
0.980372
0.932147
0.941686
0.943663
0.944952
0.947366
0.951491
0.95833
0.977351
1.02926
1.05382
0.998207
1.00337
0.998075
0.998867
0.999053
0.99907
0.998845
0.998073
1.00337
0.998191
0.992632
1.00115
0.996224
0.997544
0.997988
0.998061
0.997574
0.996349
1.00122
0.992603
0.993182
1.00039
0.997464
0.997967
0.998288
0.998321
0.998025
0.99761
1.00043
0.993201
0.995503
1.00002
0.998682
0.998686
0.998798
0.998799
0.998717
0.998708
0.999912
0.995615
0.99681
0.999264
0.998797
0.998771
0.998789
0.998784
0.99878
0.998777
0.999156
0.996924
0.997272
0.998733
0.998666
0.998671
0.998655
0.998648
0.99867
0.998631
0.998674
0.997362
0.997554
0.998468
0.998543
0.99857
0.998554
0.998548
0.998564
0.998506
0.998442
0.99761
0.99778
0.998342
0.998436
0.998475
0.998472
0.998468
0.998466
0.998409
0.99833
0.997807
0.997916
0.998273
0.998356
0.998398
0.998405
0.998403
0.998391
0.99834
0.99827
0.997935
0.997991
0.998231
0.9983
0.998339
0.998353
0.998351
0.998335
0.99829
0.998232
0.998006
0.998043
0.998206
0.998265
0.998295
0.998315
0.998312
0.998294
0.998258
0.998207
0.998053
0.998082
0.998194
0.998245
0.998264
0.99829
0.998283
0.998264
0.998238
0.998193
0.998093
0.998107
0.99819
0.998233
0.998247
0.998269
0.998261
0.998245
0.998221
0.998181
0.998123
0.998118
0.998195
0.99823
0.998241
0.998253
0.998244
0.998229
0.998208
0.998172
0.998152
0.998122
0.998203
0.998223
0.998237
0.998237
0.99823
0.998214
0.998187
0.99816
0.998175
0.998121
0.998222
0.998221
0.998234
0.998223
0.998224
0.998202
0.998166
0.998141
0.998195
0.998114
0.998234
0.998226
0.998225
0.998214
0.998213
0.998185
0.998145
0.998109
0.998214
0.998087
0.998225
0.998229
0.998212
0.998203
0.99819
0.998158
0.99811
0.998053
0.998228
0.998042
0.998232
0.998243
0.998211
0.998194
0.998166
0.998127
0.99806
0.997984
0.998253
0.997978
0.998257
0.998261
0.998224
0.998186
0.99815
0.998092
0.997988
0.99788
0.998284
0.997861
0.998273
0.998277
0.998226
0.998175
0.998127
0.998038
0.99788
0.997701
0.998305
0.99766
0.99827
0.99828
0.998204
0.998151
0.998083
0.997954
0.997722
0.997413
0.998298
0.997307
0.998212
0.998235
0.998138
0.998083
0.998002
0.997824
0.997476
0.99695
0.9982
0.996653
0.998012
0.998067
0.997963
0.997921
0.997846
0.997619
0.997108
0.996206
0.997882
0.995445
0.99748
0.997602
0.997523
0.997531
0.997514
0.997277
0.996576
0.995022
0.997059
0.993171
0.996162
0.996432
0.99644
0.996578
0.996733
0.996629
0.99585
0.993293
0.995305
0.988786
0.993107
0.99365
0.993842
0.994244
0.994776
0.995123
0.994732
0.990801
0.991172
0.980276
0.986353
0.987329
0.987818
0.988672
0.989902
0.991341
0.993006
0.990429
0.987552
0.963963
0.972183
0.973665
0.974444
0.975836
0.978001
0.980985
0.987422
0.989335
0.983279
0.933816
0.944239
0.945905
0.946533
0.948179
0.951434
0.957388
0.975201
1.02908
1.05881
0.998956
1.00425
0.998854
0.999669
0.999874
0.999876
0.999649
0.998835
1.00425
0.998936
0.993942
1.00252
0.997519
0.998789
0.999232
0.999259
0.998793
0.997581
1.00256
0.993878
0.993992
1.00098
0.997964
0.998335
0.998627
0.998652
0.998365
0.998064
1.00097
0.993979
0.995756
1.00006
0.9987
0.998595
0.998677
0.998689
0.998623
0.998735
0.99995
0.995868
0.996912
0.999195
0.998779
0.998702
0.998698
0.9987
0.998717
0.998776
0.999096
0.997044
0.997374
0.998662
0.998672
0.998681
0.998657
0.998657
0.998689
0.998656
0.998606
0.997481
0.997645
0.998414
0.998568
0.998631
0.99862
0.99862
0.998633
0.998548
0.998389
0.997725
0.997855
0.998305
0.998472
0.998553
0.998562
0.998561
0.998552
0.998457
0.998298
0.997911
0.997983
0.998258
0.998397
0.998476
0.998496
0.998496
0.998473
0.998387
0.998255
0.998025
0.998053
0.998232
0.998343
0.998411
0.998436
0.998436
0.998408
0.998335
0.99823
0.998089
0.998099
0.998216
0.998306
0.998361
0.998387
0.998385
0.998357
0.998299
0.998218
0.998128
0.998131
0.998209
0.998281
0.998322
0.998347
0.998343
0.998319
0.998274
0.998211
0.998158
0.998147
0.998206
0.998262
0.998292
0.998313
0.998309
0.998289
0.998252
0.998202
0.99818
0.99815
0.998207
0.998248
0.99827
0.998286
0.998282
0.998264
0.998232
0.998191
0.998198
0.998144
0.998211
0.998237
0.998254
0.998263
0.998259
0.998243
0.998213
0.998178
0.998212
0.998132
0.998216
0.998231
0.998242
0.998244
0.998244
0.998225
0.998193
0.998161
0.998228
0.998115
0.998218
0.998234
0.998234
0.99823
0.998226
0.998205
0.998171
0.998136
0.998249
0.998087
0.998216
0.998236
0.998225
0.998218
0.998206
0.998179
0.998139
0.998095
0.998271
0.998045
0.998223
0.998244
0.998221
0.998208
0.998188
0.998152
0.998095
0.998037
0.998304
0.997975
0.998237
0.998254
0.998221
0.998196
0.998169
0.998118
0.998032
0.997945
0.998344
0.997842
0.998242
0.998258
0.998213
0.998179
0.998142
0.998065
0.997934
0.997787
0.998378
0.997618
0.998234
0.998254
0.998192
0.99815
0.9981
0.997988
0.997788
0.997529
0.998388
0.997261
0.998172
0.998217
0.998135
0.998089
0.998029
0.997872
0.997566
0.997108
0.998315
0.996627
0.997981
0.998073
0.99798
0.997943
0.997891
0.997688
0.99723
0.996419
0.998035
0.995469
0.997497
0.997653
0.997578
0.997582
0.997583
0.997365
0.996726
0.995295
0.997254
0.993302
0.996282
0.996577
0.99657
0.996679
0.996834
0.99673
0.99601
0.993621
0.99555
0.989117
0.993429
0.993973
0.994104
0.994426
0.994911
0.995206
0.99485
0.991229
0.991605
0.980942
0.987016
0.987939
0.988284
0.988961
0.990048
0.991351
0.993023
0.990786
0.988214
0.965063
0.973295
0.974626
0.975121
0.976167
0.977982
0.980613
0.98665
0.989174
0.984242
0.935164
0.945654
0.947014
0.947158
0.948211
0.950807
0.956062
0.97322
1.02807
1.05999
0.998948
1.00449
0.999069
0.999827
1.00004
1.00004
0.999814
0.999057
1.0045
0.998933
0.994058
1.00301
0.998052
0.999243
0.999664
0.999675
0.999247
0.998105
1.00306
0.994014
0.994331
1.00105
0.998284
0.998647
0.998934
0.998949
0.998672
0.998376
1.00106
0.994326
0.99594
0.999946
0.998776
0.998653
0.998727
0.99874
0.99868
0.998818
0.999866
0.996043
0.996975
0.999096
0.998771
0.998678
0.99866
0.998666
0.998692
0.998772
0.999013
0.997105
0.997401
0.998591
0.998641
0.998647
0.998613
0.998616
0.998656
0.998628
0.998539
0.99752
0.997669
0.998365
0.998545
0.998616
0.998602
0.998604
0.998621
0.99853
0.998341
0.99776
0.99788
0.998279
0.998463
0.99856
0.99857
0.99857
0.998561
0.998455
0.998269
0.997948
0.998008
0.998254
0.9984
0.998495
0.998519
0.998519
0.998495
0.998396
0.998242
0.998064
0.998083
0.998237
0.998356
0.998437
0.998466
0.998466
0.998436
0.998351
0.99823
0.998125
0.99813
0.99822
0.998325
0.998388
0.998416
0.998415
0.998385
0.998316
0.998223
0.998161
0.998155
0.998216
0.9983
0.998347
0.998372
0.99837
0.998343
0.998289
0.998218
0.998187
0.998166
0.998211
0.998277
0.998313
0.998334
0.998333
0.998309
0.998266
0.99821
0.998204
0.998163
0.99821
0.998254
0.998286
0.998303
0.998301
0.998281
0.998245
0.9982
0.998217
0.998151
0.99822
0.998238
0.998265
0.998278
0.998275
0.998257
0.998225
0.998188
0.998229
0.998138
0.99823
0.998236
0.998251
0.998257
0.998254
0.998236
0.998205
0.998172
0.998244
0.998125
0.998223
0.998243
0.998241
0.998241
0.998235
0.998214
0.998182
0.998149
0.998265
0.9981
0.998215
0.998248
0.998232
0.998227
0.998216
0.99819
0.998151
0.998111
0.99829
0.998052
0.998221
0.998251
0.998227
0.998214
0.998198
0.998164
0.998109
0.998055
0.998323
0.997976
0.998231
0.998254
0.998222
0.998201
0.998177
0.998129
0.998049
0.997966
0.998364
0.997829
0.998261
0.998258
0.998214
0.998184
0.99815
0.998078
0.997956
0.997816
0.998401
0.99759
0.998294
0.998259
0.998194
0.998154
0.998109
0.998003
0.997815
0.997568
0.998416
0.997265
0.998186
0.99822
0.998139
0.998094
0.998041
0.997891
0.997598
0.997158
0.998351
0.996659
0.997964
0.99808
0.997989
0.997952
0.997907
0.99771
0.997268
0.996477
0.998079
0.995512
0.997547
0.997679
0.997601
0.997599
0.997603
0.997389
0.996767
0.995361
0.997305
0.993408
0.996375
0.996643
0.996622
0.996712
0.99686
0.996749
0.996046
0.993693
0.995612
0.989332
0.993607
0.994116
0.994206
0.994482
0.994941
0.995206
0.994857
0.99131
0.991708
0.981344
0.987337
0.988203
0.988462
0.989041
0.99005
0.991275
0.992923
0.990807
0.988368
0.965682
0.973804
0.975032
0.97536
0.976217
0.977865
0.980342
0.986265
0.988911
0.984388
0.935847
0.94628
0.947425
0.94728
0.948017
0.950295
0.955251
0.971982
1.02693
1.05899
0.999089
1.00442
0.999043
0.999864
1.00008
1.00008
0.99985
0.99903
1.00443
0.999071
0.994204
1.00289
0.997967
0.999219
0.999662
0.999668
0.999221
0.998021
1.00295
0.99414
0.994174
1.00125
0.9983
0.99863
0.998914
0.998926
0.998653
0.998387
1.00126
0.994156
0.995818
1.00012
0.998816
0.998685
0.998755
0.998767
0.998708
0.998851
1.00003
0.995922
0.996929
0.999175
0.998793
0.998699
0.998679
0.998686
0.998711
0.998793
0.999089
0.997063
0.997382
0.998624
0.998653
0.998657
0.99862
0.998625
0.998664
0.998638
0.998566
0.997506
0.99766
0.998382
0.99855
0.99862
0.998605
0.998607
0.998624
0.998533
0.998349
0.997757
0.997858
0.998317
0.998467
0.998562
0.998571
0.998571
0.998562
0.998454
0.998271
0.997949
0.997971
0.998332
0.998406
0.998497
0.998521
0.998519
0.998495
0.998394
0.998242
0.998064
0.99808
0.99826
0.99836
0.998439
0.998467
0.998466
0.998435
0.998349
0.99823
0.998126
0.998156
0.99817
0.998324
0.998387
0.998416
0.998415
0.998384
0.998314
0.998224
0.998162
0.998169
0.998175
0.998296
0.998346
0.998371
0.99837
0.998342
0.998287
0.998218
0.998187
0.998173
0.998193
0.998271
0.998312
0.998333
0.998332
0.998309
0.998265
0.99821
0.998203
0.998154
0.998235
0.998254
0.998286
0.998302
0.998301
0.99828
0.998245
0.998201
0.998217
0.998106
0.998321
0.998249
0.998269
0.998279
0.998275
0.998256
0.998226
0.998189
0.99823
0.998098
0.998322
0.998248
0.998255
0.99826
0.998254
0.998235
0.998206
0.998173
0.998246
0.998137
0.998194
0.998244
0.998242
0.998242
0.998235
0.998215
0.998182
0.998149
0.998267
0.998139
0.99812
0.998239
0.99823
0.998227
0.998217
0.998192
0.998152
0.998112
0.998291
0.998078
0.998154
0.998239
0.998224
0.998214
0.998198
0.998165
0.998111
0.998055
0.998324
0.997984
0.998203
0.998245
0.998219
0.9982
0.998177
0.998129
0.99805
0.997965
0.998364
0.997841
0.998228
0.998254
0.998211
0.998183
0.99815
0.998078
0.997958
0.997817
0.998403
0.997623
0.998225
0.998256
0.998192
0.998155
0.998111
0.998005
0.997817
0.997572
0.998419
0.997274
0.998164
0.998222
0.998139
0.998096
0.998043
0.997892
0.997601
0.997161
0.998352
0.996652
0.997988
0.998085
0.997991
0.997953
0.997908
0.997712
0.99727
0.99648
0.998078
0.995523
0.997528
0.997685
0.997605
0.997601
0.997606
0.997391
0.996771
0.995365
0.997304
0.993413
0.99637
0.996653
0.996626
0.996716
0.996865
0.996754
0.996051
0.993703
0.995625
0.989341
0.993628
0.994134
0.994216
0.994492
0.994952
0.995219
0.994868
0.991307
0.991699
0.981355
0.987401
0.988242
0.988487
0.989063
0.990067
0.991273
0.992885
0.990844
0.988573
0.965717
0.973926
0.975106
0.975421
0.976277
0.977929
0.980429
0.986468
0.988958
0.98394
0.935949
0.946442
0.947563
0.947409
0.948144
0.950429
0.955404
0.972118
1.02733
1.06026
0.99893
1.00425
0.99886
0.999652
0.999853
0.99985
0.999636
0.998842
1.00425
0.998911
0.993891
1.00254
0.997556
0.998792
0.999227
0.99923
0.998789
0.997599
1.00259
0.993825
0.993948
1.00101
0.998005
0.998354
0.998641
0.99865
0.998372
0.998086
1.00101
0.993922
0.995778
1.00004
0.998703
0.99861
0.998692
0.998702
0.998629
0.998734
0.999947
0.995877
0.996939
0.999175
0.998769
0.998706
0.998701
0.998706
0.998716
0.998767
0.999082
0.997071
0.997383
0.998658
0.998664
0.998683
0.99866
0.998663
0.998689
0.998648
0.998598
0.997503
0.997644
0.998419
0.99856
0.99863
0.998622
0.998624
0.998632
0.998541
0.998384
0.997739
0.997842
0.998318
0.998462
0.998551
0.998562
0.998562
0.99855
0.998449
0.998294
0.997919
0.997969
0.998276
0.998389
0.998474
0.998495
0.998495
0.998471
0.99838
0.998254
0.998028
0.998049
0.998244
0.998342
0.998411
0.998437
0.998435
0.998408
0.998331
0.998232
0.998092
0.998101
0.998218
0.998309
0.998362
0.998387
0.998385
0.998357
0.998296
0.998219
0.998134
0.998137
0.998209
0.998284
0.998324
0.998345
0.998344
0.99832
0.998272
0.998211
0.998162
0.998152
0.998204
0.998262
0.998294
0.998311
0.998311
0.99829
0.998251
0.998203
0.998183
0.998145
0.998208
0.998242
0.998271
0.998284
0.998283
0.998264
0.998231
0.998193
0.9982
0.998128
0.998228
0.998232
0.998255
0.998265
0.998261
0.998243
0.998214
0.99818
0.998215
0.99812
0.998236
0.998233
0.998244
0.998248
0.998243
0.998225
0.998195
0.998163
0.998231
0.998121
0.998221
0.99824
0.998236
0.998234
0.998226
0.998205
0.998172
0.998137
0.998252
0.99811
0.998209
0.998245
0.998229
0.998221
0.998209
0.998182
0.998141
0.998099
0.998277
0.998046
0.998247
0.99825
0.998224
0.99821
0.998191
0.998154
0.998098
0.99804
0.998306
0.99794
0.998312
0.998261
0.998223
0.998199
0.99817
0.998118
0.998035
0.997945
0.998341
0.997835
0.998266
0.998267
0.998216
0.998182
0.998143
0.998066
0.997939
0.99779
0.998376
0.997653
0.998179
0.998263
0.998194
0.998153
0.998102
0.997991
0.997794
0.997537
0.998388
0.997295
0.998125
0.998224
0.998138
0.998092
0.998032
0.997875
0.997571
0.997118
0.998318
0.996652
0.997963
0.998077
0.997985
0.997947
0.997895
0.997692
0.997237
0.996427
0.998042
0.995491
0.997491
0.997661
0.997586
0.997589
0.997589
0.997371
0.996738
0.995305
0.997262
0.993328
0.996293
0.996594
0.996585
0.996692
0.996845
0.99674
0.996027
0.99364
0.995561
0.989164
0.993465
0.994009
0.994137
0.994456
0.994938
0.99523
0.994878
0.991253
0.991609
0.981033
0.987104
0.988019
0.988358
0.989028
0.990101
0.991375
0.993058
0.990826
0.988246
0.965245
0.973485
0.974802
0.975292
0.976327
0.978123
0.98071
0.986773
0.98921
0.984141
0.935514
0.946024
0.947377
0.947517
0.948562
0.951142
0.956344
0.973424
1.02822
1.05988
0.998197
1.00336
0.998081
0.998856
0.99905
0.999048
0.998842
0.998068
1.00337
0.998178
0.992608
1.00118
0.996332
0.997575
0.998009
0.998018
0.997591
0.996403
1.00127
0.992555
0.993175
1.00045
0.997588
0.998042
0.998353
0.998369
0.99808
0.997705
1.0005
0.993161
0.995541
0.999989
0.998693
0.998711
0.998821
0.99883
0.998728
0.998726
0.999884
0.995632
0.996825
0.999217
0.998764
0.998759
0.998776
0.99878
0.998762
0.998755
0.999103
0.996949
0.997271
0.998706
0.998624
0.998648
0.998634
0.998635
0.998646
0.998596
0.998627
0.997377
0.997543
0.998464
0.998502
0.998547
0.998535
0.998534
0.998541
0.998469
0.998407
0.997617
0.997749
0.99834
0.998405
0.998457
0.998457
0.998455
0.99845
0.998378
0.998308
0.997809
0.997885
0.99828
0.998341
0.998388
0.998397
0.998395
0.998381
0.99832
0.998259
0.997931
0.997979
0.998249
0.998298
0.998339
0.998352
0.99835
0.998332
0.998281
0.99823
0.998009
0.998042
0.998218
0.99827
0.998303
0.998318
0.998316
0.998297
0.998255
0.998213
0.998066
0.998088
0.998201
0.998255
0.998278
0.998291
0.998289
0.998272
0.998238
0.998201
0.99811
0.998114
0.998194
0.998241
0.998259
0.998271
0.998268
0.998253
0.998223
0.998189
0.998141
0.998123
0.998199
0.998225
0.998244
0.998254
0.998251
0.998235
0.998209
0.998177
0.998165
0.998129
0.998224
0.998219
0.998235
0.99824
0.998235
0.998219
0.998193
0.998162
0.998187
0.998122
0.998238
0.998223
0.99823
0.998229
0.998222
0.998202
0.998174
0.998142
0.998205
0.998111
0.998229
0.998236
0.998227
0.99822
0.998208
0.998183
0.99815
0.998112
0.998221
0.998099
0.998218
0.998245
0.998222
0.99821
0.998192
0.998162
0.998115
0.998064
0.998239
0.998059
0.998238
0.998249
0.99822
0.998201
0.998174
0.998132
0.998065
0.997992
0.998261
0.997982
0.998277
0.998261
0.998221
0.998192
0.998153
0.998091
0.997992
0.997881
0.998283
0.997859
0.998282
0.998279
0.998217
0.998176
0.998123
0.998033
0.997883
0.997702
0.9983
0.997662
0.998258
0.998285
0.998198
0.998145
0.998077
0.997947
0.997719
0.997416
0.998287
0.997314
0.998198
0.998242
0.998138
0.99808
0.998001
0.997821
0.997475
0.996956
0.998189
0.996665
0.998004
0.998076
0.99797
0.997924
0.997852
0.997625
0.997117
0.996216
0.997887
0.995465
0.997479
0.997616
0.997539
0.997543
0.997526
0.99729
0.996595
0.995037
0.997082
0.993206
0.996184
0.996461
0.996468
0.996603
0.996757
0.996652
0.99588
0.993325
0.995359
0.988854
0.993166
0.99371
0.993897
0.994295
0.994824
0.995169
0.994784
0.990848
0.991268
0.980409
0.986485
0.987458
0.987939
0.988782
0.989997
0.99141
0.993092
0.990538
0.98779
0.964235
0.97246
0.973937
0.974708
0.976086
0.978233
0.981194
0.987721
0.989511
0.983401
0.934343
0.944786
0.946451
0.947077
0.948709
0.951949
0.957814
0.975748
1.02971
1.05908
1.0029
1.0082
1.00335
1.00423
1.00441
1.00441
1.00424
1.00337
1.00823
1.00288
0.996835
1.00544
1.00118
1.00253
1.00292
1.00293
1.00256
1.00126
1.00556
0.996773
0.996031
1.00309
1.00042
1.00099
1.00128
1.00128
1.00101
1.0005
1.0031
0.996
0.997421
1.00155
0.999924
0.999978
1.00007
1.00006
0.999954
0.999889
1.0013
0.997522
0.997927
1.00005
0.999154
0.99911
0.999111
0.999106
0.999086
0.999106
0.999885
0.998041
0.99786
0.999104
0.998667
0.998612
0.99858
0.998577
0.998599
0.998628
0.999059
0.99794
0.997803
0.998721
0.998443
0.998395
0.998358
0.998355
0.998385
0.998406
0.99865
0.997895
0.997909
0.998474
0.998332
0.998303
0.998276
0.998273
0.998296
0.998307
0.99845
0.997944
0.99802
0.998339
0.998276
0.99826
0.998245
0.998244
0.998254
0.998257
0.99834
0.997992
0.997992
0.998323
0.998246
0.998238
0.998234
0.998233
0.998232
0.99823
0.998275
0.99803
0.998008
0.99822
0.998222
0.998224
0.998227
0.998226
0.99822
0.998214
0.998237
0.998065
0.998089
0.998128
0.998212
0.998216
0.998221
0.998221
0.998213
0.998203
0.998209
0.998096
0.998123
0.998142
0.998206
0.99821
0.998217
0.998216
0.998207
0.998192
0.998186
0.99812
0.998141
0.998223
0.998204
0.99821
0.998214
0.99821
0.998198
0.99818
0.998163
0.998139
0.99813
0.998347
0.998213
0.998215
0.998213
0.998204
0.998188
0.998166
0.99814
0.99815
0.998088
0.998336
0.998219
0.998218
0.998211
0.998197
0.998176
0.998148
0.998112
0.998155
0.998104
0.998183
0.998226
0.998215
0.998204
0.998187
0.998159
0.998119
0.998069
0.998156
0.998151
0.998121
0.998235
0.998211
0.998196
0.998172
0.998136
0.998079
0.998007
0.998151
0.998135
0.99823
0.998254
0.998215
0.998191
0.998156
0.998103
0.99802
0.997913
0.998132
0.998068
0.998367
0.998279
0.998225
0.998187
0.998135
0.998056
0.997931
0.997766
0.998096
0.99795
0.998331
0.998292
0.998224
0.998173
0.998101
0.997988
0.997798
0.997535
0.998029
0.997769
0.998236
0.998287
0.998198
0.998138
0.998049
0.997888
0.9976
0.997175
0.997899
0.997451
0.998193
0.998234
0.998126
0.998063
0.997959
0.997741
0.997309
0.99661
0.997644
0.996834
0.998009
0.998038
0.997933
0.997888
0.997788
0.997517
0.996892
0.995734
0.997139
0.995642
0.997437
0.997503
0.99744
0.997461
0.997424
0.997148
0.996308
0.994385
0.996086
0.993322
0.996
0.996191
0.996242
0.996429
0.996587
0.996465
0.995541
0.992492
0.99408
0.988786
0.992687
0.993154
0.99344
0.993962
0.994555
0.994943
0.994443
0.989782
0.989616
0.979968
0.985492
0.986437
0.987123
0.988216
0.989628
0.991231
0.992964
0.989388
0.985316
0.963238
0.970733
0.972301
0.97346
0.975285
0.977874
0.981271
0.988168
0.988468
0.979823
0.932878
0.94237
0.944348
0.945642
0.948019
0.9521
0.958796
0.978085
1.02917
1.05392
0.998171
1.0029
0.998205
0.998933
0.999073
0.999069
0.99892
0.998186
1.00289
0.998174
0.990751
0.996842
0.992608
0.993859
0.994128
0.99412
0.99383
0.992567
0.996779
0.990742
0.991771
0.996079
0.993171
0.993917
0.994101
0.994096
0.993902
0.993159
0.996
0.991784
0.994463
0.997568
0.995574
0.995829
0.995878
0.995887
0.99585
0.995621
0.997518
0.994574
0.995832
0.998047
0.996889
0.997024
0.997031
0.997042
0.99705
0.99694
0.998037
0.995927
0.996417
0.997901
0.997334
0.997462
0.997474
0.997483
0.997487
0.99737
0.997936
0.996484
0.996874
0.997871
0.997591
0.997708
0.997732
0.997737
0.997727
0.997609
0.997892
0.996951
0.997283
0.997941
0.997791
0.997897
0.997933
0.997936
0.997908
0.997802
0.99794
0.997349
0.997512
0.998002
0.997918
0.998014
0.998054
0.998055
0.998017
0.997926
0.997987
0.997611
0.997716
0.998026
0.998002
0.998084
0.998117
0.998116
0.998079
0.998003
0.998024
0.997774
0.997944
0.998021
0.998068
0.998127
0.998151
0.998151
0.998121
0.998056
0.998058
0.997889
0.998042
0.998043
0.998118
0.998152
0.998172
0.998173
0.998147
0.998093
0.998085
0.997972
0.998071
0.998089
0.998142
0.998167
0.998186
0.998185
0.998162
0.99812
0.998104
0.998033
0.998042
0.998158
0.998149
0.998179
0.998195
0.998192
0.998172
0.998137
0.998116
0.99808
0.997979
0.998245
0.998157
0.998192
0.998203
0.998196
0.998176
0.998145
0.998119
0.998113
0.998076
0.998239
0.998176
0.998202
0.998205
0.998195
0.998175
0.998143
0.998108
0.99813
0.998227
0.998168
0.998206
0.998208
0.998203
0.998188
0.998167
0.998132
0.998086
0.998135
0.998248
0.998163
0.998229
0.998211
0.998202
0.998182
0.998153
0.998111
0.998045
0.998128
0.998151
0.998221
0.998235
0.998215
0.998203
0.998177
0.99813
0.998074
0.997972
0.998104
0.998027
0.998293
0.998234
0.998222
0.998205
0.998166
0.998099
0.998013
0.997851
0.998054
0.998038
0.998246
0.998228
0.99822
0.998201
0.998148
0.998054
0.997917
0.997658
0.997959
0.997985
0.998132
0.998204
0.998196
0.998181
0.998116
0.997987
0.997774
0.997343
0.997778
0.997649
0.998016
0.998109
0.998125
0.998127
0.998059
0.997887
0.997559
0.996831
0.997436
0.997
0.997711
0.997833
0.997925
0.997979
0.997935
0.997727
0.997244
0.996011
0.996788
0.995763
0.99695
0.99718
0.99741
0.997578
0.99762
0.997431
0.996792
0.994713
0.995528
0.993346
0.995224
0.995708
0.99617
0.996564
0.996829
0.996827
0.996207
0.992883
0.993254
0.988606
0.991484
0.992434
0.993292
0.994099
0.994836
0.995366
0.995316
0.990367
0.988619
0.979436
0.983693
0.985385
0.986859
0.988357
0.989995
0.991824
0.994233
0.99016
0.983901
0.962237
0.968223
0.970888
0.973113
0.975506
0.978432
0.982203
0.989269
0.991606
0.979252
0.931557
0.939346
0.942836
0.945556
0.94875
0.953371
0.960909
0.978957
1.02944
1.06213
0.879043
0.887919
0.891102
0.89292
0.895314
0.899047
0.905286
0.911169
0.958727
1.00889
0.79987
0.80792
0.808484
0.806906
0.806126
0.807333
0.812989
0.820995
0.854026
0.937991
0.6903
0.69467
0.689429
0.681325
0.674267
0.670281
0.671686
0.67955
0.697155
0.745788
0.555212
0.553241
0.539827
0.523137
0.50746
0.49492
0.486744
0.48336
0.4839
0.493549
0.408779
0.399944
0.379272
0.355896
0.334073
0.315271
0.299879
0.287703
0.278192
0.272902
0.271149
0.257911
0.234836
0.210812
0.189058
0.170319
0.154417
0.140849
0.129231
0.120157
0.159953
0.14657
0.126676
0.107474
0.0909168
0.0771119
0.0655743
0.0557271
0.0472357
0.0404507
0.0831983
0.0728729
0.0592342
0.0470068
0.037066
0.0291824
0.0228534
0.017656
0.0133513
0.0101719
0.0380068
0.0316785
0.0240891
0.0177523
0.0129209
0.00930965
0.00658215
0.00447293
0.00287372
0.00190147
0.0152816
0.0121142
0.00861634
0.00588286
0.00393219
0.00257035
0.00161877
0.000943154
0.000498731
0.000321497
0.88002
0.890741
0.891938
0.891873
0.893103
0.895968
0.901359
0.904354
0.957207
1.00505
0.798584
0.808544
0.806516
0.802406
0.79978
0.799202
0.803273
0.808206
0.839314
0.930557
0.684059
0.690216
0.681841
0.670534
0.660801
0.654061
0.652554
0.656949
0.669174
0.717865
0.541844
0.541279
0.524747
0.504795
0.486308
0.470756
0.458955
0.451032
0.445131
0.448339
0.388913
0.381067
0.358537
0.333553
0.310422
0.290152
0.272848
0.258022
0.244766
0.235161
0.249246
0.236974
0.214116
0.190548
0.169354
0.151012
0.135188
0.121142
0.108483
0.0982448
0.14137
0.129049
0.110796
0.0933524
0.0783853
0.0659121
0.0553416
0.0460416
0.037898
0.031608
0.070523
0.0613085
0.0495985
0.0392152
0.0307983
0.0241332
0.0186774
0.0140844
0.0102858
0.00780349
0.0308942
0.0254636
0.0193111
0.0142328
0.0103636
0.00746851
0.00523418
0.0034502
0.00216964
0.00152897
0.0119417
0.00932607
0.00662284
0.00453581
0.00304477
0.00199702
0.001253
0.000699352
0.000373843
0.000278054
0.881303
0.893185
0.893739
0.892596
0.892619
0.894147
0.897693
0.897504
0.950688
1.00231
0.797156
0.808494
0.805424
0.7997
0.795237
0.792579
0.79387
0.796127
0.821861
0.916017
0.676214
0.683829
0.674161
0.660849
0.648723
0.639025
0.633721
0.633465
0.639143
0.681203
0.524478
0.525217
0.507713
0.486191
0.465662
0.447415
0.432032
0.419407
0.407131
0.403129
0.36301
0.356292
0.334467
0.309833
0.286514
0.265467
0.246775
0.229945
0.214054
0.201634
0.221277
0.210412
0.189946
0.168649
0.149153
0.131952
0.1168
0.103125
0.0906945
0.0807493
0.118304
0.107735
0.0926244
0.0781537
0.0655406
0.0548634
0.0456628
0.0375293
0.0304366
0.0251808
0.0554661
0.0479685
0.0389576
0.0309965
0.0244473