/*--------------------------------*- C++ -*----------------------------------*\
| =========                 |                                                 |
| \\      /  F ield         | OpenFOAM: The Open Source CFD Toolbox           |
|  \\    /   O peration     | Version:  2112                                  |
|   \\  /    A nd           | Website:  www.openfoam.com                      |
|    \\/     M anipulation  |                                                 |
\*---------------------------------------------------------------------------*/
FoamFile
{
    version     2.0;
    format      ascii;
    arch        "LSB;label=32;scalar=64";
    class       volScalarField;
    location    "5";
    object      T;
}
// * * * * * * * * * * * * * * * * * * * * * * * * * * * * * * * * * * * * * //

dimensions      [0 0 0 1 0 0 0];

internalField   nonuniform List<scalar> 
1000
(
0
0
0
0
0
0
0
0
0
0
0
0
0
0
4.44659e-323
-3.73514e-321
2.83692e-319
-1.99011e-317
1.29675e-315
-7.88318e-314
4.48844e-312
-2.40174e-310
1.21148e-308
-5.77633e-307
2.60977e-305
-1.11978e-303
4.57218e-302
-1.77981e-300
6.61632e-299
-2.35249e-297
8.01175e-296
-2.61692e-294
8.20816e-293
-2.47508e-291
7.18252e-290
-2.00788e-288
5.41217e-287
-1.40783e-285
3.53689e-284
-8.58843e-283
2.01713e-281
-4.58533e-280
1.00947e-278
-2.15358e-277
4.4546e-276
-8.93848e-275
1.74076e-273
-3.29182e-272
6.04702e-271
-1.07953e-269
1.87361e-268
-3.16254e-267
5.19339e-266
-8.29972e-265
1.29123e-263
-1.9561e-262
2.8863e-261
-4.14914e-260
5.81221e-259
-7.93561e-258
1.05623e-256
-1.37073e-255
1.73472e-254
-2.14118e-253
2.57797e-252
-3.02797e-251
3.46987e-250
-3.87969e-249
4.23282e-248
-4.50639e-247
4.68171e-246
-4.74636e-245
4.69558e-244
-4.53291e-243
4.2697e-242
-3.9239e-241
3.51797e-240
-3.07654e-239
2.62397e-238
-2.18222e-237
1.76921e-236
-1.39794e-235
1.07618e-234
-8.06879e-234
5.8895e-233
-4.18291e-232
2.88908e-231
-1.93923e-230
1.26399e-229
-7.99294e-229
4.89816e-228
-2.90501e-227
1.66474e-226
-9.19949e-226
4.88985e-225
-2.49182e-224
1.21203e-223
-5.59254e-223
2.42569e-222
-9.74583e-222
3.53234e-221
-1.09015e-220
2.38704e-220
3.66275e-221
-4.37482e-219
3.24628e-218
-1.68865e-217
7.04972e-217
-2.35235e-216
5.42842e-216
-6.46647e-217
-8.17954e-215
5.74815e-214
-2.644e-213
8.9342e-213
-1.90356e-212
-1.00001e-212
3.49424e-211
-2.08887e-210
8.08686e-210
-2.01941e-209
8.37429e-210
2.36381e-208
-1.54154e-207
5.87145e-207
-1.31969e-206
-3.78273e-207
2.00835e-205
-1.08839e-204
3.42574e-204
-4.61165e-204
-1.95621e-203
1.65666e-202
-6.34979e-202
1.24853e-201
1.48696e-201
-2.33035e-200
1.00622e-199
-2.21788e-199
-1.18642e-199
3.26549e-198
-1.45215e-197
3.13158e-197
2.15399e-197
-4.67408e-196
1.93237e-195
-3.55179e-195
-5.79684e-195
6.62998e-194
-2.31095e-193
2.83693e-193
1.30871e-192
-8.75712e-192
2.32243e-191
-3.91056e-192
-2.31664e-190
9.99642e-190
-1.65469e-189
-3.73e-189
3.20624e-188
-8.86933e-188
2.07708e-188
8.16617e-187
-3.34073e-186
4.54144e-186
1.59836e-185
-1.03946e-184
2.26321e-184
1.8214e-184
-2.82773e-183
8.33127e-183
-2.59934e-183
-6.9175e-182
2.62804e-181
-2.56574e-181
-1.54866e-180
7.51574e-180
-1.082e-179
-3.2207e-179
2.00923e-178
-3.58044e-178
-6.34617e-178
5.12279e-177
-1.03914e-176
-1.22689e-176
1.26331e-175
-2.75674e-175
-2.46945e-175
3.04167e-174
-6.80931e-174
-5.54399e-174
7.18463e-173
-1.57702e-172
-1.42256e-172
1.66533e-171
-3.42055e-171
-3.9843e-171
3.77284e-170
-6.8822e-170
-1.13707e-169
8.29108e-169
-1.25614e-168
-3.1498e-168
1.74854e-167
-1.9768e-167
-8.25574e-167
3.48949e-166
-2.3039e-166
-2.02073e-165
6.46428e-165
-4.17915e-166
-4.57792e-164
1.07856e-163
8.25466e-164
-9.50722e-163
1.52697e-162
3.31447e-162
-1.7841e-161
1.53794e-161
9.01423e-161
-2.94866e-160
4.24163e-163
1.99301e-159
-4.06226e-159
-5.13115e-159
3.721e-158
-3.94954e-158
-1.672e-157
5.80348e-157
-2.30673e-158
-3.69925e-156
7.05609e-156
1.05475e-155
-6.39878e-155
4.91595e-155
3.13018e-154
-8.59423e-154
-4.36446e-154
6.04661e-153
-7.66312e-153
-2.386e-152
8.62689e-152
1.05577e-153
-5.18105e-151
8.30778e-151
1.73955e-150
-7.6369e-150
1.74109e-150
4.17643e-149
-7.37956e-149
-1.29125e-148
6.14941e-148
-1.70867e-148
-3.23308e-147
5.61504e-147
1.01211e-146
-4.55013e-146
7.12266e-147
2.40937e-145
-3.65719e-145
-8.23366e-145
3.07245e-144
4.22969e-145
-1.7026e-143
1.94638e-143
6.58276e-143
-1.84663e-142
-1.18688e-142
1.10854e-141
-7.11879e-142
-4.88678e-141
9.36908e-141
1.41859e-140
-6.38176e-140
-7.18986e-143
3.21388e-139
-3.51495e-139
-1.22166e-138
3.04481e-138
2.82181e-138
-1.78671e-137
4.51902e-138
8.22014e-137
-1.03713e-136
-2.93237e-136
7.80062e-136
6.50122e-136
-4.30507e-135
9.34707e-136
1.93197e-134
-2.17837e-134
-7.02688e-134
1.62101e-133
1.8287e-133
-8.96281e-133
-8.11139e-134
4.12238e-132
-2.98231e-132
-1.60842e-131
2.59545e-131
5.12416e-131
-1.53635e-130
-1.09816e-130
7.52579e-130
-6.87518e-131
-3.20829e-129
2.54881e-129
1.1992e-128
-1.90088e-128
-3.82269e-128
1.05344e-127
9.28906e-128
-4.99434e-127
-7.67051e-128
2.11609e-126
-9.49425e-127
-8.12669e-126
8.55674e-126
2.82004e-125
-5.02283e-125
-8.62777e-125
2.47147e-124
2.15315e-124
-1.09081e-123
-3.05717e-124
4.43824e-123
-9.26278e-124
-1.68531e-122
1.12969e-122
5.99787e-122
-6.95641e-122
-1.9962e-121
3.47696e-121
6.14875e-121
-1.55384e-120
-1.70788e-120
6.44415e-120
3.99306e-120
-2.52639e-119
-5.97168e-120
9.46254e-119
-9.07156e-120
-3.40856e-118
1.37373e-118
1.18603e-117
-8.33309e-118
-3.99828e-117
4.03258e-117
1.30853e-116
-1.74564e-116
-4.16288e-116
7.04855e-116
1.28828e-115
-2.7094e-115
-3.87904e-115
1.00315e-114
1.13606e-114
-3.60447e-114
-3.2337e-114
1.26345e-113
8.93407e-114
-4.33696e-113
-2.39145e-113
1.46217e-112
6.18843e-113
-4.85292e-112
-1.54481e-112
1.58859e-111
3.71721e-112
-5.1366e-111
-8.65816e-112
1.64251e-110
1.98708e-111
-5.1987e-110
-4.71068e-111
1.62971e-109
1.25565e-110
-5.06192e-109
-4.04916e-110
1.55794e-108
1.54584e-109
-4.7506e-108
-6.39257e-109
1.43459e-107
2.66713e-108
-4.28733e-107
-1.08613e-107
1.26681e-106
4.27097e-107
-3.69618e-106
-1.61931e-106
1.06322e-105
5.92923e-106
-3.00923e-105
-2.10152e-105
8.35916e-105
7.22529e-105
-2.27168e-104
-2.41372e-104
6.01382e-104
7.84385e-104
-1.54164e-103
-2.48117e-103
3.79301e-103
7.64072e-103
-8.82823e-103
-2.28983e-102
1.89247e-102
6.6723e-102
-3.51688e-102
-1.88749e-101
4.62171e-102
5.17149e-101
1.65212e-102
-1.36763e-100
-4.32473e-101
3.47298e-100
2.16988e-100
-8.4015e-100
-8.26552e-100
1.91075e-99
2.75465e-99
-3.98743e-99
-8.4008e-99
7.23741e-99
2.38697e-98
-9.66491e-99
-6.36058e-98
3.85949e-100
1.58874e-97
6.07233e-98
-3.69297e-97
-2.98082e-97
7.85089e-97
1.05501e-96
-1.4674e-96
-3.18867e-96
2.15847e-96
8.62908e-96
-1.30508e-96
-2.12005e-95
-6.68326e-96
4.71e-95
3.81346e-95
-9.23612e-95
-1.34349e-94
1.48998e-94
3.86747e-94
-1.48601e-94
-9.67873e-94
-1.62299e-94
2.12841e-93
1.50444e-93
-4.01937e-93
-5.59577e-93
5.96287e-93
1.58868e-92
-4.35254e-93
-3.78625e-92
-1.22165e-92
7.6538e-92
7.20742e-92
-1.2487e-91
-2.32764e-91
1.3004e-91
5.84826e-91
8.25806e-92
-1.20706e-90
-9.42518e-91
1.97565e-90
3.28385e-90
-2.04698e-90
-8.28862e-90
-1.20277e-90
1.65818e-89
1.37477e-89
-2.51386e-89
-4.58706e-89
2.00621e-89
1.08601e-88
3.57167e-89
-1.96672e-88
-2.14497e-88
2.43703e-88
6.12758e-88
-3.89779e-89
-1.26085e-87
-8.68644e-88
1.85966e-87
3.14717e-87
-1.26685e-87
-7.20086e-87
-3.13044e-87
1.16687e-86
1.53802e-86
-1.04551e-86
-3.83055e-86
-1.08332e-86
6.50866e-86
7.44398e-86
-6.30733e-86
-1.94994e-85
-4.39127e-86
3.33139e-85
3.67493e-85
-3.12853e-85
-9.62194e-85
-2.51867e-85
1.57799e-84
1.86376e-84
-1.27434e-84
-4.59412e-84
-1.78822e-84
6.83718e-84
9.5295e-84
-3.75333e-84
-2.08679e-83
-1.26085e-83
2.60488e-83
4.73937e-83
-2.00207e-84
-8.71919e-83
-8.02425e-83
7.83896e-83
2.19506e-82
7.54872e-83
-3.15221e-82
-4.46152e-82
1.11547e-82
8.97598e-82
7.10104e-82
-8.5156e-82
-2.11073e-81
-6.8399e-82
2.96366e-81
4.26674e-81
-6.68722e-82
-8.06935e-81
-7.37974e-81
6.02001e-81
1.90895e-80
1.02274e-80
-2.15249e-80
-4.082e-80
-8.04304e-81
6.03828e-80
8.03414e-80
-1.27057e-80
-1.49596e-79
-1.46632e-79
8.55719e-80
3.42793e-79
2.48012e-79
-2.87711e-79
-7.44892e-79
-3.84726e-79
7.88473e-79
1.56066e-78
5.3195e-79
-1.94855e-78
-3.19311e-78
-6.06269e-79
4.52077e-78
6.44861e-78
4.09136e-79
-1.00535e-77
-1.29749e-77
4.45207e-79
2.16921e-77
2.6212e-77
-2.54952e-78
-4.57403e-77
-5.34717e-77
6.40486e-78
9.46174e-77
1.10474e-76
-1.09639e-77
-1.92197e-76
-2.31125e-76
8.65306e-78
3.82715e-76
4.88142e-76
2.92758e-77
-7.43537e-76
-1.03507e-75
-1.92032e-76
1.39723e-75
2.18771e-75
7.27365e-76
-2.50201e-75
-4.57028e-75
-2.27089e-75
4.15395e-75
9.34612e-75
6.347e-75
-6.02125e-75
-1.84928e-74
-1.63782e-74
6.28195e-75
3.48578e-74
3.95097e-74
1.04614e-75
-6.10953e-74
-8.93676e-74
-3.20654e-74
9.50538e-74
1.88748e-73
1.24718e-73
-1.16056e-73
-3.67571e-73
-3.58148e-73
5.13066e-74
6.42096e-73
8.75279e-73
2.9388e-73
-9.41827e-73
-1.88181e-72
-1.35477e-72
9.18697e-73
3.53672e-72
3.94602e-72
4.56385e-73
-5.53078e-72
-9.24558e-72
-5.56224e-72
5.97369e-72
1.80846e-71
1.88033e-71
8.84464e-73
-2.83216e-71
-4.60479e-71
-2.80608e-71
2.82763e-71
8.93631e-71
9.79295e-71
1.54539e-71
-1.30104e-70
-2.34023e-70
-1.72178e-70
9.14699e-71
4.21285e-70
5.41794e-70
2.18233e-70
-5.008e-70
-1.16928e-69
-1.1338e-69
-2.01006e-71
1.7655e-69
2.96736e-69
2.14457e-69
-1.12701e-69
-5.29625e-69
-7.1118e-69
-3.56725e-69
5.28127e-69
1.46241e-68
1.64406e-68
4.72219e-69
-1.81199e-68
-3.85496e-68
-3.72935e-68
-2.71228e-69
5.48117e-68
9.91364e-68
8.43959e-68
-1.1634e-68
-1.55129e-67
-2.52393e-67
-1.93879e-67
6.34938e-68
4.22059e-67
6.42733e-67
4.60131e-67
-2.14794e-67
-1.11938e-66
-1.64831e-66
-1.14472e-66
5.9942e-67
2.91359e-66
4.27139e-66
3.00644e-66
-1.44601e-66
-7.45466e-66
-1.11849e-65
-8.30939e-66
2.90049e-66
1.86931e-65
2.95014e-65
2.3884e-65
-3.78831e-66
-4.55656e-65
-7.79029e-65
-7.02569e-65
-4.02761e-66
1.06282e-64
2.04144e-64
2.08096e-64
5.74633e-65
-2.30121e-64
-5.24622e-64
-6.11587e-64
-2.98464e-64
4.31503e-64
1.30067e-63
1.75981e-63
1.21976e-63
-5.49083e-64
-3.03343e-63
-4.89054e-63
-4.39649e-63
-4.33941e-64
6.34827e-63
1.29084e-62
1.44723e-62
6.79763e-63
-1.05514e-62
-3.15557e-62
-4.39064e-62
-3.35703e-62
6.67596e-63
6.81002e-62
1.22039e-61
1.26898e-61
4.81323e-62
-1.14164e-61
-3.03695e-61
-4.10345e-61
-3.09588e-61
6.41857e-62
6.37452e-61
1.15836e-60
1.24917e-60
5.73083e-61
-9.21345e-61
-2.78652e-60
-4.04837e-60
-3.49798e-60
-3.15762e-61
5.15886e-60
1.09053e-59
1.34287e-59
9.02145e-60
-4.0445e-60
-2.31701e-59
-4.0277e-59
-4.33086e-59
-2.11346e-59
2.89916e-59
9.4346e-59
1.44543e-58
1.38655e-58
4.32623e-59
-1.42457e-58
-3.65098e-58
-5.13912e-58
-4.49841e-58
-7.00502e-59
6.07342e-58
1.37506e-57
1.83537e-57
1.50935e-57
6.42766e-59
-2.39629e-57
-5.10613e-57
-6.64469e-57
-5.32648e-57
3.7903e-60
8.95885e-57
1.88106e-56
2.44936e-56
1.99297e-56
7.90182e-58
-3.19038e-56
-6.87966e-56
-9.18784e-56
-7.8748e-56
-1.21153e-56
1.07219e-55
2.487e-55
3.48861e-55
3.23977e-55
1.02105e-55
-3.29902e-55
-8.79701e-55
-1.32816e-54
-1.3616e-54
-6.759e-55
8.54735e-55
2.99008e-54
5.00304e-54
5.73307e-54
3.90218e-54
-1.29492e-54
-9.44815e-54
-1.83166e-53
-2.37411e-53
-2.04824e-53
-4.1806e-54
2.58046e-53
6.35154e-53
9.49012e-53
9.93895e-53
5.58067e-53
-4.73602e-53
-1.99516e-52
-3.57996e-52
-4.47175e-52
-3.73256e-52
-5.81336e-53
5.11166e-52
1.23088e-51
1.85022e-51
1.99152e-51
1.24567e-51
-6.51492e-52
-3.59026e-51
-6.87865e-51
-9.16698e-51
-8.63255e-51
-3.51629e-51
6.99749e-51
2.17324e-50
3.66732e-50
4.48534e-50
3.7535e-50
7.03479e-51
-4.89607e-50
-1.22527e-49
-1.91912e-49
-2.21741e-49
-1.69569e-49
-2.31066e-52
2.92974e-49
6.65004e-49
1.00257e-48
1.12651e-48
8.25082e-49
-7.45571e-50
-1.60165e-48
-3.52604e-48
-5.27415e-48
-5.93548e-48
-4.42057e-48
1.90867e-49
8.12705e-48
1.83267e-47
2.79696e-47
3.24237e-47
2.59293e-47
3.25001e-48
-3.77133e-47
-9.27583e-47
-1.48595e-46
-1.81867e-46
-1.61665e-46
-5.7004e-47
1.50295e-46
4.48709e-46
7.80144e-46
1.02998e-45
1.03299e-45
6.04173e-46
-4.00053e-46
-1.99306e-45
-3.95713e-45
-5.76203e-45
-6.54933e-45
-5.23599e-45
-7.8263e-46
7.35984e-45
1.86708e-44
3.09773e-44
4.00916e-44
3.99688e-44
2.37016e-44
-1.44225e-44
-7.58149e-44
-1.5385e-43
-2.30462e-43
-2.74595e-43
-2.44455e-43
-9.54803e-44
2.04758e-43
6.55227e-43
1.19686e-42
1.69148e-42
1.91451e-42
1.57432e-42
3.70613e-43
-1.90065e-42
-5.19969e-42
-9.07466e-42
-1.25181e-41
-1.39177e-41
-1.11889e-41
-2.17621e-42
1.46213e-41
3.9015e-41
6.79204e-41
9.42736e-41
1.06542e-40
8.94372e-41
2.64861e-41
-9.50661e-41
-2.76955e-40
-5.00931e-40
-7.19947e-40
-8.52616e-40
-7.85261e-40
-3.86526e-40
4.60961e-40
1.80978e-39
3.58036e-39
5.48712e-39
6.97776e-39
7.21552e-39
5.14262e-39
-3.34966e-40
-1.00106e-38
-2.38828e-38
-4.05458e-38
-5.65746e-38
-6.60981e-38
-6.08385e-38
-3.0958e-38
3.29485e-38
1.36476e-37
2.76667e-37
4.36361e-37
5.78709e-37
6.43702e-37
5.49302e-37
2.00338e-37
-4.91677e-37
-1.57559e-36
-3.01459e-36
-4.63114e-36
-6.0528e-36
-6.67577e-36
-5.67092e-36
-2.06266e-36
5.08693e-36
1.63632e-35
3.15464e-35
4.90494e-35
6.53273e-35
7.44095e-35
6.77853e-35
3.49474e-35
-3.50589e-35
-1.50752e-34
-3.13797e-34
-5.13144e-34
-7.18256e-34
-8.72676e-34
-8.89983e-34
-6.55127e-34
-3.49355e-35
1.09807e-33
2.82483e-33
5.12012e-33
7.77573e-33
1.03147e-32
1.19124e-32
1.13523e-32
7.05396e-33
-2.77711e-33
-1.98233e-32
-4.51035e-32
-7.81677e-32
-1.16053e-31
-1.5209e-31
-1.74768e-31
-1.66975e-31
-1.06144e-31
3.40729e-32
2.79767e-31
6.49719e-31
1.14448e-30
1.73183e-30
2.32899e-30
2.78319e-30
2.85809e-30
2.22021e-30
4.65326e-31
-2.86905e-30
-8.18279e-30
-1.56891e-29
-2.53397e-29
-3.59784e-29
-4.66799e-29
-5.26639e-29
-5.17238e-29
-3.58714e-29
8.56392e-30
6.02752e-29
2.16143e-28
2.80199e-28
6.00756e-28
7.69009e-28
)
;

boundaryField
{
    sides
    {
        type            zeroGradient;
    }
    empty
    {
        type            empty;
    }
}


// ************************************************************************* //
