/*--------------------------------*- C++ -*----------------------------------*\
| =========                 |                                                 |
| \\      /  F ield         | OpenFOAM: The Open Source CFD Toolbox           |
|  \\    /   O peration     | Version:  2112                                  |
|   \\  /    A nd           | Website:  www.openfoam.com                      |
|    \\/     M anipulation  |                                                 |
\*---------------------------------------------------------------------------*/
FoamFile
{
    version     2.0;
    format      ascii;
    arch        "LSB;label=32;scalar=64";
    class       volScalarField;
    location    "50";
    object      p;
}
// * * * * * * * * * * * * * * * * * * * * * * * * * * * * * * * * * * * * * //

dimensions      [0 2 -2 0 0 0 0];

internalField   nonuniform List<scalar> 
1600
(
-2.3905295e-08
-0.0046836074
-0.0087607691
-0.013602381
-0.018926592
-0.024507002
-0.030005271
-0.034409473
-0.040339798
-0.034075929
-0.04334159
-0.044034521
-0.038985774
-0.037108851
-0.034283358
-0.031084601
-0.02751986
-0.023413208
-0.018216816
-0.01293635
-0.0073972059
-0.0016950416
0.0040351829
0.009624627
0.015000912
0.020523613
0.025521402
0.024115237
0.019463233
0.018613605
0.01792259
0.017276092
0.016833412
0.016558982
0.016383908
0.01618191
0.015769387
0.014964901
0.013263987
0.0092463526
-0.0024338044
-0.0077567011
-0.012152154
-0.017314191
-0.022842062
-0.028455124
-0.033770248
-0.037457344
-0.043007687
-0.033747254
-0.044600118
-0.046136567
-0.041190371
-0.039984187
-0.037694958
-0.035066923
-0.031961111
-0.028261108
-0.023435262
-0.01841841
-0.012851018
-0.0069082181
-0.00074967111
0.0053850894
0.01134123
0.017377861
0.022536999
0.02135301
0.017348685
0.016634422
0.01606265
0.01559648
0.0154212
0.015492097
0.01570185
0.015864259
0.015718495
0.015017073
0.013187194
0.00857713
-0.0053953206
-0.011366897
-0.016110671
-0.02159802
-0.027297444
-0.032832382
-0.037709927
-0.040512191
-0.044752157
-0.032438657
-0.044885913
-0.047784935
-0.0430322
-0.042180484
-0.040379672
-0.038268726
-0.035644537
-0.032418218
-0.02848839
-0.02347355
-0.018123401
-0.012271991
-0.0060354802
0.00033679924
0.0066900307
0.013266944
0.018960778
0.018285104
0.014636054
0.014102125
0.013696872
0.01347732
0.013651359
0.014166571
0.014874828
0.015521908
0.015763303
0.015268326
0.013351806
0.0082750081
-0.0087655016
-0.015256197
-0.020290891
-0.026019219
-0.0317782
-0.037084865
-0.041330874
-0.043110152
-0.045926796
-0.030698854
-0.044901807
-0.049001484
-0.044464637
-0.043992037
-0.042721968
-0.041196223
-0.039190489
-0.036587909
-0.033261876
-0.028987389
-0.024016745
-0.018517148
-0.012438639
-0.0059979219
0.00067354375
0.0078081028
0.014151421
0.014280846
0.011130293
0.010654734
0.010428087
0.010554196
0.011222722
0.012364142
0.013780523
0.015133872
0.015975938
0.015875169
0.014009031
0.0085425871
-0.012589448
-0.019555471
-0.024859202
-0.030763939
-0.03646573
-0.041370941
-0.04477533
-0.045331495
-0.046632703
-0.028533372
-0.044784778
-0.04991515
-0.045608216
-0.04554983
-0.044825018
-0.043914683
-0.042587331
-0.040688847
-0.038101445
-0.034733897
-0.030099716
-0.025264445
-0.019584612
-0.013312264
-0.0065398307
0.00096100302
0.0078321949
0.0089877711
0.0066378497
0.006185025
0.0061710178
0.0067564387
0.0080818346
0.010055109
0.01242128
0.014742501
0.016442256
0.016962364
0.015318136
0.0095404102
-0.016879654
-0.024317111
-0.029896121
-0.035919998
-0.041438046
-0.045748148
-0.048084265
-0.047206218
-0.046854249
-0.025866696
-0.044527367
-0.050572182
-0.046459559
-0.046803433
-0.046608797
-0.046307207
-0.045674124
-0.044529374
-0.042739774
-0.040231938
-0.037041701
-0.032388812
-0.02726951
-0.021442803
-0.014865827
-0.0073135209
-0.00017504508
0.0021476886
0.00092743428
0.00052863217
0.00080788341
0.0019993665
0.0041745868
0.007219124
0.010818031
0.014419497
0.017292898
0.018719228
0.017520144
0.011530162
-0.021649378
-0.029585753
-0.035453106
-0.041520836
-0.046695398
-0.050183802
-0.051207941
-0.048693776
-0.046574512
-0.022858495
-0.043896046
-0.050961119
-0.046999702
-0.047702841
-0.048008687
-0.04829329
-0.048349319
-0.047978026
-0.047027367
-0.045389862
-0.043000642
-0.039618527
-0.035251466
-0.030136654
-0.024084268
-0.016877585
-0.0098400463
-0.0063070156
-0.0061038574
-0.0063701796
-0.0056813764
-0.0037121668
-0.00047154235
0.0039087935
0.0090567858
0.014296929
0.018721036
0.021407608
0.020946668
0.014874879
-0.026935916
-0.035449576
-0.041619395
-0.047623904
-0.052246059
-0.054642439
-0.054090553
-0.049754136
-0.045826563
-0.019172461
-0.043163931
-0.051078651
-0.047233146
-0.048227112
-0.04899126
-0.049826257
-0.050546165
-0.050944615
-0.05085821
-0.050153993
-0.048734238
-0.04648566
-0.043181743
-0.038995827
-0.033796704
-0.027368833
-0.020855466
-0.016181348
-0.014355494
-0.014360079
-0.013116599
-0.010185846
-0.0056580985
0.00032771014
0.0073525356
0.014616191
0.021018173
0.025388234
0.026036251
0.020052422
-0.032818486
-0.042055443
-0.048532808
-0.054316785
-0.058111434
-0.059092777
-0.05667776
-0.050336204
-0.044646183
-0.014806056
-0.042313047
-0.050956815
-0.04713185
-0.04835669
-0.049537341
-0.050869182
-0.052206003
-0.053340104
-0.054100429
-0.054344525
-0.053945444
-0.052792208
-0.050771323
-0.047505463
-0.043480423
-0.03822213
-0.032625217
-0.026974065
-0.023444153
-0.023023983
-0.02106222
-0.016985561
-0.010957964
-0.0031119491
0.0061022234
0.015777629
0.02461626
0.031155003
0.033357523
0.027704258
-0.039447389
-0.049632488
-0.05638963
-0.061712032
-0.064312277
-0.063490802
-0.058904931
-0.050353748
-0.04227011
-0.010721948
-0.04133844
-0.050578334
-0.04669427
-0.04809065
-0.049621116
-0.051387174
-0.053287398
-0.055089915
-0.056636235
-0.057791368
-0.058377111
-0.058297442
-0.057447648
-0.055776404
-0.052686504
-0.048765781
-0.044337352
-0.037913788
-0.032713204
-0.031673426
-0.028814825
-0.023412686
-0.015689739
-0.0057562334
0.0059254206
0.018385674
0.030133034
0.03937865
0.043654289
0.038680596
-0.047091183
-0.058529978
-0.065461546
-0.069943473
-0.070856231
-0.067766715
-0.060682197
-0.04977587
-0.039373838
-0.0063483259
-0.040179675
-0.049907883
-0.045910446
-0.047416445
-0.049236653
-0.051368202
-0.053735478
-0.056133497
-0.058406341
-0.06039801
-0.061846942
-0.062793689
-0.06299837
-0.062378284
-0.06074411
-0.058237989
-0.055047442
-0.048044928
-0.0412888
-0.039405352
-0.035450706
-0.028542465
-0.018945153
-0.006730679
0.0076729497
0.023275395
0.038413233
0.050960726
0.057924849
0.05408729
-0.05621574
-0.069272341
-0.076112767
-0.079153747
-0.077713898
-0.071809952
-0.061900645
-0.048523797
-0.036057844
-0.0017895303
-0.038796083
-0.048883507
-0.044752598
-0.046316934
-0.048373156
-0.050805436
-0.053565536
-0.056458571
-0.059319917
-0.061993474
-0.064312762
-0.06617356
-0.067271044
-0.067618076
-0.067106597
-0.065935839
-0.063845365
-0.056387238
-0.048195073
-0.04522721
-0.039940228
-0.031324124
-0.01967227
-0.0049910901
0.012396669
0.031510869
0.050554676
0.067088198
0.077500741
0.075424476
-0.067624906
-0.082638272
-0.088808885
-0.089461801
-0.084778577
-0.075439115
-0.062417156
-0.046550961
-0.032232516
0.0026514382
-0.037139386
-0.047415675
-0.043176672
-0.044768007
-0.047018656
-0.049694546
-0.052772446
-0.056065703
-0.059407822
-0.062642046
-0.065605726
-0.068141909
-0.070068446
-0.071243591
-0.071589741
-0.071282579
-0.0699298
-0.062087883
-0.052482312
-0.048222331
-0.041343395
-0.030794113
-0.016873869
0.00071918368
0.021354861
0.044398787
0.067948858
0.089302904
0.10417199
0.10482411
-0.082730861
-0.099767494
-0.10409254
-0.10088095
-0.091800246
-0.078361182
-0.062011745
-0.043753644
-0.027975424
0.0066918644
-0.035118134
-0.045388456
-0.041124287
-0.04273728
-0.045158249
-0.048033909
-0.05136155
-0.054963417
-0.058672221
-0.062327787
-0.065761278
-0.068802589
-0.071268161
-0.072960329
-0.073805694
-0.07418368
-0.073472751
-0.064803973
-0.053529166
-0.047644509
-0.038990594
-0.026264448
-0.010024975
0.01178933
0.035833495
0.063424225
0.092352334
0.11965456
0.1404121
0.14549471
-0.1041301
-0.1222955
-0.12246387
-0.11315564
-0.098269302
-0.080113393
-0.060366291
-0.040059472
-0.023319877
0.01007973
-0.032599598
-0.042668465
-0.038530813
-0.040189184
-0.042775875
-0.045824776
-0.049347924
-0.053175463
-0.057137434
-0.061069357
-0.064795233
-0.068128775
-0.070865737
-0.072779943
-0.073763964
-0.074154161
-0.073147436
-0.06379781
-0.051039839
-0.043061651
-0.032288766
-0.016915932
0.0027968467
0.027226946
0.055826791
0.089468968
0.12544669
0.16084173
0.1897502
0.20247337
-0.13681402
-0.15249844
-0.1441041
-0.12552216
-0.10327422
-0.079977937
-0.057160604
-0.035333223
-0.017977247
0.012676016
-0.029429946
-0.039137524
-0.035352692
-0.037106327
-0.03986998
-0.043081818
-0.046761743
-0.050746172
-0.054859476
-0.058929697
-0.062770225
-0.066177072
-0.068925228
-0.070760644
-0.071512987
-0.071429199
-0.06975297
-0.059355186
-0.044857868
-0.03468721
-0.021560024
-0.0033425024
0.019904536
0.048466038
0.082634347
0.12246219
0.16705755
0.21536634
0.25682438
0.28364487
-0.19023845
-0.19310177
-0.16850872
-0.13663142
-0.10555717
-0.077145595
-0.05198231
-0.029495936
-0.012631921
0.014424973
-0.025450857
-0.03474418
-0.03160834
-0.033523244
-0.036484869
-0.039863623
-0.043678127
-0.047769246
-0.05195206
-0.056042358
-0.059838601
-0.063116527
-0.065627738
-0.067091137
-0.067259919
-0.066229789
-0.063412582
-0.051938168
-0.035787565
-0.023363437
-0.0078252997
0.013317899
0.040261809
0.07353576
0.11399706
0.16242148
0.21903554
0.28269125
0.34605113
0.40205764
-0.28391729
-0.24551268
-0.19265846
-0.14379296
-0.10338768
-0.070553051
-0.044323512
-0.022522072
-0.0068674375
0.015768239
-0.020411979
-0.029475926
-0.027318145
-0.029456352
-0.032647846
-0.036223661
-0.040185011
-0.044374755
-0.048595426
-0.052645262
-0.056302692
-0.059318987
-0.061417796
-0.06229067
-0.061619456
-0.059294759
-0.054929045
-0.042603233
-0.025532285
-0.011081213
0.0066410022
0.030402425
0.060811557
0.09881792
0.14606572
0.20477937
0.27749551
0.36416717
0.46086927
0.585415
-0.47456585
-0.30658872
-0.20200062
-0.13654562
-0.091267351
-0.057277827
-0.032754479
-0.0135429
0.00017149629
0.018209252
-0.013874945
-0.023258697
-0.022278502
-0.024642255
-0.02808818
-0.031916706
-0.036085921
-0.040438528
-0.044765804
-0.048847531
-0.052440574
-0.055270046
-0.057027536
-0.057370113
-0.055919851
-0.052350815
-0.046375704
-0.033839179
-0.017311252
-0.0016323089
0.017487065
0.042724979
0.075163501
0.11627805
0.16869485
0.2366747
0.32667356
0.44580779
0.61069014
0.88837597
-0.86236835
-0.3659947
-0.16949622
-0.097435057
-0.057032659
-0.034001279
-0.016911881
-0.0025770254
0.008341339
0.023057243
-0.0066972973
-0.016921755
-0.016845686
-0.01933295
-0.022970273
-0.02703035
-0.031417973
-0.03597693
-0.04049857
-0.044757606
-0.048503968
-0.051452995
-0.053280912
-0.053621057
-0.052055471
-0.04809698
-0.041330842
-0.029860902
-0.015295817
0.00013440541
0.019037311
0.043617886
0.075195254
0.11544268
0.16735188
0.23654795
0.3346598
0.48677968
0.76510244
1.3293936
0.0098653047
0.0094950662
0.0089160615
0.008311555
0.0077695774
0.0073287216
0.0070042307
0.0068057916
0.0067284354
0.0067726546
0.0073110067
0.00772587
0.0079996683
0.0084017694
0.0089663426
0.0097286884
0.010708904
0.011935822
0.013407223
0.015128573
0.017086121
0.019241385
0.021524096
0.023805696
0.025925565
0.027451799
0.028409625
0.02650437
0.026221288
0.026967003
0.026489166
0.026026631
0.025267276
0.024445191
0.023612041
0.022852488
0.022225365
0.021786382
0.021558485
0.021598048
0.0098461837
0.0095217541
0.0090109387
0.0084707107
0.0079818305
0.0075826501
0.0072901849
0.0071174339
0.0070572326
0.0070848563
0.0076450398
0.0080748958
0.0083553238
0.0087720546
0.0093397261
0.010092384
0.011040849
0.012217156
0.013634848
0.015292108
0.017173981
0.019244252
0.021436355
0.023626231
0.025667677
0.027128177
0.028119495
0.026300017
0.025963427
0.026671277
0.026224874
0.025800886
0.02508873
0.024316348
0.023532005
0.022817579
0.02222977
0.021816542
0.021595769
0.021622628
0.0098723171
0.0095765449
0.0091229196
0.0086392868
0.0081990121
0.0078386169
0.0075757517
0.0074253442
0.0073716114
0.0073723172
0.0079863269
0.00843324
0.0087045327
0.009125648
0.0096901061
0.01042603
0.011347439
0.012486937
0.013851236
0.015442088
0.017246689
0.019230898
0.02133196
0.023431144
0.025397657
0.026798261
0.027846373
0.026074369
0.025675669
0.026368851
0.025952352
0.025567913
0.024903562
0.02418044
0.023444123
0.022773342
0.022221393
0.021832507
0.021619249
0.021639344
0.0099625211
0.0096681781
0.0092531556
0.0088124863
0.0084116978
0.008083891
0.007846032
0.0077125248
0.0076533491
0.0076278852
0.0083167927
0.008792719
0.0090436392
0.0094572339
0.010014502
0.010734215
0.01162713
0.012728318
0.014041367
0.015569412
0.017301292
0.019205173
0.021222053
0.023239595
0.025139816
0.026493479
0.027606921
0.025835631
0.025366689
0.026073322
0.025687289
0.025338441
0.024719496
0.024041128
0.023348392
0.022716446
0.022195709
0.021827232
0.021621388
0.021637252
0.010125732
0.0098053069
0.0094127836
0.0090042739
0.0086355219
0.0083351906
0.008118524
0.0079967466
0.0079229942
0.0078759209
0.008646531
0.0091597328
0.0093867126
0.0097844898
0.01033197
0.01103939
0.01189732
0.012957561
0.014219734
0.015686459
0.01734776
0.019174265
0.021110558
0.023051779
0.024889041
0.026204329
0.027382551
0.025569709
0.025022326
0.02576614
0.025413406
0.025097658
0.024523923
0.023888368
0.023237355
0.022641919
0.022149907
0.021798868
0.021599456
0.021607597
0.010369258
0.0099951398
0.0096078218
0.0092199107
0.0088743895
0.0085948793
0.0083939521
0.0082768904
0.0081805002
0.0081162244
0.00896367
0.009516721
0.0097211779
0.010098038
0.010630919
0.011305743
0.01214743
0.013169449
0.01438252
0.015790408
0.017384282
0.019137274
0.02099737
0.022868089
0.024645428
0.025931449
0.027172788
0.025275988
0.024639618
0.02544254
0.025127971
0.024843496
0.024314799
0.023720179
0.023108765
0.022547137
0.022080508
0.021743302
0.021547239
0.021539625
0.010690989
0.010241528
0.0098404848
0.0094597429
0.009126357
0.0088585597
0.0086652779
0.0085433924
0.0084165173
0.0083370338
0.0092455677
0.0098351247
0.010022305
0.010376889
0.010894471
0.011548433
0.01236377
0.013349548
0.014517602
0.015871653
0.017404013
0.01909022
0.02088151
0.022690217
0.024412863
0.025681636
0.026983917
0.02495981
0.024221955
0.025104174
0.024834328
0.024579222
0.024094329
0.023537654
0.022962161
0.022429865
0.021983713
0.021654943
0.021456303
0.021421756
0.011096286
0.010544372
0.010109068
0.0097207226
0.0093864361
0.0091187737
0.0089220605
0.0087831558
0.0086173141
0.0085201076
0.0094624243
0.010078225
0.010256604
0.010592471
0.011096079
0.011734232
0.012524465
0.013479348
0.014609167
0.015917402
0.017397435
0.019026948
0.020760329
0.022518474
0.024194507
0.025461225
0.026821253
0.024627483
0.023774989
0.024753485
0.024536105
0.024308362
0.023864853
0.023341982
0.022797107
0.022288024
0.021855319
0.021527525
0.021317126
0.021242234
0.011568559
0.010895244
0.010405296
0.0099934991
0.0096434854
0.0093616633
0.0091469047
0.0089755996
0.008760172
0.0086363468
0.0095724447
0.010196459
0.010377507
0.01070428
0.011199172
0.011826743
0.012600239
0.01353338
0.014635373
0.015909653
0.017350501
0.018937401
0.020627857
0.022350237
0.023991483
0.025274861
0.02668882
0.02428602
0.023306578
0.024393973
0.02423723
0.024034722
0.023628892
0.023134506
0.022613268
0.022119379
0.021690932
0.021356501
0.021121769
0.020987362
0.012086293
0.011275476
0.010710738
0.010258367
0.0098756503
0.0095619922
0.009310143
0.0090867768
0.0088069596
0.0086397259
0.0095158982
0.010122172
0.010320807
0.010655505
0.011153428
0.01178145
0.01255082
0.013475998
0.014565493
0.015822656
0.01724243
0.018805769
0.020473257
0.022178876
0.02380231
0.025125335
0.026589864
0.023943254
0.0228271
0.024031176
0.023942657
0.023762901
0.023389532
0.022916936
0.022410547
0.021921783
0.021485984
0.021129886
0.020871633
0.020643203
0.012615639
0.011652326
0.010992641
0.010480553
0.010045059
0.0096773463
0.0093635712
0.009062452
0.0086967892
0.0084602344
0.0092087881
0.0097641589
0.010000015
0.010368747
0.010889708
0.011536571
0.012320982
0.013258624
0.014357497
0.015620757
0.017043795
0.018608783
0.020279293
0.021992577
0.023621994
0.025012955
0.026526838
0.023607529
0.0223492
0.023672949
0.023658458
0.023498172
0.023150255
0.022691139
0.022188887
0.02169294
0.021236453
0.020845791
0.020541069
0.020213214
0.013106265
0.01197405
0.011198863
0.010604633
0.010091527
0.0096411843
0.0092328458
0.0088196442
0.0083372105
0.0079953534
0.0085355968
0.0090013392
0.0093017535
0.0097417872
0.010316275
0.011010193
0.011837787
0.012817164
0.013955807
0.01525649
0.016714865
0.018314221
0.02002092
0.021773152
0.02344094
0.024934816
0.026501501
0.02328767
0.021887434
0.023329329
0.023391502
0.023245921
0.022914348
0.022458555
0.021947795
0.021430168
0.020937304
0.020495421
0.020115341
0.019685916
0.01348711
0.012164022
0.011252415
0.010548718
0.0099257259
0.0093550856
0.0088089397
0.0082374489
0.007594871
0.0071012293
0.0073421702
0.0076770047
0.0080807702
0.0086434664
0.0093153242
0.010097622
0.011008017
0.01206971
0.013289449
0.014669121
0.016204422
0.017879792
0.01966415
0.021495003
0.023243971
0.024884512
0.026515901
0.022994228
0.021458491
0.023012203
0.023148785
0.023010619
0.022683815
0.02221918
0.021685509
0.021129853
0.020582809
0.020072509
0.019606124
0.019048548
0.013661206
0.012115202
0.011046801
0.010198497
0.0094224197
0.0086814651
0.0079403553
0.0071490385
0.0062876283
0.0055855607
0.0054302907
0.0055945308
0.006155821
0.006909828
0.0077392407
0.0086684562
0.0097155355
0.010914469
0.012270542
0.013783619
0.01544908
0.017252673
0.019165837
0.021125183
0.023010562
0.024853239
0.026575095
0.022743472
0.021082887
0.022734988
0.022936276
0.0227941
0.02245749
0.02196983
0.021397556
0.020786319
0.020165781
0.019566554
0.018990376
0.018259472
0.013500616
0.011689604
0.010439874
0.0094024205
0.0084163443
0.0074387639
0.0064277474
0.0053364078
0.0041802867
0.0032049071
0.0025552709
0.0025160064
0.003307285
0.004339642
0.0054057092
0.0065659786
0.0078208825
0.0092289444
0.010793612
0.012510838
0.014374953
0.016372813
0.018478111
0.020627602
0.022717351
0.024831148
0.026690214
0.022564542
0.020787689
0.022511685
0.022756588
0.022592478
0.022227863
0.021701347
0.021074608
0.020390587
0.019677493
0.018967914
0.018256274
0.017323838
0.012842827
0.010717735
0.0092563958
0.0079725512
0.0067008902
0.00539846
0.0040201383
0.0025276078
0.00098455092
-0.00033207468
-0.0015661283
-0.0018318742
-0.00072169398
0.00069379515
0.0021044876
0.0036249359
0.0051665626
0.006872897
0.0087396001
0.010754602
0.012907586
0.015183357
0.017555846
0.019964088
0.022331887
0.024797871
0.026874362
0.022507083
0.020606876
0.022351584
0.022602622
0.022389691
0.021975329
0.021394149
0.020699492
0.019928796
0.019107065
0.018266661
0.017388273
0.016204994
0.011500948
0.0090183022
0.0073092768
0.0056999593
0.0040362579
0.0022859327
0.00041036739
-0.001607895
-0.0036382816
-0.0053527247
-0.0072381913
-0.0077398821
-0.0062122105
-0.0043009655
-0.002448827
-0.00051036164
0.0015190111
0.0036693527
0.0059659509
0.0084008317
0.01095353
0.013603336
0.016323853
0.019062257
0.021787627
0.024706765
0.027139802
0.022661632
0.020589923
0.022250686
0.022446133
0.022146196
0.021658386
0.021011195
0.020243473
0.019381731
0.018443832
0.01745698
0.01637541
0.014870894
0.0092673961
0.0064213867
0.0044234333
0.0023748158
0.00016728416
-0.0022015841
-0.0047452436
-0.0074330601
-0.010022612
-0.012133839
-0.014688197
-0.015428063
-0.013383402
-0.010877668
-0.0084966356
-0.0060526953
-0.0033509613
-0.00065267999
0.0021935403
0.0051859225
0.0082869323
0.01146518
0.014684081
0.017890497
0.021095957
0.024579619
0.027560363
0.023274319
0.020888245
0.022216991
0.022243191
0.021796571
0.021205232
0.020486433
0.019655586
0.018718974
0.017678955
0.016546594
0.015226385
0.013317707
0.0059191854
0.0027027201
0.00024880154
-0.0025138386
-0.0055703593
-0.0088459272
-0.012278202
-0.015749016
-0.018735096
-0.020935306
-0.024189555
-0.025225756
-0.022649193
-0.019591484
-0.016703429
-0.013635623
-0.010089391
-0.0066175318
-0.0028783299
0.0010456662
0.0050779054
0.0091409381
0.013145
0.01699545
0.020704597
0.024642548
0.028254623
0.024943671
0.021863467
0.022308697
0.021946852
0.021254489
0.020505703
0.019699771
0.018825922
0.017863907
0.016789547
0.015574252
0.014017919
0.011636106
0.0026580424
-0.0011533455
-0.0044064969
-0.0082234664
-0.012432137
-0.016844693
-0.02122939
-0.025407753
-0.028773253
-0.029399291
-0.034447429
-0.035962221
-0.032160159
-0.028528731
-0.02498296
-0.021132753
-0.016986568
-0.012079876
-0.0072985185
-0.0024244946
0.0024961265
0.0073453589
0.011993339
0.016303653
0.020261595
0.024345364
0.028475174
0.027444622
0.02300625
0.021983068
0.021058592
0.020097977
0.019217335
0.018385935
0.017576611
0.016746524
0.01583805
0.014764137
0.013125057
0.010197238
)
;

boundaryField
{
    movingWall
    {
        type            zeroGradient;
    }
    fixedWalls
    {
        type            zeroGradient;
    }
    front
    {
        type            empty;
    }
    back
    {
        type            empty;
    }
}


// ************************************************************************* //
