/*--------------------------------*- C++ -*----------------------------------*\
| =========                 |                                                 |
| \\      /  F ield         | OpenFOAM: The Open Source CFD Toolbox           |
|  \\    /   O peration     | Version:  2112                                  |
|   \\  /    A nd           | Website:  www.openfoam.com                      |
|    \\/     M anipulation  |                                                 |
\*---------------------------------------------------------------------------*/
FoamFile
{
    version     2.0;
    format      ascii;
    arch        "LSB;label=32;scalar=64";
    class       volScalarField;
    location    "52.5";
    object      p;
}
// * * * * * * * * * * * * * * * * * * * * * * * * * * * * * * * * * * * * * //

dimensions      [0 2 -2 0 0 0 0];

internalField   nonuniform List<scalar> 
8800
(
0.794092
0.746305
0.707615
0.678618
0.657754
0.642921
0.632324
0.624842
0.62002
0.617961
0.619227
0.623415
0.630059
0.639374
0.652152
0.669885
0.694661
0.728602
0.771151
0.829853
0.625344
0.633023
0.640497
0.643804
0.6423
0.637221
0.630732
0.624652
0.619927
0.617082
0.6168
0.619304
0.623791
0.629734
0.636501
0.64278
0.646419
0.645683
0.640261
0.63157
0.603753
0.609912
0.614038
0.61698
0.619027
0.619629
0.61852
0.616412
0.614394
0.613484
0.614444
0.616823
0.619619
0.621797
0.622402
0.621201
0.618857
0.615462
0.610904
0.607143
0.597952
0.600602
0.603352
0.605752
0.607384
0.608542
0.60928
0.609393
0.609095
0.609042
0.609791
0.610957
0.611793
0.611854
0.611241
0.610146
0.608328
0.605755
0.603351
0.601847
0.592584
0.594008
0.595785
0.597813
0.599593
0.60093
0.601914
0.602706
0.603316
0.603876
0.604523
0.605013
0.605107
0.604813
0.604111
0.602858
0.601159
0.599308
0.597999
0.597167
0.587525
0.588444
0.589683
0.591245
0.592872
0.594391
0.595669
0.59673
0.597688
0.598575
0.599258
0.599577
0.599527
0.599079
0.598191
0.596985
0.595652
0.594388
0.593564
0.593013
0.582639
0.583308
0.584267
0.585564
0.586966
0.588417
0.589847
0.591161
0.59235
0.593449
0.594261
0.594616
0.59452
0.594
0.593183
0.592227
0.591207
0.590278
0.589691
0.589286
0.577882
0.578398
0.579178
0.580301
0.58157
0.582935
0.58437
0.58583
0.587246
0.58857
0.589561
0.590015
0.589973
0.589571
0.588954
0.588217
0.587433
0.586742
0.586306
0.585989
0.573183
0.573593
0.574245
0.575243
0.576439
0.577754
0.579186
0.580726
0.582331
0.58391
0.585135
0.585768
0.585908
0.585716
0.585313
0.584781
0.584197
0.583695
0.583369
0.583112
0.568457
0.568792
0.569354
0.570272
0.571417
0.572715
0.574177
0.57581
0.577594
0.579451
0.580978
0.581891
0.582294
0.582343
0.58216
0.581843
0.581446
0.5811
0.580858
0.580643
0.563619
0.563896
0.564397
0.565268
0.566393
0.567712
0.569243
0.571008
0.573011
0.575187
0.577097
0.578371
0.57909
0.579414
0.57947
0.579366
0.579154
0.578945
0.57877
0.578584
0.558581
0.558814
0.559275
0.560129
0.561274
0.562657
0.564299
0.566249
0.568533
0.571107
0.573487
0.575196
0.576283
0.57692
0.577242
0.577358
0.577328
0.577243
0.577123
0.576959
0.553256
0.553454
0.553895
0.554762
0.555967
0.557459
0.559266
0.561469
0.564113
0.567189
0.570139
0.572363
0.57388
0.574872
0.575488
0.575832
0.576001
0.576031
0.575957
0.575808
0.547546
0.547716
0.548154
0.549062
0.550371
0.552022
0.554061
0.556595
0.5597
0.563399
0.567042
0.569879
0.5719
0.573299
0.57425
0.574872
0.575231
0.57537
0.575335
0.575196
0.541339
0.541484
0.541935
0.542914
0.544371
0.54624
0.548587
0.551545
0.555232
0.5597
0.564182
0.567756
0.570374
0.57225
0.573579
0.574498
0.575075
0.575329
0.575331
0.575197
0.5345
0.53462
0.535098
0.53618
0.537837
0.539994
0.542736
0.546234
0.550643
0.556051
0.561552
0.56601
0.569338
0.571777
0.57355
0.574808
0.57563
0.576002
0.576039
0.575906
0.526861
0.526956
0.527476
0.528697
0.530611
0.533136
0.536384
0.540564
0.545876
0.552439
0.559171
0.564682
0.568848
0.571949
0.574253
0.57591
0.577
0.577496
0.577565
0.57743
0.518192
0.518292
0.518866
0.520243
0.522486
0.525487
0.529381
0.534421
0.540856
0.548836
0.557051
0.563816
0.56897
0.57285
0.575784
0.577901
0.579297
0.579926
0.580026
0.579887
0.508202
0.508283
0.508944
0.510545
0.513219
0.516833
0.521547
0.527672
0.535507
0.545223
0.555218
0.563464
0.569782
0.574579
0.57824
0.580905
0.582647
0.583418
0.583547
0.583399
0.496524
0.496588
0.497348
0.499261
0.502488
0.506889
0.51265
0.520147
0.529723
0.541555
0.553687
0.563685
0.571369
0.577241
0.581743
0.585047
0.587174
0.588094
0.588249
0.588088
0.482624
0.482676
0.483578
0.485901
0.489858
0.495296
0.502427
0.511695
0.523467
0.537885
0.552547
0.564579
0.573831
0.580939
0.586422
0.590448
0.592993
0.594062
0.594237
0.594061
0.46574
0.465779
0.466896
0.469801
0.474759
0.481601
0.490559
0.502132
0.516673
0.534238
0.551869
0.566236
0.577265
0.585786
0.592367
0.597209
0.600193
0.601403
0.601588
0.601392
0.444757
0.444795
0.446252
0.450023
0.456423
0.465242
0.476706
0.491326
0.509355
0.530701
0.551764
0.568763
0.581784
0.591868
0.599656
0.605389
0.60881
0.610134
0.610315
0.610097
0.41794
0.417996
0.420034
0.425211
0.433837
0.44556
0.46055
0.479218
0.501616
0.527446
0.5524
0.572281
0.587463
0.599253
0.608342
0.614994
0.618806
0.620195
0.62035
0.620108
0.38228
0.382432
0.385664
0.393437
0.405835
0.421997
0.442026
0.466024
0.493787
0.524795
0.554022
0.576964
0.594399
0.607969
0.618439
0.625951
0.630042
0.631414
0.631515
0.631251
0.332039
0.332995
0.339425
0.352524
0.371474
0.394492
0.421454
0.452167
0.486236
0.523004
0.556777
0.582888
0.602616
0.617966
0.629811
0.638048
0.642243
0.643492
0.643515
0.643231
0.258344
0.265516
0.280409
0.30348
0.332214
0.364417
0.399869
0.438349
0.479458
0.522522
0.561192
0.590731
0.612981
0.63032
0.643628
0.652542
0.656788
0.657914
0.657886
0.65764
0.178967
0.19599
0.220151
0.25386
0.292766
0.33431
0.378344
0.424805
0.473382
0.523485
0.568068
0.601987
0.627477
0.647305
0.662487
0.67203
0.676081
0.676978
0.676971
0.676825
0.112838
0.13292
0.164761
0.207472
0.255372
0.305717
0.358072
0.412369
0.468285
0.525236
0.575466
0.613476
0.64199
0.664025
0.680475
0.690234
0.694092
0.694921
0.694989
0.694908
0.0586738
0.0804083
0.117749
0.166859
0.221863
0.27963
0.33936
0.400852
0.46366
0.527126
0.582715
0.624553
0.655779
0.679707
0.697328
0.707571
0.711755
0.712678
0.71276
0.712726
0.0135252
0.0364535
0.0775817
0.131775
0.192495
0.256387
0.32244
0.39032
0.459432
0.528983
0.589623
0.635066
0.668868
0.694671
0.713524
0.724618
0.729123
0.730003
0.730127
0.730119
-0.0248587
-0.00124531
0.042738
0.100978
0.166497
0.235601
0.307149
0.380711
0.455559
0.530752
0.596132
0.644975
0.681209
0.708834
0.728891
0.74077
0.745654
0.746661
0.746814
0.746831
-0.0584862
-0.0344082
0.0118519
0.073409
0.142984
0.216619
0.293034
0.371711
0.451819
0.532269
0.602106
0.654142
0.692652
0.7219
0.743029
0.755602
0.760896
0.76213
0.762331
0.762355
-0.0888337
-0.0643436
-0.0162183
0.0481725
0.121245
0.198842
0.279616
0.362956
0.447938
0.533335
0.607393
0.662429
0.703027
0.733678
0.755757
0.768907
0.774538
0.776006
0.776235
0.776264
-0.116845
-0.0919752
-0.04224
0.0245761
0.100728
0.181834
0.266526
0.354134
0.443669
0.533762
0.61187
0.669771
0.712295
0.744228
0.767046
0.780631
0.786506
0.788136
0.788385
0.788395
-0.143305
-0.118009
-0.0667729
0.00213512
0.0810238
0.165257
0.253488
0.34502
0.438819
0.53341
0.615481
0.676193
0.720554
0.753656
0.777085
0.790952
0.797003
0.798733
0.798975
0.79896
-0.168563
-0.14283
-0.0904177
-0.0194684
0.0618404
0.14888
0.240314
0.335457
0.433263
0.532202
0.618208
0.68174
0.727933
0.762142
0.786142
0.800142
0.806236
0.808007
0.808214
0.808167
-0.193023
-0.166722
-0.113255
-0.040481
0.0429855
0.132542
0.226885
0.325348
0.426915
0.530063
0.620024
0.686457
0.734543
0.769875
0.794315
0.808359
0.814448
0.816187
0.816394
0.816323
-0.21681
-0.190076
-0.135425
-0.061052
0.0243458
0.11616
0.21313
0.314638
0.419722
0.526946
0.620907
0.690389
0.740517
0.777011
0.801811
0.815815
0.821834
0.823501
0.823656
0.823559
-0.240041
-0.212765
-0.157078
-0.0812564
0.00587338
0.0997001
0.199029
0.303306
0.411661
0.522808
0.620809
0.693555
0.745949
0.783678
0.808777
0.822663
0.828504
0.830049
0.830133
0.829997
-0.262839
-0.234969
-0.178277
-0.101125
-0.0124546
0.0831662
0.184602
0.291375
0.402737
0.517614
0.619676
0.695942
0.750913
0.790004
0.815353
0.828991
0.834514
0.835856
0.835861
0.835699
-0.28521
-0.256664
-0.19903
-0.120652
-0.0306051
0.0665915
0.169897
0.278892
0.392978
0.511342
0.617448
0.697507
0.755427
0.796122
0.821722
0.834921
0.839929
0.840991
0.840919
0.840743
-0.306997
-0.277812
-0.219277
-0.139808
-0.048542
0.0500426
0.154974
0.26593
0.382445
0.504018
0.614065
0.698161
0.759446
0.802161
0.828184
0.840723
0.844877
0.845508
0.845349
0.845182
-0.328177
-0.298384
-0.239002
-0.158545
-0.0662061
0.0335792
0.139924
0.252568
0.371216
0.495669
0.609484
0.697773
0.762857
0.808187
0.835118
0.846903
0.849684
0.849498
0.849186
0.849059
-0.348815
-0.318344
-0.258176
-0.176826
-0.0835347
0.0172846
0.124837
0.238912
0.359385
0.486364
0.603664
0.696195
0.76546
0.814092
0.84284
0.854322
0.855279
0.853393
0.852568
0.8527
-0.368738
-0.337668
-0.276742
-0.194589
-0.100468
0.00124237
0.109806
0.225073
0.347067
0.476202
0.596601
0.693258
0.76697
0.819511
0.851266
0.863938
0.86371
0.859302
0.856436
0.855877
-0.388041
-0.356344
-0.294718
-0.211861
-0.117039
-0.0145905
0.0947773
0.210993
0.334197
0.465111
0.588162
0.688685
0.767073
0.8239
0.859669
0.875919
0.877286
0.871378
0.862876
0.848498
-0.406647
-0.374359
-0.312221
-0.22884
-0.133533
-0.0305449
0.0793377
0.196193
0.320242
0.452458
0.577698
0.681685
0.765173
0.826464
0.866184
0.887754
0.891557
0.879578
0.860162
0.84789
-0.424377
-0.391844
-0.329054
-0.245315
-0.149609
-0.0462765
0.0637134
0.180999
0.305508
0.438506
0.565288
0.671808
0.760512
0.826083
0.866437
0.887787
0.894713
0.872213
0.804328
0.773743
-0.440565
-0.410036
-0.344882
-0.260753
-0.164506
-0.061283
0.0482145
0.165638
0.290212
0.42338
0.550874
0.658765
0.751764
0.822136
0.855669
0.871003
0.862452
0.809272
0.740285
0.697794
-0.496666
-0.426075
-0.359304
-0.276247
-0.179809
-0.0770118
0.0327775
0.149831
0.27399
0.406636
0.533863
0.641954
0.735187
0.812176
0.818225
0.822458
0.774982
0.705955
0.629767
0.587337
-0.457751
-0.441596
-0.380807
-0.297122
-0.202303
-0.0996195
0.00914269
0.125509
0.248609
0.379731
0.504828
0.610908
0.696059
0.776874
0.765498
0.654272
0.550339
0.478009
0.405085
0.436248
-0.48903
-0.459436
-0.397658
-0.314749
-0.219927
-0.117435
-0.00842376
0.107282
0.229282
0.358567
0.480825
0.582547
0.659045
0.701548
0.654168
0.507188
0.380508
0.289896
0.191575
0.242204
-0.51312
-0.480573
-0.417498
-0.334379
-0.239467
-0.13708
-0.0281574
0.0867022
0.207285
0.33416
0.452678
0.548263
0.615625
0.624584
0.519257
0.347707
0.196022
0.0779611
-0.0526713
-0.019573
-0.536717
-0.502595
-0.438305
-0.354267
-0.259222
-0.15697
-0.0485645
0.0653242
0.184301
0.308398
0.422285
0.510411
0.56237
0.540495
0.383294
0.188119
-0.00133604
-0.16855
-0.356686
-0.374689
-0.559703
-0.525113
-0.459905
-0.375081
-0.279843
-0.177792
-0.0700259
0.042775
0.159899
0.28085
0.389421
0.469953
0.50305
0.445255
0.254012
0.0446241
-0.171808
-0.360448
-0.60202
-0.900599
-0.582977
-0.548371
-0.482594
-0.397252
-0.301794
-0.19989
-0.0926883
0.0189974
0.134173
0.251736
0.354713
0.42702
0.439762
0.331041
0.141572
-0.0671704
-0.27058
-0.442222
-0.510905
-0.590176
-0.60749
-0.572816
-0.506719
-0.421114
-0.325575
-0.223906
-0.117358
-0.00695672
0.105963
0.219632
0.316659
0.378152
0.36634
0.224079
0.041776
-0.14799
-0.309816
-0.402079
-0.426025
-0.441978
-0.633556
-0.598757
-0.532452
-0.446751
-0.351313
-0.250047
-0.14439
-0.0355702
0.0746833
0.183828
0.274406
0.322106
0.292933
0.124871
-0.0486348
-0.213333
-0.338874
-0.377684
-0.390608
-0.391927
-0.661375
-0.626368
-0.559852
-0.474149
-0.378952
-0.278311
-0.173797
-0.06689
0.0402651
0.144322
0.227555
0.261219
0.212918
0.0331865
-0.131341
-0.278766
-0.354007
-0.371217
-0.372616
-0.372439
-0.691005
-0.655701
-0.588934
-0.503297
-0.408498
-0.308681
-0.205576
-0.100927
0.00271797
0.101166
0.17618
0.198457
0.114405
-0.0506409
-0.207117
-0.328564
-0.364955
-0.363165
-0.362129
-0.361524
-0.722151
-0.686576
-0.619587
-0.534099
-0.439853
-0.34109
-0.239685
-0.137648
-0.0379279
0.0544464
0.121024
0.126692
0.0244777
-0.128912
-0.267333
-0.341819
-0.352266
-0.35513
-0.355904
-0.355559
-0.754245
-0.71852
-0.651544
-0.566314
-0.472818
-0.375366
-0.275961
-0.176914
-0.0815014
0.00450386
0.0624935
0.0536364
-0.0564057
-0.195572
-0.311319
-0.342608
-0.350624
-0.352311
-0.352197
-0.351899
-0.786811
-0.75098
-0.684334
-0.59953
-0.50703
-0.411169
-0.314106
-0.218428
-0.127732
-0.0480552
-0.000531718
-0.0162791
-0.130494
-0.249745
-0.343185
-0.357117
-0.350359
-0.349373
-0.34932
-0.349167
-0.818952
-0.783227
-0.717066
-0.633127
-0.54192
-0.448002
-0.353643
-0.261697
-0.176141
-0.102704
-0.0648269
-0.0819572
-0.194804
-0.291684
-0.347369
-0.357083
-0.351906
-0.348941
-0.347841
-0.347523
-0.849032
-0.814048
-0.74876
-0.666159
-0.576692
-0.485129
-0.393879
-0.306003
-0.225905
-0.15901
-0.124555
-0.158122
-0.248028
-0.321303
-0.338109
-0.351955
-0.353271
-0.350088
-0.348893
-0.348196
-0.875478
-0.841565
-0.778263
-0.697415
-0.610269
-0.521563
-0.433893
-0.350416
-0.275876
-0.216097
-0.182568
-0.235563
-0.302768
-0.317583
-0.352295
-0.356866
-0.361071
-0.363478
-0.364547
-0.364265
-0.896127
-0.863972
-0.803452
-0.725445
-0.641317
-0.556089
-0.472505
-0.393783
-0.324823
-0.272505
-0.24397
-0.311285
-0.373174
-0.354283
-0.350847
-0.390311
-0.41176
-0.420959
-0.421192
-0.419421
-0.908724
-0.879292
-0.822445
-0.748332
-0.668273
-0.587292
-0.508356
-0.434705
-0.371356
-0.326288
-0.304908
-0.38989
-0.506322
-0.553212
-0.513107
-0.51124
-0.514038
-0.511184
-0.502976
-0.50085
-0.910597
-0.885242
-0.83325
-0.764219
-0.689376
-0.613668
-0.539914
-0.471541
-0.413802
-0.374922
-0.356988
-0.458453
-0.655563
-0.917987
-0.829468
-0.645811
-0.552593
-0.518101
-0.507366
-0.504613
-0.899668
-0.879188
-0.833681
-0.771465
-0.703086
-0.633601
-0.565664
-0.502548
-0.449843
-0.414874
-0.396985
-0.458234
-0.573003
-0.876527
-0.797298
-0.558623
-0.455241
-0.424329
-0.41578
-0.41197
-0.873795
-0.858259
-0.82195
-0.768844
-0.708404
-0.646034
-0.584247
-0.526207
-0.476692
-0.443512
-0.406013
-0.307264
-0.126561
-0.00298329
-0.0577027
-0.154382
-0.224926
-0.251047
-0.257794
-0.256511
-0.835342
-0.825231
-0.798697
-0.756526
-0.705339
-0.650734
-0.595143
-0.541372
-0.493574
-0.457977
-0.413073
-0.195057
0.207819
0.636428
0.438385
0.0723083
-0.165028
-0.24555
-0.266627
-0.272999
-0.790802
-0.785038
-0.768725
-0.737263
-0.695891
-0.648674
-0.598835
-0.548371
-0.501246
-0.462833
-0.423881
-0.375459
-0.371128
-0.366052
-0.500056
-0.661322
-0.662341
-0.597905
-0.568132
-0.590571
-0.749787
-0.746321
-0.738216
-0.716586
-0.683171
-0.642198
-0.596745
-0.548512
-0.500148
-0.462325
-0.439837
-0.649157
-1.29433
-2.26337
-2.96203
-3.03781
-2.75421
-2.40278
-2.03308
-1.84604
-0.719651
-0.717426
-0.713391
-0.699436
-0.67188
-0.634467
-0.591005
-0.54183
-0.489956
-0.436601
-0.411074
-0.515762
-0.926336
-1.31056
-1.42711
-1.27418
-1.02869
-0.80537
-0.608453
-0.509432
-0.696995
-0.696165
-0.69494
-0.687629
-0.665095
-0.629109
-0.583996
-0.531548
-0.470537
-0.398972
-0.33744
-0.293289
-0.225241
0.0123497
0.308856
0.6553
0.92596
1.0677
1.14022
1.16417
-0.683658
-0.683307
-0.682848
-0.679616
-0.66225
-0.626349
-0.57791
-0.520125
-0.451559
-0.371082
-0.274533
-0.167978
0.0590006
0.529565
1.0343
1.49137
1.80389
1.95091
2.00246
2.01267
-0.674788
-0.674556
-0.674021
-0.673259
-0.661171
-0.625911
-0.57401
-0.510416
-0.434003
-0.336733
-0.222565
-0.101151
0.162167
0.63098
1.12537
1.56534
1.86008
2.00129
2.0478
2.05687
-0.668957
-0.669059
-0.669141
-0.66904
-0.660342
-0.627852
-0.574295
-0.505318
-0.419536
-0.316997
-0.202805
-0.0806499
0.11938
0.530891
0.938778
1.29052
1.53153
1.65029
1.69263
1.70244
-0.666049
-0.665323
-0.662798
-0.65956
-0.655839
-0.633086
-0.581394
-0.506551
-0.414812
-0.310208
-0.200854
-0.0914287
0.0587926
0.38032
0.691749
0.943016
1.12063
1.21095
1.24724
1.2573
-0.683054
-0.678715
-0.666378
-0.65471
-0.657664
-0.652325
-0.598648
-0.513663
-0.414823
-0.309467
-0.210633
-0.115804
-0.00373227
0.228218
0.46081
0.640738
0.768104
0.837115
0.867874
0.877251
-0.744944
-0.741752
-0.738922
-0.742854
-0.746406
-0.719183
-0.630756
-0.522995
-0.413316
-0.307556
-0.221559
-0.150413
-0.0670062
0.116672
0.290117
0.419938
0.517193
0.571739
0.596609
0.603724
-0.841154
-0.852717
-0.879314
-0.895507
-0.882513
-0.803245
-0.661779
-0.523828
-0.405425
-0.303392
-0.230433
-0.179334
-0.124152
0.0177646
0.15637
0.263119
0.338994
0.382335
0.401061
0.405169
-0.861061
-0.879172
-0.909889
-0.926731
-0.904257
-0.8008
-0.640661
-0.498086
-0.382659
-0.289789
-0.226997
-0.191746
-0.158847
-0.0403945
0.0667528
0.145093
0.202864
0.235653
0.249649
0.252764
-0.69494
-0.712959
-0.739407
-0.756048
-0.733906
-0.647563
-0.534887
-0.42877
-0.337947
-0.261957
-0.207419
-0.174899
-0.137051
-0.0483002
0.0291572
0.0831601
0.121461
0.143454
0.15305
0.154188
-0.405162
-0.4149
-0.43145
-0.448028
-0.448831
-0.420945
-0.37676
-0.326107
-0.274452
-0.221627
-0.17509
-0.136024
-0.0915121
-0.0357171
0.00799735
0.0416956
0.0660913
0.0814067
0.0878194
0.0887668
-0.146418
-0.150551
-0.161561
-0.18095
-0.203862
-0.222165
-0.229678
-0.224659
-0.207111
-0.177556
-0.140617
-0.0989644
-0.0583773
-0.0226078
0.00483021
0.0286938
0.0479092
0.0607176
0.0672099
0.0665715
0.00109173
-0.00103583
-0.00960088
-0.0299112
-0.062775
-0.0988992
-0.128352
-0.146255
-0.150205
-0.138249
-0.111503
-0.0755173
-0.0412446
-0.0250023
-0.00686693
0.0113139
0.0279668
0.0383898
0.0414642
0.0402858
0.0554513
0.0539232
0.0469679
0.0294087
-0.000214582
-0.0354428
-0.0689169
-0.0948897
-0.109298
-0.109022
-0.092887
-0.0679143
-0.0462296
-0.0411314
-0.0314194
-0.015863
-0.000737066
0.00887709
0.0112176
0.00943119
0.0611044
0.059931
0.0547533
0.0416254
0.0190464
-0.0093431
-0.0389182
-0.0650959
-0.0839941
-0.0921478
-0.0868656
-0.0745059
-0.0654399
-0.068461
-0.0620038
-0.0486274
-0.0379324
-0.0326038
-0.0322083
-0.0340462
0.0474608
0.0466256
0.043006
0.0338086
0.0176683
-0.00366147
-0.0277098
-0.0512363
-0.071298
-0.0852326
-0.089838
-0.0889262
-0.0899829
-0.100729
-0.0990723
-0.0909746
-0.0847211
-0.0834389
-0.0835794
-0.0847713
0.0287545
0.0281797
0.0256972
0.0193757
0.00803012
-0.00768881
-0.0266716
-0.0470152
-0.0671217
-0.0857716
-0.100273
-0.111949
-0.123363
-0.134712
-0.134542
-0.130566
-0.128863
-0.130037
-0.131291
-0.131972
0.0109746
0.0105744
0.0088544
0.00448173
-0.00353285
-0.0151721
-0.0301608
-0.0478202
-0.0678152
-0.0904644
-0.114987
-0.139282
-0.158397
-0.166514
-0.165612
-0.163357
-0.164088
-0.166034
-0.167188
-0.167651
-0.00355619
-0.00386569
-0.00506131
-0.00812356
-0.0138653
-0.0226094
-0.034582
-0.0499641
-0.0695267
-0.0953599
-0.128564
-0.165293
-0.191679
-0.194776
-0.189712
-0.187366
-0.188099
-0.190265
-0.191067
-0.191345
-0.0139687
-0.01423
-0.0151018
-0.0172716
-0.0214184
-0.0280241
-0.0376316
-0.0509748
-0.0695895
-0.0968856
-0.135868
-0.181447
-0.211106
-0.208359
-0.199983
-0.197898
-0.199679
-0.202014
-0.202597
-0.202623
-0.020223
-0.0204212
-0.0210823
-0.0225949
-0.0255476
-0.0305129
-0.0381441
-0.0494133
-0.0659961
-0.0922893
-0.131744
-0.179386
-0.206278
-0.198667
-0.19152
-0.19085
-0.194724
-0.197746
-0.198205
-0.198012
-0.0225947
-0.0227721
-0.0232407
-0.0242333
-0.0262318
-0.0297953
-0.035611
-0.0446423
-0.0585831
-0.0809473
-0.114676
-0.154833
-0.173178
-0.165534
-0.161602
-0.166077
-0.171889
-0.175217
-0.175645
-0.175414
-0.0213547
-0.0215015
-0.0218199
-0.0224237
-0.023648
-0.0260282
-0.0301563
-0.0367999
-0.0472124
-0.0636848
-0.087018
-0.112852
-0.123194
-0.117676
-0.119637
-0.12764
-0.134828
-0.138146
-0.138506
-0.138357
-0.0170986
-0.0172169
-0.0174189
-0.0177187
-0.0183492
-0.0197462
-0.0223443
-0.0266467
-0.0333383
-0.0432288
-0.0544308
-0.062808
-0.0607444
-0.0594341
-0.0700476
-0.0824124
-0.0899459
-0.0926306
-0.0929525
-0.0928516
-0.0104558
-0.010544
-0.0106518
-0.0107605
-0.0109984
-0.0116401
-0.0129555
-0.0151523
-0.0184701
-0.0226863
-0.0243106
-0.0170084
-0.00271549
-0.0120454
-0.0255773
-0.0373326
-0.0436872
-0.044281
-0.044447
-0.0448129
-0.00216644
-0.00217971
-0.00219499
-0.00222093
-0.00219161
-0.00217814
-0.00229906
-0.00260773
-0.00311133
-0.0037399
-0.0037929
-0.0010676
0.00482995
0.00387221
0.000113148
-0.00562593
-0.00523648
-0.00467447
-0.00654774
-0.00704312
-0.127185
0.0399183
0.235106
0.405548
0.541925
0.649562
0.738703
0.814576
0.84909
0.825801
0.176388
0.297298
0.42745
0.540017
0.634992
0.713662
0.777381
0.822612
0.845255
0.857327
0.395863
0.478863
0.567858
0.646503
0.714181
0.770821
0.815868
0.848779
0.872557
0.890535
0.557093
0.61649
0.678343
0.735588
0.785396
0.827702
0.862451
0.89017
0.912992
0.931291
0.682839
0.726068
0.772136
0.816049
0.854841
0.888731
0.917737
0.941876
0.962281
0.980117
0.787352
0.820297
0.858483
0.894095
0.926785
0.956087
0.981693
1.00322
1.02108
1.03843
0.88002
0.908754
0.942774
0.974953
1.00494
1.03215
1.05592
1.07566
1.09118
1.10826
0.968682
0.997912
1.03195
1.06402
1.09365
1.12026
1.14314
1.16164
1.17502
1.19205
1.06404
1.09727
1.13393
1.16752
1.19758
1.22378
1.24575
1.26303
1.27491
1.29231
1.17906
1.2169
1.25556
1.28981
1.31917
1.34392
1.3643
1.3802
1.39167
1.40974
1.32402
1.36257
1.39872
1.42941
1.45509
1.4772
1.49626
1.51179
1.52422
1.54221
1.49911
1.53073
1.55692
1.57937
1.59935
1.61807
1.63579
1.65227
1.66762
1.68569
1.68773
1.70493
1.71997
1.7362
1.75211
1.76665
1.77985
1.79378
1.81132
1.83148
1.86945
1.87899
1.89053
1.90134
1.91063
1.92021
1.931
1.94236
1.95373
1.96908
2.07669
2.08035
2.06541
2.0506
2.04432
2.05
2.06848
2.09879
2.13097
2.15762
2.38301
2.24815
2.17151
2.12913
2.11171
2.11567
2.14307
2.19948
2.3021
2.52647
0.684693
0.682564
0.67808
0.669454
0.657228
0.645096
0.634863
0.626963
0.62134
0.618078
0.617713
0.620441
0.625537
0.632753
0.642135
0.653671
0.666319
0.677352
0.683463
0.686516
0.609149
0.614996
0.621328
0.625818
0.628286
0.627958
0.625217
0.621402
0.617885
0.615617
0.615459
0.617646
0.621299
0.62558
0.629381
0.631259
0.63032
0.626835
0.621671
0.61505
0.600728
0.603024
0.606427
0.60942
0.611493
0.612985
0.613735
0.613413
0.61238
0.611488
0.61165
0.613064
0.614868
0.616164
0.616337
0.61544
0.613887
0.611547
0.608282
0.60536
0.595224
0.59631
0.598141
0.600516
0.602536
0.60396
0.604974
0.605719
0.606111
0.606322
0.606799
0.60759
0.608174
0.608228
0.607806
0.60695
0.605475
0.603386
0.601297
0.599913
0.59003
0.590692
0.591799
0.5935
0.595277
0.596902
0.598191
0.599198
0.60007
0.600846
0.601558
0.60209
0.602265
0.602084
0.601504
0.60044
0.599003
0.597454
0.596132
0.595351
0.585065
0.585525
0.586309
0.587603
0.589085
0.590594
0.59205
0.593337
0.594459
0.595498
0.596391
0.596934
0.597057
0.596764
0.596051
0.595048
0.593912
0.592772
0.591852
0.591334
0.58025
0.580595
0.581204
0.582267
0.583554
0.584919
0.586347
0.587779
0.589135
0.590394
0.591476
0.592136
0.592284
0.591984
0.591364
0.590571
0.589706
0.58883
0.588152
0.587773
0.575533
0.575801
0.576292
0.577195
0.578356
0.579642
0.581023
0.582495
0.584014
0.585507
0.58682
0.587649
0.587914
0.587761
0.587342
0.58676
0.586094
0.585442
0.584944
0.584654
0.570832
0.571045
0.571453
0.572245
0.573324
0.574559
0.575928
0.577442
0.579087
0.580809
0.582397
0.583475
0.583966
0.584044
0.583845
0.583476
0.58301
0.582546
0.582186
0.581959
0.566061
0.566232
0.566581
0.567299
0.568331
0.569542
0.570935
0.572528
0.574322
0.576288
0.578204
0.579621
0.58042
0.580771
0.580813
0.580663
0.580401
0.580104
0.579858
0.579677
0.561134
0.561273
0.56158
0.562253
0.563266
0.564499
0.565954
0.567667
0.56966
0.571925
0.574242
0.576083
0.577251
0.577919
0.578233
0.578315
0.578253
0.578115
0.577965
0.57782
0.555964
0.556076
0.556356
0.557008
0.558038
0.559337
0.560899
0.562784
0.565047
0.567687
0.5705
0.572852
0.574455
0.575487
0.576106
0.576437
0.576578
0.576603
0.576536
0.576418
0.550459
0.550548
0.550812
0.551469
0.552551
0.553959
0.555681
0.557808
0.560416
0.563539
0.566962
0.569926
0.572041
0.573492
0.574453
0.575075
0.575442
0.575614
0.575621
0.575525
0.544516
0.544584
0.54484
0.545525
0.546697
0.548261
0.550208
0.552654
0.555702
0.559429
0.5636
0.5673
0.570024
0.571969
0.573321
0.574266
0.574879
0.57521
0.575287
0.575208
0.538009
0.538057
0.538315
0.539049
0.540352
0.542127
0.544371
0.547228
0.550836
0.555309
0.560393
0.564981
0.56843
0.570957
0.572767
0.574069
0.574967
0.575471
0.575615
0.575552
0.530791
0.530821
0.531083
0.53189
0.533369
0.53542
0.538045
0.541422
0.545733
0.551128
0.557321
0.562982
0.567295
0.570509
0.572861
0.574586
0.575808
0.576496
0.576709
0.576657
0.522678
0.522695
0.522958
0.523862
0.52557
0.527963
0.53108
0.535122
0.540315
0.546851
0.554396
0.561338
0.566678
0.570697
0.573687
0.575922
0.577508
0.578398
0.57868
0.578638
0.51336
0.513346
0.513671
0.514713
0.516706
0.519549
0.523295
0.528177
0.534476
0.542424
0.551612
0.560081
0.566631
0.571601
0.575341
0.578175
0.580182
0.581295
0.58165
0.581614
0.502566
0.502527
0.502896
0.504129
0.506491
0.509918
0.514466
0.520413
0.528097
0.537783
0.548957
0.559249
0.567225
0.573317
0.57794
0.581466
0.583957
0.585315
0.585742
0.58571
0.489824
0.489759
0.490204
0.491686
0.494529
0.498716
0.504301
0.511618
0.521056
0.532897
0.54647
0.558912
0.568546
0.575936
0.581593
0.585913
0.588957
0.590576
0.591073
0.59104
0.474497
0.474401
0.474969
0.4768
0.480289
0.485494
0.492459
0.501569
0.513252
0.527763
0.544206
0.55916
0.570701
0.579568
0.586418
0.591637
0.595289
0.597178
0.597738
0.597698
0.455661
0.455538
0.456302
0.458642
0.463041
0.46966
0.478509
0.490013
0.504589
0.522407
0.542256
0.560084
0.573782
0.584321
0.592485
0.598726
0.603029
0.605181
0.605785
0.605732
0.431926
0.431786
0.432879
0.436009
0.441775
0.450461
0.461981
0.476738
0.495043
0.516897
0.540726
0.561807
0.577893
0.590269
0.599872
0.607226
0.612189
0.614569
0.615191
0.615116
0.40099
0.400868
0.402567
0.407067
0.415115
0.427012
0.442452
0.461683
0.484786
0.511524
0.539899
0.564532
0.583159
0.597485
0.608632
0.617149
0.622703
0.625233
0.625831
0.625725
0.358745
0.358783
0.361814
0.369167
0.381438
0.39859
0.419833
0.445087
0.47415
0.506572
0.539974
0.568397
0.589675
0.606014
0.618736
0.628393
0.634388
0.636925
0.637443
0.6373
0.297508
0.298685
0.30611
0.319825
0.3398
0.365296
0.394696
0.427617
0.463741
0.502523
0.541261
0.573546
0.597463
0.615777
0.630007
0.640618
0.646862
0.649182
0.649526
0.649349
0.224697
0.22642
0.240648
0.264237
0.295042
0.330402
0.368737
0.409867
0.453601
0.499437
0.544416
0.581542
0.60896
0.629867
0.645991
0.657775
0.664232
0.66645
0.666768
0.666682
0.149465
0.155571
0.176605
0.210343
0.251474
0.296417
0.343646
0.393036
0.44447
0.497493
0.548928
0.591094
0.622147
0.64586
0.664152
0.676871
0.683166
0.685036
0.685272
0.685243
0.08793
0.0963264
0.121924
0.162643
0.211838
0.264959
0.320217
0.37735
0.436144
0.49609
0.553704
0.600618
0.635018
0.661163
0.681068
0.694507
0.700824
0.702543
0.702907
0.702931
0.0378561
0.0468474
0.075987
0.121925
0.177238
0.236952
0.298998
0.362962
0.428462
0.494878
0.558331
0.609726
0.647241
0.675631
0.697074
0.71139
0.71798
0.720156
0.720625
0.720684
-0.00412643
0.00515245
0.0367491
0.0866821
0.147007
0.21219
0.279989
0.349922
0.421453
0.493825
0.562744
0.618358
0.658816
0.689369
0.712386
0.727693
0.734989
0.737522
0.738061
0.738146
-0.0403618
-0.0309593
0.00249513
0.0556312
0.12009
0.189939
0.262752
0.33797
0.414951
0.492806
0.566834
0.626415
0.669651
0.702231
0.726737
0.743009
0.750999
0.753759
0.75439
0.75448
-0.0725055
-0.0630506
-0.028163
0.0276775
0.0956052
0.169471
0.246714
0.32668
0.408647
0.491597
0.570435
0.633754
0.679579
0.713975
0.739746
0.756867
0.765531
0.768554
0.769206
0.769285
-0.101817
-0.0923061
-0.0562438
0.00193295
0.072846
0.150223
0.2314
0.315672
0.402235
0.489971
0.573377
0.640253
0.688487
0.724552
0.75137
0.769168
0.778321
0.781568
0.782265
0.782332
-0.129147
-0.119576
-0.0824574
-0.0222882
0.0512886
0.131772
0.216464
0.304649
0.395472
0.487727
0.57553
0.645857
0.696398
0.733978
0.76175
0.780066
0.789482
0.792906
0.793648
0.7937
-0.155049
-0.145398
-0.107289
-0.045422
0.0305502
0.113797
0.201654
0.293405
0.388181
0.484729
0.576824
0.650574
0.703394
0.742421
0.771067
0.789759
0.799308
0.802822
0.803568
0.803597
-0.180006
-0.170168
-0.131206
-0.0677154
0.0103677
0.0960832
0.186796
0.281802
0.380255
0.48089
0.577204
0.654419
0.709555
0.750039
0.779473
0.79844
0.808024
0.811516
0.812252
0.812245
-0.20424
-0.194169
-0.154434
-0.0893752
-0.00942486
0.0784964
0.171784
0.269759
0.371616
0.476144
0.57663
0.657397
0.714967
0.756987
0.787169
0.806295
0.815845
0.819281
0.819966
0.819926
-0.22785
-0.21756
-0.176981
-0.110552
-0.0289241
0.0609768
0.156568
0.257235
0.362229
0.470442
0.575052
0.659504
0.719704
0.763397
0.794304
0.813499
0.822949
0.826263
0.82687
0.826808
-0.250974
-0.240369
-0.199031
-0.131308
-0.0481687
0.0434935
0.141142
0.244232
0.352097
0.463771
0.572418
0.660712
0.723816
0.769379
0.801016
0.820193
0.82943
0.832538
0.83303
0.832922
-0.273584
-0.26269
-0.220592
-0.151669
-0.0671619
0.0260629
0.125542
0.230789
0.341246
0.456122
0.568683
0.660963
0.727318
0.775022
0.807455
0.826498
0.835331
0.838115
0.838462
0.838319
-0.295726
-0.284512
-0.241606
-0.17161
-0.0858786
0.00872328
0.109812
0.216968
0.329732
0.447522
0.563812
0.660189
0.730154
0.780383
0.813825
0.832646
0.840803
0.84307
0.843239
0.843068
-0.317218
-0.305756
-0.262067
-0.191089
-0.104268
-0.00845087
0.0940219
0.202844
0.317631
0.438031
0.557791
0.658306
0.732218
0.785462
0.820371
0.83903
0.846136
0.847522
0.8474
0.84721
-0.3382
-0.326381
-0.281956
-0.210082
-0.122293
-0.0254185
0.0782649
0.188499
0.305034
0.427729
0.550633
0.655213
0.733343
0.790145
0.827255
0.84622
0.852003
0.85183
0.851025
0.850817
-0.358504
-0.34636
-0.301239
-0.228538
-0.139874
-0.0420933
0.0626244
0.174056
0.292053
0.416687
0.542387
0.650814
0.733324
0.794176
0.83438
0.854791
0.859729
0.857289
0.854669
0.85362
-0.378189
-0.365733
-0.319861
-0.246404
-0.156973
-0.0584046
0.0471857
0.159596
0.2788
0.405044
0.533128
0.645017
0.731932
0.797158
0.841193
0.864701
0.870832
0.86713
0.860557
0.851889
-0.39717
-0.384458
-0.337915
-0.263835
-0.173796
-0.0746271
0.0316144
0.144721
0.264828
0.392296