/*--------------------------------*- C++ -*----------------------------------*\
| =========                 |                                                 |
| \\      /  F ield         | OpenFOAM: The Open Source CFD Toolbox           |
|  \\    /   O peration     | Version:  2112                                  |
|   \\  /    A nd           | Website:  www.openfoam.com                      |
|    \\/     M anipulation  |                                                 |
\*---------------------------------------------------------------------------*/
FoamFile
{
    version     2.0;
    format      ascii;
    arch        "LSB;label=32;scalar=64";
    class       surfaceScalarField;
    location    "52.5";
    object      phi;
}
// * * * * * * * * * * * * * * * * * * * * * * * * * * * * * * * * * * * * * //

dimensions      [0 3 -1 0 0 0 0];

oriented        oriented;

internalField   nonuniform List<scalar> 
17370
(
-0.091607
0.0960098
0.284608
-0.0775956
0.0594213
0.36495
-0.0430444
0.0316257
0.427587
-0.0223231
0.0162717
0.505303
-0.0116797
0.00880635
0.602275
-0.00659531
0.00511051
0.720542
-0.00387391
0.00299376
0.863787
-0.00222066
0.00164216
1.03603
-0.00111041
0.000689343
1.24292
-0.000278319
-0.000114554
1.49158
0.000502283
-0.00091457
1.4916
0.00131748
-0.00182103
1.24319
0.00237136
-0.00311531
1.03638
0.00397447
-0.00519591
0.864128
0.00667228
-0.00887558
0.721261
0.0117396
-0.0163177
0.603793
0.0223548
-0.031642
0.508726
0.043044
-0.059411
0.432535
0.0775892
-0.096004
0.36519
0.0916207
0.19739
-0.12709
0.0880204
0.0390694
-0.364354
0.354028
-0.0714778
0.0818044
-0.446654
0.454252
-0.0791741
0.0715762
-0.521011
0.529107
-0.063726
0.0556305
-0.612991
0.620759
-0.0482455
0.0404774
-0.727163
0.733684
-0.0338661
0.0273456
-0.86758
0.872432
-0.0221418
0.0172897
-1.03856
1.0419
-0.013591
0.0102508
-1.24472
1.24712
-0.00769957
0.00529362
-1.49284
1.49485
-0.00332926
0.0013143
-1.49269
1.49451
0.000506597
-0.00232708
-1.24411
1.24602
0.00430061
-0.0062118
-1.03761
1.04009
0.00854809
-0.0110292
-0.866187
0.869818
0.0142902
-0.0179206
-0.724594
0.72975
0.0227082
-0.0278634
-0.609065
0.615635
0.034338
-0.0409082
-0.515124
0.52246
0.0486284
-0.0559645
-0.43988
0.447659
0.0639877
-0.071767
-0.374708
0.377355
0.0792645
-0.0819115
-0.256898
0.224437
0.0715616
-0.0391005
-0.0688085
0.0591954
0.00961307
-0.0521145
0.0589431
-0.374835
0.368007
-0.058098
0.054258
-0.453945
0.457785
-0.0487734
0.0442162
-0.527616
0.532173
-0.0396683
0.0357735
-0.6208
0.624695
-0.0315613
0.0275665
-0.734658
0.738652
-0.0232097
0.0193221
-0.873953
0.877841
-0.0152763
0.0118186
-1.04336
1.04682
-0.00829855
0.00526536
-1.24865
1.25168
-0.00205669
-0.000925285
-1.49694
1.49993
0.00388606
-0.00703486
-1.49742
1.50057
0.00998059
-0.0133831
-1.25007
1.25347
0.0167224
-0.0206337
-1.04565
1.04956
0.0244029
-0.0286419
-0.877137
0.881376
0.0325418
-0.0366611
-0.738982
0.743101
0.0404788
-0.044951
-0.625971
0.630443
0.0494452
-0.0548685
-0.535016
0.540439
0.0586374
-0.0593982
-0.458076
0.458837
0.0524527
-0.0320645
-0.336764
0.316376
0.00967336
-0.0686632
0.0589899
-0.0534057
0.0492935
0.00411225
-0.0332484
0.0436745
-0.358559
0.348133
-0.0473529
0.0467686
-0.459578
0.460162
-0.0438431
0.0406333
-0.536131
0.539341
-0.0369588
0.0336056
-0.628393
0.631747
-0.0299726
0.0267317
-0.742031
0.745272
-0.0232787
0.0200808
-0.881333
0.884531
-0.0164879
0.0131368
-1.05024
1.05359
-0.00943853
0.00603399
-1.25494
1.25835
-0.00224245
-0.00137498
-1.50328
1.5069
0.00496137
-0.00866291
-1.50407
1.50777
0.0119454
-0.0154794
-1.25703
1.26056
0.0186646
-0.0220675
-1.05326
1.05667
0.0250966
-0.0283802
-0.884983
0.888266
0.0314837
-0.0349823
-0.746783
0.750282
0.0382224
-0.0417796
-0.634563
0.63812
0.0448878
-0.0476993
-0.544583
0.547394
0.0481656
-0.0443229
-0.456953
0.45311
0.0336951
-0.0163801
-0.297058
0.279743
0.00417889
-0.0531399
0.048961
-0.0461237
0.0435673
0.00255636
-0.0230527
0.0334051
-0.33754
0.327188
-0.0391419
0.0400934
-0.459913
0.458961
-0.0388449
0.036519
-0.541998
0.544324
-0.033879
0.031334
-0.634713
0.637258
-0.0283579
0.0255104
-0.748355
0.751203
-0.0222728
0.0192592
-0.887585
0.890598
-0.0159089
0.012776
-1.05677
1.0599
-0.00922082
0.00582206
-1.26174
1.26514
-0.00191281
-0.00188387
-1.51063
1.51442
0.00564099
-0.00943051
-1.51155
1.51534
0.0126689
-0.0160095
-1.26402
1.26736
0.0189249
-0.0220261
-1.05987
1.06297
0.0248151
-0.0278222
-0.891461
0.894468
0.03048
-0.0332704
-0.75346
0.756251
0.0356609
-0.0381451
-0.641072
0.643556
0.0403379
-0.0414101
-0.549229
0.550301
0.0402759
-0.0342717
-0.447985
0.441981
0.0236256
-0.0103758
-0.264555
0.251305
0.00263886
-0.045717
0.0430781
-0.0414485
0.0396474
0.00180112
-0.0169504
0.0262388
-0.317318
0.308029
-0.0328382
0.0349613
-0.457401
0.455278
-0.0345292
0.0328317
-0.546354
0.548051
-0.0306051
0.0284778
-0.639569
0.641696
-0.0260406
0.0236622
-0.753801
0.756179
-0.0208472
0.0181005
-0.893453
0.896199
-0.0149166
0.011883
-1.06294
1.06598
-0.00841935
0.00510534
-1.26846
1.27177
-0.00126749
-0.00247844
-1.51819
1.52193
0.00617387
-0.00986118
-1.51908
1.52277
0.012971
-0.0161608
-1.27063
1.27382
0.0189171
-0.0217827
-1.066
1.06886
0.0242407
-0.026758
-0.897252
0.899769
0.0288912
-0.0310889
-0.758691
0.760889
0.0330185
-0.0350438
-0.645781
0.647807
0.0365468
-0.036739
-0.550882
0.551074
0.0343349
-0.0273451
-0.43539
0.4284
0.017664
-0.00747539
-0.239729
0.22954
0.00190197
-0.0408685
0.0389665
-0.0380972
0.0367448
0.00135232
-0.0129517
0.0209539
-0.299388
0.291386
-0.0277251
0.0306497
-0.452724
0.449799
-0.0308584
0.0297348
-0.549489
0.550613
-0.0277363
0.0258106
-0.643754
0.645679
-0.0235994
0.0214585
-0.758421
0.760562
-0.0189512
0.0164837
-0.898746
0.901214
-0.0135652
0.0107115
-1.06887
1.07173
-0.00738415
0.00417023
-1.275
1.27822
-0.000440709
-0.00318688
-1.5256
1.52923
0.00675141
-0.0102926
-1.52638
1.52992
0.0132525
-0.0162384
-1.27694
1.27993
0.0187448
-0.0212636
-1.07158
1.0741
0.0233688
-0.0255014
-0.902082
0.904215
0.0273314
-0.029237
-0.762933
0.764839
0.0309134
-0.0326725
-0.649673
0.651432
0.0335126
-0.0329684
-0.550901
0.550356
0.0296417
-0.0223364
-0.421195
0.41389
0.0138307
-0.00577327
-0.220518
0.212461
0.00147541
-0.0373054
0.03583
-0.0355632
0.0345212
0.00104202
-0.010128
0.0169057
-0.28402
0.277242
-0.0234284
0.0268175
-0.446622
0.443233
-0.0276059
0.0269169
-0.551512
0.552201
-0.025155
0.0233758
-0.647574
0.649353
-0.0213183
0.0193162
-0.762634
0.764636
-0.0169592
0.0146447
-0.903539
0.905853
-0.0119209
0.00924911
-1.07442
1.07709
-0.00610501
0.0030356
-1.28132
1.28439
0.000550254
-0.00403831
-1.53276
1.53624
0.00744885
-0.0108016
-1.53336
1.53672
0.0135562
-0.0162769
-1.2828
1.28552
0.0185195
-0.0207493
-1.07648
1.07871
0.0226149
-0.0245072
-0.906241
0.908134
0.0261245
-0.0278044
-0.766632
0.768312
0.0292757
-0.0307075
-0.653042
0.654473
0.0310415
-0.0297809
-0.549465
0.548204
0.0258382
-0.0186133
-0.4066
0.399375
0.0112041
-0.00464407
-0.205223
0.198663
0.0011917
-0.0345138
0.0333221
-0.0336053
0.0327925
0.000812809
-0.00803691
0.0137424
-0.271029
0.265324
-0.0197912
0.0233885
-0.439728
0.436131
-0.0246639
0.0242274
-0.552796
0.553232
-0.0227432
0.0210782
-0.651129
0.652794
-0.0191211
0.0172118
-0.766591
0.7685
-0.0149594
0.0127445
-0.908053
0.910268
-0.0101348
0.00758261
-1.07962
1.08218
-0.00459057
0.00166759
-1.28733
1.29025
0.00174876
-0.00506849
-1.53962
1.54294
0.00829427
-0.0114266
-1.53995
1.54308
0.0139646
-0.0164415
-1.28813
1.29061
0.0184693
-0.0204725
-1.08086
1.08286
0.0221346
-0.0238128
-0.909941
0.91162
0.0252459
-0.0267346
-0.769902
0.77139
0.0280148
-0.0290757
-0.655692
0.656753
0.0290453
-0.0271236
-0.546615
0.544694
0.0227895
-0.0158414
-0.392283
0.385335
0.00935222
-0.00386075
-0.192688
0.187197
0.000994787
-0.0322425
0.0312478
-0.0320773
0.0314412
0.00063606
-0.00642785
0.0112175
-0.260103
0.255314
-0.0166853
0.0202945
-0.432526
0.428917
-0.0219045
0.0217
-0.553592
0.553796
-0.0204548
0.0188547
-0.654479
0.65608
-0.0169587
0.0151047
-0.77038
0.772234
-0.0129195
0.0107723
-0.912372
0.914519
-0.00824327
0.00577253
-1.08461
1.08708
-0.00288435
8.35039e-05
-1.29306
1.29586
0.00317832
-0.00632306
-1.54613
1.54928
0.00935088
-0.0122622
-1.54608
1.549
0.0146007
-0.0168627
-1.29299
1.29525
0.0186944
-0.020483
-1.0848
1.08659
0.0219532
-0.0234354
-0.913228
0.91471
0.0247064
-0.0260265
-0.772807
0.774127
0.027163
-0.0278176
-0.657591
0.658245
0.0274254
-0.0249555
-0.542511
0.540042
0.0203883
-0.0137878
-0.378572
0.371971
0.00803211
-0.00331015
-0.18213
0.177409
0.000857136
-0.0303338
0.0294767
-0.0308845
0.0303912
0.000493297
-0.00513558
0.00913612
-0.250944
0.246943
-0.0139773
0.0174495
-0.425383
0.421911
-0.0192558
0.0192522
-0.553946
0.553949
-0.0182149
0.0166576
-0.657729
0.659286
-0.0147936
0.0129625
-0.77407
0.775901
-0.0108034
0.00868687
-0.916564
0.91868
-0.00620386
0.0037893
-1.08943
1.09185
-0.000977128
-0.00173483
-1.29855
1.30126
0.00486421
-0.00785334
-1.5523
1.55529
0.0107011
-0.0134079
-1.55178
1.55449
0.0155557
-0.0176059
-1.29743
1.29948
0.0192448
-0.0208263
-1.08832
1.08991
0.0221159
-0.0234183
-0.916132
0.917434
0.0245413
-0.0257025
-0.775375
0.776537
0.0266521
-0.026938
-0.658691
0.658977
0.0261626
-0.0232347
-0.537353
0.534425
0.0185383
-0.0122838
-0.365564
0.35931
0.00709489
-0.002926
-0.172998
0.168829
0.000762593
-0.0286785
0.027916
-0.029965
0.0295919
0.000373031
-0.00405601
0.00736457
-0.243311
0.240003
-0.0115673
0.0147919
-0.418577
0.415353
-0.0166666
0.0168242
-0.553926
0.553769
-0.0158765
0.0143973
-0.660884
0.662364
-0.0125351
0.0106948
-0.777726
0.779566
-0.00852746
0.0064124
-0.920697
0.922812
-0.00394496
0.00155744
-1.09415
1.09653
0.00120216
-0.00384711
-1.30387
1.30652
0.00686914
-0.00972
-1.55816
1.56101
0.0123996
-0.0149094
-1.55707
1.55958
0.0168705
-0.0187132
-1.30144
1.30328
0.0201637
-0.0215413
-1.09145
1.09282
0.0226514
-0.0237752
-0.918689
0.919813
0.0247518
-0.0257499
-0.777634
0.778632
0.0264555
-0.0264438
-0.659118
0.659106
0.0252704
-0.0219446
-0.531308
0.527983
0.0171703
-0.0112143
-0.353234
0.347278
0.00644707
-0.00266693
-0.164888
0.161108
0.000700748
-0.0271964
0.0264956
-0.0292786
0.0290124
0.000266209
-0.00311255
0.00579751
-0.237027
0.234342
-0.0093619
0.0122565
-0.412313
0.409418
-0.0140891
0.0143416
-0.553624
0.553371
-0.0134493
0.0120262
-0.663905
0.665328
-0.0101504
0.00827661
-0.781405
0.783279
-0.00606818
0.00391932
-0.924829
0.926977
-0.00142439
-0.000967982
-1.09881
1.1012
0.00371677
-0.00632393
-1.30906
1.31167
0.00926639
-0.012002
-1.56375
1.56649
0.0145296
-0.0168508
-1.56197
1.56429
0.0186289
-0.0202653
-1.30503
1.30667
0.0215267
-0.0226975
-1.09418
1.09535
0.0236261
-0.0245728
-0.920897
0.921843
0.0254048
-0.0262303
-0.77955
0.780375
0.0266621
-0.0263957
-0.658961
0.658694
0.0247874
-0.0210809
-0.524488
0.520782
0.016236
-0.0105032
-0.341473
0.33574
0.00602979
-0.0025071
-0.15749
0.153967
0.000665142
-0.0258256
0.0251605
-0.0288025
0.0286375
0.000164971
-0.00224031
0.00434016
-0.23197
0.22987
-0.00726053
0.00975381
-0.406748
0.404255
-0.011435
0.0117038
-0.55318
0.552912
-0.0108348
0.009431
-0.666846
0.66825
-0.00751521
0.00557814
-0.785156
0.787093
-0.00329335
0.00107987
-0.929026
0.931239
0.00147241
-0.00390455
-1.1035
1.10593
0.00666945
-0.00926416
-1.31418
1.31678
0.0121524
-0.0147901
-1.56912
1.57176
0.0171763
-0.0193134
-1.56649
1.56862
0.0209086
-0.0223341
-1.30821
1.30964
0.0233993
-0.0243488
-1.0965
1.09745
0.0250741
-0.0258214
-0.922745
0.923492
0.0264932
-0.0271683
-0.781109
0.781784
0.0273005
-0.0266855
-0.658202
0.657587
0.0246607
-0.0205998
-0.516941
0.51288
0.0156741
-0.0100833
-0.330127
0.324537
0.00579478
-0.00242488
-0.150556
0.147186
0.000649892
-0.0245172
0.0238674
-0.0285284
0.0284655
6.28828e-05
-0.00139026
0.00291987
-0.228073
0.226543
-0.00518281
0.0072122
-0.40202
0.399991
-0.00863976
0.00884247
-0.552762
0.55256
-0.00794801
0.00652367
-0.669789
0.671214
-0.0045258
0.00249448
-0.789036
0.791067
-0.00010079
-0.00220983
-0.933346
0.935657
0.0048555
-0.0073591
-1.10827
1.11077
0.010177
-0.012787
-1.31928
1.32189
0.0156417
-0.0181897
-1.57429
1.57683
0.0204335
-0.0223796
-1.57063
1.57257
0.0237823
-0.0249845
-1.31096
1.31216
0.0258409
-0.0265577
-1.0984
1.09911
0.0270679
-0.0275969
-0.924208
0.924737
0.0281074
-0.0285923
-0.782312
0.782797
0.0284398
-0.0274242
-0.656716
0.6557
0.0249583
-0.0205176
-0.508697
0.504257
0.0154655
-0.00992132
-0.319031
0.313486
0.00571738
-0.00240995
-0.143888
0.14058
0.000652688
-0.0232324
0.0225797
-0.0284588
0.0285045
-4.57113e-05
-0.000515974
0.00146995
-0.225318
0.224364
-0.00304685
0.0045466
-0.398253
0.396753
-0.00561861
0.00567586
-0.552535
0.552478
-0.00470878
0.0032197
-0.672818
0.674307
-0.00111725
-0.00104133
-0.793105
0.795263
0.0035882
-0.00603453
-0.937865
0.940311
0.00882183
-0.0114372
-1.11318
1.1158
0.0143486
-0.0170066
-1.32442
1.32708
0.019859
-0.02234
-1.57928
1.58176
0.0244535
-0.0262086
-1.57438
1.57614
0.02741
-0.0283755
-1.31325
1.31421
0.029008
-0.0294713
-1.09984
1.1003
0.0297477
-0.0300401
-0.925247
0.925539
0.0303561
-0.0305713
-0.783012
0.783227
0.0301518
-0.0286479
-0.654406
0.652902
0.0256969
-0.0208395
-0.499712
0.494855
0.0156003
-0.0100015
-0.307991
0.302392
0.00578546
-0.00245674
-0.137308
0.133979
0.000671899
-0.0219357
0.0212638
-0.0286051
0.0287665
-0.000161422
0.000407924
-6.02703e-05
-0.22373
0.223382
-0.00078035
0.00166857
-0.395575
0.394686
-0.0022769
0.00209745
-0.552669
0.552849
-0.000994729
-0.000628015
-0.676032
0.677655
0.00289148
-0.00522491
-0.797433
0.799766
0.00797203
-0.0105969
-0.942659
0.945284
0.0135672
-0.0163296
-1.11832
1.12109
0.0193701
-0.0221037
-1.32965
1.33239
0.0249754
-0.0273968
-1.58413
1.58655
0.0293738
-0.0309179
-1.57774
1.57929
0.0318952
-0.0325867
-1.31504
1.31573
0.0329669
-0.0331616
-1.10076
1.10096
0.0331927
-0.0332287
-0.925812
0.925848
0.0333356
-0.0332296
-0.783078
0.782972
0.032478
-0.0303993
-0.651147
0.649068
0.0269147
-0.0215799
-0.489903
0.484569
0.0160727
-0.0103097
-0.2968
0.291037
0.00598755
-0.00255958
-0.130651
0.127223
0.00070583
-0.0205953
0.0198895
-0.0290072
0.029308
-0.000300815
0.00139971
-0.00170258
-0.223395
0.223698
0.00170278
-0.00153291
-0.394117
0.393947
0.00151788
-0.00204063
-0.553383
0.553905
0.0033664
-0.00517835
-0.679576
0.681388
0.00765988
-0.0102171
-0.802109
0.804666
0.0132177
-0.016069
-0.947809
0.950661
0.0192747
-0.02223
-1.12377
1.12672
0.0254419
-0.0282785
-1.33504
1.33787
0.0311832
-0.0335426
-1.58885
1.59121
0.0353678
-0.0366708
-1.58065
1.58195
0.0374022
-0.0377926
-1.31627
1.31666
0.0378941
-0.0377854
-1.10111
1.101
0.0375392
-0.0372933
-0.925836
0.92559
0.0371858
-0.0366564
-0.782402
0.781873
0.0354875
-0.0327553
-0.646802
0.64407
0.0286627
-0.0227615
-0.479137
0.473236
0.0168875
-0.0108422
-0.285238
0.279193
0.00631893
-0.00271565
-0.123764
0.12016
0.000753534
-0.0191821
0.0184286
-0.0296807
0.0301577
-0.000477035
0.00268248
-0.00373025
-0.224384
0.225432
0.00460033
-0.00522531
-0.394101
0.394726
0.00592516
-0.00689053
-0.554914
0.555879
0.00850635
-0.0105623
-0.683557
0.685613
0.0133289
-0.0161728
-0.807232
0.810076
0.0194999
-0.022647
-0.953421
0.956568
0.0261598
-0.0293641
-1.1296
1.13281
0.0327952
-0.0357642
-1.34063
1.3436
0.0387172
-0.0410094
-1.59344
1.59573
0.0426579
-0.0436864
-1.58305
1.58408
0.0441145
-0.0441745
-1.31685
1.31691
0.0439656
-0.043521
-1.10079
1.10034
0.0429667
-0.0424012
-0.925241
0.924676
0.0419874
-0.0410018
-0.780829
0.779843
0.0392909
-0.0358017
-0.641205
0.637716
0.0309992
-0.024415
-0.467225
0.46064
0.018056
-0.0115993
-0.273065
0.266608
0.00677692
-0.00292272
-0.116495
0.112641
0.000814107
-0.0176695
0.0168554
-0.0307053
0.0314
-0.000694756
0.0041694
-0.00610596
-0.2269
0.228836
0.00804417
-0.00956959
-0.395746
0.397271
0.0110925
-0.012635
-0.5575
0.559043
0.0146877
-0.0170846
-0.688109
0.690506
0.0202462
-0.0234596
-0.812935
0.816148
0.0271959
-0.0307037
-0.959633
0.963141
0.0345826
-0.0380786
-1.13594
1.13944
0.0417628
-0.0448792
-1.34648
1.3496
0.0478732
-0.0500668
-1.59787
1.60006
0.0514898
-0.0521879
-1.58488
1.58558
0.0522505
-0.0519302
-1.31672
1.3164
0.0513619
-0.0505386
-1.09972
1.09889
0.0496426
-0.0487094
-0.923942
0.923009
0.0478846
-0.046401
-0.778305
0.776821
0.0440138
-0.039641
-0.634134
0.629761
0.0339972
-0.0265762
-0.453925
0.446504
0.0195899
-0.0125797
-0.260019
0.253009
0.00735622
-0.00317633
-0.108695
0.104516
0.000885586
-0.0160329
0.0151473
-0.0321612
0.0331422
-0.000980934
0.00604412
-0.00903927
-0.231198
0.234193
0.0122287
-0.0148107
-0.399314
0.401896
0.0173042
-0.0195531
-0.561438
0.563687
0.0221943
-0.0250709
-0.693445
0.696322
0.0287547
-0.0324385
-0.819387
0.823071
0.0366757
-0.040617
-0.96657
0.970512
0.0449311
-0.0487672
-1.14286
1.1467
0.0527328
-0.0559951
-1.35261
1.35587
0.0589969
-0.0610332
-1.60207
1.6041
0.0621575
-0.0624365
-1.58599
1.58627
0.0620783
-0.0612772
-1.31573
1.31493
0.0602801
-0.059003
-1.09779
1.09651
0.0577095
-0.0563911
-0.92184
0.920522
0.0550558
-0.0529851
-0.77475
0.77268
0.0498011
-0.0443677
-0.625311
0.619878
0.0377074
-0.0292608
-0.438926
0.430479
0.0214851
-0.013769
-0.245818
0.238102
0.00804203
-0.00346693
-0.100219
0.0956437
0.000964375
-0.0142522
0.0132878
-0.0341769
0.0355475
-0.00137059
0.00848986
-0.0128387
-0.237603
0.241952
0.017514
-0.0213308
-0.405173
0.40899
0.0249581
-0.0280523
-0.567051
0.570145
0.0314396
-0.0349324
-0.699846
0.703338
0.0392834
-0.0435603
-0.826786
0.831063
0.0484213
-0.0528931
-0.974395
0.978867
0.0577197
-0.0619304
-1.15046
1.15467
0.0661733
-0.0695421
-1.35899
1.36236
0.0724744
-0.0742562
-1.60588
1.60767
0.0749676
-0.0747042
-1.58619
1.58593
0.0738343
-0.0724377
-1.31367
1.31227
0.0709548
-0.0691616
-1.09484
1.09305
0.0674203
-0.0656409
-0.918855
0.917075
0.0637001
-0.0609166
-0.769975
0.767191
0.0567527
-0.0500402
-0.614374
0.607662
0.0421547
-0.0324597
-0.421857
0.412161
0.0237128
-0.0151322
-0.230162
0.221581
0.00880491
-0.00377758
-0.0909342
0.0859068
0.00104446
-0.0123161
0.0112716
-0.0369473
0.0388771
-0.00192974
0.0118957
-0.0179478
-0.246643
0.252695
0.0244254
-0.0296961
-0.413809
0.41908
0.0346748
-0.0388068
-0.574711
0.578843
0.0431551
-0.0474675
-0.707605
0.711918
0.0526866
-0.0577018
-0.835377
0.840392
0.0633028
-0.0683666
-0.98329
0.988354
0.0737217
-0.0782749
-1.15878
1.16333
0.0827115
-0.0860682
-1.36552
1.36888
0.0887581
-0.0900967
-1.60909
1.61043
0.0902093
-0.0892274
-1.58522
1.58424
0.0876923
-0.0856103
-1.31032
1.30824
0.083554
-0.0812137
-1.09073
1.08838
0.0790052
-0.0766163
-0.914811
0.912422
0.0740634
-0.0703387
-0.763648
0.759923
0.0649765
-0.0567102
-0.600869
0.592602
0.0473388
-0.0361298
-0.402277
0.391068
0.0262104
-0.0166067
-0.212748
0.203144
0.00959668
-0.00408294
-0.0807417
0.075228
0.00111773
-0.0102259
0.00910814
-0.0407978
0.0435936
-0.00279577
0.0168208
-0.0251242
-0.259024
0.267328
0.03384
-0.0408638
-0.425896
0.43292
0.0474893
-0.0528937
-0.58492
0.590324
0.0584825
-0.0638793
-0.717161
0.722558
0.0701911
-0.0760623
-0.84543
0.851301
0.0824444
-0.0880674
-0.993338
0.998961
0.0938505
-0.0986032
-1.16769
1.17245
0.103026
-0.106147
-1.3719
1.37502
0.108322
-0.108955
-1.61127
1.6119
0.108227
-0.106306
-1.5827
1.58078
0.103938
-0.101005
-1.30551
1.30257
0.0982581
-0.095282
-1.08531
1.08233
0.0925492
-0.0894833
-0.909366
0.9063
0.0862586
-0.0813616
-0.75529
0.750393
0.0745083
-0.0643424
-0.584207
0.574041
0.0531763
-0.0401546
-0.379681
0.366659
0.0288496
-0.0180777
-0.193297
0.182525
0.0103336
-0.00434038
-0.0696012
0.063608
0.00117056
-0.00800184
0.00683128
-0.0462994
0.0505573
-0.00425797
0.0244707
-0.0358373
-0.275911
0.287277
0.0474491
-0.056787
-0.44245
0.451788
0.0654095
-0.0722638
-0.598281
0.605135
0.0793588
-0.0862189
-0.728917
0.735778
0.0936765
-0.100327
-0.857135
0.863785
0.107341
-0.113327
-1.00441
1.01039
0.119249
-0.123883
-1.17685
1.18148
0.127897
-0.130397
-1.3776
1.3801
0.131625
-0.131172
-1.61183
1.61138
0.129266
-0.12613
-1.57815
1.57501
0.122746
-0.1188
-1.29889
1.29494
0.115244
-0.111528
-1.07842
1.0747
0.108223
-0.104354
-0.902311
0.898442
0.100291
-0.0938829
-0.744381
0.737972
0.0851824
-0.0727257
-0.563644
0.551187
0.0594399
-0.0443104
-0.35351
0.338381
0.0314229
-0.019378
-0.171602
0.159557
0.0108986
-0.00449174
-0.0575773
0.0511705
0.00118391
-0.00569231
0.00450839
-0.0545144
0.0618392
-0.00732488
0.0379186
-0.0537479
-0.299438
0.315267
0.069407
-0.0819183
-0.465097
0.477609
0.0926843
-0.100876
-0.615202
0.623394
0.109458
-0.11754
-0.743227
0.751309
0.125868
-0.1329
-0.870219
0.87725
0.139987
-0.145753
-1.01594
1.02171
0.151148
-0.15503
-1.18545
1.18933
0.157964
-0.159228
-1.38174
1.38301
0.15892
-0.156897
-1.60993
1.60791
0.153438
-0.14879
-1.571
1.56635
0.144163
-0.139031
-1.29016
1.28503
0.134551
-0.130021
-1.06986
1.06533
0.126055
-0.121364
-0.893381
0.88869
0.116065
-0.107705
-0.730188
0.721829
0.0966993
-0.081448
-0.538249
0.522998
0.0657113
-0.0482812
-0.323198
0.305768
0.0337101
-0.0203875
-0.147615
0.134293
0.0112261
-0.00451128
-0.0449023
0.0381875
0.00114468
-0.0033841
0.00223942
-0.0686833
0.0727958
-0.00411251
0.0290766
-0.0427851
-0.333596
0.347305
0.0566423
-0.0680675
-0.495273
0.506698
0.0782362
-0.0876965
-0.635253
0.644714
0.0981877
-0.107693
-0.75899
0.768496
0.118199
-0.127519
-0.883422
0.892742
0.13738
-0.146066
-1.02652
1.03521
0.154994
-0.162479
-1.19209
1.19958
0.169654
-0.175055
-1.38306
1.38847
0.179336
-0.181393
-1.60461
1.60667
0.181178
-0.179232
-1.5606
1.55865
0.17626
-0.172264
-1.27896
1.27497
0.168628
-0.164415
-1.05942
1.05521
0.160809
-0.156021
-0.8822
0.877412
0.148999
-0.136983
-0.71167
0.699654
0.120868
-0.0993534
-0.506944
0.485429
0.0781326
-0.0554071
-0.288201
0.265475
0.0373912
-0.0217645
-0.121583
0.105956
0.0115559
-0.0044854
-0.0320535
0.024983
0.00111415
-0.00119736
8.3212e-05
-0.07992
0.0781037
0.00181627
0.00748428
-0.0165124
-0.363849
0.372877
0.0270223
-0.0350901
-0.52284
0.530908
0.0432195
-0.0512444
-0.656589
0.664614
0.0609227
-0.0698443
-0.777685
0.786606
0.0792652
-0.087829
-0.901518
0.910082
0.0968461
-0.104444
-1.04359
1.05118
0.112426
-0.118736
-1.20684
1.21315
0.124687
-0.128816
-1.39349
1.39762
0.131396
-0.131915
-1.60778
1.6083
0.130149
-0.126621
-1.5558
1.55227
0.12207
-0.116384
-1.27027
1.26458
0.111086
-0.105205
-1.0492
1.04332
0.0997853
-0.093398
-0.867917
0.86153
0.0862762
-0.0758384
-0.683694
0.673256
0.0638527
-0.0494417
-0.462395
0.447984
0.0365973
-0.0243921
-0.242974
0.230769
0.0156788
-0.00876189
-0.0912057
0.0842888
0.00454673
-0.00174677
-0.0183616
0.0155616
0.000393615
0.000988369
-0.00138198
-0.0813806
0.0785174
0.00286323
-0.00165383
-0.00359712
-0.384272
0.389523
0.0107544
-0.0166087
-0.543165
0.54902
0.0226643
-0.0296472
-0.674669
0.681652
0.0380097
-0.0457526
-0.794668
0.802411
0.0541554
-0.0616282
-0.917911
0.925384
0.0692453
-0.0760117
-1.05859
1.06536
0.0828936
-0.0883919
-1.21899
1.22449
0.0930814
-0.0960353
-1.40102
1.40397
0.0976263
-0.0970007
-1.608
1.60737
0.0941008
-0.0894384
-1.54797
1.54331
0.0839972
-0.0775941
-1.25855
1.25214
0.0712817
-0.0645066
-1.03618
1.0294
0.0582168
-0.0510237
-0.852032
0.844839
0.0441568
-0.0354569
-0.659288
0.650588
0.0267874
-0.0177518
-0.43169
0.422654
0.0112694
-0.00641969
-0.217869
0.213019
0.00370716
-0.00202635
-0.0772554
0.0755746
0.00113757
-0.000527515
-0.0126772
0.0120671
7.34214e-05
0.00193168
-0.0020051
-0.0801579
0.0774573
0.00270059
-0.0052331
0.00269294
-0.397903
0.400443
0.00192755
-0.00636227
-0.558205
0.56264
0.0114772
-0.0173199
-0.689591
0.695434
0.0244693
-0.031109
-0.809537
0.816177
0.0383021
-0.0447243
-0.932344
0.938766
0.0516472
-0.0573841
-1.0717
1.07743
0.0633851
-0.0676959
-1.22956
1.23387
0.0716032
-0.073882
-1.40666
1.40894
0.0746051
-0.0730365
-1.60622
1.60465
0.0696629
-0.064589
-1.53801
1.53294
0.058795
-0.0516527
-1.24538
1.23824
0.044947
-0.0376262
-1.02165
1.01433
0.0306784
-0.0234162
-0.83523
0.827968
0.0168595
-0.00984807
-0.638818
0.631807
0.00382424
0.000849773
-0.412264
0.40759
-0.00294597
0.00346636
-0.206199
0.205678
-0.00303919
0.00200131
-0.0728142
0.0738521
-0.00111807
0.00038579
-0.011072
0.0118043
-0.000193988
0.00235954
-0.00216555
-0.0786973
0.0763101
0.00238726
-0.0063344
0.00537828
-0.407013
0.407969
-0.00197833
-0.0012579
-0.570258
0.573494
0.00541904
-0.0107154
-0.7021
0.707396
0.0167289
-0.0225666
-0.822128
0.827965
0.0288098
-0.0343986
-0.944752
0.95034
0.0403425
-0.0454496
-1.08304
1.08814
0.0505109
-0.0544484
-1.23803
1.24197
0.0577222
-0.0594915
-1.41083
1.4126
0.0597463
-0.057836
-1.60289
1.60098
0.0542231
-0.0487755
-1.52718
1.52173
0.0428603
-0.0357357
-1.231
1.22388
0.0288887
-0.0211992
-1.00629
0.998597
0.0141825
-0.0068136
-0.818589
0.81122
0.00067595
0.00490348
-0.622047
0.616468
-0.00891009
0.0110709
-0.400482
0.398322
-0.0109691
0.00935026
-0.2026
0.204219
-0.00727829
0.00483662
-0.0739265
0.0763681
-0.00282895
0.00115311
-0.012233
0.0139089
-0.000360967
0.00222598
-0.00186501
-0.0773502
0.0753095
0.00204073
-0.00619638
0.00573276
-0.413291
0.413755
-0.0037051
0.00110187
-0.579568
0.582171
0.0029859
-0.00751947
-0.712708
0.717241
0.0127024
-0.0177835
-0.833021
0.838102
0.0233528
-0.0283612
-0.955591
0.9606
0.0338092
-0.0382837
-1.09297
1.09745
0.0428335
-0.0463648
-1.24561
1.24914
0.0492099
-0.0506618
-1.4141
1.41556
0.0506346
-0.0489136
-1.59897
1.59725
0.0451669
-0.0398287
-1.51583
1.5105
0.0339184
-0.0268487
-1.21655
1.20948
0.0203362
-0.0127182
-0.9906
0.982982
0.00586087
0.00111609
-0.802585
0.795608
-0.00675285
0.0114492
-0.608096
0.603399
-0.0144405
0.0157252
-0.393231
0.391946
-0.014594
0.0120439
-0.203299
0.205849
-0.00940425
0.00633293
-0.0779183
0.0809897
-0.00377811
0.00161972
-0.0152618
0.0174202
-0.000460057
0.00163594
-0.00117589
-0.0763411
0.0747557
0.00158542
-0.00531093
0.00516864
-0.417989
0.418131
-0.00353069
0.00155678
-0.587701
0.589675
0.00228844
-0.00639585
-0.721906
0.726014
0.0113268
-0.0157159
-0.842789
0.847178
0.0206226
-0.025073
-0.965581
0.970032
0.030252
-0.0343255
-1.10195
1.10603
0.0383736
-0.0417273
-1.25249
1.25585
0.0447415
-0.046059
-1.41703
1.41835
0.0460962
-0.0443246
-1.59513
1.59336
0.0409866
-0.0356198
-1.50496
1.49959
0.0301591
-0.0236507
-1.20233
1.19583
0.017435
-0.0105058
-0.975432
0.968503
0.00403054
0.0027046
-0.787556
0.780821
-0.00779394
0.0121944
-0.5957
0.591299
-0.0148638
0.0158622
-0.387995
0.386997
-0.0149481
0.0125563
-0.205722
0.208113
-0.00987683
0.00672564
-0.0831215
0.0862727
-0.00407161
0.00178986
-0.0191014
0.0213832
-0.000497542
0.000808669
-0.000311127
-0.0758355
0.074595
0.00124044
-0.00423846
0.00421661
-0.421751
0.421772
-0.00276662
0.000882011
-0.594801
0.596685
0.0028327
-0.00651627
-0.730191
0.733875
0.0107558
-0.0149988
-0.851506
0.855749
0.0195394
-0.0241307
-0.974291
0.978882
0.0285939
-0.0324978
-1.1102
1.1141
0.0366935
-0.039829
-1.25909
1.26222
0.0424017
-0.0441616
-1.41958
1.42134
0.0444169
-0.0429863
-1.59166
1.59023
0.0399203
-0.0353069
-1.49452
1.4899
0.0303697
-0.0244221
-1.18917
1.18322
0.0187745
-0.0123017
-0.961485
0.955012
0.00622962
3.98169e-05
-0.773498
0.767228
-0.00508957
0.00929823
-0.584232
0.580023
-0.0116466
0.0129417
-0.383542
0.382247
-0.0126073
0.0107146
-0.207953
0.209846
-0.00854496
0.00589792
-0.0881336
0.0907806
-0.00362616
0.00162542
-0.0229637
0.0249644
-0.000458805
-9.73158e-05
0.000556121
-0.0758557
0.0748252
0.00103052
-0.00297383
0.00271434
-0.425139
0.425398
-0.00148018
-0.000435659
-0.601313
0.603229
0.0039034
-0.00746775
-0.737915
0.74148
0.0115443
-0.0153905
-0.859768
0.863614
0.0200509
-0.0238638
-0.9829
0.986713
0.0283062
-0.0320461
-1.11816
1.1219
0.0361526
-0.0395093
-1.26535
1.2687
0.0423999
-0.0439839
-1.42288
1.42446
0.0446432
-0.0437149
-1.58878
1.58785
0.0414334
-0.0373144
-1.4853
1.48118
0.0329658
-0.0275411
-1.1775
1.17207
0.0223525
-0.0162695
-0.948357
0.942274
0.010745
-0.00484437
-0.760391
0.75449
-0.000122973
0.00438352
-0.573673
0.569413
-0.00697938
0.00833206
-0.378591
0.377239
-0.0086349
0.00761744
-0.209224
0.210242
-0.00623416
0.00438433
-0.0920391
0.093889
-0.00274376
0.00127867
-0.0261251
0.0275902
-0.000383451
-0.000865873
0.00124932
-0.0761565
0.0754435
0.000712976
-0.00183603
0.00116102
-0.42863
0.429305
-0.000134767
-0.00207146
-0.607039
0.609245
0.00516542
-0.00859153
-0.745127
0.748553
0.0125042
-0.0164815
-0.86731
0.871288
0.0205332
-0.0245135
-0.99073
0.99471
0.028934
-0.032488
-1.12607
1.12962
0.0367102
-0.0400486
-1.27187
1.27521
0.0430344
-0.0451887
-1.42647
1.42862
0.0464088
-0.0458647
-1.58701
1.58647
0.0439393
-0.0406111
-1.47732
1.47399
0.0368345
-0.0317881
-1.16659
1.16154
0.0268887
-0.0214806
-0.936162
0.930754
0.0160886
-0.0108143
-0.74811
0.742835
0.00614075
-0.00157386
-0.563666
0.559099
-0.00136146
0.00330332
-0.373078
0.371136
-0.00406822
0.00400086
-0.209185
0.209252
-0.00338264
0.00245495
-0.0943056
0.0952333
-0.00161783
0.000798386
-0.0282015
0.029021
-0.000258368
-0.00143433
0.0016927
-0.0768752
0.0763183
0.000556986
-0.000873178
0.000312288
-0.432349
0.43291
0.00144304
-0.00344582
-0.613007
0.61501
0.00668581
-0.00998639
-0.751837
0.755137
0.013751
-0.0173325
-0.874922
0.878503
0.0215144
-0.0251933
-0.998694
1.00237
0.0295827
-0.0335901
-1.13363
1.13764
0.0374803
-0.0411719
-1.2786
1.28229
0.0446101
-0.0469007
-1.43069
1.43298
0.0485579
-0.0488567
-1.58618
1.58648
0.0474086
-0.0446915
-1.47056
1.46784
0.0411064
-0.0365509
-1.15657
1.15202
0.0321943
-0.0272107
-0.925055
0.920072
0.02247
-0.0174891
-0.736885
0.731904
0.0129034
-0.00806965
-0.553311
0.548477
0.00453631
-0.0020136
-0.36678
0.364258
0.000522639
0.000254779
-0.20749
0.206712
-0.000549485
0.000583647
-0.0947727
0.0947385
-0.000486532
0.000304096
-0.0290194
0.0292018
-0.000121675
-0.00174762
0.0018693
-0.0778641
0.0774938
0.000370299
0.000171258
-0.00099686
-0.436166
0.436991
0.00258626
-0.00490657
-0.61853
0.620851
0.00807442
-0.0112178
-0.758317
0.761461
0.0150667
-0.0185011
-0.88205
0.885485
0.0225364
-0.026351
-1.00653
1.01034
0.0306628
-0.0346547
-1.1415
1.14549
0.0387869
-0.0425268
-1.28591
1.28964
0.0461817
-0.0492518
-1.43557
1.43864
0.0513955
-0.0520122
-1.58673
1.58735
0.0512387
-0.0488172
-1.46501
1.46259
0.045809
-0.0419163
-1.14749
1.14359
0.0378502
-0.0333917
-0.914972
0.910514
0.0290399
-0.0240691
-0.726358
0.721387
0.0194627
-0.0142586
-0.542788