/*--------------------------------*- C++ -*----------------------------------*\
| =========                 |                                                 |
| \\      /  F ield         | OpenFOAM: The Open Source CFD Toolbox           |
|  \\    /   O peration     | Version:  2112                                  |
|   \\  /    A nd           | Website:  www.openfoam.com                      |
|    \\/     M anipulation  |                                                 |
\*---------------------------------------------------------------------------*/
FoamFile
{
    version     2.0;
    format      ascii;
    arch        "LSB;label=32;scalar=64";
    class       volScalarField;
    location    "2.5";
    object      p;
}
// * * * * * * * * * * * * * * * * * * * * * * * * * * * * * * * * * * * * * //

dimensions      [1 -1 -2 0 0 0 0];

internalField   nonuniform List<scalar> 
5250
(
1
1.00003
1.00007
1.0002
1.00042
1.00119
1.00239
1.00706
1.01321
1.04468
1.07583
1.28974
1.58974
2.9538
6.38026
12.4557
11.5521
11.1175
11.2141
11.4795
11.7365
11.8883
12.0046
12.0991
12.1702
1
1.00003
1.00007
1.0002
1.00041
1.00118
1.00237
1.00696
1.01309
1.04389
1.0748
1.28451
1.57823
2.91442
6.26149
12.4531
11.5598
11.1112
11.2068
11.4708
11.727
11.8792
11.9972
12.0934
12.1666
1
1.00003
1.00007
1.0002
1.00041
1.00115
1.00232
1.00675
1.01293
1.04229
1.07291
1.27446
1.55421
2.83577
6.02254
12.4203
11.5543
11.0875
11.1786
11.4353
11.6873
11.8377
11.9551
12.0508
12.1242
1
1.00003
1.00006
1.00019
1.00039
1.00111
1.00225
1.00651
1.01258
1.04049
1.07039
1.26238
1.52546
2.74675
5.76544
12.2993
11.5151
11.0444
11.1285
11.3708
11.6148
11.7615
11.8762
11.9699
12.0446
1
1.00003
1.00006
1.00018
1.00038
1.00107
1.00217
1.00624
1.01214
1.03843
1.06781
1.24783
1.49512
2.6474
5.49072
12.028
11.4308
10.991
11.0633
11.2798
11.5133
11.6548
11.764
11.8539
11.9307
1
1.00002
1.00006
1.00017
1.00036
1.00102
1.00207
1.00593
1.01161
1.03626
1.06458
1.23416
1.45678
2.57258
5.15278
11.6491
11.3017
10.9365
10.9862
11.1559
11.3756
11.5099
11.6096
11.6921
11.7704
1
1.00002
1.00006
1.00016
1.00034
1.00097
1.00196
1.0056
1.01109
1.03382
1.06181
1.21754
1.42046
2.48368
4.78772
11.1594
11.1106
10.8975
10.899
10.9983
11.1987
11.3206
11.4019
11.466
11.5381
1
1.00002
1.00005
1.00015
1.00032
1.0009
1.00182
1.00519
1.01034
1.03119
1.05771
1.20017
1.38242
2.37192
4.42069
10.5211
10.9791
10.8249
10.7623
10.8262
10.9781
11.0787
11.1276
11.1532
11.1967
1
1.00002
1.00005
1.00014
1.00029
1.00081
1.00166
1.00472
1.00941
1.02827
1.05261
1.18181
1.34142
2.24765
4.04521
9.74051
10.8705
10.7291
10.5912
10.6259
10.7213
10.7775
10.77
10.7176
10.6567
1
1.00002
1.00004
1.00012
1.00025
1.0007
1.00142
1.00411
1.00803
1.02521
1.04469
1.16426
1.29482
2.12383
3.68567
8.83946
10.7721
10.6266
10.3952
10.3969
10.4253
10.4131
10.3259
10.1014
9.72931
1
1.00001
1.00004
1.00008
1.00023
1.00046
1.00142
1.00248
1.00896
1.01446
1.05642
1.0922
1.36832
1.76002
3.51891
7.73291
10.6926
10.5269
10.1937
10.1313
10.105
10.0121
9.75224
9.13587
7.56569
1
1.00001
1.00003
1.00009
1.00019
1.00053
1.00108
1.00313
1.0061
1.01914
1.03381
1.12349
1.21665
1.82001
2.89561
6.61654
10.6185
10.4181
10.0017
9.86547
9.78234
9.59291
9.17687
8.33267
6.69342
1
1.00001
1.00003
1.00008
1.00017
1.00047
1.00095
1.0027
1.00546
1.01583
1.03118
1.09711
1.18847
1.63572
2.49243
5.36952
10.426
10.2505
9.83752
9.61204
9.46742
9.19727
8.67889
7.80391
6.46825
1
1.00001
1.00002
1.00007
1.00014
1.00039
1.0008
1.00227
1.00458
1.01319
1.02605
1.08044
1.15377
1.52064
2.19848
4.58839
9.81722
9.9036
9.6845
9.37387
9.16017
8.84334
8.31356
7.50594
6.42757
1
1.00001
1.00002
1.00005
1.00011
1.00031
1.00064
1.0018
1.00357
1.01076
1.01943
1.06841
1.11505
1.44082
1.93228
3.97593
8.58456
9.59118
9.46078
9.16613
8.88999
8.54707
8.04032
7.32204
6.41825
1
1.00001
1.00001
1.00004
1.00009
1.00026
1.00052
1.00147
1.00293
1.00868
1.01599
1.0549
1.09226
1.35404
1.72033
3.36585
7.11452
9.36193
9.27593
9.01943
8.67649
8.31009
7.82963
7.18798
6.40998
1
1
1.00001
1.00004
1.00007
1.0002
1.00042
1.00117
1.00237
1.00681
1.01312
1.04219
1.07321
1.27065
1.5432
2.77025
5.55865
9.13503
9.1221
8.92616
8.52358
8.12128
7.66203
7.08718
6.40676
1
1
1.00001
1.00003
1.00006
1.00016
1.00033
1.00092
1.00186
1.00526
1.01051
1.03116
1.05852
1.19467
1.38568
2.26594
4.1011
8.58709
8.9755
8.80669
8.41764
7.97281
7.52537
7.00388
6.39944
1
1
1.00001
1.00002
1.00004
1.00012
1.00024
1.00068
1.00138
1.00391
1.00765
1.02361
1.04204
1.151
1.26885
1.99772
3.29266
7.2982
8.70577
8.60623
8.31675
7.86157
7.41848
6.93379
6.38934
1
1
1.00001
1.00001
1.00004
1.00007
1.00021
1.00042
1.00118
1.00229
1.0071
1.01235
1.04488
1.07345
1.28128
1.56257
2.80827
5.59448
8.41962
8.41066
8.22763
7.81628
7.33947
6.87217
6.37555
1
1
1
1.00001
1.00003
1.00006
1.00016
1.00032
1.0009
1.00183
1.00517
1.01035
1.03047
1.05779
1.18806
1.37557
2.20819
3.85617
7.85015
8.29192
8.14736
7.78929
7.28557
6.82568
6.36217
1
1
1
1.00001
1.00002
1.00005
1.0001
1.00026
1.00054
1.00151
1.00299
1.00897
1.01627
1.05593
1.09634
1.34714
1.73596
3.20868
6.46412
8.03954
7.97908
7.74036
7.25965
6.79535
6.35669
1
1
1
1.00001
1.00001
1.00003
1.00008
1.00017
1.00047
1.00096
1.00269
1.0054
1.01568
1.03001
1.09625
1.18018
1.60876
2.38449
4.80622
7.63566
7.77797
7.63676
7.26998
6.79591
6.358
1
1
1
1
1.00001
1.00002
1.00005
1.00014
1.00028
1.00077
1.00157
1.00441
1.0087
1.02607
1.04756
1.16256
1.3006
2.01535
3.33049
6.77111
7.60895
7.52163
7.26081
6.80963
6.36612
1
1
1
1
1.00001
1.00002
1.00004
1.0001
1.0002
1.00055
1.00112
1.0031
1.00625
1.01789
1.03433
1.10972
1.20137
1.69405
2.54561
5.14294
7.29608
7.33915
7.21239
6.86918
6.3924
1
1
1
1
1
1.00001
1.00002
1.00007
1.00013
1.00037
1.00075
1.00209
1.00422
1.01188
1.02383
1.06882
1.14197
1.41834
1.95161
3.52447
6.61347
7.21132
7.13187
6.88883
6.44807
1
1
1
1
1
1.00001
1.00002
1.00004
1.0001
1.00021
1.00057
1.00116
1.00323
1.00633
1.01903
1.03406
1.11774
1.2066
1.73569
2.60498
5.24575
6.95337
6.97447
6.86393
6.5672
1
1
1
1
1
1
1.00001
1.00003
1.00007
1.00014
1.00039
1.00079
1.00216
1.00437
1.01222
1.02437
1.07047
1.1433
1.42267
1.95514
3.45727
6.36643
6.86791
6.80598
6.60643
1
1
1
1
1
1
1.00001
1.00002
1.00004
1.00009
1.00025
1.00051
1.0014
1.00283
1.00788
1.01567
1.04581
1.08771
1.27581
1.59103
2.68417
5.05485
6.6154
6.68291
6.5861
1
1
1
1
1
1
1
1.00001
1.00002
1.00007
1.00014
1.00037
1.00076
1.00209
1.00421
1.01177
1.02345
1.06761
1.13791
1.40102
1.90659
3.30485
6.0249
6.56019
6.52031
1
1
1
1
1
1
1
1.00001
1.00002
1.00004
1.00009
1.00024
1.00049
1.00133
1.0027
1.00744
1.01482
1.04303
1.08145
1.25874
1.53187
2.55469
4.69405
6.25653
6.39257
1
1
1
1
1
1
1
1
1.00001
1.00003
1.00005
1.00015
1.0003
1.00082
1.00165
1.00453
1.0091
1.0256
1.0502
1.14975
1.303
1.89086
2.99205
5.59155
6.24436
1
1
1
1
1
1
1
1
1.00001
1.00001
1.00004
1.00008
1.00021
1.00043
1.00117
1.00237
1.00654
1.01304
1.03758
1.07217
1.22204
1.46603
2.31139
4.07426
5.85526
1
1
1
1
1
1
1
1
1
1.00001
1.00002
1.00005
1.00011
1.0003
1.00061
1.00167
1.00336
1.00931
1.01873
1.05257
1.10922
1.30587
1.6886
2.75425
4.97017
1
1
1
1
1
1
1
1
1
1.00001
1.00001
1.00003
1.00007
1.00018
1.00037
1.00099
1.002
1.00545
1.01089
1.03096
1.05839
1.18266
1.3542
2.04173
3.35626
1
1
1
1
1
1
1
1
1
1
1.00001
1.00002
1.00004
1.0001
1.00021
1.00057
1.00116
1.00316
1.00628
1.01797
1.03312
1.10764
1.19078
1.62971
2.32627
1
1
1
1
1
1
1
1
1
1
1
1.00001
1.00003
1.00005
1.00014
1.00029
1.00077
1.00157
1.00426
1.00852
1.02391
1.04626
1.13737
1.2779
1.77453
1
1
1
1
1
1
1
1
1
1
1
1.00001
1.00002
1.00003
1.00008
1.00017
1.00045
1.00091
1.00246
1.00496
1.01366
1.02692
1.07865
1.1505
1.45777
1
1
1
1
1
1
1
1
1
1
1
1
1.00001
1.00002
1.00004
1.00011
1.00022
1.00059
1.00119
1.00322
1.00638
1.01819
1.03363
1.1072
1.19374
1
1
1
1
1
1
1
1
1
1
1
1
1
1.00001
1.00002
1.00006
1.00012
1.00033
1.00068
1.00182
1.00367
1.00996
1.01996
1.05519
1.1132
1
1
1
1
1
1
1
1
1
1
1
1
1
1.00001
1.00001
1.00003
1.00007
1.00018
1.00037
1.001
1.00201
1.00543
1.01086
1.02995
1.06018
1
1
1
1
1
1
1
1
1
1
1
1
1
1
1.00001
1.00002
1.00004
1.00009
1.00023
1.00048
1.00127
1.00257
1.00694
1.01397
1.03825
1
1
1
1
1
1
1
1
1
1
1
1
1
1
1
1.00001
1.00002
1.00005
1.00013
1.00026
1.00069
1.0014
1.00373
1.00749
1.02034
1
1
1
1
1
1
1
1
1
1
1
1
1
1
1
1
1.00001
1.00003
1.00007
1.00014
1.00036
1.00074
1.00196
1.00395
1.01063
1
1
1
1
1
1
1
1
1
1
1
1
1
1
1
1
1.00001
1.00002
1.00003
1.00008
1.00017
1.00045
1.00091
1.00241
1.00484
1
1
1
1
1
1
1
1
1
1
1
1
1
1
1
1
1
1.00001
1.00002
1.00004
1.00009
1.00024
1.00049
1.00129
1.0026
1
1
1
1
1
1
1
1
1
1
1
1
1
1
1
1
1
1
1.00001
1.00002
1.00005
1.00013
1.00026
1.00068
1.00137
1
1
1
1
1
1
1
1
1
1
1
1
1
1
1
1
1
1
1.00001
1.00001
1.00003
1.00006
1.00016
1.00032
1.00086
1
1
1
1
1
1
1
1
1
1
1
1
1
1
1
1
1
1
1
1.00001
1.00002
1.00004
1.00009
1.00024
1.00049
1
1
1
1
1
1
1
1
1
1
1
1
1
1
1
1
1
1
1
1.00001
1.00001
1.00004
1.00007
1.0002
1.0004
3.06198
1.5447
1.03584
0.929758
0.955415
1.03424
1.20048
1.33541
1.37892
1.37755
1.37281
1.37303
1.37509
1.3806
1.39176
1.39986
1.40258
1.40243
1.40183
1.40048
1.39867
1.39726
1.39597
1.39439
1.39236
1.3901
1.38872
1.38893
1.39011
1.39392
1.40444
1.43046
1.4923
1.63566
1.96653
2.72293
3.6491
3.67762
3.68771
3.72277
3.79054
3.90141
4.04868
4.19707
4.32459
4.43246
4.52025
4.58271
4.61902
4.63859
4.64462
4.64298
4.63568
4.61911
4.59238
4.56114
4.52556
4.48732
4.44635
4.40345
4.35809
4.31078
4.2612
4.20992
4.15693
4.10288
4.04785
3.99232
3.93624
3.87992
3.8233
3.76658
3.70978
3.65307
3.59654
3.54036
3.48463
3.42948
3.37502
3.32127
3.26834
3.21617
3.16484
3.1142
3.06441
3.01534
2.96715
2.91965
2.87299
2.82693
2.78189
2.73753
2.69416
2.6513
2.60956
2.56873
2.52963
2.493
2.4612
2.4398
3.72381
2.30533
1.70355
1.45338
1.339
1.26895
1.25461
1.26267
1.28514
1.33143
1.37799
1.39797
1.39781
1.39674
1.39474
1.39507
1.39624
1.39875
1.40164
1.40168
1.40137
1.4004
1.39833
1.39523
1.39235
1.38988
1.38771
1.38789
1.38894
1.39218
1.40114
1.4227
1.4739
1.59325
1.8668
2.49098
3.59044
3.73416
3.7082
3.72415
3.78304
3.89434
4.0213
4.16293
4.29089
4.39986
4.48935
4.55395
4.59371
4.61641
4.62481
4.62425
4.62002
4.60821
4.58356
4.55048
4.51498
4.47789
4.43802
4.39567
4.35067
4.30358
4.25436
4.20346
4.15097
4.09735
4.04275
3.98753
3.93179
3.87569
3.81934
3.7628
3.70625
3.6497
3.5934
3.53735
3.48184
3.4268
3.37252
3.31885
3.26607
3.21393
3.16276
3.11225
3.06268
3.01366
2.96569
2.91832
2.87187
2.82605
2.78105
2.73652
2.69301
2.65015
2.6084
2.56752
2.52827
2.49119
2.45884
2.43579
4.56417
3.24431
2.42066
1.90248
1.57229
1.36786
1.25008
1.23661
1.24403
1.26564
1.31071
1.35375
1.38176
1.39519
1.39782
1.39751
1.39665
1.39597
1.39604
1.39617
1.3961
1.39584
1.39518
1.39378
1.39117
1.38837
1.38566
1.38481
1.38526
1.38735
1.39268
1.40876
1.44259
1.53226
1.72697
2.1983
3.23353
3.73125
3.81996
3.8663
3.92729
3.99834
4.08035
4.17424
4.26533
4.35671
4.44282
4.51149
4.55737
4.58468
4.59605
4.59591
4.59321
4.58485
4.56619
4.5345
4.49963
4.46324
4.42435
4.38286
4.33863
4.29216
4.24364
4.1934
4.14167
4.08872
4.03482
3.98011
3.9249
3.86917
3.81323
3.75699
3.7008
3.64453
3.58859
3.53282
3.47763
3.42286
3.36891
3.31551
3.26304
3.21102
3.1601
3.10973
3.06038
3.0116
2.96371
2.91631
2.86994
2.82405
2.77916
2.73472
2.69136
2.64852
2.60684
2.56585
2.52645
2.48894
2.45516
2.43105
5.0259
3.83372
2.95545
2.34568
1.93773
1.66401
1.49232
1.38535
1.32321
1.3071
1.31051
1.32193
1.34626
1.37486
1.39476
1.40543
1.40541
1.40477
1.40312
1.39996
1.39806
1.3971
1.3966
1.39591
1.3945
1.3919
1.38889
1.38583
1.38579
1.38661
1.3902
1.39871
1.42386
1.47642
1.61167
1.90078
2.56108
3.64412
4.05755
4.20127
4.24046
4.24215
4.23601
4.23179
4.24382
4.27913
4.34975
4.42312
4.4844
4.52668
4.54879
4.55388
4.55238
4.54704
4.53446
4.50898
4.47592
4.44022
4.40225
4.36192
4.31908
4.27396
4.22679
4.17773
4.12715
4.07517
4.02221
3.96828
3.91381
3.85868
3.80336
3.74762
3.69197
3.63615
3.58071
3.52534
3.47063
3.41623
3.36262
3.30958
3.25752
3.20601
3.1554
3.10526
3.05615
3.00747
2.95981
2.91256
2.86638
2.8206
2.77591
2.7316
2.6884
2.64561
2.60401
2.56301
2.52351
2.48567
2.45101
2.4256
5.30448
4.26142
3.41611
2.77749
2.31235
1.97452
1.72995
1.55511
1.43296
1.35577
1.31453
1.31382
1.31719
1.32695
1.3472
1.36781
1.38293
1.39248
1.39527
1.39494
1.39392
1.39176
1.38942
1.38757
1.38634
1.38546
1.38435
1.38247
1.38184
1.38233
1.38398
1.39068
1.40408
1.44301
1.52492
1.73017
2.18805
3.23448
4.27672
4.71912
4.70339
4.63688
4.48571
4.32926
4.24793
4.24695
4.25845
4.29373
4.36331
4.42665
4.47136
4.49452
4.49985
4.49808
4.49147
4.47616
4.4474
4.41354
4.37604
4.3362
4.29457
4.25108
4.20575
4.15843
4.10951
4.05892
4.0072
3.95423
3.90063
3.84622
3.7916
3.73649
3.6815
3.62626
3.5715
3.51668
3.46263
3.40886
3.35601
3.30338
3.25173
3.20048
3.15022
3.10032
3.05147
3.00299
2.95557
2.9085
2.86252
2.81689
2.77237
2.72819
2.68514
2.64247
2.60098
2.56002
2.52048
2.48243
2.44726
2.42049
5.4941
4.58909
3.80384
3.16885
2.67393
2.29415
2.00527
1.78741
1.62436
1.5064
1.42105
1.36605
1.33667
1.33366
1.33605
1.34326
1.35839
1.37556
1.38905
1.39788
1.40008
1.39967
1.39835
1.39552
1.39166
1.38841
1.38588
1.38367
1.38242
1.3827
1.38416
1.38811
1.3993
1.42462
1.48706
1.62901
1.96138
2.71108
4.28073
5.33238
5.28594
5.1213
4.79808
4.51958
4.33323
4.23836
4.21472
4.21745
4.23431
4.27591
4.33737
4.38556
4.41731
4.42996
4.42897
4.42356
4.40974
4.38171
4.34625
4.30642
4.26528
4.22298
4.17945
4.13417
4.08734
4.03863
3.98851
3.93681
3.88427
3.83072
3.7769
3.72249
3.66825
3.61357
3.55961
3.50577
3.45256
3.39946
3.34717
3.29504
3.24382
3.19287
3.14295
3.09333
3.04479
2.99655
2.9494
2.90256
2.85683
2.81141
2.76711
2.72315
2.6803
2.63784
2.59651
2.55569
2.5162
2.47805
2.44266
2.41483
5.62801
4.84048
4.123
3.51048
3.00747
2.60308
2.28171
2.0277
1.82758
1.67147
1.55014
1.46106
1.39517
1.35595
1.33528
1.33535
1.33741
1.34329
1.35545
1.36845
1.37861
1.38512
1.3872
1.38701
1.38628
1.38465
1.38186
1.37919
1.37775
1.37802
1.37963
1.38277
1.39435
1.41484
1.47301
1.58784
1.87501
2.49729
3.92165
5.81257
5.78407
5.61706
5.27767
4.88563
4.57628
4.36763
4.24077
4.1851
4.17493
4.17876
4.19627
4.236
4.28901
4.32605
4.34917
4.35173
4.34849
4.33783
4.3145
4.27764
4.23683
4.19441
4.15122
4.10701
4.06194
4.0152
3.96697
3.91692
3.86576
3.81335
3.76049
3.70696
3.65354
3.60018
3.5471
3.49407
3.44167
3.38927
3.33758
3.28597
3.23523
3.18469
3.13515
3.08587
3.03766
2.98973
2.94289
2.89633
2.85087
2.80572
2.76167
2.71795
2.67533
2.63308
2.59193
2.55127
2.51187
2.47368
2.4382
2.40958
5.7231
5.03061
4.37796
3.79784
3.30183
2.8875
2.54648
2.26793
2.04159
1.85876
1.71166
1.59502
1.50377
1.43591
1.38598
1.35694
1.34113
1.34123
1.34309
1.34825
1.35894
1.37085
1.38111
1.38816
1.38887
1.38841
1.38709
1.38433
1.38137
1.38157
1.38275
1.3882
1.39838
1.42863
1.48666
1.6288
1.91195
2.5222
3.61976
5.12196
5.73915
5.70105
5.54674
5.228
4.92219
4.62438
4.39794
4.25157
4.16439
4.13281
4.12758
4.13206
4.14874
4.18497
4.22716
4.25389
4.26652
4.26503
4.2581
4.2411
4.20696
4.16659
4.12294
4.07842
4.03378
3.98819
3.94155
3.89327
3.84381
3.79289
3.74128
3.68894
3.63677
3.5844
3.53241
3.48023
3.42859
3.37685
3.3258
3.27478
3.2246
3.17455
3.12547
3.07661
3.02879
2.98121
2.93472
2.88849
2.84334
2.79849
2.75473
2.71129
2.66893
2.62694
2.58602
2.54556
2.50634
2.46818
2.43275
2.40357
5.79216
5.17565
4.58155
4.03761
3.5576
3.14416
2.79371
2.49968
2.25436
2.05074
1.88211
1.74328
1.62984
1.53831
1.46624
1.41206
1.37316
1.3513
1.34061
1.34087
1.34265
1.34717
1.35635
1.36524
1.37218
1.37681
1.37921
1.37928
1.37947
1.38025
1.38357
1.39067
1.41172
1.45355
1.5547
1.75688
2.18481
2.91475
3.48713
4.11621
4.81204
5.3112
5.38436
5.32782
5.17232
4.88676
4.65899
4.44013
4.27382
4.16995
4.10822
4.08445
4.07696
4.08069
4.09398
4.12251
4.15383
4.17163
4.17438
4.17103
4.15981
4.13511
4.09564
4.05211
4.0068
3.96058
3.91415
3.86693
3.819
3.76973
3.7199
3.66927
3.61858
3.56739
3.5164
3.46509
3.41423
3.36321
3.31285
3.26246
3.2129
3.16341
3.11487
3.06648
3.01912
2.97197
2.92588
2.88003
2.83525
2.79075
2.74732
2.7042
2.66213
2.62041
2.57976
2.53952
2.50051
2.46243
2.4271
2.3975
5.84015
5.28728
4.74528
4.23762
3.77822
3.37256
3.02023
2.71779
2.4599
2.24124
2.0563
1.9005
1.76973
1.66076
1.57096
1.49806
1.44102
1.3978
1.36684
1.34964
1.34142
1.34172
1.34341
1.34757
1.356
1.36451
1.3717
1.3764
1.37913
1.38304
1.3909
1.40872
1.44533
1.52769
1.69563
2.04357
2.7139
3.20468
3.44127
3.6788
3.99509
4.40571
4.80265
5.04508
5.0318
4.97213
4.8378
4.62687
4.46512
4.31291
4.18146
4.09857
4.05131
4.02946
4.01647
4.01926
4.02916
4.05041
4.07166
4.08037
4.07892
4.0723
4.0561
4.0234
3.98127
3.93433
3.88679
3.83928
3.79193
3.74394
3.69579
3.64689
3.5978
3.54799
3.49819
3.44789
3.3979
3.34766
3.29802
3.2483
3.19938
3.1505
3.10254
3.05471
3.00787
2.9612
2.91557
2.87015
2.82579
2.78167
2.73862
2.69584
2.65413
2.61271
2.57238
2.53239
2.49365
2.45571
2.42056
2.39064
5.87571
5.37506
4.8785
4.40555
3.9689
3.57524
3.22629
2.92082
2.6555
2.42648
2.22938
2.06039
1.9157
1.79238
1.68766
1.59948
1.52631
1.46648
1.4198
1.38423
1.35914
1.34518
1.3392
1.33953
1.34114
1.34489
1.35247
1.36091
1.36996
1.38039
1.39698
1.43252
1.50188
1.65412
1.95537
2.56822
3.13135
3.34921
3.42916
3.50734
3.62172
3.7885
4.00415
4.31593
4.57598
4.74667
4.73678
4.69503
4.60369
4.4406
4.3193
4.20617
4.09723
4.0255
3.98596
3.96191
3.94654
3.94869
3.95576
3.97032
3.98356
3.98354
3.98054
3.97057
3.94856
3.9075
3.86088
3.81278
3.76493
3.717
3.66956
3.62186
3.57426
3.52597
3.47761
3.42857
3.37971
3.33044
3.28167
3.23273
3.18453
3.13632
3.08899
3.04177
2.9955
2.94939
2.90427
2.85935
2.81544
2.77177
2.72913
2.68674
2.6454
2.60432
2.56433
2.52462
2.48619
2.44842
2.41352
2.38335
5.90618
5.44351
4.98673
4.54662
4.13358
3.75477
3.41301
3.10877
2.84005
2.6045
2.39862
2.21948
2.06372
1.92874
1.81197
1.71141
1.62535
1.5524
1.49165
1.44189
1.40328
1.37365
1.35311
1.3413
1.33808
1.33889
1.34177
1.34834
1.36162
1.38133
1.41382
1.47895
1.61267
1.88332
2.43057
3.0682
3.33941
3.41188
3.42905
3.44138
3.45745
3.4907
3.56046
3.69655
3.88241
4.13009
4.34118
4.49156
4.49795
4.47582
4.41509
4.29405
4.18822
4.09748
4.01662
3.95022
3.9112
3.88834
3.87086
3.87209
3.87635
3.8838
3.88857
3.88698
3.88065
3.86486
3.83244
3.7875
3.73938
3.69069
3.64292
3.59553
3.54878
3.50168
3.45467
3.407
3.35943
3.31133
3.26359
3.21557
3.16818
3.12073
3.07408
3.02752
2.98184
2.93633
2.89174
2.84735
2.80393
2.76072
2.71852
2.67654
2.63561
2.59489
2.5553
2.5159
2.47785
2.44028
2.40568
2.37533
5.92989
5.50413
5.08012
4.66762
4.27697
3.91408
3.582
3.28193
3.01309
2.77396
2.56221
2.37535
2.21091
2.06637
1.93969
1.82873
1.73207
1.64802
1.57581
1.5141
1.46272
1.42051
1.38761
1.3633
1.34604
1.34217
1.34366
1.34865
1.36232
1.38872
1.4467
1.56052
1.79772
2.2718
2.95069
3.31562
3.42068
3.43182
3.42753
3.4128
3.37999
3.34617
3.35144
3.37486
3.43286
3.55093
3.71963
3.92912
4.11618
4.25138
4.29211
4.27928
4.24286
4.16504
4.06741
3.99286
3.92678
3.87167
3.83307
3.80751
3.79039
3.78859
3.78979
3.79252
3.79178
3.78776
3.77647
3.75165
3.7109
3.66451
3.61713
3.56954
3.52274
3.47598
3.42974
3.38316
3.33685
3.29006
3.24357
3.19671
3.15032
3.10378
3.05792
3.01208
2.96704
2.92214
2.87812
2.83427
2.79137
2.74866
2.70693
2.66541
2.62492
2.58461
2.54545
2.50633
2.46881
2.43136
2.39724
2.36676
5.95329
5.55445
5.15933
4.77419
4.40483
4.05753
3.73584
3.44142
3.1744
2.93389
2.71845
2.5261
2.3549
2.20275
2.06789
1.9483
1.84279
1.74953
1.66788
1.59639
1.5347
1.48204
1.43785
1.40255
1.375
1.36067
1.36204
1.36946
1.38564
1.43188
1.51864
1.71533
2.10281
2.78235
3.2508
3.4136
3.43942
3.43526
3.41931
3.38188
3.31817
3.26167
3.22228
3.21305
3.21975
3.243
3.29703
3.40524
3.5486
3.71905
3.88948
4.01668
4.09821
4.09626
4.08081
4.04372
3.96815
3.8933
3.8358
3.78817
3.75019
3.72241
3.70516
3.69914
3.69909
3.69835
3.69495
3.68561
3.66538
3.62901
3.58714
3.54189
3.49591
3.44947
3.4036
3.35764
3.31224
3.26659
3.22135
3.17576
3.13058
3.08514
3.04025
2.99526
2.95099
2.90674
2.86334
2.82005
2.77769
2.73548
2.69425
2.6532
2.61319
2.57333
2.53462
2.49591
2.45884
2.42157
2.38803
2.35749
5.98623
5.60659
5.23536
4.87221
4.52205
4.18945
3.87788
3.58964
3.32536
3.08486
2.86706
2.6709
2.49441
2.33626
2.19465
2.06793
1.95497
1.85399
1.76441
1.68476
1.61457
1.55322
1.49969
1.45579
1.41852
1.39948
1.40172
1.41093
1.44444
1.5089
1.66694
1.97555
2.60714
3.15181
3.38765
3.43916
3.43682
3.4232
3.38912
3.32275
3.25937
3.204
3.15715
3.12
3.09338
3.08741
3.09291
3.11151
3.15402
3.24019
3.36014
3.50458
3.65906
3.79544
3.89262
3.93885
3.93251
3.91152
3.87063
3.80838
3.74793
3.70064
3.66431
3.63494
3.61628
3.60883
3.60751
3.60412
3.59569
3.5775
3.54738
3.50936
3.46756
3.42304
3.3779
3.33222
3.28712
3.24197
3.19751
3.15291
3.10887
3.06458
3.02083
2.97685
2.93351
2.89005
2.84738
2.80472
2.76295
2.72128
2.68059
2.64004
2.60053
2.56116
2.52293
2.48468
2.44808
2.41117
2.37806
2.34752
6.03647
5.66441
5.30995
4.96494
4.63078
4.31081
4.00887
3.72704
3.46619
3.22696
3.00802
2.80941
2.62907
2.46614
2.31919
2.18644
2.06732
1.95971
1.86347
1.77682
1.69954
1.63101
1.56979
1.51987
1.47461
1.46171
1.46622
1.48772
1.53521
1.66664
1.91997
2.46256
3.05941
3.36237
3.44501
3.44239
3.42802
3.39193
3.32298
3.25938
3.2044
3.15487
3.10886
3.0658
3.02719
2.99366
2.96932
2.95717
2.9608
2.97394
3.00499
3.06883
3.16701
3.29135
3.43358
3.57638
3.692
3.77275
3.79845
3.79105
3.76998
3.72343
3.66645
3.61436
3.57328
3.54363
3.52432
3.51607
3.51057
3.50117
3.48545
3.46033
3.42883
3.39103
3.34993
3.30636
3.26226
3.21757
3.17347
3.12932
3.08594
3.04248
2.9997
2.95672
2.91438
2.87186
2.83005
2.78815
2.74708
2.70605
2.66595
2.62596
2.58698
2.54813
2.5104
2.47267
2.43652
2.40013
2.36733
2.33684
6.11545
5.73015
5.3829
5.05085
4.73061
4.42271
4.12957
3.85449
3.59746
3.36035
3.14162
2.9414
2.75877
2.59192
2.44095
2.30311
2.17882
2.06561
1.96354
1.87102
1.78763
1.71307
1.64646
1.59145
1.54708
1.54809
1.55774
1.60283
1.69113
1.92092
2.37418
3.01539
3.36607
3.47293
3.4704
3.45454
3.41226
3.3304
3.2603
3.20226
3.15297
3.10689
3.06279
3.01961
2.97741
2.9372
2.90012
2.86717
2.84281
2.82417
2.82637
2.83487
2.85556
2.89818
2.98015
3.08818
3.21876
3.36085
3.49807
3.60168
3.67257
3.67621
3.66654
3.64089
3.58867
3.53158
3.48651
3.45337
3.43111
3.41589
3.4038
3.38861
3.36976
3.34315
3.31142
3.27439
3.23445
3.19223
3.14942
3.10592
3.06293
3.01987
2.9776
2.93532
2.89379
2.85216
2.81124
2.77023
2.72998
2.68973
2.65032
2.61101
2.57262
2.53437
2.49716
2.46002
2.42428
2.38849
2.35599
2.32559
6.20061
5.80567
5.45669
5.13255
4.8218
4.52541
4.24134
3.97285
3.72044
3.48551
3.26817
3.06709
2.88301
2.7135
2.55898
2.41742
2.28837
2.17075
2.06341
1.96604
1.87754
1.79795
1.72916
1.66975
1.64879
1.65543
1.68522
1.76196
1.95207
2.34033
3.01808
3.42101
3.54308
3.5391
3.51827
3.46325
3.37607
3.29571
3.22666
3.16601
3.11143
3.06232
3.01782
2.97412
2.93142
2.88952
2.84857
2.80959
2.77293
2.74077
2.71437
2.69418
2.68987
2.69406
2.70788
2.73864
2.8018
2.89407
3.01216
3.15465
3.3021
3.43682
3.5314
3.5832
3.57564
3.55265
3.50675
3.45284
3.40577
3.3666
3.33755
3.31613
3.2978
3.27787
3.25559
3.22792
3.19601
3.16001
3.12146
3.0807
3.03931
2.99712
2.95534
2.91347
2.8724
2.83139
2.79118
2.75099
2.71157
2.67217
2.63356
2.59503
2.55735
2.51977
2.48318
2.44663
2.41141
2.37612
2.34409
2.31382
6.32834
5.90317
5.53622
5.21185
4.90732
4.61891
4.34428
4.08305
3.83599
3.60393
3.38806
3.18736
3.00197
2.83095
2.6734
2.52886
2.39592
2.27433
2.16277
2.06116
1.96851
1.8867
1.81562
1.77074
1.77416
1.79334
1.86696
2.01806
2.36778
3.05031
3.51572
3.66082
3.65546
3.62828
3.55913
3.45569
3.36247
3.28246
3.21263
3.14962
3.09091
3.03522
2.98277
2.93429
2.88939
2.84575
2.80319
2.76169
2.72157
2.68325
2.64726
2.6153
2.58719
2.56709
2.5543
2.55683
2.56609
2.5884
2.63305
2.71127
2.81891
2.95631
3.11044
3.26928
3.39551
3.48235
3.47657
3.459
3.42943
3.37163
3.32201
3.27936
3.24453
3.21712
3.19322
3.16927
3.14398
3.11531
3.08359
3.04847
3.01129
2.97195
2.93198
2.89117
2.85074
2.81023
2.77053
2.73094
2.6922
2.65356
2.61573
2.578
2.5411
2.50426
2.46839
2.43246
2.39788
2.36307
2.33158
2.3015
6.35547
6.00703
5.62368
5.29272
4.99396
4.71059
4.44071
4.18547
3.94415
3.71598
3.50201
3.30225
3.11637
2.94404
2.78451
2.63714
2.50129
2.37614
2.26117
2.15628
2.06081
1.98041
1.91174
1.91017
1.92461
1.98028
2.12417
2.44644
3.10254
3.6466
3.82729
3.82088
3.78827
3.70614
3.57316
3.4555
3.36052
3.28002
3.20925
3.14483
3.08311
3.0231
2.96525
2.90961
2.85765
2.80946
2.76368
2.7198
2.67742
2.63642
2.59708
2.55945
2.52439
2.49223
2.46404
2.44258
2.42509
2.42563
2.4307
2.44519
2.47689
2.54191
2.63929
2.769
2.92808
3.10433
3.25818
3.37319
3.37801
3.3672
3.33975
3.28363
3.23353
3.18894
3.15034
3.11847
3.09037
3.06314
3.03568
3.00615
2.97457
2.94015
2.90425
2.86622
2.82777
2.78847
2.74956
2.71057
2.6724
2.63434
2.59716
2.5601
2.52395
2.48783
2.45268
2.41744
2.38357
2.34924
2.31841
2.2886
6.3207
6.11501
5.72512
5.37866
5.07586
4.79832
4.53566
4.28494
4.04681
3.82186
3.61039
3.41183
3.22615
3.05294
2.89196
2.74247
2.60413
2.47631
2.35875
2.25162
2.15794
2.079
2.05471
2.06645
2.11477
2.24931
2.55324
3.18682
3.81826
4.03982
4.03298
3.99536
3.8988
3.74014
3.59921
3.48251
3.38456
3.29842
3.22074
3.14851
3.08169
3.01941
2.95795
2.89809
2.84018
2.78477
2.73331
2.68562
2.64004
2.5965
2.55472
2.51463
2.47617
2.43952
2.40524
2.37329
2.34555
2.32192
2.30439
2.29791
2.30095
2.3116
2.33603
2.38786
2.47441
2.59522
2.75799
2.94619
3.13228
3.26222
3.28023
3.27084
3.24453
3.19146
3.14147
3.09645
3.05578
3.02061
2.98944
2.95969
2.93069
2.90045
2.86911
2.83534
2.80065
2.76402
2.72711
2.68943
2.65217
2.6148
2.57823
2.54174
2.50618
2.47069
2.43619
2.40161
2.36843
2.33468
2.30448
2.27504
6.22745
6.1135
5.84783
5.48124
5.16445
4.88436
4.62485
4.3791
4.14575
3.9245
3.71472
3.51697
3.33135
3.15772
2.99555
2.84459
2.70435
2.57475
2.45566
2.35017
2.25952
2.21544
2.22394
2.26582
2.38539
2.67392
3.27948
4.01673
4.29072
4.28375
4.24173
4.13068
3.94765
3.78372
3.64759
3.53116
3.42839
3.33475
3.24861
3.16804
3.093
3.02208
2.9561
2.89423
2.83232
2.77263
2.71539
2.66133
2.611
2.56395
2.51929
2.47661
2.43575
2.39669
2.3593
2.32383
2.29034
2.2592
2.23164
2.20703
2.18969
2.17769
2.17969
2.18761
2.20682
2.24765
2.32334
2.43729
2.60283
2.80304
3.01178
3.14968
3.18038
3.17157
3.14632
3.09612
3.04752
3.00283
2.96099
2.92354
2.8903
2.85893
2.82899
2.79837
2.76732
2.73431
2.70075
2.66562
2.63026
2.59426
2.55868
2.52294
2.488
2.45307
2.41916
2.38512
2.35258
2.31932
2.28983
2.26079
6.12528
6.07594
5.91836
5.5943
5.26235
4.97295
4.7126
4.47032
4.24075
4.02208
3.81458
3.6184
3.43306
3.25908
3.09618
2.94406
2.80282
2.67229
2.55511
2.45375
2.39027
2.39588
2.43181
2.54099
2.81801
3.40234
4.24658
4.57614
4.56945
4.52308
4.3961
4.18815
4.00196
3.84608
3.7126
3.59324
3.48427
3.38281
3.28829
3.19935
3.11616
3.03755
2.96414
2.89435
2.82995
2.76787
2.70709
2.64846
2.59258
2.54039
2.49188
2.44583
2.40218
2.36064
2.32103
2.2832
2.24708
2.21283
2.18033
2.15027
2.1229
2.0985
2.08071
2.0656
2.06687
2.07267
2.0877
2.12086
2.18825
2.29778
2.46551
2.67544
2.90383
3.03965
3.07992
3.07171
3.04735
2.99951
2.95274
2.90805
2.86566
2.82722
2.79303
2.76088
2.73053
2.69988
2.66927
2.63718
2.6048
2.57114
2.53736
2.503
2.46909
2.43494
2.4017
2.3682
2.33629
2.30342
2.27462
2.24593
5.91004
5.9776
5.90508
5.71623
5.37625
5.0723
4.80621
4.56264
4.33345
4.11608
3.91004
3.71517
3.53112
3.35748
3.19426
3.0418
2.90046
2.7717
2.66089
2.57811
2.5809
2.61038
2.71172
2.96733
3.51831
4.49161
4.88883
4.8823
4.83219
4.69069
4.45684
4.24693
4.07191
3.92113
3.78651
3.66236
3.54682
3.43798
3.33581
3.23922
3.14853
3.06272
2.98222
2.90598
2.83461
2.76707
2.70438
2.64288
2.58373
2.52686
2.473
2.4228
2.37587
2.33146
2.28928
2.24915
2.21093
2.1745
2.13979
2.10686
2.07557
2.04663
2.01974
1.99608
1.97754
1.96169
1.96138
1.96511
1.97803
2.00689
2.06905
2.17604
2.34269
2.55957
2.80535
2.93399
2.97871
2.97074
2.94747
2.90198
2.85683
2.81286
2.7708
2.73234
2.69796
2.66569
2.63532
2.60505
2.57502
2.54404
2.51276
2.48056
2.44839
2.41561
2.38344
2.35076
2.31959
2.28722
2.25906
2.23071
5.39662
5.85803
5.84305
5.7409
5.50849
5.18638
4.90319
4.65302
4.42343
4.20799
4.00323
3.80912
3.62579
3.45301
3.29055
3.13904
2.99937
2.87966
2.7794
2.77866
2.80407
2.89823
3.1478
3.68384
4.73966
5.21668
5.21255
5.16151
5.01093
4.75015
4.51612
4.32066
4.15313
4.0028
3.86448
3.73467
3.61261
3.49693
3.38788
3.28446
3.1871
3.09478
3.00797
2.92563
2.84829
2.77502
2.70617
2.6414
2.58055
2.52062
2.46333
2.4086
2.3574
2.30957
2.26433
2.22151
2.18089
2.14231
2.10564
2.07072
2.03751
2.00596
1.976
1.94821
1.92212
1.8993
1.88044
1.86489
1.86267
1.86574
1.87738
1.90388
1.96175
2.07061
2.23844
2.4526
2.71076
2.83047
2.87615
2.86885
2.84726
2.80474
2.76137
2.71871
2.6776
2.63974
2.60568
2.57372
2.54367
2.514
2.48471
2.45478
2.42483
2.39404
2.36355
2.33221
2.30214
2.27068
2.24319
2.2153
4.27862
5.56258
5.75503
5.71255
5.57973
5.30374
5.00594
4.74545
4.51255
4.29695
4.09427
3.90221
3.71935
3.54695
3.38633
3.23744
3.10707
2.99809
2.98301
3.00756
3.10186
3.35353
3.90531
5.01776
5.57047
5.57483
5.52308
5.35683
5.0671
4.80707
4.59111
4.40573
4.24006
4.08686
3.94349
3.80772
3.67942
3.55747
3.44226
3.33282
3.22958
3.13152
3.03911
2.95129
2.86862
2.79007
2.71621
2.64625
2.58033
2.51862
2.45926
2.40181
2.34691
2.29487
2.24631
2.20055
2.15727
2.1163
2.07744
2.04056
2.00551
1.97214
1.94042
1.91027
1.88164
1.85503
1.82992
1.80795
1.78934
1.77423
1.77107
1.77404
1.78525
1.81073
1.86763
1.97895
2.14987
2.3659
2.62057
2.73192
2.77596
2.76911
2.74889
2.70903
2.66771
2.62658
2.58683
2.54995
2.51659
2.48524
2.45584
2.42691
2.39862
2.36981
2.34131
2.31184
2.28332
2.25331
2.22669
2.19971
2.72615
4.87922
5.57598
5.63086
5.56946
5.41383
5.1188
4.84567
4.60574
4.38808
4.18521
3.99392
3.81339
3.64347
3.48449
3.3446
3.22699
3.19954
3.22326
3.31884
3.57693
4.15595
5.32997
5.95708
5.97711
5.91802
5.72996
5.40832
5.12115
4.8827
4.67917
4.49687
4.32894
4.17103
4.02197
3.88023
3.746
3.6183
3.49751
3.38271
3.27424
3.17112
3.07372
2.98108
2.89366
2.81047
2.73208
2.65751
2.58737
2.5208
2.45831
2.39943
2.34206
2.28707
2.23481
2.18589
2.13981
2.09623
2.05499
2.01591
1.97886
1.94368
1.91026
1.87847
1.84825
1.81957
1.79227
1.76694
1.74295
1.72186
1.704
1.68933
1.68638
1.68938
1.70063
1.7267
1.78453
1.89633
2.06823
2.29436
2.53705
2.63743
2.67885
2.67231
2.65324