/*--------------------------------*- C++ -*----------------------------------*\
| =========                 |                                                 |
| \\      /  F ield         | OpenFOAM: The Open Source CFD Toolbox           |
|  \\    /   O peration     | Version:  2112                                  |
|   \\  /    A nd           | Website:  www.openfoam.com                      |
|    \\/     M anipulation  |                                                 |
\*---------------------------------------------------------------------------*/
FoamFile
{
    version     2.0;
    format      ascii;
    arch        "LSB;label=32;scalar=64";
    class       surfaceScalarField;
    location    "2.5";
    object      phi;
}
// * * * * * * * * * * * * * * * * * * * * * * * * * * * * * * * * * * * * * //

dimensions      [1 0 -1 0 0 0 0];

oriented        oriented;

internalField   nonuniform List<scalar> 
10325
(
0.00840003
4.01253e-11
0.00840003
3.15428e-10
0.00840003
9.67835e-10
0.00840002
2.96913e-09
0.00840001
6.9579e-09
0.00839998
1.98843e-08
0.00839992
4.01652e-08
0.00839967
1.38753e-07
0.00839939
2.28958e-07
0.00839759
1.01475e-06
0.00839522
1.94059e-06
0.00838339
7.77145e-06
0.00835699
2.11847e-05
0.00824998
8.69008e-05
0.00777657
0.000401135
0.00714057
0.000670708
0.00655637
0.000600007
0.00593626
0.000625569
0.00527334
0.000667819
0.00455013
0.00073025
0.00375526
0.000798688
0.00289583
0.000861357
0.00198639
0.000912918
0.00102526
0.000965543
0.00102617
0.00840003
8.22851e-11
0.00840003
6.35935e-10
0.00840003
1.94511e-09
0.00840002
5.89705e-09
0.00840001
1.37538e-08
0.00839998
3.87537e-08
0.00839993
7.76775e-08
0.00839969
2.69279e-07
0.00839949
4.09383e-07
0.0083978
1.97628e-06
0.00839579
3.59589e-06
0.00838548
1.44333e-05
0.00836104
4.06565e-05
0.00827295
0.000158318
0.00792153
0.000690676
0.00728835
0.00133089
0.00664838
0.00124999
0.00600045
0.0012772
0.00532113
0.00135165
0.00458055
0.00147726
0.00377038
0.00161204
0.00289975
0.0017336
0.0019745
0.0018415
0.00100042
0.00194399
0.00202743
0.00840003
1.16531e-10
0.00840003
9.09132e-10
0.00840003
2.78953e-09
0.00840002
8.46994e-09
0.00840001
2.00213e-08
0.00839999
5.43635e-08
0.00839993
1.20276e-07
0.00839977
3.45763e-07
0.00839947
6.6615e-07
0.00839846
2.42538e-06
0.00839683
4.7202e-06
0.00839052
1.80947e-05
0.00837453
5.01376e-05
0.00835013
0.000191299
0.00818303
0.000785262
0.00747987
0.00204922
0.00676143
0.00197363
0.00608705
0.00195417
0.00539938
0.00204358
0.0046561
0.00222612
0.0038378
0.00243317
0.00295593
0.0026168
0.00201464
0.00278591
0.00101964
0.00294306
0.00304759
0.00840003
1.47912e-10
0.00840003
1.14577e-09
0.00840003
3.50649e-09
0.00840002
1.05957e-08
0.00840002
2.49905e-08
0.0084
6.73098e-08
0.00839996
1.48807e-07
0.00839983
4.15599e-07
0.0083996
8.37102e-07
0.00839874
2.85359e-06
0.00839801
5.38195e-06
0.00839279
2.11319e-05
0.00838391
5.61478e-05
0.00836179
0.000213169
0.00827409
0.000835857
0.00758748
0.00272215
0.00686387
0.00269667
0.00618903
0.00263263
0.0055191
0.00271746
0.0047824
0.00296871
0.00396472
0.00325236
0.00306832
0.00351319
0.0021027
0.00375399
0.00107058
0.00397897
0.0041186
0.00840003
1.63501e-10
0.00840003
1.27185e-09
0.00840003
3.92148e-09
0.00840003
1.18369e-08
0.00840002
2.79947e-08
0.0084
7.50571e-08
0.00839998
1.66757e-07
0.00839987
4.60711e-07
0.0083997
9.43561e-07
0.00839917
3.09896e-06
0.0083976
6.05914e-06
0.00839605
2.15504e-05
0.00838242
6.45382e-05
0.008399
0.00019544
0.00829276
0.000907131
0.00770409
0.00328922
0.00697196
0.00342719
0.00631822
0.00328948
0.00567746
0.0033603
0.00494864
0.0036993
0.00413157
0.00407004
0.00323344
0.00441072
0.00224075
0.0047489
0.00115509
0.00506882
0.00527426
0.00840003
1.89282e-10
0.00840003
1.46651e-09
0.00840003
4.5331e-09
0.00840003
1.36166e-08
0.00840002
3.21022e-08
0.0084
8.52888e-08
0.00839997
1.88742e-07
0.00839988
5.15754e-07
0.00839975
1.02954e-06
0.00839908
3.49626e-06
0.00839887
6.16721e-06
0.00839429
2.48778e-05
0.00839091
6.54784e-05
0.00836721
0.00021547
0.00832517
0.000923692
0.0077846
0.00380168
0.00703892
0.00416621
0.00647585
0.00385646
0.00587195
0.00396872
0.00516545
0.00440854
0.00435386
0.00488096
0.00344182
0.0053224
0.0024257
0.00576609
0.00127203
0.00622488
0.00654675
0.00840003
2.38879e-10
0.00840003
1.84912e-09
0.00840003
5.69552e-09
0.00840002
1.71214e-08
0.00840001
4.04186e-08
0.00839999
1.07169e-07
0.00839993
2.39226e-07
0.00839978
6.32773e-07
0.00839942
1.34889e-06
0.00839872
3.95801e-06
0.00839683
7.95128e-06
0.00839354
2.70386e-05
0.00838715
6.96599e-05
0.00834912
0.000250371
0.00833997
0.000911429
0.00780766
0.00430756
0.00738884
0.00457569
0.00674613
0.0045051
0.00603666
0.00467949
0.00539078
0.0050567
0.00462008
0.00564866
0.0037205
0.00622041
0.00267643
0.00681335
0.00145728
0.00744896
0.00800483
0.00840003
2.95042e-10
0.00840003
2.28566e-09
0.00840003
7.07859e-09
0.00840002
2.12112e-08
0.00840001
5.02844e-08
0.00839998
1.32332e-07
0.00839992
2.97001e-07
0.00839974
7.69665e-07
0.00839938
1.67872e-06
0.00839849
4.62342e-06
0.00839666
9.64165e-06
0.00839255
3.00102e-05
0.00838535
7.54454e-05
0.00836124
0.000270428
0.00836003
0.000897435
0.00796945
0.00466566
0.00748012
0.00506465
0.00693937
0.00504755
0.00631555
0.0053031
0.00565392
0.00571825
0.00493522
0.0063667
0.00407293
0.00708058
0.00303357
0.00785353
0.00173627
0.00874923
0.00974184
0.00840003
3.21316e-10
0.00840003
3.01809e-09
0.00840003
9.10335e-09
0.00840002
2.77246e-08
0.0084
6.52381e-08
0.00839995
1.74822e-07
0.00839986
3.85435e-07
0.00839957
1.01657e-06
0.00839906
2.15824e-06
0.00839777
5.70066e-06
0.0083958
1.14041e-05
0.0083889
3.57846e-05
0.00838839
7.46305e-05
0.0083559
0.000298189
0.00835826
0.000883038
0.00812516
0.00486491
0.00762517
0.00556543
0.00712579
0.00554787
0.00658523
0.00584252
0.00599665
0.00630627
0.00532812
0.00703482
0.00453712
0.00787023
0.00358425
0.00880754
0.0022529
0.0100835
0.0119958
0.00840003
1.35603e-10
0.00840003
4.28642e-09
0.00840003
6.46878e-09
0.00840002
3.70904e-08
0.00840004
4.65785e-08
0.00839997
2.38712e-07
0.0084001
2.49464e-07
0.00839959
1.4914e-06
0.0084006
1.11324e-06
0.00839688
9.20345e-06
0.00840346
4.66283e-06
0.00837739
6.06351e-05
0.00841672
3.428e-05
0.00828279
0.000427359
0.00838227
0.000772769
0.00825656
0.00495434
0.00779986
0.0060247
0.00734207
0.0060079
0.00689311
0.00629028
0.00636027
0.00683826
0.00582808
0.00756713
0.00522348
0.00847582
0.00436376
0.00966976
0.00308441
0.0113672
0.0150815
0.00840003
4.94871e-10
0.00840003
7.58413e-10
0.00840003
7.36764e-09
0.00840006
8.29305e-09
0.00840005
5.24072e-08
0.00840024
4.96065e-08
0.00840013
3.49304e-07
0.00840136
2.5467e-07
0.0083999
2.47727e-06
0.00840753
1.54645e-06
0.00839398
1.76845e-05
0.00844283
1.1374e-05
0.00834207
0.000132536
0.0086004
0.000165987
0.00829208
0.00106986
0.00853594
0.00466949
0.00808341
0.00648358
0.00760678
0.00648857
0.00721355
0.0066846
0.00682639
0.00722581
0.00643443
0.00795823
0.00601575
0.00889308
0.00564894
0.0100351
0.00570635
0.0113103
0.012052
0.00873754
0.00840003
2.73547e-10
0.00840003
1.49262e-09
0.00840003
5.09682e-09
0.00840002
1.41911e-08
0.00840004
3.59378e-08
0.0084
8.83988e-08
0.00840012
2.19989e-07
0.00839981
5.24839e-07
0.00840093
1.33004e-06
0.00839858
3.67348e-06
0.00840771
8.40381e-06
0.00838951
2.83639e-05
0.00845318
6.75916e-05
0.0083335
0.000280889
0.00862514
0.000770059
0.00912191
0.00412875
0.00857567
0.00703792
0.00799006
0.00708007
0.00759568
0.00707946
0.00728479
0.00753761
0.00701212
0.00823267
0.00680187
0.009106
0.0067757
0.0100633
0.00727769
0.0108096
0.0108887
0.00844173
0.00840003
2.47035e-10
0.00840003
1.92481e-09
0.00840003
5.90338e-09
0.00840002
1.7902e-08
0.00840002
4.24272e-08
0.00839999
1.13912e-07
0.00839994
2.5709e-07
0.00839976
6.79081e-07
0.00839954
1.51417e-06
0.00839893
4.08823e-06
0.00839803
9.08599e-06
0.00839902
2.62255e-05
0.00840244
6.30975e-05
0.00846573
0.000212758
0.00862406
0.000604204
0.00998601
0.00271984
0.00935241
0.00768005
0.00859189
0.00784868
0.00811246
0.00756378
0.00779747
0.00785429
0.0075934
0.00843803
0.00754268
0.00915753
0.0077424
0.00986613
0.00830684
0.0102474
0.0101176
0.00907868
0.00840003
2.58291e-10
0.00840003
2.00846e-09
0.00840003
6.10681e-09
0.00840003
1.85412e-08
0.00840003
4.38848e-08
0.00840002
1.1798e-07
0.0084
2.6686e-07
0.00839996
6.94271e-07
0.00839983
1.60725e-06
0.00839989
3.86566e-06
0.00839886
9.93283e-06
0.00840263
2.15888e-05
0.00840347
6.09866e-05
0.00845018
0.000161446
0.00854725
0.00051264
0.00926258
0.00198165
0.00947916
0.00745256
0.00920952
0.00812053
0.00861579
0.00816032
0.00829713
0.00817493
0.00816649
0.0085697
0.00823191
0.00909205
0.00849347
0.00960402
0.00895066
0.0097907
0.00953221
0.00953846
0.00840003
1.99951e-10
0.00840003
1.55737e-09
0.00840003
4.83018e-09
0.00840003
1.45361e-08
0.00840004
3.45319e-08
0.00840006
9.13999e-08
0.00840012
2.05912e-07
0.00840024
5.37527e-07
0.00840066
1.16921e-06
0.00840116
3.23958e-06
0.00840416
6.65386e-06
0.00840444
2.07368e-05
0.00842047
4.32568e-05
0.00842967
0.000149456
0.00852164
0.000415588
0.00882275
0.00166842
0.00942181
0.00681923
0.00924538
0.00829347
0.00895106
0.00845353
0.00871925
0.00840807
0.0086431
0.00864642
0.00873623
0.00899891
0.00900901
0.00932904
0.00940559
0.00939191
0.00907681
0.00986046
0.00840003
1.75455e-10
0.00840003
1.35897e-09
0.00840003
4.18351e-09
0.00840003
1.25805e-08
0.00840004
2.97665e-08
0.00840005
7.88152e-08
0.00840007
1.7665e-07
0.00840013
4.62461e-07
0.00840029
9.93398e-07
0.00840063
2.8094e-06
0.00840173
5.50046e-06
0.00840361
1.82905e-05
0.00840991
3.66497e-05
0.00842465
0.000132316
0.00848924
0.00034795
0.00874506
0.00140277
0.00966163
0.00586563
0.00952867
0.00842744
0.00928455
0.0086979
0.00909935
0.0085934
0.00907064
0.00867688
0.00917391
0.00889765
0.00940566
0.00910203
0.00972279
0.0090748
0.00873276
0.0100661
0.00840003
1.52982e-10
0.00840003
1.18655e-09
0.00840003
3.66617e-09
0.00840003
1.10201e-08
0.00840004
2.61336e-08
0.00840004
6.91212e-08
0.00840006
1.55195e-07
0.00840011
4.03217e-07
0.0084002
8.864e-07
0.00840053
2.40317e-06
0.00840105
4.90638e-06
0.00840293
1.59477e-05
0.00840935
2.9854e-05
0.00842491
0.000114476
0.00848147
0.000288536
0.00875084
0.00112429
0.0105195
0.0040606
0.0101017
0.0088459
0.00987005
0.00893166
0.00955918
0.00890627
0.00947319
0.00876311
0.00955868
0.00881153
0.00976537
0.0088966
0.0100178
0.00882556
0.00848627
0.0102654
0.00840003
1.32379e-10
0.00840003
1.07759e-09
0.00840003
3.32296e-09
0.00840003
9.94631e-09
0.00840003
2.37463e-08
0.00840004
6.25344e-08
0.00840005
1.42293e-07
0.00840008
3.65291e-07
0.00840014
8.21555e-07
0.00840039
2.10023e-06
0.0084005
4.72904e-06
0.0084038
1.23311e-05
0.00840593
2.75332e-05
0.00843964
7.9401e-05
0.00851577
0.000209034
0.00893486
0.00070238
0.0106504
0.00231665
0.0109308
0.00855
0.0105796
0.00928436
0.0101805
0.00930736
0.00992763
0.00901953
0.00990058
0.00883839
0.0100392
0.00875855
0.0102382
0.00862784
0.00829913
0.0104271
0.00840003
5.24049e-11
0.00840003
1.07769e-09
0.00840003
2.07367e-09
0.00840003
9.45548e-09
0.00840004
1.52658e-08
0.00840004
5.88679e-08
0.00840009
9.16457e-08
0.0084001
3.44158e-07
0.0084004
5.17248e-07
0.00840041
2.04986e-06
0.00840243
2.66871e-06
0.00840144
1.30612e-05
0.00841582
1.29192e-05
0.00840663
8.73074e-05
0.00851767
9.6185e-05
0.00856336
0.000651988
0.00931121
0.00155368
0.0108611
0.00696169
0.0108533
0.00928888
0.0106324
0.00952758
0.0103705
0.00928343
0.0102888
0.00892331
0.0103375
0.0087114
0.0104645
0.00850207
0.00817281
0.0105918
0.00840003
9.12867e-11
0.00840003
5.36655e-10
0.00840003
1.94957e-09
0.00840003
5.11782e-09
0.00840004
1.37491e-08
0.00840006
3.19202e-08
0.00840007
8.07811e-08
0.00840023
1.82239e-07
0.00840026
4.69292e-07
0.0084013
1.00227e-06
0.00840093
2.94985e-06
0.00840834
5.60102e-06
0.00840138
1.93693e-05
0.0084511
3.71964e-05
0.00840859
0.000136285
0.00871667
0.00034079
0.00889185
0.00137101
0.0110875
0.0047289
0.0111479
0.00922276
0.0110837
0.00959009
0.0108603
0.00950845
0.0106635
0.00912527
0.0106128
0.00876588
0.0106617
0.00845587
0.00809573
0.0107398
0.00840003
1.14145e-10
0.00840003
3.43145e-10
0.00840003
1.95733e-09
0.00840003
3.49052e-09
0.00840003
1.35537e-08
0.00840004
2.2255e-08
0.00840004
8.03106e-08
0.00840009
1.29161e-07
0.00840009
4.63683e-07
0.00840035
7.2359e-07
0.00840051
2.73927e-06
0.00840217
3.86935e-06
0.008404
1.72488e-05
0.00841955
2.10367e-05
0.00844069
0.000113812
0.0085992
0.000179439
0.00910991
0.000854062
0.0112085
0.0026096
0.0118178
0.0085984
0.011671
0.00973636
0.0113782
0.00980295
0.0111074
0.00940035
0.0109658
0.00891054
0.0109118
0.00851205
0.00810052
0.0109081
0.00840003
3.71133e-11
0.00840003
4.08794e-10
0.00840003
9.31207e-10
0.00840003
3.68962e-09
0.00840004
6.72424e-09
0.00840004
2.2991e-08
0.00840008
4.00711e-08
0.00840007
1.33036e-07
0.0084003
2.28838e-07
0.00840024
7.66318e-07
0.00840167
1.2811e-06
0.00840083
4.59947e-06
0.00841081
7.11855e-06
0.0084017
2.9598e-05
0.00846989
4.45421e-05
0.00844088
0.000206249
0.00885871
0.000431706
0.00965281
0.00180557
0.0115949
0.00661965
0.011819
0.00951127
0.0117383
0.00988433
0.011442
0.00970179
0.011301
0.00905907
0.0112084
0.00860896
0.00817191
0.0111391
0.00840003
5.65449e-11
0.00840003
1.96153e-10
0.00840003
1.03383e-09
0.00840003
1.96435e-09
0.00840003
7.22e-09
0.00840004
1.25437e-08
0.00840004
4.2926e-08
0.0084001
7.32821e-08
0.00840007
2.47326e-07
0.00840041
4.21174e-07
0.00840024
1.42177e-06
0.00840238
2.42936e-06
0.00840083
8.46238e-06
0.00841637
1.39031e-05
0.00840358
5.62118e-05
0.00851908
8.96047e-05
0.0085138
0.00043237
0.00928678
0.00102599
0.0118327
0.00403309
0.0120906
0.00924439
0.0121077
0.00986871
0.0119454
0.00986583
0.0115886
0.009421
0.0114661
0.00873601
0.00826001
0.0113809
0.00840003
2.83767e-11
0.00840003
1.88669e-10
0.00840003
5.98489e-10
0.00840003
1.77621e-09
0.00840003
4.26766e-09
0.00840003
1.1181e-08
0.00840005
2.54347e-08
0.00840006
6.48899e-08
0.00840016
1.45819e-07
0.0084002
3.70664e-07
0.00840078
8.30965e-07
0.00840101
2.13717e-06
0.00840468
4.74141e-06
0.00840542
1.28607e-05
0.00843329
2.79912e-05
0.00843693
8.44615e-05
0.0086659
0.000201045
0.00897423
0.000712413
0.0108276
0.00216362
0.0123688
0.00768062
0.012448
0.00978985
0.0122758
0.0100394
0.0118884
0.00981206
0.0117169
0.00891133
0.00840158
0.0115782
0.00840003
1.86948e-11
0.00840003
1.47607e-10
0.00840003
4.57814e-10
0.00840003
1.3634e-09
0.00840003
3.25993e-09
0.00840003
8.52307e-09
0.00840004
1.93815e-08
0.00840005
4.92828e-08
0.00840009
1.10825e-07
0.00840017
2.80148e-07
0.00840037
6.27422e-07
0.00840088
1.59229e-06
0.00840206
3.53575e-06
0.00840538
9.35007e-06
0.00841369
1.96286e-05
0.00843561
6.12769e-05
0.00851215
0.000124134
0.00873112
0.000489464
0.00956
0.00132767
0.0120277
0.0051805
0.0124848
0.00932748
0.0126169
0.00990976
0.0125485
0.00988378
0.0120845
0.00937823
0.00865276
0.0118354
0.00840003
8.41701e-12
0.00840003
1.27557e-10
0.00840003
2.7876e-10
0.00840003
1.13009e-09
0.00840003
2.03237e-09
0.00840003
6.99658e-09
0.00840004
1.21569e-08
0.00840005
4.03361e-08
0.00840009
6.96294e-08
0.00840014
2.29459e-07
0.00840036
3.94308e-07
0.00840063
1.30782e-06
0.00840193
2.20911e-06
0.00840352
7.63897e-06
0.00841091
1.21311e-05
0.00842444
4.70704e-05
0.0084741
7.3775e-05
0.00864248
0.000318388
0.00925909
0.000707195
0.0117771
0.00265054
0.0128004
0.00828631
0.0128513
0.0098585
0.0127331
0.0100027
0.0123599
0.00975319
0.0088892
0.0121249
0.00840003
1.06691e-11
0.00840003
6.44292e-11
0.00840003
2.35427e-10
0.00840003
6.12249e-10
0.00840003
1.66447e-09
0.00840003
3.83384e-09
0.00840004
9.81654e-09
0.00840005
2.20362e-08
0.00840007
5.56263e-08
0.00840017
1.24082e-07
0.00840025
3.1249e-07
0.00840085
6.95374e-07
0.00840125
1.77648e-06
0.008405
3.85861e-06
0.00840625
1.06677e-05
0.0084315
2.16657e-05
0.00843435
6.97929e-05
0.00860734
0.00014425
0.00874956
0.000560738
0.00986508
0.00152741
0.0125498
0.00556404
0.0129606
0.00943892
0.0130723
0.00989069
0.0129512
0.00987507
0.00933751
0.0125041
0.00840003
8.31058e-12
0.00840003
4.50072e-11
0.00840003
1.65489e-10
0.00840003
4.28282e-10
0.00840003
1.16157e-09
0.00840003
2.68071e-09
0.00840003
6.83653e-09
0.00840004
1.53858e-08
0.00840006
3.86993e-08
0.00840009
8.65243e-08
0.00840019
2.17129e-07
0.00840039
4.83927e-07
0.00840093
1.21935e-06
0.00840206
2.70565e-06
0.00840565
6.94126e-06
0.00841179
1.5419e-05
0.00843967
4.11746e-05
0.00848405
9.92185e-05
0.00875039
0.000291546
0.00943486
0.000837905
0.0120929
0.00289592
0.0132375
0.00827379
0.0133033
0.00982164
0.0132437
0.00993263
0.00970667
0.0128731
0.00840003
7.33828e-12
0.00840003
2.50732e-11
0.00840003
1.28111e-10
0.00840003
2.52979e-10
0.00840003
8.86034e-10
0.00840003
1.60257e-09
0.00840003
5.19184e-09
0.00840004
9.23249e-09
0.00840005
2.93555e-08
0.00840008
5.20041e-08
0.00840013
1.64801e-07
0.00840032
2.90852e-07
0.0084006
9.25909e-07
0.00840166
1.62127e-06
0.00840324
5.26766e-06
0.00840955
9.00372e-06
0.00841888
3.13968e-05
0.00846443
5.26483e-05
0.00854939
0.00020448
0.00892544
0.000456877
0.0101091
0.00170718
0.0128166
0.00553034
0.0133512
0.00927839
0.0135411
0.00974072
0.00985033
0.0133965
0.00840003
3.13674e-12
0.00840003
2.14206e-11
0.00840003
6.74147e-11
0.00840003
2.00406e-10
0.00840003
4.77869e-10
0.00840003
1.24895e-09
0.00840003
2.81562e-09
0.00840004
7.14866e-09
0.00840005
1.59083e-08
0.00840006
4.01308e-08
0.00840013
8.89695e-08
0.0084002
2.24399e-07
0.00840062
4.96665e-07
0.00840096
1.25833e-06
0.00840342
2.78165e-06
0.00840514
7.13748e-06
0.00842045
1.60079e-05
0.00843067
4.16233e-05
0.00853306
0.000101592
0.00870473
0.000282332
0.00956252
0.000842633
0.0122831
0.00279873
0.0135637
0.00797694
0.0136342
0.00966481
0.00975266
0.0137272
0.00840003
1.86387e-12
0.00840003
1.44914e-11
0.00840003
4.51106e-11
0.00840003
1.3394e-10
0.00840003
3.1982e-10
0.00840003
8.30739e-10
0.00840003
1.88145e-09
0.00840003
4.74436e-09
0.00840004
1.06161e-08
0.00840005
2.65836e-08
0.00840008
5.92889e-08
0.00840015
1.48289e-07
0.00840032
3.29998e-07
0.00840073
8.27425e-07
0.00840166
1.8365e-06
0.00840403
4.66254e-06
0.00840969
1.02337e-05
0.00842331
2.75172e-05
0.00846481
5.88385e-05
0.00856425
0.000181033
0.00894018
0.000460849
0.009991
0.00174248
0.0130283
0.00490246
0.0136857
0.00899967
0.00961112
0.0138255
0.00840003
8.90034e-13
0.00840003
1.07967e-11
0.00840003
2.57553e-11
0.00840003
9.62891e-11
0.00840003
1.85335e-10
0.00840003
5.91374e-10
0.00840003
1.09258e-09
0.00840003
3.35886e-09
0.00840004
6.15551e-09
0.00840004
1.87355e-08
0.00840007
3.42803e-08
0.00840011
1.04048e-07
0.00840025
1.90016e-07
0.00840049
5.77609e-07
0.00840126
1.04967e-06
0.00840264
3.22379e-06
0.00840702
5.77081e-06
0.0084157
1.85417e-05
0.00844175
3.20312e-05
0.00850659
0.00011487
0.00873867
0.000225189
0.00962348
0.000852074
0.0120198
0.002486
0.0138538
0.00714642
0.0095047
0.013959
0.00840003
1.10858e-12
0.00840003
4.63878e-12
0.00840003
2.12881e-11
0.00840003
4.55044e-11
0.00840003
1.47993e-10
0.00840003
2.85571e-10
0.00840003
8.64107e-10
0.00840003
1.63262e-09
0.00840003
4.85221e-09
0.00840004
9.1273e-09
0.00840005
2.69966e-08
0.0084001
5.07087e-08
0.00840014
1.49909e-07
0.00840043
2.80943e-07
0.00840063
8.33263e-07
0.00840227
1.55542e-06
0.00840324
4.67284e-06
0.00841301
8.6558e-06
0.00841754
2.70992e-05
0.00847969
5.02468e-05
0.00853237
0.000171345
0.00898209
0.000391035
0.0100842
0.00138536
0.0129844
0.00419432
0.00844383
0.0140295
0.00840003
5.13991e-13
0.00840003
3.53157e-12
0.00840003
1.1073e-11
0.00840003
3.29636e-11
0.00840003
7.83767e-11
0.00840003
2.04803e-10
0.00840003
4.60138e-10
0.00840003
1.16698e-09
0.00840003
2.58724e-09
0.00840004
6.51577e-09
0.00840005
1.43919e-08
0.00840006
3.62074e-08
0.00840013
7.98093e-08
0.00840021
2.01119e-07
0.00840059
4.42517e-07
0.008401
1.12118e-06
0.00840317
2.46338e-06
0.00840536
6.30566e-06
0.00841819
1.41032e-05
0.00843137
3.61644e-05
0.00851415
8.76211e-05
0.00866679
0.000234311
0.00936299
0.000687022
0.0113408
0.00219687
0.00605296
0.0136949
0.00840003
2.86463e-13
0.00840003
2.22234e-12
0.00840003
6.91287e-12
0.00840003
2.05582e-11
0.00840003
4.89673e-11
0.00840003
1.27071e-10
0.00840003
2.86726e-10
0.00840003
7.21428e-10
0.00840003
1.60733e-09
0.00840003
4.01352e-09
0.00840004
8.91345e-09
0.00840005
2.22109e-08
0.00840008
4.92686e-08
0.00840016
1.22721e-07
0.00840032
2.719e-07
0.00840075
6.78264e-07
0.00840169
1.50025e-06
0.00840412
3.76572e-06
0.00840978
8.32077e-06
0.00842388
2.1433e-05
0.00846353
4.73502e-05
0.00856252
0.000132079
0.00891531
0.000330923
0.00998619
0.00111186
0.00306005
0.0129326
0.00840003
1.27751e-13
0.00840003
1.53053e-12
0.00840003
3.75167e-12
0.00840003
1.36738e-11
0.00840003
2.69725e-11
0.00840003
8.37034e-11
0.00840003
1.58331e-10
0.00840003
4.7267e-10
0.00840003
8.86639e-10
0.00840003
2.61802e-09
0.00840004
4.90628e-09
0.00840004
1.44257e-08
0.00840007
2.70448e-08
0.00840011
7.93539e-08
0.00840023
1.48651e-07
0.00840046
4.36447e-07
0.00840113
8.14354e-07
0.00840241
2.41805e-06
0.00840625
4.40892e-06
0.0084134
1.39348e-05
0.0084368
2.35553e-05
0.00848012
8.69471e-05
0.00865679
0.000152038
0.0091485
0.000613719
0.001662
0.0105313
0.00840003
1.23902e-13
0.00840003
7.17267e-13
0.00840003
2.63872e-12
0.00840003
6.82382e-12
0.00840003
1.85078e-11
0.00840003
4.23373e-11
0.00840003
1.07724e-10
0.00840003
2.3975e-10
0.00840003
6.00381e-10
0.00840003
1.32748e-09
0.00840003
3.30916e-09
0.00840004
7.30448e-09
0.00840005
1.81773e-08
0.00840009
4.00908e-08
0.00840013
9.97086e-08
0.00840035
2.1965e-07
0.0084006
5.46871e-07
0.00840179
1.20442e-06
0.00840311
3.01577e-06
0.00841027
6.65819e-06
0.00841637
1.7074e-05
0.00846437
3.80156e-05
0.00851162
0.000103118
0.00886483
0.000255621
0.000806947
0.00971458
0.00840003
9.64675e-14
0.00840003
3.70304e-13
0.00840003
1.73252e-12
0.00840003
3.68187e-12
0.00840003
1.19456e-11
0.00840003
2.3067e-11
0.00840003
6.91806e-11
0.00840003
1.30952e-10
0.00840003
3.84814e-10
0.00840003
7.25603e-10
0.00840003
2.1191e-09
0.00840004
3.99508e-09
0.00840004
1.16375e-08
0.00840006
2.19498e-08
0.00840009
6.38627e-08
0.00840019
1.20414e-07
0.00840038
3.50657e-07
0.00840091
6.59559e-07
0.00840194
1.93275e-06
0.00840494
3.6004e-06
0.00841085
1.08934e-05
0.00842898
1.95367e-05
0.00846517
6.54041e-05
0.00860152
0.000117682
0.000440302
0.0089619
0.00840003
3.86746e-14
0.00840003
2.65236e-13
0.00840003
8.39438e-13
0.00840003
2.47789e-12
0.00840003
5.92217e-12
0.00840003
1.53081e-11
0.00840003
3.45052e-11
0.00840003
8.64152e-11
0.00840003
1.92094e-10
0.00840003
4.77105e-10
0.00840003
1.05704e-09
0.00840003
2.61857e-09
0.00840004
5.79741e-09
0.00840005
1.4344e-08
0.00840008
3.17522e-08
0.00840012
7.85035e-08
0.00840029
1.73705e-07
0.00840051
4.29606e-07
0.00840147
9.49959e-07
0.00840263
2.36896e-06
0.00840826
5.18431e-06
0.00841388
1.35365e-05
0.00845022
2.86379e-05
0.00848274
8.3213e-05
0.000180172
0.0087406
0.00840003
2.01631e-14
0.00840003
1.57923e-13
0.00840003
4.90189e-13
0.00840003
1.45657e-12
0.00840003
3.46316e-12
0.00840003
8.95408e-12
0.00840003
2.01452e-11
0.00840003
5.04189e-11
0.00840003
1.1192e-10
0.00840003
2.77756e-10
0.00840003
6.14419e-10
0.00840003
1.52105e-09
0.00840003
3.36112e-09
0.00840004
8.31295e-09
0.00840005
1.83577e-08
0.00840008
4.53878e-08
0.00840016
1.00133e-07
0.00840033
2.47696e-07
0.00840073
5.45601e-07
0.0084017
1.3545e-06
0.00840387
2.9744e-06
0.00840972
7.48095e-06
0.00842162
1.65246e-05
0.00846106
4.27383e-05
9.89208e-05
0.00854111
0.00840003
9.04634e-15
0.00840003
1.00729e-13
0.00840003
2.56413e-13
0.00840003
9.05241e-13
0.00840003
1.83568e-12
0.00840003
5.51925e-12
0.00840003
1.07053e-11
0.00840003
3.09347e-11
0.00840003
5.94361e-11
0.00840003
1.69815e-10
0.00840003
3.25766e-10
0.00840003
9.26822e-10
0.00840003
1.7786e-09
0.00840004
5.04785e-09
0.00840004
9.69332e-09
0.00840006
2.74612e-08
0.00840011
5.27376e-08
0.0084002
1.49307e-07
0.00840046
2.86299e-07
0.00840098
8.12308e-07
0.00840237
1.55185e-06
0.00840527
4.44753e-06
0.0084132
8.4328e-06
0.00843033
2.47796e-05
4.83203e-05
0.00848056
0.00840003
7.81712e-15
0.00840003
4.59693e-14
0.00840003
1.67601e-13
0.00840003
4.36423e-13
0.00840003
1.17431e-12
0.00840003
2.69408e-12
0.00840003
6.79768e-12
0.00840003
1.51477e-11
0.00840003
3.76017e-11
0.00840003
8.31727e-11
0.00840003
2.05566e-10
0.00840003
4.53769e-10
0.00840003
1.12016e-09
0.00840003
2.47076e-09
0.00840004
6.09767e-09
0.00840005
1.34406e-08
0.00840007
3.318e-08
0.00840014
7.30548e-08
0.00840025
1.80566e-07
0.00840065
3.96914e-07
0.00840119
9.84566e-07
0.00840344
2.16102e-06
0.00840633
5.40871e-06
0.00841883
1.19263e-05
3.03557e-05
0.00843609
0.00840003
4.73468e-15
0.00840003
2.58257e-14
0.00840003
9.53384e-14
0.00840003
2.4598e-13
0.00840003
6.63801e-13
0.00840003
1.51893e-12
0.00840003
3.83117e-12
0.00840003
8.52541e-12
0.00840003
2.1141e-11
0.00840003
4.67054e-11
0.00840003
1.15288e-10
0.00840003
2.5419e-10
0.00840003
6.26561e-10
0.00840003
1.38065e-09
0.00840003
3.40113e-09
0.00840004
7.49274e-09
0.00840005
1.84498e-08
0.00840009
4.06319e-08
0.00840016
1.00029e-07
0.00840034
2.2011e-07
0.00840076
5.42353e-07
0.00840171
1.19165e-06
0.00840409
2.95093e-06
0.00840943
6.46752e-06
1.63106e-05
0.0084231
0.00840003
3.02305e-15
0.00840003
1.27211e-14
0.00840003
5.74259e-14
0.00840003
1.26234e-13
0.00840003
3.94014e-13
0.00840003
7.86389e-13
0.00840003
2.26184e-12
0.00840003
4.41773e-12
0.00840003
1.24301e-11
0.00840003
2.41689e-11
0.00840003
6.75209e-11
0.00840003
1.31239e-10
0.00840003
3.65451e-10
0.00840003
7.10851e-10
0.00840003
1.97483e-09
0.00840004
3.84541e-09
0.00840004
1.06595e-08
0.00840006
2.07764e-08
0.0084001
5.74765e-08
0.00840021
1.1205e-07
0.00840043
3.09674e-07
0.00840101
6.02841e-07
0.00840225
1.6704e-06
0.00840542
3.23572e-06
9.1154e-06
0.00841239
0.00840003
1.18658e-15
0.00840003
8.30813e-15
0.00840003
2.64006e-14
0.00840003
7.81881e-14
0.00840003
1.86437e-13
0.00840003
4.78645e-13
0.00840003
1.07757e-12
0.00840003
2.67198e-12
0.00840003
5.92815e-12
0.00840003
1.45602e-11
0.00840003
3.21775e-11
0.00840003
7.87877e-11
0.00840003
1.73919e-10
0.00840003
4.2526e-10
0.00840003
9.38371e-10
0.00840003
2.29237e-09
0.00840004
5.05726e-09
0.00840005
1.23447e-08
0.00840008
2.72267e-08
0.00840012
6.64172e-08
0.00840028
1.46406e-07
0.00840051
3.57114e-07
0.00840138
7.86621e-07
0.00840263
1.92398e-06
4.23089e-06
0.00840745
0.00840003
5.48037e-16
0.00840003
4.72696e-15
0.00840003
1.42741e-14
0.00840003
4.22899e-14
0.00840003
1.01025e-13
0.00840003
2.5948e-13
0.00840003
5.82603e-13
0.00840003
1.44661e-12
0.00840003
3.19788e-12
0.00840003
7.86797e-12
0.00840003
1.7318e-11
0.00840003
4.24829e-11
0.00840003
9.33848e-11
0.00840003
2.28814e-10
0.00840003
5.02714e-10
0.00840003
1.23094e-09
0.00840003
2.70355e-09
0.00840004
6.61673e-09
0.00840005
1.45262e-08
0.00840008
3.55455e-08
0.00840015
7.79664e-08
0.00840031
1.90905e-07
0.00840067
4.18073e-07
0.00840153
1.02669e-06
2.2433e-06
0.00840347
0.00840003
3.03116e-16
0.00840003
2.63342e-15
0.00840003
6.90027e-15
0.00840003
2.43803e-14
0.00840003
4.97573e-14
0.00840003
1.46976e-13
0.00840003
2.88357e-13
0.00840003
8.14515e-13
0.00840003
1.58193e-12
0.00840003
4.41353e-12
0.00840003
8.54853e-12
0.00840003
2.37586e-11
0.00840003
4.59804e-11
0.00840003
1.2758e-10
0.00840003
2.46832e-10
0.00840003
6.84212e-10
0.00840003
1.32347e-09
0.00840004
3.66588e-09
0.00840004
7.08855e-09
0.00840006
1.96241e-08
0.0084001
3.79164e-08
0.00840018
1.04977e-07
0.00840039
2.02454e-07
0.00840084
5.61492e-07
1.07918e-06
0.00840197
0.00840003
2.22045e-16
0.00840003
8.22367e-16
0.00840003
4.23904e-15
0.00840003
9.31473e-15
0.00840003
2.9571e-14
0.00840003
5.85036e-14
0.00840003
1.69449e-13
0.00840003
3.26463e-13
0.00840003
9.24194e-13
0.00840003
1.76516e-12
0.00840003
4.96678e-12
0.00840003
9.45094e-12
0.00840003
2.65595e-11
0.00840003
5.04033e-11
0.00840003
1.41655e-10
0.00840003
2.6805e-10
0.00840003
7.53797e-10
0.00840003
1.4215e-09
0.00840004
4.00137e-09
0.00840005
7.51356e-09
0.00840006
2.11813e-08
0.00840013
3.95524e-08
0.00840021
1.11794e-07
0.00840056
2.07208e-07
5.88787e-07
0.00840102
0.00840003
-1.0327e-17
0.00840003
4.48833e-16
0.00840003
1.54705e-15
0.00840003
4.35117e-15
0.00840003
1.05525e-14
0.00840003
2.67403e-14
0.00840003
6.03589e-14
0.00840003
1.46586e-13
0.00840003
3.25644e-13
0.00840003
7.82592e-13
0.00840003
1.7357e-12
0.00840003
4.14988e-12
0.00840003
9.20468e-12
0.00840003
2.19011e-11
0.00840003
4.86122e-11
0.00840003
1.15038e-10
0.00840003
2.5563e-10
0.00840003
6.00943e-10
0.00840003
1.33735e-09
0.00840004
3.11844e-09
0.00840005
6.95234e-09
0.00840007
1.60535e-08
0.00840014
3.58713e-08
0.00840025
8.18885e-08
1.83697e-07
0.00840064
0.00840003
0.00840003
0.00840003
0.00840003
0.00840003
0.00840003
0.00840003
0.00840003
0.00840003
0.00840003
0.00840003
0.00840003
0.00840003
0.00840003
0.00840003
0.00840003
0.00840003
0.00840003
0.00840003
0.00840004
0.00840004
0.00840005
0.00840009
0.00840015
0.00840032
0.00460604
0.00413153
0.00298638
0.00161934
0.00230167
0.000684273
0.00202765
0.000273477
0.00200271
2.43007e-05
0.00215603
-0.00015405
0.00235178
-0.000196622
0.0024648
-0.000113962
0.00250342
-3.95967e-05
0.0024977
4.75672e-06
0.00247495
2.17773e-05
0.0024635
1.04782e-05
0.00246353
-9.5798e-07
0.00247327
-1.07044e-05
0.00248446
-1.21647e-05
0.00249263
-9.14868e-06
0.00249713
-4.87186e-06
0.00249886
-2.53848e-06
0.00249912
-1.13189e-06
0.00249892
-5.4312e-07
0.00249941
-1.28756e-06
0.0025009
-2.53308e-06
0.0025031
-3.00999e-06
0.00250548
-3.17029e-06
0.0025076
-2.98577e-06
0.00250935
-2.68293e-06
0.00250967
-2.01885e-06
0.00250861
-7.28698e-07
0.00250516
8.78674e-07
0.0024976
3.84877e-06
0.00248222
8.88288e-06
0.00245086
1.82559e-05
0.00238331
3.94873e-05
0.00223315
8.97695e-05
0.00187114
0.00022671
0.000888465
0.000662324
-0.000259502
0.00105563
-0.000957013
0.000699735
-0.00135064
0.00040438
-0.00155011
0.000204197
-0.00151999
-2.70423e-05
-0.0013299
-0.000211755
-0.00102381
-0.000338699
-0.000652932
-0.000403046
-0.000245902
-0.000431062
0.000169161
-0.000432335
0.000547455
-0.000390343
0.000892483
-0.000354114
0.00121115
-0.000327436
0.00150756
-0.000304646
0.00178294
-0.000283233
0.00203681
-0.000260147
0.00227368
-0.000241167
0.0025015
-0.000228339
0.00272282
-0.000221313
0.00293128
-0.000208466
0.0031283