/*--------------------------------*- C++ -*----------------------------------*\
| =========                 |                                                 |
| \\      /  F ield         | OpenFOAM: The Open Source CFD Toolbox           |
|  \\    /   O peration     | Version:  2112                                  |
|   \\  /    A nd           | Website:  www.openfoam.com                      |
|    \\/     M anipulation  |                                                 |
\*---------------------------------------------------------------------------*/
FoamFile
{
    version     2.0;
    format      ascii;
    arch        "LSB;label=32;scalar=64";
    class       volScalarField;
    location    "2.5";
    object      T;
}
// * * * * * * * * * * * * * * * * * * * * * * * * * * * * * * * * * * * * * //

dimensions      [0 0 0 1 0 0 0];

internalField   nonuniform List<scalar> 
5250
(
1.00001
1.00001
1.00005
1.00009
1.00029
1.00052
1.00161
1.00314
1.00857
1.02059
1.0487
1.14404
1.33138
1.95698
2.62977
2.75586
2.74937
2.73969
2.75718
2.76819
2.78191
2.79125
2.80003
2.79957
2.80445
1.00001
1.00001
1.00005
1.00009
1.00028
1.00051
1.0016
1.0031
1.00849
1.0202
1.048
1.14132
1.325
1.9416
2.61853
2.75341
2.74792
2.73784
2.75541
2.76642
2.78012
2.78961
2.79786
2.79684
2.80127
1.00001
1.00001
1.00005
1.00009
1.00028
1.0005
1.00158
1.003
1.00837
1.01936
1.04676
1.13595
1.31303
1.89067
2.60409
2.75089
2.74442
2.73368
2.75105
2.7627
2.77639
2.78636
2.79499
2.79383
2.79767
1.00001
1.00001
1.00005
1.00008
1.00027
1.00049
1.00153
1.00289
1.00816
1.01848
1.04521
1.12956
1.2991
1.82778
2.60709
2.74428
2.73746
2.72636
2.74437
2.75471
2.76922
2.77825
2.78865
2.78887
2.79303
1.00001
1.00001
1.00004
1.00008
1.00026
1.00047
1.00147
1.00276
1.00792
1.01745
1.04361
1.1217
1.28422
1.76086
2.59927
2.73697
2.72721
2.71653
2.73406
2.74468
2.76135
2.77226
2.77956
2.77897
2.78233
1.00001
1.00001
1.00004
1.00008
1.00025
1.00045
1.00141
1.00262
1.00763
1.01642
1.04168
1.11438
1.26576
1.72943
2.5888
2.72692
2.71823
2.71025
2.72484
2.73324
2.74492
2.75759
2.76947
2.76748
2.772
1.00001
1.00001
1.00004
1.00007
1.00023
1.00042
1.00134
1.00247
1.00737
1.01524
1.03995
1.10513
1.24859
1.69105
2.56463
2.71607
2.70027
2.70072
2.71454
2.72382
2.73568
2.74208
2.75139
2.752
2.7505
1
1.00001
1.00004
1.00007
1.00022
1.00039
1.00125
1.00228
1.00691
1.01402
1.03735
1.0962
1.22816
1.64387
2.51476
2.69548
2.69456
2.69246
2.69541
2.70508
2.71926
2.72481
2.72944
2.72499
2.72571
1
1.00001
1.00003
1.00006
1.0002
1.00036
1.00113
1.00207
1.00632
1.01268
1.03417
1.08716
1.20523
1.59234
2.44599
2.66158
2.68861
2.68542
2.68532
2.6917
2.69495
2.70193
2.70299
2.69487
2.66951
1
1.00001
1.00003
1.00005
1.00017
1.00031
1.00096
1.00183
1.00521
1.01146
1.02886
1.08015
1.1769
1.54669
2.36926
2.62292
2.6772
2.6682
2.66646
2.67533
2.67508
2.67218
2.66257
2.64085
2.58885
1
1.00001
1.00002
1.00005
1.0001
1.00029
1.00064
1.00159
1.00418
1.0094
1.02733
1.05738
1.18685
1.42329
2.1559
2.58896
2.67628
2.66415
2.6455
2.64672
2.64918
2.64241
2.61983
2.5646
2.37037
1
1.00001
1.00002
1.00004
1.00013
1.00024
1.00072
1.0014
1.00392
1.00871
1.02171
1.0597
1.1319
1.40267
2.06225
2.49976
2.65995
2.65175
2.63457
2.62385
2.61692
2.60354
2.57145
2.50454
2.30243
1
1.00001
1.00002
1.00004
1.00011
1.0002
1.00065
1.00118
1.0037
1.00703
1.02024
1.04509
1.11428
1.30305
1.88618
2.42264
2.62268
2.61819
2.61455
2.60477
2.59296
2.56262
2.52369
2.46293
2.30371
1
1
1.00002
1.00003
1.0001
1.00017
1.00055
1.00099
1.0031
1.00584
1.01697
1.03718
1.09371
1.24967
1.7
2.36933
2.59595
2.58122
2.58273
2.57845
2.56677
2.53965
2.4788
2.42596
2.30898
1
1
1.00001
1.00002
1.00008
1.00014
1.00043
1.00079
1.00235
1.00479
1.01254
1.03195
1.0729
1.21927
1.52227
2.26047
2.55284
2.56714
2.55871
2.54816
2.53755
2.51571
2.46439
2.40057
2.3103
1
1
1.00001
1.00002
1.00006
1.00011
1.00035
1.00064
1.00195
1.00387
1.01034
1.02542
1.05894
1.17634
1.40436
2.06583
2.47758
2.5549
2.5405
2.52991
2.50578
2.4849
2.44096
2.38844
2.30953
1
1
1.00001
1.00002
1.00005
1.00009
1.00028
1.00051
1.0016
1.00302
1.00845
1.01927
1.04657
1.13385
1.30491
1.88419
2.34395
2.52283
2.52135
2.51275
2.48987
2.46118
2.41713
2.36322
2.30075
1
1
1.00001
1.00001
1.00004
1.00007
1.00022
1.0004
1.00127
1.00231
1.00701
1.01399
1.03733
1.09304
1.22452
1.59028
2.26977
2.45767
2.47799
2.47659
2.46579
2.44499
2.4077
2.35472
2.29608
1
1
1
1.00001
1.00003
1.00005
1.00016
1.0003
1.00092
1.00173
1.00494
1.01068
1.02684
1.07315
1.1601
1.48769
2.16687
2.40815
2.45025
2.44355
2.42999
2.4085
2.38417
2.3408
2.28633
1
1
1
1.00001
1.00002
1.00005
1.00009
1.00027
1.00052
1.00145
1.00321
1.00787
1.02114
1.0469
1.14071
1.31567
1.89347
2.30811
2.42958
2.42667
2.41526
2.3911
2.36494
2.33017
2.28188
1
1
1
1.00001
1.00001
1.00004
1.00007
1.00022
1.00039
1.00124
1.00227
1.00684
1.01372
1.03649
1.08957
1.22113
1.55986
2.20354
2.37631
2.38804
2.38286
2.3639
2.33351
2.30651
2.27283
1
1
1
1
1.00001
1.00002
1.00006
1.00012
1.00035
1.00067
1.00192
1.00404
1.01032
1.0263
1.06017
1.17097
1.41813
1.97404
2.31664
2.37167
2.36661
2.35003
2.31717
2.28167
2.24978
1
1
1
1
1.00001
1.00002
1.00004
1.00011
1.00021
1.00063
1.00119
1.00351
1.00707
1.01893
1.0455
1.10839
1.2931
1.81062
2.16875
2.32526
2.33545
2.32809
2.30933
2.27407
2.23583
1
1
1
1
1.00001
1.00001
1.00003
1.00006
1.00018
1.00034
1.00103
1.00195
1.00559
1.01176
1.03006
1.07843
1.17632
1.49233
2.0759
2.26347
2.29597
2.29294
2.28428
2.26422
2.23019
1
1
1
1
1
1.00001
1.00002
1.00004
1.00013
1.00024
1.00075
1.00136
1.00415
1.00796
1.02177
1.05154
1.11945
1.33802
1.862
2.17606
2.27316
2.26999
2.25676
2.23913
2.21302
1
1
1
1
1
1.00001
1.00002
1.00003
1.00009
1.00016
1.0005
1.00092
1.00277
1.00528
1.01508
1.03143
1.0846
1.19376
1.59955
1.98343
2.21801
2.24852
2.2436
2.22766
2.20275
1
1
1
1
1
1
1.00001
1.00002
1.00005
1.00014
1.00025
1.00076
1.00143
1.00401
1.00858
1.02132
1.05638
1.12243
1.36363
1.86978
2.12024
2.20103
2.21061
2.2047
2.19176
1
1
1
1
1
1
1.00001
1.00002
1.00003
1.00009
1.00017
1.00052
1.00095
1.00288
1.0054
1.01546
1.03218
1.08437
1.19785
1.57736
1.98504
2.16793
2.18169
2.17948
2.16754
1
1
1
1
1
1
1
1.00001
1.00002
1.00006
1.00011
1.00034
1.00061
1.00186
1.00347
1.01002
1.02088
1.05281
1.13194
1.33233
1.76782
2.08702
2.16156
2.16051
2.15066
1
1
1
1
1
1
1
1.00001
1.00002
1.00003
1.00009
1.00016
1.00049
1.00092
1.00269
1.00527
1.01443
1.03113
1.08034
1.18757
1.54268
1.91611
2.11566
2.13598
2.13399
1
1
1
1
1
1
1
1
1.00001
1.00002
1.00006
1.0001
1.00032
1.00058
1.00177
1.00327
1.00951
1.01945
1.04958
1.12368
1.29978
1.7289
2.02037
2.10446
2.1144
1
1
1
1
1
1
1
1
1.00001
1.00001
1.00004
1.00006
1.0002
1.00036
1.00108
1.00199
1.00585
1.01145
1.03066
1.0701
1.17309
1.42103
1.89228
2.04772
2.06935
1
1
1
1
1
1
1
1
1
1.00001
1.00002
1.00005
1.00009
1.00028
1.00052
1.00152
1.0029
1.00817
1.01711
1.04322
1.10576
1.26344
1.61805
1.95519
2.04964
1
1
1
1
1
1
1
1
1
1
1.00001
1.00002
1.00007
1.00013
1.00039
1.00074
1.00213
1.00416
1.01141
1.02402
1.06304
1.14163
1.41424
1.76417
1.99135
1
1
1
1
1
1
1
1
1
1
1.00001
1.00001
1.00004
1.00008
1.00024
1.00043
1.0013
1.00238
1.00694
1.01382
1.03565
1.08679
1.19841
1.51236
1.84005
1
1
1
1
1
1
1
1
1
1
1
1.00001
1.00003
1.00005
1.00014
1.00025
1.00075
1.00138
1.00399
1.00797
1.02046
1.05069
1.11074
1.31195
1.7071
1
1
1
1
1
1
1
1
1
1
1
1.00001
1.00001
1.00003
1.00006
1.00018
1.00034
1.00099
1.00188
1.00531
1.01079
1.02758
1.0648
1.15604
1.37628
1
1
1
1
1
1
1
1
1
1
1
1
1.00001
1.00002
1.00004
1.00011
1.0002
1.00059
1.00107
1.00318
1.00604
1.01654
1.03632
1.08632
1.221
1
1
1
1
1
1
1
1
1
1
1
1
1
1.00001
1.00003
1.00005
1.00014
1.00026
1.00075
1.00141
1.00396
1.00812
1.02046
1.05079
1.11098
1
1
1
1
1
1
1
1
1
1
1
1
1
1
1.00001
1.00003
1.00008
1.00015
1.00044
1.00079
1.00233
1.00439
1.01221
1.02504
1.06414
1
1
1
1
1
1
1
1
1
1
1
1
1
1
1.00001
1.00001
1.00004
1.00008
1.00024
1.00043
1.00128
1.00238
1.00672
1.01347
1.03489
1
1
1
1
1
1
1
1
1
1
1
1
1
1
1
1.00001
1.00002
1.00006
1.0001
1.0003
1.00056
1.0016
1.00308
1.00842
1.01737
1
1
1
1
1
1
1
1
1
1
1
1
1
1
1
1.00001
1.00001
1.00003
1.00006
1.00017
1.0003
1.00089
1.00162
1.00469
1.00903
1
1
1
1
1
1
1
1
1
1
1
1
1
1
1
1
1.00001
1.00002
1.00003
1.00009
1.00016
1.00047
1.00085
1.00247
1.00469
1
1
1
1
1
1
1
1
1
1
1
1
1
1
1
1
1
1.00001
1.00002
1.00004
1.00011
1.0002
1.00057
1.00105
1.00299
1
1
1
1
1
1
1
1
1
1
1
1
1
1
1
1
1
1
1.00001
1.00002
1.00006
1.0001
1.00031
1.00056
1.00163
1
1
1
1
1
1
1
1
1
1
1
1
1
1
1
1
1
1
1.00001
1.00001
1.00003
1.00006
1.00016
1.00029
1.00086
1
1
1
1
1
1
1
1
1
1
1
1
1
1
1
1
1
1
1
1.00001
1.00001
1.00004
1.00007
1.0002
1.00038
1
1
1
1
1
1
1
1
1
1
1
1
1
1
1
1
1
1
1
1
1.00001
1.00002
1.00006
1.0001
1.00031
1
1
1
1
1
1
1
1
1
1
1
1
1
1
1
1
1
1
1
1
1.00001
1.00002
1.00005
1.00009
1.00026
2.34259
2.25011
2.25182
2.30019
2.39013
2.45557
2.50816
2.53544
2.5381
2.53548
2.5355
2.53657
2.53978
2.54258
2.546
2.54764
2.54791
2.54745
2.5471
2.54669
2.54599
2.54541
2.54455
2.54344
2.54205
2.54086
2.54024
2.54059
2.54168
2.54484
2.55298
2.57225
2.61647
2.71364
2.91446
3.16859
3.39352
3.41486
3.46252
3.47708
3.47654
3.48044
3.47386
3.45715
3.43624
3.41944
3.39896
3.38343
3.36255
3.34359
3.3197
3.30271
3.27959
3.26221
3.23575
3.21707
3.19197
3.17152
3.14637
3.1267
3.10281
3.08307
3.05867
3.0378
3.01266
2.99127
2.96638
2.9454
2.92169
2.90195
2.8801
2.86215
2.84229
2.82634
2.80815
2.79417
2.77741
2.76541
2.75001
2.73993
2.72588
2.71746
2.70467
2.69755
2.68583
2.67975
2.66875
2.66332
2.65273
2.64753
2.63707
2.63174
2.62093
2.6154
2.60422
2.59875
2.58781
2.58349
2.57542
2.57708
2.1982
2.12703
2.08751
2.06918
2.04123
2.01452
2.00154
2.00319
2.01356
2.03098
2.04696
2.05376
2.05318
2.05263
2.05217
2.05225
2.05281
2.05336
2.05457
2.05428
2.05411
2.05372
2.05296
2.05192
2.05096
2.05024
2.04985
2.0503
2.05137
2.05418
2.06098
2.07623
2.11162
2.19079
2.37377
2.66492
3.07101
3.19845
3.32261
3.39882
3.41649
3.39173
3.33093
3.25922
3.1883
3.13243
3.07848
3.04107
2.99863
2.96597
2.93108
2.9028
2.87311
2.84749
2.81863
2.79344
2.76538
2.74115
2.71508
2.69299
2.66966
2.6501
2.6289
2.61068
2.58996
2.57225
2.55178
2.53513
2.51515
2.49971
2.48013
2.46586
2.44694
2.43395
2.41607
2.40417
2.38737
2.37626
2.3604
2.35007
2.33508
2.32561
2.31157
2.3029
2.28969
2.28172
2.26919
2.26176
2.24988
2.24306
2.23185
2.22571
2.21529
2.20977
2.20014
2.19519
2.18652
2.1829
2.17695
2.1799
2.19753
2.11756
2.04585
1.97379
1.90656
1.85611
1.82976
1.82828
1.8318
1.84238
1.85728
1.86942
1.87674
1.87921
1.87976
1.87925
1.87897
1.87882
1.87882
1.87882
1.87883
1.87879
1.87859
1.87816
1.8774
1.87666
1.876
1.87635
1.87699
1.87867
1.88248
1.89206
1.91392
1.96637
2.07896
2.33587
2.66436
2.81256
2.93189
3.00371
3.03063
3.01002
2.95287
2.89258
2.83884
2.80539
2.77406
2.74899
2.71935
2.69621
2.67089
2.65244
2.63169
2.6152
2.59457
2.57702
2.55561
2.53886
2.51915
2.50425
2.48574
2.47198
2.45427
2.44143
2.42361
2.41051
2.3922
2.37956
2.36243
2.35152
2.33619
2.32647
2.31197
2.30245
2.28831
2.27901
2.26548
2.25655
2.24345
2.23462
2.22126
2.21234
2.1986
2.18968
2.17609
2.16749
2.15443
2.14644
2.13383
2.12635
2.11417
2.10713
2.09538
2.08891
2.07761
2.07191
2.06126
2.05692
2.04851
2.04913
2.1989
2.10983
2.03106
1.95898
1.89503
1.84247
1.80057
1.77237
1.75594
1.75286
1.75399
1.75964
1.76735
1.77571
1.78029
1.78229
1.78177
1.7813
1.78058
1.77967
1.77921
1.77899
1.77885
1.77857
1.77798
1.77694
1.77628
1.77543
1.77585
1.77648
1.77877
1.78482
1.79766
1.83102
1.89785
2.09619
2.28092
2.59734
2.73956
2.78486
2.79353
2.77118
2.72611
2.68138
2.64611
2.62095
2.60046
2.58608
2.56821
2.55347
2.53243
2.51606
2.49655
2.48312
2.46578
2.45278
2.43498
2.42205
2.40528
2.39338
2.3768
2.36514
2.34949
2.33972
2.32579
2.31728
2.30389
2.29549
2.28214
2.27351
2.26011
2.25116
2.23776
2.22857
2.21537
2.20626
2.19345
2.18483
2.17246
2.1644
2.1521
2.1443
2.13196
2.12428
2.11186
2.10428
2.09192
2.08456
2.07237
2.06534
2.05332
2.04668
2.03492
2.02877
2.01731
2.01178
2.00084
1.99636
1.98731
1.98704
2.20568
2.11419
2.03575
1.96598
1.90228
1.84729
1.79799
1.75782
1.72602
1.70601
1.6973
1.69747
1.69889
1.70337
1.71
1.71554
1.71976
1.7215
1.72211
1.72166
1.72128
1.72059
1.71988
1.71948
1.71911
1.71883
1.71853
1.71791
1.71807
1.7187
1.71995
1.72329
1.73243
1.75117
1.79878
1.90098
2.12657
2.43398
2.60771
2.68543
2.68865
2.66018
2.59924
2.54713
2.51061
2.48593
2.46037
2.4391
2.42799
2.42046
2.40916
2.39866
2.3838
2.37389
2.36084
2.35339
2.3408
2.3317
2.31803
2.30916
2.2961
2.28777
2.27522
2.26747
2.25508
2.24707
2.23421
2.22595
2.21327
2.20539
2.19332
2.18591
2.17428
2.16703
2.1555
2.14811
2.1365
2.12902
2.11737
2.11022
2.09875
2.09199
2.08058
2.07405
2.06268
2.0563
2.04494
2.03867
2.02731
2.02114
2.00981
2.00378
1.9926
1.98682
1.97595
1.97047
1.96022
1.95546
1.94686
1.946
2.22228
2.13468
2.05325
1.9819
1.91777
1.86049
1.8101
1.76676
1.73029
1.7009
1.6778
1.66354
1.65689
1.6567
1.65765
1.66084
1.66597
1.67064
1.67448
1.67605
1.67658
1.67616
1.67542
1.67464
1.6732
1.67237
1.67178
1.67095
1.67111
1.67141
1.67229
1.67497
1.68038
1.69552
1.72642
1.80183
1.95375
2.27824
2.53223
2.64334
2.64113
2.60709
2.52207
2.45288
2.40511
2.37166
2.35178
2.33605
2.32509
2.31718
2.31453
2.31206
2.30735
2.30339
2.29611
2.29019
2.27953
2.27211
2.26099
2.25393
2.24255
2.23542
2.22465
2.2182
2.20747
2.20053
2.18904
2.18144
2.1695
2.16179
2.14997
2.14258
2.13114
2.12411
2.11282
2.10583
2.09449
2.08765
2.07649
2.07018
2.05945
2.05367
2.04312
2.03748
2.02681
2.02114
2.01035
2.00465
1.99384
1.98802
1.97723
1.97118
1.96048
1.95425
1.94373
1.93761
1.92747
1.92202
1.91341
1.91176
2.22635
2.15004
2.07605
2.00699
1.94381
1.88637
1.83456
1.78831
1.74722
1.71176
1.68198
1.6582
1.64109
1.63057
1.62697
1.62717
1.62823
1.63101
1.63526
1.63879
1.64182
1.643
1.64364
1.64346
1.64313
1.64247
1.64189
1.64102
1.64117
1.6414
1.6425
1.64464
1.65005
1.66279
1.68819
1.75361
1.86862
2.16888
2.39714
2.59177
2.56793
2.52927
2.46059
2.3947
2.33823
2.29896
2.27319
2.25971
2.25094
2.24628
2.24335
2.24413
2.24595
2.24523
2.24308
2.24012
2.23427
2.22994
2.2212
2.21498
2.20421
2.19749
2.18738
2.18085
2.17002
2.16277
2.15177
2.14479
2.13404
2.12724
2.11658
2.10995
2.09926
2.09262
2.08175
2.07505
2.06404
2.05744
2.04651
2.04026
2.02955
2.02365
2.01304
2.0073
1.99669
1.99105
1.98057
1.97507
1.96486
1.9594
1.94943
1.94378
1.93389
1.92807
1.91823
1.91247
1.90287
1.89768
1.8893
1.88771
2.22863
2.16017
2.09263
2.02849
1.9678
1.912
1.86025
1.81361
1.77115
1.73375
1.70086
1.67284
1.64933
1.63094
1.61802
1.61025
1.60761
1.60779
1.60873
1.61134
1.61465
1.61834
1.62097
1.62241
1.62245
1.62216
1.62167
1.62062
1.62049
1.62084
1.62162
1.62438
1.63104
1.64462
1.67615
1.73999
1.87325
2.05921
2.25913
2.42342
2.46976
2.44852
2.41838
2.37342
2.33053
2.28643
2.25063
2.2276
2.21245
2.20416
2.19902
2.19593
2.19413
2.19507
2.19709
2.19593
2.19341
2.19113
2.18647
2.1825
2.17383
2.16788
2.1583
2.15194
2.14169
2.13487
2.12451
2.11769
2.1072
2.10017
2.08938
2.08218
2.07125
2.06425
2.05342
2.04672
2.03606
2.0298
2.01943
2.01369
2.00358
1.99817
1.98804
1.98263
1.97231
1.96673
1.95627
1.9506
1.94028
1.93462
1.92466
1.91899
1.90928
1.90352
1.8939
1.8881
1.87864
1.87333
1.86498
1.86323
2.22791
2.16564
2.10383
2.04441
1.98775
1.93445
1.88477
1.83856
1.79642
1.75774
1.72327
1.69223
1.66552
1.64248
1.62343
1.60857
1.59861
1.59282
1.59098
1.5911
1.59194
1.59385
1.59682
1.59912
1.60103
1.60199
1.60236
1.60224
1.60231
1.60278
1.6044
1.60902
1.61847
1.64191
1.68809
1.79489
1.93432
2.06492
2.14982
2.25089
2.33464
2.3789
2.37191
2.35468
2.32772
2.28497
2.25116
2.2208
2.19508
2.17838
2.16636
2.1595
2.15542
2.15287
2.15235
2.15327
2.15549
2.15467
2.15224
2.15009
2.14568
2.14138
2.13258
2.12639
2.11665
2.1105
2.10076
2.09442
2.08439
2.0777
2.06725
2.06043
2.04995
2.04333
2.03288
2.02644
2.01599
2.00976
1.9994
1.99347
1.98316
1.97736
1.96692
1.9611
1.95059
1.94487
1.93454
1.92901
1.91896
1.91346
1.90367
1.89813
1.88859
1.88309
1.87378
1.86839
1.85926
1.85432
1.84612
1.8446
2.22702
2.1698
2.11184
2.05571
2.00223
1.9515
1.90412
1.85957
1.81837
1.78009
1.74507
1.71311
1.68437
1.65882
1.63669
1.61789
1.60246
1.59042
1.58252
1.57792
1.5766
1.57676
1.57757
1.5794
1.58207
1.58443
1.58629
1.58729
1.58825
1.58986
1.59399
1.60204
1.62153
1.65913
1.75012
1.87778
2.00559
2.06574
2.09626
2.13183
2.18712
2.23944
2.28007
2.30115
2.28626
2.2715
2.24891
2.2168
2.19151
2.16933
2.14801
2.13491
2.12533
2.12069
2.11648
2.11455
2.11435
2.11508
2.11616
2.1153
2.11334
2.11136
2.10683
2.10223
2.09329
2.0875
2.07775
2.07141
2.06137
2.05496
2.04496
2.03866
2.02861
2.02231
2.01201
2.00554
1.99488
1.98827
1.97744
1.97105
1.96053
1.9547
1.94459
1.93901
1.92888
1.9232
1.91303
1.90752
1.89784
1.89273
1.8836
1.8787
1.86974
1.86478
1.85577
1.85078
1.84177
1.83722
1.82907
1.82779
2.22458
2.17372
2.12082
2.06771
2.01624
1.96725
1.92094
1.8776
1.83711
1.79937
1.76447
1.73204
1.70257
1.6754
1.65134
1.62958
1.6112
1.59534
1.58287
1.57302
1.56688
1.56332
1.56258
1.56278
1.56354
1.56537
1.56771
1.57064
1.57359
1.57789
1.58598
1.60234
1.63661
1.7085
1.83975
1.97157
2.04419
2.06022
2.06419
2.07243
2.0881
2.1149
2.1448
2.18475
2.21017
2.22565
2.21323
2.203
2.18628
2.1615
2.14243
2.12564
2.10816
2.09747
2.08977
2.08541
2.08153
2.08047
2.08031
2.08097
2.08068
2.07968
2.07791
2.07541
2.06947
2.06409
2.05431
2.04796
2.03797
2.03218
2.0229
2.01749
2.00802
2.00211
1.99184
1.98533
1.97457
1.96812
1.95758
1.95157
1.94137
1.93563
1.92563
1.92007
1.91032
1.90493
1.89556
1.89038
1.88138
1.8765
1.86777
1.86305
1.85428
1.84942
1.84035
1.83544
1.82629
1.82186
1.81367
1.81264
2.21601
2.17233
2.12524
2.07786
2.03029
1.98349
1.93897
1.89604
1.85633
1.81839
1.78375
1.75084
1.72095
1.69288
1.66761
1.64422
1.62369
1.60508
1.58961
1.57608
1.56592
1.55747
1.55259
1.54964
1.54963
1.55015
1.55163
1.55483
1.56032
1.56858
1.58383
1.61458
1.6775
1.7994
1.93703
2.02488
2.04755
2.04628
2.04076
2.0361
2.0336
2.03545
2.0461
2.06804
2.0954
2.12634
2.14802
2.16362
2.15481
2.14896
2.13667
2.11749
2.0996
2.08512
2.07124
2.06069
2.05336
2.0491
2.04557
2.04493
2.0442
2.04383
2.04274
2.04147
2.03892
2.03597
2.02915
2.02368
2.01477
2.00953
2.0007
1.99532
1.98593
1.98032
1.97067
1.96497
1.95499
1.94896
1.93882
1.93294
1.92329
1.9179
1.9087
1.90329
1.89413
1.88844
1.87926
1.87369
1.86471
1.85967
1.851
1.84649
1.838
1.83365
1.825
1.8205
1.81158
1.80734
1.79913
1.79811
2.19913
2.16092
2.12305
2.08056
2.03845
1.99605
1.95471
1.91445
1.87584
1.8391
1.80427
1.77179
1.74106
1.71286
1.68629
1.66226
1.63974
1.61991
1.60142
1.58594
1.57169
1.56087
1.55123
1.54517
1.54101
1.54103
1.54207
1.5449
1.55128
1.56489
1.59164
1.64616
1.75607
1.89724
2.00303
2.03602
2.04001
2.03156
2.0215
2.01026
1.99925
1.98938
1.98904
1.99126
2.00104
2.02148
2.04588
2.07305
2.09279
2.10455
2.10092
2.09551
2.08562
2.07282
2.05661
2.04568
2.03424
2.02557
2.0179
2.01288
2.00884
2.00763
2.00682
2.00663
2.00616
2.00515
2.0024
1.99881
1.99098
1.98562
1.97658
1.97114
1.96185
1.95624
1.94673
1.94122
1.93198
1.92668
1.91748
1.91196
1.90266
1.89695
1.8878
1.88204
1.87296
1.86723
1.85808
1.85277
1.84389
1.83921
1.83084
1.82665
1.8186
1.81459
1.80655
1.80251
1.7943
1.79051
1.78275
1.78209
2.19441
2.15757
2.11819
2.08012
2.04058
2.00194
1.96358
1.92634
1.89021
1.85557
1.82215
1.79073
1.76064
1.73261
1.70595
1.68162
1.6582
1.63758
1.61747
1.60039
1.58389
1.57053
1.55801
1.54896
1.5415
1.53989
1.54092
1.54488
1.55478
1.57602
1.62081
1.71235
1.85374
1.97432
2.02171
2.03206
2.0232
2.01314
2.00104
1.98691
1.97186
1.95969
1.95091
1.94659
1.94451
1.94562
1.95276
1.96845
1.98817
2.01066
2.0307
2.04294
2.05079
2.04405
2.0384
2.03129
2.01663
2.00537
1.99513
1.98797
1.9814
1.97708
1.97391
1.97265
1.9719
1.97126
1.96997
1.968
1.96315
1.95901
1.95058
1.94531
1.93628
1.93086
1.92152
1.91582
1.90639
1.90084
1.89171
1.88635
1.87733
1.87195
1.86301
1.85767
1.84878
1.84345
1.83438
1.82908
1.82012
1.81524
1.80684
1.80258
1.7947
1.79078
1.78304
1.77919
1.77142
1.76794
1.76057
1.76056
2.18261
2.15218
2.11648
2.08073
2.0444
2.00716
1.97138
1.93566
1.90123
1.86807
1.8361
1.80529
1.77639
1.74842
1.72222
1.69755
1.67397
1.65259
1.63192
1.61354
1.59603
1.58082
1.56658
1.55535
1.54622
1.54387
1.5461
1.55191
1.56767
1.6052
1.67491
1.8131
1.93719
2.00355
2.02057
2.01451
2.00423
1.99224
1.97927
1.96368
1.94871
1.93485
1.9217
1.91043
1.90124
1.8961
1.89381
1.89526
1.90093
1.91507
1.93232
1.95242
1.97164
1.98725
1.99713
2.00007
1.99654
1.99173
1.98383
1.97493
1.96386
1.95732
1.95054
1.94632
1.94361
1.94255
1.94178
1.94095
1.93897
1.93647
1.93022
1.92542
1.91625
1.91033
1.90066
1.89467
1.88522
1.87965
1.87072
1.86564
1.85691
1.85177
1.84278
1.8374
1.8283
1.82293
1.81385
1.80856
1.79951
1.79443
1.78573
1.78121
1.7731
1.76909
1.76126
1.75737
1.74953
1.74602
1.73861
1.73857
2.1734
2.14262
2.11191
2.07737
2.04497
2.01086
1.97616
1.94312
1.90997
1.87765
1.84773
1.8168
1.7893
1.76128
1.73556
1.71096
1.68695
1.66566
1.64373
1.62554
1.60607
1.59089
1.57454
1.56294
1.55314
1.55333
1.55695
1.56784
1.59544
1.65516
1.77913
1.90456
1.98235
2.00749
2.00449
1.99562
1.98304
1.97156
1.95435
1.93876
1.92379
1.90936
1.8954
1.88204
1.87079
1.86117
1.85426
1.84971
1.84765
1.8489
1.85276
1.8643
1.88041
1.89967
1.92107
1.93937
1.95262
1.96101
1.96039
1.95779
1.95299
1.94551
1.93588
1.92917
1.92198
1.91869
1.91493
1.91342
1.91121
1.90947
1.90559
1.90249
1.8959
1.89173
1.88337
1.87819
1.86892
1.8633
1.85395
1.84868
1.83984
1.83503
1.82627
1.82127
1.81217
1.8069
1.79768
1.79247
1.78344
1.77837
1.76959
1.76478
1.75636
1.75201
1.74392
1.7399
1.73179
1.72806
1.72043
1.71959
2.16586
2.13753
2.10876
2.07712
2.04381
2.01312
1.98105
1.94793
1.91845
1.88567
1.85744
1.8282
1.79999
1.77471
1.74718
1.72495
1.6994
1.67901
1.6564
1.63755
1.61811
1.60119
1.58552
1.57235
1.5665
1.56994
1.5763
1.59668
1.6467
1.74493
1.87707
1.96938
1.99999
2.00104
1.99144
1.97881
1.9629
1.94395
1.92593
1.91095
1.89723
1.88429
1.87213
1.86089
1.84935
1.83877
1.82819
1.81942
1.81266
1.80736
1.80634
1.80713
1.80918
1.81607
1.82904
1.84645
1.86552
1.88613
1.90439
1.91718
1.92548
1.9226
1.91958
1.91513
1.90538
1.8969
1.88829
1.88434
1.88071
1.87977
1.87769
1.87596
1.87184
1.86856
1.86164
1.8575
1.84924
1.84456
1.83603
1.83123
1.82279
1.81823
1.81013
1.80562
1.79724
1.79219
1.78338
1.778
1.76926
1.76406
1.75576
1.75092
1.74296
1.7384
1.73053
1.72632
1.7184
1.71447
1.7071
1.70548
2.14904
2.12561
2.10169
2.07465
2.04442
2.01222
1.98491
1.95266
1.92367
1.89462
1.86429
1.83852
1.8093
1.78522
1.75889
1.73539
1.71256
1.68972
1.66985
1.64841
1.63106
1.61208
1.5981
1.5864
1.58649
1.59218
1.60776
1.64539
1.73003
1.86007
1.96253
1.99968
2.00074
1.99003
1.97278
1.95691
1.93665
1.92071
1.90413
1.8911
1.8776
1.86577
1.85352
1.84111
1.82907
1.8174
1.80676
1.79658
1.787
1.77816
1.77034
1.76352
1.76009
1.75849
1.75975
1.76433
1.77692
1.79233
1.81192
1.8341
1.85381
1.87141
1.88176
1.88626
1.88409
1.87999
1.87155
1.86565
1.85789
1.85355
1.84856
1.84655
1.84273
1.84041
1.83538
1.83209
1.82549
1.82181
1.8146
1.81068
1.80326
1.79902
1.79137
1.78705
1.7793
1.77462
1.76643
1.76122
1.75284
1.74759
1.73963
1.73487
1.72747
1.72327
1.71597
1.71197
1.70455
1.70066
1.69374
1.69224
2.13541
2.11195
2.08887
2.06748
2.04286
2.01295
1.98462
1.95758
1.92804
1.90125
1.87267
1.84569
1.81969
1.79312
1.76985
1.74479
1.72331
1.70066
1.68031
1.66052
1.64167
1.62524
1.61151
1.60731
1.61263
1.62473
1.65375
1.73504
1.84864
1.96092
2.0055
2.00799
1.99268
1.97645
1.95755
1.93896
1.91962
1.90397
1.88755
1.87402
1.85929
1.8455
1.83206
1.81972
1.80832
1.79702
1.78598
1.77448
1.76338
1.75217
1.74151
1.73192
1.72375
1.71847
1.71448
1.7141
1.71503
1.71745
1.72589
1.73903
1.75742
1.77979
1.8044
1.82718
1.84393
1.85539
1.85336
1.84875
1.84398
1.83671
1.82779
1.82282
1.81675
1.81401
1.80944
1.80695
1.80187
1.79892
1.793
1.7897
1.78305
1.77941
1.77213
1.76787
1.76015
1.75571
1.74791
1.74323
1.73533
1.73042
1.72263
1.71802
1.71065
1.70672
1.69969
1.69614
1.68908
1.68558
1.67879
1.6776
2.11832
2.09802
2.07372
2.05037
2.0321
2.00953
1.9837
1.95748
1.9316
1.90512
1.87951
1.8532
1.82808
1.80304
1.77857
1.75578
1.73245
1.71177
1.69029
1.6714
1.65292
1.63787
1.6301
1.63352
1.64395
1.6695
1.73193
1.84782
1.96425
2.0194
2.02298
2.00769
1.98808
1.96948
1.9461
1.92593
1.90581
1.88947
1.87226
1.858
1.84179
1.82822
1.81382
1.80103
1.78818
1.77609
1.76375
1.75184
1.73977
1.72838
1.71762
1.70815
1.69939
1.69146
1.68427
1.67799
1.67213
1.67025
1.66976
1.67082
1.67658
1.68991
1.70792
1.73171
1.75876
1.78602
1.80877
1.82394
1.82262
1.81904
1.81494
1.80728
1.79856
1.79369
1.78733
1.78435
1.77935
1.77661
1.77132
1.76847
1.76276
1.75962
1.75323
1.74966
1.74246
1.73819
1.73045
1.72593
1.71814
1.71355
1.7058
1.70137
1.69387
1.68996
1.68293
1.67952
1.67271
1.66953
1.66307
1.66207
2.10772
2.09171
2.06799
2.04276
2.02002
1.99872
1.97701
1.95461
1.93057
1.90677
1.88223
1.85872
1.83444
1.81146
1.78779
1.76554
1.74346
1.72205
1.70236
1.68285
1.66682
1.65604
1.65652
1.66568
1.68902
1.73832
1.85287
1.9749
2.03829
2.04438
2.02712
2.00752
1.98568
1.96095
1.93594
1.9147
1.89363
1.87641
1.85812
1.84333
1.82729
1.81433
1.79934
1.78585
1.77116
1.75763
1.74427
1.73202
1.7203
1.70945
1.69917
1.689
1.67912
1.66909
1.65946
1.6501
1.64207
1.63483
1.6295
1.62679
1.62593
1.62694
1.63123
1.64291
1.6602
1.68342
1.71434
1.7457
1.77525
1.79304
1.79327
1.79055
1.78613
1.77844
1.76966
1.76463
1.75785
1.75434
1.74892
1.74608
1.74116
1.73861
1.73348
1.73058
1.72455
1.72099
1.71376
1.70931
1.70158
1.69702
1.68938
1.68505
1.67766
1.67369
1.66671
1.66331
1.65675
1.65377
1.64771
1.64712
2.0787
2.07129
2.05964
2.03707
2.01528
1.99328
1.97092
1.94859
1.92615
1.90394
1.88192
1.85917
1.83721
1.81473
1.79353
1.77169
1.75105
1.73083
1.71151
1.6945
1.682
1.68071
1.68857
1.70883
1.75295
1.85642
1.98326
2.05832
2.06746
2.0504
2.02934
2.00755
1.97881
1.95292
1.92771
1.90588
1.88453
1.86615
1.84765
1.83199
1.81525
1.80068
1.78466
1.77023
1.75509
1.74086
1.72717
1.71423
1.70221
1.6907
1.67951
1.66862
1.6578
1.64735
1.6371
1.62738
1.61803
1.60928
1.60128
1.59408
1.5891
1.58519
1.58497
1.58626
1.58984
1.60056
1.61727
1.64127
1.67525
1.71116
1.74555
1.76402
1.76535
1.76267
1.75762
1.7498
1.74151
1.73649
1.72933
1.72553
1.71986
1.71702
1.71202
1.70948
1.70436
1.70145
1.69542
1.6917
1.68442
1.67996
1.67245
1.66818
1.661
1.65716
1.65031
1.64691
1.64045
1.63757
1.63161
1.63159
2.05323
2.05013
2.03935
2.02289
2.0054
1.98713
1.96723
1.9461
1.92445
1.90234
1.88039
1.85905
1.83788
1.81669
1.79581
1.77602
1.75576
1.73704
1.71997
1.70608
1.70304
1.71044
1.72851
1.76965
1.85772
1.9909
2.07814
2.09231
2.07463
2.05443
2.02947
1.99983
1.97045
1.9449
1.91999
1.8986
1.87737
1.85895
1.83987
1.82307
1.80484
1.78926
1.77196
1.75756
1.74162
1.72766
1.71295
1.6996
1.68645
1.67405
1.66201
1.65032
1.63897
1.62809
1.6176
1.60754
1.59781
1.58856
1.5798
1.57176
1.56438
1.55815
1.55362
1.54971
1.55002
1.55165
1.55456
1.5635
1.57998
1.60433
1.6399
1.68088
1.71935
1.73653
1.73867
1.73617
1.73086
1.7226
1.71489
1.70985
1.70237
1.69849
1.69275
1.6899
1.6846
1.68192
1.6765
1.67345
1.6672
1.66334
1.65608
1.65187
1.64472
1.64097
1.63427
1.63097
1.62459
1.62175
1.61576
1.61582
2.03458
2.03313
2.02538
2.00969
1.98871
1.97111
1.95519
1.93863
1.92023
1.90015
1.87932
1.8581
1.83799
1.81754
1.79793
1.77806
1.7602
1.74229
1.7286
1.72408
1.73123
1.74711
1.78401
1.86432
1.99749
2.09882
2.11843
2.10203
2.07971
2.05449
2.02101
1.99136
1.96297
1.9384
1.91438
1.89359
1.87214
1.85296
1.83272
1.81463
1.79563
1.77867
1.76047
1.7446
1.7277
1.71348
1.69861
1.68506
1.67105
1.65783
1.64502
1.63304
1.62172
1.61091
1.60052
1.59053
1.58086
1.57158
1.56262
1.55402
1.54586
1.53824
1.53118
1.52526
1.52051
1.51649
1.5169
1.51812
1.52052
1.52861
1.54508
1.57067
1.60607
1.6514
1.69501
1.70958
1.71215
1.70971
1.70492
1.6969
1.68922
1.6843
1.677
1.67306
1.66709
1.66401
1.65835
1.65547
1.64967
1.64642
1.6399
1.63599
1.629
1.62513
1.6185
1.61525
1.60906
1.60634
1.60053
1.60061
1.99296
2.01448
2.01404
2.00305
1.98593
1.9636
1.9445
1.92657
1.91048
1.89357
1.87598
1.8567
1.83712
1.81789
1.79861
1.7806
1.76294
1.74923
1.7426
1.74931
1.76502
1.79928
1.87656
2.00313
2.11335
2.14007
2.12443
2.10332
2.077
2.04376
2.01212
1.98429
1.95746
1.93384
1.91045
1.88903
1.86678
1.84647
1.82542
1.80659
1.78663
1.76886
1.74996
1.73371
1.71633
1.70158
1.68564
1.67191
1.65754
1.64445
1.63123
1.61899
1.60708
1.59588
1.58509
1.57468
1.56477
1.55511
1.54604
1.53729
1.52917
1.52143
1.51419
1.50748
1.50099
1.49566
1.49064
1.48678
1.48659
1.48735
1.48942
1.49724
1.51259
1.54176
1.57957
1.62448
1.67254
1.686
1.68793
1.68531
1.6805
1.67336
1.66569
1.66056
1.65321
1.64907
1.64278
1.63929
1.63333
1.63015
1.62416
1.62078
1.61436
1.61061
1.60395
1.60049
1.59427
1.59155
1.58584
1.58596
1.90814
1.98075
1.99076
1.988
1.97768
1.9589
1.93793
1.9187
1.90054
1.88455
1.86787
1.85227
1.83519
1.81739
1.79969
1.7832
1.76893
1.76166
1.76718
1.78236
1.8154
1.8906
2.01347
2.13145
2.1636
2.15052
2.12698
2.10154
2.06622
2.03483
2.00463
1.97773
1.95174
1.92862
1.90491
1.88299
1.86015
1.83945
1.81797
1.79856
1.77816
1.75984
1.74039
1.72338
1.70517
1.68997
1.6736
1.66011
1.64564
1.63308
1.61991
1.60765
1.59551
1.58403
1.57303
1.56246
1.5524
1.54273
1.5336
1.52483
1.51641
1.5083
1.50035
1.49268
1.48513
1.478
1.47113
1.46528
1.46022
1.45618
1.45642
1.45749
1.45986
1.46859
1.48439
1.51456
1.55778
1.60322
1.64945
1.66281
1.66455
1.6618
1.65659
1.64996
1.64248
1.63747
1.63013
1.62598
1.61959
1.61605
1.61003
1.60681
1.60081
1.59759
1.59129
1.58789
1.58146
1.57857
1.57261
1.57243
1.77167
1.93134
1.96317
1.96817
1.96353
1.95258
1.93342
1.91425
1.89544
1.87746
1.86097
1.84384
1.82847
1.81315
1.79878
1.78505
1.77903
1.78409
1.79963
1.83228
1.90799
2.02369
2.1523
2.18878
2.1778
2.15362
2.12589
2.08996
2.0558
2.02533
1.99606
1.97044
1.94544
1.92229
1.89823
1.87563
1.85263
1.8316
1.81012
1.7903
1.76965
1.75066
1.73119
1.71395
1.6964
1.68133
1.66525
1.65168
1.6367
1.6241
1.61044
1.5984
1.58569
1.57386
1.56225
1.55139
1.54101
1.53115
1.52165
1.51251
1.50363
1.49494
1.48646
1.47812
1.47007
1.46223
1.45484
1.44793
1.44146
1.43612
1.43149
1.42781
1.4283
1.42953
1.43216
1.4414
1.45793
1.48911
1.53472
1.58364
1.62727
1.6388
1.64092
1.63827
1.63343
1.62722
1.62003
1.61526
1.60804
1.60397
1.59751
1.59395
1.5878
1.58465
1.5787
1.5757
1.56966
1.56684
1.56099
1.56043
1.56491