/*--------------------------------*- C++ -*----------------------------------*\
| =========                 |                                                 |
| \\      /  F ield         | OpenFOAM: The Open Source CFD Toolbox           |
|  \\    /   O peration     | Version:  2112                                  |
|   \\  /    A nd           | Website:  www.openfoam.com                      |
|    \\/     M anipulation  |                                                 |
\*---------------------------------------------------------------------------*/
FoamFile
{
    version     2.0;
    format      ascii;
    arch        "LSB;label=32;scalar=64";
    class       volVectorField;
    location    "2.5";
    object      U;
}
// * * * * * * * * * * * * * * * * * * * * * * * * * * * * * * * * * * * * * //

dimensions      [0 1 -1 0 0 0 0];

internalField   nonuniform List<vector> 
5250
(
(3 5.95951e-09 0)
(2.99999 4.67579e-08 0)
(2.99997 1.43059e-07 0)
(2.99993 4.38819e-07 0)
(2.99981 1.02807e-06 0)
(2.99958 2.94183e-06 0)
(2.99888 5.95273e-06 0)
(2.99761 2.05228e-05 0)
(2.99311 3.40762e-05 0)
(2.98581 0.000148697 0)
(2.95656 0.000280589 0)
(2.89461 0.00104789 0)
(2.70456 0.00255433 0)
(2.09312 0.00845613 0)
(1.00005 0.0239668 0)
(0.335269 0.0235228 0)
(0.52698 0.0226701 0)
(0.58367 0.024633 0)
(0.52697 0.0269612 0)
(0.431317 0.0296395 0)
(0.343809 0.0326415 0)
(0.273727 0.0358427 0)
(0.20193 0.0389559 0)
(0.120061 0.0424016 0)
(0.0542276 0.0474676 0)
(3 1.82431e-08 0)
(2.99999 1.41964e-07 0)
(2.99997 4.3555e-07 0)
(2.99993 1.32573e-06 0)
(2.99981 3.09999e-06 0)
(2.99958 8.76732e-06 0)
(2.99889 1.7668e-05 0)
(2.99763 6.09069e-05 0)
(2.99321 9.60908e-05 0)
(2.98602 0.000440769 0)
(2.95728 0.000816334 0)
(2.89663 0.00304303 0)
(2.71029 0.00769996 0)
(2.11249 0.0249011 0)
(1.01799 0.0682604 0)
(0.348824 0.0673134 0)
(0.534873 0.0647624 0)
(0.589773 0.0680843 0)
(0.531037 0.072086 0)
(0.434354 0.0770006 0)
(0.346128 0.0822456 0)
(0.275075 0.087236 0)
(0.201982 0.0914208 0)
(0.118307 0.0951734 0)
(0.0513048 0.0988997 0)
(3 2.96234e-08 0)
(2.99999 2.30498e-07 0)
(2.99997 7.07725e-07 0)
(2.99993 2.14749e-06 0)
(2.99981 5.05239e-06 0)
(2.99959 1.39175e-05 0)
(2.99892 2.96134e-05 0)
(2.99767 9.1813e-05 0)
(2.99342 0.000160471 0)
(2.98642 0.000647102 0)
(2.95866 0.00121387 0)
(2.90072 0.00445058 0)
(2.72167 0.0113075 0)
(2.15001 0.0357741 0)
(1.05736 0.0959275 0)
(0.369607 0.110358 0)
(0.544254 0.112421 0)
(0.597233 0.117469 0)
(0.537882 0.123417 0)
(0.441796 0.131943 0)
(0.353587 0.141288 0)
(0.281559 0.150143 0)
(0.206974 0.157994 0)
(0.121213 0.164768 0)
(0.0514948 0.169686 0)
(3 3.94231e-08 0)
(2.99999 3.06962e-07 0)
(2.99997 9.4337e-07 0)
(2.99993 2.85728e-06 0)
(2.99982 6.75642e-06 0)
(2.9996 1.82467e-05 0)
(2.99896 4.03938e-05 0)
(2.99774 0.000113924 0)
(2.99367 0.000224518 0)
(2.9869 0.000777705 0)
(2.96036 0.00146549 0)
(2.90556 0.00536412 0)
(2.73473 0.0131888 0)
(2.19155 0.0409586 0)
(1.10604 0.108757 0)
(0.390409 0.155736 0)
(0.552199 0.164173 0)
(0.604409 0.168137 0)
(0.547498 0.17454 0)
(0.45439 0.186894 0)
(0.366674 0.200786 0)
(0.293425 0.214163 0)
(0.216923 0.226731 0)
(0.12805 0.23762 0)
(0.0538784 0.244448 0)
(3 4.63817e-08 0)
(2.99999 3.60288e-07 0)
(2.99997 1.10795e-06 0)
(2.99993 3.34646e-06 0)
(2.99983 7.90923e-06 0)
(2.99962 2.12452e-05 0)
(2.999 4.71189e-05 0)
(2.99783 0.000130491 0)
(2.99397 0.000265064 0)
(2.98746 0.000874968 0)
(2.96237 0.00165984 0)
(2.91104 0.00583779 0)
(2.74934 0.0150754 0)
(2.23726 0.0411686 0)
(1.17579 0.121862 0)
(0.432803 0.201666 0)
(0.563067 0.217029 0)
(0.611311 0.217335 0)
(0.559589 0.223479 0)
(0.471532 0.240917 0)
(0.384541 0.260177 0)
(0.310048 0.278633 0)
(0.23161 0.296632 0)
(0.138721 0.312679 0)
(0.0583355 0.322429 0)
(3 5.23753e-08 0)
(2.99999 4.05305e-07 0)
(2.99997 1.24597e-06 0)
(2.99994 3.74895e-06 0)
(2.99984 8.83056e-06 0)
(2.99963 2.35671e-05 0)
(2.99905 5.21259e-05 0)
(2.99792 0.000143157 0)
(2.99429 0.000287633 0)
(2.98807 0.000955073 0)
(2.96437 0.00174769 0)
(2.91733 0.00629337 0)
(2.76227 0.0163026 0)
(2.28609 0.041521 0)
(1.26995 0.134157 0)
(0.48929 0.244397 0)
(0.575659 0.270775 0)
(0.616355 0.26444 0)
(0.574198 0.270267 0)
(0.493927 0.294102 0)
(0.407541 0.320147 0)
(0.331772 0.34509 0)
(0.251403 0.370143 0)
(0.153782 0.393602 0)
(0.0652315 0.408833 0)
(3 6.36203e-08 0)
(2.99999 4.9165e-07 0)
(2.99997 1.51251e-06 0)
(2.99994 4.5431e-06 0)
(2.99984 1.07036e-05 0)
(2.99965 2.8403e-05 0)
(2.9991 6.30729e-05 0)
(2.99802 0.000169127 0)
(2.99464 0.000348739 0)
(2.98868 0.00108444 0)
(2.96669 0.0020285 0)
(2.92377 0.00709452 0)
(2.77665 0.0171495 0)
(2.3415 0.0482796 0)
(1.38223 0.143402 0)
(0.562624 0.290253 0)
(0.589364 0.315667 0)
(0.615936 0.309826 0)
(0.590648 0.320163 0)
(0.521326 0.346931 0)
(0.436008 0.380605 0)
(0.35961 0.413645 0)
(0.278373 0.448237 0)
(0.175907 0.482836 0)
(0.0765766 0.508837 0)
(3 7.93015e-08 0)
(2.99999 6.12867e-07 0)
(2.99998 1.88795e-06 0)
(2.99994 5.66384e-06 0)
(2.99986 1.33823e-05 0)
(2.99968 3.53337e-05 0)
(2.99916 7.89841e-05 0)
(2.99816 0.000206368 0)
(2.99505 0.000443958 0)
(2.98948 0.00124743 0)
(2.96926 0.00253551 0)
(2.93047 0.00782393 0)
(2.79394 0.0186124 0)
(2.40082 0.0553369 0)
(1.50792 0.150689 0)
(0.646113 0.338387 0)
(0.601431 0.352429 0)
(0.624108 0.353156 0)
(0.610173 0.371741 0)
(0.551663 0.400009 0)
(0.471531 0.440828 0)
(0.395561 0.484028 0)
(0.315176 0.531296 0)
(0.20953 0.582637 0)
(0.0959538 0.630972 0)
(3 1.01438e-07 0)
(2.99999 7.8012e-07 0)
(2.99998 2.40565e-06 0)
(2.99995 7.201e-06 0)
(2.99987 1.71101e-05 0)
(2.99971 4.49566e-05 0)
(2.99924 0.000101686 0)
(2.99833 0.000257736 0)
(2.99551 0.000586338 0)
(2.99043 0.00144614 0)
(2.97205 0.00329281 0)
(2.93765 0.00854355 0)
(2.813 0.020652 0)
(2.46303 0.059187 0)
(1.64421 0.153687 0)
(0.736566 0.382497 0)
(0.60952 0.389556 0)
(0.636601 0.393602 0)
(0.633271 0.419622 0)
(0.584572 0.45229 0)
(0.513978 0.499881 0)
(0.442323 0.555121 0)
(0.366374 0.617662 0)
(0.264187 0.695232 0)
(0.132709 0.790138 0)
(3 4.64035e-08 0)
(2.99999 1.22299e-06 0)
(2.99998 2.47762e-06 0)
(2.99996 1.08697e-05 0)
(2.99989 1.80208e-05 0)
(2.99975 6.99161e-05 0)
(2.99934 0.000100089 0)
(2.99856 0.000428185 0)
(2.99604 0.000464396 0)
(2.99175 0.00251612 0)
(2.97506 0.00175607 0)
(2.94538 0.01536 0)
(2.8326 0.0101177 0)
(2.52296 0.0885573 0)
(1.77845 0.152456 0)
(0.831273 0.431904 0)
(0.612051 0.429908 0)
(0.649613 0.43268 0)
(0.659403 0.462819 0)
(0.621091 0.502555 0)
(0.563422 0.556186 0)
(0.500913 0.62252 0)
(0.438479 0.706484 0)
(0.358003 0.830044 0)
(0.203493 1.04444 0)
(3 8.46723e-08 0)
(2.99999 6.60083e-07 0)
(2.99999 2.03108e-06 0)
(2.99996 6.13205e-06 0)
(2.99992 1.45275e-05 0)
(2.99978 3.86708e-05 0)
(2.99954 8.69436e-05 0)
(2.99863 0.0002281 0)
(2.99724 0.000500762 0)
(2.99152 0.0013739 0)
(2.98245 0.00291309 0)
(2.94514 0.00878934 0)
(2.86358 0.0201625 0)
(2.61459 0.0629603 0)
(1.85233 0.180448 0)
(0.961263 0.467448 0)
(0.623566 0.464665 0)
(0.669709 0.468523 0)
(0.693312 0.499589 0)
(0.664279 0.546143 0)
(0.619346 0.604816 0)
(0.5755 0.680755 0)
(0.54672 0.784476 0)
(0.549042 0.939675 0)
(0.590524 1.19102 0)
(3 1.28841e-07 0)
(2.99999 1.36905e-07 0)
(2.99999 1.70853e-06 0)
(2.99997 1.75029e-06 0)
(2.99991 1.18892e-05 0)
(2.99981 9.59961e-06 0)
(2.9995 7.88149e-05 0)
(2.99891 3.99989e-05 0)
(2.99699 0.000562692 0)
(2.99375 0.000306726 0)
(2.98124 0.00406674 0)
(2.95968 0.00296091 0)
(2.87734 0.0291802 0)
(2.66483 0.0462336 0)
(2.10891 0.185172 0)
(1.09002 0.506945 0)
(0.652909 0.510624 0)
(0.700869 0.514593 0)
(0.735212 0.536709 0)
(0.715483 0.58312 0)
(0.683116 0.644422 0)
(0.660904 0.726056 0)
(0.667581 0.837302 0)
(0.730683 0.989708 0)
(0.881711 1.18344 0)
(3 6.96698e-08 0)
(3 5.44491e-07 0)
(2.99999 1.6721e-06 0)
(2.99997 5.07811e-06 0)
(2.99992 1.19801e-05 0)
(2.99983 3.22851e-05 0)
(2.99956 7.20322e-05 0)
(2.99904 0.000195868 0)
(2.99747 0.000409173 0)
(2.99444 0.00127045 0)
(2.98474 0.00233747 0)
(2.96614 0.0086515 0)
(2.90246 0.0172343 0)
(2.73923 0.0622378 0)
(2.31255 0.154866 0)
(1.26784 0.467657 0)
(0.727999 0.541564 0)
(0.752563 0.56743 0)
(0.785933 0.577859 0)
(0.775955 0.618013 0)
(0.754263 0.678025 0)
(0.750572 0.757967 0)
(0.782225 0.862094 0)
(0.87131 0.989926 0)
(1.04597 1.11637 0)
(3 7.58031e-08 0)
(3 5.92931e-07 0)
(2.99999 1.82227e-06 0)
(2.99998 5.53407e-06 0)
(2.99994 1.31548e-05 0)
(2.99986 3.53216e-05 0)
(2.99964 8.00738e-05 0)
(2.99919 0.000209304 0)
(2.99789 0.000477779 0)
(2.99536 0.00120537 0)
(2.98733 0.00287796 0)
(2.97227 0.00698641 0)
(2.92005 0.017334 0)
(2.79047 0.0464293 0)
(2.44117 0.122799 0)
(1.44782 0.359757 0)
(0.815907 0.570337 0)
(0.794579 0.614738 0)
(0.822405 0.625332 0)
(0.832213 0.654456 0)
(0.82469 0.70777 0)
(0.834404 0.779325 0)
(0.879847 0.866779 0)
(0.975802 0.96499 0)
(1.14309 1.04851 0)
(3 6.8539e-08 0)
(3 5.34382e-07 0)
(2.99999 1.64331e-06 0)
(2.99998 4.97159e-06 0)
(2.99995 1.18026e-05 0)
(2.99989 3.14972e-05 0)
(2.99971 7.11997e-05 0)
(2.99937 0.000185131 0)
(2.9983 0.000418044 0)
(2.99645 0.00106212 0)
(2.98953 0.00247983 0)
(2.97836 0.00614875 0)
(2.93389 0.0147692 0)
(2.83273 0.0397603 0)
(2.54231 0.104773 0)
(1.65129 0.303419 0)
(0.940792 0.618947 0)
(0.822362 0.654268 0)
(0.846553 0.669096 0)
(0.872851 0.687073 0)
(0.884725 0.730965 0)
(0.906821 0.791871 0)
(0.959492 0.86279 0)
(1.05428 0.936352 0)
(1.20554 0.993983 0)
(3 5.56229e-08 0)
(3 4.30596e-07 0)
(2.99999 1.325e-06 0)
(2.99998 3.98207e-06 0)
(2.99996 9.41419e-06 0)
(2.99991 2.4911e-05 0)
(2.99976 5.58024e-05 0)
(2.99948 0.00014594 0)
(2.99862 0.000313507 0)
(2.99708 0.000879153 0)
(2.99154 0.00174811 0)
(2.98262 0.00556878 0)
(2.94684 0.0112921 0)
(2.86973 0.0370041 0)
(2.63709 0.0896531 0)
(1.89815 0.280353 0)
(1.11722 0.651615 0)
(0.860203 0.683492 0)
(0.872716 0.699483 0)
(0.906488 0.709965 0)
(0.935777 0.744986 0)
(0.968197 0.796635 0)
(1.02444 0.854558 0)
(1.11489 0.910461 0)
(1.24879 0.951578 0)
(3 4.88467e-08 0)
(3 3.78205e-07 0)
(2.99999 1.16476e-06 0)
(2.99999 3.50165e-06 0)
(2.99997 8.28938e-06 0)
(2.99993 2.19412e-05 0)
(2.99981 4.91924e-05 0)
(2.99958 0.000128293 0)
(2.99891 0.000278418 0)
(2.99764 0.000770619 0)
(2.99341 0.00153516 0)
(2.98638 0.00498659 0)
(2.95902 0.00959125 0)
(2.90195 0.0334793 0)
(2.72664 0.0788491 0)
(2.17197 0.251895 0)
(1.34086 0.646375 0)
(0.939865 0.711372 0)
(0.920394 0.725317 0)
(0.946419 0.732218 0)
(0.985545 0.755452 0)
(1.02413 0.797513 0)
(1.07975 0.844978 0)
(1.16334 0.88831 0)
(1.28099 0.918498 0)
(3 4.37634e-08 0)
(3 3.38715e-07 0)
(3 1.04322e-06 0)
(2.99999 3.13719e-06 0)
(2.99997 7.44112e-06 0)
(2.99994 1.97025e-05 0)
(2.99985 4.43883e-05 0)
(2.99967 0.000114948 0)
(2.99915 0.000254945 0)
(2.99813 0.000671127 0)
(2.99504 0.00144088 0)
(2.98939 0.00412138 0)
(2.96982 0.00845254 0)
(2.93045 0.0261523 0)
(2.80376 0.063998 0)
(2.42974 0.188669 0)
(1.64508 0.522322 0)
(1.06485 0.724362 0)
(0.989425 0.750377 0)
(0.998402 0.762137 0)
(1.03652 0.772462 0)
(1.07841 0.801066 0)
(1.13067 0.83752 0)
(1.20569 0.871126 0)
(1.30826 0.893784 0)
(3 2.48169e-08 0)
(3 3.26788e-07 0)
(3 8.07963e-07 0)
(2.99999 2.94187e-06 0)
(2.99998 5.8765e-06 0)
(2.99996 1.84345e-05 0)
(2.99989 3.53514e-05 0)
(2.99976 0.000107994 0)
(2.99937 0.000202295 0)
(2.99863 0.000633954 0)
(2.99628 0.00109961 0)
(2.99225 0.00384719 0)
(2.97697 0.00561527 0)
(2.95 0.0237206 0)
(2.84961 0.0375167 0)
(2.58118 0.151139 0)
(1.93901 0.35502 0)
(1.19798 0.746078 0)
(1.03733 0.781375 0)
(1.0385 0.796519 0)
(1.07543 0.797506 0)
(1.12357 0.809117 0)
(1.17561 0.834 0)
(1.24363 0.859302 0)
(1.33313 0.876159 0)
(3 1.75687e-08 0)
(3 2.38348e-07 0)
(3 5.81933e-07 0)
(2.99999 2.13726e-06 0)
(2.99999 4.20631e-06 0)
(2.99997 1.32695e-05 0)
(2.99993 2.49607e-05 0)
(2.99981 7.67009e-05 0)
(2.99959 0.000141741 0)
(2.99888 0.000443525 0)
(2.99771 0.00078245 0)
(2.99316 0.00271155 0)
(2.98605 0.00424645 0)
(2.95767 0.0178392 0)
(2.89814 0.028803 0)
(2.71402 0.118303 0)
(2.16987 0.288962 0)
(1.41512 0.738118 0)
(1.1051 0.807167 0)
(1.08407 0.820874 0)
(1.10927 0.820532 0)
(1.16054 0.819975 0)
(1.21611 0.834632 0)
(1.27887 0.852476 0)
(1.35731 0.864557 0)
(3 3.35218e-08 0)
(3 1.25048e-07 0)
(3 5.83874e-07 0)
(3 1.24319e-06 0)
(2.99999 4.05463e-06 0)
(2.99997 7.83044e-06 0)
(2.99994 2.39014e-05 0)
(2.99985 4.48158e-05 0)
(2.99968 0.000138244 0)
(2.99917 0.000244058 0)
(2.99817 0.000843243 0)
(2.99514 0.00128588 0)
(2.98956 0.00549069 0)
(2.97069 0.00767506 0)
(2.93234 0.0352845 0)
(2.81032 0.0650099 0)
(2.45722 0.236856 0)
(1.73131 0.592477 0)
(1.22056 0.810162 0)
(1.14603 0.835722 0)
(1.15303 0.843169 0)
(1.19826 0.837558 0)
(1.25461 0.841222 0)
(1.31279 0.85096 0)
(1.38182 0.858018 0)
(3 2.07149e-08 0)
(3 1.12825e-07 0)
(3 4.19744e-07 0)
(3 1.07715e-06 0)
(2.99999 2.96358e-06 0)
(2.99998 6.79735e-06 0)
(2.99996 1.76394e-05 0)
(2.99991 3.95001e-05 0)
(2.99976 0.000101396 0)
(2.99947 0.000225449 0)
(2.99858 0.000581292 0)
(2.99702 0.00128014 0)
(2.99139 0.00340326 0)
(2.98201 0.00733051 0)
(2.94708 0.0205994 0)
(2.86842 0.0494086 0)
(2.64063 0.139745 0)
(1.9904 0.410019 0)
(1.37711 0.791175 0)
(1.20048 0.848483 0)
(1.19289 0.86669 0)
(1.22912 0.862607 0)
(1.28657 0.854326 0)
(1.34343 0.854791 0)
(1.40566 0.85649 0)
(3 1.14162e-08 0)
(3 8.87946e-08 0)
(3 2.734e-07 0)
(3 8.23436e-07 0)
(2.99999 1.95138e-06 0)
(2.99999 5.16088e-06 0)
(2.99997 1.16021e-05 0)
(2.99992 2.99208e-05 0)
(2.99983 6.6315e-05 0)
(2.99957 0.00017235 0)
(2.99904 0.000372085 0)
(2.99749 0.0010281 0)
(2.9946 0.00208402 0)
(2.98496 0.00639641 0)
(2.96718 0.0132475 0)
(2.90584 0.0397735 0)
(2.7527 0.105333 0)
(2.33471 0.286765 0)
(1.58709 0.744718 0)
(1.27656 0.861789 0)
(1.23892 0.88432 0)
(1.25785 0.88679 0)
(1.3102 0.872867 0)
(1.36952 0.864438 0)
(1.42872 0.860657 0)
(3 1.39621e-08 0)
(3 5.41091e-08 0)
(3 2.46684e-07 0)
(3 5.39722e-07 0)
(3 1.72925e-06 0)
(2.99999 3.4472e-06 0)
(2.99998 1.03034e-05 0)
(2.99995 2.01527e-05 0)
(2.99987 5.94231e-05 0)
(2.99972 0.000115599 0)
(2.99929 0.000342316 0)
(2.99845 0.000659655 0)
(2.99586 0.00202254 0)
(2.9913 0.0036897 0)
(2.97493 0.0126403 0)
(2.9446 0.0224757 0)
(2.84098 0.0812387 0)
(2.56112 0.193198 0)
(1.92659 0.555478 0)
(1.40235 0.851185 0)
(1.29644 0.892066 0)
(1.29483 0.905777 0)
(1.33425 0.894767 0)
(1.39257 0.877755 0)
(1.45044 0.868719 0)
(3 6.38536e-09 0)
(3 4.95605e-08 0)
(3 1.52684e-07 0)
(3 4.59177e-07 0)
(3 1.08893e-06 0)
(2.99999 2.87359e-06 0)
(2.99998 6.47297e-06 0)
(2.99996 1.6619e-05 0)
(2.99991 3.69657e-05 0)
(2.9998 9.45279e-05 0)
(2.9995 0.000209137 0)
(2.99889 0.000540457 0)
(2.99713 0.00117134 0)
(2.99382 0.00321148 0)
(2.98283 0.00653027 0)
(2.96296 0.0202404 0)
(2.89306 0.0426216 0)
(2.71465 0.137736 0)
(2.26354 0.359723 0)
(1.58844 0.816129 0)
(1.35721 0.904869 0)
(1.33304 0.921636 0)
(1.35449 0.916837 0)
(1.40852 0.896292 0)
(1.46887 0.8803 0)
(3 3.76156e-09 0)
(3 4.11577e-08 0)
(3 1.09056e-07 0)
(3 3.72182e-07 0)
(3 7.85371e-07 0)
(3 2.31513e-06 0)
(2.99999 4.68394e-06 0)
(2.99998 1.33722e-05 0)
(2.99994 2.68218e-05 0)
(2.99987 7.60864e-05 0)
(2.99966 0.000151947 0)
(2.99925 0.000432917 0)
(2.99808 0.000852526 0)
(2.99577 0.00252525 0)
(2.98897 0.00463737 0)
(2.97492 0.0156932 0)
(2.93313 0.0270759 0)
(2.8295 0.101255 0)
(2.55271 0.225578 0)
(1.87062 0.659235 0)
(1.47306 0.881149 0)
(1.38915 0.919341 0)
(1.38838 0.930907 0)
(1.42785 0.916665 0)
(1.48535 0.891867 0)
(3 2.59251e-09 0)
(3 2.80694e-08 0)
(3 7.46331e-08 0)
(3 2.54122e-07 0)
(3 5.37031e-07 0)
(3 1.57807e-06 0)
(2.99999 3.19243e-06 0)
(2.99998 9.0832e-06 0)
(2.99996 1.81968e-05 0)
(2.99991 5.14576e-05 0)
(2.9998 0.000102658 0)
(2.99948 0.000291325 0)
(2.99887 0.000577873 0)
(2.99698 0.00166353 0)
(2.99373 0.00328207 0)
(2.98186 0.00971328 0)
(2.96134 0.019841 0)
(2.88666 0.0600097 0)
(2.70159 0.145082 0)
(2.22501 0.41664 0)
(1.62601 0.848549 0)
(1.4453 0.92531 0)
(1.42434 0.941626 0)
(1.4437 0.935478 0)
(1.49497 0.909232 0)
(3 2.91475e-09 0)
(3 1.57005e-08 0)
(3 5.84188e-08 0)
(3 1.49758e-07 0)
(3 4.09888e-07 0)
(3 9.37439e-07 0)
(3 2.41128e-06 0)
(2.99999 5.37669e-06 0)
(2.99998 1.36359e-05 0)
(2.99994 3.01753e-05 0)
(2.99986 7.64037e-05 0)
(2.99965 0.000168236 0)
(2.99923 0.000431351 0)
(2.99803 0.000925648 0)
(2.99567 0.00253218 0)
(2.98871 0.00510893 0)
(2.97455 0.0155974 0)
(2.9323 0.0323531 0)
(2.82684 0.102722 0)
(2.54806 0.2609 0)
(1.90187 0.691381 0)
(1.54505 0.899307 0)
(1.47453 0.936011 0)
(1.4728 0.945346 0)
(1.50883 0.929659 0)
(3 2.35746e-09 0)
(3 1.02329e-08 0)
(3 4.34218e-08 0)
(3 9.98744e-08 0)
(3 3.02158e-07 0)
(3 6.28272e-07 0)
(3 1.77419e-06 0)
(2.99999 3.61222e-06 0)
(2.99998 1.00395e-05 0)
(2.99996 2.03359e-05 0)
(2.99991 5.63671e-05 0)
(2.99977 0.000113778 0)
(2.9995 0.000316497 0)
(2.99873 0.000634812 0)
(2.99722 0.00179243 0)
(2.99268 0.00354787 0)
(2.98417 0.0103843 0)
(2.95657 0.0209684 0)
(2.89415 0.0640479 0)
(2.7186 0.14864 0)
(2.2098 0.449839 0)
(1.70721 0.843553 0)
(1.53475 0.928368 0)
(1.50993 0.948401 0)
(1.52486 0.945268 0)
(3 1.54187e-09 0)
(3 6.69761e-09 0)
(3 2.83828e-08 0)
(3 6.54337e-08 0)
(3 1.97576e-07 0)
(3 4.11648e-07 0)
(3 1.15951e-06 0)
(3 2.36523e-06 0)
(2.99999 6.55333e-06 0)
(2.99998 1.33039e-05 0)
(2.99994 3.67342e-05 0)
(2.99987 7.43801e-05 0)
(2.99966 0.000205829 0)
(2.99926 0.000415161 0)
(2.9981 0.00116258 0)
(2.99583 0.00231018 0)
(2.98916 0.00679112 0)
(2.97553 0.0130349 0)
(2.9353 0.0413709 0)
(2.83713 0.0912031 0)
(2.56198 0.277157 0)
(1.96559 0.688873 0)
(1.63152 0.898872 0)
(1.5598 0.941496 0)
(1.55414 0.953141 0)
(3 6.79526e-10 0)
(3 5.25691e-09 0)
(3 1.62047e-08 0)
(3 4.85225e-08 0)
(3 1.14928e-07 0)
(3 3.01123e-07 0)
(3 6.76574e-07 0)
(3 1.72078e-06 0)
(2.99999 3.81863e-06 0)
(2.99998 9.64832e-06 0)
(2.99996 2.13264e-05 0)
(2.99991 5.38746e-05 0)
(2.99978 0.000118779 0)
(2.99952 0.000301341 0)
(2.99879 0.000661671 0)
(2.99737 0.00170096 0)
(2.99312 0.00372948 0)
(2.98525 0.00978796 0)
(2.95934 0.0222838 0)
(2.90352 0.0599335 0)
(2.7397 0.152928 0)
(2.26762 0.436946 0)
(1.79235 0.834571 0)
(1.61905 0.930633 0)
(1.58986 0.954357 0)
(3 3.78372e-10 0)
(3 3.73901e-09 0)
(3 1.03227e-08 0)
(3 3.38329e-08 0)
(3 7.35876e-08 0)
(3 2.08551e-07 0)
(3 4.33014e-07 0)
(3 1.1874e-06 0)
(3 2.44088e-06 0)
(2.99999 6.63815e-06 0)
(2.99998 1.36117e-05 0)
(2.99995 3.69482e-05 0)
(2.99987 7.55901e-05 0)
(2.99971 0.000205561 0)
(2.99927 0.000418704 0)
(2.99839 0.0011509 0)
(2.99587 0.00230647 0)
(2.99103 0.00665495 0)
(2.97614 0.0127477 0)
(2.9454 0.040456 0)
(2.85358 0.0855577 0)
(2.58775 0.276612 0)
(2.07998 0.648155 0)
(1.7221 0.899306 0)
(1.64156 0.949523 0)
(3 2.85649e-10 0)
(3 2.20157e-09 0)
(3 6.79151e-09 0)
(3 2.02753e-08 0)
(3 4.80246e-08 0)
(3 1.2539e-07 0)
(3 2.81668e-07 0)
(3 7.13503e-07 0)
(3 1.58346e-06 0)
(2.99999 3.98099e-06 0)
(2.99999 8.80787e-06 0)
(2.99997 2.20966e-05 0)
(2.99992 4.88137e-05 0)
(2.99981 0.000122447 0)
(2.99958 0.000269943 0)
(2.99894 0.000679621 0)
(2.99769 0.00149083 0)
(2.99398 0.00382765 0)
(2.98703 0.00828385 0)
(2.96484 0.022367 0)
(2.91653 0.0509137 0)
(2.77487 0.143638 0)
(2.3835 0.39849 0)
(1.91577 0.79465 0)
(1.70943 0.927848 0)
(3 2.53235e-10 0)
(3 1.12755e-09 0)
(3 4.68703e-09 0)
(3 1.09929e-08 0)
(3 3.26009e-08 0)
(3 6.89413e-08 0)
(3 1.90567e-07 0)
(3 3.94147e-07 0)
(3 1.07069e-06 0)
(3 2.20417e-06 0)
(2.99999 5.95883e-06 0)
(2.99998 1.22539e-05 0)
(2.99995 3.30935e-05 0)
(2.99989 6.79734e-05 0)
(2.99973 0.00018396 0)
(2.99941 0.000376925 0)
(2.9985 0.00103046 0)
(2.99669 0.00208878 0)
(2.99153 0.00594193 0)
(2.98078 0.0117041 0)
(2.95031 0.0354722 0)
(2.87694 0.0779755 0)
(2.6718 0.23274 0)
(2.18845 0.590309 0)
(1.82953 0.883672 0)
(3 1.08919e-10 0)
(3 8.41045e-10 0)
(3 2.5941e-09 0)
(3 7.75334e-09 0)
(3 1.83594e-08 0)
(3 4.79549e-08 0)
(3 1.07641e-07 0)
(3 2.72677e-07 0)
(3 6.04437e-07 0)
(3 1.51993e-06 0)
(2.99999 3.35763e-06 0)
(2.99999 8.43127e-06 0)
(2.99997 1.85904e-05 0)
(2.99994 4.67327e-05 0)
(2.99984 0.000102848 0)
(2.99965 0.000259646 0)
(2.99912 0.000569722 0)
(2.99807 0.00145088 0)
(2.99503 0.0032088 0)
(2.98944 0.00818183 0)
(2.97124 0.0190145 0)
(2.93481 0.0483909 0)
(2.82473 0.12448 0)
(2.50781 0.346574 0)
(2.05511 0.737428 0)
(3 5.81588e-11 0)
(3 5.50176e-10 0)
(3 1.54581e-09 0)
(3 4.98099e-09 0)
(3 1.09796e-08 0)
(3 3.05912e-08 0)
(3 6.42733e-08 0)
(3 1.73126e-07 0)
(3 3.59919e-07 0)
(3 9.60821e-07 0)
(3 1.9932e-06 0)
(2.99999 5.30482e-06 0)
(2.99998 1.0999e-05 0)
(2.99996 2.92375e-05 0)
(2.99991 6.05507e-05 0)
(2.9998 0.000161061 0)
(2.99949 0.00033252 0)
(2.99889 0.000890698 0)
(2.99712 0.00181575 0)
(2.99398 0.00504906 0)
(2.98323 0.00985394 0)
(2.96435 0.0299431 0)
(2.90038 0.0615094 0)
(2.73405 0.194292 0)
(2.35892 0.474227 0)
(3 3.43639e-11 0)
(3 3.24336e-10 0)
(3 9.12978e-10 0)
(3 2.93913e-09 0)
(3 6.48572e-09 0)
(3 1.80368e-08 0)
(3 3.79135e-08 0)
(3 1.01874e-07 0)
(3 2.11796e-07 0)
(3 5.63884e-07 0)
(3 1.1695e-06 0)
(3 3.10388e-06 0)
(2.99999 6.43348e-06 0)
(2.99998 1.70499e-05 0)
(2.99995 3.53003e-05 0)
(2.99987 9.35698e-05 0)
(2.99972 0.000193157 0)
(2.99931 0.000515835 0)
(2.99849 0.0010476 0)
(2.99615 0.0029179 0)
(2.99171 0.00562376 0)
(2.97807 0.0173373 0)
(2.94992 0.0333282 0)
(2.86722 0.106481 0)
(2.6426 0.266738 0)
(3 3.3561e-11 0)
(3 1.54812e-10 0)
(3 6.29251e-10 0)
(3 1.49767e-09 0)
(3 4.35844e-09 0)
(3 9.32621e-09 0)
(3 2.52892e-08 0)
(3 5.28544e-08 0)
(3 1.40785e-07 0)
(3 2.92668e-07 0)
(3 7.75528e-07 0)
(3 1.61036e-06 0)
(2.99999 4.25883e-06 0)
(2.99999 8.83913e-06 0)
(2.99997 2.33614e-05 0)
(2.99993 4.8429e-05 0)
(2.99984 0.000128159 0)
(2.9996 0.000265047 0)
(2.99912 0.000706056 0)
(2.99779 0.00144718 0)
(2.99521 0.00397373 0)
(2.98745 0.00789805 0)
(2.9727 0.0230765 0)
(2.92653 0.0479631 0)
(2.81229 0.144486 0)
(3 1.95835e-11 0)
(3 9.11504e-11 0)
(3 3.69044e-10 0)
(3 8.80679e-10 0)
(3 2.55569e-09 0)
(3 5.48074e-09 0)
(3 1.48195e-08 0)
(3 3.10375e-08 0)
(3 8.24383e-08 0)
(3 1.71739e-07 0)
(3 4.53836e-07 0)
(3 9.44575e-07 0)
(3 2.49136e-06 0)
(2.99999 5.18535e-06 0)
(2.99998 1.36644e-05 0)
(2.99996 2.84313e-05 0)
(2.9999 7.49415e-05 0)
(2.99979 0.000155686 0)
(2.99948 0.000411746 0)
(2.99887 0.000851531 0)
(2.99709 0.0022862 0)
(2.99389 0.00465975 0)
(2.98321 0.0131215 0)
(2.96399 0.0267442 0)
(2.90092 0.0782648 0)
(3 7.92287e-12 0)
(3 6.11739e-11 0)
(3 1.88636e-10 0)
(3 5.62029e-10 0)
(3 1.32947e-09 0)
(3 3.45445e-09 0)
(3 7.73651e-09 0)
(3 1.94645e-08 0)
(3 4.30195e-08 0)
(3 1.07328e-07 0)
(3 2.36415e-07 0)
(3 5.88339e-07 0)
(3 1.29471e-06 0)
(3 3.21862e-06 0)
(2.99999 7.07883e-06 0)
(2.99998 1.759e-05 0)
(2.99995 3.86418e-05 0)
(2.99988 9.60844e-05 0)
(2.9997 0.000210629 0)
(2.99935 0.000527518 0)
(2.99839 0.00114068 0)
(2.99647 0.00296776 0)
(2.99107 0.00616367 0)
(2.97995 0.0173798 0)
(2.94892 0.0365449 0)
(3 4.14759e-12 0)
(3 3.77879e-11 0)
(3 1.07772e-10 0)
(3 3.41979e-10 0)
(3 7.62076e-10 0)
(3 2.08981e-09 0)
(3 4.43108e-09 0)
(3 1.17354e-08 0)
(3 2.45968e-08 0)
(3 6.45336e-08 0)
(3 1.349e-07 0)
(3 3.52836e-07 0)
(3 7.37173e-07 0)
(3 1.92524e-06 0)
(2.99999 4.02159e-06 0)
(2.99999 1.04941e-05 0)
(2.99997 2.19058e-05 0)
(2.99993 5.71695e-05 0)
(2.99984 0.000119117 0)
(2.99965 0.000311705 0)
(2.99912 0.000646798 0)
(2.99808 0.00170802 0)
(2.99516 0.0035315 0)
(2.98933 0.00949093 0)
(2.97276 0.0200998 0)
(3 2.34502e-12 0)
(3 2.10118e-11 0)
(3 6.01055e-11 0)
(3 1.90733e-10 0)
(3 4.25383e-10 0)
(3 1.16525e-09 0)
(3 2.47137e-09 0)
(3 6.53383e-09 0)
(3 1.36945e-08 0)
(3 3.58571e-08 0)
(3 7.49486e-08 0)
(3 1.95616e-07 0)
(3 4.0869e-07 0)
(3 1.06501e-06 0)
(3 2.22514e-06 0)
(2.99999 5.79211e-06 0)
(2.99998 1.20989e-05 0)
(2.99996 3.14792e-05 0)
(2.99992 6.56797e-05 0)
(2.99979 0.000171102 0)
(2.99955 0.000356194 0)
(2.99887 0.000933818 0)
(2.99754 0.00193236 0)
(2.99381 0.0051545 0)
(2.98613 0.0107731 0)
(3 1.88581e-12 0)
(3 1.01785e-11 0)
(3 3.76204e-11 0)
(3 9.64581e-11 0)
(3 2.61189e-10 0)
(3 5.95136e-10 0)
(3 1.50812e-09 0)
(3 3.34341e-09 0)
(3 8.33133e-09 0)
(3 1.83401e-08 0)
(3 4.54953e-08 0)
(3 9.99595e-08 0)
(3 2.47639e-07 0)
(3 5.43786e-07 0)
(3 1.34659e-06 0)
(3 2.95592e-06 0)
(2.99999 7.31958e-06 0)
(2.99998 1.60568e-05 0)
(2.99995 3.9786e-05 0)
(2.99989 8.71692e-05 0)
(2.99975 0.000216531 0)
(2.99939 0.000473446 0)
(2.99868 0.00118439 0)
(2.9967 0.00259182 0)
(2.99283 0.00655202 0)
(3 1.14195e-12 0)
(3 5.55791e-12 0)
(3 2.20875e-11 0)
(3 5.33011e-11 0)
(3 1.52062e-10 0)
(3 3.29357e-10 0)
(3 8.74291e-10 0)
(3 1.84723e-09 0)
(3 4.81331e-09 0)
(3 1.01086e-08 0)
(3 2.61968e-08 0)
(3 5.49423e-08 0)
(3 1.4209e-07 0)
(3 2.9797e-07 0)
(3 7.69637e-07 0)
(3 1.6143e-06 0)
(3 4.16501e-06 0)
(2.99999 8.73655e-06 0)
(2.99998 2.252e-05 0)
(2.99994 4.72068e-05 0)
(2.99987 0.000121679 0)
(2.99968 0.000254559 0)
(2.9993 0.000658335 0)
(2.99827 0.00136996 0)
(2.99626 0.00359736 0)
(3 6.07024e-13 0)
(3 2.97352e-12 0)
(3 1.19064e-11 0)
(3 2.87833e-11 0)
(3 8.20794e-11 0)
(3 1.77881e-10 0)
(3 4.7171e-10 0)
(3 9.96368e-10 0)
(3 2.59208e-09 0)
(3 5.44047e-09 0)
(3 1.40717e-08 0)
(3 2.94886e-08 0)
(3 7.60976e-08 0)
(3 1.59419e-07 0)
(3 4.10822e-07 0)
(3 8.60635e-07 0)
(3 2.21521e-06 0)
(2.99999 4.64022e-06 0)
(2.99999 1.1931e-05 0)
(2.99997 2.49757e-05 0)
(2.99993 6.41911e-05 0)
(2.99984 0.000134129 0)
(2.99961 0.000345377 0)
(2.99915 0.000718638 0)
(2.99787 0.00186964 0)
(3 2.34704e-13 0)
(3 1.87203e-12 0)
(3 5.71858e-12 0)
(3 1.70573e-11 0)
(3 4.03394e-11 0)
(3 1.04179e-10 0)
(3 2.32828e-10 0)
(3 5.80799e-10 0)
(3 1.27935e-09 0)
(3 3.16136e-09 0)
(3 6.93585e-09 0)
(3 1.70872e-08 0)
(3 3.74418e-08 0)
(3 9.21279e-08 0)
(3 2.01775e-07 0)
(3 4.96107e-07 0)
(3 1.08623e-06 0)
(3 2.66915e-06 0)
(2.99999 5.84205e-06 0)
(2.99998 1.43497e-05 0)
(2.99996 3.1385e-05 0)
(2.99991 7.71066e-05 0)
(2.99979 0.000168417 0)
(2.99954 0.000414904 0)
(2.99887 0.000902524 0)
(3 1.23915e-13 0)
(3 1.07409e-12 0)
(3 3.03826e-12 0)
(3 9.56372e-12 0)
(3 2.14583e-11 0)
(3 5.80627e-11 0)
(3 1.23624e-10 0)
(3 3.22458e-10 0)
(3 6.77741e-10 0)
(3 1.75022e-09 0)
(3 3.66572e-09 0)
(3 9.43586e-09 0)
(3 1.97427e-08 0)
(3 5.07496e-08 0)
(3 1.06148e-07 0)
(3 2.72635e-07 0)
(3 5.70149e-07 0)
(3 1.46347e-06 0)
(3 3.05969e-06 0)
(2.99999 7.85077e-06 0)
(2.99998 1.64019e-05 0)
(2.99995 4.21009e-05 0)
(2.99989 8.78153e-05 0)
(2.99976 0.000225928 0)
(2.99941 0.000469894 0)
(3 7.6703e-14 0)
(3 4.79712e-13 0)
(3 1.55528e-12 0)
(3 4.68144e-12 0)
(3 1.10697e-11 0)
(3 2.85822e-11 0)
(3 6.38642e-11 0)
(3 1.58793e-10 0)
(3 3.49595e-10 0)
(3 8.59758e-10 0)
(3 1.88455e-09 0)
(3 4.61828e-09 0)
(3 1.0109e-08 0)
(3 2.47321e-08 0)
(3 5.41028e-08 0)
(3 1.32202e-07 0)
(3 2.89084e-07 0)
(3 7.05517e-07 0)
(3 1.54213e-06 0)
(3 3.75856e-06 0)
(2.99999 8.21069e-06 0)
(2.99997 1.99845e-05 0)
(2.99994 4.36084e-05 0)
(2.99986 0.000106049 0)
(2.9997 0.000230979 0)
(3 3.0737e-14 0)
(3 1.60856e-13 0)
(3 8.07302e-13 0)
(3 1.82497e-12 0)
(3 5.56328e-12 0)
(3 1.14944e-11 0)
(3 3.18383e-11 0)
(3 6.38561e-11 0)
(3 1.72815e-10 0)
(3 3.43278e-10 0)
(3 9.2486e-10 0)
(3 1.82764e-09 0)
(3 4.92383e-09 0)
(3 9.68467e-09 0)
(3 2.61254e-08 0)
(3 5.11081e-08 0)
(3 1.38156e-07 0)
(3 2.6848e-07 0)
(3 7.27779e-07 0)
(3 1.40251e-06 0)
(2.99999 3.81616e-06 0)
(2.99998 7.275e-06 0)
(2.99996 1.99055e-05 0)
(2.99992 3.74085e-05 0)
(2.99979 0.000103333 0)
(3 -2.86529e-15 0)
(3 6.72298e-14 0)
(3 2.38883e-13 0)
(3 6.4473e-13 0)
(3 1.51764e-12 0)
(3 3.81136e-12 0)
(3 8.39548e-12 0)
(3 2.04661e-11 0)
(3 4.45553e-11 0)
(3 1.08259e-10 0)
(3 2.35694e-10 0)
(3 5.71396e-10 0)
(3 1.24291e-09 0)
(3 3.00307e-09 0)
(3 6.52348e-09 0)
(3 1.56988e-08 0)
(3 3.40455e-08 0)
(3 8.15312e-08 0)
(3 1.76428e-07 0)
(3 4.20029e-07 0)
(2.99999 9.06057e-07 0)
(2.99999 2.14265e-06 0)
(2.99997 4.60096e-06 0)
(2.99993 1.0803e-05 0)
(2.99982 2.30713e-05 0)
(1.27965 1.10023 0)
(1.71959 0.90218 0)
(1.92561 0.633998 0)
(1.9607 0.361111 0)
(1.90935 0.134172 0)
(1.80488 -0.016687 0)
(1.69693 -0.0562822 0)
(1.64064 -0.0239567 0)
(1.63011 0.0201416 0)
(1.63274 0.0422409 0)
(1.63474 0.0397554 0)
(1.63404 0.0276583 0)
(1.63135 0.0165692 0)
(1.62642 0.00855917 0)
(1.62075 0.00692229 0)
(1.61809 0.00905367 0)
(1.61823 0.0119753 0)
(1.61932 0.013638 0)
(1.62072 0.0136484 0)
(1.62254 0.0130075 0)
(1.62456 0.0116425 0)
(1.62656 0.0100401 0)
(1.62879 0.00878805 0)
(1.6314 0.00823854 0)
(1.63436 0.00806973 0)
(1.63732 0.00797168 0)
(1.63954 0.00808524 0)
(1.6409 0.00829627 0)
(1.64129 0.0086205 0)
(1.63914 0.00913905 0)
(1.63074 0.0101576 0)
(1.60774 0.0126721 0)
(1.55115 0.01884 0)
(1.41741 0.0330849 0)
(1.10396 0.0661327 0)
(0.530088 0.143641 0)
(0.0388833 0.212005 0)
(-0.269127 0.133486 0)
(-0.401123 0.0311513 0)
(-0.508062 -0.0183791 0)
(-0.527633 -0.0367795 0)
(-0.450589 -0.0518062 0)
(-0.347173 -0.0600982 0)
(-0.234812 -0.0643195 0)
(-0.118694 -0.0669004 0)
(-0.00560532 -0.0699981 0)
(0.107441 -0.0588488 0)
(0.196527 -0.0513323 0)
(0.279822 -0.0465142 0)
(0.35499 -0.0427585 0)
(0.423661 -0.0393075 0)
(0.485432 -0.0357408 0)
(0.543067 -0.0329797 0)
(0.600581 -0.0316122 0)
(0.657807 -0.0313654 0)
(0.712159 -0.0298785 0)
(0.763828 -0.0281651 0)
(0.813028 -0.0266044 0)
(0.860299 -0.025215 0)
(0.905924 -0.0238957 0)
(0.950105 -0.0226673 0)
(0.992829 -0.0214889 0)
(1.03418 -0.0203752 0)
(1.07416 -0.019293 0)
(1.1129 -0.0182553 0)
(1.15045 -0.0172426 0)
(1.18695 -0.0162727 0)
(1.22244 -0.0153324 0)
(1.257 -0.0144387 0)
(1.29066 -0.0135743 0)
(1.32346 -0.0127526 0)
(1.35541 -0.0119506 0)
(1.38655 -0.0111843 0)
(1.4169 -0.0104302 0)
(1.44651 -0.00971026 0)
(1.47539 -0.0090023 0)
(1.50359 -0.00832935 0)
(1.53113 -0.00766823 0)
(1.55804 -0.00704006 0)
(1.58435 -0.00642199 0)
(1.61007 -0.00583194 0)
(1.63522 -0.00524606 0)
(1.65984 -0.00470423 0)
(1.68392 -0.00419783 0)
(1.70748 -0.00373937 0)
(1.73051 -0.00329944 0)
(1.75305 -0.00291332 0)
(1.7751 -0.00256263 0)
(1.7967 -0.00226851 0)
(1.81782 -0.00203278 0)
(1.83851 -0.00179673 0)
(1.8588 -0.00151579 0)
(1.87874 -0.00120795 0)
(1.8983 -0.000901082 0)
(1.91744 -0.000602545 0)
(1.93603 -0.000295176 0)
(1.95382 4.36434e-05 0)
(1.97023 0.00048437 0)
(1.98379 0.00104947 0)
(1.99369 0.00199241 0)
(1.3615 1.01282 0)
(1.68733 0.734925 0)
(1.87101 0.421934 0)
(1.96053 0.149952 0)
(2.00893 -0.0452123 0)
(2.03522 -0.149823 0)
(2.04314 -0.160069 0)
(2.04133 -0.122626 0)
(2.02765 -0.076153 0)
(2.0051 -0.0391612 0)
(1.98683 -0.0187806 0)
(1.98128 -0.0125155 0)