/*--------------------------------*- C++ -*----------------------------------*\
| =========                 |                                                 |
| \\      /  F ield         | OpenFOAM: The Open Source CFD Toolbox           |
|  \\    /   O peration     | Version:  2112                                  |
|   \\  /    A nd           | Website:  www.openfoam.com                      |
|    \\/     M anipulation  |                                                 |
\*---------------------------------------------------------------------------*/
FoamFile
{
    version     2.0;
    format      ascii;
    arch        "LSB;label=32;scalar=64";
    class       volScalarField;
    location    "47";
    object      p;
}
// * * * * * * * * * * * * * * * * * * * * * * * * * * * * * * * * * * * * * //

dimensions      [0 2 -2 0 0 0 0];

internalField   nonuniform List<scalar> 
400
(
4.9178005e-10
-0.00067287548
-0.0013853534
-0.0019427114
-0.0022200043
-0.0021565009
-0.0017277964
-0.00092620583
0.00023541453
0.0017073984
0.0033872763
0.0051121811
0.0066734584
0.0078490808
0.0084583698
0.0084236714
0.0078133945
0.0068445245
0.0058613126
0.0052989609
0.00065783924
-4.0527979e-05
-0.00056966197
-0.00094062793
-0.0011108654
-0.0010399227
-0.00070579201
-9.5547578e-05
0.00078909531
0.0019161815
0.0032095794
0.0045546952
0.0057819506
0.0067162444
0.0072144149
0.0072145226
0.0067699495
0.0060527656
0.0053105305
0.0047384947
0.0014236966
0.00044064728
-0.00011660263
-0.00045324623
-0.00061481186
-0.00058481443
-0.00034658321
0.00011973951
0.00082845487
0.0017699025
0.0028942907
0.0040981682
0.005228244
0.0061109735
0.006593863
0.0065976502
0.0061557156
0.0054214889
0.004593735
0.0037482307
0.0020141912
0.00068168137
1.6765519e-05
-0.00035885696
-0.00057155387
-0.00062656521
-0.00051008835
-0.00019063611
0.00036849614
0.0011843796
0.0022299102
0.0034174309
0.0045913725
0.0055569435
0.0061235479
0.0061665438
0.0056835955
0.0048170273
0.0037472792
0.0024735906
0.0021672619
0.00049611054
-0.0002962654
-0.0007487105
-0.0010582583
-0.0012452771
-0.0012927572
-0.0011513121
-0.00075506314
-5.3117719e-05
0.00095700591
0.0022102695
0.0035447047
0.004732665
0.005521843
0.0057098745
0.0052292694
0.0042015878
0.0028061724
0.0009839514
0.001653953
-0.00031448776
-0.0012387958
-0.0017993081
-0.0022526678
-0.0026279157
-0.0028986306
-0.0029910967
-0.0028025572
-0.0022377043
-0.0012511278
0.00013086267
0.0017446307
0.0033271098
0.004541648
0.0050657755
0.0047174833
0.0035661841
0.0017895805
-0.00072593404
0.00028701518
-0.0019195794
-0.0029730078
-0.0036713917
-0.004320304
-0.0049532055
-0.0055301251
-0.0059479627
-0.0060590199
-0.0057074045
-0.0047757456
-0.0032587283
-0.0012665344
0.00090716613
0.0028231234
0.0039868302
0.0040250814
0.0028876919
0.00071536366
-0.0026805147
-0.0020764402
-0.0044512014
-0.0056268135
-0.0064923336
-0.0073929314
-0.0083657691
-0.0093569191
-0.010231778
-0.010790973
-0.010804854
-0.010063382
-0.0084617901
-0.0060407983
-0.0030832426
-0.00012632479
0.0021126072
0.0029638094
0.0021355629
-0.00036605154
-0.0048726269
-0.0055241787
-0.0079921252
-0.0092779309
-0.010333801
-0.011538015
-0.012935431
-0.01446271
-0.01595631
-0.017162458
-0.01776604
-0.0174381
-0.015919502
-0.013122991
-0.0092517886
-0.0048990327
-0.0010300377
0.001269389
0.0012777439
-0.0013339764
-0.0072016954
-0.010076924
-0.012565109
-0.013936677
-0.015184016
-0.0167184
-0.018602652
-0.020774223
-0.023048771
-0.025121685
-0.026586359
-0.026969371
-0.025812971
-0.022845707
-0.018074475
-0.012051115
-0.0059519761
-0.0013707614
0.00030057319
-0.0019472222
-0.0093822438
-0.015684998
-0.018132426
-0.01953757
-0.020926823
-0.02275776
-0.025129912
-0.027997054
-0.031166441
-0.034291488
-0.03687686
-0.038294193
-0.037844309
-0.035065886
-0.029601495
-0.02182252
-0.012985599
-0.0051849977
-0.00071577167
-0.0017642191
-0.010792275
-0.022243614
-0.024613048
-0.025945602
-0.027334973
-0.029324182
-0.032079254
-0.035588989
-0.039664709
-0.043927316
-0.047801325
-0.050530207
-0.051236508
-0.04895691
-0.043143577
-0.033769042
-0.021926366
-0.010036905
-0.0014154648
-9.886639e-06
-0.010225638
-0.029641243
-0.031923907
-0.032978745
-0.034079881
-0.035939535
-0.038831531
-0.042795639
-0.047651635
-0.05299059
-0.058163628
-0.062284277
-0.06426556
-0.06287519
-0.057112218
-0.04647677
-0.031649112
-0.015037884
-0.00086440985
0.0046467447
-0.0055215554
-0.037866046
-0.040048541
-0.040440134
-0.040752513
-0.042015073
-0.044653087
-0.048758205
-0.054144085
-0.060356076
-0.066665393
-0.072060728
-0.075268317
-0.074811394
-0.069269296
-0.057628334
-0.039961533
-0.018247993
0.0027890194
0.01444514
0.0069075314
-0.047230632
-0.049134408
-0.048140601
-0.046882282
-0.046905509
-0.048798722
-0.052668319
-0.058276038
-0.065076128
-0.072232029
-0.078595804
-0.082712356
-0.082880241
-0.077309419
-0.064523965
-0.043934978
-0.016748008
0.012502931
0.032938769
0.032408939
-0.05889682
-0.059639931
-0.055883978
-0.051941062
-0.049972307
-0.050629892
-0.053928685
-0.059495381
-0.066611892
-0.074285325
-0.081191198
-0.085679436
-0.085831828
-0.079522223
-0.064876125
-0.040689289
-0.0072409384
0.032139357
0.064981437
0.077749169
-0.076226531
-0.072613742
-0.063516265
-0.055435441
-0.050725029
-0.049781597
-0.05231236
-0.057664399
-0.064891854
-0.072775002
-0.079779396
-0.084036778
-0.083391685
-0.07534899
-0.057602699
-0.028375161
0.012933312
0.065396463
0.1155515
0.15150621
-0.10809227
-0.089556313
-0.071233879
-0.057233087
-0.049072186
-0.046330244
-0.048077287
-0.053202634
-0.060434654
-0.068295897
-0.075027426
-0.078526946
-0.076389038
-0.065809705
-0.043865506
-0.0078184693
0.044393653
0.11299814
0.18838041
0.27186076
-0.17684563
-0.10828967
-0.076202454
-0.054651255
-0.042992416
-0.038998065
-0.040570542
-0.045928073
-0.053441569
-0.061438391
-0.068027619
-0.070962592
-0.067551165
-0.054739865
-0.029148841
0.013563579
0.07814694
0.17006434
0.28949545
0.47421821
-0.3720837
-0.12470859
-0.054973104
-0.031962533
-0.022063578
-0.02030055
-0.024359488
-0.031958033
-0.041261593
-0.050640921
-0.058316935
-0.062187498
-0.059782587
-0.048056841
-0.022658556
0.021474185
0.092818703
0.21015275
0.40288841
0.77640927
)
;

boundaryField
{
    movingWall
    {
        type            zeroGradient;
    }
    fixedWalls
    {
        type            zeroGradient;
    }
    frontAndBack
    {
        type            empty;
    }
}


// ************************************************************************* //
