/*--------------------------------*- C++ -*----------------------------------*\
| =========                 |                                                 |
| \\      /  F ield         | OpenFOAM: The Open Source CFD Toolbox           |
|  \\    /   O peration     | Version:  2112                                  |
|   \\  /    A nd           | Website:  www.openfoam.com                      |
|    \\/     M anipulation  |                                                 |
\*---------------------------------------------------------------------------*/
FoamFile
{
    version     2.0;
    format      ascii;
    arch        "LSB;label=32;scalar=64";
    class       surfaceScalarField;
    location    "47";
    object      phi_0;
}
// * * * * * * * * * * * * * * * * * * * * * * * * * * * * * * * * * * * * * //

dimensions      [0 3 -1 0 0 0 0];

oriented        oriented;

internalField   nonuniform List<scalar> 
760
(
1.2703175e-05
-1.270318e-05
-2.8723014e-05
4.1426189e-05
-0.00012229196
9.3568943e-05
-0.0002503969
0.00012810494
-0.00039607664
0.00014567973
-0.00054539381
0.00014931717
-0.00068627532
0.00014088152
-0.00080689676
0.00012062144
-0.00089495767
8.8060905e-05
-0.00093839594
4.3438256e-05
-0.0009272795
-1.1116434e-05
-0.00085686605
-7.0413413e-05
-0.00073043217
-0.00012643382
-0.00056134339
-0.00016908869
-0.000372761
-0.00018858228
-0.00019447408
-0.00017828684
-5.6521757e-05
-0.00013795232
1.9614627e-05
-7.6136442e-05
3.0411412e-05
-1.0796862e-05
3.0411307e-05
-4.3182778e-05
3.0479598e-05
-0.00020456657
0.00020280998
-0.00046832586
0.00035732824
-0.00080071022
0.00046048931
-0.0011673542
0.0005123237
-0.0015364544
0.00051841733
-0.0018782336
0.0004826607
-0.0021636888
0.00040607671
-0.0023645513
0.00028892336
-0.0024553581
0.00013424514
-0.0024181507
-4.8323834e-05
-0.0022453654
-0.00024319868
-0.0019475621
-0.00042423702
-0.0015544729
-0.00056217772
-0.0011143234
-0.00062873182
-0.00068747562
-0.00060513471
-0.00033452575
-0.00049090227
-0.00010089659
-0.00030976563
-1.5518401e-06
-0.00011014167
2.8859429e-05
-0.00011002745
0.00014050705
-0.00040303342
0.00049581594
-0.00083139247
0.00078568729
-0.0013456245
0.00097472136
-0.0018986088
0.001065308
-0.0024465936
0.0010664021
-0.0029480473
0.00098411438
-0.0033626349
0.00082066429
-0.0036519072
0.00057819572
-0.0037823337
0.00026467159
-0.0037298381
-0.00010081952
-0.0034858241
-0.00048721277
-0.003063283
-0.00084677829
-0.0024999991
-0.0011254618
-0.0018582377
-0.0012704933
-0.0012181458
-0.0012452266
-0.00066373723
-0.0010453107
-0.00026308967
-0.00071041301
-4.7956269e-05
-0.00032527504
-1.9096847e-05
-0.00017344051
0.00031394756
-0.00059329587
0.0009156713
-0.0011777026
0.001370094
-0.0018583817
0.0016554005
-0.0025769248
0.0017838511
-0.0032813276
0.001770805
-0.0039228156
0.0016256024
-0.0044541592
0.0013520079
-0.0048302823
0.0009543188
-0.0050112548
0.000445644
-0.0049672712
-0.00014480315
-0.0046844459
-0.00077003831
-0.0041723587
-0.0013588656
-0.0034691331
-0.0018286874
-0.0026440134
-0.002095613
-0.0017932031
-0.0020960367
-0.0010258515
-0.0018126621
-0.0004402152
-0.0012960492
-9.672388e-05
-0.00066876637
-0.00011582074
-0.0002297969
0.00054374446
-0.00076507935
0.0014509538
-0.0014914945
0.0020965091
-0.0023225616
0.0024864676
-0.0031901593
0.0026514488
-0.0040368453
0.002617491
-0.0048100625
0.0023988196
-0.0054589922
0.0020009376
-0.0059342094
0.001429536
-0.0061898396
0.00070127425
-0.0061884188
-0.00014622387
-0.0059055876
-0.0010528695
-0.0053404225
-0.0019240308
-0.0045231203
-0.0026459896
-0.0035229796
-0.0030957538
-0.0024498068
-0.0031692096
-0.0014425404
-0.0028199284
-0.0006412316
-0.002097358
-0.00014883697
-0.001161161
-0.00026465772
-0.00027729945
0.0008210439
-0.00091155226
0.0020852066
-0.0017607402
0.0029456971
-0.0027228235
0.0034485508
-0.0037222306
0.003650856
-0.0046987179
0.0035939782
-0.0055989172
0.0032990189
-0.0063712188
0.0027732392
-0.0069637566
0.002022074
-0.0073248639
0.0010623817
-0.007407485
-6.3602591e-05
-0.0071717149
-0.0012886394
-0.0065989026
-0.0024968431
-0.0057016891
-0.0035432033
-0.0045400248
-0.0042574182
-0.0032318455
-0.0044773889
-0.0019490223
-0.0041027517
-0.0008872882
-0.0031590921
-0.00021159432
-0.0018368549
-0.00047625204
-0.00031411698
0.0011351609
-0.0010263422
0.0027974318
-0.0019735138
0.0038928686
-0.0030417629
0.0045168
-0.004150728
0.0047598211
-0.0052399573
0.0046832075
-0.0062580884
0.00431715
-0.0071555418
0.0036706925
-0.0078803838
0.0027469161
-0.0083768583
0.0015588562
-0.0085854044
0.00014494357
-0.008451333
-0.0014227107
-0.0079295104
-0.0030186657
-0.0070049722
-0.0044677415
-0.0057150497
-0.0055473409
-0.0041735849
-0.0060188538
-0.0025818464
-0.0056944901
-0.0012041054
-0.0045368331
-0.00029450418
-0.0027464562
-0.00077075623
-0.00033824893
0.0014734098
-0.0011031704
0.0035623533
-0.0021176364
0.0049073346
-0.0032598928
0.0056590564
-0.0044474108
0.0059473391
-0.005621966
0.0058577626
-0.006736953
0.0054321369
-0.0077479709
0.0046817102
-0.0086063781
0.0036053232
-0.0092552539
0.0022077321
-0.0096270172
0.00051670684
-0.0096492082
-0.0014005197
-0.0092489827
-0.0034188911
-0.0083739452
-0.0053427788
-0.0070220745
-0.0068992116
-0.0052818154
-0.0077591129
-0.003367668
-0.0076086375
-0.0016173639
-0.0062871371
-0.00040826908
-0.003955551
-0.0011790253
-0.00034815636
0.0018215662
-0.0011372156
0.0043514125
-0.0021827895
0.0059529085
-0.0033586213
0.0068348882
-0.0045822442
0.007170962
-0.0057998238
0.0070753424
-0.0069721964
0.0066045094
-0.0080636696
0.0057731833
-0.0090334432
0.0045750966
-0.009828995
0.0030032839
-0.010381276
0.0010689875
-0.010604527
-0.0011772684
-0.010400779
-0.003622639
-0.0096748969
-0.0060686608
-0.0083686765
-0.008205432
-0.006515687
-0.0096121024
-0.0043098859
-0.0098144385
-0.0021483241
-0.008448699
-0.00056492554
-0.0055389496
-0.0017439509
-0.00034393492
0.0021655011
-0.00112786
0.0051353376
-0.0021647105
0.006989759
-0.0033259031
0.0079960808
-0.0045308038
0.0083758627
-0.0057319457
0.0082764844
-0.0069002226
0.0077727864
-0.0080123826
0.0068853431
-0.0090408271
0.0056035409
-0.0099449677
0.0039074244
-0.010663395
0.0017874152
-0.011106746
-0.0007339176
-0.011163421
-0.0035659643
-0.010697129
-0.006534953
-0.0095826002
-0.0093199604
-0.0077667782
-0.011427924
-0.0053715022
-0.012209715
-0.0028071794
-0.011013022
-0.0007783692
-0.0075677598
-0.0025223201
-0.00032890794
0.002494409
-0.0010824215
0.0058888512
-0.0020707773
0.0079781148
-0.0031636133
0.0090889167
-0.0042839024
0.0094961519
-0.0053928539
0.009385436
-0.0064741408
0.0088540735
-0.0075205483
0.0079317507
-0.0085229181
0.0066059106
-0.0094603448
0.004844851
-0.010291332
0.0026184024
-0.010933227
-9.2022643e-05
-0.011283212
-0.0032159793
-0.011173633
-0.0066445316
-0.010415714
-0.01007788
-0.0088467368
-0.012996902
-0.0064557547
-0.014600697
-0.0035815275
-0.013887249
-0.0010642231
-0.010085064
-0.0035865431
-0.00031178405
0.002806193
-0.0010206788
0.0065977459
-0.0019260999
0.0088835359
-0.0028949489
0.010057766
-0.0038568827
0.010458086
-0.0047855634
0.010314117
-0.0056807662
0.0097492765
-0.0065544553
0.00880544
-0.0074198888
0.0074713442
-0.0082818244
0.0057067864
-0.0091251548
0.0034617327
-0.0099086389
0.00069146141
-0.010527256
-0.0025973624
-0.010827013
-0.0063447743
-0.010573628
-0.010331265
-0.0094932085
-0.014077321
-0.0073911391
-0.016702766
-0.0044189149
-0.016859473
-0.0014372118
-0.013066767
-0.0050237549
-0.00031004251
0.0031162356
-0.00098036403
0.0072680673
-0.0017790479
0.0096822196
-0.0025693649
0.010848083
-0.0032945943
0.011183315
-0.0039478952
0.010967417
-0.0045499686
0.01035135
-0.0051347836
0.0093902552
-0.0057399179
0.0080764787
-0.0063985222
0.0063653906
-0.0071301247
0.0041933352
-0.0079302567
0.0014915934
-0.0087388035
-0.0017888156
-0.0094303568
-0.0056532209
-0.0097685795
-0.0099930424
-0.0094003426
-0.014445558
-0.007930579
-0.01817253
-0.0052061613
-0.019583891
-0.0019026121
-0.016370317
-0.006926367
-0.00035603974
0.0034722755
-0.0010239958
0.0079360235
-0.0017042284
0.010362452
-0.0022607961
0.01140465
-0.0026657185
0.011588238
-0.0029440059
0.011245705
-0.0031442448
0.010551588
-0.0033248624
0.0095708726
-0.0035471875
0.008298804
-0.0038710403
0.0066892436
-0.0043491656
0.0046714605
-0.0050183753
0.0021608031
-0.0058766085
-0.00093058231
-0.0068578315
-0.0046719979
-0.0077762853
-0.0090745886
-0.0082658332
-0.01395601
-0.0077687388
-0.018669624
-0.005751099
-0.021601531
-0.0024366711
-0.019684744
-0.0093630381
-0.0005082606
0.0039805361
-0.0012456298
0.008673393
-0.0017958811
0.010912703
-0.0020479957
0.011656764
-0.0020325017
0.011572744
-0.001825421
0.011038624
-0.001512187
0.010238355
-0.0011778546
0.0092365401
-0.0009047081
0.0080256574
-0.00077371564
0.0065582511
-0.00086348615
0.0047612311
-0.0012473542
0.0025446712
-0.0019828289
-0.00019510764
-0.0030818655
-0.0035729613
-0.0044600292
-0.0076964248
-0.0058274849
-0.012588554
-0.0065661622
-0.017930947
-0.005768446
-0.022399247
-0.0029512247
-0.022501966
-0.012314263
-0.00086855286
0.0048490889
-0.0017629816
0.0095678219
-0.0021213512
0.011271073
-0.001936839
0.011472252
-0.0013509133
0.010986818
-0.00051618206
0.010203893
0.00043705323
0.0092851195
0.0013996265
0.0082739669
0.00227239
0.0071528939
0.0029609282
0.0058697128
0.0033691624
0.0043529968
0.0033968098
0.0025170238
0.0029385543
0.00026314786
0.001909618
-0.002544025
0.00026969034
-0.0060564972
-0.0018541592
-0.010464705
-0.003951593
-0.015833513
-0.0048608327
-0.021490007
-0.0032547029
-0.024108096
-0.015568966
-0.0015910834
0.0064401722
-0.0026108516
0.01058759
-0.0025131322
0.011173355
-0.0015898993
0.010549019
-0.00017216096
0.009569079
0.0014928125
0.0085389192
0.0032329106
0.0075450213
0.0049232508
0.0065836268
0.0064630097
0.005613135
0.0077575135
0.004575209
0.008707518
0.0034029922
0.0092015047
0.0020230371
0.0091033481
0.00036130444
0.0082750957
-0.0017157725
0.0065654643
-0.0043468658
0.0039042379
-0.0078034782
0.0005589562
-0.012488231
-0.0024680531
-0.018462998
-0.0030273162
-0.023548832
-0.018596282
-0.0027183588
0.0091585313
-0.0031498652
0.011019095
-0.0018029962
0.0098264864
0.00046670637
0.0082793178
0.0030894306
0.0069463553
0.0057738197
0.00585453
0.0083629079
0.0049559331
0.010760406
0.0041861286
0.012893501
0.0034800397
0.014690669
0.0027780414
0.016068353
0.0020253083
0.01692329
0.0011680995
0.017119717
0.00016487742
0.016490832
-0.0010868876
0.014816842
-0.0026728755
0.011846659
-0.0048332947
0.0074354936
-0.0080770663
0.0022629302
-0.013290435
-0.001272466
-0.020013436
-0.019868748
-0.0024132786
0.011571811
2.8056857e-05
0.0085777576
0.0042551383
0.0055994037
0.0084161234
0.0041183323
0.012231487
0.003130992
0.015656267
0.0024297503
0.018686551
0.0019256492
0.021329194
0.001543485
0.023583495
0.0012257394
0.025429229
0.00093230677
0.026820172
0.0006343656
0.027677182
0.00031108897
0.027900206
-5.8145933e-05
0.027347226
-0.00053390764
0.025771633
-0.0010972823
0.022843048
-0.0019047096
0.018054771
-0.0032887893
0.011113587
-0.0063492511
0.0033886755
-0.012288525
-0.016480072
0.011571812
0.02014957
0.025748973
0.029867306
0.032998298
0.035428048
0.037353697
0.038897182
0.040122922
0.041055228
0.041689594
0.042000683
0.041942537
0.041408629
0.040311347
0.038406637
0.035117848
0.028768597
0.016480072
)
;

boundaryField
{
    movingWall
    {
        type            calculated;
        value           uniform 0;
    }
    fixedWalls
    {
        type            calculated;
        value           uniform 0;
    }
    frontAndBack
    {
        type            empty;
        value           nonuniform List<scalar> 0();
    }
}


// ************************************************************************* //
