/*--------------------------------*- C++ -*----------------------------------*\
| =========                 |                                                 |
| \\      /  F ield         | OpenFOAM: The Open Source CFD Toolbox           |
|  \\    /   O peration     | Version:  2112                                  |
|   \\  /    A nd           | Website:  www.openfoam.com                      |
|    \\/     M anipulation  |                                                 |
\*---------------------------------------------------------------------------*/
FoamFile
{
    version     2.0;
    format      ascii;
    arch        "LSB;label=32;scalar=64";
    class       volScalarField;
    location    "9.5";
    object      Ma;
}
// * * * * * * * * * * * * * * * * * * * * * * * * * * * * * * * * * * * * * //

dimensions      [0 0 0 0 0 0 0];

internalField   nonuniform List<scalar> 
5250
(
2.99998
2.99995
2.99981
2.99962
2.99886
2.99778
2.99347
2.9869
2.9638
2.91719
2.79582
2.47885
1.86657
0.86046
0.367391
0.345179
0.354431
0.343597
0.307162
0.253846
0.206112
0.165303
0.123559
0.0773498
0.0434815
2.99998
2.99995
2.99982
2.99963
2.99888
2.99782
2.99363
2.9871
2.96455
2.91779
2.79859
2.48224
1.87816
0.869681
0.374556
0.346827
0.3559
0.345251
0.309398
0.257123
0.210549
0.171077
0.131579
0.0907995
0.0670563
2.99998
2.99995
2.99982
2.99965
2.99892
2.99789
2.99388
2.98747
2.96582
2.91934
2.80367
2.49065
1.90149
0.889598
0.390552
0.350604
0.35957
0.34987
0.315845
0.26616
0.222444
0.186576
0.152508
0.120887
0.106051
2.99998
2.99995
2.99983
2.99966
2.99897
2.99799
2.9942
2.98798
2.96739
2.92205
2.81048
2.5049
1.9351
0.920465
0.41491
0.355349
0.364777
0.357293
0.32616
0.280284
0.240583
0.2096
0.18188
0.158189
0.148511
2.99999
2.99996
2.99984
2.99968
2.99903
2.9981
2.99455
2.98863
2.96928
2.92601
2.81975
2.52524
1.9813
0.965741
0.449013
0.361252
0.37196
0.367923
0.339985
0.298686
0.26364
0.237862
0.216267
0.199039
0.193041
2.99999
2.99996
2.99985
2.99971
2.9991
2.99824
2.99495
2.9894
2.97147
2.93099
2.83178
2.55364
2.04341
1.03283
0.496164
0.370039
0.382724
0.382985
0.358189
0.321732
0.291719
0.271317
0.255744
0.24446
0.242139
2.99999
2.99996
2.99987
2.99973
2.99917
2.99838
2.99535
2.99025
2.97372
2.9366
2.84493
2.5886
2.11222
1.12608
0.555459
0.381696
0.397523
0.40286
0.381042
0.349431
0.324348
0.309451
0.300338
0.296019
0.299413
2.99999
2.99997
2.99988
2.99975
2.99925
2.99853
2.99577
2.99121
2.97616
2.94318
2.85995
2.63032
2.19412
1.25102
0.628381
0.398747
0.417843
0.428342
0.409009
0.38244
0.362412
0.353395
0.351322
0.355943
0.369985
2.99999
2.99997
2.99989
2.99978
2.99932
2.99868
2.99614
2.99221
2.9785
2.95081
2.87642
2.678
2.28911
1.41089
0.716652
0.42958
0.449903
0.462162
0.444221
0.421455
0.40595
0.402607
0.40956
0.428712
0.465875
2.99999
2.99998
2.99991
2.99981
2.99943
2.99888
2.99679
2.99337
2.98204
2.95812
2.89557
2.72818
2.39551
1.61264
0.82021
0.48042
0.498034
0.506685
0.490441
0.469992
0.457398
0.458485
0.477995
0.523662
0.624759
3
2.99997
2.99994
2.99979
2.99958
2.99876
2.99753
2.9929
2.9854
2.96025
2.90874
2.77446
2.44691
1.76834
0.888628
0.520904
0.534188
0.543739
0.536374
0.520569
0.512772
0.521411
0.55745
0.638343
0.803216
3
2.99998
2.99993
2.99986
2.99956
2.99913
2.99744
2.99491
2.98564
2.96958
2.91913
2.80333
2.53989
1.91169
1.034
0.588961
0.56497
0.574966
0.576964
0.568597
0.567631
0.585094
0.63373
0.727744
0.888373
3
2.99999
2.99994
2.99988
2.99961
2.99924
2.99774
2.99561
2.98719
2.97412
2.9292
2.83465
2.60548
2.04325
1.19367
0.672265
0.582805
0.597252
0.608829
0.612095
0.619415
0.643881
0.69673
0.784427
0.913589
3
2.99999
2.99995
2.9999
2.99968
2.99937
2.99814
2.99636
2.98964
2.97841
2.94223
2.86033
2.67059
2.16877
1.37449
0.763963
0.599227
0.615788
0.63576
0.650413
0.665831
0.694376
0.744811
0.820731
0.926714
3
2.99999
2.99996
2.99991
2.99973
2.99947
2.99842
2.99693
2.991
2.9821
2.95018
2.88937
2.72593
2.32855
1.59182
0.876074
0.632412
0.643733
0.663741
0.68564
0.706453
0.736836
0.784439
0.848775
0.936387
3
3
2.99997
2.99993
2.99978
2.99957
2.99872
2.99751
2.99271
2.98556
2.95944
2.91313
2.77575
2.47898
1.81817
1.00232
0.686485
0.681736
0.69892
0.7208
0.742695
0.772293
0.817391
0.874679
0.946488
3
3
2.99998
2.99995
2.99983
2.99966
2.99899
2.99804
2.99426
2.98862
2.96852
2.93018
2.82603
2.5616
2.04124
1.13079
0.751957
0.713096
0.730698
0.751067
0.774311
0.802261
0.842472
0.894717
0.956026
3
3
2.99998
2.99996
2.99987
2.99974
2.99922
2.99848
2.99561
2.99112
2.97579
2.94457
2.86214
2.64369
2.22449
1.3418
0.861627
0.742053
0.75445
0.773646
0.799512
0.828493
0.86396
0.910219
0.964107
3.00001
3
2.99999
2.99997
2.9999
2.9998
2.9994
2.99882
2.99659
2.99315
2.98122
2.95798
2.89359
2.72812
2.3955
1.6321
1.01246
0.791967
0.784131
0.797557
0.821623
0.850296
0.881649
0.920859
0.967826
3.00001
3
3
2.99997
2.99994
2.99981
2.99962
2.99888
2.99778
2.99363
2.98706
2.96451
2.92214
2.80123
2.53766
1.92561
1.16694
0.858354
0.821596
0.829926
0.848107
0.872362
0.898288
0.929656
0.967834
3.00001
3
3
2.99998
2.99996
2.99986
2.99972
2.99916
2.99835
2.99523
2.99046
2.97381
2.94188
2.85464
2.63613
2.18555
1.36897
0.94847
0.853091
0.855956
0.870043
0.8904
0.91371
0.938343
0.965114
3.00001
3.00001
3
2.99999
2.99996
2.99992
2.99974
2.99949
2.99851
2.99703
2.99155
2.9826
2.95316
2.89164
2.73633
2.36305
1.63992
1.08504
0.901279
0.88355
0.890061
0.904908
0.924012
0.942054
0.957817
3.00001
3.00001
3
2.99999
2.99998
2.99993
2.99985
2.99957
2.99913
2.99752
2.995
2.98631
2.97034
2.92321
2.81189
2.56713
1.99975
1.25102
0.963564
0.919123
0.914767
0.920945
0.931359
0.939358
0.945413
3.00001
3.00001
3
3
2.99998
2.99996
2.99987
2.99975
2.99926
2.99853
2.99592
2.99133
2.97724
2.94554
2.86793
2.66065
2.26308
1.45775
1.04771
0.939261
0.930201
0.931871
0.934654
0.933283
0.930205
3.00001
3.00001
3
3
2.99999
2.99997
2.99991
2.99981
2.99944
2.99892
2.99681
2.9938
2.98244
2.96327
2.90414
2.76643
2.47384
1.80033
1.19847
0.97724
0.945167
0.936622
0.930599
0.922799
0.914206
3.00001
3.00001
3.00001
3
3
2.99998
2.99994
2.99987
2.99961
2.99923
2.99776
2.99562
2.9875
2.97444
2.93149
2.8392
2.62437
2.10235
1.37445
1.03042
0.952129
0.929816
0.917214
0.905563
0.894606
3.00001
3.00001
3.00001
3
3
2.99999
2.99997
2.99989
2.99978
2.99936
2.99873
2.99645
2.99262
2.98042
2.95437
2.8877
2.71361
2.36927
1.62327
1.13279
0.953775
0.908074
0.892087
0.881347
0.872957
3.00001
3.00001
3.00001
3
3
2.99999
2.99998
2.99992
2.99984
2.99952
2.99907
2.99726
2.99469
2.98472
2.96907
2.91772
2.81103
2.55183
1.99141
1.27761
0.967051
0.880551
0.85758
0.849671
0.847344
3.00001
3.00001
3.00001
3.00001
3
3
2.99999
2.99995
2.99989
2.99966
2.99934
2.99807
2.99619
2.98935
2.97752
2.94092
2.85671
2.66708
2.17394
1.43596
0.978067
0.827897
0.808384
0.810014
0.820938
3.00001
3.00001
3.00001
3.00001
3
3
2.99999
2.99997
2.9999
2.9998
2.99941
2.99883
2.99669
2.99319
2.98181
2.95819
2.89632
2.73583
2.41516
1.69268
1.03466
0.770629
0.753807
0.770646
0.799725
3.00001
3.00001
3.00001
3.00001
3
3
2.99999
2.99998
2.99992
2.99984
2.9995
2.99904
2.99713
2.99445
2.9838
2.96726
2.91154
2.79525
2.50969
1.8932
1.06525
0.699946
0.679425
0.719173
0.769722
3.00001
3.00001
3.00001
3.00001
3.00001
3
3
2.99998
2.99994
2.99987
2.9996
2.99922
2.99769
2.99542
2.9869
2.97253
2.92585
2.82107
2.57514
1.98105
1.12588
0.639079
0.586795
0.648631
0.722191
3.00001
3.00001
3.00001
3.00001
3.00001
3
3
2.99998
2.99996
2.99988
2.99975
2.99929
2.99846
2.99594
2.99017
2.97554
2.93678
2.85094
2.59036
2.1164
1.16694
0.61134
0.489933
0.569877
0.664196
3.00001
3.00001
3.00001
3.00001
3.00001
3
3
2.99999
2.99995
2.9999
2.9997
2.9994
2.99823
2.9964
2.99001
2.97785
2.94212
2.85367
2.65779
2.11808
1.29503
0.603316
0.411062
0.505022
0.613235
3.00001
3.00001
3.00001
3.00001
3.00001
3
3
2.99999
2.99996
2.99991
2.99971
2.99944
2.9983
2.99669
2.99024
2.98009
2.94512
2.86954
2.68364
2.19864
1.38651
0.606883
0.350669
0.459215
0.571604
3.00001
3.00001
3.00001
3.00001
3.00001
3
3
2.99999
2.99996
2.99992
2.99974
2.99949
2.99848
2.99699
2.99138
2.98172
2.95107
2.87952
2.71081
2.25844
1.47266
0.626768
0.315556
0.432786
0.543293
3.00001
3.00001
3.00001
3.00001
3.00001
3
3
2.99999
2.99997
2.99991
2.99982
2.99945
2.99889
2.99687
2.99333
2.98224
2.95693
2.89358
2.71788
2.3691
1.56911
0.694405
0.325853
0.435513
0.536291
3.00001
3.00001
3.00001
3.00001
3.00001
3
3
2.99999
2.99998
2.99991
2.99982
2.99947
2.99895
2.99693
2.99375
2.98281
2.9607
2.89973
2.74001
2.41074
1.66188
0.726232
0.322013
0.433951
0.529619
3.00001
3.00001
3.00001
3.00001
3.00001
3.00001
3
2.99999
2.99997
2.99993
2.99978
2.99957
2.99871
2.99746
2.99256
2.98483
2.95809
2.90303
2.75951
2.39985
1.68916
0.72452
0.312268
0.419225
0.510453
3.00001
3.00001
3.00001
3.00001
3.00001
3.00001
3
2.99999
2.99997
2.99993
2.99979
2.99958
2.99873
2.99753
2.99264
2.98535
2.95838
2.90886
2.76572
2.43073
1.72449
0.752719
0.322285
0.407512
0.487096
3.00001
3.00001
3.00001
3.00001
3.00001
3.00001
3
3
2.99997
2.99994
2.99981
2.99961
2.99884
2.9977
2.99331
2.98619
2.9616
2.91051
2.77661
2.43992
1.75701
0.784713
0.338656
0.399055
0.467938
3.00001
3.00001
3.00001
3.00001
3.00001
3.00001
3
2.99999
2.99998
2.99992
2.99985
2.99953
2.99907
2.99725
2.99449
2.98446
2.96635
2.91128
2.779
2.4852
1.80059
0.871508
0.384936
0.414155
0.472469
3.00001
3.00001
3.00001
3.00001
3.00001
3.00001
3
2.99999
2.99998
2.99993
2.99985
2.99953
2.99909
2.99726
2.99465
2.98441
2.96775
2.91251
2.79
2.49971
1.83199
0.905063
0.399208
0.413256
0.472244
3.00001
3.00001
3.00001
3.00001
3.00001
3.00001
3
2.99999
2.99998
2.99993
2.99985
2.99955
2.99912
2.9974
2.99481
2.9853
2.96838
2.91584
2.7923
2.51017
1.84783
0.930048
0.41288
0.412963
0.470348
3.00001
3.00001
3.00001
3.00001
3.00001
3.00001
3
3
2.99998
2.99995
2.99983
2.99966
2.99897
2.99795
2.99421
2.98749
2.96679
2.91793
2.80315
2.48132
1.87906
0.883604
0.401834
0.394348
0.45302
3.00001
3.00001
3.00001
3.00001
3.00001
3.00001
3
3
2.99998
2.99995
2.99982
2.99965
2.99895
2.99795
2.994
2.98774
2.96628
2.92049
2.80522
2.49391
1.90033
0.897468
0.408272
0.388815
0.443673
3.00001
3.00001
3.00001
3.00001
3.00001
3.00001
3
3
2.99998
2.99995
2.99983
2.99967
2.99901
2.99802
2.99442
2.98787
2.96788
2.92038
2.80911
2.49344
1.90832
0.901727
0.409911
0.38577
0.44044
3.00001
3.00001
3.00001
3.00001
3.00001
3.00001
3
3
2.99998
2.99994
2.99987
2.9996
2.99919
2.99766
2.99514
2.98667
2.96941
2.92091
2.79945
2.53144
1.88953
0.989732
0.455001
0.41951
0.46723
3.00001
3.00001
3.00001
3.00001
3.00001
3.00001
3
3
2.99998
2.99995
2.99984
2.99967
2.99902
2.99803
2.99448
2.98798
2.96826
2.92128
2.81132
2.49868
1.92242
0.918184
0.424626
0.391632
0.444953
3.00001
3.00001
3.00001
3.00001
3.00001
3.00001
3
3
2.99998
2.99995
2.99983
2.99966
2.99897
2.998
2.99418
2.98801
2.96727
2.92216
2.80989
2.50428
1.9292
0.923544
0.428266
0.390486
0.441763
0.949791
0.736658
0.245656
0.225349
0.294374
0.377463
0.408083
0.428205
0.453499
0.480427
0.499641
0.507699
0.508463
0.50614
0.501427
0.492335
0.478584
0.461035
0.440833
0.418601
0.394901
0.369916
0.343964
0.317114
0.28968
0.261565
0.232388
0.203292
0.174272
0.145627
0.117281
0.0894465
0.0622674
0.0358429
0.0159001
0.0273203
0.0514389
0.0770147
0.101785
0.126097
0.149466
0.17171
0.19299
0.215198
0.237936
0.260011
0.281254
0.302058
0.322386
0.342386
0.361968
0.381315
0.40017
0.418889
0.437153
0.455268
0.473007
0.490535
0.507798
0.524819
0.541572
0.558158
0.574421
0.590586
0.606416
0.622185
0.637607
0.652991
0.668007
0.682992
0.697595
0.712176
0.726355
0.740512
0.754278
0.767976
0.78135
0.794567
0.807542
0.820289
0.832818
0.845108
0.857132
0.868937
0.880404
0.891662
0.902503
0.913093
0.923173
0.932909
0.942041
0.950682
0.958565
0.965702
0.971838
0.976899
0.980656
0.983124
0.984284
0.987793
0.953321
0.826725
0.565508
0.410972
0.281793
0.146671
0.0396129
0.106768
0.172158
0.220435
0.247458
0.253526
0.249215
0.244106
0.239074
0.230034
0.216016
0.199167
0.180087
0.159117
0.136895
0.113925
0.090559
0.0675198
0.0463577
0.0335031
0.0376703
0.0562794
0.0785704
0.102435
0.126369
0.15028
0.173918
0.197129
0.21974
0.240991
0.262422
0.283629
0.304873
0.325564
0.346039
0.365424
0.384221
0.403136
0.422914
0.44223
0.460844
0.478977
0.496809
0.514354
0.531659
0.548596
0.565372
0.581739
0.598015
0.61393
0.629723
0.645249
0.660582
0.675714
0.690624
0.705375
0.719898
0.734297
0.748473
0.762536
0.776382
0.790126
0.803626
0.817051
0.830189
0.843263
0.856048
0.868729
0.88118
0.893453
0.905578
0.917454
0.929223
0.940715
0.952088
0.963177
0.974101
0.984741
0.995171
1.0053
1.01517
1.02467
1.03384
1.04257
1.05089
1.05862
1.06578
1.07216
1.07768
1.08216
1.08547
1.08746
1.08835
1.09157
0.971433
0.941398
0.832543
0.736353
0.625246
0.51617
0.409284
0.313274
0.237958
0.17886
0.13213
0.0983003
0.0712542
0.055018
0.0660591
0.0711503
0.0866998
0.100526
0.116407
0.134186
0.152961
0.172822
0.193425
0.214388
0.235694
0.256965
0.277729
0.298507
0.319204
0.340019
0.360406
0.380714
0.400423
0.420011
0.438725
0.457054
0.474874
0.492707
0.510219
0.527701
0.544745
0.561219
0.576809
0.592433
0.608838
0.625204
0.641138
0.656332
0.671569
0.686266
0.701102
0.715418
0.729833
0.743798
0.75784
0.771487
0.785208
0.79855
0.811963
0.825012
0.838141
0.850915
0.863783
0.876303
0.888917
0.901195
0.913553
0.925586
0.937689
0.949449
0.9613
0.972753
0.984354
0.995483
1.00683
1.01765
1.02871
1.03923
1.04997
1.0602
1.0706
1.08051
1.09054
1.10013
1.1098
1.119
1.1282
1.13688
1.1455
1.15351
1.1613
1.16837
1.17501
1.18074
1.18576
1.18959
1.19239
1.19371
1.19426
1.19721
0.993786
1.01356
0.979015
0.927199
0.85794
0.777815
0.696095
0.616568
0.550226
0.498648
0.458698
0.428747
0.410342
0.399014
0.39706
0.398478
0.400884
0.405781
0.413488
0.423835
0.436014
0.449676
0.464505
0.479985
0.496124
0.512141
0.528092
0.543732
0.559421
0.574911
0.590237
0.605348
0.620077
0.634603
0.648497
0.662203
0.675369
0.688584
0.701443
0.714347
0.726992
0.739219
0.75076
0.762254
0.774392
0.787025
0.799351
0.811336
0.823133
0.834839
0.846479
0.858071
0.869601
0.881076
0.892491
0.903847
0.915154
0.926398
0.937603
0.948738
0.959841
0.970874
0.981872
0.992816
1.0037
1.01455
1.02532
1.03605
1.04669
1.05724
1.06774
1.07807
1.08841
1.09849
1.10865
1.11849
1.12845
1.13807
1.14787
1.15735
1.16696
1.17625
1.18561
1.1946
1.20358
1.21218
1.22068
1.22881
1.23672
1.24419
1.25133
1.25787
1.26391
1.26913
1.27359
1.27692
1.2791
1.27991
1.2801
1.28297
1.00857
1.04797
1.05417
1.0322
0.995627
0.944077
0.886887
0.830095
0.78286
0.743872
0.715614
0.694804
0.682935
0.677803
0.679577
0.684371
0.688047
0.689449
0.692568
0.697551
0.703745
0.71092
0.718733
0.727148
0.735804
0.744489
0.752986
0.761417
0.769678
0.777993
0.786108
0.794282
0.802264
0.810265
0.818105
0.825947
0.833745
0.841698
0.849785
0.858123
0.866629
0.875015
0.882978
0.891024
0.899641
0.909112
0.918633
0.928112
0.93739
0.946774
0.956114
0.965618
0.975107
0.98472
0.994321
1.00401
1.01369
1.02343
1.03316
1.04295
1.05269
1.06253
1.07227
1.08213
1.09187
1.10173
1.11148
1.12127
1.13102
1.14069
1.1504
1.15988
1.16951
1.17882
1.18841
1.19768
1.20721
1.21639
1.22572
1.23471
1.24374
1.25252
1.26123
1.26975
1.27808
1.28623
1.29411
1.30173
1.30906
1.31597
1.32255
1.32849
1.33395
1.33853
1.34234
1.345
1.34631
1.34664
1.34648
1.34917
1.01552
1.06295
1.08584
1.0869
1.0695
1.0392
1.00216
0.964061
0.932396
0.909652
0.894496
0.887761
0.884849
0.886069
0.888503
0.892929
0.897423
0.899767
0.899038
0.899353
0.900497
0.90252
0.904961
0.907641
0.910541
0.91336
0.91612
0.91878
0.92145
0.92423
0.927101
0.930186
0.933469
0.93694
0.940696
0.944585
0.948879
0.953335
0.958345
0.963583
0.969429
0.975161
0.980872
0.986569
0.992982
1.0002
1.00793
1.01571
1.02349
1.03137
1.0393
1.04745
1.05565
1.06407
1.07251
1.08114
1.08978
1.09858
1.10739
1.11632
1.12525
1.13429
1.14331
1.15243
1.16153
1.17068
1.17984
1.18897
1.19814
1.2072
1.21633
1.22533
1.2345
1.2435
1.25259
1.26146
1.27036
1.2791
1.2878
1.29638
1.30486
1.3132
1.32144
1.32947
1.33739
1.34501
1.3525
1.3596
1.36646
1.37291
1.37889
1.3844
1.38913
1.39323
1.39619
1.39817
1.39864
1.3986
1.39794
1.40043
1.01808
1.0671
1.09647
1.10852
1.10289
1.08565
1.0615
1.0382
1.01929
1.00969
1.00655
1.00965
1.01549
1.02199
1.02756
1.03182
1.03679
1.04031
1.04059
1.03772
1.03524
1.03342
1.03238
1.03158
1.03109
1.03047
1.03
1.02935
1.0289
1.02846
1.02843
1.02868
1.0293
1.03032
1.03172
1.03349
1.03566
1.03822
1.04135
1.04484
1.04906
1.05327
1.05758
1.06188
1.06692
1.07268
1.0792
1.08586
1.09277
1.09968
1.10683
1.11406
1.12153
1.1291
1.13689
1.14475
1.15278
1.1609
1.16916
1.17749
1.18594
1.19443
1.20303
1.21163
1.22037
1.22903
1.23786
1.24653
1.2554
1.26408
1.27303
1.28172
1.29057
1.29914
1.30785
1.3163
1.32487
1.33318
1.34156
1.34972
1.35786
1.36581
1.37363
1.38131
1.38872
1.39601
1.40289
1.40962
1.41585
1.4218
1.42715
1.43196
1.43605
1.43927
1.44148
1.44232
1.44229
1.44206
1.44089
1.44309
1.01766
1.06329
1.09403
1.11031
1.11195
1.10166
1.08659
1.07266
1.06494
1.0645
1.07096
1.08184
1.09385
1.10593
1.11484
1.12129
1.12543
1.1297
1.1319
1.13079
1.12682
1.12294
1.12
1.11745
1.11541
1.11332
1.11151
1.10942
1.10752
1.10559
1.10405
1.10277
1.10195
1.10152
1.10152
1.10201
1.10292
1.10426
1.1062
1.10852
1.11166
1.11485
1.11821
1.12156
1.12559
1.13029
1.13581
1.1416
1.14776
1.15399
1.16049
1.16705
1.17392
1.18086
1.1881
1.19538
1.20294
1.2105
1.21832
1.22614
1.23418
1.24221
1.25044
1.25865
1.26702
1.27534
1.28381
1.2922
1.3008
1.3092
1.31776
1.3261
1.3346
1.3429
1.35129
1.35956
1.3678
1.376
1.38407
1.39214
1.4
1.40787
1.41546
1.42299
1.43022
1.43723
1.44397
1.45029
1.45632
1.46172
1.46667
1.47081
1.47422
1.47661
1.47776
1.47788
1.47752
1.47674
1.47453
1.47602
1.01308
1.05285
1.0812
1.09538
1.10076
1.0966
1.0896
1.08484
1.0858
1.0937
1.10707
1.12319
1.14015
1.15556
1.16816
1.1771
1.18309
1.18715
1.19081
1.19262
1.19143
1.18759
1.18369
1.18033
1.1773
1.17453
1.17183
1.16909
1.16647
1.16389
1.16151
1.15935
1.15751
1.15611
1.15513
1.15466
1.15463
1.15511
1.15611
1.15757
1.15977
1.16223
1.16477
1.16741
1.17059
1.1745
1.17913
1.18422
1.18967
1.19537
1.20129
1.2074
1.21374
1.22028
1.22702
1.23395
1.24105
1.24832
1.25575
1.2633
1.27101
1.27879
1.28673
1.29468
1.30278
1.31089
1.31912
1.32731
1.33549
1.34366
1.3518
1.35996
1.36804
1.37617
1.38419
1.39223
1.40018
1.40808
1.41592
1.42362
1.4313
1.43876
1.44615
1.45329
1.46021
1.46689
1.47317
1.47918
1.48455
1.48954
1.49367
1.49715
1.49959
1.50094
1.50113
1.5008
1.5
1.4984
1.49466
1.49514
1.00484
1.03647
1.06068
1.07368
1.07818
1.07824
1.07844
1.08245
1.09173
1.10611
1.12384
1.14378
1.1632
1.18146
1.19646
1.20838
1.21673
1.22282
1.22678
1.23024
1.23213
1.23178
1.22903
1.2257
1.22241
1.21927
1.2163
1.21345
1.21073
1.208
1.20539
1.20293
1.20076
1.19889
1.19746
1.19641
1.19583
1.1957
1.19607
1.19695
1.19856
1.20047
1.20257
1.20474
1.20747
1.21083
1.21496
1.21953
1.22456
1.22987
1.23551
1.24132
1.24743
1.25366
1.26018
1.2668
1.27367
1.28069
1.28786
1.29527
1.30273
1.31045
1.3182
1.32611
1.33412
1.34211
1.35021
1.35818
1.3663
1.37431
1.38239
1.39045
1.39844
1.40652
1.41439
1.42241
1.43016
1.43804
1.44566
1.45329
1.46074
1.46803
1.4752
1.48201
1.4887
1.4949
1.50091
1.50625
1.51122
1.51533
1.51878
1.52122
1.52259
1.52281
1.52245
1.52163
1.52003
1.51697
1.51174
1.51076
0.992361
1.01502
1.03257
1.04391
1.05044
1.05572
1.06309
1.07381
1.08942
1.10839
1.12931
1.15091
1.17196
1.19128
1.2084
1.22251
1.23393
1.24261
1.24941
1.25417
1.25776
1.26039
1.26124
1.25985
1.25696
1.25389
1.25079
1.24784
1.24496
1.24232
1.23969
1.23731
1.235
1.23302
1.23127
1.22994
1.22897
1.22847
1.22844
1.22894
1.2301
1.23168
1.23342
1.23529
1.23762
1.24061
1.2443
1.24849
1.25312
1.25815
1.26344
1.26906
1.27485
1.28091
1.28713
1.29355
1.30017
1.30691
1.31389
1.32096
1.32826
1.33563
1.34321
1.35085
1.35855
1.36629
1.37405
1.38188
1.38969
1.39757
1.4054
1.41328
1.42112
1.42894
1.43673
1.44444
1.45214
1.4597
1.46721
1.47458
1.48181
1.48889
1.49569
1.50231
1.50851
1.51448
1.51984
1.52476
1.52888
1.53232
1.53473
1.53613
1.53637
1.53599
1.53522
1.53343
1.53026
1.52573
1.51984
1.51862
0.97478
0.989588
1.00172
1.01201
1.02178
1.03299
1.04681
1.06374
1.08333
1.10476
1.12727
1.14958
1.17114
1.19112
1.20943
1.22553
1.23938
1.2509
1.26035
1.26781
1.27355
1.2776
1.2805
1.28216
1.28231
1.28056
1.27825
1.27557
1.27294
1.27038
1.268
1.26586
1.26385
1.26208
1.26048
1.25919
1.2582
1.25761
1.25745
1.25776
1.25868
1.26006
1.26156
1.26323
1.26526
1.26794
1.2713
1.27511
1.27943
1.28409
1.28915
1.2945
1.30011
1.306
1.31203
1.31835
1.32474
1.3314
1.33815
1.3451
1.35221
1.35946
1.3669
1.37431
1.38188
1.38941
1.39703
1.40467
1.4123
1.42002
1.42765
1.4354
1.44301
1.45073
1.45829
1.46589
1.47336
1.48074
1.48804
1.49509
1.5021
1.50871
1.51523
1.52124
1.52708
1.53231
1.53708
1.5411
1.54433
1.54666
1.54784
1.54802
1.54762
1.54663
1.54477
1.54121
1.53632
1.53125
1.52547
1.52445
0.952607
0.960976
0.970162
0.981368
0.995326
1.01225
1.03182
1.05314
1.0755
1.09824
1.12093
1.14307
1.16442
1.18468
1.20369
1.22124
1.23697
1.25086
1.26286
1.27311
1.28158
1.28835
1.29338
1.29697
1.29934
1.30059
1.30025
1.29871
1.29686
1.29445
1.29213
1.29022
1.28831
1.28685
1.28535
1.28422
1.2832
1.28262
1.28231
1.28252
1.28327
1.28443
1.2858
1.2873
1.2891
1.29157
1.2946
1.29815
1.3021
1.30644
1.31123
1.31624
1.32171
1.3273
1.33325
1.3393
1.34558
1.35204
1.35863
1.36546
1.3724
1.37955
1.38673
1.39405
1.40143
1.40886
1.41639
1.42387
1.43148
1.43899
1.4466
1.45412
1.46169
1.46919
1.47664
1.48406
1.49132
1.49856
1.50554
1.51247
1.51904
1.52546
1.53143
1.53715
1.54233
1.54701
1.55094
1.55408
1.55629
1.55735
1.55748
1.55704
1.55606
1.5538
1.55017
1.54512
1.53979
1.53497
1.52989
1.52933
0.929462
0.933132
0.941594
0.955419
0.973816
0.995321
1.01854
1.04233
1.06607
1.08926
1.11183
1.13359
1.15473
1.17497
1.19457
1.2131
1.23048
1.24634
1.26075
1.27337
1.28436
1.29361
1.30122
1.30719
1.31157
1.31448
1.3165
1.31728
1.31714
1.31589
1.31412
1.31239
1.31071
1.30935
1.30804
1.30706
1.30622
1.30577
1.30555
1.30582
1.30654
1.30767
1.30906
1.31047
1.31226
1.31457
1.31747
1.32084
1.32454
1.32875
1.33323
1.33819
1.34339
1.34892
1.35466
1.3606
1.36676
1.37306
1.37957
1.38623
1.39304
1.39993
1.40691
1.41399
1.42111
1.42835
1.43556
1.44288
1.45016
1.45749
1.46481
1.4721
1.47941
1.48662
1.49385
1.5009
1.50795
1.51476
1.52147
1.5279
1.53409
1.53992
1.5454
1.55045
1.55492
1.55868
1.56161
1.56364
1.56449
1.56451
1.56406
1.56285
1.56047
1.55635
1.55129
1.54593
1.5409
1.53693
1.53281
1.53291
0.908447
0.909821
0.919472
0.936942
0.959385
0.983828
1.00876
1.03299
1.05652
1.079
1.101
1.1222
1.1432
1.16352
1.18359
1.20288
1.22162
1.23905
1.2553
1.26994
1.28315
1.29467
1.30463
1.31292
1.3197
1.32497
1.32873
1.33127
1.33315
1.33401
1.33393
1.33301
1.33186
1.33076
1.32979
1.32907
1.32861
1.32842
1.32853
1.32897
1.3298
1.33108
1.33247
1.33397
1.33577
1.33801
1.34085
1.344
1.34759
1.35153
1.35585
1.36054
1.36552
1.37083
1.37634
1.38213
1.38808
1.39426
1.40061
1.40711
1.4137
1.42036
1.42713
1.43393
1.44084
1.44777
1.45476
1.46179
1.46879
1.47588
1.48287
1.48995
1.49689
1.50389
1.51073
1.51753
1.52416
1.53063
1.53688
1.54282
1.54848
1.55365
1.55854
1.56268
1.56625
1.56882
1.57064
1.57112
1.57097
1.57038
1.56891
1.5661
1.5615
1.55641
1.55082
1.54609
1.54167
1.53896
1.53587
1.5366
0.889063
0.891026
0.904799
0.926947
0.952052
0.977622
1.00231
1.02585
1.04814
1.06959
1.0905
1.1112
1.13171
1.15218
1.17235
1.19231
1.2117
1.23029
1.2478
1.26405
1.27909
1.2926
1.3049
1.31554
1.32485
1.33252
1.33883
1.34369
1.34734
1.34995
1.35207
1.35328
1.35352
1.35315
1.35269
1.35232
1.35216
1.35219
1.35251
1.35312
1.35409
1.35542
1.35687
1.35843
1.36024
1.36245
1.36518
1.36817
1.37162
1.37532
1.37947
1.38387
1.38867
1.39371
1.39906
1.40462
1.41041
1.41641
1.42257
1.42883
1.43517
1.4416
1.44812
1.45468
1.46135
1.46803
1.4748
1.48154
1.48836
1.49513
1.50191
1.50868
1.51532
1.52201
1.52842
1.53489
1.54096
1.54701
1.55255
1.55794
1.56273
1.56728
1.57111
1.57429
1.57655
1.57793
1.57819
1.57784
1.57695
1.57522
1.57167
1.56705
1.56138
1.55622
1.55109
1.54734
1.54404
1.54248
1.54047
1.54176
0.870593
0.87983
0.900389
0.925824
0.951499
0.976265
0.999453
1.02131
1.04203
1.06216
1.08202
1.10193
1.12197
1.14215
1.16235
1.1825
1.20237
1.22174
1.24037
1.25808
1.27478
1.29027
1.30454
1.31743
1.32905
1.33919
1.34804
1.35539
1.36146
1.3662
1.37001
1.37299
1.3752
1.37658
1.37714
1.37721
1.37722
1.37732
1.37765
1.37825
1.37918
1.38055
1.38195
1.38355
1.38523
1.38743
1.38992
1.39279
1.39598
1.39946
1.40336
1.40751
1.41208
1.41686
1.42201
1.42738
1.43298
1.43884
1.44476
1.45085
1.45696
1.46321
1.46949
1.47584
1.48229
1.48869
1.49527
1.50168
1.50832
1.5147
1.52129
1.52761
1.53402
1.54019
1.54632
1.55219
1.55786
1.56324
1.56817
1.5728
1.57687
1.58048
1.58318
1.58517
1.58597
1.58602
1.58542
1.58431
1.58178
1.57809
1.57275
1.5674
1.56182
1.55723
1.55321
1.55063
1.54871
1.54808
1.54716
1.54917
0.855263
0.876154
0.903091
0.930388
0.955528
0.978499
0.99972
1.01975
1.0391
1.05811
1.07724
1.09658
1.11623
1.13611
1.1562
1.1763
1.19639
1.21612
1.23547
1.25404
1.27193
1.28875
1.30471
1.31939
1.33307
1.34534
1.35648
1.36614
1.37459
1.38151
1.38734
1.39217
1.39595
1.39853
1.4005
1.40175
1.40233
1.40258
1.40287
1.40329
1.40406
1.40513
1.4065
1.40787
1.40939
1.41137
1.41357
1.41624
1.41906
1.42235
1.4259
1.42985
1.43416
1.43872
1.4437
1.44884
1.45438
1.46
1.46579
1.47171
1.47763
1.48378
1.48979
1.4961
1.5022
1.50858
1.51477
1.52114
1.52738
1.53365
1.53985
1.54593
1.55198
1.55776
1.56351
1.56882
1.57403
1.57865
1.58302
1.58675
1.5901
1.59245
1.59409
1.59452
1.5943
1.59359
1.59195
1.5891
1.58449
1.57922
1.57345
1.56817
1.56344
1.55985
1.55726
1.55587
1.55524
1.55538
1.55535
1.55781
0.84372
0.87409
0.904559
0.932573
0.957187
0.979115
0.999242
1.01832
1.03695
1.05552
1.0743
1.09336
1.11278
1.13247
1.15241
1.17244
1.19252
1.2125
1.23215
1.25134
1.26995
1.28784
1.30494
1.32109
1.33628
1.35031
1.3633
1.37497
1.38544
1.39447
1.40218
1.40859
1.41417
1.41845
1.42146
1.42357
1.42515
1.42622
1.42671
1.427
1.42739
1.42808
1.42912
1.43015
1.43142
1.43291
1.43489
1.43717
1.43977
1.44273
1.446
1.4497
1.45372
1.4581
1.46285
1.46782
1.4732
1.4786
1.48434
1.49
1.49595
1.5018
1.50786
1.51387
1.51997
1.52608
1.53218
1.53831
1.54434
1.55041
1.55628
1.56216
1.56775
1.57328
1.57841
1.58337
1.58776
1.59184
1.59531
1.59835
1.60043
1.60169
1.6019
1.60149
1.60053
1.59865
1.59503
1.59018
1.58449
1.57894
1.57356
1.56913
1.5656
1.56322
1.56206
1.56164
1.56204
1.56272
1.56319
1.56571
0.837439
0.873238
0.904789
0.931982
0.955933
0.977178
0.99685
1.0157
1.03427
1.05286
1.07168
1.09072
1.1101
1.12966
1.1495
1.16942
1.1895
1.20949
1.22934
1.24883
1.26794
1.28646
1.30436
1.32148
1.33774
1.3531
1.36736
1.38059
1.39263
1.4035
1.41299
1.42117
1.42815
1.43415
1.43889
1.44222
1.44464
1.44622
1.44739
1.44815
1.44854
1.44891
1.44954
1.45038
1.45129
1.4524
1.45392
1.45585
1.45821
1.46092
1.46402
1.46751
1.47131
1.47555
1.48002
1.48491
1.48995
1.49526
1.5007
1.5063
1.51204
1.51783
1.52377
1.52966
1.53569
1.54161
1.54762
1.55349
1.55939
1.56511
1.57078
1.57621
1.58151
1.58647
1.59116
1.59537
1.5991
1.60234
1.60498
1.60682
1.60755
1.60754
1.60699
1.60564
1.60314
1.5989
1.59377
1.588
1.58235
1.57719
1.57275
1.56956
1.56722
1.56628
1.56606
1.56666
1.5674
1.56857
1.56956
1.57204
0.822778
0.864493
0.897354
0.924456
0.947852
0.969223
0.989387
1.00902
1.02854
1.04788
1.06728
1.08671
1.10631
1.12596
1.14584
1.16573
1.18581
1.20577
1.22576
1.24536
1.26473
1.28361
1.30199
1.31976
1.33679
1.35309
1.3685
1.38302
1.39647
1.40877
1.4198
1.42941
1.43765
1.44484
1.45121
1.45622
1.45989
1.46263
1.46444
1.46563
1.4663
1.46675
1.46709
1.46752
1.46805
1.46871
1.46966
1.47105
1.47304
1.47539
1.47825
1.48142
1.48503
1.48896
1.49323
1.49788
1.50267
1.50783
1.51303
1.51861
1.52415
1.53001
1.5358
1.5418
1.54773
1.55375
1.55968
1.56558
1.57137
1.57702
1.58251
1.58774
1.59271
1.59725
1.60141
1.60488
1.60799
1.6103
1.61193
1.6123
1.6121
1.61139
1.60969
1.60642
1.60162
1.59615
1.59039
1.58469
1.57976
1.57539
1.57244
1.57025
1.56942
1.56936
1.56992
1.5707
1.57193
1.57394
1.57563
1.57807
0.790878
0.839542
0.87502
0.903607
0.928749
0.952096
0.974266
0.995539
1.01621
1.0366
1.05685
1.07695
1.09711
1.11719
1.1374
1.15755
1.17788
1.19813
1.21843
1.23837
1.25805
1.27726
1.29603
1.31424
1.33182
1.34878
1.36491
1.3803
1.39464
1.40809
1.42033
1.43152
1.44143
1.45001
1.45755
1.46417
1.46931
1.473
1.47551
1.47726
1.4782
1.47873
1.47897
1.47918
1.47941
1.4798
1.48038
1.48131
1.48274
1.48475
1.48725
1.49014
1.49355
1.4972
1.50138
1.50569
1.51046
1.51532
1.52056
1.52591
1.53153
1.53726
1.54314
1.54913
1.55514
1.56121
1.5672
1.57315
1.57892
1.58458
1.58987
1.59498
1.59952
1.60374
1.60714
1.61019
1.61239
1.61378
1.61406
1.61393
1.61303
1.61075
1.60693
1.60194
1.59622
1.59054
1.58492
1.58019
1.57604
1.57319
1.57124
1.5704
1.57057
1.57112
1.57195
1.57331
1.57525
1.57794
1.57999
1.58257
0.742452
0.79664
0.836111
0.868374
0.897105
0.923746
0.949071
0.973174
0.996407
1.01874
1.04055
1.06179
1.08275
1.10341
1.12399
1.14444
1.16491
1.18524
1.20563
1.22562
1.24545
1.26478
1.28385
1.30236
1.32046
1.33794
1.35476
1.37087
1.38605
1.40039
1.41363
1.42587
1.43688
1.44675
1.45534
1.46293
1.46964
1.47498
1.47921
1.48233
1.48454
1.48605
1.48697
1.48753
1.48794
1.48833
1.48884
1.48954
1.49063
1.4922
1.49422
1.4968
1.49977
1.50322
1.50701
1.51114
1.51558
1.52029
1.52529
1.53051
1.53593
1.54153
1.54725
1.55307
1.55891
1.56477
1.57055
1.57622
1.58174
1.58702
1.59199
1.5966
1.60068
1.60415
1.60704
1.60928
1.61062
1.61104
1.61104
1.60993
1.60717
1.60281
1.59773
1.59213
1.58662
1.58133
1.57681
1.5731
1.57041
1.56889
1.56816
1.56852
1.56916
1.57013
1.57153
1.57379
1.57637
1.5795
1.58176
1.58457
0.690735
0.743811
0.784869
0.82065
0.853784
0.884773
0.913955
0.941403
0.967415
0.992136
1.0159
1.03873
1.06103
1.08273
1.10416
1.12521
1.1461
1.16675
1.18732
1.20772
1.22785
1.24757
1.26698
1.28592
1.30436
1.3222
1.33937
1.35577
1.37139
1.38621
1.40013
1.41323
1.42537
1.43656
1.44663
1.45566
1.46385
1.47117
1.4771
1.48188
1.48552
1.48816
1.48994
1.49108
1.49178
1.49225
1.49266
1.49315
1.49389
1.49496
1.49654
1.49861
1.50122
1.50433
1.50786
1.5118
1.51605
1.52069
1.52557
1.53077
1.53611
1.5417
1.54735
1.55314
1.55888
1.56462
1.57023
1.57566
1.58087
1.58569
1.59018
1.59412
1.5974
1.60014
1.60205
1.6032
1.60364
1.60347
1.60171
1.59844