/*--------------------------------*- C++ -*----------------------------------*\
| =========                 |                                                 |
| \\      /  F ield         | OpenFOAM: The Open Source CFD Toolbox           |
|  \\    /   O peration     | Version:  2112                                  |
|   \\  /    A nd           | Website:  www.openfoam.com                      |
|    \\/     M anipulation  |                                                 |
\*---------------------------------------------------------------------------*/
FoamFile
{
    version     2.0;
    format      ascii;
    arch        "LSB;label=32;scalar=64";
    class       volScalarField;
    location    "9.5";
    object      p;
}
// * * * * * * * * * * * * * * * * * * * * * * * * * * * * * * * * * * * * * //

dimensions      [1 -1 -2 0 0 0 0];

internalField   nonuniform List<scalar> 
5250
(
1.00001
1.00005
1.00013
1.00037
1.00077
1.0022
1.00442
1.01301
1.02451
1.08211
1.1462
1.53413
2.21648
4.77472
10.6805
11.0704
10.9564
10.963
11.0678
11.3064
11.5187
11.6572
11.7696
11.859
11.9285
1.00001
1.00005
1.00012
1.00037
1.00076
1.00216
1.00431
1.01285
1.02383
1.0816
1.1432
1.52942
2.20124
4.73389
10.602
11.0598
10.9485
10.9553
11.0597
11.2973
11.5089
11.648
11.7619
11.8526
11.9236
1.00001
1.00005
1.00012
1.00035
1.00073
1.00209
1.00414
1.01253
1.02275
1.08022
1.1379
1.51944
2.16641
4.65006
10.425
11.0354
10.927
10.9314
11.0308
11.2622
11.4709
11.6081
11.7208
11.81
11.8801
1.00001
1.00005
1.00011
1.00034
1.0007
1.00199
1.00393
1.01205
1.0215
1.07777
1.13098
1.50448
2.10958
4.52657
10.1425
11.0029
10.8965
10.8911
10.9815
11.2015
11.405
11.537
11.6455
11.7315
11.8012
1.00001
1.00004
1.00011
1.00032
1.00066
1.00188
1.00369
1.01142
1.02014
1.07404
1.12255
1.48319
2.03519
4.35806
9.74676
10.9711
10.8637
10.8328
10.9147
11.1202
11.3153
11.4397
11.5415
11.6224
11.6919
1.00001
1.00004
1.0001
1.00029
1.00061
1.00175
1.00342
1.01065
1.01866
1.06912
1.11321
1.45234
1.94628
4.13645
9.21755
10.9526
10.8339
10.7587
10.8302
11.0167
11.1986
11.3106
11.401
11.4732
11.5424
1.00001
1.00004
1.00009
1.00027
1.00056
1.00161
1.00315
1.00979
1.01718
1.06353
1.10376
1.41338
1.85801
3.84899
8.53947
10.9574
10.8117
10.6705
10.729
10.8911
11.0545
11.1473
11.2173
11.2701
11.3312
1.00001
1.00003
1.00008
1.00025
1.00051
1.00146
1.00287
1.00882
1.01563
1.05697
1.09335
1.36813
1.75842
3.50895
7.69602
10.9835
10.7978
10.5689
10.6112
10.7411
10.8781
10.9422
10.9792
10.9943
11.0277
1
1.00003
1.00008
1.00022
1.00046
1.00131
1.00261
1.00777
1.01436
1.04933
1.08302
1.31834
1.64919
3.13834
6.71535
11.0302
10.791
10.4622
10.4814
10.5679
10.6688
10.6898
10.6732
10.6103
10.5522
1
1.00003
1.00006
1.00019
1.00039
1.00111
1.0022
1.00662
1.01199
1.04189
1.06967
1.26609
1.5328
2.7511
5.61347
10.9761
10.7518
10.3652
10.3318
10.3716
10.4191
10.3924
10.2916
10.0672
9.73817
1
1.00002
1.00007
1.00015
1.00042
1.00085
1.00243
1.00489
1.01433
1.02745
1.08924
1.16619
1.57723
2.33903
4.96845
10.5904
10.5599
10.2888
10.1484
10.152
10.1383
10.0477
9.79616
9.22836
7.82281
1
1.00002
1.00005
1.00015
1.00031
1.00086
1.00175
1.00501
1.00986
1.03033
1.0547
1.19558
1.36173
2.31642
4.20166
9.73797
10.3062
10.157
9.96302
9.91922
9.84589
9.67116
9.28946
8.54024
7.12954
1
1.00002
1.00004
1.00013
1.00027
1.00075
1.00153
1.00434
1.00868
1.02579
1.04822
1.16441
1.3045
2.10841
3.64422
8.53521
10.1351
10.0307
9.8024
9.68162
9.55843
9.31072
8.85502
8.11408
7.01369
1
1.00002
1.00004
1.00011
1.00022
1.00062
1.00127
1.0036
1.00708
1.02164
1.03869
1.13918
1.24382
1.9281
3.1361
7.24446
10.0311
9.92901
9.66578
9.45727
9.28065
8.9975
8.53883
7.86937
7.00827
1
1.00001
1.00003
1.00009
1.00019
1.00053
1.00108
1.00303
1.00612
1.01768
1.03452
1.10942
1.20553
1.72148
2.67243
5.88804
9.9042
9.82581
9.55673
9.25475
9.0314
8.7388
8.30497
7.71059
6.99635
1
1.00001
1.00003
1.00007
1.00015
1.00043
1.00088
1.00246
1.00498
1.01423
1.02821
1.08524
1.16929
1.54423
2.26711
4.65898
9.52083
9.64275
9.45109
9.08149
8.8183
8.5257
8.12513
7.59935
6.9835
1
1.00001
1.00002
1.00006
1.00012
1.00034
1.00069
1.00194
1.00392
1.01125
1.02172
1.06936
1.12485
1.44351
1.97729
3.98734
8.55152
9.37806
9.24813
8.94138
8.64496
8.35077
7.98177
7.51596
6.98384
1
1.00001
1.00002
1.00005
1.00009
1.00026
1.00054
1.00151
1.00301
1.00887
1.01632
1.0557
1.09364
1.35645
1.72382
3.36026
7.0291
9.12058
9.05889
8.84241
8.51371
8.21206
7.87133
7.45947
6.99232
1
1
1.00001
1.00004
1.00007
1.0002
1.00042
1.00117
1.00234
1.0068
1.0128
1.04218
1.07188
1.26814
1.52948
2.73621
5.40022
8.87524
8.93476
8.78213
8.44465
8.11377
7.79316
7.43356
7.01944
1
1
1.00001
1.00002
1.00007
1.00014
1.00038
1.00078
1.00219
1.0044
1.01266
1.02503
1.07577
1.15041
1.47545
2.10291
4.09552
8.26265
8.82403
8.70077
8.3997
8.05306
7.74975
7.43733
7.07777
1
1
1.00001
1.00002
1.00005
1.0001
1.00029
1.00058
1.00163
1.00328
1.00941
1.01817
1.05757
1.10368
1.36286
1.78319
3.36874
6.94595
8.59826
8.55103
8.36522
8.03702
7.75067
7.46059
7.17267
1
1
1.00001
1.00002
1.00003
1.00009
1.00018
1.00051
1.00104
1.00292
1.00585
1.01714
1.03249
1.10627
1.19776
1.68177
2.56406
5.37195
8.30948
8.43795
8.32457
8.05697
7.7726
7.5218
7.31177
1
1
1
1.00001
1.00003
1.00005
1.00015
1.00031
1.00086
1.00173
1.00491
1.00958
1.02953
1.05263
1.18563
1.34656
2.16871
3.73475
7.69321
8.38322
8.31338
8.11671
7.84491
7.65063
7.51283
1
1
1
1.00001
1.00002
1.00005
1.00009
1.00026
1.00052
1.00146
1.00284
1.00868
1.01526
1.05452
1.08968
1.3395
1.67698
3.15564
6.25807
8.22968
8.31232
8.22043
8.01043
7.86464
7.78145
1
1
1
1.00001
1.00001
1.00003
1.00007
1.00019
1.00039
1.00108
1.00218
1.00616
1.0121
1.03687
1.06634
1.23125
1.45073
2.45148
4.54864
7.87341
8.3505
8.32598
8.24687
8.15107
8.11112
1
1
1
1
1.00001
1.00002
1.00005
1.00014
1.00028
1.00076
1.00155
1.00434
1.00864
1.02552
1.04737
1.15967
1.29512
2.0189
3.33719
7.01404
8.33052
8.53193
8.52672
8.51092
8.49552
1
1
1
1
1.00001
1.00001
1.00004
1.00008
1.00022
1.00045
1.00126
1.00248
1.00738
1.01333
1.04575
1.07639
1.28456
1.5582
2.7918
5.39163
8.20235
8.85395
8.93367
8.93435
8.92334
1
1
1
1
1.00001
1.00001
1.00003
1.00006
1.00016
1.00034
1.00093
1.00189
1.00527
1.01057
1.03065
1.05911
1.18608
1.38087
2.17211
3.85481
7.80314
9.22915
9.4431
9.43301
9.39111
1
1
1
1
1
1.00001
1.00002
1.00004
1.00012
1.00024
1.00066
1.00134
1.00378
1.00741
1.02258
1.04035
1.14295
1.25314
1.93019
3.10326
6.77686
9.59614
10
9.96052
9.84093
1
1
1
1
1
1.00001
1.00001
1.00004
1.00007
1.00021
1.00042
1.00116
1.00231
1.0068
1.0125
1.04205
1.07103
1.26253
1.51784
2.66901
5.14806
10.0013
10.6216
10.5103
10.231
1
1
1
1
1
1.00001
1.00001
1.00003
1.00006
1.00017
1.00035
1.00097
1.00196
1.00554
1.01111
1.03273
1.06237
1.20459
1.41175
2.36359
4.41797
9.84617
11.0355
10.8885
10.5032
1
1
1
1
1
1
1.00001
1.00002
1.00005
1.00014
1.00028
1.00079
1.0016
1.00457
1.00905
1.02769
1.05057
1.17954
1.33205
2.2251
3.96536
9.3538
11.2732
11.107
10.6466
1
1
1
1
1
1
1.00001
1.00002
1.00004
1.00009
1.00026
1.0005
1.00156
1.00271
1.00987
1.01593
1.06259
1.10276
1.41465
1.86752
3.89144
8.67715
11.4776
11.2489
10.654
1
1
1
1
1
1
1.00001
1.00002
1.00004
1.00011
1.00021
1.00061
1.00123
1.00358
1.00691
1.02233
1.03888
1.14624
1.25735
2.01411
3.38312
8.13573
11.7115
11.3574
10.6041
1
1
1
1
1
1
1.00001
1.00002
1.00003
1.0001
1.0002
1.00057
1.00115
1.00331
1.00661
1.02006
1.03702
1.13121
1.23573
1.90227
3.13866
7.56712
11.9162
11.403
10.5278
1
1
1
1
1
1
1.00001
1.00002
1.00003
1.00009
1.00018
1.00051
1.00104
1.00299
1.00589
1.01832
1.03273
1.12051
1.21205
1.82057
2.93864
6.99738
12.1322
11.4609
10.5137
1
1
1
1
1
1
1.00001
1.00001
1.00003
1.00007
1.00019
1.00039
1.0011
1.00216
1.00671
1.01178
1.04345
1.07094
1.2803
1.56947
2.89667
6.23847
12.3168
11.5732
10.5351
1
1
1
1
1
1
1.00001
1.00001
1.00003
1.00006
1.00018
1.00037
1.00105
1.0021
1.00626
1.01164
1.03972
1.06717
1.25797
1.51563
2.72706
5.72243
12.2883
11.58
10.5547
1
1
1
1
1
1
1
1.00001
1.00003
1.00007
1.00015
1.00043
1.00088
1.00253
1.0051
1.01514
1.02884
1.09625
1.17774
1.63904
2.4994
5.59161
12.0388
11.5068
10.5791
1
1
1
1
1
1
1
1.00001
1.00003
1.00007
1.00015
1.00043
1.00087
1.00247
1.005
1.01461
1.02881
1.09063
1.17461
1.60256
2.42549
5.37989
11.7437
11.392
10.6236
1
1
1
1
1
1
1
1.00001
1.00002
1.00007
1.00014
1.00039
1.0008
1.00231
1.00461
1.01397
1.02619
1.08916
1.16264
1.5875
2.36978
5.20271
11.5089
11.2974
10.7106
1
1
1
1
1
1
1
1.00001
1.00003
1.00006
1.00016
1.00033
1.00093
1.00189
1.00548
1.01071
1.03385
1.06015
1.2206
1.42265
2.50039
4.84154
11.2965
11.2295
10.8264
1
1
1
1
1
1
1
1.00001
1.00003
1.00006
1.00016
1.00032
1.00092
1.00186
1.00534
1.01061
1.03245
1.05971
1.21028
1.40609
2.45117
4.67147
11.0952
11.188
10.8546
1
1
1
1
1
1
1
1.00001
1.00003
1.00005
1.00015
1.00031
1.00088
1.00178
1.00515
1.0101
1.03174
1.05683
1.20743
1.39141
2.42597
4.56629
10.8857
11.149
10.8367
1
1
1
1
1
1
1
1.00001
1.00002
1.00006
1.00012
1.00035
1.00071
1.00205
1.00399
1.01259
1.02208
1.08151
1.13921
1.53249
2.20633
4.74884
10.6919
11.0601
10.778
1
1
1
1
1
1
1
1.00001
1.00002
1.00006
1.00012
1.00035
1.00072
1.00205
1.00407
1.01234
1.02253
1.07943
1.13763
1.51783
2.17579
4.66978
10.5248
10.9987
10.7379
1
1
1
1
1
1
1
1.00001
1.00002
1.00006
1.00012
1.00034
1.00068
1.00198
1.00384
1.01218
1.02128
1.07898
1.13394
1.5172
2.15997
4.64144
10.4569
10.9933
10.7276
1
1
1
1
1
1
1
1.00001
1.00002
1.00005
1.00014
1.00028
1.00081
1.00162
1.00486
1.00908
1.03061
1.05254
1.19886
1.36823
2.35969
4.33848
10.3536
11.0339
10.7607
1
1
1
1
1
1
1
1.00001
1.00002
1.00006
1.00012
1.00033
1.00068
1.00196
1.00379
1.01206
1.02102
1.07812
1.1319
1.51188
2.1372
4.58653
10.3033
10.9634
10.7056
1
1
1
1
1
1
1
1.00001
1.00002
1.00006
1.00012
1.00034
1.0007
1.002
1.00394
1.01205
1.02171
1.07783
1.13258
1.50675
2.12711
4.56129
10.2454
10.9462
10.6993
3.8804
3.35772
4.27335
4.30374
4.07032
3.96903
3.92161
3.86502
3.79153
3.72152
3.68234
3.66568
3.66075
3.6604
3.67375
3.70286
3.74708
3.80322
3.86732
3.9369
4.0104
4.08658
4.16434
4.2428
4.32093
4.39804
4.47379
4.54689
4.61579
4.67945
4.73803
4.79103
4.8387
4.88121
4.91842
4.95356
4.98261
5.00395
5.01945
5.02922
5.0342
5.03409
5.03154
5.02414
5.01031
4.99278
4.97226
4.94852
4.92184
4.8923
4.86018
4.82557
4.78888
4.75009
4.70959
4.66741
4.62383
4.57893
4.53291
4.48591
4.43807
4.38949
4.34035
4.29069
4.2407
4.19042
4.14001
4.08952
4.03908
3.98875
3.93866
3.88886
3.83944
3.79044
3.74195
3.69399
3.6466
3.5998
3.55364
3.50815
3.46336
3.41932
3.37609
3.33373
3.2923
3.25187
3.21253
3.17441
3.13772
3.10264
3.06937
3.03817
3.0094
2.98349
2.96098
2.94245
2.92852
2.91967
2.91602
2.91634
4.75898
4.25891
4.38144
4.25771
4.05033
3.99487
3.96634
3.88656
3.79056
3.70836
3.66713
3.65233
3.65029
3.65834
3.67306
3.70016
3.7434
3.79969
3.86391
3.93311
4.00618
4.08175
4.15877
4.23656
4.31401
4.38915
4.4655
4.53865
4.6076
4.67117
4.72995
4.78334
4.83157
4.87438
4.91219
4.94685
4.97553
4.99757
5.01322
5.0234
5.02836
5.02843
5.0265
5.0202
5.00659
4.98802
4.96725
4.94393
4.91759
4.88831
4.85633
4.82195
4.78536
4.74679
4.70639
4.66438
4.62091
4.57616
4.53026
4.48338
4.43565
4.38719
4.33814
4.2886
4.23869
4.1885
4.13815
4.08773
4.03734
3.98707
3.93702
3.88728
3.8379
3.78897
3.74054
3.69263
3.64529
3.59853
3.55242
3.50697
3.46222
3.41819
3.37502
3.33271
3.29132
3.25091
3.2116
3.17348
3.1369
3.10193
3.06877
3.0377
3.00908
2.98332
2.96101
2.94268
2.92898
2.92056
2.9179
2.91848
5.55878
4.81903
4.55181
4.30765
4.09671
4.00163
3.92489
3.8578
3.77963
3.71123
3.67298
3.6606
3.65756
3.65577
3.66389
3.69246
3.73669
3.79346
3.85746
3.92664
3.9999
4.07569
4.15305
4.23105
4.30873
4.38545
4.46115
4.53407
4.60288
4.66661
4.72549
4.77889
4.8271
4.86987
4.90781
4.94129
4.96953
4.99143
5.00712
5.01705
5.02178
5.02165
5.02001
5.01467
5.00249
4.98262
4.96104
4.93767
4.91153
4.88252
4.85073
4.81653
4.78009
4.74167
4.70142
4.65957
4.61625
4.57165
4.5259
4.47917
4.43158
4.38326
4.33434
4.28492
4.23512
4.18504
4.13479
4.08445
4.03416
3.98396
3.934
3.88432
3.83504
3.78618
3.73784
3.68999
3.64275
3.59607
3.55009
3.50476
3.46014
3.41613
3.37316
3.33103
3.28983
3.24962
3.21057
3.17281
3.13635
3.10145
3.06844
3.0376
3.0093
2.98399
2.96216
2.94445
2.93156
2.92437
2.92338
2.92424
5.93191
5.1502
4.70467
4.41611
4.19633
4.05788
3.97147
3.89986
3.81725
3.74228
3.69264
3.66692
3.65801
3.66032
3.67225
3.70032
3.74445
3.79981
3.86257
3.93037
4.00223
4.07681
4.15298
4.22984
4.30624
4.38149
4.45526
4.52672
4.59444
4.65747
4.71564
4.76866
4.81655
4.8591
4.8967
4.92944
4.95711
4.97892
4.99494
5.00508
5.00968
5.00948
5.008
5.00346
4.99304
4.97318
4.95074
4.92678
4.90065
4.87195
4.84058
4.80674
4.77063
4.73252
4.69257
4.65101
4.60798
4.56367
4.51821
4.47176
4.42445
4.3764
4.32773
4.27855
4.22897
4.1791
4.12903
4.07887
4.02874
3.97873
3.92894
3.87946
3.8304
3.78174
3.73361
3.68598
3.63894
3.59244
3.54665
3.50153
3.45716
3.41365
3.37074
3.32868
3.28762
3.24762
3.20881
3.1713
3.13524
3.10081
3.06832
3.03805
3.01042
2.98588
2.96501
2.94855
2.93712
2.93226
2.93247
2.93394
6.12987
5.39894
4.90023
4.57671
4.34839
4.18753
4.08734
4.00708
3.92381
3.84501
3.78523
3.74657
3.72568
3.71825
3.72035
3.73135
3.75948
3.81561
3.87919
3.9456
4.01502
4.08685
4.16044
4.23464
4.30846
4.38151
4.45299
4.52217
4.58786
4.64925
4.70594
4.75772
4.80453
4.84619
4.88288
4.91462
4.94138
4.96274
4.97851
4.98863
4.99311
4.99291
4.9916
4.98774
4.97888
4.96091
4.93809
4.91341
4.88706
4.85859
4.82769
4.79434
4.75872
4.72103
4.68149
4.64031
4.59766
4.55371
4.50861
4.46251
4.41553
4.3678
4.31943
4.27055
4.22122
4.17159
4.12175
4.07182
4.02191
3.97214
3.9226
3.87339
3.82462
3.77619
3.72828
3.68088
3.63414
3.58801
3.54253
3.49768
3.45356
3.41021
3.36763
3.32592
3.28521
3.24559
3.20722
3.17021
3.13476
3.10104
3.06932
3.03996
3.01339
2.99013
2.97081
2.95621
2.9472
2.9455
2.94614
2.9487
6.26576
5.61215
5.11822
4.77388
4.54118
4.37845
4.2744
4.19382
4.11235
4.02683
3.94611
3.87846
3.82818
3.79685
3.78922
3.79304
3.80748
3.84183
3.9041
3.97127
4.03921
4.10738
4.17644
4.24557
4.31423
4.3823
4.44912
4.51439
4.57696
4.63599
4.69088
4.74127
4.78695
4.82778
4.86371
4.89479
4.92099
4.94205
4.95781
4.96813
4.9728
4.97262
4.97145
4.96805
4.96033
4.94455
4.92235
4.89742
4.87075
4.84224
4.81162
4.77873
4.74362
4.70644
4.66738
4.62665
4.58444
4.54092
4.49624
4.45054
4.40396
4.35662
4.30861
4.26006
4.21106
4.16172
4.11217
4.06253
4.01293
3.96347
3.91422
3.86534
3.81693
3.76904
3.72167
3.67478
3.62844
3.58265
3.53746
3.49291
3.44909
3.40605
3.36388
3.32262
3.2824
3.24333
3.20558
3.1693
3.1347
3.10194
3.07138
3.04339
3.01845
2.9971
2.98008
2.96811
2.96291
2.96329
2.9649
2.9695
6.37513
5.80324
5.34022
5.00221
4.77137
4.61635
4.5147
4.43598
4.35301
4.25717
4.15476
4.05769
3.97832
3.92203
3.89044
3.88371
3.88766
3.90219
3.93649
3.99929
4.06692
4.13345
4.19826
4.26169
4.32412
4.38598
4.44707
4.50718
4.56566
4.62164
4.67412
4.72275
4.76699
4.80664
4.84151
4.87175
4.89739
4.91797
4.93368
4.94412
4.94901
4.94884
4.94776
4.94469
4.93782
4.9238
4.90308
4.87868
4.85198
4.8234
4.79291
4.76038
4.72578
4.68916
4.65068
4.61049
4.56881
4.5258
4.48161
4.4364
4.39029
4.34339
4.29581
4.24765
4.19904
4.15007
4.1009
4.05166
4.00245
3.95347
3.90494
3.85667
3.8088
3.76134
3.71435
3.66781
3.62181
3.57635
3.53152
3.48737
3.44398
3.40142
3.35977
3.31913
3.2796
3.24133
3.20447
3.16923
3.13575
3.10437
3.07547
3.04944
3.02679
3.00815
2.99431
2.98619
2.98545
2.98648
2.98976
2.99799
6.47979
5.9877
5.57115
5.25825
5.04239
4.90283
4.80732
4.72739
4.63586
4.52402
4.39702
4.27187
4.16128
4.075
4.01689
3.98674
3.98274
3.98684
4.0012
4.03452
4.09466
4.15903
4.22095
4.27971
4.33615
4.39178
4.44631
4.50028
4.5535
4.60524
4.65453
4.70069
4.74307
4.78134
4.81505
4.8443
4.86934
4.88952
4.90523
4.91586
4.92119
4.92106
4.92012
4.91739
4.91126
4.89879
4.87974
4.85646
4.83025
4.80181
4.77144
4.73919
4.70502
4.66896
4.63108
4.5915
4.55043
4.50799
4.46437
4.41969
4.3741
4.32768
4.28056
4.23284
4.18464
4.13611
4.08736
4.03865
3.99022
3.94195
3.89401
3.84631
3.79895
3.75192
3.70534
3.65924
3.61367
3.5687
3.52439
3.4808
3.438
3.39609
3.35515
3.31532
3.2767
3.23948
3.20386
3.16996
3.13806
3.10857
3.08189
3.05848
3.03893
3.02393
3.01431
3.01161
3.01236
3.01514
3.02184
3.03677
6.59189
6.17876
5.8254
5.55099
5.35736
5.2329
5.14077
5.05101
4.94012
4.80366
4.65239
4.5011
4.36397
4.25172
4.16901
4.11644
4.09077
4.08774
4.09111
4.10323
4.13163
4.18442
4.24077
4.29528
4.34722
4.39749
4.44617
4.49421
4.54164
4.58821
4.63329
4.67618
4.71613
4.75255
4.78501
4.81335
4.83759
4.85738
4.873
4.88383
4.88978
4.88973
4.88895
4.88655
4.88111
4.86998
4.85255
4.83071
4.80546
4.77756
4.74751
4.71556
4.6818
4.64626
4.609
4.57009
4.52968
4.48791
4.44492
4.40086
4.35584
4.30996
4.26336
4.21613
4.16841
4.12045
4.07254
4.02465
3.97694
3.92936
3.88199
3.83486
3.78802
3.74154
3.69547
3.64992
3.60491
3.56053
3.51684
3.47392
3.43186
3.39074
3.35071
3.31189
3.27445
3.23859
3.20446
3.17227
3.14247
3.11544
3.09163
3.07161
3.05602
3.04559
3.04155
3.04208
3.04432
3.0501
3.06229
3.08751
6.72516
6.39088
6.10306
5.87834
5.71707
5.59934
5.49551
5.38081
5.24168
5.08017
4.90657
4.73543
4.57921
4.44733
4.3437
4.27003
4.22284
4.19814
4.19024
4.19196
4.19985
4.21989
4.26062
4.30659
4.35423
4.39985
4.44462
4.48787
4.52999
4.57123
4.61149
4.6503
4.68701
4.72099
4.75171
4.77885
4.80225
4.82171
4.83712
4.848
4.8546
4.85492
4.85428
4.85219
4.84736
4.83743
4.8215
4.80119
4.77722
4.75025
4.72082
4.68935
4.65604
4.62102
4.58435
4.54611
4.5064
4.46534
4.42304
4.37963
4.33521
4.28991
4.24384
4.19716
4.15022
4.10312
4.05603
4.00894
3.96191
3.91497
3.86821
3.82169
3.77546
3.72961
3.68417
3.63927
3.59492
3.55126
3.50832
3.46623
3.42507
3.38498
3.3461
3.30859
3.27267
3.23857
3.20632
3.17642
3.14932
3.12545
3.10536
3.08967
3.07908
3.07447
3.07489
3.07697
3.08248
3.0946
3.11329
3.1495
6.89551
6.63913
6.41805
6.23957
6.09794
5.97301
5.84496
5.69794
5.52734
5.34201
5.15201
4.96846
4.80085
4.6557
4.53622
4.44331
4.37509
4.32852
4.29992
4.28395
4.28256
4.2855
4.29625
4.32047
4.35883
4.39892
4.43913
4.47871
4.51705
4.554
4.58974
4.62418
4.65703
4.68782
4.71617
4.74165
4.76398
4.78282
4.79802
4.80894
4.81585
4.81688
4.81634
4.81453
4.81026
4.80145
4.78686
4.76805
4.74553
4.71979
4.69133
4.66058
4.62788
4.59344
4.55739
4.51983
4.48085
4.44052
4.39896
4.35625
4.3125
4.26779
4.22239
4.17658
4.13056
4.08438
4.0381
3.99177
3.94547
3.89925
3.8532
3.80739
3.76188
3.71675
3.67207
3.62793
3.5844
3.54157
3.49956
3.45848
3.41844
3.37961
3.34217
3.3063
3.27231
3.24015
3.21037
3.18343
3.15973
3.13984
3.1244
3.11399
3.10946
3.10987
3.11196
3.11748
3.12937
3.15281
3.17524
3.21489
7.11394
6.93112
6.76769
6.62118
6.4811
6.33362
6.1698
5.98739
5.79082
5.58813
5.38805
5.19862
5.02561
4.87249
4.74166
4.63214
4.54435
4.4763
4.4258
4.38988
4.36724
4.35457
4.35501
4.35926
4.37169
4.39792
4.43035
4.46475
4.49986
4.53417
4.56681
4.59765
4.62676
4.65409
4.67956
4.70286
4.72366
4.74152
4.75619
4.76699
4.77398
4.77566
4.77522
4.77367
4.76993
4.76216
4.74875
4.73132
4.71029
4.68597
4.65873
4.62899
4.5971
4.56337
4.528
4.49114
4.45289
4.41332
4.3725
4.33051
4.28742
4.24349
4.19903
4.15421
4.10912
4.06382
4.01838
3.97287
3.92736
3.88195
3.83669
3.79168
3.74698
3.70269
3.65886
3.61562
3.57304
3.53124
3.49034
3.45049
3.41184
3.37457
3.33892
3.30516
3.27337
3.24381
3.21717
3.19387
3.17443
3.15948
3.14971
3.14559
3.14611
3.14846
3.15459
3.1677
3.19034
3.21906
3.24264
3.28114
7.38805
7.26536
7.13962
7.00179
6.84323
6.66137
6.46039
6.24786
6.0321
5.81978
5.61656
5.42625
5.25135
5.09319
4.95279
4.82971
4.72473
4.6369
4.56511
4.50799
4.46476
4.43399
4.41478
4.40637
4.40748
4.41301
4.42673
4.45273
4.47831
4.5095
4.54001
4.56857
4.59502
4.6195
4.64224
4.66317
4.68206
4.69851
4.71231
4.72251
4.72947
4.73157
4.73122
4.72989
4.72661
4.71972
4.70737
4.69124
4.67167
4.64885
4.62303
4.59452
4.56369
4.53085
4.49629
4.46019
4.42269
4.38388
4.34381
4.30252
4.26026
4.21735
4.17393
4.13012
4.08598
4.0416
3.99706
3.95244
3.90783
3.8633
3.81894
3.77483
3.73105
3.68771
3.64489
3.6027
3.56125
3.52069
3.48114
3.4428
3.40585
3.37053
3.33713
3.30586
3.27668
3.25055
3.22783
3.20905
3.19483
3.18588
3.18281
3.18349
3.18629
3.19335
3.20815
3.2322
3.2596
3.28938
3.31138
3.34581
7.71218
7.62765
7.51435
7.36073
7.1678
6.94763
6.71496
6.48168
6.25537
6.04038
5.83862
5.6502
5.47522
5.31354
5.16545
5.03067
4.91077
4.80535
4.71455
4.63805
4.57532
4.52544
4.48777
4.4615
4.44552
4.44108
4.44272
4.44918
4.46386
4.4838
4.50925
4.53531
4.5598
4.5825
4.60342
4.62243
4.63946
4.65431
4.66689
4.67629
4.68286
4.68507
4.68478
4.6836
4.68065
4.67442
4.66299
4.64805
4.62988
4.60854
4.5842
4.55708
4.52749
4.49574
4.46213
4.42688
4.39018
4.35213
4.31278
4.27233
4.23112
4.1893
4.14695
4.10417
4.06105
4.01766
3.97411
3.93047
3.88683
3.84328
3.79992
3.75682
3.7141
3.67185
3.63019
3.58924
3.54915
3.51006
3.47217
3.43568
3.40084
3.36794
3.33737
3.30877
3.28325
3.26128
3.24337
3.23007
3.22211
3.22034
3.22128
3.22473
3.23308
3.25032
3.27541
3.30389
3.33185
3.35912
3.37745
3.40602
8.07525
8.00332
7.8763
7.68342
7.44682
7.1922
6.93798
6.69456
6.46635
6.2538
6.05567
5.86984
5.69496
5.53012
5.37542
5.2312
5.09807
4.97755
4.87033
4.7765
4.69595
4.6282
4.57295
4.5294
4.49661
4.47477
4.4617
4.45985
4.46162
4.46752
4.48036
4.50005
4.52057
4.54169
4.56149
4.57937
4.59508
4.60865
4.61987
4.62849
4.63442
4.63637
4.63608
4.63496
4.63216
4.62627
4.61567
4.60184
4.58495
4.56504
4.54217
4.51652
4.48831
4.45781
4.4253
4.39104
4.35522
4.31795
4.27945
4.24004
4.19994
4.15923
4.11801
4.07633
4.03431
3.99201
3.94954
3.90698
3.86443
3.82198
3.77973
3.7378
3.69628
3.65531
3.61501
3.57555
3.53706
3.49977
3.46388
3.42968
3.39744
3.36763
3.33984
3.31508
3.29406
3.27722
3.26518
3.25817
3.25799
3.25927
3.26354
3.27353
3.29372
3.32012
3.3491
3.37763
3.40285
3.42523
3.43849
3.46078
8.46176
8.38272
8.2158
7.95871
7.67791
7.40008
7.13716
6.89364
6.66939
6.46182
6.26756
6.08358
5.90791
5.73973
5.57909
5.4268
5.28332
5.15077
5.02999
4.92139
4.8252
4.7412
4.66917
4.60899
4.55986
4.52148
4.4931
4.47481
4.46388
4.46266
4.46388
4.4688
4.47997
4.49733
4.51478
4.53174
4.54685
4.55992
4.5704
4.57838
4.58383
4.58539
4.58507
4.58391
4.58112
4.5753
4.56545
4.55264
4.53694
4.51836
4.49694
4.47277
4.44601
4.41687
4.38561
4.35247
4.31763
4.2813
4.24386
4.20561
4.16668
4.12715
4.0871
4.04661
4.00577
3.96465
3.92337
3.882
3.84066
3.79943
3.75846
3.71785
3.67773
3.63826
3.59956
3.56186
3.52532
3.49022
3.4568
3.42542
3.39653
3.36978
3.34595
3.32604
3.31047
3.29988
3.29452
3.29486
3.29693
3.30268
3.31519
3.33823
3.36603
3.39558
3.42405
3.44927
3.46939
3.48549
3.49351
3.50953
8.8766
8.75331
8.49839
8.18088
7.86949
7.5823
7.32168
7.08496
6.86767
6.66533
6.47381
6.29014
6.11266
5.94084
5.775
5.61597
5.46444
5.32237
5.1905
5.06955
4.95997
4.86192
4.77528
4.69974
4.63504
4.58082
4.53675
4.50257
4.47752
4.46162
4.45266
4.44887
4.45018
4.45477
4.46487
4.47892
4.49271
4.50553
4.51614
4.52427
4.52984
4.53144
4.53109
4.52989
4.5271
4.52138
4.5122
4.5003
4.4857
4.46839
4.44837
4.42567
4.40039
4.3727
4.34281
4.31093
4.27725
4.24211
4.20594
4.16896
4.13127
4.093
4.05421
4.01499
3.97542
3.9356
3.89562
3.85556
3.81558
3.77575
3.73624
3.69715
3.65867
3.62095
3.58419
3.54861
3.51444
3.48202
3.45166
3.42388
3.39842
3.37571
3.35718
3.34299
3.33404
3.33076
3.33148
3.33455
3.34226
3.35839
3.38332
3.4126
3.44288
3.47135
3.49602
3.51565
3.52953
3.5392
3.54341
3.55237
9.27843
9.03899
8.70292
8.3579
8.04022
7.75699
7.50421
7.27528
7.0639
6.86469
6.67379
6.48888
6.30877
6.13327
5.96294
5.79858
5.64092
5.49125
5.35067
5.2198
5.09918
4.98895
4.88923
4.79984
4.72075
4.65171
4.5925
4.54297
4.50289
4.47188
4.44994
4.43445
4.42273
4.42116
4.42228
4.42604
4.43424
4.44517
4.45527
4.4639
4.47031
4.47306
4.47279
4.47176
4.46929
4.46421
4.45567
4.44462
4.43109
4.41503
4.39637
4.37513
4.35135
4.32517
4.29676
4.26627
4.23398
4.20037
4.16568
4.1301
4.09378
4.05685
4.0194
3.98154
3.94334
3.90492
3.86636
3.82778
3.78931
3.75108
3.71324
3.67594
3.63939
3.60377
3.56933
3.53631
3.50507
3.47594
3.44948
3.42554
3.40425
3.3872
3.37495
3.36735
3.36656
3.3678
3.3721
3.38213
3.40253
3.42955
3.45999
3.49074
3.5192
3.5434
3.56217
3.5752
3.58276
3.58661
3.58799
3.59161
9.58504
9.22729
8.85624
8.51025
8.20196
7.93003
7.68743
7.46581
7.25829
7.06002
6.86806
6.68068
6.49741
6.3184
6.14427
5.97566
5.8134
5.65763
5.51005
5.3711
5.2412
5.12058
5.00946
4.90781
4.81575
4.73302
4.65962
4.59546
4.54053
4.4946
4.45752
4.42994
4.40701
4.39017
4.38153
4.37979
4.38056
4.38324
4.38916
4.39694
4.40353
4.40823
4.40868
4.40813
4.40645
4.40275
4.3954
4.38542
4.373
4.35816
4.34085
4.32106
4.29883
4.27426
4.24749
4.21866
4.18811
4.1562
4.12315
4.08912
4.0543
4.01882
3.98283
3.94642
3.90971
3.87281
3.83582
3.79889
3.76214
3.72573
3.68983
3.65464
3.62036
3.58726
3.5556
3.52573
3.49806
3.47314
3.45094
3.43132
3.41602
3.40575
3.40061
3.401
3.40329
3.40961
3.42325
3.44738
3.47649
3.50794
3.53904
3.5673
3.59103
3.609
3.62108
3.62747
3.62922
3.62901
3.62822
3.62889
9.78816
9.36141
8.98253
8.65099
8.361
8.10505
7.87294
7.65657
7.45023
7.25062
7.05599
6.86543
6.67895
6.49676
6.31941
6.14727
5.98095
5.82044
5.66737
5.52175
5.38408
5.25469
5.1338
5.02151
4.91783
4.82284
4.7366
4.65894
4.58985
4.52951
4.47788
4.43503
4.40146
4.37242
4.34944
4.3358
4.3279
4.32535
4.32578
4.32741
4.33111
4.33594
4.33831
4.33811
4.33724
4.33503
4.33036
4.32212
4.31109
4.29758
4.28164
4.26334
4.24275
4.21995
4.19502
4.16812
4.13959
4.10961
4.07838
4.04609
4.01292
3.97905
3.94463
3.9098
3.8747
3.83947
3.80423
3.76914
3.73435
3.70004
3.66642
3.6337
3.60215
3.57207
3.54381
3.5178
3.49467
3.47443
3.45677
3.44349
3.4353
3.43317
3.43416
3.43793
3.44704
3.46579
3.49226
3.52335
3.55588
3.58727
3.61534
3.63839
3.65565
3.66671
3.67223
3.67218
3.6714
3.66901
3.66345
3.66287
9.92627
9.45781
9.09071
8.78789
8.52367
8.28319
8.05831
7.84376
7.63628
7.4343
7.2367
7.0432
6.85394
6.6691
6.48902
6.3139
6.14413
5.98001
5.82182
5.67044
5.52622
5.38931
5.25996
5.1383
5.02444
4.91847
4.82042
4.73046
4.6486
4.57509
4.5101
4.45359
4.40534
4.36613
4.33029
4.30217
4.28297
4.27047
4.26313
4.25963
4.25968
4.26019
4.26144
4.26216
4.26186
4.26082
4.25833
4.2532
4.24426
4.23255
4.21833
4.20179
4.18305
4.16222
4.13937
4.11467
4.08834
4.06051
4.03132
4.00098
3.96966
3.93758
3.90491
3.87185
3.83855
3.80519
3.77191
3.73892
3.70638
3.67451
3.64355
3.61377
3.58548
3.55906
3.53494
3.5138
3.49584
3.48028
3.46947
3.46363
3.4639
3.46593
3.47183
3.48469
3.50862
3.5379
3.57036
3.60346
3.63485
3.66272
3.68513
3.70159
3.71199
3.71623
3.71604
3.71486
3.71175
3.70526
3.69279
3.69061
10.0033
9.53295
9.19633
8.9277
8.68812
8.46089
8.2405
8.02539
7.81527
7.60967
7.40886
7.21278
7.0214
6.83454
6.6523
6.47469
6.30199
6.13439
5.97202
5.81582
5.66599
5.52261
5.38594
5.25614
5.13336
5.01777
4.90943
4.80857
4.71521
4.62957
4.55172
4.48189
4.42026
4.36687
4.3227
4.28167
4.2489
4.22497
4.20774
4.196
4.18905
4.18528
4.18378
4.18347
4.18303
4.18217
4.18055
4.17745
4.17147
4.1625
4.15079
4.13658
4.12009
4.10147
4.0809
4.05858
4.03462
4.0091
3.98217
3.95399
3.92476
3.89469
3.864
3.83291
3.80163
3.77036
3.73932
3.70871
3.67876
3.64976
3.62195
3.59569
3.57132
3.54938
3.53046
3.51499
3.50199
3.49344
3.49141
3.49236
3.49613
3.50531
3.52415
3.55089
3.58272
3.61665
3.65033
3.68159
3.70883
3.73054
3.74633
3.75611
3.75938
3.75907
3.75763
3.75396
3.74621
3.73508
3.71946
3.71546
10.0256
9.60061
9.3088
9.07206
8.85036
8.63063
8.4116
8.195
7.98246
7.77463
7.57188
7.37403
7.18091
6.99224
6.80798
6.62806
6.45264
6.28179
6.11579
5.95545
5.80089
5.65205
5.50919
5.3724
5.24194
5.11795
5.00062
4.89014
4.78664
4.69033
4.60132
4.51986
4.44612
4.38028
4.32253
4.27298
4.22725
4.19
4.16103
4.13916
4.12359
4.11323
4.10707
4.10371
4.10184
4.1005
4.09905
4.0969
4.09323
4.08721
4.07854
4.06728
4.05356
4.03759
4.01962
3.99984
3.97839
3.95538
3.93091
3.90514
3.87826
3.85049
3.82207
3.79326
3.7643
3.73546
3.70698
3.67914
3.65221
3.62652
3.60239
3.58024
3.56053
3.54412
3.53126
3.52123
3.51553
3.51592
3.51823
3.5247
3.53865
3.56329
3.59315
3.62667
3.66158
3.69566
3.72685
3.75356
3.77474
3.78976
3.79873
3.80145
3.80104
3.79942
3.79542
3.78716
3.77451
3.76109
3.74401
3.73871
10.0272
9.6713
9.4245
9.21056
8.99849
8.78224
8.56416
8.34758
8.13468
7.92642
7.72306
7.5244
7.33025
7.14031
6.9545
6.77271
6.59505
6.42157
6.25249
6.08799
5.92907
5.77547
5.62725
5.48449
5.34743
5.21625
5.09119
4.97244
4.8602
4.75464
4.6559
4.5642
4.47969
4.40262
4.33311
4.27173
4.21746
4.16779
4.12706
4.09417
4.06851
4.0494
4.0359
4.02697
4.02145
4.01811
4.01586
4.0139
4.01147
4.0077
4.00196
3.99383
3.98321
3.97024
3.95517
3.93824
3.91958
3.8993
3.87754
3.85446
3.83022
3.80507
3.77926
3.7531
3.72686
3.70086
3.67542
3.65086
3.62756
3.60586
3.58621
3.56904
3.55525
3.54536
3.53766
3.53656
3.53777
3.54211
3.55239
3.57306
3.60041
3.63304
3.66845
3.70436
3.73873
3.76978
3.79605
3.81665
3.83109
3.83955
3.84174
3.84127
3.83953
3.83538
3.82683
3.81452
3.79966
3.78486
3.7669
3.76065
10.0292
9.74285
9.53102
9.32913
9.1209
8.90738
8.69239
8.47883
8.26842
8.06197
7.85973
7.66161
7.46745
7.27707
7.09034
6.90725
6.72782
6.55212
6.38017
6.21228
6.04956
5.89176
5.7389
5.59103
5.44833
5.31102
5.17934
5.0535
4.93372
4.82017
4.713
4.61241
4.51856
4.43165
4.35192
4.27953
4.21514
4.15688
4.10421
4.0605
4.02435
3.99541
3.97315
3.95684
3.9456
3.93823
3.93342
3.93036
3.92795
3.92533
3.92183
3.91659
3.90919
3.89955
3.8878
3.8741
3.85855
3.84131
3.82252
3.80238
3.78107
3.75887
3.73605
3.71293
3.68983
3.66712
3.64519
3.62442
3.6053
3.58824
3.57392
3.5627
3.55612
3.55202
3.55267
3.55567
3.56338
3.57966
3.60483
3.63574
3.67057
3.70735
3.74412
3.77884
3.80979
3.83571
3.85587
3.86985
3.87789
3.87981
3.87931
3.87755
3.8734
3.86492
3.85277
3.83854
3.82247
3.80672
3.78811
3.78118
10.041
9.80178
9.61257
9.41766
9.21355
9.00539
8.79651
8.58862
8.38287
8.17998
7.98028
7.78388
7.59067
7.40063
7.21366
7.02983
6.84916
6.67178
6.49775
6.32722
6.16076
5.99912
5.84216
5.68986
5.54235
5.39985
5.26259
5.13081
5.00471
4.88445
4.77021
4.66212
4.56034
4.46505
4.37648
4.29479
4.22027
4.15352
4.09202
4.03751
3.99103
3.95209
3.92042
3.89563
3.87717
3.86414
3.85515
3.84943
3.84581
3.84314
3.84079
3.83769
3.83314
3.8267
3.81827
3.80785
3.79553
3.78148
3.76587
3.74889
3.7308
3.71192
3.69251
3.67296
3.65357
3.63482
3.61709
3.6009
3.58685
3.57526