/*--------------------------------*- C++ -*----------------------------------*\
| =========                 |                                                 |
| \\      /  F ield         | OpenFOAM: The Open Source CFD Toolbox           |
|  \\    /   O peration     | Version:  2112                                  |
|   \\  /    A nd           | Website:  www.openfoam.com                      |
|    \\/     M anipulation  |                                                 |
\*---------------------------------------------------------------------------*/
FoamFile
{
    version     2.0;
    format      ascii;
    arch        "LSB;label=32;scalar=64";
    class       surfaceScalarField;
    location    "9.5";
    object      phi;
}
// * * * * * * * * * * * * * * * * * * * * * * * * * * * * * * * * * * * * * //

dimensions      [1 0 -1 0 0 0 0];

oriented        oriented;

internalField   nonuniform List<scalar> 
10325
(
0.00840003
1.40285e-10
0.00840003
1.09009e-09
0.00840002
3.32883e-09
0.00840001
1.00538e-08
0.00839999
2.41119e-08
0.00839992
6.11417e-08
0.00839976
1.56029e-07
0.00839943
3.01699e-07
0.00839844
9.58751e-07
0.00839686
1.41561e-06
0.0083921
4.64173e-06
0.0083807
1.05837e-05
0.00834985
3.11453e-05
0.00821764
0.000129277
0.00764256
0.000569281
0.00703993
0.000602164
0.00642877
0.000610735
0.00580044
0.000627829
0.00514332
0.000656335
0.00443687
0.000705579
0.00367145
0.000764565
0.0028477
0.000822822
0.00196672
0.000880037
0.00102337
0.000942386
0.00102246
0.00840003
2.49137e-10
0.00840003
1.93971e-09
0.00840002
5.94401e-09
0.00840002
1.7937e-08
0.0084
4.29159e-08
0.00839994
1.10065e-07
0.00839982
2.71346e-07
0.00839952
5.75698e-07
0.00839883
1.61866e-06
0.00839713
2.95326e-06
0.00839312
8.50642e-06
0.00838191
2.10179e-05
0.00834695
6.63371e-05
0.0082174
0.000255957
0.00763346
0.00114731
0.00702392
0.00121124
0.00641797
0.00121627
0.005799
0.00124631
0.00514364
0.0013109
0.00442887
0.00141946
0.00365627
0.00153632
0.00282375
0.00165435
0.00193133
0.00177144
0.000982258
0.00189047
0.00200373
0.00840003
3.31315e-10
0.00840003
2.56996e-09
0.00840003
7.89569e-09
0.00840002
2.37632e-08
0.0084
5.66431e-08
0.00839996
1.46879e-07
0.00839988
3.48943e-07
0.00839962
8.08819e-07
0.00839921
2.02534e-06
0.0083975
4.49319e-06
0.00839423
1.17133e-05
0.00838386
3.07357e-05
0.00834565
0.000103945
0.00822272
0.000376651
0.00763404
0.00172989
0.00701562
0.00182929
0.00641768
0.00181388
0.00580314
0.00186039
0.00515287
0.0019604
0.0044438
0.0021277
0.00367277
0.00230646
0.00283726
0.00248902
0.00193777
0.00266998
0.00098327
0.00284398
0.00298601
0.00840003
3.93888e-10
0.00840003
3.05445e-09
0.00840003
9.39343e-09
0.00840002
2.82883e-08
0.00840001
6.72008e-08
0.00839997
1.7681e-07
0.00839992
4.06635e-07
0.00839967
1.02094e-06
0.00839937
2.33131e-06
0.00839756
6.12732e-06
0.00839451
1.47045e-05
0.00838301
4.15774e-05
0.00834889
0.000137442
0.00822092
0.000502389
0.00763006
0.00231427
0.00700793
0.00245123
0.00642847
0.00239319
0.00581694
0.00247147
0.00517885
0.00259775
0.00448686
0.00281908
0.00372771
0.00306468
0.00289701
0.0033187
0.00198946
0.00357652
0.00101159
0.00382105
0.0039966
0.00840003
4.44414e-10
0.00840003
3.44533e-09
0.00840003
1.05763e-08
0.00840002
3.19007e-08
0.00840001
7.55225e-08
0.00839998
2.0105e-07
0.00839994
4.52829e-07
0.00839973
1.19635e-06
0.00839947
2.59775e-06
0.00839785
7.56327e-06
0.00839569
1.68565e-05
0.00838191
5.46579e-05
0.00835246
0.000166283
0.00822506
0.000627499
0.00763835
0.00289391
0.00701353
0.00307623
0.00644746
0.00295932
0.00586009
0.00305844
0.00524011
0.00321724
0.00456436
0.00349407
0.00381903
0.00380949
0.00299486
0.00414195
0.00208164
0.0044888
0.00107566
0.00482567
0.00507124
0.00840003
4.70851e-10
0.00840003
3.64999e-09
0.00840003
1.12395e-08
0.00840002
3.3881e-08
0.00840002
8.00262e-08
0.0084
2.15078e-07
0.00839998
4.73299e-07
0.00839984
1.31314e-06
0.0083997
2.73873e-06
0.00839863
8.44001e-06
0.00839756
1.79749e-05
0.00838614
6.52641e-05
0.00837445
0.000177634
0.00824769
0.00075179
0.00771751
0.00341617
0.00708639
0.00370805
0.00652171
0.0035243
0.00595011
0.00362956
0.00535114
0.00381575
0.00470031
0.00414441
0.00397327
0.00453618
0.00315458
0.00495994
0.00222372
0.00541898
0.00116779
0.00588099
0.00623806
0.00840003
5.00797e-10
0.00840003
3.88084e-09
0.00840003
1.19012e-08
0.00840002
3.59504e-08
0.00840002
8.45183e-08
0.0084
2.29828e-07
0.00839998
4.95491e-07
0.00839983
1.43654e-06
0.00839969
2.88099e-06
0.00839847
9.47657e-06
0.00839672
1.97424e-05
0.00838786
7.33556e-05
0.0083675
0.000197437
0.00828161
0.000834713
0.00788104
0.00380761
0.00723543
0.0043549
0.00666005
0.00410049
0.00609966
0.00418963
0.00552116
0.00439373
0.00489293
0.00477158
0.00418888
0.00523967
0.00338576
0.00576247
0.00245015
0.00635353
0.00133174
0.0069982
0.00756883
0.00840003
5.11402e-10
0.00840003
3.97385e-09
0.00840003
1.23637e-08
0.00840003
3.72207e-08
0.00840002
8.77479e-08
0.00840001
2.40053e-07
0.0084
5.03076e-07
0.00839985
1.56248e-06
0.00839989
2.84466e-06
0.00839839
1.07928e-05
0.0083975
2.06669e-05
0.00839056
7.95006e-05
0.00837465
0.000212709
0.00833605
0.000870473
0.00820364
0.00392944
0.00751299
0.0050476
0.00689891
0.00471551
0.00633899
0.00474958
0.00578552
0.00494732
0.00518402
0.00537277
0.00450654
0.0059165
0.00371645
0.00655199
0.00277976
0.00728983
0.00159442
0.0081831
0.00916237
0.00840003
4.54702e-10
0.00840003
4.85956e-09
0.00840003
1.37277e-08
0.00840002
4.3927e-08
0.00840001
9.78136e-08
0.00839997
2.75394e-07
0.00839989
5.822e-07
0.00839979
1.63764e-06
0.00839936
3.27222e-06
0.00839925
1.07335e-05
0.00839978
2.01502e-05
0.00839733
8.11384e-05
0.00840585
0.0002035
0.00844437
0.00082917
0.00877205
0.00359057
0.00804958
0.0057726
0.00729799
0.00546819
0.00672707
0.00531988
0.00615601
0.00551723
0.00557544
0.00595275
0.00492871
0.00656258
0.00421554
0.00726435
0.00333509
0.00816925
0.00208598
0.00943121
0.0112476
0.00840003
4.43632e-11
0.00840003
5.35881e-09
0.00840004
6.26456e-09
0.00840003
4.54393e-08
0.00840009
4.605e-08
0.00840007
2.84388e-07
0.0084004
2.54588e-07
0.00840019
1.82549e-06
0.0084023
1.16885e-06
0.00839941
1.34548e-05
0.00841274
6.81611e-06
0.00839645
9.66597e-05
0.00849147
0.000107646
0.00864173
0.000676705
0.00974667
0.00247288
0.00893667
0.00658564
0.00792771
0.0064797
0.00734906
0.00590003
0.00673226
0.00613416
0.00615269
0.00653209
0.00556163
0.00715328
0.00491649
0.00790914
0.00409491
0.00899041
0.00290725
0.0106182
0.0141542
0.00840003
1.00691e-09
0.00840003
1.73168e-09
0.00840002
1.56497e-08
0.00840005
1.88573e-08
0.00839998
1.08473e-07
0.00840015
1.22887e-07
0.00839974
6.52826e-07
0.00840083
7.33341e-07
0.0083979
4.04231e-06
0.00840728
4.06347e-06
0.00838465
2.91778e-05
0.00845638
2.47589e-05
0.00833692
0.00022598
0.00867729
0.000336109
0.00922461
0.00191858
0.00903381
0.00677169
0.00861784
0.00689384
0.0078844
0.00663361
0.00733121
0.00668754
0.00681898
0.00704354
0.00634021
0.00763117
0.00583482
0.00841362
0.00539378
0.00943069
0.00537133
0.01064
0.0114406
0.00808422
0.00840003
5.1632e-10
0.00840003
2.88158e-09
0.00840003
9.81215e-09
0.00840003
2.78018e-08
0.00840006
7.00472e-08
0.00840001
1.7813e-07
0.00840023
4.24227e-07
0.00839988
1.07145e-06
0.0084014
2.51703e-06
0.00839877
6.59838e-06
0.00841212
1.58361e-05
0.00839198
4.43789e-05
0.00849917
0.000118517
0.00839662
0.000437036
0.00896621
0.0013447
0.00917137
0.00655773
0.00879538
0.00726769
0.00825536
0.00717189
0.00778069
0.00716088
0.00733532
0.0074879
0.00696423
0.00800114
0.00667679
0.00869982
0.00657017
0.00953629
0.00696249
0.0102471
0.010493
0.00791027
0.00840003
4.17625e-10
0.00840003
3.23804e-09
0.00840003
9.84267e-09
0.00840003
2.98291e-08
0.00840003
7.05324e-08
0.00840001
1.8906e-07
0.00840001
4.26593e-07
0.00839996
1.11277e-06
0.00839993
2.53403e-06
0.00840004
6.42503e-06
0.00840075
1.51029e-05
0.00840341
4.13182e-05
0.00841456
0.000107172
0.00847603
0.000374097
0.00866431
0.00115328
0.00915237
0.00606069
0.00889415
0.00752461
0.0085317
0.00753271
0.00817296
0.00751822
0.00784337
0.00781598
0.00755595
0.00828705
0.00742096
0.00883307
0.00754828
0.00940689
0.00798211
0.00981138
0.00987647
0.00859784
0.00840003
3.45244e-10
0.00840003
2.67312e-09
0.00840003
8.30874e-09
0.00840004
2.48928e-08
0.00840005
5.90221e-08
0.00840008
1.556e-07
0.00840016
3.4826e-07
0.00840034
9.20417e-07
0.00840095
1.91761e-06
0.00840135
5.96303e-06
0.00840604
1.04176e-05
0.00840442
4.25684e-05
0.00843023
8.12244e-05
0.0084332
0.000369863
0.00858705
0.000997512
0.00934913
0.0052889
0.009133
0.00774003
0.00881372
0.00785089
0.00853573
0.00779401
0.00831228
0.00803775
0.008145
0.00845271
0.00809847
0.00887803
0.0082414
0.0092619
0.00860671
0.0094438
0.00938427
0.00909636
0.00840003
3.35722e-10
0.00840003
2.59998e-09
0.00840003
7.97903e-09
0.00840003
2.40406e-08
0.00840003
5.69022e-08
0.00840004
1.51145e-07
0.00840004
3.39761e-07
0.00840007
8.86397e-07
0.00840003
1.95586e-06
0.00840066
5.27977e-06
0.0083998
1.12805e-05
0.00840617
3.58821e-05
0.00841446
7.2882e-05
0.00847695
0.000306214
0.00865963
0.000812831
0.00999081
0.00394873
0.00959342
0.00813612
0.00922172
0.00822127
0.00891364
0.00810033
0.00873711
0.00821117
0.00865415
0.00853294
0.00866799
0.00886175
0.00879596
0.00913189
0.00905936
0.00917762
0.00899237
0.00944815
0.00840003
3.05532e-10
0.00840003
2.37245e-09
0.00840003
7.28056e-09
0.00840003
2.19794e-08
0.00840004
5.20343e-08
0.00840005
1.38639e-07
0.00840008
3.12121e-07
0.00840014
8.13779e-07
0.00840028
1.81679e-06
0.00840081
4.70361e-06
0.00840116
1.09069e-05
0.00840966
2.71464e-05
0.00840978
7.26037e-05
0.00851158
0.000203323
0.00872025
0.000604085
0.0102132
0.00244881
0.0101131
0.00823029
0.00981616
0.00851621
0.00934404
0.00857068
0.0091356
0.0084174
0.00907859
0.00858647
0.00912949
0.00880674
0.00927408
0.00898346
0.00946958
0.00897863
0.00871962
0.00973743
0.00840003
2.59525e-10
0.00840003
2.01442e-09
0.00840003
6.20063e-09
0.00840003
1.86708e-08
0.00840004
4.43071e-08
0.00840006
1.17343e-07
0.00840011
2.64947e-07
0.00840024
6.80633e-07
0.0084005
1.54738e-06
0.00840132
3.84928e-06
0.0084031
9.09056e-06
0.0084073
2.27624e-05
0.00842484
5.48115e-05
0.00846495
0.000162318
0.00857847
0.0004893
0.00917454
0.00184909
0.0101258
0.00726704
0.00996878
0.00866968
0.00971202
0.00882466
0.00949288
0.00863412
0.00942947
0.00864731
0.00947122
0.00876116
0.00961596
0.00883351
0.00979557
0.00879306
0.00850734
0.0100019
0.00840003
1.97246e-10
0.00840003
1.62145e-09
0.00840003
5.01563e-09
0.00840004
1.49249e-08
0.00840004
3.5595e-08
0.00840007
9.29555e-08
0.00840012
2.10218e-07
0.00840026
5.39432e-07
0.00840062
1.18356e-06
0.00840125
3.18497e-06
0.00840377
6.57269e-06
0.00840623
2.00966e-05
0.00842009
4.09511e-05
0.00843848
0.000143004
0.00854994
0.000376936
0.00887573
0.00152015
0.0100903
0.00604108
0.0100943
0.00866307
0.00995952
0.00895675
0.00977486
0.008816
0.00973872
0.0086788
0.00978193
0.00871339
0.00990264
0.00870718
0.0100742
0.0086146
0.00833319
0.0102405
0.00840003
6.43336e-11
0.00840003
1.65456e-09
0.00840003
2.91149e-09
0.00840003
1.43916e-08
0.00840005
2.13723e-08
0.00840005
8.86892e-08
0.00840013
1.26068e-07
0.00840016
5.13694e-07
0.00840064
6.96454e-07
0.00840073
3.06865e-06
0.00840373
3.5717e-06
0.00840322
2.04226e-05
0.00842425
1.98908e-05
0.00842222
0.000144153
0.00857635
0.00022189
0.00896576
0.00112746
0.0108376
0.0041561
0.0105942
0.00890337
0.0104425
0.00910629
0.0101863
0.009069
0.0100447
0.00881536
0.0100515
0.00869938
0.0101382
0.00861262
0.0102981
0.00844429
0.00818712
0.0104351
0.00840003
1.65265e-10
0.00840003
9.39223e-10
0.00840003
3.51138e-09
0.00840004
8.93686e-09
0.00840003
2.48517e-08
0.00840006
5.63051e-08
0.00840004
1.4825e-07
0.00840023
3.27845e-07
0.00840006
8.56568e-07
0.00840123
1.89468e-06
0.0083998
4.93711e-06
0.0084088
1.13993e-05
0.00839898
2.93928e-05
0.00846712
7.58012e-05
0.00846934
0.000218236
0.0089446
0.000651582
0.0105411
0.00255174
0.01111
0.00832426
0.0109003
0.00931179
0.0106193
0.00934593
0.0104046
0.00902477
0.0103508
0.00874523
0.0103861
0.00856706
0.0105082
0.00831119
0.00806048
0.0106213
0.00840003
1.99368e-10
0.00840003
5.71104e-10
0.00840003
3.38038e-09
0.00840003
5.85752e-09
0.00840003
2.33984e-08
0.00840005
3.72803e-08
0.00840006
1.38316e-07
0.00840017
2.15398e-07
0.00840023
7.9561e-07
0.00840091
1.21144e-06
0.00840111
4.69173e-06
0.00840591
6.56401e-06
0.00840465
3.04031e-05
0.00844197
3.82558e-05
0.0084481
0.000210912
0.00870043
0.00039763
0.00951021
0.00173748
0.0110444
0.00677282
0.0110502
0.00929841
0.0109201
0.00946911
0.0106849
0.0092539
0.0106365
0.00878401
0.0106713
0.00852146
0.0107168
0.00825374
0.00794658
0.0108155
0.00840003
7.06411e-11
0.00840003
7.90146e-10
0.00840003
1.7882e-09
0.00840003
7.11701e-09
0.00840004
1.29397e-08
0.00840003
4.45511e-08
0.00840009
7.76951e-08
0.00840005
2.59891e-07
0.00840039
4.48175e-07
0.00840009
1.50268e-06
0.00840221
2.55635e-06
0.00839972
8.95289e-06
0.0084157
1.44067e-05
0.00839526
5.80872e-05
0.00851212
9.37783e-05
0.00846018
0.000447221
0.00911163
0.00108233
0.0114447
0.00442058
0.0114232
0.00931027
0.0112645
0.00961927
0.0110577
0.00945226
0.0108858
0.00894553
0.0108842
0.00851155
0.010909
0.00821351
0.00782968
0.0110063
0.00840003
1.0316e-10
0.00840003
3.57386e-10
0.00840003
1.88545e-09
0.00840003
3.58892e-09
0.00840003
1.31773e-08
0.00840006
2.29209e-08
0.00840005
7.83863e-08
0.00840018
1.33699e-07
0.00840017
4.52701e-07
0.00840091
7.57834e-07
0.00840076
2.67093e-06
0.00840557
4.12607e-06
0.00840304
1.67328e-05
0.00843843
2.25463e-05
0.00841957
0.000111696
0.00869344
0.00017208
0.00890495
0.000867293
0.010901
0.00241417
0.0119578
0.00823711
0.0117226
0.00984514
0.0115029
0.00966037
0.0112206
0.00921477
0.0111245
0.00859194
0.0111303
0.00818786
0.00771666
0.01122
0.00840003
5.00026e-11
0.00840003
3.26896e-10
0.00840003
1.04349e-09
0.00840003
3.07217e-09
0.00840004
7.39646e-09
0.00840004
1.91861e-08
0.00840008
4.35967e-08
0.0084001
1.10122e-07
0.0084003
2.46598e-07
0.00840042
6.3187e-07
0.00840171
1.36523e-06
0.00840194
3.82458e-06
0.00841089
7.74818e-06
0.0084088
2.41905e-05
0.00846902
5.12374e-05
0.00846874
0.000170291
0.0088876
0.00044608
0.0094604
0.00183409
0.0115752
0.00609455
0.011843
0.00956423
0.0119053
0.00958191
0.0116877
0.009416
0.0114751
0.00878509
0.0114424
0.00819503
0.00763224
0.0114999
0.00840003
3.28406e-11
0.00840003
2.61211e-10
0.00840003
8.10132e-10
0.00840003
2.4087e-09
0.00840003
5.75678e-09
0.00840004
1.5017e-08
0.00840005
3.40861e-08
0.00840007
8.65655e-08
0.00840012
1.93857e-07
0.00840025
4.91849e-07
0.00840051
1.091e-06
0.00840145
2.83699e-06
0.00840303
6.1017e-06
0.00840941
1.74369e-05
0.00842425
3.61621e-05
0.00847566
0.00011688
0.00862292
0.00029646
0.00937311
0.00107625
0.0119185
0.0035182
0.0122639
0.00919843
0.0120189
0.0098079
0.0119622
0.00945248
0.0118394
0.00888575
0.0118111
0.00819472
0.00754698
0.0118644
0.00840003
1.35097e-11
0.00840003
2.36569e-10
0.00840003
4.85782e-10
0.00840003
2.08319e-09
0.00840003
3.55679e-09
0.00840003
1.28959e-08
0.00840005
2.1304e-08
0.00840006
7.45071e-08
0.00840013
1.22006e-07
0.00840019
4.25503e-07
0.00840058
6.85099e-07
0.0084009
2.47466e-06
0.0084033
3.65539e-06
0.00840511
1.53498e-05
0.0084225
1.84379e-05
0.00843581
0.000102126
0.00859352
0.000136582
0.00889596
0.000767375
0.0103687
0.00202946
0.0122142
0.0073174
0.012177
0.00982248
0.0121418
0.00946006
0.0121647
0.00883287
0.0121883
0.00813855
0.00742716
0.0122713
0.00840003
1.86763e-11
0.00840003
1.16209e-10
0.00840003
4.19422e-10
0.00840003
1.102e-09
0.00840003
2.96489e-09
0.00840004
6.88524e-09
0.00840004
1.74377e-08
0.00840008
3.94398e-08
0.0084001
9.84995e-08
0.0084003
2.21303e-07
0.00840041
5.58569e-07
0.00840164
1.22411e-06
0.00840186
3.33337e-06
0.00841035
6.80775e-06
0.0084071
2.10402e-05
0.00846578
4.30545e-05
0.00845391
0.000145297
0.00885519
0.000361952
0.00938121
0.00149069
0.0119775
0.00467437
0.0123508
0.00941754
0.0123618
0.009421
0.0124407
0.00872087
0.0126049
0.0079415
0.00719707
0.0127965
0.00840003
1.58615e-11
0.00840003
8.46387e-11
0.00840003
3.11705e-10
0.00840003
8.04482e-10
0.00840003
2.18783e-09
0.00840003
5.04544e-09
0.00840004
1.29214e-08
0.00840005
2.90747e-08
0.00840007
7.35262e-08
0.00840012
1.64454e-07
0.00840025
4.15342e-07
0.00840054
9.24742e-07
0.00840145
2.34326e-06
0.00840291
5.25119e-06
0.00840997
1.35089e-05
0.00842109
3.1286e-05
0.00847916
8.48867e-05
0.00860398
0.000232049
0.00934091
0.000745044
0.0115738
0.00240704
0.012598
0.00832932
0.0126593
0.00929323
0.0127437
0.00858971
0.0129505
0.00769525
0.00692182
0.013198
0.00840003
1.55251e-11
0.00840003
4.14348e-11
0.00840003
2.54046e-10
0.00840003
4.32566e-10
0.00840003
1.74893e-09
0.00840003
2.75836e-09
0.00840004
1.02617e-08
0.00840005
1.59102e-08
0.00840006
5.82774e-08
0.00840013
8.94436e-08
0.00840021
3.29826e-07
0.00840062
4.95201e-07
0.00840097
1.9112e-06
0.00840356
2.58008e-06
0.00840457
1.19991e-05
0.0084228
1.25441e-05
0.00842431
8.07117e-05
0.00856312
8.92829e-05
0.00869735
0.000599154
0.00962141
0.00144743
0.0120335
0.00582638
0.0126372
0.00861738
0.0129401
0.00824467
0.0132236
0.00736247
0.00665862
0.0134531
0.00840003
5.99966e-12
0.00840003
3.73323e-11
0.00840003
1.22008e-10
0.00840003
3.51186e-10
0.00840003
8.58216e-10
0.00840003
2.16674e-09
0.00840004
4.99596e-09
0.00840004
1.21634e-08
0.00840007
2.77293e-08
0.00840009
6.65135e-08
0.00840026
1.51599e-07
0.00840037
3.64752e-07
0.00840142
8.20633e-07
0.00840166
2.1203e-06
0.00840911
4.48867e-06
0.00840706
1.3176e-05
0.00845818
2.85679e-05
0.00845238
8.86519e-05
0.00879849
0.000237099
0.00939571
0.000855273
0.0121279
0.00294123
0.0127171
0.00792605
0.013197
0.0077507
0.0134537
0.00709188
0.00645872
0.0136538
0.00840003
3.4386e-12
0.00840003
2.88199e-11
0.00840003
8.89638e-11
0.00840003
2.64481e-10
0.00840003
6.30682e-10
0.00840003
1.63723e-09
0.00840003
3.71147e-09
0.00840003
9.34838e-09
0.00840004
2.09583e-08
0.00840005
5.23462e-08
0.00840008
1.16765e-07
0.00840012
2.91934e-07
0.00840027
6.39231e-07
0.00840058
1.62991e-06
0.00840142
3.43686e-06
0.00840435
9.17308e-06
0.00841261
1.90316e-05
0.0084405
5.54482e-05
0.00852359
0.000138987
0.0089041
0.000458697
0.0102031
0.00152807
0.0118448
0.00612207
0.0127598
0.00681838
0.0133069
0.00654254
0.00616755
0.0136187
0.00840003
1.07336e-12
0.00840003
2.8028e-11
0.00840003
4.55932e-11
0.00840003
2.41678e-10
0.00840003
3.36553e-10
0.00840003
1.49583e-09
0.00840003
2.02744e-09
0.00840003
8.69919e-09
0.00840004
1.16947e-08
0.00840004
5.01977e-08
0.00840008
6.51787e-08
0.00840004
2.95461e-07
0.00840031
3.30366e-07
0.00839995
1.77554e-06
0.00840168
1.4864e-06
0.00839923
1.04767e-05
0.00841044
6.18596e-06
0.0083932
6.60143e-05
0.00848118
4.11242e-05
0.00847474
0.000433849
0.00910678
0.000814288
0.0104791
0.00452202
0.0116467
0.00564647
0.0125545
0.00564588
0.00567605
0.0130679
0.00840003
2.98785e-12
0.00840003
4.29837e-12
0.00840003
4.37315e-11
0.00840003
4.76717e-11
0.00840003
2.95553e-10
0.00840003
2.95421e-10
0.00840003
1.68283e-09
0.00840004
1.59116e-09
0.00840004
9.19905e-09
0.00840008
8.13096e-09
0.00840008
5.16382e-08
0.00840032
3.81463e-08
0.00840025
3.28999e-07
0.0084018
1.51928e-07
0.00840045
2.36944e-06
0.00840985
5.7699e-07
0.00839604
1.71178e-05
0.00845514
3.35226e-06
0.00835627
0.000124897
0.00867729
9.17854e-05
0.00855095
0.00085596
0.00936287
0.00344318
0.0104507
0.00459935
0.0114463
0.0046927
0.00507045
0.0120813
0.00840003
1.26452e-12
0.00840003
5.39267e-12
0.00840003
2.0939e-11
0.00840003
5.29352e-11
0.00840003
1.44306e-10
0.00840003
3.25383e-10
0.00840003
8.27195e-10
0.00840003
1.78667e-09
0.00840003
4.50446e-09
0.00840003
9.45051e-09
0.00840005
2.45648e-08
0.00840001
4.8389e-08
0.00840016
1.4315e-07
0.00839985
2.61218e-07
0.00840116
8.97085e-07
0.00839853
1.88728e-06
0.00840801
6.49896e-06
0.00839065
1.36621e-05
0.00845283
5.18681e-05
0.00834389
0.000171306
0.00861409
0.000514152
0.00884684
0.00291836
0.00959509
0.00392433
0.0103348
0.00400391
0.00429858
0.0111204
0.00840003
4.70335e-13
0.00840003
7.07822e-12
0.00840003
1.93903e-11
0.00840003
6.36417e-11
0.00840003
1.40557e-10
0.00840003
3.99295e-10
0.00840003
8.48954e-10
0.00840003
2.35056e-09
0.00840003
4.96831e-09
0.00840002
1.37458e-08
0.00840001
2.90686e-08
0.00839995
8.09501e-08
0.0083999
1.69845e-07
0.00839952
4.85872e-07
0.00839924
9.62212e-07
0.00839689
3.04966e-06
0.008398
5.07147e-06
0.00838276
2.07892e-05
0.00839434
3.49161e-05
0.0083592
0.000176013
0.00834469
0.00046655
0.00843388
0.00251847
0.00895946
0.00348658
0.00956164
0.00345362
0.00359908
0.0102844
0.00840003
-8.4163e-13
0.00840003
1.13333e-11
0.00840003
5.75992e-12
0.00840003
9.25229e-11
0.00840003
5.04122e-11
0.00840003
5.7512e-10
0.00840003
3.27821e-10
0.00840003
3.41541e-09
0.00840003
2.02942e-09
0.00840002
2.02528e-08
0.00840003
1.2362e-08
0.00839998
1.21146e-07
0.00840006
6.98085e-08
0.00839971
7.62237e-07
0.00840021
2.60808e-07
0.00839688
5.44821e-06
0.00840258
-8.98438e-07
0.00837701
3.99454e-05
0.00841202
-6.06985e-06
0.00830331
0.000256085
0.00838806
0.000317478
0.00831005
0.00227291
0.00869339
0.00319763
0.00919921
0.00301718
0.00305289
0.00978032
0.00840003
6.09071e-13
0.00840003
3.50877e-12
0.00840003
1.29308e-11
0.00840003
3.32428e-11
0.00840003
8.98589e-11
0.00840003
2.05298e-10
0.00840003
5.17865e-10
0.00840003
1.15707e-09
0.00840003
2.85065e-09
0.00840004
6.35246e-09
0.00840003
1.55799e-08
0.00840011
3.45894e-08
0.00840005
9.00623e-08
0.00840057
1.79618e-07
0.00839989
6.075e-07
0.00840431
1.01713e-06
0.00839652
4.1224e-06
0.00842655
8.15127e-06
0.00837483
2.971e-05
0.0085144
8.32624e-05
0.00847609
0.000329743
0.00901145
0.00136837
0.00920047
0.00304403
0.00930665
0.00295299
0.00279393
0.00958911
0.00840003
1.99631e-12
0.00840003
-2.03292e-12
0.00840003
2.06932e-11
0.00840003
-5.91188e-12
0.00840003
1.33998e-10
0.00840003
-3.43661e-11
0.00840003
7.61354e-10
0.00840003
-2.97184e-10
0.00840003
4.18598e-09
0.00840004
-2.54507e-09
0.00840002
2.28366e-08
0.00840007
-2.03686e-08
0.00839999
1.28471e-07
0.00840028
-1.69285e-07
0.00839973
8.61355e-07
0.0084022
-1.6353e-06
0.00839672
7.70223e-06
0.00841634
-1.34786e-05
0.00837467
6.22683e-05
0.00846638
-3.10192e-05
0.00849502
0.000269161
0.00893554
0.000703168
0.00918402
0.00270061
0.00922218
0.0029157
0.00260319
0.00946707
0.00840003
5.86935e-13
0.00840003
1.06829e-12
0.00840003
7.86639e-12
0.00840003
1.34632e-11
0.00840003
5.45271e-11
0.00840003
8.82663e-11
0.00840003
3.22438e-10
0.00840003
5.0697e-10
0.00840003
1.8367e-09
0.00840002
2.80135e-09
0.00840003
1.03692e-08
0.00839997
1.50487e-08
0.00840002
5.8868e-08
0.00839967
7.42983e-08
0.00840004
3.59962e-07
0.0083975
2.3594e-07
0.00840209
2.41564e-06
0.00838377
8.25226e-07
0.00842362
1.75839e-05
0.0083465
2.62775e-05
0.00847245
0.00012418
0.00839478
0.00062417
0.00865106
0.00228524
0.00889238
0.00267849
0.00231244
0.00924463
0.00840003
-5.10142e-14
0.00840003
3.48136e-12
0.00840003
6.55625e-12
0.00840003
3.01073e-11
0.00840003
4.99155e-11
0.00840003
1.91064e-10
0.00840003
3.13263e-10
0.00840003
1.15462e-09
0.00840003
1.90152e-09
0.00840002
6.87166e-09
0.00840001
1.13964e-08
0.00839997
4.00691e-08
0.00839994
6.6474e-08
0.00839968
2.21226e-07
0.00839952
3.80954e-07
0.00839797
1.19344e-06
0.00839775
1.84748e-06
0.00838778
7.59187e-06
0.00839424
6.67228e-06
0.00834816
5.71176e-05
0.00834378
0.000109728
0.00830708
0.000551001
0.00838298
0.0020619
0.0086504
0.00238967
0.00199465
0.00903268
0.00840003
-1.2553e-12
0.00840003
5.36015e-12
0.00840003
-6.46325e-12
0.00840003
4.02251e-11
0.00840003
-3.54447e-11
0.00840003
2.43738e-10
0.00840003
-1.99118e-10
0.00840003
1.42683e-09
0.00840003
-1.13465e-09
0.00840002
8.38028e-09
0.00840004
-6.50259e-09
0.00839999
5.02446e-08
0.00840007
-3.74613e-08
0.00839977
3.17345e-07
0.00840029
-2.69878e-07
0.00839838
2.34959e-06
0.00840116
-3.00037e-06
0.00838623
2.02009e-05
0.0084076
-2.48846e-05
0.0083171
0.000132827
0.00840756
1.81029e-05
0.00823837
0.000640886
0.00825776
0.00189564
0.00853341
0.00206505
0.00166323
0.00892398
0.00840003
-1.75147e-13
0.00840003
1.64408e-12
0.00840003
1.11152e-12
0.00840003
1.37895e-11
0.00840003
1.13118e-11
0.00840003
8.41688e-11
0.00840003
6.64351e-11
0.00840003
4.83548e-10
0.00840003
3.50179e-10
0.00840003
2.75845e-09
0.00840002
1.8055e-09
0.00840004
1.59662e-08
0.00839996
9.89255e-09
0.00840013
9.72818e-08
0.00839962
4.70607e-08
0.00840105
6.67592e-07
0.00839668
1.53545e-07
0.0084107
5.40605e-06
0.00837958
9.44646e-07
0.00846115
4.14316e-05
0.00838324
7.99039e-05
0.0085686
0.000370797
0.00873106
0.00162366
0.00904788
0.00168314
0.00154688
0.00922123
0.00840003
5.51506e-13
0.00840003
9.05803e-13
0.00840003
7.34779e-12
0.00840003
1.12794e-11
0.00840003
4.98751e-11
0.00840003
7.35331e-11
0.00840003
2.95134e-10
0.00840003
4.30928e-10
0.00840003
1.71254e-09
0.00840003
2.50459e-09
0.00840001
1.00086e-08
0.0084
1.46287e-08
0.00839992
5.90451e-08
0.00839989
8.00325e-08
0.00839939
3.587e-07
0.00839955
2.75355e-07
0.0083963
2.32337e-06
0.00840093
-3.03564e-07
0.0083815
1.52861e-05
0.00841446
9.80838e-07
0.0083845
9.09222e-05
0.00844569
0.000246396
0.0087371
0.00120817
0.00907448
0.00133323
0.00136032
0.00928648
0.00840003
1.54787e-12
0.00840003
-2.34213e-12
0.00840003
1.51948e-11
0.00840003
-1.18757e-11
0.00840003
1.00116e-10
0.00840003
-6.14748e-11
0.00840003
5.96636e-10
0.00840003
-3.32613e-10
0.00840003
3.50749e-09
0.00840003
-1.82674e-09
0.00840001
2.07589e-08
0.00840003
-1.05432e-08
0.00839994
1.24644e-07
0.00840007
-7.90075e-08
0.00839947
8.27574e-07
0.00840055
-1.00849e-06
0.00839537
6.54093e-06
0.00840665
-1.24682e-05
0.00837074
4.72525e-05
0.00844188
-7.69035e-05
0.00833241
0.000187131
0.00850886
2.10044e-05
0.00879776
0.000794114
0.0090639
0.00107427
0.00118712
0.00924169
0.00840003
3.80348e-13
0.00840003
-2.01565e-13
0.00840003
4.00617e-12
0.00840003
4.91548e-13
0.00840003
2.71203e-11
0.00840003
6.22712e-12
0.00840003
1.60072e-10
0.00840003
3.56663e-11
0.00840003
9.18803e-10
0.00840003
1.64334e-10
0.00840004
5.27982e-09
0.00840002
7.13509e-10
0.0084001
3.07539e-08
0.00839995
2.30149e-09
0.00840051
1.90121e-07
0.00839917
-5.49022e-08
0.00840389
1.47077e-06
0.00839092
-1.79025e-06
0.00842508
1.10376e-05
0.00834946
-1.06115e-05
0.0084818
5.48229e-05
0.00834555
0.000116513
0.00837459
0.000663645
0.00864696
0.000814097
0.000915045
0.00891791
0.00840003
-1.33707e-13
0.00840003
1.98365e-12
0.00840003
2.18961e-12
0.00840003
1.63601e-11
0.00840003
1.78455e-11
0.00840003
1.00115e-10
0.00840003
1.07248e-10
0.00840003
5.82579e-10
0.00840003
6.06605e-10
0.00840002
3.34964e-09
0.00840002
3.29321e-09
0.00839999
1.90152e-08
0.0084
1.54238e-08
0.00839983
1.05555e-07
0.00839992
3.54428e-08
0.0083989
6.32648e-07
0.00840046
-4.26414e-07
0.00839258
4.53855e-06
0.00840619
-4.69118e-06
0.00835874
2.95586e-05
0.00840282
6.93983e-06
0.00832577
0.000161287
0.00829046
0.00061184
0.00846424
0.000642851
0.000654479
0.00872338
0.00840003
-7.35144e-13
0.00840003
3.54762e-12
0.00840003
-3.64249e-12
0.00840003
2.61492e-11
0.00840003
-2.03221e-11
0.00840003
1.56805e-10
0.00840003
-1.16795e-10
0.00840003
9.08261e-10
0.00840003
-6.91075e-10
0.00840003
5.24795e-09
0.00840003
-4.28715e-09
0.00840001
3.05558e-08
0.00840004
-3.00182e-08
0.0083999
1.93104e-07
0.00840017
-2.95588e-07
0.00839898
1.53067e-06
0.00840156
-3.30389e-06
0.00839217
1.24654e-05
0.00841067
-2.50293e-05
0.0083559
7.89009e-05
0.00841019
-5.4961e-05
0.00828663
0.00026169
0.00823939
0.000582622
0.00843441
0.000446817
0.000415105
0.00866694
0.00840003
7.68913e-13
0.00840003
-3.25911e-12
0.00840003
4.6689e-12
0.00840003
-2.33884e-11
0.00840003
2.85422e-11
0.00840003
-1.37618e-10
0.00840003
1.72298e-10
0.00840003
-7.81609e-10
0.00840003
1.05459e-09
0.00840004
-4.41724e-09
0.00840002
6.65192e-09
0.00840007
-2.51044e-08
0.00839996
4.51691e-08
0.00840029
-1.57624e-07
0.00839947
3.92337e-07
0.00840204
-1.30234e-06
0.00839421
3.90856e-06
0.00841659
-1.09088e-05
0.00835862
2.95102e-05
0.00850092
-6.55826e-05
0.00832241
0.0001117
0.00866222
-9.41111e-05
0.00901359
0.000152484
0.00911905
0.000316112
0.000381303
0.00911557
0.00840003
1.72412e-13
0.00840003
-1.68023e-12
0.00840003
-9.45101e-13
0.00840003
-1.34901e-11
0.00840003
-8.93046e-12
0.00840003
-8.11836e-11
0.00840003
-5.22203e-11
0.00840003
-4.66367e-10
0.00840003
-2.75786e-10
0.00840003
-2.64394e-09
0.00840003
-1.27669e-09
0.00840001
-1.47086e-08
0.00840005
-4.53739e-09
0.00839993
-7.93765e-08
0.00840025
1.83288e-08
0.00839915
-4.6586e-07
0.00840204
8.08414e-07
0.00839327
-3.45833e-06
0.00841394
7.31275e-06
0.0083631
-1.95779e-05
0.00843883
2.93679e-05
0.00835283
-2.83326e-05
0.00837359
6.95805e-05
0.00854858
0.000132178
0.000188663
0.00872207
0.00840003
0.00840003
0.00840003
0.00840003
0.00840003
0.00840003
0.00840003
0.00840003
0.00840003
0.00840002
0.00840002
0.0084
0.00839999
0.00839987
0.00839984
0.00839914
0.00839976
0.00839508
0.00840125
0.00837752
0.00840162
0.00835417
0.0083663
0.00849034
0.0086576
0.00374023
0.00434464
0.00142681
0.00231854
-0.000674663
0.00210824
-0.00155491
0.000882976
-0.00215853
0.000606898
-0.0024736
0.000318524
-0.00257122
0.000100285
-0.00265761
8.70612e-05
-0.00276543
0.000106696
-0.00285214
8.49961e-05
-0.00290746
5.19175e-05
-0.00293429
2.27582e-05
-0.00294047
1.37993e-06
-0.00293317
-1.22494e-05
-0.00291228
-2.58045e-05
-0.00287516
-4.16315e-05
-0.00282008
-5.90334e-05
-0.00274788
-7.58593e-05
-0.002662
-8.8856e-05
-0.00256418
-0.00010062
-0.00245448
-0.00011247
-0.00233369
-0.000123689
-0.00220126
-0.00013512
-0.0020582
-0.000146217
-0.00190375
-0.000157545
-0.00173924
-0.000167805
-0.00156127
-0.000181552
-0.00137572
-0.000188696
-0.00118417
-0.000194517
-0.000988335
-0.000198806
-0.000787828
-0.000203183
-0.000583731
-0.000206597
-0.000376371
-0.000209511
-0.000163889
-0.000214153
5.87864e-05
-0.000224139
0.000278156
-0.000220342
0.000488163
-0.000210715
0.000693858
-0.000205983
0.000894266
-0.000200004
0.00109084
-0.000195767
0.00128087
-0.00018902
0.00146436
-0.000182276
0.00164194
-0.000176446
0.00181762
-0.000174129
0.00199257
-0.000172872
0.00216232
-0.000167447
0.0023249
-0.000160441
0.00248148
-0.000154196
0.00263218
-0.000148181
0.00277709
-0.000142427
0.00291653
-0.000136587
0.00305008
-0.000131032
0.00317788
-0.000125237
0.0033006
-0.000119848
0.00341767