/*--------------------------------*- C++ -*----------------------------------*\
| =========                 |                                                 |
| \\      /  F ield         | OpenFOAM: The Open Source CFD Toolbox           |
|  \\    /   O peration     | Version:  2112                                  |
|   \\  /    A nd           | Website:  www.openfoam.com                      |
|    \\/     M anipulation  |                                                 |
\*---------------------------------------------------------------------------*/
FoamFile
{
    version     2.0;
    format      ascii;
    arch        "LSB;label=32;scalar=64";
    class       volScalarField;
    location    "9.5";
    object      T;
}
// * * * * * * * * * * * * * * * * * * * * * * * * * * * * * * * * * * * * * //

dimensions      [0 0 0 1 0 0 0];

internalField   nonuniform List<scalar> 
5250
(
1.00001
1.00003
1.00009
1.00016
1.00053
1.00096
1.00298
1.00581
1.01589
1.03858
1.09014
1.26315
1.6856
2.47195
2.72312
2.72428
2.72433
2.73009
2.74354
2.75771
2.76997
2.7783
2.7855
2.79063
2.7947
1.00001
1.00002
1.00009
1.00016
1.00052
1.00095
1.0029
1.00574
1.01547
1.03844
1.08865
1.2618
1.67343
2.46674
2.72091
2.72433
2.72427
2.72986
2.74304
2.75689
2.76894
2.77693
2.78414
2.78816
2.79165
1.00001
1.00002
1.00009
1.00016
1.0005
1.00092
1.00276
1.00561
1.0148
1.0379
1.08603
1.25814
1.65053
2.45292
2.7149
2.72366
2.72349
2.72878
2.74172
2.75493
2.7669
2.77451
2.78163
2.78588
2.78798
1.00001
1.00002
1.00008
1.00015
1.00048
1.00088
1.00261
1.0054
1.01402
1.03676
1.08267
1.25173
1.62019
2.42757
2.70414
2.72181
2.72137
2.72591
2.7389
2.75084
2.76268
2.7695
2.77529
2.77937
2.78331
1.00001
1.00002
1.00008
1.00014
1.00045
1.00083
1.00244
1.00512
1.01314
1.03497
1.07814
1.24212
1.58015
2.38974
2.68859
2.71941
2.71846
2.72123
2.73399
2.74474
2.75674
2.76428
2.76994
2.7726
2.77303
1.00001
1.00002
1.00007
1.00013
1.00042
1.00077
1.00226
1.00478
1.01217
1.03263
1.07247
1.22759
1.52802
2.3344
2.66602
2.71591
2.71444
2.71483
2.72684
2.7366
2.74572
2.75197
2.75737
2.76202
2.76382
1.00001
1.00002
1.00007
1.00012
1.00038
1.00071
1.00208
1.0044
1.01121
1.02992
1.06674
1.20806
1.47881
2.2637
2.63524
2.71196
2.70915
2.70761
2.71846
2.72841
2.73754
2.74304
2.74579
2.74557
2.74384
1.00001
1.00002
1.00006
1.00011
1.00035
1.00064
1.0019
1.00395
1.01021
1.02671
1.06032
1.18492
1.42445
2.16439
2.59483
2.70475
2.70175
2.69627
2.70674
2.71361
2.72022
2.72337
2.72743
2.72691
2.72235
1.00001
1.00002
1.00005
1.0001
1.00032
1.00057
1.00176
1.00346
1.00935
1.02286
1.05331
1.15897
1.36432
2.03034
2.54241
2.69323
2.68991
2.68211
2.69404
2.70105
2.70758
2.70674
2.70272
2.69367
2.67322
1.00001
1.00001
1.00005
1.00008
1.00026
1.00049
1.00145
1.00297
1.00774
1.0195
1.04492
1.13288
1.30005
1.86019
2.46616
2.67108
2.66939
2.66098
2.67126
2.67411
2.67997
2.6818
2.67338
2.65114
2.60062
1
1.00002
1.00003
1.0001
1.00018
1.00057
1.00108
1.00322
1.00648
1.01752
1.04234
1.10132
1.27832
1.80558
2.40494
2.64316
2.64203
2.64641
2.65714
2.65864
2.65539
2.64816
2.62921
2.58232
2.42458
1
1.00001
1.00004
1.00007
1.00021
1.00038
1.00118
1.00223
1.00642
1.01376
1.03524
1.09495
1.21705
1.62354
2.42492
2.60141
2.6056
2.61408
2.62137
2.63613
2.63434
2.61932
2.58421
2.5273
2.3715
1
1.00001
1.00003
1.00006
1.00018
1.00033
1.00105
1.00191
1.00583
1.01154
1.03125
1.0787
1.18237
1.53298
2.32501
2.56895
2.60545
2.59587
2.59594
2.6023
2.60344
2.59034
2.54829
2.49334
2.37379
1
1.00001
1.00003
1.00005
1.00015
1.00027
1.00086
1.00159
1.00465
1.00973
1.02497
1.06687
1.14784
1.45615
2.16282
2.5094
2.60266
2.58972
2.57618
2.5692
2.56586
2.55511
2.52301
2.47638
2.37875
1
1.00001
1.00002
1.00004
1.00013
1.00023
1.00073
1.00133
1.00413
1.00788
1.02226
1.05129
1.124
1.34851
1.96422
2.4207
2.58781
2.57669
2.56747
2.54837
2.53304
2.5187
2.48865
2.45741
2.38721
1
1.00001
1.00002
1.00003
1.0001
1.00019
1.0006
1.00108
1.00335
1.00632
1.01835
1.03923
1.10305
1.25616
1.77214
2.31258
2.54942
2.54822
2.54424
2.53338
2.51254
2.49453
2.45721
2.42355
2.38099
1
1
1.00001
1.00003
1.00008
1.00015
1.00047
1.00085
1.00263
1.00501
1.01393
1.03219
1.07663
1.21779
1.54383
2.24546
2.51562
2.52816
2.51772
2.51087
2.49276
2.47766
2.447
2.4043
2.36841
1
1
1.00001
1.00002
1.00006
1.00012
1.00036
1.00066
1.00199
1.00395
1.01052
1.02581
1.05966
1.17757
1.4055
2.06552
2.44777
2.51753
2.50115
2.49333
2.47442
2.4527
2.4318
2.39167
2.35364
1
1
1.00001
1.00002
1.00005
1.00009
1.00028
1.00051
1.00155
1.00303
1.00821
1.01939
1.04598
1.13297
1.3002
1.8273
2.31746
2.4893
2.48702
2.47939
2.46529
2.43993
2.42059
2.38949
2.34933
1
1
1
1.00002
1.00003
1.00009
1.00017
1.00052
1.00097
1.0029
1.00568
1.0159
1.03519
1.09071
1.22433
1.66819
2.18846
2.44147
2.45768
2.45126
2.44318
2.42379
2.40584
2.3869
2.35269
1
1
1
1.00001
1.00002
1.00007
1.00013
1.00039
1.00071
1.00218
1.0042
1.01157
1.0267
1.06382
1.1778
1.44288
2.02838
2.37481
2.44293
2.43957
2.42942
2.41497
2.3915
2.37745
2.35736
1
1
1
1.00001
1.00002
1.00004
1.00012
1.00023
1.00069
1.00129
1.00382
1.00774
1.02062
1.05057
1.11951
1.32826
1.91454
2.23085
2.3884
2.41636
2.4157
2.40942
2.39241
2.37596
2.36642
1
1
1
1.00001
1.00001
1.00004
1.00007
1.0002
1.00038
1.00113
1.0022
1.00605
1.01347
1.03334
1.0904
1.20488
1.55953
2.20258
2.34249
2.36479
2.38154
2.38855
2.38791
2.38201
2.3792
1
1
1
1
1.00001
1.00002
1.00006
1.00011
1.00034
1.00065
1.00181
1.00391
1.00971
1.02557
1.0572
1.16888
1.38033
1.98756
2.31759
2.3709
2.3683
2.36999
2.37415
2.38159
2.38991
1
1
1
1
1.00001
1.00001
1.00005
1.00008
1.00026
1.00047
1.00147
1.00271
1.00788
1.01662
1.04201
1.11256
1.25664
1.68672
2.18241
2.36039
2.36979
2.3714
2.3767
2.3861
2.39566
1
1
1
1
1.00001
1.00001
1.00003
1.00006
1.00018
1.00033
1.00103
1.00191
1.00566
1.01143
1.03013
1.07651
1.17395
1.49007
2.09446
2.31895
2.37401
2.38164
2.38885
2.39639
2.40943
1
1
1
1
1
1.00001
1.00002
1.00005
1.0001
1.0003
1.00056
1.00159
1.00331
1.00844
1.02125
1.04858
1.14085
1.31481
1.84907
2.243
2.38315
2.41392
2.41676
2.41748
2.4216
1
1
1
1
1
1.00001
1.00001
1.00004
1.00007
1.00023
1.0004
1.00127
1.0023
1.00698
1.01374
1.03676
1.0881
1.21718
1.54375
2.13902
2.36282
2.43668
2.45905
2.45906
2.4554
1
1
1
1
1
1.00001
1.00001
1.00003
1.00005
1.00016
1.00029
1.00089
1.00167
1.00475
1.01016
1.02553
1.06867
1.15013
1.45341
2.07582
2.35609
2.4709
2.48713
2.48929
2.48189
1
1
1
1
1
1
1.00001
1.00002
1.00005
1.00009
1.00027
1.00051
1.00149
1.00304
1.00788
1.01941
1.04485
1.12923
1.289
1.80378
2.31532
2.52863
2.53243
2.52033
2.50146
1
1
1
1
1
1
1.00001
1.00001
1.00004
1.00007
1.00023
1.00042
1.00133
1.00241
1.00741
1.01461
1.03952
1.09668
1.23895
1.62399
2.36883
2.57072
2.58115
2.55158
2.52016
1
1
1
1
1
1
1.00001
1.00001
1.00003
1.00006
1.00019
1.00034
1.00106
1.00201
1.00589
1.0124
1.03243
1.08614
1.19855
1.57729
2.37751
2.62274
2.6451
2.59509
2.55079
1
1
1
1
1
1
1
1.00001
1.00002
1.00006
1.00011
1.00032
1.0007
1.00172
1.00459
1.01025
1.03019
1.06301
1.20866
1.4753
2.23716
2.65234
2.71208
2.65518
2.59993
1
1
1
1
1
1
1
1.00001
1.00002
1.00005
1.00014
1.00027
1.00081
1.00159
1.0044
1.01014
1.02473
1.07085
1.15242
1.49555
2.22994
2.64183
2.7329
2.68521
2.62985
1
1
1
1
1
1
1
1.00001
1.00002
1.00004
1.00014
1.00025
1.00079
1.00144
1.00445
1.00893
1.02403
1.06217
1.14255
1.43606
2.15502
2.64772
2.7462
2.70778
2.64969
1
1
1
1
1
1
1
1.00001
1.00002
1.00004
1.00012
1.00022
1.0007
1.00132
1.00386
1.00828
1.02108
1.05768
1.1292
1.39799
2.07197
2.64314
2.75008
2.71493
2.65683
1
1
1
1
1
1
1
1.00001
1.00001
1.00005
1.00008
1.00026
1.00049
1.0014
1.00302
1.00757
1.02027
1.04567
1.13895
1.31771
1.88413
2.60664
2.75606
2.72548
2.67172
1
1
1
1
1
1
1
1.00001
1.00001
1.00004
1.00008
1.00025
1.00046
1.00139
1.00279
1.00748
1.01824
1.04324
1.12715
1.29393
1.78344
2.60708
2.77226
2.74635
2.6931
1
1
1
1
1
1
1
1.00001
1.00002
1.00003
1.0001
1.00019
1.0006
1.0011
1.00339
1.00675
1.01848
1.0453
1.10798
1.30706
1.87314
2.54262
2.77089
2.74783
2.69806
1
1
1
1
1
1
1
1.00001
1.00002
1.00003
1.0001
1.00018
1.00059
1.00107
1.00339
1.00644
1.01874
1.04179
1.10642
1.28637
1.84685
2.52235
2.7585
2.7341
2.69837
1
1
1
1
1
1
1
1.00001
1.00002
1.00003
1.00009
1.00017
1.00054
1.00101
1.00303
1.00617
1.01686
1.04182
1.10009
1.28383
1.81375
2.50443
2.75094
2.72832
2.70713
1
1
1
1
1
1
1
1.00001
1.00001
1.00004
1.00007
1.00022
1.00041
1.00126
1.00242
1.00691
1.01535
1.03856
1.10722
1.24841
1.69603
2.56022
2.74591
2.72718
2.70886
1
1
1
1
1
1
1
1.00001
1.00001
1.00004
1.00007
1.00022
1.0004
1.00127
1.00233
1.00707
1.01453
1.03857
1.10085
1.24064
1.67369
2.55109
2.74207
2.73227
2.71049
1
1
1
1
1
1
1
1.00001
1.00001
1.00004
1.00007
1.00021
1.00038
1.00119
1.00228
1.00655
1.01438
1.03662
1.10057
1.23397
1.66487
2.53329
2.73539
2.73153
2.71152
1
1
1
1
1
1
1
1
1.00001
1.00003
1.00008
1.00015
1.00047
1.0009
1.00257
1.00568
1.01417
1.03892
1.08578
1.26406
1.67555
2.45516
2.72936
2.72697
2.70894
1
1
1
1
1
1
1
1
1.00001
1.00003
1.00009
1.00015
1.00049
1.00089
1.00272
1.00549
1.01464
1.03736
1.0855
1.25602
1.65509
2.44534
2.72412
2.7246
2.70914
1
1
1
1
1
1
1
1
1.00001
1.00003
1.00008
1.00015
1.00046
1.00087
1.00247
1.00551
1.01368
1.03776
1.08278
1.258
1.64648
2.44304
2.72151
2.72428
2.70947
1
1
1
1
1
1
1
1.00001
1.00001
1.00003
1.00006
1.00019
1.00036
1.00106
1.00217
1.0058
1.01411
1.03405
1.0976
1.22144
1.63841
2.48888
2.69686
2.71303
2.70221
1
1
1
1
1
1
1
1
1.00001
1.00003
1.00008
1.00015
1.00045
1.00087
1.00244
1.00546
1.0135
1.03735
1.08167
1.25566
1.63322
2.43134
2.71084
2.7199
2.70448
1
1
1
1
1
1
1
1
1.00001
1.00003
1.00008
1.00015
1.00048
1.00087
1.00262
1.00538
1.01413
1.03666
1.08313
1.25158
1.62749
2.42567
2.70735
2.71844
2.7032
2.44982
2.75369
2.99188
3.24982
3.21281
3.18212
3.16897
3.15978
3.14669
3.13131
3.11926
3.11239
3.1105
3.10836
3.10795
3.10969
3.11429
3.1202
3.12714
3.13545
3.14295
3.15129
3.15779
3.16496
3.16921
3.17386
3.1758
3.17654
3.17662
3.17399
3.17119
3.16531
3.16019
3.1533
3.14795
3.1418
3.13584
3.12873
3.12218
3.11046
3.10273
3.09185
3.08362
3.07364
3.06391
3.05152
3.04123
3.02957
3.01858
3.00657
2.99554
2.98267
2.97226
2.95926
2.94825
2.93543
2.92381
2.91156
2.89939
2.88719
2.87537
2.86291
2.85153
2.83904
2.8278
2.81527
2.8041
2.79157
2.78053
2.76813
2.75724
2.74498
2.73428
2.72224
2.71162
2.70006
2.68937
2.67839
2.66768
2.65712
2.64661
2.63625
2.62613
2.61592
2.60625
2.59628
2.58709
2.57755
2.56893
2.56007
2.55216
2.54425
2.53733
2.53079
2.52534
2.52069
2.5174
2.51506
2.51425
2.51112
2.34827
2.52331
2.70378
3.03923
3.19563
3.30453
3.43405
3.45795
3.46166
3.46585
3.46648
3.46783
3.46696
3.46098
3.4534
3.44401
3.43509
3.42205
3.40965
3.39496
3.37795
3.35845
3.34202
3.32941
3.31893
3.30345
3.29036
3.27172
3.25521
3.23432
3.2161
3.19525
3.17647
3.15925
3.13697
3.12157
3.09923
3.0822
3.06096
3.04307
3.02234
3.00485
2.98463
2.96809
2.94875
2.93088
2.91313
2.89581
2.87862
2.86182
2.84492
2.82935
2.81302
2.79853
2.78283
2.76856
2.75363
2.73938
2.72525
2.71136
2.69795
2.68455
2.67174
2.65877
2.64638
2.63382
2.62182
2.60961
2.59811
2.5862
2.57522
2.56375
2.55315
2.54228
2.53188
2.52165
2.51139
2.50166
2.49166
2.48228
2.47266
2.4636
2.45443
2.44575
2.4371
2.42885
2.42073
2.41305
2.40553
2.39854
2.39173
2.38558
2.37975
2.37473
2.37032
2.36688
2.36439
2.36305
2.36271
2.36031
2.31625
2.35313
2.4603
2.56512
2.77346
2.92974
3.16724
3.32625
3.41988
3.48415
3.51429
3.52711
3.56842
3.58991
3.58211
3.56337
3.5386
3.5104
3.48262
3.44702
3.41486
3.37959
3.34275
3.30828
3.27086
3.23276
3.19431
3.15619
3.12109
3.08345
3.05009
3.0149
2.98463
2.95159
2.92391
2.89483
2.86932
2.84325
2.82013
2.79576
2.77407
2.75224
2.73262
2.71356
2.69407
2.67618
2.65749
2.64193
2.62449
2.6102
2.59388
2.58045
2.56538
2.55258
2.53845
2.52617
2.5127
2.50094
2.48809
2.47685
2.46454
2.45376
2.44191
2.43151
2.4201
2.41003
2.39906
2.38932
2.37873
2.36937
2.35905
2.35014
2.33998
2.33152
2.32151
2.31338
2.3036
2.29566
2.28621
2.27841
2.26934
2.2617
2.25302
2.24563
2.23732
2.23027
2.22241
2.21582
2.20856
2.20254
2.19609
2.19088
2.18556
2.18152
2.17769
2.17534
2.17349
2.17333
2.17363
2.17213
2.31663
2.28686
2.32504
2.3659
2.45158
2.55873
2.67365
2.82413
2.97571
3.09996
3.19588
3.26524
3.307
3.33484
3.33291
3.32282
3.30294
3.27384
3.23911
3.19707
3.15274
3.1064
3.0582
3.01168
2.96392
2.92036
2.87767
2.83918
2.80179
2.76749
2.73509
2.70456
2.67701
2.6505
2.62799
2.60577
2.58735
2.56891
2.55364
2.53861
2.52564
2.51329
2.50244
2.49193
2.48162
2.47118
2.46114
2.45158
2.44231
2.4332
2.42426
2.41539
2.40665
2.39797
2.38937
2.38083
2.3723
2.36386
2.35536
2.34698
2.33851
2.33015
2.32173
2.31334
2.30498
2.29655
2.28824
2.27986
2.27155
2.26335
2.25501
2.24707
2.23869
2.23103
2.22268
2.21527
2.20697
2.19971
2.19152
2.18431
2.17622
2.16907
2.1612
2.15418
2.14663
2.13981
2.13269
2.12617
2.11959
2.11358
2.10765
2.10246
2.09746
2.09343
2.08981
2.08744
2.0858
2.08572
2.08623
2.08438
2.32059
2.28014
2.26301
2.28185
2.30973
2.36528
2.42505
2.50092
2.57054
2.64409
2.69571
2.74205
2.76639
2.78404
2.7817
2.77379
2.75827
2.74324
2.72404
2.70146
2.67806
2.65375
2.63002
2.60626
2.58385
2.56307
2.54451
2.52739
2.51265
2.49879
2.48723
2.47616
2.46697
2.45825
2.45088
2.44385
2.43767
2.43156
2.42585
2.42001
2.41436
2.40863
2.40363
2.39836
2.39308
2.38668
2.38068
2.37426
2.3684
2.36193
2.35584
2.34916
2.34275
2.33589
2.3292
2.32218
2.31526
2.30805
2.30097
2.29355
2.2864
2.27879
2.27157
2.26379
2.25645
2.24857
2.24102
2.23317
2.22536
2.21769
2.20966
2.20223
2.19405
2.18685
2.17859
2.1714
2.16317
2.15599
2.14796
2.1408
2.13313
2.12598
2.1187
2.11163
2.10472
2.09791
2.09136
2.08504
2.07889
2.07323
2.06767
2.06293
2.05829
2.05478
2.05166
2.04975
2.04897
2.04914
2.05014
2.04826
2.32409
2.28237
2.25624
2.24636
2.25697
2.28062
2.3086
2.34577
2.38037
2.40885
2.43516
2.44673
2.45949
2.46082
2.45938
2.45428
2.44825
2.43872
2.43424
2.4276
2.42129
2.4139
2.40682
2.40055
2.39446
2.38957
2.38536
2.38211
2.37955
2.37741
2.37592
2.37451
2.37327
2.37224
2.37085
2.36983
2.36795
2.3666
2.36401
2.36196
2.35857
2.35582
2.35237
2.34937
2.34532
2.34079
2.33558
2.33037
2.32514
2.31957
2.31406
2.308
2.30215
2.29574
2.28958
2.28291
2.27642
2.26951
2.26271
2.25558
2.24858
2.24128
2.23414
2.22673
2.21944
2.212
2.20455
2.19717
2.18959
2.18234
2.17469
2.16753
2.15979
2.15263
2.14501
2.13789
2.13048
2.12337
2.11618
2.10911
2.10212
2.09523
2.08837
2.08178
2.07507
2.06886
2.06246
2.05664
2.05082
2.04544
2.04049
2.03579
2.03203
2.02849
2.02637
2.0247
2.02482
2.02514
2.0267
2.02484
2.32364
2.2832
2.25907
2.24211
2.2447
2.25514
2.27196
2.2863
2.303
2.30902
2.31537
2.31375
2.31015
2.30663
2.3019
2.29974
2.29523
2.29277
2.2911
2.29329
2.29492
2.29661
2.29743
2.29885
2.29974
2.30161
2.30294
2.30519
2.30686
2.30919
2.31067
2.31209
2.31311
2.31379
2.31407
2.31391
2.31337
2.31255
2.31079
2.30919
2.30625
2.30386
2.30066
2.29803
2.29415
2.2901
2.28484
2.27995
2.27441
2.2692
2.26339
2.25776
2.25162
2.24561
2.23923
2.23295
2.22638
2.2198
2.21298
2.20612
2.19907
2.19206
2.18481
2.17775
2.17031
2.16324
2.15565
2.14862
2.14093
2.13396
2.12619
2.11925
2.11165
2.10482
2.09743
2.09073
2.08355
2.077
2.07005
2.06361
2.05695
2.05061
2.04435
2.03817
2.03238
2.02648
2.02121
2.01576
2.01104
2.00625
2.00219
1.99842
1.99528
1.99289
1.99126
1.99092
1.99131
1.99169
1.99349
1.9917
2.31914
2.28542
2.26319
2.24626
2.24158
2.25004
2.26107
2.27057
2.27403
2.27359
2.26739
2.25739
2.24865
2.23833
2.23273
2.22734
2.22595
2.22308
2.22313
2.22452
2.22895
2.23359
2.23685
2.24045
2.24298
2.24617
2.24832
2.25147
2.25386
2.25675
2.25871
2.26062
2.26187
2.26286
2.2635
2.26339
2.26302
2.26231
2.26071
2.2593
2.25648
2.25427
2.25127
2.24884
2.24536
2.24177
2.23705
2.23252
2.22735
2.22248
2.21704
2.21186
2.20606
2.20054
2.19442
2.18864
2.18228
2.1763
2.16975
2.16354
2.1568
2.15034
2.14346
2.13684
2.12984
2.12315
2.11603
2.10933
2.10207
2.09541
2.08813
2.08152
2.07433
2.06766
2.06066
2.05391
2.04713
2.04034
2.03376
2.02699
2.02061
2.01395
2.00779
2.00145
1.99553
1.98976
1.98419
1.97916
1.97417
1.97
1.96594
1.96282
1.96014
1.95839
1.95771
1.95791
1.95852
1.95936
1.962
1.96103
2.31961
2.29109
2.27157
2.26693
2.25759
2.25911
2.26285
2.2654
2.26416
2.2564
2.24381
2.23026
2.21572
2.2036
2.19349
2.18734
2.18295
2.18111
2.17929
2.17954
2.18117
2.18561
2.19018
2.19392
2.19747
2.20064
2.2038
2.20703
2.20981
2.21257
2.21492
2.21719
2.21915
2.22067
2.22183
2.22236
2.22256
2.22218
2.2213
2.22027
2.21834
2.21645
2.21425
2.21222
2.20965
2.20659
2.20283
2.19878
2.19443
2.18995
2.18522
2.18034
2.1752
2.16991
2.16442
2.15877
2.15299
2.14706
2.14099
2.13485
2.12851
2.12223
2.11569
2.10933
2.10269
2.09622
2.08955
2.083
2.07644
2.06989
2.06345
2.0569
2.05053
2.04399
2.03766
2.03121
2.0249
2.0186
2.01228
2.00616
1.9999
1.99394
1.98788
1.98211
1.97648
1.97101
1.96602
1.96104
1.95689
1.95278
1.9497
1.94689
1.94517
1.94427
1.94441
1.94491
1.94589
1.94736
1.95106
1.95098
2.32389
2.30262
2.28345
2.27727
2.27683
2.27843
2.27811
2.27336
2.26438
2.25137
2.23691
2.21946
2.20389
2.18823
2.17668
2.16708
2.1618
2.15746
2.15616
2.15424
2.15434
2.15488
2.15783
2.16112
2.16424
2.16728
2.17002
2.17266
2.175
2.17744
2.17967
2.18182
2.1836
2.18519
2.18631
2.1872
2.1876
2.18769
2.18735
2.18663
2.18511
2.18363
2.18162
2.17988
2.17742
2.17469
2.17113
2.1674
2.16319
2.15891
2.15419
2.1495
2.14434
2.13931
2.13382
2.12847
2.1228
2.11703
2.11122
2.10498
2.09893
2.09237
2.08601
2.07937
2.07268
2.06615
2.05932
2.0529
2.04608
2.03961
2.03294
2.02632
2.01988
2.01316
2.00696
2.00026
1.99421
1.98768
1.98169
1.97548
1.96951
1.96369
1.95785
1.95252
1.94701
1.94226
1.93734
1.93334
1.92933
1.92637
1.92372
1.92206
1.92126
1.92145
1.92203
1.92306
1.92459
1.9277
1.93208
1.93372
2.33351
2.3189
2.30658
2.2991
2.29651
2.29438
2.28894
2.28208
2.26855
2.25218
2.23484
2.21703
2.19958
2.18402
2.17006
2.15905
2.14992
2.14359
2.13836
2.13516
2.13265
2.13115
2.131
2.13243
2.13532
2.13828
2.14123
2.14381
2.14646
2.14855
2.15091
2.15276
2.15485
2.15645
2.15807
2.1592
2.1601
2.16049
2.16059
2.16016
2.15912
2.15784
2.15626
2.15469
2.15266
2.15014
2.14697
2.14343
2.1396
2.1354
2.13111
2.12642
2.12175
2.11672
2.11169
2.1065
2.10113
2.0958
2.09014
2.08459
2.07867
2.07285
2.06674
2.06065
2.05449
2.04827
2.04209
2.03574
2.02951
2.02308
2.01679
2.01037
2.00405
1.99773
1.99141
1.98524
1.97899
1.97297
1.96688
1.96096
1.95515
1.94938
1.94395
1.9385
1.93361
1.92869
1.92453
1.92051
1.91742
1.91469
1.91301
1.91208
1.91221
1.9128
1.91364
1.91556
1.91806
1.92244
1.9275
1.92917
2.35008
2.33835
2.33003
2.32263
2.31618
2.30856
2.29897
2.28656
2.27167
2.25503
2.23653
2.21838
2.20054
2.18446
2.16946
2.15652
2.14523
2.13605
2.12862
2.12307
2.11905
2.11637
2.1144
2.11394
2.11371
2.11552
2.1173
2.11964
2.1216
2.12362
2.1255
2.12705
2.12868
2.13001
2.1313
2.13226
2.13304
2.13344
2.13349
2.13321
2.13239
2.1312
2.12996
2.12857
2.12692
2.12475
2.12195
2.11888
2.11528
2.11156
2.10741
2.10308
2.09855
2.09364
2.08882
2.08353
2.07848
2.07304
2.06771
2.06217
2.05648
2.05076
2.04471
2.03887
2.0327
2.02674
2.02059
2.01448
2.00841
2.00215
1.99615
1.9898
1.98382
1.97748
1.9715
1.96532
1.95936
1.95347
1.94759
1.94208
1.93641
1.93134
1.92605
1.9215
1.91679
1.91288
1.90913
1.90616
1.90383
1.90221
1.90167
1.90191
1.90255
1.90384
1.90565
1.90905
1.91323
1.91797
1.92299
1.92443
2.37307
2.36473
2.35726
2.34827
2.33738
2.32418
2.3085
2.29174
2.27437
2.25685
2.23906
2.22167
2.20472
2.18855
2.17328
2.15916
2.1466
2.13559
2.12627
2.11815
2.1114
2.106
2.10213
2.09922
2.09759
2.09689
2.09717
2.09888
2.10033
2.10251
2.10471
2.10616
2.10815
2.10918
2.1108
2.1117
2.11289
2.11338
2.11394
2.11386
2.11333
2.11256
2.11153
2.11039
2.10911
2.10715
2.10489
2.10205
2.09898
2.09567
2.09183
2.08804
2.08351
2.07918
2.07425
2.06945
2.0644
2.0592
2.05405
2.04851
2.04308
2.03725
2.03151
2.02552
2.01946
2.0134
2.00711
2.00105
1.99468
1.98861
1.98225
1.97614
1.96988
1.96374
1.95764
1.95152
1.94566
1.93965
1.93408
1.92835
1.92315
1.91787
1.91318
1.90852
1.90448
1.90076
1.89774
1.89538
1.89376
1.89322
1.89343
1.89411
1.89516
1.89754
1.90063
1.90526
1.90979
1.91425
1.91869
1.91966
2.39385
2.39083
2.38364
2.37215
2.35727
2.33998
2.32105
2.30164
2.28203
2.26304
2.24459
2.22732
2.21028
2.19446
2.17862
2.16399
2.14987
2.13727
2.1255
2.11554
2.10676
2.09954
2.0936
2.08909
2.08573
2.08387
2.08269
2.08276
2.08311
2.0847
2.08659
2.08836
2.09031
2.09169
2.09337
2.09444
2.09561
2.09611
2.09666
2.09651
2.09602
2.09526
2.09407
2.09307
2.09157
2.08979
2.08751
2.08473
2.08192
2.07842
2.07498
2.07086
2.06673
2.06219
2.05752
2.05272
2.0477
2.04269
2.03743
2.03216
2.0267
2.02122
2.01563
2.00991
2.00421
1.99831
1.99254
1.98656
1.98071
1.97475
1.96882
1.96293
1.95695
1.95117
1.9452
1.93957
1.93375
1.92832
1.92282
1.91767
1.91266
1.90799
1.9036
1.8996
1.89605
1.89312
1.8909
1.88937
1.88894
1.88915
1.88973
1.89107
1.89316
1.89694
1.90134
1.90617
1.91057
1.91411
1.91791
1.91811
2.40686
2.40844
2.40196
2.38879
2.37063
2.3512
2.33083
2.31153
2.292
2.27381
2.25515
2.23794
2.22021
2.20389
2.18716
2.17167
2.15604
2.14212
2.12887
2.11746
2.10702
2.09826
2.0907
2.0848
2.07995
2.07641
2.07396
2.07273
2.07191
2.07207
2.07246
2.07381
2.07533
2.07659
2.07776
2.07858
2.07908
2.0793
2.0792
2.07877
2.07807
2.07686
2.07561
2.07429
2.07266
2.07084
2.06838
2.06585
2.06285
2.05969
2.05619
2.0524
2.04844
2.04414
2.03978
2.03509
2.03038
2.02539
2.02036
2.01516
2.00992
2.00466
1.99925
1.9939
1.98838
1.98291
1.97736
1.97176
1.96625
1.96054
1.95506
1.94929
1.94382
1.9381
1.93266
1.92711
1.92178
1.91655
1.91148
1.90674
1.90214
1.89811
1.89413
1.89102
1.88813
1.88637
1.88494
1.88496
1.88528
1.88602
1.88762
1.89007
1.89444
1.89871
1.90405
1.90801
1.91236
1.91453
1.91771
1.91728
2.41588
2.4202
2.41259
2.39703
2.378
2.35778
2.33833
2.31938
2.30155
2.28405
2.26684
2.24949
2.23247
2.21525
2.19867
2.18203
2.16624
2.15117
2.13724
2.12462
2.11283
2.10271
2.09298
2.08507
2.07787
2.0724
2.06772
2.06446
2.06188
2.06029
2.05892
2.05828
2.05815
2.05854
2.05896
2.05923
2.0592
2.05909
2.0587
2.05798
2.05703
2.05571
2.05432
2.05281
2.0511
2.04919
2.04672
2.04426
2.04125
2.0383
2.03481
2.03135
2.02744
2.02348
2.0192
2.01481
2.01021
2.00548
2.00065
1.99573
1.99077
1.98575
1.98064
1.97552
1.97025
1.96505
1.95966
1.9544
1.94897
1.94364
1.93828
1.93285
1.92767
1.92221
1.91728
1.91198
1.90738
1.90244
1.89831
1.89394
1.89044
1.88684
1.88406
1.88168
1.88015
1.87927
1.87943
1.87997
1.88109
1.88274
1.88622
1.89005
1.89557
1.89989
1.90492
1.90804
1.91156
1.91278
1.91515
1.91419
2.425
2.42
2.40834
2.39271
2.3757
2.35725
2.33974
2.32277
2.30693
2.29118
2.27557
2.25959
2.24338
2.22689
2.21038
2.19378
2.17747
2.16151
2.14622
2.13173
2.11801
2.10542
2.09383
2.08357
2.07421
2.06633
2.05924
2.05361
2.04878
2.04511
2.04208
2.0397
2.0379
2.03675
2.03614
2.03601
2.03597
2.03583
2.03546
2.03483
2.03398
2.03256
2.0313
2.02965
2.02828
2.02618
2.02408
2.02159
2.01891
2.0161
2.01285
2.00964
2.0059
2.0022
1.99805
1.99385
1.98942
1.98478
1.98019
1.97536
1.97068
1.96576
1.9609
1.95598
1.9509
1.94602
1.94073
1.93591
1.93051
1.92573
1.92038
1.91561
1.91046
1.90574
1.9009
1.89636
1.89197
1.8878
1.88411
1.88052
1.87762
1.87488
1.87313
1.87171
1.87158
1.87187
1.87279
1.87399
1.87672
1.87975
1.88487
1.88935
1.89467
1.89858
1.90257
1.90478
1.90695
1.90748
1.90884
1.90711
2.44556
2.42369
2.40207
2.38141
2.36404
2.34824
2.33338
2.31891
2.30454
2.29035
2.27557
2.2605
2.24491
2.2291
2.21281
2.19654
2.17994
2.16382
2.14768
2.13252
2.11762
2.10403
2.09078
2.07905
2.06775
2.05804
2.04894
2.04135
2.03446
2.0291
2.02431
2.02061
2.01752
2.01562
2.01426
2.01343
2.01307
2.01298
2.01279
2.01247
2.01174
2.01093
2.00965
2.00853
2.00735
2.00559
2.00398
2.00168
1.9996
1.99686
1.9941
1.99094
1.98747
1.98391
1.97983
1.97585
1.97131
1.9669
1.96227
1.95753
1.95298
1.94795
1.94345
1.93826
1.93371
1.92851
1.92382
1.91871
1.9139
1.90894
1.90409
1.89938
1.89457
1.89019
1.88556
1.8816
1.87741
1.87403
1.87054
1.86794
1.8653
1.86381
1.86269
1.86279
1.86324
1.86416
1.86608
1.86858
1.87292
1.87749
1.88284
1.88744
1.89184
1.89505
1.89758
1.8989
1.89978
1.89971
1.90009
1.89798
2.46579
2.43761
2.40989
2.38494
2.36505
2.34805
2.33256
2.31789
2.30346
2.28898
2.27425
2.25931
2.24387
2.22819
2.21209
2.19579
2.17932
2.16287
2.14669
2.13092
2.11567
2.1011
2.08715
2.07411
2.06182
2.05073
2.04029
2.03115
2.02287
2.01598
2.00996
2.0053
2.00113
1.99814
1.99611
1.99487
1.99405
1.99346
1.99337
1.99336
1.99324
1.9929
1.99214
1.99159
1.99064
1.98973
1.98825
1.98654
1.98463
1.98234
1.97988
1.97695
1.97378
1.97029
1.96641
1.96248
1.95797
1.95373
1.9489
1.9445
1.93956
1.93501
1.93007
1.92536
1.92049
1.91565
1.91086
1.90596
1.90126
1.89639
1.89185
1.88711
1.88281
1.87834
1.87444
1.87043
1.86714
1.86386
1.86133
1.85891
1.85748
1.85658
1.85669
1.85721
1.85828
1.85999
1.86332
1.8674
1.87262
1.87738
1.88232
1.88617
1.88946
1.89176
1.89284
1.89365
1.89341
1.89294
1.89279
1.89093
2.47382
2.44402
2.41639
2.39287
2.37117
2.35282
2.33623
2.32071
2.30553
2.29054
2.27525
2.26005
2.24436
2.22873
2.2125
2.19636
2.17975
2.16342
2.14702
2.13112
2.11547
2.10049
2.08604
2.07239
2.05958
2.04747
2.03652
2.02636
2.01726
2.00896
2.0019
1.99569
1.99056
1.98637
1.98308
1.98108
1.97957
1.97879
1.97821
1.9779
1.97786
1.97775
1.97745
1.97693
1.97635
1.97562
1.97456
1.97325
1.97145
1.96937
1.96694
1.9641
1.9611
1.95759
1.95405
1.95
1.94599
1.94166
1.93729
1.9328
1.92814
1.92355
1.9187
1.91407
1.90917
1.90456
1.89973
1.89519
1.89048
1.88608
1.88159
1.87741
1.87321
1.8694
1.86569
1.86247
1.85958
1.85712
1.85516
1.8538
1.85347
1.85367
1.85431
1.85576
1.85787
1.86172
1.866
1.87111
1.87603
1.88055
1.88465
1.88741
1.88988
1.89069
1.89138
1.891
1.89062
1.88989
1.88926
1.88748
2.48274
2.45231
2.42607
2.40328
2.38384
2.36561
2.34836
2.3312
2.31369
2.2969
2.28029
2.26412
2.24783
2.23181
2.21534
2.19914
2.18249
2.1663
2.14981
2.13403
2.11826
2.10311
2.08844
2.07433
2.06102
2.04825
2.03631
2.02496
2.01458
2.00515
1.99686
1.99004
1.9843
1.97939
1.97491
1.9714
1.96889
1.96687
1.96572
1.96493
1.96475
1.96475
1.96478
1.9647
1.96454
1.96431
1.9638
1.96298
1.9615
1.95983
1.95754
1.95514
1.95225
1.94913
1.94576
1.94197
1.93826
1.93401
1.93001
1.92539
1.92111
1.91623
1.91166
1.90665
1.90189
1.89692
1.89212
1.8873
1.88259
1.87802
1.87356
1.86938
1.86536
1.8618
1.85842
1.85582
1.85331
1.85173
1.85041
1.85046
1.85079
1.85158
1.85324
1.85612
1.86034
1.8651
1.87011
1.87527
1.87946
1.88367
1.88612
1.8885
1.88933
1.88978
1.88957
1.88922
1.88851
1.88724
1.88601
1.88433
2.50091
2.46716
2.44224
2.42101
2.40134
2.38217
2.36375
2.34641
2.32977
2.31311
2.29618
2.27942
2.26221
2.24541
2.22818
2.21132
2.1939
2.17682
2.15951
2.14288
2.12648
2.11084
2.09571
2.08125
2.06746
2.05412
2.04167
2.02962
2.01873
2.00835
1.99916
1.99057
1.98307
1.97651
1.97086
1.96586
1.96217
1.95984
1.95866
1.95782
1.95779
1.95792
1.95823
1.95844
1.95865
1.95863
1.95845
1.95797
1.95705
1.95554
1.9536
1.95141
1.94861
1.94589
1.9424
1.93916
1.93522
1.9315
1.92724
1.92306
1.91851
1.91391
1.90909
1.90414
1.89915
1.89402
1.889
1.88392
1.87907
1.87421
1.86984
1.86544
1.86179
1.85813
1.85552
1.85287
1.8513
1.85009
1.85015
1.85037
1.85124
1.85328
1.85659
1.86088
1.86596
1.87081
1.87598
1.88002
1.88407
1.88659
1.88866
1.88978
1.88987
1.8897
1.88933
1.88849
1.88727
1.88533
1.88385
1.88198
2.54246
2.49997
2.46937
2.44492
2.42356
2.40393
2.38422
2.36515
2.34601
2.32784
2.30967
2.29236
2.27512
2.25842
2.24163
2.22507
2.20828
2.19187
2.1751
2.15906
2.14279
2.12739
2.11185
2.09708
2.08238
2.06832
2.05477
2.04179
2.02983
2.01843
2.00823
1.9987
1.99035
1.9828
1.97623
1.97054
1.96537
1.96133
1.95786
1.95527
1.95333
1.95184
1.95089
1.95031
1.94993
1.94964
1.94928
1.94883
1.94808
1.94691
1.94549
1.94351
1.94136
1.93874
1.93593
1.93286
1.92953
1.92602
1.92225
1.91834
1.91427
1.91003
1.9057
1.90123
1.89676
1.89218
1.88768
1.88322
1.87886
1.87464
1.87067
1.86695
1.86364
1.86081
1.85841
1.85656
1.85534
1.85508
1.85499
1.85588
1.8581
1.86191
1.86623
1.87115
1.87583
1.88052
1.88445
1.88784
1.89039
1.89176
1.89289
1.89269
1.89238
1.89173
1.89089
1.88912
1.88725
1.88469
1.88301
1.88067
2.58229
2.54699
2.51686
2.48924
2.46262
2.43778
2.41378
2.39108
2.36919
2.34852
2.32849
2.3098
2.29135
2.2739
2.25645
2.23969
2.22299
2.20665
2.19013
2.17377
2.15731
2.14126
2.12528
2.10981
2.09479
2.08048
2.06686
2.05414
2.04212
2.03077
2.02017
2.00996
2.0004
1.99137
1.98317
1.97556
1.96851
1.96192
1.95659
1.95215
1.94876
1.94627
1.94462
1.94357
1.94302
1.94272
1.94259
1.94244
1.94212
1.9416
1.94059
1.93925
1.93741
1.93514
1.93255
1.92957
1.92642
1.92285
1.91921
1.91522
1.91128
1.90702
1.90288
1.8985
1.89428
1.89001
1.88588
1.88189
1.87807
1.87463
1.87135
1.86854
1.86622
1.86426
1.86302
1.8623
1.86238
1.86259
1.86424
1.86706
1.87103
1.87537
1.88003
1.88459
1.88881
1.89251
1.89529
1.89754
1.89853
1.89912
1.89873
1.89801
1.89734
1.89596
1.89433
1.89185
1.88961
1.88678
1.8849
1.88248
2.60812
2.5759
2.54765
2.52115
2.49565
2.47123
2.44773
2.4249
2.4025
2.38088
2.35947
2.33888
2.31877
2.29936
2.28068
2.26247
2.24464
2.22716
2.20966
2.19253
2.17554
2.15926
2.1433
2.12806
2.11325
2.09905
2.08519
2.07171
2.05845
2.04548
2.03281
2.02056
2.00882
1.99785
1.98747
1.97819
1.96971
1.96212
1.95555
1.95019
1.9462
1.94314
1.9413
1.94015
1.93982
1.9399
1.94017
1.94048
1.94074
1.94065
1.94029
1.93951
1.93822
1.93636
1.93418
1.93149
1.92864
1.92532
1.92188
1.9181
1.91427
1.91018
1.90618
1.90192
1.89796
1.89383
1.89004
1.88629
1.88288
1.87989
1.8772
1.87536
1.87372
1.87294
1.87247
1.87262
1.87323
1.87565
1.87881
1.88276
1.88709
1.89159
1.896
1.89987
1.90334
1.90572
1.90767
1.90835
1.9087
1.90806
1.90734
1.90635
1.90512
1.90311
1.90091
1.89822
1.89566
1.89279
1.89069
1.88828
2.62142
2.59771
2.5755
2.55258
2.52883
2.50542
2.48269
2.46032
2.43852
2.41637
2.39514
2.37351
2.3533
2.33283
2.3135
2.29404
2.27527
2.25662
2.23846
2.22079
2.20367
2.18697
2.17075
2.15453
2.13865
2.12277
2.10731
2.09224
2.07776
2.06397
2.05092
2.03856
2.02688
2.01596
2.00549
1.99611
1.9872
1.97952
1.97243
1.96649
1.96176
1.95814
1.95551
1.95396
1.95304
1.95304
1.9532
1.95354
1.95387
1.95393
1.95376
1.95325
1.9522
1.95064
1.94851
1.94595
1.94293
1.93954
1.93575
1.93164
1.92729
1.92257
1.91809
1.91306
1.90871
1.9038
1.89985
1.89557
1.89227
1.8889
1.8866
1.88468
1.88341
1.88281
1.88297
1.88419
1.88721
1.89054
1.89481
1.89934
1.90374
1.90824
1.91175