/*--------------------------------*- C++ -*----------------------------------*\
| =========                 |                                                 |
| \\      /  F ield         | OpenFOAM: The Open Source CFD Toolbox           |
|  \\    /   O peration     | Version:  2112                                  |
|   \\  /    A nd           | Website:  www.openfoam.com                      |
|    \\/     M anipulation  |                                                 |
\*---------------------------------------------------------------------------*/
FoamFile
{
    version     2.0;
    format      ascii;
    arch        "LSB;label=32;scalar=64";
    class       volVectorField;
    location    "9.5";
    object      U;
}
// * * * * * * * * * * * * * * * * * * * * * * * * * * * * * * * * * * * * * //

dimensions      [0 1 -1 0 0 0 0];

internalField   nonuniform List<vector> 
5250
(
(2.99999 2.10946e-08 0)
(2.99998 1.64917e-07 0)
(2.99994 5.08183e-07 0)
(2.99986 1.5362e-06 0)
(2.99965 3.70091e-06 0)
(2.99922 9.36472e-06 0)
(2.99792 2.39399e-05 0)
(2.99555 4.63166e-05 0)
(2.98726 0.000145152 0)
(2.97291 0.00021114 0)
(2.9191 0.00064918 0)
(2.78596 0.00133432 0)
(2.42338 0.00339806 0)
(1.35281 0.00959883 0)
(0.605904 0.0208276 0)
(0.569285 0.0224988 0)
(0.584519 0.0238718 0)
(0.567159 0.0253218 0)
(0.508053 0.0270038 0)
(0.420538 0.0291205 0)
(0.341564 0.0317352 0)
(0.273334 0.0347149 0)
(0.202689 0.0379839 0)
(0.122206 0.0419752 0)
(0.0545653 0.0480247 0)
(2.99999 5.82428e-08 0)
(2.99998 4.55014e-07 0)
(2.99994 1.40097e-06 0)
(2.99987 4.23084e-06 0)
(2.99965 1.01607e-05 0)
(2.99923 2.59116e-05 0)
(2.99795 6.47362e-05 0)
(2.99566 0.000132659 0)
(2.98739 0.000385799 0)
(2.97334 0.000642238 0)
(2.92 0.00183838 0)
(2.78829 0.00399468 0)
(2.42958 0.010747 0)
(1.36559 0.0292912 0)
(0.614611 0.0630316 0)
(0.568731 0.0651944 0)
(0.583643 0.0665452 0)
(0.566331 0.0682869 0)
(0.507487 0.0709848 0)
(0.420284 0.0749985 0)
(0.341179 0.0796584 0)
(0.272249 0.0845781 0)
(0.200533 0.0893744 0)
(0.118649 0.0943904 0)
(0.0505976 0.0999631 0)
(2.99999 8.64933e-08 0)
(2.99998 6.73536e-07 0)
(2.99994 2.07381e-06 0)
(2.99987 6.24942e-06 0)
(2.99966 1.49406e-05 0)
(2.99926 3.85109e-05 0)
(2.99801 9.29366e-05 0)
(2.99582 0.000206746 0)
(2.98768 0.000539993 0)
(2.97414 0.00108079 0)
(2.92178 0.00282187 0)
(2.79368 0.00653648 0)
(2.44282 0.0188652 0)
(1.39239 0.0495435 0)
(0.634193 0.109104 0)
(0.567899 0.110854 0)
(0.582746 0.111922 0)
(0.566405 0.114939 0)
(0.50901 0.120067 0)
(0.422874 0.127826 0)
(0.343992 0.136304 0)
(0.27474 0.145258 0)
(0.202347 0.154119 0)
(0.119375 0.162669 0)
(0.0497658 0.169939 0)
(2.99999 1.07971e-07 0)
(2.99998 8.3845e-07 0)
(2.99995 2.58196e-06 0)
(2.99988 7.77349e-06 0)
(2.99968 1.85055e-05 0)
(2.9993 4.83126e-05 0)
(2.99809 0.000112712 0)
(2.99603 0.000271781 0)
(2.98812 0.000643758 0)
(2.97526 0.0015351 0)
(2.92434 0.00369994 0)
(2.80248 0.00916046 0)
(2.46297 0.0267861 0)
(1.43242 0.0702612 0)
(0.663931 0.1572 0)
(0.564989 0.156452 0)
(0.581197 0.155948 0)
(0.567483 0.161079 0)
(0.512745 0.168692 0)
(0.428558 0.180112 0)
(0.350374 0.192722 0)
(0.281322 0.206222 0)
(0.208448 0.219902 0)
(0.123787 0.232866 0)
(0.051034 0.24245 0)
(2.99999 1.24805e-07 0)
(2.99998 9.68966e-07 0)
(2.99995 2.98271e-06 0)
(2.99988 8.99037e-06 0)
(2.9997 2.13362e-05 0)
(2.99934 5.64304e-05 0)
(2.99819 0.000128364 0)
(2.99627 0.00032974 0)
(2.98872 0.000730475 0)
(2.97672 0.00198647 0)
(2.92784 0.00446532 0)
(2.81436 0.0123803 0)
(2.49033 0.0342375 0)
(1.49002 0.0929891 0)
(0.705756 0.209665 0)
(0.560142 0.202808 0)
(0.580119 0.198923 0)
(0.570794 0.206294 0)
(0.5189 0.216246 0)
(0.437541 0.231134 0)
(0.36059 0.24816 0)
(0.291984 0.266726 0)
(0.218665 0.285901 0)
(0.131724 0.30412 0)
(0.0544151 0.31682 0)
(2.99999 1.36245e-07 0)
(2.99998 1.05691e-06 0)
(2.99995 3.25254e-06 0)
(2.99989 9.80717e-06 0)
(2.99972 2.31973e-05 0)
(2.99939 6.20044e-05 0)
(2.99832 0.000137956 0)
(2.99653 0.000372356 0)
(2.98949 0.000788844 0)
(2.97841 0.00232086 0)
(2.93258 0.0049236 0)
(2.82929 0.0155566 0)
(2.52561 0.0391479 0)
(1.5737 0.116851 0)
(0.765064 0.266439 0)
(0.556229 0.249986 0)
(0.582588 0.241234 0)
(0.579203 0.250453 0)
(0.529895 0.262794 0)
(0.451761 0.281389 0)
(0.376393 0.303296 0)
(0.308354 0.327867 0)
(0.234396 0.354124 0)
(0.144047 0.379881 0)
(0.060085 0.39804 0)
(2.99999 1.4464e-07 0)
(2.99998 1.12198e-06 0)
(2.99996 3.45167e-06 0)
(2.9999 1.04166e-05 0)
(2.99974 2.45617e-05 0)
(2.99944 6.63608e-05 0)
(2.99845 0.000144558 0)
(2.99681 0.000408789 0)
(2.99033 0.000832915 0)
(2.9802 0.00261044 0)
(2.93832 0.00534724 0)
(2.84511 0.0181659 0)
(2.56822 0.0431719 0)
(1.68849 0.139609 0)
(0.84044 0.326678 0)
(0.552828 0.299147 0)
(0.589309 0.284297 0)
(0.593859 0.29456 0)
(0.547075 0.308884 0)
(0.472605 0.33134 0)
(0.399195 0.358658 0)
(0.332179 0.390295 0)
(0.258066 0.425534 0)
(0.163919 0.462295 0)
(0.0702842 0.490958 0)
(3 1.49485e-07 0)
(2.99999 1.15611e-06 0)
(2.99996 3.55722e-06 0)
(2.99991 1.07187e-05 0)
(2.99977 2.51583e-05 0)
(2.99949 6.873e-05 0)
(2.9986 0.000144921 0)
(2.99711 0.000437547 0)
(2.99131 0.000826537 0)
(2.98222 0.00291252 0)
(2.94492 0.00574219 0)
(2.86313 0.0201832 0)
(2.61824 0.0480808 0)
(1.83372 0.15748 0)
(0.936782 0.383449 0)
(0.556183 0.347434 0)
(0.60376 0.327381 0)
(0.617031 0.3376 0)
(0.572523 0.353583 0)
(0.502241 0.380323 0)
(0.431265 0.413873 0)
(0.365902 0.454126 0)
(0.292747 0.500936 0)
(0.195619 0.554273 0)
(0.0884642 0.604013 0)
(3 1.74033e-07 0)
(2.99999 1.34745e-06 0)
(2.99996 4.14108e-06 0)
(2.99992 1.24963e-05 0)
(2.99979 2.94928e-05 0)
(2.99954 7.97252e-05 0)
(2.99876 0.000174557 0)
(2.99738 0.000492755 0)
(2.99238 0.00100263 0)
(2.98434 0.00320223 0)
(2.95208 0.00646416 0)
(2.88292 0.0218364 0)
(2.67327 0.0521563 0)
(2.00328 0.168706 0)
(1.05863 0.430182 0)
(0.579968 0.400799 0)
(0.633584 0.378206 0)
(0.65306 0.38261 0)
(0.610169 0.39914 0)
(0.543874 0.428918 0)
(0.475476 0.469168 0)
(0.412688 0.518101 0)
(0.343695 0.578985 0)
(0.24906 0.658064 0)
(0.12344 0.751634 0)
(3 4.29441e-09 0)
(2.99999 1.59212e-06 0)
(2.99997 2.56375e-06 0)
(2.99993 1.37061e-05 0)
(2.99982 1.88328e-05 0)
(2.99961 8.55572e-05 0)
(2.99895 0.000106722 0)
(2.9978 0.000533213 0)
(2.99355 0.000498686 0)
(2.98681 0.00375925 0)
(2.95988 0.00252717 0)
(2.90367 0.0259419 0)
(2.73114 0.0340312 0)
(2.19358 0.160609 0)
(1.22463 0.399214 0)
(0.65403 0.434437 0)
(0.689261 0.432465 0)
(0.706892 0.428316 0)
(0.665356 0.447015 0)
(0.601834 0.478 0)
(0.535264 0.523616 0)
(0.475986 0.580667 0)
(0.41839 0.660122 0)
(0.341306 0.78135 0)
(0.191457 0.989153 0)
(3 1.2363e-07 0)
(2.99999 9.53624e-07 0)
(2.99997 2.93936e-06 0)
(2.99993 8.82093e-06 0)
(2.99985 2.07499e-05 0)
(2.99961 5.5946e-05 0)
(2.99913 0.000118986 0)
(2.99771 0.000351058 0)
(2.99505 0.00064599 0)
(2.98606 0.00232957 0)
(2.96967 0.0043842 0)
(2.91159 0.0146298 0)
(2.76626 0.0398236 0)
(2.37396 0.101766 0)
(1.33822 0.32899 0)
(0.708335 0.464172 0)
(0.719737 0.485694 0)
(0.743105 0.4798 0)
(0.719176 0.497226 0)
(0.664968 0.527526 0)
(0.606335 0.574934 0)
(0.558226 0.639008 0)
(0.528837 0.733044 0)
(0.527782 0.879597 0)
(0.557867 1.11938 0)
(3 2.72824e-07 0)
(2.99999 5.57333e-07 0)
(2.99998 4.04733e-06 0)
(2.99995 6.24466e-06 0)
(2.99986 2.82727e-05 0)
(2.99969 4.09768e-05 0)
(2.99919 0.000172205 0)
(2.99824 0.000239888 0)
(2.9952 0.00107049 0)
(2.98993 0.00123743 0)
(2.9701 0.00726447 0)
(2.93339 0.00693687 0)
(2.80162 0.046178 0)
(2.43453 0.0795495 0)
(1.58798 0.266292 0)
(0.799018 0.51374 0)
(0.739403 0.533818 0)
(0.763134 0.53085 0)
(0.759544 0.543791 0)
(0.722756 0.574358 0)
(0.680223 0.621364 0)
(0.649875 0.688726 0)
(0.649368 0.784965 0)
(0.699761 0.921312 0)
(0.816996 1.09732 0)
(3 1.17638e-07 0)
(2.99999 9.20423e-07 0)
(2.99998 2.82978e-06 0)
(2.99995 8.59393e-06 0)
(2.99988 2.03627e-05 0)
(2.99973 5.4658e-05 0)
(2.9993 0.000123047 0)
(2.99845 0.000325736 0)
(2.99588 0.000719018 0)
(2.99123 0.0019731 0)
(2.9746 0.00422076 0)
(2.94405 0.0124913 0)
(2.83296 0.0288614 0)
(2.52825 0.0890057 0)
(1.80544 0.23052 0)
(0.921353 0.558674 0)
(0.750027 0.567824 0)
(0.776436 0.568432 0)
(0.791061 0.580052 0)
(0.774156 0.612909 0)
(0.750334 0.660203 0)
(0.740038 0.725429 0)
(0.759769 0.812262 0)
(0.828766 0.920519 0)
(0.960396 1.02903 0)
(3 1.14198e-07 0)
(2.99999 8.86216e-07 0)
(2.99998 2.72779e-06 0)
(2.99996 8.22321e-06 0)
(2.9999 1.94915e-05 0)
(2.99978 5.18e-05 0)
(2.99942 0.000116552 0)
(2.99873 0.000304821 0)
(2.99657 0.000667702 0)
(2.99286 0.00183829 0)
(2.97873 0.00375339 0)
(2.95439 0.0118542 0)
(2.86108 0.025414 0)
(2.61567 0.0859403 0)
(2.01003 0.214071 0)
(1.05891 0.585903 0)
(0.762456 0.594309 0)
(0.7906 0.597458 0)
(0.819797 0.607613 0)
(0.82169 0.64163 0)
(0.813946 0.689211 0)
(0.819375 0.748722 0)
(0.851955 0.820847 0)
(0.924246 0.902137 0)
(1.04844 0.971404 0)
(3 1.00941e-07 0)
(2.99999 7.79545e-07 0)
(2.99999 2.4009e-06 0)
(2.99997 7.20571e-06 0)
(2.99991 1.70287e-05 0)
(2.99981 4.50155e-05 0)
(2.99951 0.000100633 0)
(2.99891 0.000264327 0)
(2.99716 0.000560948 0)
(2.99381 0.00163284 0)
(2.98282 0.00308491 0)
(2.96252 0.0110279 0)
(2.88992 0.0211118 0)
(2.70283 0.0804084 0)
(2.22239 0.195076 0)
(1.23473 0.577342 0)
(0.80704 0.619406 0)
(0.819618 0.629272 0)
(0.853416 0.634648 0)
(0.86955 0.664736 0)
(0.87242 0.709265 0)
(0.887195 0.761807 0)
(0.926533 0.820308 0)
(0.997266 0.880805 0)
(1.10914 0.928952 0)
(3 9.55096e-08 0)
(3 7.4214e-07 0)
(2.99999 2.28449e-06 0)
(2.99997 6.89197e-06 0)
(2.99993 1.63449e-05 0)
(2.99984 4.3466e-05 0)
(2.9996 9.79628e-05 0)
(2.99912 0.000255126 0)
(2.99771 0.000567201 0)
(2.99496 0.00149229 0)
(2.98646 0.00330144 0)
(2.9697 0.00911546 0)
(2.91518 0.0203656 0)
(2.7777 0.0625079 0)
(2.41525 0.15756 0)
(1.44751 0.47754 0)
(0.898658 0.627576 0)
(0.867019 0.657715 0)
(0.892402 0.668167 0)
(0.91794 0.688188 0)
(0.927627 0.724851 0)
(0.946525 0.769359 0)
(0.987493 0.816442 0)
(1.05446 0.86155 0)
(1.15354 0.895718 0)
(3 8.41138e-08 0)
(3 6.53696e-07 0)
(2.99999 2.01216e-06 0)
(2.99998 6.06818e-06 0)
(2.99994 1.43951e-05 0)
(2.99988 3.82378e-05 0)
(2.99969 8.6271e-05 0)
(2.99931 0.000223224 0)
(2.99819 0.00050254 0)
(2.99609 0.00127282 0)
(2.98912 0.00295997 0)
(2.97695 0.00721879 0)
(2.93224 0.0179172 0)
(2.82643 0.0461618 0)
(2.53333 0.121614 0)
(1.65758 0.351677 0)
(0.99995 0.65002 0)
(0.901826 0.687233 0)
(0.921213 0.704003 0)
(0.953126 0.712693 0)
(0.973916 0.73894 0)
(0.99733 0.7746 0)
(1.03808 0.811894 0)
(1.09998 0.845415 0)
(1.18713 0.869136 0)
(3 7.01162e-08 0)
(3 5.41717e-07 0)
(2.99999 1.66919e-06 0)
(2.99998 5.01043e-06 0)
(2.99996 1.18794e-05 0)
(2.9999 3.13625e-05 0)
(2.99976 7.06038e-05 0)
(2.99946 0.00018186 0)
(2.99858 0.000404925 0)
(2.99702 0.00104574 0)
(2.99138 0.00230618 0)
(2.98231 0.00624338 0)
(2.94625 0.0136669 0)
(2.86854 0.040094 0)
(2.63526 0.10149 0)
(1.90432 0.303924 0)
(1.16176 0.683755 0)
(0.933471 0.717553 0)
(0.94278 0.731303 0)
(0.977128 0.733172 0)
(1.01013 0.749216 0)
(1.03914 0.776991 0)
(1.07944 0.806203 0)
(1.13651 0.83056 0)
(1.21282 0.84662 0)
(3 3.14244e-08 0)
(3 4.88387e-07 0)
(2.99999 1.13775e-06 0)
(2.99999 4.3423e-06 0)
(2.99997 8.2e-06 0)
(2.99993 2.68198e-05 0)
(2.99981 4.82191e-05 0)
(2.99958 0.000155131 0)
(2.99891 0.000266909 0)
(2.99768 0.000920102 0)
(2.99343 0.00140345 0)
(2.9865 0.00592601 0)
(2.95935 0.0081408 0)
(2.90356 0.0394298 0)
(2.73053 0.0727267 0)
(2.18927 0.272933 0)
(1.394 0.657503 0)
(1.00868 0.737472 0)
(0.983792 0.749214 0)
(1.00654 0.751 0)
(1.04402 0.757797 0)
(1.07694 0.777348 0)
(1.11487 0.799121 0)
(1.16657 0.815688 0)
(1.23295 0.824874 0)
(3 2.60978e-08 0)
(3 3.8682e-07 0)
(3 9.17146e-07 0)
(2.99999 3.45698e-06 0)
(2.99998 6.64709e-06 0)
(2.99994 2.14607e-05 0)
(2.99986 3.94558e-05 0)
(2.99965 0.000124582 0)
(2.99922 0.000222555 0)
(2.99796 0.000735479 0)
(2.99553 0.00119246 0)
(2.98797 0.00470241 0)
(2.9731 0.00650542 0)
(2.92536 0.0305903 0)
(2.80738 0.0539038 0)
(2.47953 0.193725 0)
(1.64161 0.534071 0)
(1.1152 0.745066 0)
(1.03466 0.767111 0)
(1.04361 0.774111 0)
(1.07759 0.772097 0)
(1.11188 0.779899 0)
(1.14631 0.792018 0)
(1.1917 0.801704 0)
(1.24856 0.80303 0)
(3 5.98171e-08 0)
(3 2.15111e-07 0)
(3 1.03117e-06 0)
(2.99999 2.15426e-06 0)
(2.99998 7.18808e-06 0)
(2.99995 1.36819e-05 0)
(2.9999 4.26944e-05 0)
(2.99974 7.93657e-05 0)
(2.99942 0.000246567 0)
(2.99849 0.000450662 0)
(2.99673 0.00144284 0)
(2.99095 0.00251922 0)
(2.98088 0.00886444 0)
(2.94429 0.0148438 0)
(2.86033 0.0568111 0)
(2.62266 0.117155 0)
(1.91034 0.389791 0)
(1.2589 0.742643 0)
(1.07793 0.784818 0)
(1.0742 0.795899 0)
(1.10205 0.79025 0)
(1.13875 0.786036 0)
(1.17283 0.788059 0)
(1.21233 0.789659 0)
(1.25888 0.781647 0)
(3 3.71055e-08 0)
(3 2.02406e-07 0)
(3 7.52323e-07 0)
(2.99999 1.93071e-06 0)
(2.99999 5.3067e-06 0)
(2.99997 1.21609e-05 0)
(2.99992 3.15385e-05 0)
(2.99982 7.04778e-05 0)
(2.99953 0.000181173 0)
(2.99896 0.000400939 0)
(2.99726 0.00104747 0)
(2.99412 0.00226405 0)
(2.98343 0.00630248 0)
(2.96382 0.0135567 0)
(2.89496 0.0391068 0)
(2.7214 0.104633 0)
(2.25142 0.282672 0)
(1.44472 0.734286 0)
(1.13381 0.809065 0)
(1.10666 0.813414 0)
(1.12383 0.806683 0)
(1.15901 0.793506 0)
(1.19352 0.786226 0)
(1.22671 0.77702 0)
(1.26301 0.7588 0)
(3 2.21772e-08 0)
(3 1.73069e-07 0)
(3 5.32612e-07 0)
(3 1.61012e-06 0)
(2.99999 3.82059e-06 0)
(2.99998 1.01616e-05 0)
(2.99995 2.29406e-05 0)
(2.99986 5.94947e-05 0)
(2.99969 0.000132884 0)
(2.99921 0.00034286 0)
(2.99828 0.000769319 0)
(2.99533 0.00198365 0)
(2.99028 0.00443351 0)
(2.97151 0.0118488 0)
(2.9361 0.0275335 0)
(2.81681 0.0766475 0)
(2.48777 0.217947 0)
(1.76732 0.568918 0)
(1.23359 0.80818 0)
(1.14944 0.822514 0)
(1.15125 0.817002 0)
(1.17844 0.798183 0)
(1.20964 0.779804 0)
(1.23531 0.758856 0)
(1.26189 0.73086 0)
(3 2.48354e-08 0)
(3 9.28372e-08 0)
(3 4.32671e-07 0)
(3 9.2832e-07 0)
(2.99999 3.01638e-06 0)
(2.99998 5.88992e-06 0)
(2.99996 1.78324e-05 0)
(2.99991 3.40305e-05 0)
(2.99976 0.000101996 0)
(2.99949 0.000192177 0)
(2.99862 0.000588691 0)
(2.99717 0.00105969 0)
(2.99166 0.00359778 0)
(2.98294 0.00572724 0)
(2.94872 0.0231155 0)
(2.87628 0.0397758 0)
(2.65481 0.146258 0)
(2.01838 0.386958 0)
(1.38774 0.786254 0)
(1.18315 0.83173 0)
(1.17052 0.824075 0)
(1.18935 0.80218 0)
(1.21673 0.770433 0)
(1.23754 0.736817 0)
(1.25676 0.698926 0)
(3 1.12109e-08 0)
(3 8.66114e-08 0)
(3 2.6719e-07 0)
(3 8.00465e-07 0)
(2.99999 1.89611e-06 0)
(2.99999 4.97765e-06 0)
(2.99997 1.11616e-05 0)
(2.99993 2.85419e-05 0)
(2.99983 6.29459e-05 0)
(2.99961 0.000162879 0)
(2.99901 0.000345759 0)
(2.99784 0.000972734 0)
(2.99416 0.00189662 0)
(2.98779 0.00612475 0)
(2.96448 0.0119853 0)
(2.91771 0.0387877 0)
(2.77161 0.0929075 0)
(2.32047 0.287034 0)
(1.62818 0.695475 0)
(1.25515 0.823871 0)
(1.19911 0.824105 0)
(1.20114 0.798487 0)
(1.21772 0.758554 0)
(1.23428 0.713047 0)
(1.24863 0.66569 0)
(3 6.32228e-09 0)
(3 7.47898e-08 0)
(3 1.92242e-07 0)
(3 6.73736e-07 0)
(3 1.38714e-06 0)
(2.99999 4.18836e-06 0)
(2.99998 8.27196e-06 0)
(2.99995 2.42155e-05 0)
(2.99988 4.73198e-05 0)
(2.99973 0.000138182 0)
(2.9993 0.00026671 0)
(2.99846 0.00079976 0)
(2.99593 0.00144989 0)
(2.99138 0.00488149 0)
(2.97531 0.00762154 0)
(2.94564 0.0307364 0)
(2.84297 0.0536317 0)
(2.55834 0.201924 0)
(1.9272 0.4925 0)
(1.34376 0.810238 0)
(1.21276 0.825441 0)
(1.20043 0.786144 0)
(1.21063 0.737608 0)
(1.22357 0.684113 0)
(1.23734 0.630317 0)
(3 4.22889e-09 0)
(3 5.15351e-08 0)
(3 1.30831e-07 0)
(3 4.64029e-07 0)
(3 9.44276e-07 0)
(2.99999 2.87836e-06 0)
(2.99999 5.61266e-06 0)
(2.99996 1.65662e-05 0)
(2.99992 3.19493e-05 0)
(2.9998 9.39264e-05 0)
(2.99956 0.000179863 0)
(2.99883 0.00053529 0)
(2.99756 0.00100125 0)
(2.99295 0.00317065 0)
(2.98559 0.00545851 0)
(2.95694 0.0201138 0)
(2.8982 0.0355294 0)
(2.71361 0.130178 0)
(2.18127 0.338111 0)
(1.51715 0.759266 0)
(1.22385 0.818594 0)
(1.18309 0.768637 0)
(1.19322 0.706775 0)
(1.20786 0.647225 0)
(1.22344 0.590399 0)
(3 5.31476e-09 0)
(3 2.86491e-08 0)
(3 1.0654e-07 0)
(3 2.7316e-07 0)
(3 7.47152e-07 0)
(3 1.70805e-06 0)
(2.99999 4.392e-06 0)
(2.99997 9.77769e-06 0)
(2.99994 2.48253e-05 0)
(2.99985 5.47755e-05 0)
(2.99967 0.000140272 0)
(2.99915 0.000301563 0)
(2.99813 0.000819856 0)
(2.9951 0.00165096 0)
(2.98939 0.00501738 0)
(2.97084 0.0100425 0)
(2.93208 0.0310061 0)
(2.81433 0.0746762 0)
(2.46423 0.222757 0)
(1.77502 0.583749 0)
(1.26889 0.774332 0)
(1.16152 0.73498 0)
(1.16765 0.667143 0)
(1.18788 0.603515 0)
(1.20972 0.547284 0)
(3 4.79673e-09 0)
(3 1.83311e-08 0)
(3 8.45187e-08 0)
(3 1.82041e-07 0)
(3 5.87556e-07 0)
(3 1.15244e-06 0)
(2.99999 3.46402e-06 0)
(2.99998 6.66546e-06 0)
(2.99996 1.97431e-05 0)
(2.99989 3.77734e-05 0)
(2.99976 0.000111972 0)
(2.99939 0.000212087 0)
(2.99868 0.00064069 0)
(2.99644 0.00116066 0)
(2.9926 0.00380199 0)
(2.97821 0.00610565 0)
(2.95307 0.0232577 0)
(2.86 0.0396217 0)
(2.61663 0.148446 0)
(2.03804 0.355833 0)
(1.30403 0.743887 0)
(1.09587 0.701882 0)
(1.11068 0.62585 0)
(1.14945 0.558602 0)
(1.18972 0.507157 0)
(3 3.17428e-09 0)
(3 1.09916e-08 0)
(3 5.40148e-08 0)
(3 1.10432e-07 0)
(3 3.73024e-07 0)
(3 6.94256e-07 0)
(2.99999 2.1772e-06 0)
(2.99999 3.95006e-06 0)
(2.99997 1.2229e-05 0)
(2.99993 2.18645e-05 0)
(2.99981 6.8132e-05 0)
(2.99959 0.000119742 0)
(2.99892 0.000384773 0)
(2.99773 0.000638465 0)
(2.99353 0.00231231 0)
(2.98675 0.00330348 0)
(2.96051 0.0151008 0)
(2.90715 0.0215375 0)
(2.74028 0.0977304 0)
(2.26201 0.226767 0)
(1.45587 0.599199 0)
(1.05026 0.631373 0)
(1.05299 0.574624 0)
(1.1083 0.518138 0)
(1.17157 0.476713 0)
(3 1.24882e-09 0)
(3 9.59852e-09 0)
(3 2.96459e-08 0)
(3 8.8227e-08 0)
(3 2.08939e-07 0)
(3 5.4211e-07 0)
(3 1.21548e-06 0)
(2.99999 3.04947e-06 0)
(2.99997 6.73501e-06 0)
(2.99994 1.67332e-05 0)
(2.99985 3.66558e-05 0)
(2.99966 9.15789e-05 0)
(2.99911 0.000195218 0)
(2.99805 0.000519011 0)
(2.99483 0.00101446 0)
(2.98885 0.0031077 0)
(2.9685 0.00597321 0)
(2.9272 0.0183049 0)
(2.79312 0.0447513 0)
(2.40951 0.122295 0)
(1.60287 0.344745 0)
(0.994003 0.520971 0)
(0.966881 0.506597 0)
(1.04496 0.477229 0)
(1.13484 0.453049 0)
(3 4.89826e-10 0)
(3 8.96029e-09 0)
(3 1.99658e-08 0)
(3 7.93251e-08 0)
(3 1.45595e-07 0)
(3 4.92428e-07 0)
(3 8.72434e-07 0)
(2.99999 2.8594e-06 0)
(2.99998 5.02222e-06 0)
(2.99995 1.64368e-05 0)
(2.99987 2.82395e-05 0)
(2.99972 9.5685e-05 0)
(2.99928 0.000149052 0)
(2.99841 0.000561714 0)
(2.99568 0.000708816 0)
(2.99089 0.00318866 0)
(2.9729 0.002962 0)
(2.94 0.0183653 0)
(2.81917 0.0169139 0)
(2.48602 0.0990416 0)
(1.72586 0.187503 0)
(0.940392 0.432253 0)
(0.849557 0.434777 0)
(0.953389 0.427617 0)
(1.07137 0.427268 0)
(3 5.31387e-10 0)
(3 4.11542e-09 0)
(3 1.26859e-08 0)
(3 3.7954e-08 0)
(3 8.98616e-08 0)
(3 2.35196e-07 0)
(3 5.28114e-07 0)
(2.99999 1.34255e-06 0)
(2.99998 2.97868e-06 0)
(2.99996 7.53182e-06 0)
(2.99991 1.66681e-05 0)
(2.99976 4.2134e-05 0)
(2.9995 9.36254e-05 0)
(2.99851 0.000234349 0)
(2.99701 0.000532777 0)
(2.99074 0.00130089 0)
(2.98078 0.00296042 0)
(2.93937 0.00777759 0)
(2.84776 0.0187813 0)
(2.57013 0.0499139 0)
(1.73938 0.144836 0)
(0.929349 0.357183 0)
(0.724865 0.354345 0)
(0.85537 0.361432 0)
(0.998563 0.387096 0)
(3 7.21343e-10 0)
(3 3.67559e-10 0)
(3 8.81017e-09 0)
(3 6.59751e-09 0)
(3 5.7965e-08 0)
(3 3.9422e-08 0)
(3 3.22735e-07 0)
(2.99999 1.719e-07 0)
(2.99998 1.70744e-06 0)
(2.99996 5.2032e-07 0)
(2.9999 9.28073e-06 0)
(2.99979 -1.15837e-06 0)
(2.99944 5.96937e-05 0)
(2.99878 -3.36956e-05 0)
(2.99657 0.000454242 0)
(2.9929 -0.000198113 0)
(2.97827 0.00359079 0)
(2.95302 -0.000951931 0)
(2.85305 0.025225 0)
(2.59019 0.0178492 0)
(1.92995 0.123131 0)
(0.930327 0.30998 0)
(0.61506 0.288935 0)
(0.770901 0.300937 0)
(0.934252 0.340796 0)
(3 2.55371e-10 0)
(3 1.9697e-09 0)
(3 6.07061e-09 0)
(3 1.81978e-08 0)
(3 4.31317e-08 0)
(3 1.13452e-07 0)
(3 2.55088e-07 0)
(2.99999 6.53893e-07 0)
(2.99998 1.44998e-06 0)
(2.99997 3.71962e-06 0)
(2.99991 8.20375e-06 0)
(2.9998 2.13473e-05 0)
(2.99948 4.67071e-05 0)
(2.99884 0.000128266 0)
(2.99687 0.000261841 0)
(2.99335 0.00083035 0)
(2.9803 0.00161351 0)
(2.95738 0.00538299 0)
(2.86851 0.0114687 0)
(2.63442 0.0410479 0)
(2.03299 0.0989056 0)
(0.945904 0.283609 0)
(0.525868 0.2473 0)
(0.710251 0.257977 0)
(0.882668 0.294329 0)
(3 -1.09456e-10 0)
(3 2.89314e-09 0)
(3 3.31896e-09 0)
(3 2.44756e-08 0)
(3 2.65799e-08 0)
(3 1.53168e-07 0)
(3 1.68427e-07 0)
(2.99999 9.12643e-07 0)
(2.99999 1.0297e-06 0)
(2.99997 5.43045e-06 0)
(2.99992 6.25959e-06 0)
(2.99982 3.25801e-05 0)
(2.99952 3.6519e-05 0)
(2.99896 0.000202623 0)
(2.99715 0.000171397 0)
(2.99403 0.00136545 0)
(2.982 0.000335028 0)
(2.96137 0.00926916 0)
(2.8806 0.00187292 0)
(2.66975 0.0542765 0)
(2.11824 0.0811189 0)
(0.979551 0.280718 0)
(0.470216 0.229642 0)
(0.676212 0.226386 0)
(0.849708 0.249403 0)
(3 -1.48283e-10 0)
(3 2.37351e-09 0)
(3 2.04622e-09 0)
(3 1.98217e-08 0)
(3 1.70974e-08 0)
(3 1.2292e-07 0)
(3 1.07296e-07 0)
(2.99999 7.23232e-07 0)
(2.99999 6.39796e-07 0)
(2.99997 4.23243e-06 0)
(2.99993 3.75651e-06 0)
(2.99982 2.49363e-05 0)
(2.99962 2.12334e-05 0)
(2.99895 0.000152142 0)
(2.99784 9.04336e-05 0)
(2.99349 0.00106106 0)
(2.98675 -3.07893e-05 0)
(2.95889 0.00773985 0)
(2.90056 -0.000288105 0)
(2.71917 0.0428387 0)
(2.15281 0.0654438 0)
(1.09707 0.230955 0)
(0.498485 0.210116 0)
(0.688105 0.208455 0)
(0.848757 0.21912 0)
(3 4.7384e-10 0)
(3 -7.85605e-11 0)
(3 5.34682e-09 0)
(3 1.51606e-09 0)
(3 3.50231e-08 0)
(3 9.48893e-09 0)
(3 1.98355e-07 0)
(2.99999 3.24234e-08 0)
(2.99999 1.08041e-06 0)
(2.99997 -9.123e-09 0)
(2.99994 5.81627e-06 0)
(2.99983 -1.4717e-06 0)
(2.99963 3.25748e-05 0)
(2.99901 -2.2542e-05 0)
(2.99791 0.000221937 0)
(2.99394 -0.00027902 0)
(2.98757 0.00190647 0)
(2.96175 -0.00203412 0)
(2.90895 0.0136407 0)
(2.74223 0.00116756 0)
(2.21854 0.0607005 0)
(1.16471 0.135847 0)
(0.50354 0.184141 0)
(0.689741 0.203544 0)
(0.844577 0.205157 0)
(3 4.0189e-10 0)
(3 -4.12565e-10 0)
(3 4.01799e-09 0)
(3 -1.61063e-09 0)
(3 2.61313e-08 0)
(3 -9.17255e-09 0)
(3 1.48853e-07 0)
(3 -6.76302e-08 0)
(2.99999 8.18225e-07 0)
(2.99997 -5.16876e-07 0)
(2.99993 4.45583e-06 0)
(2.99985 -3.92166e-06 0)
(2.9996 2.48433e-05 0)
(2.99911 -3.0799e-05 0)
(2.99763 0.000161815 0)
(2.99488 -0.000284078 0)
(2.9853 0.00136125 0)
(2.96805 -0.00229187 0)
(2.90465 0.0101916 0)
(2.74366 -0.0053925 0)
(2.31152 0.0373237 0)
(1.15246 0.0807949 0)
(0.493824 0.162266 0)
(0.666908 0.195344 0)
(0.817086 0.18809 0)
(3 9.78394e-11 0)
(3 7.76139e-10 0)
(3 2.37572e-09 0)
(3 7.28879e-09 0)
(3 1.73428e-08 0)
(3 4.70321e-08 0)
(3 1.07106e-07 0)
(3 2.82966e-07 0)
(2.99999 6.41009e-07 0)
(2.99997 1.67466e-06 0)
(2.99993 3.80251e-06 0)
(2.99985 9.80156e-06 0)
(2.99961 2.22005e-05 0)
(2.99913 5.53868e-05 0)
(2.9977 0.000131079 0)
(2.99494 0.00029942 0)
(2.98596 0.000728313 0)
(2.96902 0.00169712 0)
(2.90915 0.00391733 0)
(2.75687 0.0111587 0)
(2.34339 0.0276327 0)
(1.19274 0.0805156 0)
(0.513973 0.149495 0)
(0.649249 0.18032 0)
(0.783301 0.163275 0)
(3 -2.12251e-10 0)
(3 1.44099e-09 0)
(3 -1.92713e-10 0)
(3 1.14262e-08 0)
(3 6.87361e-10 0)
(3 7.04946e-08 0)
(3 8.36436e-09 0)
(3 4.18116e-07 0)
(2.99999 6.62495e-08 0)
(2.99998 2.47281e-06 0)
(2.99994 4.66436e-07 0)
(2.99986 1.47247e-05 0)
(2.99964 2.85699e-06 0)
(2.9992 8.89884e-05 0)
(2.99783 7.3296e-06 0)
(2.99538 0.000582275 0)
(2.98645 -0.000226394 0)
(2.97072 0.00433002 0)
(2.91224 -0.00294423 0)
(2.76446 0.0255698 0)
(2.36623 0.0110781 0)
(1.23844 0.0917925 0)
(0.542559 0.145355 0)
(0.638717 0.162817 0)
(0.757547 0.137433 0)
(3 -2.58954e-10 0)
(3 9.70169e-10 0)
(3 -1.50726e-09 0)
(3 7.1532e-09 0)
(3 -8.93691e-09 0)
(3 4.26803e-08 0)
(3 -5.25882e-08 0)
(3 2.46139e-07 0)
(2.99999 -3.12009e-07 0)
(2.99997 1.42414e-06 0)
(2.99994 -1.85346e-06 0)
(2.99985 8.45514e-06 0)
(2.99967 -1.08323e-05 0)
(2.99913 5.42672e-05 0)
(2.99811 -7.11251e-05 0)
(2.99475 0.000422096 0)
(2.98902 -0.000627823 0)
(2.96687 0.00375795 0)
(2.92418 -0.00421609 0)
(2.77667 0.0224688 0)
(2.34493 0.004546 0)
(1.39238 0.0763259 0)
(0.624443 0.130176 0)
(0.670096 0.136922 0)
(0.768543 0.11844 0)
(3 7.86876e-11 0)
(3 4.26577e-10 0)
(3 1.58287e-09 0)
(3 4.06882e-09 0)
(3 1.1091e-08 0)
(3 2.53667e-08 0)
(3 6.52208e-08 0)
(3 1.45365e-07 0)
(2.99999 3.71265e-07 0)
(2.99997 8.23091e-07 0)
(2.99994 2.11633e-06 0)
(2.99985 4.69301e-06 0)
(2.99968 1.21895e-05 0)
(2.99915 2.69305e-05 0)
(2.99814 7.17404e-05 0)
(2.99492 0.000152932 0)
(2.98923 0.000443614 0)
(2.96813 0.000893321 0)
(2.9273 0.00274823 0)
(2.78426 0.00690734 0)
(2.36999 0.0178034 0)
(1.44464 0.0521099 0)
(0.652044 0.10877 0)
(0.673898 0.111698 0)
(0.769982 0.107723 0)
(3 3.54322e-10 0)
(3 -2.23917e-10 0)
(3 3.80117e-09 0)
(3 -2.04594e-10 0)
(3 2.53759e-08 0)
(3 1.24343e-09 0)
(3 1.5137e-07 0)
(3 1.3035e-08 0)
(2.99999 8.89782e-07 0)
(2.99998 1.02643e-07 0)
(2.99995 5.26835e-06 0)
(2.99986 6.72063e-07 0)
(2.99969 3.15419e-05 0)
(2.99918 2.90352e-07 0)
(2.99821 0.000202753 0)
(2.99506 -0.000110764 0)
(2.98964 0.00144707 0)
(2.96874 -0.00191822 0)
(2.92932 0.00914132 0)
(2.78838 -0.0104401 0)
(2.38405 0.0308315 0)
(1.48022 0.0149581 0)
(0.678977 0.0727425 0)
(0.677159 0.0853519 0)
(0.768841 0.0935027 0)
(3 3.03303e-10 0)
(3 -5.36673e-10 0)
(3 2.69553e-09 0)
(3 -3.08177e-09 0)
(3 1.76584e-08 0)
(3 -1.68985e-08 0)
(3 1.04862e-07 0)
(3 -9.49893e-08 0)
(2.99999 6.12952e-07 0)
(2.99998 -5.4001e-07 0)
(2.99994 3.60587e-06 0)
(2.99988 -3.15267e-06 0)
(2.99968 2.15873e-05 0)
(2.9993 -2.06219e-05 0)
(2.99804 0.000143118 0)
(2.99595 -0.000203979 0)
(2.98773 0.00117824 0)
(2.97416 -0.00234068 0)
(2.92089 0.00819203 0)
(2.78972 -0.0130189 0)
(2.43219 0.0239565 0)
(1.38451 0.00107165 0)
(0.662109 0.0481793 0)
(0.64796 0.0649392 0)
(0.741581 0.0774758 0)
(3 3.83038e-11 0)
(3 2.99e-10 0)
(3 9.18587e-10 0)
(3 2.75704e-09 0)
(3 6.5016e-09 0)
(3 1.70556e-08 0)
(3 3.81277e-08 0)
(3 9.7088e-08 0)
(2.99999 2.14678e-07 0)
(2.99998 5.4245e-07 0)
(2.99994 1.1977e-06 0)
(2.99987 3.00881e-06 0)
(2.99967 6.64843e-06 0)
(2.99928 1.65487e-05 0)
(2.99806 3.64234e-05 0)
(2.99592 9.12395e-05 0)
(2.98792 0.000194804 0)
(2.97454 0.000532728 0)
(2.92268 0.00120249 0)
(2.79498 0.00325375 0)
(2.44476 0.00906995 0)
(1.40324 0.0226143 0)
(0.672141 0.0479298 0)
(0.639633 0.0525804 0)
(0.727866 0.0590911 0)
(3 -1.99686e-10 0)
(3 1.12472e-09 0)
(3 -5.29299e-10 0)
(3 8.64521e-09 0)
(3 -2.32342e-09 0)
(3 5.21607e-08 0)
(3 -1.28996e-08 0)
(3 3.0253e-07 0)
(2.99999 -7.94831e-08 0)
(2.99998 1.74426e-06 0)
(2.99995 -5.45926e-07 0)
(2.99988 1.00589e-05 0)
(2.99969 -4.67974e-06 0)
(2.99932 6.10756e-05 0)
(2.99811 -6.02197e-05 0)
(2.99609 0.000442436 0)
(2.9881 -0.000795921 0)
(2.975 0.00335452 0)
(2.92306 -0.00605338 0)
(2.79659 0.0183697 0)
(2.44863 -0.0105249 0)
(1.40878 0.0423727 0)
(0.674038 0.0543788 0)
(0.635263 0.0431513 0)
(0.723988 0.0379672 0)
(3 2.94729e-12 0)
(3 2.68191e-11 0)
(3 7.78149e-11 0)
(3 2.58892e-10 0)
(3 6.10757e-10 0)
(3 1.83812e-09 0)
(3 4.22425e-09 0)
(3 1.24959e-08 0)
(2.99999 2.86886e-08 0)
(2.99998 8.43383e-08 0)
(2.99995 1.94342e-07 0)
(2.99987 5.6551e-07 0)
(2.99972 1.3115e-06 0)
(2.99924 3.71364e-06 0)
(2.99838 8.9136e-06 0)
(2.99531 2.43089e-05 0)
(2.99028 5.75394e-05 0)
(2.97021 0.000170255 0)
(2.93288 0.000437003 0)
(2.79771 0.00112686 0)
(2.41859 0.00434572 0)
(1.56138 0.0109668 0)
(0.746611 0.0298284 0)
(0.690324 0.0302366 0)
(0.767417 0.0311552 0)
(3 2.10694e-10 0)
(3 -1.02869e-09 0)
(3 8.12318e-10 0)
(3 -7.72855e-09 0)
(3 4.48733e-09 0)
(3 -4.58956e-08 0)
(3 2.71686e-08 0)
(3 -2.62081e-07 0)
(2.99999 1.71271e-07 0)
(2.99998 -1.48518e-06 0)
(2.99995 1.13777e-06 0)
(2.99988 -8.39912e-06 0)
(2.99969 8.50674e-06 0)
(2.99933 -5.06793e-05 0)
(2.99812 8.54903e-05 0)
(2.99613 -0.000381598 0)
(2.98822 0.000957333 0)
(2.97532 -0.00299806 0)
(2.92385 0.00704632 0)
(2.79988 -0.0159754 0)
(2.45672 0.0188794 0)
(1.43155 -0.0207403 0)
(0.699123 -0.00302736 0)
(0.645816 0.00926074 0)
(0.73149 0.0189847 0)
(3 -3.10207e-11 0)
(3 -2.42707e-10 0)
(3 -7.38364e-10 0)
(3 -2.20637e-09 0)
(3 -5.18477e-09 0)
(3 -1.37347e-08 0)
(3 -3.10112e-08 0)
(3 -8.00962e-08 0)
(2.99999 -1.81463e-07 0)
(2.99998 -4.59237e-07 0)
(2.99995 -1.0563e-06 0)
(2.99988 -2.55845e-06 0)
(2.99968 -6.02661e-06 0)
(2.9993 -1.22236e-05 0)
(2.9981 -3.57116e-05 0)
(2.99603 -3.51345e-05 0)
(2.98816 -0.000148915 0)
(2.97524 -0.00010265 0)
(2.92434 -0.000235857 0)
(2.80163 0.000532882 0)
(2.46113 0.00174839 0)
(1.43837 0.00519646 0)
(0.704571 0.0116476 0)
(0.643704 0.0122087 0)
(0.726222 0.0118744 0)
(1.10985 0.989046 0)
(1.00215 0.700018 0)
(0.083799 0.416567 0)
(-0.405796 0.0190293 0)
(-0.527415 -0.0155037 0)
(-0.672828 -0.0261376 0)
(-0.726332 -0.0131164 0)
(-0.76113 0.00727549 0)
(-0.804291 0.0162875 0)
(-0.849994 0.0155686 0)
(-0.882377 0.0100724 0)
(-0.895667 0.00436812 0)
(-0.896755 -0.000370718 0)
(-0.89234 -0.00402511 0)
(-0.883971 -0.00456564 0)
(-0.868185 -0.00457001 0)
(-0.844555 -0.00530476 0)
(-0.814349 -0.00624575 0)
(-0.779525 -0.00690458 0)
(-0.741187 -0.00735459 0)
(-0.70005 -0.00779483 0)
(-0.656617 -0.00820549 0)
(-0.611167 -0.00866514 0)
(-0.56408 -0.00920843 0)
(-0.5156 -0.00986561 0)
(-0.465863 -0.0106909 0)
(-0.41394 -0.0126513 0)
(-0.362066 -0.0136499 0)
(-0.310259 -0.0146548 0)
(-0.258976 -0.0155691 0)
(-0.208174 -0.0168132 0)
(-0.158078 -0.0183213 0)
(-0.108845 -0.0201383 0)
(-0.0597463 -0.0219419 0)
(-0.0124884 -0.0252959 0)
(0.0417376 -0.0245558 0)
(0.088242 -0.0225963 0)
(0.134449 -0.0219266 0)
(0.178601 -0.0211617 0)
(0.22142 -0.0207445 0)
(0.262519 -0.0199767 0)
(0.301317 -0.0192041 0)
(0.338379 -0.0186667 0)
(0.376814 -0.0187125 0)
(0.416051 -0.0189431 0)
(0.453827 -0.0184278 0)
(0.490162 -0.017672 0)
(0.525474 -0.0170498 0)
(0.55987 -0.0164943 0)
(0.593462 -0.0159701 0)
(0.62629 -0.015436 0)
(0.658376 -0.0149226 0)
(0.689751 -0.0143887 0)
(0.720459 -0.0138883 0)
(0.750492 -0.0133717 0)
(0.779907 -0.0128785 0)
(0.808704 -0.0123798 0)
(0.836927 -0.0118944 0)
(0.86458 -0.0114133 0)
(0.891689 -0.0109395 0)
(0.918277 -0.0104725 0)
(0.944355 -0.0100153 0)
(0.969945 -0.00956278 0)
(0.995061 -0.00912083 0)
(1.01971 -0.00868283 0)
(1.04391 -0.00825419 0)
(1.06767 -0.00782922 0)
(1.09099 -0.0074134 0)
(1.11387 -0.00700187 0)
(1.13632 -0.00660104 0)
(1.15833 -0.006208 0)
(1.17991 -0.00582852 0)