/*--------------------------------*- C++ -*----------------------------------*\
| =========                 |                                                 |
| \\      /  F ield         | OpenFOAM: The Open Source CFD Toolbox           |
|  \\    /   O peration     | Version:  2112                                  |
|   \\  /    A nd           | Website:  www.openfoam.com                      |
|    \\/     M anipulation  |                                                 |
\*---------------------------------------------------------------------------*/
FoamFile
{
    version     2.0;
    format      ascii;
    arch        "LSB;label=32;scalar=64";
    class       volVectorField;
    location    "49.5";
    object      U;
}
// * * * * * * * * * * * * * * * * * * * * * * * * * * * * * * * * * * * * * //

dimensions      [0 1 -1 0 0 0 0];

internalField   nonuniform List<vector> 
8800
(
(0.980143 -0.0915214 0)
(1.00234 -0.0587297 0)
(0.999581 -0.0321305 0)
(0.999975 -0.0165244 0)
(1.00006 -0.0088437 0)
(1.00007 -0.00509853 0)
(1.00004 -0.00299767 0)
(1.00002 -0.0016883 0)
(0.999999 -0.00078697 0)
(1.00006 -8.97482e-05 0)
(0.999988 0.000616153 0)
(0.999995 0.00136801 0)
(1.00001 0.00239344 0)
(1.00003 0.00400044 0)
(1.00004 0.00674904 0)
(0.999991 0.0120508 0)
(0.999788 0.0230955 0)
(0.999028 0.043158 0)
(1.00723 0.0790267 0)
(0.775024 0.0478395 0)
(0.358981 -0.0147489 0)
(1.0465 -0.0724878 0)
(1.08846 -0.0660266 0)
(1.04943 -0.0509232 0)
(1.02553 -0.0377063 0)
(1.01272 -0.0259025 0)
(1.00655 -0.0167096 0)
(1.00362 -0.0102219 0)
(1.00218 -0.00559135 0)
(1.00151 -0.00199899 0)
(1.00138 0.00121263 0)
(1.00173 0.00451811 0)
(1.0027 0.00840566 0)
(1.00473 0.0137211 0)
(1.00897 0.0214049 0)
(1.01795 0.0319 0)
(1.03578 0.0446724 0)
(1.0674 0.0581138 0)
(1.09469 0.0699619 0)
(0.845628 0.0555074 0)
(0.217781 -0.00138145 0)
(1.07566 -0.0506592 0)
(1.09939 -0.048944 0)
(1.06437 -0.0400315 0)
(1.03988 -0.0325756 0)
(1.02378 -0.0253636 0)
(1.014 -0.0181461 0)
(1.0085 -0.0115245 0)
(1.00565 -0.00576835 0)
(1.00448 -0.000479224 0)
(1.00479 0.00462954 0)
(1.00663 0.00991298 0)
(1.01056 0.0158819 0)
(1.01788 0.0226438 0)
(1.03049 0.0297535 0)
(1.05048 0.0368424 0)
(1.08002 0.0446169 0)
(1.10564 0.0519413 0)
(0.943258 0.0410122 0)
(0.217191 0.00140534 0)
(0.176631 -0.000629008 0)
(1.01937 -0.0354694 0)
(1.10569 -0.0414209 0)
(1.07795 -0.0364104 0)
(1.05242 -0.0303694 0)
(1.0352 -0.0244943 0)
(1.02335 -0.0186993 0)
(1.01554 -0.0127014 0)
(1.01094 -0.00660782 0)
(1.0089 -0.000372139 0)
(1.00943 0.00578343 0)
(1.01251 0.0116953 0)
(1.01846 0.0174661 0)
(1.02805 0.0230452 0)
(1.04225 0.0285958 0)
(1.06307 0.0343789 0)
(1.09384 0.0402636 0)
(1.0944 0.0417869 0)
(0.830182 0.0227796 0)
(0.175624 0.000648194 0)
(0.154718 -0.000462788 0)
(0.958143 -0.0256978 0)
(1.10437 -0.0351297 0)
(1.08805 -0.0326878 0)
(1.06122 -0.0281864 0)
(1.04318 -0.0232271 0)
(1.03081 -0.0179265 0)
(1.02222 -0.0123862 0)
(1.01667 -0.00647985 0)
(1.01402 -2.91669e-05 0)
(1.01467 0.00642802 0)
(1.01845 0.0122977 0)
(1.02522 0.0176155 0)
(1.03536 0.0226261 0)
(1.0501 0.0274507 0)
(1.07203 0.0318932 0)
(1.10098 0.0357715 0)
(1.06966 0.0339783 0)
(0.742518 0.014455 0)
(0.15321 0.000484363 0)
(0.140028 -0.000334721 0)
(0.90111 -0.0193351 0)
(1.09677 -0.0302411 0)
(1.09618 -0.0293727 0)
(1.06892 -0.0255974 0)
(1.05009 -0.0215176 0)
(1.03714 -0.0168229 0)
(1.02817 -0.0115791 0)
(1.02223 -0.00586397 0)
(1.01925 0.00048607 0)
(1.01987 0.00685457 0)
(1.02387 0.0125003 0)
(1.03088 0.017485 0)
(1.04138 0.0219614 0)
(1.05676 0.0259057 0)
(1.07956 0.0294253 0)
(1.10329 0.0321442 0)
(1.03788 0.0281375 0)
(0.675712 0.0103077 0)
(0.137906 0.000360422 0)
(0.129283 -0.00025338 0)
(0.851204 -0.0149414 0)
(1.08439 -0.0261493 0)
(1.10184 -0.0265097 0)
(1.07572 -0.0232011 0)
(1.05639 -0.0195552 0)
(1.04302 -0.0153652 0)
(1.03368 -0.0105139 0)
(1.02747 -0.00502768 0)
(1.02427 0.00113225 0)
(1.02478 0.00728301 0)
(1.02879 0.0126447 0)
(1.03596 0.0172079 0)
(1.04676 0.0210829 0)
(1.0625 0.0244286 0)
(1.08575 0.0274708 0)
(1.10253 0.0292963 0)
(1.00322 0.0235901 0)
(0.623691 0.00790325 0)
(0.126411 0.000284562 0)
(0.121087 -0.000194662 0)
(0.808663 -0.0117599 0)
(1.06905 -0.0225649 0)
(1.10533 -0.0238958 0)
(1.08194 -0.0210427 0)
(1.06215 -0.0176287 0)
(1.04852 -0.0137299 0)
(1.03892 -0.00920737 0)
(1.03245 -0.00400276 0)
(1.02902 0.00191268 0)
(1.02939 0.00778602 0)
(1.03336 0.0127894 0)
(1.04059 0.0168956 0)
(1.05149 0.0203036 0)
(1.06748 0.0232525 0)
(1.09112 0.0259817 0)
(1.0989 0.0269024 0)
(0.968181 0.0200054 0)
(0.581972 0.00633227 0)
(0.117304 0.000232513 0)
(0.114728 -0.000150113 0)
(0.77277 -0.0093793 0)
(1.05213 -0.0194089 0)
(1.10763 -0.0214838 0)
(1.08776 -0.019024 0)
(1.06757 -0.0157827 0)
(1.05368 -0.0120601 0)
(1.0439 -0.00774719 0)
(1.03721 -0.00279306 0)
(1.03353 0.00285287 0)
(1.0337 0.00841373 0)
(1.03756 0.0130365 0)
(1.04473 0.0167438 0)
(1.05565 0.019783 0)
(1.07189 0.0223966 0)
(1.09523 0.024777 0)
(1.09249 0.0249073 0)
(0.934113 0.0172223 0)
(0.547551 0.00525193 0)
(0.109834 0.000196305 0)
(0.109754 -0.000115004 0)
(0.742598 -0.00753575 0)
(1.03471 -0.0166099 0)
(1.10896 -0.0192135 0)
(1.09327 -0.0170746 0)
(1.07279 -0.0139406 0)
(1.05863 -0.0103294 0)
(1.04866 -0.00615867 0)
(1.04176 -0.00139123 0)
(1.03783 0.00398836 0)
(1.03773 0.00920959 0)
(1.04139 0.0134611 0)
(1.04843 0.0167988 0)
(1.05936 0.0194937 0)
(1.07582 0.0218229 0)
(1.09809 0.0238452 0)
(1.08369 0.0232394 0)
(0.901636 0.0150843 0)
(0.518384 0.00449062 0)
(0.103513 0.000170996 0)
(0.105875 -8.62365e-05 0)
(0.717323 -0.00605296 0)
(1.01763 -0.0140995 0)
(1.10942 -0.0170302 0)
(1.09868 -0.0151926 0)
(1.07791 -0.0120922 0)
(1.06344 -0.00853225 0)
(1.05326 -0.00444019 0)
(1.04613 0.000197686 0)
(1.0419 0.00534833 0)
(1.04148 0.0102513 0)
(1.04486 0.014161 0)
(1.05173 0.0171658 0)
(1.06265 0.0195357 0)
(1.07932 0.0215887 0)
(1.09961 0.0232041 0)
(1.0729 0.0218953 0)
(0.870898 0.0134774 0)
(0.49302 0.00395752 0)
(0.0979959 0.00015429 0)
(0.102898 -6.1372e-05 0)
(0.696299 -0.00481126 0)
(1.00149 -0.0118086 0)
(1.10917 -0.0148825 0)
(1.10388 -0.013266 0)
(1.08301 -0.0101524 0)
(1.06822 -0.00658831 0)
(1.05778 -0.00252716 0)
(1.05036 0.00202041 0)
(1.04577 0.00698738 0)
(1.04494 0.0116032 0)
(1.04799 0.0151675 0)
(1.05465 0.0178162 0)
(1.06554 0.0198583 0)
(1.08238 0.0216601 0)
(1.10017 0.022866 0)
(1.06041 0.0208716 0)
(0.841784 0.0123075 0)
(0.470388 0.00359457 0)
(0.0930258 0.000144239 0)
(0.1007 -3.84933e-05 0)
(0.679058 -0.00372233 0)
(0.986759 -0.00966847 0)
(1.10841 -0.0126907 0)
(1.10889 -0.0112083 0)
(1.08815 -0.00805899 0)
(1.073 -0.00444034 0)
(1.06225 -0.000351546 0)
(1.05448 0.00415318 0)
(1.04944 0.00896991 0)
(1.04812 0.0133078 0)
(1.05077 0.0165386 0)
(1.05719 0.0188438 0)
(1.06803 0.0205445 0)
(1.08495 0.0220641 0)
(1.09975 0.0229276 0)
(1.04646 0.0201866 0)
(0.814015 0.0115041 0)
(0.449659 0.00336375 0)
(0.0884049 0.000139489 0)
(0.0992176 -1.6005e-05 0)
(0.665303 -0.00271764 0)
(0.973804 -0.00760161 0)
(1.10745 -0.0103934 0)
(1.11379 -0.00898214 0)
(1.09341 -0.00578176 0)
(1.07787 -0.00204799 0)
(1.06675 0.00213639 0)
(1.05854 0.00665666 0)
(1.05293 0.0113722 0)
(1.05103 0.0154593 0)
(1.0532 0.0183479 0)
(1.05933 0.0203 0)
(1.0701 0.0216474 0)
(1.08706 0.0228808 0)
(1.09817 0.0232948 0)
(1.03113 0.0198049 0)
(0.787225 0.0110018 0)
(0.430168 0.00323623 0)
(0.0839734 0.000138807 0)
(0.0984349 7.89157e-06 0)
(0.654885 -0.00174165 0)
(0.962943 -0.00553323 0)
(1.10659 -0.00791414 0)
(1.11871 -0.00647289 0)
(1.09885 -0.00316459 0)
(1.0829 0.000746501 0)
(1.07133 0.00506676 0)
(1.06258 0.00965369 0)
(1.0563 0.014296 0)
(1.05368 0.0181256 0)
(1.05527 0.0206558 0)
(1.06104 0.0222096 0)
(1.07171 0.023156 0)
(1.08864 0.024101 0)
(1.09537 0.024035 0)
(1.01447 0.0197576 0)
(0.761031 0.0107721 0)
(0.411386 0.00319887 0)
(0.0796076 0.000141918 0)
(0.0983737 2.90926e-05 0)
(0.647777 -0.000746134 0)
(0.954477 -0.00339366 0)
(1.1062 -0.00519688 0)
(1.12382 -0.00362578 0)
(1.10458 -0.000151333 0)
(1.08816 0.00399724 0)
(1.07607 0.00852582 0)
(1.06666 0.013244 0)
(1.05955 0.0178468 0)
(1.05606 0.021418 0)
(1.05694 0.0235676 0)
(1.06228 0.02471 0)
(1.07284 0.025221 0)
(1.0895 0.0257923 0)
(1.09115 0.0251914 0)
(0.996396 0.0200697 0)
(0.734978 0.0107986 0)
(0.39282 0.00324419 0)
(0.0751876 0.000148588 0)
(0.0990667 6.80168e-05 0)
(0.644068 0.000281192 0)
(0.948731 -0.00110395 0)
(1.10662 -0.00214567 0)
(1.1293 -0.000347949 0)
(1.11069 0.00334952 0)
(1.09375 0.00781765 0)
(1.08102 0.0126413 0)
(1.07081 0.0175561 0)
(1.06269 0.0221673 0)
(1.05815 0.0254866 0)
(1.05819 0.027221 0)
(1.06299 0.0278926 0)
(1.07342 0.0279506 0)
(1.08947 0.0280809 0)
(1.08533 0.0268108 0)
(0.976747 0.0207541 0)
(0.708595 0.0110686 0)
(0.374022 0.00336521 0)
(0.0706066 0.000158304 0)
(0.100724 9.46036e-05 0)
(0.64415 0.00144778 0)
(0.94606 0.00141899 0)
(1.10825 0.00135091 0)
(1.13533 0.00350863 0)
(1.11729 0.00756699 0)
(1.09977 0.0124428 0)
(1.08626 0.0176257 0)
(1.07506 0.0227932 0)
(1.06569 0.0274297 0)
(1.05988 0.0304659 0)
(1.05892 0.0317089 0)
(1.0631 0.0318475 0)
(1.07334 0.0314017 0)
(1.08836 0.03103 0)
(1.07778 0.028942 0)
(0.955282 0.0218523 0)
(0.681368 0.0115837 0)
(0.354558 0.00356023 0)
(0.0657658 0.000171013 0)
(0.103403 0.000141961 0)
(0.648375 0.0028831 0)
(0.946959 0.00431572 0)
(1.11165 0.00538599 0)
(1.14216 0.00807271 0)
(1.12455 0.012637 0)
(1.10633 0.018017 0)
(1.09189 0.0236636 0)
(1.07947 0.0291572 0)
(1.0686 0.0338306 0)
(1.06125 0.0365354 0)
(1.05912 0.0372113 0)
(1.06253 0.0367413 0)
(1.07252 0.0357142 0)
(1.08599 0.0347602 0)
(1.06818 0.0316818 0)
(0.93164 0.0233932 0)
(0.652752 0.0123451 0)
(0.334007 0.00382575 0)
(0.0605713 0.000186081 0)
(0.107386 0.00020307 0)
(0.657322 0.00456673 0)
(0.951877 0.00774237 0)
(1.11724 0.0101451 0)
(1.15002 0.0135178 0)
(1.13265 0.0187268 0)
(1.11361 0.0247642 0)
(1.098 0.0310105 0)
(1.08406 0.0369041 0)
(1.07134 0.0416159 0)
(1.06216 0.043907 0)
(1.05867 0.0439272 0)
(1.06116 0.0427601 0)
(1.07084 0.0410653 0)
(1.08227 0.0394339 0)
(1.05619 0.0351263 0)
(0.905372 0.0254291 0)
(0.622144 0.0133644 0)
(0.311937 0.00416122 0)
(0.0549364 0.000203066 0)
(0.112999 0.000286032 0)
(0.671665 0.00666158 0)
(0.961515 0.0118928 0)
(1.1256 0.0158838 0)
(1.15924 0.0201954 0)
(1.14184 0.0262825 0)
(1.12177 0.0331262 0)
(1.10468 0.0400591 0)
(1.08885 0.0463765 0)
(1.07389 0.0510632 0)
(1.06253 0.0528045 0)
(1.05742 0.0520243 0)
(1.05886 0.0500447 0)
(1.06815 0.0475844 0)
(1.07703 0.0451636 0)
(1.04135 0.0394 0)
(0.8759 0.0280112 0)
(0.588875 0.0146435 0)
(0.287917 0.00455953 0)
(0.0487882 0.000221082 0)
(0.12074 0.000402134 0)
(0.692353 0.00939093 0)
(0.976716 0.017062 0)
(1.13744 0.0229055 0)
(1.17037 0.0284386 0)
(1.15241 0.035695 0)
(1.13095 0.043515 0)
(1.11195 0.0512465 0)
(1.09375 0.0579914 0)
(1.07605 0.0625096 0)
(1.06218 0.0634785 0)
(1.05518 0.0616843 0)
(1.05544 0.05876 0)
(1.06431 0.0554424 0)
(1.06997 0.0521097 0)
(1.02312 0.0445873 0)
(0.842531 0.0311626 0)
(0.552238 0.0161623 0)
(0.261554 0.00500188 0)
(0.0420811 0.000238244 0)
(0.13136 0.000573999 0)
(0.720741 0.0131286 0)
(0.998619 0.0237339 0)
(1.15348 0.0317661 0)
(1.18397 0.0388041 0)
(1.16472 0.0475516 0)
(1.14137 0.0565591 0)
(1.1199 0.0651625 0)
(1.09875 0.0722221 0)
(1.07781 0.0763378 0)
(1.06102 0.0762624 0)
(1.05188 0.0732201 0)
(1.05079 0.0691573 0)
(1.05905 0.064801 0)
(1.06071 0.0602818 0)
(1.0008 0.0507851 0)
(0.804487 0.0348946 0)
(0.511519 0.0178769 0)
(0.232552 0.00545523 0)
(0.0348241 0.000251451 0)
(0.146133 0.000849858 0)
(0.758821 0.0184872 0)
(1.02883 0.0326856 0)
(1.17461 0.0434069 0)
(1.20071 0.0523934 0)
(1.17907 0.0629882 0)
(1.15307 0.0732954 0)
(1.12829 0.0826322 0)
(1.10342 0.089669 0)
(1.07864 0.0929253 0)
(1.0586 0.0913669 0)
(1.04721 0.0867786 0)
(1.04475 0.0813948 0)
(1.05204 0.0757975 0)
(1.04859 0.0699683 0)
(0.973509 0.0580501 0)
(0.76086 0.0391802 0)
(0.466055 0.0197088 0)
(0.200799 0.00586993 0)
(0.0271095 0.000256673 0)
(0.167215 0.00132394 0)
(0.809777 0.026617 0)
(1.06993 0.0454509 0)
(1.20198 0.059651 0)
(1.22134 0.0713615 0)
(1.19559 0.0836357 0)
(1.16578 0.0950271 0)
(1.13675 0.104577 0)
(1.10748 0.11093 0)
(1.07838 0.112609 0)
(1.05479 0.10898 0)
(1.041 0.102437 0)
(1.03714 0.0955141 0)
(1.04307 0.0888098 0)
(1.03293 0.0812884 0)
(0.940151 0.0663289 0)
(0.710747 0.0439266 0)
(0.415456 0.0215385 0)
(0.166561 0.00618049 0)
(0.0191575 0.000248899 0)
(0.197969 0.00237652 0)
(0.879221 0.0402345 0)
(1.12537 0.0658486 0)
(1.23607 0.0839617 0)
(1.24564 0.0982643 0)
(1.21368 0.111677 0)
(1.17873 0.123242 0)
(1.14448 0.13195 0)
(1.11013 0.136565 0)
(1.07634 0.135706 0)
(1.04915 0.129283 0)
(1.03301 0.120376 0)
(1.02779 0.111686 0)
(1.03194 0.103778 0)
(1.01295 0.0941228 0)
(0.899442 0.075406 0)
(0.65349 0.0488601 0)
(0.360252 0.0232315 0)
(0.131044 0.00635344 0)
(0.011447 0.000222394 0)
(0.239889 0.00857277 5.21995e-20)
(0.971145 0.0674243 4.54604e-20)
(1.1929 0.10003 -1.58154e-20)
(1.27372 0.119915 0)
(1.27082 0.136709 -3.95942e-34)
(1.2313 0.149484 5.76899e-21)
(1.19041 0.159545 -1.028e-20)
(1.15039 0.166056 0)
(1.11056 0.167867 2.08445e-34)
(1.07174 0.163691 -1.24693e-20)
(1.04065 0.154015 0)
(1.02193 0.142571 -1.46829e-20)
(1.01519 0.132158 -4.32266e-20)
(1.01724 0.123273 -2.04014e-20)
(0.986096 0.111519 -6.12536e-21)
(0.846692 0.0877194 -3.63695e-21)
(0.583226 0.0550932 0)
(0.298065 0.0253017 2.54533e-21)
(0.0946993 0.00692323 3.00563e-21)
(0.00428455 0.000287226 5.41293e-20)
(0.269279 0.0239305 3.96234e-20)
(1.04696 0.109925 5.24161e-22)
(1.24841 0.148815 4.28751e-21)
(1.3074 0.168833 0)
(1.29287 0.185459 -2.03515e-20)
(1.24635 0.196101 -2.29788e-20)
(1.19953 0.203888 -1.04392e-20)
(1.15355 0.207914 -3.68089e-20)
(1.10788 0.206905 0)
(1.06341 0.199486 5.32219e-20)
(1.02759 0.186625 5.25674e-20)
(1.00563 0.172628 1.55849e-20)
(0.99666 0.160199 5.65843e-20)
(0.992998 0.149155 7.92951e-20)
(0.945218 0.133873 0)
(0.777004 0.103101 1.11633e-19)
(0.501246 0.0627797 1.60194e-19)
(0.232686 0.0276458 1.77958e-19)
(0.0596492 0.00692865 -2.0351e-19)
(-0.00252016 -0.000151508 -3.82555e-21)
(0.270401 0.0396345 0)
(1.09483 0.16507 7.3181e-21)
(1.28567 0.208848 0)
(1.33353 0.228388 -2.74434e-20)
(1.31007 0.241984 0)
(1.25765 0.248839 -4.56053e-20)
(1.20522 0.252953 2.14476e-20)
(1.15357 0.253443 -7.45512e-20)
(1.10233 0.248846 -1.56654e-21)
(1.05245 0.237726 2.76612e-20)
(1.01206 0.221512 1.15667e-19)
(0.986862 0.204973 -2.79072e-22)
(0.975317 0.190586 -4.11468e-20)
(0.966408 0.177289 -7.4848e-20)
(0.908019 0.157748 8.8553e-20)
(0.728396 0.119385 -1.56791e-19)
(0.456574 0.0712711 -2.07349e-20)
(0.204696 0.0309371 0)
(0.0468391 0.00708392 -3.73116e-25)
(-0.00501287 -0.000735174 0)
(0.264266 0.0532661 1.03602e-19)
(1.12071 0.223576 -4.93986e-20)
(1.3087 0.273465 -3.64318e-20)
(1.35076 0.293126 1.31881e-20)
(1.32102 0.302871 -2.20937e-20)
(1.26412 0.305295 9.59416e-20)
(1.20706 0.305082 4.49513e-20)
(1.15053 0.301461 0)
(1.09431 0.292818 -1.39743e-19)
(1.03943 0.277606 0)
(0.994721 0.257675 -6.09125e-20)
(0.966361 0.238317 -7.48197e-20)
(0.952236 0.221925 -4.48815e-20)
(0.93923 0.206615 -5.44298e-20)
(0.875767 0.183115 0)
(0.696103 0.138232 0)
(0.435797 0.083191 -1.35149e-19)
(0.198639 0.0369832 2.67532e-20)
(0.0461921 0.00836485 -1.56523e-20)
(-0.00551065 -0.00111235 -1.83187e-20)
(0.257029 0.065368 -4.70007e-20)
(1.13223 0.281995 0)
(1.32141 0.339099 7.73292e-20)
(1.36003 0.359316 3.78582e-20)
(1.32584 0.365243 5.07036e-20)
(1.26563 0.363227 0)
(1.20494 0.358637 4.43962e-20)
(1.14438 0.35078 8.2968e-20)
(1.08382 0.33791 7.18957e-20)
(1.0244 0.318396 1.30561e-19)
(0.975644 0.294653 0)
(0.944305 0.272559 -1.61637e-19)
(0.92783 0.254287 -9.71575e-20)
(0.911583 0.236812 -5.73857e-20)
(0.846867 0.209585 3.51887e-19)
(0.673617 0.159473 4.18535e-20)
(0.428667 0.0986137 1.96663e-19)
(0.204404 0.0458315 -9.3104e-19)
(0.0533238 0.011639 5.51521e-19)
(-0.00385824 -0.000995505 -6.64649e-19)
(0.25016 0.0763437 -2.94146e-20)
(1.13462 0.338509 8.74767e-21)
(1.32661 0.403826 -9.0272e-21)
(1.36292 0.425058 -4.05423e-20)
(1.32545 0.427382 -4.41281e-20)
(1.26277 0.421133 1.78834e-21)
(1.19922 0.412371 -4.80946e-20)
(1.13532 0.400382 8.61693e-20)
(1.07103 0.383327 -1.54863e-19)
(1.00757 0.359592 0)
(0.955179 0.332302 -7.34005e-20)
(0.921042 0.307728 -1.62051e-21)
(0.902127 0.287558 -1.06328e-19)
(0.883065 0.2679 0)
(0.81858 0.237395 -7.63411e-20)
(0.655468 0.182954 -1.81307e-19)
(0.427288 0.116263 4.84701e-19)
(0.214355 0.0572147 -4.76997e-19)
(0.0640107 0.0169108 6.77441e-19)
(-0.000892557 -0.000314031 -7.03888e-19)
(0.244473 0.0865398 -4.10324e-22)
(1.1314 0.392462 -4.99491e-21)
(1.3264 0.466651 -2.82347e-20)
(1.36082 0.489155 1.721e-20)
(1.32092 0.488269 -2.24173e-20)
(1.25639 0.4781 0)
(1.19053 0.465446 -4.53534e-20)
(1.12382 0.449519 -9.04355e-20)
(1.05629 0.428451 -8.07011e-20)
(0.989308 0.400696 0)
(0.933678 0.369951 -7.63883e-20)
(0.896925 0.342715 -9.42259e-20)
(0.875542 0.320378 1.15395e-19)
(0.854344 0.298865 -7.00015e-20)
(0.790821 0.265728 -3.33568e-19)
(0.638181 0.207531 1.98577e-19)
(0.426161 0.135227 5.93117e-20)
(0.224252 0.0701131 0)
(0.0747449 0.023386 -6.55922e-19)
(0.00228771 0.000712889 -2.40614e-20)
(0.24005 0.0962675 -1.00255e-21)
(1.12481 0.443652 2.58167e-21)
(1.32226 0.527085 1.3796e-20)
(1.35495 0.550907 6.01961e-20)
(1.31317 0.54725 -8.44531e-20)
(1.24725 0.533545 9.45271e-20)
(1.17951 0.517292 9.76551e-20)
(1.11039 0.497669 -1.44585e-19)
(1.04004 0.472827 4.93757e-20)
(0.969923 0.441215 -3.21563e-19)
(0.911336 0.406844 -8.61747e-20)
(0.872167 0.376619 0)
(0.848714 0.352196 1.25129e-19)
(0.826037 0.329318 1.49836e-19)
(0.763529 0.293604 1.79461e-19)
(0.620049 0.23172 -2.15809e-19)
(0.422579 0.154609 -6.39334e-20)
(0.230875 0.083677 7.51523e-20)
(0.0834773 0.0303718 0)
(0.0051701 0.00193611 -5.22417e-20)
(0.236778 0.105684 -1.20011e-20)
(1.11643 0.492178 4.68325e-22)
(1.3155 0.585328 -1.30626e-20)
(1.34631 0.609979 3.76376e-20)
(1.30299 0.603921 -3.90541e-20)
(1.23603 0.587047 -4.06038e-21)
(1.16673 0.567517 -1.06501e-19)
(1.09555 0.54449 -5.22583e-20)
(1.02269 0.51614 -1.40171e-19)
(0.949692 0.480802 2.80364e-22)
(0.88828 0.442682 -2.70185e-19)
(0.846945 0.409543 2.26839e-19)
(0.821948 0.383528 -1.37335e-19)
(0.797974 0.359301 1.65024e-19)
(0.735772 0.320419 0)
(0.600774 0.254551 -1.17091e-19)
(0.415903 0.173362 -2.00386e-22)
(0.233254 0.0966597 -3.27341e-19)
(0.0889547 0.0369339 -4.81229e-20)
(0.00732397 0.00311537 0)
(0.234516 0.11491 0)
(1.10718 0.538244 4.03298e-21)
(1.30682 0.640791 -1.64598e-20)
(1.33569 0.666234 -3.5485e-20)
(1.29105 0.658056 -4.82828e-20)
(1.22327 0.638355 0)
(1.15268 0.615859 -4.90926e-20)
(1.07971 0.589752 -1.10488e-21)
(1.0046 0.558197 3.00288e-19)
(0.928852 0.519292 -4.42574e-20)
(0.864713 0.477575 -1.94949e-19)
(0.82147 0.441981 1.18093e-19)
(0.795256 0.414674 -2.1679e-21)
(0.769726 0.388499 1.75393e-19)
(0.707172 0.345525 1.08235e-19)
(0.579471 0.275695 -2.52829e-19)
(0.405755 0.190579 2.99447e-19)
(0.230947 0.107929 8.85788e-20)
(0.0904297 0.0422235 3.6542e-19)
(0.00849287 0.00401558 -9.76833e-19)
(0.233204 0.124081 -1.06429e-20)
(1.09768 0.582039 1.02021e-20)
(1.29703 0.693357 -3.46929e-21)
(1.32367 0.719641 2.97436e-20)
(1.2779 0.709533 0)
(1.20946 0.687312 -4.48884e-20)
(1.13779 0.662172 1.64097e-19)
(1.06326 0.633325 1.14789e-19)
(0.986077 0.59888 0)
(0.907657 0.556653 -6.35785e-19)
(0.840905 0.511719 5.2663e-19)
(0.795932 0.474078 0)
(0.768484 0.445169 1.60158e-19)
(0.740974 0.415847 -2.17826e-21)
(0.677863 0.368098 -3.45431e-19)
(0.556467 0.294376 1.35338e-19)
(0.392329 0.205112 0)
(0.224584 0.116645 4.77491e-19)
(0.0885933 0.0457047 0)
(0.00875527 0.00450805 -4.61557e-19)
(0.232659 0.133266 1.47519e-20)
(1.08842 0.623657 1.88706e-20)
(1.2863 0.743107 -1.95894e-21)
(1.31076 0.770159 0)
(1.26397 0.75832 -4.27521e-20)
(1.19499 0.733862 0)
(1.12241 0.706383 -1.63088e-19)
(1.04651 0.675143 -5.38576e-20)
(0.967384 0.638132 5.3171e-20)
(0.886379 0.592908 -3.14352e-19)
(0.817097 0.545191 5.44475e-20)
(0.770418 0.505548 0)
(0.741423 0.474193 -3.41772e-19)
(0.711538 0.440582 2.16675e-21)
(0.648039 0.387996 0)
(0.531926 0.310551 1.72117e-21)
(0.375734 0.216744 4.35781e-19)
(0.214416 0.122545 -4.12102e-19)
(0.0839012 0.0472667 1.21362e-19)
(0.00818146 0.00453202 0)
(0.232552 0.142329 0)
(1.07958 0.663235 2.64059e-20)
(1.27503 0.790195 1.14399e-20)
(1.29734 0.817841 -2.4498e-21)
(1.24962 0.804435 -1.56999e-20)
(1.1802 0.777995 -1.0079e-19)
(1.10686 0.748483 6.07763e-20)
(1.02972 0.71518 -6.30254e-20)
(0.948768 0.675918 2.36509e-19)
(0.865245 0.628081 -5.01951e-19)
(0.793469 0.577922 -3.64499e-21)
(0.744934 0.535942 -1.4997e-19)
(0.713973 0.501144 5.53967e-19)
(0.681614 0.462624 -2.52612e-21)
(0.618049 0.405508 -2.67301e-19)
(0.506247 0.324179 -4.77142e-19)
(0.35637 0.225257 0)
(0.200919 0.125419 0)
(0.0769265 0.0470626 1.30952e-19)
(0.00713974 0.00425777 -7.68128e-20)
(0.233009 0.151394 2.50114e-20)
(1.0712 0.700594 -6.40685e-20)
(1.26353 0.834675 -1.25232e-20)
(1.28368 0.862768 0)
(1.23511 0.847933 -1.55843e-21)
(1.16534 0.819744 -9.40955e-20)
(1.09137 0.788489 1.48019e-19)
(1.01313 0.753429 2.49513e-19)
(0.930434 0.71223 3.07643e-19)
(0.844467 0.662178 -4.10052e-19)
(0.770144 0.609776 -4.51398e-19)
(0.719453 0.564928 4.00856e-19)
(0.686167 0.525852 0)
(0.651474 0.482242 -1.21303e-19)
(0.588063 0.420841 -2.88873e-19)
(0.479469 0.335064 -3.4231e-19)
(0.334562 0.230332 -4.05595e-19)
(0.184669 0.125228 1.19853e-19)
(0.0679658 0.0449876 -7.05064e-20)
(0.00570116 0.00363787 2.57326e-22)
(0.233585 0.160367 0)
(1.06342 0.736307 0)
(1.25199 0.876654 2.57489e-21)
(1.27 0.905038 0)
(1.22065 0.888902 3.90163e-20)
(1.15062 0.859175 6.53615e-20)
(1.07614 0.826436 0)
(0.996898 0.789898 2.9862e-20)
(0.912562 0.747063 5.13572e-19)
(0.824216 0.695188 -9.41924e-19)
(0.747206 0.640643 0)
(0.693973 0.592406 -2.57614e-19)
(0.658074 0.548491 -3.02294e-21)
(0.621279 0.499776 -2.40431e-21)
(0.558099 0.433935 3.08384e-19)
(0.451813 0.342905 -2.94358e-22)
(0.310512 0.23185 -8.72275e-19)
(0.166317 0.121935 2.57565e-19)
(0.0580553 0.0413594 7.61004e-20)
(0.00408452 0.00278045 0)
(0.23419 0.169179 -1.10833e-19)
(1.05597 0.77032 -4.96445e-20)
(1.24046 0.916192 -5.37934e-20)
(1.25644 0.944757 1.83502e-20)
(1.20641 0.927421 5.34899e-20)
(1.1362 0.896358 0)
(1.0613 0.862373 9.03157e-20)
(0.98117 0.824602 -6.62203e-20)
(0.895293 0.780423 3.86587e-21)
(0.804632 0.727097 6.9196e-20)
(0.724736 0.670471 5.83641e-19)
(0.668524 0.618495 -9.03815e-20)
(0.629752 0.569447 -3.40598e-19)
(0.590997 0.515498 -1.4091e-19)
(0.527985 0.44458 1.6745e-19)
(0.42342 0.347426 -1.0869e-22)
(0.285236 0.229705 2.34749e-19)
(0.147056 0.115917 -5.53532e-19)
(0.0479283 0.0365984 6.54186e-19)
(0.0024522 0.00179253 9.54008e-20)
(0.234659 0.177709 4.37186e-20)
(1.04887 0.80275 -2.9113e-20)
(1.2291 0.953388 6.25235e-21)
(1.24313 0.98205 2.19166e-20)
(1.19251 0.963603 -4.60081e-21)
(1.12219 0.931374 -1.1514e-19)
(1.04698 0.89635 2.67602e-20)
(0.966051 0.857555 -2.76322e-19)
(0.878747 0.812305 -5.66092e-19)
(0.785823 0.75787 -5.61046e-19)
(0.702831 0.699276 0)
(0.643186 0.643453 -3.95878e-19)
(0.601226 0.589186 4.90117e-19)
(0.560404 0.529612 0)
(0.497412 0.45249 -3.58221e-19)
(0.394473 0.348133 2.13665e-19)
(0.259645 0.223654 -2.52018e-19)
(0.128199 0.107594 -2.9753e-19)
(0.0384237 0.0312284 -5.26444e-19)
(0.000962377 0.000794302 -4.10409e-19)
(0.235441 0.186092 -5.10296e-20)
(1.04199 0.833572 3.11834e-20)
(1.21795 0.988318 6.82006e-20)
(1.23014 1.017 3.83046e-20)
(1.17904 0.997544 1.3671e-20)
(1.10869 0.964312 -6.3446e-20)
(1.03325 0.928417 8.87761e-20)
(0.95162 0.888793 -2.8439e-19)
(0.863 0.842724 -3.35118e-19)
(0.767882 0.787493 5.869e-19)
(0.681592 0.72712 1.28006e-18)
(0.618078 0.667591 0)
(0.572499 0.608172 0)
(0.529138 0.54235 -1.62064e-19)
(0.46582 0.457336 0)
(0.364916 0.344086 4.59247e-19)
(0.234893 0.212943 5.41634e-19)
(0.111692 0.097104 0)
(0.0307967 0.025786 0)
(-0.000247706 -7.03921e-05 4.40617e-19)
(0.235857 0.194022 5.98306e-20)
(1.03536 0.862776 4.7878e-20)
(1.20708 1.02111 5.04427e-20)
(1.21754 1.04974 -4.44774e-20)
(1.16606 1.02935 7.14894e-21)
(1.09574 0.995252 6.6881e-20)
(1.02016 0.958631 -1.2205e-19)
(0.937933 0.918338 -1.09122e-22)
(0.848121 0.871683 -5.01354e-21)
(0.75088 0.815947 -5.19561e-21)
(0.661152 0.754079 6.58883e-19)
(0.593359 0.691203 0)
(0.543615 0.626844 4.94738e-19)
(0.496813 0.55405 3.45287e-19)
(0.432293 0.45903 8.33782e-19)
(0.334055 0.334087 2.46941e-19)
(0.212063 0.195393 -2.9145e-19)
(0.101361 0.0822782 -1.71188e-19)
(0.0301149 0.0193849 0)
(0.00049716 -0.000187367 4.73e-19)
(0.236563 0.201949 -1.38611e-19)
(1.02894 0.890454 0)
(1.19648 1.0518 6.34593e-20)
(1.20535 1.08036 -4.06804e-20)
(1.15362 1.05913 3.91021e-21)
(1.08339 1.02428 -7.41323e-20)
(1.00776 0.987044 2.38653e-19)
(0.92502 0.946223 -2.31779e-20)
(0.834144 0.89919 0)
(0.734877 0.843198 -6.47355e-19)
(0.641646 0.780215 -1.43141e-18)
(0.569224 0.714543 5.82984e-20)
(0.51471 0.645585 6.80794e-19)
(0.463164 0.565199 0)
(0.395649 0.458123 5.61781e-19)
(0.299651 0.317392 0)
(0.189466 0.166317 0)
(0.100987 0.0506362 -1.85042e-19)
(0.0564329 0.00114354 0)
(0.0282314 0.011771 1.26675e-19)
(0.236881 0.209265 -1.58069e-19)
(1.0227 0.916957 0)
(1.18615 1.08062 1.09017e-19)
(1.19352 1.10909 0)
(1.14168 1.08713 -6.78908e-21)
(1.07157 1.05168 0)
(0.995969 1.01397 1.20749e-20)
(0.912787 0.972789 3.90646e-20)
(0.820948 0.92561 4.18972e-20)
(0.719708 0.869642 -7.09993e-19)
(0.622918 0.806021 4.30302e-20)
(0.545494 0.738302 4.68195e-19)
(0.485434 0.665142 6.63497e-19)
(0.427351 0.576532 8.9331e-20)
(0.353967 0.456151 4.39604e-19)
(0.257037 0.295253 0)
(0.155755 0.122857 6.13866e-19)
(0.0822012 -0.00220443 -3.59584e-19)
(0.0434923 0.0454356 4.16978e-19)
(-0.0690637 0.4344 -4.91864e-19)
(0.237172 0.216371 1.32754e-19)
(1.01639 0.942056 2.00029e-19)
(1.17602 1.10787 0)
(1.18193 1.13637 5.14713e-21)
(1.13005 1.11394 2.83901e-20)
(1.06003 1.07814 9.29413e-20)
(0.984489 1.0402 8.35334e-20)
(0.900835 0.998975 0)
(0.808012 0.952035 2.78921e-19)
(0.704716 0.896584 -3.71952e-20)
(0.604068 0.83297 0)
(0.520975 0.764188 0)
(0.454062 0.687139 5.93148e-19)
(0.387304 0.589047 -2.75597e-19)
(0.304125 0.455337 -4.4441e-19)
(0.201348 0.27195 0)
(0.090579 0.120433 3.0888e-19)
(0.00519846 0.439545 -3.57726e-19)
(0.0342079 1.88582 -1.96541e-19)
(0.0636818 2.80934 -2.50898e-19)
(0.237275 0.222626 -1.01937e-19)
(1.01022 0.965934 -2.60791e-19)
(1.16608 1.13354 6.71751e-20)
(1.17057 1.16206 4.87072e-20)
(1.11877 1.13932 0)
(1.04882 1.10336 5.30709e-20)
(0.973509 1.06542 1.15012e-19)
(0.889346 1.02435 -1.89869e-20)
(0.795594 0.977948 4.15079e-20)
(0.690266 0.923408 6.76618e-19)
(0.585691 0.860452 7.22567e-19)
(0.496631 0.791882 5.2296e-19)
(0.421526 0.711584 5.95327e-19)
(0.3447 0.601618 -6.45302e-19)
(0.251929 0.458839 -6.69613e-19)
(0.133577 0.306256 0)
(0.0465678 0.829631 0)
(0.103198 2.54867 1.70989e-19)
(0.104199 3.19963 0)
(0.107291 3.38746 4.09634e-19)
(0.239943 0.228307 0)
(1.00477 0.988778 0)
(1.15612 1.15749 0)
(1.1592 1.18597 1.59865e-20)
(1.10751 1.16305 2.90877e-20)
(1.03773 1.12722 2.49218e-20)
(0.962923 1.08952 7.41742e-20)
(0.878279 1.04881 -1.85701e-20)
(0.783658 1.00322 3.49069e-19)
(0.676384 0.949983 -9.51377e-21)
(0.567942 0.888401 1.42703e-18)
(0.47282 0.821281 -6.01239e-20)
(0.388086 0.739483 7.20976e-20)
(0.302115 0.611825 9.31078e-20)
(0.189459 0.473871 -3.87853e-21)
(0.104253 0.962363 1.8194e-21)
(0.14275 2.71454 -8.95009e-19)
(0.151826 3.29153 -3.3734e-19)
(0.14023 3.42617 1.75516e-19)
(0.126957 3.44853 -1.95632e-19)
(0.157429 0.184522 6.20131e-20)
(0.994047 1.01336 0)
(1.14584 1.17995 -1.42127e-19)
(1.14837 1.20856 -1.39323e-19)
(1.09713 1.18593 8.94939e-20)
(1.02768 1.15038 -2.05377e-20)
(0.952701 1.11255 -7.67238e-20)
(0.867766 1.07246 2.0925e-19)
(0.772375 1.028 -2.86234e-19)
(0.66335 0.976478 0)
(0.55123 0.917041 7.01654e-19)
(0.450151 0.852296 -4.26569e-19)
(0.354151 0.773895 0)
(0.254935 0.622907 8.6618e-20)
(0.153722 0.778062 2.07203e-19)
(0.15739 2.48385 -2.43936e-19)
(0.217296 3.3233 2.74461e-19)
(0.196385 3.44017 1.48424e-19)
(0.163062 3.46173 1.67621e-19)
(0.140862 3.47199 2.67599e-19)
(0.283441 0.267361 -1.11771e-19)
(0.979071 1.02352 0)
(1.12778 1.20542 1.58515e-19)
(1.13379 1.24063 1.62633e-19)
(1.08027 1.21919 -1.12331e-19)
(1.0103 1.18415 -4.27144e-21)
(0.934426 1.14789 7.4905e-20)
(0.849005 1.10892 1.63143e-20)
(0.752479 1.06659 2.74378e-19)
(0.640787 1.01838 5.86085e-19)
(0.523187 0.963903 3.96956e-20)
(0.411981 0.90464 3.7887e-19)
(0.294232 0.823414 6.73149e-20)
(0.215474 0.950069 -8.50979e-20)
(0.231923 2.3333 -1.94491e-19)
(0.294179 3.3266 1.87867e-19)
(0.27714 3.47048 -2.08372e-19)
(0.241396 3.49215 -1.20687e-19)
(0.203863 3.5197 -1.02801e-19)
(0.152167 3.51345 -1.20611e-20)
(0.271406 0.264252 0)
(0.976909 1.04644 4.87834e-20)
(1.11976 1.22901 -3.36417e-20)
(1.1236 1.26427 -2.04368e-20)
(1.06983 1.24253 -8.35961e-20)
(0.999949 1.20776 1.00327e-20)
(0.923768 1.17163 -3.98074e-20)
(0.838199 1.1334 1.46979e-20)
(0.741263 1.09248 -2.86463e-19)
(0.628375 1.04669 -1.4044e-20)
(0.508096 0.996218 -1.2701e-18)
(0.39259 0.941906 5.39148e-20)
(0.282309 0.891113 -6.36121e-20)
(0.256621 1.48388 -7.88968e-20)
(0.332246 3.09614 1.78568e-20)
(0.353061 3.46868 6.50816e-22)
(0.312337 3.52523 3.04459e-19)
(0.274717 3.5513 1.4976e-19)
(0.225782 3.57471 -3.88011e-20)
(0.16654 3.57058 -5.72591e-20)
(0.254974 0.262607 1.26392e-19)
(0.973154 1.07202 3.36112e-19)
(1.1113 1.25475 -9.70315e-20)
(1.11284 1.28933 -7.72481e-20)
(1.05885 1.26724 0)
(0.989179 1.23254 4.74111e-20)
(0.912978 1.19661 -4.22903e-20)
(0.827539 1.15909 1.29706e-20)
(0.730499 1.11966 -3.18016e-20)
(0.616912 1.07647 -5.32488e-19)
(0.494761 1.03037 -5.87139e-19)
(0.376833 0.981344 -4.43287e-19)
(0.281351 1.021 -4.81751e-19)
(0.325344 2.18975 4.96925e-19)
(0.418714 3.37674 4.17761e-19)
(0.397151 3.52707 0)
(0.351272 3.57176 0)
(0.313012 3.61256 -3.03411e-20)
(0.261611 3.67299 0)
(0.178662 3.64897 -3.47014e-20)
(0.244065 0.264442 -1.92547e-19)
(0.967406 1.09869 -2.89388e-19)
(1.10143 1.28173 0)
(1.10076 1.31521 6.17072e-21)
(1.04662 1.29258 -1.01452e-19)
(0.977294 1.25783 9.39154e-20)
(0.901408 1.22212 -1.80842e-20)
(0.816301 1.18519 7.8927e-21)
(0.719383 1.14715 -2.04684e-19)