# Field minima and maxima
# Time         	field          	min            	location(min)  	max            	location(max)  
5.00000000e-04	p              	0.00000000e+00	(-5.25000000e-04 0.00000000e+00 2.16000000e-01)	5.49255861e+01	(1.43951181e-04 -1.45036143e-03 1.50000000e-03)
5.00000000e-04	U              	(-6.64419368e-03 -4.38564224e-03 3.75050386e-01)	(1.12275892e-03 9.21183619e-04 1.50000000e-03)	(9.80887981e-03 1.43241121e-02 8.30074264e-01)	(-6.70601028e-04 -8.23881783e-04 1.50000000e-03)
1.00000000e-03	p              	0.00000000e+00	(-5.25000000e-04 0.00000000e+00 2.16000000e-01)	4.07036767e+01	(-7.50000000e-05 1.94780470e-21 1.05000000e-02)
1.00000000e-03	U              	(-1.13732759e-02 -3.89793077e-02 1.02007274e+00)	(3.38127829e-04 1.14544992e-03 1.50000000e-03)	(2.26236155e-02 3.81269814e-03 1.12951313e+00)	(-6.35796848e-04 -4.79267646e-05 1.50000000e-03)
1.50000000e-03	p              	0.00000000e+00	(-5.25000000e-04 0.00000000e+00 2.16000000e-01)	4.69839605e+01	(1.43951181e-04 1.45036143e-03 1.50000000e-03)
1.50000000e-03	U              	(-9.81814042e-03 -3.45728598e-02 7.53470790e-01)	(3.96645657e-04 1.31708331e-03 1.50000000e-03)	(2.80979238e-02 2.77965295e-03 1.23749038e+00)	(-6.35796848e-04 -4.79267646e-05 1.50000000e-03)
2.00000000e-03	p              	0.00000000e+00	(-5.25000000e-04 0.00000000e+00 2.16000000e-01)	4.33949147e+01	(-7.50000000e-05 1.94780470e-21 1.35000000e-02)
2.00000000e-03	U              	(-1.56388125e-02 -5.38857869e-02 1.15881818e+00)	(3.38127829e-04 1.14544992e-03 1.50000000e-03)	(2.96528902e-02 -2.07535393e-05 1.30187833e+00)	(-5.25000000e-04 -6.81731646e-21 1.50000000e-03)
2.50000000e-03	p              	0.00000000e+00	(-5.25000000e-04 0.00000000e+00 2.16000000e-01)	4.62539756e+01	(1.43951181e-04 1.45036143e-03 1.50000000e-03)
2.50000000e-03	U              	(-5.58636461e-03 -5.21968350e-02 9.78684061e-01)	(1.25743346e-04 1.29590637e-03 1.50000000e-03)	(3.30565190e-02 7.30299932e-03 1.33966045e+00)	(-5.62082873e-04 -1.39230795e-04 1.50000000e-03)
3.00000000e-03	p              	0.00000000e+00	(-5.25000000e-04 0.00000000e+00 2.16000000e-01)	4.52351077e+01	(-1.12275892e-03 9.21183619e-04 1.50000000e-03)
3.00000000e-03	U              	(-2.90331258e-02 -5.62244803e-02 1.30213582e+00)	(4.95742714e-04 9.50868554e-04 1.50000000e-03)	(4.04436416e-02 3.76412865e-03 1.36707364e+00)	(-6.35796848e-04 -4.79267646e-05 1.50000000e-03)
3.50000000e-03	p              	0.00000000e+00	(-5.25000000e-04 0.00000000e+00 2.16000000e-01)	4.69097257e+01	(1.43951181e-04 1.45036143e-03 1.50000000e-03)
3.50000000e-03	U              	(-7.04896310e-03 -6.61990769e-02 1.28436964e+00)	(1.04101843e-04 1.11232387e-03 1.50000000e-03)	(4.09102154e-02 1.95269184e-02 1.38480794e+00)	(-6.16107392e-04 -3.04594284e-04 1.50000000e-03)
4.00000000e-03	p              	0.00000000e+00	(-5.25000000e-04 0.00000000e+00 2.16000000e-01)	4.70138487e+01	(-1.45036143e-03 -1.43951181e-04 1.50000000e-03)
4.00000000e-03	U              	(-7.16463729e-03 -6.77968712e-02 1.29429064e+00)	(1.04101843e-04 1.11232387e-03 1.50000000e-03)	(4.31347083e-02 3.44758680e-02 1.39813773e+00)	(-6.31068897e-04 -5.08944124e-04 1.50000000e-03)
4.50000000e-03	p              	0.00000000e+00	(-5.25000000e-04 0.00000000e+00 2.16000000e-01)	4.79405291e+01	(-1.45036143e-03 -1.43951181e-04 1.50000000e-03)
4.50000000e-03	U              	(-7.23585156e-03 -6.88850293e-02 1.30240899e+00)	(1.04101843e-04 1.11232387e-03 1.50000000e-03)	(4.40660539e-02 3.52033128e-02 1.40995985e+00)	(-6.31068897e-04 -5.08944124e-04 1.50000000e-03)
5.00000000e-03	p              	0.00000000e+00	(-5.25000000e-04 0.00000000e+00 2.16000000e-01)	4.83865753e+01	(-1.45036143e-03 -1.43951181e-04 1.50000000e-03)
5.00000000e-03	U              	(-7.28603057e-03 -6.96233655e-02 1.30972499e+00)	(1.04101843e-04 1.11232387e-03 1.50000000e-03)	(4.47290625e-02 3.57321846e-02 1.41890987e+00)	(-6.31068897e-04 -5.08944124e-04 1.50000000e-03)
5.50000000e-03	p              	0.00000000e+00	(-5.25000000e-04 0.00000000e+00 2.16000000e-01)	4.90491362e+01	(-1.45036143e-03 -1.43951181e-04 1.50000000e-03)
5.50000000e-03	U              	(-7.31907249e-03 -7.01086606e-02 1.31568784e+00)	(1.04101843e-04 1.11232387e-03 1.50000000e-03)	(4.51426806e-02 3.60567236e-02 1.42617801e+00)	(-6.31068897e-04 -5.08944124e-04 1.50000000e-03)
6.00000000e-03	p              	0.00000000e+00	(-5.25000000e-04 0.00000000e+00 2.16000000e-01)	4.95776468e+01	(-1.45036143e-03 -1.43951181e-04 1.50000000e-03)
6.00000000e-03	U              	(-7.34166693e-03 -7.04327785e-02 1.32096496e+00)	(1.04101843e-04 1.11232387e-03 1.50000000e-03)	(4.54038655e-02 3.62637843e-02 1.43233820e+00)	(-6.31068897e-04 -5.08944124e-04 1.50000000e-03)
6.50000000e-03	p              	0.00000000e+00	(-5.25000000e-04 0.00000000e+00 2.16000000e-01)	5.01431048e+01	(-1.45036143e-03 -1.43951181e-04 1.50000000e-03)
6.50000000e-03	U              	(-7.35753363e-03 -7.06392224e-02 1.32516736e+00)	(1.04101843e-04 1.11232387e-03 1.50000000e-03)	(4.55521563e-02 3.63807477e-02 1.43742433e+00)	(-6.31068897e-04 -5.08944124e-04 1.50000000e-03)
7.00000000e-03	p              	0.00000000e+00	(-5.25000000e-04 0.00000000e+00 2.16000000e-01)	5.06744321e+01	(-1.45036143e-03 -1.43951181e-04 1.50000000e-03)
7.00000000e-03	U              	(-7.36861921e-03 -7.07750730e-02 1.32866743e+00)	(1.04101843e-04 1.11232387e-03 1.50000000e-03)	(4.56310695e-02 3.64432585e-02 1.44184227e+00)	(-6.31068897e-04 -5.08944124e-04 1.50000000e-03)
7.50000000e-03	p              	0.00000000e+00	(-5.25000000e-04 0.00000000e+00 2.16000000e-01)	5.11986964e+01	(-1.45036143e-03 -1.43951181e-04 1.50000000e-03)
7.50000000e-03	U              	(-7.37693627e-03 -7.08610534e-02 1.33135052e+00)	(1.04101843e-04 1.11232387e-03 1.50000000e-03)	(4.56683234e-02 3.64731852e-02 1.44550256e+00)	(-6.31068897e-04 -5.08944124e-04 1.50000000e-03)
8.00000000e-03	p              	0.00000000e+00	(-5.25000000e-04 0.00000000e+00 2.16000000e-01)	5.17131231e+01	(-1.45036143e-03 -1.43951181e-04 1.50000000e-03)
8.00000000e-03	U              	(-7.38313096e-03 -7.09189831e-02 1.33343480e+00)	(1.04101843e-04 1.11232387e-03 1.50000000e-03)	(4.56830094e-02 3.64852201e-02 1.44862650e+00)	(-6.31068897e-04 -5.08944124e-04 1.50000000e-03)
8.50000000e-03	p              	0.00000000e+00	(-5.25000000e-04 0.00000000e+00 2.16000000e-01)	5.22145060e+01	(-1.45036143e-03 -1.43951181e-04 1.50000000e-03)
8.50000000e-03	U              	(-7.38818427e-03 -7.09583380e-02 1.33495060e+00)	(1.04101843e-04 1.11232387e-03 1.50000000e-03)	(4.56891396e-02 3.64908563e-02 1.45118892e+00)	(-6.31068897e-04 -5.08944124e-04 1.50000000e-03)
9.00000000e-03	p              	0.00000000e+00	(-5.25000000e-04 0.00000000e+00 2.16000000e-01)	5.27102352e+01	(-1.45036143e-03 -1.43951181e-04 1.50000000e-03)
9.00000000e-03	U              	(-7.39226574e-03 -7.09881134e-02 1.33603855e+00)	(1.04101843e-04 1.11232387e-03 1.50000000e-03)	(4.56937188e-02 3.64951684e-02 1.45331530e+00)	(-6.31068897e-04 -5.08944124e-04 1.50000000e-03)
9.50000000e-03	p              	0.00000000e+00	(-5.25000000e-04 0.00000000e+00 2.16000000e-01)	5.31950945e+01	(-1.45036143e-03 -1.43951181e-04 1.50000000e-03)
9.50000000e-03	U              	(-7.39576107e-03 -7.10121897e-02 1.33677207e+00)	(1.04101843e-04 1.11232387e-03 1.50000000e-03)	(4.57017353e-02 3.65023506e-02 1.45503364e+00)	(-6.31068897e-04 -5.08944124e-04 1.50000000e-03)
1.00000000e-02	p              	0.00000000e+00	(-5.25000000e-04 0.00000000e+00 2.16000000e-01)	5.36743367e+01	(-1.45036143e-03 -1.43951181e-04 1.50000000e-03)
1.00000000e-02	U              	(-7.39872876e-03 -7.10336455e-02 1.33724531e+00)	(1.04101843e-04 1.11232387e-03 1.50000000e-03)	(4.57144294e-02 3.65131329e-02 1.45642566e+00)	(-6.31068897e-04 -5.08944124e-04 1.50000000e-03)
1.05000000e-02	p              	0.00000000e+00	(-5.25000000e-04 0.00000000e+00 2.16000000e-01)	5.41444454e+01	(-1.45036143e-03 -1.43951181e-04 1.50000000e-03)
1.05000000e-02	U              	(-7.40130028e-03 -7.10537805e-02 1.33752868e+00)	(1.04101843e-04 1.11232387e-03 1.50000000e-03)	(4.57322382e-02 3.65279498e-02 1.45754093e+00)	(-6.31068897e-04 -5.08944124e-04 1.50000000e-03)
1.10000000e-02	p              	0.00000000e+00	(-5.25000000e-04 0.00000000e+00 2.16000000e-01)	5.46047345e+01	(-1.45036143e-03 -1.43951181e-04 1.50000000e-03)
1.10000000e-02	U              	(-7.40346824e-03 -7.10736521e-02 1.33769282e+00)	(1.04101843e-04 1.11232387e-03 1.50000000e-03)	(4.57539889e-02 3.65457323e-02 1.45844795e+00)	(-6.31068897e-04 -5.08944124e-04 1.50000000e-03)
1.15000000e-02	p              	0.00000000e+00	(-5.25000000e-04 0.00000000e+00 2.16000000e-01)	5.50428237e+01	(-1.45036143e-03 -1.43951181e-04 1.50000000e-03)
1.15000000e-02	U              	(-7.40515957e-03 -7.10944864e-02 1.33781436e+00)	(1.04101843e-04 1.11232387e-03 1.50000000e-03)	(4.57780318e-02 3.65651166e-02 1.45922141e+00)	(-6.31068897e-04 -5.08944124e-04 1.50000000e-03)
1.20000000e-02	p              	0.00000000e+00	(-5.25000000e-04 0.00000000e+00 2.16000000e-01)	5.54298108e+01	(-1.45036143e-03 -1.43951181e-04 1.50000000e-03)
1.20000000e-02	U              	(-7.40611555e-03 -7.11184270e-02 1.33798889e+00)	(1.04101843e-04 1.11232387e-03 1.50000000e-03)	(4.58016621e-02 3.65837633e-02 1.45996196e+00)	(-6.31068897e-04 -5.08944124e-04 1.50000000e-03)
1.25000000e-02	p              	0.00000000e+00	(-5.25000000e-04 0.00000000e+00 2.16000000e-01)	5.57027934e+01	(-1.43951181e-04 1.45036143e-03 1.50000000e-03)
1.25000000e-02	U              	(-7.40584918e-03 -7.11486485e-02 1.33833402e+00)	(1.04101843e-04 1.11232387e-03 1.50000000e-03)	(4.58211438e-02 3.65985077e-02 1.46078809e+00)	(-6.31068897e-04 -5.08944124e-04 1.50000000e-03)
1.30000000e-02	p              	0.00000000e+00	(-5.25000000e-04 0.00000000e+00 2.16000000e-01)	5.57571957e+01	(-1.43951181e-04 -1.45036143e-03 1.50000000e-03)
1.30000000e-02	U              	(-7.40364424e-03 -7.11882615e-02 1.33895935e+00)	(1.04101843e-04 1.11232387e-03 1.50000000e-03)	(4.58314122e-02 3.66051482e-02 1.46180183e+00)	(-6.31068897e-04 -5.08944124e-04 1.50000000e-03)
1.35000000e-02	p              	0.00000000e+00	(-5.25000000e-04 0.00000000e+00 2.16000000e-01)	5.54515417e+01	(-1.43951181e-04 -1.45036143e-03 1.50000000e-03)
1.35000000e-02	U              	(-7.39871643e-03 -7.12383323e-02 1.33991701e+00)	(1.04101843e-04 1.11232387e-03 1.50000000e-03)	(4.58265104e-02 3.65989351e-02 1.46303403e+00)	(-6.31068897e-04 -5.08944124e-04 1.50000000e-03)
1.40000000e-02	p              	0.00000000e+00	(-5.25000000e-04 0.00000000e+00 2.16000000e-01)	5.46344162e+01	(-1.43951181e-04 -1.45036143e-03 1.50000000e-03)
1.40000000e-02	U              	(-7.39030518e-03 -7.12958813e-02 1.34115221e+00)	(1.04101843e-04 1.11232387e-03 1.50000000e-03)	(4.58007482e-02 3.65754556e-02 1.46439864e+00)	(-6.31068897e-04 -5.08944124e-04 1.50000000e-03)
1.45000000e-02	p              	0.00000000e+00	(-5.25000000e-04 0.00000000e+00 2.16000000e-01)	5.31843102e+01	(-1.43951181e-04 -1.45036143e-03 1.50000000e-03)
1.45000000e-02	U              	(-7.37829125e-03 -7.13535820e-02 1.34249747e+00)	(1.04101843e-04 1.11232387e-03 1.50000000e-03)	(4.57503388e-02 3.65320923e-02 1.46569803e+00)	(-6.31068897e-04 -5.08944124e-04 1.50000000e-03)
1.50000000e-02	p              	0.00000000e+00	(-5.25000000e-04 0.00000000e+00 2.16000000e-01)	5.10467147e+01	(-1.43951181e-04 -1.45036143e-03 1.50000000e-03)
1.50000000e-02	U              	(-7.36310367e-03 -7.14014811e-02 1.34371737e+00)	(1.04101843e-04 1.11232387e-03 1.50000000e-03)	(4.56751622e-02 3.64691413e-02 1.46668082e+00)	(-6.31068897e-04 -5.08944124e-04 1.50000000e-03)
1.55000000e-02	p              	0.00000000e+00	(-5.25000000e-04 0.00000000e+00 2.16000000e-01)	4.82529021e+01	(-1.43951181e-04 -1.45036143e-03 1.50000000e-03)
1.55000000e-02	U              	(-7.34585806e-03 -7.14301478e-02 1.34458516e+00)	(1.04101843e-04 1.11232387e-03 1.50000000e-03)	(4.55794765e-02 3.63903593e-02 1.46712816e+00)	(-6.31068897e-04 -5.08944124e-04 1.50000000e-03)
1.60000000e-02	p              	0.00000000e+00	(-5.25000000e-04 0.00000000e+00 2.16000000e-01)	4.49146811e+01	(-1.43951181e-04 -1.45036143e-03 1.50000000e-03)
1.60000000e-02	U              	(-7.32814743e-03 -7.14335855e-02 1.34495111e+00)	(1.04101843e-04 1.11232387e-03 1.50000000e-03)	(4.54714381e-02 3.63025021e-02 1.46692357e+00)	(-6.31068897e-04 -5.08944124e-04 1.50000000e-03)
1.65000000e-02	p              	0.00000000e+00	(-5.25000000e-04 0.00000000e+00 2.16000000e-01)	4.12002141e+01	(-1.43951181e-04 -1.45036143e-03 1.50000000e-03)
1.65000000e-02	U              	(-7.31172851e-03 -7.14107620e-02 1.34477651e+00)	(1.04101843e-04 1.11232387e-03 1.50000000e-03)	(4.53614785e-02 3.62139951e-02 1.46608154e+00)	(-6.31068897e-04 -5.08944124e-04 1.50000000e-03)
1.70000000e-02	p              	0.00000000e+00	(-5.25000000e-04 0.00000000e+00 2.16000000e-01)	3.73011258e+01	(-1.43951181e-04 -1.45036143e-03 1.50000000e-03)
1.70000000e-02	U              	(-7.29812682e-03 -7.13654636e-02 1.34412750e+00)	(1.04101843e-04 1.11232387e-03 1.50000000e-03)	(4.52601646e-02 3.61332315e-02 1.46473159e+00)	(-6.31068897e-04 -5.08944124e-04 1.50000000e-03)
1.75000000e-02	p              	0.00000000e+00	(-5.25000000e-04 0.00000000e+00 2.16000000e-01)	3.34012711e+01	(-1.43951181e-04 -1.45036143e-03 1.50000000e-03)
1.75000000e-02	U              	(-7.28839915e-03 -7.13048175e-02 1.34314147e+00)	(1.04101843e-04 1.11232387e-03 1.50000000e-03)	(4.51763106e-02 3.60671014e-02 1.46307425e+00)	(-6.31068897e-04 -5.08944124e-04 1.50000000e-03)
1.80000000e-02	p              	0.00000000e+00	(-5.25000000e-04 0.00000000e+00 2.16000000e-01)	2.96537303e+01	(-1.43951181e-04 -1.45036143e-03 1.50000000e-03)
1.80000000e-02	U              	(-7.28301761e-03 -7.12373066e-02 1.34198412e+00)	(1.04101843e-04 1.11232387e-03 1.50000000e-03)	(4.51157664e-02 3.60200566e-02 1.46132921e+00)	(-6.31068897e-04 -5.08944124e-04 1.50000000e-03)
1.85000000e-02	p              	0.00000000e+00	(-5.25000000e-04 0.00000000e+00 2.16000000e-01)	2.61686284e+01	(-1.43951181e-04 -1.45036143e-03 1.50000000e-03)
1.85000000e-02	U              	(-7.28188524e-03 -7.11709764e-02 1.34081148e+00)	(1.04101843e-04 1.11232387e-03 1.50000000e-03)	(4.50810259e-02 3.59938519e-02 1.45969163e+00)	(-6.31068897e-04 -5.08944124e-04 1.50000000e-03)
1.90000000e-02	p              	0.00000000e+00	(-5.25000000e-04 0.00000000e+00 2.16000000e-01)	2.30109572e+01	(-1.43951181e-04 -1.45036143e-03 1.50000000e-03)
1.90000000e-02	U              	(-7.28446236e-03 -7.11121822e-02 1.33974481e+00)	(1.04101843e-04 1.11232387e-03 1.50000000e-03)	(4.50715246e-02 3.59878262e-02 1.45830473e+00)	(-6.31068897e-04 -5.08944124e-04 1.50000000e-03)
1.95000000e-02	p              	0.00000000e+00	(-5.25000000e-04 0.00000000e+00 2.16000000e-01)	2.02057536e+01	(-1.43951181e-04 -1.45036143e-03 1.50000000e-03)
1.95000000e-02	U              	(-7.28994070e-03 -7.10649942e-02 1.33885995e+00)	(1.04101843e-04 1.11232387e-03 1.50000000e-03)	(4.50843676e-02 3.59995081e-02 1.45724984e+00)	(-6.31068897e-04 -5.08944124e-04 1.50000000e-03)
2.00000000e-02	p              	0.00000000e+00	(-5.25000000e-04 0.00000000e+00 2.16000000e-01)	1.77473377e+01	(-1.43951181e-04 -1.45036143e-03 1.50000000e-03)
2.00000000e-02	U              	(-7.29741699e-03 -7.10311806e-02 1.33818862e+00)	(1.04101843e-04 1.11232387e-03 1.50000000e-03)	(4.51152250e-02 3.60253433e-02 1.45655051e+00)	(-6.31068897e-04 -5.08944124e-04 1.50000000e-03)
2.05000000e-02	p              	0.00000000e+00	(-5.25000000e-04 0.00000000e+00 2.16000000e-01)	1.56096669e+01	(-1.43951181e-04 -1.45036143e-03 1.50000000e-03)
2.05000000e-02	U              	(-7.30602942e-03 -7.10105819e-02 1.33772741e+00)	(1.04101843e-04 1.11232387e-03 1.50000000e-03)	(4.51591883e-02 3.60613739e-02 1.45618545e+00)	(-6.31068897e-04 -5.08944124e-04 1.50000000e-03)
2.10000000e-02	p              	0.00000000e+00	(-5.25000000e-04 0.00000000e+00 2.16000000e-01)	1.37557097e+01	(-1.43951181e-04 -1.45036143e-03 1.50000000e-03)
2.10000000e-02	U              	(-7.31504242e-03 -7.10016916e-02 1.33744986e+00)	(1.04101843e-04 1.11232387e-03 1.50000000e-03)	(4.52114551e-02 3.61037705e-02 1.45610466e+00)	(-6.31068897e-04 -5.08944124e-04 1.50000000e-03)
2.15000000e-02	p              	0.00000000e+00	(-5.25000000e-04 0.00000000e+00 2.16000000e-01)	1.21447287e+01	(1.43951181e-04 1.45036143e-03 1.50000000e-03)
2.15000000e-02	U              	(-7.32389609e-03 -7.10022746e-02 1.33731822e+00)	(1.04101843e-04 1.11232387e-03 1.50000000e-03)	(4.52678012e-02 3.61491963e-02 1.45624478e+00)	(-6.31068897e-04 -5.08944124e-04 1.50000000e-03)
2.20000000e-02	p              	0.00000000e+00	(-5.25000000e-04 0.00000000e+00 2.16000000e-01)	1.07371879e+01	(1.43951181e-04 1.45036143e-03 1.50000000e-03)
2.20000000e-02	U              	(-7.33220159e-03 -7.10098729e-02 1.33729257e+00)	(1.04101843e-04 1.11232387e-03 1.50000000e-03)	(4.53248294e-02 3.61949950e-02 1.45654112e+00)	(-6.31068897e-04 -5.08944124e-04 1.50000000e-03)
2.25000000e-02	p              	0.00000000e+00	(-5.25000000e-04 0.00000000e+00 2.16000000e-01)	9.49754544e+00	(1.43951181e-04 1.45036143e-03 1.50000000e-03)
2.25000000e-02	U              	(-7.33973681e-03 -7.10221553e-02 1.33733682e+00)	(1.04101843e-04 1.11232387e-03 1.50000000e-03)	(4.53800342e-02 3.62392265e-02 1.45693549e+00)	(-6.31068897e-04 -5.08944124e-04 1.50000000e-03)
2.30000000e-02	p              	-6.17150105e-01	(-5.25000000e-04 0.00000000e+00 1.69500000e-01)	8.39545151e+00	(1.43951181e-04 1.45036143e-03 1.50000000e-03)
2.30000000e-02	U              	(-7.34640939e-03 -7.10371320e-02 1.33742164e+00)	(1.04101843e-04 1.11232387e-03 1.50000000e-03)	(4.54317514e-02 3.62806207e-02 1.45738018e+00)	(-6.31068897e-04 -5.08944124e-04 1.50000000e-03)
2.35000000e-02	p              	-1.73480329e+00	(-5.25000000e-04 0.00000000e+00 1.51500000e-01)	7.40591600e+00	(1.43951181e-04 1.45036143e-03 1.50000000e-03)
2.35000000e-02	U              	(-7.35221295e-03 -7.10532449e-02 1.33752509e+00)	(1.04101843e-04 1.11232387e-03 1.50000000e-03)	(4.54790285e-02 3.63184653e-02 1.45783895e+00)	(-6.31068897e-04 -5.08944124e-04 1.50000000e-03)
2.40000000e-02	p              	-2.77690428e+00	(-5.25000000e-04 0.00000000e+00 1.42500000e-01)	6.50893659e+00	(1.43951181e-04 1.45036143e-03 1.50000000e-03)
2.40000000e-02	U              	(-7.35719734e-03 -7.10693604e-02 1.33763185e+00)	(1.04101843e-04 1.11232387e-03 1.50000000e-03)	(4.55214692e-02 3.63524787e-02 1.45828610e+00)	(-6.31068897e-04 -5.08944124e-04 1.50000000e-03)
2.45000000e-02	p              	-3.64342088e+00	(-5.25000000e-04 5.93752888e-21 1.39500000e-01)	5.68896291e+00	(1.43951181e-04 1.45036143e-03 1.50000000e-03)
2.45000000e-02	U              	(-7.36145547e-03 -7.10847012e-02 1.33773160e+00)	(1.04101843e-04 1.11232387e-03 1.50000000e-03)	(4.55590840e-02 3.63826926e-02 1.45870443e+00)	(-6.31068897e-04 -5.08944124e-04 1.50000000e-03)
2.50000000e-02	p              	-4.30358804e+00	(1.43951181e-04 -1.45036143e-03 1.33500000e-01)	4.93445574e+00	(1.43951181e-04 1.45036143e-03 1.50000000e-03)
2.50000000e-02	U              	(-7.36509692e-03 -7.10987547e-02 1.33781724e+00)	(1.04101843e-04 1.11232387e-03 1.50000000e-03)	(4.55921674e-02 3.64093551e-02 1.45908288e+00)	(-6.31068897e-04 -5.08944124e-04 1.50000000e-03)
2.55000000e-02	p              	-4.75815864e+00	(1.43951181e-04 1.45036143e-03 1.30500000e-01)	4.23769522e+00	(1.43951181e-04 1.45036143e-03 1.50000000e-03)
2.55000000e-02	U              	(-7.36823502e-03 -7.11111882e-02 1.33788317e+00)	(1.04101843e-04 1.11232387e-03 1.50000000e-03)	(4.56212063e-02 3.64328622e-02 1.45941425e+00)	(-6.31068897e-04 -5.08944124e-04 1.50000000e-03)
2.60000000e-02	p              	-5.01651038e+00	(1.43951181e-04 1.45036143e-03 1.24500000e-01)	3.59488841e+00	(1.43951181e-04 1.45036143e-03 1.50000000e-03)
2.60000000e-02	U              	(-7.37099062e-03 -7.11217621e-02 1.33792391e+00)	(1.04101843e-04 1.11232387e-03 1.50000000e-03)	(4.56468260e-02 3.64537169e-02 1.45969335e+00)	(-6.31068897e-04 -5.08944124e-04 1.50000000e-03)
2.65000000e-02	p              	-5.10411181e+00	(1.43951181e-04 1.45036143e-03 1.21500000e-01)	3.00651777e+00	(1.45036143e-03 -1.43951181e-04 1.50000000e-03)
2.65000000e-02	U              	(-7.37349140e-03 -7.11302792e-02 1.33793344e+00)	(1.04101843e-04 1.11232387e-03 1.50000000e-03)	(4.56697616e-02 3.64725103e-02 1.45991600e+00)	(-6.31068897e-04 -5.08944124e-04 1.50000000e-03)
2.70000000e-02	p              	-5.04547975e+00	(1.43951181e-04 1.45036143e-03 1.15500000e-01)	2.47776337e+00	(1.45036143e-03 -1.43951181e-04 1.50000000e-03)
2.70000000e-02	U              	(-7.37587269e-03 -7.11365686e-02 1.33790518e+00)	(1.04101843e-04 1.11232387e-03 1.50000000e-03)	(4.56908477e-02 3.64899133e-02 1.46007881e+00)	(-6.31068897e-04 -5.08944124e-04 1.50000000e-03)
2.75000000e-02	p              	-4.86705161e+00	(1.43951181e-04 1.45036143e-03 1.09500000e-01)	2.01874809e+00	(1.45036143e-03 -1.43951181e-04 1.50000000e-03)
2.75000000e-02	U              	(-7.37827722e-03 -7.11405063e-02 1.33783288e+00)	(1.04101843e-04 1.11232387e-03 1.50000000e-03)	(4.57110075e-02 3.65066682e-02 1.46017996e+00)	(-6.31068897e-04 -5.08944124e-04 1.50000000e-03)
2.80000000e-02	p              	-4.59294692e+00	(1.43951181e-04 1.45036143e-03 1.00500000e-01)	1.64433186e+00	(1.45036143e-03 -1.43951181e-04 1.50000000e-03)
2.80000000e-02	U              	(-7.38085059e-03 -7.11420664e-02 1.33771215e+00)	(1.04101843e-04 1.11232387e-03 1.50000000e-03)	(4.57312290e-02 3.65235674e-02 1.46022059e+00)	(-6.31068897e-04 -5.08944124e-04 1.50000000e-03)
2.85000000e-02	p              	-4.24453272e+00	(1.43951181e-04 1.45036143e-03 9.45000000e-02)	1.37323950e+00	(1.45036143e-03 -1.43951181e-04 1.50000000e-03)
2.85000000e-02	U              	(-7.38373201e-03 -7.11413852e-02 1.33754219e+00)	(1.04101843e-04 1.11232387e-03 1.50000000e-03)	(4.57525195e-02 3.65414121e-02 1.46020635e+00)	(-6.31068897e-04 -5.08944124e-04 1.50000000e-03)
2.90000000e-02	p              	-3.83168496e+00	(-1.43951181e-04 -1.45036143e-03 8.85000000e-02)	1.22644587e+00	(1.45036143e-03 1.43951181e-04 1.50000000e-03)
2.90000000e-02	U              	(-7.38704037e-03 -7.11388156e-02 1.33732734e+00)	(1.04101843e-04 1.11232387e-03 1.50000000e-03)	(4.57758285e-02 3.65609513e-02 1.46014850e+00)	(-6.31068897e-04 -5.08944124e-04 1.50000000e-03)
2.95000000e-02	p              	-3.35973515e+00	(-1.43951181e-04 -1.45036143e-03 8.25000000e-02)	1.22492859e+00	(-1.45036143e-03 -1.43951181e-04 1.50000000e-03)
2.95000000e-02	U              	(-7.39086190e-03 -7.11349464e-02 1.33707786e+00)	(1.04101843e-04 1.11232387e-03 1.50000000e-03)	(4.58019550e-02 3.65828049e-02 1.46006417e+00)	(-6.31068897e-04 -5.08944124e-04 1.50000000e-03)
3.00000000e-02	p              	-2.82624728e+00	(1.43951181e-04 1.45036143e-03 7.65000000e-02)	1.38705697e+00	(-1.45036143e-03 -1.43951181e-04 1.50000000e-03)
3.00000000e-02	U              	(-7.39521667e-03 -7.11305804e-02 1.33680952e+00)	(1.04101843e-04 1.11232387e-03 1.50000000e-03)	(4.58314462e-02 3.66073771e-02 1.45997530e+00)	(-6.31068897e-04 -5.08944124e-04 1.50000000e-03)
3.05000000e-02	p              	-2.22258744e+00	(-1.43951181e-04 -1.45036143e-03 7.35000000e-02)	1.72604918e+00	(-1.45036143e-03 -1.43951181e-04 1.50000000e-03)
3.05000000e-02	U              	(-7.40012903e-03 -7.11266657e-02 1.33654218e+00)	(1.04101843e-04 1.11232387e-03 1.50000000e-03)	(4.58644952e-02 3.66348065e-02 1.45990639e+00)	(-6.31068897e-04 -5.08944124e-04 1.50000000e-03)
3.10000000e-02	p              	-1.54469348e+00	(-1.43951181e-04 -1.45036143e-03 7.35000000e-02)	2.24789087e+00	(-1.45036143e-03 -1.43951181e-04 1.50000000e-03)
3.10000000e-02	U              	(-7.40547266e-03 -7.11241921e-02 1.33629730e+00)	(1.04101843e-04 1.11232387e-03 1.50000000e-03)	(4.59009134e-02 3.66648773e-02 1.45988147e+00)	(-6.31068897e-04 -5.08944124e-04 1.50000000e-03)
3.15000000e-02	p              	-8.02909949e-01	(-1.43951181e-04 -1.45036143e-03 7.65000000e-02)	2.95007666e+00	(-1.45036143e-03 -1.43951181e-04 1.50000000e-03)
3.15000000e-02	U              	(-7.41110143e-03 -7.11240261e-02 1.33609512e+00)	(1.04101843e-04 1.11232387e-03 1.50000000e-03)	(4.59400850e-02 3.66970694e-02 1.45992084e+00)	(-6.31068897e-04 -5.08944124e-04 1.50000000e-03)
3.20000000e-02	p              	-3.59390308e-02	(-1.43951181e-04 -1.45036143e-03 8.55000000e-02)	3.82136973e+00	(-1.45036143e-03 -1.43951181e-04 1.50000000e-03)
3.20000000e-02	U              	(-7.41682719e-03 -7.11268217e-02 1.33595196e+00)	(1.04101843e-04 1.11232387e-03 1.50000000e-03)	(4.59810293e-02 3.67305651e-02 1.46003814e+00)	(-6.31068897e-04 -5.08944124e-04 1.50000000e-03)
3.25000000e-02	p              	0.00000000e+00	(-5.25000000e-04 0.00000000e+00 2.16000000e-01)	4.84258848e+00	(-1.45036143e-03 -1.43951181e-04 1.50000000e-03)
3.25000000e-02	U              	(-7.42243525e-03 -7.11329235e-02 1.33587814e+00)	(1.04101843e-04 1.11232387e-03 1.50000000e-03)	(4.60224842e-02 3.67643319e-02 1.46023859e+00)	(-6.31068897e-04 -5.08944124e-04 1.50000000e-03)
3.30000000e-02	p              	0.00000000e+00	(-5.25000000e-04 0.00000000e+00 2.16000000e-01)	5.98825346e+00	(-1.45036143e-03 -1.43951181e-04 1.50000000e-03)
3.30000000e-02	U              	(-7.42770666e-03 -7.11423222e-02 1.33587692e+00)	(1.04101843e-04 1.11232387e-03 1.50000000e-03)	(4.60630323e-02 3.67972237e-02 1.46051836e+00)	(-6.31068897e-04 -5.08944124e-04 1.50000000e-03)
3.35000000e-02	p              	0.00000000e+00	(-5.25000000e-04 0.00000000e+00 2.16000000e-01)	7.22879936e+00	(-1.45036143e-03 -1.43951181e-04 1.50000000e-03)
3.35000000e-02	U              	(-7.43244169e-03 -7.11546656e-02 1.33594465e+00)	(1.04101843e-04 1.11232387e-03 1.50000000e-03)	(4.61012425e-02 3.68280957e-02 1.46086539e+00)	(-6.31068897e-04 -5.08944124e-04 1.50000000e-03)
3.40000000e-02	p              	0.00000000e+00	(-5.25000000e-04 0.00000000e+00 2.16000000e-01)	8.53300008e+00	(-1.45036143e-03 -1.43951181e-04 1.50000000e-03)
3.40000000e-02	U              	(-7.43647854e-03 -7.11693185e-02 1.33607175e+00)	(1.04101843e-04 1.11232387e-03 1.50000000e-03)	(4.61358075e-02 3.68559134e-02 1.46126132e+00)	(-6.31068897e-04 -5.08944124e-04 1.50000000e-03)
3.45000000e-02	p              	0.00000000e+00	(-5.25000000e-04 0.00000000e+00 2.16000000e-01)	9.87027045e+00	(-1.45036143e-03 -1.43951181e-04 1.50000000e-03)
3.45000000e-02	U              	(-7.43970564e-03 -7.11854573e-02 1.33624458e+00)	(1.04101843e-04 1.11232387e-03 1.50000000e-03)	(4.61656588e-02 3.68798413e-02 1.46168406e+00)	(-6.31068897e-04 -5.08944124e-04 1.50000000e-03)
3.50000000e-02	p              	0.00000000e+00	(-5.25000000e-04 0.00000000e+00 2.16000000e-01)	1.12125817e+01	(-1.45036143e-03 -1.43951181e-04 1.50000000e-03)
3.50000000e-02	U              	(-7.44206759e-03 -7.12021780e-02 1.33644741e+00)	(1.04101843e-04 1.11232387e-03 1.50000000e-03)	(4.61900452e-02 3.68993035e-02 1.46211060e+00)	(-6.31068897e-04 -5.08944124e-04 1.50000000e-03)
3.55000000e-02	p              	0.00000000e+00	(-5.25000000e-04 0.00000000e+00 2.16000000e-01)	1.25358328e+01	(-1.45036143e-03 -1.43951181e-04 1.50000000e-03)
3.55000000e-02	U              	(-7.44356384e-03 -7.12186017e-02 1.33666449e+00)	(1.04101843e-04 1.11232387e-03 1.50000000e-03)	(4.62085696e-02 3.69140092e-02 1.46251948e+00)	(-6.31068897e-04 -5.08944124e-04 1.50000000e-03)
3.60000000e-02	p              	0.00000000e+00	(-5.25000000e-04 0.00000000e+00 2.16000000e-01)	1.38206283e+01	(-1.45036143e-03 -1.43951181e-04 1.50000000e-03)
3.60000000e-02	U              	(-7.44424219e-03 -7.12339607e-02 1.33688163e+00)	(1.04101843e-04 1.11232387e-03 1.50000000e-03)	(4.62211830e-02 3.69239456e-02 1.46289280e+00)	(-6.31068897e-04 -5.08944124e-04 1.50000000e-03)
3.65000000e-02	p              	0.00000000e+00	(-5.25000000e-04 0.00000000e+00 2.16000000e-01)	1.50525050e+01	(-1.45036143e-03 -1.43951181e-04 1.50000000e-03)
3.65000000e-02	U              	(-7.44418799e-03 -7.12476573e-02 1.33708731e+00)	(1.04101843e-04 1.11232387e-03 1.50000000e-03)	(4.62281459e-02 3.69293437e-02 1.46321732e+00)	(-6.31068897e-04 -5.08944124e-04 1.50000000e-03)
3.70000000e-02	p              	0.00000000e+00	(-5.25000000e-04 0.00000000e+00 2.16000000e-01)	1.62217112e+01	(-1.45036143e-03 -1.43951181e-04 1.50000000e-03)
3.70000000e-02	U              	(-7.44351152e-03 -7.12592910e-02 1.33727322e+00)	(1.04101843e-04 1.11232387e-03 1.50000000e-03)	(4.62299647e-02 3.69306264e-02 1.46348491e+00)	(-6.31068897e-04 -5.08944124e-04 1.50000000e-03)
3.75000000e-02	p              	0.00000000e+00	(-5.25000000e-04 0.00000000e+00 2.16000000e-01)	1.73226680e+01	(-1.45036143e-03 -1.43951181e-04 1.50000000e-03)
3.75000000e-02	U              	(-7.44233558e-03 -7.12686589e-02 1.33743433e+00)	(1.04101843e-04 1.11232387e-03 1.50000000e-03)	(4.62273161e-02 3.69283470e-02 1.46369238e+00)	(-6.31068897e-04 -5.08944124e-04 1.50000000e-03)
3.80000000e-02	p              	0.00000000e+00	(-5.25000000e-04 0.00000000e+00 2.16000000e-01)	1.83532471e+01	(-1.45036143e-03 -1.43951181e-04 1.50000000e-03)
3.80000000e-02	U              	(-7.44078423e-03 -7.12757357e-02 1.33756856e+00)	(1.04101843e-04 1.11232387e-03 1.50000000e-03)	(4.62209706e-02 3.69231280e-02 1.46384072e+00)	(-6.31068897e-04 -5.08944124e-04 1.50000000e-03)
3.85000000e-02	p              	0.00000000e+00	(-5.25000000e-04 0.00000000e+00 2.16000000e-01)	1.93139744e+01	(-1.45036143e-03 -1.43951181e-04 1.50000000e-03)
3.85000000e-02	U              	(-7.43897380e-03 -7.12806393e-02 1.33767624e+00)	(1.04101843e-04 1.11232387e-03 1.50000000e-03)	(4.62117229e-02 3.69156066e-02 1.46393428e+00)	(-6.31068897e-04 -5.08944124e-04 1.50000000e-03)
3.90000000e-02	p              	0.00000000e+00	(-5.25000000e-04 0.00000000e+00 2.16000000e-01)	2.02072463e+01	(-1.45036143e-03 -1.43951181e-04 1.50000000e-03)
3.90000000e-02	U              	(-7.43700638e-03 -7.12835928e-02 1.33775954e+00)	(1.04101843e-04 1.11232387e-03 1.50000000e-03)	(4.62003350e-02 3.69063894e-02 1.46397969e+00)	(-6.31068897e-04 -5.08944124e-04 1.50000000e-03)
3.95000000e-02	p              	0.00000000e+00	(-5.25000000e-04 0.00000000e+00 2.16000000e-01)	2.10366094e+01	(-1.45036143e-03 -1.43951181e-04 1.50000000e-03)