/*--------------------------------*- C++ -*----------------------------------*\
| =========                 |                                                 |
| \\      /  F ield         | OpenFOAM: The Open Source CFD Toolbox           |
|  \\    /   O peration     | Version:  2112                                  |
|   \\  /    A nd           | Website:  www.openfoam.com                      |
|    \\/     M anipulation  |                                                 |
\*---------------------------------------------------------------------------*/
FoamFile
{
    version     2.0;
    format      ascii;
    arch        "LSB;label=32;scalar=64";
    class       volScalarField;
    location    "22.5";
    object      p;
}
// * * * * * * * * * * * * * * * * * * * * * * * * * * * * * * * * * * * * * //

dimensions      [0 2 -2 0 0 0 0];

internalField   nonuniform List<scalar> 
8800
(
0.421735
0.37395
0.335261
0.306265
0.285396
0.270556
0.259941
0.25243
0.247554
0.245398
0.246518
0.25056
0.257075
0.266286
0.278988
0.296669
0.321408
0.355321
0.397845
0.456544
0.252986
0.260664
0.268143
0.271453
0.26995
0.26487
0.258376
0.252278
0.247512
0.244588
0.244177
0.246519
0.250859
0.256684
0.263357
0.269563
0.273151
0.272384
0.266922
0.258207
0.231396
0.23756
0.241693
0.244645
0.2467
0.247304
0.246188
0.244057
0.241976
0.240947
0.241748
0.243965
0.246612
0.248663
0.249168
0.247888
0.24548
0.242037
0.237457
0.233689
0.225602
0.228257
0.231026
0.233447
0.235097
0.236264
0.236996
0.23708
0.236714
0.236537
0.237104
0.238084
0.23875
0.238663
0.237927
0.236732
0.234829
0.232186
0.229741
0.228236
0.220251
0.221682
0.223495
0.225569
0.22739
0.228756
0.229744
0.230508
0.231049
0.231469
0.231906
0.232171
0.232059
0.231585
0.230721
0.229323
0.227497
0.225543
0.224179
0.22335
0.215224
0.216148
0.21744
0.219073
0.220771
0.222351
0.223665
0.224712
0.225592
0.226321
0.226755
0.226805
0.226499
0.225809
0.224694
0.223285
0.221778
0.220371
0.219481
0.218939
0.210424
0.211091
0.21213
0.213548
0.215069
0.216621
0.218131
0.219478
0.220607
0.221517
0.222038
0.222059
0.221612
0.22075
0.219626
0.218389
0.217114
0.215986
0.21532
0.214934
0.205834
0.206339
0.207217
0.208499
0.209922
0.211416
0.212948
0.214446
0.215795
0.216898
0.217544
0.217593
0.217126
0.216311
0.215309
0.214216
0.213106
0.212166
0.211642
0.211354
0.201444
0.201822
0.202587
0.203789
0.205173
0.206618
0.208112
0.209659
0.211189
0.21254
0.213331
0.213451
0.2131
0.21246
0.211632
0.21067
0.209675
0.208865
0.208453
0.208243
0.197278
0.197561
0.198236
0.19939
0.200756
0.20222
0.203766
0.20534
0.206915
0.20841
0.209467
0.209888
0.2098
0.209325
0.208606
0.207757
0.206859
0.206159
0.205837
0.205685
0.193351
0.193541
0.194154
0.195287
0.196642
0.198091
0.199669
0.201392
0.203205
0.204979
0.206322
0.206966
0.207049
0.206762
0.206234
0.205533
0.204736
0.204124
0.203881
0.203787
0.189813
0.189925
0.190422
0.191408
0.192623
0.193979
0.195503
0.197217
0.199131
0.201186
0.20292
0.203995
0.2045
0.204593
0.204377
0.203957
0.203419
0.203
0.202856
0.202805
0.186485
0.186546
0.186919
0.187749
0.188863
0.190192
0.191777
0.193667
0.195863
0.198312
0.200521
0.202016
0.202855
0.203246
0.203337
0.203213
0.202962
0.202774
0.202722
0.202687
0.182905
0.182958
0.18324
0.183897
0.18487
0.186112
0.187703
0.189705
0.192189
0.195128
0.197933
0.200002
0.201407
0.202258
0.202754
0.203009
0.2031
0.203142
0.20315
0.203113
0.17861
0.178665
0.178928
0.179523
0.180457
0.181754
0.183499
0.1858
0.188736
0.192316
0.195855
0.198588
0.200473
0.201779
0.202665
0.203247
0.203625
0.203821
0.203859
0.203815
0.173355
0.173414
0.173721
0.174363
0.175371
0.176826
0.178864
0.181598
0.185165
0.189581
0.19401
0.197487
0.200014
0.201797
0.203022
0.203893
0.204482
0.204766
0.204827
0.20478
0.167011
0.167066
0.167427
0.168226
0.169437
0.171209
0.173675
0.177027
0.181406
0.186867
0.192408
0.196816
0.200007
0.202258
0.203931
0.205126
0.205849
0.20619
0.20628
0.206233
0.159546
0.159586
0.160023
0.161024
0.162561
0.164805
0.167888
0.172048
0.177484
0.184264
0.191166
0.196681
0.200713
0.203609
0.205673
0.207105
0.207976
0.208397
0.208529
0.208482
0.150853
0.150888
0.151411
0.152676
0.154635
0.157418
0.1613
0.166484
0.173243
0.18167
0.190241
0.197109
0.202159
0.205786
0.208371
0.210083
0.211152
0.211696
0.211873
0.211822
0.140634
0.140666
0.141301
0.142789
0.145314
0.148849
0.153694
0.1602
0.168653
0.179131
0.189745
0.198246
0.2045
0.208999
0.212177
0.214315
0.215649
0.216348
0.216569
0.216506
0.128305
0.128348
0.12914
0.131004
0.134134
0.138621
0.144768
0.153001
0.163615
0.176654
0.18975
0.20019
0.207858
0.213399
0.2173
0.219959
0.221642
0.222522
0.222787
0.222707
0.113015
0.113076
0.114112
0.116544
0.120537
0.126287
0.134188
0.144698
0.158091
0.174306
0.190388
0.203117
0.212463
0.219191
0.223955
0.227234
0.22933
0.230408
0.230728
0.230625
0.0936103
0.0937107
0.0951415
0.0984124
0.103732
0.111298
0.121633
0.135182
0.152114
0.172203
0.191805
0.20718
0.218439
0.226565
0.232347
0.236363
0.238955
0.240285
0.240656
0.240525
0.0682562
0.0684271
0.0705294
0.0752264
0.0826746
0.0930204
0.106828
0.124429
0.145808
0.170526
0.194179
0.212546
0.22597
0.235698
0.242677
0.247576
0.250749
0.252358
0.252788
0.252621
0.0339384
0.0342921
0.037762
0.0451402
0.0561881
0.0708735
0.0896474
0.112586
0.139434
0.16953
0.197704
0.219348
0.235156
0.246692
0.255072
0.261043
0.264938
0.266882
0.267363
0.267147
-0.0151514
-0.0137985
-0.00678736
0.00608834
0.0234024
0.0447918
0.070431
0.100128
0.13342
0.169515
0.202543
0.227653
0.246
0.259514
0.269502
0.27677
0.281593
0.283977
0.284514
0.284227
-0.0883255
-0.0800542
-0.0638487
-0.0409894
-0.014231
0.0161263
0.0501701
0.0876696
0.128143
0.170821
0.209176
0.238179
0.259491
0.275426
0.287519
0.296648
0.302939
0.306206
0.307035
0.306877
-0.166691
-0.147876
-0.121853
-0.0886293
-0.052143
-0.012678
0.0298765
0.0754017
0.123518
0.173571
0.218351
0.252379
0.277686
0.296952
0.311936
0.323637
0.332048
0.336859
0.338467
0.338494
-0.230238
-0.208726
-0.17467
-0.133036
-0.0879968
-0.0400545
0.0106495
0.0639343
0.119431
0.176515
0.227254
0.265775
0.294535
0.316583
0.333823
0.347263
0.357308
0.363101
0.36437
0.364564
-0.281942
-0.258453
-0.219431
-0.171775
-0.120057
-0.0651105
-0.00730514
0.053004
0.115302
0.178888
0.235016
0.2774
0.308913
0.332973
0.351726
0.366382
0.377254
0.383458
0.385007
0.385312
-0.324562
-0.300123
-0.257576
-0.205311
-0.148263
-0.087604
-0.0237861
0.0426647
0.111063
0.18051
0.241407
0.287036
0.320696
0.346208
0.365964
0.381357
0.392584
0.39914
0.40107
0.401387
-0.360934
-0.33595
-0.290793
-0.234833
-0.17343
-0.107955
-0.0389699
0.0328642
0.106708
0.181446
0.246609
0.295021
0.330388
0.356924
0.377255
0.392927
0.404261
0.410909
0.413001
0.413272
-0.392997
-0.36769
-0.320535
-0.261504
-0.196425
-0.126793
-0.0532756
0.02337
0.102158
0.181776
0.250873
0.301811
0.338665
0.366001
0.386675
0.402417
0.413744
0.42041
0.42263
0.422883
-0.422195
-0.396593
-0.3478
-0.286169
-0.217941
-0.14467
-0.0671065
0.0139005
0.0972605
0.18147
0.254365
0.307758
0.346001
0.374051
0.39504
0.410845
0.422165
0.42877
0.431085
0.431316
-0.449383
-0.423517
-0.373304
-0.309434
-0.238437
-0.161954
-0.0807761
0.00421353
0.0918451
0.180468
0.257082
0.312933
0.352643
0.381501
0.402874
0.418815
0.430123
0.436603
0.438957
0.439264
-0.475262
-0.449067
-0.39754
-0.33175
-0.258284
-0.178946
-0.0945054
-0.00586421
0.0857661
0.178639
0.259009
0.317499
0.358868
0.38868
0.410546
0.426695
0.438047
0.444429
0.446715
0.447014
-0.500117
-0.473578
-0.420932
-0.353377
-0.277711
-0.195814
-0.108434
-0.0164542
0.0789277
0.17596
0.260227
0.32156
0.36478
0.395738
0.418259
0.43474
0.446197
0.452526
0.454673
0.454901
-0.524283
-0.497338
-0.443695
-0.374494
-0.296866
-0.212687
-0.122651
-0.0276077
0.0713024
0.172403
0.260633
0.325049
0.370403
0.402745
0.426105
0.443044
0.454665
0.460954
0.462932
0.463067
-0.547816
-0.520363
-0.465919
-0.395213
-0.315838
-0.229611
-0.137181
-0.0393419
0.0628516
0.16785
0.260118
0.327892
0.375719
0.409708
0.434098
0.451618
0.463447
0.469685
0.471524
0.471523
-0.570797
-0.542917
-0.487584
-0.415571
-0.334637
-0.246584
-0.152023
-0.0516724
0.0535262
0.16224
0.258591
0.32998
0.380615
0.416578
0.442217
0.460439
0.472503
0.478634
0.480305
0.480182
-0.593309
-0.564927
-0.50875
-0.435564
-0.353253
-0.263588
-0.167148
-0.0645694
0.0433526
0.155559
0.255938
0.331153
0.384967
0.423282
0.450434
0.469465
0.481753
0.487693
0.489137
0.488914
-0.615359
-0.586415
-0.529434
-0.455175
-0.371639
-0.280571
-0.182488
-0.0779592
0.0323878
0.147782
0.252061
0.331231
0.388583
0.429711
0.458734
0.47869
0.491107
0.496736
0.497896
0.497585
-0.636783
-0.607316
-0.549571
-0.474359
-0.389742
-0.297452
-0.197963
-0.0917492
0.0206989
0.13894
0.24688
0.330031
0.391212
0.435689
0.467129
0.488218
0.500553
0.505587
0.506369
0.50598
-0.657529
-0.627572
-0.569127
-0.493055
-0.407499
-0.314163
-0.213477
-0.105855
0.00837444
0.129083
0.240355
0.327378
0.39257
0.440931
0.475586
0.49835
0.510345
0.51416
0.514313
0.513883
-0.677672
-0.647147
-0.588065
-0.511223
-0.424842
-0.330621
-0.228939
-0.120166
-0.00447262
0.1183
0.232474
0.323138
0.39233
0.444972
0.483863
0.509532
0.521429
0.522947
0.521578
0.521185
-0.697033
-0.666023
-0.60633
-0.528796
-0.441711
-0.346741
-0.244252
-0.134563
-0.0177129
0.106713
0.223282
0.317213
0.3902
0.447147
0.491229
0.521822
0.535622
0.534687
0.529668
0.528178
-0.715702
-0.684191
-0.623943
-0.545799
-0.458139
-0.362572
-0.259472
-0.149107
-0.0314168
0.0942528
0.212663
0.30936
0.385875
0.446629
0.49623
0.534006
0.553806
0.555388
0.545184
0.525746
-0.733618
-0.701655
-0.641027
-0.56242
-0.474413
-0.37844
-0.275013
-0.164282
-0.0461324
0.0802572
0.199919
0.298707
0.378596
0.442216
0.495774
0.541257
0.567513
0.564823
0.549782
0.527595
-0.750619
-0.718573
-0.657406
-0.578409
-0.490245
-0.394004
-0.290646
-0.179757
-0.0615282
0.0650431
0.185254
0.285038
0.367935
0.433307
0.484772
0.531469
0.557764
0.54612
0.474866
0.437233
-0.766086
-0.736033
-0.67273
-0.593192
-0.504934
-0.408795
-0.306085
-0.195309
-0.077384
0.0487636
0.168699
0.26826
0.353099
0.420269
0.46204
0.493487
0.504972
0.458478
0.384283
0.336996
-0.820706
-0.751039
-0.686699
-0.6081
-0.519884
-0.424176
-0.321393
-0.211196
-0.0940282
0.031037
0.149792
0.248076
0.331414
0.40495
0.409995
0.423611
0.393639
0.329361
0.24885
0.203241
-0.781679
-0.766206
-0.706838
-0.629295
-0.541472
-0.446193
-0.344527
-0.235366
-0.119758
0.00297384
0.118367
0.213122
0.287756
0.358254
0.359587
0.249839
0.140615
0.0655023
-0.0119886
0.027061
-0.811474
-0.783038
-0.723192
-0.64577
-0.558302
-0.463412
-0.361686
-0.253383
-0.139161
-0.0187035
0.0932324
0.183539
0.250393
0.287585
0.239593
0.0878946
-0.0503087
-0.1495
-0.256243
-0.194613
-0.834314
-0.802778
-0.742057
-0.664277
-0.576906
-0.482214
-0.380756
-0.273498
-0.160961
-0.0432921
0.0645069
0.149079
0.206118
0.214285
0.102626
-0.0896637
-0.258635
-0.393078
-0.545182
-0.489778
-0.856397
-0.82337
-0.761649
-0.683123
-0.595647
-0.501144
-0.400329
-0.294224
-0.183541
-0.068966
0.0340071
0.112215
0.156368
0.126917
-0.0427796
-0.266849
-0.482681
-0.680138
-0.905145
-0.896296
-0.877557
-0.844354
-0.781882
-0.702716
-0.615109
-0.520853
-0.420778
-0.315921
-0.207305
-0.0961286
0.00151643
0.0727285
0.0992624
0.034853
-0.182803
-0.42676
-0.681092
-0.910077
-1.19952
-1.5522
-0.898848
-0.865855
-0.802988
-0.723422
-0.635678
-0.541625
-0.442213
-0.338613
-0.232135
-0.124526
-0.0324028
0.0310373
0.0406957
-0.0752815
-0.305795
-0.550437
-0.797482
-1.00855
-1.08993
-1.21477
-0.921011
-0.888244
-0.825248
-0.745541
-0.657777
-0.56401
-0.465342
-0.363153
-0.259099
-0.155506
-0.0693207
-0.0150196
-0.0291017
-0.192208
-0.41447
-0.639467
-0.837215
-0.955
-0.979063
-1.00238
-0.944378
-0.911803
-0.848788
-0.769107
-0.681479
-0.588143
-0.490428
-0.38992
-0.288677
-0.189685
-0.109873
-0.0663703
-0.106435
-0.299415
-0.513432
-0.711991
-0.864413
-0.92178
-0.937357
-0.940713
-0.969146
-0.936657
-0.873644
-0.794057
-0.70668
-0.613962
-0.517407
-0.418871
-0.320833
-0.227026
-0.154136
-0.123788
-0.185794
-0.401512
-0.605979
-0.783893
-0.898401
-0.910488
-0.915086
-0.915631
-0.995238
-0.962646
-0.899826
-0.820323
-0.733323
-0.641371
-0.546182
-0.449906
-0.355444
-0.267367
-0.202002
-0.183431
-0.275861
-0.498803
-0.692668
-0.848011
-0.890824
-0.903716
-0.906407
-0.906218
-1.02237
-0.989641
-0.927101
-0.847763
-0.761237
-0.670215
-0.576597
-0.482849
-0.392341
-0.310393
-0.253155
-0.246373
-0.378719
-0.592616
-0.772183
-0.890998
-0.909095
-0.904056
-0.903814
-0.903336
-1.04993
-1.01741
-0.955071
-0.876073
-0.790158
-0.70022
-0.60836
-0.517373
-0.431172
-0.355666
-0.306743
-0.317512
-0.478175
-0.683182
-0.850707
-0.894014
-0.91068
-0.908117
-0.904392
-0.903505
-1.07759
-1.04536
-0.983271
-0.904878
-0.819672
-0.730939
-0.641026
-0.552978
-0.471338
-0.402579
-0.361738
-0.39097
-0.573704
-0.772261
-0.923316
-0.95759
-0.935466
-0.914796
-0.90282
-0.899624
-1.10436
-1.07275
-1.01129
-0.933472
-0.849136
-0.761774
-0.673945
-0.588962
-0.511918
-0.450222
-0.417459
-0.46095
-0.659392
-0.864834
-0.995083
-0.996554
-0.96405
-0.947237
-0.937613
-0.931437
-1.1292
-1.09824
-1.0382
-0.961089
-0.877779
-0.791896
-0.70622
-0.624374
-0.551747
-0.497227
-0.472902
-0.530085
-0.729108
-0.922677
-1.10724
-1.09991
-1.08917
-1.08746
-1.0809
-1.06899
-1.1508
-1.12112
-1.06253
-0.986701
-0.904652
-0.820317
-0.736725
-0.657932
-0.589447
-0.541544
-0.525899
-0.598926
-0.801382
-0.922976
-1.13373
-1.20011
-1.26777
-1.31271
-1.30415
-1.30055
-1.16768
-1.13984
-1.0833
-1.00904
-0.9285
-0.84581
-0.764196
-0.687951
-0.62332
-0.580403
-0.576136
-0.668051
-0.91899
-0.906198
-0.55972
-0.866675
-1.31679
-1.44954
-1.43576
-1.43514
-1.17839
-1.15301
-1.09917
-1.02688
-0.947991
-0.866999
-0.787121
-0.712593
-0.650824
-0.612242
-0.621137
-0.744522
-1.11047
-1.32553
-1.30709
-1.57773
-1.66993
-1.62365
-1.52633
-1.54551
-1.18123
-1.15924
-1.10883
-1.03898
-0.961907
-0.882492
-0.803844
-0.730165
-0.668675
-0.633449
-0.64981
-0.828319
-1.40641
-2.36987
-3.29315
-3.75859
-3.61182
-3.04183
-2.54853
-2.37388
-1.17545
-1.1572
-1.11111
-1.04438
-0.969259
-0.891176
-0.812987
-0.738761
-0.674729
-0.634675
-0.648993
-0.831251
-1.46715
-2.37366
-3.22106
-3.54433
-3.49331
-3.18388
-2.81251
-2.62155
-1.15986
-1.14523
-1.10521
-1.04259
-0.96958
-0.892468
-0.813875
-0.736962
-0.667466
-0.613062
-0.603895
-0.657165
-0.93242
-1.14702
-1.30913
-1.2744
-1.07796
-0.839976
-0.637756
-0.527557
-1.13552
-1.12498
-1.09142
-1.034
-0.963185
-0.886679
-0.806705
-0.725852
-0.645662
-0.573041
-0.507676
-0.428355
-0.264426
0.107178
0.570077
1.02989
1.37244
1.58565
1.6959
1.7323
-1.10489
-1.09829
-1.07195
-1.02022
-0.951524
-0.875193
-0.793628
-0.707647
-0.617702
-0.522271
-0.420401
-0.323273
0.0175972
0.622717
1.27605
1.85138
2.27055
2.5114
2.61518
2.64573
-1.0717
-1.06802
-1.05019
-1.00371
-0.936757
-0.860285
-0.77736
-0.688604
-0.592886
-0.482956
-0.372097
-0.251596
-0.0419295
0.511811
1.10685
1.6197
1.98831
2.20378
2.30654
2.34176
-1.04089
-1.03909
-1.0282
-0.987313
-0.920881
-0.843486
-0.76047
-0.672098
-0.575567
-0.465863
-0.35144
-0.2347
-0.101298
0.232593
0.663469
1.02307
1.29835
1.4674
1.55037
1.57787
-1.00591
-1.00699
-1.0009
-0.964314
-0.89871
-0.821778
-0.742363
-0.658777
-0.568123
-0.464806
-0.357151
-0.254941
-0.150449
0.0309187
0.31539
0.574301
0.77289
0.899108
0.965868
0.985674
-0.943378
-0.945728
-0.941735
-0.91156
-0.854741
-0.787741
-0.717851
-0.644427
-0.563544
-0.470439
-0.373333
-0.289079
-0.205155
-0.10379
0.0805963
0.253656
0.386
0.468586
0.506404
0.516753
-0.844898
-0.845795
-0.841975
-0.822927
-0.785063
-0.737602
-0.684886
-0.626103
-0.557941
-0.477237
-0.396363
-0.335329
-0.287232
-0.234091
-0.10904
0.0128034
0.0998472
0.15173
0.175681
0.179225
-0.74611
-0.74561
-0.742836
-0.733564
-0.714366
-0.686277
-0.651501
-0.608166
-0.552625
-0.481987
-0.411044
-0.367372
-0.359367
-0.337502
-0.24512
-0.157507
-0.094287
-0.0589617
-0.0442228
-0.0437251
-0.680691
-0.679592
-0.677727
-0.674077
-0.665104
-0.649839
-0.627985
-0.597032
-0.552054
-0.486818
-0.417872
-0.374721
-0.370942
-0.354918
-0.289841
-0.234791
-0.1997
-0.182013
-0.175379
-0.175939
-0.654208
-0.653095
-0.65151
-0.649313
-0.644339
-0.635057
-0.620804
-0.598699
-0.561475
-0.500428
-0.423099
-0.36171
-0.329859
-0.310974
-0.280173
-0.2545
-0.240946
-0.23396
-0.231642
-0.232281
-0.657868
-0.656837
-0.655518
-0.653973
-0.650918
-0.645507
-0.63733
-0.623953
-0.597141
-0.540551
-0.453928
-0.361652
-0.299763
-0.277932
-0.273926
-0.266584
-0.252649
-0.242199
-0.236512
-0.237774
-0.683325
-0.682584
-0.682016
-0.681806
-0.681532
-0.681565
-0.682682
-0.684181
-0.678885
-0.647527
-0.563127
-0.437607
-0.342821
-0.318327
-0.310222
-0.287549
-0.266387
-0.245956
-0.237238
-0.239192
-0.721585
-0.721517
-0.72231
-0.724558
-0.729318
-0.738919
-0.75697
-0.788316
-0.834946
-0.87552
-0.813481
-0.643937
-0.51139
-0.465491
-0.419502
-0.357535
-0.291539
-0.247625
-0.233869
-0.239301
-0.76027
-0.761203
-0.764012
-0.770001
-0.782291
-0.806218
-0.85093
-0.933953
-1.07995
-1.25733
-1.24054
-0.98595
-0.779451
-0.689629
-0.586001
-0.469546
-0.367251
-0.305841
-0.293793
-0.297042
-0.78316
-0.785376
-0.790429
-0.800713
-0.821652
-0.862084
-0.939126
-1.08963
-1.37313
-1.76301
-1.80358
-1.43176
-1.10141
-0.933578
-0.782764
-0.621982
-0.494056
-0.429061
-0.427123
-0.432904
-0.773934
-0.776936
-0.783501
-0.797152
-0.824539
-0.877817
-0.980545
-1.18602
-1.58029
-2.13339
-2.28495
-1.84906
-1.39934
-1.17794
-0.992093
-0.835771
-0.737535
-0.695877
-0.687776
-0.691156
-0.721286
-0.724527
-0.731462
-0.74576
-0.77486
-0.83104
-0.939838
-1.1576
-1.57518
-2.14986
-2.32008
-1.91218
-1.5235
-1.32133
-1.15589
-1.07489
-1.036
-1.01048
-0.992015
-0.987079
-0.626678
-0.629374
-0.635123
-0.647108
-0.67189
-0.719894
-0.813095
-0.999596
-1.35618
-1.81977
-1.91722
-1.64498
-1.41419
-1.25779
-1.17936
-1.16735
-1.1709
-1.14964
-1.13072
-1.12268
-0.504018
-0.505653
-0.509194
-0.516984
-0.53374
-0.566663
-0.630746
-0.758783
-1.00767
-1.33932
-1.42163
-1.28858
-1.14969
-1.02823
-1.01018
-1.05215
-1.06404
-1.0526
-1.04168
-1.03571
-0.373575
-0.374076
-0.375347
-0.378765
-0.387036
-0.403977
-0.437376
-0.504313
-0.638187
-0.839855
-0.911142
-0.850797
-0.748573
-0.711587
-0.75887
-0.819392
-0.831416
-0.828755
-0.825682
-0.824141
-0.254001
-0.25366
-0.253325
-0.253522
-0.255367
-0.260061
-0.270024
-0.290556
-0.332438
-0.410375
-0.444937
-0.407925
-0.385261
-0.434691
-0.522824
-0.568766
-0.579505
-0.582699
-0.583583
-0.583043
-0.156979
-0.156227
-0.155125
-0.153724
-0.152104
-0.149975
-0.146986
-0.142533
-0.134871
-0.114645
-0.094976
-0.101027
-0.171444
-0.259294
-0.326051
-0.355935
-0.368573
-0.374151
-0.377457
-0.378228
-0.0861237
-0.0853088
-0.0841068
-0.0824064
-0.0797695
-0.0753464
-0.0680034
-0.0559221
-0.0362594
-0.00669854
0.014895
-0.00959809
-0.0798407
-0.145916
-0.189114
-0.209762
-0.21996
-0.225507
-0.228991
-0.230077
-0.0391737
-0.0384899
-0.0375248
-0.0361837
-0.0338921
-0.0297339
-0.0226801
-0.0113593
0.00551744
0.0261582
0.0337145
0.00994742
-0.0367358
-0.0790846
-0.106714
-0.121261
-0.128349
-0.132279
-0.134815
-0.135667
-0.0110786
-0.0105839
-0.00992711
-0.00913219
-0.00762859
-0.00466539
0.000474022
0.00851969
0.0195883
0.03065
0.0298838
0.0106661
-0.0184464
-0.0440942
-0.0610961
-0.0703741
-0.0748833
-0.0773406
-0.0789059
-0.0794387
0.00357505
0.00389892
0.00428574
0.00462707
0.00539408
0.00714167
0.0103135
0.0152075
0.0214328
0.0262358
0.0223672
0.00823591
-0.00974227
-0.0250376
-0.0353378
-0.0410223
-0.0437987
-0.0452625
-0.0461667
-0.046471
0.00933427
0.00952984
0.009724
0.00977207
0.0100421
0.0108856
0.0125857
0.015224
0.0183217
0.0198397
0.0156665
0.00601521
-0.00493365
-0.0139927
-0.0200986
-0.0235583
-0.025251
-0.0261389
-0.0266574
-0.026828
0.0095394
0.00964882
0.00972341
0.00962537
0.00960727
0.00990039
0.0106786
0.011937
0.0132922
0.0134394
0.0102054
0.00418989
-0.00215589
-0.00729372
-0.010775
-0.0128061
-0.0138512
-0.0143038
-0.0145953
-0.0146905
0.00643697
0.00649129
0.00650068
0.00636063
0.00623603
0.00627305
0.0065611
0.00707221
0.00757852
0.00740087
0.00554242
0.00245528
-0.000655458
-0.00313375
-0.00481448
-0.00580661
-0.00631673
-0.00656488
-0.00670801
-0.00676273
0.00146214
0.00147659
0.0015609
0.00164225
0.00163474
0.00160076
0.0015848
0.00160113
0.0016269
0.00157961
0.00128703
0.000680694
-1.06312e-05
-0.000622789
-0.00107255
-0.00133793
-0.00140727
-0.00132589
-0.00123396
-0.00119907
-0.63666
-0.433297
-0.200604
-0.00419902
0.154251
0.281381
0.388212
0.47835
0.519005
0.49642
-0.269284
-0.127045
0.023074
0.153211
0.263522
0.355629
0.430413
0.483656
0.511053
0.5226
-0.0129533
0.0829776
0.184359
0.274473
0.352214
0.417402
0.4692
0.507019
0.533836
0.551228
0.169828
0.236272
0.30732
0.37213
0.42842
0.476121
0.515096
0.545921
0.570571
0.588495
0.309249
0.357453
0.408806
0.457533
0.500485
0.53778
0.569482
0.595603
0.617143
0.634757
0.422247
0.458313
0.499714
0.538467
0.573802
0.605268
0.632587
0.655363
0.673976
0.691224
0.520153
0.55068
0.586949
0.621023
0.652667
0.681254
0.70612
0.726666
0.742696
0.75975
0.612064
0.642417
0.677833
0.711082
0.741739
0.769227
0.792816
0.811842
0.825585
0.842637
0.709454
0.743282
0.780807
0.815159
0.845875
0.872637
0.895057
0.912685
0.924819
0.942253
0.825816
0.86383
0.903055
0.93783
0.967594
0.992696
1.01336
1.02948
1.04113
1.05923
0.971633
1.01047
1.04672
1.07767
1.1036
1.12591
1.14514
1.16081
1.17335
1.19138
1.14685
1.17884
1.2052
1.22776
1.24788
1.26673
1.28455
1.30111
1.31653
1.33462
1.33574
1.35309
1.3683
1.38465
1.40063
1.41523
1.4285
1.44248
1.46007
1.48024
1.51786
1.5273
1.53888
1.54973
1.55905
1.5687
1.57957
1.59098
1.60237
1.61774
1.72502
1.72872
1.7138
1.69901
1.6928
1.69853
1.71702
1.74736
1.77956
1.80623
2.03137
1.89651
1.81992
1.77764
1.76023
1.7642
1.79164
1.84805
1.95068
2.17505
0.312332
0.310203
0.305717
0.297092
0.284868
0.272737
0.2625
0.254582
0.248918
0.245579
0.245086
0.24766
0.252613
0.259711
0.269002
0.280468
0.293063
0.304059
0.310154
0.313192
0.236786
0.242634
0.248974
0.253471
0.255941
0.255614
0.252871
0.249041
0.245481
0.243127
0.242834
0.244856
0.248361
0.252516
0.256214
0.258015
0.257017
0.253485
0.248284
0.241648
0.22837
0.230667
0.234079
0.237089
0.239177
0.240681
0.241433
0.241095
0.240021
0.239039
0.239052
0.240288
0.241922
0.243071
0.243122
0.242125
0.240488
0.238081
0.234767
0.231827
0.222879
0.223964
0.225813
0.22822
0.230272
0.231719
0.232743
0.233474
0.23382
0.233929
0.234238
0.234825
0.235214
0.235094
0.234523
0.233537
0.231949
0.229763
0.227603
0.226197
0.217711
0.21837
0.219503
0.221256
0.223088
0.224764
0.226085
0.22709
0.227916
0.228593
0.229116
0.229393
0.229325
0.228927
0.228149
0.226904
0.225309
0.223624
0.222207
0.221403
0.212791
0.21324
0.214062
0.215448
0.217032
0.218638
0.220171
0.221495
0.22258
0.223489
0.224154
0.224411
0.224243
0.223657
0.222661
0.221401
0.220032
0.21869
0.21764
0.217101
0.208111
0.208439
0.209091
0.210271
0.211696
0.213186
0.21472
0.216225
0.217588
0.218727
0.219542
0.219843
0.219593
0.218898
0.217917
0.216797
0.215632
0.214497
0.213662
0.213265
0.203605
0.203843
0.204381
0.205449
0.206804
0.20825
0.209745
0.211279
0.212783
0.214134
0.215135
0.21553
0.215333
0.214728
0.213885
0.212903
0.211846
0.210845
0.210152
0.209856
0.199339
0.19951
0.199952
0.20092
0.202214
0.203622
0.205091
0.206607
0.208162
0.209689
0.210906
0.211472
0.211462
0.211072
0.210412
0.209575
0.208647
0.207777
0.207214
0.206995
0.195272
0.195384
0.19576
0.19669
0.197993
0.199419
0.200956
0.202592
0.204272
0.20593
0.207381
0.208269
0.208516
0.208275
0.207716
0.206983
0.206141
0.20534
0.204863
0.204708
0.191539
0.191594
0.191896
0.192734
0.193944
0.195284
0.196735
0.198343
0.200148
0.202076
0.203855
0.205042
0.205563
0.205646
0.205413
0.204939
0.204311
0.203677
0.203319
0.203228
0.188146
0.188166
0.188386
0.189071
0.190133
0.19139
0.192842
0.194516
0.196427
0.198562
0.200728
0.202389
0.20336
0.203787
0.203835
0.20365
0.203309
0.202931
0.202738
0.202695
0.184762
0.18477
0.184932
0.185458
0.186364
0.187532
0.188944
0.190697
0.192844
0.19538
0.198052
0.200215
0.20162
0.202449
0.202887
0.203049
0.203032
0.202948
0.202915
0.202895
0.180864
0.18087
0.181014
0.18144
0.182216
0.183315
0.184752
0.186619
0.189012
0.191978
0.195273
0.198119
0.200111
0.201459
0.202315
0.202884
0.203215
0.20341
0.20349
0.203479
0.176119
0.176122
0.176289
0.17672
0.177493
0.178645
0.180238
0.182427
0.185299
0.188911
0.193
0.196602
0.199215
0.201034
0.202319
0.203193
0.203808
0.204183
0.204318
0.20431
0.170324
0.170317
0.170505
0.171019
0.171913
0.173243
0.175131
0.177726
0.181192
0.185627
0.190718
0.19527
0.19862
0.201048
0.202722
0.203896
0.204791
0.205303
0.205484
0.205491
0.163421
0.163399
0.163615
0.164276
0.16537
0.167037
0.169371
0.172598
0.176886
0.182379
0.188706
0.194402
0.198631
0.201664
0.203845
0.205443
0.206482
0.207065
0.20729
0.207312
0.155363
0.155321
0.155566
0.156351
0.157849
0.159917
0.162842
0.166856
0.172189
0.179006
0.186864
0.193964
0.199256
0.203084
0.205825
0.207761
0.20902
0.209739
0.210043
0.210084
0.145939
0.145878
0.146178
0.147146
0.148944
0.151639
0.155321
0.160344
0.167002
0.175486
0.18524
0.194041
0.200627
0.205408
0.208808
0.211179
0.212731
0.213638
0.214033
0.214087
0.134744
0.134671
0.135064
0.136278
0.138469
0.141836
0.146479
0.152816
0.16118
0.17178
0.183877
0.194741
0.202852
0.208741
0.212948
0.215871
0.217815
0.218977
0.219475
0.219537
0.121024
0.120937
0.121478
0.123038
0.125792
0.129994
0.135936
0.144022
0.154617
0.167887
0.182852
0.19618
0.206095
0.213312
0.218449
0.222038
0.224456
0.225913
0.226527
0.2266
0.103788
0.103688
0.104458
0.106525
0.110129
0.1156
0.123324
0.133757
0.147243
0.163857
0.182291
0.198523
0.21054
0.219271
0.225512
0.229896
0.232877
0.234671
0.235416
0.235493
0.0815832
0.0814844
0.0826388
0.0855322
0.0904537
0.0978475
0.108146
0.121796
0.139048
0.159804
0.182349
0.201926
0.216339
0.226815
0.234337
0.239666
0.243324
0.24552
0.246412
0.246497
0.0520702
0.0520178
0.0538777
0.0582205
0.0653696
0.0758445
0.0899781
0.108075
0.130174
0.155941
0.183228
0.206557
0.223636
0.236078
0.245081
0.251528
0.255995
0.258664
0.259724
0.259809
0.0110779
0.0112263
0.0146451
0.0220316
0.0333193
0.0488974
0.0687351
0.0928317
0.120967
0.152594
0.185168
0.212559
0.232512
0.24711
0.257798
0.265577
0.271054
0.274301
0.275529
0.275601
-0.0491028
-0.0476719
-0.0393956
-0.0255377
-0.00656867
0.0171434
0.0449809
0.0767163
0.111994
0.150167
0.18838
0.219994
0.242927
0.259794
0.272316
0.281615
0.288282
0.292248
0.293684
0.293748
-0.121142
-0.118822
-0.103189
-0.0790638
-0.0495287
-0.0163064
0.0203145
0.0602638
0.103261
0.148747
0.193645
0.230682
0.257768
0.278005
0.293341
0.305032
0.313652
0.318681
0.320189
0.320423
-0.195251
-0.187754
-0.164718
-0.130599
-0.0913425
-0.0489117
-0.00357657
0.0445786
0.0953182
0.148163
0.199864
0.242443
0.273732
0.297379
0.315653
0.329879
0.340545
0.346355
0.348844
0.349498
-0.253854
-0.244664
-0.216825
-0.175984
-0.129239
-0.0790693
-0.026006
0.0297134
0.0877498
0.14755
0.205559
0.253098
0.28798
0.314347
0.334718
0.350589
0.362526
0.369549
0.373085
0.373922
-0.301437
-0.291707
-0.260446
-0.214768
-0.162315
-0.105976
-0.0464774
0.0158117
0.0803753
0.146525
0.210255
0.262117
0.299913
0.328315
0.350158
0.367153
0.37997
0.388043
0.39189
0.392793
-0.341123
-0.331235
-0.297766
-0.248341
-0.191325
-0.129974
-0.0650649
0.00289948
0.0732312
0.145068
0.213926
0.269548
0.309729
0.339647
0.362464
0.38009
0.393382
0.401911
0.405942
0.406887
-0.37558
-0.365658
-0.330564
-0.278116
-0.21735
-0.151756
-0.0821857
-0.00925889
0.0662234
0.143208
0.216743
0.275737
0.317959
0.349068
0.372528
0.390436
0.403825
0.412483
0.416489
0.417534
-0.406377
-0.396468
-0.360145
-0.305186
-0.241289
-0.172047
-0.0983796
-0.021012
0.0591521
0.140905
0.218814
0.280991
0.32513
0.357291
0.381247
0.399331
0.412729
0.421482
0.425476
0.426472
-0.434715
-0.42479
-0.387448
-0.330351
-0.263769
-0.191336
-0.114043
-0.0326721
0.0517968
0.138033
0.220182
0.285478
0.331472
0.364677
0.389155
0.407465
0.420928
0.429668
0.433706
0.434508
-0.461362
-0.451391
-0.413145
-0.354228
-0.285251
-0.209997
-0.129479
-0.0444784
0.043976
0.134468
0.220747
0.289205
0.337192
0.371579
0.396695
0.415293
0.428848
0.437581
0.44161
0.442321
-0.486784
-0.476772
-0.437706
-0.377198
-0.306066
-0.228301
-0.144883
-0.0565847
0.0355507
0.130087
0.220479
0.292297
0.3425
0.37824
0.404136
0.423145
0.436881
0.445617
0.449597
0.450287
-0.511398
-0.501245
-0.461353
-0.399466
-0.326415
-0.246406
-0.160387
-0.0690987
0.0264541
0.124866
0.219402
0.294737
0.347385
0.384723
0.411592
0.431158
0.44517
0.453959
0.45782
0.458497
-0.535364
-0.524991
-0.484435
-0.421192
-0.346423
-0.264424
-0.176063
-0.0820533
0.0166576
0.118766
0.217389
0.296424
0.351812
0.391039
0.419108
0.439387
0.453762
0.462625
0.466364
0.466992
-0.558723
-0.548152
-0.506976
-0.442458
-0.366163
-0.282374
-0.191919
-0.0954622
0.00613417
0.111689
0.214338
0.297271
0.355728
0.397152
0.42667
0.447824
0.46264
0.471576
0.475169
0.475689
-0.581613
-0.570774
-0.528906
-0.463275
-0.38563
-0.300254
-0.207948
-0.109315
-0.00512388
0.103631
0.210192
0.297143
0.358983
0.402985
0.434244
0.456444
0.471758
0.480744
0.484141
0.484521
-0.603944
-0.592843
-0.550325
-0.483668
-0.404805
-0.318032
-0.224099
-0.123559
-0.0170605
0.0946113
0.204884
0.295897
0.361398
0.408392
0.441773
0.465225
0.481047
0.489977
0.493113
0.493338
-0.625733
-0.614363
-0.571191
-0.503597
-0.423648
-0.335652
-0.240305
-0.138106
-0.0295949
0.0846611
0.198371
0.293392
0.36277
0.41319
0.449196
0.474207
0.490519
0.49918
0.501904
0.501962
-0.646839
-0.635259
-0.591444
-0.523009
-0.442096
-0.35303
-0.256487
-0.152871
-0.0426454
0.0738501
0.190648
0.289509
0.362857
0.41711
0.45639
0.483517
0.500338
0.508322
0.510322
0.510175
-0.667346
-0.655475
-0.611055
-0.541865
-0.460107
-0.370121
-0.272549
-0.167767
-0.0561128
0.0622832
0.181749
0.284153
0.36143
0.419779
0.463072
0.493298
0.511059
0.517748
0.518242
0.517734
-0.687129
-0.674971
-0.629998
-0.560114
-0.477599
-0.386836
-0.288405
-0.182669
-0.0698713
0.0500482
0.17175
0.277276
0.358286
0.420745
0.468669
0.503427
0.523643
0.528994
0.526343
0.524337
-0.706206
-0.693808
-0.648218
-0.577702
-0.49453
-0.403107
-0.303973
-0.197489
-0.0838007
0.0372999
0.160766
0.268861