/*--------------------------------*- C++ -*----------------------------------*\
| =========                 |                                                 |
| \\      /  F ield         | OpenFOAM: The Open Source CFD Toolbox           |
|  \\    /   O peration     | Version:  2112                                  |
|   \\  /    A nd           | Website:  www.openfoam.com                      |
|    \\/     M anipulation  |                                                 |
\*---------------------------------------------------------------------------*/
FoamFile
{
    version     2.0;
    format      ascii;
    arch        "LSB;label=32;scalar=64";
    class       surfaceScalarField;
    location    "22.5";
    object      phi;
}
// * * * * * * * * * * * * * * * * * * * * * * * * * * * * * * * * * * * * * //

dimensions      [0 3 -1 0 0 0 0];

oriented        oriented;

internalField   nonuniform List<scalar> 
17370
(
-0.0916065
0.096009
0.284608
-0.0775937
0.059418
0.364951
-0.0430381
0.0316154
0.427591
-0.0223068
0.0162485
0.50531
-0.0116477
0.00876599
0.602284
-0.00654656
0.00505845
0.720546
-0.00382701
0.00295911
0.863774
-0.0022042
0.00164322
1.03601
-0.00112992
0.000722939
1.24291
-0.000321413
-5.63999e-05
1.49157
0.00043427
-0.000843121
1.4916
0.0012464
-0.00175311
1.2432
0.00230701
-0.00305353
1.03638
0.00391332
-0.00513554
0.864129
0.00661522
-0.00882535
0.721268
0.0116975
-0.0162861
0.603803
0.0223328
-0.0316293
0.508736
0.0430395
-0.0594121
0.432541
0.07759
-0.0960056
0.365191
0.0916159
0.197395
-0.127092
0.0880258
0.039066
-0.364356
0.354031
-0.0714704
0.0817952
-0.446651
0.454252
-0.079164
0.0715629
-0.521006
0.529108
-0.0637084
0.0556062
-0.61298
0.62075
-0.048219
0.0404487
-0.727156
0.733673
-0.0338365
0.0273195
-0.867579
0.872422
-0.0221228
0.0172805
-1.03856
1.04188
-0.0135947
0.0102787
-1.24471
1.24708
-0.00775536
0.00538595
-1.49282
1.4948
-0.00345579
0.00147856
-1.49267
1.49446
0.000318281
-0.00211359
-1.2441
1.246
0.00406682
-0.00596871
-1.03761
1.0401
0.0083034
-0.0107935
-0.866196
0.869847
0.014072
-0.0177227
-0.724606
0.729769
0.0225265
-0.0276904
-0.609069
0.615649
0.0341734
-0.040754
-0.515128
0.522477
0.0484874
-0.055837
-0.439878
0.447682
0.0638861
-0.0716902
-0.374723
0.377367
0.0792206
-0.0818639
-0.256925
0.224487
0.0715239
-0.0390855
-0.068815
0.0592091
0.00960591
-0.0520781
0.058902
-0.37484
0.368016
-0.0580497
0.0542015
-0.453944
0.457792
-0.0487028
0.0441273
-0.52761
0.532185
-0.039559
0.0356466
-0.620785
0.624698
-0.0314229
0.027437
-0.734629
0.738615
-0.0231172
0.0192837
-0.87392
0.877753
-0.0153104
0.0119176
-1.04332
1.04671
-0.00846387
0.00548628
-1.24859
1.25157
-0.0023362
-0.000596616
-1.49688
1.49981
0.00351918
-0.00663342
-1.49737
1.50048
0.00956069
-0.0129468
-1.25005
1.25343
0.0162714
-0.0201669
-1.04566
1.04955
0.0239316
-0.0281796
-0.877155
0.881403
0.0320998
-0.036252
-0.739021
0.743173
0.0401048
-0.0446171
-0.626017
0.630529
0.0491485
-0.0546048
-0.535059
0.540515
0.0584038
-0.0591991
-0.458129
0.458925
0.0522957
-0.0319768
-0.336849
0.31653
0.00964483
-0.0687195
0.0590747
-0.0534273
0.0493286
0.00409873
-0.0331608
0.0435574
-0.358579
0.348182
-0.0472229
0.0466445
-0.459573
0.460151
-0.0437393
0.040556
-0.536119
0.539303
-0.0369067
0.0335685
-0.628368
0.631706
-0.0299444
0.0267118
-0.741988
0.745221
-0.0232655
0.0200918
-0.88125
0.884424
-0.0165497
0.0132576
-1.05012
1.05341
-0.00964075
0.00632179
-1.25478
1.2581
-0.00263636
-0.000883751
-1.5031
1.50662
0.00438098
-0.00801227
-1.50392
1.50755
0.0112602
-0.0147827
-1.25697
1.26049
0.01798
-0.0214137
-1.05327
1.0567
0.0244891
-0.0278289
-0.885042
0.888381
0.0309677
-0.0344961
-0.746879
0.750407
0.0377507
-0.0413123
-0.634665
0.638226
0.044421
-0.0472457
-0.544673
0.547497
0.0477439
-0.0439705
-0.457081
0.453307
0.0334444
-0.0162552
-0.297303
0.280114
0.00414094
-0.0532546
0.0491137
-0.0461734
0.0436393
0.00253409
-0.0228901
0.0331714
-0.337631
0.32735
-0.0388499
0.0397619
-0.459906
0.458993
-0.038474
0.0361191
-0.541932
0.544287
-0.0334574
0.0309183
-0.634631
0.63717
-0.027985
0.0252084
-0.748264
0.751041
-0.0220736
0.0191697
-0.887448
0.890352
-0.0159441
0.0129339
-1.05653
1.05954
-0.00951978
0.00624814
-1.26142
1.2647
-0.00246493
-0.00122149
-1.51028
1.51396
0.00488187
-0.00859006
-1.51127
1.51498
0.0117631
-0.0150496
-1.2639
1.26719
0.0179303
-0.0210065
-1.0599
1.06297
0.0237697
-0.0267518
-0.891585
0.894567
0.0293946
-0.0321917
-0.753604
0.756401
0.0346171
-0.0371669
-0.641201
0.64375
0.0394299
-0.0405994
-0.549381
0.550551
0.0395667
-0.0337163
-0.448286
0.442436
0.0232493
-0.0101965
-0.265079
0.252026
0.00258631
-0.0459108
0.0433245
-0.0415467
0.0397791
0.0017676
-0.0166773
0.025841
-0.317568
0.308404
-0.0323573
0.0344576
-0.457459
0.455359
-0.0340401
0.0323721
-0.546322
0.54799
-0.0301747
0.0280664
-0.63945
0.641558
-0.0256538
0.0233221
-0.753559
0.755891
-0.0205924
0.0179496
-0.893118
0.895761
-0.0148993
0.0120008
-1.0625
1.0654
-0.00869575
0.0055503
-1.2679
1.27105
-0.00192526
-0.00160039
-1.51758
1.52111
0.00509455
-0.00862556
-1.51861
1.52214
0.0116417
-0.0147732
-1.27039
1.27353
0.0175006
-0.0203585
-1.06594
1.0688
0.0228253
-0.0253673
-0.897314
0.899856
0.0275342
-0.0297774
-0.758868
0.761111
0.0317361
-0.0337811
-0.646041
0.648086
0.0353107
-0.0355645
-0.551217
0.551471
0.0332821
-0.0265215
-0.436025
0.429265
0.017116
-0.00722136
-0.240686
0.230791
0.00183071
-0.0411744
0.0393437
-0.0382694
0.0369755
0.00129395
-0.0124657
0.0202113
-0.299938
0.292192
-0.0267676
0.0295942
-0.452825
0.449998
-0.0297957
0.028713
-0.549331
0.550413
-0.026813
0.0249811
-0.643512
0.645344
-0.0228829
0.0208506
-0.758076
0.760109
-0.0184829
0.0161729
-0.898251
0.900561
-0.0134687
0.0108327
-1.06819
1.07083
-0.00776215
0.00479192
-1.27412
1.27709
-0.00132868
-0.00206912
-1.52457
1.52796
0.00542179
-0.00875784
-1.52557
1.52891
0.0115625
-0.0144126
-1.27655
1.2794
0.0168277
-0.0192779
-1.07149
1.07394
0.0213537
-0.0234705
-0.902193
0.90431
0.0252888
-0.0271707
-0.76317
0.765051
0.0288198
-0.0305417
-0.649921
0.651643
0.0314343
-0.0310141
-0.551348
0.550928
0.0279352
-0.0210514
-0.422359
0.415475
0.0130012
-0.00539684
-0.222132
0.214527
0.00137118
-0.0377645
0.0363933
-0.0358594
0.0348946
0.000964861
-0.00942118
0.0158039
-0.285142
0.27876
-0.0219702
0.0251546
-0.446969
0.443784
-0.025838
0.0251223
-0.551296
0.552012
-0.0233814
0.0216621
-0.647115
0.648834
-0.0197358
0.0179335
-0.76202
0.763823
-0.0158739
0.0138695
-0.902701
0.904705
-0.0115073
0.00917412
-1.07329
1.07562
-0.00641438
0.00369377
-1.27993
1.28265
-0.000492169
-0.00263784
-1.53124
1.53437
0.00571361
-0.0087468
-1.53211
1.53514
0.011247
-0.0137221
-1.28205
1.28453
0.0157726
-0.017818
-1.07616
1.07821
0.0195373
-0.0212989
-0.906235
0.907997
0.0228337
-0.0244777
-0.766792
0.768436
0.0259626
-0.0274577
-0.653279
0.654774
0.0279276
-0.0269353
-0.550235
0.549243
0.0234099
-0.0168238
-0.408709
0.402123
0.0100684
-0.00414171
-0.20782
0.201893
0.00105886
-0.0351935
0.0341346
-0.0340678
0.0333702
0.000697562
-0.00695174
0.0120229
-0.273039
0.267968
-0.0175001
0.0208061
-0.440499
0.437193
-0.0220164
0.021674
-0.552557
0.5529
-0.02038
0.0189235
-0.650453
0.65191
-0.017229
0.015596
-0.765545
0.767178
-0.0136856
0.0118084
-0.906628
0.908505
-0.00959665
0.00743249
-1.07785
1.08001
-0.00488824
0.00240654
-1.28524
1.28772
0.000492929
-0.00330911
-1.53734
1.54016
0.00605754
-0.00875343
-1.53801
1.54071
0.0109581
-0.0131407
-1.28686
1.28904
0.0149477
-0.0167493
-1.08011
1.08191
0.0182548
-0.019782
-0.909614
0.911141
0.0210919
-0.0224496
-0.76996
0.771317
0.0236107
-0.0245859
-0.656037
0.657012
0.0246151
-0.0230013
-0.547927
0.546313
0.0192565
-0.0132581
-0.395794
0.389796
0.00773605
-0.00315943
-0.196678
0.192102
0.000812701
-0.0332061
0.0323934
-0.032783
0.0322944
0.000488552
-0.00495848
0.00882969
-0.263509
0.259638
-0.0134
0.0165045
-0.433945
0.430841
-0.0179805
0.0179483
-0.553064
0.553097
-0.0170466
0.0158364
-0.653222
0.654432
-0.0143376
0.0128562
-0.76877
0.770251
-0.0111129
0.00940152
-0.910341
0.912052
-0.0073932
0.00543267
-1.08208
1.08404
-0.00314536
0.000920758
-1.29006
1.29228
0.00166857
-0.00418055
-1.5428
1.54531
0.0066022
-0.00892172
-1.54321
1.54553
0.0107881
-0.0126212
-1.29106
1.29289
0.0141308
-0.0156348
-1.08361
1.08511
0.0168991
-0.0181705
-0.912589
0.91386
0.0192266
-0.0202782
-0.772504
0.773556
0.0211148
-0.0215833
-0.657705
0.658174
0.021202
-0.0191966
-0.544458
0.542453
0.0155384
-0.0103309
-0.384174
0.378967
0.00591522
-0.00241247
-0.18809
0.184588
0.000631638
-0.031682
0.0310504
-0.0319009
0.0316082
0.000292678
-0.00310015
0.00582194
-0.256341
0.253619
-0.00937683
0.0120417
-0.427939
0.425274
-0.0134874
0.0135553
-0.553083
0.553015
-0.0128145
0.0117237
-0.655611
0.656702
-0.0104502
0.00925769
-0.771637
0.77283
-0.00788485
0.00651465
-0.913596
0.914966
-0.00485775
0.00320162
-1.08581
1.08747
-0.00122026
-0.000733745
-1.29434
1.29629
0.00303027
-0.00524928
-1.54768
1.5499
0.00734788
-0.00928958
-1.54768
1.54962
0.01078
-0.012176
-1.2945
1.2959
0.013254
-0.0142297
-1.08635
1.08733
0.0149877
-0.0157477
-0.914857
0.915617
0.0164316
-0.0171882
-0.774462
0.775218
0.0178373
-0.0180326
-0.658507
0.658702
0.0174421
-0.015328
-0.540388
0.538274
0.0119743
-0.00764314
-0.3742
0.369869
0.00426576
-0.00173654
-0.181586
0.179057
0.000469346
-0.0305051
0.0300358
-0.031419
0.0313218
9.718e-05
-0.00143266
0.00310278
-0.251445
0.249775
-0.00568019
0.00793063
-0.42283
0.42058
-0.00942951
0.00975913
-0.552872
0.552542
-0.00936448
0.00859484
-0.657663
0.658433
-0.0076157
0.00665224
-0.773932
0.774895
-0.0054833
0.00425694
-0.916243
0.917469
-0.00272724
0.00116258
-1.08899
1.09056
0.000716414
-0.00254245
-1.29811
1.29994
0.00463429
-0.00658044
-1.55194
1.55388
0.00839163
-0.0100566
-1.55144
1.5531
0.0113198
-0.0124612
-1.29712
1.29826
0.0132955
-0.0140294
-1.08814
1.08887
0.0145372
-0.0149495
-0.916183
0.916595
0.0152485
-0.0155286
-0.775716
0.775996
0.0156824
-0.0153553
-0.658685
0.658358
0.0143072
-0.0119353
-0.536077
0.533705
0.00883324
-0.00532505
-0.365968
0.362459
0.00286641
-0.00115397
-0.176982
0.175269
0.000317029
-0.0296587
0.0293417
-0.0313068
0.0313547
-4.7903e-05
-0.000254498
0.00107045
-0.248565
0.247749
-0.0026791
0.00439282
-0.418575
0.416861
-0.00585285
0.00646227
-0.552041
0.551432
-0.00641648
0.00594453
-0.659045
0.659517
-0.00517338
0.00432636
-0.775874
0.776721
-0.00321746
0.00202271
-0.918667
0.919862
-0.000518509
-0.00100451
-1.09201
1.09354
0.00279788
-0.00453571
-1.30167
1.30341
0.00649558
-0.00829028
-1.55574
1.55753
0.00990234
-0.011299
-1.55469
1.55608
0.0122752
-0.0130978
-1.29932
1.30014
0.0136445
-0.0140343
-1.0895
1.08989
0.014289
-0.0144771
-0.916876
0.917064
0.0145537
-0.0144952
-0.775987
0.775929
0.0141899
-0.0133355
-0.65771
0.656856
0.0118452
-0.00932936
-0.531249
0.528734
0.00659375
-0.00384944
-0.359373
0.356628
0.00204955
-0.000822803
-0.173869
0.172642
0.00022392
-0.029097
0.028873
-0.0314573
0.031591
-0.000133774
0.000378594
-9.2702e-05
-0.247252
0.246966
-0.000724137
0.00174212
-0.415518
0.4145
-0.00272163
0.00316024
-0.550857
0.550419
-0.00310264
0.00272116
-0.659921
0.660302
-0.00203076
0.00123834
-0.777635
0.778427
-0.000158675
-0.00103528
-0.921018
0.922212
0.0025054
-0.0039413
-1.09492
1.09636
0.00558746
-0.00713017
-1.30498
1.30653
0.00884706
-0.0103956
-1.55916
1.56071
0.0117137
-0.0127488
-1.55733
1.55837
0.013378
-0.0138107
-1.3008
1.30123
0.0140371
-0.0141047
-1.09013
1.0902
0.0140427
-0.0138763
-0.916997
0.916831
0.0136776
-0.0133774
-0.775677
0.775377
0.0128567
-0.0118288
-0.655875
0.654847
0.0102848
-0.0079788
-0.526369
0.524063
0.00567342
-0.00341716
-0.354231
0.351975
0.00188401
-0.000773796
-0.171546
0.170436
0.000209313
-0.0286867
0.0284774
-0.0317485
0.0319267
-0.000178176
0.00071851
-0.000693865
-0.246853
0.246829
0.000317746
0.000176902
-0.413814
0.413319
-0.000566994
0.000566628
-0.550174
0.550174
-0.000145737
-0.000479719
-0.660776
0.661401
0.00134777
-0.00222267
-0.779415
0.78029
0.00332659
-0.00448258
-0.923326
0.924482
0.00587414
-0.00721188
-1.09761
1.09894
0.00872689
-0.0101304
-1.30789
1.3093
0.0116531
-0.0129572
-1.56208
1.56339
0.0139848
-0.0146826
-1.55924
1.55994
0.0149948
-0.0150968
-1.30157
1.30167
0.0150375
-0.0148723
-1.09017
1.09
0.014616
-0.0142337
-0.916506
0.916124
0.0137941
-0.0132225
-0.774812
0.774241
0.0125486
-0.0115153
-0.653763
0.65273
0.010105
-0.00803022
-0.52199
0.519915
0.00590097
-0.00370069
-0.349874
0.347674
0.00210775
-0.000890676
-0.169329
0.168111
0.0002462
-0.028276
0.0280298
-0.0321265
0.0323457
-0.000219133
0.00103669
-0.00119441
-0.246898
0.247056
0.000997844
-0.000659854
-0.412991
0.412653
0.000486959
-0.00072179
-0.550334
0.550569
0.00145598
-0.00238142
-0.662265
0.66319
0.00345505
-0.00450113
-0.781412
0.782458
0.00577717
-0.00709157
-0.925571
0.926885
0.00862548
-0.0100867
-1.10017
1.10163
0.0117474
-0.0132702
-1.31062
1.31215
0.0148709
-0.0161741
-1.56458
1.56588
0.0171436
-0.0177441
-1.56053
1.56113
0.0179135
-0.0177685
-1.30167
1.30153
0.017419
-0.0168715
-1.08967
1.08913
0.0163438
-0.0158241
-0.915632
0.915112
0.0153393
-0.0147422
-0.773526
0.772929
0.01408
-0.013002
-0.651672
0.650595
0.0114564
-0.00912299
-0.517906
0.515573
0.00671025
-0.00423064
-0.345446
0.342967
0.00244302
-0.00106199
-0.166862
0.165481
0.000305928
-0.0277808
0.0274749
-0.0325955
0.0328775
-0.000281925
0.00153202
-0.00196838
-0.247317
0.247753
0.00197255
-0.00161982
-0.41236
0.412007
0.00122718
-0.00130101
-0.550725
0.550799
0.0017913
-0.00255136
-0.664168
0.664928
0.00367397
-0.00492714
-0.78378
0.785033
0.00658021
-0.00827407
-0.928241
0.929935
0.010273
-0.0122153
-1.10316
1.10511
0.0144291
-0.0164602
-1.31379
1.31582
0.0185847
-0.0203187
-1.56729
1.56903
0.0216417
-0.0225155
-1.56181
1.56268
0.0228687
-0.022867
-1.30145
1.30145
0.0226093
-0.0221142
-1.08845
1.08795
0.0214961
-0.0206186
-0.914352
0.913475
0.0197436
-0.0188506
-0.77221
0.771317
0.0177311
-0.0159584
-0.649306
0.647533
0.0135988
-0.0104232
-0.513013
0.509838
0.00748595
-0.00469687
-0.340429
0.33764
0.00274984
-0.00122991
-0.164093
0.162574
0.000367254
-0.0271729
0.0268056
-0.0332079
0.0335878
-0.000379931
0.00226613
-0.00314131
-0.248375
0.24925
0.00362509
-0.00344838
-0.411732
0.411555
0.00278904
-0.00234838
-0.550633
0.550192
0.00247853
-0.00298156
-0.665673
0.666176
0.0039525
-0.00530416
-0.786497
0.787848
0.00727279
-0.0094324
-0.931664
0.933824
0.0121013
-0.0147111
-1.10723
1.10984
0.0176719
-0.0203703
-1.31808
1.32078
0.0232044
-0.025544
-1.571
1.57334
0.0273789
-0.0286853
-1.56377
1.56507
0.0293311
-0.0295906
-1.30163
1.30189
0.0294878
-0.0290644
-1.08743
1.08701
0.0283511
-0.0272774
-0.912354
0.91128
0.0260817
-0.0243362
-0.769964
0.768218
0.0220315
-0.0188428
-0.645163
0.641974
0.0153434
-0.0113325
-0.506393
0.502382
0.0080431
-0.00510825
-0.3349
0.331965
0.00305954
-0.00140448
-0.161072
0.159417
0.000429484
-0.0264501
0.0260206
-0.0340371
0.0345563
-0.000519209
0.00324424
-0.00471948
-0.25042
0.251895
0.00593476
-0.00638849
-0.411691
0.412145
0.00601141
-0.00537392
-0.549641
0.549003
0.00499527
-0.00529977
-0.666672
0.666977
0.00624326
-0.00772786
-0.789339
0.790824
0.0101231
-0.0127952
-0.936046
0.938718
0.0160693
-0.0192385
-1.11258
1.11575
0.0227866
-0.025975
-1.32364
1.32683
0.0292857
-0.0319785
-1.57584
1.57853
0.0340231
-0.0354179
-1.56647
1.56786
0.0360508
-0.0361864
-1.30218
1.30232
0.0358879
-0.0351525
-1.08636
1.08562
0.0341463
-0.0326645
-0.90987
0.908388
0.0307508
-0.0278971
-0.765795
0.762942
0.02463
-0.0203911
-0.638281
0.634042
0.0162742
-0.011985
-0.498409
0.49412
0.00864683
-0.00565801
-0.329186
0.326198
0.00347565
-0.00162455
-0.157777
0.155926
0.000502177
-0.0256083
0.0251061
-0.0351587
0.035873
-0.00071438
0.00449078
-0.00670206
-0.253732
0.255944
0.00885561
-0.0102039
-0.413009
0.414357
0.01075
-0.0106506
-0.548846
0.548746
0.0104596
-0.0108035
-0.667323
0.667667
0.0120693
-0.0140262
-0.792493
0.79445
0.0168461
-0.0198382
-0.941317
0.944309
0.0234316
-0.0268584
-1.11888
1.1223
0.0306357
-0.0339601
-1.32999
1.33332
0.0372959
-0.0398562
-1.58113
1.58369
0.0416094
-0.0425428
-1.56904
1.56997
0.0426806
-0.0421897
-1.30221
1.30172
0.0412601
-0.039836
-1.08449
1.08306
0.0381736
-0.0358343
-0.90631
0.90397
0.0331387
-0.0295426
-0.759477
0.755881
0.0257703
-0.0212712
-0.629699
0.6252
0.01716
-0.0129858
-0.490176
0.486002
0.0096685
-0.00651492
-0.323391
0.320238
0.00406759
-0.00191467
-0.154066
0.151913
0.000591303
-0.0246264
0.0240351
-0.0366726
0.0376337
-0.000961124
0.00601873
-0.00907325
-0.258529
0.261583
0.0122625
-0.0146386
-0.416255
0.418631
0.0163262
-0.0173184
-0.549699
0.550691
0.0182585
-0.0194552
-0.668574
0.66977
0.0214586
-0.0238868
-0.796364
0.798793
0.0270655
-0.0302964
-0.947094
0.950325
0.0340713
-0.0375883
-1.12555
1.12907
0.0413574
-0.0445381
-1.33643
1.33961
0.0475125
-0.0495226
-1.58591
1.58792
0.0505519
-0.0505968
-1.57046
1.5705
0.0498564
-0.0483464
-1.30075
1.29923
0.0464923
-0.0440634
-1.08104
1.07862
0.0414882
-0.0382844
-0.900938
0.897735
0.0350269
-0.0311132
-0.751866
0.747953
0.0272714
-0.0229141
-0.620843
0.616486
0.0189798
-0.0148597
-0.482268
0.478148
0.0113581
-0.00780036
-0.31722
0.313662
0.00491919
-0.00232027
-0.149715
0.147116
0.000714674
-0.0234683
0.0227536
-0.0386839
0.0399903
-0.00130637
0.00807457
-0.0121698
-0.265006
0.269101
0.0165284
-0.0199878
-0.421749
0.425209
0.0229078
-0.0250506
-0.55296
0.555102
0.0272609
-0.0296281
-0.671731
0.674098
0.0327231
-0.0359377
-0.801243
0.804457
0.0397731
-0.0434385
-0.95339
0.957055
0.0475169
-0.0511483
-1.13236
1.13599
0.0548446
-0.0577505
-1.34247
1.34538
0.0601545
-0.061367
-1.58944
1.59065
0.0613971
-0.0602504
-1.56991
1.56876
0.058399
-0.0557288
-1.29711
1.29444
0.0528705
-0.0493741
-1.07555
1.07205
0.0459385
-0.0420197
-0.893907
0.889989
0.0383308
-0.0341983
-0.743634
0.739502
0.030337
-0.026048
-0.612231
0.607942
0.0220961
-0.0177253
-0.474396
0.470025
0.0137448
-0.00954017
-0.310202
0.305998
0.00603957
-0.00283868
-0.144463
0.141263
0.000868237
-0.0220763
0.021208
-0.041382
0.0432086
-0.00182662
0.0110303
-0.0164948
-0.273564
0.279029
0.0222405
-0.0268494
-0.429644
0.434253
0.030964
-0.0342726
-0.55876
0.562069
0.037883
-0.0415634
-0.677291
0.680971
0.0459763
-0.050221
-0.807748
0.811993
0.0549758
-0.0592767
-0.960625
0.964926
0.0638159
-0.0676378
-1.1394
1.14322
0.0712726
-0.0738582
-1.3479
1.35049
0.0755958
-0.075891
-1.59126
1.59156
0.0748006
-0.0723662
-1.5669
1.56447
0.0693463
-0.065449
-1.29111
1.28721
0.0615312
-0.0569981
-1.06792
1.06338
0.0527644
-0.0481361
-0.885429
0.8808
0.0439646
-0.0394754
-0.734833
0.730343
0.0353888
-0.0308567
-0.603536
0.599004
0.0265562
-0.0215843
-0.465875
0.460904
0.0168573
-0.0116721
-0.30188
0.296694
0.00732659
-0.00340773
-0.138046
0.134127
0.00102804
-0.02039
0.019362
-0.0450852
0.047731
-0.00264578
0.0154976
-0.0228407
-0.28486
0.292203
0.0303349
-0.0362959
-0.440334
0.446295
0.0417543
-0.0463391
-0.567262
0.571847
0.051513
-0.056637
-0.685462
0.690586
0.0625285
-0.0679392
-0.816333
0.821743
0.0737344
-0.0787483
-0.969165
0.974179
0.0837855
-0.0877822
-1.1468
1.1508
0.0912807
-0.0934362
-1.35261
1.35476
0.0943586
-0.0935932
-1.59115
1.59039
0.0912577
-0.0874443
-1.56125
1.55744
0.0831987
-0.0780194
-1.28262
1.27744
0.073014
-0.0674147
-1.05819
1.05259
0.0623327
-0.0569066
-0.875446
0.87002
0.052128
-0.0470842
-0.72512
0.720076
0.0425296
-0.0374267
-0.594104
0.589001
0.032452
-0.0265136
-0.456014
0.450076
0.0207253
-0.0143127
-0.291649
0.285237
0.00893302
-0.00411661
-0.130214
0.125398
0.0012273
-0.0183896
0.0171623
-0.0503685
0.0544495
-0.00408109
0.0227575
-0.0327969
-0.300034
0.310073
0.0426655
-0.0503307
-0.454599
0.462264
0.0573359
-0.0634181
-0.578825
0.584908
0.0704453
-0.0771628
-0.696471
0.703188
0.0845765
-0.0911139
-0.827184
0.833722
0.0978435
-0.103419
-0.979051
0.984627
0.108731
-0.112661
-1.15442
1.15835
0.115729
-0.117175
-1.3563
1.35775
0.116982
-0.114904
-1.58877
1.5867
0.111116
-0.105762
-1.55274
1.54739
0.100185
-0.093642
-1.27151
1.26496
0.0874954
-0.0807569
-1.04628
1.03954
0.0747348
-0.0683836
-0.863744
0.857392
0.0628514
-0.0570579
-0.71405
0.708256
0.051822
-0.0458587
-0.583255
0.577292
0.0399143
-0.0326723
-0.444085
0.436843
0.0255171
-0.0175482
-0.279012
0.271043
0.0108612
-0.00493517
-0.120673
0.114747
0.00144286
-0.0160184
0.0145755
-0.0583188
0.0655231
-0.00720427
0.0362164
-0.0504108
-0.321278
0.335472
0.0637356
-0.0734134
-0.473575
0.483252
0.0819584
-0.0896543
-0.594004
0.6017
0.0986536
-0.106778
-0.710418
0.718543
0.115293
-0.122474
-0.840053
0.847234
0.129551
-0.13512
-0.989786
0.995355
0.140084
-0.14338
-1.16163
1.16493
0.145445
-0.145675
-1.35831
1.35854
0.143888
-0.1401
-1.58354
1.57975
0.134563
-0.127455
-1.541
1.53389
0.120405
-0.1124
-1.25759
1.24959
0.105034
-0.0970791
-1.03204
1.02408
0.0900408
-0.082676
-0.850087
0.842722
0.0762906
-0.0696172
-0.701227
0.694553
0.0635706
-0.0565689
-0.570388
0.563386
0.0493233
-0.0403701
-0.429323
0.42037
0.0314541
-0.021545
-0.263255
0.253346
0.0132303
-0.00592333
-0.109126
0.101819
0.00167558
-0.0132666
0.011591
-0.0723896
0.0760852
-0.00369558
0.0264125
-0.0387653
-0.352563
0.364916
0.0502736
-0.0592491
-0.497984
0.506959
0.0682587
-0.0777069
-0.612727
0.622176
0.0883508
-0.0978504
-0.726335
0.735834
0.108405
-0.117726
-0.853646
0.862966
0.127398
-0.135698
-0.999975
1.00828
0.143955
-0.150571
-1.16709
1.17371
0.15646
-0.16031
-1.35752
1.36137
0.162359
-0.161733
-1.57463
1.574
0.158304
-0.152484
-1.52557
1.51975
0.145634
-0.13695
-1.24065
1.23197
0.128502
-0.118421
-1.01531
1.00523
0.109286
-0.0993924
-0.83434
0.824446
0.0906782
-0.0814596
-0.686423
0.677204
0.0727771
-0.0629699
-0.554951
0.545144
0.0529542
-0.0406937
-0.410847
0.398587
0.0293968
-0.018088
-0.243432
0.232123
0.00980273
-0.00374105
-0.0951498
0.0890881
0.000823012
-0.0102227
0.00939969
-0.0831441
0.0807095
0.00243459
0.00435634
-0.0119444
-0.380251
0.387839
0.0205031
-0.0274786
-0.520654
0.52763
0.0358234
-0.0441191
-0.632917
0.641213
0.0537647
-0.0625458
-0.745223
0.754004
0.0718684
-0.0803142
-0.871822
0.880267
0.0890847
-0.0963224
-1.01629
1.02353
0.10372
-0.109305
-1.18014
1.18573
0.114205
-0.117073
-1.3649
1.36777
0.117855
-0.116216
-1.57248
1.57084
0.111863
-0.105222
-1.51298
1.50634
0.0975827
-0.0882337
-1.22263
1.21329
0.0792922
-0.0691272
-0.994643
0.984478
0.0596854
-0.0493224
-0.813203
0.80284
0.040215
-0.0310651
-0.665015
0.655865
0.0233342
-0.0154229
-0.532254
0.524343
0.00854589
-0.00237494
-0.385523
0.379352
-0.00119435
0.00308218
-0.220213
0.218325
-0.0032628
0.00219429
-0.0823896
0.0834581
-0.000923877
-0.00803355
0.00895743
-0.0835342
0.0804328
0.00310142
-0.00409653
0.000305995
-0.398483
0.402274
0.0052036
-0.0106606
-0.538549
0.544006
0.017656
-0.0248221
-0.650357
0.657523
0.0330667
-0.0406264
-0.762268
0.769828
0.0488857
-0.0562159
-0.888085
0.895415
0.0636129
-0.0700774
-1.03063
1.03709
0.0765041
-0.0814652
-1.19093
1.19589
0.0854111
-0.0875001
-1.37004
1.37213
0.0878732
-0.0858211
-1.56857
1.56652
0.0812621
-0.074639
-1.49916
1.49254
0.0672644
-0.0585536
-1.20392
1.19521
0.0499523
-0.040517
-0.974045
0.96461
0.0318153
-0.0223402
-0.792477
0.783002
0.0142231
-0.00601959
-0.645107
0.636903
-0.000587989
0.00690029
-0.513678
0.507366
-0.011359
0.0138587
-0.371028
0.368529
-0.0134938
0.0110857
-0.213386
0.215794
-0.007895
0.0041659
-0.0831873
0.0869164
-0.00143208
-0.00902105
0.0104531
-0.0817724
0.0788291
0.0029433
-0.0070511
0.00552837
-0.410049
0.411572
-0.00228918
-0.00189965
-0.552404
0.556593
0.00811863
-0.0141369
-0.664861
0.67088
0.0211876
-0.0276942
-0.77712
0.783626
0.0347684
-0.0410757
-0.902342
0.908649
0.0478337
-0.0533752
-1.04321
1.04875
0.0590928
-0.0630936
-1.20055
1.20455
0.0665828
-0.0684014
-1.37411
1.37593
0.0685155
-0.0662671
-1.56421
1.56196
0.0621265
-0.0562006
-1.4856
1.47967
0.049615
-0.0415759
-1.18658
1.17854
0.0340273
-0.025809
-0.95519
0.946972
0.0181427
-0.0101422
-0.773674
0.765674
0.00295336
0.00404551
-0.627497
0.620498
-0.00954585
0.0142033
-0.498826
0.494168
-0.0169507
0.0178969
-0.363001
0.362054
-0.0161689
0.0122543
-0.214486
0.2184
-0.00845859
0.00426105
-0.0886675
0.0928651
-0.00139311
-0.0109791
0.0123722
-0.0799427
0.0774454
0.00249729
-0.00761579
0.00744043
-0.417604
0.417779
-0.00492739
0.00168153
-0.563771
0.567017
0.00333274
-0.008727
-0.677142
0.682537
0.0146819
-0.0204363
-0.789726
0.79548
0.0265904
-0.0321086
-0.914639
0.920157
0.0379757
-0.0430024
-1.05424
1.05927
0.0479645
-0.0518027
-1.20852
1.21236
0.0549624
-0.0566248
-1.37753
1.37919
0.0567715
-0.0547871
-1.55974
1.55776
0.0511378
-0.045746
-1.47334
1.46795
0.0399957
-0.0331792
-1.1708
1.16398
0.0267299
-0.0196139
-0.938862
0.931746
0.0132257
-0.00648852
-0.757722
0.750985
0.000688648
0.00499499
-0.612953
0.607269
-0.00926454
0.0126863
-0.487403
0.483981
-0.0146569
0.0150613
-0.358102
0.357698
-0.0132152
0.00989522
-0.218002
0.221322
-0.00672731
0.00332778
-0.0944865
0.097886
-0.00111796
-0.0128356
0.0139536
-0.078415
0.0763274
0.00208759
-0.00711749
0.00723416
-0.422668
0.422551
-0.005766
0.00299689
-0.572694
0.575463
0.00166269
-0.00629399
-0.687647
0.692278
0.0114853
-0.0165409
-0.800686
0.805742
0.0220699
-0.0270683
-0.925457
0.930455
0.0325278
-0.0370331
-1.06411
1.06861
0.0416329
-0.0452385
-1.21602
1.21963
0.0482103
-0.0498317
-1.38073
1.38236
0.0500794
-0.0487437
-1.55586
1.55452
0.0455582
-0.0409968
-1.46239
1.45783
0.035957
-0.0300162
-1.15725
1.15131
0.0246733
-0.0185006
-0.924819
0.918646
0.0130686
-0.00753948
-0.744455
0.738926
0.00275876
0.00187791
-0.601375
0.596738
-0.00534304
0.00817912
-0.47877
0.475934
-0.00939913
0.00954915
-0.354594
0.354444
-0.00841795
0.00605066
-0.220457
0.222824
-0.00394175
0.00195479
-0.0984297
0.100417
-0.000671997
-0.0140891
0.0147611
-0.0773375
0.0757344
0.00160313
-0.0059886
0.00628633
-0.426409
0.426111
-0.00495232
0.0027865
-0.580626
0.582792
0.00143035
-0.00563723
-0.696852
0.701059
0.0106074
-0.015025
-0.810596
0.815013
0.0199549
-0.0244628
-0.93553
0.940038
0.0297319
-0.0339273
-1.07323
1.07742
0.0381489
-0.041703
-1.22315
1.2267
0.0450038
-0.0466868
-1.3841
1.38579
0.0472797
-0.0462277
-1.55295
1.5519
0.043808
-0.039615
-1.45324
1.44905
0.0353343
-0.0302403
-1.1454
1.1403
0.0254513
-0.0202497
-0.912678
0.907476
0.0155045
-0.0105541
-0.733324
0.728373
0.00663959
-0.00252252
-0.591743
0.587626
-0.000652401
0.00301991
-0.471581
0.469214
-0.00429078
0.00482108
-0.351702
0.351171
-0.00434399
0.00311188
-0.221333
0.222565
-0.00199944
0.00104047
-0.100052
0.101011
-0.000410829
-0.0145671
0.0149779
-0.0768118
0.0755605
0.00125137
-0.00477623
0.00509935
-0.429406
0.429083
-0.00377048
0.00168317
-0.587603
0.58969
0.00221167
-0.00600553
-0.705205
0.708999
0.0103284
-0.0146313
-0.819527
0.82383
0.0192493
-0.0239417
-0.944455
0.949147
0.0285725
-0.0326632
-1.08178
1.08587
0.037107
-0.0405336
-1.23022
1.23365
0.0435163
-0.0457558
-1.38747
1.38971
0.0467208
-0.0461587
-1.55099
1.55043
0.0441284
-0.0407295
-1.44513
1.44173
0.0369672
-0.0323922
-1.13501
1.13044
0.0281233
-0.0233743
-0.902191
0.897442
0.0190792
-0.0147356
-0.723493
0.719149
0.0108963
-0.00719426
-0.583173
0.579471
0.00433916
-0.00180599
-0.465384
0.46285
0.000261645
0.000457807
-0.348252
0.347532
-0.000754394
0.000708017
-0.220424
0.22047
-0.00058025
0.000399053
-0.0998374
0.100019
-0.000236453
-0.0145653
0.0148018
-0.0768248
0.0757794
0.0010454
-0.00344976
0.00356053
-0.432195
0.432084
-0.00242279
0.000281977
-0.594016
0.596157
0.00335782
-0.00705327
-0.713022
0.716718
0.0112279
-0.0151711
-0.828052
0.831995
0.0199414
-0.0239129
-0.953363
0.957334
0.0285639
-0.0325354
-1.09018
1.09415
0.0369422
-0.0406391
-1.23712
1.24082
0.0440069
-0.0461533
-1.39179
1.39394
0.0475936
-0.0475522
-1.54987
1.54983
0.0462426
-0.0432132
-1.43823
1.4352
0.0398996
-0.0357054
-1.12594
1.12175
0.0317703
-0.0272491
-0.892454
0.887933
0.0232847
-0.0190543
-0.71452
0.71029
0.0154
-0.0117602
-0.575365
0.571725
0.00881053
-0.0063543
-0.459195
0.456739
0.00447129
-0.00324171
-0.344146
0.342916
0.00219901
-0.00129686
-0.217893
0.216991
0.000601091
-2.75166e-05
-0.0981307
0.0975571
-0.000126674
-0.0141328
0.0142595
-0.0771039
0.0763767
0.0007272
-0.00228045
0.00199683
-0.43519
0.435474
-0.00101559
-0.00133873
-0.599626
0.60198
0.00460705
-0.00817044
-0.720368
0.723932
0.0121896
-0.0162769
-0.835908
0.839995
0.0204852
-0.0246421
-0.961572
0.965729
0.0292949
-0.0331084
-1.09859
1.1024
0.0376593
-0.0413751
-1.24438
1.2481
0.044881
-0.0476244
-1.39655
1.39929
0.0496335
-0.0499461
-1.54987
1.55018
0.0489342
-0.046605
-1.43233
1.43
0.0437709
-0.0398407
-1.11737
1.11344
0.036034
-0.0318703
-0.88328
0.879116
0.0276703
-0.023638
-0.705724
0.701692
0.0200034
-0.0162447
-0.567859
0.5641
0.0133112
-0.010473
-0.45287
0.450032
0.00829376
-0.00634227
-0.339349
0.337398
0.00478817
-0.00308354
-0.213934
0.212229
0.00161108
-0.000463622
-0.0952664
0.094119
7.95288e-07
-0.0134142
0.0134134
-0.0777856
0.0771998
0.000585812
-0.00133117
0.0011092
-0.438411
0.438633
0.000400417
-0.00266174
-0.605331
0.607592
0.00604756
-0.00947661
-0.727232
0.730661
0.0133533
-0.0170701
-0.843845
0.847562
0.0214202
-0.0252955
-0.969947
0.973823
0.0299265
-0.0341914
-1.1067
1.11097
0.0384331
-0.042514
-1.25191
1.25599
0.046488
-0.049384
-1.40199
1.40489
0.0518326
-0.0529779
-1.55075
1.5519
0.052444
-0.0507159
-1.42755
1.42582
0.0480234
-0.0444193
-1.10945
1.10585
0.0408755
-0.0367149
-0.874464
0.870303
0.032707
-0.0285777
-0.697098
0.692969
0.0248722
-0.0209115
-0.559989
0.556028
0.0176695
-0.0145688
-0.44617
0.443069
0.0118038
-0.00925049
-0.333435
0.330881
0.00702846
-0.00463696
-0.20858
0.206188
0.00263722
-0.00096996
-0.0914971
0.0898299
0.000165751
-0.0125073
0.0123415
-0.0787045
0.0782808
0.000423695
-0.000347494
7.4232e-06
-0.441809
0.442149
0.00157122
-0.00403792
-0.610731
0.613198
0.00730643
-0.0105717
-0.733854
0.737119
0.0145297
-0.0181095
-0.851321
0.854901
0.022324
-0.0263311
-0.978208
0.982215
0.0308847
-0.0351348
-1.11513
1.11938
0.0396191
-0.0437577
-1.26003
1.26417
0.0479594
-0.0516359
-1.40811
1.41179
0.0545831
-0.0560725
-1.55303
1.55452
0.0562506
-0.0548467
-1.42398
1.42258
0.0526647
-0.0494824
-1.10212
1.09893
0.04587
-0.0417456
-0.865741
0.861617
0.0377412
-0.0334014