/*--------------------------------*- C++ -*----------------------------------*\
| =========                 |                                                 |
| \\      /  F ield         | OpenFOAM: The Open Source CFD Toolbox           |
|  \\    /   O peration     | Version:  2112                                  |
|   \\  /    A nd           | Website:  www.openfoam.com                      |
|    \\/     M anipulation  |                                                 |
\*---------------------------------------------------------------------------*/
FoamFile
{
    version     2.0;
    format      ascii;
    arch        "LSB;label=32;scalar=64";
    class       volVectorField;
    location    "22.5";
    object      U;
}
// * * * * * * * * * * * * * * * * * * * * * * * * * * * * * * * * * * * * * //

dimensions      [0 1 -1 0 0 0 0];

internalField   nonuniform List<vector> 
8800
(
(0.98014 -0.0915203 0)
(1.00234 -0.058729 0)
(0.99961 -0.0321242 0)
(1.00001 -0.0165095 0)
(1.00006 -0.00881579 0)
(1.00003 -0.00505669 0)
(1.00002 -0.00296204 0)
(1.00001 -0.00168109 0)
(1.00001 -0.000809764 0)
(1.00005 -0.000127371 0)
(1.00001 0.000558223 0)
(1.00001 0.00131084 0)
(1.00001 0.00234174 0)
(1.00002 0.00394793 0)
(1.00004 0.00670176 0)
(1.00005 0.0120183 0)
(0.999884 0.0230813 0)
(0.999084 0.0431558 0)
(1.00721 0.0790321 0)
(0.775021 0.0478398 0)
(0.359 -0.0147476 0)
(1.04651 -0.0724755 0)
(1.08849 -0.0660118 0)
(1.04946 -0.0509031 0)
(1.02551 -0.0376821 0)
(1.01266 -0.0258763 0)
(1.0065 -0.0166942 0)
(1.00359 -0.0102262 0)
(1.00217 -0.00564717 0)
(1.0015 -0.00211888 0)
(1.00138 0.00105092 0)
(1.00174 0.00432284 0)
(1.00271 0.00820898 0)
(1.00474 0.0135556 0)
(1.00897 0.0212614 0)
(1.01797 0.0317671 0)
(1.03589 0.0445615 0)
(1.06751 0.0580244 0)
(1.09477 0.0699772 0)
(0.845762 0.055489 0)
(0.217825 -0.00137806 0)
(1.07572 -0.0506157 0)
(1.09946 -0.0488945 0)
(1.06442 -0.039956 0)
(1.03985 -0.032462 0)
(1.02367 -0.0252327 0)
(1.01389 -0.0180739 0)
(1.00842 -0.0115686 0)
(1.00561 -0.00591889 0)
(1.00448 -0.000722928 0)
(1.0048 0.00431699 0)
(1.00663 0.00956867 0)
(1.01054 0.0155124 0)
(1.01788 0.0222572 0)
(1.03056 0.0293952 0)
(1.05064 0.0365399 0)
(1.08027 0.0443865 0)
(1.10591 0.0517662 0)
(0.943613 0.0409255 0)
(0.217429 0.00139404 0)
(0.176745 -0.000624993 0)
(1.01952 -0.0353718 0)
(1.10573 -0.0412998 0)
(1.07795 -0.0363205 0)
(1.05235 -0.0303186 0)
(1.03507 -0.02445 0)
(1.02323 -0.0186739 0)
(1.01544 -0.0127552 0)
(1.01087 -0.00679192 0)
(1.00886 -0.000727422 0)
(1.00943 0.00527819 0)
(1.01255 0.0111259 0)
(1.01852 0.0169131 0)
(1.02814 0.0225662 0)
(1.0424 0.0281837 0)
(1.0633 0.033991 0)
(1.09416 0.039874 0)
(1.09488 0.0414589 0)
(0.831078 0.0226281 0)
(0.176078 0.000637597 0)
(0.154949 -0.000457967 0)
(0.958577 -0.025519 0)
(1.10448 -0.034846 0)
(1.08797 -0.0323339 0)
(1.06103 -0.027795 0)
(1.04292 -0.0229046 0)
(1.03055 -0.0177667 0)
(1.02197 -0.0124352 0)
(1.01646 -0.00676118 0)
(1.01387 -0.000513886 0)
(1.01457 0.0057799 0)
(1.01841 0.0115342 0)
(1.02525 0.0167786 0)
(1.03544 0.0217434 0)
(1.05025 0.0265357 0)
(1.0723 0.0310333 0)
(1.10152 0.0350497 0)
(1.07066 0.0334458 0)
(0.744301 0.0142242 0)
(0.153953 0.000472311 0)
(0.140449 -0.000329182 0)
(0.902092 -0.0190325 0)
(1.09705 -0.0297965 0)
(1.09619 -0.0289373 0)
(1.0687 -0.0252067 0)
(1.04964 -0.0211697 0)
(1.03665 -0.016608 0)
(1.02771 -0.0115753 0)
(1.02182 -0.00612187 0)
(1.0189 -0.00012228 0)
(1.01963 0.0059054 0)
(1.02374 0.0113746 0)
(1.03083 0.0163043 0)
(1.04142 0.0207911 0)
(1.05699 0.0247898 0)
(1.08007 0.0283552 0)
(1.1042 0.0311242 0)
(1.03977 0.0273373 0)
(0.678844 0.00996932 0)
(0.139056 0.000346162 0)
(0.130011 -0.000242611 0)
(0.853258 -0.014393 0)
(1.08483 -0.0252485 0)
(1.1015 -0.0255697 0)
(1.07517 -0.022395 0)
(1.05572 -0.0189319 0)
(1.04224 -0.0149844 0)
(1.03281 -0.010471 0)
(1.02658 -0.00539204 0)
(1.02346 0.000331483 0)
(1.02412 0.00611001 0)
(1.02835 0.0111924 0)
(1.03575 0.0155898 0)
(1.04678 0.0193916 0)
(1.06272 0.0226917 0)
(1.08611 0.0256777 0)
(1.10365 0.0275712 0)
(1.00655 0.0223093 0)
(0.628902 0.00739771 0)
(0.128135 0.000263648 0)
(0.122279 -0.000183464 0)
(0.812585 -0.010953 0)
(1.07026 -0.0211837 0)
(1.10502 -0.0223114 0)
(1.08108 -0.0194691 0)
(1.06105 -0.016274 0)
(1.04726 -0.0128694 0)
(1.03759 -0.00894159 0)
(1.03114 -0.00434994 0)
(1.02788 0.000942309 0)
(1.02842 0.00624098 0)
(1.03264 0.0107852 0)
(1.04012 0.0145324 0)
(1.0513 0.017653 0)
(1.0676 0.0204322 0)
(1.09156 0.0231861 0)
(1.10086 0.0243694 0)
(0.974009 0.0182014 0)
(0.590195 0.00564792 0)
(0.119816 0.000209397 0)
(0.116571 -0.000132685 0)
(0.779611 -0.00813033 0)
(1.05448 -0.0172443 0)
(1.1072 -0.01918 0)
(1.08645 -0.0170041 0)
(1.06584 -0.014196 0)
(1.05179 -0.0110205 0)
(1.042 -0.00736042 0)
(1.03533 -0.00315517 0)
(1.03177 0.00165789 0)
(1.03223 0.00641117 0)
(1.03649 0.0104217 0)
(1.04394 0.0137057 0)
(1.05511 0.0164472 0)
(1.07182 0.0188294 0)
(1.09574 0.0209949 0)
(1.09556 0.0212524 0)
(0.943585 0.0145806 0)
(0.560117 0.00429239 0)
(0.113394 0.000164864 0)
(0.112497 -9.54105e-05 0)
(0.753887 -0.00583361 0)
(1.03888 -0.0134638 0)
(1.10788 -0.0158217 0)
(1.09085 -0.0142372 0)
(1.07023 -0.0117653 0)
(1.05596 -0.0088808 0)
(1.04601 -0.00554167 0)
(1.03926 -0.00174387 0)
(1.03558 0.002542 0)
(1.03581 0.00671964 0)
(1.03981 0.0101148 0)
(1.04715 0.0128741 0)
(1.05841 0.0151837 0)
(1.07514 0.0170893 0)
(1.09808 0.0186318 0)
(1.08812 0.0180896 0)
(0.916526 0.0114946 0)
(0.536938 0.00325509 0)
(0.108442 0.000136268 0)
(0.109791 -5.93827e-05 0)
(0.73491 -0.00369758 0)
(1.02495 -0.009657 0)
(1.10778 -0.0119671 0)
(1.0947 -0.0106272 0)
(1.07397 -0.00850952 0)
(1.05941 -0.00624064 0)
(1.04918 -0.00350342 0)
(1.04214 -0.000210829 0)
(1.03823 0.00359566 0)
(1.03818 0.00722201 0)
(1.04204 0.00994387 0)
(1.04936 0.0119062 0)
(1.06063 0.0132847 0)
(1.07759 0.0145356 0)
(1.09912 0.0156793 0)
(1.07978 0.0147272 0)
(0.89358 0.00863365 0)
(0.519608 0.00231786 0)
(0.104656 0.000110623 0)
(0.108482 -1.24754e-05 0)
(0.72237 -0.00178817 0)
(1.0132 -0.00612664 0)
(1.10724 -0.00855145 0)
(1.09801 -0.00780982 0)
(1.07719 -0.00618142 0)
(1.06266 -0.00424443 0)
(1.05263 -0.00168684 0)
(1.04568 0.00141916 0)
(1.04158 0.00486766 0)
(1.04117 0.00800957 0)
(1.04448 0.0103045 0)
(1.05124 0.0118495 0)
(1.06214 0.0127904 0)
(1.07916 0.0133302 0)
(1.0991 0.0135896 0)
(1.07089 0.0118015 0)
(0.874724 0.00611769 0)
(0.50757 0.00153531 0)
(0.102012 7.77269e-05 0)
(0.108378 2.20738e-05 0)
(0.715375 -0.000429601 0)
(1.00352 -0.0031431 0)
(1.10518 -0.00553194 0)
(1.09996 -0.00541939 0)
(1.07969 -0.00412226 0)
(1.06524 -0.00229997 0)
(1.05516 0.00020411 0)
(1.04804 0.0031789 0)
(1.04358 0.00641866 0)
(1.04276 0.0092019 0)
(1.04573 0.011006 0)
(1.05216 0.0120345 0)
(1.0627 0.012476 0)
(1.07914 0.0126176 0)
(1.09688 0.0120981 0)
(1.06085 0.00945932 0)
(0.85969 0.00442808 0)
(0.499349 0.00110518 0)
(0.10025 5.27448e-05 0)
(0.109061 4.95399e-05 0)
(0.712444 0.000299857 0)
(0.996961 -0.00107684 0)
(1.10285 -0.0026838 0)
(1.10133 -0.00257685 0)
(1.08219 -0.00144378 0)
(1.06816 0.000365579 0)
(1.05822 0.00278961 0)
(1.05097 0.00550783 0)
(1.04614 0.00834207 0)
(1.04474 0.010629 0)
(1.04701 0.0118074 0)
(1.05271 0.0121847 0)
(1.06261 0.0121089 0)
(1.0786 0.0117552 0)
(1.09361 0.010863 0)
(1.05113 0.00807622 0)
(0.8479 0.00386567 0)
(0.492831 0.00105106 0)
(0.0988598 4.69605e-05 0)
(0.110139 6.10863e-05 0)
(0.711749 0.000683548 0)
(0.993595 5.43842e-05 0)
(1.10189 -0.000583993 0)
(1.10291 0.000117442 0)
(1.0847 0.0015424 0)
(1.0708 0.00336251 0)
(1.06069 0.00566383 0)
(1.05316 0.00816572 0)
(1.04791 0.0106693 0)
(1.04577 0.0124536 0)
(1.04737 0.0130396 0)
(1.0526 0.013001 0)
(1.06192 0.0125184 0)
(1.07714 0.0117561 0)
(1.09002 0.0105275 0)
(1.04257 0.0079893 0)
(0.837525 0.00413292 0)
(0.486241 0.00120337 0)
(0.0973645 5.73592e-05 0)
(0.111491 7.01779e-05 0)
(0.712112 0.00104988 0)
(0.991903 0.000703796 0)
(1.10254 0.00043941 0)
(1.10571 0.00166857 0)
(1.08763 0.00342967 0)
(1.07345 0.00558304 0)
(1.06319 0.00809899 0)
(1.05535 0.0108306 0)
(1.04952 0.0134607 0)
(1.04656 0.0151428 0)
(1.04731 0.0155012 0)
(1.05192 0.0148881 0)
(1.06079 0.013931 0)
(1.0753 0.0130545 0)
(1.08654 0.0118566 0)
(1.03425 0.00907729 0)
(0.826523 0.00470632 0)
(0.478816 0.00141473 0)
(0.0955306 7.73639e-05 0)
(0.113205 8.36583e-05 0)
(0.713607 0.00160356 0)
(0.99034 0.00158941 0)
(1.10323 0.00102332 0)
(1.10894 0.00183029 0)
(1.09114 0.00368938 0)
(1.07681 0.00642337 0)
(1.0663 0.00973252 0)
(1.05807 0.0133791 0)
(1.05144 0.016877 0)
(1.04746 0.0191686 0)
(1.04714 0.0198448 0)
(1.05067 0.0194104 0)
(1.05904 0.0182999 0)
(1.07335 0.0167069 0)
(1.0822 0.0148582 0)
(1.02365 0.0105388 0)
(0.813959 0.00519174 0)
(0.470543 0.00162043 0)
(0.0933037 9.83637e-05 0)
(0.115501 0.000107451 0)
(0.717242 0.00242389 0)
(0.988909 0.0031624 0)
(1.10266 0.00198663 0)
(1.1113 0.00229794 0)
(1.09507 0.00391002 0)
(1.08106 0.00719343 0)
(1.07056 0.0115931 0)
(1.06178 0.0164851 0)
(1.0541 0.021149 0)
(1.04887 0.0243219 0)
(1.04734 0.0255654 0)
(1.04971 0.0254254 0)
(1.05655 0.0241502 0)
(1.06964 0.0219703 0)
(1.07412 0.0179553 0)
(1.0094 0.011608 0)
(0.800339 0.00557759 0)
(0.461559 0.00183998 0)
(0.0906797 0.000118275 0)
(0.118639 0.000146573 0)
(0.724063 0.0035428 0)
(0.989446 0.00555895 0)
(1.10026 0.0048487 0)
(1.11289 0.00440101 0)
(1.09913 0.00585944 0)
(1.08651 0.00986872 0)
(1.07609 0.0152773 0)
(1.06653 0.0211297 0)
(1.05751 0.0265792 0)
(1.05076 0.0301277 0)
(1.04778 0.0313344 0)
(1.04853 0.0308411 0)
(1.05346 0.0290621 0)
(1.06305 0.0255333 0)
(1.06163 0.0196578 0)
(0.992946 0.0122031 0)
(0.786431 0.00609627 0)
(0.451697 0.00212631 0)
(0.0876231 0.000139144 0)
(0.12291 0.000205675 0)
(0.734842 0.00492944 0)
(0.993413 0.00839553 0)
(1.09903 0.00924502 0)
(1.11394 0.00903742 0)
(1.10381 0.011195 0)
(1.09286 0.0158224 0)
(1.08235 0.0217585 0)
(1.07172 0.0279879 0)
(1.06103 0.0334745 0)
(1.05233 0.0365227 0)
(1.04755 0.036832 0)
(1.04638 0.0351926 0)
(1.04885 0.0322004 0)
(1.05364 0.0273232 0)
(1.047 0.0204903 0)
(0.976505 0.0129951 0)
(0.772253 0.00695461 0)
(0.440462 0.0025108 0)
(0.0840485 0.000162306 0)
(0.128649 0.000280238 0)
(0.750053 0.00660463 0)
(1.00208 0.0118133 0)
(1.10175 0.0145898 0)
(1.11669 0.016171 0)
(1.10952 0.0195514 0)
(1.09966 0.0247825 0)
(1.08881 0.0310069 0)
(1.07683 0.0372183 0)
(1.06404 0.0421003 0)
(1.05298 0.0439054 0)
(1.04594 0.0426352 0)
(1.04256 0.0393057 0)
(1.04207 0.0346819 0)
(1.04279 0.0287768 0)
(1.03242 0.0218025 0)
(0.960811 0.0146291 0)
(0.756883 0.0082861 0)
(0.427131 0.00304909 0)
(0.0797948 0.000194377 0)
(0.13629 0.000387095 0)
(0.770246 0.00885553 0)
(1.01622 0.0159812 0)
(1.10943 0.0207901 0)
(1.12299 0.0244874 0)
(1.11685 0.029674 0)
(1.10719 0.0359898 0)
(1.09542 0.0427095 0)
(1.08156 0.0487946 0)
(1.0661 0.0527304 0)
(1.05218 0.0528106 0)
(1.04251 0.0495244 0)
(1.03666 0.0443866 0)
(1.03347 0.0381762 0)
(1.03121 0.0314914 0)
(1.01831 0.0244644 0)
(0.945018 0.0172695 0)
(0.739153 0.0101154 0)
(0.411 0.00373931 0)
(0.0746881 0.000233104 0)
(0.1466 0.000553006 0)
(0.796653 0.0120642 0)
(1.03607 0.0214301 0)
(1.12219 0.0282768 0)
(1.13348 0.0343451 0)
(1.12665 0.0416192 0)
(1.11594 0.0494471 0)
(1.10227 0.0569257 0)
(1.08576 0.0629105 0)
(1.06699 0.0657441 0)
(1.04971 0.0638912 0)
(1.03718 0.0584838 0)
(1.02878 0.0514178 0)
(1.02322 0.0437543 0)
(1.0188 0.0361826 0)
(1.0039 0.0287351 0)
(0.927756 0.0209166 0)
(0.71823 0.0124239 0)
(0.391571 0.00451057 0)
(0.0685902 0.000269533 0)
(0.160803 0.000818883 0)
(0.831154 0.0168647 0)
(1.06277 0.0290347 0)
(1.1404 0.0381465 0)
(1.14836 0.0468332 0)
(1.13935 0.0564733 0)
(1.12615 0.066022 0)
(1.1094 0.0743298 0)
(1.0893 0.0800993 0)
(1.06653 0.0815895 0)
(1.04545 0.0775865 0)
(1.02983 0.0699465 0)
(1.01889 0.0608922 0)
(1.01122 0.0516784 0)
(1.00501 0.0429938 0)
(0.988076 0.0346827 0)
(0.907638 0.0256479 0)
(0.692902 0.0152735 0)
(0.368098 0.00547351 0)
(0.0613895 0.000314922 0)
(0.181118 0.0012894 0)
(0.876962 0.0244973 0)
(1.09809 0.0404605 0)
(1.1647 0.0520843 0)
(1.16796 0.0639596 0)
(1.15508 0.0760729 0)
(1.13779 0.0871906 0)
(1.11664 0.0959729 0)
(1.09194 0.101045 0)
(1.06448 0.100702 0)
(1.03924 0.0941835 0)
(1.02036 0.0841046 0)
(1.00687 0.0729547 0)
(0.99717 0.0620162 0)
(0.989232 0.0519476 0)
(0.969827 0.0423746 0)
(0.88339 0.0315759 0)
(0.662065 0.0187925 0)
(0.339999 0.00660921 0)
(0.0529992 0.000356703 0)
(0.210962 0.00236575 0)
(0.939893 0.0380144 0)
(1.14409 0.0596144 0)
(1.19602 0.0736907 0)
(1.19208 0.0890831 0)
(1.17326 0.103051 0)
(1.15017 0.114767 0)
(1.1233 0.122994 0)
(1.09315 0.126413 0)
(1.0605 0.12343 0)
(1.03087 0.113855 0)
(1.00866 0.101052 0)
(0.992612 0.08766 0)
(0.980854 0.0748544 0)
(0.970986 0.0632077 0)
(0.948325 0.052132 0)
(0.853725 0.0390205 0)
(0.62466 0.0231278 0)
(0.307425 0.00801157 0)
(0.0437102 0.000385171 0)
(0.252059 0.00887202 -1.30076e-20)
(1.02355 0.0656922 -1.01078e-20)
(1.19866 0.0922755 2.82701e-21)
(1.23262 0.109279 0)
(1.21811 0.126113 4.63077e-36)
(1.19175 0.139911 9.90797e-23)
(1.1617 0.15047 -1.1894e-21)
(1.12833 0.156788 0)
(1.09211 0.157591 4.66928e-35)
(1.05378 0.151342 -3.58113e-21)
(1.0193 0.138404 0)
(0.993335 0.122797 -5.17382e-21)
(0.974309 0.107174 -1.58487e-20)
(0.96003 0.0926183 -7.67558e-21)
(0.947615 0.0796698 -2.41892e-21)
(0.920763 0.0674097 -1.46448e-21)
(0.815428 0.0514287 0)
(0.577176 0.0308461 1.04752e-21)
(0.269824 0.0117816 1.24054e-21)
(0.0353193 0.00120017 2.20036e-20)
(0.279173 0.0249636 -2.39913e-20)
(1.09217 0.109797 5.07284e-22)
(1.24469 0.140207 -1.38381e-21)
(1.26544 0.158446 0)
(1.24145 0.173636 2.21132e-21)
(1.20776 0.185721 1.23973e-21)
(1.17081 0.194383 -7.31004e-22)
(1.13077 0.198526 -5.95196e-21)
(1.08799 0.1968 0)
(1.04313 0.18758 1.52122e-20)
(1.00267 0.171669 1.68993e-20)
(0.971659 0.15362 5.4525e-21)
(0.948399 0.136066 2.15776e-20)
(0.930402 0.119836 3.18e-20)
(0.913889 0.105348 0)
(0.880503 0.0914604 4.72576e-20)
(0.767901 0.0725055 6.88321e-20)
(0.528728 0.0462813 7.67654e-20)
(0.24025 0.0201861 -8.8577e-20)
(0.0296738 0.00255754 -1.63653e-21)
(0.277256 0.0405747 0)
(1.1333 0.166931 -7.39368e-21)
(1.27762 0.200143 0)
(1.29077 0.217387 1.19357e-20)
(1.25965 0.229034 0)
(1.21962 0.237748 6.09131e-21)
(1.17642 0.243171 7.07801e-22)
(1.13026 0.244128 -8.65085e-21)
(1.08141 0.239179 -1.5646e-21)
(1.0304 0.226663 7.3721e-21)
(0.984405 0.207846 3.95785e-20)
(0.94887 0.187677 -3.00367e-22)
(0.921808 0.168711 -1.625e-20)
(0.900517 0.151628 -3.15956e-20)
(0.881069 0.136466 3.8311e-20)
(0.845724 0.12172 -6.88856e-20)
(0.738771 0.0995733 -9.40213e-21)
(0.515376 0.0677205 0)
(0.247148 0.0324947 7.01221e-23)
(0.0340365 0.00480451 0)
(0.269194 0.0542065 -1.83779e-19)
(1.15357 0.226944 7.60098e-20)
(1.29852 0.265035 4.08441e-20)
(1.30738 0.280956 -7.82324e-21)
(1.27133 0.288761 1.19434e-20)
(1.22651 0.293519 -1.46274e-20)
(1.17826 0.295107 6.24562e-22)
(1.12686 0.292341 0)
(1.07271 0.283744 -2.86922e-20)
(1.01626 0.267676 0)
(0.965349 0.245894 -2.02255e-20)
(0.925962 0.223784 -2.85632e-20)
(0.895829 0.20366 -1.82832e-20)
(0.87204 0.18593 -2.36179e-20)
(0.850731 0.170374 0)
(0.815886 0.154873 0)
(0.719639 0.130919 -6.35007e-20)
(0.517085 0.0939785 1.26722e-20)
(0.262168 0.0482349 -7.36693e-21)
(0.04057 0.00791709 -8.60515e-21)
(0.260862 0.0663964 1.36177e-19)
(1.16066 0.28659 0)
(1.31042 0.331444 -1.14591e-19)
(1.31636 0.345823 -2.94369e-20)
(1.27682 0.349956 -2.23735e-20)
(1.22846 0.35074 0)
(1.17626 0.348432 -2.94975e-21)
(1.1206 0.341824 7.6265e-21)
(1.06194 0.329445 1.24973e-20)
(1.00088 0.309686 3.76246e-20)
(0.945836 0.284857 0)
(0.903357 0.26075 -6.24429e-20)
(0.870907 0.239519 -4.00494e-20)
(0.845343 0.221258 -2.41761e-20)
(0.822931 0.205547 1.5876e-19)
(0.789512 0.189737 1.9515e-20)
(0.702959 0.164703 9.306e-20)
(0.519105 0.121796 -4.48052e-19)
(0.273946 0.0652848 2.66589e-19)
(0.0458348 0.0113429 -3.21334e-19)
(0.253434 0.0774095 1.43958e-19)
(1.15954 0.343949 -2.67753e-20)
(1.3151 0.39674 2.01846e-20)
(1.31921 0.410082 5.48229e-20)
(1.27718 0.410801 3.36024e-20)
(1.22611 0.407874 1.68343e-21)
(1.1708 0.401835 2.5985e-21)
(1.11167 0.391476 5.51038e-21)
(1.04925 0.37535 -2.75928e-20)
(0.984261 0.351859 0)
(0.925811 0.323893 -2.67783e-20)
(0.880903 0.297602 -1.53607e-21)
(0.846843 0.275088 -4.49406e-20)
(0.820238 0.256193 0)
(0.797444 0.240216 -3.47189e-20)
(0.765806 0.22419 -8.45799e-20)
(0.686814 0.197993 2.33569e-19)
(0.516366 0.149141 -2.32037e-19)
(0.278142 0.0813327 3.29332e-19)
(0.0484772 0.0144399 -3.43129e-19)
(0.247451 0.0876489 -4.17877e-22)
(1.15347 0.39843 3.28197e-20)
(1.31454 0.459926 9.65187e-20)
(1.31739 0.472634 -3.36068e-20)
(1.27351 0.470293 1.91944e-20)
(1.22033 0.463963 0)
(1.16253 0.454437 8.76627e-21)
(1.10052 0.440525 -4.06174e-21)
(1.03491 0.420769 -1.25485e-20)
(0.966509 0.393597 0)
(0.905149 0.362359 -2.61959e-20)
(0.858315 0.333681 -3.69364e-20)
(0.823136 0.309561 4.9265e-20)
(0.795993 0.289701 -3.15913e-20)
(0.773285 0.273069 -1.5331e-19)
(0.743381 0.256419 9.43309e-20)
(0.670312 0.228425 2.96903e-20)
(0.508778 0.173259 0)
(0.276438 0.0947722 -3.20422e-19)
(0.0488086 0.0168583 -1.1791e-20)
(0.242832 0.0974259 2.3645e-20)
(1.14454 0.449899 -3.778e-20)
(1.31012 0.520436 -5.28177e-20)
(1.31207 0.532809 -1.03457e-19)
(1.26677 0.527809 9.3221e-20)
(1.21192 0.518432 -4.96114e-20)
(1.15206 0.505703 -1.84058e-20)
(1.08763 0.488473 -5.76478e-21)
(1.01924 0.465276 1.27513e-20)
(0.947849 0.434468 -9.24411e-20)
(0.88385 0.399862 -3.23165e-20)
(0.83531 0.368576 0)
(0.799359 0.342512 5.39589e-20)
(0.772037 0.321279 6.68134e-20)
(0.749626 0.303633 8.23611e-20)
(0.721219 0.285951 -1.03009e-19)
(0.652305 0.255752 -3.10026e-20)
(0.496843 0.194097 3.66575e-20)
(0.270302 0.105611 0)
(0.047772 0.0186711 -2.57073e-20)
(0.239382 0.106873 -2.74735e-19)
(1.13418 0.49849 1.73075e-19)
(1.30299 0.578028 5.81521e-20)
(1.30415 0.590286 -7.90071e-20)
(1.2577 0.582974 5.57906e-20)
(1.20151 0.570886 -3.92832e-21)
(1.13997 0.555274 1.79645e-20)
(1.07345 0.535008 -2.65713e-21)
(1.00259 0.508586 -2.27304e-20)
(0.928449 0.474288 1.89687e-22)
(0.862086 0.436245 -9.64701e-20)
(0.812073 0.402073 9.43914e-20)
(0.775393 0.373727 -6.05473e-20)
(0.747992 0.350733 7.54086e-20)
(0.725967 0.331781 0)
(0.698796 0.312698 -5.59583e-20)
(0.632696 0.279599 -1.14625e-21)
(0.481413 0.211584 -1.60473e-19)
(0.26048 0.11377 -2.36661e-20)
(0.0454957 0.0197711 0)
(0.236912 0.116103 0)
(1.12319 0.544434 1.88067e-19)
(1.29393 0.632614 1.35639e-19)
(1.29436 0.644943 8.91913e-20)
(1.24696 0.635603 5.37064e-20)
(1.18969 0.62112 0)
(1.12673 0.602932 1.72982e-20)
(1.05839 0.579925 -1.20126e-21)
(0.985309 0.550547 4.83518e-20)
(0.908609 0.512922 -1.13254e-20)
(0.839972 0.471449 -7.07843e-20)
(0.788502 0.434221 4.72449e-20)
(0.751068 0.403303 -1.97122e-21)
(0.723568 0.378191 7.94232e-20)
(0.70195 0.357531 5.19819e-20)
(0.675736 0.336651 -1.2186e-19)
(0.611399 0.300153 1.47297e-19)
(0.463062 0.225612 4.39172e-20)
(0.247842 0.119468 1.8133e-19)
(0.0423482 0.0201828 -4.85594e-19)
(0.235331 0.125225 -7.05847e-20)
(1.11216 0.587912 1.0854e-19)
(1.28364 0.684249 -8.45471e-20)
(1.28325 0.696747 -1.03564e-19)
(1.23507 0.685602 0)
(1.17689 0.669008 4.32982e-20)
(1.11273 0.648546 -4.97518e-20)
(1.0428 0.623098 8.01975e-22)
(0.967685 0.591052 0)
(0.888504 0.550327 -1.76108e-19)
(0.817457 0.505469 1.93192e-19)
(0.764424 0.465027 0)
(0.726277 0.431331 7.17224e-20)
(0.698617 0.403884 -1.97482e-21)
(0.677314 0.381185 -1.64453e-19)
(0.651711 0.358103 6.46975e-20)
(0.588284 0.317638 0)
(0.442274 0.236313 2.38137e-19)
(0.233034 0.122786 0)
(0.0386133 0.0200391 -2.31333e-19)
(0.234419 0.134286 7.87561e-20)
(1.10135 0.629129 1.24066e-19)
(1.27255 0.732945 -8.86503e-20)
(1.27126 0.745705 0)
(1.22242 0.732963 7.39584e-20)
(1.16351 0.714513 0)
(1.09831 0.692048 6.55326e-20)
(1.02697 0.664455 6.99532e-21)
(0.949939 0.630043 4.94468e-21)
(0.868276 0.586495 -8.70495e-20)
(0.794758 0.538383 1.87473e-20)
(0.73995 0.494666 0)
(0.700903 0.457908 -1.52563e-19)
(0.673011 0.427798 2.03821e-21)
(0.65191 0.40279 0)
(0.626591 0.377132 2.41277e-21)
(0.563287 0.332112 2.16846e-19)
(0.419047 0.243633 -2.08201e-19)
(0.216326 0.123693 6.1471e-20)
(0.0343799 0.0192699 0)
(0.233848 0.143142 0)
(1.09096 0.668121 1.38841e-19)
(1.26097 0.778881 1.0398e-19)
(1.25874 0.791878 -2.22711e-21)
(1.20937 0.777711 4.63466e-20)
(1.14984 0.757635 1.02013e-19)
(1.08376 0.733422 -2.10286e-20)
(1.01112 0.703967 2.36678e-21)
(0.932294 0.667498 2.96221e-20)
(0.848197 0.621463 -1.3585e-19)
(0.772039 0.570303 -3.19823e-21)
(0.715184 0.523288 -6.23921e-20)
(0.674887 0.483306 2.50077e-19)
(0.646596 0.450235 -2.42421e-21)
(0.625604 0.422584 -1.29578e-19)
(0.600271 0.393893 -2.36848e-19)
(0.536421 0.343662 0)
(0.393562 0.247737 0)
(0.19791 0.122112 6.72842e-20)
(0.0298384 0.0179082 -3.93942e-20)
(0.233845 0.151924 9.80392e-20)
(1.08112 0.704873 -3.04354e-19)
(1.24911 0.822143 -1.1142e-19)
(1.24597 0.835333 0)
(1.19616 0.819904 -1.5358e-21)
(1.13612 0.798403 1.22554e-19)
(1.06928 0.772678 -7.05729e-20)
(0.995501 0.741635 -3.01382e-20)
(0.914992 0.70343 3.05184e-20)
(0.828464 0.655268 -1.04687e-19)
(0.749444 0.601337 -1.63683e-19)
(0.690195 0.551111 1.66394e-19)
(0.648344 0.507698 0)
(0.61937 0.471362 -5.82814e-20)
(0.598337 0.440731 -1.4222e-19)
(0.572663 0.408493 -1.71533e-19)
(0.507594 0.352251 -2.07885e-19)
(0.365895 0.248476 6.20546e-20)
(0.177865 0.117879 -3.64063e-20)
(0.0249587 0.0159439 3.84325e-22)
(0.23385 0.160532 0)
(1.07193 0.739642 0)
(1.23721 0.862815 2.53877e-21)
(1.23316 0.87616 0)
(1.18298 0.859623 -1.74115e-19)
(1.12253 0.836876 -1.08287e-19)
(1.05507 0.809848 0)
(0.980279 0.777471 -7.49451e-21)
(0.898194 0.737837 3.82638e-20)
(0.80923 0.687925 -2.40659e-19)
(0.72717 0.631601 0)
(0.665111 0.578316 -1.06656e-19)
(0.621251 0.531361 -2.97166e-21)
(0.591258 0.491435 -2.44728e-21)
(0.570006 0.457391 1.51757e-19)
(0.543701 0.420969 -4.22076e-22)
(0.476811 0.357823 -4.51246e-19)
(0.335879 0.245665 1.3498e-19)
(0.156308 0.111024 4.00235e-20)
(0.0198457 0.0134633 0)
(0.233865 0.168883 -3.60826e-19)
(1.06314 0.772665 -1.87e-19)
(1.22538 0.901012 -2.79293e-19)
(1.22045 0.914473 3.89055e-19)
(1.16998 0.896939 -3.2646e-19)
(1.10923 0.873112 0)
(1.04125 0.844973 -5.99779e-20)
(0.965578 0.811494 1.39525e-20)
(0.882024 0.770735 3.75694e-21)
(0.790677 0.719466 1.9036e-20)
(0.705401 0.661176 2.05426e-19)
(0.640126 0.605109 -3.64911e-20)
(0.593683 0.554575 -1.54387e-19)
(0.562171 0.510714 -6.91946e-20)
(0.540445 0.472669 8.44309e-20)
(0.513255 0.431195 -3.23906e-22)
(0.444151 0.360104 1.23524e-19)
(0.303656 0.239049 -2.92602e-19)
(0.133758 0.10167 3.47794e-19)
(0.014757 0.0106157 5.04495e-20)
(0.233756 0.176926 1.32565e-19)
(1.05474 0.803979 -1.02409e-19)
(1.21373 0.936854 6.01125e-21)
(1.20796 0.950393 2.1986e-19)
(1.15728 0.931956 7.63193e-20)
(1.09631 0.907179 2.16089e-19)
(1.02793 0.878098 -2.65966e-20)
(0.951497 0.843726 6.68785e-20)
(0.866606 0.802122 -2.04668e-20)
(0.772943 0.749892 -1.31583e-19)
(0.68432 0.690122 0)
(0.615425 0.631644 -1.64284e-19)
(0.565785 0.577668 2.24171e-19)
(0.532031 0.529571 0)
(0.509362 0.486698 -1.80701e-19)
(0.481057 0.438875 1.11741e-19)
(0.409634 0.358526 -1.33424e-19)
(0.270189 0.228487 -1.5977e-19)
(0.111226 0.0903126 -2.82616e-19)
(0.00994476 0.00758176 -2.2046e-19)
(0.233854 0.184726 -1.45818e-19)
(1.04657 0.833577 1.09486e-19)
(1.20233 0.970424 2.60621e-19)
(1.19578 0.984007 3.02281e-19)
(1.14496 0.964764 -1.59727e-19)
(1.08385 0.939162 1.49029e-19)
(1.01518 0.909277 -8.26754e-20)
(0.938112 0.874211 8.28148e-20)
(0.852017 0.832022 -6.12523e-21)
(0.756142 0.779207 1.25986e-19)
(0.664104 0.718468 4.37209e-19)
(0.59124 0.658058 0)
(0.537719 0.600955 0)
(0.500758 0.548474 -8.00514e-20)
(0.476277 0.49972 0)
(0.446501 0.443469 2.43073e-19)
(0.373204 0.351951 2.90998e-19)
(0.236604 0.21337 0)
(0.0900908 0.0773544 0)
(0.00576429 0.00467697 2.39423e-19)
(0.233648 0.192047 1.6086e-19)
(1.03867 0.861471 1.31202e-19)
(1.19123 1.00185 1.87326e-19)
(1.18395 1.01544 -2.69893e-19)
(1.13308 0.995465 -1.78072e-19)
(1.0719 0.969136 -1.97621e-19)
(1.00305 0.938574 1.225e-19)
(0.925474 0.902979 3.26102e-22)
(0.838318 0.860436 -4.83606e-21)
(0.740363 0.807397 -5.8634e-21)
(0.644922 0.74621 2.21719e-19)
(0.56781 0.684425 0)
(0.509795 0.624701 2.26614e-19)
(0.468416 0.568006 1.68997e-19)
(0.440536 0.512324 4.30403e-19)
(0.408285 0.444519 1.31222e-19)
(0.334239 0.338202 -1.59983e-19)
(0.205176 0.19147 -9.37947e-20)
(0.0745155 0.0628264 0)
(0.00355265 0.00251882 2.59625e-19)
(0.233644 0.199289 -3.53975e-19)
(1.03101 0.887768 0)
(1.18044 1.03119 2.09343e-19)
(1.17251 1.04479 -2.21123e-19)
(1.12167 1.02415 2.01568e-19)
(1.06049 0.997186 2.88618e-19)
(0.991566 0.966045 -2.83814e-19)
(0.913603 0.930066 2.83876e-21)
(0.825533 0.887372 0)
(0.725672 0.834425 -1.18006e-19)
(0.626921 0.773315 -4.60544e-19)
(0.545383 0.710771 2.24717e-20)
(0.482396 0.649075 3.0856e-19)
(0.435278 0.588838 0)
(0.401508 0.5256 2.90935e-19)
(0.364181 0.442543 0)
(0.289342 0.314364 0)
(0.176856 0.154259 -1.04044e-19)
(0.0800375 0.0361014 0)
(0.025396 0.0105578 7.00379e-20)
(0.233317 0.205898 -3.8693e-19)
(1.02357 0.912777 0)
(1.16996 1.05867 3.38936e-19)
(1.16144 1.07226 0)
(1.1107 1.05107 -1.0939e-19)
(1.04957 1.02359 0)
(0.980667 0.991994 -2.12273e-20)
(0.902402 0.955806 -1.43704e-20)
(0.813553 0.913187 -3.1199e-22)
(0.711926 0.860673 -1.16044e-19)
(0.609974 0.800196 1.20939e-20)
(0.523853 0.737647 1.85846e-19)
(0.455388 0.674617 2.98991e-19)
(0.401088 0.611997 4.26689e-20)
(0.357976 0.541575 2.28183e-19)
(0.31055 0.440435 0)
(0.226857 0.281729 3.48552e-19)
(0.123836 0.0899034 -2.05391e-19)
(0.0511129 0.0519963 2.36239e-19)
(-0.0667437 0.405433 -2.76331e-19)
(0.232974 0.212243 3.15474e-19)
(1.01611 0.936381 4.98959e-19)
(1.15969 1.08459 0)
(1.1506 1.09829 4.96607e-21)
(1.10001 1.07678 2.97191e-19)
(1.03889 1.049 -5.58376e-19)
(0.97007 1.0172 -1.25076e-19)
(0.891509 0.981111 0)
(0.801902 0.938946 -2.477e-20)
(0.698531 0.887421 -3.47473e-21)
(0.593273 0.828316 0)
(0.502201 0.766818 0)
(0.427589 0.703185 2.62663e-19)
(0.36479 0.639415 -1.33434e-19)
(0.307706 0.564026 -2.28227e-19)
(0.242688 0.445284 0)
(0.128642 0.261627 1.78073e-19)
(0.0191541 0.430451 -2.06738e-19)
(0.0435389 1.80862 -1.07337e-19)
(0.0760477 2.76933 -1.39744e-19)
(0.232497 0.217736 -2.30908e-19)
(1.00888 0.958709 -6.29749e-19)
(1.14964 1.10894 1.95444e-19)
(1.13999 1.12271 1.87808e-19)
(1.08963 1.10107 0)
(1.0285 1.07314 -3.99748e-19)
(0.959945 1.04134 -2.09563e-19)
(0.881083 1.00556 9.58826e-21)
(0.790815 0.964138 -3.22899e-21)
(0.68583 0.914046 8.84719e-20)
(0.577383 0.856966 2.05889e-19)
(0.481385 0.797722 1.9178e-19)
(0.400204 0.734365 2.58155e-19)
(0.328784 0.669375 -3.04887e-19)
(0.256853 0.59529 -3.38148e-19)
(0.164632 0.473324 0)
(0.0670817 0.807744 0)
(0.124433 2.4914 9.20549e-20)
(0.127474 3.17163 0)
(0.129708 3.37629 2.10226e-19)
(0.234447 0.22291 0)
(1.00243 0.979885 0)
(1.13959 1.1316 0)
(1.1294 1.14533 5.23316e-20)
(1.07925 1.12371 2.6531e-19)
(1.01819 1.09588 -3.05123e-19)
(0.95019 1.06433 -1.50061e-19)
(0.871081 1.02905 1.09096e-20)
(0.780258 0.98863 -6.30838e-20)
(0.673849 0.940408 -1.01049e-20)
(0.562448 0.886022 3.72484e-19)
(0.461752 0.830138 -2.25409e-20)
(0.373774 0.768785 2.9131e-20)
(0.294872 0.699159 4.34537e-20)
(0.208975 0.634788 4.92899e-22)
(0.129991 0.910618 1.81641e-21)
(0.169844 2.62935 -4.65215e-19)
(0.18767 3.27262 -1.74245e-19)
(0.171628 3.42423 8.08385e-20)
(0.153977 3.44991 -8.3389e-20)
(0.152227 0.180011 1.3196e-19)
(0.989894 1.00285 0)
(1.12931 1.15273 -3.809e-19)
(1.11955 1.16672 -4.83556e-19)
(1.06963 1.14547 5.53093e-19)
(1.00883 1.11785 3.24085e-19)
(0.940706 1.08628 1.75522e-19)
(0.861599 1.0517 -1.88429e-19)
(0.77041 1.01255 6.88325e-20)
(0.662933 0.966542 0)
(0.548998 0.915441 1.60866e-19)
(0.44405 0.863643 -1.43382e-19)
(0.349238 0.808409 0)
(0.264333 0.731759 3.82023e-20)
(0.188609 0.832162 9.118e-20)
(0.181861 2.32401 -1.13157e-19)
(0.258852 3.3097 1.26033e-19)
(0.23474 3.44374 6.04822e-20)
(0.195729 3.46866 6.83168e-20)
(0.169531 3.48043 8.50671e-20)
(0.275919 0.258928 -2.45545e-19)
(0.973269 1.01031 0)
(1.11033 1.17602 3.92527e-19)
(1.10567 1.19816 5.03916e-19)
(1.05408 1.17728 -5.69464e-19)
(0.993027 1.15019 -3.44897e-19)
(0.924334 1.12 -2.70941e-19)
(0.844926 1.08661 -1.3942e-20)
(0.752874 1.04965 -1.00608e-19)
(0.643359 1.00761 7.97974e-21)
(0.525404 0.9631 6.20452e-21)
(0.413795 0.919612 1.10501e-19)
(0.305398 0.877479 2.37833e-20)
(0.236901 0.979934 -3.42441e-20)
(0.262502 2.19065 -8.05547e-20)
(0.335524 3.31027 5.72771e-20)
(0.322508 3.48146 -5.11279e-20)
(0.281338 3.5065 -2.84167e-20)
(0.2403 3.53621 5.29245e-21)
(0.181742 3.52834 -4.40841e-22)
(0.262923 0.254992 0)
(0.969906 1.03121 1.0339e-19)
(1.10223 1.19817 -7.78508e-20)
(1.09583 1.22029 -5.6286e-20)
(1.04442 1.19942 -3.74488e-19)
(0.983538 1.17255 3.36951e-19)
(0.914676 1.14251 1.8256e-19)
(0.835383 1.10991 -1.4659e-20)
(0.743295 1.07445 1.25319e-19)
(0.633265 1.03529 -1.4215e-20)
(0.513774 0.995661 -2.05572e-19)
(0.399571 0.958749 1.56897e-20)
(0.29325 0.939994 -2.05767e-20)
(0.279704 1.39628 -2.81766e-20)
(0.371689 3.01453 1.83904e-20)
(0.407316 3.47225 9.35404e-22)
(0.360378 3.5456 -2.54919e-20)
(0.319325 3.57274 -4.65745e-20)
(0.263662 3.59837 7.66552e-20)
(0.197521 3.59234 3.00051e-20)
(0.245945 0.252634 2.53736e-19)
(0.964722 1.05455 6.96756e-19)
(1.09351 1.22219 -2.2257e-19)
(1.08552 1.24383 -2.1386e-19)
(1.03427 1.22278 0)
(0.973634 1.19592 4.93923e-19)
(0.904914 1.1661 2.7886e-19)
(0.826026 1.13425 -1.54614e-20)
(0.734243 1.10034 1.29583e-20)
(0.624235 1.0642 5.96783e-20)
(0.503999 1.02973 -6.20731e-20)
(0.389101 1.00027 -1.06308e-19)
(0.298091 1.05127 -1.34351e-19)
(0.354658 2.00187 1.48409e-19)
(0.467641 3.35371 7.34734e-20)
(0.460612 3.5435 0)
(0.405797 3.59338 0)
(0.36714 3.64223 7.34578e-20)
(0.296957 3.71473 0)
(0.210353 3.67782 1.47168e-19)
(0.234359 0.25338 -3.70871e-19)
(0.957568 1.07876 -5.80156e-19)
(1.08334 1.24723 0)
(1.07399 1.26812 5.76671e-21)
(1.02294 1.24665 -3.65119e-19)
(0.962672 1.21966 7.3449e-19)
(0.894436 1.19006 1.87775e-19)
(0.816172 1.15884 -1.93616e-20)
(0.724962 1.12639 1.42032e-19)
(0.615404 1.09321 -7.07401e-21)
(0.495216 1.064 0)
(0.381701 1.04401 0)