/*--------------------------------*- C++ -*----------------------------------*\
| =========                 |                                                 |
| \\      /  F ield         | OpenFOAM: The Open Source CFD Toolbox           |
|  \\    /   O peration     | Version:  2112                                  |
|   \\  /    A nd           | Website:  www.openfoam.com                      |
|    \\/     M anipulation  |                                                 |
\*---------------------------------------------------------------------------*/
FoamFile
{
    version     2.0;
    format      ascii;
    arch        "LSB;label=32;scalar=64";
    class       volScalarField;
    location    "64.5";
    object      p;
}
// * * * * * * * * * * * * * * * * * * * * * * * * * * * * * * * * * * * * * //

dimensions      [0 2 -2 0 0 0 0];

internalField   nonuniform List<scalar> 
8800
(
0.821426
0.77364
0.734953
0.70596
0.685101
0.670277
0.659692
0.652227
0.64743
0.645403
0.646706
0.650924
0.65759
0.666921
0.679711
0.697453
0.722235
0.756179
0.798732
0.857434
0.652671
0.66035
0.667828
0.671139
0.669639
0.664567
0.658089
0.652025
0.647321
0.644505
0.64426
0.646799
0.651313
0.657278
0.66406
0.670349
0.673995
0.673262
0.667847
0.65916
0.631068
0.637228
0.641357
0.644305
0.646359
0.646971
0.645876
0.643789
0.641797
0.640924
0.641924
0.644337
0.647159
0.649357
0.649976
0.648785
0.64645
0.643061
0.638505
0.634744
0.625248
0.627899
0.630653
0.63306
0.6347
0.63587
0.636624
0.63676
0.636492
0.63648
0.637274
0.638478
0.639343
0.639427
0.638831
0.63775
0.635941
0.633375
0.630975
0.629472
0.619854
0.621279
0.62306
0.625096
0.626886
0.628237
0.62924
0.630058
0.630704
0.631311
0.632009
0.632544
0.632672
0.632406
0.631725
0.630488
0.628801
0.626959
0.625655
0.624823
0.61476
0.61568
0.616924
0.618495
0.620134
0.621669
0.62297
0.624061
0.625061
0.626003
0.626747
0.62712
0.627112
0.626697
0.625835
0.624649
0.623332
0.62208
0.621261
0.620709
0.609831
0.610501
0.611466
0.612773
0.61419
0.615659
0.617116
0.618465
0.619704
0.620868
0.621753
0.622173
0.622129
0.62165
0.620866
0.619936
0.618936
0.618022
0.61744
0.617034
0.605021
0.605538
0.606324
0.60746
0.608745
0.610132
0.611597
0.613099
0.614573
0.615974
0.617054
0.617587
0.61761
0.617261
0.616685
0.61598
0.615223
0.614549
0.614119
0.613801
0.600257
0.600668
0.601327
0.602339
0.603553
0.604894
0.606361
0.607951
0.609624
0.611296
0.612627
0.613358
0.613579
0.613453
0.613102
0.612611
0.61206
0.61158
0.611262
0.611003
0.595452
0.595787
0.596357
0.59729
0.598457
0.599785
0.60129
0.602981
0.604846
0.606813
0.60847
0.609502
0.610005
0.610136
0.610019
0.609754
0.6094
0.609081
0.608847
0.60863
0.590518
0.590795
0.591304
0.592191
0.593342
0.594696
0.596276
0.598111
0.60021
0.602519
0.604586
0.606005
0.606847
0.607272
0.607412
0.607376
0.607217
0.60704
0.606874
0.606686
0.585363
0.585596
0.586066
0.586939
0.588112
0.589535
0.591235
0.593267
0.595665
0.5984
0.600968
0.602852
0.60409
0.604854
0.605281
0.605481
0.605521
0.605475
0.605365
0.605197
0.579897
0.580094
0.580545
0.581432
0.582669
0.584207
0.58608
0.588378
0.591157
0.594423
0.597599
0.600037
0.601739
0.60289
0.603638
0.604092
0.604347
0.604425
0.604362
0.604208
0.574015
0.574184
0.574632
0.575563
0.576906
0.578609
0.580723
0.583365
0.586627
0.59055
0.594463
0.597563
0.599812
0.601408
0.602524
0.603284
0.603752
0.603949
0.603926
0.60378
0.567599
0.567745
0.568205
0.569209
0.570704
0.572631
0.575064
0.578147
0.582015
0.586745
0.591549
0.595438
0.598337
0.600457
0.601992
0.603085
0.603798
0.60412
0.604135
0.603992
0.56051
0.56063
0.561118
0.562226
0.563925
0.566147
0.568986
0.572628
0.57725
0.582966
0.588847
0.593679
0.597344
0.600084
0.602115
0.603593
0.604578
0.605028
0.605076
0.604934
0.552559
0.55266
0.553192
0.55444
0.556401
0.558996
0.562355
0.5667
0.572255
0.579175
0.586351
0.592307
0.596878
0.600345
0.60297
0.604898
0.606188
0.606773
0.606853
0.606706
0.543525
0.543626
0.544212
0.545619
0.547911
0.550993
0.555011
0.560235
0.566946
0.575334
0.584065
0.591354
0.596993
0.601315
0.604643
0.607096
0.60873
0.609459
0.609567
0.609413
0.533091
0.533171
0.533848
0.53548
0.538208
0.541911
0.546761
0.553091
0.561235
0.571412
0.582001
0.59086
0.597754
0.603084
0.607215
0.610289
0.612312
0.613189
0.613322
0.613156
0.520879
0.520946
0.521722
0.523666
0.526952
0.531453
0.537366
0.545097
0.555024
0.567378
0.580179
0.590874
0.599224
0.605726
0.61079
0.614584
0.617027
0.618053
0.618205
0.618024
0.506331
0.506387
0.507307
0.509667
0.513692
0.519243
0.526544
0.536068
0.548225
0.563221
0.578631
0.591455
0.601469
0.609311
0.615458
0.620056
0.622946
0.624112
0.624272
0.624073
0.488681
0.488726
0.489858
0.492803
0.497841
0.504811
0.513959
0.525817
0.540778
0.558972
0.577423
0.592671
0.604561
0.613919
0.621252
0.626752
0.630092
0.631373
0.631527
0.631308
0.46676
0.466802
0.468283
0.472111
0.478608
0.487577
0.499257
0.514194
0.532687
0.554713
0.576658
0.594608
0.60857
0.619591
0.628227
0.634664
0.638415
0.639765
0.639896
0.639655
0.438815
0.438878
0.440951
0.446204
0.454968
0.466874
0.482123
0.501153
0.524058
0.550608
0.576482
0.597364
0.613541
0.626328
0.636357
0.643707
0.64777
0.649117
0.649201
0.648941
0.401802
0.401967
0.405254
0.413135
0.425724
0.442118
0.462455
0.486856
0.515157
0.546914
0.577085
0.601055
0.619528
0.634137
0.645561
0.65369
0.657897
0.659141
0.659157
0.658883
0.349881
0.35087
0.357407
0.370689
0.389925
0.413264
0.440618
0.471809
0.506468
0.544005
0.578694
0.6058
0.626558
0.642914
0.655641
0.664305
0.668412
0.669451
0.66939
0.669109
0.27409
0.281417
0.296538
0.31994
0.349082
0.381723
0.417653
0.45666
0.498368
0.542161
0.581683
0.612126
0.635334
0.65358
0.667522
0.676501
0.680357
0.681178
0.681069
0.680824
0.192654
0.209978
0.234477
0.268634
0.308071
0.350145
0.394712
0.441715
0.49085
0.541554
0.586771
0.621317
0.647462
0.667927
0.683213
0.692116
0.69534
0.695882
0.695804
0.695644
0.124766
0.145169
0.177413
0.220713
0.269237
0.320193
0.373131
0.427972
0.48439
0.541809
0.592446
0.63081
0.659656
0.681929
0.697875
0.706362
0.70914
0.709625
0.70961
0.709494
0.0691644
0.0912287
0.129004
0.17876
0.234467
0.29291
0.353265
0.415315
0.478588
0.542404
0.598194
0.640142
0.671442
0.695266
0.711876
0.720337
0.722906
0.723378
0.723391
0.723306
0.0228968
0.0461381
0.087709
0.142594
0.204077
0.268708
0.335433
0.403886
0.473435
0.543254
0.603958
0.649333
0.682991
0.708404
0.725794
0.734412
0.737129
0.737528
0.737557
0.737496
-0.0163105
0.00758695
0.0520327
0.110971
0.177311
0.247207
0.31947
0.393635
0.468933
0.544371
0.60975
0.658431
0.694401
0.721363
0.739676
0.748767
0.751571
0.752
0.752041
0.752003
-0.0504932
-0.0261739
0.0205353
0.0828225
0.15327
0.227753
0.304941
0.38427
0.46486
0.545572
0.615422
0.66731
0.70555
0.734062
0.75332
0.762953
0.765987
0.766443
0.766503
0.766477
-0.0811572
-0.056471
-0.00791801
0.0572304
0.131226
0.209735
0.291339
0.375382
0.460901
0.546626
0.62078
0.675778
0.716209
0.74626
0.766408
0.776556
0.779859
0.780391
0.780448
0.780434
-0.109279
-0.0842666
-0.0341384
0.0334813
0.110594
0.192674
0.278257
0.366638
0.456786
0.547303
0.625632
0.683648
0.726189
0.757649
0.778698
0.789345
0.792896
0.793528
0.79356
0.793548
-0.135671
-0.110286
-0.058731
0.0110375
0.0909356
0.176209
0.265398
0.357776
0.452273
0.547398
0.629823
0.690803
0.735382
0.768212
0.790017
0.801065
0.804812
0.805501
0.805515
0.805493
-0.160716
-0.134957
-0.082128
-0.0104511
0.0719343
0.160074
0.252533
0.348596
0.447193
0.546784
0.633269
0.697202
0.743769
0.777845
0.800241
0.811601
0.815476
0.816193
0.816185
0.816144
-0.184854
-0.158633
-0.104769
-0.0312311
0.0533647
0.144078
0.23951
0.338974
0.441432
0.545349
0.635899
0.702838
0.751385
0.786605
0.809515
0.821022
0.8249
0.82562
0.825575
0.825515
-0.208221
-0.181542
-0.126659
-0.0514824
0.0350885
0.128112
0.226238
0.328827
0.434904
0.543015
0.637668
0.707726
0.758319
0.794642
0.81791
0.829383
0.833235
0.833915
0.833851
0.833769
-0.230962
-0.203826
-0.147915
-0.0713048
0.017038
0.112124
0.21267
0.318107
0.427561
0.53972
0.638526
0.711888
0.764676
0.802103
0.825591
0.836909
0.840608
0.841217
0.841128
0.841029
-0.253212
-0.225554
-0.168655
-0.0907412
-0.000827361
0.096097
0.198806
0.306821
0.419389
0.535416
0.638416
0.715324
0.770569
0.809187
0.832764
0.843725
0.847149
0.847649
0.847519
0.847405
-0.275018
-0.246736
-0.188935
-0.109803
-0.0184901
0.0800467
0.184679
0.294994
0.410398
0.530066
0.637274
0.718012
0.776087
0.816089
0.839642
0.849992
0.852946
0.853272
0.853112
0.85299
-0.296227
-0.267356
-0.208689
-0.128474
-0.0359289
0.064028
0.170335
0.282686
0.400631
0.523679
0.635027
0.719886
0.781249
0.823024
0.846564
0.855974
0.858149
0.85819
0.857997
0.857881
-0.316827
-0.287393
-0.227912
-0.146715
-0.0530958
0.0480903
0.155856
0.269966
0.390157
0.516268
0.631616
0.720828
0.786009
0.830151
0.853985
0.862218
0.863088
0.862511
0.862259
0.862206
-0.336888
-0.306817
-0.246588
-0.164503
-0.0699346
0.0323097
0.14132
0.256929
0.379055
0.507887
0.626982
0.720685
0.790209
0.837453
0.862346
0.869646
0.868649
0.866643
0.866099
0.866355
-0.356246
-0.325612
-0.264665
-0.181788
-0.0863921
0.0167639
0.126817
0.243678
0.367435
0.498617
0.621098
0.719268
0.793578
0.844636
0.871743
0.879343
0.876787
0.872405
0.870142
0.869991
-0.374996
-0.343771
-0.282164
-0.1986
-0.102503
0.00140992
0.112293
0.230161
0.355232
0.48839
0.613832
0.716301
0.795824
0.851229
0.881642
0.891734
0.889966
0.882949
0.875339
0.861629
-0.393068
-0.361281
-0.299201
-0.21514
-0.118545
-0.0140747
0.097344
0.21591
0.341931
0.476597
0.604571
0.711054
0.796455
0.856633
0.89051
0.904898
0.904445
0.891211
0.870825
0.860047
-0.410293
-0.37829
-0.315586
-0.231215
-0.134167
-0.0293522
0.0821898
0.201241
0.327825
0.463475
0.593342
0.702994
0.794554
0.859647
0.894274
0.908553
0.910195
0.88578
0.818409
0.788317
-0.426011
-0.396059
-0.33101
-0.24635
-0.14857
-0.0439231
0.0671479
0.186383
0.313128
0.449137
0.580049
0.691762
0.788579
0.859508
0.887674
0.89692
0.883259
0.827665
0.758472
0.715998
-0.480946
-0.411732
-0.344966
-0.261673
-0.163404
-0.0592685
0.0521465
0.171044
0.297457
0.433104
0.564047
0.676626
0.774496
0.852172
0.854278
0.854373
0.801294
0.728959
0.651623
0.608606
-0.442656
-0.426715
-0.365801
-0.281413
-0.185369
-0.0812746
0.0291141
0.147378
0.272841
0.407165
0.536373
0.64762
0.738214
0.821387
0.804914
0.687594
0.579901
0.505006
0.430674
0.460035
-0.473138
-0.444042
-0.382241
-0.298696
-0.202685
-0.0987095
0.0119522
0.129583
0.25399
0.386546
0.513026
0.620134
0.701046
0.74528
0.694346
0.541741
0.411532
0.31853
0.218967
0.267922
-0.496624
-0.464607
-0.401652
-0.317978
-0.221849
-0.117981
-0.0074052
0.10939
0.232398
0.362562
0.485331
0.586222
0.658148
0.667566
0.558108
0.382728
0.228078
0.107765
-0.0242435
0.00796705
-0.51958
-0.486064
-0.421965
-0.337383
-0.241182
-0.137473
-0.0274318
0.0883924
0.209799
0.337174
0.455241
0.548215
0.60463
0.582308
0.420978
0.222658
0.0309446
-0.138004
-0.327127
-0.346413
-0.541947
-0.508001
-0.443034
-0.357688
-0.261362
-0.157887
-0.0485101
0.066213
0.18575
0.30992
0.422535
0.507464
0.544078
0.484988
0.290392
0.0782388
-0.140052
-0.329979
-0.572239
-0.869224
-0.564614
-0.530673
-0.465184
-0.379369
-0.282873
-0.179582
-0.0708011
0.0427789
0.160327
0.281005
0.387833
0.464212
0.479295
0.3688
0.176692
-0.0346709
-0.23994
-0.41286
-0.48272
-0.561417
-0.588533
-0.554536
-0.488762
-0.402739
-0.306208
-0.203196
-0.0951087
0.0171486
0.13238
0.249017
0.349646
0.414779
0.40465
0.260425
0.0755614
-0.116707
-0.280598
-0.37416
-0.398378
-0.414231
-0.614007
-0.579891
-0.513939
-0.427872
-0.331495
-0.22894
-0.12179
-0.0111645
0.101322
0.213259
0.307162
0.357876
0.329926
0.159736
-0.0161199
-0.183217
-0.310702
-0.350078
-0.362937
-0.364254
-0.641238
-0.606911
-0.540779
-0.454765
-0.358686
-0.256819
-0.150866
-0.0422105
0.0670837
0.173736
0.259959
0.296122
0.248256
0.0667249
-0.100008
-0.249614
-0.326345
-0.343426
-0.344803
-0.344626
-0.670285
-0.635663
-0.569309
-0.483418
-0.387799
-0.286822
-0.182339
-0.0760045
0.029677
0.13052
0.208182
0.232667
0.148301
-0.018177
-0.176601
-0.299788
-0.336555
-0.334966
-0.334093
-0.333503
-0.700866
-0.665967
-0.59943
-0.513746
-0.418748
-0.318897
-0.21618
-0.11252
-0.010859
0.0837175
0.152658
0.159942
0.0574504
-0.0970114
-0.237318
-0.31368
-0.323953
-0.326581
-0.327249
-0.326981
-0.732436
-0.697384
-0.630886
-0.545525
-0.451349
-0.352888
-0.252238
-0.151626
-0.0543376
0.0336893
0.0939054
0.0862569
-0.0238416
-0.163772
-0.281773
-0.313218
-0.321543
-0.322818
-0.322536
-0.322236
-0.764531
-0.729364
-0.663232
-0.578361
-0.485262
-0.388478
-0.290233
-0.193035
-0.100473
-0.0188946
0.0309088
0.0162183
-0.0981969
-0.217648
-0.312218
-0.328921
-0.320038
-0.31896
-0.318836
-0.318572
-0.796251
-0.761186
-0.6956
-0.611666
-0.519946
-0.425196
-0.329719
-0.236269
-0.148795
-0.0734005
-0.0334279
-0.0481431
-0.16286
-0.257821
-0.313919
-0.323036
-0.319202
-0.317452
-0.316698
-0.3164
-0.826057
-0.791681
-0.727018
-0.644523
-0.554641
-0.462349
-0.370046
-0.280645
-0.198503
-0.129239
-0.0927566
-0.119505
-0.214629
-0.291047
-0.297879
-0.314614
-0.318034
-0.316109
-0.315387
-0.314944
-0.852331
-0.819036
-0.756361
-0.675749
-0.588318
-0.499011
-0.410356
-0.325306
-0.248477
-0.185562
-0.149095
-0.189111
-0.261423
-0.302598
-0.326312
-0.322718
-0.321321
-0.321093
-0.321021
-0.320601
-0.872961
-0.841377
-0.781592
-0.703939
-0.619704
-0.534046
-0.449572
-0.369222
-0.297567
-0.240952
-0.207277
-0.247586
-0.305237
-0.34083
-0.35954
-0.349625
-0.342762
-0.341861
-0.340789
-0.339863
-0.885708
-0.856818
-0.800792
-0.727227
-0.647313
-0.566146
-0.486486
-0.411191
-0.344663
-0.293744
-0.263726
-0.298781
-0.352022
-0.398339
-0.377202
-0.372028
-0.371032
-0.368108
-0.364637
-0.363954
-0.887954
-0.863106
-0.812021
-0.743807
-0.669463
-0.593923
-0.51978
-0.449934
-0.388541
-0.342252
-0.31011
-0.338654
-0.389051
-0.477058
-0.429454
-0.386015
-0.364737
-0.356093
-0.353703
-0.353055
-0.877502
-0.857496
-0.813117
-0.752096
-0.684696
-0.615909
-0.548154
-0.484151
-0.42784
-0.385033
-0.345931
-0.344565
-0.345088
-0.426567
-0.392588
-0.343303
-0.324351
-0.320701
-0.319841
-0.318699
-0.852354
-0.837313
-0.802269
-0.750863
-0.692041
-0.631133
-0.570468
-0.512587
-0.461267
-0.421583
-0.371545
-0.308847
-0.178502
-0.0781751
-0.125681
-0.213067
-0.266757
-0.288758
-0.295627
-0.296717
-0.815067
-0.805369
-0.78029
-0.740268
-0.691496
-0.639369
-0.58617
-0.534293
-0.487782
-0.450925
-0.408766
-0.313222
-0.136489
0.0775642
-0.0627698
-0.222078
-0.31341
-0.35246
-0.367358
-0.372827
-0.772376
-0.766868
-0.752055
-0.723126
-0.685008
-0.64142
-0.595413
-0.549244
-0.506539
-0.473272
-0.445699
-0.447881
-0.548178
-0.731478
-0.796877
-0.731991
-0.655054
-0.619006
-0.611455
-0.612079
-0.734156
-0.730828
-0.723816
-0.704908
-0.675485
-0.639167
-0.599145
-0.557351
-0.517002
-0.486709
-0.470315
-0.58931
-0.849896
-1.12254
-1.15202
-1.01884
-0.924638
-0.851209
-0.801409
-0.79609
-0.7071
-0.705062
-0.701529
-0.689934
-0.666799
-0.635399
-0.599103
-0.558899
-0.517741
-0.4784
-0.46067
-0.463296
-0.565537
-0.725739
-0.9095
-0.994455
-1.00392
-0.933931
-0.836853
-0.783352
-0.686738
-0.686012
-0.684887
-0.67912
-0.661479
-0.633012
-0.5971
-0.556194
-0.509831
-0.460293
-0.426668
-0.397933
-0.361526
-0.280065
-0.203047
-0.14153
-0.105479
-0.07756
-0.0232516
0.0138251
-0.674875
-0.674587
-0.67398
-0.67131
-0.658906
-0.631992
-0.594879
-0.550978
-0.499777
-0.443084
-0.387559
-0.341707
-0.178152
0.102757
0.385334
0.637091
0.753874
0.800093
0.810838
0.81231
-0.667052
-0.666871
-0.666291
-0.665287
-0.657816
-0.633062
-0.594274
-0.545257
-0.488106
-0.417423
-0.33966
-0.254216
-0.0380637
0.300023
0.636078
0.915316
1.0611
1.12003
1.13509
1.1356
-0.662829
-0.662566
-0.661812
-0.661313
-0.657748
-0.63714
-0.595777
-0.541661
-0.47562
-0.397086
-0.304475
-0.207822
0.0193763
0.319282
0.599116
0.830243
0.976106
1.06997
1.1292
1.152
-0.662798
-0.662727
-0.662517
-0.662077
-0.662262
-0.645015
-0.600158
-0.540562
-0.468496
-0.381891
-0.279824
-0.185767
0.0186847
0.315367
0.596026
0.836004
1.01034
1.12527
1.1947
1.22039
-0.663235
-0.66442
-0.66765
-0.673039
-0.675892
-0.655624
-0.606419
-0.544215
-0.467838
-0.37386
-0.272813
-0.177157
-0.00196072
0.271578
0.557869
0.807211
1.00993
1.13721
1.19856
1.21624
-0.664889
-0.66599
-0.665738
-0.662804
-0.660494
-0.646965
-0.611826
-0.554995
-0.473865
-0.375442
-0.275631
-0.181684
-0.0554665
0.205647
0.458938
0.679034
0.858027
0.966877
1.01528
1.0274
-0.693922
-0.691845
-0.674217
-0.63367
-0.601991
-0.617939
-0.625093
-0.572627
-0.484471
-0.381204
-0.283341
-0.191044
-0.0886865
0.104814
0.319148
0.497236
0.636896
0.718126
0.75283
0.760535
-0.758742
-0.755323
-0.750225
-0.739561
-0.728942
-0.729179
-0.69602
-0.606195
-0.499693
-0.388888
-0.290667
-0.205971
-0.126841
0.0152744
0.182337
0.318095
0.423399
0.481814
0.505328
0.508676
-0.887805
-0.90483
-0.948859
-0.991927
-0.991922
-0.946918
-0.814698
-0.654822
-0.512855
-0.392524
-0.297555
-0.223294
-0.163555
-0.0603251
0.0642825
0.166102
0.243747
0.284378
0.300517
0.301157
-0.992381
-1.01698
-1.06243
-1.09669
-1.09487
-1.03545
-0.866523
-0.669892
-0.510244
-0.386565
-0.297165
-0.236165
-0.191229
-0.118835
-0.0290565
0.0447595
0.0973153
0.125116
0.134032
0.133865
-0.92449
-0.946366
-0.982091
-1.01257
-1.01192
-0.947332
-0.781841
-0.612067
-0.470316
-0.361306
-0.286211
-0.237498
-0.203365
-0.154292
-0.0993095
-0.0531463
-0.0212053
-0.00625069
-0.00119901
-0.00242342
-0.659992
-0.679617
-0.71509
-0.751199
-0.761107
-0.708789
-0.598896
-0.487883
-0.393225
-0.31772
-0.262301
-0.224691
-0.19844
-0.170927
-0.143821
-0.125533
-0.116015
-0.113971
-0.113974
-0.114639
-0.307016
-0.318546
-0.341998
-0.373519
-0.397856
-0.396806
-0.375593
-0.339416
-0.301049
-0.263131
-0.231985
-0.206879
-0.186485
-0.175888
-0.172599
-0.174015
-0.180285
-0.186266
-0.187958
-0.188098
-0.0319996
-0.0375818
-0.0533255
-0.0818401
-0.121438
-0.161634
-0.190276
-0.208222
-0.213666
-0.209218
-0.201509
-0.19171
-0.181302
-0.181318
-0.186961
-0.197765
-0.20959
-0.216803
-0.218042
-0.217866
0.10712
0.103843
0.0922334
0.0665238
0.0245533
-0.0275811
-0.0771106
-0.117159
-0.145105
-0.163513
-0.176552
-0.188282
-0.193047
-0.192009
-0.192385
-0.198589
-0.206484
-0.20989
-0.21007
-0.21008
0.146454
0.144313
0.135701
0.11521
0.0799952
0.0343278
-0.0141851
-0.0591488
-0.0965307
-0.127191
-0.155881
-0.188741
-0.209636
-0.198104
-0.190497
-0.185088
-0.184236
-0.183469
-0.182955
-0.183245
0.138934
0.137483
0.131486
0.11685
0.0911882
0.056452
0.0164183
-0.0237276
-0.0609904
-0.0953818
-0.131047
-0.173237
-0.196383
-0.178824
-0.161185
-0.15428
-0.151002
-0.149969
-0.149991
-0.150511
0.116337
0.115431
0.111524
0.101766
0.0842123
0.0594515
0.0291715
-0.00307854
-0.0349179
-0.0652472
-0.0948794
-0.126155
-0.137754
-0.126975
-0.119181
-0.116957
-0.116257
-0.116441
-0.116873
-0.11738
0.0920431
0.0915459
0.0891627
0.0829886
0.071493
0.054628
0.0331014
0.00916411
-0.0148654
-0.0365265
-0.0522303
-0.0625689
-0.0623021
-0.0623158
-0.0693009
-0.0763779
-0.0808887
-0.083223
-0.0842365
-0.0847845
0.0704432
0.070169
0.0688207
0.0650954
0.0578779
0.0468622
0.0323756
0.0159402
-0.000219449
-0.0126295
-0.0150076
-0.00444594
0.00918759
-0.00637789
-0.0252649
-0.0397293
-0.0484596
-0.0527158
-0.0544389
-0.054948
0.0522901
0.052174
0.0514369
0.0493136
0.0449916
0.0381389
0.0289348
0.0184804
0.00903178
0.00447555
0.0114699
0.0298972
0.0449354
0.0268858
0.00529721
-0.0109093
-0.0205323
-0.0254077
-0.0276071
-0.0281068
0.0369035
0.036891
0.0365639
0.0354834
0.0331427
0.0292028
0.0237766
0.0177701
0.0131836
0.013698
0.0247164
0.042872
0.0536105
0.038461
0.0211388
0.0079826
0.000400627
-0.00391138
-0.00606981
-0.00654159
0.0238152
0.0238505
0.023735
0.0233441
0.0222012
0.0201875
0.017271
0.0142248
0.0126286
0.0155213
0.0272154
0.0426249
0.0484558
0.0363029
0.0241111
0.0168261
0.012079
0.00918324
0.00749874
0.0070596
0.0124174
0.012483
0.0125058
0.0123858
0.0119956
0.0111754
0.00997056
0.00871381
0.00841304
0.0111961
0.0201894
0.0324778
0.0368706
0.0263311
0.0184794
0.0146648
0.013736
0.0125286
0.0116346
0.0111639
0.00210206
0.00215082
0.00213273
0.00222066
0.00238008
0.00236806
0.00212988
0.00185779
0.00176053
0.00222341
0.00373252
0.00753037
0.0132579
0.00831281
0.00698894
0.00623521
0.00503027
0.00335934
0.0030653
0.00308422
-0.100819
0.0652023
0.258812
0.42772
0.562322
0.667877
0.754914
0.829075
0.863015
0.839773
0.199267
0.319239
0.448219
0.559518
0.65313
0.730425
0.792984
0.837441
0.859695
0.871868
0.41633
0.49855
0.586681
0.664389
0.731151
0.786989
0.831414
0.863908
0.887458
0.905506
0.575965
0.634861
0.695896
0.752593
0.801834
0.843672
0.878066
0.90554
0.92823
0.946571
0.700588
0.743386
0.789067
0.832579
0.871038
0.904647
0.933439
0.957431
0.977753
0.995613
0.804402
0.837096
0.875021
0.910384
0.942864
0.971997
0.997472
1.0189
1.03672
1.05407
0.896638
0.925227
0.959074
0.991105
1.02096
1.04807
1.07176
1.09144
1.10692
1.12401
0.98504
1.01418
1.04812
1.08009
1.10965
1.13619
1.15902
1.17749
1.19084
1.20787
1.08024
1.11341
1.15001
1.18355
1.21357
1.23973
1.26166
1.27892
1.29078
1.30818
1.19517
1.23298
1.27159
1.30582
1.33514
1.35988
1.38023
1.39611
1.40757
1.42564
1.34007
1.3786
1.41473
1.4454
1.47107
1.49315
1.5122
1.52772
1.54015
1.55814
1.51513
1.54674
1.57291
1.59535
1.61532
1.63404
1.65175
1.66822
1.68357
1.70163
1.70373
1.72093
1.73596
1.75218
1.76808
1.78261
1.79581
1.80974
1.82728
1.84743
1.88544
1.89497
1.90651
1.91732
1.9266
1.93618
1.94696
1.95833
1.96969
1.98504
2.09267
2.09633
2.08138
2.06657
2.0603
2.06597
2.08445
2.11476
2.14693
2.17359
2.39899
2.26412
2.18748
2.1451
2.12767
2.13164
2.15903
2.21545
2.31807
2.54243
0.712023
0.709895
0.705412
0.69679
0.684569
0.672445
0.662223
0.654338
0.648736
0.645502
0.645173
0.647936
0.653058
0.660294
0.669691
0.681237
0.693891
0.704929
0.711042
0.714097
0.63647
0.642317
0.648652
0.653147
0.65562
0.6553
0.65257
0.648771
0.645277
0.643039
0.642919
0.645142
0.648824
0.653127
0.656943
0.658833
0.657901
0.654423
0.649261
0.642641
0.628034
0.63033
0.633735
0.636734
0.638813
0.640315
0.641078
0.640773
0.639765
0.638906
0.63911
0.640564
0.6424
0.643721
0.643911
0.643028
0.641484
0.639152
0.635891
0.632972
0.622507
0.623593
0.625428
0.627809
0.629837
0.631271
0.6323
0.633066
0.633487
0.633736
0.634259
0.635096
0.635717
0.6358
0.635399
0.634559
0.633096
0.631016
0.628934
0.627552
0.617283
0.617945
0.619055
0.620763
0.622549
0.624188
0.625494
0.626525
0.62743
0.628251
0.629017
0.629603
0.629822
0.629675
0.629122
0.628077
0.626657
0.625119
0.623805
0.623026
0.61228
0.61274
0.613527
0.614829
0.616322
0.617847
0.619323
0.620638
0.621799
0.62289
0.623848
0.624456
0.624631
0.62438
0.623699
0.622722
0.621607
0.620481
0.619571
0.619055
0.607418
0.607762
0.608374
0.609446
0.610746
0.612129
0.613581
0.615046
0.616447
0.617768
0.618928
0.619666
0.619879
0.619631
0.619053
0.618292
0.617453
0.616595
0.615928
0.615551
0.602641
0.602909
0.603403
0.604316
0.605492
0.606799
0.608208
0.609718
0.611291
0.612857
0.614263
0.615188
0.615532
0.615446
0.615078
0.614538
0.613905
0.613277
0.612792
0.612504
0.597868
0.598081
0.598492
0.599295
0.600391
0.601651
0.603053
0.604613
0.606321
0.608129
0.609829
0.611023
0.611613
0.611773
0.611639
0.611323
0.610899
0.610465
0.610121
0.609896
0.59301
0.59318
0.593533
0.594263
0.595315
0.596554
0.597986
0.599632
0.601502
0.603571
0.605622
0.60718
0.608101
0.608552
0.608676
0.608593
0.608385
0.608126
0.607898
0.607719
0.587977
0.588114
0.588426
0.589111
0.590147
0.591413
0.592913
0.594689
0.596773
0.59916
0.60164
0.603652
0.604968
0.60576
0.606176
0.606343
0.606349
0.60626
0.606132
0.605988
0.582678
0.582789
0.583073
0.583739
0.584794
0.58613
0.587744
0.589703
0.59207
0.594859
0.597867
0.600425
0.602208
0.603394
0.604141
0.604582
0.60481
0.604894
0.604852
0.604735
0.577018
0.577105
0.577373
0.578045
0.579155
0.580604
0.582386
0.584597
0.587325
0.590622
0.594278
0.59749
0.599827
0.601469
0.602591
0.603351
0.603829
0.604075
0.60411
0.604015
0.570885
0.570952
0.571213
0.571913
0.573116
0.574726
0.576739
0.579281
0.58247
0.586399
0.590845
0.594845
0.597841
0.60002
0.601572
0.60269
0.603444
0.603866
0.603975
0.603896
0.564149
0.564196
0.564459
0.56521
0.566546
0.568372
0.57069
0.573657
0.577428
0.582138
0.587544
0.592491
0.596268
0.599083
0.601142
0.602659
0.603733
0.604346
0.604528
0.604462
0.556655
0.556684
0.556951
0.557775
0.559289
0.561397
0.564105
0.56761
0.572109
0.57778
0.584353
0.590434
0.595139
0.598701
0.601362
0.60336
0.604795
0.605612
0.605865
0.60581
0.548199
0.548213
0.548487
0.549409
0.551159
0.553612
0.556824
0.561009
0.566415
0.573266
0.581251
0.588687
0.594492
0.598933
0.602305
0.604876
0.606721
0.607765
0.608091
0.608042
0.538479
0.538464
0.538794
0.53986
0.541894
0.544806
0.548656
0.553697
0.560233
0.568537
0.578227
0.587274
0.594376
0.599853
0.604056
0.607299
0.60962
0.61091
0.611308
0.611263
0.527196
0.527157
0.527533
0.528793
0.531199
0.5347
0.539362
0.545487
0.55344
0.563529
0.575275
0.586228
0.594844
0.601534
0.606712
0.610727
0.613594
0.615147
0.615615
0.615568
0.513864
0.513798
0.514253
0.515767
0.518659
0.522929
0.528643
0.536159
0.545898
0.558189
0.5724
0.585588
0.595958
0.604042
0.610358
0.615258
0.618734
0.620558
0.621086
0.621033
0.497827
0.497731
0.498313
0.50018
0.503725
0.509023
0.516132
0.525463
0.537476
0.552482
0.569629
0.585412
0.597783
0.607451
0.615054
0.620959
0.625094
0.627185
0.627756
0.62769
0.47814
0.478018
0.478803
0.481187
0.48565
0.492376
0.50139
0.513141
0.528079
0.54643
0.567043
0.585783
0.600398
0.611829
0.620843
0.627869
0.632681
0.635005
0.635593
0.635506
0.453374
0.453236
0.454357
0.457544
0.463398
0.472214
0.48393
0.498971
0.517685
0.540126
0.564766
0.586809
0.603873
0.617218
0.627762
0.635964
0.641419
0.643907
0.644474
0.644358
0.421205
0.42109
0.422826
0.427403
0.435567
0.447643
0.463323
0.482881
0.506426
0.533777
0.562994
0.58863
0.608285
0.623645
0.635784
0.645163
0.65113
0.653664
0.654161
0.654011
0.377457
0.377506
0.380595
0.388068
0.400518
0.417907
0.439457
0.465101
0.49466
0.527736
0.561995
0.591409
0.613716
0.631107
0.644822
0.655271
0.661506
0.663915
0.664293
0.664109
0.31431
0.315527
0.323075
0.337015
0.357297
0.383141
0.412958
0.446354
0.483032
0.522484
0.562062
0.595294
0.620204
0.639537
0.654669
0.66587
0.672074
0.674119
0.674327
0.674122
0.239476
0.241261
0.255708
0.279643
0.31089
0.346718
0.385545
0.427191
0.471478
0.51793
0.563622
0.601514
0.62971
0.651438
0.668187
0.680072
0.686014
0.687753
0.687919
0.687804
0.162293
0.168525
0.189855
0.224073
0.265752
0.311271
0.359068
0.409013
0.460983
0.514531
0.566494
0.609168
0.640695
0.664872
0.683417
0.695548
0.700781
0.702025
0.702129
0.702087
0.0991421
0.107697
0.133603
0.174859
0.224716
0.278495
0.334377
0.392087
0.451398
0.51179
0.569756
0.616923
0.651534
0.677807
0.697402
0.709635
0.714628
0.71576
0.715882
0.715899
0.0477824
0.0569354
0.0863987
0.132906
0.188932
0.249374
0.312102
0.376678
0.44269
0.509482
0.573147
0.624594
0.662092
0.690357
0.71117
0.723739
0.728508
0.729656
0.729865
0.72993
0.00482231
0.0142555
0.046171
0.0966837
0.157778
0.223749
0.292282
0.362858
0.434904
0.507626
0.576681
0.632223
0.672521
0.702733
0.724714
0.737733
0.74272
0.744091
0.744327
0.744418
-0.0321079
-0.022569
0.0111817
0.0649012
0.130187
0.200877
0.274476
0.350384
0.427918
0.506136
0.580282
0.63976
0.682781
0.714922
0.73821
0.751914
0.757272
0.758754
0.758992
0.759082
-0.0646896
-0.0551227
-0.0199671
0.0364599
0.105261
0.180026
0.258116
0.338828
0.421391
0.504744
0.583745
0.647022
0.692692
0.726718
0.7512
0.765742
0.77151
0.77311
0.773333
0.773399
-0.0942153
-0.0846183
-0.0483109
0.0104527
0.0822696
0.160605
0.242689
0.327764
0.414986
0.503199
0.586865
0.653821
0.702058
0.737875
0.763574
0.778783
0.785029
0.786749
0.786977
0.787028
-0.121576
-0.111942
-0.0746377
-0.0138379
0.0606547
0.142154
0.227818
0.316875
0.408433
0.501256
0.589436
0.659986
0.710709
0.748245
0.775024
0.790908
0.79757
0.799367
0.799581
0.799601
-0.147346
-0.137657
-0.0994216
-0.0369049
0.0400024
0.124329
0.213222
0.305916
0.401507
0.498722
0.591317
0.665431
0.718594
0.757766
0.785558
0.801901
0.808845
0.810724
0.810929
0.810917
-0.172023
-0.162197
-0.123094
-0.0590444
0.0200298
0.106881
0.198692
0.294709
0.394064
0.495476
0.59241
0.670107
0.725707
0.766446
0.795111
0.811823
0.818891
0.820779
0.82097
0.820916
-0.195879
-0.185845
-0.146012
-0.0804562
0.000543095
0.089647
0.184092
0.283152
0.386001
0.491417
0.592636
0.673983
0.732085
0.774368
0.803784
0.820719
0.827768
0.829633
0.829801
0.829734
-0.219027
-0.208796
-0.168231
-0.101286
-0.0185807
0.0725466
0.169354
0.271176
0.377255
0.486469
0.591929
0.677048
0.737788
0.781671
0.811728
0.828718
0.835664
0.837442
0.837567
0.837473
-0.241652
-0.231136
-0.189831
-0.121627
-0.0373981
0.0555298
0.154447
0.25876
0.367803
0.480598
0.59023
0.679275
0.742882
0.788494
0.819145
0.836027
0.842716
0.844344
0.844415
0.8443
-0.263708
-0.252933
-0.210924
-0.141533
-0.0559273
0.0385954
0.139389
0.245926
0.357655
0.473779
0.587482
0.680616
0.747415
0.795001
0.826238
0.842802
0.849048
0.85044
0.85043
0.850289
-0.285269
-0.274203
-0.231447
-0.160995
-0.074159
0.0217658
0.124212
0.232721
0.346849
0.466021
0.583637
0.681005
0.751384
0.801325
0.833266
0.849296
0.854774
0.855778
0.855679
0.855541
-0.306178
-0.294891
-0.251397
-0.179978
-0.0920549
0.00510421
0.108971
0.219205
0.335448
0.45737
0.578665
0.680354
0.754724
0.807551
0.84055
0.855929
0.860229
0.860519
0.86025
0.860124
-0.326575
-0.314957
-0.270771
-0.19847
-0.10959
-0.011357
0.0937525
0.205452
0.323532
0.447894
0.57256
0.678553
0.757297
0.813644
0.84836
0.863339
0.866083
0.86499
0.864248
0.864152
-0.346303
-0.334382
-0.289544
-0.216435
-0.126691
-0.0275374
0.0786324
0.191577
0.311202
0.43765
0.565354
0.675486
0.758904
0.819401
0.856725
0.872235
0.873673
0.87042
0.868119
0.867357
-0.365425
-0.353213
-0.307666
-0.233825
-0.143326
-0.0433715
0.063691
0.177656
0.298567
0.426767
0.557103
0.671037
0.759292
0.824442
0.865187
0.882794
0.884615
0.879711
0.873335
0.865271
-0.383861
-0.371408
-0.325231
-0.250795
-0.159701
-0.0591254
0.0486038
0.163305
0.285197
0.414769
0.547306
0.664689
0.758019
0.828493
0.873192
0.894492
0.899384
0.894249
0.883385
0.87864
-0.401565
-0.388892
-0.342225
-0.26732
-0.175827