/*--------------------------------*- C++ -*----------------------------------*\
| =========                 |                                                 |
| \\      /  F ield         | OpenFOAM: The Open Source CFD Toolbox           |
|  \\    /   O peration     | Version:  2112                                  |
|   \\  /    A nd           | Website:  www.openfoam.com                      |
|    \\/     M anipulation  |                                                 |
\*---------------------------------------------------------------------------*/
FoamFile
{
    version     2.0;
    format      ascii;
    arch        "LSB;label=32;scalar=64";
    class       surfaceScalarField;
    location    "64.5";
    object      phi;
}
// * * * * * * * * * * * * * * * * * * * * * * * * * * * * * * * * * * * * * //

dimensions      [0 3 -1 0 0 0 0];

oriented        oriented;

internalField   nonuniform List<scalar> 
17370
(
-0.0916063
0.0960093
0.284608
-0.0775945
0.0594198
0.36495
-0.0430419
0.031622
0.427588
-0.0223182
0.0162657
0.505304
-0.0116731
0.00879988
0.602275
-0.00658944
0.00510502
0.720542
-0.00386842
0.00298816
0.863787
-0.00221504
0.00163646
1.03603
-0.00110433
0.000682646
1.24292
-0.000270465
-0.000124172
1.49159
0.000513357
-0.000928352
1.49161
0.00133395
-0.0018391
1.2432
0.00238891
-0.00313018
1.03638
0.00398566
-0.00520293
0.864124
0.00667615
-0.00887732
0.721259
0.0117405
-0.0163182
0.603792
0.0223548
-0.0316411
0.508726
0.043042
-0.0594085
0.432535
0.0775874
-0.0960029
0.365191
0.0916212
0.19739
-0.127092
0.0880244
0.0390678
-0.364357
0.354032
-0.0714737
0.081799
-0.446654
0.454256
-0.0791681
0.0715657
-0.521012
0.529112
-0.0637115
0.0556114
-0.612992
0.620762
-0.0482235
0.0404534
-0.727165
0.733686
-0.033841
0.0273196
-0.867582
0.872435
-0.0221148
0.0172612
-1.03857
1.04191
-0.0135613
0.01022
-1.24472
1.24713
-0.0076671
0.00525859
-1.49284
1.49486
-0.00329178
0.00127435
-1.49269
1.49452
0.000547704
-0.0023701
-1.2441
1.24602
0.00434572
-0.00625895
-1.03761
1.04008
0.00859516
-0.0110731
-0.866186
0.869811
0.0143285
-0.0179533
-0.724593
0.729744
0.022736
-0.0278874
-0.609063
0.615631
0.0343584
-0.0409262
-0.515122
0.522456
0.0486445
-0.0559786
-0.43988
0.447655
0.0639986
-0.0717742
-0.374705
0.377355
0.0792652
-0.081915
-0.256895
0.224431
0.0715645
-0.0391014
-0.068814
0.0592038
0.00961025
-0.0520987
0.0589225
-0.374841
0.368017
-0.0580728
0.054229
-0.453949
0.457793
-0.0487408
0.0441803
-0.527621
0.532182
-0.039629
0.0357316
-0.620806
0.624704
-0.0315164
0.0275185
-0.734665
0.738663
-0.0231578
0.0192666
-0.873961
0.877852
-0.0152168
0.0117555
-1.04337
1.04683
-0.00823124
0.0051943
-1.24866
1.25169
-0.00198228
-0.00100251
-1.49695
1.49993
0.00396497
-0.00711569
-1.49742
1.50057
0.0100624
-0.0134634
-1.25006
1.25346
0.0167977
-0.0207005
-1.04564
1.04955
0.0244617
-0.0286937
-0.877129
0.881361
0.0325883
-0.0367019
-0.738974
0.743088
0.0405158
-0.0449849
-0.625963
0.630432
0.0494767
-0.0548976
-0.53501
0.540431
0.0586631
-0.0594202
-0.458069
0.458826
0.0524675
-0.0320724
-0.336753
0.316358
0.00967592
-0.0686555
0.0589796
-0.0534166
0.0493072
0.00410941
-0.0332293
0.0436465
-0.358575
0.348158
-0.0473171
0.0467267
-0.459589
0.460179
-0.0437952
0.0405801
-0.536142
0.539357
-0.0369002
0.0335426
-0.628407
0.631765
-0.0299049
0.0266595
-0.742048
0.745293
-0.0232009
0.0199977
-0.881351
0.884555
-0.0163981
0.0130403
-1.05026
1.05362
-0.00933459
0.00592422
-1.25496
1.25837
-0.00212789
-0.0014924
-1.50329
1.50691
0.00508059
-0.00878391
-1.50406
1.50776
0.0120674
-0.015599
-1.25702
1.26055
0.0187773
-0.0221685
-1.05325
1.05664
0.0251865
-0.0284608
-0.884964
0.888239
0.0315575
-0.035049
-0.746766
0.750257
0.0382831
-0.0418347
-0.634547
0.638098
0.0449386
-0.0477455
-0.544568
0.547375
0.0482064
-0.0443561
-0.456935
0.453085
0.0337181
-0.0163912
-0.29703
0.279703
0.00418215
-0.0531265
0.0489443
-0.0461402
0.0435874
0.00255285
-0.0230283
0.0333679
-0.337575
0.327236
-0.0390926
0.0400352
-0.459935
0.458992
-0.0387784
0.036446
-0.542018
0.544351
-0.033799
0.0312477
-0.634738
0.63729
-0.0282646
0.0254103
-0.748384
0.751239
-0.0221649
0.0191437
-0.887617
0.890638
-0.0157844
0.0126426
-1.0568
1.05994
-0.00907743
0.00567029
-1.26177
1.26517
-0.00175349
-0.00204787
-1.51064
1.51444
0.00580766
-0.0095988
-1.51154
1.51533
0.0128375
-0.0161735
-1.264
1.26733
0.019079
-0.0221653
-1.05984
1.06293
0.0249416
-0.0279393
-0.891427
0.894425
0.0305902
-0.0333717
-0.753429
0.75621
0.035754
-0.03823
-0.641044
0.64352
0.0404157
-0.0414799
-0.549202
0.550266
0.0403364
-0.0343186
-0.447948
0.44193
0.0236566
-0.0103904
-0.264499
0.251233
0.00264313
-0.0456959
0.0430528
-0.0414721
0.0396751
0.00179696
-0.0169202
0.0261917
-0.317379
0.308107
-0.0327738
0.0348839
-0.45744
0.45533
-0.0344403
0.032734
-0.546387
0.548093
-0.0304979
0.0283617
-0.639609
0.641745
-0.0259141
0.023526
-0.753847
0.756236
-0.0207
0.0179431
-0.893504
0.896261
-0.0147473
0.0117022
-1.06299
1.06604
-0.00822644
0.00490205
-1.2685
1.27183
-0.0010548
-0.00269683
-1.51821
1.52196
0.00639486
-0.0100834
-1.51907
1.52276
0.013194
-0.0163791
-1.2706
1.27378
0.0191241
-0.0219701
-1.06595
1.0688
0.0244102
-0.026915
-0.897199
0.899704
0.0290405
-0.0312296
-0.75864
0.760829
0.0331508
-0.0351662
-0.645737
0.647752
0.036659
-0.0368395
-0.550836
0.551016
0.0344207
-0.0274092
-0.43532
0.428309
0.0177053
-0.00749447
-0.239637
0.229426
0.00190752
-0.0408378
0.0389303
-0.0381291
0.0367816
0.00134753
-0.0129161
0.0208973
-0.299483
0.291502
-0.0276458
0.0305533
-0.452788
0.44988
-0.0307474
0.0296119
-0.54954
0.550675
-0.0276016
0.0256637
-0.643812
0.64575
-0.0234382
0.021284
-0.75849
0.760644
-0.0187616
0.0162799
-0.898823
0.901304
-0.0133453
0.010477
-1.06895
1.07182
-0.00713417
0.00390705
-1.27507
1.2783
-0.000164663
-0.00347089
-1.52563
1.52927
0.00704012
-0.0105833
-1.52636
1.52991
0.0135433
-0.0165229
-1.27689
1.27987
0.019015
-0.0215099
-1.07151
1.07401
0.0235946
-0.0257138
-0.902004
0.904123
0.027536
-0.0294324
-0.762858
0.764754
0.031098
-0.0328434
-0.649609
0.651354
0.0336671
-0.0331059
-0.550828
0.550267
0.0297571
-0.0224203
-0.421077
0.41374
0.0138837
-0.00579742
-0.220378
0.212292
0.00148229
-0.0372626
0.0357803
-0.0356051
0.0345687
0.00103641
-0.0100862
0.0168387
-0.284159
0.277406
-0.023333
0.0266996
-0.446722
0.443355
-0.027468
0.026763
-0.551587
0.552292
-0.0249842
0.0231884
-0.647655
0.64945
-0.0211112
0.019091
-0.76273
0.764751
-0.0167144
0.0143823
-0.903648
0.90598
-0.0116391
0.00894964
-1.07453
1.07722
-0.00578609
0.00269972
-1.28141
1.2845
0.00090158
-0.00440115
-1.53281
1.53631
0.00781777
-0.011173
-1.53334
1.5367
0.0139277
-0.0166411
-1.28272
1.28544
0.0188667
-0.0210672
-1.07639
1.07859
0.0229084
-0.0247854
-0.906133
0.90801
0.0263944
-0.028064
-0.766526
0.768196
0.0295227
-0.0309367
-0.652951
0.654365
0.0312533
-0.0299638
-0.549357
0.548067
0.0259895
-0.0187213
-0.406413
0.399145
0.0112715
-0.0046745
-0.205021
0.198424
0.00120027
-0.0344556
0.0332554
-0.0336587
0.0328525
0.000806168
-0.00798807
0.0136638
-0.27122
0.265545
-0.019678
0.0232466
-0.439876
0.436307
-0.0244951
0.0240373
-0.552903
0.553361
-0.0225304
0.0208441
-0.651239
0.652926
-0.0188633
0.0169328
-0.766724
0.768654
-0.0146571
0.0124202
-0.908203
0.910439
-0.00978521
0.00720937
-1.07978
1.08235
-0.00419163
0.00124578
-1.28746
1.29041
0.00219113
-0.00552576
-1.5397
1.54303
0.00875996
-0.0118963
-1.53993
1.54306
0.0144354
-0.0169061
-1.28803
1.2905
0.018916
-0.0208858
-1.08074
1.08271
0.0225186
-0.0241787
-0.909798
0.911458
0.0256029
-0.0270811
-0.769761
0.771239
0.0283466
-0.0293814
-0.655569
0.656604
0.0293258
-0.0273659
-0.546448
0.544488
0.0229853
-0.0159785
-0.392003
0.384996
0.00943694
-0.00389868
-0.192407
0.186869
0.0010054
-0.0321652
0.0311599
-0.032144
0.0315157
0.000628337
-0.00637158
0.0111266
-0.260356
0.255601
-0.0165528
0.0201255
-0.432734
0.429161
-0.0217003
0.0214687
-0.553738
0.55397
-0.020195
0.018571
-0.654627
0.656251
-0.016647
0.0147666
-0.770556
0.772436
-0.0125513
0.0103758
-0.912574
0.914749
-0.00781465
0.00531407
-1.08482
1.08732
-0.00239233
-0.0004378
-1.29324
1.29607
0.00372814
-0.00689475
-1.54625
1.54942
0.00993681
-0.0128557
-1.54607
1.54899
0.0151968
-0.0174526
-1.29287
1.29513
0.0192645
-0.0210148
-1.08464
1.08639
0.0224525
-0.0239152
-0.913041
0.914504
0.0251756
-0.0264818
-0.772623
0.77393
0.0276016
-0.0282187
-0.657421
0.658038
0.0277929
-0.0252694
-0.542263
0.539739
0.0206396
-0.0139622
-0.378164
0.371487
0.00813915
-0.00335772
-0.181748
0.176967
0.000870314
-0.0302327
0.0293624
-0.0309667
0.0304822
0.000484511
-0.0050719
0.00903291
-0.251268
0.247307
-0.0138252
0.0172525
-0.425666
0.422238
-0.0190134
0.0189733
-0.554144
0.554184
-0.0178979
0.0163093
-0.65792
0.659509
-0.0144098
0.0125464
-0.774301
0.776165
-0.0103514
0.00820086
-0.916829
0.91898
-0.00567843
0.00322627
-1.08971
1.09216
-0.000375461
-0.00237826
-1.2988
1.30156
0.00554585
-0.00856319
-1.55247
1.55548
0.01143
-0.014149
-1.55178
1.5545
0.0163031
-0.0183506
-1.29728
1.29933
0.0199693
-0.0215062
-1.08812
1.08966
0.0227583
-0.0240387
-0.915897
0.917178
0.0251499
-0.0262969
-0.775146
0.776293
0.0272267
-0.0274636
-0.658458
0.658695
0.0266416
-0.0236403
-0.536993
0.533992
0.0188598
-0.0125046
-0.36499
0.358634
0.00722944
-0.00298531
-0.172487
0.168243
0.00077886
-0.0285477
0.0277689
-0.030065
0.029702
0.00036299
-0.00398401
0.00724757
-0.243716
0.240453
-0.0113935
0.0145651
-0.41895
0.415778
-0.0163857
0.0164998
-0.554193
0.554078
-0.0155096
0.0139945
-0.661135
0.66265
-0.0120918
0.0102126
-0.778025
0.779904
-0.00799966
0.00583946
-0.92104
0.9232
-0.00331937
0.000882963
-1.09451
1.09695
0.00193377
-0.00463016
-1.30421
1.30691
0.0077043
-0.0105965
-1.5584
1.56129
0.0133066
-0.015837
-1.55709
1.55962
0.0178082
-0.0196493
-1.30128
1.30312
0.0210777
-0.0224051
-1.09121
1.09253
0.0234763
-0.0245823
-0.918395
0.919501
0.0255502
-0.0265296
-0.777346
0.778325
0.027202
-0.0271483
-0.658803
0.65875
0.0258917
-0.0224666
-0.530793
0.527368
0.0175807
-0.0114938
-0.352439
0.346353
0.00661623
-0.00274093
-0.164213
0.160338
0.000720901
-0.0270289
0.026308
-0.0293988
0.0291441
0.000254729
-0.00303141
0.00566583
-0.237524
0.234889
-0.00916586
0.0119986
-0.412792
0.40996
-0.0137649
0.013962
-0.553973
0.553776
-0.0130148
0.0115447
-0.664224
0.665694
-0.00961646
0.0076929
-0.781788
0.783711
-0.00542773
0.00322463
-0.925273
0.927476
-0.000669513
-0.00178832
-1.09929
1.10175
0.00460598
-0.00727746
-1.30952
1.31219
0.0102873
-0.013078
-1.56408
1.56687
0.0156485
-0.0180014
-1.56203
1.56438
0.0197978
-0.0214408
-1.30486
1.3065
0.0226809
-0.023794
-1.09389
1.09501
0.0246788
-0.0256072
-0.920545
0.921473
0.0264314
-0.0272377
-0.779201
0.780007
0.0276198
-0.0272869
-0.658552
0.658219
0.0255815
-0.0217463
-0.523757
0.519922
0.0167555
-0.010854
-0.340394
0.334492
0.0062403
-0.00259824
-0.156609
0.152967
0.000689646
-0.0256132
0.0249236
-0.0289458
0.0287938
0.00015201
-0.00215013
0.00419438
-0.232568
0.230523
-0.00704378
0.00946754
-0.407351
0.404927
-0.0110716
0.0112733
-0.553636
0.553434
-0.0103368
0.00887475
-0.667259
0.668721
-0.00689494
0.00489755
-0.785644
0.787641
-0.00254408
0.000265538
-0.929594
0.931873
0.00236874
-0.00488087
-1.10412
1.10663
0.00773643
-0.010414
-1.31478
1.31746
0.0133896
-0.0160997
-1.56957
1.57228
0.0185434
-0.0207242
-1.5666
1.56879
0.0223465
-0.0237903
-1.30803
1.30947
0.0248382
-0.0257239
-1.09618
1.09707
0.0264084
-0.0271446
-0.922328
0.923064
0.0278168
-0.0284785
-0.780696
0.781358
0.0285472
-0.0278387
-0.65767
0.656961
0.0256867
-0.0214471
-0.515929
0.511689
0.0163283
-0.0105203
-0.328682
0.322874
0.00605467
-0.00253627
-0.149418
0.1459
0.000679502
-0.0242502
0.0235707
-0.0286976
0.0286495
4.81715e-05
-0.00129154
0.0027607
-0.228782
0.227313
-0.00494587
0.00689733
-0.402761
0.40081
-0.00823535
0.0083586
-0.553343
0.553219
-0.007385
0.00589289
-0.670318
0.67181
-0.00382206
0.00171775
-0.789653
0.791757
0.00076242
-0.00315805
-0.93407
0.936466
0.00590668
-0.00851025
-1.10906
1.11166
0.0114428
-0.01416
-1.32007
1.32278
0.0171313
-0.0197809
-1.5749
1.57755
0.0221095
-0.0241226
-1.57084
1.57285
0.0255684
-0.0268059
-1.31079
1.31202
0.0276528
-0.0283058
-1.09804
1.0987
0.0287812
-0.0293107
-0.923726
0.924256
0.0298185
-0.030274
-0.781831
0.782286
0.0300521
-0.0289007
-0.65602
0.654869
0.0262614
-0.0215853
-0.507301
0.502625
0.0162837
-0.0104629
-0.317113
0.311292
0.00603627
-0.00254488
-0.142428
0.138937
0.000687946
-0.0228992
0.0222113
-0.0286571
0.0287191
-6.20384e-05
-0.000409189
0.00129885
-0.226146
0.225256
-0.00279267
0.00420722
-0.399148
0.397734
-0.00517689
0.0051375
-0.553265
0.553305
-0.00407132
0.00249762
-0.673488
0.675061
-0.000304146
-0.00194584
-0.793879
0.796129
0.00459998
-0.00715199
-0.938778
0.94133
0.0100645
-0.0128025
-1.11419
1.11693
0.0158557
-0.0186476
-1.32544
1.32823
0.0216476
-0.0242597
-1.58012
1.58273
0.0264863
-0.0283336
-1.57473
1.57658
0.029597
-0.030616
-1.31311
1.31413
0.031249
-0.0316575
-1.09946
1.09987
0.0319147
-0.0322222
-0.924706
0.925013
0.0325406
-0.0327176
-0.78244
0.782617
0.0322101
-0.0305055
-0.653495
0.65179
0.0273387
-0.0221762
-0.497805
0.492643
0.0166152
-0.0106652
-0.30547
0.29952
0.00617168
-0.00261773
-0.13545
0.131896
0.000713203
-0.0215239
0.0208107
-0.0288372
0.0290143
-0.0001771
0.000513353
-0.000237029
-0.224684
0.224408
-0.000514888
0.00131373
-0.396639
0.39584
-0.00180338
0.00151701
-0.553579
0.553865
-0.000300075
-0.00142778
-0.676881
0.678608
0.00380372
-0.00624791
-0.798406
0.80085
0.00912708
-0.0118841
-0.943802
0.946559
0.0150119
-0.017929
-1.1196
1.12252
0.0211478
-0.0240495
-1.33096
1.33387
0.0271072
-0.0296961
-1.58526
1.58785
0.0318214
-0.0334946
-1.57828
1.57995
0.034568
-0.0353513
-1.31498
1.31576
0.0357586
-0.0359101
-1.10039
1.10054
0.0359332
-0.0360017
-0.925227
0.925295
0.0361224
-0.0359382
-0.782416
0.782232
0.0350493
-0.0327355
-0.649911
0.647597
0.0289695
-0.0232371
-0.487322
0.48159
0.0173177
-0.0111127
-0.293513
0.287309
0.00644816
-0.00274808
-0.128308
0.124608
0.000753078
-0.0200916
0.0193385
-0.029273
0.0295947
-0.00032176
0.00152609
-0.00189289
-0.22448
0.224846
0.00198923
-0.00191652
-0.395361
0.395289
0.00203863
-0.00268364
-0.554506
0.555151
0.00413221
-0.00605532
-0.680639
0.682562
0.00866865
-0.0113597
-0.80332
0.806011
0.0145235
-0.0175399
-0.949239
0.952255
0.0209419
-0.0240887
-1.12538
1.12852
0.0275223
-0.0305699
-1.33672
1.33977
0.0337116
-0.0362871
-1.59035
1.59293
0.038306
-0.039782
-1.58146
1.58294
0.0406445
-0.0411818
-1.31633
1.31687
0.0413487
-0.0412188
-1.10078
1.10065
0.0409826
-0.0407924
-0.925238
0.925048
0.0407071
-0.0400487
-0.781617
0.780958
0.0387016
-0.0356861
-0.645134
0.642118
0.0312233
-0.0248025
-0.47567
0.469249
0.0184008
-0.011802
-0.280988
0.274389
0.00685995
-0.00293229
-0.120835
0.116908
0.000806354
-0.0185739
0.0177675
-0.0299865
0.030486
-0.000499455
0.00281417
-0.00393832
-0.225607
0.226731
0.00490265
-0.005631
-0.395539
0.396267
0.0064709
-0.00758064
-0.556269
0.557378
0.00934741
-0.0115416
-0.684868
0.687062
0.0144725
-0.0174801
-0.808733
0.811741
0.0210032
-0.0243456
-0.955201
0.958544
0.0280905
-0.0315236
-1.13162
1.13506
0.0352238
-0.0384534
-1.34277
1.346
0.0417037
-0.0442723
-1.59542
1.59799
0.046175
-0.0474359
-1.58424
1.5855
0.0480413
-0.0483065
-1.31713
1.3174
0.0482048
-0.0477668
-1.10056
1.10012
0.047249
-0.0467802
-0.924671
0.924202
0.0463741
-0.045265
-0.779887
0.778778
0.0433146
-0.0394522
-0.638964
0.635102
0.0341551
-0.0268911
-0.462599
0.455335
0.0198611
-0.0127197
-0.267613
0.260471
0.00739419
-0.00316262
-0.112873
0.108642
0.000870219
-0.0169453
0.016075
-0.0310533
0.031775
-0.00072174
0.00431945
-0.00633522
-0.228265
0.230281
0.0083613
-0.0100019
-0.397379
0.399019
0.0116698
-0.0133618
-0.559129
0.560821
0.0155821
-0.0181464
-0.689728
0.692292
0.0215016
-0.0249111
-0.814789
0.818198
0.0288831
-0.0326272
-0.961826
0.96557
0.0367882
-0.0405629
-1.13845
1.14222
0.0445747
-0.0480091
-1.34918
1.35261
0.0513699
-0.0539109
-1.60045
1.60299
0.0556602
-0.0566608
-1.58656
1.58756
0.056974
-0.0569262
-1.31731
1.31727
0.0565259
-0.0557464
-1.09968
1.0989
0.05492
-0.0541351
-0.923476
0.922692
0.0533247
-0.0516995
-0.777261
0.775636
0.0490033
-0.0441254
-0.631115
0.626237
0.0378205
-0.0295191
-0.447789
0.439487
0.0216909
-0.0138476
-0.253085
0.245242
0.00803364
-0.00342882
-0.104272
0.0996667
0.000941064
-0.0151861
0.014245
-0.0325575
0.0335673
-0.00100982
0.00620224
-0.00927471
-0.232703
0.235776
0.0125779
-0.0152802
-0.401152
0.403855
0.01792
-0.0203212
-0.563367
0.565769
0.0231393
-0.0261964
-0.695432
0.698489
0.0301088
-0.0340279
-0.821661
0.82558
0.0385527
-0.0427817
-0.969265
0.973494
0.0474359
-0.0516048
-1.14596
1.15013
0.0559604
-0.0596029
-1.35598
1.35962
0.0630478
-0.0655116
-1.60539
1.60786
0.0670448
-0.0677117
-1.58832
1.58899
0.0676701
-0.0672412
-1.31674
1.31631
0.0665143
-0.0653522
-1.09805
1.09689
0.0641754
-0.0630782
-0.921585
0.920487
0.0617421
-0.0595087
-0.773597
0.771364
0.0559056
-0.0497814
-0.621226
0.615102
0.0422419
-0.0326649
-0.430839
0.421262
0.0238484
-0.0151415
-0.237089
0.228382
0.00874392
-0.00371251
-0.0948995
0.0898681
0.00101279
-0.0132854
0.0122726
-0.0346238
0.0360331
-0.00140929
0.0086681
-0.0130923
-0.239245
0.243669
0.0178905
-0.021834
-0.407225
0.411168
0.0256157
-0.0288754
-0.569311
0.572571
0.0324636
-0.036169
-0.702247
0.705952
0.0407973
-0.0453537
-0.829556
0.834112
0.0505477
-0.0553487
-0.977686
0.982487
0.0605652
-0.0651611
-1.15426
1.15885
0.0698603
-0.0736777
-1.36317
1.36699
0.0771366
-0.0794315
-1.61013
1.61242
0.0806451
-0.0808729
-1.58936
1.58959
0.080404
-0.0794823
-1.31528
1.31436
0.0783691
-0.0768005
-1.09555
1.09398
0.075272
-0.0737625
-0.918962
0.917453
0.0718941
-0.0688595
-0.768673
0.765639
0.0641141
-0.0564445
-0.608823
0.601154
0.0473884
-0.0362561
-0.411273
0.40014
0.0262479
-0.0165251
-0.219309
0.209586
0.00947066
-0.00398647
-0.0846637
0.0791795
0.00107687
-0.0112453
0.0101685
-0.0374541
0.0394248
-0.00197068
0.0120873
-0.0182391
-0.248409
0.25456
0.0248397
-0.0302365
-0.416096
0.421493
0.0353718
-0.0396864
-0.577351
0.581666
0.0442557
-0.0488113
-0.710504
0.71506
0.0543608
-0.0597019
-0.838723
0.844064
0.0656825
-0.07112
-0.98726
0.992697
0.0769201
-0.0819156
-1.16338
1.16837
0.0868789
-0.0907583
-1.37065
1.37453
0.0940707
-0.0960275
-1.61443
1.61639
0.0967562
-0.0963914
-1.58943
1.58907
0.0953912
-0.0938791
-1.31278
1.31126
0.092299
-0.0902966
-1.09211
1.0901
0.0883905
-0.0863297
-0.915365
0.913304
0.0839431
-0.0798426
-0.762031
0.757931
0.0736556
-0.0640603
-0.593284
0.583689
0.0531443
-0.0401403
-0.388536
0.375532
0.0287376
-0.0178776
-0.199463
0.188603
0.0101334
-0.00421308
-0.0735334
0.067613
0.00112221
-0.00908624
0.00796403
-0.0413669
0.0442101
-0.00284317
0.0170579
-0.025469
-0.260938
0.269349
0.0343117
-0.0414654
-0.428432
0.435586
0.0482468
-0.0538303
-0.587979
0.593563
0.059681
-0.0653571
-0.720628
0.726304
0.0720301
-0.0782686
-0.849435
0.855673
0.0850857
-0.0911386
-0.998082
1.00413
0.0974312
-0.102687
-1.17322
1.17847
0.107706
-0.111421
-1.37812
1.38183
0.114308
-0.11566
-1.61792
1.61927
0.11566
-0.114488
-1.58821
1.58704
0.11279
-0.110583
-1.30903
1.30682
0.108457
-0.105976
-1.08762
1.08514
0.103672
-0.100937
-0.910471
0.907735
0.0978799
-0.0924066
-0.753122
0.747649
0.0844087
-0.0724239
-0.57381
0.561825
0.0592492
-0.0440435
-0.36203
0.346824
0.0310744
-0.0190217
-0.17736
0.165308
0.0106221
-0.00434385
-0.0615759
0.0552977
0.00113519
-0.00685161
0.00571642
-0.0469433
0.0512631
-0.00431977
0.0247601
-0.0362498
-0.277988
0.289478
0.04801
-0.0574944
-0.445265
0.454749
0.0663022
-0.0733495
-0.601799
0.608846
0.0807334
-0.0879169
-0.732988
0.740171
0.0957724
-0.102824
-0.861888
0.868939
0.110312
-0.116764
-1.01003
1.01648
0.123235
-0.128413
-1.1834
1.18858
0.133079
-0.136237
-1.38505
1.38821
0.138265
-0.138625
-1.61999
1.62035
0.137558
-0.135312
-1.58522
1.58297
0.132737
-0.129703
-1.30381
1.30078
0.126943
-0.123931
-1.08196
1.07895
0.121132
-0.11769
-0.904106
0.900665
0.113656
-0.10635
-0.741248
0.733942
0.0960218
-0.0810916
-0.549402
0.534472
0.0652471
-0.04756
-0.331174
0.313487
0.0329341
-0.0197438
-0.15299
0.1398
0.010812
-0.00432703
-0.0489987
0.0425138
0.0011012
-0.00461112
0.00350992
-0.0552583
0.0626751
-0.00741682
0.0382915
-0.0542644
-0.301718
0.317691
0.0701073
-0.0828143
-0.468243
0.48095
0.0938055
-0.10221
-0.619245
0.627649
0.111087
-0.119535
-0.747969
0.756417
0.128301
-0.135755
-0.875778
0.883232
0.143334
-0.149581
-1.02251
1.02876
0.15555
-0.160006
-1.19311
1.19757
0.163638
-0.165614
-1.39055
1.39253
0.166193
-0.165094
-1.6198
1.61871
0.162599
-0.158979
-1.57994
1.57632
0.1553
-0.15125
-1.29683
1.29278
0.147777
-0.144227
-1.07495
1.0714
0.140797
-0.136516
-0.896047
0.891766
0.13101
-0.121171
-0.725328
0.715489
0.107798
-0.0892664
-0.518817
0.500285
0.0704593
-0.0502116
-0.295539
0.275291
0.034023
-0.0199162
-0.126652
0.112545
0.0106577
-0.00415779
-0.0361845
0.0296845
0.00101919
-0.00246243
0.00144324
-0.0695828
0.0737364
-0.00415355
0.0293315
-0.0431698
-0.336145
0.349983
0.057205
-0.0688387
-0.498824
0.510457
0.0792439
-0.0889193
-0.639896
0.649572
0.0997008
-0.109571
-0.764462
0.774333
0.120541
-0.130323
-0.889813
0.899596
0.140746
-0.150012
-1.03406
1.04332
0.159667
-0.167917
-1.20093
1.20918
0.176068
-0.182519
-1.39334
1.39979
0.188174
-0.19175
-1.61639
1.61997
0.19322
-0.193172
-1.57169
1.57164
0.192019
-0.190165
-1.28772
1.28587
0.188632
-0.186702
-1.06639
1.06446
0.184672
-0.180463
-0.885662
0.881454
0.172764
-0.157997
-0.703802
0.689035
0.137748
-0.110805
-0.480748
0.453805
0.0849256
-0.0583759
-0.25506
0.22851
0.0383408
-0.0217558
-0.0991129
0.0825279
0.0113184
-0.00428726
-0.0236993
0.0166682
0.00102077
-0.000504763
-0.000516012
-0.0809307
0.0790852
0.00184559
0.00752742
-0.0166505
-0.366636
0.375759
0.0273139
-0.0355556
-0.526783
0.535024
0.0439073
-0.0520999
-0.661809
0.670001
0.0620282
-0.0712675
-0.783882
0.793121
0.0810992
-0.0900827
-0.908821
0.917805
0.0996175
-0.107751
-1.05229
1.06042
0.116404
-0.123421
-1.21722
1.22424
0.130282
-0.135403
-1.40591
1.41103
0.139295
-0.141285
-1.6227
1.62469
0.141178
-0.139544
-1.57086
1.56923
0.136811
-0.133246
-1.28323
1.27967
0.13003
-0.126535
-1.06011
1.05662
0.123022
-0.117625
-0.872656
0.867259
0.109342
-0.0960675
-0.670178
0.656904
0.0803464
-0.0614212
-0.4253
0.406375
0.0449797
-0.0298294
-0.20254
0.18739
0.0192108
-0.0108542
-0.0671004
0.0587439
0.00571046
-0.00220278
-0.0100232
0.00651552
0.000476006
0.00160347
-0.00207947
-0.0823815
0.0794643
0.00291717
-0.0017413
-0.00354895
-0.387221
0.392511
0.0108266
-0.0167689
-0.547458
0.5534
0.0229369
-0.0301131
-0.680329
0.687506
0.0386907
-0.0467078
-0.801495
0.809512
0.0554647
-0.0632965
-0.926037
0.933869
0.0713509
-0.078569
-1.06836
1.07558
0.0860174
-0.0921181
-1.23079
1.23689
0.097588
-0.101402
-1.41542
1.41923
0.104151
-0.104852
-1.6259
1.6266
0.103472
-0.100566
-1.5669
1.564
0.0968062
-0.0923265
-1.2757
1.27122
0.0878329
-0.0830842
-1.05106
1.04631
0.0784245
-0.0723413
-0.857568
0.851485
0.0647546
-0.0538006
-0.640464
0.629511
0.0424849
-0.030371
-0.385871
0.373757
0.021285
-0.0138418
-0.171978
0.164535
0.00904451
-0.0053911
-0.0505689
0.0469155
0.00301505
-0.00115815
-0.00316667
0.00130977
0.000264922
0.00274944
-0.00301437
-0.0810878
0.0783164
0.00277144
-0.00544436
0.00291923
-0.400921
0.403446
0.00178271
-0.0062663
-0.5627
0.567183
0.0114527
-0.0174545
-0.695599
0.701601
0.0247556
-0.0316021
-0.81691
0.823757
0.0390706
-0.0457713
-0.941161
0.947862
0.0530334
-0.0591179
-1.08234
1.08842
0.0655634
-0.0703487
-1.24253
1.24731
0.0748819
-0.0778539
-1.42276
1.42573
0.0795152
-0.0790165
-1.62675
1.62625
0.076867
-0.0732081
-1.56043
1.55677
0.0687704
-0.0631755
-1.26628
1.26069
0.0579282
-0.0522085
-1.03994
1.03422
0.046569
-0.0403949
-0.841415
0.835241
0.0335184
-0.0251919
-0.615723
0.607396
0.017732
-0.0111966
-0.360534
0.353999
0.00726637
-0.00467954
-0.156263
0.153676
0.00324623
-0.00225023
-0.0426453
0.0416493
0.00144081
-0.000548857
0.000538588
-0.00143054
0.000132898
0.00355434
-0.00368723
-0.0795179
0.0770461
0.00247181
-0.00665187
0.00576785
-0.410001
0.410885
-0.00232121
-0.00088831
-0.574884
0.578093
0.00508332
-0.0105132
-0.708371
0.7138
0.016623
-0.0226089
-0.829915
0.835901
0.0290473
-0.0348301
-0.954091
0.959874
0.0410089
-0.0463619
-1.09434
1.09969
0.0517385
-0.0560175
-1.25191
1.25619
0.0597386
-0.0620028
-1.42827
1.43053
0.062921
-0.0617562
-1.62547
1.62431
0.0589962
-0.0545473
-1.55231
1.54786
0.0496137
-0.0436344
-1.25486
1.24888
0.0378746
-0.0314008
-1.02731
1.02084
0.0254287
-0.0190806
-0.825655
0.819306
0.0132479
-0.00695023
-0.596735
0.590438
0.00236706
0.000490091
-0.345657
0.3428
-0.0013683
0.00123421
-0.149435
0.149569
-0.000733709
0.000192914
-0.0398933
0.0404341
5.25145e-05
-2.35639e-05
0.00225285
-0.0022818
1.00724e-05
0.00407399
-0.00408407
-0.0780281
0.075895
0.00213311
-0.0066001
0.00626139
-0.416147
0.416485
-0.00423016
0.00165451
-0.584191
0.586767
0.00236988
-0.00699299
-0.719151
0.723774
0.0122191
-0.017395
-0.841101
0.846277
0.0230872
-0.0282136
-0.965285
0.970412
0.0338053
-0.0384299
-1.10473
1.10936
0.0431745
-0.0469151
-1.26014
1.26388
0.0500307
-0.051779
-1.43246
1.43421
0.0521497
-0.0508977
-1.62295
1.6217
0.0477167
-0.0430726
-1.54288
1.53823
0.0378404
-0.0315337
-1.24259
1.23628
0.0256982
-0.018754
-1.01364
1.0067
0.0124686
-0.00608298
-0.810424
0.804038
0.000911828
0.00377916
-0.581785
0.577094
-0.00666638
0.00763695
-0.337372
0.336402
-0.00676162
0.00521689
-0.148
0.149545
-0.00374006
0.00216046
-0.0404249
0.0420045
-0.00109914
0.000457222
0.00220818
-0.00156626
-0.000113786
0.00426589
-0.00415211
-0.0768531
0.0751738
0.00167929
-0.0057756
0.00580182
-0.420614
0.420588
-0.00420514
0.00230199
-0.592252
0.594155
0.00142734
-0.00558791
-0.728426
0.732586
0.0105192
-0.0149494
-0.85105
0.85548
0.0199146
-0.02442
-0.975486
0.979991
0.0296691
-0.0338106
-1.11399
1.11813
0.037942
-0.0413825
-1.26739
1.27083
0.0445082
-0.0459445
-1.43592
1.43736
0.0461584
-0.0446223
-1.61998
1.61844
0.0415949
-0.0365905
-1.5333
1.5283
0.0314544
-0.0252534
-1.22974
1.22354
0.0192505
-0.0125036
-0.999443
0.992697
0.00620928
0.00025174
-0.795753
0.789292
-0.00465446
0.00869424
-0.569605
0.565565
-0.0109948
0.0111039
-0.332621
0.332512
-0.00969116
0.00765234
-0.149447
0.151486
-0.00565899
0.00350852
-0.0430424
0.0451929
-0.00192383
0.000838673
0.000790794
0.000294365
-0.000219255
0.00413592
-0.00391666
-0.0761684
0.0748368
0.00133165
-0.00473626
0.00491133
-0.424064
0.423889
-0.00354389
0.00174743
-0.5992
0.600997
0.00180498
-0.00549104
-0.736704
0.74039
0.00968588
-0.0139286
-0.859842
0.864085
0.0184763
-0.0230759
-0.984281
0.98888
0.0275387
-0.0314371
-1.12234
1.12623
0.0356203
-0.0387318
-1.27411
1.27722
0.04127
-0.0430045
-1.43866
1.44039
0.0432443
-0.0418201
-1.6169
1.61548
0.0387639
-0.0341291
-1.52344
1.5188
0.0291328
-0.0230788
-1.21699
1.21094
0.0173096
-0.0107153
-0.985611
0.979016
0.00461932
0.0014368
-0.781619
0.775563
-0.00606244
0.00959927
-0.55877
0.555233
-0.0115589
0.0118626
-0.329626
0.329322
-0.0106094
0.00846503
-0.151911
0.154056
-0.00643151
0.00416519
-0.0466654
0.0489317
-0.00240461
0.00103478
-0.00141307
0.00278289
-0.000278395
0.00376681
-0.00348842
-0.0760064
0.0748909
0.00111554
-0.00348027
0.00343641
-0.427091
0.427135
-0.00236915
0.000622867
-0.605519
0.607265
0.00276495
-0.0063006
-0.744335
0.747871
0.0102951
-0.014102
-0.868093
0.8719
0.0187293
-0.0224996
-0.992878
0.996648
0.0268841
-0.0305521
-1.13026
1.13393
0.0345593
-0.0378035
-1.28028
1.28353
0.0405472
-0.0419759
-1.44184
1.44327
0.0424461
-0.0413014
-1.61394
1.6128
0.0387578
-0.0343129
-1.51403
1.50958
0.029666
-0.0239315
-1.20501
1.19928
0.0184855
-0.0121465
-0.972111
0.965772
0.00643105
-0.000398252
-0.768301
0.762268
-0.00422307
0.00771805
-0.548851
0.545356
-0.00971645
0.0102826
-0.326661
0.326094
-0.00962632
0.00798029
-0.154289
0.155935
-0.00625389
0.0041844
-0.0504345
0.052504
-0.00250127
0.00110365
-0.00396714
0.00536476
-0.000317246
0.00325148
-0.00293424
-0.0761233
0.0753385
0.000784831
-0.00233126
0.00183123
-0.430168
0.430668
-0.000924897
-0.000953802
-0.611027
0.612905
0.00396801
-0.00733945
-0.751408
0.754779
0.0111406
-0.0150522
-0.875548
0.87946
0.0190305
-0.0229323
-1.0006
1.00451
0.0272438
-0.0306672
-1.138
1.14142
0.0347193
-0.0378702
-1.28654
1.28969
0.0406149
-0.0425152
-1.44508
1.44698
0.0434002
-0.042464
-1.61167
1.61073
0.0401009
-0.0363255
-1.50531
1.50154
0.0321959
-0.0268149
-1.19347
1.18809
0.0216286
-0.0158835
-0.959342
0.953597
0.0101455
-0.00454667
-0.755331
0.749732
-0.000210484
0.0039664
-0.539314
0.535558
-0.0059901
0.00708172
-0.323171
0.32208
-0.0070485
0.00621571
-0.155832
0.156664
-0.00501517
0.00347735
-0.0536386
0.0551764
-0.00215211
0.000975498
-0.00640646
0.00758308
-0.00029832
0.00267994
-0.00238162
-0.0766624
0.0760416
0.000620802
-0.00135727
0.000946209
-0.433453
0.433865
0.000502549
-0.00233411
-0.616612
0.618443
0.00548165
-0.00870228
-0.757926
0.761147
0.0123335
-0.0158228
-0.883018
0.886508
0.0199034
-0.0234677
-1.00839
1.01195
0.027703
-0.0315374
-1.14528
1.14911
0.0351962
-0.0386465
-1.29286
1.29631
0.0417751
-0.0437287
-1.44876
1.45071
0.0449418
-0.0447507
-1.61
1.60981
0.0428025
-0.0396349
-1.49764
1.49448
0.0357211
-0.0308405
-1.1828
1.17792
0.026144
-0.0206704
-0.947466
0.941993
0.0154126
-0.00996381
-0.743119
0.73767
0.00527844
-0.000962633
-0.529601
0.525286
-0.0015896
0.00315168
-0.318794
0.317232
-0.00385315
0.00375511
-0.155981
0.156079
-0.00321988
0.00236411
-0.0557319
0.0565877
-0.00152967
0.000721463
-0.00830702
0.00911523
-0.000245889
0.00217085
-0.00192496
-0.0774854
0.0770486
0.000436851
-0.000306428
-0.000266346
-0.436897
0.43747
0.00171156
-0.00383737
-0.621852
0.623978
0.00688534
-0.00993371
-0.764181
0.767229
0.013642
-0.0169658
-0.889957
0.893281
0.0208727
-0.0245457
-1.01598
1.01965
0.0286661
-0.032449
-1.15277
1.15656
0.0363111
-0.0397682
-1.29965
1.30311
0.0430603
-0.0457401
-1.45293
1.45561
0.0473694
-0.0474484
-1.60954
1.60962
0.0461694
-0.0433098
-1.4912
1.48834
0.0399686
-0.0356939
-1.17305
1.16878
0.0311584
-0.0260446
-0.936296
0.931182
0.0210719
-0.0156307
-0.731407
0.725965
0.0110036
-0.00631895
-0.519697