/*--------------------------------*- C++ -*----------------------------------*\
| =========                 |                                                 |
| \\      /  F ield         | OpenFOAM: The Open Source CFD Toolbox           |
|  \\    /   O peration     | Version:  2112                                  |
|   \\  /    A nd           | Website:  www.openfoam.com                      |
|    \\/     M anipulation  |                                                 |
\*---------------------------------------------------------------------------*/
FoamFile
{
    version     2.0;
    format      ascii;
    arch        "LSB;label=32;scalar=64";
    class       volScalarField;
    location    "1";
    object      T;
}
// * * * * * * * * * * * * * * * * * * * * * * * * * * * * * * * * * * * * * //

dimensions      [0 0 0 1 0 0 0];

internalField   nonuniform List<scalar> 
1000
(
0
0
0
0
0
0
0
0
0
0
0
0
0
0
0
0
0
0
0
0
0
0
0
0
0
0
0
0
0
0
0
0
0
0
0
0
0
0
0
0
0
0
0
0
0
0
0
0
0
0
0
0
0
0
0
0
0
0
0
0
0
0
0
0
0
0
0
0
0
0
0
0
0
0
0
0
0
0
0
0
0
0
0
0
0
0
0
0
0
0
0
0
0
0
0
0
0
0
0
0
0
0
0
0
0
0
0
0
0
0
0
0
0
0
0
0
0
0
0
0
0
0
0
0
0
0
0
0
0
0
0
0
0
0
0
0
0
0
0
0
0
0
0
0
0
0
0
0
0
0
0
0
0
0
0
0
0
0
0
0
0
0
0
0
0
0
0
0
0
0
0
0
0
0
0
0
0
0
0
0
0
0
0
0
0
0
0
0
0
0
0
0
0
0
0
0
0
0
0
0
0
0
0
0
0
0
0
0
0
0
0
0
0
0
0
0
0
0
0
0
0
4.94066e-324
8.00386e-322
9.00286e-320
1.00429e-317
1.11618e-315
1.23588e-313
1.36319e-311
1.49782e-309
1.63929e-307
1.78701e-305
1.9402e-303
2.09793e-301
2.2591e-299
2.42245e-297
2.58655e-295
2.74984e-293
2.91064e-291
3.06715e-289
3.21751e-287
3.35978e-285
3.49205e-283
3.6124e-281
3.71901e-279
3.81014e-277
3.88423e-275
3.9399e-273
3.97599e-271
3.99163e-269
3.98624e-267
3.95956e-265
3.91167e-263
3.84299e-261
3.75429e-259
3.64666e-257
3.5215e-255
3.3805e-253
3.2256e-251
3.05891e-249
2.88273e-247
2.69941e-245
2.51139e-243
2.32104e-241
2.13069e-239
1.94255e-237
1.75865e-235
1.58081e-233
1.41063e-231
1.24944e-229
1.09829e-227
9.57961e-226
8.28972e-224
7.1157e-222
6.05764e-220
5.11349e-218
4.27934e-216
3.54973e-214
2.91798e-212
2.37654e-210
1.91728e-208
1.53181e-206
1.21169e-204
9.4872e-203
7.35069e-201
5.6343e-199
4.27116e-197
3.2012e-195
2.37137e-193
1.73564e-191
1.25468e-189
8.95491e-188
6.30762e-186
4.3829e-184
3.003e-182
2.02785e-180
1.34891e-178
8.83401e-177
5.69252e-175
3.60703e-173
2.24594e-171
1.37318e-169
8.23737e-168
4.84398e-166
2.78966e-164
1.5717e-162
8.65267e-161
4.64851e-159
2.4334e-157
1.23911e-155
6.12559e-154
2.93313e-152
1.35666e-150
6.04133e-149
2.57942e-147
1.05038e-145
4.05083e-144
1.46485e-142
4.89267e-141
1.47138e-139
3.78524e-138
7.23153e-137
3.45596e-136
-5.1843e-134
-3.12363e-132
-1.13386e-130
-2.76636e-129
-2.78793e-128
1.33388e-126
9.04239e-125
2.87804e-123
4.12969e-122
-9.92328e-121
-8.16848e-119
-2.36399e-117
-1.4016e-116
1.74576e-114
7.68489e-113
9.99541e-112
-4.03438e-110
-2.23462e-108
-2.88044e-107
1.30724e-105
6.24774e-104
3.32736e-103
-5.13289e-101
-1.42904e-99
1.98685e-98
1.70367e-96
9.11251e-96
-1.46242e-93
-2.67569e-92
1.07913e-90
3.40254e-89
-7.77641e-88
-3.4805e-86
6.35676e-85
3.19598e-83
-6.47962e-82
-2.62434e-80
7.62996e-79
1.67837e-77
-8.78766e-76
-2.7664e-75
8.28906e-73
-1.3356e-71
-4.41619e-70
2.25215e-68
-2.27195e-67
-1.2729e-65
6.15864e-64
-1.12316e-62
-8.63101e-62
1.31392e-59
-5.23945e-58
1.45744e-56
-3.2668e-55
6.23468e-54
-1.04231e-52
1.55264e-51
-2.08396e-50
2.53981e-49
-2.82602e-48
2.88191e-47
-2.70056e-46
2.3291e-45
-1.85003e-44
1.35308e-43
-9.10114e-43
5.61651e-42
-3.16773e-41
1.62303e-40
-7.48393e-40
3.05872e-39
-1.07843e-38
3.099e-38
-6.14268e-38
9.88634e-39
5.84071e-37
-3.05472e-36
9.06579e-36
-1.29357e-35
-2.62154e-35
2.25371e-34
-6.76832e-34
6.93036e-34
3.01485e-33
-1.60444e-32
2.99532e-32
2.64576e-32
-3.01208e-31
6.78029e-31
2.53747e-31
-5.31204e-30
1.15129e-29
7.50826e-30
-9.03844e-29
1.45689e-28
2.57247e-28
-1.36081e-27
9.58331e-28
6.13256e-27
-1.52139e-26
-1.05141e-26
9.63705e-26
-7.30993e-26
-4.03938e-25
8.35488e-25
1.09265e-24
-5.12338e-24
-4.8029e-25
2.41956e-23
-1.63283e-23
-9.67807e-23
1.31709e-22
3.435e-22
-7.22302e-22
-1.12117e-21
3.33449e-21
3.51112e-21
-1.38832e-20
-1.12056e-20
5.37807e-20
3.9007e-20
-1.96408e-19
-1.52593e-19
6.76273e-19
6.46429e-19
-2.16709e-18
-2.77272e-18
6.26482e-18
1.13933e-17
-1.52273e-17
-4.31895e-17
2.47737e-17
1.46321e-16
1.52897e-17
-4.24766e-16
-3.44337e-16
9.68661e-16
1.74838e-15
-1.2601e-15
-5.951e-15
-2.02472e-15
1.41208e-14
1.95318e-14
-1.68449e-14
-6.90104e-14
-3.39643e-14
1.36057e-13
2.48161e-13
-3.20247e-14
-6.51375e-13
-7.74273e-13
5.30011e-13
2.58233e-12
2.40319e-12
-2.57363e-12
-9.42293e-12
-8.39179e-12
8.55014e-12
3.26951e-11
3.37327e-11
-1.75883e-11
-1.05034e-10
-1.41738e-10
-1.65252e-11
2.82004e-10
5.48349e-10
3.9866e-10
-4.41093e-10
-1.70342e-09
-2.35076e-09
-9.66018e-10
3.10683e-09
8.35676e-09
1.05394e-08
4.15959e-09
-1.36131e-08
-3.79146e-08
-5.32117e-08
-3.63406e-08
3.19354e-08
1.48417e-07
2.69281e-07
3.04438e-07
1.37658e-07
-3.19901e-07
-1.04813e-06
-1.83192e-06
-2.21205e-06
-1.52502e-06
9.21574e-07
5.51693e-06
1.18843e-05
1.83767e-05
2.16885e-05
1.67974e-05
-2.51685e-06
-4.2341e-05
-0.000106306
-0.000192203
-0.000287607
-0.000364748
-0.000375026
-0.000243705
0.000134603
0.000899033
0.00222358
0.00431574
0.00741258
0.011774
0.0176734
0.0253869
0.0351806
0.0472973
0.061944
0.07928
0.0994074
0.122364
0.148117
0.176566
0.20754
0.240808
0.27608
0.313022
0.351268
0.390426
0.430095
0.469878
0.509389
0.548266
0.586178
0.62283
0.657971
0.691394
0.722938
0.752484
0.77996
0.805331
0.828599
0.849798
0.868988
0.886252
0.901688
0.915408
0.927534
0.938191
0.947506
0.955604
0.962609
0.968636
0.973798
0.978196
0.981927
0.985077
0.987724
0.989939
0.991784
0.993315
0.99458
0.995621
0.996474
0.99717
0.997737
0.998196
0.998566
0.998864
0.999103
0.999294
0.999446
0.999566
0.999662
0.999737
0.999796
0.999842
0.999878
0.999906
0.999928
0.999945
0.999958
0.999968
0.999976
0.999981
0.999986
0.999989
0.999992
0.999994
0.999997
0.999999
1
1
0.999998
0.999993
0.999987
0.999981
0.999978
0.999983
1
1.00004
1.00011
1.00019
1.00029
1.00036
1.00037
1.00024
0.999865
0.999101
0.997776
0.995684
0.992587
0.988226
0.982327
0.974613
0.964819
0.952703
0.938056
0.92072
0.900593
0.877636
0.851883
0.823434
0.79246
0.759192
0.72392
0.686978
0.648732
0.609574
0.569905
0.530122
0.490611
0.451734
0.413822
0.37717
0.342029
0.308606
0.277062
0.247516
0.22004
0.194669
0.171401
0.150202
0.131012
0.113748
0.0983124
0.0845918
0.0724657
0.0618088
0.0524941
0.0443956
0.0373912
0.0313635
0.026202
0.0218035
0.0180729
0.0149233
0.0122763
0.0100613
0.00821595
0.00668497
0.00542007
0.00437924
0.00352618
0.00282973
0.00226331
0.00180436
0.00143385
0.00113582
0.00089693
0.000706111
0.000554209
0.00043369
0.000338384
0.000263259
0.00020423
0.000157992
0.000121885
9.37731e-05
7.19515e-05
5.50618e-05
4.20268e-05
3.19951e-05
2.42961e-05
1.84036e-05
1.39058e-05
1.04817e-05
7.88175e-06
5.91268e-06
4.42517e-06
3.30425e-06
2.46166e-06
1.82981e-06
1.35712e-06
1.00435e-06
7.41665e-07
5.46519e-07
4.01872e-07
2.94895e-07
2.1595e-07
1.57819e-07
1.15105e-07
8.37856e-08
6.08689e-08
4.41349e-08
3.19404e-08
2.30717e-08
1.66344e-08
1.19712e-08
8.59956e-09
6.16642e-09
4.41386e-09
3.15384e-09
2.2496e-09
1.60186e-09
1.13869e-09
8.08087e-10
5.72516e-10
4.04952e-10
2.85966e-10
2.01616e-10
1.41921e-10
9.97432e-11
6.99913e-11
4.90384e-11
3.43057e-11
2.3963e-11
1.67135e-11
1.164e-11
8.09474e-12
5.62114e-12
3.89784e-12
2.69903e-12
1.8663e-12
1.2887e-12
8.88638e-13
6.11935e-13
4.20824e-13
2.89012e-13
1.98224e-13
1.35777e-13
9.28825e-14
6.34575e-14
4.32991e-14
2.95072e-14
2.00832e-14
1.36521e-14
9.26907e-15
6.28555e-15
4.25724e-15
2.88001e-15
1.94602e-15
1.31338e-15
8.85382e-16
5.9617e-16
4.00973e-16
2.69382e-16
1.80774e-16
1.21177e-16
8.11381e-17
5.42696e-17
3.62592e-17
2.41999e-17
1.61342e-17
1.07454e-17
7.14896e-18
4.75131e-18
3.15455e-18
2.09227e-18
1.3863e-18
9.17621e-19
6.06787e-19
4.00848e-19
2.64545e-19
1.7442e-19
1.14888e-19
7.56027e-20
4.97037e-20
3.26461e-20
2.14224e-20
1.40444e-20
9.19898e-21
6.01976e-21
3.93574e-21
2.57089e-21
1.67785e-21
1.09406e-21
7.12762e-22
4.6395e-22
3.01733e-22
1.96066e-22
1.27295e-22
8.25757e-23
5.35217e-23
3.46613e-23
2.24286e-23
1.45012e-23
9.36804e-24
6.04706e-24
3.90023e-24
2.51357e-24
1.61863e-24
1.04151e-24
6.69634e-25
4.30206e-25
2.76173e-25
1.77156e-25
1.13553e-25
7.27302e-26
4.65485e-26
2.97697e-26
1.90249e-26
1.21493e-26
7.7529e-27
4.94383e-27
3.15029e-27
2.00598e-27
1.27643e-27
8.11631e-28
5.15725e-28
3.27473e-28
2.07794e-28
1.31763e-28
8.34943e-29
5.28721e-29
3.34583e-29
2.11588e-29
1.33718e-29
8.44507e-30
5.33005e-30
3.36183e-30
2.11904e-30
1.33482e-30
8.40294e-31
5.28642e-31
3.32368e-31
2.08835e-31
1.31134e-31
8.22927e-32
5.16106e-32
3.23482e-32
2.02627e-32
1.26847e-32
7.93606e-33
4.96214e-33
3.10081e-33
1.93653e-33
1.2087e-33
7.53983e-34
4.70058e-34
2.92881e-34
1.82382e-34
1.13508e-34
7.06029e-35
4.3891e-35
2.727e-35
1.69338e-35
1.05095e-35
6.51884e-36
4.0413e-36
2.50401e-36
1.55066e-36
9.59762e-37
5.93715e-37
3.67081e-37
2.26838e-37
1.40101e-37
8.64848e-38
5.33596e-38
3.29049e-38
2.02808e-38
1.24936e-38
7.69255e-39
4.73405e-39
2.9119e-39
1.79021e-39
1.10005e-39
6.75629e-40
4.14754e-40
2.54483e-40
1.56069e-40
9.56673e-41
5.8614e-41
3.58947e-41
2.19712e-41
1.34422e-41
8.22017e-42
5.02445e-42
3.06968e-42
1.87455e-42
1.14419e-42
6.98075e-43
4.25703e-43
2.59486e-43
1.58097e-43
9.62803e-44
5.86081e-44
3.56602e-44
2.16879e-44
1.31844e-44
8.01144e-45
4.866e-45
2.95423e-45
1.79279e-45
1.08749e-45
6.59385e-46
3.99637e-46
2.42108e-46
1.46611e-46
8.87452e-47
5.36958e-47
3.24754e-47
1.96332e-47
1.18644e-47
7.16679e-48
4.32739e-48
2.61186e-48
1.5758e-48
9.5033e-49
5.72896e-49
3.45226e-49
2.0795e-49
1.25211e-49
7.5363e-50
4.53422e-50
2.72695e-50
1.6394e-50
9.852e-51
5.91831e-51
3.5539e-51
2.13328e-51
1.28005e-51
7.67786e-52
4.60354e-52
2.75919e-52
1.65314e-52
9.90097e-53
5.92769e-53
3.5476e-53
2.12239e-53
1.26928e-53
7.58811e-54
4.53474e-54
2.70905e-54
1.6178e-54
9.65784e-55
5.76343e-55
3.43819e-55
2.05034e-55
1.22228e-55
7.2839e-56
4.33918e-56
2.58405e-56
1.53832e-56
9.15469e-57
5.44619e-57
3.23888e-57
1.92553e-57
1.14436e-57
6.79871e-58
4.03782e-58
2.39731e-58
1.42284e-58
8.44206e-59
5.00723e-59
2.96896e-59
1.75983e-59
1.04279e-59
6.1771e-60
3.6579e-60
2.16542e-60
1.28148e-60
7.58135e-61
4.48377e-61
2.65097e-61
1.56686e-61
9.25805e-62
5.46859e-62
3.22922e-62
1.90616e-62
1.1271e-62
6.22273e-63
)
;

boundaryField
{
    sides
    {
        type            zeroGradient;
    }
    empty
    {
        type            empty;
    }
}


// ************************************************************************* //
