/*--------------------------------*- C++ -*----------------------------------*\
| =========                 |                                                 |
| \\      /  F ield         | OpenFOAM: The Open Source CFD Toolbox           |
|  \\    /   O peration     | Version:  2112                                  |
|   \\  /    A nd           | Website:  www.openfoam.com                      |
|    \\/     M anipulation  |                                                 |
\*---------------------------------------------------------------------------*/
FoamFile
{
    version     2.0;
    format      ascii;
    arch        "LSB;label=32;scalar=64";
    class       volScalarField;
    location    "37.5";
    object      p;
}
// * * * * * * * * * * * * * * * * * * * * * * * * * * * * * * * * * * * * * //

dimensions      [0 2 -2 0 0 0 0];

internalField   nonuniform List<scalar> 
8800
(
0.996974
0.949185
0.910491
0.881489
0.860616
0.84577
0.835151
0.827644
0.822786
0.820676
0.821879
0.826017
0.832619
0.841901
0.854657
0.872374
0.897141
0.931074
0.973617
1.03232
0.828235
0.835913
0.843377
0.846681
0.84517
0.84008
0.833578
0.827477
0.822719
0.819827
0.819487
0.821928
0.826364
0.83227
0.83901
0.845269
0.848894
0.848149
0.842718
0.834021
0.806656
0.812815
0.816937
0.819872
0.821909
0.822497
0.821368
0.819233
0.817172
0.816202
0.817095
0.819414
0.822163
0.824305
0.824882
0.82366
0.8213
0.817894
0.813331
0.809568
0.800883
0.803531
0.806276
0.80867
0.810292
0.811434
0.812149
0.812229
0.811884
0.811766
0.81244
0.813539
0.81432
0.814338
0.813692
0.812572
0.810733
0.808145
0.805733
0.804228
0.795551
0.796974
0.798747
0.800768
0.802536
0.803856
0.804815
0.805571
0.806127
0.806613
0.807172
0.807583
0.807611
0.807265
0.806522
0.805236
0.80351
0.801639
0.80032
0.799488
0.790538
0.791457
0.792692
0.794248
0.795864
0.797366
0.798618
0.799637
0.800533
0.801333
0.801912
0.802136
0.802006
0.801493
0.800551
0.799301
0.797933
0.796642
0.795806
0.795256
0.785714
0.786382
0.787339
0.78863
0.790023
0.791457
0.79286
0.794129
0.795249
0.796245
0.796932
0.797171
0.796973
0.796367
0.795481
0.794467
0.793399
0.792436
0.791835
0.791432
0.781034
0.781549
0.782327
0.783447
0.784707
0.786055
0.787463
0.788876
0.790216
0.791419
0.792262
0.792568
0.792395
0.791883
0.791174
0.790361
0.789513
0.78878
0.788328
0.788015
0.776433
0.776842
0.777494
0.778493
0.779683
0.780982
0.782383
0.78387
0.785387
0.786826
0.78787
0.78832
0.788298
0.787967
0.787448
0.786816
0.786149
0.785592
0.785248
0.784996
0.771835
0.772166
0.77273
0.773651
0.774792
0.776073
0.777499
0.779065
0.78074
0.782429
0.783739
0.784433
0.784641
0.784519
0.784191
0.783747
0.783245
0.782832
0.78257
0.782362
0.767158
0.76743
0.767934
0.768812
0.769938
0.771241
0.772731
0.774415
0.776285
0.77826
0.779909
0.780921
0.781404
0.781517
0.781389
0.781124
0.780775
0.780483
0.780287
0.780111
0.762333
0.762559
0.763023
0.763889
0.765039
0.766408
0.768004
0.769863
0.77199
0.774318
0.776389
0.777788
0.778586
0.77896
0.779049
0.778957
0.778761
0.778574
0.778431
0.77828
0.757283
0.757472
0.757916
0.758799
0.760013
0.761489
0.763247
0.765352
0.767829
0.770628
0.773208
0.775044
0.7762
0.776865
0.77719
0.777283
0.777233
0.777141
0.777044
0.776912
0.751931
0.752087
0.752526
0.753451
0.754768
0.756396
0.758368
0.760775
0.763669
0.767038
0.770248
0.772639
0.774242
0.775254
0.775852
0.776153
0.77625
0.776252
0.776196
0.776079
0.746182
0.746308
0.746754
0.747748
0.749211
0.751048
0.753309
0.75611
0.759541
0.763621
0.767601
0.770654
0.772786
0.774202
0.775113
0.775652
0.775917
0.776013
0.775997
0.775891
0.739933
0.74003
0.740498
0.741586
0.743234
0.745337
0.74797
0.751283
0.755395
0.760348
0.765278
0.769149
0.771902
0.773805
0.775073
0.775878
0.776338
0.776538
0.77656
0.776461
0.733037
0.733115
0.733599
0.734801
0.736689
0.739126
0.742231
0.746183
0.751159
0.757224
0.763297
0.768119
0.771635
0.774123
0.775845
0.776969
0.777647
0.77796
0.778022
0.777929
0.725241
0.725308
0.725854
0.727186
0.729357
0.732221
0.735909
0.740648
0.746658
0.754046
0.761551
0.767591
0.772034
0.775236
0.777518
0.779064
0.780014
0.780462
0.780566
0.780475
0.716319
0.716358
0.716974
0.718504
0.721046
0.724463
0.728914
0.734696
0.742077
0.751161
0.76036
0.767781
0.773302
0.777344
0.780298
0.782333
0.783618
0.784224
0.784369
0.784274
0.705857
0.705883
0.706585
0.708368
0.711368
0.715475
0.720884
0.727953
0.73699
0.748119
0.759417
0.768564
0.775412
0.780488
0.784259
0.786902
0.788597
0.789387
0.789571
0.789465
0.693229
0.693248
0.69408
0.696216
0.699863
0.704926
0.711635
0.720423
0.731619
0.745301
0.759081
0.770198
0.77856
0.784817
0.789531
0.79289
0.795047
0.796032
0.796249
0.796123
0.677594
0.677616
0.678661
0.681338
0.685915
0.692307
0.700777
0.711814
0.725733
0.742535
0.759266
0.772701
0.782819
0.790437
0.796202
0.800371
0.803027
0.804208
0.80445
0.804297
0.657757
0.657791
0.659185
0.662723
0.668689
0.676997
0.687927
0.701982
0.719382
0.739968
0.760145
0.776204
0.788277
0.797412
0.804363
0.80941
0.812581
0.813947
0.814206
0.814023
0.631923
0.631994
0.634008
0.638981
0.647186
0.658358
0.672809
0.690914
0.712703
0.737806
0.761907
0.780868
0.795096
0.80588
0.814104
0.820106
0.82378
0.825306
0.825568
0.825352
0.597125
0.597324
0.600591
0.608209
0.620198
0.635824
0.655306
0.678738
0.705911
0.73625
0.764706
0.786812
0.803334
0.815904
0.825532
0.832514
0.836664
0.838299
0.838534
0.838283
0.547692
0.548749
0.555318
0.568328
0.586869
0.609358
0.635772
0.665947
0.699482
0.735675
0.76879
0.794163
0.81307
0.827486
0.838566
0.846558
0.851128
0.852791
0.852965
0.852673
0.474663
0.482098
0.497341
0.520428
0.548659
0.580255
0.615147
0.65312
0.693772
0.73641
0.774647
0.803666
0.825285
0.841877
0.854754
0.863895
0.86899
0.87079
0.870975
0.870731
0.39599
0.413345
0.43801
0.471735
0.510054
0.550957
0.594434
0.640456
0.688728
0.738667
0.783175
0.816973
0.842244
0.861786
0.877088
0.887869
0.893607
0.895505
0.895744
0.895668
0.330708
0.351035
0.383527
0.426116
0.473292
0.522948
0.574731
0.628622
0.684345
0.741347
0.791811
0.830078
0.858771
0.880992
0.898181
0.909903
0.91606
0.918471
0.918749
0.918749
0.27722
0.299252
0.337171
0.386048
0.440252
0.497216
0.556318
0.617407
0.680089
0.743746
0.799791
0.842145
0.873816
0.898154
0.916674
0.929555
0.936809
0.939067
0.939418
0.939469
0.23267
0.255756
0.297237
0.351228
0.41111
0.474113
0.539476
0.606931
0.675937
0.745741
0.806919
0.852945
0.887142
0.913199
0.932946
0.946627
0.954444
0.957035
0.957557
0.957643
0.194672
0.218343
0.262647
0.320518
0.385131
0.453279
0.524081
0.597177
0.671899
0.747333
0.813215
0.862504
0.898872
0.926304
0.946906
0.96122
0.969484
0.972546
0.973222
0.973328
0.161331
0.185376
0.231819
0.292932
0.361497
0.434105
0.509722
0.587893
0.667842
0.748484
0.818701
0.870917
0.909111
0.937642
0.958934
0.973746
0.982356
0.985757
0.986541
0.986642
0.131219
0.155604
0.20375
0.267577
0.33955
0.416044
0.495963
0.578762
0.663549
0.749074
0.823353
0.878261
0.918063
0.947514
0.969297
0.984452
0.993274
0.996898
0.997741
0.99783
0.103429
0.12814
0.17772
0.24382
0.318758
0.39868
0.48247
0.569505
0.658812
0.748973
0.827157
0.88464
0.925962
0.956266
0.978484
0.993892
1.00284
1.00658
1.00744
1.00748
0.0771802
0.102264
0.153182
0.221236
0.298737
0.381695
0.468981
0.559915
0.653462
0.748072
0.830091
0.890146
0.933003
0.964165
0.986843
1.00243
1.01146
1.01523
1.01615
1.01616
0.0521068
0.0776137
0.129616
0.199455
0.279218
0.364882
0.455329
0.549852
0.64738
0.74629
0.83214
0.894853
0.939351
0.971445
0.994606
1.01039
1.01944
1.02315
1.02404
1.02406
0.0278065
0.0538525
0.106778
0.178271
0.260008
0.348094
0.441406
0.539223
0.640482
0.74355
0.833282
0.898819
0.945123
0.978283
1.002
1.01801
1.02707
1.03073
1.0315
1.03146
0.00413946
0.030649
0.0846276
0.157526
0.241013
0.331258
0.427151
0.527983
0.632721
0.739808
0.833489
0.902064
0.950405
0.984794
1.00917
1.02541
1.03444
1.03797
1.03864
1.03851
-0.0190174
0.00804541
0.0629755
0.137144
0.222199
0.314355
0.412556
0.516119
0.62408
0.73502
0.832699
0.904563
0.955224
0.991057
1.01617
1.03264
1.04155
1.04486
1.04539
1.04521
-0.041772
-0.0140921
0.04174
0.117097
0.203542
0.297397
0.397652
0.503665
0.614571
0.729154
0.830836
0.906239
0.95958
0.997135
1.0231
1.03974
1.04841
1.05141
1.05179
1.05156
-0.0641262
-0.0357621
0.0209612
0.0973972
0.185084
0.280425
0.382491
0.490671
0.604226
0.72219
0.827824
0.906993
0.963418
1.00308
1.03006
1.04676
1.05498
1.05755
1.05776
1.0575
-0.0859172
-0.0569073
0.000672651
0.0780791
0.166863
0.263508
0.367141
0.477218
0.593113
0.714159
0.823598
0.9067
0.966617
1.00893
1.03727
1.0539
1.06132
1.06323
1.06324
1.06297
-0.107114
-0.0774909
-0.0191035
0.059195
0.148942
0.246711
0.351698
0.463392
0.581318
0.705099
0.818116
0.905209
0.968992
1.01459
1.04494
1.06163
1.06771
1.06846
1.06817
1.06794
-0.127778
-0.0974705
-0.0383293
0.0407818
0.131385
0.230119
0.336251
0.449302
0.568942
0.695087
0.811341
0.902372
0.970288
1.01982
1.05322
1.07073
1.07514
1.07372
1.07259
1.07261
-0.147728
-0.116818
-0.0569436
0.022906
0.114252
0.213814
0.320898
0.435062
0.556109
0.684229
0.803283
0.898046
0.970196
1.02412
1.06176
1.08193
1.08578
1.08145
1.0778
1.07701
-0.167056
-0.135517
-0.0749603
0.0055421
0.0975111
0.19775
0.305581
0.420613
0.54275
0.672453
0.793812
0.891964
0.968377
1.02679
1.06955
1.09491
1.10166
1.09708
1.08716
1.07115
-0.185681
-0.153556
-0.0924957
-0.0115017
0.0808703
0.181591
0.289882
0.405466
0.528317
0.659103
0.782248
0.88328
0.964156
1.02676
1.07416
1.10617
1.11686
1.10632
1.08777
1.07248
-0.203425
-0.171056
-0.10936
-0.0279942
0.0646385
0.165686
0.274027
0.389953
0.51313
0.644465
0.768729
0.871623
0.956939
1.02294
1.07064
1.10241
1.11674
1.09656
1.02704
0.994854
-0.219621
-0.189205
-0.125229
-0.0433502
0.0495415
0.150533
0.258318
0.374301
0.497411
0.628676
0.753231
0.856779
0.945573
1.01505
1.05479
1.07886
1.07721
1.02624
0.955953
0.912315
-0.275654
-0.205176
-0.139808
-0.0586123
0.0340855
0.134707
0.242693
0.358239
0.480805
0.611311
0.73521
0.838314
0.926555
1.00314
1.00885
1.0201
0.980821
0.914887
0.838626
0.795859
-0.236824
-0.220838
-0.161246
-0.0801334
0.0115973
0.111949
0.218895
0.333608
0.454908
0.58353
0.704751
0.805372
0.884993
0.962907
0.957109
0.851264
0.749137
0.677993
0.605226
0.638838
-0.268049
-0.238678
-0.178115
-0.0977082
-0.00591978
0.0940939
0.201214
0.315201
0.435295
0.561886
0.679943
0.776312
0.848017
0.888598
0.843711
0.70048
0.574568
0.484641
0.385874
0.438921
-0.292088
-0.259759
-0.197902
-0.117231
-0.0253798
0.074472
0.181435
0.294495
0.413062
0.53707
0.651176
0.74173
0.803756
0.812335
0.709637
0.538136
0.385396
0.266411
0.135785
0.170236
-0.315612
-0.281699
-0.218626
-0.137096
-0.0450823
0.0546151
0.161019
0.273027
0.389877
0.510961
0.620309
0.704328
0.750985
0.728231
0.572957
0.376572
0.18477
0.0126219
-0.179672
-0.193451
-0.338475
-0.304118
-0.240135
-0.157857
-0.0656368
0.0338555
0.139586
0.250434
0.365326
0.48314
0.587168
0.663829
0.692713
0.635098
0.443138
0.231402
0.0111792
-0.183607
-0.43211
-0.74188
-0.361602
-0.327236
-0.262702
-0.179916
-0.0874744
0.0118687
0.117001
0.226669
0.339517
0.453848
0.552383
0.620539
0.631193
0.523048
0.330632
0.119063
-0.0883793
-0.264497
-0.332664
-0.420055
-0.385909
-0.351493
-0.286659
-0.203609
-0.111078
-0.0119685
0.0924761
0.200799
0.311296
0.421645
0.514259
0.572108
0.558211
0.416145
0.231356
0.039017
-0.125616
-0.219465
-0.243628
-0.260255
-0.411711
-0.377202
-0.312165
-0.229011
-0.136566
-0.0378473
0.0656785
0.172359
0.280093
0.385819
0.472016
0.516939
0.484649
0.316911
0.141758
-0.0248976
-0.153393
-0.192142
-0.206264
-0.207588
-0.439203
-0.404518
-0.33927
-0.2561
-0.163868
-0.0657508
0.0366158
0.141326
0.245861
0.346382
0.425355
0.456503
0.407322
0.224573
0.0588789
-0.0900835
-0.1702
-0.186569
-0.187817
-0.187654
-0.468425
-0.433443
-0.367982
-0.284848
-0.192972
-0.0956377
0.00531837
0.107722
0.208633
0.303424
0.374161
0.393833
0.310169
0.139838
-0.0177036
-0.139875
-0.176014
-0.177512
-0.177709
-0.177116
-0.499077
-0.463905
-0.398169
-0.315144
-0.22376
-0.127415
-0.0281385
0.0716185
0.168473
0.257044
0.319143
0.322659
0.217596
0.0608165
-0.0789646
-0.15683
-0.167603
-0.170774
-0.171632
-0.17151
-0.530567
-0.495275
-0.429573
-0.346739
-0.256006
-0.160878
-0.0635476
0.0332105
0.125616
0.207507
0.260938
0.246825
0.132721
-0.00786162
-0.126896
-0.154293
-0.166797
-0.168858
-0.168417
-0.168125
-0.562446
-0.52704
-0.461689
-0.379209
-0.28932
-0.195649
-0.100558
-0.0071329
0.0804377
0.155462
0.198994
0.171747
0.0489279
-0.0672451
-0.160328
-0.190021
-0.17497
-0.170173
-0.169096
-0.168405
-0.593848
-0.558613
-0.493652
-0.411889
-0.323114
-0.231187
-0.138627
-0.048821
0.033539
0.101635
0.134876
0.0977282
-0.0356187
-0.118371
-0.162933
-0.17121
-0.177354
-0.179571
-0.17894
-0.17815
-0.623163
-0.588758
-0.52452
-0.443844
-0.356569
-0.266704
-0.176981
-0.0910019
-0.0141276
0.0468775
0.0735245
0.0138297
-0.124836
-0.184203
-0.162468
-0.198362
-0.20031
-0.195092
-0.194298
-0.19416
-0.648946
-0.61547
-0.553215
-0.473934
-0.3886
-0.301165
-0.214599
-0.132591
-0.0611203
-0.00757153
0.0155244
-0.0762978
-0.237538
-0.304078
-0.263421
-0.264392
-0.255736
-0.247393
-0.244279
-0.242497
-0.669145
-0.637435
-0.577583
-0.500747
-0.417882
-0.333328
-0.250188
-0.172266
-0.105676
-0.0597306
-0.0410642
-0.155428
-0.367595
-0.593185
-0.556957
-0.460286
-0.406625
-0.383539
-0.364454
-0.35369
-0.681717
-0.652611
-0.596036
-0.522447
-0.442864
-0.361747
-0.282292
-0.208414
-0.145999
-0.106248
-0.0917905
-0.204265
-0.422972
-0.833786
-0.929226
-0.623543
-0.511716
-0.475027
-0.452048
-0.443824
-0.684187
-0.658978
-0.606745
-0.537328
-0.461866
-0.384863
-0.309319
-0.239255
-0.180246
-0.142835
-0.126318
-0.17542
-0.211626
-0.316072
-0.484024
-0.374667
-0.328438
-0.332981
-0.346103
-0.350357
-0.674935
-0.654346
-0.607759
-0.543907
-0.473448
-0.401142
-0.329728
-0.262993
-0.20656
-0.168454
-0.137763
-0.0832383
0.159599
0.568241
0.427766
-0.0347065
-0.314774
-0.330941
-0.331648
-0.330885
-0.651906
-0.63586
-0.597529
-0.541113
-0.476725
-0.40953
-0.342213
-0.278142
-0.223289
-0.184743
-0.156355
-0.120845
0.0260965
0.425446
0.190402
-0.183758
-0.405647
-0.358095
-0.345355
-0.366168
-0.616964
-0.606191
-0.576583
-0.529246
-0.471701
-0.409775
-0.346095
-0.283834
-0.228364
-0.189465
-0.179006
-0.349632
-0.8903
-1.75311
-2.30901
-2.59706
-2.31772
-1.87703
-1.43876
-1.31545
-0.575556
-0.569299
-0.549101
-0.510664
-0.460105
-0.402656
-0.341457
-0.279153
-0.220002
-0.173366
-0.170571
-0.469923
-1.30308
-2.41001
-3.09028
-3.20833
-2.91212
-2.4947
-2.12111
-1.94461
-0.535516
-0.531943
-0.520534
-0.490435
-0.445058
-0.390448
-0.32969
-0.26435
-0.197336
-0.131489
-0.0925846
-0.17287
-0.391352
-0.475085
-0.416718
-0.141254
0.186126
0.447592
0.630344
0.714855
-0.503772
-0.501598
-0.495817
-0.473329
-0.431604
-0.376926
-0.313967
-0.24205
-0.162951
-0.071509
0.0346
0.177524
0.453846
0.964597
1.60073
2.17306
2.59167
2.82874
2.92474
2.95041
-0.477428
-0.476612
-0.475144
-0.461037
-0.422766
-0.366177
-0.298452
-0.220293
-0.129354
-0.0238691
0.102184
0.234479
0.519749
1.06851
1.68737
2.23183
2.6146
2.83578
2.93658
2.96405
-0.459288
-0.458972
-0.458961
-0.451044
-0.417043
-0.358409
-0.28553
-0.202152
-0.106709
0.00243073
0.115419
0.235319
0.419412
0.893929
1.41014
1.85332
2.17693
2.36044
2.441
2.46242
-0.443757
-0.443081
-0.442992
-0.44039
-0.411925
-0.351958
-0.274844
-0.188311
-0.0940294
0.0105334
0.111721
0.216245
0.337742
0.680362
1.08041
1.40698
1.64587
1.77875
1.837
1.85298
-0.435295
-0.433768
-0.43368
-0.433344
-0.407334
-0.344132
-0.262872
-0.174989
-0.0832482
0.0154059
0.106635
0.191051
0.278342
0.501459
0.784453
1.0123
1.17572
1.26867
1.30952
1.31928
-0.435032
-0.435857
-0.439459
-0.438127
-0.404462
-0.330669
-0.244278
-0.156972
-0.0700367
0.0191266
0.0958197
0.159393
0.214312
0.372166
0.562061
0.714858
0.825502
0.88721
0.914781
0.920921
-0.412089
-0.41765
-0.424963
-0.419116
-0.376139
-0.297399
-0.212445
-0.131503
-0.0545486
0.0214452
0.0863952
0.135107
0.179433
0.281081
0.410798
0.512525
0.584197
0.624059
0.640229
0.642787
-0.312775
-0.319502
-0.326405
-0.320137
-0.284154
-0.223801
-0.158657
-0.0945066
-0.0327401
0.0293141
0.0821784
0.120123
0.154292
0.221237
0.307485
0.375291
0.421359
0.446956
0.457006
0.457625
-0.153204
-0.157399
-0.16246
-0.161665
-0.146863
-0.119442
-0.0852031
-0.0468618
-0.00496259
0.0408375
0.0809193
0.112834
0.140832
0.1841
0.238912
0.283821
0.314571
0.331349
0.338329
0.338227
-0.00213831
-0.00411723
-0.00855638
-0.0153457
-0.0203201
-0.0207209
-0.0133843
0.00147189
0.0242523
0.0541482
0.0846119
0.112249
0.137192
0.165446
0.19769
0.22596
0.245569
0.257144
0.260976
0.260152
0.0949533
0.0939467
0.089559
0.0789354
0.0631522
0.0493088
0.0414822
0.0415724
0.0503241
0.0674114
0.0888155
0.110778
0.131228
0.148735
0.167857
0.185641
0.198973
0.20665
0.209392
0.20816
0.139434
0.138752
0.134947
0.124715
0.108387
0.091354
0.0778154
0.0702592
0.0701332
0.0777184
0.0905087
0.105288
0.11965
0.129179
0.14072
0.153534
0.163524
0.169218
0.170674
0.169285
0.151472
0.15092
0.148006
0.1401
0.12696
0.112025
0.0985423
0.0886781
0.0839172
0.084804
0.0898948
0.0970434
0.103731
0.106221
0.113888
0.124623
0.133611
0.138532
0.139922
0.138541
0.148237
0.147804
0.145786
0.140404
0.131153
0.119874
0.108619
0.0991314
0.0924423
0.0888942
0.0868114
0.0844275
0.0802481
0.079927
0.0889518
0.100016
0.108255
0.112583
0.113716
0.112544
0.13947
0.139138
0.137825
0.13446
0.128474
0.120684
0.112264
0.104409
0.0976689
0.0916791
0.0841051
0.0729155
0.0607768
0.0600858
0.0711796
0.0824891
0.0896597
0.0925586
0.0931919
0.0924033
0.129825
0.129568
0.128738
0.126765
0.123178
0.118246
0.112551
0.106801
0.10121
0.0949831
0.084895
0.0681776
0.0502336
0.0515095
0.0654628
0.0764454
0.0820699
0.0837574
0.0839591
0.083354
0.121141
0.120949
0.120434
0.119343
0.11739
0.114575
0.111192
0.107708
0.104502
0.100256
0.0921919
0.0761623
0.0602115
0.0658937
0.0788465
0.0869163
0.0896827
0.0896721
0.0894744
0.0890743
0.113636
0.113518
0.113235
0.112681
0.111794
0.110438
0.108957
0.107791
0.107406
0.10752
0.106438
0.099649
0.0941636
0.102062
0.110405
0.113053
0.112782
0.111946
0.111606
0.111343
0.106631
0.106577
0.106459
0.1062
0.105881
0.105764
0.105812
0.106726
0.109586
0.115638
0.124947
0.133403
0.139748
0.148374
0.1506
0.149395
0.148032
0.14761
0.147357
0.146726
0.099309
0.0993249
0.0993677
0.099352
0.0994351
0.0997983
0.101108
0.103845
0.109458
0.121361
0.141509
0.167026
0.189316
0.195886
0.190612
0.185283
0.183565
0.183856
0.183282
0.182331
0.0908371
0.0908926
0.0910562
0.0912046
0.0916443
0.0924463
0.0943655
0.0984122
0.106124
0.121617
0.149857
0.189943
0.226419
0.229798
0.217099
0.208976
0.208095
0.208934
0.208026
0.207005
0.0807738
0.0808819
0.0811942
0.0816594
0.0821394
0.0831568
0.0850482
0.089411
0.0974789
0.113896
0.144387
0.187182
0.232844
0.235526
0.220891
0.215732
0.21589
0.216853
0.215211
0.21376
0.0684627
0.0685628
0.0689019
0.0694337
0.0701194
0.0715625
0.0738864
0.0776328
0.0842341
0.0980609
0.122734
0.160644
0.195519
0.197099
0.187626
0.187064
0.192505
0.195316
0.193645
0.192108
0.0539451
0.0539548
0.0542144
0.0549181
0.0560704
0.0572511
0.0588862
0.0619087
0.0673719
0.0753162
0.0870103
0.102828
0.11581
0.119284
0.122918
0.133024
0.141494
0.144215
0.142707
0.141036
0.0381976
0.0382219
0.0385733
0.0394736
0.0405619
0.0419241
0.0435358
0.0449872
0.0472252
0.0482131
0.0455722
0.0326521
0.0122031
0.0199996
0.0413463
0.0582339
0.0622423
0.0641489
0.065
0.0642014
0.0213995
0.0213486
0.0214817
0.0222985
0.0234289
0.0244581
0.0254944
0.0267846
0.0271606
0.0257177
0.0177337
-0.01706
-0.0542661
-0.0417872
-0.0117383
-0.00361039
-0.0106679
-0.0137639
-0.010152
-0.00887613
0.00473505
0.00455685
0.00429511
0.00393463
0.00352032
0.00335428
0.00361159
0.00417562
0.00442949
0.00527709
0.00751064
0.00633441
-0.0210704
-0.0219588
-0.0131125
-0.0200141
-0.027137
-0.0270687
-0.0206476
-0.0150274
0.0567465
0.230436
0.433368
0.609003
0.750172
0.862385
0.955725
1.03471
1.07016
1.04696
0.373203
0.498268
0.632467
0.748736
0.847104
0.928829
0.994979
1.04182
1.06538
1.0773
0.600157
0.685739
0.777291
0.858493
0.928411
0.986919
1.03339
1.0673
1.09168
1.10952
0.765766
0.826522
0.89073
0.949475
1.00069
1.04415
1.07977
1.10813
1.13133
1.14954
0.894566
0.939005
0.986097
1.031
1.07068
1.10528
1.13485
1.1594
1.18004
1.19783
1.00084
1.0345
1.07338
1.10965
1.1429
1.17265
1.19861
1.2204
1.23842
1.25575
1.09465
1.12379
1.15828
1.19086
1.22119
1.24869
1.27269
1.2926
1.30823
1.3253
1.18401
1.21348
1.2478
1.28012
1.30997
1.33677
1.3598
1.37841
1.39187
1.40891
1.27977
1.31314
1.34999
1.38375
1.41395
1.44027
1.46233
1.47969
1.49162
1.50903
1.39507
1.433
1.47176
1.50611
1.53556
1.56039
1.58083
1.59677
1.60828
1.62636
1.54019
1.57881
1.61501
1.64576
1.6715
1.69365
1.71275
1.72831
1.74077
1.75877
1.71538
1.74705
1.77327
1.79576
1.81577
1.83452
1.85226
1.86876
1.88412
1.9022
1.90406
1.92129
1.93635
1.95261
1.96853
1.98308
1.9963
2.01024
2.02779
2.04795
2.08585
2.09537
2.10692
2.11774
2.12703
2.13663
2.14743
2.1588
2.17017
2.18553
2.29307
2.29675
2.28181
2.267
2.26073
2.26642
2.2849
2.31522
2.3474
2.37406
2.59939
2.46453
2.3879
2.34555
2.32813
2.3321
2.3595
2.41591
2.51854
2.7429
0.887572
0.885441
0.880955
0.872325
0.860092
0.847952
0.837706
0.829784
0.824127
0.82082
0.820398
0.823066
0.828113
0.835292
0.844648
0.856165
0.8688
0.879823
0.885929
0.888978
0.812038
0.817883
0.824218
0.828703
0.831163
0.830825
0.82807
0.824233
0.820683
0.818366
0.818146
0.820268
0.823869
0.828111
0.831882
0.83374
0.832785
0.829288
0.824115
0.817491
0.803643
0.805939
0.809337
0.812326
0.81439
0.815872
0.816605
0.816257
0.815188
0.814243
0.814336
0.815681
0.817429
0.818679
0.818817
0.817895
0.816322
0.813967
0.810691
0.807765
0.79817
0.799256
0.801084
0.803454
0.805465
0.806876
0.807872
0.808586
0.808937
0.809089
0.809488
0.810201
0.810719
0.81072
0.810256
0.809367
0.807867
0.805758
0.803654
0.802266
0.793017
0.79368
0.794784
0.79648
0.798248
0.799861
0.801129
0.802104
0.802928
0.803636
0.804258
0.804696
0.804792
0.804545
0.803913
0.802806
0.801337
0.799761
0.798421
0.797635
0.788107
0.788568
0.78935
0.790639
0.792112
0.793609
0.795043
0.796295
0.797364
0.798323
0.799109
0.79954
0.799565
0.79919
0.798409
0.797351
0.79617
0.794995
0.794053
0.79353
0.783362
0.783706
0.784314
0.785375
0.786655
0.788008
0.789413
0.790809
0.792107
0.793276
0.794232
0.794754
0.794779
0.794372
0.793663
0.792797
0.791872
0.79095
0.790244
0.789861
0.778731
0.778998
0.779489
0.780391
0.781549
0.782823
0.784181
0.785615
0.78707
0.788459
0.789621
0.790282
0.790391
0.790102
0.789569
0.788892
0.788149
0.787435
0.786903
0.78661
0.774143
0.774354
0.774762
0.775556
0.776634
0.77786
0.779203
0.780672
0.782243
0.783843
0.785253
0.786121
0.78642
0.786331
0.785992
0.7855
0.784932
0.784389
0.783989
0.783759
0.769515
0.769684
0.770033
0.770756
0.77179
0.772992
0.774357
0.775894
0.777593
0.779407
0.781107
0.782279
0.782851
0.783001
0.782868
0.782564
0.782171
0.781776
0.781483
0.7813
0.764774
0.764909
0.765215
0.765896
0.766916
0.768141
0.769567
0.771218
0.773099
0.775181
0.777239
0.778788
0.779683
0.780103
0.780196
0.78008
0.779852
0.779591
0.779387
0.779241
0.759846
0.759953
0.760231
0.760894
0.761936
0.763231
0.764763
0.766581
0.768719
0.771152
0.773659
0.775658
0.776923
0.777645
0.777988
0.778074
0.778008
0.777872
0.777742
0.777626
0.754653
0.754735
0.754993
0.755663
0.756762
0.758165
0.759853
0.761899
0.764361
0.767245
0.770309
0.77285
0.774557
0.775631
0.776259
0.776574
0.776675
0.776665
0.776603
0.776512
0.749113
0.749171
0.749419
0.750117
0.751306
0.75286
0.754756
0.757095
0.759962
0.763402
0.767153
0.770361
0.772614
0.774119
0.775076
0.775651
0.775931
0.776045
0.776048
0.775981
0.74313
0.743166
0.743412
0.744153
0.745463
0.747213
0.749389
0.752114
0.755497
0.75962
0.764213
0.76825
0.771164
0.773184
0.774508
0.77536
0.775884
0.77614
0.776208
0.776159
0.736582
0.736589
0.736829
0.737634
0.739106
0.741117
0.743649
0.746868
0.750933
0.75595
0.761592
0.766598
0.770273
0.772885
0.774683
0.775871
0.776645
0.777051
0.777187
0.777158
0.729255
0.729248
0.729515
0.730394
0.732063
0.734369
0.737347
0.741169
0.746037
0.752111
0.75903
0.765261
0.769915
0.773277
0.775644
0.777272
0.778359
0.778943
0.779155
0.779144
0.720928
0.720889
0.72118
0.722182
0.724098
0.726807
0.730356
0.734965
0.740892
0.748324
0.756819
0.764506
0.770279
0.774503
0.777551
0.779735
0.7812
0.782005
0.782301
0.782304
0.711287
0.711225
0.711559
0.712718
0.714937
0.718149
0.722422
0.728027
0.735277
0.744394
0.754814
0.764256
0.771402
0.776692
0.780561
0.783387
0.785317
0.786391
0.786781
0.786793
0.699801
0.699715
0.700118
0.701486
0.704111
0.707987
0.713208
0.720104
0.729037
0.740242
0.753014
0.764573
0.773335
0.779876
0.78474
0.788348
0.790844
0.792227
0.792714
0.792728
0.685746
0.685637
0.686164
0.687854
0.69106
0.695875
0.702406
0.711041
0.72218
0.736032
0.751641
0.765659
0.776278
0.784255
0.790262
0.794727
0.797852
0.799566
0.800147
0.800156
0.668116
0.667987
0.668721
0.670916
0.674982
0.681136
0.689482
0.700452
0.714437
0.731562
0.750578
0.76748
0.780241
0.789846
0.797139
0.802593
0.806408
0.808461
0.809127
0.809124
0.645451
0.645314
0.646398
0.649393
0.65483
0.663001
0.673988
0.688201
0.705922
0.727111
0.750126
0.770282
0.785421
0.796814
0.805506
0.812024
0.816565
0.818946
0.819685
0.819667
0.615442
0.615335
0.617049
0.62146
0.629204
0.640593
0.655495
0.674172
0.69669
0.722784
0.750398
0.774176
0.791896
0.805245
0.815436
0.823146
0.828406
0.831081
0.831864
0.831821
0.574023
0.574084
0.577203
0.584539
0.596527
0.613194
0.633903
0.658604
0.687118
0.718957
0.751688
0.779343
0.799795
0.815189
0.827014
0.835955
0.841914
0.844797
0.845574
0.845496
0.513601
0.514826
0.522475
0.536268
0.555958
0.580949
0.609787
0.642162
0.677772
0.716048
0.754246
0.785917
0.809141
0.826619
0.840052
0.850227
0.856832
0.859793
0.860455
0.860333
0.441371
0.443282
0.457856
0.481679
0.512244
0.546973
0.584713
0.625327
0.668632
0.714136
0.758854
0.795698
0.822757
0.843232
0.859003
0.87079
0.878277
0.88152
0.882315
0.882319
0.366805
0.373232
0.394692
0.428669
0.469433
0.513699
0.560315
0.609219
0.660317
0.713195
0.764669
0.806933
0.838016
0.86171
0.880175
0.893859
0.902239
0.905191
0.905844
0.905961
0.306175
0.314719
0.340804
0.381772
0.430414
0.482754
0.537329
0.593958
0.652469
0.7124
0.770274
0.8176
0.852386
0.878879
0.899311
0.914247
0.923039
0.926662
0.927909
0.928103
0.256717
0.265835
0.295418
0.341449
0.396196
0.455043
0.516318
0.579742
0.644977
0.71145
0.775298
0.827267
0.865319
0.894112
0.916159
0.932228
0.942021
0.946368
0.947865
0.948088
0.215225
0.224568
0.256485
0.306413
0.366106
0.430358
0.49732
0.566663
0.637911
0.71035
0.779687
0.835876
0.876773
0.90748
0.930782
0.947711
0.958322
0.963225
0.964955
0.965211
0.179312
0.188723
0.222374
0.275443
0.339177
0.408008
0.479929
0.554509
0.63117
0.709065
0.783462
0.843478
0.886864
0.919143
0.943399
0.961018
0.972323
0.977677
0.979539
0.979813
0.147423
0.156838
0.191794
0.247481
0.314561
0.387332
0.463617
0.5429
0.624515
0.707464
0.786576
0.85011
0.895688
0.929274
0.9543
0.972474
0.984107
0.989853
0.991808
0.992095
0.118338
0.127777
0.163803
0.221662
0.291604
0.367799
0.447952
0.531499
0.617677
0.705368
0.78895
0.855812
0.903418
0.938176
0.96385
0.982363
0.994257
1.00022
1.00223
1.00252
0.0912248
0.100709
0.137698
0.197395
0.269812
0.348995
0.432606
0.520032
0.610443
0.702618
0.790511
0.860618
0.910216
0.94611
0.972418
0.991262
1.00329
1.00938
1.01136
1.01163
0.0655276
0.0750776
0.11296
0.174205
0.248824
0.330634
0.417346
0.50831
0.602653
0.699089
0.791196
0.864566
0.916206
0.953298
0.980256
0.999431
1.01161
1.01767
1.01966
1.01982
0.0407455
0.0504861
0.0891379
0.151823
0.228379
0.312513
0.402017
0.496206
0.594203
0.694691
0.79095
0.86768
0.921504
0.959916
0.987608
1.00713
1.01942
1.02546
1.02737
1.02754
0.016652
0.0266241
0.0660191
0.130087
0.208312
0.294512
0.386524
0.483651
0.585023
0.689362
0.789732
0.869962
0.926178
0.966088
0.99463
1.01456
1.02697
1.03295
1.03474
1.03488
-0.00685238
0.00334845
0.0435498
0.108833
0.188542
0.276583
0.370831
0.470612
0.575086
0.683056
0.787488
0.87139
0.93026
0.971892
1.00143
1.02181
1.0343
1.04013
1.04177
1.04184
-0.0299106
-0.0193803
0.021524
0.0879808
0.169037
0.258705
0.354941
0.457101
0.5644
0.675764
0.784161
0.871894
0.933723
0.977376
1.00807
1.02893
1.04142
1.04703
1.04845
1.04843
-0.0524922
-0.0416656
1.52091e-06
0.0675174
0.149793
0.240902
0.338898
0.443166
0.553
0.667484
0.779701
0.871379
0.936506
0.982559
1.01465
1.03599
1.04833
1.05356
1.05472
1.05464
-0.0746334
-0.0634759
-0.0210086
0.0474772
0.130842
0.223216
0.322755
0.428876
0.540948
0.658245
0.774071
0.86975
0.938496
0.987413
1.02128
1.04316
1.0551
1.05971
1.06054
1.06038
-0.0961395
-0.0847239
-0.0414883
0.0278992
0.11224
0.205726
0.306583
0.414309
0.528326
0.648115
0.767262
0.86691
0.939535
0.991833
1.02807
1.05073
1.06197
1.0655
1.06583
1.0656
-0.117146
-0.105366
-0.0614029
0.00881265
0.0940233
0.188475
0.290479
0.399554
0.515231
0.637187
0.759296
0.862753
0.939425
0.995603
1.03501
1.05917
1.06961
1.07129
1.0706
1.07026
-0.137478
-0.125368
-0.0807146
-0.00972785
0.0762734
0.171551
0.274529
0.384735
0.501781
0.625539
0.750226
0.857198
0.937956
0.998373
1.04183
1.06884
1.07931
1.07858
1.07549
1.07414
-0.157191
-0.144765
-0.0993648
-0.0276647
0.0590316
0.155023
0.258817
0.369936
0.488094
0.613316
0.740143
0.850181
0.934928
0.999685
1.04778
1.07932
1.09234
1.09088
1.08374
1.07419
-0.176196
-0.163512
-0.117446
-0.0451481
0.0420887
0.138608
0.243001
0.354747
0.473705
0.599994
0.728481
0.841078
0.92975
0.998945
1.05173
1.08924
1.10825
1.1094
1.09952
1.09154
-0.194439
-0.181525
-0.134953
-0.0621342
0.0254554
0.122303
0.227103
0.339152
0.458579
0.585469
0.715073
0.829549
0.921733
0.995387
1.05131
1.09313
1.11505
1.12144
1.08435
1.03112
-0.211627
-0.198026
-0.151771
-0.0785512
0.00903041
0.105969
0.211078
0.323273
0.442781
0.569812
0.699873
0.815443
0.90989
0.988638
1.04445
1.08
1.10285
1.09049
1.0336
0.969338
-0.228088
-0.213556
-0.167719
-0.0937469
-0.00683108
0.0900871
0.194701
0.307168
0.426455
0.553198
0.68291
0.798615
0.893126
0.979784
1.02929
1.08076
1.04961
1.00747
0.937804
0.8697
-0.214042
-0.196053
-0.14714
-0.0686416
0.0233668
0.124003
0.233913
0.349194
0.47138
0.601347