/*--------------------------------*- C++ -*----------------------------------*\
| =========                 |                                                 |
| \\      /  F ield         | OpenFOAM: The Open Source CFD Toolbox           |
|  \\    /   O peration     | Version:  2112                                  |
|   \\  /    A nd           | Website:  www.openfoam.com                      |
|    \\/     M anipulation  |                                                 |
\*---------------------------------------------------------------------------*/
FoamFile
{
    version     2.0;
    format      ascii;
    arch        "LSB;label=32;scalar=64";
    class       surfaceScalarField;
    location    "37.5";
    object      phi;
}
// * * * * * * * * * * * * * * * * * * * * * * * * * * * * * * * * * * * * * //

dimensions      [0 3 -1 0 0 0 0];

oriented        oriented;

internalField   nonuniform List<scalar> 
17370
(
-0.0916071
0.096007
0.284611
-0.0775906
0.0594144
0.364952
-0.0430364
0.0316172
0.427587
-0.0223126
0.0162587
0.505306
-0.0116633
0.00878673
0.602279
-0.0065735
0.00509
0.720541
-0.00385987
0.00298924
0.863777
-0.00222727
0.00165653
1.03602
-0.00112998
0.000711886
1.24292
-0.000303327
-9.04379e-05
1.49158
0.000476133
-0.000878819
1.49159
0.00128024
-0.00178725
1.2432
0.00234262
-0.00309222
1.03639
0.00395584
-0.00518019
0.864131
0.00665742
-0.00886125
0.721261
0.0117268
-0.0163082
0.603796
0.0223487
-0.0316392
0.50873
0.0430435
-0.0594116
0.432536
0.0775895
-0.0960045
0.36519
0.0916195
0.197391
-0.127087
0.0880171
0.0390697
-0.36435
0.354024
-0.0714796
0.0818059
-0.446655
0.454246
-0.0791697
0.0715786
-0.521009
0.529105
-0.0637305
0.0556349
-0.612987
0.620757
-0.0482486
0.0404781
-0.727159
0.73368
-0.0338646
0.0273436
-0.867579
0.872418
-0.0221446
0.0173053
-1.03856
1.04189
-0.0136227
0.0102993
-1.24471
1.24711
-0.00775841
0.00535922
-1.49284
1.49485
-0.00339892
0.00138855
-1.49269
1.49451
0.000427831
-0.00224219
-1.24411
1.24602
0.00421251
-0.00612179
-1.03761
1.04009
0.00845977
-0.0109454
-0.866188
0.869828
0.0142137
-0.0178536
-0.724597
0.729759
0.0226519
-0.0278143
-0.609069
0.615642
0.0342937
-0.040867
-0.515127
0.522467
0.0485913
-0.055932
-0.43988
0.447666
0.063962
-0.0717481
-0.374713
0.377359
0.0792539
-0.0819001
-0.256905
0.22445
0.0715525
-0.0390969
-0.0687996
0.0591849
0.00961466
-0.0521246
0.0589606
-0.374831
0.367995
-0.0581168
0.054278
-0.453939
0.457778
-0.0487922
0.0442331
-0.527606
0.532165
-0.0396823
0.0357867
-0.620788
0.624684
-0.031578
0.0275938
-0.734649
0.738633
-0.0232562
0.0193885
-0.873944
0.877812
-0.0153623
0.0119182
-1.04335
1.04679
-0.00841004
0.00538669
-1.24864
1.25166
-0.00218859
-0.000784973
-1.49694
1.49991
0.0037375
-0.00687828
-1.49742
1.50056
0.00982211
-0.0132286
-1.25007
1.25348
0.0165761
-0.0204992
-1.04566
1.04958
0.0242817
-0.0285354
-0.877147
0.881401
0.0324467
-0.0365754
-0.738996
0.743125
0.0403995
-0.0448777
-0.625987
0.630465
0.0493778
-0.054807
-0.535029
0.540458
0.058583
-0.0593522
-0.45809
0.458859
0.0524174
-0.0320454
-0.336786
0.316413
0.0096673
-0.0686773
0.05901
-0.0533922
0.0492779
0.00411429
-0.0332649
0.0436985
-0.358537
0.348104
-0.0473818
0.0468007
-0.459561
0.460142
-0.0438771
0.040668
-0.536111
0.539321
-0.036994
0.0336428
-0.62837
0.631721
-0.0300166
0.0267898
-0.742008
0.745235
-0.0233608
0.0201869
-0.88131
0.884484
-0.016618
0.0132846
-1.05021
1.05355
-0.00960463
0.00621572
-1.25491
1.2583
-0.00243944
-0.00116704
-1.50325
1.50686
0.00474625
-0.00844233
-1.50406
1.50775
0.0117225
-0.0152597
-1.25705
1.26058
0.0184529
-0.0218684
-1.05329
1.05671
0.0249137
-0.0282183
-0.885009
0.888314
0.0313398
-0.0348535
-0.746813
0.750326
0.0381018
-0.0416649
-0.634595
0.638158
0.044779
-0.0475994
-0.54461
0.54743
0.0480766
-0.0442507
-0.456987
0.453161
0.0336447
-0.0163554
-0.297117
0.279827
0.00417144
-0.053167
0.0489955
-0.0461041
0.0435454
0.00255867
-0.0230711
0.0334337
-0.337498
0.327135
-0.0391785
0.0401339
-0.459881
0.458926
-0.0388872
0.0365606
-0.541963
0.54429
-0.0339186
0.0313752
-0.634672
0.637215
-0.0284096
0.0255838
-0.748315
0.751141
-0.0223802
0.0193986
-0.887537
0.890519
-0.0160782
0.0129686
-1.05671
1.05982
-0.00943824
0.00606216
-1.26168
1.26506
-0.00217668
-0.0016009
-1.51058
1.51436
0.00534434
-0.00912481
-1.51154
1.51532
0.0123581
-0.0156989
-1.26404
1.26738
0.0186201
-0.0217325
-1.05991
1.06303
0.0245362
-0.0275646
-0.891512
0.89454
0.0302449
-0.0330589
-0.753513
0.756327
0.0354657
-0.037963
-0.641125
0.643623
0.040167
-0.0412568
-0.54928
0.55037
0.0401419
-0.0341678
-0.44806
0.442086
0.0235563
-0.0103432
-0.26467
0.251457
0.00262934
-0.0457604
0.0431311
-0.0414227
0.0396191
0.00180359
-0.0169681
0.0262677
-0.317249
0.30795
-0.032879
0.0350111
-0.457349
0.455216
-0.0345869
0.0328965
-0.546303
0.547993
-0.0306766
0.028559
-0.639506
0.641623
-0.0261399
0.0237877
-0.753729
0.756081
-0.0210084
0.018293
-0.893367
0.896083
-0.0151396
0.0121333
-1.06284
1.06585
-0.0087007
0.00541739
-1.26835
1.27164
-0.00161285
-0.00210456
-1.5181
1.52182
0.00577752
-0.00944905
-1.51906
1.52273
0.0125517
-0.0157441
-1.27067
1.27386
0.0185101
-0.0213947
-1.06606
1.06895
0.0238778
-0.0264261
-0.897327
0.899875
0.0285873
-0.0308124
-0.758774
0.760999
0.0327585
-0.0347942
-0.645867
0.647903
0.036309
-0.0365194
-0.550972
0.551183
0.0341442
-0.0272006
-0.435532
0.428589
0.01757
-0.00743203
-0.239924
0.229786
0.00188962
-0.0409332
0.0390436
-0.0380656
0.0367107
0.00135487
-0.0129675
0.0209803
-0.299293
0.29128
-0.0277639
0.0306985
-0.452642
0.449707
-0.0309157
0.0298002
-0.549407
0.550523
-0.027808
0.0258916
-0.643653
0.645569
-0.0237002
0.0215895
-0.758309
0.76042
-0.0191267
0.0167029
-0.898615
0.901039
-0.013832
0.0110216
-1.06872
1.07153
-0.00774153
0.00456984
-1.27484
1.27801
-0.000882728
-0.00271069
-1.52547
1.52906
0.00624832
-0.00976888
-1.52634
1.52986
0.0127159
-0.015696
-1.27699
1.27997
0.0182013
-0.0207247
-1.07167
1.0742
0.022845
-0.0250071
-0.902195
0.904357
0.0268728
-0.0288184
-0.763047
0.764992
0.030521
-0.0322971
-0.649786
0.651562
0.0331631
-0.0326518
-0.551041
0.550529
0.0293742
-0.0221397
-0.421445
0.41421
0.0137051
-0.0057159
-0.220826
0.212837
0.00145922
-0.0373982
0.035939
-0.0355266
0.0344824
0.00104419
-0.0101368
0.0169218
-0.283903
0.277118
-0.0234579
0.0268628
-0.446511
0.443107
-0.0276681
0.0269941
-0.551401
0.552075
-0.0252465
0.0234838
-0.647439
0.649202
-0.0214556
0.019492
-0.762468
0.764432
-0.0171852
0.0149164
-0.903332
0.905601
-0.0122428
0.00961936
-1.07418
1.0768
-0.00653283
0.0035184
-1.28107
1.28409
7.33453e-06
-0.00343598
-1.53255
1.53598
0.00679764
-0.0101119
-1.53329
1.5366
0.0128444
-0.0155532
-1.28284
1.28555
0.0177968
-0.0200421
-1.07659
1.07884
0.0219344
-0.0238653
-0.906384
0.908315
0.0255224
-0.0272443
-0.766792
0.768514
0.028743
-0.0301963
-0.653206
0.654659
0.030556
-0.0293454
-0.549687
0.548476
0.0254719
-0.0183474
-0.407009
0.399885
0.0110365
-0.00456866
-0.205682
0.199214
0.00117079
-0.0346432
0.0334724
-0.0335651
0.0327515
0.000813574
-0.00803099
0.0137345
-0.270901
0.265197
-0.0197885
0.0233991
-0.439581
0.435971
-0.024696
0.0242842
-0.552636
0.553048
-0.0228304
0.0211977
-0.650935
0.652568
-0.0192858
0.0174268
-0.766357
0.768216
-0.0152348
0.013074
-0.907766
0.909926
-0.0105273
0.00803836
-1.07929
1.08178
-0.00512438
0.00227711
-1.28697
1.28982
0.00105961
-0.00431484
-1.53931
1.54256
0.00748466
-0.0105653
-1.53981
1.54289
0.0130667
-0.0155208
-1.28816
1.29062
0.0175477
-0.0195683
-1.081
1.08302
0.0212596
-0.0229713
-0.910131
0.911843
0.0244343
-0.0259593
-0.770106
0.77163
0.0272672
-0.0283552
-0.655903
0.656991
0.028364
-0.0265133
-0.546958
0.545107
0.0222841
-0.015481
-0.392921
0.386118
0.00912774
-0.00376087
-0.19335
0.187983
0.000967402
-0.0324188
0.0314514
-0.0320366
0.0314012
0.000635365
-0.00640312
0.0111786
-0.259984
0.255209
-0.016641
0.0202574
-0.432355
0.428739
-0.021884
0.0216987
-0.553377
0.553562
-0.0204767
0.0189054
-0.65421
0.655782
-0.0170588
0.0152671
-0.770051
0.771843
-0.0131636
0.011097
-0.911968
0.914035
-0.00866229
0.00628233
-1.08413
1.08651
-0.00349768
0.000792182
-1.29254
1.29525
0.00235058
-0.00538776
-1.54568
1.54872
0.00832123
-0.0111517
-1.54585
1.54868
0.0134329
-0.0156524
-1.29298
1.2952
0.0174648
-0.0192543
-1.08494
1.08673
0.0207431
-0.0222496
-0.913456
0.914962
0.0235486
-0.0249173
-0.773058
0.774426
0.0260987
-0.0268114
-0.657877
0.65859
0.0264696
-0.0241137
-0.54303
0.540674
0.0197021
-0.0133058
-0.379533
0.373137
0.00773492
-0.00317908
-0.183065
0.178509
0.000821372
-0.0305707
0.0297494
-0.0308466
0.0303558
0.000490792
-0.00508413
0.00905117
-0.250863
0.246896
-0.013868
0.0173409
-0.425199
0.421726
-0.0191748
0.0192134
-0.553674
0.553635
-0.0182311
0.0167342
-0.65738
0.658877
-0.0149463
0.013194
-0.773622
0.775375
-0.0111271
0.00909638
-0.915997
0.918028
-0.00671458
0.00440279
-1.08876
1.09107
-0.0017186
-0.000866
-1.29783
1.30041
0.00384574
-0.00669398
-1.55162
1.55447
0.00941435
-0.0120093
-1.55139
1.55398
0.0140778
-0.0160728
-1.29735
1.29935
0.0176895
-0.0192776
-1.08845
1.09004
0.0205937
-0.0219265
-0.916383
0.917716
0.0230719
-0.0242621
-0.775683
0.776873
0.0252544
-0.0255918
-0.659092
0.65943
0.0248912
-0.0221141
-0.538136
0.535359
0.0176297
-0.0116529
-0.366971
0.360994
0.00671102
-0.00275988
-0.174291
0.17034
0.000718587
-0.0289928
0.0282742
-0.0299352
0.0295676
0.000367629
-0.00396854
0.00721678
-0.243314
0.240065
-0.0113645
0.0145678
-0.418407
0.415203
-0.0164601
0.0166642
-0.553561
0.553357
-0.0157896
0.0143925
-0.660389
0.661786
-0.0126322
0.0108933
-0.777112
0.778851
-0.00884458
0.00684561
-0.919944
0.921943
-0.00451999
0.00227878
-1.09325
1.09549
0.000304576
-0.00278696
-1.30288
1.30536
0.00562519
-0.00830799
-1.5572
1.55988
0.0108348
-0.0132026
-1.55647
1.55884
0.0150531
-0.016806
-1.30127
1.30302
0.0182085
-0.0195688
-1.09155
1.09291
0.0206846
-0.0218074
-0.918962
0.920085
0.0227789
-0.0237939
-0.777961
0.778976
0.0245411
-0.0246181
-0.659621
0.659698
0.0235405
-0.0204421
-0.532448
0.52935
0.0159701
-0.0103922
-0.355248
0.34967
0.00595212
-0.00245499
-0.166652
0.163154
0.000645127
-0.0276077
0.0269626
-0.0292636
0.0290067
0.000256855
-0.00297617
0.00556522
-0.237171
0.234582
-0.00903733
0.0118872
-0.412208
0.409358
-0.0137259
0.014023
-0.553176
0.552879
-0.0132068
0.0118692
-0.663235
0.664573
-0.0101063
0.00835693
-0.780571
0.782321
-0.00630933
0.0043256
-0.923805
0.925788
-0.00203177
-0.000163689
-1.0976
1.0998
0.00268983
-0.00508186
-1.30772
1.31011
0.00777716
-0.0102794
-1.56243
1.56493
0.0125909
-0.0147136
-1.56108
1.5632
0.0163329
-0.0178292
-1.30469
1.30619
0.0189948
-0.0201003
-1.0942
1.0953
0.0210009
-0.021919
-0.921138
0.922056
0.0227295
-0.023573
-0.779875
0.780719
0.0240867
-0.0238991
-0.659612
0.659425
0.0224723
-0.0191033
-0.52615
0.522781
0.0146745
-0.00944622
-0.344305
0.339077
0.00540037
-0.00224118
-0.159862
0.156703
0.000596493
-0.0263582
0.0257617
-0.02881
0.0286609
0.000149165
-0.00203967
0.00399764
-0.232333
0.230375
-0.00677263
0.00918679
-0.406763
0.404348
-0.0108686
0.0112055
-0.552647
0.55231
-0.010461
0.00919414
-0.665974
0.667241
-0.00744622
0.00567553
-0.784041
0.785811
-0.00358479
0.00156055
-0.927647
0.929671
0.000762674
-0.00296811
-1.10188
1.10409
0.00546044
-0.00778581
-1.31238
1.31471
0.0103608
-0.0127046
-1.5673
1.56964
0.0148171
-0.016696
-1.56519
1.56707
0.0180894
-0.0193404
-1.30761
1.30886
0.0202995
-0.0211978
-1.09635
1.09725
0.021914
-0.0226145
-0.922904
0.923605
0.0231976
-0.0237802
-0.781443
0.782026
0.0239446
-0.023473
-0.659021
0.658549
0.0217023
-0.0180781
-0.519334
0.515709
0.0136946
-0.00875768
-0.334046
0.329109
0.0050155
-0.00210173
-0.153707
0.150794
0.000568911
-0.0251992
0.0246303
-0.0285687
0.0285289
3.97935e-05
-0.00110907
0.00243953
-0.228751
0.227421
-0.00448766
0.00638225
-0.402233
0.400338
-0.00777751
0.00805192
-0.552102
0.551827
-0.00731872
0.00607719
-0.668601
0.669843
-0.00429961
0.00247527
-0.787551
0.789376
-0.000323822
-0.00174311
-0.931564
0.933631
0.004092
-0.00629881
-1.10616
1.10837
0.00876735
-0.0110398
-1.31691
1.31919
0.0135092
-0.0156948
-1.57185
1.57404
0.0175939
-0.0192079
-1.56881
1.57042
0.0203271
-0.021263
-1.31002
1.31096
0.02193
-0.0225203
-1.09805
1.09864
0.022967
-0.0234054
-0.924219
0.924657
0.0237934
-0.024187
-0.782496
0.78289
0.0240485
-0.023218
-0.657759
0.656929
0.0210952
-0.0172722
-0.512056
0.508233
0.0129522
-0.00826044
-0.324365
0.319673
0.00475162
-0.00201364
-0.148016
0.145278
0.000554055
-0.024092
0.0235379
-0.028547
0.0286172
-7.02236e-05
-0.000141119
0.000837536
-0.226427
0.22573
-0.00213645
0.0034542
-0.39878
0.397462
-0.00446804
0.00458257
-0.551779
0.551664
-0.00376543
0.00246214
-0.67125
0.672553
-0.000609015
-0.00128199
-0.791151
0.793042
0.00349108
-0.00559791
-0.935532
0.937639
0.0079884
-0.0102245
-1.11044
1.11267
0.0127044
-0.0149527
-1.32134
1.32359
0.0173337
-0.019361
-1.57607
1.5781
0.0210411
-0.0223834
-1.57187
1.57321
0.0232381
-0.0238588
-1.3118
1.31242
0.0242298
-0.024479
-1.09911
1.09936
0.0246115
-0.0247278
-0.925001
0.925117
0.0248731
-0.024966
-0.783049
0.783141
0.0245887
-0.0233484
-0.655755
0.654515
0.0208777
-0.0168292
-0.504425
0.500377
0.0125202
-0.00798884
-0.315152
0.310621
0.00462983
-0.0019902
-0.142647
0.140007
0.000558295
-0.0230089
0.0224506
-0.0287544
0.0289634
-0.000208952
0.000846542
-0.000855097
-0.225389
0.225397
0.000374493
0.000293759
-0.396511
0.395843
-0.000849644
0.000770238
-0.551835
0.551914
0.000115509
-0.00147565
-0.674043
0.675403
0.00340163
-0.00540172
-0.79488
0.796881
0.00776433
-0.0100211
-0.939613
0.941869
0.0125631
-0.0149075
-1.1148
1.11714
0.0174544
-0.0197048
-1.32572
1.32797
0.0220109
-0.0238818
-1.57997
1.58185
0.0253214
-0.0263499
-1.57438
1.57541
0.0268885
-0.0271606
-1.31292
1.31319
0.0272169
-0.0271448
-1.0995
1.09943
0.026993
-0.0267954
-0.925126
0.924929
0.0266213
-0.0263161
-0.782876
0.782571
0.025599
-0.0238452
-0.652984
0.651231
0.0209678
-0.0166689
-0.496362
0.492063
0.0123415
-0.00790534
-0.306249
0.301813
0.00462494
-0.00201791
-0.13745
0.134843
0.000576715
-0.021913
0.0213362
-0.0292372
0.0295872
-0.000350038
0.00199003
-0.00266726
-0.225717
0.226394
0.00309278
-0.00321493
-0.395587
0.395709
0.00330043
-0.00371339
-0.552411
0.552824
0.00473909
-0.00620355
-0.676976
0.67844
0.00826054
-0.0104145
-0.798832
0.800986
0.0129665
-0.0153909
-0.943993
0.946417
0.0180982
-0.0205628
-1.11937
1.12183
0.0231965
-0.0254677
-1.3301
1.33237
0.0277201
-0.0294533
-1.58355
1.58529
0.0306562
-0.0313412
-1.57623
1.57691
0.0315433
-0.0314057
-1.31332
1.31319
0.0310826
-0.0306007
-1.09918
1.0987
0.0300946
-0.0295157
-0.924543
0.923964
0.0289821
-0.0282388
-0.781849
0.781106
0.0270505
-0.0247079
-0.64925
0.646907
0.0214331
-0.0168806
-0.487848
0.483296
0.0124763
-0.00803581
-0.297517
0.293077
0.00474537
-0.00209661
-0.132294
0.129646
0.000607592
-0.0207777
0.0201701
-0.0300157
0.0305456
-0.00052989
0.0032606
-0.00474398
-0.227496
0.22898
0.00610132
-0.00704849
-0.396216
0.397163
0.00789487
-0.00878937
-0.553805
0.554699
0.0101328
-0.0118355
-0.680225
0.681928
0.0141406
-0.0165113
-0.803093
0.805464
0.019286
-0.0219004
-0.948678
0.951292
0.0247998
-0.0274188
-1.12416
1.12678
0.0301797
-0.0325076
-1.33452
1.33685
0.0347168
-0.0362826
-1.58685
1.58841
0.0372119
-0.0375117
-1.57736
1.57765
0.0373247
-0.0367303
-1.31284
1.31224
0.0359585
-0.034989
-1.09796
1.09699
0.0340517
-0.0330307
-0.923117
0.922096
0.0321481
-0.0308967
-0.779872
0.778621
0.0292172
-0.0263145
-0.644454
0.641551
0.0225766
-0.0176505
-0.478824
0.473898
0.0130442
-0.00845778
-0.288737
0.28415
0.00503709
-0.00224461
-0.127024
0.124231
0.000655017
-0.0195787
0.0189237
-0.0311628
0.0319173
-0.000754538
0.00475904
-0.00711338
-0.230889
0.233243
0.00950682
-0.01134
-0.398534
0.400368
0.0130034
-0.0144399
-0.556266
0.557702
0.0161761
-0.01818
-0.684033
0.686037
0.0208213
-0.0235078
-0.807802
0.810489
0.026631
-0.0295568
-0.953766
0.956692
0.0327804
-0.0356626
-1.12929
1.13217
0.0386492
-0.0410903
-1.33906
1.3415
0.0432842
-0.0446786
-1.58977
1.59117
0.0452999
-0.0451845
-1.57769
1.57757
0.0445426
-0.0434551
-1.31139
1.3103
0.0422199
-0.0407354
-1.09571
1.09422
0.0393333
-0.037818
-0.920732
0.919217
0.0365068
-0.0346831
-0.776849
0.775025
0.0324446
-0.0288594
-0.638553
0.634968
0.0245479
-0.0191296
-0.46905
0.463632
0.0141832
-0.00926635
-0.279615
0.274698
0.00555227
-0.00248008
-0.121419
0.118347
0.000721925
-0.0182818
0.0175599
-0.0327511
0.0337852
-0.00103407
0.00654017
-0.00989668
-0.236022
0.239379
0.0134756
-0.016332
-0.40274
0.405596
0.0189229
-0.0209876
-0.559948
0.562012
0.0232124
-0.0256034
-0.688531
0.690922
0.0287048
-0.0318497
-0.813164
0.816308
0.035498
-0.0388941
-0.959529
0.962925
0.0425868
-0.0458191
-1.13497
1.1382
0.0490746
-0.0516355
-1.34381
1.34637
0.0537985
-0.0549856
-1.59234
1.59353
0.0552406
-0.0546101
-1.57713
1.5765
0.0534587
-0.0517886
-1.30885
1.30718
0.0500492
-0.0480308
-1.09234
1.09032
0.0461536
-0.0441211
-0.91727
0.915238
0.0422594
-0.0398195
-0.772676
0.770236
0.0369095
-0.032568
-0.631319
0.626978
0.0276094
-0.0215536
-0.458312
0.452256
0.0160601
-0.010554
-0.269757
0.264251
0.00633986
-0.00282611
-0.115195
0.111681
0.000817123
-0.0168442
0.0160271
-0.0348841
0.0362926
-0.00140852
0.00882767
-0.0133965
-0.243131
0.247699
0.0183434
-0.0223598
-0.409138
0.413155
0.0260423
-0.02894
-0.56517
0.568067
0.0319247
-0.0349527
-0.693973
0.697001
0.0387488
-0.0425235
-0.819472
0.823247
0.0468338
-0.0507765
-0.96625
0.970193
0.0549751
-0.0585576
-1.14133
1.14492
0.0620452
-0.0646578
-1.34874
1.35136
0.0666812
-0.0675345
-1.5944
1.59526
0.0672807
-0.0660067
-1.57546
1.57419
0.0642313
-0.0618666
-1.30508
1.30271
0.0595222
-0.0568985
-1.08781
1.08518
0.0545166
-0.0519344
-0.912656
0.910074
0.0494879
-0.0463665
-0.76727
0.764149
0.042772
-0.0376257
-0.622617
0.617471
0.0318892
-0.0249522
-0.446292
0.439355
0.0186436
-0.0122691
-0.258643
0.252268
0.0073576
-0.0032609
-0.108041
0.103944
0.000933706
-0.015213
0.0142792
-0.0377389
0.0396841
-0.00194518
0.0119903
-0.0181146
-0.252598
0.258722
0.0246865
-0.0300231
-0.418121
0.423458
0.034955
-0.0388829
-0.572435
0.576363
0.0428824
-0.0468247
-0.700891
0.704833
0.0515922
-0.0561578
-0.827058
0.831624
0.0612194
-0.0657404
-0.974042
0.978563
0.0704471
-0.074361
-1.14836
1.15227
0.0780376
-0.0806343
-1.35372
1.35632
0.0823959
-0.0827754
-1.5957
1.59608
0.0818766
-0.0798106
-1.57242
1.57035
0.0772789
-0.0740971
-1.29983
1.29665
0.0710245
-0.0676481
-1.08191
1.07854
0.0646564
-0.0615245
-0.906845
0.903713
0.0585168
-0.0547559
-0.760478
0.756717
0.0503777
-0.0442204
-0.612277
0.60612
0.037438
-0.0292831
-0.432471
0.424316
0.0218548
-0.0143313
-0.245732
0.238209
0.0085471
-0.00375804
-0.0996937
0.0949046
0.00106576
-0.0133481
0.0122824
-0.0416241
0.0444006
-0.00277649
0.0166587
-0.0248574
-0.265093
0.273291
0.0334378
-0.0403404
-0.430262
0.437164
0.0467291
-0.0518262
-0.582194
0.587291
0.0570722
-0.0621984
-0.709776
0.714902
0.0680879
-0.0735336
-0.8362
0.841645
0.0794177
-0.0845514
-0.982976
0.988109
0.0897621
-0.0939541
-1.15599
1.16018
0.0977102
-0.10015
-1.35858
1.36102
0.101465
-0.101176
-1.59594
1.59565
0.0994547
-0.0964345
-1.56767
1.56465
0.0930234
-0.0888876
-1.29285
1.28871
0.0849892
-0.0807883
-1.07443
1.07023
0.0771308
-0.073317
-0.899719
0.895905
0.0696278
-0.0650126
-0.752283
0.747667
0.0596161
-0.0521275
-0.599799
0.592311
0.0440109
-0.034318
-0.416196
0.406503
0.025483
-0.0165672
-0.230526
0.22161
0.00978566
-0.0042531
-0.0899834
0.0844508
0.00119069
-0.011232
0.0100413
-0.0471006
0.0513096
-0.00420896
0.0240609
-0.0351443
-0.281763
0.292847
0.0463959
-0.0554256
-0.446539
0.455568
0.0635482
-0.0699771
-0.594836
0.601265
0.0766827
-0.0831177
-0.720943
0.727379
0.0902133
-0.0965438
-0.847065
0.853395
0.103186
-0.10881
-0.993085
0.998709
0.114308
-0.118519
-1.16406
1.16827
0.122006
-0.123941
-1.36295
1.36489
0.124418
-0.123117
-1.59466
1.59336
0.120261
-0.116032
-1.56089
1.55666
0.111593
-0.106414
-1.28388
1.2787
0.101622
-0.0964925
-1.06516
1.06003
0.0920331
-0.0873553
-0.890925
0.886248
0.0828395
-0.0770745
-0.742097
0.736332
0.0703679
-0.0612501
-0.584538
0.57542
0.0515157
-0.0399416
-0.396823
0.385249
0.0293978
-0.0188698
-0.212618
0.20209
0.0109947
-0.00470165
-0.0788659
0.0725729
0.00129129
-0.00889057
0.00759927
-0.0552444
0.0625222
-0.00727777
0.0374548
-0.0528995
-0.304798
0.320242
0.0679717
-0.0798237
-0.468462
0.480314
0.0898207
-0.0976462
-0.610738
0.618563
0.105911
-0.113532
-0.734466
0.742086
0.121517
-0.128319
-0.85949
0.866292
0.13518
-0.140732
-1.00393
1.00948
0.145854
-0.149423
-1.17184
1.17541
0.151915
-0.152653
-1.36597
1.3667
0.151583
-0.148642
-1.59103
1.58809
0.144106
-0.138212
-1.55146
1.54557
0.132398
-0.125922
-1.27272
1.26624
0.120117
-0.114035
-1.05397
1.04789
0.108783
-0.103185
-0.880111
0.874514
0.0977608
-0.0907368
-0.729313
0.722289
0.0826381
-0.0716092
-0.565849
0.55482
0.0598055
-0.045915
-0.373545
0.359655
0.0334467
-0.0212047
-0.191712
0.17947
0.0121724
-0.00510208
-0.0664315
0.0593612
0.00135981
-0.00638581
0.00502601
-0.0693763
0.0733705
-0.0039942
0.0283303
-0.0416649
-0.33826
0.351595
0.0550553
-0.0657588
-0.497334
0.508037
0.0753455
-0.0845388
-0.629854
0.639048
0.0949861
-0.104197
-0.749476
0.758687
0.114441
-0.123583
-0.872282
0.881424
0.133245
-0.141693
-1.0141
1.02254
0.150262
-0.157293
-1.17783
1.18486
0.163787
-0.168349
-1.36616
1.37072
0.171401
-0.171943
-1.58376
1.5843
0.169877
-0.16569
-1.53841
1.53422
0.160515
-0.153943
-1.25879
1.25222
0.147756
-0.140553
-1.04077
1.03357
0.134385
-0.127788
-0.867257
0.860661
0.121321
-0.112325
-0.713781
0.704785
0.100689
-0.0850407
-0.542843
0.527194
0.0689083
-0.0505972
-0.345364
0.327052
0.0352406
-0.0211463
-0.167665
0.15357
0.01145
-0.00448946
-0.0529868
0.0460262
0.00108402
-0.00384008
0.00275605
-0.0804352
0.0784521
0.00198304
0.00647688
-0.0150506
-0.367798
0.376371
0.0251783
-0.032887
-0.523442
0.53115
0.0408114
-0.0489198
-0.650635
0.658743
0.0586245
-0.0674718
-0.767738
0.776585
0.0768316
-0.0853543
-0.890098
0.89862
0.0942822
-0.101726
-1.03069
1.03814
0.109434
-0.115394
-1.19165
1.19761
0.120822
-0.124319
-1.37489
1.37838
0.125988
-0.125404
-1.58385
1.58327
0.122302
-0.117131
-1.52903
1.52386
0.11093
-0.103275
-1.24491
1.23726
0.0960239
-0.0879133
-1.02554
1.01743
0.0804656
-0.0720824
-0.851391
0.843008
0.0640403
-0.0546935
-0.691103
0.681756
0.0449277
-0.0333152
-0.508917
0.497305
0.0231434
-0.0140343
-0.30825
0.299141
0.00809037
-0.0038318
-0.140096
0.135837
0.00157146
-0.0004144
-0.0396048
0.0384477
4.71861e-05
-0.00163361
0.00158642
-0.0815676
0.0786222
0.00294536
-0.00257165
-0.00213405
-0.387531
0.392236
0.00886878
-0.0146744
-0.542873
0.548678
0.0209142
-0.0279789
-0.668706
0.675771
0.0364491
-0.0442109
-0.784681
0.792443
0.0526461
-0.060134
-0.90645
0.913938
0.0677117
-0.0743851
-1.04539
1.05207
0.0811187
-0.0864549
-1.20315
1.20849
0.0909545
-0.0937336
-1.38129
1.38407
0.0951372
-0.0943474
-1.58219
1.5814
0.0912754
-0.0863362
-1.5184
1.51346
0.0804839
-0.073336
-1.22973
1.22258
0.0659306
-0.0574105
-1.00868
1.00016
0.0489661
-0.0389657
-0.832789
0.822789
0.0296347
-0.0196729
-0.667911
0.657949
0.0112599
-0.0029298
-0.483388
0.475058
-0.00222253
0.00489866
-0.288814
0.286138
-0.00536887
0.00451124
-0.130203
0.131061
-0.00313719
0.0015597
-0.0367508
0.0383282
-0.000484124
-0.001337
0.00182113
-0.0801323
0.0773238
0.00280852
-0.00607745
0.00404348
-0.400367
0.402401
-7.55715e-06
-0.00445231
-0.557492
0.561952
0.00984941
-0.015806
-0.683736
0.689693
0.0230828
-0.0298077
-0.79971
0.806434
0.0370736
-0.0435251
-0.920927
0.927378
0.0504413
-0.0561763
-1.05833
1.06407
0.0622081
-0.0666187
-1.2135
1.21791
0.0707445
-0.0733557
-1.3868
1.38941
0.074628
-0.0737435
-1.58049
1.5796
0.0711108
-0.0667039
-1.50835
1.50395
0.0612498
-0.0540344
-1.21537
1.20815
0.0466945
-0.0379216
-0.990949
0.982176
0.0288784
-0.0185794
-0.811338
0.801039
0.00895815
0.000340341
-0.644683
0.635384
-0.00711648
0.0121001
-0.465102
0.460119
-0.0138737
0.0131178
-0.280504
0.28126
-0.0110713
0.00800335
-0.130268
0.133336
-0.00521035
0.00244471
-0.0390594
0.041825
-0.000731644
-0.0020136
0.00274524
-0.0784793
0.0760238
0.00245546
-0.00704863
0.00658134
-0.408689
0.409156
-0.00367047
0.000578069
-0.569269
0.572362
0.00376349
-0.0091135
-0.696337
0.701687
0.0151866
-0.021086
-0.812524
0.818423
0.0273822
-0.0330101
-0.93341
0.939038
0.039018
-0.0442446
-1.06972
1.07494
0.0495404
-0.0538241
-1.22229
1.22657
0.0576628
-0.0601413
-1.39184
1.39432
0.0614017
-0.0605923
-1.57875
1.57794
0.0580786
-0.0535995
-1.49898
1.4945
0.0482305
-0.0412266
-1.20085
1.19385
0.0339562
-0.0251632
-0.972836
0.964043
0.0165603
-0.00695249
-0.789904
0.780297
-0.00138455
0.00899068
-0.624291
0.616684
-0.0139196
0.0171489
-0.452708
0.449478
-0.0177848
0.0158401
-0.27815
0.280094
-0.0127938
0.00914181
-0.134564
0.138216
-0.00587433
0.00270649
-0.0436606
0.0468284
-0.000813907
-0.00318763
0.00400154
-0.076994
0.0749092
0.00208479
-0.00678724
0.00678859
-0.414181
0.414179
-0.00526509
0.00279072
-0.578099
0.580573
0.00125649
-0.00574859
-0.706892
0.711384
0.0109027
-0.0159831
-0.823554
0.828634
0.021568
-0.0266328
-0.944351
0.949416
0.0322263
-0.0369453
-1.07996
1.08468
0.0419084
-0.0459753
-1.23068
1.23474
0.0496049
-0.0519614
-1.39666
1.39901
0.0531242
-0.0526228
-1.5771
1.5766
0.0500486
-0.0457204
-1.48955
1.48522
0.0404103
-0.0335832
-1.1866
1.17977
0.0268643
-0.018585
-0.95511
0.94683
0.0108021
-0.00252506
-0.770509
0.762232
-0.00449652
0.0108003
-0.607731
0.601428
-0.014765
0.017175
-0.443938
0.441528
-0.0172286
0.0152304
-0.27829
0.280288
-0.012387
0.00878788
-0.13999
0.143589
-0.00558683
0.00259828
-0.0487658
0.0517543
-0.000789994
-0.00444942
0.00523941
-0.0758935
0.0742884
0.0016051
-0.00574235
0.00601723
-0.41811
0.417835
-0.00487404
0.00312013
-0.58566
0.587414
0.000556698
-0.00451716
-0.71585
0.71981
0.0093169
-0.0136446
-0.83332
0.837648
0.0185503
-0.0230905
-0.954484
0.959024
0.0284933
-0.0329097
-1.08949
1.09391
0.0374948
-0.0414924
-1.23871
1.24271
0.0453884
-0.0476703
-1.40145
1.40373
0.04891
-0.0483269
-1.5757
1.57512
0.0460928
-0.041662
-1.48063
1.4762
0.0367558
-0.0305204
-1.1728
1.16656
0.0242775
-0.0171037
-0.938743
0.931569
0.0103405
-0.00318545
-0.7538
0.746645
-0.00243561
0.007688
-0.593989
0.588736
-0.0111075
0.0130432
-0.436845
0.43491
-0.0133291
0.0120381
-0.279079
0.28037
-0.00977097
0.00689668
-0.145028
0.147902
-0.00437647
0.00205575
-0.0533043
0.0556251
-0.000643313
-0.00559282
0.00623613
-0.0753433
0.0741048
0.00123852
-0.00450052
0.00481978
-0.421171
0.420851
-0.00376618
0.00211592
-0.592078
0.593728
0.00125725
-0.00467741
-0.723715
0.727135
0.00869938
-0.0128286
-0.841909
0.846038
0.0173602
-0.0220676
-0.963411
0.968118
0.026819
-0.031127
-1.09847
1.10278
0.0359185
-0.039738
-1.24664
1.25046
0.043207
-0.0458976
-1.40595
1.40864
0.0472735
-0.0469024
-1.57456
1.57419
0.0447654
-0.0408868
-1.47191
1.46804
0.0363798
-0.0306877
-1.16008
1.15439
0.0251633
-0.0188415
-0.924445
0.918123
0.0130204
-0.00706858
-0.73965
0.733699
0.00199064
0.00253103
-0.582539
0.578018
-0.00547183
0.00741285
-0.430622
0.428681
-0.00800274
0.00729276
-0.278975
0.279685
-0.00596875
0.0041737
-0.148424
0.150219
-0.00265352
0.00126688
-0.0564467
0.0578333
-0.000417426
-0.00641301
0.00683044
-0.075363
0.0743529
0.00101013
-0.00307522
0.00307142
-0.423983
0.423987
-0.0021457
0.000525803
-0.597914
0.599534
0.00257253
-0.0058121
-0.730845
0.734085
0.00960673
-0.0133048
-0.849945
0.853643
0.0179485
-0.0219032
-0.97229
0.976245
0.0266634
-0.0308308
-1.10728
1.11144
0.0355425
-0.0395684
-1.2543
1.25832
0.0433081
-0.0457498
-1.4111
1.41354
0.047398
-0.0473557
-1.57371
1.57367
0.0458006
-0.042235
-1.46402
1.46046
0.0382322
-0.0331067
-1.14884
1.14371
0.0282082
-0.0225463
-0.91172
0.906058
0.0175114
-0.0121635
-0.727563
0.722215
0.00765802
-0.00342631
-0.572661
0.568429
0.000374592
0.00159959
-0.4246
0.422626
-0.00251858
0.00253175
-0.277683
0.277669
-0.0022342
0.00157669
-0.149787
0.150444
-0.00101823
0.000543781
-0.0578033
0.0582778
-0.000202141
-0.00681095
0.00701309
-0.0757014
0.0750192
0.000682186
-0.00181668
0.0013483
-0.427058
0.427526
-0.000558233
-0.00135013
-0.60295
0.604858
0.00409163
-0.00719076
-0.737375
0.740474
0.0107982
-0.014613
-0.857205
0.86102
0.0186559
-0.0227825
-0.980429
0.984555
0.0275231
-0.0314963
-1.11606
1.12003
0.0362961
-0.0402612
-1.26217
1.26613
0.0440227
-0.0469374
-1.41638
1.41929
0.0490051
-0.0491919
-1.57364
1.57383
0.0478587
-0.0450128
-1.45705
1.45421
0.041601
-0.0369533
-1.1385
1.13385
0.0324597
-0.0275443
-0.900397
0.895482
0.0226773
-0.0179877
-0.71664
0.711951
0.013875
-0.00981549
-0.563734
0.559674
0.0069014
-0.00446031
-0.418491
0.41605
0.00302687
-0.00206
-0.275155
0.274188
0.00143063
-0.000840347
-0.149036
0.148446
0.000338428
-6.402e-07
-0.0574904
0.0571526
-7.5113e-05
-0.00677081
0.00684592
-0.0764833
0.0759613
0.000521936
-0.000771943
0.000355401
-0.430496
0.430912
0.00116957
-0.00296382
-0.608227
0.610021
0.00587921
-0.00886967
-0.743394
0.746385
0.012329
-0.0157563
-0.864522
0.86795
0.019932
-0.0237579
-0.988709
0.992534
0.0284518
-0.0328467
-1.12446
1.12886
0.0372704
-0.0415281
-1.27014
1.2744
0.0456565
-0.0486129
-1.4221
1.42505
0.0509962
-0.0519201
-1.57421
1.57514
0.0510141
-0.0488002
-1.45123
1.44902
0.0456375
-0.0415157
-1.12925
1.12513
0.0375152
-0.0328886
-0.890207
0.88558
0.0285115
-0.0240607
-0.706761
0.70231
0.0201527
-0.0161017
-0.555055
0.551003
0.0129469
-0.0101633
-0.412017
0.409233
0.00796879
-0.00608712
-0.270935
0.269053
0.00446173
-0.00280103
-0.146103
0.144443
0.0014996
-0.000503218
-0.0556339
0.0546375
6.76515e-05
-0.00640033
0.00633268
-0.0775464
0.077214
0.00033237
0.000342936
-0.00106451
-0.434146
0.434868
0.00248991
-0.00462962
-0.613191
0.615331
0.0075064
-0.0103711
-0.749221
0.752086
0.0139356
-0.0172314
-0.871377
0.874672
0.0212671
-0.0252193
-0.996851
1.0008
0.0298105
-0.0341528
-1.13312
1.13746
0.0387621
-0.0430059
-1.27857
1.28282
0.0472679
-0.0509156
-1.42828
1.43193
0.053693
-0.0548807
-1.57599
1.57717
0.054648
-0.0527631
-1.44669
1.4448
0.0501708
-0.0466055
-1.12094
1.11738
0.0427154
-0.0383683
-0.880682
0.876335
0.0342249
-0.0298012
-0.697458
0.693034
0.0260406
-0.0218887