/*--------------------------------*- C++ -*----------------------------------*\
| =========                 |                                                 |
| \\      /  F ield         | OpenFOAM: The Open Source CFD Toolbox           |
|  \\    /   O peration     | Version:  2112                                  |
|   \\  /    A nd           | Website:  www.openfoam.com                      |
|    \\/     M anipulation  |                                                 |
\*---------------------------------------------------------------------------*/
FoamFile
{
    version     2.0;
    format      ascii;
    arch        "LSB;label=32;scalar=64";
    class       volVectorField;
    location    "37.5";
    object      U;
}
// * * * * * * * * * * * * * * * * * * * * * * * * * * * * * * * * * * * * * //

dimensions      [0 1 -1 0 0 0 0];

internalField   nonuniform List<vector> 
8800
(
(0.980153 -0.0915212 0)
(1.00234 -0.0587238 0)
(0.999603 -0.032125 0)
(0.999994 -0.0165165 0)
(1.00006 -0.00883155 0)
(1.00005 -0.00508284 0)
(1.00002 -0.0029903 0)
(0.999995 -0.00169748 0)
(0.99998 -0.000804071 0)
(1.00006 -0.000111362 0)
(0.999981 0.000589656 0)
(0.999996 0.00133997 0)
(1.00001 0.00237359 0)
(1.00002 0.00398677 0)
(1.00003 0.00673652 0)
(0.999994 0.012041 0)
(0.999813 0.0230917 0)
(0.999044 0.0431576 0)
(1.00723 0.079028 0)
(0.775023 0.0478396 0)
(0.358976 -0.0147491 0)
(1.04649 -0.0724937 0)
(1.08848 -0.0660312 0)
(1.04946 -0.0509263 0)
(1.02554 -0.0377074 0)
(1.0127 -0.0258986 0)
(1.00653 -0.0167122 0)
(1.0036 -0.0102502 0)
(1.00216 -0.00563729 0)
(1.0015 -0.00205174 0)
(1.00137 0.00115132 0)
(1.00173 0.00445388 0)
(1.00271 0.00834487 0)
(1.00473 0.0136721 0)
(1.00896 0.0213678 0)
(1.01794 0.0318681 0)
(1.0358 0.0446468 0)
(1.06742 0.0580949 0)
(1.09471 0.069964 0)
(0.845659 0.0555036 0)
(0.217758 -0.00138166 0)
(1.07566 -0.0506684 0)
(1.09942 -0.0489553 0)
(1.06438 -0.0400406 0)
(1.03986 -0.0325793 0)
(1.02374 -0.0253704 0)
(1.01398 -0.0181818 0)
(1.00848 -0.0115898 0)
(1.00563 -0.00585134 0)
(1.00448 -0.000576144 0)
(1.00479 0.00451915 0)
(1.00665 0.00980106 0)
(1.01057 0.0157857 0)
(1.01788 0.0225658 0)
(1.0305 0.029688 0)
(1.05049 0.036785 0)
(1.08006 0.0445694 0)
(1.10569 0.0519049 0)
(0.943336 0.0409952 0)
(0.217242 0.00140322 0)
(0.176598 -0.000629209 0)
(1.01935 -0.0354812 0)
(1.1057 -0.0414374 0)
(1.07795 -0.0364276 0)
(1.05238 -0.0303852 0)
(1.03514 -0.0245183 0)
(1.02331 -0.01876 0)
(1.01551 -0.0127985 0)
(1.01092 -0.0067324 0)
(1.0089 -0.000517422 0)
(1.00944 0.00562762 0)
(1.01253 0.0115348 0)
(1.01848 0.0173168 0)
(1.02806 0.0229203 0)
(1.04228 0.0284997 0)
(1.0631 0.0342934 0)
(1.0939 0.0401858 0)
(1.0945 0.0417265 0)
(0.830361 0.0227529 0)
(0.175716 0.000646334 0)
(0.154669 -0.000463067 0)
(0.958081 -0.0257108 0)
(1.10436 -0.0351505 0)
(1.08803 -0.0327066 0)
(1.06116 -0.0281986 0)
(1.04311 -0.0232531 0)
(1.03074 -0.0180047 0)
(1.02216 -0.0125093 0)
(1.01663 -0.00663988 0)
(1.014 -0.000224227 0)
(1.01467 0.00621054 0)
(1.01847 0.0120708 0)
(1.02525 0.0173956 0)
(1.03539 0.022427 0)
(1.05016 0.0272852 0)
(1.07209 0.0317535 0)
(1.10108 0.0356513 0)
(1.06985 0.0338897 0)
(0.742849 0.014418 0)
(0.153352 0.000482385 0)
(0.139965 -0.000335117 0)
(0.900995 -0.0193467 0)
(1.09672 -0.0302649 0)
(1.09613 -0.0294039 0)
(1.06882 -0.0256367 0)
(1.04997 -0.021584 0)
(1.03703 -0.0169421 0)
(1.02807 -0.0117411 0)
(1.02215 -0.00607112 0)
(1.0192 0.000229923 0)
(1.01986 0.00656455 0)
(1.0239 0.0121962 0)
(1.03093 0.017193 0)
(1.04144 0.0217074 0)
(1.05685 0.0256951 0)
(1.07966 0.0292383 0)
(1.10345 0.0319708 0)
(1.03822 0.0280107 0)
(0.676254 0.0102568 0)
(0.138115 0.000357961 0)
(0.129207 -0.000253875 0)
(0.851041 -0.0149491 0)
(1.08429 -0.0261677 0)
(1.10174 -0.0265323 0)
(1.07558 -0.0232289 0)
(1.05622 -0.0196127 0)
(1.04286 -0.0154933 0)
(1.03353 -0.0107099 0)
(1.02734 -0.00529096 0)
(1.02418 0.000806148 0)
(1.02475 0.00691351 0)
(1.02882 0.0122531 0)
(1.03602 0.0168098 0)
(1.04684 0.0207019 0)
(1.06263 0.0240993 0)
(1.08588 0.0271845 0)
(1.10279 0.0290425 0)
(1.0038 0.023415 0)
(0.624526 0.0078356 0)
(0.126707 0.00028149 0)
(0.121002 -0.000195273 0)
(0.808466 -0.0117581 0)
(1.06888 -0.0225731 0)
(1.10519 -0.0239206 0)
(1.08175 -0.0210864 0)
(1.06191 -0.0177203 0)
(1.04827 -0.0138979 0)
(1.03869 -0.00944591 0)
(1.03225 -0.00431977 0)
(1.02887 0.00150443 0)
(1.02931 0.00730259 0)
(1.03337 0.0122702 0)
(1.04065 0.0163717 0)
(1.05158 0.0198146 0)
(1.06766 0.0228238 0)
(1.09134 0.0255978 0)
(1.09931 0.0265582 0)
(0.969104 0.0197673 0)
(0.583206 0.00624331 0)
(0.117715 0.000228767 0)
(0.114641 -0.000150644 0)
(0.772576 -0.00936017 0)
(1.05189 -0.0193857 0)
(1.10738 -0.021483 0)
(1.08746 -0.019063 0)
(1.06723 -0.0158887 0)
(1.05335 -0.0122531 0)
(1.04359 -0.00803244 0)
(1.03692 -0.00319206 0)
(1.03331 0.00234002 0)
(1.03358 0.00781257 0)
(1.03756 0.0123732 0)
(1.04481 0.0160658 0)
(1.05577 0.0191402 0)
(1.07209 0.0217986 0)
(1.0955 0.0242345 0)
(1.09311 0.0244188 0)
(0.935542 0.0168935 0)
(0.549327 0.00513236 0)
(0.110394 0.000191362 0)
(0.109677 -0.000115553 0)
(0.742472 -0.00749422 0)
(1.03445 -0.0165487 0)
(1.10862 -0.0191676 0)
(1.09287 -0.0170534 0)
(1.07232 -0.0139913 0)
(1.05816 -0.010498 0)
(1.04822 -0.00646261 0)
(1.04137 -0.00184816 0)
(1.03753 0.00336322 0)
(1.03756 0.00843663 0)
(1.04135 0.0125916 0)
(1.0485 0.0158923 0)
(1.05951 0.0186058 0)
(1.0761 0.0209675 0)
(1.0985 0.0230865 0)
(1.08465 0.0225583 0)
(0.903792 0.0146396 0)
(0.520892 0.00433333 0)
(0.104267 0.000164622 0)
(0.10582 -8.6677e-05 0)
(0.717362 -0.00597859 0)
(1.01737 -0.0139755 0)
(1.10896 -0.0169365 0)
(1.09811 -0.0151712 0)
(1.07727 -0.0121834 0)
(1.0628 -0.0087523 0)
(1.05265 -0.0048044 0)
(1.04558 -0.0003554 0)
(1.04146 0.00457708 0)
(1.04121 0.00928368 0)
(1.04478 0.0130518 0)
(1.05179 0.0160012 0)
(1.06281 0.0184038 0)
(1.07963 0.0204934 0)
(1.10021 0.0222036 0)
(1.07432 0.0209852 0)
(0.87404 0.0128889 0)
(0.496488 0.00375624 0)
(0.0989922 0.00014705 0)
(0.102886 -6.15632e-05 0)
(0.696649 -0.00469471 0)
(1.00132 -0.0115936 0)
(1.10853 -0.0146752 0)
(1.10306 -0.0131486 0)
(1.08213 -0.0101815 0)
(1.06737 -0.00678807 0)
(1.05696 -0.00293662 0)
(1.04961 0.00135674 0)
(1.04517 0.00604909 0)
(1.04455 0.0104194 0)
(1.04782 0.0137986 0)
(1.05467 0.01636 0)
(1.06568 0.018391 0)
(1.08269 0.0201639 0)
(1.10091 0.0215016 0)
(1.0625 0.0196392 0)
(0.846281 0.0115314 0)
(0.475113 0.0033358 0)
(0.0943295 0.000135124 0)
(0.100758 -3.84133e-05 0)
(0.679898 -0.00354967 0)
(0.986815 -0.00933644 0)
(1.10764 -0.0123465 0)
(1.10777 -0.0109629 0)
(1.08696 -0.00798113 0)
(1.07183 -0.00459446 0)
(1.06111 -0.000794633 0)
(1.05342 0.00338195 0)
(1.04854 0.00783608 0)
(1.04749 0.0118352 0)
(1.05043 0.0147983 0)
(1.05707 0.0169323 0)
(1.06809 0.0185678 0)
(1.08521 0.020044 0)
(1.10067 0.0210139 0)
(1.04951 0.0185439 0)
(0.820333 0.0104925 0)
(0.456006 0.00303666 0)
(0.0900892 0.00012867 0)
(0.0993778 -1.47557e-05 0)
(0.666875 -0.00247182 0)
(0.97423 -0.00710918 0)
(1.1065 -0.00987393 0)
(1.11231 -0.00862919 0)
(1.09183 -0.00567175 0)
(1.07633 -0.00221471 0)
(1.06528 0.00163343 0)
(1.05718 0.00575246 0)
(1.05179 0.0100062 0)
(1.0502 0.013663 0)
(1.05269 0.0162107 0)
(1.05906 0.0179687 0)
(1.07004 0.0192795 0)
(1.08723 0.0203612 0)
(1.0994 0.0208307 0)
(1.0355 0.017706 0)
(0.795942 0.00972469 0)
(0.438582 0.00283694 0)
(0.0861226 0.000127348 0)
(0.0987349 1.11648e-05 0)
(0.657492 -0.00140444 0)
(0.96396 -0.00483789 0)
(1.10543 -0.00714191 0)
(1.11668 -0.00591996 0)
(1.09678 -0.00292569 0)
(1.08091 0.000630872 0)
(1.06941 0.00451832 0)
(1.06079 0.00859528 0)
(1.05477 0.0126691 0)
(1.05251 0.0159553 0)
(1.0545 0.0180194 0)
(1.06056 0.0192453 0)
(1.07145 0.0200785 0)
(1.08856 0.0208231 0)
(1.09691 0.0207745 0)
(1.02063 0.0170317 0)
(0.772894 0.00915928 0)
(0.422393 0.00270812 0)
(0.0823129 0.00012806 0)
(0.0988543 2.95677e-05 0)
(0.651723 -0.000299917 0)
(0.956342 -0.0024896 0)
(1.1049 -0.0041721 0)
(1.12119 -0.00280365 0)
(1.10187 0.000300761 0)
(1.08555 0.00395259 0)
(1.07356 0.0079007 0)
(1.06435 0.0119947 0)
(1.05756 0.0159194 0)
(1.05447 0.0188315 0)
(1.05576 0.0204098 0)
(1.0614 0.0211002 0)
(1.0722 0.0213485 0)
(1.08921 0.0216206 0)
(1.09318 0.0210696 0)
(1.00507 0.0166908 0)
(0.750875 0.00883403 0)
(0.407013 0.00266455 0)
(0.0785519 0.000133798 0)
(0.0998058 7.16614e-05 0)
(0.649763 0.000879426 0)
(0.951669 3.81473e-05 0)
(1.10516 -0.000894609 0)
(1.12593 0.000611158 0)
(1.10715 0.00380759 0)
(1.09037 0.00771874 0)
(1.07781 0.0119148 0)
(1.06782 0.0161149 0)
(1.06001 0.0199065 0)
(1.05596 0.0224058 0)
(1.05649 0.023422 0)
(1.06159 0.0235511 0)
(1.07219 0.0232922 0)
(1.08873 0.022971 0)
(1.08811 0.0217161 0)
(0.988611 0.0165928 0)
(0.729542 0.00871124 0)
(0.392043 0.00269066 0)
(0.074722 0.000142662 0)
(0.101739 9.97769e-05 0)
(0.651662 0.00209186 0)
(0.950332 0.00277623 0)
(1.10658 0.00286606 0)
(1.13096 0.0046387 0)
(1.11284 0.00807719 0)
(1.09563 0.0122977 0)
(1.08238 0.0167603 0)
(1.07147 0.0210989 0)
(1.06252 0.0247957 0)
(1.0572 0.0268909 0)
(1.05669 0.0272964 0)
(1.06113 0.0267293 0)
(1.07138 0.0258278 0)
(1.08711 0.0247992 0)
(1.08141 0.0226974 0)
(0.971301 0.0168274 0)
(0.708539 0.00882564 0)
(0.377105 0.00278964 0)
(0.0707375 0.000153306 0)
(0.104776 0.000150165 0)
(0.658194 0.00356532 0)
(0.95273 0.00574521 0)
(1.10978 0.00707918 0)
(1.13663 0.00939746 0)
(1.11894 0.0132689 0)
(1.10114 0.0178517 0)
(1.087 0.0226283 0)
(1.0749 0.0271723 0)
(1.06446 0.0307946 0)
(1.05765 0.0324176 0)
(1.056 0.0321197 0)
(1.05963 0.0307452 0)
(1.06948 0.0290833 0)
(1.08414 0.0273358 0)
(1.07301 0.0243156 0)
(0.952888 0.0176041 0)
(0.687275 0.00925938 0)
(0.361711 0.00298795 0)
(0.0665083 0.000166048 0)
(0.109193 0.000215021 0)
(0.669468 0.00523754 0)
(0.959159 0.00911359 0)
(1.11517 0.0117818 0)
(1.14333 0.0147382 0)
(1.12579 0.0191931 0)
(1.10728 0.0243431 0)
(1.09215 0.0296518 0)
(1.07871 0.0345653 0)
(1.0665 0.038153 0)
(1.05782 0.0392506 0)
(1.05467 0.0381765 0)
(1.05718 0.0359584 0)
(1.06646 0.033468 0)
(1.07971 0.0309119 0)
(1.06273 0.0267934 0)
(0.932891 0.0190556 0)
(0.665017 0.0101191 0)
(0.345184 0.00331157 0)
(0.0619122 0.00018061 0)
(0.115255 0.00029858 0)
(0.685982 0.00721056 0)
(0.970275 0.0130545 0)
(1.12308 0.0172269 0)
(1.15128 0.0209632 0)
(1.13364 0.0262174 0)
(1.11426 0.0322226 0)
(1.09778 0.0383001 0)
(1.0825 0.0436519 0)
(1.06803 0.0471888 0)
(1.05717 0.047652 0)
(1.05232 0.0456494 0)
(1.05361 0.0425145 0)
(1.06216 0.0391771 0)
(1.07364 0.0357258 0)
(1.05018 0.0303087 0)
(0.910908 0.0214119 0)
(0.640739 0.0115144 0)
(0.326654 0.00378692 0)
(0.0567828 0.000200726 0)
(0.123381 0.00041349 0)
(0.708397 0.00973159 0)
(0.986672 0.017824 0)
(1.13425 0.0237894 0)
(1.16104 0.0287393 0)
(1.14294 0.0351921 0)
(1.1224 0.042276 0)
(1.1041 0.049187 0)
(1.08647 0.0549207 0)
(1.06928 0.0582224 0)
(1.05581 0.0578252 0)
(1.04897 0.054688 0)
(1.04889 0.0504629 0)
(1.05648 0.046202 0)
(1.06585 0.0417673 0)
(1.0352 0.0350312 0)
(0.886257 0.0247469 0)
(0.613186 0.013399 0)
(0.305266 0.00438552 0)
(0.0509503 0.000224614 0)
(0.134265 0.000581547 0)
(0.737755 0.0131978 0)
(1.00924 0.0239326 0)
(1.14972 0.0319695 0)
(1.17356 0.038533 0)
(1.15416 0.046669 0)
(1.13181 0.0549815 0)
(1.11102 0.0627351 0)
(1.09043 0.0687845 0)
(1.06995 0.071666 0)
(1.05346 0.0701617 0)
(1.04438 0.0656486 0)
(1.04281 0.060121 0)
(1.0495 0.0547419 0)
(1.05613 0.0494568 0)
(1.01743 0.0411985 0)
(0.857866 0.0290561 0)
(0.581119 0.015697 0)
(0.280329 0.00506993 0)
(0.0442886 0.000251871 0)
(0.149091 0.00084724 0)
(0.775812 0.0182609 0)
(1.03941 0.0322091 0)
(1.17024 0.042727 0)
(1.18963 0.0514355 0)
(1.16754 0.0613171 0)
(1.14248 0.0710111 0)
(1.11846 0.0796017 0)
(1.0942 0.0857996 0)
(1.06981 0.0879495 0)
(1.0499 0.0850278 0)
(1.03831 0.0789196 0)
(1.03513 0.0718595 0)
(1.04089 0.0651815 0)
(1.04441 0.0586293 0)
(0.995958 0.0486523 0)
(0.824543 0.0341274 0)
(0.543515 0.0182362 0)
(0.251504 0.0057605 0)
(0.0367888 0.000274787 0)
(0.170011 0.00131298 0)
(0.825809 0.0261127 0)
(1.07985 0.0443836 0)
(1.19649 0.057974 0)
(1.20942 0.0691896 0)
(1.18324 0.0808497 0)
(1.15442 0.0918436 0)
(1.12622 0.100931 0)
(1.0975 0.106706 0)
(1.06863 0.107488 0)
(1.04495 0.102607 0)
(1.03062 0.0945998 0)
(1.02565 0.0859102 0)
(1.03024 0.0776989 0)
(1.02975 0.0695561 0)
(0.969836 0.0572919 0)
(0.785215 0.0398893 0)
(0.499741 0.0209097 0)
(0.218909 0.0064027 0)
(0.0286088 0.000287204 0)
(0.200477 0.00236816 0)
(0.893738 0.0396628 0)
(1.13341 0.0643997 0)
(1.22871 0.0813482 0)
(1.23271 0.095316 0)
(1.20077 0.108251 0)
(1.16694 0.119644 0)
(1.1335 0.128134 0)
(1.09956 0.132272 0)
(1.06575 0.13051 0)
(1.03814 0.122672 0)
(1.02114 0.11212 0)
(1.0143 0.101544 0)
(1.01711 0.0918697 0)
(1.01157 0.0819125 0)
(0.938268 0.0671758 0)
(0.738638 0.0461232 0)
(0.450065 0.0236495 0)
(0.183598 0.00699633 0)
(0.0201865 0.000284096 0)
(0.242187 0.00863744 6.96223e-20)
(0.983682 0.0669585 6.03742e-20)
(1.1981 0.0983478 -2.08426e-20)
(1.26493 0.116606 0)
(1.25716 0.133607 -5.03103e-34)
(1.21819 0.14611 7.28e-21)
(1.17849 0.156164 -1.26789e-20)
(1.13905 0.162521 0)
(1.09935 0.163809 2.50689e-34)
(1.06014 0.158559 -1.47881e-20)
(1.02817 0.147145 0)
(1.00827 0.133586 -1.71451e-20)
(0.999513 0.120793 -5.02932e-20)
(1.00007 0.109895 -2.36686e-20)
(0.988899 0.0992125 -7.08306e-21)
(0.897233 0.0813164 -4.19505e-21)
(0.679481 0.0546825 0)
(0.391789 0.0275783 2.93772e-21)
(0.146336 0.00852079 3.47064e-21)
(0.0123166 0.000530005 6.24875e-20)
(0.270796 0.0241476 5.67723e-20)
(1.05749 0.109519 5.19668e-22)
(1.25085 0.146908 5.82991e-21)
(1.29857 0.165692 0)
(1.27912 0.182221 -2.64325e-20)
(1.23335 0.192993 -2.94775e-20)
(1.18749 0.20088 -1.30209e-20)
(1.14179 0.20478 -4.49741e-20)
(1.09589 0.203322 0)
(1.05052 0.19503 6.32437e-20)
(1.01306 0.180822 6.1973e-20)
(0.989094 0.1651 1.82739e-20)
(0.977849 0.150585 6.58383e-20)
(0.97529 0.137912 9.17529e-20)
(0.952844 0.123698 0)
(0.840141 0.100118 1.28882e-19)
(0.610291 0.0662528 1.85038e-19)
(0.333332 0.0336058 2.05604e-19)
(0.113764 0.0107738 -2.35228e-19)
(0.00595581 0.000570906 -4.41597e-21)
(0.270961 0.0396809 0)
(1.10329 0.16485 1.13416e-20)
(1.2867 0.206686 0)
(1.32508 0.225397 -3.82599e-20)
(1.29677 0.238461 0)
(1.24494 0.245645 -5.95509e-20)
(1.19316 0.249915 2.69845e-20)
(1.14161 0.250401 -9.20816e-20)
(1.08998 0.245746 -1.56644e-21)
(1.03897 0.234574 3.30536e-20)
(0.996511 0.218232 1.35958e-19)
(0.968532 0.201138 -3.02009e-22)
(0.953785 0.185345 -4.78049e-20)
(0.945768 0.170017 -8.65116e-20)
(0.913356 0.150849 1.0233e-19)
(0.795623 0.12144 -1.81059e-19)
(0.573547 0.0814956 -2.38919e-20)
(0.313331 0.0428754 0)
(0.109053 0.0145661 6.89397e-24)
(0.00566394 0.00081142 0)
(0.264001 0.0531448 1.82307e-19)
(1.12692 0.223283 -8.38578e-20)
(1.30895 0.271168 -5.78196e-20)
(1.34273 0.289712 1.89909e-20)
(1.30838 0.2987 -3.14605e-20)
(1.25183 0.301471 1.2577e-19)
(1.19519 0.301506 5.68095e-20)
(1.13876 0.298173 0)
(1.08223 0.290094 -1.69294e-19)
(1.02631 0.275886 0)
(0.97933 0.257098 -7.18031e-20)
(0.947301 0.237955 -8.72698e-20)
(0.92789 0.219911 -5.2068e-20)
(0.913119 0.201361 -6.28139e-20)
(0.874933 0.17865 0)
(0.763114 0.145757 0)
(0.557215 0.101564 -1.56355e-19)
(0.315323 0.0566485 3.08657e-20)
(0.11739 0.0210266 -1.81253e-20)
(0.00842496 0.0016062 -2.11907e-20)
(0.256132 0.0651089 -9.76524e-20)
(1.13615 0.281516 0)
(1.32097 0.336388 1.30861e-19)
(1.35232 0.355238 5.64832e-20)
(1.31391 0.36014 7.06655e-20)
(1.25388 0.358382 0)
(1.19358 0.354208 5.70813e-20)
(1.13329 0.34706 1.03047e-19)
(1.07269 0.335441 8.76954e-20)
(1.01245 0.317801 1.55302e-19)
(0.961291 0.29572 0)
(0.925158 0.273561 -1.88308e-19)
(0.900914 0.252643 -1.12542e-19)
(0.880321 0.231554 -6.62888e-20)
(0.839957 0.20713 4.04387e-19)
(0.737647 0.17302 4.81583e-20)
(0.549478 0.124782 2.26779e-19)
(0.323924 0.0734174 -1.07142e-18)
(0.130334 0.0297954 6.36239e-19)
(0.0126138 0.00304949 -7.6682e-19)
(0.248803 0.0759071 -7.76892e-20)
(1.1363 0.337632 1.86544e-20)
(1.32511 0.4006 -1.72223e-20)
(1.35522 0.420191 -6.71745e-20)
(1.31414 0.421221 -6.55382e-20)
(1.25166 0.415146 1.75562e-21)
(1.18866 0.407043 -6.16391e-20)
(1.1253 0.396236 1.07597e-19)
(1.06126 0.38102 -1.88597e-19)
(0.99716 0.359542 0)
(0.942054 0.333564 -8.59028e-20)
(0.902091 0.307979 -1.61237e-21)
(0.873578 0.284312 -1.22732e-19)
(0.848898 0.261522 0)
(0.808629 0.236236 -8.74483e-20)
(0.715901 0.201108 -2.07923e-19)
(0.543841 0.149383 5.56557e-19)
(0.332937 0.0916986 -5.47204e-19)
(0.142608 0.0397686 7.78396e-19)
(0.0166177 0.0048501 -8.08828e-19)
(0.242796 0.0859311 -4.07199e-22)
(1.13092 0.391071 -1.56195e-20)
(1.32355 0.462883 -6.3341e-20)
(1.35274 0.483445 3.14688e-20)
(1.31 0.481055 -3.38349e-20)
(1.24597 0.471086 0)
(1.18096 0.459391 -5.98433e-20)
(1.1151 0.4451 -1.133e-19)
(1.04804 0.426263 -9.87055e-20)
(0.980376 0.400715 0)
(0.921623 0.370621 -8.965e-20)
(0.878284 0.341671 -1.09357e-19)
(0.846507 0.315658 1.32791e-19)
(0.819251 0.291646 -8.00782e-20)
(0.779725 0.265941 -3.80236e-19)
(0.694728 0.229822 2.26988e-19)
(0.536949 0.174637 6.79667e-20)
(0.33842 0.110417 0)
(0.151596 0.0500207 -7.50396e-19)
(0.0198155 0.00676014 -2.74957e-20)
(0.238194 0.0955139 -7.93325e-21)
(1.1224 0.441724 1.39719e-20)
(1.31792 0.523043 3.25799e-20)
(1.34615 0.544357 1.0578e-19)
(1.30239 0.539106 -1.33283e-19)
(1.23749 0.525745 1.33476e-19)
(1.17101 0.510803 1.28523e-19)
(1.10303 0.493207 -1.81179e-19)
(1.03325 0.470781 5.89801e-20)
(0.962283 0.441113 -3.81676e-19)
(0.900207 0.406928 -1.00347e-19)
(0.854032 0.374774 0)
(0.819885 0.346621 1.43564e-19)
(0.791158 0.321468 1.71004e-19)
(0.752658 0.295138 2.04089e-19)
(0.673272 0.257439 -2.45503e-19)
(0.527118 0.199058 -7.26514e-20)
(0.338649 0.128146 8.5514e-20)
(0.15572 0.0593342 0)
(0.0216846 0.00843123 -5.94528e-20)
(0.234871 0.104828 6.23395e-20)
(1.11242 0.489758 -4.83791e-20)
(1.30951 0.580781 -3.31282e-20)
(1.33651 0.602618 7.00826e-20)
(1.29213 0.595017 -6.51627e-20)
(1.22686 0.578752 -4.03963e-21)
(1.15928 0.560907 -1.39395e-19)
(1.08946 0.540205 -6.5273e-20)
(1.0172 0.514288 -1.70924e-19)
(0.943152 0.480597 2.53547e-22)
(0.878038 0.442442 -3.1532e-19)
(0.829484 0.407173 2.61022e-19)
(0.793601 0.376896 -1.56752e-19)
(0.763988 0.350368 1.87251e-19)
(0.72639 0.322845 0)
(0.65146 0.283164 -1.32466e-19)
(0.514304 0.221354 -6.39199e-22)
(0.333888 0.143634 -3.70765e-19)
(0.154981 0.0667942 -5.45255e-20)
(0.0222158 0.00963786 0)
(0.232661 0.114001 0)
(1.10197 0.535388 -4.82802e-20)
(1.29916 0.635535 -5.94523e-20)
(1.32471 0.658037 -7.01574e-20)
(1.27994 0.648547 -7.60641e-20)
(1.21461 0.629843 0)
(1.14618 0.609404 -6.66972e-20)
(1.07476 0.585812 -1.14186e-21)
(1.00019 0.55659 3.65849e-19)
(0.923271 0.519061 -5.27967e-20)
(0.855347 0.477077 -2.27053e-19)
(0.804716 0.438714 1.36367e-19)
(0.767514 0.406174 -2.06066e-21)
(0.737331 0.378055 1.99075e-19)
(0.700409 0.348964 1.21944e-19)
(0.628766 0.306806 -2.85543e-19)
(0.49847 0.240939 3.38697e-19)
(0.324144 0.15617 1.00117e-19)
(0.150273 0.0719102 4.13066e-19)
(0.0215379 0.0102522 -1.1053e-18)
(0.231478 0.12316 6.48192e-21)
(1.09165 0.578787 -1.78605e-20)
(1.2878 0.687379 1.96256e-20)
(1.31151 0.710619 6.68202e-20)
(1.26643 0.699546 0)
(1.2012 0.678802 -6.8585e-20)
(1.13211 0.656067 2.20306e-19)
(1.05925 0.629828 1.44374e-19)
(0.982559 0.597539 0)
(0.902907 0.556424 -7.541e-19)
(0.832311 0.510754 6.11931e-19)
(0.779782 0.469264 0)
(0.741472 0.434272 1.82009e-19)
(0.710908 0.404248 -2.0301e-21)
(0.674495 0.373185 -3.88955e-19)
(0.605142 0.328 1.52409e-19)
(0.479522 0.257173 0)
(0.310168 0.165299 5.38985e-19)
(0.141897 0.0746104 0)
(0.0198219 0.0102575 -5.21241e-19)
(0.231103 0.132369 -3.60538e-21)
(1.08188 0.620069 -1.12658e-20)
(1.27581 0.736414 2.2712e-20)
(1.29743 0.760351 0)
(1.25212 0.747954 -7.43988e-20)
(1.18705 0.725505 0)
(1.11741 0.700739 -2.23158e-19)
(1.04325 0.672115 -6.96727e-20)
(0.964582 0.637048 6.55963e-20)
(0.882315 0.592638 -3.72639e-19)
(0.809087 0.543445 6.35509e-20)
(0.754688 0.498764 0)
(0.715364 0.4611 -3.88434e-19)
(0.684465 0.428832 2.05955e-21)
(0.648349 0.395352 0)
(0.580387 0.346537 2.10189e-21)
(0.457783 0.26991 4.90792e-19)
(0.292474 0.170738 -4.64937e-19)
(0.130751 0.0749378 1.3702e-19)
(0.0174524 0.00977539 0)
(0.231165 0.141481 0)
(1.07278 0.659352 -5.9284e-21)
(1.26348 0.78276 -1.50346e-20)
(1.28298 0.807264 -2.38406e-21)
(1.23738 0.793765 -3.26999e-20)
(1.1725 0.76988 -1.54546e-19)
(1.10239 0.743335 8.20849e-20)
(1.02706 0.712595 -7.98631e-20)
(0.946533 0.675056 2.89508e-19)
(0.861714 0.627687 -5.94946e-19)
(0.785805 0.575157 -3.48462e-21)
(0.72946 0.527229 -1.71883e-19)
(0.689074 0.486652 6.28419e-19)
(0.657825 0.451821 -2.41028e-21)
(0.621773 0.415475 -3.00365e-19)
(0.554367 0.362331 -5.36429e-19)
(0.43357 0.279152 0)
(0.27175 0.17264 0)
(0.11745 0.0729384 1.47885e-19)
(0.0146862 0.00881731 -8.65779e-20)
(0.231817 0.15061 3.90105e-21)
(1.06433 0.69651 5.30706e-21)
(1.25116 0.826519 1.57482e-20)
(1.26847 0.85144 0)
(1.22253 0.837007 -1.55411e-21)
(1.15783 0.811904 -1.51518e-19)
(1.08731 0.783816 2.04937e-19)
(1.01092 0.75123 3.21436e-19)
(0.928642 0.711546 3.78271e-19)
(0.841309 0.661573 -4.8714e-19)
(0.762618 0.605941 -5.2359e-19)
(0.70413 0.554743 4.59325e-19)
(0.662543 0.511014 0)
(0.630848 0.473245 -1.36428e-19)
(0.594644 0.433529 -3.24464e-19)
(0.527108 0.375299 -3.84656e-19)
(0.407034 0.284737 -4.56739e-19)
(0.248638 0.171038 1.35071e-19)
(0.102545 0.0686582 -7.94798e-20)
(0.0115877 0.0074276 2.87727e-22)
(0.232537 0.159645 0)
(1.0566 0.732036 0)
(1.239 0.867817 2.54864e-21)
(1.25411 0.892998 0)
(1.2078 0.877751 9.70597e-20)
(1.14325 0.851605 1.1135e-19)
(1.07238 0.822182 0)
(0.995024 0.788013 3.94507e-20)
(0.91111 0.746511 6.33957e-19)
(0.821297 0.694314 -1.1181e-18)
(0.73968 0.635875 0)
(0.678774 0.58144 -2.94901e-19)
(0.635715 0.53431 -2.92949e-21)
(0.603401 0.493164 -2.37771e-21)
(0.566855 0.449468 3.46409e-19)
(0.498631 0.385312 -3.80606e-22)
(0.378277 0.286573 -9.82094e-19)
(0.223457 0.165876 2.90361e-19)
(0.087056 0.0625974 8.58012e-20)
(0.00849017 0.00579002 0)
(0.233273 0.168515 -3.83845e-20)
(1.04928 0.765918 -9.79881e-21)
(1.22705 0.906698 1.10256e-20)
(1.24004 0.932049 -8.55583e-20)
(1.19337 0.916063 1.56775e-19)
(1.12895 0.889029 0)
(1.05777 0.858464 1.29111e-19)
(0.979552 0.822962 -8.66555e-20)
(0.894103 0.779964 3.85453e-21)
(0.801855 0.725937 8.1695e-20)
(0.717153 0.665038 6.77146e-19)
(0.653479 0.607483 -1.03638e-19)
(0.608544 0.556733 -3.85865e-19)
(0.575316 0.511668 -1.58339e-19)
(0.538233 0.463157 1.88091e-19)
(0.469003 0.392045 -2.06547e-22)
(0.348151 0.284475 2.64521e-19)
(0.197463 0.157564 -6.24083e-19)
(0.0716507 0.0551948 7.37832e-19)
(0.00554427 0.00403109 1.07572e-19)
(0.233846 0.177094 1.78467e-20)
(1.04236 0.798239 -7.79563e-21)
(1.21541 0.943289 6.121e-21)
(1.22637 0.96872 -3.36542e-20)
(1.17935 0.952047 -2.67389e-20)
(1.11504 0.924241 -2.02409e-19)
(1.04362 0.892705 4.05998e-20)
(0.964631 0.856096 -3.63516e-19)
(0.877761 0.811904 -7.02832e-19)
(0.783128 0.756443 -6.67697e-19)
(0.695197 0.6935 0)
(0.62835 0.633041 -4.51989e-19)
(0.581028 0.578539 5.54298e-19)
(0.546372 0.528912 0)
(0.508476 0.474399 -4.02329e-19)
(0.438211 0.394991 2.40412e-19)
(0.31725 0.278109 -2.83958e-19)
(0.171846 0.14642 -3.35718e-19)
(0.0572389 0.0470086 -5.94009e-19)
(0.00293082 0.0023022 -4.63086e-19)
(0.234705 0.185514 -2.34286e-20)
(1.03568 0.82896 8.41057e-21)
(1.2041 0.977666 1.25188e-20)
(1.21316 1.0031 -3.59746e-20)
(1.16582 0.985793 6.07072e-20)
(1.10163 0.957324 -1.19261e-19)
(1.03002 0.924958 1.33021e-19)
(0.950357 0.887459 -3.77349e-19)
(0.862177 0.842354 -4.17008e-19)
(0.765242 0.785845 7.00149e-19)
(0.67396 0.721316 1.48494e-18)
(0.603544 0.658277 0)
(0.553201 0.600019 0)
(0.516301 0.545182 -1.81992e-19)
(0.477024 0.483033 0)
(0.405969 0.393283 5.17126e-19)
(0.286441 0.266582 6.10876e-19)
(0.148396 0.132482 0)
(0.045112 0.038641 0)
(0.000822542 0.000798864 4.97468e-19)
(0.235177 0.193465 3.02492e-20)
(1.02924 0.858065 2.33706e-20)
(1.19317 1.00995 1.08239e-20)
(1.20044 1.03531 1.89902e-20)
(1.15284 1.01741 5.74012e-20)
(1.08876 0.988355 1.36408e-19)
(1.01703 0.955288 -1.84933e-19)
(0.936799 0.917086 3.26871e-23)
(0.847434 0.871324 -4.98664e-21)
(0.748295 0.814137 -5.46962e-21)
(0.653609 0.748516 7.64294e-19)
(0.579249 0.683324 0)
(0.525182 0.621481 5.58066e-19)
(0.484871 0.560917 3.87646e-19)
(0.443005 0.489191 9.36112e-19)
(0.371307 0.385838 2.77909e-19)
(0.256374 0.247718 -3.2921e-19)
(0.130588 0.113865 -1.93379e-19)
(0.0398731 0.0295188 0)
(0.000647352 9.93984e-05 5.34302e-19)
(0.235916 0.201398 -7.55856e-20)
(1.02301 0.885665 0)
(1.18258 1.04018 2.10673e-20)
(1.18823 1.06544 1.00828e-20)
(1.14044 1.04698 -4.97648e-20)
(1.07649 1.01742 -1.69633e-19)
(1.00469 0.983757 3.72746e-19)
(0.923996 0.945016 -2.98896e-20)
(0.833575 0.898825 0)
(0.732367 0.841292 -7.75516e-19)
(0.634297 0.775101 -1.66226e-18)
(0.555675 0.708284 6.66877e-20)
(0.497212 0.643211 7.66418e-19)
(0.452015 0.576706 0)
(0.405368 0.493605 6.29969e-19)
(0.331929 0.372195 0)
(0.224893 0.217555 0)
(0.121509 0.0794173 -2.09319e-19)
(0.060781 0.00850937 0)
(0.0267714 0.0108601 1.4317e-19)
(0.236251 0.208707 -9.06924e-20)
(1.01693 0.912061 0)
(1.17232 1.06857 4.19972e-20)
(1.17646 1.09372 0)
(1.12857 1.07477 2.1085e-20)
(1.06474 1.04482 0)
(0.992962 1.01068 2.06646e-20)
(0.911862 0.971595 5.2404e-20)
(0.820492 0.925228 5.22269e-20)
(0.717313 0.867706 -8.52754e-19)
(0.615882 0.801506 5.03455e-20)
(0.532667 0.733745 5.33176e-19)
(0.469038 0.665881 7.46323e-19)
(0.417109 0.59347 1.00022e-19)
(0.362354 0.497988 4.92153e-19)
(0.283393 0.3541 0)
(0.180648 0.17505 6.93992e-19)
(0.0925621 0.0205232 -4.06689e-19)
(0.044119 0.04434 4.71831e-19)
(-0.0688753 0.428427 -5.57087e-19)
(0.236546 0.215793 7.87038e-20)
(1.01078 0.937053 1.11472e-19)
(1.16228 1.09543 0)
(1.16499 1.12057 5.10493e-21)
(1.11704 1.10136 -4.49125e-20)
(1.05326 1.07122 2.64409e-19)
(0.98153 1.03687 1.36977e-19)
(0.900003 0.997769 0)
(0.807672 0.951627 3.53292e-19)
(0.702484 0.894676 -4.53041e-20)
(0.597477 0.82919 0)
(0.509098 0.761458 0)
(0.4392 0.691261 6.66265e-19)
(0.378494 0.612722 -3.07672e-19)
(0.311057 0.505149 -4.96344e-19)
(0.220922 0.336859 0)
(0.104664 0.16335 3.49025e-19)
(0.00734084 0.435323 -4.04799e-19)
(0.0362165 1.87282 -2.24036e-19)
(0.0662487 2.80214 -2.84853e-19)
(0.236643 0.222016 -6.34867e-20)
(1.00474 0.960815 -1.51157e-19)
(1.15248 1.12073 2.96998e-20)
(1.15381 1.14586 9.21791e-21)
(1.10588 1.12651 0)
(1.04211 1.09635 1.72309e-19)
(0.970587 1.062 1.98195e-19)
(0.888605 1.02311 -2.60855e-20)
(0.795377 0.977504 5.23519e-20)
(0.688253 0.92159 8.16262e-19)
(0.579679 0.857479 8.41192e-19)
(0.48594 0.790999 5.95495e-19)
(0.408742 0.719097 6.67647e-19)
(0.338111 0.633168 -7.18053e-19)
(0.257485 0.517953 -7.4613e-19)
(0.14614 0.364873 0)
(0.0516902 0.825705 0)
(0.107892 2.53982 1.94158e-19)
(0.108995 3.19386 0)
(0.1119 3.38511 4.70239e-19)
(0.239284 0.227667 0)
(0.999381 0.983519 0)
(1.14268 1.14435 0)
(1.14265 1.16936 5.54047e-21)
(1.09478 1.15 -3.50054e-20)
(1.03106 1.12006 1.11841e-19)
(0.960029 1.08598 1.31629e-19)
(0.877623 1.04751 -2.58837e-20)
(0.783575 1.00273 4.49103e-19)
(0.674654 0.948312 -9.84468e-21)
(0.562642 0.886265 1.66489e-18)
(0.463572 0.822205 -6.81026e-20)
(0.37809 0.750251 8.1028e-20)
(0.29836 0.652109 1.03185e-19)
(0.195867 0.538522 -1.96812e-21)
(0.112132 0.958259 1.80395e-21)
(0.149246 2.69705 -1.00561e-18)
(0.159797 3.28758 -3.81964e-19)
(0.147057 3.42586 2.01287e-19)
(0.132596 3.44882 -2.25584e-19)
(0.156964 0.184061 4.10228e-20)
(0.988762 1.00794 0)
(1.13264 1.16652 -7.39242e-20)
(1.13209 1.19152 -4.19944e-20)
(1.08452 1.1726 -3.711e-20)
(1.02102 1.14302 -1.11363e-19)
(0.949758 1.10892 -1.41186e-19)
(0.867162 1.0711 3.0826e-19)
(0.77247 1.02741 -3.72348e-19)
(0.662025 0.974929 0)
(0.546817 0.915675 8.21831e-19)
(0.442591 0.854926 -4.86113e-19)
(0.347763 0.787674 0)
(0.25831 0.673639 9.60142e-20)
(0.163698 0.805337 2.29238e-19)
(0.164496 2.45776 -2.73029e-19)
(0.227204 3.32167 3.08503e-19)
(0.204834 3.44153 1.68754e-19)
(0.16986 3.46349 1.92167e-19)
(0.146721 3.47393 3.10936e-19)
(0.282656 0.266541 -7.17148e-20)
(0.974028 1.01805 0)
(1.11475 1.19161 8.93679e-20)
(1.11732 1.22387 6.51645e-20)
(1.0681 1.20583 1.30001e-20)
(1.00406 1.17683 8.57899e-20)
(0.93193 1.14421 1.63715e-19)
(0.848697 1.10751 2.37965e-20)
(0.752688 1.06581 3.6477e-19)
(0.639593 1.01689 7.20248e-19)
(0.519534 0.96349 4.7156e-20)
(0.407126 0.909735 4.33996e-19)
(0.294642 0.848698 7.61714e-20)
(0.222521 0.972128 -9.47502e-20)
(0.238634 2.30586 -2.17787e-19)
(0.30266 3.326 2.14803e-19)
(0.286544 3.47405 -2.41051e-19)
(0.249288 3.49594 -1.4029e-19)
(0.210786 3.52343 -1.24592e-19)
(0.157992 3.51675 -1.45268e-20)
(0.270558 0.263366 0)
(0.971907 1.04074 3.22762e-20)
(1.10689 1.2149 -2.04636e-20)
(1.10742 1.24711 -1.00446e-20)
(1.05782 1.22897 -3.54988e-21)
(0.993855 1.20026 -7.65045e-20)
(0.921392 1.16783 -9.6956e-20)
(0.838026 1.13189 2.19538e-20)
(0.741631 1.09159 -3.85466e-19)
(0.627519 1.04531 -1.42828e-20)
(0.505263 0.996426 -1.50156e-18)
(0.389273 0.948394 6.15672e-20)
(0.282602 0.916093 -7.23361e-20)
(0.262724 1.47373 -8.85204e-20)
(0.339718 3.08366 1.7837e-20)
(0.362734 3.47205 8.78309e-22)
(0.321692 3.53132 3.67898e-19)
(0.283293 3.55572 1.86801e-19)
(0.232938 3.57968 -5.93017e-20)
(0.172347 3.57525 -7.40742e-20)
(0.254084 0.261643 8.76188e-20)
(0.968185 1.06608 2.26607e-19)
(1.09858 1.2403 -5.9605e-20)
(1.09696 1.27176 -3.78271e-20)
(1.04706 1.25344 0)
(0.983236 1.22483 -7.16051e-20)
(0.910727 1.19265 -1.25112e-19)
(0.827505 1.15745 2.00015e-20)
(0.731042 1.11861 -4.24631e-20)
(0.616418 1.07518 -6.68234e-19)
(0.492737 1.0311 -7.00357e-19)
(0.374896 0.989584 -5.12856e-19)
(0.284584 1.0434 -5.47481e-19)
(0.331142 2.15791 5.63696e-19)
(0.426965 3.37613 4.83084e-19)
(0.407632 3.5329 0)
(0.360496 3.57746 0)
(0.322809 3.61951 -4.79825e-20)
(0.269001 3.68031 0)
(0.1844 3.65517 -6.78591e-20)
(0.243092 0.263349 -1.37748e-19)
(0.962459 1.09249 -2.00531e-19)
(1.08888 1.2669 0)
(1.08522 1.29726 6.09337e-21)
(1.03511 1.27854 -2.80611e-20)
(0.971529 1.24988 -7.74837e-20)
(0.899301 1.21797 -7.13162e-20)
(0.816425 1.1834 1.47552e-20)
(0.720136 1.14595 -2.88042e-19)
(0.60539 1.10531 3.47229e-20)
(0.481091 1.06615 0)