/*--------------------------------*- C++ -*----------------------------------*\
| =========                 |                                                 |
| \\      /  F ield         | OpenFOAM: The Open Source CFD Toolbox           |
|  \\    /   O peration     | Version:  2112                                  |
|   \\  /    A nd           | Website:  www.openfoam.com                      |
|    \\/     M anipulation  |                                                 |
\*---------------------------------------------------------------------------*/
FoamFile
{
    version     2.0;
    format      ascii;
    arch        "LSB;label=32;scalar=64";
    class       volScalarField;
    location    "5";
    object      T;
}
// * * * * * * * * * * * * * * * * * * * * * * * * * * * * * * * * * * * * * //

dimensions      [0 0 0 1 0 0 0];

internalField   nonuniform List<scalar> 
10000
(
0.987886
0.99321
0.98879
0.989636
0.989806
0.989718
0.98964
0.98879
0.993163
0.987934
0.938687
0.947555
0.944771
0.946593
0.947053
0.946985
0.946597
0.944763
0.947403
0.938891
0.867422
0.877274
0.878119
0.88042
0.881182
0.88124
0.88045
0.878175
0.877255
0.867632
0.765348
0.776947
0.781846
0.785216
0.786468
0.786544
0.785277
0.781968
0.777174
0.765579
0.636866
0.650171
0.658766
0.66382
0.665827
0.665872
0.663887
0.658904
0.650504
0.637188
0.496833
0.510657
0.521537
0.528064
0.530818
0.530848
0.528135
0.521692
0.510989
0.49718
0.362034
0.374938
0.386301
0.393459
0.39664
0.396663
0.393529
0.386461
0.375228
0.362357
0.245871
0.256718
0.266998
0.27378
0.276926
0.276944
0.273846
0.267144
0.256961
0.246151
0.155538
0.163781
0.172005
0.177652
0.180364
0.180381
0.177712
0.172129
0.163972
0.155759
0.0917147
0.0974029
0.103302
0.107489
0.109557
0.109572
0.10754
0.103399
0.0975451
0.0918768
0.0504853
0.0540689
0.0578982
0.0606946
0.0621065
0.0621209
0.0607362
0.0579708
0.05417
0.0505956
0.0259959
0.0280678
0.0303353
0.0320326
0.0329049
0.0329176
0.0320645
0.0303868
0.0281363
0.0260665
0.0125516
0.0136568
0.0148906
0.0158335
0.016326
0.0163355
0.0158562
0.0149253
0.0137006
0.0125961
0.00569757
0.00624416
0.00686486
0.00734767
0.00760365
0.00760999
0.00736279
0.00688714
0.00627112
0.00572491
0.00243817
0.00269019
0.00298053
0.00320978
0.00333313
0.00333681
0.003219
0.00299404
0.00270615
0.00245454
0.000986354
0.00109524
0.00122215
0.0013237
0.00137913
0.00138105
0.00132891
0.0012299
0.00110431
0.000995779
0.000378347
0.00042255
0.000474645
0.000516852
0.00054021
0.000541212
0.00051969
0.000478882
0.000427503
0.000383498
0.000138011
0.000154936
0.000175106
0.000191641
0.000200926
0.000201459
0.000193144
0.000177326
0.000157518
0.000140693
4.80008e-05
5.41453e-05
6.15409e-05
6.76739e-05
7.11776e-05
7.14536e-05
6.84404e-05
6.26578e-05
5.54344e-05
4.93356e-05
1.59588e-05
1.8083e-05
2.06621e-05
2.28254e-05
2.40891e-05
2.42241e-05
2.32e-05
2.12018e-05
1.86999e-05
1.65972e-05
5.0851e-06
5.78618e-06
6.64497e-06
7.37441e-06
7.81229e-06
7.87534e-06
7.54967e-06
6.89556e-06
6.07023e-06
5.37806e-06
1.55632e-06
1.77802e-06
2.05191e-06
2.28814e-06
2.43463e-06
2.46303e-06
2.36682e-06
2.16388e-06
1.90415e-06
1.68556e-06
4.58293e-07
5.25699e-07
6.09601e-07
6.83327e-07
7.30936e-07
7.43219e-07
7.17307e-07
6.57855e-07
5.79796e-07
5.13431e-07
1.30028e-07
1.49759e-07
1.74504e-07
1.96743e-07
2.11843e-07
2.16948e-07
2.10874e-07
1.94597e-07
1.72247e-07
1.52866e-07
3.55763e-08
4.11408e-08
4.81757e-08
5.46697e-08
5.93547e-08
6.13906e-08
6.0325e-08
5.62653e-08
5.02276e-08
4.48001e-08
9.39066e-09
1.09014e-08
1.28287e-08
1.46642e-08
1.60853e-08
1.68622e-08
1.68376e-08
1.59773e-08
1.44805e-08
1.30427e-08
2.39126e-09
2.78517e-09
3.29277e-09
3.79361e-09
4.2132e-09
4.49529e-09
4.59215e-09
4.47529e-09
4.16226e-09
3.81736e-09
5.87232e-10
6.85447e-10
8.1336e-10
9.44528e-10
1.06403e-09
1.16064e-09
1.22293e-09
1.24028e-09
1.20522e-09
1.14325e-09
1.39016e-10
1.62279e-10
1.92895e-10
2.25558e-10
2.57933e-10
2.88689e-10
3.16336e-10
3.39291e-10
3.5381e-10
3.5761e-10
3.17151e-11
3.6905e-11
4.37965e-11
5.14316e-11
5.9622e-11
6.85523e-11
7.86249e-11
9.08062e-11
1.07058e-10
1.23664e-10
0.993122
0.998993
0.994346
0.995345
0.99556
0.995554
0.995342
0.994374
0.998911
0.993154
0.947253
0.958117
0.955181
0.957114
0.957677
0.957714
0.957102
0.955278
0.958063
0.947377
0.877178
0.888638
0.889592
0.891696
0.892462
0.892421
0.891652
0.889625
0.888741
0.87727
0.776954
0.78858
0.79329
0.796364
0.797565
0.797468
0.796281
0.79319
0.788562
0.777235
0.650235
0.662432
0.670316
0.675027
0.676972
0.676905
0.674953
0.67023
0.662434
0.650581
0.510716
0.523128
0.53306
0.539182
0.541849
0.541814
0.539138
0.533042
0.523256
0.511061
0.374961
0.386557
0.396973
0.403707
0.406784
0.406769
0.403696
0.397015
0.386765
0.375287
0.256727
0.266549
0.276
0.282401
0.285442
0.285441
0.282417
0.27608
0.266759
0.257007
0.163783
0.171318
0.178916
0.184263
0.186885
0.186891
0.184296
0.179008
0.171499
0.164005
0.0974019
0.102653
0.108136
0.112115
0.114118
0.114128
0.112155
0.108222
0.102796
0.0975672
0.0540681
0.0574079
0.0609938
0.0636611
0.0650332
0.0650431
0.0636977
0.061064
0.0575141
0.0541855
0.0280681
0.030017
0.032158
0.0337827
0.0346349
0.0346426
0.0338123
0.03221
0.0300907
0.0281474
0.0136575
0.0147061
0.0158797
0.0167871
0.0172698
0.0172764
0.0168088
0.0159155
0.0147543
0.0137081
0.00624478
0.00676778
0.00736224
0.00782959
0.00808125
0.00808613
0.00784413
0.0073853
0.00679756
0.00627585
0.00269057
0.00293344
0.00321318
0.00343647
0.00355806
0.00356138
0.00344564
0.0032272
0.00295099
0.00270886
0.00109536
0.00120095
0.00132389
0.00142337
0.00147815
0.00148024
0.00142882
0.00133197
0.00121083
0.00110575
0.00042255
0.000465742
0.000516478
0.000557988
0.000581176
0.000582295
0.000560988
0.000520902
0.000471055
0.000428222
0.000154917
0.000171573
0.000191324
0.00020765
0.000216915
0.000217477
0.000209218
0.000193634
0.000174326
0.000157855
5.41366e-05
6.02161e-05
6.74954e-05
7.35786e-05
7.70917e-05
7.73718e-05
7.43702e-05
6.86525e-05
6.15845e-05
5.55859e-05
1.80805e-05
2.0192e-05
2.27399e-05
2.48972e-05
2.61669e-05
2.63054e-05
2.52823e-05
2.32973e-05
2.08429e-05
1.87655e-05
5.78484e-06
6.48504e-06
7.33603e-06
8.06668e-06
8.50767e-06
8.573e-06
8.24674e-06
7.59446e-06
6.78297e-06
6.09682e-06
1.77703e-06
1.99949e-06
2.27176e-06
2.50901e-06
2.65721e-06
2.68651e-06
2.58998e-06
2.38726e-06
2.13123e-06
1.91437e-06
5.25119e-07
5.9303e-07
6.76672e-07
7.50895e-07
7.99261e-07
8.11928e-07
7.85929e-07
7.26488e-07
6.49449e-07
5.83667e-07
1.49481e-07
1.6944e-07
1.94168e-07
2.1661e-07
2.32003e-07
2.37273e-07
2.31199e-07
2.14928e-07
1.92889e-07
1.73739e-07
4.10248e-08
4.6677e-08
5.37205e-08
6.02896e-08
6.508e-08
6.71842e-08
6.61342e-08
6.20852e-08
5.61566e-08
5.08344e-08
1.08583e-08
1.23992e-08
1.43314e-08
1.61922e-08
1.76491e-08
1.84527e-08
1.84398e-08
1.75884e-08
1.61352e-08
1.47502e-08
2.77076e-09
3.17404e-09
3.68316e-09
4.19167e-09
4.62259e-09
4.91432e-09
5.01711e-09
4.90548e-09
4.61142e-09
4.29432e-09
6.81104e-10
7.81899e-10
9.10066e-10
1.04324e-09
1.16598e-09
1.26566e-09
1.33025e-09
1.34999e-09
1.32383e-09
1.27705e-09
1.61108e-10
1.84976e-10
2.15536e-10
2.48607e-10
2.81756e-10
3.13309e-10
3.41599e-10
3.65554e-10
3.83623e-10
3.96135e-10
3.66236e-11
4.19218e-11
4.87398e-11
5.64113e-11
6.47295e-11
7.37903e-11
8.39348e-11
9.64573e-11
1.14598e-10
1.35024e-10
0.988793
0.994389
0.989408
0.990293
0.990511
0.990527
0.990269
0.989403
0.994388
0.988789
0.944727
0.955234
0.951783
0.95361
0.954236
0.954302
0.953627
0.951885
0.9553
0.944752
0.87805
0.889581
0.890032
0.892011
0.892874
0.892895
0.892036
0.890124
0.889608
0.878184
0.78175
0.793229
0.797676
0.800664
0.801954
0.801937
0.800641
0.79764
0.793143
0.782026
0.658677
0.670245
0.677812
0.682398
0.684376
0.684345
0.682339
0.677734
0.6702
0.658999
0.521484
0.533009
0.542363
0.548237
0.550864
0.550832
0.54817
0.542297
0.533047
0.521803
0.386282
0.396945
0.406607
0.412982
0.415957
0.415932
0.412933
0.406582
0.397047
0.38657
0.266993
0.275988
0.284697
0.290699
0.293601
0.293588
0.290679
0.284719
0.276124
0.267238
0.172003
0.17891
0.185897
0.190883
0.193364
0.193362
0.19089
0.18595
0.179052
0.172204
0.103298
0.108133
0.113179
0.116882
0.118766
0.118771
0.116905
0.113243
0.108259
0.103455
0.0578966
0.0609907
0.0642992
0.0667819
0.0680699
0.0680777
0.06681
0.0643588
0.0610905
0.058012
0.0303365
0.0321547
0.0341377
0.0356538
0.0364532
0.0364609
0.0356794
0.0341854
0.0322272
0.030417
0.0148926
0.0158784
0.0169714
0.0178207
0.0182747
0.0182809
0.0178404
0.0170057
0.0159273
0.0149458
0.00686654
0.00736195
0.00791912
0.00835815
0.00859581
0.00860028
0.00837178
0.00794172
0.00739285
0.00689988
0.00298146
0.00321331
0.00347725
0.00368792
0.0038033
0.00380623
0.00369659
0.00349115
0.00323169
0.00300128
0.00122253
0.00132403
0.0014408
0.00153511
0.00158738
0.00158918
0.00154029
0.00144886
0.00133439
0.00123373
0.000474765
0.000516519
0.000564985
0.000604572
0.00062679
0.000627824
0.000607489
0.000569416
0.00052208
0.000480795
0.000175122
0.000191327
0.000210293
0.000225945
0.000234858
0.000235413
0.000227501
0.000212613
0.000194185
0.000178224
6.15317e-05
6.74897e-05
7.45143e-05
8.03732e-05
8.37665e-05
8.40486e-05
8.11626e-05
7.5677e-05
6.88981e-05
6.3057e-05
2.06524e-05
2.2735e-05
2.52075e-05
2.72937e-05
2.85268e-05
2.86642e-05
2.7677e-05
2.57668e-05
2.34022e-05
2.13711e-05
6.63857e-06
7.33344e-06
8.1634e-06
8.87315e-06
9.30348e-06
9.36789e-06
9.05219e-06
8.42251e-06
7.638e-06
6.96446e-06
2.04833e-06
2.27041e-06
2.53706e-06
2.76868e-06
2.91378e-06
2.94284e-06
2.84921e-06
2.65282e-06
2.40479e-06
2.19119e-06
6.07812e-07
6.75999e-07
7.58249e-07
8.3103e-07
8.78557e-07
8.91158e-07
8.65914e-07
8.08206e-07
7.33484e-07
6.68588e-07
1.73701e-07
1.93859e-07
2.18271e-07
2.40362e-07
2.55547e-07
2.60798e-07
2.54914e-07
2.39118e-07
2.1776e-07
1.98887e-07
4.78505e-08
5.35929e-08
6.05713e-08
6.70592e-08
7.18026e-08
7.39029e-08
7.29003e-08
6.89853e-08
6.327e-08
5.80558e-08
1.27092e-08
1.42839e-08
1.62039e-08
1.80469e-08
1.94943e-08
2.02974e-08
2.02962e-08
1.94846e-08
1.81061e-08
1.67729e-08
3.25309e-09
3.66736e-09
4.1742e-09
4.67887e-09
5.10794e-09
5.39957e-09
5.50505e-09
5.40574e-09
5.14098e-09
4.85164e-09
8.01525e-10
9.05442e-10
1.033e-09
1.16524e-09
1.28754e-09
1.38703e-09
1.45195e-09
1.47541e-09
1.46153e-09
1.43049e-09
1.89764e-10
2.14384e-10
2.44682e-10
2.77455e-10
3.10428e-10
3.41779e-10
3.69886e-10
3.94762e-10
4.17768e-10
4.3897e-10
4.30717e-11
4.85105e-11
5.52064e-11
6.27603e-11
7.09875e-11
7.99151e-11
8.98679e-11
1.02474e-10
1.22578e-10
1.4775e-10
0.989643
0.995362
0.99028
0.991191
0.991431
0.991432
0.99117
0.990259
0.995357
0.98963
0.946572
0.957112
0.953582
0.955377
0.956014
0.956038
0.955376
0.953631
0.957142
0.946549
0.880379
0.891648
0.891997
0.893883
0.894747
0.894764
0.893895
0.892062
0.891635
0.880455
0.785134
0.796301
0.800654
0.803562
0.804858
0.804856
0.80355
0.800641
0.796217
0.785371
0.663732
0.674956
0.682377
0.686876
0.68885
0.688831
0.68683
0.682318
0.674907
0.664028
0.527997
0.539118
0.548211
0.553944
0.556537
0.556511
0.553884
0.548148
0.539135
0.528291
0.393412
0.40366
0.412961
0.419121
0.422019
0.421995
0.419069
0.412924
0.403733
0.393679
0.273748
0.282371
0.290684
0.296426
0.299219
0.299203
0.296396
0.290685
0.282478
0.273977
0.177631
0.184245
0.190874
0.195606
0.19797
0.197964
0.195601
0.190907
0.184364
0.17782
0.107474
0.112106
0.116876
0.120371
0.122155
0.122156
0.120384
0.116925
0.112217
0.107624
0.0606855
0.0636544
0.0667788
0.0691154
0.0703293
0.0703344
0.0691362
0.0668288
0.0637468
0.0607977
0.0320282
0.033778
0.0356517
0.0370774
0.0378291
0.0378352
0.0370985
0.0356943
0.0338476
0.0321079
0.0158319
0.0167842
0.017819
0.0186181
0.019045
0.0190504
0.0186355
0.0178508
0.0168322
0.0158854
0.0073473
0.00782798
0.00835693
0.00877081
0.00899455
0.00899861
0.00878333
0.00837843
0.0078587
0.00738114
0.00320962
0.00343566
0.00368712
0.00388625
0.00399512
0.00399785
0.0038944
0.00370054
0.00345405
0.00322984
0.0013235
0.00142295
0.00153464
0.00162407
0.00167354
0.00167522
0.00162899
0.00154247
0.00143333
0.00133493
0.000516644
0.00055775
0.000604314
0.000641984
0.000663079
0.000664051
0.000644768
0.000608625
0.000563321
0.000522785
0.000191482
0.00020751
0.000225806
0.000240758
0.00024925
0.000249776
0.000242248
0.000228065
0.000210363
0.000194624
6.75769e-05
7.34955e-05
8.02993e-05
8.5918e-05
8.91626e-05
8.94322e-05
8.66771e-05
8.14318e-05
7.48958e-05
6.91133e-05
2.27735e-05
2.48516e-05
2.72554e-05
2.92634e-05
3.04467e-05
3.05789e-05
2.96334e-05
2.78003e-05
2.55124e-05
2.34943e-05
7.34799e-06
8.04446e-06
8.85432e-06
9.53976e-06
9.95414e-06
1.00163e-05
9.71296e-06
9.10673e-06
8.34525e-06
7.67386e-06
2.27527e-06
2.49892e-06
2.76001e-06
2.98442e-06
3.12459e-06
3.15268e-06
3.06244e-06
2.87284e-06
2.63144e-06
2.41793e-06
6.77466e-07
7.46466e-07
8.27264e-07
8.97998e-07
9.44041e-07
9.56252e-07
9.31864e-07
8.76028e-07
8.0317e-07
7.38169e-07
1.94261e-07
2.14754e-07
2.38807e-07
2.60336e-07
2.75089e-07
2.80193e-07
2.74503e-07
2.59207e-07
2.38378e-07
2.19467e-07
5.36932e-08
5.95571e-08
6.64504e-08
7.27891e-08
7.74098e-08
7.94573e-08
7.84927e-08
7.47103e-08
6.91558e-08
6.39486e-08
1.43077e-08
1.59224e-08
1.78225e-08
1.96267e-08
2.104e-08
2.18251e-08
2.18293e-08
2.10541e-08
1.97314e-08
1.84164e-08
3.67353e-09
4.09977e-09
4.60169e-09
5.09631e-09
5.51609e-09
5.80177e-09
5.90709e-09
5.81836e-09
5.57596e-09
5.30233e-09
9.07503e-10
1.0146e-09
1.14077e-09
1.27037e-09
1.39014e-09
1.48768e-09
1.55199e-09
1.57863e-09
1.57422e-09
1.55367e-09
2.15223e-10
2.40559e-10
2.70402e-10
3.0245e-10
3.34721e-10
3.65422e-10
3.93112e-10
4.18772e-10
4.45691e-10
4.73036e-10
4.88472e-11
5.44092e-11
6.09455e-11
6.82933e-11
7.63202e-11
8.50309e-11
9.47756e-11
1.07513e-10
1.29168e-10
1.57608e-10
0.989669
0.995634
0.990527
0.991385
0.99163
0.991629
0.991371
0.990514
0.995644
0.989661
0.946881
0.957771
0.954294
0.956026
0.956649
0.956659
0.956027
0.954339
0.957817
0.946871
0.881251
0.892271
0.892861
0.894762
0.895636
0.895647
0.894776
0.892929
0.892281
0.88132
0.786492
0.797394
0.801912
0.80483
0.806142
0.806145
0.804828
0.801918
0.797339
0.786705
0.665794
0.676863
0.684329
0.688824
0.690805
0.690793
0.68879
0.684286
0.676829
0.66607
0.530769
0.541775
0.550823
0.55652
0.559104
0.559083
0.556469
0.55077
0.541793
0.531053
0.39659
0.406732
0.415924
0.422007
0.424872
0.424851
0.421958
0.415889
0.406798
0.396849
0.276882
0.285405
0.293576
0.29921
0.301951
0.301936
0.299179
0.293575
0.285502
0.277105
0.180327
0.186859
0.193346
0.197963
0.200269
0.200262
0.197955
0.193373
0.186968
0.180514
0.109528
0.1141
0.118755
0.12215
0.123881
0.123881
0.122158
0.118797
0.114204
0.109677
0.0620871
0.065018
0.0680619
0.0703251
0.0714989
0.0715028
0.0703422
0.0681067
0.065107
0.0622006
0.0328943
0.0346226
0.0364468
0.0378255
0.0385509
0.0385562
0.0378442
0.0364862
0.0346907
0.0329753
0.0163206
0.017262
0.0182696
0.0190421
0.0194537
0.0194586
0.0190581
0.0182998
0.0173096
0.0163748
0.00760074
0.00807663
0.00859209
0.0089924
0.00920813
0.00921193
0.00900422
0.00861292
0.00810734
0.00763504
0.00333123
0.00355552
0.00380088
0.00399367
0.00409874
0.00410132
0.00400148
0.00381399
0.00357393
0.00335175
0.0013778
0.00147677
0.00158594
0.00167264
0.00172043
0.00172204
0.00167738
0.0015936
0.00148714
0.00138942
0.000539342
0.000580368
0.000625977
0.000662554
0.000682966
0.000683896
0.000665242
0.000630193
0.00058592
0.000545575
0.000200415
0.00021645
0.000234413
0.000248958
0.000257189
0.000257694
0.000250399
0.00023662
0.000219287
0.000203587
7.0903e-05
7.68356e-05
8.35299e-05
8.90068e-05
9.21574e-05
9.24178e-05
8.97427e-05
8.46365e-05
7.82243e-05
7.24433e-05
2.39495e-05
2.60364e-05
2.84062e-05
3.03675e-05
3.15188e-05
3.16468e-05
3.07269e-05
2.89387e-05
2.66896e-05
2.46677e-05
7.74409e-06
8.4453e-06
9.24503e-06
9.91577e-06
1.03197e-05
1.038e-05
1.00842e-05
9.49166e-06
8.74164e-06
8.06766e-06
2.40278e-06
2.62872e-06
2.88691e-06
3.10687e-06
3.24372e-06
3.27104e-06
3.18285e-06
2.99717e-06
2.75898e-06
2.54426e-06
7.16873e-07
7.8676e-07
8.66808e-07
9.36242e-07
9.81264e-07
9.93163e-07
9.69276e-07
9.14505e-07
8.42518e-07
7.77061e-07
2.05983e-07
2.26779e-07
2.50654e-07
2.71818e-07
2.86264e-07
2.91248e-07
2.85664e-07
2.70645e-07
2.50054e-07
2.31001e-07
5.70504e-08
6.30165e-08
6.98663e-08
7.61051e-08
8.06362e-08
8.26401e-08
8.16928e-08
7.79818e-08
7.24985e-08
6.72595e-08
1.52339e-08
1.68805e-08
1.877e-08
2.05475e-08
2.19352e-08
2.27054e-08
2.27107e-08
2.19547e-08
2.06576e-08
1.93425e-08
3.91932e-09
4.35472e-09
4.85391e-09
5.34145e-09
5.75412e-09
6.03496e-09
6.13952e-09
6.05648e-09
5.82506e-09
5.55724e-09
9.70057e-10
1.07949e-09
1.20487e-09
1.33259e-09
1.45043e-09
1.54647e-09
1.61027e-09
1.63872e-09
1.63935e-09
1.62376e-09
2.30397e-10
2.5624e-10
2.85822e-10
3.1737e-10
3.49127e-10
3.79376e-10
4.06828e-10
4.3303e-10
4.62102e-10
4.92586e-10
5.23188e-11
5.7969e-11
6.4414e-11
7.16269e-11
7.95191e-11
8.80971e-11
9.77437e-11
1.10605e-10
1.33146e-10
1.63281e-10
0.989812
0.995558
0.9905
0.99142
0.991669
0.991667
0.991406
0.990487
0.995569
0.9898
0.947038
0.957665
0.954209
0.955998
0.956643
0.956649
0.955999
0.954255
0.957718
0.947006
0.881143
0.892456
0.892867
0.89474
0.895614
0.895623
0.894753
0.892931
0.892461
0.881196
0.786426
0.797546
0.801935
0.804846
0.806158
0.80616
0.804843
0.801936
0.797481
0.786633
0.665789
0.676925
0.684332
0.688822
0.690805
0.690795
0.688789
0.684288
0.676885
0.66606
0.530779
0.541795
0.550813
0.556504
0.559088
0.55907
0.556455
0.55076
0.541807
0.53106
0.396599
0.406735
0.41591
0.421988
0.424853
0.424833
0.421941
0.415876
0.406798
0.39686
0.276881
0.285411
0.293566
0.299195
0.301936
0.301921
0.299166
0.293564
0.285501
0.277115
0.180318
0.186872
0.193342
0.197956
0.200261
0.200254
0.197948
0.193369
0.18697
0.180523
0.109522
0.114104
0.118756
0.122149
0.123879
0.123879
0.122157
0.118798
0.114208
0.109685
0.0620858
0.0650178
0.0680646
0.0703268
0.0715
0.0715038
0.0703439
0.0681099
0.0651123
0.0622072
0.0328947
0.0346234
0.0364495
0.0378281
0.0385531
0.0385584
0.037847
0.0364898
0.0346953
0.0329802
0.0163215
0.0172633
0.0182717
0.0190444
0.0194558
0.0194607
0.0190606
0.0183027
0.017313
0.0163782
0.00760141
0.0080779
0.00859357
0.00899399
0.00920969
0.00921354
0.00900597
0.00861488
0.00810947
0.00763709
0.00333144
0.00355652
0.00380182
0.00399467
0.00409973
0.00410235
0.00400257
0.00381517
0.00357516
0.0033529
0.00137784
0.00147731
0.00158647
0.0016732
0.001721
0.00172262
0.00167799
0.00159424
0.0014878
0.00139002
0.00053939
0.000580584
0.000626255
0.000662848
0.000683266
0.000684201
0.000665557
0.000630519
0.000586247
0.00054587
0.000200464
0.000216537
0.000234544
0.000249099
0.000257334
0.000257842
0.00025055
0.000236775
0.00021944
0.000203723
7.09341e-05
7.68766e-05
8.35879e-05
8.90706e-05
9.22235e-05
9.2485e-05
8.98108e-05
8.47052e-05
7.82913e-05
7.25021e-05
2.3965e-05
2.60558e-05
2.84308e-05
3.03947e-05
3.1547e-05
3.16756e-05
3.07558e-05
2.89676e-05
2.67175e-05
2.4692e-05
7.75099e-06
8.45364e-06
9.25508e-06
9.92676e-06
1.03312e-05
1.03917e-05
1.00959e-05
9.50322e-06
8.75273e-06
8.07723e-06
2.4057e-06
2.63198e-06
2.89081e-06
3.11111e-06
3.24816e-06
3.27555e-06
3.18735e-06
3.00159e-06
2.76319e-06
2.54788e-06
7.18006e-07
7.88003e-07
8.68249e-07
9.37806e-07
9.82901e-07
9.94827e-07
9.70934e-07
9.16124e-07
8.44053e-07
7.78376e-07
2.0639e-07
2.27232e-07
2.51162e-07
2.72368e-07
2.86841e-07
2.91835e-07
2.86249e-07
2.71216e-07
2.50594e-07
2.31464e-07
5.71905e-08
6.31693e-08
7.00372e-08
7.62905e-08
8.0831e-08
8.28392e-08
8.18914e-08
7.81758e-08
7.26826e-08
6.7418e-08
1.52794e-08
1.69299e-08
1.88249e-08
2.06071e-08
2.19981e-08
2.27701e-08
2.27756e-08
2.20185e-08
2.07188e-08
1.93959e-08
3.93329e-09
4.36994e-09
4.87075e-09
5.35976e-09
5.77357e-09
6.05511e-09
6.15994e-09
6.07683e-09
5.84491e-09
5.57495e-09
9.74089e-10
1.08396e-09
1.20979e-09
1.33795e-09
1.45617e-09
1.55247e-09
1.61642e-09
1.64496e-09
1.64574e-09
1.62988e-09
2.31493e-10
2.57482e-10
2.87183e-10
3.18856e-10
3.50733e-10
3.81085e-10
4.0863e-10
4.34958e-10
4.64108e-10
4.94522e-10
5.26015e-11
5.82913e-11
6.4768e-11
7.20148e-11
7.99424e-11
8.85564e-11
9.82427e-11
1.11154e-10
1.33798e-10
1.64115e-10
0.989623
0.995356
0.990284
0.991173
0.991409
0.991406
0.991156
0.990265
0.995363
0.989609
0.946554
0.957127
0.953608
0.955373
0.956005
0.956006
0.955366
0.95364
0.957174
0.946518
0.880403
0.891668
0.892011
0.893881
0.894746
0.894751
0.893885
0.892062
0.891665
0.880444
0.785236
0.796286
0.800619
0.803538
0.804844
0.804843
0.803526
0.800606
0.796203
0.78543
0.663837
0.674938
0.68232
0.686825
0.688809
0.688796
0.686785
0.682264
0.674881
0.664102
0.528073
0.539109
0.548154
0.553884
0.556486
0.556466
0.553831
0.548094
0.539115
0.528354
0.393459
0.403659
0.412916
0.419069
0.421971
0.421952
0.419023
0.412881
0.403723
0.393729
0.273774
0.282377
0.290659
0.296393
0.299187
0.299173
0.296367
0.290663
0.282482
0.274018
0.177646
0.184258
0.190869
0.195594
0.197957
0.197952
0.195591
0.190904
0.184379
0.177855
0.107484
0.11212
0.116885
0.120375
0.122157
0.122158
0.120388
0.116935
0.112237
0.107653
0.0606932
0.0636678
0.0667918
0.069126
0.0703382
0.0703434
0.069147
0.0668434
0.063767
0.060821
0.0320346
0.0337884
0.0356634
0.0370883
0.0378391
0.0378454
0.0371099
0.0357078
0.0338637
0.0321247
0.0158367
0.0167913
0.0178274
0.0186266
0.0190531
0.0190587
0.0186445
0.0178609
0.0168434
0.0158963
0.00735038
0.00783236
0.00836219
0.00877639
0.00900011
0.00900432
0.00878938
0.00838495
0.00786562
0.00738761
0.00321139
0.00343824
0.00369018
0.00388956
0.0039985
0.00400132
0.00389803
0.00370435
0.00345797
0.00323341
0.00132444
0.00142436
0.00153632
0.00162589
0.00167541
0.00167714
0.00163097
0.00154452
0.00143539
0.00133678
0.000517128
0.000558465
0.000605171
0.000642912
0.000664041
0.00066503
0.000645771
0.000609649
0.000564331
0.00052368
0.000191725
0.000207846
0.000226214
0.000241202
0.000249711
0.000250245
0.000242724
0.000228545
0.00021083
0.000195033
6.76908e-05
7.36472e-05
8.0481e-05
8.61169e-05
8.93701e-05
8.96433e-05
8.68898e-05
8.16435e-05
7.50999e-05
6.92903e-05
2.28227e-05
2.49174e-05
2.73321e-05
2.93476e-05
3.05348e-05
3.06685e-05
2.97232e-05
2.78888e-05
2.55969e-05
2.3567e-05
7.36829e-06
8.07099e-06
8.88522e-06
9.57358e-06
9.98961e-06
1.00524e-05
9.74897e-06
9.14195e-06
8.37858e-06
7.70244e-06
2.2834e-06
2.50901e-06
2.77187e-06
2.99738e-06
3.13819e-06
3.16653e-06
3.07622e-06
2.88623e-06
2.64404e-06
2.4287e-06
6.80576e-07
7.50175e-07
8.31601e-07
9.02739e-07
9.49026e-07
9.61332e-07
9.3691e-07
8.80915e-07
8.07753e-07
7.42083e-07
1.95386e-07
2.16065e-07
2.40322e-07
2.61996e-07
2.76838e-07
2.81979e-07
2.76278e-07
2.60924e-07
2.39987e-07
2.20844e-07
5.40778e-08
5.99995e-08
6.69564e-08
7.33445e-08
7.79975e-08
8.00598e-08
7.90931e-08
7.5293e-08
6.97036e-08
6.44203e-08
1.44322e-08
1.60647e-08
1.79841e-08
1.98044e-08
2.1229e-08
2.20202e-08
2.2025e-08
2.12456e-08
1.99134e-08
1.8575e-08
3.7117e-09
4.14334e-09
4.65095e-09
5.15061e-09
5.57426e-09
5.86236e-09
5.96861e-09
5.87947e-09
5.63528e-09
5.35527e-09
9.18593e-10
1.02727e-09
1.15506e-09
1.28618e-09
1.40722e-09
1.50571e-09
1.5706e-09
1.5976e-09
1.59335e-09
1.57154e-09
2.1827e-10
2.44047e-10
2.74332e-10
3.06814e-10
3.39487e-10
3.70536e-10
3.98517e-10
4.24489e-10
4.51804e-10
4.79225e-10
4.96381e-11
5.53144e-11
6.19636e-11
6.94276e-11
7.75729e-11
8.64019e-11
9.62696e-11
1.09173e-10
1.31156e-10
1.59931e-10
0.988794
0.994376
0.98941
0.99028
0.990507
0.990505
0.990265
0.989395
0.994386
0.988779
0.944753
0.955254
0.951867
0.953626
0.954248
0.954255
0.953634
0.951921
0.955335
0.944727
0.878144
0.889614
0.8901
0.892044
0.892913
0.892922
0.89206
0.890172
0.889644
0.878192
0.781917
0.793188
0.797622
0.80063
0.801938
0.801935
0.80061
0.797599
0.793087
0.782107
0.65883
0.670209
0.677721
0.682322
0.68432
0.684305
0.682275
0.677655
0.670134
0.659101
0.521605
0.533006
0.542287
0.548163
0.550807
0.550788
0.548109
0.542225
0.533011
0.521905
0.386369
0.396972
0.406569
0.412937
0.415921
0.415903
0.412897
0.406544
0.397051
0.386666
0.267048
0.27603
0.2847
0.290691
0.293595
0.293584
0.290675
0.28472
0.27616
0.267326
0.172042
0.178958
0.185928
0.190904
0.193382
0.193381
0.190912
0.18598
0.179105
0.17228
0.103329
0.108177
0.113219
0.116916
0.118798
0.118803
0.116939
0.113285
0.108313
0.103518
0.0579186
0.0610249
0.0643358
0.0668169
0.068103
0.0681107
0.066845
0.0643984
0.0611363
0.0580592
0.0303515
0.0321783
0.0341653
0.0356817
0.0364802
0.0364881
0.0357079
0.0342163
0.0322606
0.0304492
0.0149023
0.015893
0.0169894
0.0178397
0.0182936
0.0183001
0.0178603
0.0170266
0.0159489
0.0149659
0.00687251
0.00737052
0.00792972
0.00836975
0.00860764
0.0086124
0.00838426
0.00795453
0.00740569
0.00691148
0.00298485
0.00321812
0.00348316
0.00369447
0.00381011
0.00381323
0.00370374
0.00349838
0.00323876
0.00300755
0.00122432
0.0013266
0.00144394
0.00153859
0.00159103
0.00159291
0.00154408
0.00145265
0.00133804
0.00123692
0.000475669
0.000517797
0.000566558
0.000606312
0.000628622
0.000629683
0.000609364
0.000571281
0.00052385
0.000482325
0.000175564
0.000191925
0.000211028
0.000226762
0.00023572
0.000236287
0.000228376
0.000213473
0.000194995
0.000178917
6.1737e-05
6.77542e-05
7.48367e-05
8.07339e-05
8.4148e-05
8.44368e-05
8.15488e-05
7.60519e-05
6.92482e-05
6.33552e-05
2.07409e-05
2.28467e-05
2.53416e-05
2.74439e-05
2.86861e-05
2.88269e-05
2.78383e-05
2.59219e-05
2.35459e-05
2.14928e-05
6.67436e-06
7.37818e-06
8.21665e-06
8.93258e-06
9.36667e-06
9.43248e-06
9.11601e-06
8.48356e-06
7.69417e-06
7.01195e-06
2.06211e-06
2.28745e-06
2.55726e-06
2.79118e-06
2.93772e-06
2.9673e-06
2.87334e-06
2.67583e-06
2.42587e-06
2.20896e-06
6.12895e-07
6.82191e-07
7.65568e-07
8.39187e-07
8.87244e-07
9.00044e-07
8.74676e-07
8.16544e-07
7.41111e-07
6.75013e-07
1.75493e-07
1.9601e-07
2.20802e-07
2.4319e-07
2.58566e-07
2.63896e-07
2.57975e-07
2.42033e-07
2.20429e-07
2.01142e-07
4.84516e-08
5.43065e-08
6.14075e-08
6.79959e-08
7.28076e-08
7.49396e-08
7.39299e-08
6.99706e-08
6.4177e-08
5.88282e-08
1.29009e-08
1.45099e-08
1.64677e-08
1.83434e-08
1.98144e-08
2.06305e-08
2.06303e-08
1.98078e-08
1.84076e-08
1.70333e-08
3.31117e-09
3.73561e-09
4.25362e-09
4.76846e-09
5.20555e-09
5.50237e-09
5.60975e-09
5.50904e-09
5.23964e-09
4.93906e-09
8.18236e-10
9.25048e-10
1.05578e-09
1.19105e-09
1.31596e-09
1.41745e-09
1.48361e-09
1.50762e-09
1.49365e-09
1.4603e-09
1.94327e-10
2.1973e-10
2.50885e-10
2.84516e-10
3.18299e-10
3.50372e-10
3.79096e-10
4.04574e-10
4.28197e-10
4.49414e-10
4.4252e-11
4.98893e-11
5.68014e-11
6.4583e-11
7.30445e-11
8.22118e-11
9.24157e-11
1.0536e-10
1.26055e-10
1.51739e-10
0.993153
0.998897
0.994372
0.995345
0.995555
0.995557
0.995346
0.994382
0.998929
0.993145
0.947383
0.958031
0.955256
0.957124
0.957701
0.957711
0.957144
0.955329
0.958134
0.947349
0.877226
0.888785
0.889603
0.891669
0.892501
0.892506
0.891672
0.88965
0.888777
0.877261
0.777101
0.788654
0.793158
0.796268
0.79755
0.797542
0.79623
0.7931
0.788458
0.777313
0.650428
0.662445
0.670208
0.674956
0.676958
0.676946
0.674913
0.670149
0.66237
0.650726
0.510909
0.523212
0.533047
0.539176
0.541874
0.541863
0.539147
0.533025
0.523286
0.51124
0.375115
0.386728
0.397039
0.403762
0.40685
0.406843
0.403752
0.397063
0.386862
0.375468
0.25685
0.266701
0.276105
0.282492
0.285533
0.285533
0.282504
0.27617
0.266884
0.257169
0.163876
0.171435
0.179026
0.184364
0.186983
0.186989
0.184393
0.179112
0.171622
0.164138
0.097456
0.102743
0.10823
0.112208
0.114208
0.114218
0.112246
0.108318
0.1029
0.0976685
0.0540995
0.0574666
0.0610633
0.0637338
0.0651041
0.0651148
0.0637709
0.0611389
0.0575913
0.0542557
0.0280889
0.0300521
0.0322038
0.0338337
0.0346846
0.0346943
0.0338649
0.0322618
0.0301426
0.0281927
0.0136711
0.0147276
0.0159086
0.0168199
0.017303
0.0173105
0.0168432
0.0159494
0.0147868
0.0137361
0.00625317
0.00678068
0.00737935
0.00784911
0.00810164
0.00810689
0.00786496
0.00740577
0.00681667
0.00629213
0.00269518
0.0029409
0.00322281
0.0034474
0.00356973
0.00357308
0.0034573
0.00323872
0.0029615
0.0027177
0.00109774
0.00120486
0.00132897
0.00142911
0.00148436
0.00148635
0.00143488
0.00133798
0.00121622
0.00111024
0.000423801
0.000467606
0.000518956
0.000560816
0.000584226
0.000585338
0.000563994
0.000523796
0.000473652
0.000430374
0.000155552
0.000172437
0.000192463
0.000208957
0.000218318
0.000218908
0.000210626
0.000194959
0.00017551
0.000158835
5.44297e-05
6.06028e-05
6.79896e-05
7.41452e-05
7.7699e-05
7.79975e-05
7.49839e-05
6.92262e-05
6.20931e-05
5.6006e-05
1.82047e-05
2.03551e-05
2.2944e-05
2.51298e-05
2.6418e-05
2.65628e-05
2.55341e-05
2.35331e-05
2.10501e-05
1.89365e-05
5.8347e-06
6.55004e-06
7.41663e-06
8.1583e-06
8.60688e-06
8.6743e-06
8.3457e-06
7.687e-06
6.8641e-06
6.16345e-06
1.79617e-06
2.02404e-06
2.30202e-06
2.54355e-06
2.69449e-06
2.7247e-06
2.62726e-06
2.42189e-06
2.1617e-06
1.93925e-06
5.32103e-07
6.01842e-07
6.87478e-07
7.63272e-07
8.12625e-07
8.2566e-07
7.99344e-07
7.38924e-07
6.60406e-07
5.92611e-07
1.51901e-07
1.72454e-07
1.97846e-07
2.20835e-07
2.36583e-07
2.41999e-07
2.35833e-07
2.19236e-07
1.96695e-07
1.7686e-07
4.18219e-08
4.76602e-08
5.49157e-08
6.16669e-08
6.65828e-08
6.87458e-08
6.76773e-08
6.35321e-08
5.7444e-08
5.19e-08
1.11081e-08
1.27055e-08
1.47026e-08
1.66215e-08
1.81217e-08
1.89491e-08
1.89368e-08
1.80616e-08
1.6563e-08
1.51098e-08
2.8453e-09
3.26508e-09
3.79331e-09
4.31967e-09
4.765e-09
5.06624e-09
5.17232e-09
5.05701e-09
4.75217e-09
4.41572e-09
7.02286e-10
8.07695e-10
9.41242e-10
1.07968e-09
1.20704e-09
1.31035e-09
1.37721e-09
1.39764e-09
1.37024e-09
1.31891e-09
1.66838e-10
1.91931e-10
2.23928e-10
2.58472e-10
2.93036e-10
3.25886e-10
3.55312e-10
3.80266e-10
3.98998e-10
4.11018e-10
3.80969e-11
4.37002e-11
5.0879e-11
5.89375e-11
6.7659e-11
7.71449e-11
8.77496e-11
1.0088e-10
1.19866e-10
1.40878e-10
0.987947
0.993162
0.988805
0.989632
0.989806
0.989803
0.989621
0.988789
0.993149
0.987956
0.938944
0.947397
0.944767
0.946551
0.947013
0.947009
0.946534
0.944743
0.947356
0.938962
0.867623
0.877287
0.878175
0.880439
0.881182
0.881186
0.880449
0.878201
0.877265
0.867691
0.765516
0.777265
0.782015
0.785387
0.786638
0.786658
0.785441
0.782115
0.777316
0.76571
0.637133
0.650596
0.658992
0.66406
0.666079
0.666101
0.664124
0.659114
0.65073
0.637376
0.497112
0.511038
0.521794
0.528318
0.53108
0.5311
0.528383