/*--------------------------------*- C++ -*----------------------------------*\
| =========                 |                                                 |
| \\      /  F ield         | OpenFOAM: The Open Source CFD Toolbox           |
|  \\    /   O peration     | Version:  2112                                  |
|   \\  /    A nd           | Website:  www.openfoam.com                      |
|    \\/     M anipulation  |                                                 |
\*---------------------------------------------------------------------------*/
FoamFile
{
    version     2.0;
    format      ascii;
    arch        "LSB;label=32;scalar=64";
    class       volScalarField;
    location    "5";
    object      T;
}
// * * * * * * * * * * * * * * * * * * * * * * * * * * * * * * * * * * * * * //

dimensions      [0 0 0 1 0 0 0];

internalField   nonuniform List<scalar> 
1000
(
0
0
0
0
0
0
0
0
0
0
0
0
0
0
0
0
0
0
0
0
0
0
0
0
0
0
0
0
0
0
0
0
0
0
0
0
0
0
0
-2.47033e-323
-1.38338e-322
2.85521e-320
-8.30529e-319
4.03764e-318
5.59173e-316
-2.2948e-314
3.47762e-313
6.62412e-312
-5.34222e-310
1.44431e-308
-1.03595e-307
-8.01669e-306
4.00435e-304
-9.30173e-303
4.46916e-302
5.85477e-300
-2.81059e-298
7.07319e-297
-7.26605e-296
-2.64191e-294
1.76471e-292
-5.75813e-291
1.17955e-289
-7.49547e-289
-6.09581e-287
3.50421e-285
-1.19258e-283
2.98281e-282
-5.11653e-281
1.58792e-280
3.31399e-278
-1.83427e-276
6.91203e-275
-2.1851e-273
6.17761e-272
-1.6082e-270
3.91837e-269
-9.02768e-268
1.98062e-266
-4.15907e-265
8.39152e-264
-1.63175e-262
3.06545e-261
-5.57497e-260
9.83175e-259
-1.68377e-257
2.80376e-256
-4.54435e-255
7.17606e-254
-1.10497e-252
1.66032e-251
-2.43611e-250
3.49247e-249
-4.89481e-248
6.70998e-247
-9.00091e-246
1.18198e-244
-1.52006e-243
1.91507e-242
-2.36441e-241
2.86155e-240
-3.39579e-239
3.95229e-238
-4.51257e-237
5.05544e-236
-5.55825e-235
5.99846e-234
-6.35528e-233
6.61133e-232
-6.75401e-231
6.77652e-230
-6.67841e-229
6.46554e-228
-6.14951e-227
5.74665e-226
-5.27663e-225
4.76093e-224
-4.22126e-223
3.67809e-222
-3.14952e-221
2.65044e-220
-2.19202e-219
1.78165e-218
-1.42314e-217
1.11715e-216
-8.61776e-216
6.5325e-215
-4.86566e-214
3.56082e-213
-2.56017e-212
1.80824e-211
-1.25448e-210
8.54748e-210
-5.71895e-209
3.75688e-208
-2.42267e-207
1.53331e-206
-9.52214e-206
5.80097e-205
-3.46581e-204
2.03007e-203
-1.16538e-202
6.55394e-202
-3.60931e-201
1.94543e-200
-1.02572e-199
5.28674e-199
-2.66175e-198
1.30796e-197
-6.26666e-197
2.92401e-196
-1.32681e-195
5.84493e-195
-2.49442e-194
1.0285e-193
-4.08283e-193
1.55298e-192
-5.62181e-192
1.91707e-191
-6.05428e-191
1.71456e-190
-4.0337e-190
5.86567e-190
9.99179e-190
-1.33615e-188
7.32938e-188
-3.06018e-187
1.06067e-186
-3.03476e-186
6.45735e-186
-4.71743e-186
-4.43889e-185
3.16439e-184
-1.36888e-183
4.48651e-183
-1.08972e-182
1.34733e-182
4.14788e-182
-3.77113e-181
1.65156e-180
-5.08834e-180
1.03391e-179
-2.59557e-180
-9.34891e-179
5.21613e-178
-1.77648e-177
3.91344e-177
-2.15478e-177
-2.83705e-176
1.64739e-175
-5.42053e-175
1.0595e-174
1.16297e-175
-1.08899e-173
5.13119e-173
-1.39951e-172
1.70483e-172
5.32586e-172
-4.08119e-171
1.37479e-170
-2.44673e-170
-1.72757e-170
3.02919e-169
-1.18214e-168
2.42097e-168
1.99532e-169
-2.26744e-167
9.48752e-167
-1.98742e-166
-8.59103e-168
1.78542e-165
-7.25686e-165
1.39837e-164
6.44283e-165
-1.46065e-163
5.22684e-163
-8.05548e-163
-1.29509e-162
1.17595e-161
-3.39724e-161
3.03894e-161
1.6749e-160
-8.70615e-160
1.82435e-159
4.54218e-160
-1.64063e-158
5.48798e-158
-6.25764e-158
-2.18069e-157
1.25217e-156
-2.58359e-156
-1.02287e-156
2.35944e-155
-7.08599e-155
5.23537e-155
3.72321e-154
-1.60812e-153
2.34178e-153
4.6941e-153
-3.24072e-152
6.61302e-152
3.64949e-152
-6.01292e-151
1.55614e-150
-2.72246e-151
-1.05323e-149
3.30249e-149
-2.04255e-149
-1.78036e-148
6.5568e-148
-5.93766e-148
-2.96986e-147
1.24358e-146
-1.34427e-146
-5.00004e-146
2.2817e-145
-2.64868e-145
-8.65582e-145
4.07743e-144
-4.69193e-144
-1.55373e-143
7.10936e-143
-7.48305e-143
-2.87622e-142
1.20602e-141
-1.04492e-141
-5.40186e-141
1.97576e-140
-1.16102e-140
-1.0082e-139
3.08712e-139
-6.14529e-140
-1.83272e-138
4.51072e-138
1.56543e-138
-3.18624e-137
5.95838e-137
7.04578e-137
-5.20408e-136
6.62148e-136
1.82146e-135
-7.81797e-135
4.85823e-135
3.76514e-134
-1.04606e-133
-1.97623e-134
6.6514e-133
-1.16817e-132
-1.71423e-132
1.01435e-131
-8.8815e-132
-4.29794e-131
1.30335e-130
1.39149e-131
-7.7793e-130
1.2938e-129
2.1966e-129
-1.1167e-128
6.57475e-129
5.20318e-128
-1.23658e-127
-8.79822e-128
8.32841e-127
-8.49525e-127
-3.25681e-126
9.78424e-126
2.69825e-126
-5.75335e-125
7.22689e-125
2.03505e-124
-6.89278e-124
-8.90438e-125
3.81038e-123
-4.92963e-123
-1.3284e-122
4.43564e-122
9.29208e-123
-2.44505e-121
2.76244e-121
9.06259e-121
-2.59795e-120
-1.34929e-120
1.50027e-119
-1.17208e-119
-6.18728e-119
1.33877e-118
1.5257e-118
-8.50337e-118
2.19557e-118
3.98098e-117
-5.55092e-117
-1.35143e-116
4.19835e-116
2.11617e-116
-2.26985e-115
1.33075e-115
9.61434e-115
-1.60865e-114
-3.01777e-114
1.06259e-113
4.16928e-114
-5.42855e-113
3.06672e-113
2.2723e-112
-3.47259e-112
-7.53819e-112
2.26549e-111
1.56149e-111
-1.17442e-110
2.46162e-111
5.17155e-110
-5.20603e-110
-1.94254e-109
3.82905e-109
5.88903e-109
-2.14706e-108
-1.09245e-108
1.0318e-107
-2.24875e-108
-4.40334e-107
3.88807e-107
1.67833e-106
-2.75386e-106
-5.59924e-106
1.52941e-105
1.51621e-105
-7.44215e-105
-2.3224e-105
3.30053e-104
-7.71093e-105
-1.35684e-103
1.01072e-103
5.20211e-103
-6.71758e-103
-1.85636e-102
3.62817e-102
6.09082e-102
-1.75449e-101
-1.77876e-101
7.88795e-101
4.20823e-101
-3.36038e-100
-4.93636e-101
1.37181e-99
-2.601e-100
-5.40604e-99
2.70575e-99
2.06743e-98
-1.65691e-98
-7.70409e-98
8.50121e-98
2.80695e-97
-3.97184e-97
-1.00305e-96
1.7478e-96
3.5264e-96
-7.37099e-96
-1.22377e-95
3.01007e-95
4.20782e-95
-1.19826e-94
-1.4398e-94
4.67151e-94
4.9275e-94
-1.78944e-93
-1.6961e-93
6.75075e-93
5.90522e-93
-2.51224e-92
-2.08999e-92
9.2318e-92
7.54445e-92
-3.35147e-91
-2.78036e-91
1.20196e-90
1.04432e-90
-4.25607e-90
-3.98231e-90
1.48633e-89
1.53371e-89
-5.11045e-89
-5.93208e-89
1.7257e-88
2.29192e-88
-5.70326e-88
-8.80346e-88
1.83564e-87
3.34811e-87
-5.71226e-87
-1.25638e-86
1.69915e-86
4.63736e-86
-4.73674e-86
-1.6787e-85
1.1889e-85
5.94187e-85
-2.4138e-85
-2.04956e-84
2.19894e-85
6.86137e-84
1.36642e-84
-2.21739e-83
-1.17039e-83
6.86502e-83
6.19178e-83
-2.01222e-82
-2.74321e-82
5.47078e-82
1.09459e-81
-1.32324e-81
-4.0397e-81
2.5428e-81
1.39277e-80
-2.00025e-81
-4.49006e-80
-1.41121e-80
1.34441e-79
1.07899e-79
-3.67344e-79
-5.16845e-79
8.79326e-79
2.0484e-78
-1.64113e-78
-7.1659e-78
1.1517e-78
2.25169e-77
9.09452e-78
-6.31693e-77
-6.40519e-77
1.52937e-76
2.83942e-76
-2.86515e-76
-1.02523e-75
2.13761e-76
3.18245e-75
1.41237e-75
-8.48153e-75
-9.76688e-75
1.83664e-74
4.10743e-74
-2.53657e-74
-1.37266e-73
-2.32727e-74
3.80694e-73
3.42718e-73
-8.44538e-73
-1.60975e-72
1.20891e-72
5.51106e-72
7.91914e-73
-1.5022e-71
-1.40376e-71
3.12388e-71
6.45711e-71
-3.5264e-71
-2.09589e-70
-7.52462e-71
5.20238e-70
6.48739e-70
-8.85674e-70
-2.55457e-69
2.12598e-70
7.19978e-69
5.81125e-69
-1.44501e-68
-2.88999e-68
1.28584e-68
9.01368e-68
4.90669e-68
-1.96871e-67
-3.18192e-67
2.24031e-67
1.06653e-66
4.38142e-67
-2.40823e-66
-3.54051e-66
2.84942e-66
1.22074e-65
4.84705e-66
-2.71256e-65
-4.05847e-65
2.88629e-65
1.35962e-64
6.79514e-65
-2.80787e-64
-4.75768e-64
2.1325e-64
1.45684e-63
1.04236e-63
-2.58927e-63
-5.53396e-63
4.35912e-64
1.45799e-62
1.53819e-62
-1.94355e-62
-6.11783e-62
-2.15829e-62
1.28918e-61
2.05005e-61
-8.16809e-62
-6.09393e-61
-5.23085e-61
8.89107e-61
2.37342e-60
6.81516e-61
-5.03652e-60
-7.88108e-60
2.64407e-60
2.26628e-59
2.19222e-59
-2.78213e-59
-8.88307e-59
-4.55311e-59
1.57634e-58
3.13999e-58
2.57622e-59
-7.25531e-58
-1.0148e-57
4.07318e-58
2.97991e-57
3.00131e-57
-3.10583e-57
-1.13642e-56
-8.0131e-57
1.61234e-56
4.11552e-56
1.84992e-56
-7.17993e-56
-1.43749e-55
-3.19243e-56
2.9357e-55
4.90359e-55
8.34138e-57
-1.13673e-54
-1.65194e-54
2.69552e-55
4.24072e-54
5.55297e-54
-1.71825e-54
-1.54047e-53
-1.87968e-53
7.68422e-54
5.48435e-53
6.45266e-53
-2.89595e-53
-1.92024e-52
-2.25501e-52
9.53126e-53
6.61752e-52
8.02086e-52
-2.67004e-52
-2.24067e-51
-2.89172e-51
5.50369e-52
7.42023e-51
1.04917e-50
-1.02541e-52
-2.38412e-50
-3.79635e-50
-7.41503e-51
7.33514e-50
1.35632e-49
5.64834e-50
-2.11291e-49
-4.73269e-49
-3.08448e-49
5.4501e-49
1.59293e-48
1.44526e-48
-1.11904e-48
-5.08992e-48
-6.11192e-48
9.13641e-49
1.50739e-47
2.37238e-47
7.39911e-48
-3.95702e-47
-8.46375e-47
-5.96759e-47
8.21582e-47
2.74482e-46
3.00933e-46
-7.19354e-47
-7.85604e-46
-1.23468e-45
-4.79511e-46
1.83856e-45
4.33779e-45
3.79075e-45
-2.60321e-45
-1.29518e-44
-1.78634e-44
-4.4395e-45
3.06163e-44
6.57801e-44
5.4801e-44
-4.10658e-44
-1.94515e-43
-2.72929e-43
-8.93654e-44
4.21176e-43
9.83175e-43
9.45048e-43
-3.29204e-43
-2.65525e-42
-4.34175e-42
-2.58272e-42
4.37035e-42
1.39241e-41
1.74485e-41
3.89445e-42
-2.9779e-41
-6.61906e-41
-6.53915e-41
1.34821e-41
1.65964e-40
2.97646e-40
2.33406e-40
-1.72228e-40
-8.38594e-40
-1.30231e-39
-8.1582e-40
1.13498e-39
4.01112e-39
5.66453e-39
2.92306e-39
-6.09707e-39
-1.85742e-38
-2.48928e-38
-1.14761e-38
2.92066e-38
8.42359e-38
1.11604e-37
5.22414e-38
-1.27751e-37
-3.75448e-37
-5.11384e-37
-2.74295e-37
5.05317e-37
1.63829e-36
2.3793e-36
1.56278e-36
-1.71014e-36
-6.91557e-36
-1.10912e-35
-9.06633e-36
3.97938e-36
2.75909e-35
5.08439e-35
5.1381e-35
3.95454e-36
-9.94131e-35
-2.23781e-34
-2.77442e-34
-1.34433e-34
2.88861e-34
9.14318e-34
1.39981e-33
1.16038e-33
-3.77843e-34
-3.26785e-33
-6.44521e-33
-7.45839e-33
-3.08912e-33
8.737e-33
2.60009e-32
3.99546e-32
3.52721e-32
-4.26982e-33
-8.34711e-32
-1.79773e-31
-2.32644e-31
-1.5212e-31
1.4055e-31
6.38822e-31
1.16628e-30
1.33568e-30
6.27414e-31
-1.34955e-30
-4.42362e-30
-7.39998e-30
-7.88733e-30
-2.83328e-30
9.89839e-30
2.89878e-29
4.70023e-29
4.94019e-29
1.76123e-29
-6.18535e-29
-1.82433e-28
-3.01157e-28
-3.30749e-28
-1.54229e-28
3.24992e-28
1.09516e-27
1.93078e-27
2.32207e-27
1.52148e-27
-1.20429e-27
-6.0713e-27
-1.20943e-26
-1.6476e-26
-1.45329e-26
-7.50243e-28
2.85466e-26
7.0925e-26
1.12996e-25
1.27365e-25
7.50655e-26
-8.24186e-26
-3.5901e-25
-7.09825e-25
-9.96849e-25
-9.7451e-25
-3.23709e-25
1.23608e-24
3.74157e-24
6.70929e-24
8.8715e-24
8.08463e-24
1.63582e-24
-1.28168e-23
-3.55408e-23
-6.24105e-23
-8.25946e-23
-7.74874e-23
-2.27107e-23
1.04749e-22
3.12773e-22
5.74086e-22
8.03871e-22
8.43992e-22
4.68434e-22
-5.71216e-22
-2.44219e-21
-5.06072e-21
-7.87154e-21
-9.63144e-21
-8.30465e-21
-1.23278e-21
1.42224e-20
3.93832e-20
7.22451e-20
1.04944e-19
1.21326e-19
9.58079e-20
-4.64876e-21
-2.1317e-19
-5.47975e-19
-9.88534e-19
-1.44414e-18
-1.7206e-18
-1.49725e-18
-3.34135e-19
2.2628e-18
6.68673e-18
1.29572e-17
2.03199e-17
2.67498e-17
2.8455e-17
1.95763e-17
-7.60327e-18
-6.15039e-17
-1.48632e-16
-2.69001e-16
-4.09312e-16
-5.34123e-16
-5.76207e-16
-4.28727e-16
5.61424e-17
1.05514e-15
2.73901e-15
5.20379e-15
8.35747e-15
1.17554e-14
1.43874e-14
1.44385e-14
9.0736e-15
-5.65799e-15
-3.46499e-14
-8.30796e-14
-1.54978e-13
-2.50695e-13
-3.62905e-13
-4.70911e-13
-5.33185e-13
-4.78592e-13
-1.97493e-13
4.64849e-13
1.70838e-12
3.76531e-12
6.86465e-12
1.1161e-11
1.66112e-11
2.27781e-11
2.85411e-11
3.16926e-11
2.84086e-11
1.26e-11
-2.48153e-11
-9.66236e-11
-2.19823e-10
-4.15601e-10
-7.08268e-10
-1.12233e-09
-1.67653e-09
-2.37308e-09
-3.17972e-09
-4.00128e-09
-4.63604e-09
-4.71116e-09
-3.58904e-09
-2.34577e-10
6.96964e-09
2.04766e-08
4.39167e-08
8.25531e-08
1.43881e-07
2.38406e-07
3.80647e-07
5.90412e-07
8.94407e-07
1.32824e-06
1.93893e-06
2.78791e-06
3.9548e-06
5.54186e-06
7.67936e-06
1.0532e-05
1.43062e-05
1.92595e-05
2.571e-05
3.40489e-05
4.47533e-05
5.84022e-05
7.56937e-05
9.7464e-05
0.00012471
0.000158611
0.000200558
0.000252181
0.000315377
0.000392347
0.000485628
0.000598132
0.000733183
0.000894555
0.00108652
0.00131387
0.00158198
0.00189684
0.00226509
0.00269405
0.00319177
0.00376704
0.00442944
0.00518933
0.00605789
0.0070471
0.00816976
0.00943947
0.0108706
0.0124783
0.0142783
0.0162872
0.0185221
0.0210005
0.0237404
0.0267603
0.0300786
0.033714
0.0376852
0.0420106
0.0467084
0.0517963
0.0572914
0.0632099
0.0695673
0.0763777
0.0836542
0.0914083
0.0996501
0.108388
0.117628
0.127375
0.137631
0.148397
0.159671
0.171448
0.183721
0.196483
0.209721
0.223422
0.23757
0.252146
0.267131
0.282501
0.298233
0.314299
0.330673
0.347325
0.364223
0.381336
0.398631
0.416074
0.433631
0.451267
0.468947
0.486636
0.5043
0.521905
0.539418
0.556804
0.574034
0.591075
0.6079
0.62448
0.640789
0.656801
0.672496
0.68785
0.702845
0.717464
0.731691
0.745512
0.758916
0.771894
0.784437
0.79654
0.808198
0.819408
0.830171
0.840485
0.850354
0.85978
0.868768
0.877324
0.885454
0.893165
0.900466
0.907365
0.91387
0.919992
0.925739
0.931122
0.93615
0.940831
0.945175
0.94919
0.952884
0.956264
0.959337
0.962109
0.964582
0.966764
0.96865
0.970262
0.971538
0.972637
0.973329
)
;

boundaryField
{
    sides
    {
        type            zeroGradient;
    }
    empty
    {
        type            empty;
    }
}


// ************************************************************************* //
