/*--------------------------------*- C++ -*----------------------------------*\
| =========                 |                                                 |
| \\      /  F ield         | OpenFOAM: The Open Source CFD Toolbox           |
|  \\    /   O peration     | Version:  2112                                  |
|   \\  /    A nd           | Website:  www.openfoam.com                      |
|    \\/     M anipulation  |                                                 |
\*---------------------------------------------------------------------------*/
FoamFile
{
    version     2.0;
    format      ascii;
    arch        "LSB;label=32;scalar=64";
    class       volScalarField;
    location    "0.001";
    object      mag(U);
}
// * * * * * * * * * * * * * * * * * * * * * * * * * * * * * * * * * * * * * //

dimensions      [0 1 -1 0 0 0 0];

internalField   nonuniform List<scalar> 
100
(
2.29458e-12
4.90133e-13
3.25297e-13
2.90287e-13
1.38725e-12
2.20122e-12
7.87714e-14
9.36505e-13
1.45873e-15
1.25159e-12
2.91746e-15
8.02302e-14
3.15005e-29
1.45873e-13
0
1.45873e-13
3.22878e-29
0
0
0
0
0
0
0
0
0
0
0
2.91746e-14
7.86255e-13
8.17035e-12
9.96823e-11
1.02762e-09
1.11176e-08
1.03041e-07
9.90533e-07
8.12064e-06
6.79911e-05
0.000483533
0.00343137
0.0205995
0.119053
0.577547
2.54024
8.70894
23.8312
52.103
94.9727
148.651
195.254
236.032
273.968
306.496
315.957
284.419
188.615
54.3075
7.86522
1.07846
0.140851
0.0177319
0.00211798
0.000239099
2.53555e-05
2.54395e-06
2.3999e-07
2.15591e-08
1.82683e-09
1.4829e-10
1.12833e-11
7.57082e-13
1.89635e-14
3.5643e-29
1.45873e-13
1.45873e-13
3.56632e-29
0
3.10371e-29
1.45873e-13
1.45873e-13
3.56632e-29
0
3.10371e-29
1.45873e-13
1.45873e-13
3.56632e-29
0
3.09387e-29
1.45873e-13
1.45873e-13
1.44414e-13
5.4717e-31
1.44414e-13
0
0
1.44414e-13
5.4717e-31
1.44414e-13
1.45873e-13
1.44414e-13
)
;

boundaryField
{
    sides
    {
        type            calculated;
        value           nonuniform List<scalar> 2(1.44414e-13 2.29458e-12);
    }
    empty
    {
        type            empty;
    }
}


// ************************************************************************* //
