/*--------------------------------*- C++ -*----------------------------------*\
| =========                 |                                                 |
| \\      /  F ield         | OpenFOAM: The Open Source CFD Toolbox           |
|  \\    /   O peration     | Version:  2112                                  |
|   \\  /    A nd           | Website:  www.openfoam.com                      |
|    \\/     M anipulation  |                                                 |
\*---------------------------------------------------------------------------*/
FoamFile
{
    version     2.0;
    format      ascii;
    arch        "LSB;label=32;scalar=64";
    class       surfaceScalarField;
    location    "0.001";
    object      phi;
}
// * * * * * * * * * * * * * * * * * * * * * * * * * * * * * * * * * * * * * //

dimensions      [1 0 -1 0 0 0 0];

oriented        oriented;

internalField   nonuniform List<scalar> 
99
(
6.4091e-12
1.49214e-13
1.77636e-13
-2.90612e-12
1.47082e-12
5.14433e-12
-2.84217e-12
-1.25056e-12
-3.44613e-12
-1.97531e-12
-2.98428e-13
-1.06581e-13
-2.62901e-13
-3.2685e-13
3.2685e-13
2.62901e-13
0
0
0
0
0
0
0
0
0
0
0
4.26326e-14
1.16529e-12
1.31806e-11
1.58458e-10
1.68738e-09
1.82422e-08
1.74727e-07
1.68153e-06
1.42942e-05
0.00012015
0.00088959
0.00636955
0.0400184
0.235589
1.20719
5.53496
21.4524
67.202
150.324
269.226
385.043
470.547
504.067
476.72
442.279
403.261
381.991
325.911
74.2045
13.7897
1.85407
0.244746
0.0316453
0.00393222
0.000462639
5.13616e-05
5.36119e-06
5.29092e-07
4.9197e-08
4.35206e-09
3.64027e-10
2.91074e-11
2.17204e-12
1.32339e-13
2.66454e-15
-3.73035e-14
0
3.73035e-14
0
0
-3.10862e-14
-1.33227e-15
3.73035e-14
0
0
-3.10862e-14
-1.33227e-15
3.73035e-14
0
0
-3.10862e-14
-1.33227e-15
6.9722e-14
4.17444e-14
-4.08562e-14
-3.19744e-14
0
3.24185e-14
4.08562e-14
-4.17444e-14
-6.57252e-14
-8.17124e-14
)
;

boundaryField
{
    sides
    {
        type            calculated;
        value           nonuniform List<scalar> 2(-7.13044e-14 -9.05129e-12);
    }
    empty
    {
        type            empty;
        value           nonuniform List<scalar> 0();
    }
}


// ************************************************************************* //
