/*--------------------------------*- C++ -*----------------------------------*\
| =========                 |                                                 |
| \\      /  F ield         | OpenFOAM: The Open Source CFD Toolbox           |
|  \\    /   O peration     | Version:  2112                                  |
|   \\  /    A nd           | Website:  www.openfoam.com                      |
|    \\/     M anipulation  |                                                 |
\*---------------------------------------------------------------------------*/
FoamFile
{
    version     2.0;
    format      ascii;
    arch        "LSB;label=32;scalar=64";
    class       volVectorField;
    location    "0.001";
    object      U;
}
// * * * * * * * * * * * * * * * * * * * * * * * * * * * * * * * * * * * * * //

dimensions      [0 1 -1 0 0 0 0];

internalField   nonuniform List<vector> 
100
(
(2.29458e-12 0 0)
(4.90133e-13 0 0)
(-3.25297e-13 0 0)
(2.90287e-13 0 0)
(-1.38725e-12 0 0)
(2.20122e-12 0 0)
(-7.87714e-14 0 0)
(-9.36505e-13 0 0)
(-1.45873e-15 0 0)
(-1.25159e-12 0 0)
(-2.91746e-15 0 0)
(-8.02302e-14 0 0)
(-3.15005e-29 0 0)
(-1.45873e-13 0 0)
(0 0 0)
(1.45873e-13 0 0)
(3.22878e-29 0 0)
(0 0 0)
(0 0 0)
(0 0 0)
(0 0 0)
(0 0 0)
(0 0 0)
(0 0 0)
(0 0 0)
(0 0 0)
(0 0 0)
(0 0 0)
(2.91746e-14 0 0)
(7.86255e-13 0 0)
(8.17035e-12 0 0)
(9.96823e-11 0 0)
(1.02762e-09 0 0)
(1.11176e-08 0 0)
(1.03041e-07 0 0)
(9.90533e-07 0 0)
(8.12064e-06 0 0)
(6.79911e-05 0 0)
(0.000483533 0 0)
(0.00343137 0 0)
(0.0205995 0 0)
(0.119053 0 0)
(0.577547 0 0)
(2.54024 0 0)
(8.70894 0 0)
(23.8312 0 0)
(52.103 0 0)
(94.9727 0 0)
(148.651 0 0)
(195.254 0 0)
(236.032 0 0)
(273.968 0 0)
(306.496 0 0)
(315.957 0 0)
(284.419 0 0)
(188.615 0 0)
(54.3075 0 0)
(7.86522 0 0)
(1.07846 0 0)
(0.140851 0 0)
(0.0177319 0 0)
(0.00211798 0 0)
(0.000239099 0 0)
(2.53555e-05 0 0)
(2.54395e-06 0 0)
(2.3999e-07 0 0)
(2.15591e-08 0 0)
(1.82683e-09 0 0)
(1.4829e-10 0 0)
(1.12833e-11 0 0)
(7.57082e-13 0 0)
(1.89635e-14 0 0)
(-3.5643e-29 0 0)
(-1.45873e-13 0 0)
(1.45873e-13 0 0)
(3.56632e-29 0 0)
(0 0 0)
(-3.10371e-29 0 0)
(-1.45873e-13 0 0)
(1.45873e-13 0 0)
(3.56632e-29 0 0)
(0 0 0)
(-3.10371e-29 0 0)
(-1.45873e-13 0 0)
(1.45873e-13 0 0)
(3.56632e-29 0 0)
(0 0 0)
(-3.09387e-29 0 0)
(-1.45873e-13 0 0)
(1.45873e-13 0 0)
(1.44414e-13 0 0)
(5.4717e-31 0 0)
(-1.44414e-13 0 0)
(0 0 0)
(0 0 0)
(1.44414e-13 0 0)
(-5.4717e-31 0 0)
(-1.44414e-13 0 0)
(-1.45873e-13 0 0)
(-1.44414e-13 0 0)
)
;

boundaryField
{
    sides
    {
        type            zeroGradient;
    }
    empty
    {
        type            empty;
    }
}


// ************************************************************************* //
