/*--------------------------------*- C++ -*----------------------------------*\
| =========                 |                                                 |
| \\      /  F ield         | OpenFOAM: The Open Source CFD Toolbox           |
|  \\    /   O peration     | Version:  2112                                  |
|   \\  /    A nd           | Website:  www.openfoam.com                      |
|    \\/     M anipulation  |                                                 |
\*---------------------------------------------------------------------------*/
FoamFile
{
    version     2.0;
    format      ascii;
    arch        "LSB;label=32;scalar=64";
    class       volScalarField;
    location    "62.5";
    object      p;
}
// * * * * * * * * * * * * * * * * * * * * * * * * * * * * * * * * * * * * * //

dimensions      [0 2 -2 0 0 0 0];

internalField   nonuniform List<scalar> 
8800
(
0.912898
0.865112
0.826424
0.797431
0.776571
0.761746
0.751159
0.743691
0.73889
0.736859
0.738156
0.74237
0.749033
0.758361
0.77115
0.78889
0.813671
0.847615
0.890167
0.948869
0.744144
0.751823
0.759301
0.76261
0.76111
0.756037
0.749557
0.743491
0.738784
0.735964
0.735713
0.738247
0.742757
0.748718
0.755498
0.761786
0.765431
0.764698
0.759281
0.750594
0.722543
0.728703
0.732831
0.735778
0.737832
0.738442
0.737345
0.735254
0.733259
0.73238
0.733374
0.735782
0.7386
0.740795
0.741412
0.74022
0.737883
0.734494
0.729937
0.726176
0.716725
0.719376
0.72213
0.724536
0.726175
0.727343
0.728094
0.728227
0.727954
0.727936
0.728723
0.729922
0.730783
0.730863
0.730265
0.729182
0.727371
0.724805
0.722404
0.720901
0.711335
0.71276
0.714541
0.716576
0.718364
0.719713
0.720713
0.721527
0.722167
0.722768
0.723458
0.723986
0.72411
0.72384
0.723155
0.721916
0.720227
0.718384
0.717079
0.716247
0.706247
0.707167
0.70841
0.70998
0.711617
0.713149
0.714447
0.715533
0.716526
0.717461
0.718195
0.71856
0.718546
0.718127
0.717261
0.716072
0.714753
0.713499
0.712679
0.712127
0.701325
0.701995
0.702958
0.704264
0.705678
0.707145
0.708597
0.709941
0.711173
0.712327
0.7132
0.713612
0.71356
0.713075
0.712287
0.711352
0.71035
0.709433
0.708851
0.708445
0.696523
0.697039
0.697824
0.698958
0.700241
0.701624
0.703084
0.70458
0.706045
0.707435
0.708502
0.709023
0.709036
0.70868
0.708098
0.707389
0.706627
0.705952
0.705521
0.705203
0.691768
0.692179
0.692837
0.693846
0.695058
0.696395
0.697856
0.699438
0.701101
0.702759
0.704074
0.704791
0.705
0.704864
0.704507
0.70401
0.703454
0.702971
0.702652
0.702393
0.686975
0.68731
0.687878
0.688809
0.689972
0.691296
0.692794
0.694476
0.696328
0.698279
0.699916
0.700931
0.70142
0.701539
0.701413
0.701141
0.70078
0.700458
0.700223
0.700006
0.682055
0.682332
0.68284
0.683725
0.684871
0.686219
0.687792
0.689616
0.6917
0.693989
0.696032
0.697431
0.698255
0.698665
0.698793
0.698748
0.698582
0.698401
0.698233
0.698045
0.676918
0.677151
0.677619
0.678489
0.679657
0.681074
0.682764
0.684783
0.687164
0.689875
0.692415
0.694274
0.69549
0.696236
0.696647
0.696836
0.696866
0.696815
0.696704
0.696536
0.671472
0.67167
0.672119
0.673002
0.674234
0.675764
0.677627
0.679909
0.682668
0.685905
0.689048
0.691455
0.69313
0.694258
0.694988
0.695427
0.69567
0.695741
0.695676
0.695523
0.665616
0.665785
0.666232
0.667158
0.668495
0.670189
0.672291
0.674916
0.678154
0.682043
0.685916
0.688977
0.691194
0.692761
0.693854
0.694596
0.695048
0.695237
0.695213
0.695067
0.65923
0.659375
0.659835
0.660833
0.662322
0.66424
0.666658
0.669721
0.673562
0.678252
0.683007
0.686851
0.689709
0.691794
0.6933
0.694367
0.695063
0.695376
0.695389
0.695247
0.652177
0.652297
0.652784
0.653887
0.655578
0.657789
0.660613
0.664232
0.668822
0.674491
0.680314
0.685091
0.688707
0.691405
0.693399
0.694847
0.695809
0.696248
0.696295
0.696153
0.644271
0.644371
0.644901
0.646145
0.648097
0.65068
0.654021
0.65834
0.663857
0.670722
0.677832
0.683722
0.688233
0.691649
0.694228
0.696117
0.69738
0.697953
0.698031
0.697886
0.63529
0.635391
0.635975
0.637375
0.639659
0.642728
0.646726
0.651921
0.658589
0.666914
0.675566
0.682778
0.688345
0.692603
0.695875
0.698281
0.699882
0.700597
0.700704
0.700551
0.624918
0.624999
0.625674
0.627301
0.63002
0.633708
0.638535
0.644833
0.652928
0.663033
0.673532
0.682298
0.689108
0.694359
0.698424
0.70144
0.703423
0.704285
0.704418
0.704254
0.612783
0.61285
0.613625
0.615563
0.618839
0.623324
0.629214
0.636909
0.646781
0.659053
0.67175
0.682338
0.690587
0.696997
0.701979
0.705704
0.708103
0.709114
0.709266
0.709087
0.598329
0.598385
0.599302
0.601657
0.605671
0.611205
0.618479
0.627963
0.640058
0.654963
0.670254
0.682956
0.692852
0.700587
0.706639
0.711154
0.713996
0.715148
0.71531
0.715113
0.580793
0.580837
0.581967
0.584906
0.589932
0.596884
0.606003
0.617816
0.632709
0.650799
0.669119
0.684228
0.695985
0.705214
0.712447
0.717843
0.721133
0.722405
0.722563
0.722346
0.559011
0.559054
0.560531
0.564351
0.570834
0.579782
0.591429
0.606316
0.624735
0.646649
0.668447
0.686243
0.700054
0.71093
0.719438
0.725775
0.729479
0.730826
0.730963
0.730725
0.53124
0.531303
0.53337
0.538613
0.547359
0.559242
0.574453
0.593425
0.616246
0.642672
0.668389
0.689103
0.705116
0.717746
0.727627
0.734872
0.738901
0.740255
0.740349
0.740091
0.494447
0.49461
0.497888
0.505753
0.518315
0.534676
0.554965
0.5793
0.607508
0.639135
0.669139
0.69293
0.711224
0.725662
0.736928
0.744962
0.749153
0.750418
0.750445
0.750172
0.442813
0.443796
0.450311
0.463562
0.482757
0.506048
0.533341
0.564454
0.599011
0.636409
0.670929
0.697848
0.71842
0.734588
0.74716
0.755746
0.759865
0.760937
0.760889
0.760607
0.367404
0.374695
0.389765
0.413102
0.442183
0.474757
0.510611
0.549529
0.591132
0.634789
0.674145
0.704407
0.727426
0.745484
0.759293
0.76823
0.772131
0.772996
0.772902
0.772655
0.286364
0.303612
0.32803
0.362099
0.401451
0.443442
0.487922
0.53483
0.583863
0.63445
0.679537
0.713945
0.739936
0.760256
0.775471
0.784439
0.787768
0.788356
0.788288
0.788129
0.218815
0.239129
0.271271
0.31446
0.36288
0.413736
0.466578
0.521328
0.577661
0.634989
0.685534
0.723806
0.752563
0.774753
0.79075
0.799404
0.802331
0.802855
0.802848
0.802736
0.163491
0.185463
0.223123
0.272754
0.328345
0.386681
0.446935
0.508892
0.572082
0.63583
0.691575
0.733489
0.764756
0.788586
0.805354
0.81406
0.816822
0.817386
0.81744
0.817345
0.117447
0.140595
0.182044
0.236794
0.298151
0.362663
0.429277
0.497637
0.567117
0.636898
0.697592
0.742973
0.776646
0.80211
0.81976
0.828741
0.831714
0.832155
0.832194
0.832131
0.0784109
0.102218
0.146536
0.205333
0.271539
0.341308
0.41346
0.487534
0.562765
0.638172
0.703565
0.752284
0.788314
0.815389
0.834045
0.843567
0.846662
0.847156
0.847233
0.847187
0.0443555
0.068589
0.11517
0.17731
0.247616
0.321966
0.399031
0.478258
0.558778
0.639468
0.709345
0.761289
0.799602
0.828285
0.847878
0.858007
0.861367
0.8619
0.861971
0.861955
0.0137799
0.0383869
0.086811
0.151807
0.225649
0.304013
0.385484
0.46942
0.554868
0.640569
0.71475
0.769802
0.810308
0.840518
0.861057
0.871728
0.875386
0.876026
0.876093
0.876087
-0.0142882
0.0106531
0.0606518
0.12811
0.205061
0.286987
0.37243
0.460693
0.550756
0.641236
0.71958
0.77764
0.820241
0.851864
0.873314
0.884493
0.888403
0.889163
0.889211
0.889202
-0.0406564
-0.0153343
0.0361011
0.105694
0.185422
0.270528
0.359563
0.451807
0.546206
0.641282
0.723711
0.784717
0.829338
0.862308
0.884508
0.896081
0.900199
0.901028
0.901069
0.90105
-0.0657055
-0.0399975
0.0126931
0.0842117
0.166413
0.254373
0.346664
0.442581
0.541067
0.64059
0.727062
0.791005
0.837599
0.871798
0.894573
0.906459
0.910689
0.911547
0.911562
0.91152
-0.0898669
-0.0636739
-0.00995195
0.0634162
0.147817
0.238338
0.33359
0.432893
0.535219
0.639049
0.72957
0.796508
0.845069
0.880411
0.903698
0.915698
0.919935
0.920807
0.920786
0.920723
-0.113277
-0.0866412
-0.0318606
0.0431343
0.129502
0.22232
0.320251
0.422662
0.528588
0.636591
0.731196
0.801247
0.851857
0.888308
0.911957
0.923934
0.92814
0.928964
0.928924
0.92884
-0.136073
-0.108965
-0.0531574
0.023269
0.1114
0.206269
0.306606
0.411849
0.52113
0.633156
0.731892
0.805246
0.858063
0.895654
0.919555
0.931376
0.935419
0.936165
0.936098
0.935994
-0.158391
-0.130747
-0.073951
0.00378179
0.0934741
0.190171
0.292659
0.400462
0.512835
0.628699
0.731607
0.808508
0.863805
0.902637
0.926667
0.938142
0.941899
0.942524
0.942414
0.94229
-0.180269
-0.151993
-0.0942884
-0.0153372
0.0757465
0.174047
0.278446
0.388531
0.503716
0.623189
0.730281
0.811004
0.86916
0.909445
0.933514
0.944396
0.94767
0.948104
0.947956
0.947825
-0.201553
-0.172679
-0.114104
-0.0340695
0.0582399
0.157953
0.264014
0.376118
0.493821
0.61664
0.727839
0.812666
0.874142
0.916278
0.940421
0.950399
0.952877
0.953
0.952812
0.952688
-0.22223
-0.192785
-0.133392
-0.0523729
0.0410046
0.141939
0.249448
0.363295
0.483219
0.609067
0.724224
0.813374
0.878691
0.923273
0.947822
0.956683
0.957842
0.957313
0.95704
0.956976
-0.242367
-0.212279
-0.152134
-0.0702272
0.024098
0.126084
0.234828
0.350159
0.471995
0.600525
0.71938
0.812978
0.882639
0.930393
0.956131
0.964151
0.963446
0.961457
0.960852
0.961085
-0.261802
-0.231144
-0.170275
-0.087576
0.00757373
0.110466
0.220244
0.336814
0.460256
0.591101
0.713284
0.811293
0.88571
0.937325
0.965406
0.973849
0.971682
0.967277
0.964878
0.964634
-0.280628
-0.249373
-0.187838
-0.104451
-0.00860183
0.0950429
0.205643
0.323206
0.447941
0.580724
0.705802
0.808041
0.887608
0.943586
0.975072
0.986175
0.98495
0.97806
0.970338
0.956495
-0.298774
-0.266951
-0.204938
-0.121052
-0.024708
0.0794903
0.190619
0.308868
0.434531
0.568779
0.696319
0.802479
0.887823
0.948545
0.983541
0.999122
0.999396
0.986391
0.966188
0.955113
-0.316071
-0.284023
-0.221386
-0.137187
-0.0403926
0.0641465
0.175394
0.294117
0.42032
0.55551
0.684869
0.79409
0.885463
0.951015
0.98671
1.00214
1.00471
0.980671
0.913147
0.882931
-0.331855
-0.301847
-0.236864
-0.152377
-0.0548602
0.0495099
0.160284
0.279179
0.405523
0.541032
0.671364
0.782529
0.879022
0.950255
0.979413
0.989768
0.976902
0.92163
0.852422
0.809896
-0.386929
-0.31757
-0.25088
-0.167754
-0.0697508
0.0341072
0.145217
0.263767
0.38976
0.524869
0.655168
0.767082
0.864494
0.942361
0.945354
0.94619
0.893993
0.822095
0.744847
0.701877
-0.348599
-0.332647
-0.271806
-0.1876
-0.0918004
0.0120125
0.122096
0.240002
0.365022
0.498759
0.627232
0.737696
0.827655
0.910827
0.895306
0.778923
0.67174
0.597199
0.523028
0.552728
-0.379189
-0.350047
-0.288316
-0.204946
-0.109172
-0.00547668
0.104875
0.222144
0.346098
0.478039
0.603747
0.710027
0.79032
0.83466
0.784379
0.632619
0.502883
0.410215
0.310769
0.360078
-0.402763
-0.370695
-0.30779
-0.224285
-0.128392
-0.0248002
0.0854643
0.201896
0.324446
0.453979
0.575958
0.676006
0.747331
0.756872
0.648132
0.473251
0.318964
0.198965
0.0671044
0.0995202
-0.425814
-0.392236
-0.328172
-0.243753
-0.147785
-0.0443492
0.0653844
0.180848
0.301796
0.428533
0.545795
0.637996
0.693804
0.671542
0.51092
0.312978
0.121472
-0.0473421
-0.23639
-0.255288
-0.448278
-0.414263
-0.349319
-0.264128
-0.16803
-0.0648224
0.0442541
0.158621
0.277703
0.401235
0.513049
0.597286
0.6333
0.574417
0.380314
0.168436
-0.0497772
-0.239725
-0.482098
-0.779358
-0.471044
-0.437028
-0.371554
-0.285885
-0.189609
-0.086576
0.0219128
0.135146
0.252248
0.372298
0.478359
0.553973
0.568678
0.458486
0.266654
0.0554793
-0.149746
-0.322742
-0.392623
-0.471612
-0.495065
-0.460987
-0.395222
-0.309333
-0.213013
-0.11025
-0.00244172
0.109483
0.224281
0.340316
0.440195
0.504573
0.494149
0.350269
0.165641
-0.0265013
-0.190357
-0.283928
-0.308173
-0.324039
-0.520646
-0.486444
-0.420492
-0.334549
-0.238372
-0.136053
-0.029167
0.0811453
0.193219
0.304586
0.397742
0.447853
0.419659
0.249811
0.0741511
-0.0929102
-0.220416
-0.259776
-0.272632
-0.273944
-0.547987
-0.513572
-0.447432
-0.361529
-0.265638
-0.163991
-0.0582821
0.0500839
0.158995
0.265115
0.350639
0.38608
0.338372
0.157117
-0.00943392
-0.159082
-0.236091
-0.2531
-0.254365
-0.254153
-0.577152
-0.542438
-0.476069
-0.390276
-0.294829
-0.194054
-0.0897913
0.016285
0.121627
0.221977
0.298989
0.322862
0.238755
0.0725765
-0.0855854
-0.209
-0.245939
-0.244275
-0.243306
-0.242674
-0.607857
-0.572863
-0.506301
-0.420703
-0.32586
-0.22619
-0.123664
-0.0202244
0.0811556
0.175287
0.243659
0.250582
0.148178
-0.00582345
-0.145685
-0.222359
-0.232712
-0.23531
-0.235975
-0.235682
-0.639557
-0.604408
-0.537876
-0.452587
-0.358548
-0.260244
-0.159749
-0.0593123
0.0377651
0.125397
0.185145
0.176671
0.0667958
-0.0718988
-0.189063
-0.220877
-0.229437
-0.230916
-0.230711
-0.230429
-0.671788
-0.636526
-0.570351
-0.485536
-0.392556
-0.295901
-0.197773
-0.100691
-0.00825914
0.0730072
0.122502
0.106646
-0.0085465
-0.125206
-0.217568
-0.235016
-0.227111
-0.226535
-0.226647
-0.226454
-0.703658
-0.668494
-0.602854
-0.518967
-0.427346
-0.332696
-0.237292
-0.143884
-0.0564492
0.0187669
0.0584427
0.0422746
-0.0756165
-0.166298
-0.216371
-0.228533
-0.22652
-0.225393
-0.224887
-0.22468
-0.733615
-0.699146
-0.634424
-0.551963
-0.462164
-0.369941
-0.277667
-0.188217
-0.106003
-0.0367073
-0.000516379
-0.0286254
-0.132195
-0.20843
-0.205457
-0.223545
-0.227559
-0.225578
-0.224679
-0.224214
-0.760057
-0.726672
-0.663935
-0.58335
-0.495986
-0.406722
-0.31805
-0.232858
-0.155785
-0.0925129
-0.0562983
-0.0961759
-0.183142
-0.24628
-0.256548
-0.244931
-0.236118
-0.231576
-0.229837
-0.228963
-0.780868
-0.749207
-0.68936
-0.611727
-0.527549
-0.441914
-0.357384
-0.276814
-0.204683
-0.147281
-0.113062
-0.147959
-0.219702
-0.312884
-0.332918
-0.285682
-0.255342
-0.245997
-0.242273
-0.240473
-0.793823
-0.764868
-0.708778
-0.635233
-0.555373
-0.474225
-0.394492
-0.318931
-0.251685
-0.199227
-0.166279
-0.183629
-0.214968
-0.300833
-0.287329
-0.266669
-0.260728
-0.256437
-0.25268
-0.251895
-0.796299
-0.771402
-0.72026
-0.652067
-0.577783
-0.502294
-0.428098
-0.358021
-0.295736
-0.247243
-0.209477
-0.199699
-0.151032
-0.148282
-0.172238
-0.203088
-0.223323
-0.230555
-0.23402
-0.235137
-0.786083
-0.766052
-0.721631
-0.660631
-0.593314
-0.524626
-0.45693
-0.39285
-0.335951
-0.291271
-0.244486
-0.215402
-0.104687
0.080453
-0.0429045
-0.159886
-0.214205
-0.235451
-0.243942
-0.246518
-0.761196
-0.746148
-0.711072
-0.65968
-0.600958
-0.54022
-0.479802
-0.422196
-0.371296
-0.331466
-0.282942
-0.280569
-0.253595
-0.16748
-0.238716
-0.303662
-0.323803
-0.330869
-0.334619
-0.337088
-0.724168
-0.714488
-0.689382
-0.649337
-0.60064
-0.548715
-0.495969
-0.444984
-0.400112
-0.367378
-0.347725
-0.427713
-0.674392
-1.05191
-1.04295
-0.744007
-0.547183
-0.470899
-0.450778
-0.445769
-0.681681
-0.676219
-0.661363
-0.632343
-0.594153
-0.550766
-0.505186
-0.460175
-0.419934
-0.392393
-0.379748
-0.472324
-0.561446
-0.65817
-0.584785
-0.431042
-0.367234
-0.351807
-0.338042
-0.330721
-0.643436
-0.640171
-0.633114
-0.613985
-0.584379
-0.54795
-0.508331
-0.467022
-0.428294
-0.397225
-0.386832
-0.327396
-0.167211
0.059963
0.197908
0.102601
-0.039427
-0.129215
-0.152087
-0.160857
-0.61581
-0.613823
-0.610228
-0.59842
-0.575043
-0.543312
-0.506947
-0.466952
-0.42564
-0.388051
-0.370921
-0.323839
-0.254597
-0.241309
-0.360725
-0.582316
-0.727081
-0.711093
-0.626735
-0.586361
-0.594395
-0.593629
-0.592436
-0.586613
-0.568846
-0.539975
-0.503754
-0.46221
-0.416985
-0.373105
-0.345533
-0.342746
-0.330881
-0.430674
-0.56187
-0.67625
-0.767052
-0.744678
-0.668788
-0.632951
-0.581895
-0.581596
-0.580999
-0.578381
-0.56565
-0.537975
-0.49974
-0.454517
-0.403725
-0.344159
-0.29678
-0.244984
-0.229698
-0.254629
-0.364079
-0.440651
-0.37714
-0.223493
-0.0878525
-0.0275535
-0.573501
-0.573317
-0.572755
-0.571912
-0.56429
-0.538103
-0.497182
-0.446693
-0.385346
-0.313231
-0.234818
-0.127486
0.0299004
0.178294
0.339773
0.493491
0.704419
0.910967
1.03725
1.0835
-0.568889
-0.568573
-0.567737
-0.567245
-0.563887
-0.541311
-0.497408
-0.439939
-0.370144
-0.286016
-0.177536
-0.0614624
0.157634
0.474714
0.841748
1.2133
1.51765
1.72004
1.82087
1.85041
-0.568325
-0.568571
-0.569288
-0.570255
-0.570172
-0.54831
-0.500157
-0.436877
-0.360446
-0.263034
-0.148786
-0.0339115
0.188147
0.546044
0.966185
1.34614
1.64692
1.82536
1.90248
1.92165
-0.56541
-0.56677
-0.570291
-0.575562
-0.577046
-0.553829
-0.504817
-0.440515
-0.358254
-0.255874
-0.141692
-0.0229613
0.132788
0.468474
0.83187
1.15657
1.39823
1.5327
1.58807
1.60045
-0.568607
-0.568568
-0.562924
-0.550409
-0.540566
-0.536901
-0.510683
-0.450947
-0.363643
-0.257657
-0.147498
-0.0372909
0.0775246
0.327661
0.61817
0.862325
1.04212
1.13665
1.17341
1.18004
-0.606662
-0.602134
-0.581958
-0.54404
-0.521829
-0.538401
-0.535427
-0.470753
-0.3751
-0.265566
-0.159886
-0.0635875
0.0206427
0.196612
0.405209
0.577701
0.702205
0.764649
0.787676
0.790685
-0.693003
-0.694206
-0.705593
-0.723329
-0.716617
-0.697759
-0.622964
-0.50717
-0.387893
-0.271852
-0.173163
-0.0918765
-0.0264531
0.0979926
0.234971
0.343271
0.420906
0.457875
0.471345
0.47276
-0.829245
-0.850506
-0.897577
-0.935318
-0.930059
-0.873609
-0.716774
-0.542672
-0.394461
-0.274623
-0.183428
-0.113443
-0.0576534
0.022559
0.103816
0.164144
0.19999
0.215726
0.221696
0.222334
-0.874713
-0.897638
-0.936321
-0.965669
-0.960137
-0.891638
-0.716906
-0.529451
-0.378563
-0.2641
-0.186188
-0.13167
-0.0886399
-0.0317696
0.0102778
0.0345706
0.0438251
0.0454225
0.0481068
0.0494336
-0.720519
-0.742281
-0.77896
-0.811618
-0.810645
-0.738011
-0.588333
-0.444662
-0.325196
-0.235441
-0.177411
-0.142429
-0.116378
-0.075989
-0.0468134
-0.0339311
-0.0335784
-0.0337522
-0.031393
-0.0300102
-0.395738
-0.411686
-0.440978
-0.4735
-0.486966
-0.456126
-0.386494
-0.310318
-0.243778
-0.18988
-0.157172
-0.146079
-0.137305
-0.102458
-0.0732832
-0.057058
-0.0491896
-0.0448255
-0.04234
-0.0418473
-0.0665966
-0.0747229
-0.0935647
-0.122931
-0.154188
-0.171751
-0.178082
-0.170775
-0.154707
-0.1352
-0.125984
-0.13338
-0.13673
-0.0991613
-0.0657931
-0.0434766
-0.0306743
-0.0237251
-0.0212462
-0.0215684
0.141582
0.137498
0.124349
0.0974426
0.0563694
0.00841273
-0.0312697
-0.0592925
-0.0737938
-0.0782794
-0.0823274
-0.0942725
-0.0957654
-0.0633641
-0.0360963
-0.0182432
-0.00611241
5.62258e-05
0.00181575
0.00117116
0.223753
0.221412
0.211847
0.18915
0.150853
0.102766
0.0553823
0.0158536
-0.01114
-0.0254551
-0.0306989
-0.0318617
-0.0230905
-0.00611617
0.00523708
0.012879
0.0188893
0.0221177
0.0227442
0.0219539
0.232814
0.231275
0.224576
0.207947
0.178996
0.141021
0.100174
0.0629928
0.0348757
0.0196752
0.0198862
0.032523
0.0506174
0.0510168
0.0468153
0.0451428
0.0452921
0.0459673
0.0456281
0.0446308
0.212162
0.211211
0.20688
0.195831
0.176094
0.149187
0.11838
0.0888571
0.0654697
0.0538063
0.0593575
0.0781038
0.0972257
0.0895728
0.0774854
0.0705361
0.0672648
0.0660416
0.0651375
0.0640798
0.182917
0.182396
0.179799
0.172911
0.1602
0.142212
0.120665
0.0992794
0.0824667
0.0757691
0.084433
0.102892
0.116786
0.106507
0.0941881
0.0865909
0.0817876
0.0781496
0.0759699
0.0749424
0.152744
0.152581
0.151146
0.147089
0.139293
0.127869
0.113791
0.0996203
0.0888991
0.0866404
0.0970057
0.11259
0.119818
0.109724
0.0992036
0.0911991
0.0852555
0.0809772
0.0785507
0.0779198
0.124258
0.124177
0.12344
0.121196
0.116649
0.109764
0.101116
0.092506
0.086912
0.0886153
0.101015
0.115956
0.120009
0.109733
0.100325
0.0928799
0.0869276
0.0820487
0.0799628
0.0796106
0.0974461
0.0974984
0.0971893
0.0960709
0.0936512
0.0898133
0.0849398
0.0803567
0.0784424
0.0830077
0.0975471
0.11469
0.120177
0.108035
0.0986769
0.0924567
0.0883257
0.0849754
0.0837121
0.0833045
0.0722729
0.0723624
0.0723076
0.0718977
0.0707952
0.0689308
0.0665267
0.064454
0.064676
0.0702264
0.0843619
0.103295
0.111864
0.100497
0.0900678
0.0862833
0.0848462
0.0843496
0.0836687
0.0830143
0.0485117
0.0486017
0.0486651
0.0486178
0.048281
0.0475508
0.0465913
0.0459248
0.0468795
0.0513951
0.060775
0.0718755
0.0765808
0.0683517
0.0661177
0.0687477
0.0712066
0.0724889
0.0719153
0.0710479
0.0260654
0.0261397
0.0262383
0.0263525
0.0263736
0.0262642
0.0261
0.0262095
0.026536
0.0287926
0.0299722
0.0216707
0.0175838
0.0203119
0.0298015
0.0391239
0.0452824
0.0464921
0.0455512
0.0446705
0.00485851
0.00490051
0.00488712
0.0049839
0.00524387
0.00543149
0.00548057
0.00539807
0.00555451
0.00541303
0.00460181
-0.000655224
-0.00435611
-0.000828791
0.00407478
0.0072551
0.00553258
0.00515367
0.00647673
0.00727494
-0.00919506
0.157206
0.351319
0.520653
0.655686
0.761691
0.849162
0.923668
0.957721
0.934468
0.291848
0.412102
0.541401
0.653016
0.746937
0.824528
0.887331
0.93195
0.954287
0.966437
0.50953
0.591952
0.680297
0.758224
0.82519
0.881202
0.925763
0.958347
0.981946
0.999979
0.669548
0.728563
0.789791
0.846611
0.895981
0.937922
0.972395
0.999923
1.02264
1.04097
0.794431
0.837329
0.883099
0.926701
0.965235
0.998907
1.02775
1.05177
1.07211
1.08996
0.898404
0.931155
0.96914
1.00456
1.03709
1.06626
1.09176
1.11321
1.13103
1.14839
0.990738
1.01936
1.05325
1.08531
1.1152
1.14232
1.16603
1.18573
1.20122
1.2183
1.0792
1.10836
1.14232
1.17432
1.20388
1.23044
1.25328
1.27176
1.28512
1.30215
1.17443
1.20761
1.24423
1.27778
1.30781
1.33398
1.35591
1.37318
1.38504
1.40244
1.28939
1.3272
1.36582
1.40005
1.42939
1.45412
1.47448
1.49037
1.50183
1.5199
1.4343
1.47283
1.50896
1.53964
1.56531
1.5874
1.60645
1.62197
1.6344
1.65239
1.60936
1.64098
1.66715
1.68959
1.70956
1.72828
1.74599
1.76247
1.77781
1.79588
1.79796
1.81516
1.83019
1.84642
1.86232
1.87685
1.89006
1.90398
1.92152
1.94167
1.97968
1.98921
2.00075
2.01156
2.02084
2.03042
2.0412
2.05257
2.06393
2.07929
2.18691
2.19057
2.17562
2.16081
2.15454
2.16021
2.17869
2.209
2.24117
2.26783
2.49323
2.35836
2.28172
2.23934
2.22191
2.22588
2.25327
2.30969
2.41231
2.63667
0.803495
0.801367
0.796884
0.788261
0.77604
0.763914
0.753691
0.745804
0.740198
0.736961
0.736626
0.739384
0.744502
0.751735
0.76113
0.772674
0.785328
0.796364
0.802477
0.805532
0.727944
0.733791
0.740125
0.744619
0.747092
0.746771
0.744039
0.740238
0.736741
0.734498
0.734372
0.736589
0.740267
0.744567
0.748381
0.750269
0.749336
0.745857
0.740695
0.734075
0.71951
0.721806
0.725211
0.728209
0.730287
0.731787
0.732549
0.732241
0.731229
0.730366
0.730563
0.732011
0.733842
0.735159
0.735347
0.734462
0.732917
0.730584
0.727322
0.724403
0.713987
0.715073
0.716907
0.719287
0.721314
0.722746
0.723773
0.724535
0.724952
0.725196
0.725712
0.726542
0.727157
0.727236
0.726832
0.72599
0.724525
0.722444
0.720361
0.718978
0.708767
0.709429
0.710538
0.712245
0.71403
0.715667
0.716971
0.717998
0.718898
0.719712
0.72047
0.721048
0.721261
0.721108
0.720551
0.719504
0.718081
0.716542
0.715227
0.714448
0.70377
0.70423
0.705017
0.706317
0.707808
0.709331
0.710804
0.712115
0.71327
0.714353
0.715302
0.7159
0.716067
0.71581
0.715124
0.714144
0.713025
0.711898
0.710986
0.71047
0.698915
0.699259
0.699871
0.700941
0.702239
0.703619
0.705067
0.706527
0.707922
0.709233
0.710382
0.711108
0.711312
0.711057
0.710472
0.709706
0.708864
0.708004
0.707335
0.706958
0.694147
0.694415
0.694909
0.69582
0.696994
0.698297
0.699702
0.701206
0.702771
0.704325
0.705718
0.706628
0.706961
0.706865
0.70649
0.705944
0.705307
0.704676
0.704188
0.7039
0.689385
0.689598
0.690008
0.690809
0.691903
0.693159
0.694555
0.696108
0.697806
0.699602
0.701285
0.702461
0.703038
0.703185
0.703042
0.702719
0.702289
0.701851
0.701504
0.701279
0.68454
0.684711
0.685063
0.685791
0.686839
0.688074
0.689499
0.691137
0.692995
0.695048
0.697079
0.698617
0.69952
0.699957
0.700069
0.699977
0.699762
0.699497
0.699267
0.699087
0.679522
0.67966
0.679971
0.680654
0.681686
0.682946
0.684439
0.686205
0.688276
0.690644
0.693099
0.695087
0.696381
0.697155
0.697557
0.697712
0.697708
0.697613
0.697481
0.697337
0.674243
0.674354
0.674637
0.675301
0.676352
0.677682
0.679287
0.681235
0.683585
0.686352
0.68933
0.691858
0.693615
0.694779
0.695508
0.695933
0.696149
0.696225
0.69618
0.696063
0.668605
0.668693
0.66896
0.66963
0.670735
0.672177
0.673949
0.676147
0.678856
0.682126
0.685747
0.688922
0.691228
0.692843
0.693941
0.694683
0.695145
0.695381
0.695412
0.695316
0.6625
0.662567
0.662827
0.663525
0.664722
0.666324
0.668326
0.670853
0.67402
0.677918
0.682323
0.686279
0.689234
0.69138
0.692904
0.693998
0.694732
0.695142
0.695246
0.695167
0.655798
0.655845
0.656107
0.656854
0.658185
0.660002
0.662308
0.665257
0.669002
0.673676
0.679034
0.683928
0.687657
0.69043
0.692454
0.693941
0.694992
0.695589
0.695765
0.6957
0.648343
0.648372
0.648639
0.64946
0.650967
0.653065
0.65576
0.659245
0.663714
0.669343
0.675858
0.681877
0.686525
0.690036
0.692653
0.694613
0.696018
0.696817
0.697065
0.697009
0.639936
0.639952
0.640223
0.641141
0.642884
0.645327
0.648524
0.652686
0.658058
0.664861
0.672778
0.68014
0.685877
0.690257
0.693574
0.696098
0.697907
0.698929
0.699249
0.699201
0.630274
0.63026
0.630589
0.63165
0.633677
0.636577
0.640411
0.645426
0.651925
0.660173
0.669786
0.678746
0.685766
0.691169
0.695305
0.698491
0.700767
0.702033
0.702425
0.70238
0.619061
0.619022
0.619397
0.620652
0.623051
0.62654
0.631184
0.637281
0.645191
0.655219
0.666876
0.677727
0.686247
0.692848
0.697947
0.70189
0.704705
0.706231
0.706692
0.706648
0.605813
0.605747
0.606201
0.60771
0.610595
0.614853
0.620547
0.628032
0.637723
0.649942
0.664052
0.677125
0.687383
0.695363
0.701583
0.706401
0.709814
0.71161
0.712133
0.712083
0.58988
0.589785
0.590365
0.592226
0.595763
0.601047
0.608134
0.617431
0.629392
0.644318
0.661353
0.677004
0.689246
0.698791
0.70629
0.712091
0.716157
0.718219
0.718789
0.718726
0.570319
0.570197
0.57098
0.573358
0.577812
0.584523
0.593513
0.605224
0.620104
0.638367
0.658855
0.677448
0.691919
0.703211
0.712103
0.719005
0.723747
0.726048
0.726638
0.726556
0.545709
0.545571
0.546688
0.549867
0.555711
0.56451
0.576197
0.591195
0.609845
0.632189
0.656693
0.678573
0.695476
0.708666
0.719062
0.727142
0.732524
0.734997
0.735572
0.735462
0.513735
0.513619
0.515349
0.519915
0.528065
0.540118
0.555763
0.575268
0.598739
0.625984
0.655054
0.680519
0.7
0.71519
0.72717
0.736414
0.742321
0.744857
0.745368
0.745224
0.470238
0.470286
0.473363
0.480817
0.493241
0.510596
0.5321
0.557681
0.587158
0.62012
0.654226
0.683458
0.705582
0.72279
0.736328
0.746649
0.752847
0.755276
0.755674
0.755495
0.407426
0.408634
0.416154
0.430055
0.450287
0.47608
0.505832
0.53915
0.575733
0.615066
0.654488
0.68754
0.712258
0.731403
0.746359
0.757445
0.763641
0.765726
0.765957
0.765756
0.33297
0.33474
0.34913
0.372995
0.404165
0.439923
0.478672
0.520234
0.564424
0.61076
0.656312
0.694047
0.722075
0.743634
0.760242
0.772053
0.778044
0.779845
0.780036
0.779928
0.256164
0.262365
0.283613
0.317732
0.359314
0.404739
0.452444
0.502294
0.55417
0.607623
0.659478
0.702035
0.733448
0.757497
0.775949
0.788151
0.793519
0.794839
0.794962
0.794926
0.193327
0.20184
0.227654
0.268793
0.318534
0.372206
0.427988
0.485605
0.544829
0.605139
0.66303
0.710133
0.744681
0.770908
0.790516
0.802924
0.80813
0.809302
0.809431
0.809451
0.142219
0.151329
0.180693
0.227072
0.282974
0.343299
0.405917
0.47039
0.536314
0.603042
0.66667
0.718099
0.755589
0.78386
0.804769
0.81761
0.822607
0.82389
0.824115
0.824174
0.0994577
0.108847
0.14066
0.191039
0.251998
0.317841
0.386255
0.456729
0.528699
0.601372
0.670411
0.725971
0.766295
0.796566
0.81874
0.832117
0.837436
0.838949
0.839192
0.839271
0.0626779
0.0721748
0.105823
0.159404
0.224547
0.295102
0.368579
0.444381
0.521829
0.599996
0.674142
0.73366
0.776736
0.808977
0.832472
0.846648
0.852398
0.854052
0.854314
0.854393
0.0302048
0.039733
0.0747876
0.131075
0.199724
0.274345
0.3523
0.432893
0.515367
0.598674
0.677681
0.741004
0.786739
0.82087
0.845622
0.860622
0.866837
0.868644
0.86892
0.868989
0.000750514
0.0103132
0.0465217
0.105142
0.176797
0.254977
0.336917
0.421867
0.508995
0.597152
0.680813
0.747809
0.7961
0.832014
0.857983
0.873705
0.880436
0.882361
0.882639
0.882685
-0.0265701
-0.016966
0.0202467
0.0808909
0.155218
0.236552
0.322062
0.410981
0.502429
0.595182
0.683347
0.753926
0.804689
0.842309
0.869369
0.885732
0.892877
0.894906
0.895178
0.895188
-0.0523276
-0.0426664
-0.00451153
0.05784
0.134577
0.218726
0.307451
0.399992
0.495459
0.592593
0.685159
0.759284
0.812466
0.851708
0.879751
0.89659
0.90399
0.906118
0.906386
0.906369
-0.0770204
-0.0672135
-0.0282002
0.0357009
0.114593
0.201254
0.292883
0.388736
0.487953
0.589264
0.686149
0.763844
0.81945
0.860242
0.889146
0.906348
0.913866
0.915987
0.916261
0.916217
-0.100911
-0.090893
-0.0511416
0.0142723
0.095078
0.183981
0.278232
0.377112
0.479805
0.585099
0.686251
0.76758
0.825685
0.86802
0.897676
0.915084
0.922587
0.924689
0.924928
0.924868
-0.124109
-0.11389
-0.0733864
-0.00659287
0.075914
0.166829
0.263429
0.365056
0.470959
0.58003
0.685401
0.770489
0.831236
0.87518
0.905501
0.922982
0.930374
0.932383
0.932574
0.932485
-0.146793
-0.136283
-0.0950369
-0.0269794
0.0570448
0.14975
0.248448
0.352551
0.4614
0.574026
0.683541
0.772546
0.836167
0.881874
0.912836
0.93022
0.937356
0.939207
0.939339
0.939228
-0.168918
-0.158144
-0.116186
-0.0469384
0.0384567
0.132748
0.233312
0.339624
0.451138
0.567067
0.680622
0.773703
0.840527
0.888253
0.91986
0.936959
0.943647
0.945251
0.945294
0.945161
-0.190553
-0.179484
-0.136769
-0.0664595
0.020162
0.115848
0.218054
0.326323
0.440216
0.559165
0.676601
0.773892
0.844303
0.894441
0.926834
0.943451
0.949375
0.950567
0.950504
0.950359
-0.211538
-0.200243
-0.156784
-0.0855032
0.00220028
0.0991152
0.202732
0.312712
0.4287
0.55037
0.671446
0.773026
0.847428
0.900508
0.934056
0.950102
0.954858
0.955307
0.955052
0.954909
-0.232013
-0.220383
-0.176224
-0.10406
-0.0154009
0.0825828
0.187433
0.298866
0.416672
0.540752
0.665159
0.770995
0.849758
0.906399
0.941774
0.957526
0.960763
0.959803
0.959031
0.958893
-0.251819
-0.239882
-0.195063
-0.12209
-0.0325679
0.0663322
0.172236
0.284903
0.404235
0.53037
0.657771
0.767689
0.85109
0.911901
0.949987
0.966399
0.968424
0.965285
0.962909
0.96208
-0.271018
-0.258786
-0.213251
-0.139543
-0.0492676
0.0504302
0.15722
0.270898
0.391498
0.519357
0.649342
0.762995
0.851177
0.916625
0.958211
0.976866
0.979401
0.974704
0.968257
0.960078
-0.289529
-0.277053
-0.230882
-0.156576
-0.0657061
0.0346097
0.142061
0.256465
0.378029
0.507231
0.639364
0.756385
0.849558
0.920277
0.965856
0.988336
0.994144
0.989385
0.978676
0.973744
-0.307307
-0.294608
-0.24794
-0.173163
-0.0818928
0.0188769
0.126768
0.241583
0.363778
0.493865
0.627628
0.747457
0.845425
0.922067
0.970968
0.996632
1.00473
1.00342
0.965402
0.913622
-0.324065