/*--------------------------------*- C++ -*----------------------------------*\
| =========                 |                                                 |
| \\      /  F ield         | OpenFOAM: The Open Source CFD Toolbox           |
|  \\    /   O peration     | Version:  2112                                  |
|   \\  /    A nd           | Website:  www.openfoam.com                      |
|    \\/     M anipulation  |                                                 |
\*---------------------------------------------------------------------------*/
FoamFile
{
    version     2.0;
    format      ascii;
    arch        "LSB;label=32;scalar=64";
    class       volScalarField;
    location    "0.09";
    object      p;
}
// * * * * * * * * * * * * * * * * * * * * * * * * * * * * * * * * * * * * * //

dimensions      [1 -1 -2 0 0 0 0];

internalField   nonuniform List<scalar> 
1000
(
1
1
1
1
1
1
1
1
1
1
1
1
1
1
1
1
1
1
1
1
1
1
1
1
1
1
1
1
1
1
1
1
1
1
1
1
1
1
1
1
1
1
1
1
1
1
1
1
1
1
1
1
1
1
1
1
1
1
1
1
1
1
1
1
1
1
1
1
1
1
1
1
1
1
1
1
1
1
1
1
1
1
1
1
1
1
1
1
1
1
1
1
1
1
1
1
1
1
1
1
1
1
1
1
1
1
1
1
1
1
1
1
1
1
1
1
1
1
1
1
1
1
1
1
1
1
1
1
1
1
1
1
1
1
1
1
1
1
1
1
1
1
1
1
1
1
1
1
1
1
1
1
1
1
1
1
1
1
1
1
1
1
1
1
1
1
1
1
1
1
1
1
1
1
1
1
1
1
1
1
1
1
1
1
1
1
1
1
1
1
1
1
1
1
1
1
1
1
1
1
1
1
1
1
1
1
1
1
1
1
1
1
1
1
1
1
1
1
1
1
1
1
1
1
1
1
1
1
1
1
1
1
1
1
1
1
1
1
1
1
1
1
1
1
1
1
1
1
1
1
1
1
1
1
1
1
1
1
1
1
1
1
1
1
1
1
1
1
1
1
1
1
1
1
1
1
1
1
1
1
1
1
1
1
1
1
1
1
1
1
1
1
1
1
1
1
1
1
1
1
1
1
1
1
1
1
1
1
1
1
1
1
1
1
1
1
1
1
1
0.99999999
0.99999999
0.99999999
0.99999998
0.99999998
0.99999997
0.99999996
0.99999994
0.99999992
0.99999989
0.99999984
0.99999978
0.9999997
0.99999959
0.99999944
0.99999924
0.99999897
0.99999861
0.99999812
0.99999748
0.99999662
0.9999955
0.99999401
0.99999206
0.99998951
0.99998619
0.99998189
0.99997634
0.9999692
0.99996004
0.99994836
0.99993351
0.99991473
0.99989106
0.99986136
0.99982427
0.99977815
0.99972104
0.99965068
0.99956438
0.99945903
0.99933103
0.99917626
0.99899005
0.9987671
0.99850151
0.9981867
0.99781547
0.99737992
0.99687156
0.99628128
0.99559942
0.99481589
0.99392019
0.99290159
0.9917492
0.99045213
0.98899966
0.98738136
0.98558726
0.98360801
0.98143499
0.9790605
0.97647781
0.9736813
0.97066652
0.96743023
0.96397044
0.9602864
0.9563786
0.9522487
0.9478995
0.94333485
0.93855956
0.93357931
0.92840054
0.92303037
0.91747645
0.9117469
0.90585018
0.89979501
0.89359027
0.88724494
0.88076801
0.87416843
0.86745504
0.86063655
0.85372147
0.8467181
0.83963449
0.83247845
0.82525749
0.81797885
0.81064947
0.80327601
0.79586483
0.78842201
0.78095332
0.77346427
0.76596011
0.75844581
0.75092607
0.74340537
0.73588793
0.72837776
0.72087863
0.71339411
0.70592755
0.69848214
0.69106084
0.68366648
0.67630169
0.66896894
0.66167057
0.65440876
0.64718555
0.64000285
0.63286247
0.62576606
0.6187152
0.61171134
0.60475584
0.59784995
0.59099483
0.58419156
0.57744111
0.57074435
0.56410206
0.5575149
0.55098341
0.54450792
0.53808882
0.53172572
0.52541903
0.51916712
0.51297009
0.50682477
0.5007286
0.49467958
0.48879493
0.48298185
0.47710306
0.47154729
0.46580949
0.4602302
0.45481514
0.44945709
0.4439617
0.43877285
0.43342662
0.42830425
0.42305322
0.4179186
0.41286841
0.40790725
0.40303338
0.39824087
0.39353316
0.38890986
0.38436854
0.37990901
0.37553346
0.37124478
0.36704571
0.36293902
0.35892791
0.35501634
0.35120877
0.34751018
0.34392581
0.3404613
0.33712262
0.33391611
0.33084837
0.32792614
0.32515622
0.32254524
0.32009947
0.31782455
0.3157252
0.31380492
0.3120656
0.31050728
0.30912781
0.30792271
0.30688503
0.30600547
0.30527256
0.30467301
0.30419221
0.30381479
0.30352533
0.30330878
0.30315116
0.30303987
0.30296444
0.30291515
0.30288153
0.30286731
0.3028626
0.30286284
0.30287375
0.30288492
0.30290461
0.30292791
0.30295335
0.30297982
0.30300634
0.30303205
0.30305625
0.30307849
0.30309856
0.30311644
0.30313226
0.30314625
0.30315865
0.30316973
0.30317972
0.30318882
0.30319719
0.30320495
0.30321219
0.30321898
0.30322537
0.30323138
0.30323705
0.30324239
0.3032474
0.3032521
0.3032565
0.30326062
0.30326448
0.30326809
0.30327148
0.30327466
0.30327759
0.3032803
0.30328279
0.30328489
0.30328668
0.30328771
0.3032873
0.3032866
0.30328499
0.30328219
0.30327829
0.30327342
0.30326773
0.3032614
0.30325469
0.30324782
0.30324106
0.30323463
0.30322886
0.30322403
0.3032204
0.30321909
0.30321892
0.30322042
0.30322377
0.30322918
0.30323659
0.30324585
0.3032567
0.3032688
0.3032817
0.30329493
0.30330799
0.30332042
0.30333161
0.30334127
0.30334913
0.30335506
0.303359
0.30336026
0.30335998
0.30335837
0.30335545
0.30335157
0.30334703
0.30334204
0.30333675
0.30333133
0.30332598
0.30332081
0.30331587
0.30331115
0.30330666
0.30330342
0.3032997
0.30329574
0.30329191
0.30328815
0.3032838
0.30328106
0.30327647
0.30327381
0.3032695
0.30326456
0.30325926
0.30325337
0.30324667
0.30323893
0.30322986
0.30321908
0.30320615
0.30319047
0.3031713
0.30314769
0.30311841
0.30308193
0.30303627
0.30297893
0.30290671
0.3028156
0.30270048
0.3025549
0.30237067
0.30213751
0.30184243
0.30146908
0.30099692
0.3004002
0.29964668
0.2986961
0.29749837
0.2959914
0.2940986
0.29172616
0.2887601
0.28506356
0.28047475
0.27480657
0.2678495
0.25938027
0.24918029
0.23706934
0.22296153
0.20695056
0.18942412
0.1711776
0.15342377
0.13755458
0.12468041
0.11523605
0.10893206
0.1050432
0.10277919
0.10150984
0.10081382
0.10043684
0.10023399
0.10012521
0.10006696
0.1000358
0.10001914
0.10001023
0.10000547
0.10000292
0.10000156
0.10000084
0.10000045
0.10000024
0.10000013
0.10000007
0.10000004
0.10000002
0.10000001
0.10000001
0.1
0.1
0.1
0.1
0.1
0.1
0.1
0.1
0.1
0.1
0.1
0.1
0.1
0.1
0.1
0.1
0.1
0.1
0.1
0.1
0.1
0.1
0.1
0.1
0.1
0.1
0.1
0.1
0.1
0.1
0.1
0.1
0.1
0.1
0.1
0.1
0.1
0.1
0.1
0.1
0.1
0.1
0.1
0.1
0.1
0.1
0.1
0.1
0.1
0.1
0.1
0.1
0.1
0.1
0.1
0.1
0.1
0.1
0.1
0.1
0.1
0.1
0.1
0.1
0.1
0.1
0.1
0.1
0.1
0.1
0.1
0.1
0.1
0.1
0.1
0.1
0.1
0.1
0.1
0.1
0.1
0.1
0.1
0.1
0.1
0.1
0.1
0.1
0.1
0.1
0.1
0.1
0.1
0.1
0.1
0.1
0.1
0.1
0.1
0.1
0.1
0.1
0.1
0.1
0.1
0.1
0.1
0.1
0.1
0.1
0.1
0.1
0.1
0.1
0.1
0.1
0.1
0.1
0.1
0.1
0.1
0.1
0.1
0.1
0.1
0.1
0.1
0.1
0.1
0.1
0.1
0.1
0.1
0.1
0.1
0.1
0.1
0.1
0.1
0.1
0.1
0.1
0.1
0.1
0.1
0.1
0.1
0.1
0.1
0.1
0.1
0.1
0.1
0.1
0.1
0.1
0.1
0.1
0.1
0.1
0.1
0.1
0.1
0.1
0.1
0.1
0.1
0.1
0.1
0.1
0.1
0.1
0.1
0.1
0.1
0.1
0.1
0.1
0.1
0.1
0.1
0.1
0.1
0.1
0.1
0.1
0.1
0.1
0.1
0.1
0.1
0.1
0.1
0.1
0.1
0.1
0.1
0.1
0.1
0.1
0.1
0.1
0.1
0.1
0.1
0.1
0.1
0.1
0.1
0.1
0.1
0.1
0.1
0.1
0.1
0.1
0.1
0.1
0.1
0.1
0.1
0.1
0.1
0.1
0.1
0.1
0.1
0.1
0.1
0.1
0.1
0.1
0.1
0.1
0.1
0.1
0.1
0.1
0.1
0.1
0.1
0.1
0.1
0.1
0.1
0.1
0.1
0.1
0.1
0.1
0.1
0.1
0.1
0.1
0.1
0.1
0.1
0.1
0.1
0.1
0.1
0.1
0.1
0.1
0.1
0.1
0.1
0.1
0.1
0.1
0.1
0.1
0.1
0.1
0.1
0.1
0.1
0.1
0.1
0.1
0.1
0.1
0.1
0.1
0.1
0.1
0.1
0.1
0.1
0.1
0.1
0.1
0.1
0.1
0.1
0.1
0.1
0.1
0.1
0.1
0.1
0.1
0.1
0.1
0.1
0.1
0.1
0.1
0.1
0.1
0.1
0.1
)
;

boundaryField
{
    sides
    {
        type            zeroGradient;
    }
    emptywalls
    {
        type            empty;
    }
}


// ************************************************************************* //
