/*--------------------------------*- C++ -*----------------------------------*\
| =========                 |                                                 |
| \\      /  F ield         | OpenFOAM: The Open Source CFD Toolbox           |
|  \\    /   O peration     | Version:  2112                                  |
|   \\  /    A nd           | Website:  www.openfoam.com                      |
|    \\/     M anipulation  |                                                 |
\*---------------------------------------------------------------------------*/
FoamFile
{
    version     2.0;
    format      ascii;
    arch        "LSB;label=32;scalar=64";
    class       surfaceScalarField;
    location    "0.09";
    object      phi;
}
// * * * * * * * * * * * * * * * * * * * * * * * * * * * * * * * * * * * * * //

dimensions      [1 0 -1 0 0 0 0];

oriented        oriented;

internalField   nonuniform List<scalar> 
999
(
1.0736745e-11
2.4040769e-12
-1.8441693e-11
-1.1929679e-11
-7.4864559e-12
4.9690252e-12
1.2474466e-11
1.4331314e-11
-6.212697e-12
2.2462032e-11
2.9719449e-11
2.6750935e-11
3.4640624e-11
4.083256e-11
4.1777248e-11
3.7883807e-11
3.0663472e-11
2.4525493e-11
2.5938696e-11
3.2491676e-11
4.1187387e-11
3.7738479e-11
3.1420533e-11
2.3653079e-11
1.9218294e-11
2.7813307e-11
3.1343816e-11
2.6428526e-11
2.3663183e-11
1.8115509e-11
2.4865887e-11
2.2092661e-11
2.764633e-11
3.0979885e-11
2.4976687e-11
1.9256818e-11
2.1812108e-11
1.5630053e-11
3.3780867e-11
5.1476379e-11
5.327927e-11
6.0927818e-11
5.9965588e-11
6.2028827e-11
6.9684369e-11
5.5354832e-11
3.585654e-11
3.7544523e-11
4.0426218e-11
4.0527359e-11
4.8382409e-11
3.1505465e-11
4.4215298e-11
6.943035e-11
2.5572655e-11
3.0430214e-11
1.9936053e-11
2.9309e-11
5.6323834e-12
-1.6364021e-11
-4.406675e-11
-1.3322676e-15
4.5119464e-12
1.9840352e-11
1.0051737e-11
-1.4528156e-11
2.3063551e-11
2.77528e-11
2.0146773e-11
4.4454218e-11
2.7987834e-11
1.7646551e-11
1.7519097e-11
-2.6594282e-12
-4.2221782e-12
-6.2561067e-12
-4.1459058e-12
5.6943339e-13
2.6957547e-11
2.437095e-11
2.8575253e-11
3.7072012e-11
5.3623106e-11
4.8297366e-11
5.0994653e-11
5.8520966e-11
3.4200309e-11
2.4066749e-11
2.0939028e-11
9.9741326e-12
1.932654e-11
4.426437e-11
3.6651904e-11
1.392686e-11
-9.8032693e-13
-2.9052316e-12
-5.0854876e-12
-2.6909475e-11
-4.9573123e-11
-5.2095883e-11
-2.524525e-11
-1.8079649e-11
-3.4171777e-11
-2.140077e-11
-1.2077672e-11
-1.063083e-11
-5.864087e-12
-2.1194935e-11
-1.8976376e-11
-4.9279469e-12
1.0514589e-11
-1.7260415e-11
-1.1856516e-11
-2.465006e-11
-2.947198e-12
-1.5884849e-11
-5.4969362e-12
-6.9968475e-12
-2.1751712e-11
-1.412348e-11
-5.470957e-12
-2.0779378e-11
9.6702646e-12
-8.1614715e-12
6.790124e-13
1.2760015e-11
-4.6813664e-12
-5.9739991e-12
-2.0482394e-11
-3.0422442e-11
-4.5411785e-11
-5.0518034e-11
-2.8820946e-11
-3.8223869e-11
-5.4676041e-11
-4.436751e-11
-2.4650615e-11
-4.146028e-11
-2.4431568e-11
-7.287948e-12
-1.6761481e-11
-2.8020253e-11
-2.9285463e-11
-2.8109515e-11
-3.8966164e-11
-2.5052405e-11
-1.7621904e-11
-2.9591884e-12
-2.1380009e-11
-1.9015234e-11
-1.9291457e-11
-9.9680264e-12
-3.1863956e-11
-1.5194068e-11
-1.3088419e-11
-1.7140067e-11
-3.1577407e-11
-4.4501181e-11
-4.2233328e-11
-4.440659e-11
-4.4373727e-11
-6.4669048e-11
-5.687073e-11
-4.9786397e-11
-5.1812221e-11
-2.9507841e-11
-3.1000535e-11
-3.4987346e-11
-2.9958702e-11
-3.7244541e-11
-3.7438497e-11
-3.48086e-11
-3.3394398e-11
-2.4110602e-11
-2.4116265e-11
-8.7492236e-12
1.333722e-11
9.3179908e-12
7.531753e-13
5.7839289e-12
-1.0154433e-11
-4.1008308e-12
1.169731e-11
1.6113999e-11
1.191991e-11
1.709255e-11
4.3578474e-11
2.4322322e-11
1.2690071e-11
5.6027405e-12
1.9860558e-11
1.4630963e-11
8.7402308e-12
1.3621215e-11
2.9663938e-11
9.418244e-12
2.7465807e-11
3.3318015e-11
2.9628744e-11
3.6342929e-11
2.3644531e-11
2.0211055e-11
1.6340151e-11
1.2190027e-11
-1.4179768e-12
-2.6867397e-12
-1.9036994e-11
-1.8626989e-11
-1.9483748e-11
-7.188472e-12
1.2688739e-12
-5.4748428e-12
-2.2591262e-11
-3.3268943e-12
-9.8300257e-12
1.4349522e-11
-6.5172312e-12
-1.8107738e-11
-1.5711432e-11
8.612222e-12
2.7500446e-11
1.3095303e-11
1.9769519e-11
2.7643887e-11
1.4926615e-11
1.0995871e-11
1.0136114e-11
-4.460432e-12
7.3197004e-12
1.1581847e-12
3.9961368e-12
-2.0281665e-11
-1.5111024e-11
-2.9055647e-12
3.456424e-11
2.7059355e-11
1.5280444e-11
9.3690611e-12
1.8485435e-11
1.574918e-11
3.0683234e-11
1.8623103e-11
3.9783066e-11
1.7535307e-11
8.7645446e-12
-8.4103835e-12
-1.3321899e-11
-9.2181818e-12
-2.414402e-11
-5.7689409e-12
-8.8817842e-12
1.8696156e-13
3.9992454e-12
5.8626437e-12
-2.6905811e-11
-3.1716185e-11
-2.5205171e-11
-2.2932101e-11
-2.1190494e-11
-1.298972e-11
-2.6829206e-11
-2.4915181e-11
-2.1485036e-11
-3.5010661e-11
-3.2471581e-11
-1.8198998e-11
-1.8784752e-11
-1.0978773e-11
-1.3275381e-11
-2.8338443e-11
-2.3054891e-11
-1.5252688e-11
-8.7805319e-12
-3.4940939e-12
-1.9695356e-11
-2.1502689e-11
-3.2151504e-11
-3.5270231e-11
-3.4812264e-11
-3.5550007e-11
-2.7074565e-11
-2.9483971e-11
-3.7408299e-11
-3.137024e-11
-1.3695933e-11
1.2474466e-12
8.7516661e-12
-1.155076e-12
6.5336625e-12
-3.0107028e-12
9.9236175e-12
1.1150636e-11
4.7601922e-12
3.9491743e-12
-4.3771653e-12
4.4779735e-12
-1.9184654e-13
-7.0035089e-12
-4.0616399e-12
1.3767876e-11
9.2814645e-12
2.10576e-11
-5.4933835e-12
1.829592e-11
1.8689494e-11
3.5808245e-11
3.0753955e-11
4.5631277e-11
7.5913498e-11
1.2137646e-10
2.1467939e-10
3.0883418e-10
4.5915804e-10
6.4804595e-10
9.401403e-10
1.3429585e-09
1.9092854e-09
2.7188813e-09
3.876753e-09
5.4897141e-09
7.7579985e-09
1.095243e-08
1.5407968e-08
2.1670237e-08
3.0372976e-08
4.2379227e-08
5.9006241e-08
8.1939205e-08
1.1339962e-07
1.5649404e-07
2.1530452e-07
2.9531003e-07
4.0381355e-07
5.504935e-07
7.4799242e-07
1.0131488e-06
1.3678427e-06
1.8406236e-06
2.4686807e-06
3.299977e-06
4.3962416e-06
5.8366665e-06
7.722197e-06
1.0181095e-05
1.3375381e-05
1.7508898e-05
2.2836726e-05
2.9676478e-05
3.8421704e-05
4.9557226e-05
6.367719e-05
8.1505777e-05
0.00010392037
0.00013197792
0.00016694386
0.00021032378
0.00026389766
0.00032975584
0.00041033643
0.00050846328
0.00062738309
0.00077080082
0.00094291155
0.0011484272
0.0013925963
0.0016812142
0.0020206234
0.0024177004
0.0028798283
0.0034148541
0.0040310298
0.0047369371
0.0055413958
0.0064533585
0.0074817916
0.0086355474
0.0099232288
0.011353052
0.012932709
0.014669238
0.016568901
0.018637075
0.02087816
0.023295509
0.025891373
0.028666874
0.031621995
0.034755593
0.038065437
0.041548254
0.045199797
0.049014927
0.052987701
0.057111465
0.061378959
0.065782412
0.07031365
0.074964185
0.079725314
0.084588196
0.08954394
0.094583665
0.09969857
0.10487998
0.11011941
0.11540857
0.12073942
0.1261042
0.13149544
0.13690596
0.14232888
0.14775767
0.15318608
0.15860819
0.16401839
0.16941138
0.17478215
0.18012598
0.18543843
0.19071534
0.1959528
0.20114716
0.20629501
0.21139318
0.2164387
0.22142883
0.22636104
0.23123297
0.23604246
0.24078752
0.24546634
0.25007724
0.25461873
0.25908942
0.26348808
0.26781361
0.27206503
0.27624146
0.28034216
0.28436644
0.28831383
0.29218366
0.29597604
0.29968966
0.30332644
0.30688227
0.31036416
0.31376093
0.31708892
0.32032844
0.32349904
0.32659307
0.32959188
0.33256465
0.3353751
0.33824044
0.34088458
0.34360196
0.3459504
0.34866595
0.35089222
0.35328753
0.35541307
0.35756575
0.3597053
0.36174365
0.36357634
0.36550325
0.3673584
0.36902589
0.37087208
0.37240684
0.37394386
0.37546853
0.37691825
0.37826933
0.37954367
0.38076322
0.38192906
0.38303314
0.38406818
0.38503923
0.38595106
0.38680894
0.38761324
0.38836209
0.38905622
0.38969428
0.39027988
0.39081297
0.39129681
0.39173245
0.39212151
0.39246679
0.39276843
0.39303074
0.39325323
0.39344083
0.3935937
0.39371641
0.39381088
0.39388065
0.39392953
0.39395976
0.39397633
0.3939803
0.39397668
0.3939658
0.39395144
0.39393401
0.39391516
0.39389601
0.3938761
0.39385693
0.39383736
0.39381731
0.39379676
0.39377683
0.39375626
0.39373343
0.39371061
0.39368706
0.39366271
0.39363754
0.39361144
0.39358499
0.39355762
0.39353014
0.39350163
0.39347286
0.39344294
0.39341234
0.39338047
0.39334749
0.39331303
0.39327718
0.39323958
0.3932004
0.39315921
0.39311624
0.39307102
0.39302379
0.39297404
0.39292198
0.39286713
0.39280955
0.39274889
0.39268483
0.39261723
0.39254531
0.39246883
0.39238693
0.39229866
0.39220292
0.39209765
0.39197985
0.39184555
0.3916881
0.39149806
0.39126165
0.39095834
0.39056222
0.39004118
0.38935562
0.38846115
0.3873074
0.38584225
0.38401279
0.38176952
0.37906907
0.37587773
0.37217441
0.36795262
0.36322323
0.35801372
0.35236804
0.34634718
0.34002442
0.33348257
0.32681098
0.32010156
0.31344459
0.30692595
0.300623
0.29460331
0.28892216
0.28362215
0.27873293
0.27427156
0.27024334
0.26664383
0.26345967
0.2606704
0.25825175
0.25617327
0.25440463
0.25291376
0.25166882
0.2506394
0.24979635
0.24911268
0.24856417
0.24812878
0.24778695
0.24752225
0.24731987
0.24716805
0.24705561
0.24697391
0.2469161
0.24687697
0.24685214
0.24683636
0.24682813
0.24682401
0.24682473
0.24682759
0.24683114
0.24683453
0.24683709
0.24683825
0.24683746
0.24683418
0.24682779
0.24681758
0.24680267
0.24678193
0.24675397
0.24671699
0.24666869
0.24660616
0.24652566
0.24642247
0.24629057
0.24612236
0.2459082
0.24563592
0.24529019
0.24485167
0.24429607
0.24359292
0.24270409
0.24158195
0.24016727
0.23838664
0.23614958
0.23334534
0.22983948
0.22547078
0.22004891
0.21335414
0.20514079
0.19514742
0.18311777
0.16883835
0.15219924
0.13328341
0.11248156
0.090607216
0.06894391
0.049103746
0.032594575
0.020236656
0.011885454
0.0067059748
0.0036884134
0.0019994143
0.0010756044
0.00057647797
0.00030844429
0.00016491709
8.8154687e-05
4.7119079e-05
2.5185353e-05
1.3461854e-05
7.1955645e-06
3.8461282e-06
2.0557798e-06
1.0988038e-06
5.8728987e-07
3.1387691e-07
1.6774387e-07
8.9641598e-08
4.7900538e-08
2.5592047e-08
1.3668202e-08
7.2995252e-09
3.8957929e-09
2.077794e-09
1.1058163e-09
5.8955182e-10
3.112362e-10
1.6224344e-10
8.3503301e-11
4.31358e-11
2.1448329e-11
1.0115228e-11
3.6281672e-12
4.1568277e-12
3.8238857e-12
-1.32791e-12
-1.476666e-12
-1.034145e-12
-4.6825738e-12
-2.4766578e-12
-1.1595169e-12
-4.2567755e-12
-1.3060109e-12
4.2548187e-12
2.5774105e-12
2.3586827e-12
2.8335251e-12
2.9155844e-12
3.3082981e-12
-1.8991753e-13
-2.3498842e-12
-8.975598e-13
1.854239e-12
-2.6701974e-12
-4.2099935e-12
-5.5035698e-12
-2.1097291e-12
-2.0769636e-12
1.2386758e-12
2.109285e-12
1.8501034e-12
-5.1343652e-13
9.8307473e-13
1.2384677e-12
1.3521267e-12
1.2594231e-12
6.249723e-13
3.2340797e-12
6.4734468e-12
4.3691578e-12
2.8735347e-12
1.9667046e-12
-1.4335477e-12
-3.2156222e-12
5.9757754e-13
-3.326367e-13
-1.3916784e-12
-3.1540048e-13
-1.6219665e-12
-9.6683772e-13
1.8059026e-12
3.1201708e-12
1.8687829e-12
2.8398534e-12
1.728076e-12
-3.9405701e-12
-1.4702822e-12
1.4092894e-13
2.0844437e-13
3.7840564e-13
3.9888925e-13
-3.3036074e-13
4.1912307e-13
-6.5839001e-13
-2.476977e-12
-2.3338137e-12
-1.4742513e-12
7.119999e-13
-1.7647828e-12
-1.0108303e-12
3.142625e-12
1.6489726e-12
5.037637e-14
-1.6194823e-12
-2.7868541e-12
1.5702717e-13
9.02875e-13
-3.7214121e-12
-4.4002579e-12
-4.2677389e-12
-5.5991045e-12
-4.6384702e-12
-5.0191934e-12
-3.3015535e-12
-3.001363e-12
-3.0637715e-12
-3.5284692e-12
-3.3513886e-12
-5.1640775e-12
-1.824027e-12
-3.5467185e-12
-5.9098837e-12
-6.4558081e-12
-5.7134852e-12
-4.2234133e-12
-3.8362091e-12
-6.719833e-12
-4.3634679e-12
-5.2973598e-12
-2.8408526e-12
-7.1049416e-12
-3.4627579e-12
-5.5662419e-13
-1.8594848e-13
-3.0334901e-12
-3.1521313e-12
-4.0857318e-12
4.6579407e-13
1.415465e-12
1.6564389e-12
-2.4415192e-13
-2.9633657e-12
-1.9807628e-12
5.3269611e-12
6.6815997e-12
5.8304472e-12
5.2215038e-12
1.0454276e-12
4.1677634e-12
3.4017927e-12
5.8648641e-12
8.2077817e-12
5.8618388e-12
7.6455231e-12
7.666312e-12
4.1819465e-12
5.5689897e-12
7.1423978e-12
4.193576e-12
4.2322812e-12
3.2641112e-12
3.5081243e-12
2.5069252e-12
-4.0037418e-14
9.9495412e-13
3.3543585e-12
3.0126179e-12
3.5080688e-12
9.1530949e-13
-6.1090022e-13
-4.4044074e-12
-2.4047292e-12
-3.6423642e-13
1.3086615e-12
1.8813839e-12
2.194675e-12
3.8314213e-12
1.9467206e-12
6.5648875e-13
2.0818486e-12
8.1526452e-13
6.9054484e-13
4.3070547e-12
4.0915049e-12
5.7462646e-12
2.8564234e-12
1.7914281e-12
1.2834039e-12
-1.8689356e-12
-5.0471988e-12
-4.5630721e-12
-9.947182e-13
-1.216735e-12
-1.8623991e-13
3.1320779e-13
-4.5407844e-12
-5.4427574e-12
-3.6580877e-12
-2.8708702e-12
-3.963746e-12
-6.0169092e-12
-7.0846939e-12
-5.1939286e-12
-3.5193931e-12
-5.8748839e-12
-4.307027e-12
-4.8379634e-12
-5.1575272e-12
-2.7296221e-12
-2.1238983e-12
-1.170522e-12
-3.3541225e-13
-1.6343871e-12
1.3148094e-12
1.7801594e-12
4.4795001e-12
5.0120325e-12
2.9820452e-12
-6.5178418e-13
-8.2972518e-13
-2.7587654e-13
-2.2434138e-12
-4.6322807e-12
-6.6510963e-12
-4.3468285e-12
-5.1960103e-12
-6.8905021e-12
-1.1720583e-11
-1.1290455e-11
-1.023838e-11
-7.4517476e-12
-5.3145544e-12
-5.6046418e-12
-4.7409021e-12
-3.1280534e-12
1.3709728e-12
-8.4654506e-14
5.8997252e-13
1.171091e-12
3.8474363e-12
1.5316637e-12
2.5010688e-12
3.5699638e-12
1.6766172e-12
1.0389883e-12
2.857159e-13
3.7311682e-12
3.0935116e-12
3.8635345e-12
2.2635088e-12
4.3607479e-12
4.9924648e-12
6.4531158e-12
1.3412743e-12
-4.1813775e-14
5.3956839e-14
3.5935838e-12
2.6531832e-12
1.3941348e-12
4.7049309e-12
5.6975952e-12
8.2230889e-12
3.9327014e-12
2.874076e-12
3.1882691e-12
2.9672237e-12
7.6499918e-13
1.6898427e-12
4.7748194e-12
7.4394102e-12
4.6057325e-12
5.0474486e-12
4.7161025e-12
-1.465883e-12
3.8978959e-12
8.1867846e-13
3.0457442e-12
1.9847041e-12
-2.4169555e-13
2.911768e-12
2.3162444e-12
5.3386601e-12
6.3312827e-12
6.8509781e-12
3.3211905e-12
1.0210582e-12
4.1844722e-12
7.5350837e-12
6.0661337e-12
8.3232726e-12
8.152673e-12
4.5464327e-12
6.2418543e-12
7.5235373e-12
3.9206e-12
5.5973975e-12
5.6255139e-12
8.325507e-12
6.5312061e-12
5.6616239e-12
5.3756583e-12
2.4856645e-12
1.4678814e-12
-1.2139317e-12
-1.342787e-12
-3.0810077e-12
2.0851376e-13
-1.8642587e-12
2.4094615e-13
1.4060142e-12
2.3193392e-12
-1.5505652e-13
5.8923005e-12
5.061937e-12
2.6386948e-12
4.2438275e-14
1.3342105e-12
2.6608854e-12
2.9261038e-12
3.5425829e-13
-1.108974e-13
7.1345707e-14
-9.331147e-13
-1.6792123e-12
-4.3278436e-12
-4.7627041e-12
-5.6217531e-13
-2.5349584e-12
-3.352027e-12
-2.0761171e-14
-2.6400965e-12
-3.1164654e-12
-2.8101271e-12
-6.4288852e-13
)
;

boundaryField
{
    sides
    {
        type            calculated;
        value           nonuniform List<scalar> 2(2.7972109e-21 3.2978904e-21);
    }
    emptywalls
    {
        type            empty;
        value           nonuniform List<scalar> 0();
    }
}


// ************************************************************************* //
