/*--------------------------------*- C++ -*----------------------------------*\
| =========                 |                                                 |
| \\      /  F ield         | OpenFOAM: The Open Source CFD Toolbox           |
|  \\    /   O peration     | Version:  2112                                  |
|   \\  /    A nd           | Website:  www.openfoam.com                      |
|    \\/     M anipulation  |                                                 |
\*---------------------------------------------------------------------------*/
FoamFile
{
    version     2.0;
    format      ascii;
    arch        "LSB;label=32;scalar=64";
    class       volScalarField;
    location    "0.09";
    object      T;
}
// * * * * * * * * * * * * * * * * * * * * * * * * * * * * * * * * * * * * * //

dimensions      [0 0 0 1 0 0 0];

internalField   nonuniform List<scalar> 
1000
(
0.00348
0.00348
0.00348
0.00348
0.00348
0.00348
0.00348
0.00348
0.00348
0.00348
0.00348
0.00348
0.00348
0.00348
0.00348
0.00348
0.00348
0.00348
0.00348
0.00348
0.00348
0.00348
0.00348
0.00348
0.00348
0.00348
0.00348
0.00348
0.00348
0.00348
0.00348
0.00348
0.00348
0.00348
0.00348
0.00348
0.00348
0.00348
0.00348
0.00348
0.00348
0.00348
0.00348
0.00348
0.00348
0.00348
0.00348
0.00348
0.00348
0.00348
0.00348
0.00348
0.00348
0.00348
0.00348
0.00348
0.00348
0.00348
0.00348
0.00348
0.00348
0.00348
0.00348
0.00348
0.00348
0.00348
0.00348
0.00348
0.00348
0.00348
0.00348
0.00348
0.00348
0.00348
0.00348
0.00348
0.00348
0.00348
0.00348
0.00348
0.00348
0.00348
0.00348
0.00348
0.00348
0.00348
0.00348
0.00348
0.00348
0.00348
0.00348
0.00348
0.00348
0.00348
0.00348
0.00348
0.00348
0.00348
0.00348
0.00348
0.00348
0.00348
0.00348
0.00348
0.00348
0.00348
0.00348
0.00348
0.00348
0.00348
0.00348
0.00348
0.00348
0.00348
0.00348
0.00348
0.00348
0.00348
0.00348
0.00348
0.00348
0.00348
0.00348
0.00348
0.00348
0.00348
0.00348
0.00348
0.00348
0.00348
0.00348
0.00348
0.00348
0.00348
0.00348
0.00348
0.00348
0.00348
0.00348
0.00348
0.00348
0.00348
0.00348
0.00348
0.00348
0.00348
0.00348
0.00348
0.00348
0.00348
0.00348
0.00348
0.00348
0.00348
0.00348
0.00348
0.00348
0.00348
0.00348
0.00348
0.00348
0.00348
0.00348
0.00348
0.00348
0.00348
0.00348
0.00348
0.00348
0.00348
0.00348
0.00348
0.00348
0.00348
0.00348
0.00348
0.00348
0.00348
0.00348
0.00348
0.00348
0.00348
0.00348
0.00348
0.00348
0.00348
0.00348
0.00348
0.00348
0.00348
0.00348
0.00348
0.00348
0.00348
0.00348
0.00348
0.00348
0.00348
0.00348
0.00348
0.00348
0.00348
0.00348
0.00348
0.00348
0.00348
0.00348
0.00348
0.00348
0.00348
0.00348
0.00348
0.00348
0.00348
0.00348
0.00348
0.00348
0.00348
0.00348
0.00348
0.00348
0.00348
0.00348
0.00348
0.00348
0.00348
0.00348
0.00348
0.00348
0.00348
0.00348
0.00348
0.00348
0.00348
0.00348
0.00348
0.00348
0.00348
0.00348
0.00348
0.00348
0.00348
0.00348
0.00348
0.00348
0.00348
0.00348
0.00348
0.00348
0.00348
0.00348
0.00348
0.00348
0.00348
0.00348
0.00348
0.00348
0.00348
0.00348
0.00348
0.00348
0.00348
0.00348
0.00348
0.00348
0.00348
0.00348
0.00348
0.00348
0.00348
0.00348
0.00348
0.00348
0.00348
0.00348
0.00348
0.00348
0.00348
0.00348
0.00348
0.00348
0.00348
0.00348
0.00348
0.00348
0.00348
0.00348
0.00348
0.00348
0.00348
0.00348
0.00348
0.00348
0.00348
0.00348
0.00348
0.00348
0.00348
0.00348
0.00348
0.00348
0.00348
0.00348
0.00348
0.00348
0.00348
0.00348
0.00348
0.00348
0.00348
0.00348
0.00348
0.00348
0.00348
0.00348
0.00348
0.00348
0.00348
0.00348
0.00348
0.00348
0.00348
0.00348
0.00348
0.00348
0.00348
0.0034799999
0.0034799999
0.0034799999
0.0034799998
0.0034799998
0.0034799997
0.0034799996
0.0034799995
0.0034799992
0.003479999
0.0034799986
0.0034799981
0.0034799975
0.0034799967
0.0034799955
0.0034799941
0.0034799921
0.0034799896
0.0034799863
0.0034799821
0.0034799766
0.0034799695
0.0034799604
0.0034799488
0.0034799341
0.0034799154
0.0034798919
0.0034798624
0.0034798255
0.0034797797
0.0034797229
0.003479653
0.0034795671
0.0034794623
0.0034793349
0.0034791809
0.0034789954
0.0034787734
0.0034785088
0.0034781951
0.003477825
0.0034773906
0.0034768835
0.0034762943
0.0034756134
0.0034748306
0.0034739352
0.0034729162
0.0034717626
0.0034704631
0.0034690065
0.003467382
0.003465579
0.0034635875
0.003461398
0.0034590019
0.0034563914
0.0034535597
0.003450501
0.0034472106
0.003443685
0.0034399215
0.003435919
0.003431677
0.0034271964
0.0034224789
0.0034175271
0.0034123444
0.0034069351
0.0034013039
0.0033954562
0.003389398
0.0033831353
0.0033766748
0.0033700232
0.0033631874
0.0033561745
0.0033489913
0.0033416451
0.0033341426
0.0033264909
0.0033186966
0.0033107665
0.0033027068
0.003294524
0.0032862241
0.0032778129
0.0032692962
0.0032606796
0.0032519682
0.0032431672
0.0032342815
0.0032253158
0.0032162746
0.0032071624
0.0031979833
0.0031887412
0.0031794401
0.0031700837
0.0031606754
0.0031512187
0.0031417168
0.003132173
0.0031225901
0.0031129711
0.0031033187
0.0030936356
0.0030839243
0.0030741874
0.0030644272
0.0030546459
0.0030448458
0.003035029
0.0030251973
0.0030153538
0.0030054972
0.0029956372
0.0029857574
0.0029758995
0.0029659813
0.0029561693
0.0029461606
0.0029364796
0.0029262954
0.0029168157
0.0029064825
0.002896995
0.0028870209
0.0028766448
0.002868235
0.0028556342
0.0028498505
0.002833363
0.0028341449
0.0028124292
0.0028135727
0.0027936218
0.0027939106
0.0027747507
0.0027750362
0.0027555751
0.0027566842
0.0027371705
0.0027361662
0.002721971
0.0027133036
0.0027047368
0.0026953616
0.0026858406
0.0026765791
0.002667642
0.002658727
0.0026498352
0.002640961
0.002632255
0.0026237087
0.0026152935
0.0026069971
0.0025987867
0.0025907225
0.0025828104
0.0025750781
0.0025675629
0.0025602288
0.0025531646
0.0025462957
0.0025397426
0.0025334281
0.0025274585
0.0025217941
0.0025164872
0.0025115603
0.002506994
0.002502868
0.0024991013
0.0024957991
0.002492851
0.0024903457
0.0024881816
0.0024863974
0.0024849289
0.0024837515
0.0024828493
0.0024821456
0.0024816606
0.0024813003
0.0024810901
0.0024809599
0.0024809113
0.0024809378
0.0024810129
0.0024810175
0.0024812032
0.0024812649
0.0024814623
0.0024816049
0.0024817999
0.0024819837
0.0024822008
0.0024824039
0.0024826291
0.0024828442
0.0024830677
0.0024832901
0.0024835095
0.002483738
0.0024839578
0.0024841946
0.0024844217
0.0024846711
0.002484911
0.0024851784
0.0024854347
0.0024857247
0.002486001
0.0024863171
0.0024866169
0.0024869628
0.0024872899
0.0024876695
0.0024880291
0.0024884459
0.0024888471
0.0024893069
0.0024897612
0.0024902775
0.002490799
0.002491395
0.0024920098
0.0024927252
0.0024934969
0.0024944202
0.0024954845
0.0024968178
0.0024984641
0.0025006341
0.0025034696
0.0025072372
0.0025121937
0.0025186803
0.0025270512
0.0025377001
0.0025510315
0.002567449
0.0025873434
0.0026110689
0.0026389348
0.0026711838
0.0027079716
0.0027493848
0.0027953654
0.0028457616
0.0029002831
0.0029585372
0.0030199824
0.0030839831
0.0031497896
0.0032165804
0.003283494
0.003349637
0.0034141662
0.0034762679
0.0035352486
0.0035905042
0.0036416111
0.0036882342
0.0037302535
0.0037676096
0.0038004276
0.0038289155
0.0038533427
0.0038740456
0.0038913917
0.0039057478
0.0039175063
0.0039270143
0.0039346125
0.0039406053
0.0039452786
0.0039488457
0.0039515498
0.0039535409
0.0039549694
0.0039559749
0.0039566437
0.0039570516
0.0039572496
0.0039573561
0.0039573272
0.0039572667
0.0039571219
0.0039569385
0.0039567403
0.0039565344
0.0039563257
0.0039561175
0.003955911
0.0039557066
0.0039555028
0.0039552984
0.0039550897
0.0039548734
0.0039546439
0.0039543951
0.0039541186
0.0039538043
0.0039534397
0.0039530081
0.0039524901
0.0039518593
0.0039510846
0.0039501246
0.003948929
0.0039474328
0.003945555
0.003943193
0.0039402171
0.0039364641
0.0039317273
0.003925747
0.0039181937
0.0039086538
0.0038966038
0.0038813863
0.0038621742
0.0038379342
0.0038073846
0.003768959
0.0037207955
0.003660791
0.0035868182
0.0034972684
0.0033922034
0.0032752121
0.0031549683
0.0030438745
0.0029528521
0.0028864264
0.002842481
0.0028154834
0.0027997151
0.0027908004
0.0027858634
0.0027831649
0.0027817021
0.0027809132
0.0027804893
0.0027802619
0.0027801401
0.0027800749
0.0027800401
0.0027800214
0.0027800115
0.0027800061
0.0027800033
0.0027800017
0.0027800009
0.0027800005
0.0027800003
0.0027800001
0.0027800001
0.00278
0.00278
0.00278
0.00278
0.00278
0.00278
0.00278
0.00278
0.00278
0.00278
0.00278
0.00278
0.00278
0.00278
0.00278
0.00278
0.00278
0.00278
0.00278
0.00278
0.00278
0.00278
0.00278
0.00278
0.00278
0.00278
0.00278
0.00278
0.00278
0.00278
0.00278
0.00278
0.00278
0.00278
0.00278
0.00278
0.00278
0.00278
0.00278
0.00278
0.00278
0.00278
0.00278
0.00278
0.00278
0.00278
0.00278
0.00278
0.00278
0.00278
0.00278
0.00278
0.00278
0.00278
0.00278
0.00278
0.00278
0.00278
0.00278
0.00278
0.00278
0.00278
0.00278
0.00278
0.00278
0.00278
0.00278
0.00278
0.00278
0.00278
0.00278
0.00278
0.00278
0.00278
0.00278
0.00278
0.00278
0.00278
0.00278
0.00278
0.00278
0.00278
0.00278
0.00278
0.00278
0.00278
0.00278
0.00278
0.00278
0.00278
0.00278
0.00278
0.00278
0.00278
0.00278
0.00278
0.00278
0.00278
0.00278
0.00278
0.00278
0.00278
0.00278
0.00278
0.00278
0.00278
0.00278
0.00278
0.00278
0.00278
0.00278
0.00278
0.00278
0.00278
0.00278
0.00278
0.00278
0.00278
0.00278
0.00278
0.00278
0.00278
0.00278
0.00278
0.00278
0.00278
0.00278
0.00278
0.00278
0.00278
0.00278
0.00278
0.00278
0.00278
0.00278
0.00278
0.00278
0.00278
0.00278
0.00278
0.00278
0.00278
0.00278
0.00278
0.00278
0.00278
0.00278
0.00278
0.00278
0.00278
0.00278
0.00278
0.00278
0.00278
0.00278
0.00278
0.00278
0.00278
0.00278
0.00278
0.00278
0.00278
0.00278
0.00278
0.00278
0.00278
0.00278
0.00278
0.00278
0.00278
0.00278
0.00278
0.00278
0.00278
0.00278
0.00278
0.00278
0.00278
0.00278
0.00278
0.00278
0.00278
0.00278
0.00278
0.00278
0.00278
0.00278
0.00278
0.00278
0.00278
0.00278
0.00278
0.00278
0.00278
0.00278
0.00278
0.00278
0.00278
0.00278
0.00278
0.00278
0.00278
0.00278
0.00278
0.00278
0.00278
0.00278
0.00278
0.00278
0.00278
0.00278
0.00278
0.00278
0.00278
0.00278
0.00278
0.00278
0.00278
0.00278
0.00278
0.00278
0.00278
0.00278
0.00278
0.00278
0.00278
0.00278
0.00278
0.00278
0.00278
0.00278
0.00278
0.00278
0.00278
0.00278
0.00278
0.00278
0.00278
0.00278
0.00278
0.00278
0.00278
0.00278
0.00278
0.00278
0.00278
0.00278
0.00278
0.00278
0.00278
0.00278
0.00278
0.00278
0.00278
0.00278
0.00278
0.00278
0.00278
0.00278
0.00278
0.00278
0.00278
0.00278
0.00278
0.00278
0.00278
0.00278
0.00278
0.00278
0.00278
0.00278
0.00278
0.00278
0.00278
0.00278
0.00278
0.00278
0.00278
0.00278
0.00278
0.00278
0.00278
0.00278
0.00278
0.00278
0.00278
0.00278
0.00278
0.00278
0.00278
0.00278
0.00278
0.00278
0.00278
0.00278
0.00278
0.00278
0.00278
0.00278
0.00278
0.00278
0.00278
0.00278
0.00278
0.00278
0.00278
0.00278
0.00278
0.00278
0.00278
0.00278
0.00278
0.00278
)
;

boundaryField
{
    sides
    {
        type            zeroGradient;
    }
    emptywalls
    {
        type            empty;
    }
}


// ************************************************************************* //
