/*--------------------------------*- C++ -*----------------------------------*\
| =========                 |                                                 |
| \\      /  F ield         | OpenFOAM: The Open Source CFD Toolbox           |
|  \\    /   O peration     | Version:  2112                                  |
|   \\  /    A nd           | Website:  www.openfoam.com                      |
|    \\/     M anipulation  |                                                 |
\*---------------------------------------------------------------------------*/
FoamFile
{
    version     2.0;
    format      ascii;
    arch        "LSB;label=32;scalar=64";
    class       volVectorField;
    location    "0.09";
    object      U;
}
// * * * * * * * * * * * * * * * * * * * * * * * * * * * * * * * * * * * * * //

dimensions      [0 1 -1 0 0 0 0];

internalField   nonuniform List<vector> 
1000
(
(-3.3018113e-21 0 0)
(6.6881533e-12 0 0)
(-4.1003704e-12 0 0)
(-2.3843261e-11 0 0)
(-1.827432e-11 0 0)
(1.5684203e-11 0 0)
(-7.9819891e-12 0 0)
(2.5085855e-11 0 0)
(-2.6950467e-12 0 0)
(5.7372284e-12 0 0)
(2.3647629e-11 0 0)
(2.6858098e-11 0 0)
(2.8607889e-11 0 0)
(3.0763615e-11 0 0)
(4.5566809e-11 0 0)
(4.2353339e-11 0 0)
(2.1957751e-11 0 0)
(4.1314825e-11 0 0)
(2.4182837e-11 0 0)
(2.8940685e-11 0 0)
(3.6802739e-11 0 0)
(4.8257855e-11 0 0)
(3.5351397e-11 0 0)
(1.8309445e-11 0 0)
(3.4444712e-11 0 0)
(1.4004551e-11 0 0)
(3.7078179e-11 0 0)
(3.2430485e-11 0 0)
(2.393085e-11 0 0)
(2.8693589e-11 0 0)
(1.2022447e-11 0 0)
(3.6405584e-11 0 0)
(2.4556427e-11 0 0)
(2.3934185e-11 0 0)
(4.1081178e-11 0 0)
(-6.953145e-12 0 0)
(3.9591822e-11 0 0)
(2.9637067e-12 0 0)
(2.3175779e-11 0 0)
(3.1177887e-11 0 0)
(4.2247631e-11 0 0)
(5.4276748e-11 0 0)
(6.7074052e-11 0 0)
(4.1922727e-11 0 0)
(8.214435e-11 0 0)
(4.0049333e-11 0 0)
(5.1648616e-11 0 0)
(3.5841477e-11 0 0)
(4.2415252e-11 0 0)
(3.5457216e-11 0 0)
(5.9551797e-11 0 0)
(2.3665636e-11 0 0)
(6.6472818e-11 0 0)
(2.4119257e-11 0 0)
(5.7381621e-11 0 0)
(3.1508683e-11 0 0)
(2.0868772e-11 0 0)
(1.6213408e-11 0 0)
(1.8057013e-11 0 0)
(-8.7669607e-12 0 0)
(-2.0577548e-11 0 0)
(-7.7661275e-12 0 0)
(-8.4400559e-12 0 0)
(2.3286378e-11 0 0)
(8.6062316e-12 0 0)
(6.4446142e-12 0 0)
(1.9119871e-11 0 0)
(1.9670418e-11 0 0)
(1.9342735e-11 0 0)
(2.6730827e-11 0 0)
(3.3792125e-11 0 0)
(2.1714656e-11 0 0)
(1.1174451e-11 0 0)
(9.6959881e-13 0 0)
(-3.1095411e-12 0 0)
(-3.8948461e-12 0 0)
(-1.4749062e-11 0 0)
(3.7284481e-12 0 0)
(-7.3372942e-13 0 0)
(3.068225e-11 0 0)
(7.8839511e-12 0 0)
(4.5015484e-11 0 0)
(2.5752558e-11 0 0)
(7.3894256e-11 0 0)
(4.7484443e-11 0 0)
(6.6266516e-11 0 0)
(3.9005261e-11 0 0)
(3.7518795e-11 0 0)
(1.3274489e-11 0 0)
(1.6514303e-11 0 0)
(1.1375641e-11 0 0)
(2.3424098e-11 0 0)
(5.0250406e-11 0 0)
(1.5300498e-11 0 0)
(1.3698543e-11 0 0)
(2.2666582e-12 0 0)
(-1.0131824e-11 0 0)
(-1.0243645e-11 0 0)
(-3.7113193e-11 0 0)
(-3.9462661e-11 0 0)
(-3.0174942e-11 0 0)
(-2.647206e-11 0 0)
(-2.4817973e-11 0 0)
(-4.1424867e-11 0 0)
(3.7125531e-12 0 0)
(-2.8916565e-11 0 0)
(1.025854e-11 0 0)
(-2.5864157e-11 0 0)
(1.3409653e-12 0 0)
(-2.7284597e-11 0 0)
(1.383982e-11 0 0)
(-1.5868386e-12 0 0)
(-1.5615954e-11 0 0)
(-1.1524254e-11 0 0)
(-1.872783e-11 0 0)
(-7.52659e-12 0 0)
(-1.9141546e-11 0 0)
(5.0097235e-13 0 0)
(-1.1619847e-11 0 0)
(-1.5083081e-11 0 0)
(-8.3629149e-12 0 0)
(-1.312243e-11 0 0)
(-4.5767776e-12 0 0)
(-4.6755938e-12 0 0)
(-4.6151259e-13 0 0)
(2.7457331e-12 0 0)
(8.6316859e-12 0 0)
(-1.8816642e-11 0 0)
(-2.0654689e-12 0 0)
(-4.3813573e-11 0 0)
(-2.5111642e-11 0 0)
(-4.9725091e-11 0 0)
(-3.3710649e-11 0 0)
(-3.6387355e-11 0 0)
(-3.6350785e-11 0 0)
(-5.178956e-11 0 0)
(-2.7539363e-11 0 0)
(-2.5435546e-11 0 0)
(-2.0948025e-11 0 0)
(-3.0974475e-11 0 0)
(-7.6882084e-12 0 0)
(-3.0108694e-11 0 0)
(-1.2736391e-11 0 0)
(-2.3366631e-11 0 0)
(-2.3907841e-11 0 0)
(-3.8132255e-11 0 0)
(-2.3938187e-12 0 0)
(-1.6939913e-11 0 0)
(-4.7880819e-12 0 0)
(-2.105829e-11 0 0)
(-1.5996102e-11 0 0)
(-9.5781647e-12 0 0)
(-3.4933013e-11 0 0)
(-1.7910512e-11 0 0)
(-1.2513638e-11 0 0)
(-1.375701e-11 0 0)
(-2.326348e-11 0 0)
(-3.9118861e-11 0 0)
(-4.0981918e-11 0 0)
(-3.6434262e-11 0 0)
(-4.5507453e-11 0 0)
(-4.6025654e-11 0 0)
(-5.7047157e-11 0 0)
(-4.1110301e-11 0 0)
(-4.3373958e-11 0 0)
(-3.6564869e-11 0 0)
(-2.9648627e-11 0 0)
(-2.9121867e-11 0 0)
(-3.4604552e-11 0 0)
(-4.1413307e-11 0 0)
(-3.472571e-11 0 0)
(-3.3679415e-11 0 0)
(-2.5000377e-11 0 0)
(-2.6351124e-11 0 0)
(-2.1151326e-11 0 0)
(-6.5408739e-12 0 0)
(-1.869515e-11 0 0)
(3.0335449e-11 0 0)
(-5.9471988e-12 0 0)
(1.0724165e-11 0 0)
(-7.5910595e-12 0 0)
(5.5598261e-12 0 0)
(-5.5072501e-12 0 0)
(1.3619512e-11 0 0)
(1.2091808e-11 0 0)
(2.5751335e-11 0 0)
(8.094255e-12 0 0)
(4.4311878e-11 0 0)
(-6.8920102e-12 0 0)
(2.7532916e-11 0 0)
(-8.5543225e-12 0 0)
(2.5090634e-11 0 0)
(9.932858e-12 0 0)
(1.1540038e-11 0 0)
(2.4019996e-11 0 0)
(2.9088631e-11 0 0)
(2.8518855e-11 0 0)
(2.4231634e-11 0 0)
(3.4929567e-11 0 0)
(3.3133869e-11 0 0)
(2.8715153e-11 0 0)
(1.8942135e-11 0 0)
(1.9481122e-11 0 0)
(1.4935912e-11 0 0)
(6.0184487e-12 0 0)
(-8.8712234e-13 0 0)
(-8.4906311e-12 0 0)
(-3.7581152e-11 0 0)
(9.2913863e-13 0 0)
(-1.5281157e-11 0 0)
(2.1462781e-12 0 0)
(-1.3690984e-11 0 0)
(-5.2901658e-12 0 0)
(-1.941732e-11 0 0)
(1.4792412e-12 0 0)
(-1.2682704e-11 0 0)
(8.243424e-12 0 0)
(-8.5627703e-12 0 0)
(-2.9190782e-11 0 0)
(7.6334093e-12 0 0)
(3.6171827e-12 0 0)
(2.6325892e-11 0 0)
(4.368808e-12 0 0)
(1.8812307e-11 0 0)
(2.2097583e-11 0 0)
(1.2854326e-11 0 0)
(2.2880331e-11 0 0)
(-2.6792629e-12 0 0)
(2.2414261e-12 0 0)
(2.3705874e-12 0 0)
(4.7310598e-12 0 0)
(-2.0205181e-11 0 0)
(-1.2463619e-11 0 0)
(-1.1179231e-11 0 0)
(1.0758512e-11 0 0)
(3.5901944e-11 0 0)
(7.8397117e-12 0 0)
(1.339398e-11 0 0)
(2.29139e-11 0 0)
(4.5616607e-12 0 0)
(2.7847816e-11 0 0)
(1.5845599e-11 0 0)
(2.3022164e-11 0 0)
(1.210259e-11 0 0)
(1.4315004e-11 0 0)
(-3.2234742e-13 0 0)
(-1.5751896e-11 0 0)
(-5.2673792e-12 0 0)
(-5.0859754e-12 0 0)
(-1.7551817e-11 0 0)
(6.0900321e-12 0 0)
(-1.1639965e-11 0 0)
(8.1383832e-12 0 0)
(4.0597991e-12 0 0)
(-8.1667276e-12 0 0)
(-2.4842427e-11 0 0)
(-2.4118812e-11 0 0)
(-2.8260199e-11 0 0)
(-2.3057622e-11 0 0)
(-2.4123814e-11 0 0)
(-8.0140016e-12 0 0)
(-2.9212235e-11 0 0)
(-1.798932e-11 0 0)
(-2.2193398e-11 0 0)
(-3.4034775e-11 0 0)
(-2.5417317e-11 0 0)
(-1.7444553e-11 0 0)
(-7.4169919e-12 0 0)
(-1.565886e-11 0 0)
(-1.8900452e-11 0 0)
(-2.0259647e-11 0 0)
(-2.5794797e-11 0 0)
(-6.3466873e-12 0 0)
(-1.3849824e-11 0 0)
(-1.365875e-11 0 0)
(-2.7083742e-11 0 0)
(-1.1931412e-11 0 0)
(-3.8246299e-11 0 0)
(-3.4571539e-11 0 0)
(-2.6313331e-11 0 0)
(-4.3041495e-11 0 0)
(-1.5177784e-11 0 0)
(-4.3962964e-11 0 0)
(-1.443594e-11 0 0)
(-2.8228853e-11 0 0)
(2.5385415e-12 0 0)
(-2.2307553e-12 0 0)
(-2.9760448e-12 0 0)
(2.3833702e-12 0 0)
(-7.161337e-12 0 0)
(1.406035e-11 0 0)
(-4.9313598e-12 0 0)
(1.8759175e-11 0 0)
(6.585669e-12 0 0)
(-1.0937582e-12 0 0)
(-4.1015925e-14 0 0)
(-1.5305946e-13 0 0)
(-2.3131206e-13 0 0)
(-1.3776462e-12 0 0)
(-1.0522643e-11 0 0)
(2.7257476e-11 0 0)
(-2.3633624e-12 0 0)
(2.5449996e-11 0 0)
(-2.6032333e-12 0 0)
(2.0186729e-11 0 0)
(2.5909619e-11 0 0)
(2.0245864e-11 0 0)
(4.3907054e-11 0 0)
(4.8084676e-11 0 0)
(1.013138e-10 0 0)
(1.7236472e-10 0 0)
(2.5136485e-10 0 0)
(3.873689e-10 0 0)
(5.4496922e-10 0 0)
(7.9326755e-10 0 0)
(1.1431372e-09 0 0)
(1.6199122e-09 0 0)
(2.3198659e-09 0 0)
(3.2843538e-09 0 0)
(4.6967508e-09 0 0)
(6.6036043e-09 0 0)
(9.3627974e-09 0 0)
(1.3174217e-08 0 0)
(1.8534103e-08 0 0)
(2.6027689e-08 0 0)
(3.6364143e-08 0 0)
(5.0701215e-08 0 0)
(7.0467375e-08 0 0)
(9.7671417e-08 0 0)
(1.3496082e-07 0 0)
(1.859169e-07 0 0)
(2.5534596e-07 0 0)
(3.4960827e-07 0 0)
(4.7724509e-07 0 0)
(6.4937556e-07 0 0)
(8.8077099e-07 0 0)
(1.1908069e-06 0 0)
(1.6046618e-06 0 0)
(2.1553171e-06 0 0)
(2.8852481e-06 0 0)
(3.8494576e-06 0 0)
(5.1183401e-06 0 0)
(6.7821356e-06 0 0)
(8.9553916e-06 0 0)
(1.1783492e-05 0 0)
(1.5449398e-05 0 0)
(2.0182844e-05 0 0)
(2.6270361e-05 0 0)
(3.4067895e-05 0 0)
(4.40151e-05 0 0)
(5.6652005e-05 0 0)
(7.2638623e-05 0 0)
(9.2776787e-05 0 0)
(0.00011803514 0 0)
(0.00014957685 0 0)
(0.00018879012 0 0)
(0.00023732146 0 0)
(0.00029711107 0 0)
(0.00037043015 0 0)
(0.00045991925 0 0)
(0.00056862676 0 0)
(0.00070004652 0 0)
(0.00085815311 0 0)
(0.0010474334 0 0)
(0.0012729128 0 0)
(0.0015401738 0 0)
(0.0018553661 0 0)
(0.0022252061 0 0)
(0.0026569631 0 0)
(0.0031584338 0 0)
(0.0037379009 0 0)
(0.0044040775 0 0)
(0.0051660374 0 0)
(0.0060331309 0 0)
(0.0070148886 0 0)
(0.0081209151 0 0)
(0.0093607747 0 0)
(0.010743872 0 0)
(0.012279333 0 0)
(0.013975885 0 0)
(0.015841746 0 0)
(0.017884518 0 0)
(0.020111098 0 0)
(0.0225276 0 0)
(0.025139288 0 0)
(0.027950539 0 0)
(0.030964806 0 0)
(0.034184618 0 0)
(0.037611578 0 0)
(0.041246389 0 0)
(0.04508889 0 0)
(0.049138101 0 0)
(0.053392281 0 0)
(0.057848993 0 0)
(0.06250517 0 0)
(0.067357194 0 0)
(0.072400964 0 0)
(0.077631971 0 0)
(0.083045369 0 0)
(0.088636041 0 0)
(0.094398663 0 0)
(0.10032776 0 0)
(0.10641776 0 0)
(0.11266304 0 0)
(0.11905797 0 0)
(0.12559694 0 0)
(0.1322744 0 0)
(0.13908489 0 0)
(0.14602303 0 0)
(0.15308359 0 0)
(0.16026144 0 0)
(0.16755162 0 0)
(0.1749493 0 0)
(0.18244981 0 0)
(0.19004864 0 0)
(0.19774142 0 0)
(0.20552396 0 0)
(0.2133922 0 0)
(0.22134225 0 0)
(0.22937035 0 0)
(0.23747291 0 0)
(0.24564646 0 0)
(0.25388768 0 0)
(0.26219336 0 0)
(0.27056044 0 0)
(0.27898597 0 0)
(0.28746713 0 0)
(0.29600119 0 0)
(0.30458555 0 0)
(0.31321769 0 0)
(0.32189521 0 0)
(0.33061579 0 0)
(0.33937719 0 0)
(0.34817728 0 0)
(0.35701398 0 0)
(0.36588529 0 0)
(0.3747893 0 0)
(0.38372413 0 0)
(0.392688 0 0)
(0.40167917 0 0)
(0.41069596 0 0)
(0.41973674 0 0)
(0.42879996 0 0)
(0.43788408 0 0)
(0.44698772 0 0)
(0.4561094 0 0)
(0.46524806 0 0)
(0.47440205 0 0)
(0.48357123 0 0)
(0.49275312 0 0)
(0.50194964 0 0)
(0.51115671 0 0)
(0.52037905 0 0)
(0.52961243 0 0)
(0.53886136 0 0)
(0.54813007 0 0)
(0.55741695 0 0)
(0.5666443 0 0)
(0.57578539 0 0)
(0.58521608 0 0)
(0.59425897 0 0)
(0.60332364 0 0)
(0.61245401 0 0)
(0.62145067 0 0)
(0.63052218 0 0)
(0.63965815 0 0)
(0.64867238 0 0)
(0.65772362 0 0)
(0.6667811 0 0)
(0.67590486 0 0)
(0.68509574 0 0)
(0.69407131 0 0)
(0.7032613 0 0)
(0.71228753 0 0)
(0.72122981 0 0)
(0.73010785 0 0)
(0.73891639 0 0)
(0.74765389 0 0)
(0.75632152 0 0)
(0.76491719 0 0)
(0.77343531 0 0)
(0.78186799 0 0)
(0.79020579 0 0)
(0.79843843 0 0)
(0.80655456 0 0)
(0.81454193 0 0)
(0.82238698 0 0)
(0.83007485 0 0)
(0.83758947 0 0)
(0.84491348 0 0)
(0.85202851 0 0)
(0.85891498 0 0)
(0.86555251 0 0)
(0.87191996 0 0)
(0.87799586 0 0)
(0.88375888 0 0)
(0.88918832 0 0)
(0.894265 0 0)
(0.8989718 0 0)
(0.90329484 0 0)
(0.9072241 0 0)
(0.91075452 0 0)
(0.91388658 0 0)
(0.91662691 0 0)
(0.91898851 0 0)
(0.92099055 0 0)
(0.92265798 0 0)
(0.92402038 0 0)
(0.92511095 0 0)
(0.92596479 0 0)
(0.92661758 0 0)
(0.92710394 0 0)
(0.92745621 0 0)
(0.92770281 0 0)
(0.92787001 0 0)
(0.92798427 0 0)
(0.92805094 0 0)
(0.92807306 0 0)
(0.92808066 0 0)
(0.92808431 0 0)
(0.92805702 0 0)
(0.92802392 0 0)
(0.92797234 0 0)
(0.92791536 0 0)
(0.92785386 0 0)
(0.92779028 0 0)
(0.92772686 0 0)
(0.9276656 0 0)
(0.92760807 0 0)
(0.92755528 0 0)
(0.92750766 0 0)
(0.9274652 0 0)
(0.92742755 0 0)
(0.92739418 0 0)
(0.92736447 0 0)
(0.9273378 0 0)
(0.92731361 0 0)
(0.92729143 0 0)
(0.92727088 0 0)
(0.92725166 0 0)
(0.92723356 0 0)
(0.92721641 0 0)
(0.9272001 0 0)
(0.92718454 0 0)
(0.92716965 0 0)
(0.92715541 0 0)
(0.92714176 0 0)
(0.92712869 0 0)
(0.92711616 0 0)
(0.92710413 0 0)
(0.92709257 0 0)
(0.9270814 0 0)
(0.92707059 0 0)
(0.9270601 0 0)
(0.92704992 0 0)
(0.92703994 0 0)
(0.9270302 0 0)
(0.92702094 0 0)
(0.92701207 0 0)
(0.92700323 0 0)
(0.92699473 0 0)
(0.92698607 0 0)
(0.92697705 0 0)
(0.92696861 0 0)
(0.92696032 0 0)
(0.9269519 0 0)
(0.9269432 0 0)
(0.92693409 0 0)
(0.92692442 0 0)
(0.92691409 0 0)
(0.92690303 0 0)
(0.92689125 0 0)
(0.92687833 0 0)
(0.92686399 0 0)
(0.92684844 0 0)
(0.92683414 0 0)
(0.9268213 0 0)
(0.92680618 0 0)
(0.92679305 0 0)
(0.92678122 0 0)
(0.92677116 0 0)
(0.92676325 0 0)
(0.92675767 0 0)
(0.9267544 0 0)
(0.92675319 0 0)
(0.92675359 0 0)
(0.92675519 0 0)
(0.92675753 0 0)
(0.92675991 0 0)
(0.92676183 0 0)
(0.92676305 0 0)
(0.92676348 0 0)
(0.92676328 0 0)
(0.92676042 0 0)
(0.92675536 0 0)
(0.92675175 0 0)
(0.92674666 0 0)
(0.92674083 0 0)
(0.92673439 0 0)
(0.92672745 0 0)
(0.92672038 0 0)
(0.92671329 0 0)
(0.92670582 0 0)
(0.92669801 0 0)
(0.92668993 0 0)
(0.92668123 0 0)
(0.92667189 0 0)
(0.92666384 0 0)
(0.9266563 0 0)
(0.92664823 0 0)
(0.92663948 0 0)
(0.9266298 0 0)
(0.92661718 0 0)
(0.9266059 0 0)
(0.92659446 0 0)
(0.92658136 0 0)
(0.92656952 0 0)
(0.92655514 0 0)
(0.92653866 0 0)
(0.92652026 0 0)
(0.92649947 0 0)
(0.92647569 0 0)
(0.92644815 0 0)
(0.92641589 0 0)
(0.92637764 0 0)
(0.9263318 0 0)
(0.9262763 0 0)
(0.9262085 0 0)
(0.92612503 0 0)
(0.92602159 0 0)
(0.9258927 0 0)
(0.92573138 0 0)
(0.92552876 0 0)
(0.9252736 0 0)
(0.92495162 0 0)
(0.92454472 0 0)
(0.92402999 0 0)
(0.92337847 0 0)
(0.92255349 0 0)
(0.92150877 0 0)
(0.92018582 0 0)
(0.91851085 0 0)
(0.91639074 0 0)
(0.9137081 0 0)
(0.91031497 0 0)
(0.90602505 0 0)
(0.90060388 0 0)
(0.89375677 0 0)
(0.88511391 0 0)
(0.87421223 0 0)
(0.86047393 0 0)
(0.84318191 0 0)
(0.82145369 0 0)
(0.79421839 0 0)
(0.76020665 0 0)
(0.71797518 0 0)
(0.66600885 0 0)
(0.60297886 0 0)
(0.52828024 0 0)
(0.4429649 0 0)
(0.35093746 0 0)
(0.25955559 0 0)
(0.17808662 0 0)
(0.11374828 0 0)
(0.068454379 0 0)
(0.039401596 0 0)
(0.021992914 0 0)
(0.012038874 0 0)
(0.0065155669 0 0)
(0.0035045439 0 0)
(0.0018789766 0 0)
(0.0010058214 0 0)
(0.00053800763 0 0)
(0.0002876739 0 0)
(0.00015379423 0 0)
(8.221372e-05 0 0)
(4.3946946e-05 0 0)
(2.3490834e-05 0 0)
(1.2556115e-05 0 0)
(6.7111646e-06 0 0)
(3.5869416e-06 0 0)
(1.9169971e-06 0 0)
(1.0244875e-06 0 0)
(5.474451e-07 0 0)
(2.9252382e-07 0 0)
(1.5625933e-07 0 0)
(8.3460203e-08 0 0)
(4.4550273e-08 0 0)
(2.3781238e-08 0 0)
(1.2655252e-08 0 0)
(6.7564008e-09 0 0)
(3.5809371e-09 0 0)
(1.8898942e-09 0 0)
(9.6612535e-10 0 0)
(5.027646e-10 0 0)
(2.3583496e-10 0 0)
(1.4447765e-10 0 0)
(3.2642174e-11 0 0)
(4.0905831e-11 0 0)
(2.4577641e-11 0 0)
(4.7156047e-12 0 0)
(-6.9881077e-12 0 0)
(-2.3159019e-12 0 0)
(-2.7130627e-11 0 0)
(-2.5203872e-11 0 0)
(-1.365644e-11 0 0)
(-1.5014681e-11 0 0)
(-3.6250386e-11 0 0)
(2.2743899e-11 0 0)
(1.6920125e-11 0 0)
(2.8905541e-11 0 0)
(1.2202633e-11 0 0)
(2.227972e-11 0 0)
(3.3956017e-11 0 0)
(-3.4994371e-12 0 0)
(3.5851227e-14 0 0)
(-2.744119e-11 0 0)
(1.6870066e-11 0 0)
(-1.6875283e-11 0 0)
(-1.2442381e-11 0 0)
(-4.5082113e-11 0 0)
(-2.9699819e-11 0 0)
(2.2972548e-12 0 0)
(5.5408496e-13 0 0)
(4.6582205e-12 0 0)
(2.1072654e-11 0 0)
(-1.8255279e-12 0 0)
(2.1539608e-12 0 0)
(5.4621542e-12 0 0)
(1.4292883e-11 0 0)
(1.7829059e-11 0 0)
(2.1013494e-12 0 0)
(2.2657213e-11 0 0)
(2.6629375e-11 0 0)
(4.1990026e-11 0 0)
(3.1613698e-11 0 0)
(5.5869122e-12 0 0)
(1.0453136e-11 0 0)
(-2.2260296e-11 0 0)
(-9.5868238e-12 0 0)
(-5.1474846e-12 0 0)
(-9.9906221e-12 0 0)
(-1.2103959e-12 0 0)
(-5.3799073e-12 0 0)
(-5.3796853e-12 0 0)
(-1.8314772e-11 0 0)
(4.6881114e-11 0 0)
(-2.2215565e-12 0 0)
(2.5522205e-11 0 0)
(1.1416569e-11 0 0)
(1.1784295e-12 0 0)
(-1.9244018e-11 0 0)
(-5.0465905e-12 0 0)
(5.8264384e-12 0 0)
(-3.4632529e-12 0 0)
(1.1858661e-11 0 0)
(-2.7263599e-12 0 0)
(-1.2628408e-11 0 0)
(1.6548626e-11 0 0)
(-3.2611872e-11 0 0)
(-4.7860864e-13 0 0)
(-3.0258343e-11 0 0)
(8.0822923e-12 0 0)
(-6.593633e-12 0 0)
(-1.9312058e-11 0 0)
(2.223066e-11 0 0)
(2.1960832e-11 0 0)
(1.4684585e-13 0 0)
(1.0915207e-12 0 0)
(-2.0444314e-11 0 0)
(-1.4447276e-11 0 0)
(-1.4542288e-11 0 0)
(2.3870827e-11 0 0)
(-4.4929163e-11 0 0)
(-5.8122312e-12 0 0)
(-6.7581381e-11 0 0)
(-1.8219094e-11 0 0)
(-5.0530948e-11 0 0)
(-2.0508801e-11 0 0)
(-1.9975805e-11 0 0)
(-2.4196263e-11 0 0)
(-1.8911811e-11 0 0)
(-1.8023189e-11 0 0)
(-4.6390073e-11 0 0)
(6.5734319e-12 0 0)
(-4.5802024e-11 0 0)
(-2.4311587e-11 0 0)
(-7.0091079e-11 0 0)
(-2.782179e-11 0 0)
(-7.3269076e-11 0 0)
(-1.5552672e-11 0 0)
(-4.5877833e-11 0 0)
(-3.488038e-11 0 0)
(-3.2308968e-11 0 0)
(-3.1552984e-11 0 0)
(-2.6936498e-11 0 0)
(-4.3980714e-11 0 0)
(-1.2873706e-11 0 0)
(4.6242562e-12 0 0)
(-1.1078924e-11 0 0)
(-2.4786533e-11 0 0)
(-2.09227e-11 0 0)
(-1.6880056e-11 0 0)
(8.0109228e-12 0 0)
(2.1455918e-11 0 0)
(-5.0631287e-12 0 0)
(2.928259e-12 0 0)
(-3.5510718e-11 0 0)
(3.8491144e-11 0 0)
(1.6282905e-11 0 0)
(7.1546551e-11 0 0)
(2.56857e-11 0 0)
(2.5352827e-11 0 0)
(2.5098094e-11 0 0)
(2.9277484e-11 0 0)
(3.758332e-11 0 0)
(4.360078e-11 0 0)
(7.0324057e-11 0 0)
(4.9586384e-11 0 0)
(4.7185128e-11 0 0)
(4.6593971e-11 0 0)
(3.5761566e-11 0 0)
(4.4443118e-11 0 0)
(4.989395e-11 0 0)
(2.5030388e-11 0 0)
(4.6538251e-11 0 0)
(1.3096694e-11 0 0)
(3.7756582e-11 0 0)
(-2.9035072e-12 0 0)
(1.7444574e-11 0 0)
(4.8672233e-12 0 0)
(2.9231532e-11 0 0)
(1.7791321e-11 0 0)
(9.7565345e-12 0 0)
(3.4240718e-12 0 0)
(-1.3196146e-11 0 0)
(-2.8412725e-11 0 0)
(-4.6417936e-13 0 0)
(-8.4030666e-12 0 0)
(4.7783167e-12 0 0)
(2.3272788e-11 0 0)
(2.7369487e-11 0 0)
(5.2382782e-12 0 0)
(1.9648482e-11 0 0)
(-9.1471743e-12 0 0)
(4.1943742e-11 0 0)
(-1.0723852e-11 0 0)
(2.17697e-11 0 0)
(1.8906928e-11 0 0)
(4.6633596e-11 0 0)
(3.7336024e-11 0 0)
(2.2694951e-11 0 0)
(-4.0632896e-12 0 0)
(-8.1046022e-12 0 0)
(-2.2803614e-11 0 0)
(-4.0397587e-11 0 0)
(-1.5080501e-11 0 0)
(-3.8082242e-13 0 0)
(-1.1941241e-11 0 0)
(8.9827913e-12 0 0)
(-2.5678596e-11 0 0)
(-4.2333888e-11 0 0)
(-1.6952979e-11 0 0)
(-3.9320385e-11 0 0)
(-1.7162315e-11 0 0)
(-4.2466082e-11 0 0)
(-4.4546121e-11 0 0)
(-4.0829245e-11 0 0)
(-3.2261574e-11 0 0)
(-5.4819113e-11 0 0)
(-2.5315311e-11 0 0)
(-3.9463013e-11 0 0)
(-2.72838e-11 0 0)
(-2.3873269e-11 0 0)
(-2.9369055e-11 0 0)
(-4.2749562e-12 0 0)
(-1.0367227e-11 0 0)
(5.4824662e-12 0 0)
(-9.829014e-12 0 0)
(2.0536217e-11 0 0)
(7.658404e-12 0 0)
(4.1198413e-11 0 0)
(4.2755001e-11 0 0)
(-2.9774296e-12 0 0)
(-9.4944766e-13 0 0)
(-1.2908226e-11 0 0)
(-3.9469673e-13 0 0)
(-2.5100647e-11 0 0)
(-4.1503537e-11 0 0)
(-4.0017209e-11 0 0)
(-3.1343537e-11 0 0)
(-5.9775909e-11 0 0)
(-5.5777884e-11 0 0)
(-9.0975708e-11 0 0)
(-6.9702154e-11 0 0)
(-7.0196968e-11 0 0)
(-4.7496024e-11 0 0)
(-6.1680576e-11 0 0)
(-3.3773098e-11 0 0)
(-4.4730815e-11 0 0)
(1.0301185e-11 0 0)
(-4.4574312e-12 0 0)
(8.5422538e-12 0 0)
(-4.4875108e-12 0 0)
(2.9172594e-11 0 0)
(1.2557039e-11 0 0)
(5.2809001e-12 0 0)
(3.4726319e-11 0 0)
(7.2033262e-12 0 0)
(2.0678068e-11 0 0)
(-1.5769333e-11 0 0)
(2.537103e-11 0 0)
(4.1804999e-12 0 0)
(5.2431064e-11 0 0)
(1.2497213e-11 0 0)
(1.9928855e-11 0 0)
(5.2907675e-11 0 0)
(3.4231727e-11 0 0)
(3.1632123e-11 0 0)
(8.6034119e-12 0 0)
(-1.3926934e-11 0 0)
(1.7900984e-11 0 0)
(3.2072328e-11 0 0)
(5.8627337e-13 0 0)
(2.1714314e-11 0 0)
(3.0795779e-11 0 0)
(6.9898503e-11 0 0)
(3.839691e-11 0 0)
(2.7464499e-11 0 0)
(1.153711e-11 0 0)
(3.2157461e-11 0 0)
(1.6481807e-11 0 0)
(4.6550017e-12 0 0)
(3.2868936e-11 0 0)
(4.5592688e-11 0 0)
(5.5532475e-11 0 0)
(4.4543013e-11 0 0)
(1.538962e-11 0 0)
(3.8536763e-11 0 0)
(7.3582747e-12 0 0)
(1.8310998e-11 0 0)
(-2.2720585e-13 0 0)
(2.9782621e-11 0 0)
(9.9615415e-12 0 0)
(1.1163169e-11 0 0)
(2.8657135e-11 0 0)
(1.1329106e-11 0 0)
(4.854359e-11 0 0)
(4.2572304e-11 0 0)
(5.8771741e-11 0 0)
(4.9591268e-12 0 0)
(2.0485937e-11 0 0)
(4.3051246e-11 0 0)
(4.1458251e-11 0 0)
(6.2039199e-11 0 0)
(4.1625409e-11 0 0)
(5.0368896e-11 0 0)
(6.3602558e-11 0 0)
(2.9838451e-11 0 0)
(7.5242115e-11 0 0)
(1.2993358e-11 0 0)
(5.3765774e-11 0 0)
(3.3066284e-11 0 0)
(7.020729e-11 0 0)
(4.6547575e-11 0 0)
(4.3717546e-11 0 0)
(3.8850323e-11 0 0)
(2.6219362e-11 0 0)
(-1.1751329e-11 0 0)
(-1.5720163e-12 0 0)
(-1.9532604e-11 0 0)
(-1.0830518e-11 0 0)
(-1.7713403e-11 0 0)
(-8.8925527e-12 0 0)
(-9.3048976e-12 0 0)
(3.1275609e-11 0 0)
(8.2244764e-12 0 0)
(1.989256e-11 0 0)
(3.4033491e-11 0 0)
(2.6192834e-11 0 0)
(1.601563e-11 0 0)
(-3.4639188e-12 0 0)
(2.1968491e-11 0 0)
(8.6994222e-12 0 0)
(1.9965927e-11 0 0)
(2.0602814e-12 0 0)
(-8.9198574e-12 0 0)
(1.0061104e-11 0 0)
(-2.6993771e-11 0 0)
(-1.6369481e-12 0 0)
(-4.171143e-11 0 0)
(-2.0320999e-11 0 0)
(-1.6804357e-11 0 0)
(-3.7056095e-11 0 0)
(-1.5631367e-12 0 0)
(-2.0945676e-11 0 0)
(-1.6123073e-11 0 0)
(-1.7534258e-11 0 0)
(-1.6269474e-11 0 0)
(2.2372099e-20 0 0)
)
;

boundaryField
{
    sides
    {
        type            zeroGradient;
    }
    emptywalls
    {
        type            empty;
    }
}


// ************************************************************************* //
