/*--------------------------------*- C++ -*----------------------------------*\
| =========                 |                                                 |
| \\      /  F ield         | OpenFOAM: The Open Source CFD Toolbox           |
|  \\    /   O peration     | Version:  2112                                  |
|   \\  /    A nd           | Website:  www.openfoam.com                      |
|    \\/     M anipulation  |                                                 |
\*---------------------------------------------------------------------------*/
FoamFile
{
    version     2.0;
    format      ascii;
    arch        "LSB;label=32;scalar=64";
    class       volScalarField;
    location    "0.5";
    object      p;
}
// * * * * * * * * * * * * * * * * * * * * * * * * * * * * * * * * * * * * * //

dimensions      [0 2 -2 0 0 0 0];

internalField   nonuniform List<scalar> 
8800
(
2.38803
2.34525
2.31246
2.28701
2.26665
2.24994
2.23617
2.22513
2.21713
2.21311
2.21462
2.22093
2.23061
2.24308
2.25829
2.27671
2.29936
2.32817
2.36534
2.42112
2.11337
2.11003
2.10512
2.09804
2.08885
2.07833
2.06757
2.05755
2.04919
2.04362
2.04241
2.04626
2.05349
2.0629
2.07346
2.08423
2.09421
2.10243
2.10839
2.11235
2.11615
2.11706
2.11555
2.11234
2.10759
2.10152
2.09471
2.08802
2.08251
2.07949
2.08068
2.08533
2.09175
2.09872
2.10533
2.11086
2.11488
2.11725
2.11772
2.11669
2.0908
2.09047
2.08983
2.08843
2.0861
2.08281
2.07875
2.07439
2.07057
2.06851
2.06946
2.07283
2.07722
2.08163
2.08542
2.08827
2.09015
2.09113
2.09158
2.09172
2.07193
2.07178
2.07137
2.07057
2.06928
2.06741
2.06499
2.06225
2.05973
2.05836
2.0591
2.06148
2.06441
2.06718
2.06944
2.07107
2.07214
2.07274
2.07302
2.07307
2.05493
2.05484
2.05461
2.05418
2.05346
2.05239
2.05096
2.04931
2.04774
2.04694
2.04754
2.04919
2.05111
2.05286
2.05424
2.0552
2.05581
2.05615
2.0563
2.05633
2.03913
2.03907
2.03894
2.0387
2.03829
2.03768
2.03686
2.03589
2.03501
2.03461
2.03514
2.03631
2.03761
2.03874
2.0396
2.04019
2.04056
2.04076
2.04085
2.04087
2.02397
2.02393
2.02386
2.02372
2.02349
2.02316
2.02272
2.02221
2.02179
2.02171
2.02223
2.02311
2.02403
2.0248
2.02536
2.02575
2.02598
2.02611
2.02616
2.02616
2.00915
2.00912
2.00908
2.00901
2.0089
2.00874
2.00855
2.00835
2.00825
2.00843
2.00899
2.00974
2.01045
2.01101
2.01142
2.01168
2.01184
2.01193
2.01196
2.01196
1.99448
1.99446
1.99444
1.99441
1.99438
1.99435
1.99433
1.99435
1.99451
1.99491
1.99557
1.99629
1.9969
1.99737
1.99769
1.9979
1.99802
1.99808
1.9981
1.9981
1.97985
1.97983
1.97982
1.97983
1.97985
1.97991
1.98002
1.98023
1.98061
1.98123
1.98205
1.98282
1.98343
1.98387
1.98416
1.98435
1.98445
1.9845
1.98451
1.9845
1.96514
1.96512
1.96513
1.96516
1.96523
1.96537
1.9656
1.96599
1.96658
1.96746
1.96849
1.96938
1.97005
1.97052
1.97083
1.97101
1.97111
1.97116
1.97117
1.97116
1.95028
1.95026
1.95028
1.95033
1.95045
1.95067
1.95103
1.9516
1.95244
1.95361
1.95492
1.95601
1.95681
1.95735
1.9577
1.95791
1.95802
1.95807
1.95808
1.95806
1.93519
1.93516
1.93519
1.93527
1.93544
1.93575
1.93626
1.93703
1.93817
1.93972
1.9414
1.94277
1.94375
1.94441
1.94483
1.94508
1.94521
1.94527
1.94528
1.94525
1.91976
1.91973
1.91977
1.91988
1.92012
1.92054
1.92121
1.92225
1.92375
1.92578
1.92794
1.92968
1.93091
1.93174
1.93226
1.93257
1.93274
1.93281
1.93282
1.93279
1.90388
1.90384
1.9039
1.90405
1.90437
1.90493
1.90583
1.9072
1.90916
1.91179
1.91458
1.9168
1.91837
1.91942
1.92008
1.92047
1.92068
1.92076
1.92078
1.92074
1.88739
1.88735
1.88742
1.88763
1.88806
1.8888
1.88999
1.89179
1.89436
1.89777
1.90136
1.90421
1.90621
1.90754
1.90838
1.90887
1.90913
1.90925
1.90926
1.90921
1.8701
1.87004
1.87014
1.87043
1.871
1.87198
1.87356
1.87593
1.87929
1.88372
1.88833
1.89197
1.89453
1.89622
1.89729
1.89791
1.89825
1.89839
1.89841
1.89834
1.85172
1.85165
1.85179
1.85218
1.85295
1.85426
1.85636
1.85949
1.86389
1.86962
1.87555
1.8802
1.88345
1.88561
1.88696
1.88776
1.88818
1.88836
1.88839
1.8883
1.83186
1.83178
1.83199
1.83253
1.83357
1.83535
1.83816
1.84232
1.84807
1.8555
1.86308
1.86901
1.87314
1.87587
1.8776
1.87861
1.87915
1.87937
1.87941
1.8793
1.80999
1.8099
1.8102
1.81096
1.81241
1.81486
1.81867
1.82421
1.83177
1.84137
1.85104
1.85854
1.86377
1.86724
1.86942
1.87071
1.8714
1.8717
1.87174
1.87161
1.78527
1.78519
1.78565
1.78676
1.78882
1.79225
1.79749
1.80496
1.81492
1.82727
1.83953
1.84897
1.85555
1.85994
1.86273
1.86438
1.86527
1.86565
1.86572
1.86555
1.75642
1.75639
1.75713
1.75882
1.76189
1.76684
1.77419
1.78435
1.79747
1.8133
1.82868
1.84045
1.84869
1.85424
1.85782
1.85997
1.86114
1.86166
1.86176
1.86155
1.72122
1.72135
1.72267
1.72547
1.7303
1.73776
1.74832
1.76225
1.77949
1.79957
1.81863
1.83311
1.84335
1.85037
1.85502
1.8579
1.85953
1.86028
1.86046
1.8602
1.67529
1.67605
1.67886
1.68412
1.6924
1.70415
1.71961
1.73874
1.7612
1.78628
1.80949
1.82702
1.83956
1.84842
1.85454
1.85858
1.86105
1.86234
1.86277
1.86251
1.60795
1.61232
1.62021
1.63168
1.64684
1.66574
1.68829
1.7142
1.7429
1.77358
1.80122
1.82198
1.83704
1.84806
1.85613
1.86199
1.86616
1.86899
1.87062
1.87078
1.49746
1.52594
1.54708
1.5704
1.59622
1.62476
1.65599
1.68959
1.72502
1.76151
1.79359
1.81759
1.8353
1.84875
1.85921
1.86756
1.87441
1.88017
1.88508
1.88992
1.38424
1.44335
1.47667
1.51097
1.54677
1.58436
1.62375
1.66467
1.70657
1.7487
1.78519
1.81242
1.83275
1.84858
1.86136
1.87202
1.88124
1.88943
1.89685
1.90714
1.317
1.37564
1.41537
1.45725
1.501
1.54646
1.59331
1.64108
1.68905
1.73627
1.77629
1.80568
1.82746
1.84437
1.85796
1.86917
1.87864
1.88682
1.8939
1.90347
1.25758
1.31966
1.36349
1.41045
1.46008
1.51187
1.56517
1.61912
1.67261
1.72428
1.76697
1.79747
1.81959
1.83648
1.84987
1.86077
1.86985
1.87762
1.88432
1.8931
1.20571
1.27057
1.31767
1.36869
1.42311
1.48024
1.53917
1.59868
1.65719
1.71275
1.75733
1.78805
1.80961
1.82572
1.83833
1.84853
1.85699
1.86421
1.87047
1.87853
1.15837
1.22591
1.27582
1.33035
1.38894
1.45079
1.5148
1.57943
1.64263
1.7017
1.74759
1.77777
1.79802
1.81271
1.82405
1.83321
1.84085
1.8474
1.85315
1.86047
1.11384
1.18384
1.23643
1.29418
1.35656
1.42277
1.49151
1.56102
1.62873
1.69117
1.73802
1.76701
1.78521
1.79778
1.8073
1.81503
1.82161
1.82736
1.83257
1.83895
1.07067
1.14338
1.1985
1.2593
1.32527
1.39555
1.46883
1.54306
1.61529
1.68118
1.72887
1.75614
1.77148
1.78108
1.78808
1.79387
1.79901
1.80375
1.80827
1.81385
1.02876
1.1037
1.16135
1.22508
1.29447
1.36868
1.44632
1.52523
1.60208
1.6717
1.72036
1.74552
1.7571
1.76267
1.76617
1.76926
1.77245
1.77586
1.77945
1.78439
0.986502
1.06447
1.12456
1.19113
1.26382
1.3418
1.42368
1.50721
1.58885
1.66263
1.71276
1.73561
1.74247
1.74262
1.74121
1.74045
1.74092
1.7425
1.74491
1.74872
0.945132
1.02545
1.08788
1.15721
1.23309
1.31469
1.40065
1.48877
1.57533
1.65384
1.7062
1.72695
1.72816
1.72109
1.71276
1.70643
1.70292
1.70188
1.70271
1.7053
0.903208
0.98649
1.05129
1.12327
1.20214
1.28723
1.37711
1.46967
1.56127
1.64506
1.70078
1.72015
1.71504
1.69862
1.68049
1.66586
1.65628
1.65134
1.64991
1.65109
0.861972
0.947706
1.01476
1.08929
1.17107
1.25939
1.35298
1.44981
1.54642
1.63602
1.69641
1.7158
1.70439
1.67632
1.64443
1.6172
1.59808
1.58688
1.58193
1.58141
0.820723
0.909187
0.978398
1.05537
1.1399
1.23125
1.32831
1.42913
1.53059
1.6263
1.69278
1.71439
1.69786
1.65637
1.60558
1.55907
1.52432
1.50265
1.49189
1.48896
0.779885
0.870951
0.942326
1.02166
1.10874
1.20294
1.30314
1.40764
1.51367
1.61555
1.68934
1.71599
1.69727
1.64223
1.56693
1.49107
1.43001
1.38978
1.36868
1.3617
0.739295
0.833307
0.906713
0.988283
1.07778
1.17457
1.27762
1.38542
1.4956
1.60342
1.68537
1.72005
1.70398
1.63868
1.53487
1.41593
1.3098
1.23477
1.1938
1.17974
0.700044
0.796408
0.871796
0.955454
1.04715
1.14631
1.25195
1.36266
1.47646
1.58969
1.67997
1.72525
1.71806
1.65069
1.52041
1.34359
1.16086
1.01708
0.934487
0.906888
0.66184
0.760484
0.837708
0.92333
1.0171
1.1184
1.22628
1.33947
1.45636
1.57425
1.67234
1.72965
1.7374
1.68083
1.53805
1.29664
0.989172
0.704332
0.529061
0.483006
0.624711
0.725549
0.804529
0.892022
0.987743
1.09102
1.20082
1.3161
1.43547
1.55712
1.66192
1.73098
1.75745
1.72538
1.59869
1.31292
0.807089
0.211524
-0.1669
-0.233827
0.588591
0.691766
0.772473
0.861731
0.959198
1.06426
1.17577
1.29273
1.4141
1.53854
1.64838
1.7274
1.77214
1.77192
1.69319
1.43623
0.63084
-1.23055
-2.05668
-1.75048
0.553646
0.659123
0.741498
0.832446
0.9316
1.03816
1.15108
1.26942
1.39221
1.51848
1.63153
1.7174
1.7763
1.80335
1.7742
1.60478
0.831345
-1.30908
-3.5012
-1.79789
0.520279
0.627572
0.711501
0.803936
0.904344
1.01203
1.12614
1.24528
1.36886
1.49578
1.61005
1.69927
1.76539
1.80588
1.80034
1.68902
1.32627
0.415561
-0.0372745
-0.090881
0.488594
0.597114
0.682853
0.776823
0.878243
0.986766
1.10147
1.22122
1.3448
1.47131
1.58463
1.67279
1.73765
1.77578
1.76823
1.67454
1.4383
1.10905
0.762819
0.655431
0.456623
0.568615
0.656172
0.75095
0.85348
0.962842
1.07655
1.19649
1.31951
1.44452
1.55511
1.63885
1.69546
1.72032
1.6966
1.60353
1.41959
1.23358
0.986207
0.867393
0.342535
0.540499
0.632272
0.725213
0.827542
0.937267
1.05257
1.17266
1.29498
1.41749
1.5229
1.5989
1.64464
1.64842
1.60318
1.50345
1.34361
1.20894
1.01016
0.911784
0.448225
0.507378
0.592793
0.688776
0.792628
0.902884
1.01715
1.13721
1.25924
1.37952
1.47832
1.53769
1.55773
1.53397
1.45289
1.32572
1.1548
1.03301
0.883963
0.847872
0.371202
0.479776
0.56683
0.664328
0.769066
0.879448
0.994584
1.11308
1.23183
1.34724
1.43756
1.48563
1.48749
1.4346
1.32834
1.17768
0.993625
0.853527
0.70318
0.698966
0.329647
0.446393
0.535339
0.632301
0.737017
0.847097
0.96167
1.07929
1.19658
1.30866
1.39228
1.42951
1.41737
1.3504
1.22348
1.04573
0.8225
0.62978
0.437318
0.465217
0.292848
0.409278
0.500651
0.599804
0.706004
0.818269
0.934848
1.05305
1.16961
1.27821
1.35507
1.38233
1.35705
1.2741
1.12815
0.920541
0.636856
0.333645
0.00698322
0.0440247
0.257152
0.377378
0.469748
0.569808
0.676757
0.789402
0.906
1.02383
1.13892
1.24457
1.31601
1.3357
1.30163
1.20978
1.05348
0.82297
0.491568
0.00415359
-0.657654
-0.904838
0.218442
0.340074
0.434066
0.535811
0.644238
0.758314
0.875964
0.994149
1.10883
1.21224
1.27964
1.29443
1.25637
1.1637
1.0109
0.783953
0.461758
-0.111349
-0.847093
-1.76021
0.17959
0.302155
0.397348
0.500506
0.610478
0.725854
0.844392
0.963099
1.07732
1.17933
1.24406
1.25669
1.21951
1.1344
1.00162
0.819533
0.588537
0.322949
-0.0245263
-0.171845
0.138121
0.261721
0.358282
0.462949
0.57453
0.691362
0.811008
0.930302
1.04465
1.14581
1.20949
1.223
1.19196
1.12309
1.02413
0.907323
0.791087
0.693498
0.621537
0.62003
0.0937979
0.218969
0.316959
0.423306
0.536612
0.654981
0.77588
0.896123
1.01082
1.11212
1.17656
1.19429
1.17401
1.12665
1.06426
1.0007
0.94875
0.917894
0.9136
0.932515
0.0441313
0.173387
0.273409
0.381698
0.496838
0.616892
0.739364
0.86077
0.976492
1.07897
1.14609
1.17134
1.16482
1.14031
1.11012
1.08456
1.07066
1.07057
1.08241
1.09816
-0.00558516
0.12595
0.228014
0.338383
0.455453
0.577447
0.701625
0.824628
0.94188
1.04676
1.11863
1.15338
1.16214
1.15905
1.15421
1.15421
1.1615
1.17571
1.19442
1.21124
-0.0580277
0.0767106
0.181029
0.29357
0.412909
0.536938
0.663062
0.788025
0.907569
1.01592
1.09473
1.13931
1.16357
1.17886
1.19276
1.20901
1.22842
1.2498
1.27162
1.28706
-0.112068
0.0263652
0.132983
0.247884
0.369522
0.495768
0.624163
0.751448
0.87384
0.986688
1.07325
1.12924
1.16719
1.1969
1.22403
1.25066
1.27691
1.30197
1.32519
1.33986
-0.165517
-0.0242981
0.0846713
0.201945
0.325923
0.454521
0.585315
0.715255
0.841066
0.959236
1.05445
1.12139
1.17063
1.21147
1.24772
1.28078
1.31089
1.33789
1.36159
1.37588
-0.21805
-0.074285
0.0369645
0.156531
0.2828
0.413843
0.547106
0.679905
0.809421
0.933265
1.03643
1.11329
1.17237
1.22147
1.26386
1.30095
1.33326
1.36111
1.38501
1.39946
-0.269609
-0.122493
-0.00919024
0.112609
0.241117
0.374434
0.510143
0.645785
0.779045
0.908552
1.01962
1.10465
1.17136
1.22636
1.27283
1.31234
1.34588
1.37414
1.39787
1.41244
-0.316432
-0.167384
-0.0522163
0.071398
0.201908
0.337179
0.475054
0.613227
0.749962
0.8847
1.00254
1.09432
1.16666
1.22576
1.27488
1.31591
1.35004
1.37841
1.40186
1.41596
-0.357725
-0.207097
-0.0905668
0.034499
0.166395
0.303093
0.44249
0.582626
0.722119
0.861051
0.984293
1.08113
1.15746
1.21931
1.2701
1.31198
1.34654
1.37489
1.398
1.41156
-0.391155
-0.239697
-0.122322
0.0035787
0.136075
0.273329
0.413284
0.554284
0.695332
0.837021
0.963908
1.06412
1.14299
1.20656
1.25835
1.30073
1.33542
1.36372
1.38644
1.39983
-0.413551
-0.262002
-0.144738
-0.019169
0.112771
0.249193
0.388255
0.528515
0.669454
0.811935
0.940405
1.04227
1.12239
1.18681
1.23911
1.28174
1.31651
1.34476
1.36727
1.38124
-0.420932
-0.270581
-0.154617
-0.0308698
0.0987436
0.232316
0.36844
0.505713
0.644231
0.78512
0.9128
1.01442
1.09451
1.15894
1.2113
1.25401
1.28881
1.31706
1.33942
1.35398
-0.408483
-0.260513
-0.147586
-0.027913
0.0966697
0.22456
0.354689
0.486342
0.619667
0.755915
0.880042
0.979232
1.05772
1.12119
1.17303
1.21554
1.25032
1.27865
1.30088
1.31589
-0.36603
-0.22421
-0.117409
-0.00558848
0.109826
0.228015
0.348377
0.470758
0.595497
0.723727
0.841107
0.935193
1.00996
1.07083
1.12104
1.16267
1.19715
1.22552
1.24759
1.26379
-0.278124
-0.14986
-0.0561977
0.0408928
0.140965
0.24399
0.35005
0.459208
0.571706
0.688282
0.795303
0.88097
0.948942
1.00437
1.05042
1.0891
1.12164
1.14895
1.17105
1.18956
-0.107676
-0.0262408
0.0401451
0.112071
0.189044
0.271216
0.358466
0.450638
0.547476
0.648892
0.74193
0.815579
0.873008
0.918898
0.95624
0.986935
1.01216
1.03265
1.04903
1.06225
0.116258
0.1348
0.16356
0.201997
0.24999
0.307173
0.373034
0.446848
0.527784
0.614947
0.695911
0.759701
0.808464
0.846134
0.875388
0.89818
0.915984
0.929719
0.939431
0.945313
0.243545
0.249667
0.261163
0.279781
0.307065
0.343982
0.390861
0.447463
0.513039
0.586384
0.655898
0.71065
0.751747
0.782436
0.805022
0.821183
0.832193
0.839174
0.843182
0.845307
0.308222
0.311764
0.318493
0.329692
0.346842
0.371438
0.404706
0.447328
0.499237
0.559496
0.617785
0.663752
0.697729
0.722377
0.739803
0.751715
0.759515
0.764346
0.767091
0.768539
0.345889
0.348197
0.352563
0.359942
0.371528
0.388686
0.412778
0.444905
0.485553
0.534244
0.582241
0.620191
0.647946
0.667705
0.681366
0.690502
0.696371
0.699955
0.701983
0.703067
0.36657
0.368191
0.371244
0.376424
0.384652
0.39705
0.414861
0.439247
0.470964
0.509905
0.548913
0.579876
0.602394
0.618254
0.629085
0.63625
0.640813
0.643586
0.645154
0.645995
0.375872
0.377054
0.379276
0.383057
0.389096
0.398289
0.411682
0.430346
0.455097
0.486048
0.517468
0.542524
0.5607
0.57343
0.582072
0.587757
0.591364
0.593552
0.594786
0.595449
0.377113
0.377999
0.379658
0.382484
0.387016
0.393955
0.404159
0.418545
0.437884
0.462402
0.487556
0.507708
0.522327
0.532541
0.539452
0.543983
0.546851
0.548586
0.549566
0.550092
0.372451
0.373123
0.374383
0.37653
0.379981
0.385289
0.393136
0.404289
0.419427
0.438813
0.458868
0.475008
0.486725
0.494904
0.500433
0.504054
0.506345
0.507731
0.508511
0.508928
0.363367
0.363882
0.364849
0.366498
0.369154
0.373247
0.379326
0.388012
0.39988
0.415196
0.431144
0.444028
0.453397
0.459938
0.464355
0.467248
0.469078
0.470183
0.470806
0.471137
0.350926
0.351324
0.352072
0.353349
0.355405
0.358583
0.363314
0.370102
0.379422
0.391515
0.404173
0.414433
0.421906
0.427128
0.430656
0.432964
0.434419
0.435297
0.435792
0.436055
0.335903
0.336212
0.336793
0.337785
0.339387
0.341865
0.345562
0.35088
0.358208
0.367756
0.377791
0.385948
0.391898
0.396057
0.398865
0.400702
0.401865
0.402566
0.402959
0.403168
0.318888
0.319129
0.319582
0.320357
0.321609
0.323546
0.326441
0.330615
0.336382
0.34392
0.351866
0.35834
0.363069
0.366378
0.368616
0.37008
0.371003
0.371561
0.371876
0.37204
0.300318
0.300507
0.300862
0.301468
0.302448
0.303967
0.30624
0.30952
0.314061
0.32001
0.326297
0.33143
0.335184
0.337811
0.339588
0.340751
0.341485
0.341926
0.342172
0.342302
0.28054
0.280688
0.280966
0.281441
0.282209
0.283401
0.285185
0.287764
0.29134
0.296035
0.301005
0.30507
0.308047
0.310131
0.311539
0.312459
0.31304
0.31339
0.313587
0.31369
0.259811
0.259927
0.260145
0.260518
0.261121
0.262058
0.26346
0.265489
0.268306
0.272007
0.275933
0.279145
0.281499
0.283148
0.284264
0.284995
0.285457
0.285734
0.285889
0.28597
0.238343
0.238434
0.238604
0.238897
0.23937
0.240105
0.241207
0.242803
0.245019
0.247935
0.251032
0.253568
0.255426
0.256728
0.25761
0.258187
0.258552
0.258771
0.258894
0.258957
0.21629
0.216361
0.216495
0.216725
0.217097
0.217673
0.218537
0.219788
0.221528
0.223822
0.226259
0.228257
0.229726
0.230756
0.231452
0.231907
0.232193
0.232365
0.232462
0.232512
0.193785
0.19384
0.193944
0.194122
0.194412
0.194864
0.195541
0.196521
0.197885
0.199684
0.201597
0.203166
0.204317
0.205123
0.205668
0.206024
0.206248
0.206382
0.206456
0.206496
0.170921
0.170964
0.171046
0.171185
0.17141
0.17176
0.172288
0.173052
0.174115
0.175518
0.177011
0.178236
0.179135
0.179766
0.180195
0.180476
0.180654
0.180762
0.180822
0.180853
0.147779
0.147811
0.147874
0.147982
0.148158
0.148428
0.148834
0.149424
0.150245
0.15133
0.152487
0.153439
0.154139
0.154631
0.154964
0.155181
0.155318
0.155401
0.155447
0.15547
0.124423
0.124449
0.124498
0.124579
0.12471
0.124916
0.125226
0.125676
0.126302
0.12713
0.128013
0.12874
0.129273
0.129646
0.129899
0.130066
0.130171
0.130231
0.130265
0.130285
0.100904
0.100922
0.100958
0.101019
0.101118
0.101272
0.101501
0.101834
0.102301
0.102918
0.103578
0.104122
0.104524
0.104807
0.104997
0.105121
0.1052
0.10525
0.105279
0.105293
0.0772688
0.0772823
0.0773073
0.0773506
0.0774202
0.0775277
0.077689
0.0779243
0.0782547
0.0786952
0.0791685
0.079561
0.0798512
0.0800558
0.0801963
0.0802904
0.0803495
0.0803836
0.0804022
0.0804118
0.0535659
0.0535694
0.0535808
0.0536085
0.05365
0.0537149
0.0538155
0.0539659
0.0541805
0.0544727
0.0547874
0.0550493
0.0552419
0.0553774
0.0554687
0.0555277
0.0555651
0.0555885
0.0556033
0.0556116
0.0297728
0.0297912
0.0297603
0.0297494
0.0297556
0.0297798
0.029829
0.0299104
0.0300304
0.0301868
0.0303587
0.0305073
0.0306245
0.0307136
0.0307735
0.0308159
0.0308453
0.0308648
0.0308765
0.0308849
0.00613857
0.00617959
0.00606333
0.00601823
0.00600342
0.00599672
0.00599625
0.00600326
0.00601944
0.00604557
0.00607934
0.00611225
0.00613868
0.00615932
0.00617698
0.00619894
0.0062144
0.00622945
0.00624488
0.00625143
0.261424
0.479775
0.604766
0.713544
0.761389
0.717268
0.563696
0.234527
-0.278716
-0.498711
0.54336
0.634586
0.636138
0.654139
0.61797
0.5208
0.362247
0.162226
0.00968315
0.0509109
0.632527
0.649613
0.611741
0.584481
0.525617
0.440802
0.344378
0.275014
0.273364
0.346157
0.642813
0.636208
0.588098
0.556945
0.514042
0.468234
0.432361
0.438338
0.479618
0.528359
0.644213
0.638705
0.601909
0.582837
0.566154
0.554631
0.555666
0.590407
0.635354
0.666569
0.67353
0.67942
0.659266
0.650751
0.654062
0.663053
0.680367
0.722206
0.76215
0.78453
0.742432
0.755311
0.746014
0.742379
0.757037
0.774921
0.797396
0.837937
0.874023
0.891319
0.834903
0.851319
0.846096
0.845233
0.864349
0.884654
0.906938
0.944059
0.976142
0.990683
0.935549
0.952604
0.950651
0.952513
0.972022
0.991788
1.01181
1.04439
1.07223
1.08544
1.04086
1.0573
1.05772
1.06109
1.07925
1.09712
1.11476
1.1423
1.16561
1.17776
1.14903
1.16458
1.16592
1.17107
1.18692
1.20198
1.21723
1.23772
1.2563
1.26675
1.25257
1.26595
1.26927
1.27653
1.28885
1.30107
1.31396
1.33039
1.34506
1.35131
1.38138
1.39374
1.40019
1.40964
1.42061
1.43124
1.43898
1.4489
1.45789
1.45777
1.44487
1.45667
1.46064
1.46633
1.47193
1.47806
1.4861
1.49652
1.50734
1.50559
1.61901
1.63289
1.63071
1.62673
1.62767
1.63665
1.65444
1.68123
1.70978
1.73063
2.02632
1.90285
1.83174
1.79139
1.77292
1.7726
1.79184
1.83725
1.92799
2.14176
2.17558
2.17855
2.1734
2.16184
2.14778
2.13376
2.12088
2.10974
2.10088
2.0951
2.09385
2.09778
2.10535
2.11552
2.12763
2.1412
2.15544
2.16866
2.17761
2.17703
2.11774
2.11754
2.11558
2.11129
2.10493
2.09695
2.08818
2.07954
2.07204
2.06688
2.06575
2.06935
2.07602
2.08432
2.09321
2.10173
2.10899
2.11434
2.11745
2.11814
2.10253
2.10244
2.10198
2.10079
2.09846
2.09474
2.0899
2.08448
2.07931
2.07556
2.07474
2.07751
2.08232
2.08785
2.09315
2.09752
2.10057
2.10228
2.10313
2.10347
2.08112
2.08105
2.08068
2.07985
2.07845
2.07634
2.0735
2.07013
2.06672
2.06415
2.06365
2.06567
2.06901
2.07264
2.07589
2.07844
2.08022
2.08134
2.08193
2.08214
2.06322
2.06318
2.06299
2.06257
2.06181
2.06062
2.05897
2.05693
2.05482
2.05314
2.0529
2.05435
2.05661
2.05895
2.06094
2.06244
2.06345
2.06406
2.06438
2.06449
2.04693
2.04689
2.04678
2.04654
2.04612
2.04544
2.04449
2.04327
2.042
2.04103
2.04099
2.04206
2.0436
2.04511
2.04636
2.04727
2.04788
2.04823
2.04841
2.04848
2.0315
2.03147
2.0314
2.03127
2.03103
2.03065
2.03011
2.02944
2.02873
2.02825
2.02838
2.02921
2.03029
2.03131
2.03212
2.0327
2.03308
2.03329
2.0334
2.03344
2.01653
2.01651
2.01647
2.0164
2.01627
2.01607
2.0158
2.01547
2.01515
2.01502
2.01531
2.01603
2.01685
2.01758
2.01814
2.01853
2.01878
2.01893
2.01899
2.01901
2.00181
2.00179
2.00177
2.00173
2.00167
2.0016
2.0015
2.0014
2.00136
2.0015
2.00196
2.00266
2.00336
2.00394
2.00437
2.00466
2.00484
2.00494
2.00499
2.005
1.98717
1.98715
1.98714
1.98713
1.98712
1.98713
1.98715
1.98723
1.98742
1.98779
1.98843
1.9892
1.98987
1.9904
1.99077
1.99101
1.99116
1.99124
1.99127
1.99128
1.97251
1.97249
1.97249
1.97249
1.97253
1.9726
1.97273
1.97296
1.97334
1.97395
1.9748
1.9757
1.97643
1.97697
1.97734
1.97757
1.97771
1.97778
1.97781
1.97781
1.95774
1.95772
1.95772
1.95774
1.95781
1.95794
1.95817
1.95855
1.95913
1.95999
1.96112
1.96223
1.96308
1.96369
1.96409
1.96435
1.96449
1.96457
1.96459
1.96459
1.94277
1.94275
1.94275
1.9428
1.9429
1.94309
1.94343
1.94397
1.94479
1.94595
1.94741
1.94881
1.94985
1.95058
1.95106
1.95136
1.95153
1.95161
1.95164
1.95163
1.92752
1.92749
1.9275
1.92757
1.92771
1.92798
1.92845
1.92918
1.93027
1.93181
1.93371
1.93549
1.9368
1.93771
1.9383
1.93866
1.93887
1.93897
1.939
1.93899
1.91189
1.91185
1.91187
1.91195
1.91215
1.91251
1.91313
1.91411
1.91555
1.91756
1.92003
1.9223
1.92397
1.92512
1.92586
1.92632
1.92657
1.9267
1.92674
1.92673
1.89573
1.89568
1.8957
1.89582
1.89608
1.89657
1.8974
1.89868
1.90058
1.9032
1.90639
1.90931
1.91144
1.91289
1.91384
1.91441
1.91474
1.9149
1.91495
1.91493
1.87886
1.8788
1.87884
1.879
1.87935
1.88
1.88109
1.88279
1.88528
1.88869
1.89281
1.89656
1.89928
1.90113
1.90233
1.90306
1.90348
1.90368
1.90374
1.90372
1.86106
1.86099
1.86104
1.86126
1.86173
1.86261
1.86406
1.8663
1.86957
1.87401
1.87933
1.88413
1.8876
1.88996
1.89149
1.89242
1.89294
1.8932
1.89328
1.89326
1.842
1.84191
1.84199
1.84228
1.84294
1.84412
1.84606
1.84904
1.85334
1.85913
1.86597
1.87211
1.87653
1.87954
1.88148
1.88266
1.88332
1.88365
1.88375
1.88372
1.82122
1.82111
1.82122
1.82164
1.82255
1.82416
1.8268
1.83078
1.83646
1.844
1.8528
1.86062
1.86622
1.87003
1.87249
1.874
1.87484
1.87526
1.87539
1.87536
1.79805
1.79791
1.7981
1.79871
1.79999
1.80224
1.80586
1.81126
1.8188
1.82862
1.83988
1.84978
1.85685
1.86166
1.86479
1.8667
1.86779
1.86832
1.8685
1.86845
1.77147
1.77131
1.77162
1.77254
1.77442
1.77766
1.78275
1.79015
1.80021
1.81299
1.82731
1.83974
1.8486
1.85467
1.85864
1.8611
1.8625
1.8632
1.86344
1.86339
1.73981
1.73965
1.7402
1.74171
1.74462
1.74948
1.75684
1.76715
1.78064
1.79718
1.81521
1.83064
1.84165
1.84926
1.85433
1.85754
1.85941
1.86036
1.86071
1.86066
1.70006
1.69999
1.70113
1.70385
1.70878
1.71651
1.72751
1.74207
1.76015
1.78137
1.80375
1.82261
1.83609
1.84559
1.85211
1.85639
1.85902
1.86043
1.861
1.861
1.64558
1.64626
1.64938
1.65535
1.66468
1.6777
1.69453
1.7151
1.73908
1.76585
1.7931
1.81569
1.83191
1.84359
1.85195
1.85782
1.86177
1.86421
1.86545
1.86574
1.56038
1.56597
1.57777
1.59263
1.61104
1.633
1.65832
1.68674
1.71778
1.75075
1.78313
1.80952
1.82857
1.84262
1.85314
1.86107
1.86704
1.87154
1.87499
1.87718
1.45913
1.47159
1.49782
1.52546
1.55526
1.58727
1.62154
1.65792
1.69603
1.7352
1.77278
1.80315
1.82527
1.84204
1.85516
1.86563
1.87411
1.88096
1.88664
1.89005
1.36427
1.39019
1.42619
1.46371
1.50303
1.54397
1.58651
1.63042
1.67524
1.72024
1.7625
1.79614
1.82055
1.83918
1.85397
1.86601
1.87591
1.884
1.89053
1.8945
1.29707
1.32754
1.36753
1.41053
1.45627
1.50417
1.55374
1.60443
1.65546
1.70578
1.75201
1.78796
1.81355
1.83283
1.84796
1.86014
1.87005
1.87806
1.88446
1.88839
1.23963
1.2738
1.31702
1.36414
1.41479
1.46824
1.52375
1.58041
1.63705
1.69214
1.74161
1.77891
1.80468
1.82364
1.83829
1.84997
1.85943
1.86706
1.87319
1.87707
1.18895
1.22579
1.27174
1.3223
1.37707
1.43526
1.49596
1.558
1.61977
1.67922
1.73137
1.76925
1.79436
1.81226
1.82583
1.83658
1.84529
1.85238
1.85811
1.86192
1.14189
1.18134
1.22977
1.28345
1.34186
1.40431
1.46973
1.53676
1.60338
1.66695
1.72144
1.75928
1.783
1.79912
1.81103
1.82041
1.8281
1.83444
1.83965
1.84329
1.09726
1.13897
1.18984
1.24638
1.30822
1.3746
1.44448
1.51623
1.58759
1.65524
1.71195
1.74934
1.77096
1.78452
1.79408
1.80156
1.80783
1.8132
1.81774
1.821
1.0538
1.09786
1.15103
1.21035
1.27542
1.34556
1.41966
1.49603
1.57208
1.64395
1.70305
1.73977
1.75859
1.76866
1.77495
1.77982
1.78415
1.78818
1.79187
1.79468
1.01145
1.05734
1.11279
1.17481
1.243
1.31674
1.39494
1.47579
1.55659
1.63292
1.69483
1.7309
1.74628
1.75173
1.75354
1.75471
1.75632
1.75849
1.761
1.76319
0.969233
1.01691
1.0748
1.13944
1.21066
1.28787
1.36998
1.45525
1.54081
1.62196
1.68729
1.72312
1.73455
1.73405
1.72967
1.72559
1.72328
1.72279
1.72362
1.72499
0.927189
0.976834
1.03696
1.10413
1.17824
1.25879
1.34467
1.43419
1.52453
1.61078
1.68039
1.71678
1.72411
1.71618
1.70333
1.69165
1.6835
1.67904
1.67744
1.67758
0.885208
0.936779
0.999186
1.06881
1.14572
1.2294
1.31887
1.41247
1.5075
1.59911
1.67389
1.71219
1.71586
1.69915
1.67488
1.65205
1.63497
1.62433
1.619
1.61721
0.843781
0.897058
0.961623
1.03357
1.11312
1.1998
1.29261
1.39006
1.4896
1.58666
1.66749
1.70949
1.71088
1.68465
1.64544
1.60627
1.57514
1.55446
1.54303
1.53824
0.802227
0.85755
0.924277
0.998526
1.08058
1.17005
1.26597
1.36696
1.47073
1.57318
1.66072
1.70849
1.71014
1.67511
1.61759
1.55487
1.5012
1.46341
1.44143
1.43159
0.761498
0.818498
0.887349
0.963812
1.04824
1.14026
1.23909
1.34328
1.45092
1.55845
1.65307
1.70861
1.71424
1.67356
1.59613
1.50091
1.41095
1.34282
1.30127
1.28224
0.721258
0.780159
0.851051
0.929578
1.01626
1.11069
1.21207
1.31918
1.4302
1.54235
1.64396
1.70883
1.72283
1.68277
1.58837
1.45258
1.30551
1.18179
1.10134
1.06387
0.682424
0.74279
0.815569
0.896012
0.984834
1.08151
1.18516
1.29475
1.40876
1.52491
1.63294
1.70789
1.73423
1.70369
1.60294
1.42593
1.19505
0.968244
0.804366
0.72955
0.644469
0.706468
0.781042
0.863367
0.95412
1.05275
1.1585
1.2703
1.38676
1.50623
1.61975
1.70436
1.74549
1.73365
1.6455
1.44484
1.10702
0.688387
0.328616
0.188846
0.607761
0.671273
0.747535
0.831667
0.924267
1.02479
1.13237
1.24597
1.36445
1.48644
1.60427
1.69718
1.75297
1.76538
1.71076
1.53013
1.08885
0.201301
-0.672992
-0.891919
0.571695
0.637026
0.715163
0.801031
0.895423
0.997582
1.10683
1.22203
1.34205
1.46592
1.58677
1.68568
1.75347
1.78865
1.77552
1.66612
1.24229
-0.528674
-3.78226
-3.23604
0.537767
0.604062
0.683786
0.771174
0.867041
0.970704
1.08134
1.19758
1.31867
1.44365
1.566
1.66847
1.74409
1.79487
1.80921
1.73805
1.41204
0.572432
-0.854723
-1.29054
0.504826
0.572091
0.653725
0.742513
0.839433
0.944254
1.05578
1.17269
1.29441
1.4197
1.54224
1.64526
1.72307
1.77808
1.80051
1.75641
1.57134
1.19547
0.602117
0.503453
0.473524
0.540861
0.624755
0.715391
0.81318
0.918725
1.03072
1.14756
1.26928
1.39426
1.51555
1.61598
1.69006
1.73862
1.75156
1.70365
1.55372
1.32708
1.03588
0.850126
0.437705
0.512179
0.596386
0.688325
0.786931
0.893329
1.00472
1.12252
1.24437
1.36832
1.48688
1.5817
1.64663
1.68118
1.67287
1.60975
1.47381
1.30641
1.10785
0.958013
0.469823
0.522992
0.615432
0.709207
0.81256
0.922999
1.04025
1.15973
1.28116
1.40215
1.50487
1.5759
1.61424
1.6062
1.55308
1.45215
1.2966
1.16799
1.01198
0.924033
0.437552
0.471491
0.561511
0.650044
0.748974
0.855002
0.968682
1.08603
1.20512
1.32437
1.43453
1.51764
1.56259
1.57046
1.52835
1.434
1.29274
1.14955
1.01311
0.886952
0.40803
0.451869
0.533475
0.622503
0.722117
0.829547
0.942808
1.06058
1.17988
1.29867
1.40645
1.48451
1.51991
1.5081
1.44411
1.32744
1.17256
1.00782
0.890779
0.739108
0.379452
0.424523
0.507179
0.599867
0.701059
0.808288
0.921621
1.03815
1.15608
1.27218
1.37513
1.43987
1.45795
1.426
1.33716
1.19348
1.01055
0.813582
0.678842
0.51133
0.343817
0.385179
0.471741
0.565589
0.667129
0.77603
0.889864
1.00746
1.12573
1.24046
1.33892
1.39704
1.40434
1.35769
1.2514
1.0844
0.864279
0.595771
0.390194
0.127216
0.310645
0.351429
0.43976
0.535561
0.638758
0.748417
0.862874
0.980324
1.09767
1.21027
1.30412
1.35404
1.35074
1.2919
1.17189
0.984769
0.729027
0.354346
-0.0328612
-0.722847
0.273821
0.315027
0.404723
0.501899
0.606339
0.717213
0.832459
0.950314
1.06753
1.17864
1.26884
1.31294
1.30301
1.23831
1.1142
0.921101
0.644056
0.191834
-0.478018
-1.70392
0.235373
0.276907
0.36766
0.466457
0.572578
0.68491
0.801509
0.920097
1.03729
1.14739
1.23482
1.27515
1.26223
1.19808
1.08101
0.90545
0.656842
0.316529
-0.227941
-0.600373
0.195536
0.237443
0.329081
0.429211
0.536823
0.650579
0.76839
0.887876
1.00534
1.11474
1.20041
1.23913
1.22725
1.1704
1.07229
0.93794
0.777652
0.612412
0.462366
0.322713
0.153418
0.195566
0.2882
0.389804
0.499061
0.614378
0.733603
0.854109
0.971937
1.08117
1.16635
1.2061
1.19928
1.1557
1.08474
0.99869
0.912896
0.842164
0.799065
0.80165
0.107121
0.150429
0.244972
0.348318
0.459295
0.576259
0.697075
0.818796
0.937527
1.04732
1.1335
1.17678
1.17861
1.15234
1.11011
1.06461
1.02726
1.00589
1.00337
1.01749
0.05856
0.102752
0.199416
0.304762
0.417765
0.536644
0.659139
0.782343
0.902362
1.01349
1.10231
1.15121
1.16447
1.15705
1.14079
1.12603
1.1192
1.12275
1.13566
1.1552
0.00837651
0.0532684
0.152088
0.259663
0.3747
0.495571
0.620047
0.745058
0.866855
0.980229
1.07325
1.12897
1.15625
1.16641
1.17147
1.17831
1.18998
1.20663
1.2268
1.24837
-0.0442485
0.0019623
0.103336
0.213237
0.330501
0.453621
0.580229
0.707353
0.831406
0.947865
1.04611
1.11169
1.15167
1.17729
1.19883
1.22029
1.24305
1.26668
1.29026
1.31241
-0.0975243
-0.0499169
0.0538573
0.166113
0.285774
0.411217
0.540089
0.669586
0.796436
0.9167
1.0212
1.09747
1.14856
1.18756
1.22115
1.25227
1.28164
1.30914
1.33436
1.35688
-0.149993
-0.101391
0.00456668
0.119123
0.24115
0.368978