/*--------------------------------*- C++ -*----------------------------------*\
| =========                 |                                                 |
| \\      /  F ield         | OpenFOAM: The Open Source CFD Toolbox           |
|  \\    /   O peration     | Version:  2112                                  |
|   \\  /    A nd           | Website:  www.openfoam.com                      |
|    \\/     M anipulation  |                                                 |
\*---------------------------------------------------------------------------*/
FoamFile
{
    version     2.0;
    format      ascii;
    arch        "LSB;label=32;scalar=64";
    class       surfaceScalarField;
    location    "0.5";
    object      phi;
}
// * * * * * * * * * * * * * * * * * * * * * * * * * * * * * * * * * * * * * //

dimensions      [0 3 -1 0 0 0 0];

oriented        oriented;

internalField   nonuniform List<scalar> 
17370
(
-0.0555824
0.0520854
0.292508
-0.0428725
0.0355822
0.354066
-0.0287939
0.0238606
0.421101
-0.0194183
0.0161651
0.502505
-0.0132145
0.011057
0.60156
-0.00904623
0.0075642
0.72054
-0.00612956
0.00503537
0.864001
-0.00393116
0.00304837
1.03633
-0.00211548
0.00131519
1.2433
-0.000453403
-0.000352244
1.492
0.00115207
-0.00200346
1.49204
0.00275652
-0.00363993
1.24357
0.00446724
-0.00551798
1.03669
0.0065648
-0.00794803
0.86429
0.00938022
-0.0113343
0.721012
0.0134366
-0.0163591
0.602137
0.0195844
-0.0239986
0.503854
0.0289092
-0.0356757
0.422935
0.0429488
-0.0521473
0.355974
0.055592
0.233419
-0.214013
0.20536
0.00865243
-0.355186
0.353962
-0.0110253
0.0122493
-0.423918
0.423536
-0.013044
0.0134253
-0.505872
0.506113
-0.0135105
0.0132687
-0.604139
0.6051
-0.0126648
0.0117043
-0.722914
0.724077
-0.010783
0.00962005
-0.865874
0.867115
-0.00852468
0.00728357
-1.03803
1.03925
-0.00616779
0.00494945
-1.24478
1.24592
-0.00387489
0.00273851
-1.49315
1.4944
-0.00172509
0.00047398
-1.49306
1.49419
0.000686396
-0.00181607
-1.24428
1.24529
0.00296831
-0.00398154
-1.03737
1.03831
0.00510456
-0.0060514
-0.865246
0.866298
0.00719282
-0.00824486
-0.722056
0.723075
0.00942176
-0.0104407
-0.603344
0.604225
0.0115268
-0.0124081
-0.504356
0.504822
0.0132078
-0.013674
-0.422675
0.422531
0.0138526
-0.0137085
-0.354534
0.353689
0.0132664
-0.0124214
-0.289028
0.286575
0.011146
-0.00869284
-0.202461
0.202223
0.000238199
-0.00253292
0.00357031
-0.352522
0.351485
-0.00453498
0.00523654
-0.422135
0.421433
-0.00578725
0.00611001
-0.505151
0.504828
-0.0062509
0.00622214
-0.604824
0.604853
-0.00599276
0.00563134
-0.724002
0.724363
-0.00508807
0.00448985
-0.867365
0.867964
-0.00374991
0.00301876
-1.03951
1.04024
-0.00214333
0.00132122
-1.24629
1.24711
-0.000288647
-0.000729691
-1.49539
1.49641
0.00172021
-0.00270072
-1.4954
1.49638
0.0035415
-0.00445718
-1.24683
1.24774
0.00505728
-0.00567147
-1.03997
1.04058
0.0061488
-0.00656876
-0.867749
0.868169
0.00682622
-0.0069564
-0.724485
0.724615
0.00690631
-0.00666479
-0.60515
0.604908
0.00625989
-0.00562416
-0.505654
0.505019
0.00484247
-0.00379418
-0.422379
0.421331
0.00268472
-0.00135971
-0.351973
0.350648
0.000285342
-0.202348
0.202063
-0.201935
0.201702
0.000232493
-0.000897395
0.00132387
-0.350828
0.350402
-0.00179025
0.00219626
-0.420807
0.420401
-0.00260739
0.00293597
-0.504378
0.504049
-0.00322006
0.00333947
-0.604779
0.60466
-0.00336162
0.00327729
-0.72457
0.724655
-0.00306448
0.00276217
-0.868407
0.86871
-0.00231265
0.00180319
-1.04087
1.04138
-0.00114732
0.000451451
-1.24793
1.24863
0.000256719
-0.000950889
-1.49727
1.49796
0.00164119
-0.00230966
-1.49722
1.49789
0.00281384
-0.00324005
-1.24846
1.24889
0.0037014
-0.0040226
-1.04102
1.04134
0.00420053
-0.00427212
-0.86839
0.868462
0.00422756
-0.00406406
-0.724543
0.724379
0.00381966
-0.0034651
-0.604518
0.604164
0.00308118
-0.00261681
-0.504364
0.503899
0.0021673
-0.00166175
-0.420579
0.420074
0.00120253
-0.000721796
-0.349929
0.349449
0.000325434
-0.201698
0.201372
-0.201502
0.201334
0.000167941
-0.000592536
0.0007505
-0.350145
0.349987
-0.00092544
0.00108753
-0.420143
0.419981
-0.00126051
0.00140666
-0.503829
0.503682
-0.00154232
0.0016281
-0.604546
0.60446
-0.00167037
0.00165176
-0.724688
0.724707
-0.00155765
0.00139791
-0.868924
0.869084
-0.00113552
0.000818031
-1.04178
1.0421
-0.000389112
-6.82333e-05
-1.24919
1.24965
0.000597434
-0.00111262
-1.49856
1.49908
0.00160311
-0.00205447
-1.49844
1.49889
0.00237961
-0.00261117
-1.24919
1.24942
0.00276445
-0.00287269
-1.04155
1.04166
0.0028876
-0.00282226
-0.868452
0.868386
0.00269664
-0.00250186
-0.724189
0.723995
0.00228255
-0.00201155
-0.603853
0.603582
0.00174713
-0.00144831
-0.503529
0.50323
0.00117592
-0.00088583
-0.419693
0.419403
0.000634367
-0.000376825
-0.349104
0.348847
0.000165428
-0.201151
0.200986
-0.201231
0.201173
5.72918e-05
-0.000205316
0.000276746
-0.349876
0.349805
-0.000355669
0.000427473
-0.419868
0.419797
-0.000502432
0.000562844
-0.503583
0.503522
-0.000615205
0.000644129
-0.604403
0.604374
-0.000648523
0.000619365
-0.724726
0.724755
-0.000543583
0.000428123
-0.869214
0.86933
-0.000244259
2.6817e-05
-1.04236
1.04258
0.000268994
-0.000585831
-1.25002
1.25034
0.000964728
-0.00132617
-1.49951
1.49987
0.00165372
-0.00193033
-1.49925
1.49953
0.00210681
-0.00221638
-1.24959
1.2497
0.00225592
-0.00224032
-1.0417
1.04168
0.00217539
-0.0020569
-0.868288
0.868169
0.00191585
-0.00173396
-0.723805
0.723623
0.00155263
-0.00134459
-0.603346
0.603138
0.00115229
-0.000944841
-0.502985
0.502777
0.000762113
-0.000571742
-0.419173
0.418983
0.000408085
-0.000242174
-0.348644
0.348478
0.000106378
-0.200856
0.20075
-0.201144
0.201134
1.01349e-05
-3.16602e-05
4.19407e-05
-0.349766
0.349756
-5.16593e-05
5.77778e-05
-0.419761
0.419755
-5.99596e-05
5.57667e-05
-0.503496
0.503501
-4.17135e-05
1.66124e-05
-0.604373
0.604398
2.80697e-05
-8.87405e-05
-0.724799
0.72486
0.000181718
-0.000295435
-0.86944
0.869554
0.00045527
-0.000633632
-1.04277
1.04295
0.000863753
-0.00109906
-1.25061
1.25084
0.00137334
-0.00162118
-1.50017
1.50042
0.00182817
-0.00197923
-1.49974
1.49989
0.00205231
-0.00206838
-1.24975
1.24977
0.00203369
-0.00195202
-1.04163
1.04155
0.00184467
-0.00170159
-0.868037
0.867894
0.00155368
-0.00138184
-0.723448
0.723276
0.00122033
-0.00104364
-0.602949
0.602772
0.000886041
-0.000720565
-0.502595
0.50243
0.000577894
-0.000430965
-0.418818
0.418671
0.000306043
-0.000180171
-0.348338
0.348212
7.80214e-05
-0.20066
0.200582
-0.201138
0.201155
-1.71756e-05
7.57313e-05
-0.000109135
-0.34977
0.349803
0.000150148
-0.00019218
-0.419774
0.419816
0.000244411
-0.000298973
-0.503531
0.503586
0.000368251
-0.000441473
-0.604447
0.604521
0.000535019
-0.000634768
-0.72494
0.725039
0.000762131
-0.000896519
-0.869676
0.86981
0.00106453
-0.00123591
-1.04312
1.04329
0.00144007
-0.00163468
-1.25105
1.25125
0.00184434
-0.00201572
-1.50063
1.5008
0.00213634
-0.00219608
-1.49999
1.50005
0.00219237
-0.00213587
-1.24975
1.24969
0.0020457
-0.0019154
-1.04144
1.04131
0.00177649
-0.00160945
-0.867739
0.867572
0.00145055
-0.00127391
-0.723103
0.722926
0.00111468
-0.000945869
-0.602603
0.602434
0.000798949
-0.000647033
-0.502274
0.502122
0.00051719
-0.000384827
-0.418535
0.418402
0.000273295
-0.000161047
-0.348096
0.347984
6.93846e-05
-0.200508
0.200439
-0.201184
0.201224
-3.96441e-05
0.000163139
-0.000231503
-0.349854
0.349922
0.000313654
-0.000395959
-0.419878
0.419961
0.000494834
-0.000594092
-0.503663
0.503762
0.000713467
-0.000833338
-0.604617
0.604737
0.000977165
-0.0011207
-0.725161
0.725304
0.00129156
-0.00145971
-0.86996
0.870128
0.00165568
-0.00184226
-1.04347
1.04365
0.00204896
-0.00223077
-1.25143
1.25162
0.00240812
-0.00253106
-1.50094
1.50107
0.00259126
-0.00258169
-1.50007
1.50006
0.00251648
-0.00239794
-1.2496
1.24949
0.00225759
-0.00208066
-1.04116
1.04098
0.001906
-0.00170809
-0.867392
0.867194
0.00152681
-0.00133136
-0.722743
0.722547
0.00115926
-0.000979458
-0.602262
0.602082
0.00082493
-0.000665615
-0.501969
0.501809
0.000530075
-0.000393374
-0.41827
0.418133
0.000279283
-0.000164561
-0.347871
0.347756
7.04149e-05
-0.200371
0.2003
-0.201274
0.201335
-6.11912e-05
0.000246993
-0.000349014
-0.350008
0.35011
0.000470999
-0.000592906
-0.420063
0.420185
0.000738748
-0.000883215
-0.503884
0.504028
0.00105452
-0.00122341
-0.604881
0.60505
0.00142228
-0.00161586
-0.725471
0.725665
0.00184014
-0.00205384
-0.870318
0.870531
0.00229406
-0.00251316
-1.04385
1.04407
0.00274418
-0.00293465
-1.2518
1.25199
0.00310323
-0.00319862
-1.50117
1.50127
0.00321497
-0.00314816
-1.50002
1.49996
0.00302784
-0.00284879
-1.24934
1.24916
0.00265619
-0.00242569
-1.04078
1.04055
0.00220644
-0.00196469
-0.866975
0.866734
0.00174694
-0.0015168
-0.722336
0.722106
0.00131592
-0.0011087
-0.60189
0.601683
0.000931457
-0.00075104
-0.501641
0.501461
0.000598554
-0.00044456
-0.41799
0.417836
0.00031527
-0.000185375
-0.347635
0.347505
7.91171e-05
-0.200227
0.200148
-0.201407
0.20149
-8.34455e-05
0.000336699
-0.000476383
-0.35023
0.35037
0.00064341
-0.000809081
-0.420328
0.420493
0.00100601
-0.00120071
-0.504197
0.504391
0.00143111
-0.00165662
-0.605246
0.605471
0.00191972
-0.00217348
-0.725887
0.726141
0.00246386
-0.00273655
-0.870773
0.871046
0.00303711
-0.00330527
-1.04431
1.04458
0.00357932
-0.003796
-1.25219
1.25241
0.00397381
-0.00405569
-1.50135
1.50144
0.0040374
-0.00391738
-1.49986
1.49974
0.00374049
-0.00349556
-1.24895
1.2487
0.00324241
-0.00294684
-1.04029
1.03999
0.0026713
-0.00237066
-0.866465
0.866164
0.00210362
-0.00182261
-0.721852
0.721571
0.0015795
-0.00132875
-0.601456
0.601205
0.00111494
-0.000897588
-0.501264
0.501046
0.000714601
-0.000530005
-0.417667
0.417483
0.000374831
-0.000219304
-0.347364
0.347208
9.2657e-05
-0.200063
0.19997
-0.201587
0.201697
-0.000110732
0.000444537
-0.000627927
-0.35053
0.350714
0.000846778
-0.00106433
-0.420684
0.420901
0.001323
-0.00157808
-0.504615
0.50487
0.00187833
-0.00217195
-0.605729
0.606023
0.00251334
-0.00284115
-0.72643
0.726758
0.003214
-0.00356144
-0.871353
0.871701
0.00394151
-0.00427596
-1.04488
1.04522
0.00461231
-0.00487135
-1.25264
1.2529
0.00507428
-0.00515282
-1.50152
1.50159
0.00510441
-0.00492916
-1.4996
1.49942
0.00468855
-0.00436594
-1.24842
1.2481
0.00403783
-0.0036604
-1.03966
1.03928
0.00331095
-0.00293328
-0.865828
0.86545
0.00259899
-0.00224921
-0.721259
0.720909
0.00194704
-0.00163692
-0.600927
0.600617
0.00137321
-0.00110556
-0.500806
0.500538
0.00088009
-0.000652654
-0.417278
0.417051
0.000461971
-0.000270626
-0.347037
0.346845
0.00011452
-0.199867
0.199753
-0.201823
0.201966
-0.000143024
0.000575144
-0.000812981
-0.350923
0.351161
0.00109708
-0.0013789
-0.421149
0.421431
0.00171332
-0.00204288
-0.50516
0.50549
0.00243139
-0.00281005
-0.606356
0.606735
0.00324961
-0.00367048
-0.727129
0.72755
0.00414786
-0.00459105
-0.872093
0.872536
0.0050728
-0.00549443
-1.04559
1.04601
0.0059142
-0.00623292
-1.25319
1.25351
0.00647464
-0.00655709
-1.50167
1.50176
0.00647767
-0.00623871
-1.49921
1.49898
0.00592214
-0.00550377
-1.24773
1.24731
0.00508337
-0.00460186
-1.03885
1.03837
0.00415876
-0.00368089
-0.865025
0.864547
0.00325918
-0.00281865
-0.720516
0.720076
0.00243893
-0.00204963
-0.600269
0.59988
0.00171924
-0.00138374
-0.500238
0.499903
0.00110098
-0.000816131
-0.416797
0.416512
0.000577778
-0.000338849
-0.346632
0.346393
0.000143507
-0.199625
0.199482
-0.202129
0.202314
-0.000184868
0.000741505
-0.00104748
-0.35143
0.351736
0.00141268
-0.0017751
-0.421751
0.422113
0.00220569
-0.00262962
-0.505864
0.506288
0.00312825
-0.00361425
-0.607164
0.60765
0.00417769
-0.00471649
-0.728026
0.728565
0.00532637
-0.00589123
-0.873037
0.873602
0.00650365
-0.00703714
-1.04649
1.04702
0.0075655
-0.00796257
-1.25386
1.25426
0.0082578
-0.00834879
-1.50184
1.50193
0.0082346
-0.00791819
-1.4987
1.49838
0.00750686
-0.00696853
-1.24684
1.2463
0.00642993
-0.00581627
-1.03783
1.03721
0.00525283
-0.00464699
-0.864009
0.863403
0.00411343
-0.00355655
-0.719581
0.719024
0.00307678
-0.00258519
-0.599443
0.598951
0.00216751
-0.00174375
-0.499526
0.499103
0.00138686
-0.0010276
-0.416192
0.415833
0.000727187
-0.000425914
-0.346124
0.345823
0.000180039
-0.199321
0.199141
-0.202523
0.202761
-0.000237432
0.000952585
-0.00134563
-0.352084
0.352477
0.00181474
-0.00228021
-0.422524
0.422989
0.00283243
-0.00337616
-0.506768
0.507312
0.00401582
-0.00463877
-0.6082
0.608823
0.00536025
-0.00604957
-0.729175
0.729864
0.00682865
-0.00754902
-0.874239
0.87496
0.00832773
-0.00900413
-1.04762
1.0483
0.00967054
-0.010168
-1.2547
1.2552
0.0105319
-0.010635
-1.50203
1.50213
0.0104765
-0.0100625
-1.49802
1.49761
0.00953123
-0.0088403
-1.24569
1.245
0.00815224
-0.00736951
-1.03652
1.03574
0.0066529
-0.00588277
-0.862721
0.86195
0.00520556
-0.00449936
-0.718397
0.717691
0.00389237
-0.00327016
-0.598398
0.597776
0.00274255
-0.00220724
-0.498627
0.498091
0.00175688
-0.00130287
-0.415429
0.414975
0.000921895
-0.000539853
-0.345484
0.345102
0.000227862
-0.198939
0.198711
-0.20303
0.203336
-0.000305434
0.00122384
-0.00172893
-0.352922
0.353427
0.00233147
-0.00292892
-0.423517
0.424114
0.0036375
-0.00433518
-0.507927
0.508625
0.00515516
-0.00595338
-0.609528
0.610327
0.00687726
-0.00775869
-0.730643
0.731525
0.00875387
-0.00967192
-0.875773
0.876691
0.0106626
-0.01152
-1.04906
1.04992
0.0123612
-0.0129844
-1.25576
1.25638
0.0134337
-0.0135495
-1.50224
1.50236
0.0133331
-0.0127931
-1.49713
1.49659
0.0121083
-0.0112228
-1.24421
1.24333
0.0103435
-0.00934659
-1.03486
1.03386
0.00843445
-0.00745654
-0.861083
0.860105
0.00659632
-0.00570069
-0.716896
0.716
0.0049298
-0.00414079
-0.597076
0.596287
0.00347095
-0.00279232
-0.497489
0.49681
0.0022214
-0.00164626
-0.414464
0.413889
0.0011645
-0.000681391
-0.344672
0.344189
0.000287508
-0.198454
0.198167
-0.203682
0.204075
-0.000393101
0.00157427
-0.00222332
-0.353999
0.354648
0.00299792
-0.00376614
-0.424791
0.42556
0.0046773
-0.00557342
-0.509416
0.510312
0.00662616
-0.00764973
-0.61123
0.612254
0.00883287
-0.00996041
-0.732522
0.733649
0.011231
-0.0124012
-0.877728
0.878898
0.0136603
-0.0147464
-1.05088
1.05197
0.0158062
-0.0165853
-1.25708
1.25786
0.0171368
-0.017263
-1.50248
1.50261
0.0169674
-0.0162629
-1.49598
1.49527
0.0153803
-0.0142454
-1.24233
1.24119
0.0131229
-0.0118522
-1.03273
1.03146
0.0106922
-0.00944927
-0.859002
0.857759
0.00835785
-0.00722152
-0.714991
0.713855
0.00624471
-0.0052451
-0.595399
0.594399
0.00439743
-0.00353787
-0.496046
0.495187
0.00281406
-0.00208536
-0.413242
0.412513
0.0014754
-0.000864157
-0.343646
0.343035
0.000364962
-0.197842
0.197477
-0.204522
0.205029
-0.000507575
0.00203051
-0.00286727
-0.355385
0.356222
0.00386509
-0.00485406
-0.426431
0.42742
0.00602648
-0.00717919
-0.511328
0.51248
0.00853231
-0.00984688
-0.613414
0.614728
0.0113648
-0.0128086
-0.734925
0.736369
0.0144322
-0.0159231
-0.880219
0.88171
0.0175215
-0.0188939
-1.05319
1.05456
0.0202246
-0.0211927
-1.25873
1.2597
0.0218626
-0.0219905
-1.50274
1.50286
0.0215843
-0.0206628
-1.49447
1.49355
0.0195237
-0.0180691
-1.23991
1.23845
0.0166359
-0.0150182
-1.03003
1.02841
0.0135441
-0.0119663
-0.856359
0.854781
0.0105821
-0.00914162
-0.712575
0.711135
0.00790414
-0.00663805
-0.593274
0.592008
0.0055648
-0.00447665
-0.494219
0.493131
0.00356106
-0.00263924
-0.411694
0.410772
0.00186773
-0.00109398
-0.342346
0.341573
0.00046237
-0.197067
0.196605
-0.205606
0.206264
-0.00065733
0.00262689
-0.00370891
-0.357173
0.358255
0.00499908
-0.00627734
-0.428544
0.429822
0.00779152
-0.00927878
-0.513789
0.515277
0.0110226
-0.012714
-0.616219
0.61791
0.014663
-0.0165127
-0.738003
0.739853
0.0185865
-0.0204839
-0.883392
0.885289
0.0225087
-0.0242366
-1.0561
1.05783
0.0258977
-0.02709
-1.26077
1.26196
0.0278897
-0.0280008
-1.50299
1.5031
0.0274379
-0.0262291
-1.49249
1.49128
0.0247587
-0.0228949
-1.23681
1.23494
0.0210667
-0.0190092
-1.02659
1.02453
0.0171375
-0.0151373
-0.853004
0.851004
0.0133836
-0.0115605
-0.709514
0.707691
0.00999456
-0.00839272
-0.590583
0.588982
0.00703468
-0.00565846
-0.491907
0.490531
0.00450096
-0.00333554
-0.409735
0.40857
0.00235964
-0.0013812
-0.340703
0.339724
0.000583222
-0.196086
0.195503
-0.207014
0.20787
-0.000856361
0.00341737
-0.00482317
-0.359487
0.360893
0.00649861
-0.00815747
-0.431277
0.432936
0.0101209
-0.0120468
-0.516968
0.518894
0.0143014
-0.0164837
-0.619831
0.622013
0.0189919
-0.0213642
-0.741947
0.74432
0.0240126
-0.0264232
-0.887429
0.889839
0.0289784
-0.031141
-1.05977
1.06193
0.0331956
-0.0346435
-1.26328
1.26473
0.0355731
-0.0356309
-1.50319
1.50325
0.0348437
-0.0332527
-1.4899
1.48831
0.031353
-0.0289673
-1.23283
1.23045
0.0266388
-0.0240267
-1.02221
1.0196
0.0216549
-0.0191232
-0.848753
0.846221
0.0169052
-0.0146005
-0.70564
0.703336
0.0126215
-0.0105982
-0.587181
0.585158
0.00888296
-0.00714526
-0.488985
0.487247
0.0056834
-0.00421147
-0.40726
0.405788
0.00297894
-0.00174356
-0.338625
0.33739
0.000735798
-0.194847
0.194111
-0.20885
0.209976
-0.00112518
0.00447941
-0.00631918
-0.3625
0.364339
0.00851015
-0.0106772
-0.43483
0.436997
0.0132383
-0.015746
-0.52109
0.523598
0.018674
-0.0214991
-0.624495
0.62732
0.0247328
-0.0277764
-0.747006
0.75005
0.031154
-0.0342053
-0.892553
0.895604
0.0374103
-0.0400906
-1.06434
1.06702
0.0425965
-0.0443166
-1.26631
1.26803
0.0453508
-0.0452897
-1.50326
1.50319
0.0441802
-0.0420806
-1.48648
1.48438
0.0396279
-0.0365797
-1.22775
1.2247
0.0336225
-0.030316
-1.01666
1.01335
0.0273196
-0.0241246
-0.843376
0.840181
0.0213273
-0.0184204
-0.700747
0.69784
0.0159248
-0.0133724
-0.582885
0.580332
0.0112092
-0.0090167
-0.485294
0.483102
0.00717218
-0.00531469
-0.404135
0.402277
0.00375965
-0.00220054
-0.336002
0.334443
0.000928828
-0.193283
0.192354
-0.21127
0.212766
-0.00149576
0.00593792
-0.00837105
-0.366452
0.368885
0.0112649
-0.0141225
-0.439482
0.44234
0.0174916
-0.0207802
-0.526466
0.529755
0.024605
-0.0282772
-0.630539
0.634211
0.0324551
-0.0363581
-0.753498
0.757401
0.0406495
-0.044485
-0.899029
0.902865
0.0484595
-0.0517294
-1.06999
1.07326
0.0547165
-0.0566906
-1.26988
1.27186
0.0577564
-0.0574638
-1.50304
1.50274
0.0558891
-0.0531157
-1.48197
1.47919
0.0499568
-0.0460793
-1.22126
1.21738
0.0423426
-0.0381783
-1.00964
1.00547
0.0344112
-0.0303963
-0.836597
0.832582
0.0268804
-0.0232257
-0.69458
0.690925
0.0200853
-0.0168719
-0.577468
0.574255
0.0141457
-0.0113811
-0.48064
0.477875
0.0090539
-0.00671008
-0.400191
0.397847
0.00474705
-0.00277865
-0.332691
0.330723
0.00117293
-0.191311
0.190138
-0.214502
0.21653
-0.00202742
0.0080101
-0.0112799
-0.371699
0.374969
0.0151605
-0.0189805
-0.445637
0.449457
0.0234665
-0.0278227
-0.533534
0.537891
0.0328557
-0.0376487
-0.638405
0.643198
0.0430482
-0.0480338
-0.761815
0.766801
0.0534412
-0.0581964
-0.907145
0.911901
0.0630297
-0.0669118
-1.07684
1.08072
0.0703401
-0.0724768
-1.27393
1.27607
0.0734193
-0.0727106
-1.50227
1.50156
0.0704698
-0.0668123
-1.47601
1.47235
0.062765
-0.0578683
-1.21302
1.20812
0.0531832
-0.0479819
-1.00081
0.995612
0.0432811
-0.0382691
-0.828091
0.823079
0.0338739
-0.0292964
-0.686831
0.682254
0.0253556
-0.0213146
-0.57065
0.566609
0.0178808
-0.0143935
-0.474771
0.471283
0.0114548
-0.00849211
-0.395213
0.39225
0.00600897
-0.00351803
-0.32851
0.326019
0.00148524
-0.18882
0.187334
-0.218916
0.221755
-0.00283895
0.0111265
-0.0156362
-0.378792
0.383302
0.0209655
-0.026181
-0.453906
0.459122
0.032258
-0.0381019
-0.542928
0.548772
0.0447732
-0.0510367
-0.648679
0.654942
0.0579764
-0.0642656
-0.772415
0.778704
0.0709425
-0.076676
-0.917147
0.922881
0.0823413
-0.0867361
-1.08488
1.08927
0.0904236
-0.0925027
-1.27821
1.28029
0.0930356
-0.0916232
-1.50054
1.49913
0.0884405
-0.0836387
-1.46815
1.46335
0.0784987
-0.0723844
-1.20264
1.19653
0.0665868
-0.0601757
-0.989825
0.983414
0.0543852
-0.0482018
-0.817502
0.811319
0.0427619
-0.0370734
-0.677144
0.671456
0.0321532
-0.027084
-0.562081
0.557012
0.022757
-0.0183449
-0.467363
0.462951
0.0146144
-0.0108436
-0.388912
0.385141
0.00767743
-0.00449737
-0.323209
0.320029
0.0018998
-0.185658
0.183759
-0.225178
0.229462
-0.00428423
0.0164175
-0.0229253
-0.388683
0.395191
0.0305255
-0.0378555
-0.465287
0.472617
0.0462448
-0.054145
-0.555571
0.563471
0.0629536
-0.0710162
-0.662077
0.67014
0.0797068
-0.0873583
-0.785689
0.793341
0.0952301
-0.101764
-0.929061
0.935595
0.107964
-0.112529
-1.09382
1.09838
0.116045
-0.117646
-1.2822
1.2838
0.1173
-0.114766
-1.49722
1.49469
0.11028
-0.104029
-1.45787
1.45162
0.0975814
-0.0900682
-1.18974
1.18222
0.0830261
-0.0752841
-0.976347
0.968605
0.0683026
-0.0608344
-0.804499
0.797031
0.0542346
-0.0472865
-0.665148
0.6582
0.0412252
-0.0349204
-0.551347
0.545042
0.0294824
-0.0238806
-0.45798
0.452378
0.0190974
-0.0142204
-0.380864
0.375987
0.0100958
-0.00593074
-0.31641
0.312245
0.00251232
-0.181591
0.179078
-0.234778
0.243422
-0.00864352
0.0289043
-0.0387067
-0.403314
0.413116
0.0497228
-0.0599581
-0.481451
0.491686
0.0712377
-0.0814716
-0.572613
0.582847
0.0924502
-0.102123
-0.679112
0.688785
0.112158
-0.120662
-0.80154
0.810045
0.129056
-0.135708
-0.942313
0.948965
0.141658
-0.14567
-1.10279
1.1068
0.148243
-0.14869
-1.28493
1.28537
0.146782
-0.142567
-1.49139
1.48718
0.136328
-0.128285
-1.44451
1.43647
0.12032
-0.111268
-1.17395
1.1649
0.102917
-0.0938282
-0.960184
0.951096
0.0856789
-0.076981
-0.788926
0.780228
0.0692853
-0.0611457
-0.650621
0.642482
0.0539876
-0.0464587
-0.53808
0.530551
0.0398695
-0.03295
-0.446073
0.439153
0.0269067
-0.0205777
-0.370372
0.364043
0.0150526
-0.00924225
-0.307363
0.301553
0.00403472
-0.176138
0.172103
-0.254832
0.258332
-0.00349918
0.0216913
-0.0311956
-0.426353
0.435857
0.0423888
-0.0530885
-0.503937
0.514637
0.0649922
-0.07644
-0.594042
0.60549
0.0886136
-0.0994196
-0.698784
0.70959
0.111397
-0.122028
-0.818436
0.829067
0.133085
-0.142559
-0.955193
0.964666
0.151966
-0.159457
-1.11013
1.11762
0.166084
-0.170321
-1.28492
1.28915
0.172447
-0.171491
-1.48187
1.48091
0.167388
-0.160575
-1.42739
1.42058
0.15268
-0.142773
-1.15504
1.14513
0.133116
-0.121635
-0.941365
0.929885
0.111048
-0.0993271
-0.770998
0.759277
0.0887043
-0.0772275
-0.633867
0.62239
0.0667578
-0.0558797
-0.522515
0.511637
0.0466652
-0.036866
-0.431558
0.421759
0.028669
-0.0205149
-0.3567
0.348546
0.0137707
-0.00739392
-0.29436
0.287983
0.00213904
-0.166755
0.164616
-0.273467
0.26931
0.00415713
0.00579851
-0.0129929
-0.44847
0.455665
0.0224941
-0.0314531
-0.52619
0.535149
0.0420656
-0.0517921
-0.616616
0.626342
0.0626762
-0.0726173
-0.720616
0.730558
0.083291
-0.0930051
-0.839523
0.849237
0.10317
-0.111665
-0.974202
0.982697
0.12036
-0.127024
-1.12535
1.13201
0.132924
-0.136486
-1.29354
1.2971
0.137739
-0.136182
-1.4796
1.47804
0.131598
-0.124474
-1.41335
1.40623
0.116323
-0.106406
-1.13507
1.12515
0.096999
-0.0864071
-0.918564
0.907972
0.076655
-0.0659492
-0.747677
0.736971
0.0564569
-0.0466584
-0.610833
0.601035
0.0382988
-0.0296572
-0.500571
0.49193
0.022461
-0.0155373
-0.410728
0.403804
0.0102997
-0.00554737
-0.337338
0.332586
0.00235444
-5.0948e-05
-0.276678
0.274374
-0.00138524
-0.15578
0.157165
-0.283187
0.27817
0.00501637
0.00224076
-0.00792826
-0.464882
0.47057
0.0152752
-0.0227071
-0.544264
0.551696
0.0313368
-0.0395813
-0.635841
0.644085
0.0488863
-0.0575318
-0.740149
0.748794
0.0671372
-0.0758024
-0.85854
0.867205
0.0847477
-0.0926494
-0.991331
0.999233
0.100623
-0.106921
-1.13865
1.14495
0.112181
-0.115259
-1.30046
1.30354
0.116392
-0.114689
-1.47624
1.47454
0.11013
-0.103234
-1.3989
1.392
0.0955578
-0.086528
-1.1155
1.10647
0.0777673
-0.0682609
-0.897518
0.888011
0.0596603
-0.0503964
-0.727067
0.717803
0.0424994
-0.034366
-0.591721
0.583588
0.0275873
-0.0205272
-0.483329
0.476269
0.014912
-0.0096063
-0.395819
0.390514
0.00565117
-0.0023204
-0.324655
0.321325
0.000227672
0.00114447
-0.26613
0.264757
-0.00190391
-0.149968
0.151872
-0.290876
0.285566
0.0053096
0.00105501
-0.00594042
-0.477926
0.482811
0.0121083
-0.0186117
-0.558992
0.565495
0.0262808
-0.0334351
-0.652057
0.659212
0.04174
-0.0495226
-0.757421
0.765203
0.0581704
-0.0660533
-0.875715
0.883598
0.0746466
-0.0819263
-1.00707
1.01435
0.089545
-0.0952376
-1.15126
1.15696
0.100414
-0.103531
-1.30682
1.30994
0.104689
-0.102963
-1.47281
1.47109
0.0988486
-0.0925319
-1.38491
1.37859
0.0854294
-0.076804
-1.09749
1.08886
0.0687811
-0.060152
-0.878503
0.869874
0.0522842
-0.0441804
-0.708922
0.700819
0.0369665
-0.0297445
-0.575481
0.568259
0.023669
-0.0176243
-0.469287
0.463243
0.0127838
-0.00806907
-0.383959
0.379244
0.00448807
-0.00172641
-0.314746
0.311984
-0.000272664
0.00143507
-0.257999
0.256837
-0.00182009
-0.145577
0.147397
-0.297597
0.292781
0.00481604
0.000917386
-0.00528371
-0.489356
0.493723
0.0113529
-0.0172366
-0.572191
0.578074
0.0240464
-0.0308714
-0.666495
0.67332
0.0384027
-0.0457504
-0.772883
0.78023
0.0538481
-0.0612972
-0.891439
0.898888
0.0694066
-0.0765515
-1.02187
1.02902
0.083851
-0.08977
-1.16292
1.16884
0.0950441
-0.0983602
-1.31313
1.31645
0.0998505
-0.098519
-1.46954
1.46821
0.0948377
-0.088792
-1.37184
1.3658
0.0820914
-0.0740374
-1.08027
1.07222
0.0664205
-0.0580741
-0.86102
0.852674
0.0506548
-0.0428772
-0.692515
0.684737
0.0361516
-0.0292802
-0.560942
0.554071
0.0235623
-0.0178529
-0.456837
0.451127
0.0130816
-0.0085213
-0.373515
0.368954
0.00522472
-0.00225385
-0.306228
0.303258
0.000108017
0.000966726
-0.250806
0.249731
-0.00162244
-0.141721
0.143343
-0.303791
0.2993
0.00449138
0.00123113
-0.00575342
-0.499787
0.504309
0.0111625
-0.0168513
-0.583947
0.589636
0.0237051
-0.030105
-0.679906
0.686306
0.0372882
-0.0443282
-0.787368
0.794408
0.0522249
-0.0595522
-0.906398
0.913725
0.0677107
-0.0747722
-1.03628
1.04334
0.0822083
-0.088354
-1.1749
1.18105
0.0939403
-0.0976387
-1.31992
1.32362
0.0996182
-0.0991157
-1.46708
1.46658
0.09586
-0.0903288
-1.35943
1.3539
0.0838652
-0.0759742
-1.06389
1.056
0.0686308
-0.0602208
-0.844028
0.835618
0.052765
-0.0450568
-0.676665
0.668957
0.0383273
-0.0314343
-0.547041
0.540148
0.0256332
-0.0196886
-0.444972
0.439028
0.0150103
-0.0103496
-0.363495
0.358834
0.00661965
-0.00341288
-0.297844
0.294637
0.00115749
0.000366033
-0.244037
0.242513
-0.00124806
-0.137946
0.139194
-0.309537
0.305769
0.00376819
0.00205649
-0.00645883
-0.509789
0.514191
0.0120101
-0.0173184
-0.595564
0.600872
0.0240481
-0.0303444
-0.692794
0.69909
0.0377017
-0.0444966
-0.801578
0.808373
0.052254
-0.0595238
-0.921415
0.928685
0.0679626
-0.0751766
-1.05083
1.05805
0.0827792
-0.0893913
-1.18744
1.19405
0.0958687
-0.100149
-1.32775
1.33203
0.102968
-0.10308
-1.466
1.46611
0.100669
-0.0953408
-1.34817
1.34284
0.0892062
-0.0814806
-1.04772
1.03999
0.073936
-0.0655011
-0.826879
0.818444
0.057773
-0.0495954
-0.660631
0.652453
0.0427546
-0.0354479
-0.532791
0.525485
0.0292328
-0.0230872
-0.432667
0.426521
0.0179554
-0.012792
-0.35336
0.348197
0.00879466
-0.00517491
-0.289444
0.285824
0.00257401
-0.000517582
-0.237125
0.235068
-0.000839329
-0.134019
0.134858
-0.315344
0.312122
0.00322158
0.00291091
-0.00717306
-0.519446
0.523708
0.0128657
-0.0182786
-0.60689
0.612303
0.0249034
-0.031087
-0.705536
0.711719
0.0381848
-0.0452242
-0.815565
0.822604
0.0530833
-0.0609194
-0.936142
0.943978
0.0691997
-0.0767858
-1.06574
1.07333
0.0851633
-0.0922034
-1.20098
1.20802
0.0990395
-0.104482
-1.33666
1.34211
0.108344
-0.109467
-1.46658
1.4677
0.107757
-0.103215
-1.33764
1.3331
0.0973239
-0.089578
-1.03165
1.0239
0.0818861
-0.0730737
-0.809398
0.800586
0.0649366
-0.0563554
-0.643766
0.635184
0.0487273
-0.0408969
-0.51758
0.50975
0.034251
-0.0273955
-0.419739
0.412884
0.0216731
-0.0161776
-0.342286
0.336791
0.0116318
-0.00735009
-0.280371
0.27609
0.00417168
-0.00152816
-0.229732
0.227089
-0.000372603
-0.129933
0.130306
-0.321382
0.318588
0.00279463
0.00400842
-0.00833374
-0.529022
0.533347
0.0138744
-0.0193591
-0.618197
0.623682
0.0258201
-0.0321476
-0.71834
0.724668
0.0394093
-0.0463978
-0.829831
0.836819
0.054748
-0.0622362
-0.951635
0.959123
0.0709914
-0.0789007
-1.08144
1.08935
0.0877924
-0.0956821
-1.21549
1.22338
0.103604
-0.109691
-1.34781
1.35389
0.114869
-0.117266
-1.46915
1.47155
0.11684
-0.112994
-1.32847
1.32462
0.107542
-0.099853
-1.01587
1.00818
0.0919857
-0.0826702
-0.790995
0.78168
0.0740642
-0.0646571
-0.62576
0.616353
0.0563503
-0.0476796
-0.501171
0.4925
0.0402096
-0.0327632
-0.405367
0.39792
0.0263179
-0.0200555
-0.330142
0.32388
0.0147775
-0.00982737
-0.270281
0.265331
0.00605452
-0.0025915
-0.221438
0.217975
0.000254509
-0.125386
0.125131
-0.327141
0.325017
0.00212336
0.00479245
-0.0094586
-0.538685
0.543351
0.0147634
-0.0203144
-0.629149
0.6347
0.0266085
-0.0330121
-0.731139
0.737542
0.0403569
-0.0477245
-0.844026
0.851394
0.0558232
-0.0637938
-0.967124
0.975095
0.0729153
-0.0810876
-1.09803
1.10621
0.0906525
-0.0991241
-1.23152
1.23999
0.107949
-0.115422
-1.36088
1.36835
0.12217
-0.125919
-1.47449
1.47824
0.126716
-0.124194
-1.32107
1.31855
0.119491
-0.112026
-1.00005
0.992584
0.103964
-0.094355
-0.77165
0.762041
0.0848277
-0.0747298
-0.606013
0.595915
0.0655576
-0.0558573
-0.483114
0.473414
0.0476027
-0.0390939
-0.389368
0.380859
0.0318707
-0.0245711
-0.316651
0.309352
0.0186098
-0.012802
-0.258937
0.253129
0.00813456
-0.00386727
-0.212085
0.207818
0.000894435
-0.120161
0.119266
-0.333236
0.331419
0.00181718
0.00536123
-0.00978946
-0.548374
0.552802
0.0156284
-0.020896
-0.640417
0.645685
0.027414
-0.0338146
-0.743846
0.750247
0.0411954
-0.0483893
-0.858746
0.86594
0.0568417
-0.0647684
-0.983367
0.991294
0.0742043
-0.0831534
-1.11514
1.12409
0.0928877
-0.102275
-1.24894
1.25833
0.112285
-0.120775
-1.3763
1.38479
0.129098
-0.134896
-1.48281
1.48861
0.137362
-0.136538
-1.31628
1.31546
0.132588
-0.125759
-0.984923
0.978094
0.117819
-0.10776
-0.75146
0.741402
0.0977316
-0.0866227
-0.584563
0.573454
0.0764705
-0.0655599
-0.462739
0.451828
0.0561504
-0.0465365
-0.371328
0.361714
0.0381791
-0.0298398
-0.301138
0.292799
0.0228971
-0.0160695
-0.245922
0.239095
0.0105917
-0.00541526
-0.201407
0.196231
0.0016807
-0.114292
0.112612
-0.339237
0.337795
0.00144182
0.00611546
-0.0105144
-0.558018
0.562417
0.0160285
-0.0214631
-0.651381
0.656816
0.0279115
-0.0342338
-0.756545
0.762868
0.041816
-0.0489595
-0.873352
0.880496
0.0574435
-0.0656809
-0.999934
1.00817
0.0752429
-0.0844642
-1.13322
1.14244
0.0948328
-0.104744
-1.26807
1.27798
0.115685
-0.125801
-1.39414
1.40425
0.135855
-0.143387
-1.49513
1.50266