/*--------------------------------*- C++ -*----------------------------------*\
| =========                 |                                                 |
| \\      /  F ield         | OpenFOAM: The Open Source CFD Toolbox           |
|  \\    /   O peration     | Version:  2112                                  |
|   \\  /    A nd           | Website:  www.openfoam.com                      |
|    \\/     M anipulation  |                                                 |
\*---------------------------------------------------------------------------*/
FoamFile
{
    version     2.0;
    format      ascii;
    arch        "LSB;label=32;scalar=64";
    class       volVectorField;
    location    "0.5";
    object      U;
}
// * * * * * * * * * * * * * * * * * * * * * * * * * * * * * * * * * * * * * //

dimensions      [0 1 -1 0 0 0 0];

internalField   nonuniform List<vector> 
8800
(
(0.897458 -0.0523037 0)
(0.905251 -0.0338549 0)
(0.898527 -0.0227577 0)
(0.894558 -0.0153836 0)
(0.892343 -0.010496 0)
(0.891127 -0.0071838 0)
(0.890438 -0.00482945 0)
(0.890031 -0.00301843 0)
(0.889783 -0.00147959 0)
(0.889654 -4.21221e-05 0)
(0.889679 0.00136622 0)
(0.889858 0.00276877 0)
(0.890162 0.0043208 0)
(0.890686 0.00627869 0)
(0.891593 0.0089584 0)
(0.893225 0.01288 0)
(0.896213 0.0188343 0)
(0.901406 0.0278982 0)
(0.908887 0.041657 0)
(0.738211 0.0291405 0)
(0.745668 -0.00467844 0)
(1.05117 -0.00998417 0)
(1.04776 -0.0114807 0)
(1.04298 -0.0116159 0)
(1.03918 -0.010556 0)
(1.03653 -0.00882475 0)
(1.03464 -0.00683466 0)
(1.03349 -0.00480445 0)
(1.03282 -0.00284024 0)
(1.03243 -0.000945941 0)
(1.03235 0.00108558 0)
(1.03251 0.00300786 0)
(1.03293 0.00482256 0)
(1.03378 0.00667534 0)
(1.03523 0.00859124 0)
(1.03752 0.0103592 0)
(1.04079 0.0116329 0)
(1.04505 0.0119613 0)
(1.05006 0.0111457 0)
(1.02327 0.00960926 0)
(0.698248 -9.39642e-06 0)
(1.01169 -0.00268112 0)
(1.01025 -0.00424947 0)
(1.00836 -0.00517617 0)
(1.00595 -0.00541039 0)
(1.00404 -0.00504031 0)
(1.00243 -0.00414666 0)
(1.00118 -0.0029315 0)
(1.00027 -0.00149852 0)
(1.00017 0.000203696 0)
(1.00016 0.00191593 0)
(1.00067 0.00348544 0)
(1.00144 0.00464927 0)
(1.00281 0.00550962 0)
(1.00457 0.00597771 0)
(1.00657 0.00589336 0)
(1.00858 0.00516573 0)
(1.01032 0.00376368 0)
(1.00962 0.00176965 0)
(0.697845 3.14304e-05 0)
(0.69851 -9.73278e-05 0)
(1.01127 -0.000962453 0)
(1.01084 -0.00174082 0)
(1.01012 -0.00240415 0)
(1.0091 -0.00285545 0)
(1.00796 -0.00287916 0)
(1.00678 -0.00252619 0)
(1.0057 -0.00178345 0)
(1.00486 -0.000676426 0)
(1.00446 0.000517621 0)
(1.00441 0.00171517 0)
(1.00501 0.00260676 0)
(1.00556 0.00335884 0)
(1.00662 0.00367404 0)
(1.00773 0.00359755 0)
(1.00875 0.00316243 0)
(1.00957 0.0024751 0)
(1.01018 0.00166801 0)
(1.00856 0.000834721 0)
(0.697438 0.000134036 0)
(0.696854 -6.98236e-05 0)
(1.00946 -0.000588387 0)
(1.00933 -0.000872364 0)
(1.00901 -0.00115709 0)
(1.0085 -0.00137684 0)
(1.00784 -0.00144265 0)
(1.00707 -0.00128406 0)
(1.00626 -0.000848272 0)
(1.00557 -0.000137787 0)
(1.00512 0.000740995 0)
(1.00502 0.00158297 0)
(1.00532 0.00216542 0)
(1.00577 0.00244208 0)
(1.00639 0.00247732 0)
(1.007 0.00225558 0)
(1.00751 0.00186433 0)
(1.00788 0.00138601 0)
(1.0081 0.000895492 0)
(1.00632 0.000436984 0)
(0.695699 6.89231e-05 0)
(0.696167 -2.30062e-05 0)
(1.00884 -0.000210288 0)
(1.0088 -0.000340462 0)
(1.00861 -0.000463393 0)
(1.00832 -0.000548028 0)
(1.0079 -0.000551792 0)
(1.00738 -0.000424525 0)
(1.00678 -0.000121601 0)
(1.00618 0.000370663 0)
(1.0057 0.000993073 0)
(1.0055 0.00155364 0)
(1.00559 0.00187539 0)
(1.00585 0.00194933 0)
(1.00617 0.00183553 0)
(1.00648 0.00158274 0)
(1.00672 0.00125547 0)
(1.00689 0.000909499 0)
(1.00698 0.000577669 0)
(1.00514 0.000282651 0)
(0.69479 4.45607e-05 0)
(0.69595 -4.4756e-06 0)
(1.0086 -3.27475e-05 0)
(1.00862 -4.82367e-05 0)
(1.0085 -5.07511e-05 0)
(1.00831 -2.62054e-05 0)
(1.00803 4.9699e-05 0)
(1.00764 0.000205696 0)
(1.00716 0.000470902 0)
(1.00662 0.000850163 0)
(1.00611 0.00129782 0)
(1.00578 0.00165067 0)
(1.00569 0.00178805 0)
(1.00575 0.00172744 0)
(1.00586 0.00153712 0)
(1.00598 0.00127264 0)
(1.00608 0.000982015 0)
(1.00615 0.000696056 0)
(1.00619 0.000438041 0)
(1.00432 0.000209968 0)
(0.694163 3.22919e-05 0)
(0.695978 7.35529e-06 0)
(1.00868 8.01964e-05 0)
(1.00871 0.000148493 0)
(1.00863 0.000235 0)
(1.00848 0.000350453 0)
(1.00825 0.000506288 0)
(1.00792 0.000718035 0)
(1.00749 0.000995944 0)
(1.00696 0.00133172 0)
(1.00639 0.00167289 0)
(1.00592 0.00187818 0)
(1.00566 0.00187567 0)
(1.00554 0.0017171 0)
(1.00551 0.00146761 0)
(1.0055 0.00118083 0)
(1.00551 0.000892469 0)
(1.00552 0.000627484 0)
(1.00553 0.000390016 0)
(1.00365 0.000188864 0)
(0.693656 2.86867e-05 0)
(0.69618 1.69011e-05 0)
(1.00897 0.000171158 0)
(1.00901 0.000307085 0)
(1.00893 0.000471952 0)
(1.0088 0.000669967 0)
(1.00859 0.00090875 0)
(1.00827 0.00119172 0)
(1.00783 0.00151532 0)
(1.00726 0.00185427 0)
(1.00658 0.00214086 0)
(1.00595 0.00224239 0)
(1.00552 0.00213012 0)
(1.00524 0.00188049 0)
(1.00508 0.00156673 0)
(1.00499 0.00123876 0)
(1.00494 0.000927196 0)
(1.00491 0.000645556 0)
(1.00489 0.000400528 0)
(1.00299 0.000191526 0)
(0.693176 2.94939e-05 0)
(0.696528 2.50193e-05 0)
(1.00947 0.0002581 0)
(1.0095 0.000461151 0)
(1.00942 0.00070261 0)
(1.00928 0.000986894 0)
(1.00905 0.00131594 0)
(1.00871 0.00168675 0)
(1.00822 0.00208235 0)
(1.00756 0.00246027 0)
(1.00673 0.00273098 0)
(1.0059 0.00275774 0)
(1.00528 0.00254661 0)
(1.00485 0.00220179 0)
(1.00457 0.0018071 0)
(1.0044 0.00141408 0)
(1.00429 0.00105076 0)
(1.00423 0.000728711 0)
(1.00419 0.000452273 0)
(1.00229 0.000216238 0)
(0.692664 3.37208e-05 0)
(0.697026 3.56985e-05 0)
(1.01016 0.000352518 0)
(1.01019 0.000629474 0)
(1.0101 0.000956047 0)
(1.00994 0.0013376 0)
(1.00967 0.00177322 0)
(1.00927 0.0022527 0)
(1.00869 0.0027476 0)
(1.00788 0.00319546 0)
(1.00684 0.00347971 0)
(1.00577 0.00344741 0)
(1.00494 0.00313538 0)
(1.00435 0.00268173 0)
(1.00395 0.00218452 0)
(1.00369 0.00170099 0)
(1.00353 0.00125974 0)
(1.00344 0.000872021 0)
(1.00338 0.000539403 0)
(1.00147 0.000257174 0)
(0.692075 3.86574e-05 0)
(0.697695 4.60026e-05 0)
(1.01109 0.000464525 0)
(1.01111 0.000828014 0)
(1.011 0.00125714 0)
(1.0108 0.00175512 0)
(1.01048 0.00232012 0)
(1.00999 0.00293572 0)
(1.00927 0.00356055 0)
(1.00827 0.00410971 0)
(1.00695 0.00443264 0)
(1.00558 0.00434872 0)
(1.00448 0.00392372 0)
(1.0037 0.00333585 0)
(1.00317 0.0027057 0)
(1.00282 0.00210081 0)
(1.0026 0.00155292 0)
(1.00247 0.0010744 0)
(1.0024 0.000664017 0)
(1.00048 0.000317197 0)
(0.691359 4.82087e-05 0)
(0.698569 6.06615e-05 0)
(1.0123 0.000601655 0)
(1.01231 0.00107295 0)
(1.01216 0.00162731 0)
(1.01192 0.00227069 0)
(1.01152 0.00299784 0)
(1.0109 0.00378591 0)
(1.01 0.00457801 0)
(1.00873 0.00526311 0)
(1.00706 0.00564741 0)
(1.0053 0.0055108 0)
(1.00389 0.00495076 0)
(1.00287 0.00419609 0)
(1.00218 0.00339634 0)
(1.00172 0.00263326 0)
(1.00144 0.00194476 0)
(1.00127 0.00134433 0)
(1.00117 0.000830476 0)
(0.999245 0.000396424 0)
(0.690472 6.08082e-05 0)
(0.699699 7.77128e-05 0)
(1.01386 0.000774933 0)
(1.01385 0.00138101 0)
(1.01367 0.00209495 0)
(1.01335 0.00292103 0)
(1.01285 0.00385323 0)
(1.01207 0.00485966 0)
(1.01092 0.00586634 0)
(1.0093 0.00672803 0)
(1.00717 0.00719685 0)
(1.00493 0.00699974 0)
(1.00312 0.00627175 0)
(1.00182 0.00530575 0)
(1.00093 0.00428925 0)
(1.00034 0.0033229 0)
(0.999972 0.00245313 0)
(0.999753 0.0016947 0)
(0.999632 0.00104673 0)
(0.997695 0.000498298 0)
(0.68936 7.53014e-05 0)
(0.701153 0.000100064 0)
(1.01587 0.000995791 0)
(1.01583 0.00177439 0)
(1.0156 0.00268978 0)
(1.0152 0.00374951 0)
(1.01455 0.00494292 0)
(1.01355 0.00622871 0)
(1.01208 0.0075089 0)
(1.01002 0.00859561 0)
(1.0073 0.00917308 0)
(1.00444 0.00890058 0)
(1.00213 0.0079602 0)
(1.00047 0.00672501 0)
(0.999338 0.00543116 0)
(0.998591 0.00420479 0)
(0.998121 0.00310348 0)
(0.997839 0.0021444 0)
(0.997683 0.00132547 0)
(0.995728 0.000631994 0)
(0.687952 9.5709e-05 0)
(0.703023 0.000128945 0)
(1.01844 0.0012794 0)
(1.01837 0.00227895 0)
(1.01807 0.00345416 0)
(1.01756 0.00481268 0)
(1.01673 0.00634076 0)
(1.01544 0.00798243 0)
(1.01356 0.00961026 0)
(1.01092 0.0109818 0)
(1.00745 0.0116936 0)
(1.0038 0.0113217 0)
(1.00087 0.0101087 0)
(0.998762 0.00853055 0)
(0.997318 0.00688464 0)
(0.99637 0.00532791 0)
(0.995773 0.00392993 0)
(0.995418 0.00271418 0)
(0.99522 0.00167597 0)
(0.993248 0.000798788 0)
(0.686177 0.000119559 0)
(0.705429 0.000165736 0)
(1.02176 0.00164525 0)
(1.02164 0.00293062 0)
(1.02125 0.00444105 0)
(1.02059 0.00618461 0)
(1.01951 0.00814161 0)
(1.01785 0.010238 0)
(1.01543 0.0123067 0)
(1.01205 0.0140349 0)
(1.00761 0.0149077 0)
(1.00297 0.0144002 0)
(0.99925 0.0128361 0)
(0.996581 0.0108205 0)
(0.994755 0.00872621 0)
(0.993555 0.00674974 0)
(0.9928 0.00497783 0)
(0.992349 0.00343811 0)
(0.992099 0.00212269 0)
(0.990103 0.00101195 0)
(0.683924 0.00015348 0)
(0.70853 0.000213892 0)
(1.02602 0.0021222 0)
(1.02584 0.00377771 0)
(1.02534 0.00572119 0)
(1.02447 0.00796241 0)
(1.02307 0.0104723 0)
(1.02093 0.0131504 0)
(1.0178 0.0157763 0)
(1.01345 0.0179455 0)
(1.00778 0.0190046 0)
(1.00189 0.0183077 0)
(0.997174 0.016288 0)
(0.993802 0.0137143 0)
(0.991498 0.0110525 0)
(0.989985 0.00854508 0)
(0.989033 0.00630061 0)
(0.988465 0.0043504 0)
(0.988151 0.00268678 0)
(0.986127 0.00128039 0)
(0.681076 0.000194808 0)
(0.712539 0.000277715 0)
(1.03153 0.00274539 0)
(1.03126 0.00488582 0)
(1.0306 0.00739587 0)
(1.02947 0.0102837 0)
(1.02764 0.0135062 0)
(1.02484 0.0169264 0)
(1.02078 0.0202522 0)
(1.01518 0.0229595 0)
(1.00795 0.024222 0)
(1.00047 0.0232573 0)
(0.994513 0.0206478 0)
(0.990265 0.0173631 0)
(0.987364 0.0139831 0)
(0.98546 0.0108075 0)
(0.984262 0.0079668 0)
(0.983547 0.00549955 0)
(0.983152 0.00339587 0)
(0.981093 0.00161787 0)
(0.677473 0.000245117 0)
(0.71775 0.000361539 0)
(1.03866 0.00357128 0)
(1.03829 0.00635013 0)
(1.03741 0.00960411 0)
(1.0359 0.0133371 0)
(1.03348 0.0174833 0)
(1.02982 0.02185 0)
(1.02453 0.0260464 0)
(1.01731 0.0293948 0)
(1.00806 0.0308587 0)
(0.998597 0.0295103 0)
(0.991106 0.026136 0)
(0.985772 0.0219517 0)
(0.982131 0.0176673 0)
(0.97974 0.01365 0)
(0.978234 0.0100604 0)
(0.977336 0.00694545 0)
(0.976841 0.00428779 0)
(0.974738 0.00204256 0)
(0.672926 0.0003083 0)
(0.724564 0.000476355 0)
(1.04797 0.00467936 0)
(1.04743 0.00831333 0)
(1.04625 0.0125573 0)
(1.04422 0.017404 0)
(1.04099 0.0227475 0)
(1.03613 0.0283146 0)
(1.0292 0.0335763 0)
(1.01985 0.0376591 0)
(1.00807 0.0392818 0)
(0.996135 0.0373818 0)
(0.98675 0.0330196 0)
(0.980077 0.0277018 0)
(0.975518 0.0222883 0)
(0.972519 0.0172212 0)
(0.970627 0.0126934 0)
(0.969497 0.0087631 0)
(0.968873 0.0054105 0)
(0.966713 0.00257776 0)
(0.667186 0.000389919 0)
(0.733571 0.0006337 0)
(1.06022 0.00620122 0)
(1.05944 0.0109995 0)
(1.0578 0.0165807 0)
(1.05501 0.0229088 0)
(1.05061 0.0298099 0)
(1.04409 0.0368808 0)
(1.03493 0.0434056 0)
(1.02283 0.048273 0)
(1.00784 0.0499347 0)
(0.992882 0.0472382 0)
(0.981196 0.0416115 0)
(0.972885 0.0348863 0)
(0.967187 0.0280776 0)
(0.963421 0.0217079 0)
(0.961035 0.0160119 0)
(0.959606 0.0110602 0)
(0.958816 0.00683085 0)
(0.956584 0.00325437 0)
(0.659943 0.000493091 0)
(0.745668 0.000860176 0)
(1.07655 0.00835996 0)
(1.07539 0.0147915 0)
(1.07303 0.0222188 0)
(1.06907 0.0305421 0)
(1.06293 0.0394552 0)
(1.05402 0.0483614 0)
(1.04184 0.0562964 0)
(1.02615 0.0618839 0)
(1.00719 0.0633309 0)
(0.98859 0.0594928 0)
(0.974156 0.0522694 0)
(0.963867 0.0438308 0)
(0.956757 0.0353313 0)
(0.95201 0.0273682 0)
(0.948973 0.0202199 0)
(0.947138 0.0139831 0)
(0.946119 0.0086429 0)
(0.943783 0.00411998 0)
(0.650789 0.000623599 0)
(0.762332 0.00121266 0)
(1.09879 0.0115989 0)
(1.09694 0.0204237 0)
(1.09334 0.0304778 0)
(1.08744 0.0415006 0)
(1.07857 0.0529522 0)
(1.06617 0.0639496 0)
(1.04985 0.0732541 0)
(1.02957 0.0792663 0)
(1.00579 0.0800295 0)
(0.982941 0.0745732 0)
(0.965318 0.0653774 0)
(0.952677 0.0549218 0)
(0.943811 0.0444452 0)
(0.937771 0.0345875 0)
(0.933821 0.0256635 0)
(0.931386 0.0178075 0)
(0.930015 0.0110306 0)
(0.927515 0.00526517 0)
(0.639142 0.000797575 0)
(0.786356 0.00184224 0)
(1.13015 0.0170443 0)
(1.12679 0.0296132 0)
(1.12067 0.0434775 0)
(1.11123 0.0580274 0)
(1.09793 0.0723706 0)
(1.08039 0.0853458 0)
(1.05852 0.0955372 0)
(1.03255 0.101268 0)
(1.00316 0.100576 0)
(0.975534 0.092874 0)
(0.95435 0.0813099 0)
(0.939008 0.0685925 0)
(0.927993 0.0559496 0)
(0.920214 0.0439826 0)
(0.914884 0.0329876 0)
(0.911422 0.0231168 0)
(0.909371 0.0144339 0)
(0.90652 0.00692911 0)
(0.624037 0.00105835 0)
(0.823009 0.00349977 0)
(1.17638 0.0292532 0)
(1.16865 0.0474832 0)
(1.15675 0.0661435 0)
(1.14063 0.0842939 0)
(1.12022 0.100877 0)
(1.09549 0.114724 0)
(1.0666 0.124509 0)
(1.03399 0.128679 0)
(0.998432 0.125403 0)
(0.965757 0.114674 0)
(0.940842 0.10035 0)
(0.922593 0.0852493 0)
(0.909106 0.0704794 0)
(0.899095 0.0565154 0)
(0.891694 0.0435203 0)
(0.886338 0.0315491 0)
(0.882678 0.0205665 0)
(0.878688 0.0104847 0)
(0.603998 0.00165851 0)
(0.879276 0.0220772 2.1512e-19)
(1.24147 0.0660295 1.919e-19)
(1.22169 0.0863768 -6.53099e-20)
(1.19858 0.10652 0)
(1.1722 0.12528 -1.45028e-33)
(1.14237 0.141476 2.06435e-20)
(1.10899 0.154005 -3.38218e-20)
(1.07217 0.161659 0)
(1.03227 0.162947 6.23758e-34)
(0.990046 0.156119 -3.50739e-20)
(0.951981 0.141794 0)
(0.923056 0.124533 -3.85913e-20)
(0.901557 0.107191 -1.11759e-19)
(0.885137 0.0906798 -5.21452e-20)
(0.872305 0.0754877 -1.53295e-20)
(0.862053 0.0616425 -9.02811e-21)
(0.853714 0.04974 0)
(0.846816 0.0396446 6.30156e-21)
(0.839391 0.0311662 7.45665e-21)
(0.575458 0.0155958 1.34598e-19)
(0.929217 0.0724937 1.95965e-19)
(1.2971 0.130929 5.94089e-22)
(1.2673 0.146243 1.92955e-20)
(1.23493 0.163097 0)
(1.19985 0.179086 -7.91214e-20)
(1.16173 0.192791 -8.58746e-20)
(1.12034 0.202959 -3.54875e-20)
(1.0757 0.208134 -1.15602e-19)
(1.0281 0.206634 0)
(0.97823 0.196599 1.49151e-19)
(0.933294 0.179144 1.42156e-19)
(0.898873 0.159503 4.08477e-20)
(0.872928 0.140652 1.43413e-19)
(0.852669 0.123482 1.96596e-19)
(0.836308 0.10829 0)
(0.822689 0.0954228 2.72069e-19)
(0.811057 0.084873 3.90341e-19)
(0.800901 0.0771654 4.34023e-19)
(0.790759 0.0717703 -4.97185e-19)
(0.541 0.0465002 -8.44991e-21)
(0.95461 0.129624 0)
(1.33275 0.206906 4.60545e-20)
(1.29918 0.216996 0)
(1.26177 0.229071 -1.30933e-19)
(1.22085 0.240746 0)
(1.17638 0.250711 -1.79094e-19)
(1.12831 0.257383 7.45417e-20)
(1.07677 0.259213 -2.42e-19)
(1.02211 0.254258 -1.32484e-21)
(0.965111 0.240519 7.84014e-20)
(0.913938 0.219637 3.04155e-19)
(0.874864 0.197542 1.7925e-22)
(0.845532 0.17725 -1.02271e-19)
(0.822792 0.159498 -1.7989e-19)
(0.804673 0.144433 2.11449e-19)
(0.789921 0.132084 -3.72644e-19)
(0.777682 0.122297 -4.89475e-20)
(0.767359 0.115149 0)
(0.757399 0.110527 1.20318e-21)
(0.518561 0.0733631 0)
(0.972306 0.184574 8.33365e-19)
(1.35607 0.283137 -3.79075e-19)
(1.32023 0.289783 -2.39984e-19)
(1.27965 0.298112 6.83113e-20)
(1.2347 0.305962 -1.10713e-19)
(1.18543 0.312092 3.78879e-19)
(1.13189 0.315143 1.57193e-19)
(1.07434 0.313313 0)
(1.0133 0.304576 -4.1638e-19)
(0.949735 0.28673 0)
(0.892933 0.261989 -1.60422e-19)
(0.849966 0.236964 -1.871e-19)
(0.81816 0.214708 -1.08977e-19)
(0.793949 0.195778 -1.28141e-19)
(0.775076 0.180056 0)
(0.760061 0.167304 0)
(0.747884 0.15734 -3.13671e-19)
(0.737812 0.149916 6.16447e-20)
(0.728175 0.144954 -3.6522e-20)
(0.498881 0.0970545 -4.17087e-20)
(0.984887 0.238089 -5.13431e-19)
(1.37152 0.358205 0)
(1.334 0.362182 5.82574e-19)
(1.29102 0.367571 2.1307e-19)
(1.24295 0.372215 2.38606e-19)
(1.18979 0.375022 0)
(1.13164 0.374621 1.63407e-19)
(1.06881 0.369203 2.71162e-19)
(1.00195 0.356586 2.18736e-19)
(0.932267 0.334419 3.55887e-19)
(0.870242 0.305343 0)
(0.823849 0.276767 -3.97272e-19)
(0.790107 0.251833 -2.30982e-19)
(0.76496 0.230953 -1.342e-19)
(0.745808 0.213826 7.9596e-19)
(0.730906 0.200057 9.36668e-20)
(0.719081 0.189164 4.43139e-19)
(0.709425 0.181101 -2.09935e-18)
(0.700212 0.17529 1.24226e-18)
(0.480161 0.117809 -1.49058e-18)
(0.994201 0.289451 -4.64685e-19)
(1.38168 0.431059 1.02397e-19)
(1.34269 0.433111 -8.56692e-20)
(1.29766 0.436266 -2.89584e-19)
(1.24696 0.438259 -2.44262e-19)
(1.19048 0.438218 1.2178e-21)
(1.12829 0.434733 -1.74415e-19)
(1.06069 0.425944 2.84878e-19)
(0.988415 0.409572 -4.65256e-19)
(0.912863 0.382966 0)
(0.845773 0.349163 -1.84579e-19)
(0.796127 0.316381 -4.86415e-22)
(0.760681 0.288051 -2.46615e-19)
(0.73487 0.264463 0)
(0.715699 0.245263 -1.69351e-19)
(0.701157 0.229842 -3.97799e-19)
(0.689833 0.217775 1.05913e-18)
(0.680797 0.208547 -1.04476e-18)
(0.672206 0.201575 1.48252e-18)
(0.461282 0.135709 -1.53306e-18)
(1.00093 0.339319 -4.67797e-21)
(1.38825 0.501615 -1.03953e-19)
(1.34783 0.502261 -3.54112e-19)
(1.30094 0.503476 1.49828e-19)
(1.24788 0.503357 -1.28231e-19)
(1.18843 0.500825 0)
(1.12258 0.494687 -1.79828e-19)
(1.05057 0.482866 -3.01174e-19)
(0.973137 0.46298 -2.45652e-19)
(0.891775 0.432006 0)
(0.819503 0.39317 -1.93094e-19)
(0.766486 0.355629 -2.24138e-19)
(0.729331 0.323165 2.61971e-19)
(0.702969 0.296133 -1.54211e-19)
(0.68392 0.274247 -7.16678e-19)
(0.669894 0.256669 4.22293e-19)
(0.659311 0.242777 1.24983e-19)
(0.650981 0.232288 0)
(0.643187 0.223994 -1.39543e-18)
(0.44178 0.150636 -5.04168e-20)
(1.00642 0.387684 -6.17548e-20)
(1.39219 0.569821 1.074e-19)
(1.35042 0.569231 1.86948e-19)
(1.30178 0.568985 4.80167e-19)
(1.24653 0.567047 -5.34038e-19)
(1.18437 0.562531 4.54191e-19)
(1.11515 0.553987 3.81831e-19)
(1.03902 0.539572 -4.79883e-19)
(0.956529 0.516525 1.35635e-19)
(0.869303 0.481371 -8.56614e-19)
(0.791503 0.437383 -2.08547e-19)
(0.734728 0.394532 0)
(0.695643 0.357189 2.78128e-19)
(0.668659 0.325995 3.23319e-19)
(0.649825 0.300671 3.80042e-19)
(0.636458 0.280399 -4.46385e-19)
(0.626715 0.264406 -1.31052e-19)
(0.619358 0.252033 1.55929e-19)
(0.61249 0.242243 0)
(0.421425 0.162675 -1.07823e-19)
(1.01093 0.434484 6.24059e-19)
(1.39434 0.635527 -4.41957e-19)
(1.35118 0.634007 -1.9545e-19)
(1.30091 0.63243 3.33862e-19)
(1.24361 0.629003 -2.77708e-19)
(1.17896 0.622698 -4.23714e-21)
(1.10658 0.612286 -4.07352e-19)
(1.02653 0.595627 -1.7081e-19)
(0.939143 0.569884 -4.18719e-19)
(0.84585 0.530989 -1.89964e-22)
(0.761961 0.481921 -6.58379e-19)
(0.70077 0.433346 5.10538e-19)
(0.659258 0.39043 -2.94857e-19)
(0.631434 0.354232 3.42934e-19)
(0.612801 0.32473 0)
(0.600247 0.301024 -2.34355e-19)
(0.591558 0.282435 -1.65056e-21)
(0.585333 0.267975 -6.53164e-19)
(0.579642 0.256393 -9.71942e-20)
(0.399839 0.171561 0)
(1.01406 0.479193 0)
(1.39508 0.698761 -4.67132e-19)
(1.35059 0.696478 -4.03523e-19)
(1.29873 0.693773 -3.49828e-19)
(1.23956 0.689086 -3.01568e-19)
(1.17253 0.681379 0)
(1.09732 0.669248 -2.09428e-19)
(1.01358 0.650803 -2.11979e-21)
(0.92141 0.622894 8.89865e-19)
(0.821867 0.58091 -1.19884e-19)
(0.731132 0.527061 -4.69243e-19)
(0.664638 0.472413 2.70761e-19)
(0.619946 0.423138 4.55364e-22)
(0.590858 0.381015 3.62453e-19)
(0.572324 0.346422 2.1189e-19)
(0.560633 0.318694 -4.97471e-19)
(0.553239 0.296752 5.82696e-19)
(0.548435 0.279691 1.70863e-19)
(0.544132 0.266073 7.10736e-19)
(0.376663 0.177144 -1.88615e-18)
(1.01715 0.523076 1.29968e-19)
(1.39473 0.759512 -2.37574e-19)
(1.34895 0.756607 1.99565e-19)
(1.29565 0.752912 3.61393e-19)
(1.23473 0.747028 0)
(1.1656 0.738086 -2.58673e-19)
(1.08773 0.72471 6.72119e-19)
(1.00057 0.704841 3.81166e-19)
(0.903844 0.675373 0)
(0.797872 0.630947 -1.6737e-18)
(0.699534 0.573013 1.24865e-18)
(0.626433 0.512314 0)
(0.577457 0.455968 3.31097e-19)
(0.546396 0.406875 1.68744e-21)
(0.527705 0.366127 -6.65554e-19)
(0.516941 0.333356 2.61543e-19)
(0.51111 0.307324 0)
(0.508004 0.287156 8.96678e-19)
(0.505368 0.271198 0)
(0.351643 0.179683 -8.61469e-19)
(1.01926 0.565355 -1.36483e-19)
(1.39358 0.817936 -2.40661e-19)
(1.34644 0.814422 2.14662e-19)
(1.29182 0.80973 0)
(1.22937 0.80281 -3.24878e-19)
(1.15835 0.792766 0)
(1.07814 0.778314 -7.03453e-19)
(0.98789 0.757474 -1.95918e-19)
(0.886799 0.727096 1.64146e-19)
(0.77436 0.681321 -8.24654e-19)
(0.667598 0.620158 1.32181e-19)
(0.586419 0.553783 0)
(0.531542 0.489799 -7.02427e-19)
(0.497449 0.432474 -2.50488e-21)
(0.478176 0.384114 0)
(0.468438 0.344985 -2.05302e-21)
(0.464367 0.314086 7.92135e-19)
(0.463445 0.289925 -7.45071e-19)
(0.462958 0.270998 2.19506e-19)
(0.324607 0.178602 0)
(1.02078 0.605845 0)
(1.39158 0.873893 -2.46896e-19)
(1.34332 0.869738 -2.15934e-19)
(1.28742 0.864259 -1.7604e-21)
(1.22359 0.85625 -1.65894e-19)
(1.15099 0.845207 -5.77531e-19)
(1.06875 0.829896 2.50972e-19)
(0.975793 0.808477 -2.13173e-19)
(0.87069 0.777779 7.07257e-19)
(0.751881 0.731686 -1.31245e-18)
(0.636066 0.668699 -4.29062e-22)
(0.545099 0.597471 -3.26671e-19)
(0.482231 0.525472 1.11912e-18)
(0.44345 0.458524 3.25944e-21)
(0.422793 0.400831 -4.85543e-19)
(0.414053 0.353774 -8.44773e-19)
(0.41231 0.316518 0)
(0.414045 0.287731 0)
(0.416267 0.265309 2.24238e-19)
(0.295207 0.173972 -1.28598e-19)
(1.02214 0.645149 -1.41736e-19)
(1.38882 0.927435 5.14504e-19)
(1.33961 0.922542 2.28368e-19)
(1.28266 0.916182 0)
(1.21759 0.907325 -2.46122e-21)
(1.14364 0.895366 -5.98306e-19)
(1.05968 0.879371 6.52846e-19)
(0.964453 0.857681 8.88471e-19)
(0.855849 0.82722 9.32386e-19)
(0.730986 0.78192 -1.08174e-18)
(0.605691 0.718882 -1.06102e-18)
(0.503178 0.644202 8.73546e-19)
(0.429564 0.564449 0)
(0.383502 0.486398 -2.22681e-19)
(0.360225 0.416788 -5.05642e-19)
(0.352585 0.359378 -5.80186e-19)
(0.353817 0.314338 -6.64585e-19)
(0.359091 0.279881 1.906e-19)
(0.364836 0.253238 -1.1541e-19)
(0.26336 0.165367 -4.67244e-21)
(1.02255 0.682738 0)
(1.38558 0.978515 0)
(1.33547 0.972784 4.3579e-21)
(1.27761 0.965487 0)
(1.2115 0.955844 5.39358e-19)
(1.13644 0.94303 4.64745e-19)
(1.0511 0.92647 0)
(0.953987 0.904828 1.14325e-19)
(0.842439 0.875118 1.57276e-18)
(0.712114 0.831686 -2.47348e-18)
(0.577314 0.770586 0)
(0.461662 0.694715 -5.61816e-19)
(0.374069 0.608215 2.54769e-21)
(0.316901 0.517714 5.15243e-21)
(0.288551 0.432818 5.36106e-19)
(0.282004 0.36143 2.74454e-22)
(0.287849 0.306236 -1.34269e-18)
(0.298431 0.265249 3.80697e-19)
(0.30896 0.234373 1.08289e-19)
(0.228976 0.152773 0)
(1.02253 0.718216 4.26114e-19)
(1.3817 1.02711 2.72401e-19)
(1.33089 1.02052 4.79241e-19)
(1.27224 1.01228 -8.52365e-19)
(1.20536 1.0018 9.32216e-19)
(1.12935 0.988316 0)
(1.04302 0.971299 4.27536e-19)
(0.944476 0.949781 -2.45048e-19)
(0.830532 0.921283 3.65863e-21)
(0.69556 0.880762 1.77241e-19)
(0.551695 0.823507 1.3787e-18)
(0.422014 0.749489 -1.99798e-19)
(0.316838 0.658845 -6.86478e-19)
(0.242818 0.55541 -2.51369e-19)
(0.20465 0.450451 2.72738e-19)
(0.198752 0.358514 2.52812e-21)
(0.212863 0.288865 3.2226e-19)
(0.233262 0.24085 -7.43468e-19)
(0.251154 0.207652 8.15241e-19)
(0.196685 0.138359 1.24503e-19)
(1.02198 0.752089 -1.44366e-19)
(1.37725 1.07325 1.40423e-19)
(1.32581 1.06576 7.65659e-21)
(1.26674 1.05644 -4.34984e-19)
(1.19925 1.04511 -1.90014e-19)
(1.12253 1.0311 -8.62855e-19)
(1.03535 1.01371 1.46012e-19)
(0.935842 0.992368 -1.03552e-18)
(0.820221 0.965414 -1.7568e-18)
(0.681589 0.92854 -1.48538e-18)
(0.529744 0.877284 0)
(0.385802 0.808725 -8.60386e-19)
(0.259774 0.718342 9.82921e-19)
(0.161279 0.603972 0)
(0.103821 0.473698 -5.90872e-19)
(0.0950738 0.348523 3.02413e-19)
(0.125081 0.253242 -3.22719e-19)
(0.168598 0.197979 -3.12651e-19)
(0.202952 0.171176 -5.41361e-19)
(0.177724 0.127706 -3.9652e-19)
(1.02117 0.785119 1.48754e-19)
(1.37237 1.11679 -1.49837e-19)
(1.32054 1.10843 -3.73387e-19)
(1.26092 1.09835 -5.6703e-19)
(1.1929 1.08619 4.05951e-19)
(1.11581 1.0713 -5.34639e-19)
(1.02826 1.05359 4.68407e-19)
(0.928124 1.03264 -1.08793e-18)
(0.81148 1.00731 -1.04335e-18)
(0.670234 0.974649 1.56462e-18)
(0.511936 0.931069 3.03234e-18)
(0.354784 0.871805 0)
(0.206054 0.788086 0)
(0.0744503 0.669587 -2.92559e-19)
(-0.0194469 0.512135 0)
(-0.046348 0.331876 6.1289e-19)
(0.0104691 0.177203 6.00845e-19)
(0.119109 0.103559 0)
(0.200106 0.113602 0)
(0.201715 0.135736 2.26613e-19)
(1.02008 0.81581 -1.46965e-19)
(1.36709 1.1578 -1.3607e-19)
(1.31501 1.14856 -2.61569e-19)
(1.25502 1.13771 4.6315e-19)
(1.18672 1.1247 4.21316e-19)
(1.10934 1.10906 6.4778e-19)
(1.02168 1.0909 -6.56848e-19)
(0.921346 1.07026 3.89151e-21)
(0.804227 1.04681 -4.90548e-21)
(0.661487 1.01879 -9.34647e-21)
(0.498507 0.983972 1.56209e-18)
(0.330601 0.937538 0)
(0.16005 0.868139 1.00487e-18)
(-0.0109468 0.759046 6.51287e-19)
(-0.166634 0.585889 1.42142e-18)
(-0.25917 0.326857 3.62841e-19)
(-0.193918 0.016024 -1.95361e-19)
(0.103992 -0.152061 -3.82526e-20)
(0.395588 0.000404808 0)
(0.401254 0.240991 -1.13738e-19)
(1.01828 0.844592 2.92297e-19)
(1.3616 1.19635 0)
(1.30918 1.18625 -2.62892e-19)
(1.249 1.1746 3.60342e-19)
(1.18059 1.16077 -4.30809e-19)
(1.10311 1.14448 -8.63623e-19)
(1.01535 1.12593 1.36665e-18)
(0.915215 1.10564 -8.33914e-20)
(0.798235 1.08384 0)
(0.655045 1.06034 -1.74592e-18)
(0.489539 1.03514 -3.41212e-18)
(0.314148 1.004 1.30081e-19)
(0.126352 0.956472 1.39781e-18)
(-0.0827961 0.875051 0)
(-0.321272 0.725242 1.01608e-18)
(-0.582673 0.420327 0)
(-0.735676 -0.20394 0)
(-0.338576 -0.667559 3.2989e-19)
(0.786485 0.010024 0)
(1.25342 0.856212 -1.59452e-19)
(1.01443 0.871169 2.97688e-19)
(1.35584 1.23275 0)
(1.30325 1.22159 -4.01195e-19)
(1.24286 1.20912 0)
(1.17431 1.19457 2.15862e-19)
(1.09695 1.17768 0)
(1.00924 1.1585 8.34254e-20)
(0.909568 1.13861 1.51805e-19)
(0.79318 1.11846 1.29827e-19)
(0.65045 1.09956 -1.92788e-18)
(0.484445 1.08431 1.05654e-19)
(0.305582 1.07034 1.02575e-18)
(0.107427 1.05 1.36483e-18)
(-0.126727 1.01404 1.77313e-19)
(-0.430621 0.953349 8.17187e-19)
(-0.894538 0.857276 0)
(-1.67976 0.786653 3.43068e-19)
(-1.91411 1.6092 2.366e-19)
(-1.46105 2.97218 -1.57828e-18)
(-0.737827 3.13389 1.12584e-18)
(1.01049 0.895498 -2.25088e-19)
(1.3499 1.26723 -4.39986e-19)
(1.2971 1.25518 0)
(1.23654 1.24189 8.51018e-21)
(1.16786 1.22698 -5.51365e-19)
(1.09073 1.20979 1.48536e-18)
(1.00328 1.18963 5.26531e-19)
(0.904276 1.17056 0)
(0.788822 1.1525 9.08466e-19)
(0.647676 1.13878 -1.05972e-19)
(0.483309 1.13416 0)
(0.304939 1.13851 0)
(0.105581 1.14885 1.21961e-18)
(-0.131051 1.16586 -5.37551e-19)
(-0.428749 1.20134 -8.27252e-19)
(-0.827372 1.29461 0)
(-1.29975 1.579 3.49699e-19)
(-1.59243 2.32354 -8.22942e-20)
(-1.31619 2.91753 1.74759e-19)
(-0.936869 3.16522 4.78237e-20)
(1.00554 0.91796 1.47411e-19)
(1.34437 1.29966 5.2065e-19)
(1.29108 1.28703 -2.12084e-19)
(1.22995 1.27313 -2.51857e-19)
(1.16103 1.25746 0)
(1.08418 1.2399 1.01383e-18)
(0.997645 1.21962 7.97406e-19)
(0.899345 1.20056 -7.80717e-20)
(0.785511 1.18447 1.32602e-19)
(0.646745 1.17574 1.85798e-18)
(0.485997 1.18153 1.73281e-18)
(0.312428 1.20404 1.14332e-18)
(0.121073 1.24333 1.214e-18)
(-0.0984892 1.30722 -1.2415e-18)
(-0.350357 1.413 -1.21576e-18)
(-0.62054 1.59373 0)
(-0.854191 1.90801 0)
(-0.932751 2.28123 1.80885e-19)
(-0.859342 2.61555 0)
(-0.723438 2.72897 3.8318e-19)
(1.00063 0.939303 0)
(1.33768 1.33076 0)
(1.28504 1.31721 0)
(1.2246 1.30303 -6.19052e-20)
(1.15557 1.28586 -4.71977e-19)
(1.07872 1.26733 7.15842e-19)
(0.993057 1.24923 5.41788e-19)
(0.895267 1.23103 -7.89211e-20)
(0.783316 1.21625 1.18415e-18)
(0.648211 1.21128 -1.67667e-20)
(0.493504 1.22581 3.42534e-18)
(0.328214 1.26396 -1.27264e-19)
(0.151115 1.32676 1.46935e-19)
(-0.0448415 1.42606 1.72614e-19)
(-0.245075 1.56904 8.32719e-21)
(-0.428152 1.76758 1.81472e-20)
(-0.552039 2.03261 -1.33908e-18)
(-0.548644 2.2744 -4.73861e-19)
(-0.579975 2.46861 1.9678e-19)
(-0.496187 2.57945 -2.35688e-19)
(0.909973 0.889177 -5.57979e-20)
(1.331 1.35962 0)
(1.27819 1.34468 3.57335e-19)
(1.22053 1.33112 5.89919e-19)
(1.15231 1.31492 -8.839e-19)
(1.07566 1.29595 -7.39207e-19)
(0.991931 1.27543 -5.86457e-19)
(0.89579 1.25751 9.94209e-19)
(0.785483 1.24484 -9.79216e-19)
(0.653001 1.24511 0)
(0.504897 1.26918 1.70209e-18)
(0.353616 1.3204 -9.26364e-19)
(0.198584 1.39754 0)
(0.0370941 1.52011 1.66221e-19)
(-0.108691 1.67048 3.68347e-19)
(-0.215767 1.85152 -3.96872e-19)
(-0.289074 2.07948 4.37421e-19)
(-0.275758 2.2676 2.36848e-19)
(-0.357554 2.42126 2.33568e-19)
(-0.334551 2.50563 3.89624e-19)
(1.04214 1.03342 1.58456e-19)
(1.32633 1.39745 0)
(1.27104 1.38668 -3.29354e-19)
(1.20802 1.3717 -5.48224e-19)
(1.1383 1.35405 8.35939e-19)
(1.06276 1.33527 6.95803e-19)
(0.978119 1.31998 7.79398e-19)
(0.882856 1.30341 7.68052e-20)
(0.774973 1.2918 1.0164e-18)
(0.648888 1.29442 1.69635e-18)
(0.511585 1.32749 1.01258e-19)
(0.379817 1.39505 8.33664e-19)
(0.253502 1.49505 1.36695e-19)
(0.138531 1.62907 -1.55437e-19)
(0.0407507 1.79582 -3.30929e-19)
(-0.0199895 1.98277 3.47574e-19)
(-0.0479368 2.17205 -3.69817e-19)
(-0.0514734 2.31509 -2.0837e-19)
(-0.11133 2.39479 -1.99889e-19)
(-0.199261 2.4925 -2.19764e-20)
(1.02948 1.03716 0)
(1.31765 1.42559 -6.01525e-20)
(1.26194 1.41408 5.72978e-20)
(1.1969 1.40003 5.38721e-20)
(1.12724 1.38149 5.15425e-19)
(1.0497 1.36407 -6.60639e-19)
(0.968321 1.34867 -4.88846e-19)
(0.874687 1.332 7.31849e-20)
(0.770832 1.32246 -1.08335e-18)
(0.653191 1.32834 -2.62058e-20)
(0.529073 1.36891 -3.12487e-18)
(0.415463 1.44511 1.12971e-19)
(0.316197 1.55757 -1.28895e-19)
(0.232753 1.70691 -1.41387e-19)
(0.166874 1.87728 1.9077e-20)
(0.12436 2.05124 -3.44278e-21)
(0.100576 2.22172 6.27805e-19)
(0.0929416 2.3687 3.26681e-19)
(0.0190583 2.43324 -1.25728e-19)
(-0.0732696 2.48355 -1.58976e-19)
(0.993804 1.04727 -1.03289e-19)
(1.30605 1.4618 -3.83599e-19)
(1.25134 1.44903 1.59307e-19)
(1.19014 1.43174 2.03254e-19)
(1.12198 1.41256 0)
(1.0436 1.3957 -8.54616e-19)
(0.966165 1.3787 -6.8484e-19)
(0.875588 1.36066 6.89299e-20)
(0.775565 1.35025 -1.178e-19)
(0.663494 1.35857 -1.63452e-18)
(0.551315 1.39881 -1.50482e-18)
(0.455933 1.47637 -9.88361e-19)
(0.381794 1.58809 -9.74959e-19)
(0.328628 1.73083 9.41933e-19)
(0.295795 1.89258 8.49841e-19)
(0.275927 2.06093 0)
(0.263336 2.24623 0)
(0.256573 2.42617 -1.11164e-19)
(0.142694 2.48546 0)
(0.0327727 2.51732 -1.42391e-19)
(0.979076 1.06703 1.2278e-19)
(1.29698 1.50027 2.824e-19)
(1.24274 1.48314 0)
(1.1829 1.46272 8.86524e-21)
(1.11499 1.4426 4.32418e-19)
(1.03933 1.42105 -1.19304e-18)
(0.960979 1.40233 -4.27646e-19)
(0.87258 1.38377 6.1721e-20)
(0.77598 1.37362 -8.71898e-19)
(0.670409 1.38339 9.04685e-20)