# Field minima and maxima
# Time         	field          	min            	location(min)  	max            	location(max)  
5.00000000e-04	p              	0.00000000e+00	(-5.25000000e-04 0.00000000e+00 2.16000000e-01)	7.06272911e+02	(-1.43951181e-04 1.45036143e-03 1.50000000e-03)
5.00000000e-04	U              	(-2.36082130e-02 -3.34931519e-04 6.69845567e-01)	(1.37647026e-03 -1.35240568e-04 1.50000000e-03)	(1.12544951e-02 1.76625624e-02 9.68205965e-01)	(-6.70601028e-04 -8.23881783e-04 1.50000000e-03)
1.00000000e-03	p              	0.00000000e+00	(-5.25000000e-04 0.00000000e+00 2.16000000e-01)	2.91711240e+01	(-1.12275892e-03 -9.21183619e-04 1.50000000e-03)
1.00000000e-03	U              	(-1.05784467e-02 -4.17853445e-02 1.03933727e+00)	(3.38127829e-04 1.14544992e-03 1.50000000e-03)	(1.84581609e-02 3.11420461e-06 1.12127163e+00)	(-5.25000000e-04 -6.81731646e-21 1.50000000e-03)
1.50000000e-03	p              	0.00000000e+00	(-5.25000000e-04 0.00000000e+00 2.16000000e-01)	3.59054236e+01	(-1.45036143e-03 1.43951181e-04 1.50000000e-03)
1.50000000e-03	U              	(-1.33876969e-02 -4.95122840e-02 1.11848285e+00)	(3.38127829e-04 1.14544992e-03 1.50000000e-03)	(2.45124107e-02 4.01032161e-07 1.22122141e+00)	(-5.25000000e-04 -6.81731646e-21 1.50000000e-03)
2.00000000e-03	p              	0.00000000e+00	(-5.25000000e-04 0.00000000e+00 2.16000000e-01)	3.10199937e+01	(1.43951181e-04 1.45036143e-03 1.50000000e-03)
2.00000000e-03	U              	(-1.52450008e-02 -5.46657168e-02 1.15666707e+00)	(3.38127829e-04 1.14544992e-03 1.50000000e-03)	(2.85344804e-02 2.90398080e-07 1.28834032e+00)	(-5.25000000e-04 -6.81731646e-21 1.50000000e-03)
2.50000000e-03	p              	0.00000000e+00	(-5.25000000e-04 0.00000000e+00 2.16000000e-01)	2.83727214e+01	(-1.43951181e-04 -1.45036143e-03 1.50000000e-03)
2.50000000e-03	U              	(-6.52556661e-03 -6.08626931e-02 1.25102826e+00)	(1.04101843e-04 1.11232387e-03 1.50000000e-03)	(3.16280579e-02 1.01534187e-07 1.33174644e+00)	(-5.25000000e-04 -6.81731646e-21 1.50000000e-03)
3.00000000e-03	p              	0.00000000e+00	(-5.25000000e-04 0.00000000e+00 2.16000000e-01)	2.65561022e+01	(1.45036143e-03 -1.43951181e-04 1.50000000e-03)
3.00000000e-03	U              	(-2.87192383e-02 -5.63003520e-02 1.30203673e+00)	(4.95742714e-04 9.50868554e-04 1.50000000e-03)	(3.38905354e-02 -3.77388083e-08 1.36046230e+00)	(-5.25000000e-04 -6.81731646e-21 1.50000000e-03)
3.50000000e-03	p              	0.00000000e+00	(-5.25000000e-04 0.00000000e+00 2.16000000e-01)	2.52290753e+01	(1.43951181e-04 1.45036143e-03 1.50000000e-03)
3.50000000e-03	U              	(-6.99578242e-03 -6.62118690e-02 1.28547170e+00)	(1.04101843e-04 1.11232387e-03 1.50000000e-03)	(4.05124774e-02 1.92269621e-02 1.38043600e+00)	(-6.16107392e-04 -3.04594284e-04 1.50000000e-03)
4.00000000e-03	p              	0.00000000e+00	(-5.25000000e-04 0.00000000e+00 2.16000000e-01)	2.42144770e+01	(1.43951181e-04 1.45036143e-03 1.50000000e-03)
4.00000000e-03	U              	(-7.12117199e-03 -6.77509904e-02 1.29628361e+00)	(1.04101843e-04 1.11232387e-03 1.50000000e-03)	(4.27529722e-02 3.41484073e-02 1.39601980e+00)	(-6.31068897e-04 -5.08944124e-04 1.50000000e-03)
4.50000000e-03	p              	0.00000000e+00	(-5.25000000e-04 0.00000000e+00 2.16000000e-01)	2.34139125e+01	(-1.45036143e-03 1.43951181e-04 1.50000000e-03)
4.50000000e-03	U              	(-7.20479062e-03 -6.88144404e-02 1.30493555e+00)	(1.04101843e-04 1.11232387e-03 1.50000000e-03)	(4.37450081e-02 3.49374583e-02 1.40843005e+00)	(-6.31068897e-04 -5.08944124e-04 1.50000000e-03)
5.00000000e-03	p              	0.00000000e+00	(-5.25000000e-04 0.00000000e+00 2.16000000e-01)	2.27670948e+01	(-1.45036143e-03 1.43951181e-04 1.50000000e-03)
5.00000000e-03	U              	(-7.26060172e-03 -6.95418123e-02 1.31205954e+00)	(1.04101843e-04 1.11232387e-03 1.50000000e-03)	(4.44272163e-02 3.54783696e-02 1.41815402e+00)	(-6.31068897e-04 -5.08944124e-04 1.50000000e-03)
5.50000000e-03	p              	0.00000000e+00	(-5.25000000e-04 0.00000000e+00 2.16000000e-01)	2.22347783e+01	(-1.45036143e-03 -1.43951181e-04 1.50000000e-03)
5.50000000e-03	U              	(-7.29796224e-03 -7.00339706e-02 1.31797547e+00)	(1.04101843e-04 1.11232387e-03 1.50000000e-03)	(4.48807980e-02 3.58372944e-02 1.42599635e+00)	(-6.31068897e-04 -5.08944124e-04 1.50000000e-03)
6.00000000e-03	p              	0.00000000e+00	(-5.25000000e-04 0.00000000e+00 2.16000000e-01)	2.17901656e+01	(1.43951181e-04 1.45036143e-03 1.50000000e-03)
6.00000000e-03	U              	(-7.32316963e-03 -7.03634282e-02 1.32286135e+00)	(1.04101843e-04 1.11232387e-03 1.50000000e-03)	(4.51708167e-02 3.60666465e-02 1.43244937e+00)	(-6.31068897e-04 -5.08944124e-04 1.50000000e-03)
6.50000000e-03	p              	0.00000000e+00	(-5.25000000e-04 0.00000000e+00 2.16000000e-01)	2.14142489e+01	(-1.43951181e-04 1.45036143e-03 1.50000000e-03)
6.50000000e-03	U              	(-7.34031618e-03 -7.05821121e-02 1.32683814e+00)	(1.04101843e-04 1.11232387e-03 1.50000000e-03)	(4.53481023e-02 3.62070671e-02 1.43781722e+00)	(-6.31068897e-04 -5.08944124e-04 1.50000000e-03)
7.00000000e-03	p              	0.00000000e+00	(-5.25000000e-04 0.00000000e+00 2.16000000e-01)	2.10933393e+01	(-1.45036143e-03 -1.43951181e-04 1.50000000e-03)
7.00000000e-03	U              	(-7.35225922e-03 -7.07267458e-02 1.33000910e+00)	(1.04101843e-04 1.11232387e-03 1.50000000e-03)	(4.54512635e-02 3.62892304e-02 1.44229558e+00)	(-6.31068897e-04 -5.08944124e-04 1.50000000e-03)
7.50000000e-03	p              	0.00000000e+00	(-5.25000000e-04 0.00000000e+00 2.16000000e-01)	2.08170291e+01	(1.45036143e-03 1.43951181e-04 1.50000000e-03)
7.50000000e-03	U              	(-7.36089530e-03 -7.08229332e-02 1.33247544e+00)	(1.04101843e-04 1.11232387e-03 1.50000000e-03)	(4.55084134e-02 3.63355162e-02 1.44602077e+00)	(-6.31068897e-04 -5.08944124e-04 1.50000000e-03)
8.00000000e-03	p              	0.00000000e+00	(-5.25000000e-04 0.00000000e+00 2.16000000e-01)	2.05774767e+01	(1.45036143e-03 1.43951181e-04 1.50000000e-03)
8.00000000e-03	U              	(-7.36733318e-03 -7.08882226e-02 1.33433920e+00)	(1.04101843e-04 1.11232387e-03 1.50000000e-03)	(4.55396136e-02 3.63615734e-02 1.44909833e+00)	(-6.31068897e-04 -5.08944124e-04 1.50000000e-03)
8.50000000e-03	p              	0.00000000e+00	(-5.25000000e-04 0.00000000e+00 2.16000000e-01)	2.03685672e+01	(-1.45036143e-03 1.43951181e-04 1.50000000e-03)
8.50000000e-03	U              	(-7.37231422e-03 -7.09343774e-02 1.33570169e+00)	(1.04101843e-04 1.11232387e-03 1.50000000e-03)	(4.55581855e-02 3.63778432e-02 1.45161791e+00)	(-6.31068897e-04 -5.08944124e-04 1.50000000e-03)
9.00000000e-03	p              	0.00000000e+00	(-5.25000000e-04 0.00000000e+00 2.16000000e-01)	2.01854543e+01	(1.45036143e-03 1.43951181e-04 1.50000000e-03)
9.00000000e-03	U              	(-7.37639931e-03 -7.09690469e-02 1.33665961e+00)	(1.04101843e-04 1.11232387e-03 1.50000000e-03)	(4.55724367e-02 3.63908753e-02 1.45366027e+00)	(-6.31068897e-04 -5.08944124e-04 1.50000000e-03)
9.50000000e-03	p              	0.00000000e+00	(-5.25000000e-04 0.00000000e+00 2.16000000e-01)	2.00242382e+01	(1.43951181e-04 -1.45036143e-03 1.50000000e-03)
9.50000000e-03	U              	(-7.37979274e-03 -7.09970132e-02 1.33730132e+00)	(1.04101843e-04 1.11232387e-03 1.50000000e-03)	(4.55872370e-02 3.64043111e-02 1.45529964e+00)	(-6.31068897e-04 -5.08944124e-04 1.50000000e-03)
1.00000000e-02	p              	0.00000000e+00	(-5.25000000e-04 0.00000000e+00 2.16000000e-01)	1.98817641e+01	(1.45036143e-03 -1.43951181e-04 1.50000000e-03)
1.00000000e-02	U              	(-7.38272851e-03 -7.10211056e-02 1.33770472e+00)	(1.04101843e-04 1.11232387e-03 1.50000000e-03)	(4.56047913e-02 3.64198546e-02 1.45660419e+00)	(-6.31068897e-04 -5.08944124e-04 1.50000000e-03)
1.05000000e-02	p              	0.00000000e+00	(-5.25000000e-04 0.00000000e+00 2.16000000e-01)	1.97554150e+01	(-1.45036143e-03 -1.43951181e-04 1.50000000e-03)
1.05000000e-02	U              	(-7.38530621e-03 -7.10428899e-02 1.33793549e+00)	(1.04101843e-04 1.11232387e-03 1.50000000e-03)	(4.56257192e-02 3.64379395e-02 1.45763509e+00)	(-6.31068897e-04 -5.08944124e-04 1.50000000e-03)
1.10000000e-02	p              	0.00000000e+00	(-5.25000000e-04 0.00000000e+00 2.16000000e-01)	1.96431025e+01	(-1.43951181e-04 1.45036143e-03 1.50000000e-03)
1.10000000e-02	U              	(-7.38757004e-03 -7.10631096e-02 1.33804721e+00)	(1.04101843e-04 1.11232387e-03 1.50000000e-03)	(4.56496038e-02 3.64581827e-02 1.45844621e+00)	(-6.31068897e-04 -5.08944124e-04 1.50000000e-03)
1.15000000e-02	p              	0.00000000e+00	(-5.25000000e-04 0.00000000e+00 2.16000000e-01)	1.95429488e+01	(1.45036143e-03 1.43951181e-04 1.50000000e-03)
1.15000000e-02	U              	(-7.38957145e-03 -7.10820540e-02 1.33808179e+00)	(1.04101843e-04 1.11232387e-03 1.50000000e-03)	(4.56755417e-02 3.64798799e-02 1.45908371e+00)	(-6.31068897e-04 -5.08944124e-04 1.50000000e-03)
1.20000000e-02	p              	0.00000000e+00	(-5.25000000e-04 0.00000000e+00 2.16000000e-01)	1.94534527e+01	(-1.45036143e-03 1.43951181e-04 1.50000000e-03)
1.20000000e-02	U              	(-7.39132516e-03 -7.10997526e-02 1.33807073e+00)	(1.04101843e-04 1.11232387e-03 1.50000000e-03)	(4.57024471e-02 3.65021474e-02 1.45958613e+00)	(-6.31068897e-04 -5.08944124e-04 1.50000000e-03)
1.25000000e-02	p              	0.00000000e+00	(-5.25000000e-04 0.00000000e+00 2.16000000e-01)	1.93733518e+01	(1.43951181e-04 -1.45036143e-03 1.50000000e-03)
1.25000000e-02	U              	(-7.39285447e-03 -7.11161242e-02 1.33803662e+00)	(1.04101843e-04 1.11232387e-03 1.50000000e-03)	(4.57292345e-02 3.65241512e-02 1.45998482e+00)	(-6.31068897e-04 -5.08944124e-04 1.50000000e-03)
1.30000000e-02	p              	0.00000000e+00	(-5.25000000e-04 0.00000000e+00 2.16000000e-01)	1.93014796e+01	(1.43951181e-04 -1.45036143e-03 1.50000000e-03)
1.30000000e-02	U              	(-7.39417617e-03 -7.11310637e-02 1.33799479e+00)	(1.04101843e-04 1.11232387e-03 1.50000000e-03)	(4.57549951e-02 3.65451739e-02 1.46030464e+00)	(-6.31068897e-04 -5.08944124e-04 1.50000000e-03)
1.35000000e-02	p              	0.00000000e+00	(-5.25000000e-04 0.00000000e+00 2.16000000e-01)	1.92369294e+01	(-1.45036143e-03 -1.43951181e-04 1.50000000e-03)
1.35000000e-02	U              	(-7.39530866e-03 -7.11444899e-02 1.33795484e+00)	(1.04101843e-04 1.11232387e-03 1.50000000e-03)	(4.57790187e-02 3.65646803e-02 1.46056486e+00)	(-6.31068897e-04 -5.08944124e-04 1.50000000e-03)
1.40000000e-02	p              	0.00000000e+00	(-5.25000000e-04 0.00000000e+00 2.16000000e-01)	1.91788488e+01	(-1.43951181e-04 -1.45036143e-03 1.50000000e-03)
1.40000000e-02	U              	(-7.39626690e-03 -7.11563677e-02 1.33792208e+00)	(1.04101843e-04 1.11232387e-03 1.50000000e-03)	(4.58008189e-02 3.65823173e-02 1.46077999e+00)	(-6.31068897e-04 -5.08944124e-04 1.50000000e-03)
1.45000000e-02	p              	0.00000000e+00	(-5.25000000e-04 0.00000000e+00 2.16000000e-01)	1.91265167e+01	(-1.45036143e-03 1.43951181e-04 1.50000000e-03)
1.45000000e-02	U              	(-7.39707198e-03 -7.11667121e-02 1.33789885e+00)	(1.04101843e-04 1.11232387e-03 1.50000000e-03)	(4.58201266e-02 3.65978795e-02 1.46096083e+00)	(-6.31068897e-04 -5.08944124e-04 1.50000000e-03)
1.50000000e-02	p              	0.00000000e+00	(-5.25000000e-04 0.00000000e+00 2.16000000e-01)	1.90793359e+01	(1.43951181e-04 -1.45036143e-03 1.50000000e-03)
1.50000000e-02	U              	(-7.39774094e-03 -7.11755871e-02 1.33788535e+00)	(1.04101843e-04 1.11232387e-03 1.50000000e-03)	(4.58368579e-02 3.66113341e-02 1.46111511e+00)	(-6.31068897e-04 -5.08944124e-04 1.50000000e-03)
1.55000000e-02	p              	0.00000000e+00	(-5.25000000e-04 0.00000000e+00 2.16000000e-01)	1.90367476e+01	(-1.45036143e-03 1.43951181e-04 1.50000000e-03)
1.55000000e-02	U              	(-7.39829179e-03 -7.11830935e-02 1.33788063e+00)	(1.04101843e-04 1.11232387e-03 1.50000000e-03)	(4.58510667e-02 3.66227297e-02 1.46124839e+00)	(-6.31068897e-04 -5.08944124e-04 1.50000000e-03)
1.60000000e-02	p              	0.00000000e+00	(-5.25000000e-04 0.00000000e+00 2.16000000e-01)	1.89982671e+01	(-1.45036143e-03 1.43951181e-04 1.50000000e-03)
1.60000000e-02	U              	(-7.39874358e-03 -7.11893593e-02 1.33788305e+00)	(1.04101843e-04 1.11232387e-03 1.50000000e-03)	(4.58629139e-02 3.66322143e-02 1.46136455e+00)	(-6.31068897e-04 -5.08944124e-04 1.50000000e-03)
1.65000000e-02	p              	0.00000000e+00	(-5.25000000e-04 0.00000000e+00 2.16000000e-01)	1.89634834e+01	(1.43951181e-04 -1.45036143e-03 1.50000000e-03)
1.65000000e-02	U              	(-7.39911053e-03 -7.11945287e-02 1.33789071e+00)	(1.04101843e-04 1.11232387e-03 1.50000000e-03)	(4.58726325e-02 3.66399872e-02 1.46146627e+00)	(-6.31068897e-04 -5.08944124e-04 1.50000000e-03)
1.70000000e-02	p              	0.00000000e+00	(-5.25000000e-04 0.00000000e+00 2.16000000e-01)	1.89320107e+01	(1.43951181e-04 -1.45036143e-03 1.50000000e-03)
1.70000000e-02	U              	(-7.39940710e-03 -7.11987477e-02 1.33790181e+00)	(1.04101843e-04 1.11232387e-03 1.50000000e-03)	(4.58804874e-02 3.66462609e-02 1.46155554e+00)	(-6.31068897e-04 -5.08944124e-04 1.50000000e-03)
1.75000000e-02	p              	0.00000000e+00	(-5.25000000e-04 0.00000000e+00 2.16000000e-01)	1.89035120e+01	(1.43951181e-04 -1.45036143e-03 1.50000000e-03)
1.75000000e-02	U              	(-7.39964877e-03 -7.12021619e-02 1.33791477e+00)	(1.04101843e-04 1.11232387e-03 1.50000000e-03)	(4.58867551e-02 3.66512653e-02 1.46163378e+00)	(-6.31068897e-04 -5.08944124e-04 1.50000000e-03)
1.80000000e-02	p              	0.00000000e+00	(-5.25000000e-04 0.00000000e+00 2.16000000e-01)	1.88777057e+01	(-1.45036143e-03 1.43951181e-04 1.50000000e-03)
1.80000000e-02	U              	(-7.39984452e-03 -7.12049074e-02 1.33792830e+00)	(1.04101843e-04 1.11232387e-03 1.50000000e-03)	(4.58917067e-02 3.66552197e-02 1.46170214e+00)	(-6.31068897e-04 -5.08944124e-04 1.50000000e-03)
1.85000000e-02	p              	0.00000000e+00	(-5.25000000e-04 0.00000000e+00 2.16000000e-01)	1.88543247e+01	(1.45036143e-03 1.43951181e-04 1.50000000e-03)
1.85000000e-02	U              	(-7.40000468e-03 -7.12071067e-02 1.33794143e+00)	(1.04101843e-04 1.11232387e-03 1.50000000e-03)	(4.58955931e-02 3.66583237e-02 1.46176159e+00)	(-6.31068897e-04 -5.08944124e-04 1.50000000e-03)
1.90000000e-02	p              	0.00000000e+00	(-5.25000000e-04 0.00000000e+00 2.16000000e-01)	1.88331109e+01	(-1.45036143e-03 1.43951181e-04 1.50000000e-03)
1.90000000e-02	U              	(-7.40013525e-03 -7.12088675e-02 1.33795350e+00)	(1.04101843e-04 1.11232387e-03 1.50000000e-03)	(4.58986351e-02 3.66607569e-02 1.46181299e+00)	(-6.31068897e-04 -5.08944124e-04 1.50000000e-03)
1.95000000e-02	p              	0.00000000e+00	(-5.25000000e-04 0.00000000e+00 2.16000000e-01)	1.88138881e+01	(1.45036143e-03 1.43951181e-04 1.50000000e-03)
1.95000000e-02	U              	(-7.40024334e-03 -7.12102801e-02 1.33796413e+00)	(1.04101843e-04 1.11232387e-03 1.50000000e-03)	(4.59010201e-02 3.66626690e-02 1.46185718e+00)	(-6.31068897e-04 -5.08944124e-04 1.50000000e-03)
2.00000000e-02	p              	0.00000000e+00	(-5.25000000e-04 0.00000000e+00 2.16000000e-01)	1.87964353e+01	(-1.43951181e-04 -1.45036143e-03 1.50000000e-03)
2.00000000e-02	U              	(-7.40033290e-03 -7.12114208e-02 1.33797317e+00)	(1.04101843e-04 1.11232387e-03 1.50000000e-03)	(4.59029048e-02 3.66641842e-02 1.46189493e+00)	(-6.31068897e-04 -5.08944124e-04 1.50000000e-03)
2.05000000e-02	p              	0.00000000e+00	(-5.25000000e-04 0.00000000e+00 2.16000000e-01)	1.87806111e+01	(-1.43951181e-04 1.45036143e-03 1.50000000e-03)
2.05000000e-02	U              	(-7.40040909e-03 -7.12123494e-02 1.33798063e+00)	(1.04101843e-04 1.11232387e-03 1.50000000e-03)	(4.59044110e-02 3.66653971e-02 1.46192704e+00)	(-6.31068897e-04 -5.08944124e-04 1.50000000e-03)
2.10000000e-02	p              	0.00000000e+00	(-5.25000000e-04 0.00000000e+00 2.16000000e-01)	1.87662527e+01	(1.43951181e-04 -1.45036143e-03 1.50000000e-03)
2.10000000e-02	U              	(-7.40047350e-03 -7.12131152e-02 1.33798660e+00)	(1.04101843e-04 1.11232387e-03 1.50000000e-03)	(4.59056381e-02 3.66663875e-02 1.46195421e+00)	(-6.31068897e-04 -5.08944124e-04 1.50000000e-03)
2.15000000e-02	p              	0.00000000e+00	(-5.25000000e-04 0.00000000e+00 2.16000000e-01)	1.87532043e+01	(-1.45036143e-03 -1.43951181e-04 1.50000000e-03)
2.15000000e-02	U              	(-7.40052919e-03 -7.12137547e-02 1.33799128e+00)	(1.04101843e-04 1.11232387e-03 1.50000000e-03)	(4.59066568e-02 3.66672117e-02 1.46197714e+00)	(-6.31068897e-04 -5.08944124e-04 1.50000000e-03)
2.20000000e-02	p              	0.00000000e+00	(-5.25000000e-04 0.00000000e+00 2.16000000e-01)	1.87413734e+01	(1.45036143e-03 1.43951181e-04 1.50000000e-03)
2.20000000e-02	U              	(-7.40057767e-03 -7.12142961e-02 1.33799485e+00)	(1.04101843e-04 1.11232387e-03 1.50000000e-03)	(4.59075209e-02 3.66679122e-02 1.46199642e+00)	(-6.31068897e-04 -5.08944124e-04 1.50000000e-03)
2.25000000e-02	p              	0.00000000e+00	(-5.25000000e-04 0.00000000e+00 2.16000000e-01)	1.87306320e+01	(1.43951181e-04 -1.45036143e-03 1.50000000e-03)
2.25000000e-02	U              	(-7.40061890e-03 -7.12147605e-02 1.33799755e+00)	(1.04101843e-04 1.11232387e-03 1.50000000e-03)	(4.59082685e-02 3.66685186e-02 1.46201264e+00)	(-6.31068897e-04 -5.08944124e-04 1.50000000e-03)
2.30000000e-02	p              	0.00000000e+00	(-5.25000000e-04 0.00000000e+00 2.16000000e-01)	1.87208595e+01	(-1.45036143e-03 1.43951181e-04 1.50000000e-03)
2.30000000e-02	U              	(-7.40065540e-03 -7.12151624e-02 1.33799957e+00)	(1.04101843e-04 1.11232387e-03 1.50000000e-03)	(4.59089240e-02 3.66690496e-02 1.46202630e+00)	(-6.31068897e-04 -5.08944124e-04 1.50000000e-03)
2.35000000e-02	p              	0.00000000e+00	(-5.25000000e-04 0.00000000e+00 2.16000000e-01)	1.87120013e+01	(1.45036143e-03 1.43951181e-04 1.50000000e-03)
2.35000000e-02	U              	(-7.40068713e-03 -7.12155134e-02 1.33800109e+00)	(1.04101843e-04 1.11232387e-03 1.50000000e-03)	(4.59095058e-02 3.66695208e-02 1.46203782e+00)	(-6.31068897e-04 -5.08944124e-04 1.50000000e-03)
2.40000000e-02	p              	0.00000000e+00	(-5.25000000e-04 0.00000000e+00 2.16000000e-01)	1.87039449e+01	(1.45036143e-03 1.43951181e-04 1.50000000e-03)
2.40000000e-02	U              	(-7.40071437e-03 -7.12158214e-02 1.33800224e+00)	(1.04101843e-04 1.11232387e-03 1.50000000e-03)	(4.59100248e-02 3.66699408e-02 1.46204757e+00)	(-6.31068897e-04 -5.08944124e-04 1.50000000e-03)
2.45000000e-02	p              	0.00000000e+00	(-5.25000000e-04 0.00000000e+00 2.16000000e-01)	1.86966353e+01	(1.45036143e-03 1.43951181e-04 1.50000000e-03)
2.45000000e-02	U              	(-7.40073781e-03 -7.12160921e-02 1.33800314e+00)	(1.04101843e-04 1.11232387e-03 1.50000000e-03)	(4.59104886e-02 3.66703154e-02 1.46205585e+00)	(-6.31068897e-04 -5.08944124e-04 1.50000000e-03)
2.50000000e-02	p              	0.00000000e+00	(-5.25000000e-04 0.00000000e+00 2.16000000e-01)	1.86899906e+01	(1.45036143e-03 1.43951181e-04 1.50000000e-03)
2.50000000e-02	U              	(-7.40075838e-03 -7.12163299e-02 1.33800389e+00)	(1.04101843e-04 1.11232387e-03 1.50000000e-03)	(4.59109012e-02 3.66706483e-02 1.46206293e+00)	(-6.31068897e-04 -5.08944124e-04 1.50000000e-03)
2.55000000e-02	p              	0.00000000e+00	(-5.25000000e-04 0.00000000e+00 2.16000000e-01)	1.86839513e+01	(-1.43951181e-04 1.45036143e-03 1.50000000e-03)
2.55000000e-02	U              	(-7.40077590e-03 -7.12165384e-02 1.33800454e+00)	(1.04101843e-04 1.11232387e-03 1.50000000e-03)	(4.59112676e-02 3.66709436e-02 1.46206901e+00)	(-6.31068897e-04 -5.08944124e-04 1.50000000e-03)
2.60000000e-02	p              	0.00000000e+00	(-5.25000000e-04 0.00000000e+00 2.16000000e-01)	1.86784666e+01	(-1.43951181e-04 1.45036143e-03 1.50000000e-03)
2.60000000e-02	U              	(-7.40079099e-03 -7.12167205e-02 1.33800514e+00)	(1.04101843e-04 1.11232387e-03 1.50000000e-03)	(4.59115896e-02 3.66712024e-02 1.46207427e+00)	(-6.31068897e-04 -5.08944124e-04 1.50000000e-03)
2.65000000e-02	p              	0.00000000e+00	(-5.25000000e-04 0.00000000e+00 2.16000000e-01)	1.86734903e+01	(1.45036143e-03 -1.43951181e-04 1.50000000e-03)
2.65000000e-02	U              	(-7.40080430e-03 -7.12168790e-02 1.33800569e+00)	(1.04101843e-04 1.11232387e-03 1.50000000e-03)	(4.59118712e-02 3.66714290e-02 1.46207882e+00)	(-6.31068897e-04 -5.08944124e-04 1.50000000e-03)
2.70000000e-02	p              	0.00000000e+00	(-5.25000000e-04 0.00000000e+00 2.16000000e-01)	1.86689639e+01	(-1.45036143e-03 -1.43951181e-04 1.50000000e-03)
2.70000000e-02	U              	(-7.40081555e-03 -7.12170162e-02 1.33800622e+00)	(1.04101843e-04 1.11232387e-03 1.50000000e-03)	(4.59121160e-02 3.66716251e-02 1.46208279e+00)	(-6.31068897e-04 -5.08944124e-04 1.50000000e-03)
2.75000000e-02	p              	0.00000000e+00	(-5.25000000e-04 0.00000000e+00 2.16000000e-01)	1.86648543e+01	(1.45036143e-03 1.43951181e-04 1.50000000e-03)
2.75000000e-02	U              	(-7.40082507e-03 -7.12171345e-02 1.33800673e+00)	(1.04101843e-04 1.11232387e-03 1.50000000e-03)	(4.59123273e-02 3.66717943e-02 1.46208624e+00)	(-6.31068897e-04 -5.08944124e-04 1.50000000e-03)
2.80000000e-02	p              	0.00000000e+00	(-5.25000000e-04 0.00000000e+00 2.16000000e-01)	1.86611121e+01	(-1.45036143e-03 1.43951181e-04 1.50000000e-03)
2.80000000e-02	U              	(-7.40083304e-03 -7.12172360e-02 1.33800721e+00)	(1.04101843e-04 1.11232387e-03 1.50000000e-03)	(4.59125079e-02 3.66719387e-02 1.46208927e+00)	(-6.31068897e-04 -5.08944124e-04 1.50000000e-03)
2.85000000e-02	p              	0.00000000e+00	(-5.25000000e-04 0.00000000e+00 2.16000000e-01)	1.86577250e+01	(1.45036143e-03 1.43951181e-04 1.50000000e-03)
2.85000000e-02	U              	(-7.40084001e-03 -7.12173228e-02 1.33800766e+00)	(1.04101843e-04 1.11232387e-03 1.50000000e-03)	(4.59126618e-02 3.66720621e-02 1.46209191e+00)	(-6.31068897e-04 -5.08944124e-04 1.50000000e-03)
2.90000000e-02	p              	0.00000000e+00	(-5.25000000e-04 0.00000000e+00 2.16000000e-01)	1.86546316e+01	(1.45036143e-03 1.43951181e-04 1.50000000e-03)
2.90000000e-02	U              	(-7.40084625e-03 -7.12173966e-02 1.33800809e+00)	(1.04101843e-04 1.11232387e-03 1.50000000e-03)	(4.59127922e-02 3.66721659e-02 1.46209423e+00)	(-6.31068897e-04 -5.08944124e-04 1.50000000e-03)
2.95000000e-02	p              	0.00000000e+00	(-5.25000000e-04 0.00000000e+00 2.16000000e-01)	1.86518398e+01	(-1.45036143e-03 1.43951181e-04 1.50000000e-03)
2.95000000e-02	U              	(-7.40085072e-03 -7.12174597e-02 1.33800847e+00)	(1.04101843e-04 1.11232387e-03 1.50000000e-03)	(4.59129029e-02 3.66722543e-02 1.46209624e+00)	(-6.31068897e-04 -5.08944124e-04 1.50000000e-03)
3.00000000e-02	p              	0.00000000e+00	(-5.25000000e-04 0.00000000e+00 2.16000000e-01)	1.86492940e+01	(-1.45036143e-03 1.43951181e-04 1.50000000e-03)
3.00000000e-02	U              	(-7.40085511e-03 -7.12175132e-02 1.33800882e+00)	(1.04101843e-04 1.11232387e-03 1.50000000e-03)	(4.59129960e-02 3.66723288e-02 1.46209801e+00)	(-6.31068897e-04 -5.08944124e-04 1.50000000e-03)
3.05000000e-02	p              	0.00000000e+00	(-5.25000000e-04 0.00000000e+00 2.16000000e-01)	1.86469797e+01	(-1.45036143e-03 -1.43951181e-04 1.50000000e-03)
3.05000000e-02	U              	(-7.40085891e-03 -7.12175587e-02 1.33800912e+00)	(1.04101843e-04 1.11232387e-03 1.50000000e-03)	(4.59130743e-02 3.66723916e-02 1.46209954e+00)	(-6.31068897e-04 -5.08944124e-04 1.50000000e-03)
3.10000000e-02	p              	0.00000000e+00	(-5.25000000e-04 0.00000000e+00 2.16000000e-01)	1.86448839e+01	(-1.43951181e-04 -1.45036143e-03 1.50000000e-03)
3.10000000e-02	U              	(-7.40086184e-03 -7.12175976e-02 1.33800939e+00)	(1.04101843e-04 1.11232387e-03 1.50000000e-03)	(4.59131412e-02 3.66724460e-02 1.46210087e+00)	(-6.31068897e-04 -5.08944124e-04 1.50000000e-03)
3.15000000e-02	p              	0.00000000e+00	(-5.25000000e-04 0.00000000e+00 2.16000000e-01)	1.86429805e+01	(-1.43951181e-04 -1.45036143e-03 1.50000000e-03)
3.15000000e-02	U              	(-7.40086480e-03 -7.12176307e-02 1.33800963e+00)	(1.04101843e-04 1.11232387e-03 1.50000000e-03)	(4.59131977e-02 3.66724917e-02 1.46210204e+00)	(-6.31068897e-04 -5.08944124e-04 1.50000000e-03)
3.20000000e-02	p              	0.00000000e+00	(-5.25000000e-04 0.00000000e+00 2.16000000e-01)	1.86412491e+01	(1.43951181e-04 -1.45036143e-03 1.50000000e-03)
3.20000000e-02	U              	(-7.40086717e-03 -7.12176590e-02 1.33800983e+00)	(1.04101843e-04 1.11232387e-03 1.50000000e-03)	(4.59132456e-02 3.66725299e-02 1.46210304e+00)	(-6.31068897e-04 -5.08944124e-04 1.50000000e-03)
3.25000000e-02	p              	0.00000000e+00	(-5.25000000e-04 0.00000000e+00 2.16000000e-01)	1.86396770e+01	(-1.43951181e-04 -1.45036143e-03 1.50000000e-03)
3.25000000e-02	U              	(-7.40086923e-03 -7.12176833e-02 1.33801000e+00)	(1.04101843e-04 1.11232387e-03 1.50000000e-03)	(4.59132868e-02 3.66725629e-02 1.46210391e+00)	(-6.31068897e-04 -5.08944124e-04 1.50000000e-03)
3.30000000e-02	p              	0.00000000e+00	(-5.25000000e-04 0.00000000e+00 2.16000000e-01)	1.86382446e+01	(1.43951181e-04 -1.45036143e-03 1.50000000e-03)
3.30000000e-02	U              	(-7.40087108e-03 -7.12177042e-02 1.33801014e+00)	(1.04101843e-04 1.11232387e-03 1.50000000e-03)	(4.59133223e-02 3.66725915e-02 1.46210467e+00)	(-6.31068897e-04 -5.08944124e-04 1.50000000e-03)
3.35000000e-02	p              	0.00000000e+00	(-5.25000000e-04 0.00000000e+00 2.16000000e-01)	1.86369537e+01	(-1.43951181e-04 1.45036143e-03 1.50000000e-03)
3.35000000e-02	U              	(-7.40087260e-03 -7.12177224e-02 1.33801026e+00)	(1.04101843e-04 1.11232387e-03 1.50000000e-03)	(4.59133531e-02 3.66726160e-02 1.46210532e+00)	(-6.31068897e-04 -5.08944124e-04 1.50000000e-03)
3.40000000e-02	p              	0.00000000e+00	(-5.25000000e-04 0.00000000e+00 2.16000000e-01)	1.86357772e+01	(-1.43951181e-04 1.45036143e-03 1.50000000e-03)
3.40000000e-02	U              	(-7.40087383e-03 -7.12177381e-02 1.33801036e+00)	(1.04101843e-04 1.11232387e-03 1.50000000e-03)	(4.59133797e-02 3.66726370e-02 1.46210588e+00)	(-6.31068897e-04 -5.08944124e-04 1.50000000e-03)
3.45000000e-02	p              	0.00000000e+00	(-5.25000000e-04 0.00000000e+00 2.16000000e-01)	1.86347073e+01	(-1.43951181e-04 1.45036143e-03 1.50000000e-03)
3.45000000e-02	U              	(-7.40087475e-03 -7.12177522e-02 1.33801045e+00)	(1.04101843e-04 1.11232387e-03 1.50000000e-03)	(4.59134037e-02 3.66726551e-02 1.46210637e+00)	(-6.31068897e-04 -5.08944124e-04 1.50000000e-03)
3.50000000e-02	p              	0.00000000e+00	(-5.25000000e-04 0.00000000e+00 2.16000000e-01)	1.86337401e+01	(1.45036143e-03 -1.43951181e-04 1.50000000e-03)
3.50000000e-02	U              	(-7.40087595e-03 -7.12177638e-02 1.33801052e+00)	(1.04101843e-04 1.11232387e-03 1.50000000e-03)	(4.59134234e-02 3.66726720e-02 1.46210680e+00)	(-6.31068897e-04 -5.08944124e-04 1.50000000e-03)
3.55000000e-02	p              	0.00000000e+00	(-5.25000000e-04 0.00000000e+00 2.16000000e-01)	1.86328586e+01	(1.45036143e-03 1.43951181e-04 1.50000000e-03)
3.55000000e-02	U              	(-7.40087687e-03 -7.12177742e-02 1.33801058e+00)	(1.04101843e-04 1.11232387e-03 1.50000000e-03)	(4.59134413e-02 3.66726867e-02 1.46210716e+00)	(-6.31068897e-04 -5.08944124e-04 1.50000000e-03)
3.60000000e-02	p              	0.00000000e+00	(-5.25000000e-04 0.00000000e+00 2.16000000e-01)	1.86320654e+01	(1.45036143e-03 1.43951181e-04 1.50000000e-03)
3.60000000e-02	U              	(-7.40087735e-03 -7.12177834e-02 1.33801063e+00)	(1.04101843e-04 1.11232387e-03 1.50000000e-03)	(4.59134573e-02 3.66726995e-02 1.46210748e+00)	(-6.31068897e-04 -5.08944124e-04 1.50000000e-03)
3.65000000e-02	p              	0.00000000e+00	(-5.25000000e-04 0.00000000e+00 2.16000000e-01)	1.86313295e+01	(1.43951181e-04 1.45036143e-03 1.50000000e-03)
3.65000000e-02	U              	(-7.40087789e-03 -7.12177915e-02 1.33801068e+00)	(1.04101843e-04 1.11232387e-03 1.50000000e-03)	(4.59134717e-02 3.66727105e-02 1.46210776e+00)	(-6.31068897e-04 -5.08944124e-04 1.50000000e-03)
3.70000000e-02	p              	0.00000000e+00	(-5.25000000e-04 0.00000000e+00 2.16000000e-01)	1.86306706e+01	(1.45036143e-03 -1.43951181e-04 1.50000000e-03)
3.70000000e-02	U              	(-7.40087870e-03 -7.12177984e-02 1.33801072e+00)	(1.04101843e-04 1.11232387e-03 1.50000000e-03)	(4.59134836e-02 3.66727208e-02 1.46210800e+00)	(-6.31068897e-04 -5.08944124e-04 1.50000000e-03)
3.75000000e-02	p              	0.00000000e+00	(-5.25000000e-04 0.00000000e+00 2.16000000e-01)	1.86300735e+01	(-1.43951181e-04 1.45036143e-03 1.50000000e-03)
3.75000000e-02	U              	(-7.40087923e-03 -7.12178046e-02 1.33801075e+00)	(1.04101843e-04 1.11232387e-03 1.50000000e-03)	(4.59134945e-02 3.66727298e-02 1.46210821e+00)	(-6.31068897e-04 -5.08944124e-04 1.50000000e-03)
3.80000000e-02	p              	0.00000000e+00	(-5.25000000e-04 0.00000000e+00 2.16000000e-01)	1.86295305e+01	(1.45036143e-03 1.43951181e-04 1.50000000e-03)
3.80000000e-02	U              	(-7.40087995e-03 -7.12178101e-02 1.33801079e+00)	(1.04101843e-04 1.11232387e-03 1.50000000e-03)	(4.59135040e-02 3.66727377e-02 1.46210839e+00)	(-6.31068897e-04 -5.08944124e-04 1.50000000e-03)
3.85000000e-02	p              	0.00000000e+00	(-5.25000000e-04 0.00000000e+00 2.16000000e-01)	1.86290364e+01	(-1.45036143e-03 -1.43951181e-04 1.50000000e-03)
3.85000000e-02	U              	(-7.40088005e-03 -7.12178148e-02 1.33801081e+00)	(1.04101843e-04 1.11232387e-03 1.50000000e-03)	(4.59135124e-02 3.66727444e-02 1.46210855e+00)	(-6.31068897e-04 -5.08944124e-04 1.50000000e-03)
3.90000000e-02	p              	0.00000000e+00	(-5.25000000e-04 0.00000000e+00 2.16000000e-01)	1.86285928e+01	(-1.45036143e-03 -1.43951181e-04 1.50000000e-03)
3.90000000e-02	U              	(-7.40088069e-03 -7.12178190e-02 1.33801084e+00)	(1.04101843e-04 1.11232387e-03 1.50000000e-03)	(4.59135199e-02 3.66727504e-02 1.46210869e+00)	(-6.31068897e-04 -5.08944124e-04 1.50000000e-03)
3.95000000e-02	p              	0.00000000e+00	(-5.25000000e-04 0.00000000e+00 2.16000000e-01)	1.86281872e+01	(-1.43951181e-04 -1.45036143e-03 1.50000000e-03)