/*--------------------------------*- C++ -*----------------------------------*\
| =========                 |                                                 |
| \\      /  F ield         | OpenFOAM: The Open Source CFD Toolbox           |
|  \\    /   O peration     | Version:  2112                                  |
|   \\  /    A nd           | Website:  www.openfoam.com                      |
|    \\/     M anipulation  |                                                 |
\*---------------------------------------------------------------------------*/
FoamFile
{
    version     2.0;
    format      ascii;
    arch        "LSB;label=32;scalar=64";
    class       volScalarField;
    location    "5";
    object      T;
}
// * * * * * * * * * * * * * * * * * * * * * * * * * * * * * * * * * * * * * //

dimensions      [0 0 0 1 0 0 0];

internalField   nonuniform List<scalar> 
1000
(
0.0726401
0.0726412
0.0726433
0.0726466
0.0726508
0.0726562
0.0726626
0.0726701
0.0726787
0.0726883
0.072699
0.0727108
0.0727237
0.0727376
0.0727525
0.0727686
0.0727857
0.0728039
0.0728231
0.0728434
0.0728648
0.0728873
0.0729107
0.0729353
0.0729609
0.0729876
0.0730153
0.0730441
0.073074
0.0731049
0.0731368
0.0731698
0.0732039
0.073239
0.0732752
0.0733124
0.0733506
0.0733899
0.0734303
0.0734716
0.0735141
0.0735575
0.073602
0.0736475
0.0736941
0.0737417
0.0737903
0.07384
0.0738906
0.0739423
0.0739951
0.0740488
0.0741035
0.0741593
0.0742161
0.0742739
0.0743327
0.0743925
0.0744533
0.0745152
0.074578
0.0746418
0.0747066
0.0747724
0.0748392
0.074907
0.0749757
0.0750455
0.0751162
0.0751879
0.0752606
0.0753342
0.0754088
0.0754844
0.075561
0.0756385
0.0757169
0.0757963
0.0758767
0.075958
0.0760403
0.0761235
0.0762076
0.0762927
0.0763787
0.0764656
0.0765534
0.0766422
0.0767319
0.0768225
0.076914
0.0770065
0.0770998
0.077194
0.0772892
0.0773852
0.0774821
0.0775799
0.0776786
0.0777781
0.0778786
0.0779799
0.078082
0.0781851
0.078289
0.0783937
0.0784993
0.0786058
0.078713
0.0788212
0.0789301
0.0790399
0.0791505
0.079262
0.0793742
0.0794873
0.0796012
0.0797159
0.0798313
0.0799476
0.0800647
0.0801825
0.0803012
0.0804206
0.0805408
0.0806617
0.0807835
0.0809059
0.0810292
0.0811531
0.0812779
0.0814033
0.0815295
0.0816565
0.0817841
0.0819125
0.0820416
0.0821714
0.0823019
0.0824331
0.082565
0.0826976
0.0828309
0.0829648
0.0830995
0.0832348
0.0833707
0.0835073
0.0836446
0.0837825
0.0839211
0.0840603
0.0842001
0.0843406
0.0844817
0.0846234
0.0847657
0.0849086
0.0850521
0.0851962
0.0853409
0.0854862
0.0856321
0.0857785
0.0859255
0.0860731
0.0862212
0.0863698
0.086519
0.0866687
0.086819
0.0869698
0.0871211
0.0872729
0.0874253
0.0875781
0.0877314
0.0878852
0.0880395
0.0881943
0.0883496
0.0885053
0.0886615
0.0888181
0.0889752
0.0891327
0.0892906
0.089449
0.0896078
0.0897671
0.0899267
0.0900867
0.0902471
0.090408
0.0905692
0.0907308
0.0908927
0.0910551
0.0912178
0.0913808
0.0915442
0.0917079
0.091872
0.0920364
0.0922011
0.0923661
0.0925315
0.0926971
0.092863
0.0930293
0.0931958
0.0933626
0.0935296
0.0936969
0.0938645
0.0940323
0.0942004
0.0943687
0.0945372
0.094706
0.094875
0.0950442
0.0952136
0.0953831
0.0955529
0.0957229
0.095893
0.0960633
0.0962338
0.0964044
0.0965752
0.0967462
0.0969172
0.0970884
0.0972597
0.0974312
0.0976027
0.0977744
0.0979461
0.0981179
0.0982898
0.0984618
0.0986339
0.098806
0.0989782
0.0991504
0.0993227
0.099495
0.0996674
0.0998397
0.100012
0.100184
0.100357
0.100529
0.100702
0.100874
0.101046
0.101219
0.101391
0.101563
0.101735
0.101907
0.102079
0.102251
0.102423
0.102595
0.102767
0.102938
0.10311
0.103281
0.103452
0.103623
0.103794
0.103965
0.104136
0.104306
0.104477
0.104647
0.104817
0.104987
0.105157
0.105326
0.105495
0.105664
0.105833
0.106002
0.10617
0.106338
0.106506
0.106674
0.106841
0.107008
0.107175
0.107342
0.107508
0.107674
0.10784
0.108005
0.108171
0.108335
0.1085
0.108664
0.108828
0.108991
0.109154
0.109317
0.10948
0.109642
0.109803
0.109965
0.110126
0.110286
0.110446
0.110606
0.110765
0.110924
0.111082
0.111241
0.111398
0.111555
0.111712
0.111868
0.112024
0.112179
0.112334
0.112488
0.112642
0.112796
0.112948
0.113101
0.113253
0.113404
0.113555
0.113705
0.113855
0.114004
0.114153
0.114301
0.114448
0.114595
0.114741
0.114887
0.115033
0.115177
0.115321
0.115465
0.115607
0.11575
0.115891
0.116032
0.116173
0.116312
0.116451
0.11659
0.116727
0.116865
0.117001
0.117137
0.117272
0.117406
0.11754
0.117673
0.117805
0.117937
0.118068
0.118198
0.118328
0.118457
0.118585
0.118712
0.118838
0.118964
0.119089
0.119214
0.119337
0.11946
0.119582
0.119703
0.119824
0.119944
0.120063
0.120181
0.120298
0.120415
0.12053
0.120645
0.120759
0.120873
0.120985
0.121097
0.121208
0.121317
0.121427
0.121535
0.121642
0.121749
0.121854
0.121959
0.122063
0.122166
0.122269
0.12237
0.12247
0.12257
0.122669
0.122766
0.122863
0.122959
0.123054
0.123148
0.123241
0.123334
0.123425
0.123515
0.123605
0.123694
0.123781
0.123868
0.123954
0.124038
0.124122
0.124205
0.124287
0.124368
0.124448
0.124527
0.124605
0.124682
0.124758
0.124833
0.124907
0.12498
0.125053
0.125124
0.125194
0.125263
0.125331
0.125398
0.125464
0.125529
0.125594
0.125657
0.125719
0.12578
0.12584
0.125899
0.125957
0.126014
0.126069
0.126124
0.126178
0.126231
0.126283
0.126333
0.126383
0.126432
0.126479
0.126526
0.126571
0.126615
0.126659
0.126701
0.126742
0.126782
0.126821
0.126859
0.126896
0.126932
0.126967
0.127001
0.127033
0.127065
0.127095
0.127125
0.127153
0.12718
0.127206
0.127232
0.127256
0.127279
0.1273
0.127321
0.127341
0.127359
0.127377
0.127393
0.127409
0.127423
0.127436
0.127448
0.127459
0.127469
0.127477
0.127485
0.127492
0.127497
0.127502
0.127505
0.127507
0.127508
0.127508
0.127507
0.127505
0.127502
0.127497
0.127492
0.127485
0.127477
0.127469
0.127459
0.127448
0.127436
0.127423
0.127409
0.127393
0.127377
0.127359
0.127341
0.127321
0.1273
0.127279
0.127256
0.127232
0.127206
0.12718
0.127153
0.127125
0.127095
0.127065
0.127033
0.127001
0.126967
0.126932
0.126896
0.126859
0.126821
0.126782
0.126742
0.126701
0.126659
0.126615
0.126571
0.126526
0.126479
0.126432
0.126383
0.126333
0.126283
0.126231
0.126178
0.126124
0.126069
0.126014
0.125957
0.125899
0.12584
0.12578
0.125719
0.125657
0.125594
0.125529
0.125464
0.125398
0.125331
0.125263
0.125194
0.125124
0.125053
0.12498
0.124907
0.124833
0.124758
0.124682
0.124605
0.124527
0.124448
0.124368
0.124287
0.124205
0.124122
0.124038
0.123954
0.123868
0.123781
0.123694
0.123605
0.123515
0.123425
0.123334
0.123241
0.123148
0.123054
0.122959
0.122863
0.122766
0.122669
0.12257
0.12247
0.12237
0.122269
0.122166
0.122063
0.121959
0.121854
0.121749
0.121642
0.121535
0.121427
0.121317
0.121208
0.121097
0.120985
0.120873
0.120759
0.120645
0.12053
0.120415
0.120298
0.120181
0.120063
0.119944
0.119824
0.119703
0.119582
0.11946
0.119337
0.119214
0.119089
0.118964
0.118838
0.118712
0.118585
0.118457
0.118328
0.118198
0.118068
0.117937
0.117805
0.117673
0.11754
0.117406
0.117272
0.117137
0.117001
0.116865
0.116727
0.11659
0.116451
0.116312
0.116173
0.116032
0.115891
0.11575
0.115607
0.115465
0.115321
0.115177
0.115033
0.114887
0.114741
0.114595
0.114448
0.114301
0.114153
0.114004
0.113855
0.113705
0.113555
0.113404
0.113253
0.113101
0.112948
0.112796
0.112642
0.112488
0.112334
0.112179
0.112024
0.111868
0.111712
0.111555
0.111398
0.111241
0.111082
0.110924
0.110765
0.110606
0.110446
0.110286
0.110126
0.109965
0.109803
0.109642
0.10948
0.109317
0.109154
0.108991
0.108828
0.108664
0.1085
0.108335
0.108171
0.108005
0.10784
0.107674
0.107508
0.107342
0.107175
0.107008
0.106841
0.106674
0.106506
0.106338
0.10617
0.106002
0.105833
0.105664
0.105495
0.105326
0.105157
0.104987
0.104817
0.104647
0.104477
0.104306
0.104136
0.103965
0.103794
0.103623
0.103452
0.103281
0.10311
0.102938
0.102767
0.102595
0.102423
0.102251
0.102079
0.101907
0.101735
0.101563
0.101391
0.101219
0.101046
0.100874
0.100702
0.100529
0.100357
0.100184
0.100012
0.0998397
0.0996674
0.099495
0.0993227
0.0991504
0.0989782
0.098806
0.0986339
0.0984618
0.0982898
0.0981179
0.0979461
0.0977744
0.0976027
0.0974312
0.0972597
0.0970884
0.0969172
0.0967462
0.0965752
0.0964044
0.0962338
0.0960633
0.095893
0.0957229
0.0955529
0.0953831
0.0952136
0.0950442
0.094875
0.094706
0.0945372
0.0943687
0.0942004
0.0940323
0.0938645
0.0936969
0.0935296
0.0933626
0.0931958
0.0930293
0.092863
0.0926971
0.0925315
0.0923661
0.0922011
0.0920364
0.091872
0.0917079
0.0915442
0.0913808
0.0912178
0.0910551
0.0908927
0.0907308
0.0905692
0.090408
0.0902471
0.0900867
0.0899267
0.0897671
0.0896078
0.089449
0.0892906
0.0891327
0.0889752
0.0888181
0.0886615
0.0885053
0.0883496
0.0881943
0.0880395
0.0878852
0.0877314
0.0875781
0.0874253
0.0872729
0.0871211
0.0869698
0.086819
0.0866687
0.086519
0.0863698
0.0862212
0.0860731
0.0859255
0.0857785
0.0856321
0.0854862
0.0853409
0.0851962
0.0850521
0.0849086
0.0847657
0.0846234
0.0844817
0.0843406
0.0842001
0.0840603
0.0839211
0.0837825
0.0836446
0.0835073
0.0833707
0.0832348
0.0830995
0.0829648
0.0828309
0.0826976
0.082565
0.0824331
0.0823019
0.0821714
0.0820416
0.0819125
0.0817841
0.0816565
0.0815295
0.0814033
0.0812779
0.0811531
0.0810292
0.0809059
0.0807835
0.0806617
0.0805408
0.0804206
0.0803012
0.0801825
0.0800647
0.0799476
0.0798313
0.0797159
0.0796012
0.0794873
0.0793742
0.079262
0.0791505
0.0790399
0.0789301
0.0788212
0.078713
0.0786058
0.0784993
0.0783937
0.078289
0.0781851
0.078082
0.0779799
0.0778786
0.0777781
0.0776786
0.0775799
0.0774821
0.0773852
0.0772892
0.077194
0.0770998
0.0770065
0.076914
0.0768225
0.0767319
0.0766422
0.0765534
0.0764656
0.0763787
0.0762927
0.0762076
0.0761235
0.0760403
0.075958
0.0758767
0.0757963
0.0757169
0.0756385
0.075561
0.0754844
0.0754088
0.0753342
0.0752606
0.0751879
0.0751162
0.0750455
0.0749757
0.074907
0.0748392
0.0747724
0.0747066
0.0746418
0.074578
0.0745152
0.0744533
0.0743925
0.0743327
0.0742739
0.0742161
0.0741593
0.0741035
0.0740488
0.0739951
0.0739423
0.0738906
0.07384
0.0737903
0.0737417
0.0736941
0.0736475
0.073602
0.0735575
0.0735141
0.0734716
0.0734303
0.0733899
0.0733506
0.0733124
0.0732752
0.073239
0.0732039
0.0731698
0.0731368
0.0731049
0.073074
0.0730441
0.0730153
0.0729876
0.0729609
0.0729353
0.0729107
0.0728873
0.0728648
0.0728434
0.0728231
0.0728039
0.0727857
0.0727686
0.0727525
0.0727376
0.0727237
0.0727108
0.072699
0.0726883
0.0726787
0.0726701
0.0726626
0.0726562
0.0726508
0.0726466
0.0726433
0.0726412
0.0726401
)
;

boundaryField
{
    sides
    {
        type            zeroGradient;
    }
    empty
    {
        type            empty;
    }
}


// ************************************************************************* //
