/*--------------------------------*- C++ -*----------------------------------*\
| =========                 |                                                 |
| \\      /  F ield         | OpenFOAM: The Open Source CFD Toolbox           |
|  \\    /   O peration     | Version:  2112                                  |
|   \\  /    A nd           | Website:  www.openfoam.com                      |
|    \\/     M anipulation  |                                                 |
\*---------------------------------------------------------------------------*/
FoamFile
{
    version     2.0;
    format      ascii;
    arch        "LSB;label=32;scalar=64";
    class       volScalarField;
    location    "3";
    object      Ma;
}
// * * * * * * * * * * * * * * * * * * * * * * * * * * * * * * * * * * * * * //

dimensions      [0 0 0 0 0 0 0];

internalField   nonuniform List<scalar> 
7000
(
3.00001
3
3
3
3
3
3
2.99999
2.99999
2.99995
2.9999
2.99932
2.99874
2.99538
2.99262
2.97551
2.95775
2.87922
2.71564
2.31075
1.57051
0.711772
0.277127
0.385224
0.462904
0.472916
0.454704
0.429236
0.40763
0.392014
0.378086
0.363432
0.347951
0.332067
0.316019
0.299788
0.283304
0.266512
0.249396
0.231806
0.213665
0.194951
0.175635
0.155626
0.134786
0.113169
0.0910441
0.0685308
0.044327
0.0282489
3.00001
3
3
3
3
3
3
3
2.99999
2.99995
2.9999
2.99935
2.9988
2.99561
2.99301
2.977
2.9605
2.88682
2.7229
2.33157
1.58458
0.724267
0.268661
0.373737
0.449659
0.459936
0.442588
0.417689
0.396125
0.38045
0.366514
0.35192
0.336523
0.32072
0.304712
0.28855
0.272117
0.255388
0.238383
0.220955
0.203085
0.184812
0.166156
0.147042
0.127364
0.107249
0.0869875
0.0671024
0.0479843
0.0410531
3.00001
3
3
3
3
3
3
3
3
2.99995
2.9999
2.99935
2.99881
2.99575
2.9932
2.97804
2.96201
2.89072
2.72819
2.34096
1.58953
0.72482
0.257138
0.362791
0.437681
0.44797
0.431436
0.407194
0.385763
0.370026
0.356048
0.341515
0.326231
0.310561
0.294759
0.278781
0.26263
0.246254
0.229688
0.21282
0.195648
0.178246
0.160643
0.142848
0.124875
0.106952
0.0896947
0.0742652
0.0622488
0.0615199
3.00001
3
3
3
3
3
3
3
3
2.99995
2.9999
2.99937
2.9988
2.99591
2.99333
2.97912
2.96379
2.89365
2.73625
2.35329
1.60506
0.74188
0.271437
0.366838
0.437099
0.446106
0.429744
0.405863
0.384375
0.368158
0.353668
0.338701
0.323042
0.307023
0.290921
0.274675
0.258328
0.241872
0.225361
0.208731
0.192012
0.175335
0.158782
0.14243
0.126431
0.111207
0.0974572
0.0865351
0.0797835
0.0820114
3.00001
3
3
3
3
3
3
3
2.99999
2.99997
2.99977
2.99948
2.99796
2.9966
2.98815
2.98599
2.9664
2.91025
2.73367
2.3629
1.59972
0.748938
0.269769
0.360812
0.428562
0.437739
0.42272
0.400166
0.379446
0.363668
0.34953
0.334966
0.319673
0.304011
0.288192
0.272205
0.256121
0.23998
0.223782
0.207568
0.191467
0.175655
0.160283
0.145508
0.131593
0.119043
0.108612
0.10134
0.0981368
0.101877
3.00001
3
3
3
3
3
3
3
2.99999
2.99997
2.99976
2.9995
2.99801
2.99684
2.98843
2.98748
2.96896
2.91449
2.74257
2.37769
1.61699
0.767704
0.284999
0.364381
0.4261
0.434759
0.420389
0.398288
0.377257
0.361074
0.346732
0.332174
0.317053
0.301663
0.286219
0.270681
0.255144
0.2396
0.224068
0.208617
0.193491
0.1788
0.164779
0.151704
0.13989
0.129896
0.122269
0.117847
0.11694
0.121655
3.00001
3
3
3
3
3
3
3.00001
2.99999
2.99997
2.99977
2.99952
2.99812
2.99699
2.98933
2.98728
2.96734
2.92127
2.75569
2.39397
1.63422
0.785797
0.296425
0.363973
0.419523
0.430304
0.417683
0.396507
0.375239
0.358929
0.344687
0.330332
0.31549
0.300442
0.285427
0.270433
0.255558
0.240763
0.226064
0.211629
0.1977
0.184352
0.171868
0.160623
0.150876
0.143115
0.137813
0.135407
0.136237
0.141433
3.00001
3
3
3
3
3
3
3.00001
3
2.99997
2.99978
2.99955
2.99826
2.99727
2.99005
2.98864
2.96962
2.92733
2.76672
2.4138
1.65878
0.812014
0.315871
0.367161
0.414601
0.428039
0.417218
0.396764
0.374882
0.358378
0.344293
0.330189
0.315636
0.300965
0.286394
0.271988
0.257815
0.243842
0.230109
0.216813
0.204179
0.192278
0.18138
0.171894
0.164105
0.158327
0.154822
0.154068
0.155937
0.161601
3.00001
3
3
3
3
3
3
3.00001
3
2.99998
2.9998
2.99959
2.99842
2.99759
2.99084
2.99034
2.97247
2.93452
2.77625
2.43625
1.68732
0.843257
0.339177
0.372025
0.411288
0.427492
0.41852
0.398614
0.376169
0.359487
0.345578
0.331785
0.317584
0.303343
0.289275
0.275512
0.262077
0.248984
0.236297
0.224235
0.212976
0.202613
0.193354
0.185479
0.17931
0.17518
0.173177
0.173476
0.176316
0.182171
3.00001
3.00001
3
3
3
3
3
3.00001
3
2.99998
2.99983
2.99964
2.99861
2.99792
2.992
2.99189
2.97511
2.94211
2.79212
2.459
1.71861
0.878811
0.362707
0.374155
0.410821
0.428012
0.420393
0.401212
0.378751
0.362154
0.348477
0.335051
0.321283
0.307546
0.29409
0.280998
0.268379
0.256213
0.244629
0.233818
0.223858
0.214948
0.207349
0.201168
0.196524
0.193698
0.192828
0.194183
0.197514
0.203548
3.00001
3.00001
3
3
3
3
3
3.00001
3
2.99998
2.99983
2.99966
2.99872
2.99797
2.99263
2.99273
2.97777
2.95414
2.80715
2.48626
1.75477
0.922026
0.389944
0.377491
0.412337
0.429786
0.422967
0.404483
0.382451
0.366146
0.352878
0.339928
0.32676
0.31366
0.300913
0.288625
0.276939
0.265757
0.255301
0.245839
0.237283
0.229666
0.223434
0.21865
0.215415
0.213881
0.213983
0.215859
0.219801
0.225945
3.00001
3.00001
3
3
3
3
3
3.00001
3
2.99998
2.99986
2.99971
2.99893
2.99827
2.99387
2.99381
2.98101
2.96321
2.82419
2.51499
1.79818
0.97659
0.424529
0.383494
0.415971
0.433658
0.427163
0.409339
0.387798
0.371738
0.358885
0.346468
0.333934
0.321604
0.309669
0.298239
0.28748
0.277443
0.2681
0.259814
0.252738
0.246679
0.241873
0.238442
0.236324
0.235754
0.236765
0.239551
0.243699
0.249904
3.00001
3.00001
3.00001
3
3
3
3
3.00001
3
2.99999
2.99989
2.99976
2.99914
2.99868
2.99506
2.99435
2.97408
2.96934
2.83407
2.54204
1.85002
1.03716
0.458386
0.384344
0.416107
0.435095
0.429704
0.412928
0.392642
0.377329
0.365284
0.353795
0.342271
0.330963
0.32014
0.309908
0.300267
0.291381
0.283442
0.276352
0.270388
0.265783
0.262367
0.260183
0.259442
0.25998
0.261682
0.264695
0.269472
0.275713
3.00001
3.00001
3.00001
3.00001
3
3
3
3
3
2.99997
2.99993
2.99969
2.99941
2.99834
2.99575
2.99392
2.97416
2.96659
2.84327
2.56294
1.91355
1.1074
0.496725
0.382265
0.413261
0.433807
0.429855
0.414854
0.396123
0.381992
0.371081
0.36092
0.350715
0.34086
0.33136
0.322571
0.314478
0.306995
0.300498
0.295133
0.29058
0.287299
0.28549
0.284627
0.284808
0.286433
0.289236
0.293313
0.298094
0.304523
3.00001
3.00001
3.00001
3.00001
3.00001
3
3.00001
3
3
2.99997
2.99993
2.9997
2.99946
2.99837
2.99623
2.99374
2.97569
2.97257
2.85918
2.61468
1.98452
1.19841
0.542592
0.376876
0.406891
0.429092
0.427262
0.41462
0.397938
0.385237
0.375884
0.367496
0.359066
0.351001
0.343441
0.336273
0.330005
0.324309
0.319421
0.315658
0.312918
0.311136
0.310765
0.311687
0.313562
0.31626
0.31991
0.324462
0.330407
0.33675
3.00001
3.00001
3.00001
3.00001
3.00001
3.00001
3.00001
3
3
2.99997
2.99994
2.99974
2.99958
2.9986
2.99741
2.99407
2.97899
2.97041
2.87172
2.65587
2.06995
1.30182
0.603358
0.374728
0.402095
0.425878
0.42649
0.415072
0.39981
0.387933
0.379802
0.373076
0.366676
0.360566
0.355156
0.350294
0.346039
0.342631
0.339882
0.338224
0.337478
0.337784
0.339121
0.341563
0.345204
0.349972
0.355437
0.361755
0.367925
0.375218
3.00001
3.00001
3.00001
3.00001
3.00001
3.00001
3.00001
3
3
2.99995
2.99991
2.99966
2.99942
2.99811
2.99683
2.98901
2.98837
2.96651
2.90606
2.70122
2.29231
1.44166
0.754149
0.429636
0.443004
0.459515
0.45706
0.441157
0.421962
0.405538
0.394419
0.386123
0.379372
0.37373
0.369223
0.36595
0.363591
0.362111
0.361652
0.36215
0.363843
0.366675
0.370646
0.375608
0.381524
0.388292
0.396168
0.404574
0.413764
0.421487
3.00001
3.00001
3.00001
3.00001
3.00001
3.00001
3.00001
3
3
2.99996
2.99993
2.99975
2.99957
2.99871
2.99756
2.99134
2.98986
2.97162
2.92733
2.76777
2.41286
1.67723
0.877254
0.470711
0.477282
0.493992
0.497125
0.481059
0.45993
0.438739
0.423289
0.411527
0.402098
0.394775
0.389402
0.386066
0.384568
0.384547
0.386011
0.388745
0.392634
0.398034
0.404897
0.413238
0.422882
0.43388
0.445681
0.45886
0.471574
0.484084
3.00001
3.00001
3.00001
3.00001
3.00001
3.00001
3.00001
3
3
2.99998
2.99996
2.99986
2.99973
2.99932
2.99867
2.99584
2.99328
2.97559
2.96441
2.81895
2.50296
1.79417
0.989684
0.503779
0.480158
0.505741
0.517993
0.508929
0.492325
0.472933
0.456728
0.444067
0.433106
0.424176
0.417252
0.412771
0.410734
0.411089
0.413596
0.418281
0.425043
0.433466
0.443852
0.455857
0.470005
0.486403
0.505434
0.526671
0.550852
0.574672
3.00001
3.00001
3.00001
3.00001
3.00001
3.00001
3.00001
3.00001
3
3
2.99998
2.99994
2.99988
2.99953
2.99899
2.99571
2.99404
2.9729
2.97142
2.8476
2.58793
1.92875
1.13507
0.567188
0.469669
0.495711
0.514997
0.516708
0.507724
0.494865
0.48272
0.472856
0.464059
0.456067
0.449555
0.444785
0.442313
0.442139
0.445207
0.451191
0.459892
0.471465
0.485676
0.503333
0.523798
0.548782
0.578833
0.617849
0.669764
0.76003
3.00001
3.00001
3.00001
3.00001
3.00001
3.00001
3.00001
3.00001
3
3
2.99998
2.99997
2.99985
2.99973
2.99856
2.99686
2.98543
2.98317
2.95249
2.88104
2.64884
2.19733
1.29853
0.727526
0.500656
0.510977
0.527911
0.535333
0.530815
0.522337
0.513053
0.506228
0.500839
0.496176
0.492245
0.489435
0.4886
0.490367
0.495061
0.502408
0.513113
0.527572
0.546476
0.57015
0.600554
0.638245
0.688411
0.755654
0.861229
1.00221
3.00001
3.00001
3.00001
3.00001
3.00001
3.00001
3.00001
3.00001
3.00001
3
3
2.99999
2.99996
2.99991
2.99955
2.99903
2.99555
2.99367
2.97233
2.9304
2.77415
2.42496
1.69855
0.921202
0.536818
0.535362
0.557948
0.572993
0.570937
0.562268
0.553114
0.54592
0.541276
0.537598
0.535132
0.534552
0.536314
0.540529
0.547062
0.556982
0.570272
0.588312
0.611192
0.640748
0.677564
0.725589
0.786638
0.86928
0.989481
1.1329
3.00001
3.00001
3.00001
3.00001
3.00001
3.00001
3.00001
3.00001
3.00001
3
2.99999
2.99998
2.9999
2.99981
2.99919
2.99827
2.99306
2.99211
2.96785
2.96944
2.82459
2.53932
1.8672
1.07962
0.580891
0.535488
0.568324
0.594608
0.600062
0.595496
0.589375
0.584447
0.581544
0.579784
0.579458
0.581714
0.585803
0.591815
0.60031
0.612033
0.627705
0.648086
0.674131
0.706979
0.747908
0.799062
0.862906
0.942077
1.04828
1.15904
3.00001
3.00001
3.00001
3.00001
3.00001
3.00001
3.00001
3.00001
3.00001
3.00001
3
3
2.99996
2.99992
2.99964
2.99926
2.99668
2.99527
2.97747
2.97453
2.86695
2.6414
2.07618
1.33197
0.713523
0.559548
0.579592
0.60267
0.614553
0.615395
0.613362
0.6119
0.612144
0.613576
0.617589
0.623671
0.631023
0.639858
0.650915
0.664986
0.682311
0.70435
0.730888
0.764427
0.804149
0.853748
0.912038
0.982988
1.07064
1.16122
3.00001
3.00001
3.00001
3.00001
3.00001
3.00001
3.00001
3.00001
3.00001
3.00001
3
3
2.99997
2.99995
2.99971
2.99947
2.99744
2.9965
2.9828
2.98495
2.90338
2.74853
2.36286
1.70418
0.900709
0.603994
0.600155
0.621723
0.63779
0.641162
0.639762
0.639053
0.640163
0.643645
0.650172
0.658932
0.668582
0.680239
0.6936
0.710308
0.729345
0.752891
0.779732
0.812486
0.850124
0.895053
0.947274
1.00767
1.08128
1.15477
3.00001
3.00001
3.00001
3.00001
3.00001
3.00001
3.00001
3.00001
3.00001
3.00001
3.00001
3
2.99999
2.99994
2.99991
2.99951
2.99898
2.99538
2.99381
2.9711
2.96902
2.83767
2.56579
1.9367
1.16925
0.685473
0.624572
0.644273
0.664235
0.672249
0.672172
0.671055
0.671532
0.675653
0.683014
0.692426
0.703041
0.715776
0.730266
0.747954
0.767905
0.791554
0.818316
0.849334
0.884709
0.925101
0.971294
1.02351
1.08526
1.14778
3.00001
3.00001
3.00001
3.00001
3.00001
3.00001
3.00001
3.00001
3.00001
3.00001
3.00001
3
3
2.99996
2.99994
2.99968
2.99938
2.99709
2.99603
2.98109
2.97915
2.88918
2.69695
2.21327
1.52194
0.851413
0.665745
0.666674
0.68377
0.695884
0.697882
0.697476
0.699055
0.704123
0.712288
0.722495
0.733835
0.747348
0.762543
0.780595
0.800764
0.824072
0.850022
0.879543
0.912264
0.949302
0.990234
1.03636
1.0893
1.14263
3.00001
3.00001
3.00001
3.00001
3.00001
3.00001
3.00001
3.00001
3.00001
3.00001
3.00001
3
3
2.99998
2.99995
2.99979
2.99958
2.99811
2.99738
2.98702
2.98613
2.93042
2.80572
2.51729
1.9571
1.11963
0.771592
0.707851
0.712441
0.720194
0.72461
0.725198
0.726893
0.732092
0.739783
0.749918
0.761297
0.774943
0.790107
0.807817
0.827409
0.849732
0.87431
0.901967
0.932259
0.966086
1.00325
1.04436
1.09124
1.13791
3.00001
3.00001
3.00001
3.00001
3.00001
3.00001
3.00001
3.00001
3.00001
3.00001
3.00001
3.00001
3
3
2.99999
2.99991
2.99987
2.9993
2.99866
2.99392
2.99184
2.96354
2.90978
2.72321
2.34416
1.56912
0.998657
0.776965
0.752906
0.755775
0.759821
0.761345
0.762395
0.76606
0.772252
0.781114
0.791732
0.804559
0.8191
0.835798
0.854282
0.875
0.897661
0.922794
0.950265
0.980551
1.01381
1.05033
1.09171
1.13285
3.00001
3.00001
3.00001
3.00001
3.00001
3.00001
3.00001
3.00001
3.00001
3.00001
3.00001
3.00001
3
3
2.99998
2.99997
2.99981
2.99966
2.99831
2.99773
2.98887
2.98803
2.93845
2.83179
2.57958
2.04704
1.26167
0.893608
0.797106
0.789264
0.793234
0.79856
0.800715
0.802688
0.806621
0.813389
0.822209
0.833595
0.846869
0.862448
0.879698
0.89915
0.920292
0.943632
0.968745
0.996172
1.02563
1.05792
1.09422
1.13082
3.00001
3.00001
3.00001
3.00001
3.00001
3.00001
3.00001
3.00001
3.00001
3.00001
3.00001
3.00001
3.00001
3.00001
3
2.99999
2.99993
2.99991
2.99942
2.99889
2.99449
2.99285
2.97039
2.95687
2.79466
2.48927
1.83334
1.15834
0.859184
0.826998
0.829346
0.836878
0.842802
0.845517
0.84753
0.851531
0.857577
0.865892
0.876447
0.889336
0.904189
0.921238
0.940296
0.961498
0.984665
1.00985
1.03724
1.06676
1.09998
1.13256
3.00001
3.00001
3.00001
3.00001
3.00001
3.00001
3.00001
3.00001
3.00001
3.00001
3.00001
3.00001
3.00001
3
3
2.99999
2.99997
2.99986
2.99973
2.99871
2.99824
2.99126
2.98789
2.96191
2.9062
2.70135
2.2874
1.52573
1.02536
0.86168
0.851098
0.861353
0.872633
0.881419
0.886242
0.890436
0.895381
0.902107
0.910227
0.920384
0.932359
0.946566
0.962651
0.980831
1.00112
1.02335
1.04784
1.07447
1.10463
1.13461
3.00001
3.00001
3.00001
3.00001
3.00001
3.00001
3.00001
3.00001
3.00001
3.00001
3.00001
3.00001
3.00001
3.00001
3
3
2.99998
2.99996
2.99981
2.99963
2.99829
2.99767
2.98884
2.9908
2.93889
2.8358
2.59592
2.05592
1.33137
0.981726
0.896737
0.890863
0.898079
0.907419
0.913821
0.918526
0.923808
0.930589
0.93905
0.94887
0.960363
0.973169
0.987763
1.00368
1.02136
1.04083
1.06235
1.08605
1.1128
1.13983
3.00001
3.00001
3.00001
3.00001
3.00001
3.00001
3.00001
3.00001
3.00001
3.00001
3.00001
3.00001
3.00001
3.00001
3
3
2.99999
2.99997
2.99987
2.9998
2.99926
2.99861
2.99605
2.98836
2.96717
2.93022
2.78551
2.52689
1.92734
1.26681
0.990934
0.933101
0.926362
0.928867
0.934401
0.940464
0.946733
0.953337
0.961153
0.970536
0.981573
0.994205
1.0083
1.02389
1.04078
1.0593
1.07927
1.1011
1.12537
1.14969
3.00001
3.00001
3.00001
3.00001
3.00001
3.00001
3.00001
3.00001
3.00001
3.00001
3.00001
3.00001
3.00001
3.00001
3.00001
3.00001
3
2.99999
2.99998
2.99988
2.99984
2.99911
2.99838
2.99197
2.99261
2.97156
2.90908
2.80892
2.49434
1.84652
1.25488
1.00341
0.963525
0.959149
0.961682
0.96815
0.974577
0.980711
0.987614
0.996076
1.00615
1.0177
1.03054
1.04488
1.06034
1.07736
1.0957
1.11579
1.13827
1.16089
3.00001
3.00001
3.00001
3.00001
3.00001
3.00001
3.00001
3.00001
3.00001
3.00001
3.00001
3.00001
3.00001
3.00001
3.00001
3.00001
3
3
2.99999
2.99997
2.99987
2.99986
2.99923
2.99817
2.99433
2.99554
2.96116
2.88658
2.76364
2.36781
1.69965
1.19963
1.00766
0.981021
0.98141
0.988142
0.998085
1.00773
1.01701
1.02633
1.03643
1.04736
1.05913
1.07177
1.08553
1.10041
1.11673
1.13446
1.15466
1.17483
3.00001
3.00001
3.00001
3.00001
3.00001
3.00001
3.00001
3.00001
3.00001
3.00001
3.00001
3.00001
3.00001
3.00001
3.00001
3.00001
3.00001
3.00001
3
2.99999
2.99994
2.99991
2.99957
2.99923
2.99631
2.99499
2.97763
2.97397
2.88544
2.69624
2.22551
1.60562
1.12741
1.00945
0.994377
1.00058
1.01159
1.02587
1.03927
1.05141
1.06248
1.07396
1.08551
1.09796
1.11083
1.12479
1.13953
1.15562
1.17361
1.19197
3.00001
3.00001
3.00001
3.00001
3.00001
3.00001
3.00001
3.00001
3.00001
3.00001
3.00001
3.00001
3.00001
3.00001
3.00001
3.00001
3.00001
3.00001
3
3
2.99999
2.99992
2.99991
2.99944
2.99917
2.99562
2.99462
2.97417
2.97367
2.87269
2.67005
2.1759
1.55684
1.1245
1.02608
1.01639
1.02461
1.03859
1.05511
1.06969
1.08209
1.09373
1.10545
1.11748
1.13022
1.14344
1.15774
1.17268
1.18987
1.20693
3.00001
3.00001
3.00001
3.00001
3.00001
3.00001
3.00001
3.00001
3.00001
3.00001
3.00001
3.00001
3.00001
3.00001
3.00001
3.00001
3.00001
3.00001
3
3
2.99999
2.99998
2.99989
2.99982
2.99931
2.9989
2.99621
2.99171
2.97506
2.94536
2.84925
2.64267
2.15772
1.486
1.15436
1.06168
1.05171
1.05817
1.07042
1.08516
1.09812
1.1095
1.12082
1.13218
1.14442
1.15703
1.17078
1.18526
1.20193
1.21852
3.00001
3.00001
3.00001
3.00001
3.00001
3.00001
3.00001
3.00001
3.00001
3.00001
3.00001
3.00001
3.00001
3.00001
3.00001
3.00001
3.00001
3.00001
3.00001
3
3
2.99998
2.99997
2.99987
2.99981
2.99927
2.99875
2.99553
2.99129
2.97623
2.94199
2.82965
2.65532
2.12483
1.49408
1.19532
1.10956
1.0943
1.09616
1.10358
1.11427
1.12493
1.13528
1.14538
1.15623
1.16771
1.18056
1.19457
1.21049
1.22652
3.00001
3.00001
3.00001
3.00001
3.00001
3.00001
3.00001
3.00001
3.00001
3.00001
3.00001
3.00001
3.00001
3.00001
3.00001
3.00001
3.00001
3.00001
3.00001
3.00001
3
3
2.99999
2.99994
2.99991
2.99964
2.99948
2.99805
2.99684
2.98936
2.97808
2.93349
2.8557
2.64825
2.15593
1.59441
1.23617
1.15305
1.13522
1.13344
1.13819
1.14598
1.15429
1.1627
1.17121
1.18085
1.19195
1.2044
1.21877
1.23352
3.00001
3.00001
3.00001
3.00001
3.00001
3.00001
3.00001
3.00001
3.00001
3.00001
3.00001
3.00001
3.00001
3.00001
3.00001
3.00001
3.00001
3.00001
3.00001
3.00001
3.00001
3
3
2.99998
2.99995
2.99973
2.99972
2.99908
2.99864
2.99277
2.99347
2.96736
2.98108
2.85691
2.66616
2.23455
1.68072
1.27886
1.17826
1.1593
1.15784
1.16195
1.17057
1.18029
1.1897
1.19863
1.20842
1.21839
1.23057
1.24298
3.00001
3.00001
3.00001
3.00001
3.00001
3.00001
3.00001
3.00001
3.00001
3.00001
3.00001
3.00001
3.00001
3.00001
3.00001
3.00001
3.00001
3.00001
3.00001
3.00001
3.00001
3.00001
3.00001
3
3
2.99996
2.99995
2.99972
2.99966
2.99819
2.99746
2.98694
2.98627
2.95092
2.91516
2.6923
2.33402
1.76258
1.38467
1.23519
1.19598
1.18822
1.18921
1.19582
1.2052
1.21508
1.22482
1.23523
1.2468
1.25927
3.00001
3.00001
3.00001
3.00001
3.00001
3.00001
3.00001
3.00001
3.00001
3.00001
3.00001
3.00001
3.00001
3.00001
3.00001
3.00001
3.00001
3.00001
3.00001
3.00001
3.00001
3.00001
3.00001
3.00001
3
2.99999
2.99996
2.99994
2.99978
2.99958
2.99861
2.99739
2.99319
2.98414
2.95436
2.90014
2.76511
2.41444
1.94451
1.45265
1.25976
1.21451
1.20887
1.21268
1.21941
1.22879
1.23857
1.24939
1.26139
1.27392
3.00001
3.00001
3.00001
3.00001
3.00001
3.00001
3.00001
3.00001
3.00001
3.00001
3.00001
3.00001
3.00001
3.00001
3.00001
3.00001
3.00001
3.00001
3.00001
3.00001
3.00001
3.00001
3.00001
3.00001
3
3
2.99999
2.99998
2.99988
2.99988
2.9996
2.99935
2.9967
2.99655
2.98323
2.97685
2.92978
2.83589
2.51461
2.05911
1.53371
1.31121
1.2553
1.24286
1.24172
1.24619
1.25403
1.26414
1.27575
1.28765
3.00001
3.00001
3.00001
3.00001
3.00001
3.00001
3.00001
3.00001
3.00001
3.00001
3.00001
3.00001
3.00001
3.00001
3.00001
3.00001
3.00001
3.00001
3.00001
3.00001
3.00001
3.00001
3.00001
3.00001
3.00001
3
3
2.99999
2.99998
2.99991
2.99988
2.99954
2.9993
2.99739
2.996
2.98615
2.97626
2.9228
2.8587
2.64102
2.24947
1.76156
1.41349
1.31019
1.2799
1.27515
1.27724
1.28357
1.29361
1.30404
3.00001
3.00001
3.00001
3.00001
3.00001
3.00001
3.00001
3.00001
3.00001
3.00001
3.00001
3.00001
3.00001
3.00001
3.00001
3.00001
3.00001
3.00001
3.00001
3.00001
3.00001
3.00001
3.00001
3.00001
3.00001
3.00001
3.00001
3
3
2.99998
2.99996
2.99985
2.99979
2.99951
2.9986
2.99864
2.99198
2.97871
2.96385
2.86425
2.76717
2.47675
2.03006
1.60381
1.38362
1.33477
1.32147
1.31971
1.32221
1.33027
3.00001
3.00001
3.00001
3.00001
3.00001
3.00001
3.00001
3.00001
3.00001
3.00001
3.00001
3.00001
3.00001
3.00001
3.00001
3.00001
3.00001
3.00001
3.00001
3.00001
3.00001
3.00001
3.00001
3.00001
3.00001
3.00001
3.00001
3.00001
3
3
2.99998
2.99998
2.99989
2.99986
2.99943
2.99922
2.99697
2.99533
2.98551
2.97201
2.91439
2.84644
2.62918
2.24605
1.80929
1.49213
1.38349
1.35652
1.35258
1.3582
3.00001
3.00001
3.00001
3.00001
3.00001
3.00001
3.00001
3.00001
3.00001
3.00001
3.00001
3.00001
3.00001
3.00001
3.00001
3.00001
3.00001
3.00001
3.00001
3.00001
3.00001
3.00001
3.00001
3.00001
3.00001
3.00001
3.00001
3.00001
3.00001
3.00001
3
3
2.99996
2.99995
2.99979
2.99974
2.99895
2.99875
2.99479
2.99375
2.97466
2.96066
2.87036
2.76783
2.51571
2.1031
1.71373
1.47778
1.41546
1.40371
3.00001
3.00001
3.00001
3.00001
3.00001
3.00001
3.00001
3.00001
3.00001
3.00001
3.00001
3.00001
3.00001
3.00001
3.00001
3.00001
3.00001
3.00001
3.00001
3.00001
3.00001
3.00001
3.00001
3.00001
3.00001
3.00001
3.00001
3.00001
3.00001
3.00001
3.00001
3
3
2.99999
2.99998
2.99986
2.99985
2.99955
2.99934
2.99659
2.996
2.98138
2.97799
2.93986
2.88777
2.65835
2.37339
1.98681
1.68192
1.51753
3.00001
3.00001
3.00001
3.00001
3.00001
3.00001
3.00001
3.00001
3.00001
3.00001
3.00001
3.00001
3.00001
3.00001
3.00001
3.00001
3.00001
3.00001
3.00001
3.00001
3.00001
3.00001
3.00001
3.00001
3.00001
3.00001
3.00001
3.00001
3.00001
3.00001
3.00001
3.00001
3.00001
3
3
2.99999
2.99998
2.99994
2.99986
2.99967
2.99934
2.99774
2.99648
2.99217
2.97264
2.94317
2.85468
2.6267
2.33712
1.9931
3.00001
3.00001
3.00001
3.00001
3.00001
3.00001
3.00001
3.00001
3.00001
3.00001
3.00001
3.00001
3.00001
3.00001
3.00001
3.00001
3.00001
3.00001
3.00001
3.00001
3.00001
3.00001
3.00001
3.00001
3.00001
3.00001
3.00001
3.00001
3.00001
3.00001
3.00001
3.00001
3.00001
3.00001
3.00001
3
3
2.99999
2.99998
2.99993
2.99989
2.99956
2.99945
2.99814
3.00149
2.9818
3.05492
2.9493
2.88476
2.51102
3.00001
3.00001
3.00001
3.00001
3.00001
3.00001
3.00001
3.00001
3.00001
3.00001
3.00001
3.00001
3.00001
3.00001
3.00001
3.00001
3.00001
3.00001
3.00001
3.00001
3.00001
3.00001
3.00001
3.00001
3.00001
3.00001
3.00001
3.00001
3.00001
3.00001
3.00001
3.00001
3.00001
3.00001
3.00001
3.00001
3.00001
3
3
2.99998
3.00005
3.00011
3.00094
3.00095
3.00611
3.00085
3.04045
2.99022
2.95059
2.75735
3.00001
3.00001
3.00001
3.00001
3.00001
3.00001
3.00001
3.00001
3.00001
3.00001
3.00001
3.00001
3.00001
3.00001
3.00001
3.00001
3.00001
3.00001
3.00001
3.00001
3.00001
3.00001
3.00001
3.00001
3.00001
3.00001
3.00001
3.00001
3.00001
3.00001
3.00001
3.00001
3.00001
3.00001
3.00001
3.00001
3.00001
3.00001
3
2.99999
3.00001
3.00003
3.00034
3.00032
3.00181
2.9985
3.01451
2.99262
2.96958
2.88484
3.00001
3.00001
3.00001
3.00001
3.00001
3.00001
3.00001
3.00001
3.00001
3.00001
3.00001
3.00001
3.00001
3.00001
3.00001
3.00001
3.00001
3.00001
3.00001
3.00001
3.00001
3.00001
3.00001
3.00001
3.00001
3.00001
3.00001
3.00001
3.00001
3.00001
3.00001
3.00001
3.00001
3.00001
3.00001
3.00001
3.00001
3.00001
3.00001
3
3.00001
3.00002
3.00017
3.00016
3.00087
2.99916
3.00715
2.99596
2.984
2.94134
3.00001
3.00001
3.00001
3.00001
3.00001
3.00001
3.00001
3.00001
3.00001
3.00001
3.00001
3.00001
3.00001
3.00001
3.00001
3.00001
3.00001
3.00001
3.00001
3.00001
3.00001
3.00001
3.00001
3.00001
3.00001
3.00001
3.00001
3.00001
3.00001
3.00001
3.00001
3.00001
3.00001
3.00001
3.00001
3.00001
3.00001
3.00001
3.00001
3
3.00001
3.00001
3.0001
3.00009
3.00049
2.99951
3.0042
2.99764
2.99124
2.9653
3.00001
3.00001
3.00001
3.00001
3.00001
3.00001
3.00001
3.00001
3.00001
3.00001
3.00001
3.00001
3.00001
3.00001
3.00001
3.00001
3.00001
3.00001
3.00001
3.00001
3.00001
3.00001
3.00001
3.00001
3.00001
3.00001
3.00001
3.00001
3.00001
3.00001
3.00001
3.00001
3.00001
3.00001
3.00001
3.00001
3.00001
3.00001
3
3
2.99999
2.99999
2.99993
2.99991
2.99955
2.99945
2.99748
2.99768
2.99101
2.98529
3.00001
3.00001
3.00001
3.00001
3.00001
3.00001
3.00001
3.00001
3.00001
3.00001
3.00001
3.00001
3.00001
3.00001
3.00001
3.00001
3.00001
3.00001
3.00001
3.00001
3.00001
3.00001
3.00001
3.00001
3.00001
3.00001
3.00001
3.00001
3.00001
3.00001
3.00001
3.00001
3.00001
3.00001
3.00001
3.00001
3.00001
3.00001
3
3
2.99999
2.99999
2.99993
2.99991
2.99958
2.99945
2.99762
2.99752
2.99139
2.98557
3.00001
3.00001
3.00001
3.00001
3.00001
3.00001
3.00001
3.00001
3.00001
3.00001
3.00001
3.00001
3.00001
3.00001
3.00001
3.00001
3.00001
3.00001
3.00001
3.00001
3.00001
3.00001
3.00001
3.00001
3.00001
3.00001
3.00001
3.00001
3.00001
3.00001
3.00001
3.00001
3.00001
3.00001
3.00001
3.00001
3.00001
3.00001
3.00001
3.00001
3.00001
3.00001
3.00007
3.00006
3.00036
2.99958
3.00322
2.99812
2.99368
2.97284
3.00001
3.00001
3.00001
3.00001
3.00001
3.00001
3.00001
3.00001
3.00001
3.00001
3.00001
3.00001
3.00001
3.00001
3.00001
3.00001
3.00001
3.00001
3.00001
3.00001
3.00001
3.00001
3.00001
3.00001
3.00001
3.00001
3.00001
3.00001
3.00001
3.00001
3.00001
3.00001
3.00001
3.00001
3.00001
3.00001
3.00001
3.00001
3.00001
3.00001
3
3
2.99995
2.99996
2.99972
2.9996
2.99772
2.9976
2.99124
2.98534
1.48904
1.65857
1.69444
1.62431
1.50983
1.37115
1.235
1.10998
1.06555
1.05714
1.05694
1.05226
1.0412
1.02596
1.00631
0.991183
0.977456
0.95572
0.911712
0.819824
0.627971
0.317217
0.127126
0.168797
0.243332
0.34408
0.431849
0.486115
0.508215
0.513479
0.504839
0.482354
0.443414
0.386971
0.319338
0.245081
0.174198
0.108525
0.0575409
0.0421752
0.0802809
0.122826
0.162861
0.199228
0.231527
0.261296
0.291961
0.32252
0.351482
0.37841
0.404547
0.429279
0.453674
0.476855
0.499909
0.52186
0.543747
0.564647
0.585548
0.605533
0.62558
0.644769
0.664097
0.68261
0.70136
0.719263
0.73753
0.754892
0.772686
0.789575
0.806897
0.823331
0.840222
0.856211
0.872755
0.888323
0.904608
0.91978
0.935847
0.950664
0.966507
0.981001
0.99664
1.01085
1.02629
1.04023
1.0555
1.06923
1.08432
1.09792
1.11292
1.12649
1.14138
1.15486
1.16946
1.18262
1.19633
1.2082
1.21846
1.22536
1.43378
1.54296
1.57586
1.57778
1.579
1.6031
1.62689
1.62357
1.5931
1.5418
1.48677
1.46028
1.45451
1.4545
1.45236
1.44602
1.43467
1.41477
1.37517
1.29658
1.13813
0.843188
0.561438
0.418276
0.327399
0.244589
0.158153
0.0834282
0.0814454
0.133729
0.184244
0.189957
0.143023
0.104507
0.0851213
0.102319
0.143638
0.189356
0.232415
0.27012
0.306728
0.341638
0.375467
0.406793
0.43582
0.461962
0.488694
0.515784
0.542298
0.566753
0.590724
0.613513
0.636295
0.658064
0.679898
0.700776
0.721804
0.741906
0.762263
0.781634
0.80138
0.820056
0.839243
0.857316
0.876033
0.893578
0.911842
0.928842
0.946526
0.962983
0.979983
0.995961
1.01228
1.02777
1.04351
1.05846
1.0738
1.08822
1.10332
1.11727
1.13224
1.14579
1.16061
1.17387
1.18849
1.20155
1.21601
1.22893
1.24326
1.25605
1.27023
1.28283
1.2969
1.3093
1.32322
1.33528
1.34861
1.35947
1.36986
1.37573
1.36609
1.45869
1.53521
1.60844
1.69064
1.7665
1.81185
1.81467
1.80701
1.78253
1.74395
1.70525
1.67729
1.66027
1.65093
1.64495
1.63929
1.62925
1.60738
1.55767
1.45276
1.22331
0.94075
0.773148
0.68254
0.603097
0.520501
0.43397
0.352843
0.281758
0.217023
0.178084
0.210828
0.265585
0.319128
0.361179
0.396669
0.42862
0.457574
0.483779
0.509482
0.534366
0.5593
0.583165
0.606171
0.626806
0.647708
0.669407
0.692284
0.713411
0.734192
0.753854
0.773807
0.792904
0.812473
0.831176
0.850453
0.868789
0.887729
0.905691
0.924227
0.941926
0.960001
0.977546
0.995089
1.0125
1.02956
1.04676
1.06342
1.08024
1.09651
1.1128
1.12867
1.14433
1.15985
1.17483
1.19003
1.20437
1.21926
1.23306
1.2477
1.26112
1.27563
1.28881
1.30319
1.31617
1.33036
1.34315
1.35714
1.3697
1.38348
1.39567
1.40925
1.42101
1.43432
1.44566
1.4584
1.4686
1.47881
1.48399
1.33208
1.42492
1.50871
1.5888
1.66455
1.72973
1.78721
1.83395
1.86089
1.86601
1.86366
1.85031
1.82711
1.80056
1.77765
1.761
1.75049
1.74275
1.72977
1.70127
1.63903
1.50195
1.25935
1.02026
0.930736
0.856258
0.783676
0.711212
0.636489
0.560685
0.49174
0.467491
0.488197
0.529678
0.571778
0.605551
0.630025
0.647008
0.660535
0.673382
0.687528
0.702573
0.718978
0.735567
0.752622
0.768132
0.783708
0.799666
0.818016
0.836162
0.854294
0.871128
0.888427
0.904868
0.922023
0.938284
0.955198
0.971387
0.988113
1.00438
1.0208
1.03715
1.05326
1.06973
1.08561
1.10205
1.11777
1.13402
1.14967
1.1656
1.18117
1.19655
1.21201
1.22672
1.24202
1.25615
1.2712
1.28487
1.29963
1.31299
1.32746
1.34046
1.35471
1.36729
1.38138
1.39366
1.40754
1.41959
1.43327
1.44509
1.45864
1.47021
1.48362
1.49492
1.50815
1.51906
1.53181
1.54169
1.55213
1.55718
1.30506
1.39564
1.47833
1.55516
1.6281
1.69518
1.75751
1.81363
1.86341
1.89754
1.91335
1.91415
1.91099
1.89966
1.88148
1.86208
1.84311
1.82717
1.81394
1.79584
1.75835
1.68234
1.50854
1.28036
1.113
1.0343
0.972506
0.905534
0.832575
0.749424
0.678885
0.658834
0.676635
0.715517
0.757951
0.790782
0.810867
0.821028
0.823223
0.824105
0.828395
0.835553
0.8453
0.856694
0.870402
0.883513
0.896682
0.909451
0.924586
0.940593
0.957365
0.972833
0.988553
1.00339
1.01892
1.03402
1.04956
1.06465
1.07984
1.09482
1.10969
1.12453
1.13916
1.15384
1.16843
1.18304
1.19771
1.21217
1.22697
1.24118
1.25605
1.26986
1.28455
1.29788
1.31222
1.32521
1.33934
1.35214
1.36608
1.37865
1.39244
1.40477
1.41837
1.43035
1.44368
1.45523
1.4683
1.47945
1.49237
1.50325
1.51613
1.52686
1.53968
1.5503
1.56297
1.57345
1.58562
1.59553
1.60563
1.61117
1.27943
1.36503
1.44442
1.51924
1.59025
1.65649
1.71814
1.77449
1.82533
1.87188
1.9104
1.93562
1.94822
1.94953
1.94752
1.93943
1.92656
1.90944
1.89226
1.87395
1.84998
1.80255
1.7062
1.50896
1.28951
1.17688
1.10617
1.03965
0.958165
0.859914
0.788098
0.773544
0.795065
0.835094
0.881884
0.919095
0.940361
0.952422
0.955497
0.950025
0.9458
0.944768
0.948581
0.955268
0.964573
0.975399
0.987055
0.998344
1.01063
1.02365
1.03819
1.05257
1.06721
1.0812
1.09519
1.10878
1.12259
1.1363
1.15022
1.16398
1.17765
1.19091
1.20415
1.2171
1.23053
1.2436
1.25732
1.27023
1.28393
1.29654
1.31018
1.32262
1.3362
1.34851
1.36197
1.37399
1.38721
1.39892
1.41197
1.42346
1.43645
1.4478
1.46078
1.47201
1.48493
1.49602
1.50878
1.5197
1.53226
1.54303
1.5554
1.56603
1.57827
1.58872
1.60085
1.61103
1.62278
1.63223
1.64218
1.64734
1.25787
1.33675
1.4116
1.48339
1.55184
1.61671
1.67745
1.73445
1.78712
1.83542
1.87941
1.9193
1.94908
1.96874
1.97744
1.97829
1.97602
1.96948
1.95759
1.94335
1.92405
1.89444
1.83592
1.71349
1.51315
1.30027
1.20962
1.12992
1.02196
0.905073
0.841006
0.837378
0.861784
0.906773
0.961247
1.00498
1.02875
1.04083
1.04821
1.05092
1.04539
1.04024
1.038
1.04053
1.04662
1.05489
1.06461
1.07449
1.08511
1.09713
1.10974
1.12253
1.13455
1.14672
1.15905
1.17153