/*--------------------------------*- C++ -*----------------------------------*\
| =========                 |                                                 |
| \\      /  F ield         | OpenFOAM: The Open Source CFD Toolbox           |
|  \\    /   O peration     | Version:  2112                                  |
|   \\  /    A nd           | Website:  www.openfoam.com                      |
|    \\/     M anipulation  |                                                 |
\*---------------------------------------------------------------------------*/
FoamFile
{
    version     2.0;
    format      ascii;
    arch        "LSB;label=32;scalar=64";
    class       volScalarField;
    location    "3";
    object      p;
}
// * * * * * * * * * * * * * * * * * * * * * * * * * * * * * * * * * * * * * //

dimensions      [1 -1 -2 0 0 0 0];

internalField   nonuniform List<scalar> 
7000
(
0.999998
1
1.00001
1.00001
1.00001
1.00001
1.00001
1.00001
1.00003
1.00003
1.00014
1.00037
1.00124
1.0025
1.00734
1.01317
1.04259
1.06349
1.3029
1.51253
2.96765
5.83834
12.2076
11.5397
10.6759
10.474
10.5377
10.695
10.8506
10.9526
11.0307
11.1084
11.1896
11.2713
11.3511
11.4283
11.5031
11.5755
11.6452
11.712
11.7755
11.8356
11.892
11.9441
11.9915
12.0339
12.0712
12.1025
12.1274
12.1484
1
1.00001
1.00001
1.00001
1.00001
1.00001
1.00001
1.00001
1.00003
1.00003
1.00014
1.00036
1.00118
1.00239
1.00697
1.01243
1.04041
1.05739
1.30034
1.47063
2.94453
5.65717
12.0848
11.4812
10.6704
10.4768
10.5366
10.6867
10.8401
10.9429
11.0222
11.1005
11.182
11.2639
11.3439
11.4214
11.4964
11.5691
11.6391
11.7061
11.7699
11.8303
11.8869
11.9392
11.9868
12.0294
12.0668
12.0982
12.1228
12.1432
1
1.00001
1.00001
1.00001
1.00001
1.00001
1.00001
1.00001
1.00003
1.00003
1.00014
1.00036
1.00116
1.00234
1.00679
1.01197
1.03935
1.05416
1.2961
1.45168
2.92864
5.58536
12.0459
11.4443
10.6698
10.4871
10.5438
10.6871
10.8367
10.9393
11.0193
11.0978
11.179
11.2603
11.3398
11.4168
11.4914
11.5635
11.6329
11.6993
11.7624
11.822
11.8777
11.9292
11.976
12.0177
12.0541
12.0843
12.107
12.1246
1
1.00001
1.00001
1.00001
1.00001
1.00001
1.00001
1.00001
1.00002
1.00003
1.00014
1.00036
1.00114
1.00233
1.0066
1.01154
1.03819
1.05163
1.28742
1.4355
2.89232
5.47694
11.8994
11.3858
10.6516
10.4816
10.5369
10.6754
10.8217
10.9246
11.0058
11.085
11.1664
11.2477
11.3271
11.404
11.4784
11.5503
11.6193
11.6853
11.7479
11.8068
11.8617
11.9123
11.9579
11.9984
12.0333
12.0618
12.0827
12.0979
1
1.00001
1.00001
1.00001
1.00001
1.00001
1.00001
1.00001
1.00001
1.00004
1.00014
1.00051
1.00112
1.0033
1.00633
1.0192
1.02862
1.03101
1.29053
1.38581
2.89697
5.39797
11.7803
11.3207
10.6368
10.4806
10.5338
10.6665
10.8091
10.9119
10.9937
11.0729
11.1538
11.2344
11.3132
11.3893
11.463
11.5341
11.6023
11.6674
11.729
11.7867
11.8404
11.8895
11.9337
11.9727
12.0059
12.0327
12.0519
12.0656
1
1
1.00001
1.00001
1.00001
1.00001
1.00001
1.00001
1.00001
1.00004
1.00014
1.0005
1.00109
1.00318
1.00602
1.01805
1.02615
1.0275
1.28109
1.36634
2.85971
5.28044
11.6234
11.2463
10.6249
10.4741
10.5228
10.6476
10.7892
10.8931
10.9756
11.0549
11.1354
11.2156
11.2936
11.3691
11.442
11.5123
11.5795
11.6436
11.704
11.7605
11.8128
11.8605
11.903
11.9403
11.9717
11.9968
12.0145
12.0269
1
1
1.00001
1.00001
1.00001
1.00001
1.00001
1.00001
1
1.00004
1.00013
1.00048
1.00103
1.00302
1.00562
1.017
1.02619
1.0293
1.26652
1.34397
2.81859
5.15254
11.4553
11.1578
10.6312
10.4674
10.5082
10.6225
10.766
10.872
10.9547
11.0335
11.1133
11.1925
11.2696
11.344
11.4158
11.4849
11.5509
11.6137
11.6728
11.7279
11.7785
11.8246
11.8654
11.9009
11.9306
11.9542
11.9705
11.982
1
1
1.00001
1.00001
1.00001
1.00001
1.00001
1.00001
1
1.00004
1.00012
1.00045
1.00095
1.00278
1.00515
1.01558
1.02366
1.0262
1.25437
1.32035
2.77151
5.00418
11.2549
11.0574
10.6455
10.4587
10.4886
10.5901
10.7377
10.8466
10.9295
11.0074
11.0864
11.1646
11.2404
11.3135
11.3839
11.4515
11.516
11.5772
11.6348
11.6883
11.7372
11.7814
11.8205
11.8541
11.882
11.9041
11.9193
11.9299
1
1
1.00001
1.00001
1.00001
1.00001
1.00001
1.00001
1
1.00003
1.00011
1.0004
1.00087
1.00249
1.00466
1.01415
1.02048
1.01904
1.24629
1.29438
2.72035
4.84013
11.0224
10.9514
10.6572
10.4457
10.4655
10.5546
10.7057
10.8169
10.8995
10.9765
11.0543
11.1313
11.2056
11.2771
11.3458
11.4116
11.4743
11.5336
11.5892
11.6407
11.6879
11.7303
11.7675
11.7995
11.8258
11.8465
11.8605
11.8705
1
1
1
1.00001
1.00001
1.00001
1.00001
1.00001
1
1.00003
1.0001
1.00036
1.00077
1.00221
1.00396
1.01228
1.01756
1.01838
1.22624
1.26607
2.66506
4.65614
10.7353
10.8868
10.6381
10.4223
10.4374
10.5187
10.6701
10.7822
10.8644
10.9403
11.0167
11.0921
11.1647
11.2343
11.3009
11.3646
11.4251
11.4824
11.5358
11.5851
11.6301
11.6703
11.7056
11.7358
11.7604
11.7798
11.7929
11.8024
1
1
1
1.00001
1.00001
1.00001
1.00001
1
1
1.00003
1.0001
1.00034
1.00071
1.00205
1.00385
1.01176
1.01563
1.01302
1.2125
1.23343
2.59892
4.45751
10.3952
10.8318
10.6076
10.3919
10.4049
10.4814
10.6306
10.7422
10.8237
10.8983
10.9729
11.0464
11.1168
11.1841
11.2483
11.3095
11.3674
11.4221
11.473
11.5199
11.5627
11.6007
11.6338
11.662
11.6851
11.7033
11.7155
11.7244
1
1
1
1.00001
1.00001
1.00001
1.00001
1
1
1.00003
1.00008
1.00028
1.0006
1.00171
1.00331
1.00978
1.01245
1.00986
1.19257
1.20048
2.52732
4.23595
9.98839
10.7773
10.578
10.3576
10.3686
10.4414
10.5867
10.6972
10.7775
10.8502
10.9226
10.9936
11.0615
11.1261
11.1875
11.2457
11.3007
11.3522
11.4001
11.444
11.4838
11.5192
11.5501
11.5763
11.5974
11.6141
11.6254
11.6339
1
1
1
1
1.00001
1
1
1
1
1.00002
1.00007
1.00023
1.0005
1.00136
1.00258
1.00724
1.01349
1.01449
1.17528
1.17739
2.44568
3.99265
9.50663
10.7148
10.5438
10.3176
10.3271
10.3967
10.5372
10.6461
10.7249
10.7953
10.8649
10.9329
10.9976
11.0589
11.1168
11.1715
11.223
11.2711
11.3154
11.356
11.3925
11.4246
11.4524
11.476
11.4953
11.5106
11.5208
11.5289
1
1
1
1
1
1
1
1
1.00001
1.00002
1.00008
1.00017
1.00054
1.00104
1.00297
1.00642
1.01429
1.0224
1.15332
1.19373
2.30659
3.7185
8.94472
10.6567
10.5133
10.2795
10.2861
10.3502
10.4829
10.5897
10.6664
10.7338
10.7999
10.8642
10.9251
10.9823
11.0361
11.0865
11.1335
11.1771
11.2169
11.253
11.2853
11.3136
11.3378
11.358
11.3741
11.3871
11.3959
11.4037
1
1
1
1
1
1
1
1
1.00001
1.00002
1.00008
1.00017
1.00052
1.00096
1.00283
1.00566
1.01453
1.01464
1.14065
1.13334
2.237
3.41432
8.27471
10.6051
10.4834
10.2433
10.2442
10.3007
10.4236
10.5282
10.6025
10.666
10.7275
10.787
10.843
10.8952
10.9439
10.989
11.0306
11.0688
11.1031
11.1335
11.16
11.1826
11.2015
11.2173
11.2298
11.2398
11.2466
11.2537
1
1
1
1
1
1
1
1
1.00001
1.00002
1.00007
1.00015
1.00043
1.00078
1.00234
1.0039
1.01361
1.02404
1.11379
1.1373
2.0815
3.09034
7.50181
10.6197
10.4936
10.2297
10.1987
10.2478
10.3592
10.4615
10.5334
10.5925
10.6485
10.7022
10.7522
10.7982
10.8402
10.8785
10.913
10.9439
10.9707
10.9936
11.0126
11.0276
11.0387
11.0468
11.0521
11.0568
11.0599
11.0656
1
1
1
1
1
1
1
1
1.00001
1.00003
1.00009
1.00019
1.00056
1.00105
1.00314
1.00574
1.01792
1.02559
1.02861
1.31493
1.45385
3.14378
6.19488
10.6735
10.5758
10.2773
10.1726
10.2048
10.2927
10.3935
10.4629
10.5159
10.5647
10.611
10.6534
10.6914
10.7253
10.755
10.7805
10.8017
10.8184
10.8307
10.8385
10.8415
10.8411
10.8379
10.8322
10.8266
10.8221
10.8248
1
1
1
1
1
1
1
1
1.00001
1.00002
1.00007
1.00014
1.00042
1.00073
1.00255
1.00434
1.01389
1.0217
1.02375
1.25337
1.32125
2.72959
4.88815
10.5417
10.5743
10.3384
10.1395
10.1511
10.2112
10.3139
10.3843
10.4325
10.4738
10.512
10.5457
10.5745
10.5984
10.6172
10.6312
10.6403
10.6433
10.6412
10.6337
10.6188
10.5988
10.5744
10.547
10.5213
10.4992
10.4919
1
1
1
1
1
1
1
1
1.00001
1.00002
1.00005
1.00009
1.00024
1.00043
1.00131
1.00252
1.00695
1.01539
1.01291
1.2005
1.20393
2.54191
4.24496
9.82755
10.4965
10.3106
10.0796
10.0785
10.1204
10.2134
10.288
10.3345
10.3695
10.4002
10.4257
10.4451
10.458
10.4647
10.4644
10.4589
10.4449
10.4216
10.3906
10.3503
10.3008
10.2415
10.1742
10.1024
10.034
9.99075
1
1
1
1
1
1
1
1
1
1.00001
1.00002
1.00005
1.00008
1.00044
1.00052
1.00309
1.0064
1.01538
1.01498
1.15317
1.146
2.32495
3.63136
8.65573
10.3422
10.2402
10.0293
9.99066
10.0222
10.098
10.1718
10.2167
10.2461
10.2691
10.2862
10.296
10.2975
10.2929
10.2785
10.2516
10.2149
10.1667
10.1046
10.0267
9.92968
9.8108
9.66619
9.49651
9.30266
9.10065
1
1
1
1
1
1
1
1
1
1
1.00002
1.00004
1.00011
1.00011
1.00126
1.00145
1.00999
1.02337
1.03993
1.04545
1.37936
1.55707
3.47421
6.9853
10.2956
10.2614
10.0595
9.92012
9.92491
9.95923
10.0253
10.0673
10.0894
10.1021
10.1079
10.1061
10.0969
10.0741
10.0357
9.98513
9.9199
9.83592
9.729
9.5924
9.41697
9.18562
8.87011
8.40927
7.68388
6.19037
1
1
1
1
1
1
1
1
1
1
1.00001
1.00001
1.00004
1.00004
1.00041
1.00049
1.00302
1.00593
1.02087
1.0225
1.24988
1.30128
2.69731
4.71417
10.1314
10.3318
10.1185
9.8536
9.79805
9.81425
9.85468
9.88862
9.90101
9.90046
9.89494
9.87878
9.84514
9.79667
9.734
9.65487
9.5547
9.42823
9.26811
9.06414
8.80051
8.45374
7.98666
7.34088
6.46571
5.07269
1
1
1
1
1
1
1
1
1
1
1.00001
1.00002
1.00008
1.00012
1.0007
1.00079
1.00466
1.00956
1.0192
1.01341
1.18529
1.181
2.43197
3.88844
9.08878
10.1695
10.0082
9.69355
9.59262
9.60425
9.63769
9.66962
9.67517
9.66986
9.65231
9.61432
9.55869
9.49006
9.4048
9.29859
9.16652
9.00289
8.80026
8.54849
8.23424
7.83967
7.3444
6.71962
5.97599
5.0137
1
1
1
1
1
1
1
1
1
1
1.00001
1.00001
1.00004
1.00005
1.00031
1.00032
1.00249
1.00472
1.01235
1.01868
1.12219
1.1418
2.085
3.05904
7.28575
9.84045
9.77343
9.55461
9.40148
9.39648
9.41199
9.44005
9.44011
9.43029
9.40099
9.34214
9.2695
9.18383
9.07979
8.95248
8.79753
8.61024
8.38464
8.11378
7.78921
7.40233
6.94476
6.40735
5.80168
5.05896
1
1
1
1
1
1
1
1
1
1
1
1.00001
1.00003
1.00005
1.00022
1.00029
1.00184
1.00358
1.00939
1.01032
1.09142
1.09003
1.74062
2.21823
5.01686
9.50029
9.72487
9.54747
9.30876
9.23115
9.2318
9.23489
9.229
9.20747
9.15889
9.08473
8.99895
8.89979
8.78164
8.64045
8.47277
8.2755
8.04465
7.7763
7.46606
7.11019
6.70619
6.25005
5.75207
5.16178
1
1
1
1
1
1
1
1
1
1
1
1.00001
1.00001
1.00005
1.00006
1.00043
1.00046
1.00328
1.00677
1.01569
1.02219
1.15455
1.19112
2.27881
3.58536
8.31359
9.56164
9.45618
9.21347
9.06687
9.03735
9.0356
9.02582
8.99613
8.93353
8.84899
8.75331
8.64501
8.51783
8.36932
8.19692
7.99881
7.77284
7.51685
7.22902
6.90768
6.55227
6.16066
5.7398
5.24961
1
1
1
1
1
1
1
1
1
1
1
1
1
1.00003
1.00005
1.00026
1.00028
1.00213
1.00411
1.01015
1.01568
1.09935
1.11298
1.92333
2.55157
6.02694
9.10692
9.23064
9.09748
8.90224
8.84053
8.83473
8.82122
8.78791
8.72032
8.63252
8.5327
8.41945
8.28852
8.13814
7.967
7.77405
7.55821
7.31854
7.05415
6.76453
6.4493
6.10721
5.74276
5.32305
1
1
1
1
1
1
1
1
1
1
1
1
1
1.00002
1.00004
1.00016
1.00021
1.00135
1.00278
1.00669
1.01036
1.06425
1.07415
1.54249
1.83889
4.08605
7.92718
9.04742
9.00384
8.86026
8.73579
8.68879
8.65753
8.60864
8.53593
8.44576
8.34215
8.22504
8.09226
7.94265
7.77537
7.58991
7.38569
7.1626
6.92014
6.658
6.37602
6.07281
5.75081
5.385
1
1
1
1
1
1
1
1
1
1
1
1
1
1.00001
1.00001
1.00008
1.00006
1.00062
1.00072
1.0041
1.00741
1.02811
1.02908
1.3067
1.39076
2.89457
5.34965
8.53558
8.93777
8.85858
8.69661
8.59221
8.5284
8.46505
8.3858
8.2909
8.18287
8.06244
7.9288
7.7811
7.61875
7.44142
7.2489
7.04073
6.81677
6.57657
6.32035
6.04765
5.76167
5.43887
1
1
1
1
1
1
1
1
1
1
1
1
1
1
1.00002
1.00003
1.00014
1.00018
1.00121
1.00234
1.00596
1.00934
1.05513
1.06301
1.47448
1.70251
3.68691
7.06615
8.67378
8.76983
8.68256
8.50561
8.3896
8.31048
8.2311
8.13929
8.03326
7.91453
7.78359
7.64068
7.48546
7.31764
7.13697
6.94348
6.73727
6.51887
6.28777
6.04206
5.78192
5.48832
1
1
1
1
1
1
1
1
1
1
1
1
1
1
1.00001
1.00001
1.00006
1.00007
1.00047
1.00044
1.00419
1.00876
1.01865
1.02019
1.2161
1.22381
2.45925
3.87157
7.93497
8.68183
8.63008
8.49025
8.3133
8.19342
8.10039
8.00582
7.90082
7.78383
7.65544
7.51779
7.37075
7.21308
7.04416
6.86409
6.67321
6.47157
6.25884
6.03365
5.79769
5.53296
1
1
1
1
1
1
1
1
1
1
1
1
1
1
1
1.00001
1.00003
1.00011
1.00016
1.00088
1.00224
1.00407
1.01521
1.02671
1.02621
1.33615
1.41999
3.00717
5.54798
8.13633
8.48839
8.42004
8.25828
8.09116
7.97426
7.87893
7.78104
7.67275
7.5531
7.42255
7.2814
7.13051
6.97018
6.79998
6.62098
6.4332
6.23644
6.02936
5.81167
5.5679
1
1
1
1
1
1
1
1
1
1
1
1
1
1
1
1
1.00002
1.00004
1.00015
1.00019
1.00124
1.00247
1.00618
1.00776
1.05319
1.05766
1.46644
1.64477
3.55136
6.57622
8.05607
8.21687
8.14954
7.99704
7.85851
7.75859
7.66896
7.57168
7.46192
7.33997
7.20723
7.06484
6.9138
6.75504
6.58778
6.41177
6.22655
6.03079
5.82647
5.59861
1
1
1
1
1
1
1
1
1
1
1
1
1
1
1
1.00001
1.00001
1.00004
1.00007
1.00023
1.00034
1.00155
1.00136
1.01154
1.01699
1.07141
1.08464
1.54137
1.83112
3.78721
6.86307
7.94313
8.02356
7.97089
7.85341
7.72486
7.60745
7.49913
7.39154
7.27634
7.15065
7.01459
6.86965
6.71697
6.55685
6.38932
6.21414
6.03011
5.83981
5.62785
1
1
1
1
1
1
1
1
1
1
1
1
1
1
1
1
1
1.00002
1.00002
1.00009
1.00011
1.00071
1.00069
1.00599
1.00866
1.03167
1.03572
1.21514
1.26589
2.34464
3.92475
7.1097
7.92976
7.95297
7.89407
7.76209
7.61824
7.49329
7.3735
7.24893
7.11716
6.97871
6.83367
6.68342
6.52797
6.36737
6.20076
6.02668
5.84591
5.64585
1
1
1
1
1
1
1
1
1
1
1
1
1
1
1
1
1
1
1.00002
1.00003
1.00008
1.00011
1.00076
1.00072
1.00467
1.00328
1.03267
1.03538
1.28126
1.31687
2.64484
4.66794
7.23668
7.85357
7.84894
7.77803
7.63216
7.47981
7.34158
7.20857
7.07354
6.93454
6.79221
6.646
6.4959
6.34132
6.18206
6.01732
5.84503
5.65606
1
1
1
1
1
1
1
1
1
1
1
1
1
1
1
1
1
1
1.00001
1.00001
1.00005
1.00007
1.00034
1.00033
1.00272
1.00566
1.01151
1.02215
1.10181
1.10132
1.90592
2.38917
5.30321
7.27304
7.69591
7.68299
7.60453
7.44146
7.27423
7.12714
6.99163
6.85878
6.72425
6.58677
6.44584
6.30122
6.15239
5.99832
5.83973
5.66244
1
1
1
1
1
1
1
1
1
1
1
1
1
1
1
1
1
1
1
1.00001
1.00001
1.00006
1.00008
1.0004
1.00037
1.00311
1.0067
1.01291
1.02155
1.1127
1.11589
1.95781
2.53747
5.45703
7.17383
7.50151
7.47973
7.39144
7.20916
7.04064
6.89976
6.77308
6.64962
6.52423
6.39526
6.26215
6.12471
5.98163
5.83413
5.66789
1
1
1
1
1
1
1
1
1
1
1
1
1
1
1
1
1
1
1
1.00001
1.00001
1.00004
1.00005
1.00022
1.0003
1.00133
1.00161
1.00802
1.01473
1.05165
1.0471
1.4245
1.49769
3.15936
5.51416
6.96088
7.27023
7.25071
7.16575
6.99658
6.84222
6.71159
6.59308
6.47713
6.35903
6.23676
6.10966
5.9771
5.83712
5.67952
1
1
1
1
1
1
1
1
1
1
1
1
1
1
1
1
1
1
1
1
1.00001
1.00001
1.00004
1.00006
1.00024
1.00032
1.0015
1.00177
1.00869
1.01335
1.0558
1.0582
1.42639
1.50419
3.13597
5.43508
6.69786
7.03381
7.02738
6.96218
6.83064
6.69039
6.56503
6.4493
6.33732
6.22401
6.10636
5.98005
5.84634
5.69769
1
1
1
1
1
1
1
1
1
1
1
1
1
1
1
1
1
1
1
1
1
1.00001
1.00002
1.00003
1.00012
1.00017
1.00064
1.00083
1.00378
1.0042
1.0229
1.03486
1.14015
1.11635
2.0204
2.43882
5.14282
6.46253
6.83339
6.85544
6.80957
6.70316
6.57468
6.45501
6.34164
6.22811
6.11131
5.98919
5.86195
5.71968
1
1
1
1
1
1
1
1
1
1
1
1
1
1
1
1
1
1
1
1
1
1.00001
1.00002
1.00002
1.00003
1.00021
1.00048
1.00064
1.00079
1.00492
1.01161
1.01616
1.02009
1.13139
1.12804
1.91434
2.21633
4.653
6.21321
6.64474
6.71877
6.68863
6.61079
6.48088
6.36181
6.24685
6.13137
6.01354
5.8941
5.7578
1
1
1
1
1
1
1
1
1
1
1
1
1
1
1
1
1
1
1
1
1
1
1
1.00001
1.00001
1.00004
1.00005
1.00021
1.00032
1.00131
1.00174
1.00898
1.02023
1.03441
1.04477
1.341
1.36393
2.55704
4.12566
5.79704
6.45022
6.61044
6.59389
6.53211
6.41907
6.29578
6.1761
6.05796
5.93704
5.8011
1
1
1
1
1
1
1
1
1
1
1
1
1
1
1
1
1
1
1
1
1
1
1
1
1
1.00002
1.00002
1.00009
1.0001
1.00047
1.00074
1.00265
1.00293
1.01589
1.02755
1.09172
1.07811
1.69186
1.79403
3.56244
5.52052
6.29303
6.47659
6.46658
6.41724
6.31789
6.20634
6.08854
5.96789
5.83345
1
1
1
1
1
1
1
1
1
1
1
1
1
1
1
1
1
1
1
1
1
1
1
1
1
1
1.00001
1.00001
1.0001
1.00022
1.00028
1.00034
1.00244
1.00571
1.00539
1.02606
1.05303
1.03321
1.58947
1.58275
3.20158
5.10946
5.96872
6.25625
6.31639
6.29023
6.21828
6.10657
5.98572
5.85231
1
1
1
1
1
1
1
1
1
1
1
1
1
1
1
1
1
1
1
1
1
1
1
1
1
1
1.00001
1.00001
1.00003
1.00004
1.00016
1.0002
1.00084
1.00126
1.00456
1.00622
1.02603
1.03966
1.14895
1.14897
1.88094
2.19737
4.17601
5.50519
6.02944
6.16998
6.15876
6.1197
6.01478
5.88332
1
1
1
1
1
1
1
1
1
1
1
1
1
1
1
1
1
1
1
1
1
1
1
1
1
1
1
1
1.00001
1.00002
1.00005
1.00008
1.00021
1.00032
1.00105
1.00076
1.00768
1.00947
1.04197
1.06572
1.24726
1.28609
2.06722
3.07804
4.95837
5.70789
5.97918
6.03232
6.00615
5.92272
1
1
1
1
1
1
1
1
1
1
1
1
1
1
1
1
1
1
1
1
1
1
1
1
1
1
1
1
1
1.00001
1.00001
1.00004
1.00005
1.00019
1.00026
1.00094
1.00145
1.0052
1.00643
1.02954
1.04593
1.16135
1.16422
1.8598
2.25855
3.94501
5.18839
5.69984
5.85584
5.83938
1
1
1
1
1
1
1
1
1
1
1
1
1
1
1
1
1
1
1
1
1
1
1
1
1
1
1
1
1
1
1
1.00001
1.00002
1.00007
1.00009
1.00034
1.00045
1.00172
1.00211
1.00865
1.01003
1.04593
1.06323
1.25041
1.25321
2.00445
2.75185
4.4008
5.22864
5.54267
1
1
1
1
1
1
1
1
1
1
1
1
1
1
1
1
1
1
1
1
1
1
1
1
1
1
1
1
1
1
1
1.00001
1.00001
1.00001
1.00001
1.00012
1.00025
1.00031
1.00028
1.00257
1.00568
1.00778
1.0309
1.04616
1.03916
1.38071
1.37326
2.18982
3.10871
4.41124
1
1
1
1
1
1
1
1
1
1
1
1
1
1
1
1
1
1
1
1
1
1
1
1
1
1
1
1
1
1
1
1
1
1
1
1.00001
1.00001
1.00007
1.0001
1.00031
1.00018
1.00194
1.00479
1.0019
1.02461
1.05863
1.03027
1.40448
1.47123
2.22672
1
1
1
1
1
1
1
1
1
1
1
1
1
1
1
1
1
1
1
1
1
1
1
1
1
1
1
1
1
1
1
1
1
1
1
1
1
1.00002
1.00002
1.00006
1.00007
1.00038
1.00072
1.00114
1.00277
0.999362
1.00949
1.01544
0.968054
1.42108
1
1
1
1
1
1
1
1
1
1
1
1
1
1
1
1
1
1
1
1
1
1
1
1
1
1
1
1
1
1
1
1
1
1
1
1
1
1
1.00001
1.00001
1.00002
1.00005
0.999385
0.998442
0.998057
0.989946
0.992087
0.991105
0.964804
1.22312
1
1
1
1
1
1
1
1
1
1
1
1
1
1
1
1
1
1
1
1
1
1
1
1
1
1
1
1
1
1
1
1
1
1
1
1
1
1
1
1.00001
1.00002
1.00003
0.999764
0.99946
0.999408
0.997257
0.998639
0.999064
0.988205
1.10639
1
1
1
1
1
1
1
1
1
1
1
1
1
1
1
1
1
1
1
1
1
1
1
1
1
1
1
1
1
1
1
1
1
1
1
1
1
1
1
1
1.00001
1.00002
0.99988
0.999725
0.999709
0.998696
0.999455
0.999812
0.99469
1.05384
1
1
1
1
1
1
1
1
1
1
1
1
1
1
1
1
1
1
1
1
1
1
1
1
1
1
1
1
1
1
1
1
1
1
1
1
1
1
1
1
1
1.00001
0.999939
0.999847
0.999864
0.999234
0.999671
0.999803
0.996833
1.03151
1
1
1
1
1
1
1
1
1
1
1
1
1
1
1
1
1
1
1
1
1
1
1
1
1
1
1
1
1
1
1
1
1
1
1
1
1
1
1
1
1.00001
1.00002
1.00003
1.00013
1.00018
1.00072
1.00094
1.00393
1.00588
1.00626
1
1
1
1
1
1
1
1
1
1
1
1
1
1
1
1
1
1
1
1
1
1
1
1
1
1
1
1
1
1
1
1
1
1
1
1
1
1
1
1
1.00001
1.00002
1.00003
1.00013
1.00015
1.00076
1.00071
1.00404
1.00577
1.0064
1
1
1
1
1
1
1
1
1
1
1
1
1
1
1
1
1
1
1
1
1
1
1
1
1
1
1
1
1
1
1
1
1
1
1
1
1
1
1
1
1
1.00001
0.999957
0.9999
0.999897
0.999469
0.999789
0.999837
0.997518
1.02454
1
1
1
1
1
1
1
1
1
1
1
1
1
1
1
1
1
1
1
1
1
1
1
1
1
1
1
1
1
1
1
1
1
1
1
1
1
1
1
1
1
1.00002
1.00002
1.0001
1.00012
1.00013
1.00154
1.00408
1.00588
1.00655
1.96088
0.978225
0.648443
0.550793
0.565945
0.623012
0.754365
1.01511
1.15384
1.18632
1.18585
1.1883
1.19733
1.21867
1.2585
1.29044
1.31417
1.34241
1.40064
1.52562
1.80315
2.42013
3.22235
3.26863
3.26939
3.22156
3.18942
3.17999
3.17873
3.20145
3.25102
3.33784
3.47233
3.65324
3.85678
4.06434
4.2466
4.39612
4.50844
4.6052
4.67342
4.71586
4.73849
4.74759
4.7461
4.73852
4.72016
4.69113
4.65776
4.62237
4.58373
4.54332
4.50037
4.45603
4.40948
4.36168
4.3121
4.26161
4.20985
4.15747
4.10422
4.05063
3.99657
3.94257
3.88851
3.83483
3.78132
3.72825
3.67539
3.6229
3.57063
3.5187
3.46706
3.41581
3.36498
3.31464
3.26485
3.21562
3.16706
3.11909
3.07188
3.02527
2.97942
2.93411
2.88959
2.84564
2.80253
2.75993
2.71827
2.67725
2.63709
2.59744
2.55866
2.52049
2.48332
2.44706
2.4124
2.38015
2.35202
2.33484
2.59477
1.55108
1.13742
0.98794
0.94839
0.941738
0.930955
0.944214
0.979449
1.05191
1.1613
1.22981
1.2546
1.25684
1.26164
1.27167
1.29177
1.32292
1.37651
1.48628
1.71752
2.2143
3.15491
3.31099
3.27584
3.21025
3.18131
3.19136
3.20119
3.21371
3.24028
3.3077
3.42643
3.61106
3.80264
4.02231
4.21005
4.3625
4.4817
4.57949
4.64956
4.69568
4.72088
4.73196
4.73129
4.72666
4.7132
4.68511
4.64969
4.61395
4.57605
4.5361
4.49348
4.44927
4.40308
4.3556
4.30646
4.25628
4.20487
4.15276
4.09985
4.04658
3.99292
3.93923
3.88555
3.83208
3.77883
3.72583
3.67312
3.62066
3.56849
3.51658
3.46502
3.4138
3.36305
3.31273
3.26301
3.2138
3.1653
3.11733
3.07015
3.0235
2.97775
2.93248
2.88815
2.84436
2.80148
2.75911
2.71754
2.67638
2.63616
2.59647
2.55777
2.51959
2.48249
2.44611
2.41133
2.3787
2.34977
2.33206
3.47677
2.53871
1.93593
1.53414
1.26636
1.08298
0.959358
0.947791
0.957327
0.986522
1.04899
1.12785
1.19517
1.24338
1.27067
1.28723
1.30085
1.31744
1.35149
1.42422
1.58323
1.93903
2.74038
3.25315
3.264
3.24419
3.20516
3.1999
3.19811
3.20788
3.24693
3.33037
3.44377
3.60164
3.78928
3.98364
4.16637
4.31945
4.4413
4.5391
4.61155
4.66151
4.69069
4.7048
4.70555
4.70319
4.69453
4.67418
4.63854
4.60172
4.56385
4.52442
4.48252
4.43883
4.39321
4.34622
4.29766
4.24795
4.19706
4.14536
4.09296
4.04014
3.98701
3.93379
3.88055
3.82743
3.77445
3.72172
3.66916
3.61687
3.56479
3.51301
3.46154
3.41041
3.35975
3.30949
3.25986
3.2107
3.16233
3.11445
3.06737
3.02087
2.9753
2.93025
2.88608
2.84229
2.79943
2.75702
2.71556
2.67453
2.63448
2.59489
2.55631
2.51817
2.48112
2.44466
2.4098
2.37672
2.34725
2.32802
3.93934
3.11433
2.46733
1.97736
1.63432
1.39769
1.2451
1.13469
1.06893
1.05935
1.06429
1.08171
1.11947
1.17295
1.22441
1.26895
1.29833
1.31682
1.33805
1.38164
1.47648
1.68094
2.11852
2.99849
3.23604
3.26317
3.25671
3.2445
3.2526
3.28505
3.36116
3.46438
3.55599
3.6665
3.80427
3.95982
4.10158
4.24525
4.37243
4.47917
4.55942
4.61509
4.64873
4.66631
4.67029
4.669
4.66378
4.65047
4.62257
4.58467
4.5459
4.50668
4.46573
4.42303
4.37838
4.33218
4.28443
4.23542
4.18528
4.13429
4.08262
4.03052
3.9781
3.92555
3.87289
3.82029
3.76771
3.7153
3.663
3.61092
3.55907
3.50744
3.45618
3.40518
3.35473
3.30459
3.25517
3.20608
3.15793
3.11023
3.06352
3.01713
2.97171
2.92668
2.88266
2.83899
2.79634
2.75405
2.7128
2.67189
2.63203
2.5925
2.55406
2.51594
2.47898
2.4425
2.4075
2.37409
2.3437
2.32299
4.24711
3.52506
2.90925
2.40468
2.01787
1.72768
1.5107
1.35114
1.22778
1.14717
1.10275
1.10302
1.10822
1.12379
1.15691
1.19649
1.23724
1.27634
1.30783
1.33758
1.39537
1.51685
1.77697
2.3466
3.08316
3.25733
3.30525
3.32291
3.36229
3.44837
3.60274
3.72135
3.78916
3.84298
3.90072
3.96263
4.04604
4.13121
4.25054
4.37832
4.47966
4.55064
4.5937
4.61744
4.62645
4.6259
4.62317
4.61533
4.59758
4.56283
4.52428
4.48504
4.44474
4.40301
4.35951
4.31438
4.26767
4.21962
4.1704
4.12028
4.06948
4.0182
3.96659
3.91474
3.86275
3.81066
3.75858
3.70651
3.65461
3.60277
3.55127
3.49984
3.44892
3.39814
3.34796
3.29807
3.24903
3.20033
3.15247
3.10495
3.0584
3.01219
2.96697
2.9221
2.87828
2.83478
2.79235
2.75022
2.70918
2.66843
2.62878
2.58938
2.55114
2.51316
2.47632
2.4399
2.40484
2.37123
2.3403
2.31785
4.47793
3.8503
3.28624
2.79127
2.3834
2.05817
1.80335
1.60636
1.45304
1.33591
1.24056
1.18486
1.14998
1.14854
1.15179
1.16246
1.1854
1.21752
1.25355
1.29224
1.33327
1.4081
1.56208
1.89364
2.60053
3.15736
3.30998
3.40792
3.51494
3.72929
3.98118
4.10277
4.12074
4.11153
4.08011
4.0246
4.03082
4.05825
4.11962
4.23523
4.3595
4.45566
4.51923
4.55709
4.57423
4.57672
4.57533
4.57057
4.55901
4.53476
4.49806
4.45913
4.41928
4.37836
4.336
4.29208
4.24667
4.19988
4.1519
4.10293
4.05323
4.00296
3.95231
3.90129
3.8501
3.79862
3.74714
3.69548
3.64404
3.59253
3.54143
3.4903
3.43975
3.38936
3.33979
3.29034
3.24171
3.19331
3.14578
3.09849
3.0522
3.00618
2.96123
2.91655
2.87297
2.82966
2.78746
2.74552
2.70468
2.66412
2.62465
2.58546
2.54736
2.50954
2.47283
2.43652
2.40149
2.36769
2.33653
2.31255
4.65661
4.10764
3.59789
3.12705
2.71679
2.373
2.0911
1.86291
1.67875
1.52954
1.4125
1.31405
1.24162
1.19805
1.17103
1.17109
1.17401
1.18314
1.2026
1.2296
1.2652
1.31112
1.40419
1.59375
1.98656
2.80195
3.25161
3.49822
3.73542
4.16155
4.49754
4.55937
4.53684
4.45912
4.29027
4.11878
4.03966
4.04304
4.06199
4.1103
4.20707
4.31884
4.41127
4.47311
4.50796
4.52176
4.52148
4.51914
4.5124
4.49734
4.46716
4.4298
4.39047
4.35024
4.30892
4.26633
4.22239
4.17708
4.13055
4.08291
4.03448
3.9853
3.93568
3.88551
3.83513
3.7843
3.73345
3.68228
3.63136
3.58029
3.52968
3.47912
3.42925
3.37941
3.33031
3.28129
3.23305
3.18495
3.13775
3.09075
3.04475
2.99902
2.95435
2.90996
2.86667
2.82364
2.78173
2.74005
2.6995
2.65918
2.61998
2.58099
2.54313
2.50549
2.46897
2.43279
2.39785
2.36397
2.33273
2.30765
4.79966
4.31353
3.85315
3.41205
3.01131
2.66164
2.36428
2.11498
1.90805
1.73643
1.59517
1.47861
1.38175
1.30112
1.24577
1.21192
1.18944
1.18949
1.19212
1.20026
1.21766
1.24727
1.30005
1.40878
1.63034
2.08412
2.99155
3.49711
4.00721
4.79162
5.10726
5.09051
5.00645
4.80163
4.49442
4.2593
4.1124
4.04615
4.04739
4.05849
4.09243
4.16311
4.26373
4.35202
4.41212
4.44747
4.45989
4.45933
4.45605
4.44751
4.42875
4.39597
4.35806
4.31853
4.27807
4.23675
4.19441
4.15081
4.10601
4.05992
4.01292
3.96493
3.91642
3.86716
3.81764
3.76752
3.71734
3.66676
3.61641
3.56596
3.51611
3.46628
3.41707
3.36782
3.31922
3.27065
3.22285
3.17516
3.12836
3.08177
3.03615
2.99078
2.94647
2.90242
2.85945
2.81673
2.77512
2.73372
2.69344
2.65336
2.6144
2.57563
2.53799
2.50053
2.46422
2.42817
2.39341
2.35948
2.3283
2.30244
4.91773
4.48186
4.06486
3.65435
3.2693
2.92184
2.61734
2.35455
2.13078
1.94086
1.78048
1.64541
1.53062
1.43702
1.35426
1.28979
1.24415
1.21559
1.20078
1.20157
1.20629
1.21914
1.24752
1.30757
1.43455
1.70518
2.27647
3.36057
4.3711
5.59783
5.7122
5.64126
5.43575
5.04295
4.6983
4.4303
4.23778
4.11275
4.04792
4.04011
4.04446
4.06533
4.11389
4.19685
4.27688
4.3382
4.37459
4.39039
4.39
4.38678
4.37768
4.35778
4.32375
4.28505
4.24507
4.20465
4.1637
4.12177
4.07873
4.03431
3.98889
3.94225
3.89493
3.84667
3.79804
3.74867
3.69923
3.64939
3.59991
3.55031
3.50124
3.4521
3.40351
3.35484
3.30679
3.25873
3.21142
3.1642
3.11786
3.07169
3.02651
2.98154
2.93763
2.89396
2.85138
2.80903
2.76778
2.72672
2.68677
2.64699
2.60833
2.56982
2.53243
2.4952
2.45911
2.42324
2.38864
2.35475
2.32365
2.29718
5.01553
4.61959
4.23975
3.85904
3.49314
3.15399
2.84877
2.57883
2.34356
2.1399
1.96459
1.81421
1.68506
1.575
1.48049
1.40033
1.33162
1.27982
1.24442
1.22049
1.22084
1.22517
1.23948
1.27519
1.35559
1.53285
1.92256
2.79728
4.60557
6.35684
6.31007
6.12031
5.72105
5.27929
4.91235
4.62042
4.39412
4.22534
4.10935
4.04363
4.02234
4.02302
4.03237
4.06046
4.11942
4.19159
4.25348
4.29456
4.3146
4.3147
4.31215
4.30379
4.2849
4.24992
4.21062
4.1706
4.13044
4.08973
4.04822
4.00547
3.96172
3.91661
3.87065
3.8235
3.77584
3.72719
3.67875
3.62994
3.58145
3.53274
3.4845
3.43608
3.3882
3.34018
3.29279
3.24533
3.19862
3.15194
3.10614
3.06047
3.01577
2.97127
2.92782
2.88459
2.84242
2.80047
2.75959
2.7189
2.67928
2.63983
2.60144
2.56323
2.52606
2.48911
2.4532
2.41756
2.38313
2.34934
2.31836
2.2914
5.09926
4.733
4.38277
4.02849
3.68225
3.35495
3.05411
2.78251
2.54109
2.32821
2.14205
1.97961
1.83849
1.71586
1.60977
1.51755
1.43907
1.37056
1.31419
1.27288
1.25181
1.25374
1.26289
1.28862
1.35038
1.48829
1.79204
2.46081
3.86885
6.62758
6.68159
6.51845
6.12675
5.61832
5.18739
4.84677
4.5814
4.37365
4.21669
4.10478
4.03425
4.00378
3.99034
3.99341
4.00805
4.04263
4.1063
4.16422
4.20801
4.23154
4.23556
4.23345
4.22599
4.20872
4.1742
4.13572
4.09596
4.05557
4.01487
3.9734
3.93128
3.88784
3.84345
3.79768
3.75113
3.70394
3.65653
3.60876
3.56131
3.51356
3.46622
3.41863
3.37155
3.32429
3.27761
3.23085
3.18478
3.13874
3.09351
3.04842
3.00424
2.96027
2.91728
2.87453
2.83279
2.7913
2.7508
2.71053
2.67123
2.63216
2.59404
2.55616
2.51922
2.48256
2.44684
2.41145
2.37718
2.34352
2.31268
2.28533
5.16777
4.82706
4.5012
4.1696
3.8417
3.52726
3.23357
2.96414
2.72078
2.5029
2.30962
2.13863
1.98829
1.85593
1.74004
1.63823
1.54954
1.4721
1.40631
1.3517
1.31177
1.31297
1.32141
1.34746
1.40996
1.54948
1.83843
2.43136
3.45565
4.88977
6.39624
6.46411
6.34266
6.02577
5.55724
5.14007
4.81858
4.55869
4.35879
4.20674
4.09488
4.01775
3.97555
3.95178
3.94641
3.95241
3.97251
4.01546
4.06904
4.11377
4.14203
4.15101
4.14959
4.14358
4.12878
4.09848
4.06103
4.02058
3.97972
3.93869
3.89765
3.85569
3.81294
3.76871
3.72383
3.67799
3.63202
3.5855
3.53917
3.49247
3.44611
3.39947
3.35326
3.30688
3.261
3.21506
3.16971
3.12442
3.07984
3.03543
2.99183
2.94846
2.90598
2.86376
2.82247
2.78144
2.74133
2.70147
2.66251
2.62381
2.58598
2.54841
2.51171
2.47533
2.43981
2.40468
2.37059
2.3371
2.30643
2.27878
5.22458
4.90358
4.59898
4.28764
3.97704
3.67579
3.39083
3.12604
2.88373
2.66397
2.46668
2.28998
2.13291
1.99312
1.86932
1.75966
1.66278
1.57772
1.50437
1.4437
1.40231
1.40448
1.41728
1.45572
1.54787
1.74654
2.15847
2.7768
3.30427
3.8789
4.71363
5.80836
6.15508
6.09684
5.90626
5.52463
5.16599
4.82408
4.56993
4.36409
4.2037
4.08319
3.99593
3.9415
3.91205
3.8912
3.89309
3.90301
3.92695
3.97285
4.01515
4.047
4.06201
4.06139
4.05738
4.04604
4.0218
3.98502
3.9446
3.90327
3.86224
3.82088
3.77937
3.73685
3.69391
3.64993
3.60557
3.56045
3.51532
3.46977
3.42445
3.37885
3.33359
3.28818
3.2432
3.19815
3.15364
3.10917
3.06534
3.02164
2.97871
2.93596
2.89405
2.85238
2.81157
2.77102
2.73132
2.69187
2.65326
2.61491
2.57736
2.5401
2.50364
2.46754
2.43221
2.39734
2.3634
2.33009
2.29957
2.27169
5.2751
4.96725
4.67851
4.38535
4.09138
3.80387
3.52915
3.27087
3.032
2.81277
2.61383
2.43379
2.27193
2.12671
1.99656
1.88055
1.77721
1.6858
1.60907
1.54338
1.52275
1.52849
1.55297
1.61999
1.77186
2.08811
2.66653
3.03616
3.26524
3.50449
3.8491
4.36527
5.09005
5.75795
5.78456
5.71294
5.51417
5.17268
4.88613
4.60209
4.38578
4.21024
4.07545
3.97555
3.90631
3.86687
3.83922
3.82776
3.83133
3.84435
3.87287
3.91336
3.947
3.96742
3.97053
3.96829
3.96053
3.94285
3.90815
3.86858
3.82706
3.78508
3.74388
3.70276
3.66165
3.61959
3.57699
3.53346
3.48967
3.44536
3.40114
3.35663
3.3124
3.268
3.224
3.17993
3.13635
3.09278
3.04981
3.00691
2.96472
2.92267
2.88139
2.8403
2.80001
2.75995
2.72067
2.68164
2.64338
2.60537
2.5681
2.5312
2.495
2.4592
2.42411
2.38947
2.35579
2.32261
2.29232
2.26426
5.31094
5.01807
4.74458
4.46647
4.18841
3.91473
3.65132
3.40122
3.16739
2.95081
2.75187
2.57039
2.40534
2.25609
2.12124
2.00006
1.89184
1.79719
1.71789
1.66573
1.66818
1.68472
1.73699
1.86295
2.12999
2.66911
3.06005
3.22655
3.28504
3.39132
3.50458
3.69127
3.99769
4.46331
5.09931
5.51411
5.49335
5.40001
5.19036
4.92041
4.66671
4.41851
4.22822
4.07403
3.95846
3.87637
3.82234
3.78867
3.76226