/*--------------------------------*- C++ -*----------------------------------*\
| =========                 |                                                 |
| \\      /  F ield         | OpenFOAM: The Open Source CFD Toolbox           |
|  \\    /   O peration     | Version:  2112                                  |
|   \\  /    A nd           | Website:  www.openfoam.com                      |
|    \\/     M anipulation  |                                                 |
\*---------------------------------------------------------------------------*/
FoamFile
{
    version     2.0;
    format      ascii;
    arch        "LSB;label=32;scalar=64";
    class       surfaceScalarField;
    location    "3";
    object      phi;
}
// * * * * * * * * * * * * * * * * * * * * * * * * * * * * * * * * * * * * * //

dimensions      [1 0 -1 0 0 0 0];

oriented        oriented;

internalField   nonuniform List<scalar> 
13790
(
0.00290515
5.67327e-09
0.00290514
2.88126e-09
0.00290514
1.05412e-09
0.00290514
6.99492e-11
0.00290514
4.88265e-10
0.00290514
7.35537e-10
0.00290514
9.34669e-10
0.00290514
8.25944e-10
0.00290514
2.39193e-09
0.00290514
1.68189e-09
0.00290513
1.56502e-09
0.00290513
1.21257e-09
0.00290511
2.1504e-08
0.00290507
4.2276e-08
0.00290485
2.03001e-07
0.00290448
3.87569e-07
0.00290308
1.30019e-06
0.00290025
2.9552e-06
0.00290062
-7.94111e-07
0.00288831
1.17692e-05
0.00292508
-3.67712e-05
0.00295522
-3.42163e-05
0.00303412
-8.04757e-05
0.00296124
7.15192e-05
0.00286734
9.30594e-05
0.00278774
7.91434e-05
0.00271982
6.754e-05
0.00265189
6.77186e-05
0.00257853
7.28982e-05
0.00249986
7.84168e-05
0.00241728
8.2446e-05
0.00233168
8.54886e-05
0.00224329
8.83751e-05
0.00215188
9.13971e-05
0.00205729
9.45961e-05
0.00195934
9.79245e-05
0.00185786
0.000101495
0.00175274
0.000105369
0.00164314
0.00010966
0.00152816
0.000114437
0.00140772
0.000119711
0.00128158
0.000125533
0.00114899
0.0001318
0.00100911
0.000138217
0.000862617
0.00014426
0.000711371
0.000149799
0.000555347
0.000155628
0.000392542
0.000162874
0.000214788
0.000178235
0.000214055
0.00301309
6.51252e-09
0.00301309
4.74674e-09
0.00301309
3.37978e-09
0.00301309
2.3931e-09
0.00301308
2.2046e-09
0.00301308
2.1709e-09
0.00301308
2.08078e-09
0.00301308
1.6869e-09
0.00301308
5.02023e-09
0.00301308
4.41314e-09
0.00301308
1.02212e-09
0.00301308
-3.25636e-09
0.0030131
3.73994e-09
0.00301313
7.47623e-09
0.00301322
1.01825e-07
0.00301333
2.71418e-07
0.00301374
8.00246e-07
0.0030149
1.86764e-06
0.0030123
1.47843e-06
0.00301902
4.5782e-06
0.00301616
-3.46505e-05
0.00304188
-6.32707e-05
0.00303082
-7.13498e-05
0.00297209
0.000129046
0.00289425
0.000170315
0.00281814
0.000155016
0.00274539
0.000140125
0.00267257
0.000140406
0.00259516
0.000149963
0.00251317
0.000160216
0.00242741
0.000168053
0.00233849
0.000174316
0.00224659
0.000180342
0.00215127
0.000186602
0.00205272
0.000193116
0.00195065
0.000200038
0.00184483
0.000207265
0.00173539
0.000215099
0.00162146
0.000223689
0.00150238
0.000232918
0.00137842
0.000242918
0.00124969
0.000253766
0.00111534
0.000265404
0.000974616
0.000277197
0.000828433
0.000288277
0.000677602
0.000299422
0.000521199
0.000311724
0.000357179
0.000327041
0.00018414
0.000351667
0.000397319
0.00312505
6.88246e-09
0.00312504
5.99219e-09
0.00312504
5.41417e-09
0.00312504
4.54474e-09
0.00312504
4.12551e-09
0.00312504
3.82438e-09
0.00312503
3.5222e-09
0.00312503
2.56922e-09
0.00312503
9.46398e-09
0.00312503
6.40185e-09
0.00312503
1.8871e-09
0.00312505
-2.93904e-08
0.00312509
-3.39542e-08
0.00312529
-1.9045e-07
0.00312554
-1.67929e-07
0.00312696
-1.11669e-06
0.00312741
2.08366e-07
0.00312678
2.75752e-06
0.00312215
5.42145e-06
0.00312101
5.58723e-06
0.00310815
-2.26936e-05
0.00310003
-5.75942e-05
0.00304012
-1.23042e-05
0.0029862
0.000181868
0.00292308
0.000232917
0.00285312
0.000224713
0.00277793
0.000215121
0.00269994
0.00021822
0.00261805
0.000231459
0.0025326
0.000245536
0.00244369
0.000256812
0.00235156
0.000266361
0.00225621
0.000275629
0.00215768
0.000285134
0.0020557
0.000295036
0.00195027
0.000305336
0.00184136
0.000316196
0.00172895
0.00032778
0.00161226
0.000340437
0.00149065
0.000353868
0.00136447
0.000368259
0.00123362
0.000383843
0.00109764
0.000400271
0.000955946
0.000417072
0.000808681
0.000433525
0.000657209
0.000449858
0.000500629
0.000468156
0.000338546
0.0004894
0.000170777
0.000519885
0.000567206
0.00324116
6.76824e-09
0.00324116
6.25947e-09
0.00324116
6.5205e-09
0.00324115
6.00867e-09
0.00324115
5.9071e-09
0.00324115
5.7662e-09
0.00324115
5.76514e-09
0.00324115
5.22269e-09
0.00324114
1.64119e-08
0.00324114
4.99028e-09
0.00324114
2.91844e-09
0.00324122
-1.07413e-07
0.00324124
-6.32147e-08
0.0032418
-7.30946e-07
0.00324192
-3.64526e-07
0.00324625
-5.13619e-06
0.00324356
2.25271e-06
0.00323702
1.21358e-05
0.00323393
4.79069e-06
0.00321565
2.41795e-05
0.00322765
-3.53044e-05
0.00323621
-6.92723e-05
0.00317763
4.24126e-05
0.00309589
0.000262404
0.00302167
0.000306745
0.00294842
0.000297693
0.00287036
0.000292966
0.00278603
0.00030235
0.0026965
0.000320519
0.00260404
0.000337913
0.00250835
0.000352445
0.00240924
0.000365371
0.00230665
0.000378046
0.00220092
0.000390881
0.00209174
0.000404197
0.00197907
0.000417791
0.00186322
0.000432016
0.00174423
0.000447051
0.00162144
0.000463292
0.00149429
0.000480334
0.00136325
0.000498331
0.00122828
0.000517808
0.00108891
0.000538211
0.000945007
0.000558972
0.000797071
0.000579748
0.000645012
0.000601266
0.000488909
0.000624308
0.000328114
0.000650614
0.000164636
0.000683871
0.000730843
0.00336158
6.48231e-09
0.00336158
6.386e-09
0.00336158
6.88036e-09
0.00336158
7.04872e-09
0.00336158
7.25283e-09
0.00336158
7.43265e-09
0.00336158
7.70948e-09
0.00336157
8.01774e-09
0.00336158
1.13793e-08
0.00336158
7.83473e-09
0.00336157
3.607e-09
0.00336149
-2.05787e-08
0.0033614
-1.97068e-08
0.0033609
-1.23712e-07
0.0033606
-5.05822e-08
0.00335476
-7.31603e-07
0.00335575
1.12338e-06
0.00337606
3.53513e-06
0.00335616
7.00181e-06
0.00338181
8.70686e-06
0.00335792
-1.29298e-05
0.00331057
-2.95962e-05
0.00321723
0.00013478
0.00313614
0.00034258
0.00307383
0.000369052
0.00300691
0.000364473
0.00293213
0.000367608
0.00284642
0.000387775
0.00275552
0.000410964
0.002662
0.000431427
0.00256495
0.000449451
0.00246372
0.000466456
0.00235839
0.000483192
0.00224915
0.000500139
0.00213572
0.000517408
0.00201831
0.000534925
0.00189752
0.000553074
0.00177282
0.00057213
0.00164386
0.00059198
0.00151073
0.000612533
0.0013741
0.000634034
0.00123409
0.000656921
0.0010903
0.000680724
0.000942738
0.000704757
0.00079185
0.000729058
0.000638506
0.000754071
0.000481634
0.00078117
0.000322971
0.000809716
0.000160921
0.000846274
0.000890709
0.00348648
6.1293e-09
0.00348648
6.23758e-09
0.00348648
6.77538e-09
0.00348648
7.38141e-09
0.00348648
7.84715e-09
0.00348648
8.2243e-09
0.00348648
8.58796e-09
0.00348648
9.01988e-09
0.00348648
9.41521e-09
0.00348648
8.18698e-09
0.00348648
7.41691e-09
0.00348644
1.72645e-08
0.00348634
4.04526e-08
0.00348621
1.21242e-07
0.00348572
3.13199e-07
0.00348293
9.31498e-07
0.00348263
1.18958e-06
0.00349706
-3.13105e-07
0.00348185
5.23756e-06
0.00349419
7.38472e-06
0.00348372
-5.03311e-06
0.00344874
-2.41601e-06
0.00335446
0.000228054
0.00323634
0.000459732
0.0031728
0.000433104
0.00310053
0.000436728
0.00301979
0.000448275
0.00292629
0.000480973
0.00282845
0.000508343
0.00272874
0.000530978
0.00262623
0.000551789
0.00252037
0.000572174
0.00241084
0.000592512
0.00229774
0.000613125
0.00218055
0.000634255
0.00205956
0.000655711
0.00193495
0.000678107
0.00180603
0.000701308
0.00167241
0.000725112
0.00153491
0.00074939
0.00139352
0.000774902
0.00124832
0.000801076
0.00109959
0.000827936
0.000947602
0.000854965
0.000793574
0.000881727
0.000637647
0.000909607
0.000480315
0.000938602
0.000320007
0.000970567
0.000160132
0.00100636
0.00104972
0.00361602
5.76625e-09
0.00361602
5.98157e-09
0.00361602
6.52465e-09
0.00361602
7.37284e-09
0.00361602
7.96136e-09
0.00361602
8.42695e-09
0.00361602
8.77743e-09
0.00361602
9.05121e-09
0.00361602
8.95454e-09
0.00361602
9.05497e-09
0.00361602
1.16489e-08
0.00361599
3.15965e-08
0.00361601
6.67282e-08
0.0036158
2.00296e-07
0.00361576
4.14212e-07
0.00361957
1.31403e-06
0.00361555
2.47299e-06
0.00357934
2.04988e-06
0.00360844
6.8017e-06
0.00360404
9.21585e-06
0.00359631
3.71964e-06
0.00356734
2.53203e-05
0.00345456
0.000336943
0.00334763
0.00056516
0.00326909
0.000512319
0.00318914
0.00051681
0.00310153
0.000535859
0.00300395
0.000578198
0.00290251
0.000609319
0.00279863
0.00063459
0.00269175
0.00065837
0.00258174
0.000682024
0.00246816
0.000705815
0.00235101
0.000729981
0.00222994
0.000754859
0.00210528
0.000780323
0.00197683
0.000807003
0.00184356
0.000834359
0.00170575
0.000862119
0.00156421
0.000890595
0.00141846
0.000920174
0.00126858
0.000949543
0.00111563
0.000979064
0.000959489
0.00100914
0.000801283
0.00103855
0.000642402
0.00106823
0.00048175
0.00109952
0.000322069
0.00113092
0.000159816
0.00116915
0.00120826
0.00375038
5.4058e-09
0.00375038
5.6472e-09
0.00375038
6.1702e-09
0.00375038
7.08659e-09
0.00375038
7.75541e-09
0.00375038
8.26397e-09
0.00375038
8.61176e-09
0.00375038
8.81578e-09
0.00375038
8.52099e-09
0.00375038
9.42694e-09
0.00375038
1.40925e-08
0.00375036
3.93023e-08
0.00375039
8.28139e-08
0.00375019
2.42901e-07
0.00375029
4.96094e-07
0.0037538
1.51792e-06
0.00375067
3.01131e-06
0.00371564
4.19244e-06
0.00374325
8.56925e-06
0.00373803
1.2306e-05
0.00373019
1.23496e-05
0.00370518
4.96053e-05
0.00359181
0.00044561
0.00348923
0.000666899
0.00339528
0.000606497
0.00329587
0.000616078
0.00319438
0.000637101
0.00309207
0.000680179
0.00298689
0.000714158
0.00287865
0.0007427
0.00276726
0.000769576
0.00265277
0.000796374
0.00253487
0.000823455
0.00241335
0.000851117
0.00228814
0.00087957
0.00215952
0.000909075
0.00202693
0.000939937
0.00188935
0.000971606
0.00174719
0.00100366
0.00160117
0.0010365
0.00145055
0.00107028
0.00129541
0.00110326
0.00113757
0.00113533
0.000977776
0.0011673
0.00081593
0.00119919
0.000652882
0.00123108
0.000490018
0.00126267
0.00032531
0.00129656
0.000162309
0.00133212
0.00136964
0.00388972
5.04323e-09
0.00388972
5.28121e-09
0.00388972
5.76995e-09
0.00388972
6.68843e-09
0.00388972
7.36048e-09
0.00388972
7.88655e-09
0.00388972
8.23957e-09
0.00388972
8.43107e-09
0.00388972
8.16077e-09
0.00388973
9.13295e-09
0.00388972
1.43896e-08
0.00388973
3.99455e-08
0.00388968
8.7448e-08
0.0038898
2.46943e-07
0.00388948
5.36116e-07
0.00388622
1.49471e-06
0.0038883
2.91481e-06
0.0039203
2.92327e-06
0.00388974
1.04537e-05
0.00388819
1.51965e-05
0.00387612
2.06945e-05
0.00384745
7.468e-05
0.00370486
0.000583812
0.00366334
0.000708418
0.00353375
0.000736432
0.0034165
0.000733096
0.00330137
0.000752159
0.0031935
0.000787688
0.00308332
0.000823942
0.0029699
0.000855842
0.00285381
0.000885511
0.00273484
0.000915238
0.00261251
0.000945467
0.00248645
0.000976634
0.00235689
0.0010087
0.0022239
0.00104218
0.00208683
0.00107706
0.00194485
0.00111292
0.0017985
0.00114932
0.00164826
0.00118659
0.00149336
0.0012243
0.00133337
0.00126151
0.0011693
0.00129756
0.00100322
0.00133192
0.000836717
0.00136504
0.000669333
0.00139841
0.000500619
0.00143178
0.000334096
0.00146385
0.000165808
0.00150107
0.00153421
0.00403424
4.67337e-09
0.00403424
4.89153e-09
0.00403424
5.34495e-09
0.00403425
6.20743e-09
0.00403425
6.86943e-09
0.00403425
7.36758e-09
0.00403425
7.69807e-09
0.00403425
7.86952e-09
0.00403425
7.71882e-09
0.00403425
7.4214e-09
0.00403426
1.11455e-08
0.00403426
2.55892e-08
0.00403434
6.12642e-08
0.00403422
1.64534e-07
0.00403502
2.72659e-07
0.00403792
8.58629e-07
0.00403663
2.11638e-06
0.00401073
2.02626e-06
0.00403408
1.01641e-05
0.0040306
1.73805e-05
0.00402001
3.22378e-05
0.00399712
9.62716e-05
0.00386325
0.00071268
0.00376056
0.000809038
0.0036569
0.000840195
0.00353989
0.000850422
0.00342168
0.00087109
0.00330773
0.000901763
0.0031925
0.000938889
0.00307407
0.000973916
0.00295304
0.00100635
0.00282927
0.00103898
0.00270209
0.00107241
0.00257135
0.00110699
0.00243687
0.00114279
0.00229905
0.00117998
0.00215714
0.00121908
0.00201055
0.00125892
0.00185952
0.00129987
0.00170372
0.00134198
0.00154346
0.00138329
0.00137954
0.00142348
0.00121171
0.00146363
0.00103992
0.00150192
0.000866237
0.00153775
0.000692563
0.00157222
0.000519436
0.00160546
0.000344685
0.00163964
0.000171559
0.00167376
0.00170445
0.00418414
4.28448e-09
0.00418414
4.50036e-09
0.00418414
4.87937e-09
0.00418414
5.72109e-09
0.00418414
6.24304e-09
0.00418414
6.62558e-09
0.00418414
6.81698e-09
0.00418414
6.81295e-09
0.00418414
6.29733e-09
0.00418414
7.76843e-09
0.00418414
1.43484e-08
0.00418411
4.2314e-08
0.0041841
9.58823e-08
0.00418398
2.70667e-07
0.0041837
5.05496e-07
0.00418026
1.60164e-06
0.00418039
2.73496e-06
0.00423646
2.00936e-06
0.00418989
1.00017e-05
0.00417943
1.5245e-05
0.00417906
3.53425e-05
0.00415695
0.000116572
0.0040233
0.000839509
0.00389975
0.000931963
0.00378665
0.000952814
0.00366824
0.000968552
0.00354869
0.000990727
0.00343092
0.00101942
0.00331121
0.00105826
0.00318938
0.0010955
0.00306479
0.00113087
0.00293735
0.00116649
0.00280618
0.00120344
0.00267099
0.00124173
0.00253199
0.00128136
0.00238981
0.00132242
0.00224306
0.00136574
0.00209147
0.00140978
0.00193638
0.0014548
0.00177604
0.0015021
0.00160873
0.00154891
0.00143728
0.00159281
0.00126282
0.00163627
0.00108552
0.00167763
0.00090602
0.00171625
0.000724333
0.0017535
0.000541528
0.00178848
0.000361183
0.00182098
0.000179488
0.00185591
0.00188273
0.0043396
3.88919e-09
0.0043396
4.08003e-09
0.0043396
4.41348e-09
0.0043396
5.18128e-09
0.0043396
5.66483e-09
0.0043396
5.88643e-09
0.0043396
5.86324e-09
0.0043396
5.59547e-09
0.00433961
4.27685e-09
0.00433961
6.38517e-09
0.00433961
1.10881e-08
0.0043396
4.17314e-08
0.00433963
8.55616e-08
0.00433963
2.63891e-07
0.00433931
5.52099e-07
0.00433734
1.72081e-06
0.00433958
9.59634e-07
0.00439431
-9.41413e-07
0.00435535
6.35616e-06
0.0043543
5.0939e-06
0.00435474
3.63564e-05
0.00433637
0.00013157
0.00421186
0.000957099
0.00407055
0.00107297
0.00393835
0.00108481
0.00381203
0.00109457
0.00368802
0.00111464
0.00356621
0.00114137
0.00344278
0.00118107
0.00331726
0.00122083
0.00318931
0.00125899
0.0030582
0.00129757
0.00292366
0.00133801
0.00278483
0.00138035
0.00264129
0.00142425
0.002494
0.0014697
0.00234295
0.00151704
0.0021861
0.00156604
0.00202496
0.00161546
0.00186058
0.00166598
0.00168986
0.00171798
0.00151277
0.0017683
0.00133113
0.00181641
0.0011447
0.00186197
0.00095586
0.00190405
0.000766206
0.00194319
0.000575648
0.00197969
0.000382201
0.00201542
0.000190263
0.0020474
0.00207142
0.00450084
3.48241e-09
0.00450084
3.63461e-09
0.00450084
3.94416e-09
0.00450084
4.60282e-09
0.00450084
5.12179e-09
0.00450084
5.15884e-09
0.00450084
5.00678e-09
0.00450084
4.60336e-09
0.00450084
2.1431e-09
0.00450085
3.63731e-09
0.00450086
-1.34526e-09
0.00450088
2.95606e-08
0.00450088
1.19057e-08
0.00450111
1.92508e-07
0.00450083
5.9284e-08
0.00450181
5.72908e-07
0.00450653
1.72994e-07
0.00451664
-3.2382e-06
0.00450173
5.51175e-06
0.00452945
-2.47982e-06
0.00451766
4.93429e-05
0.0044836
0.000153605
0.00434769
0.00107515
0.00419882
0.00122122
0.00406201
0.00122157
0.00393543
0.0012207
0.00381363
0.001236
0.00369401
0.00126087
0.00357113
0.00130385
0.00344549
0.00134599
0.0033177
0.00138691
0.00318662
0.00142884
0.00305141
0.00147308
0.00291175
0.00151984
0.00276739
0.00156836
0.00261754
0.00161938
0.00246237
0.00167186
0.00230247
0.00172563
0.00213584
0.00178171
0.00196325
0.00183768
0.00178656
0.00189288
0.00160365
0.00194951
0.00141455
0.00200424
0.00122127
0.00205399
0.00102305
0.00210136
0.000820209
0.00214599
0.000614968
0.00218554
0.000411439
0.00222014
0.000204654
0.00225452
0.00227502
0.00466807
3.06026e-09
0.00466807
3.16702e-09
0.00466807
3.46224e-09
0.00466807
3.99087e-09
0.00466807
4.50173e-09
0.00466807
4.88423e-09
0.00466807
5.08716e-09
0.00466807
5.18685e-09
0.00466807
3.72904e-09
0.00466807
2.49587e-09
0.00466806
6.70923e-10
0.00466809
7.51546e-09
0.00466806
1.83434e-08
0.0046683
7.13952e-08
0.00466772
1.00887e-07
0.00466979
4.69765e-07
0.0046633
2.5115e-07
0.00463339
-2.39226e-07
0.00467941
5.8135e-06
0.00439203
1.23296e-05
0.00465258
5.31952e-05
0.00461277
0.000182549
0.00446519
0.00121627
0.00429636
0.00139116
0.00415244
0.0013647
0.00403118
0.00134099
0.00391725
0.00134916
0.00380207
0.00137553
0.00368422
0.00142154
0.00356298
0.00146704
0.00343904
0.00151095
0.00331106
0.00155698
0.00317885
0.00160526
0.00304086
0.00165743
0.00289758
0.00171125
0.00274947
0.00176761
0.00259403
0.00182707
0.00243229
0.00188659
0.00226556
0.00194844
0.00208982
0.0020128
0.00190662
0.0020745
0.0017186
0.00213616
0.00152176
0.00219991
0.00131614
0.00225811
0.00110682
0.00231015
0.000893053
0.00235945
0.000674204
0.002405
0.000449038
0.00244655
0.000224445
0.0024788
0.00249764
0.00484151
2.61248e-09
0.00484151
2.69253e-09
0.00484151
2.94382e-09
0.00484151
3.38561e-09
0.00484151
3.83895e-09
0.00484151
4.41486e-09
0.00484151
4.64559e-09
0.00484151
4.736e-09
0.00484151
3.28948e-09
0.00484151
7.16218e-10
0.00484151
-1.38325e-10
0.00484152
-7.71553e-10
0.00484151
1.1523e-08
0.00484157
3.06128e-08
0.00484151
7.50466e-08
0.00484373
5.36622e-07
0.00483822
-1.02151e-07
0.00489547
-3.06795e-06
0.00484068
1.27385e-05
0.00494838
-8.30214e-06
0.00483085
0.000108593
0.00472412
0.000227041
0.00458677
0.001377
0.00437653
0.00160223
0.00422199
0.00151827
0.0041059
0.00145571
0.0039943
0.00145963
0.00388815
0.00148108
0.00378063
0.00152911
0.00366805
0.00157931
0.00355276
0.00162674
0.00343282
0.00167698
0.00330751
0.00173043
0.00317715
0.00178802
0.00303849
0.00184936
0.00289398
0.001912
0.00274213
0.00197882
0.00258092
0.0020469
0.00241279
0.00211595
0.00223678
0.00218828
0.00204998
0.00226004
0.00185558
0.0023297
0.00165422
0.00239984
0.00144175
0.00246861
0.00121752
0.00253332
0.000985197
0.00259209
0.000745898
0.00264487
0.000503101
0.00269051
0.000250835
0.00273119
0.00274749
0.00502139
2.14255e-09
0.00502139
2.19842e-09
0.00502139
2.4073e-09
0.0050214
2.76365e-09
0.0050214
3.17969e-09
0.0050214
3.78505e-09
0.0050214
3.55247e-09
0.0050214
3.14922e-09
0.0050214
5.32858e-10
0.00502141
-2.91259e-09
0.00502142
-1.02795e-08
0.00502144
-2.08857e-08
0.00502149
-4.84402e-08
0.00502164
-1.04205e-07
0.00502197
-2.94159e-07
0.00502326
-6.47648e-07
0.00502418
-1.70012e-06
0.00500908
-2.92713e-06
0.0050096
3.22063e-05
0.00486224
-5.04299e-05
0.00492511
0.000248189
0.00495563
0.000158127
0.00473286
0.00160755
0.00447192
0.00186353
0.0043004
0.00168901
0.00419617
0.00155916
0.00408424
0.00157089
0.00398066
0.00158414
0.00387248
0.00163684
0.00376416
0.00168709
0.00365584
0.00173538
0.00354545
0.0017878
0.00342948
0.00184607
0.00330854
0.00190878
0.00318116
0.0019766
0.00304497
0.00204815
0.0029013
0.00212228
0.00274765
0.0021998
0.00258449
0.00227865
0.00241106
0.00236085
0.00222556
0.0024439
0.00202738
0.00252745
0.00181711
0.00260922
0.00159585
0.00268811
0.00136268
0.00276482
0.00111547
0.00283856
0.000853636
0.00290708
0.000575621
0.00297003
0.000291505
0.00301524
0.00303732
0.00520796
1.65342e-09
0.00520796
1.68145e-09
0.00520796
1.86359e-09
0.00520797
2.12631e-09
0.00520797
2.41258e-09
0.00520797
2.69063e-09
0.00520797
3.13745e-09
0.00520797
2.8841e-09
0.00520797
2.73527e-09
0.00520796
3.66825e-09
0.00520794
1.00932e-08
0.00520789
2.28492e-08
0.00520777
6.57827e-08
0.00520759
1.50957e-07
0.00520661
3.11506e-07
0.00520638
6.35937e-07
0.00520969
1.98311e-06
0.00520045
2.71461e-06
0.0051174
8.39908e-06
0.00515726
1.48307e-05
0.00531464
8.07188e-05
0.00516092
0.000307396
0.00556013
0.00120537
0.00528576
0.00213829
0.00495672
0.00201981
0.00471204
0.00180586
0.00451385
0.00176986
0.00433513
0.00176348
0.00416885
0.00180251
0.00401582
0.00183964
0.00387353
0.00187787
0.00374048
0.00192124
0.00361243
0.00197449
0.00348474
0.00203606
0.00335654
0.00210447
0.00322436
0.00218057
0.00308457
0.00226168
0.00293672
0.00234657
0.00277927
0.00243592
0.00261176
0.0025274
0.00243232
0.00262194
0.00223926
0.00271941
0.00202968
0.00281778
0.00180074
0.00291534
0.00155314
0.00301153
0.00128687
0.0031043
0.000999327
0.00319503
0.000690414
0.00327994
0.000350412
0.00335585
0.0033866
0.00540147
1.14312e-09
0.00540147
1.15119e-09
0.00540147
1.31513e-09
0.00540147
1.48443e-09
0.00540147
1.73508e-09
0.00540147
1.84533e-09
0.00540147
2.34628e-09
0.00540147
2.5385e-09
0.00540147
4.02307e-09
0.00540147
7.47922e-09
0.00540145
2.07029e-08
0.00540144
4.45752e-08
0.00540136
1.265e-07
0.00540136
2.34961e-07
0.00540069
7.42201e-07
0.0054005
1.28555e-06
0.00540362
3.81453e-06
0.00539728
5.2487e-06
0.00535373
5.1457e-06
0.00538231
2.74976e-05
0.00539828
6.14677e-05
0.00552461
0.000181109
0.00611324
0.000613519
0.00591174
0.00233326
0.00565822
0.00227397
0.0053388
0.00212728
0.00508182
0.00202733
0.00484943
0.00199631
0.00464094
0.00201081
0.00443675
0.00204336
0.00424579
0.00206933
0.00406869
0.00209904
0.00390548
0.00213828
0.00375207
0.00218985
0.00360573
0.00225053
0.00346415
0.00232198
0.00332239
0.00240318
0.00317632
0.00249196
0.00302308
0.00258873
0.00285998
0.00268988
0.00268607
0.00279484
0.0024981
0.00290621
0.00229259
0.00302196
0.00206751
0.00313861
0.00181846
0.00325894
0.00153924
0.00338294
0.00122612
0.00350804
0.000867954
0.00363989
0.000462408
0.00376106
0.00384775
0.00560216
6.13053e-10
0.00560216
6.51464e-10
0.00560216
8.01032e-10
0.00560216
9.34399e-10
0.00560216
1.15865e-09
0.00560216
1.28109e-09
0.00560216
1.47828e-09
0.00560216
1.82296e-09
0.00560216
3.64352e-09
0.00560216
6.61161e-09
0.00560217
1.87029e-08
0.00560218
3.36198e-08
0.00560221
1.0581e-07
0.00560245
1.12851e-07
0.00560254
4.62565e-07
0.00560302
3.67345e-07
0.00560517
8.4391e-07
0.00561158
8.42605e-07
0.00568944
-1.73844e-06
0.00562693
1.85509e-05
0.00566098
1.84243e-05
0.00569824
0.000154142
0.00586138
0.000441836
0.00598316
0.00218498
0.00584961
0.00240636
0.00564655
0.00233153
0.00546141
0.00221348
0.00526335
0.00219401
0.00507423
0.00220001
0.00488087
0.0022359
0.00468264
0.00226764
0.00448562
0.00229655
0.00429593
0.00232849
0.00411545
0.00237086
0.00394352
0.00242248
0.00378087
0.00248431
0.0036257
0.00255804
0.00347664
0.00264056
0.00332946
0.00273514
0.00317426
0.00284419
0.00300672
0.00296127
0.00282752
0.00308434
0.00263255
0.00321561
0.00241546
0.00335407
0.00217375
0.00349893
0.00189909
0.00365646
0.00157717
0.00383019
0.00118937
0.00402822
0.000686252
0.00426487
0.00453305
0.00581031
1.15239e-10
0.00581031
2.02691e-10
0.00581031
3.19248e-10
0.00581031
4.69151e-10
0.00581031
6.14502e-10
0.00581031
8.17788e-10
0.00581031
1.0125e-09
0.00581031
1.56434e-09
0.00581031
1.9732e-09
0.00581031
5.03293e-09
0.00581033
6.88559e-09
0.00581031
1.66078e-08
0.00581051
2.6567e-08
0.00581039
1.36776e-07
0.00581084
3.89003e-08
0.00581058
5.42296e-07
0.00581371
-1.50872e-07
0.00580943
-1.11803e-06
0.00588481
-6.11831e-06
0.00580651
2.9481e-05
0.00599231
-3.3607e-05
0.00579427
0.000251354
0.00585199
0.000306936
0.00589532
0.00216714
0.00578229
0.00252094
0.00568487
0.00243055
0.00560175
0.00229801
0.00548584
0.00230947
0.00536122
0.00232447
0.0052161
0.00238019
0.00505585
0.00242755
0.00488532
0.0024672
0.00470811
0.00250606
0.00453
0.00254937
0.00435234
0.00260027
0.00417975
0.00265681
0.0040152
0.00272234
0.00385613
0.00279948
0.0036977
0.00289293
0.00354551
0.00299563
0.00339452
0.00311129
0.00323685
0.00324071
0.00307009
0.003381
0.00288516
0.00353724
0.00267682
0.00370557
0.00243712
0.00389452
0.00215094
0.00411619
0.0017855
0.00439615
0.00127873
0.00477107
0.00580942
0.00840003
9.72696e-12
0.00840003
3.7686e-11
0.00840003
8.29288e-11
0.00840003
1.46246e-10
0.00840003
2.28807e-10
0.00840003
3.17823e-10
0.00840003
4.63215e-10
0.00840003
6.24384e-10
0.00840003
1.27482e-09
0.00840004
1.84412e-09
0.00840004
5.19247e-09
0.00840008
1.09298e-08
0.00839998
2.00385e-08
0.00840068
4.12849e-08
0.00840016
1.72708e-07
0.00840024
3.81127e-07
0.00839676
1.53903e-06
0.00840951
3.951e-06
0.00838804
5.05779e-06
0.00828962
1.19788e-05
0.00833391
3.36866e-05
0.00846802
0.000103268
0.00829791
0.000470476
0.00885283
0.00160071
0.00861005
0.00276595
0.00840007
0.00264369
0.00817617
0.00252493
0.00800168
0.00248445
0.00781714
0.00250906
0.00764763
0.00254889
0.00746382
0.00261062
0.00726894
0.00266191
0.00706649
0.00270885
0.00685936
0.00275672
0.00665282
0.00280682
0.0064478
0.0028619
0.0062412
0.00292869
0.0060367
0.00300368
0.0058431
0.00308597
0.00565829
0.00317984
0.00548482
0.00328403
0.00532277
0.00340171
0.00517167
0.00353033
0.00503593
0.00367084
0.00491761
0.00382126
0.00483218
0.00397748
0.00481945
0.00412647
0.00496797
0.00424787
0.0054817
0.00426168
0.00381855
0.00747233
0.00840003
1.26014e-12
0.00840003
5.78836e-12
0.00840003
1.51829e-11
0.00840003
3.1919e-11
0.00840003
5.70463e-11
0.00840003
9.30452e-11
0.00840003
1.43286e-10
0.00840003
2.2137e-10
0.00840003
3.46052e-10
0.00840003
6.38579e-10
0.00840004
7.53464e-10
0.00840006
1.98288e-09
0.00840004
1.0075e-09
0.00840014
-1.43436e-09
0.00840029
2.13169e-08
0.0084004
5.86632e-08
0.00840239
2.60027e-07
0.00840197
8.90235e-07
0.00840846
2.5025e-06
0.00834926
4.28209e-06
0.00841567
2.66094e-05
0.00845773
5.68718e-05
0.0086952
0.000233785
0.00958358
0.000705471
0.00942722
0.00291488
0.00912066
0.00294873
0.00878761
0.00285749
0.00853866
0.00273295
0.00832217
0.00272489
0.008109
0.00276137
0.00790759
0.00281138
0.00770897
0.00286031
0.00751256
0.00290525
0.00732326
0.00294615
0.00713946
0.00299069
0.00695896
0.00304239
0.00678914
0.00309839
0.00663157
0.00316097
0.00648783
0.00322929
0.00635915
0.00330794
0.00624981
0.00339272
0.00616369
0.00348742
0.0061075
0.00358575
0.00608847
0.00368857
0.00612541
0.00378202
0.00623731
0.00386324
0.00646328
0.00389849
0.00684051
0.00386759
0.00737661
0.00372602
0.00328148
0.00791514
0.00840003
1.67729e-13
0.00840003
9.36486e-13
0.00840003
3.25305e-12
0.00840003
7.26738e-12
0.00840003
1.72228e-11
0.00840003
3.29123e-11
0.00840003
6.68333e-11
0.00840003
1.07534e-10
0.00840003
3.10452e-10
0.00840003
4.59441e-10
0.00840004
2.00895e-09
0.00839996
3.80185e-09
0.00840012
1.17956e-08
0.00839951
1.89275e-08
0.00839977
9.55143e-08
0.0084004
1.5681e-07
0.00840403
6.21075e-07
0.00841653
1.53287e-06
0.00841379
2.8004e-06
0.00853961
3.08755e-06
0.00842812
1.89349e-05
0.00862353
3.2493e-05
0.00854399
0.000171013
0.0086286
0.000491029
0.00909152
0.00250123
0.00901918
0.00302222
0.00885027
0.0030249
0.00869382
0.00288798
0.00853972
0.00287758
0.00838857
0.00291135
0.00823383
0.00296513
0.00807675
0.00301695
0.00791955
0.00306216
0.00776143
0.00310405
0.00760683
0.00314512
0.0074595
0.00318962
0.00732261
0.00323537
0.00719966
0.00328412
0.00709355
0.00333554
0.00701032
0.00339091
0.0069549
0.00344776
0.00693347
0.00350856
0.00695359
0.00356517
0.00702105
0.00362079
0.0071457
0.00365649
0.00733264
0.00367444
0.00758655
0.00364316
0.0078948
0.00355688
0.00822042
0.00339859
0.00302
0.00848112
0.00840003
4.78059e-14
0.00840003
2.29938e-13
0.00840003
9.19905e-13
0.00840003
1.91175e-12
0.00840003
5.15935e-12
0.00840003
9.39089e-12
0.00840003
2.49539e-11
0.00840003
4.60893e-11
0.00840003
1.36576e-10
0.00840003
2.25305e-10
0.00840004
1.00912e-09
0.00840003
1.60158e-09
0.00840003
7.19525e-09
0.00840024
1.21972e-08
0.00840005
5.6996e-08
0.00840062
8.8343e-08
0.00840099
4.18208e-07
0.00840139
9.89241e-07
0.00839994
2.16749e-06
0.00836977
3.54768e-06
0.00841262
1.43152e-05
0.00810054
2.25329e-05
0.00846217
0.000162911
0.00847353
0.000392749
0.00893485
0.0020601
0.00887798
0.00307939
0.00876253
0.00313927
0.0086202
0.00302985
0.00851558
0.00298163
0.00841673
0.00300951
0.00833196
0.00304922
0.00824309
0.00310537
0.00815369
0.00315133
0.00806163
0.0031959
0.00796711
0.00323979
0.00787773
0.00327893
0.00779585
0.0033171
0.00772291
0.00335734
0.00766463
0.00339412
0.00762273
0.00343293
0.00760675
0.00346335
0.00761913
0.0034958
0.00767037
0.00351343
0.00776169
0.00352879
0.00789926
0.00351875
0.00807937
0.00349339
0.00829413
0.00342763
0.00852754
0.00332215
0.00875689
0.00316778
0.00288659
0.00888891
0.00840003
2.47262e-14
0.00840003
4.87954e-14
0.00840003
4.06296e-13
0.00840003
4.22853e-13
0.00840003
3.21781e-12
0.00840003
2.80673e-12
0.00840003
2.03112e-11
0.00840003
2.01071e-11
0.00840003
1.36964e-10
0.00840003
6.3674e-11
0.00840003
1.22301e-09
0.00840002
7.49871e-10
0.00840006
6.61881e-09
0.00839988
6.25979e-09
0.00840011
5.21234e-08
0.00839969
1.64419e-08
0.00839951
3.92059e-07
0.00840071
4.04719e-07
0.00840224
1.19143e-06
0.00842816
6.85979e-07
0.0083909
1.83155e-05
0.00861979
4.46423e-06
0.00839726
0.000166247
0.0086323
0.000168334
0.00971654
0.000952069
0.00941916
0.00337334
0.00920839
0.00335102
0.00892584
0.00331281
0.00877342
0.00313426
0.00865782
0.00312528
0.00854887
0.00315837
0.00845929
0.00319507
0.00837861
0.00323213
0.00830611
0.00326856
0.00824588
0.00330038
0.00819615
0.00332913
0.00815825
0.00335526
0.00813158
0.00338412
0.00812092
0.00340541
0.00812521
0.00342875
0.00814941
0.0034396
0.00819541
0.00344932
0.00826651
0.00344264
0.00836654
0.00342816
0.00849238
0.00339275
0.00864649
0.00333878
0.00881608
0.0032576
0.00899394
0.00314353
0.00916123
0.00299977
0.00277928
0.00926754
0.00840003
5.40675e-15
0.00840003
2.9607e-14
0.00840003
9.23012e-14
0.00840003
3.35093e-13
0.00840003
9.15627e-13
0.00840003
2.53551e-12
0.00840003
6.80969e-12
0.00840003
1.25885e-11
0.00840003
4.02465e-11
0.00840003
1.32809e-10
0.00840003
4.00089e-10
0.00840003
1.46756e-09
0.00840002
3.85625e-09
0.00840006
8.20917e-09
0.00840017
1.73846e-08
0.00840014
6.02491e-08
0.00840069
1.39215e-07
0.0084006
4.71704e-07
0.00840398
1.16806e-06
0.00839855
2.13236e-06
0.00836139
5.65749e-06
0.00841715
1.76591e-05
0.00812626
4.54126e-05
0.00849131
0.000191136
0.00885669
0.000528461
0.00964186
0.00262106
0.00948651
0.00350786
0.00930307
0.0034971
0.00910958
0.00332929
0.00896366
0.00327157
0.0088522
0.00327021
0.00875767
0.00329004
0.00867636
0.00331382
0.00860718
0.00333809
0.00855318
0.00335462
0.00851437
0.00336825
0.00849102
0.0033789
0.00848322
0.00339211
0.00849157
0.00339722
0.0085177
0.00340268
0.0085605
0.00339691
0.00862274
0.00338693
0.00870168
0.00336331
0.00880008
0.00332949
0.00891368
0.0032785
0.00904075
0.00321112
0.00917618
0.00312142
0.00931007
0.00300894
0.00943949
0.00286954