/*--------------------------------*- C++ -*----------------------------------*\
| =========                 |                                                 |
| \\      /  F ield         | OpenFOAM: The Open Source CFD Toolbox           |
|  \\    /   O peration     | Version:  2112                                  |
|   \\  /    A nd           | Website:  www.openfoam.com                      |
|    \\/     M anipulation  |                                                 |
\*---------------------------------------------------------------------------*/
FoamFile
{
    version     2.0;
    format      ascii;
    arch        "LSB;label=32;scalar=64";
    class       volScalarField;
    location    "3";
    object      T;
}
// * * * * * * * * * * * * * * * * * * * * * * * * * * * * * * * * * * * * * //

dimensions      [0 0 0 1 0 0 0];

internalField   nonuniform List<scalar> 
7000
(
1
1
1
1
1
1
1
1.00001
1.00001
1.00003
1.00003
1.00033
1.00055
1.0023
1.00331
1.01199
1.02019
1.05382
1.142
1.37401
1.82514
2.59345
2.72512
2.70343
2.66929
2.66472
2.67555
2.68447
2.69385
2.70042
2.70565
2.71127
2.71673
2.72224
2.72749
2.73262
2.73758
2.74219
2.74596
2.75063
2.75591
2.76078
2.76506
2.77027
2.77856
2.78698
2.79035
2.78983
2.78073
2.78719
1
1
1
1
1
1
1
1.00001
1.00001
1.00003
1.00003
1.00032
1.00052
1.00219
1.00314
1.01122
1.01899
1.049
1.14048
1.35739
1.82805
2.6101
2.72861
2.70623
2.67355
2.6692
2.67937
2.68784
2.69716
2.70367
2.70907
2.71478
2.72027
2.72573
2.73142
2.73638
2.74149
2.74627
2.74987
2.75473
2.76016
2.76496
2.7688
2.77391
2.78236
2.78969
2.79171
2.79009
2.78027
2.78688
1
1
1
1
1
1
1
1.00001
1
1.00003
1.00003
1.00031
1.00052
1.00212
1.00307
1.01063
1.0183
1.0468
1.13833
1.3504
1.82765
2.62021
2.72824
2.70677
2.67508
2.67099
2.68059
2.68837
2.69761
2.70376
2.70904
2.71447
2.71978
2.72523
2.73018
2.73555
2.7403
2.74489
2.74847
2.75325
2.75884
2.76382
2.76872
2.77457
2.78241
2.78996
2.79205
2.79055
2.78031
2.78796
1
1
1
1
1
1
1
1.00001
1
1.00003
1.00003
1.00031
1.00053
1.00203
1.00303
1.01003
1.01738
1.04566
1.13394
1.34195
1.81791
2.61449
2.72683
2.70484
2.67513
2.67156
2.68116
2.689
2.69831
2.70479
2.71009
2.71562
2.72105
2.7266
2.73123
2.73651
2.74114
2.74548
2.74883
2.75318
2.75853
2.76346
2.76855
2.77509
2.78285
2.78784
2.78899
2.78649
2.77765
2.78604
1
1
1
1
1
1
1
1
1.00001
1.00001
1.00011
1.00022
1.00101
1.00151
1.00589
1.00561
1.01828
1.03499
1.14035
1.33583
1.8303
2.61538
2.72386
2.70241
2.67448
2.67143
2.68052
2.688
2.69752
2.70382
2.70941
2.71481
2.7206
2.726
2.73105
2.73661
2.74129
2.74499
2.74891
2.75378
2.75907
2.764
2.76868
2.77465
2.78161
2.78655
2.78675
2.78525
2.77428
2.78659
1
1
1
1
1
1
1
1
1.00001
1.00001
1.00011
1.00022
1.00099
1.00139
1.00582
1.0049
1.01703
1.03309
1.13574
1.3256
1.82077
2.6105
2.72146
2.70048
2.67405
2.67108
2.67961
2.68664
2.69599
2.7024
2.70811
2.71349
2.71904
2.72452
2.72956
2.73526
2.7396
2.74346
2.7477
2.75285
2.75682
2.76168
2.76686
2.77292
2.78018
2.784
2.78446
2.78021
2.77292
2.78295
1
1
1
1
1
1
1
1
1.00001
1.00001
1.00011
1.00021
1.00094
1.00133
1.00533
1.0051
1.018
1.02914
1.12846
1.31466
1.81279
2.60551
2.72054
2.70006
2.6768
2.67254
2.68013
2.68637
2.69556
2.70192
2.70754
2.71272
2.71783
2.72314
2.72811
2.73351
2.73744
2.74153
2.74669
2.75164
2.75499
2.76012
2.7658
2.77071
2.77706
2.78132
2.7809
2.77933
2.76822
2.78309
1
1
1
1
1
1
1
1
1
1.00001
1.0001
1.00019
1.00087
1.0012
1.00499
1.00451
1.01687
1.02619
1.12291
1.30093
1.80019
2.59708
2.71848
2.6962
2.68022
2.67439
2.68221
2.6874
2.69655
2.70269
2.70792
2.7128
2.71771
2.72246
2.72723
2.73173
2.73502
2.73885
2.74387
2.74858
2.75219
2.758
2.76517
2.77087
2.77484
2.77701
2.77709
2.77167
2.76529
2.77869
1
1
1
1
1
1
1
1
1
1.00001
1.00009
1.00018
1.00079
1.00105
1.00463
1.00373
1.01549
1.02251
1.11875
1.28546
1.78515
2.58641
2.71354
2.6852
2.68111
2.67435
2.68122
2.68723
2.69688
2.70358
2.70895
2.71346
2.71815
2.72247
2.72702
2.73053
2.73339
2.73672
2.74104
2.74466
2.74772
2.75221
2.75854
2.76659
2.77305
2.77424
2.77255
2.7706
2.76055
2.77606
1
1
1
1
1
1
1
1
1
1.00001
1.00008
1.00016
1.00069
1.0009
1.00405
1.00308
1.01419
1.01892
1.11033
1.27077
1.76922
2.578
2.70063
2.68701
2.6807
2.67271
2.67808
2.68381
2.69373
2.70066
2.70694
2.71194
2.71716
2.72199
2.72646
2.73046
2.73312
2.73649
2.73995
2.74287
2.74754
2.75251
2.75576
2.75998
2.76568
2.7691
2.76831
2.7614
2.75525
2.77128
1
1
1
1
1
1
1
1
1
1.00001
1.00008
1.00015
1.00064
1.00089
1.00369
1.00273
1.01256
1.01226
1.10339
1.25349
1.74893
2.55773
2.69063
2.68791
2.67879
2.67113
2.67582
2.68182
2.69124
2.69784
2.70345
2.70863
2.71346
2.71855
2.72338
2.72752
2.72961
2.73345
2.7368
2.73741
2.74055
2.74826
2.75378
2.75895
2.76251
2.76271
2.76188
2.7602
2.75151
2.76747
1
1
1
1
1
1
1
1
1
1.00001
1.00007
1.00013
1.00053
1.00077
1.00307
1.00241
1.01084
1.00798
1.09493
1.23591
1.72455
2.52648
2.6772
2.68515
2.67742
2.66943
2.67461
2.68002
2.6893
2.69607
2.70088
2.7058
2.71065
2.71502
2.71983
2.72472
2.72808
2.73072
2.73549
2.73817
2.73823
2.74182
2.74627
2.75081
2.75691
2.75945
2.7567
2.7476
2.74346
2.75993
1
1
1
1
1
1
1
1
1
1.00001
1.00005
1.00011
1.00043
1.00058
1.00252
1.00212
1.01528
1.00492
1.08995
1.21855
1.69422
2.49171
2.65988
2.68477
2.67618
2.66803
2.67159
2.67907
2.6865
2.6936
2.69812
2.70249
2.70657
2.71063
2.71428
2.71726
2.72111
2.72467
2.72665
2.73167
2.73665
2.73835
2.74197
2.74735
2.74874
2.74903
2.749
2.7475
2.73822
2.75497
1
1
1
1
1
1
1
1
1
1.00001
1.00003
1.00016
1.00027
1.0008
1.00209
1.00243
1.0148
1.00806
1.08501
1.2075
1.65137
2.44531
2.63712
2.68536
2.67638
2.66813
2.67043
2.67759
2.68545
2.69157
2.6965
2.7004
2.70516
2.70814
2.71295
2.71534
2.71694
2.72101
2.72301
2.72292
2.72853
2.73214
2.73145
2.73672
2.744
2.74376
2.73892
2.72936
2.72798
2.74257
1
1
1
1
1
1
1
1
1
1.00001
1.00003
1.00015
1.00025
1.00079
1.00184
1.0026
1.01391
1.00549
1.07734
1.17448
1.61206
2.37874
2.6077
2.686
2.67668
2.66832
2.66994
2.67626
2.68282
2.68827
2.69255
2.69519
2.69981
2.70267
2.7049
2.70964
2.71009
2.7132
2.71686
2.71804
2.72047
2.7259
2.72734
2.72685
2.72849
2.73185
2.73173
2.72859
2.71725
2.73601
1
1
1
1
1
1
1
1
1
1.00002
1.00003
1.00013
1.00019
1.00069
1.00124
1.00253
1.01135
1.00874
1.07102
1.15028
1.55883
2.29659
2.56584
2.6837
2.67584
2.66903
2.66983
2.67622
2.68235
2.68785
2.69187
2.69435
2.697
2.70078
2.70198
2.70377
2.70594
2.706
2.70831
2.708
2.70963
2.71187
2.71594
2.72052
2.72172
2.7183
2.71384
2.70425
2.70475
2.71524
1
1
1
1
1
1
1
1
1
1.00003
1.00004
1.00017
1.00026
1.00093
1.00142
1.00546
1.00435
1.01888
1.03571
1.15853
1.37828
1.96818
2.49993
2.67129
2.66137
2.65723
2.658
2.66504
2.67181
2.67889
2.68361
2.68776
2.68998
2.69292
2.696
2.69658
2.69801
2.70027
2.70133
2.70277
2.70219
2.70081
2.69972
2.70185
2.7048
2.70796
2.70386
2.69659
2.68246
2.70245
1
1
1
1
1
1
1
1
1
1.00002
1.00003
1.00013
1.0002
1.0006
1.00109
1.00433
1.00398
1.01588
1.02645
1.12208
1.30575
1.77858
2.50914
2.64976
2.63634
2.63697
2.63543
2.64779
2.65341
2.6649
2.6713
2.67721
2.68175
2.68433
2.68743
2.68837
2.68777
2.68821
2.68786
2.68818
2.69078
2.69082
2.68992
2.68798
2.68524
2.68088
2.67737
2.66457
2.65941
2.66437
1
1
1
1
1
1
1
1
1
1.00001
1.00002
1.00007
1.00013
1.00032
1.00059
1.00203
1.00275
1.01406
1.00644
1.09807
1.24542
1.72697
2.4967
2.64346
2.64151
2.63367
2.62476
2.63338
2.63834
2.64598
2.65457
2.65928
2.66642
2.67027
2.67541
2.67872
2.68064
2.68008
2.67809
2.67501
2.67175
2.67073
2.66816
2.66878
2.66702
2.66296
2.6523
2.63872
2.61446
2.62366
1
1
1
1
1
1
1
1
1
1.00001
1.00001
1.00003
1.00004
1.00025
1.00039
1.0021
1.00228
1.01576
1.00525
1.08393
1.18899
1.64947
2.41783
2.61199
2.65919
2.647
2.6357
2.63278
2.63651
2.6394
2.644
2.64683
2.64942
2.6527
2.65484
2.6591
2.66126
2.66566
2.66572
2.66415
2.66081
2.65433
2.64909
2.63856
2.63357
2.62293
2.6111
2.58333
2.54759
2.4731
1
1
1
1
1
1
1
1
1
1
1.00001
1.00002
1.00009
1.00007
1.00076
1.00117
1.00707
1.00628
1.02601
1.04675
1.1877
1.44565
2.07305
2.50343
2.64131
2.63228
2.63083
2.62679
2.63074
2.63234
2.63582
2.63813
2.63922
2.63908
2.63831
2.63743
2.63568
2.63497
2.63273
2.63201
2.62995
2.62645
2.61919
2.61084
2.59327
2.57696
2.54418
2.50241
2.41845
2.29861
1
1
1
1
1
1
1
1
1
1
1
1.00001
1.00003
1.00003
1.00024
1.00036
1.00228
1.00209
1.01548
1.02474
1.11925
1.29875
1.76533
2.48478
2.60978
2.60548
2.59677
2.59267
2.59609
2.60504
2.61127
2.61747
2.6205
2.62388
2.62422
2.62363
2.62135
2.61595
2.61124
2.60212
2.59506
2.58331
2.57295
2.55657
2.54084
2.51176
2.48067
2.42003
2.33858
2.21353
1
1
1
1
1
1
1
1
1
1
1.00001
1.00001
1.00006
1.00006
1.00042
1.00066
1.0033
1.00274
1.01852
1.00388
1.09631
1.22117
1.684
2.44362
2.60103
2.61876
2.60203
2.58691
2.58104
2.58395
2.58637
2.58909
2.59142
2.59248
2.59528
2.59477
2.59366
2.59098
2.58671
2.57969
2.56963
2.55612
2.53856
2.51611
2.48939
2.45496
2.41309
2.35741
2.27923
2.19469
1
1
1
1
1
1
1
1
1
1
1
1
1.00002
1.00003
1.0002
1.00027
1.00165
1.00179
1.01291
1.0056
1.07357
1.16214
1.55015
2.2611
2.51498
2.61196
2.59654
2.59002
2.58056
2.57903
2.5792
2.5789
2.57771
2.57578
2.57167
2.56759
2.56227
2.55674
2.55043
2.54174
2.53323
2.51856
2.50469
2.4799
2.4564
2.41767
2.37959
2.32358
2.26066
2.18749
1
1
1
1
1
1
1
1
1
1
1
1
1.00002
1.00001
1.00016
1.00019
1.00128
1.00132
1.00995
1.00175
1.05247
1.11193
1.3574
1.93457
2.3403
2.54892
2.55218
2.54894
2.54972
2.55278
2.55864
2.56311
2.56343
2.56216
2.55914
2.55267
2.54707
2.53681
2.52864
2.51374
2.50266
2.48326
2.46755
2.4422
2.41789
2.38419
2.34637
2.30107
2.24383
2.18773
1
1
1
1
1
1
1
1
1
1
1
1
1.00001
1.00004
1.00002
1.00026
1.00038
1.00229
1.00236
1.01675
1.00637
1.08964
1.20672
1.64234
2.36456
2.52782
2.55145
2.53742
2.52596
2.52256
2.52382
2.52694
2.53162
2.53151
2.53063
2.52743
2.52369
2.51543
2.50854
2.49476
2.48244
2.4639
2.44533
2.42197
2.39592
2.36585
2.33083
2.29076
2.24299
2.19256
1
1
1
1
1
1
1
1
1
1
1
1
1
1.00002
1.00002
1.00018
1.00022
1.00145
1.00151
1.01086
1.0046
1.06128
1.13341
1.46531
2.10645
2.41346
2.53903
2.53323
2.5214
2.51241
2.50957
2.50991
2.50944
2.50722
2.50481
2.49993
2.49613
2.4882
2.4815
2.4692
2.45709
2.4398
2.4217
2.39879
2.37475
2.34529
2.31474
2.27767
2.23731
2.19503
1
1
1
1
1
1
1
1
1
1
1
1
1
1.00001
1.00002
1.00011
1.00015
1.00094
1.00099
1.00747
1.00317
1.03715
1.08611
1.26152
1.67064
2.17716
2.46662
2.50467
2.50041
2.49818
2.49358
2.49175
2.49003
2.48504
2.48185
2.47547
2.47171
2.46414
2.45836
2.44823
2.43826
2.42379
2.40821
2.3877
2.36576
2.33891
2.3098
2.27648
2.23873
2.20077
1
1
1
1
1
1
1
1
1
1
1
1
1
1.00001
1.00001
1.00005
1.00004
1.00037
1.0005
1.00315
1.00252
1.02025
1.03351
1.14678
1.35378
1.84019
2.30351
2.46939
2.47849
2.4782
2.47686
2.47361
2.4713
2.46515
2.45915
2.45029
2.4427
2.4331
2.42456
2.41437
2.40461
2.39269
2.38036
2.36508
2.34805
2.32745
2.30345
2.27509
2.24222
2.20913
1
1
1
1
1
1
1
1
1
1
1
1
1
1
1.00001
1.00001
1.00011
1.00012
1.00085
1.00085
1.00637
1.00278
1.0331
1.07333
1.22472
1.59338
2.06431
2.37418
2.43881
2.44488
2.4491
2.45074
2.45129
2.44983
2.44633
2.43862
2.4311
2.41993
2.40877
2.39495
2.38194
2.36682
2.35234
2.33584
2.31944
2.30072
2.28188
2.25999
2.23533
2.20765
1
1
1
1
1
1
1
1
1
1
1
1
1
1
1.00001
1.00001
1.00004
1.00002
1.00032
1.00039
1.00272
1.00282
1.01704
1.00972
1.11243
1.2592
1.68097
2.28249
2.40477
2.40899
2.40573
2.40126
2.40122
2.40297
2.40713
2.40732
2.40584
2.40176
2.39475
2.38399
2.37197
2.35782
2.34253
2.32527
2.30684
2.2872
2.26606
2.24398
2.21888
2.19554
1
1
1
1
1
1
1
1
1
1
1
1
1
1
1
1.00001
1.00001
1.00008
1.0001
1.00062
1.00072
1.00447
1.00488
1.02171
1.03347
1.1597
1.3981
1.87701
2.30381
2.41594
2.41113
2.39612
2.38672
2.37675
2.37219
2.36838
2.36598
2.3621
2.35927
2.35424
2.34814
2.33879
2.32813
2.31495
2.29912
2.28168
2.26185
2.24072
2.21651
2.19273
1
1
1
1
1
1
1
1
1
1
1
1
1
1
1
1
1.00001
1.00002
1.00011
1.00013
1.00085
1.00089
1.00638
1.00113
1.03355
1.07147
1.2159
1.59855
2.00126
2.32009
2.38625
2.38551
2.37948
2.37067
2.36395
2.35772
2.35131
2.34435
2.33634
2.32864
2.31952
2.31066
2.29972
2.28903
2.27691
2.26349
2.24824
2.2307
2.21068
2.18913
1
1
1
1
1
1
1
1
1
1
1
1
1
1
1
1
1.00001
1.00001
1.00007
1.00009
1.00034
1.00068
1.0016
1.00574
1.01509
1.03613
1.10085
1.25068
1.72357
2.0563
2.30319
2.34034
2.34788
2.34958
2.34884
2.34644
2.34172
2.33607
2.32874
2.32035
2.31087
2.30014
2.28828
2.27503
2.26144
2.24624
2.23079
2.21332
2.19479
2.17614
1
1
1
1
1
1
1
1
1
1
1
1
1
1
1
1
1
1.00001
1.00001
1.00007
1.00005
1.00049
1.00055
1.00403
1.00198
1.01532
1.04259
1.0979
1.26172
1.64443
2.10696
2.30791
2.32091
2.319
2.31673
2.31229
2.30956
2.30719
2.3045
2.29989
2.29337
2.28527
2.27601
2.2644
2.25217
2.23786
2.22306
2.20627
2.18795
2.16919
1
1
1
1
1
1
1
1
1
1
1
1
1
1
1
1
1
1
1.00001
1.00001
1.00008
1.00003
1.0004
1.00077
1.00288
0.999918
1.02179
1.05235
1.12239
1.35116
1.72996
2.15683
2.31064
2.31532
2.31294
2.30513
2.29486
2.28634
2.27815
2.27119
2.26375
2.25599
2.24785
2.23936
2.22971
2.21918
2.20684
2.19351
2.17756
2.16177
1
1
1
1
1
1
1
1
1
1
1
1
1
1
1
1
1
1
1
1.00001
1.00004
1.00003
1.00024
1.00026
1.00181
1.00196
1.01269
1.00742
1.06436
1.1344
1.45544
1.98523
2.21
2.30004
2.30548
2.29788
2.29024
2.27854
2.26736
2.25599
2.24695
2.23663
2.2277
2.21725
2.20763
2.19651
2.18559
2.17302
2.15953
2.14529
1
1
1
1
1
1
1
1
1
1
1
1
1
1
1
1
1
1
1
1.00001
1
1.00004
1.00002
1.00031
1.00027
1.00215
1.00206
1.0149
1.00674
1.07201
1.14889
1.48958
2.02512
2.21221
2.28791
2.28957
2.28105
2.2713
2.25884
2.24627
2.23569
2.22564
2.21547
2.20545
2.19442
2.18373
2.17153
2.15982
2.14548
2.13245
1
1
1
1
1
1
1
1
1
1
1
1
1
1
1
1
1
1
1
1
1.00001
1.00001
1.00005
1.00008
1.00033
1.0005
1.00175
1.00382
1.01154
1.02964
1.06511
1.19132
1.5227
1.8954
2.18121
2.25532
2.26093
2.25522
2.24734
2.23657
2.22596
2.21702
2.20703
2.19769
2.18656
2.17605
2.16368
2.15169
2.13727
2.1237
1
1
1
1
1
1
1
1
1
1
1
1
1
1
1
1
1
1
1
1
1
1.00001
1.00002
1.00006
1.00009
1.00035
1.00059
1.00214
1.00402
1.01037
1.03113
1.07896
1.18025
1.55699
1.87188
2.13828
2.20557
2.21883
2.21984
2.21732
2.21184
2.20573
2.19832
2.19108
2.18183
2.1723
2.16091
2.14895
2.13508
2.12125
1
1
1
1
1
1
1
1
1
1
1
1
1
1
1
1
1
1
1
1
1
1.00001
1.00001
1.00003
1.00004
1.00018
1.00024
1.00093
1.00148
1.00493
1.01007
1.03114
1.08121
1.16285
1.49646
1.96693
2.10797
2.16666
2.17195
2.17679
2.17496
2.17321
2.1713
2.16853
2.16585
2.16091
2.15343
2.14406
2.13243
2.12021
1
1
1
1
1
1
1
1
1
1
1
1
1
1
1
1
1
1
1
1
1
1
1
1.00002
1.00002
1.00013
1.00011
1.00051
1.00042
1.00346
1.00211
1.01928
1.0004
1.08067
1.15265
1.45087
1.92116
2.07899
2.15377
2.15871
2.15726
2.15323
2.14599
2.13962
2.13295
2.12904
2.12401
2.12042
2.11351
2.10753
1
1
1
1
1
1
1
1
1
1
1
1
1
1
1
1
1
1
1
1
1
1
1
1
1
1.00002
1.00002
1.00015
1.0001
1.00097
1.00082
1.00642
1.00498
1.02738
1.02563
1.17053
1.38521
1.70722
2.0138
2.12198
2.14396
2.14245
2.14051
2.13283
2.12383
2.11494
2.10705
2.09868
2.09094
2.08165
1
1
1
1
1
1
1
1
1
1
1
1
1
1
1
1
1
1
1
1
1
1
1
1
1
1.00001
1.00002
1.00003
1.00011
1.0002
1.00067
1.00132
1.00304
1.00726
1.02149
1.05594
1.09924
1.33073
1.68052
1.95748
2.11579
2.13295
2.13008
2.12347
2.11706
2.10849
2.10029
2.09036
2.08014
2.06922
1
1
1
1
1
1
1
1
1
1
1
1
1
1
1
1
1
1
1
1
1
1
1
1
1
1
1.00001
1.00001
1.00006
1.00005
1.00023
1.00021
1.00157
1.00141
1.0085
1.00921
1.04167
1.05879
1.27629
1.60957
1.87751
2.0701
2.0976
2.10093
2.10064
2.09606
2.09044
2.08219
2.07261
2.06255
1
1
1
1
1
1
1
1
1
1
1
1
1
1
1
1
1
1
1
1
1
1
1
1
1
1
1
1.00001
1.00001
1.00005
1.00005
1.00023
1.00032
1.00129
1.00189
1.00671
1.01078
1.03755
1.0757
1.17596
1.42393
1.8142
1.98149
2.06083
2.07609
2.07564
2.0716
2.06503
2.05762
2.05019
1
1
1
1
1
1
1
1
1
1
1
1
1
1
1
1
1
1
1
1
1
1
1
1
1
1
1
1
1
1.00002
1.00002
1.00008
1.0001
1.00021
1.00074
1.00021
1.00415
1.01008
1.01714
1.06962
1.12215
1.28291
1.52915
1.84184
2.02694
2.04852
2.04776
2.04227
2.03904
2.02933
1
1
1
1
1
1
1
1
1
1
1
1
1
1
1
1
1
1
1
1
1
1
1
1
1
1
1
1
1
1
1.00001
1.00001
1.00006
1.00007
1.00029
1.00035
1.00148
1.00222
1.00675
1.01284
1.04203
1.082
1.18248
1.42113
1.75742
1.94007
2.02954
2.03395
2.03012
2.01944
1
1
1
1
1
1
1
1
1
1
1
1
1
1
1
1
1
1
1
1
1
1
1
1
1
1
1
1
1
1
1
1
1.00002
1.00002
1.00011
1.00011
1.00053
1.00054
1.00261
1.00273
1.01246
1.01817
1.06464
1.12439
1.25483
1.49735
1.77928
1.95979
2.00432
2.00241
1
1
1
1
1
1
1
1
1
1
1
1
1
1
1
1
1
1
1
1
1
1
1
1
1
1
1
1
1
1
1
1
1
1.00001
1.00001
1.00007
1.00006
1.00026
1.00021
1.00163
1.00165
1.00937
1.00865
1.03445
1.04057
1.1884
1.356
1.56979
1.78405
1.9285
1
1
1
1
1
1
1
1
1
1
1
1
1
1
1
1
1
1
1
1
1
1
1
1
1
1
1
1
1
1
1
1
1
1
1
1.00001
1.00001
1.00003
1.00007
1.00019
1.00027
1.00098
1.00186
1.00299
1.01174
1.03201
1.06153
1.19778
1.37819
1.54732
1
1
1
1
1
1
1
1
1
1
1
1
1
1
1
1
1
1
1
1
1
1
1
1
1
1
1
1
1
1
1
1
1
1
1
1
1
1.00001
1.00001
1.00004
1.00004
1.00021
1.00023
1.00094
0.998865
1.01149
0.962145
1.0357
1.04032
1.25862
1
1
1
1
1
1
1
1
1
1
1
1
1
1
1
1
1
1
1
1
1
1
1
1
1
1
1
1
1
1
1
1
1
1
1
1
1
1
1
1.00002
0.999966
0.999984
0.999548
0.999637
0.996917
1.00082
0.974774
1.01042
1.01639
1.12265
1
1
1
1
1
1
1
1
1
1
1
1
1
1
1
1
1
1
1
1
1
1
1
1
1
1
1
1
1
1
1
1
1
1
1
1
1
1
1
1.00001
0.999991
1
0.999842
0.999879
0.99907
1.00132
0.990533
1.0061
1.01219
1.05519
1
1
1
1
1
1
1
1
1
1
1
1
1
1
1
1
1
1
1
1
1
1
1
1
1
1
1
1
1
1
1
1
1
1
1
1
1
1
1
1
0.999996
1
0.999921
0.999939
0.999556
1.00071
0.995293
1.00321
1.00652
1.02775
1
1
1
1
1
1
1
1
1
1
1
1
1
1
1
1
1
1
1
1
1
1
1
1
1
1
1
1
1
1
1
1
1
1
1
1
1
1
1
1
0.999998
1
0.999959
0.999969
0.99975
1.00041
0.997237
1.00189
1.00342
1.01646
1
1
1
1
1
1
1
1
1
1
1
1
1
1
1
1
1
1
1
1
1
1
1
1
1
1
1
1
1
1
1
1
1
1
1
1
1
1
1
1
1.00001
1.00001
1.00004
1.00004
1.00023
1.00025
1.00129
1.00078
1.00518
1.00581
1
1
1
1
1
1
1
1
1
1
1
1
1
1
1
1
1
1
1
1
1
1
1
1
1
1
1
1
1
1
1
1
1
1
1
1
1
1
1
1
1.00001
1.00001
1.00004
1.00004
1.00021
1.00025
1.0012
1.0009
1.00495
1.00579
1
1
1
1
1
1
1
1
1
1
1
1
1
1
1
1
1
1
1
1
1
1
1
1
1
1
1
1
1
1
1
1
1
1
1
1
1
1
1
1
0.999998
1
0.999971
0.999982
0.999818
1.00034
0.997878
1.00149
1.00233
1.01294
1
1
1
1
1
1
1
1
1
1
1
1
1
1
1
1
1
1
1
1
1
1
1
1
1
1
1
1
1
1
1
1
1
1
1
1
1
1
1
1
1.00001
1
1.00003
1.00001
1.00017
1.00013
1.00108
1.00085
1.00502
1.00587
1.9399
1.84577
1.85097
1.93376
2.03957
2.17265
2.25415
2.34883
2.37624
2.38375
2.38392
2.38836
2.40022
2.41051
2.42662
2.43929
2.45169
2.4717
2.51173
2.593
2.75742
2.96697
3.16862
3.17195
3.17955
3.19258
3.17218
3.09366
3.06327
3.05421
3.04478
3.04061
3.04234
3.05297
3.06636
3.07823
3.0827
3.08362
3.07212
3.06907
3.05836
3.05574
3.04806
3.04432
3.03628
3.03248
3.02389
3.01792
3.00545
2.99822
2.98437
2.97669
2.96267
2.95475
2.94036
2.93156
2.91744
2.90843
2.89481
2.88597
2.87283
2.8641
2.85113
2.84244
2.82944
2.82114
2.80806
2.79997
2.7869
2.77853
2.7654
2.75662
2.7432
2.73412
2.72013
2.71093
2.69623
2.68712
2.67188
2.66294
2.64752
2.63877
2.62327
2.61466
2.59904
2.59042
2.57461
2.56569
2.54973
2.54036
2.52421
2.51428
2.49818
2.48788
2.47224
2.46184
2.44756
2.43799
2.42771
2.4224
1.96074
1.86992
1.84906
1.84988
1.85227
1.83381
1.81124
1.81196
1.8358
1.8724
1.91686
1.93949
1.94464
1.94468
1.94656
1.95207
1.96148
1.97857
2.01357
2.08491
2.23556
2.48924
2.84688
2.94715
3.05831
3.14713
3.2138
3.26646
3.29607
3.29855
3.26221
3.20126
3.15956
3.12233
3.07382
3.02268
2.96464
2.92473
2.88799
2.86716
2.8426
2.82769
2.80681
2.79418
2.77666
2.76622
2.7499
2.73782
2.72079
2.70915
2.69235
2.67976
2.66243
2.64905
2.63117
2.61691
2.59829
2.58341
2.5643
2.54961
2.53063
2.51672
2.49828
2.4852
2.46736
2.45519
2.43828
2.4273
2.41195
2.40203
2.38855
2.3792
2.3674
2.3586
2.34786
2.33994
2.32958
2.32259
2.31206
2.30581
2.29482
2.28901
2.27768
2.27197
2.26061
2.25483
2.24359
2.23776
2.22662
2.22075
2.20965
2.20377
2.19251
2.18652
2.1751
2.16912
2.15795
2.15275
2.14394
2.14292
2.02254
1.94367
1.87633
1.82038
1.75381
1.69923
1.66285
1.66244
1.66814
1.68647
1.71501
1.74418
1.76476
1.77758
1.7848
1.78924
1.79341
1.80151
1.81935
1.86108
1.94896
2.17297
2.42997
2.59316
2.69229
2.7665
2.85663
2.95501
3.04697
3.12256
3.17609
3.16075
3.11551
3.03788
2.96272
2.9037
2.86117
2.83177
2.80681
2.78968
2.77003
2.75559
2.73757
2.72495
2.70862
2.69816
2.68313
2.67143
2.65433
2.64248
2.62682
2.61516
2.59908
2.58669
2.56938
2.55561
2.53653
2.52134
2.50115
2.4851
2.46477
2.44788
2.42818
2.41043
2.39207
2.3738
2.35674
2.3386
2.32243
2.30519
2.2899
2.27411
2.25966
2.2456
2.23178
2.21969
2.2065
2.19621
2.18368
2.17481
2.16278
2.15491
2.14322
2.13595
2.12459
2.11763
2.10657
2.09974
2.08898
2.08246
2.072
2.06614
2.05597
2.05087
2.04103
2.03638
2.02696
2.02327
2.0157
2.01653
2.05211
1.97739
1.90835
1.84377
1.78283
1.73341
1.68899
1.65579
1.63475
1.63252
1.63427
1.64437
1.6609
1.68008
1.69641
1.70838
1.71638
1.72186
1.73196
1.75465
1.80517
1.926
2.10487
2.41762
2.45743
2.52227
2.59492
2.66176
2.72962
2.79417
2.8538
2.85132
2.82509
2.77316
2.7245
2.69206
2.66667
2.64854
2.63646
2.6311
2.62451
2.61942
2.61014
2.60302
2.59227
2.58628
2.57745
2.57165
2.55954
2.54973
2.53594
2.52681
2.51354
2.50433
2.49064
2.48103
2.46711
2.45593
2.44108
2.42759
2.41253
2.3971
2.38214
2.365
2.34995
2.33209
2.31689
2.29918
2.28355
2.26654
2.25063
2.23512
2.21912
2.20555
2.18966
2.17772
2.16243
2.15172
2.13743
2.12775
2.11449
2.10586
2.0932
2.08556
2.07323
2.06616
2.0542
2.04744
2.0358
2.0293
2.01783
2.01166
2.00031
1.9945
1.98336
1.97801
1.96731
1.963
1.95426
1.95419
2.06917
1.99931
1.93282
1.87294
1.8151
1.76376
1.71587
1.67472
1.63754
1.61372
1.60135
1.60137
1.60359
1.61161
1.62483
1.63835
1.65185
1.66316
1.67276
1.68627
1.7153
1.7742
1.93794
2.10729
2.30058
2.37818
2.42494
2.48382
2.53989
2.60639
2.66846
2.67372
2.65614
2.61712
2.58209
2.54861
2.53827
2.53062
2.52465
2.52316
2.51899
2.51558
2.50999
2.50328
2.48902
2.47844
2.46597
2.45812
2.44603
2.43583
2.42079
2.41035
2.3975
2.38853
2.37614
2.36569
2.35303
2.34199
2.33004
2.31847
2.30685
2.2949
2.28337
2.27113
2.25886
2.2461
2.23271
2.21982
2.20535
2.19272
2.17747
2.16565
2.15061
2.1399
2.12569
2.11579
2.10228
2.09284
2.07979
2.07079
2.05804
2.04955
2.03724
2.02952
2.01788
2.01113
2.00007
1.99413
1.9833
1.97778
1.9669
1.96147
1.95058
1.94514
1.9344
1.92888
1.91877
1.91337
1.90513
1.90312
2.08789
2.02192
1.9592
1.90084
1.84499
1.79394
1.74665
1.70444
1.66691
1.6332
1.60546
1.58795
1.57852
1.57806
1.57946
1.58545
1.59374
1.6059
1.61717
1.63023
1.64717
1.68324
1.75863
1.92923
2.14162
2.23867
2.31304
2.36574
2.43142
2.50953
2.56542
2.57474
2.5557
2.52038
2.47879
2.44572
2.42838
2.42091
2.41146
2.41352
2.41424
2.41789
2.41553
2.41252
2.40646
2.39754
2.38459
2.3745
2.36437
2.35789
2.34759
2.33698
2.32407
2.31352
2.30284
2.29393
2.28407
2.27453
2.26387
2.25361
2.24335
2.23435
2.2251
2.21653
2.2059
2.19622
2.18391
2.17412
2.16142
2.15211
2.13916
2.12989
2.1168
2.10765
2.0948
2.08619
2.07378
2.06573
2.05358
2.04586
2.0337
2.02607
2.01378
2.00621
1.99395
1.98653
1.97458
1.96738
1.95588
1.9489
1.93784
1.93107
1.92032
1.91389
1.90336
1.89738
1.88739
1.88217
1.8739
1.87223
2.10262
2.04166
1.98349
1.92818
1.87541
1.82539
1.77922
1.73596
1.69688
1.66125
1.62952
1.60091
1.57993
1.56603
1.55968
1.55874
1.5603
1.56446
1.57283
1.58149
1.5949
1.61535
1.65825
1.75884
1.90279
2.15484
2.21332
2.28414
2.38947
2.47312
2.52271
2.52109
2.49711
2.4606
2.40933
2.36904
2.34761
2.33803
2.33313
2.32123
2.32333
2.32444
2.32742
2.32582
2.32137
2.31642
2.30822
2.29898
2.28836
2.27721
2.26877
2.26049
2.25442
2.24704
2.23873
2.22976
2.22048
2.21314
2.20525
2.19842
2.18949
2.18176
2.17192
2.16462
2.15474
2.14782
2.13755
2.13041
2.1195
2.11187
2.10034
2.09234
2.08051
2.07267
2.06087
2.05296
2.04086
2.03246
2.01989
2.01129
1.99865
1.99031
1.97795
1.97012
1.95817
1.95092
1.93943
1.93276
1.92165
1.91549
1.9047
1.89893
1.88843
1.88284
1.87275
1.86711
1.85765
1.8523
1.84433
1.8422
2.11792
2.05858
2.00278
1.949
1.89852
1.85077
1.80584
1.76419
1.72495
1.68937
1.65618
1.62651
1.59858
1.57547
1.55862
1.54761
1.54162
1.53975
1.54071
1.54403
1.55094
1.5625
1.58705
1.63679
1.76558
1.90493
2.14517
2.24403
2.35358
2.47058
2.50258
2.49658
2.46926
2.42523
2.36644
2.31809
2.29304
2.2768
2.26519
2.25514
2.24544
2.24755
2.25002
2.25534
2.25532
2.25342
2.25063
2.24647
2.24345
2.23697
2.23194
2.22249
2.21535
2.20681
2.20059
2.19443
2.18805
2.18204
2.17372
2.16673
2.15732
2.15097
2.14207
2.13627
2.12694
2.1203
2.11009
2.10316
2.09297
2.08642
2.0764
2.06986
2.05935
2.05214
2.04085
2.0329
2.02106
2.01269
2.00049
1.9918
1.97924
1.97021
1.9573
1.9481
1.93504
1.92601
1.91318
1.90469
1.89238
1.88473
1.87309
1.86636
1.85544
1.84958
1.83931
1.83417
1.82453
1.82014
1.81211
1.81087
2.13724
2.08198
2.02663
1.97268
1.92065
1.87259
1.82691
1.78518
1.74563
1.70953
1.67554
1.64467
1.61601
1.59029
1.56595
1.54703
1.53252
1.52432
1.51974
1.5201
1.52228
1.52836
1.54197
1.57165
1.63036
1.78103
1.97464
2.18306
2.40819
2.52267
2.51688
2.49663
2.46128
2.40073
2.34109
2.29587
2.26234
2.23804
2.21926
2.20907
2.19959
2.19464
2.19587
2.20199
2.20426
2.20998
2.20889
2.20704
2.20496
2.20177
2.19906
2.1935
2.18865
2.18052
2.17308
2.16502
2.15755
2.15182
2.14472
2.13973
2.13167
2.12645
2.11783
2.11216
2.1031
2.09704
2.08786
2.08199
2.07279
2.06688
2.05719
2.05056
2.03985
2.03219
2.0206
2.01234
2.00032
1.99187
1.97964
1.97097
1.95849
1.94968
1.93703
1.9283
1.9157
1.90731
1.89496
1.88708
1.87513
1.86789
1.85639
1.84989
1.83894
1.83311
1.82282
1.81746
1.80803
1.80315
1.79532
1.79353
2.14598
2.10188
2.0533
2.00295
1.95205
1.90347
1.85681
1.81354
1.77288
1.73523
1.70033
1.66786
1.63826
1.61061
1.58602
1.56262
1.54332
1.52749
1.51712
1.51168
1.5121
1.51474
1.52259
1.54143
1.58159
1.67457
1.83013
2.17817
2.45271
2.54779
2.5401
2.52275
2.47519
2.39791
2.33469
2.28646
2.25032
2.21894
2.19432
2.17751
2.16744
2.16124
2.16024
2.161
2.16609
2.17331
2.17583
2.17612
2.17354
2.16874
2.16557
2.16036
2.1559
2.14899
2.14285
2.13643
2.12978
2.12389
2.11602
2.11038
2.10199
2.09686
2.08838
2.08297
2.07422
2.06873
2.06013
2.05494
2.04624
2.04094
2.03168
2.02586
2.01587
2.00934
1.99854
1.99144
1.98018
1.97288
1.96145
1.95404
1.94245
1.93497
1.92335
1.91586
1.90433
1.8969
1.8855
1.87825
1.86702
1.86011
1.84924
1.84263
1.8323
1.82597
1.81624
1.81021
1.8011
1.79562
1.78785
1.78543
2.1424
2.10511
2.06566
2.02264
1.97755
1.93261
1.8882
1.84588
1.80528
1.76761
1.73173
1.69905
1.66795
1.63983
1.61354
1.58978
1.56811
1.54845
1.53227
1.52106
1.51715
1.51877
1.52424
1.53834
1.57001
1.64521
1.77079
2.05617
2.3022
2.56769
2.55047
2.49827
2.44636
2.38786
2.32482
2.27207
2.23341
2.20147
2.17587
2.15784
2.14283
2.13629
2.12974
2.12739
2.12497
2.12771
2.13249
2.13517
2.13636
2.13507
2.13196
2.12839
2.12342
2.11826
2.11089
2.10418
2.09617
2.09014
2.08198
2.07681
2.06877
2.06401
2.05575
2.05071
2.04231
2.03736
2.02903
2.02417
2.01545
2.01025
2.00111
1.99564
1.98634
1.9806
1.9711
1.9651
1.95566
1.94971
1.9405
1.93453
1.92515
1.919
1.90943
1.90338
1.89395
1.88808
1.87873
1.87269
1.86317
1.85677
1.84715
1.84051
1.83095
1.82435
1.81503
1.8086
1.7997
1.79366
1.78599
1.78276
2.14122
2.10535
2.06913
2.03089
1.99096
1.9507
1.91026
1.87107
1.83276
1.7965
1.76171
1.72935
1.69854
1.67029
1.64335
1.61898
1.59604
1.57524
1.55703
1.54126
1.5343
1.53585
1.54153
1.55644
1.59008
1.66052
1.80584
1.95528
2.17754
2.35606
2.48442
2.47154
2.43872
2.40335
2.34471
2.29033
2.24862
2.21158
2.17785
2.15274
2.13176
2.11604
2.10467
2.09491
2.08847
2.08518
2.08339
2.08473
2.08825
2.08993
2.09044
2.08857
2.08522
2.08284
2.07802
2.07333
2.06487
2.0593
2.05107
2.04626
2.03819
2.0332
2.02465
2.01943
2.01094
2.00599
1.99765
1.99278
1.98435
1.97947
1.97111
1.96624
1.95811
1.95316
1.94529
1.94036
1.93285
1.92807
1.92086
1.91633
1.90915
1.90463
1.89706
1.89225
1.88429
1.87929
1.87123
1.8661
1.85786
1.85229
1.84366
1.83753
1.82862
1.82218
1.81333
1.80672
1.79819
1.7917
1.78427
1.78043
2.14236
2.10744
2.07213
2.03627
1.99848
1.96115
1.92377
1.88716
1.85165
1.81746
1.78434
1.75337
1.72307
1.69543
1.66857
1.64371
1.6208
1.59902
1.58065
1.56482
1.55899
1.56147
1.56995
1.59148
1.64101
1.73824
1.87266
1.977
2.06113
2.17517
2.2876
2.39936
2.40875
2.38929
2.3591
2.30709
2.26279
2.21397
2.176
2.14405
2.11685
2.09394
2.07767
2.06323
2.05553
2.04803
2.04549
2.04342
2.04542
2.05005
2.05136
2.05424
2.05354
2.05222
2.04946
2.04658
2.04008
2.03521
2.02719
2.02212
2.01383
2.0088
2.00085
1.99638
1.9889
1.98462
1.97724
1.9729
1.96574
1.96143
1.95428
1.94976
1.94254
1.93787
1.9308
1.92621
1.91933
1.91494
1.90812
1.90399
1.89715
1.89313
1.88618
1.88199
1.87486
1.8703
1.86291
1.8579
1.85026
1.84493
1.83693
1.83111
1.82292
1.81662
1.80861
1.80177
1.79419
1.78706
1.78034
1.77562
2.13525
2.10629
2.074
2.0398
2.00501
1.96896
1.93337
1.89912
1.86458
1.83287
1.80068
1.77135
1.74224
1.71478
1.68934
1.66368
1.64197
1.61949
1.60263
1.58924
1.58941
1.59437
1.6093
1.64422
1.728
1.83957
1.93683
1.98344
2.01286
2.05551
2.11457
2.19658
2.28108
2.33018
2.3187
2.2935
2.26849
2.22178
2.184
2.14372
2.11166
2.08411
2.06149
2.04376
2.03224
2.02312
2.0169
2.01407
2.01316
2.01389
2.01651
2.02203
2.02419
2.02553
2.02375
2.02226
2.01924
2.01608
2.00923
2.00448
1.99679
1.99255
1.98578
1.98221
1.97545
1.9716
1.96475
1.96062
1.95388
1.94975
1.94292
1.93854
1.93142
1.92687
1.91987
1.9155
1.90868
1.90439
1.8975
1.89327
1.88629
1.88201
1.87487
1.8703
1.86302
1.85805
1.85051
1.84502
1.83715
1.83101
1.82314
1.8166
1.80903
1.80215
1.79489
1.78773
1.78075
1.77361
1.76722
1.7625
2.12902
2.09866
2.07197
2.04114
2.00791
1.97594
1.9414
1.90877
1.87654
1.8447
1.81528
1.78533
1.75855
1.73117
1.70643
1.68266
1.65963
1.64104
1.62393
1.61995
1.62427
1.63551
1.66196
1.73142
1.82738
1.93345
1.9766
1.98392
1.98673
1.99398
2.00959
2.04082
2.09635
2.16326
2.22388
2.25214
2.24175
2.21841
2.18923
2.15497
2.12126
2.08613
2.05969
2.03705
2.02058
2.00933
2.00124
1.99539
1.9912
1.99021
1.99032
1.99199
1.99565
1.99759
2.00135
2.00065
1.99948
1.99815
1.99512
1.99179
1.98509
1.98141
1.97482
1.97111
1.96454
1.96066
1.95435
1.95011
1.94397
1.9394
1.9329
1.92776
1.92074
1.91536
1.90825
1.90288
1.89565
1.89013
1.8826
1.87705
1.86944
1.86408
1.85646
1.85113
1.84333
1.83784
1.82994
1.82412
1.81616
1.80994
1.80195
1.79557
1.78781
1.78157
1.77427
1.7681
1.76116
1.75495
1.74858
1.74457
2.12541
2.0976
2.06695
2.0402
2.00907
1.97835
1.94764
1.91643
1.88566
1.85639
1.82649
1.79942
1.77116
1.7466
1.7207
1.69877
1.67725
1.65914
1.65122
1.65309
1.66263
1.68427
1.73834
1.83144
1.93834
1.98594
1.98932
1.98013
1.96843