/*--------------------------------*- C++ -*----------------------------------*\
| =========                 |                                                 |
| \\      /  F ield         | OpenFOAM: The Open Source CFD Toolbox           |
|  \\    /   O peration     | Version:  2112                                  |
|   \\  /    A nd           | Website:  www.openfoam.com                      |
|    \\/     M anipulation  |                                                 |
\*---------------------------------------------------------------------------*/
FoamFile
{
    version     2.0;
    format      ascii;
    arch        "LSB;label=32;scalar=64";
    class       volVectorField;
    location    "3";
    object      U;
}
// * * * * * * * * * * * * * * * * * * * * * * * * * * * * * * * * * * * * * //

dimensions      [0 1 -1 0 0 0 0];

internalField   nonuniform List<vector> 
7000
(
(3 -5.77675e-07 0.000805021)
(3 -1.36673e-06 0.000764326)
(3 -1.91322e-06 0.000723861)
(3 -2.16349e-06 0.000683627)
(3 -1.89667e-06 0.000643626)
(3 -1.60811e-06 0.000603867)
(3 -1.33104e-06 0.000564355)
(3 -1.18239e-06 0.000525162)
(2.99999 -5.90096e-07 0.000486165)
(2.99998 -7.96257e-07 0.000447752)
(2.99994 -8.36868e-07 0.00041013)
(2.99981 -1.81448e-06 0.000374956)
(2.99956 2.48389e-06 0.000341433)
(2.99882 1.72691e-06 0.000321487)
(2.99757 4.25793e-05 0.000305129)
(2.99329 4.54932e-05 0.000384438)
(2.98745 0.000321645 0.000419754)
(2.95568 0.000391385 0.00141396)
(2.90205 -0.00131821 0.00215745)
(2.7086 -0.000280066 0.00790392)
(2.12157 -0.0201926 0.0156726)
(1.14569 -0.0261677 0.0247044)
(0.456486 -0.0289642 0.00830134)
(0.633305 -0.00987555 -0.00262442)
(0.756277 -0.00368144 -0.00211986)
(0.771976 -0.00358085 -0.000687961)
(0.743749 -0.00448116 -0.000191299)
(0.70326 -0.00439048 -0.000159775)
(0.66903 -0.00355589 -0.000381082)
(0.644187 -0.00247879 -0.000636799)
(0.621905 -0.00149905 -0.000803346)
(0.598421 -0.000643112 -0.000926494)
(0.573508 0.000169812 -0.00105036)
(0.547881 0.000990322 -0.00118507)
(0.521902 0.00183156 -0.00132593)
(0.495558 0.00269571 -0.00146911)
(0.468727 0.00359161 -0.00161373)
(0.441305 0.00453377 -0.00176003)
(0.41323 0.00554186 -0.00190817)
(0.384388 0.00663909 -0.00205929)
(0.354609 0.00784355 -0.00221302)
(0.323784 0.00916849 -0.00236873)
(0.29185 0.0106075 -0.00252643)
(0.258728 0.0121258 -0.00268761)
(0.22424 0.0136699 -0.00285419)
(0.188288 0.0152176 -0.00302309)
(0.151114 0.0168412 -0.00318868)
(0.112872 0.0187332 -0.00335137)
(0.0705078 0.0219128 -0.00350387)
(0.0363999 0.0297604 -0.00367811)
(3 -5.94309e-07 0.000777211)
(3 -1.39887e-06 0.00073787)
(3 -1.91108e-06 0.000698757)
(3 -2.10104e-06 0.000659872)
(3 -1.7251e-06 0.000621219)
(3 -1.3408e-06 0.000582808)
(3 -1.0009e-06 0.000544639)
(3 -8.24029e-07 0.000506777)
(2.99999 3.91783e-07 0.000469119)
(2.99998 3.78555e-07 0.000432015)
(2.99994 1.55154e-07 0.000395651)
(2.99982 -6.06177e-08 0.000361555)
(2.99958 9.24005e-06 0.000328994)
(2.99888 2.09865e-05 0.000308797)
(2.9977 0.000106136 0.000291609)
(2.99365 0.000218763 0.000362637)
(2.98846 0.000752626 0.000380634)
(2.95669 0.00150627 0.00136219)
(2.90787 0.000911495 0.00192199)
(2.71643 0.00585 0.0076122)
(2.14236 -0.0101439 0.0147649)
(1.16985 -0.00320453 0.0243276)
(0.44371 9.73773e-05 0.00828782)
(0.614267 0.0259183 -0.00236805)
(0.734575 0.0310844 -0.00194857)
(0.750893 0.0282856 -0.000656922)
(0.724021 0.0252818 -0.000203028)
(0.684339 0.0246715 -0.000169187)
(0.650055 0.0254888 -0.000369546)
(0.625005 0.026499 -0.000610811)
(0.602639 0.0272173 -0.000771751)
(0.579177 0.0277335 -0.000891899)
(0.554314 0.0282324 -0.00101194)
(0.528715 0.0287947 -0.00114171)
(0.502733 0.0294299 -0.0012774)
(0.476362 0.0301474 -0.00141505)
(0.449487 0.0309503 -0.00155427)
(0.422019 0.0318671 -0.00169505)
(0.393926 0.0329185 -0.00183734)
(0.365131 0.0341222 -0.0019826)
(0.335521 0.0354925 -0.00213021)
(0.305059 0.0370331 -0.00227937)
(0.273742 0.0387259 -0.00242986)
(0.24151 0.0405143 -0.00258363)
(0.208169 0.042338 -0.00274252)
(0.173567 0.044207 -0.00290213)
(0.137747 0.0462662 -0.00305787)
(0.100831 0.0488436 -0.00321062)
(0.05971 0.0531509 -0.00335259)
(0.0286199 0.0621726 -0.00351146)
(3 -1.96125e-08 0.000748287)
(3 -9.41045e-08 0.00071036)
(3 -1.14029e-07 0.000672657)
(3 -1.9777e-07 0.00063518)
(3 -1.36426e-07 0.000597932)
(3 -7.72838e-08 0.000560923)
(3 -5.10325e-08 0.000524151)
(3 -1.91231e-07 0.000487673)
(2.99999 1.33154e-06 0.000451408)
(2.99998 1.14031e-06 0.000415689)
(2.99994 -3.20264e-07 0.00038066)
(2.99982 -4.89359e-06 0.000347764)
(2.99958 -3.5089e-06 0.000316316)
(2.9989 -1.40407e-05 0.000296383)
(2.99778 3.0215e-05 0.000278788)
(2.99383 6.20125e-05 0.000344893)
(2.98898 0.000359623 0.000354018)
(2.95758 0.000275557 0.00129646)
(2.91077 0.00120922 0.00178309)
(2.72034 0.000191939 0.00731358)
(2.14881 -0.011663 0.014107)
(1.17286 -0.0201202 0.0236935)
(0.424462 -0.0125192 0.00806663)
(0.596696 0.0143308 -0.00222948)
(0.715472 0.0233287 -0.00180186)
(0.731755 0.0231705 -0.00061924)
(0.706022 0.0220826 -0.000211243)
(0.667254 0.0228292 -0.000179378)
(0.633088 0.0252284 -0.000361119)
(0.607794 0.027938 -0.000585955)
(0.585239 0.0303241 -0.000739977)
(0.561729 0.0324602 -0.000856649)
(0.536899 0.0345571 -0.000972623)
(0.511364 0.0367146 -0.00109714)
(0.485475 0.0389521 -0.0012268)
(0.459234 0.0412909 -0.00135875)
(0.432545 0.0437373 -0.00149178)
(0.405342 0.0463356 -0.00162636)
(0.377602 0.0491219 -0.00176229)
(0.349259 0.0521074 -0.00190092)
(0.320217 0.0553087 -0.0020418)
(0.290445 0.0587196 -0.00218401)
(0.259926 0.0623089 -0.00232796)
(0.228587 0.0660143 -0.00247458)
(0.196247 0.0697717 -0.00262472)
(0.162762 0.073582 -0.0027761)
(0.128175 0.0776199 -0.00292333)
(0.0928192 0.0822549 -0.00306729)
(0.0539156 0.0886357 -0.00319964)
(0.024628 0.0996684 -0.00334848)
(3 2.73741e-08 0.000718202)
(3 1.25085e-08 0.00068175)
(3 1.45658e-07 0.000645518)
(3 7.22842e-08 0.000609508)
(3 1.4157e-07 0.000573724)
(3 2.02012e-07 0.000538175)
(3 2.8463e-07 0.000502859)
(3 1.2599e-07 0.000467819)
(2.99999 4.29101e-06 0.000433008)
(2.99998 1.44174e-06 0.000398729)
(2.99994 5.03562e-07 0.000365108)
(2.99982 -3.86151e-05 0.000333446)
(2.99959 -3.3138e-05 0.000303266)
(2.99893 -0.000270472 0.000283513)
(2.99785 -0.000189952 0.00026572)
(2.99402 -0.00190991 0.000326562)
(2.98943 0.000341764 0.000330535)
(2.95896 0.00405272 0.0012111)
(2.91373 0.0030214 0.00165776)
(2.72608 0.00812125 0.00691957)
(2.16404 -0.00978307 0.0133057)
(1.19924 -0.016464 0.0227569)
(0.448111 0.00643589 0.00788575)
(0.602264 0.0355341 -0.00195948)
(0.7135 0.0448319 -0.00164704)
(0.727766 0.0449838 -0.000575568)
(0.70228 0.0442282 -0.000211304)
(0.664012 0.0450711 -0.00018326)
(0.62961 0.0474121 -0.000349496)
(0.603411 0.0500026 -0.000557793)
(0.579865 0.052295 -0.000704456)
(0.555491 0.0543841 -0.000817631)
(0.529873 0.0564782 -0.00092961)
(0.503559 0.0586805 -0.00104897)
(0.476898 0.0610266 -0.00117281)
(0.44991 0.0635404 -0.00129889)
(0.422533 0.0662428 -0.00142597)
(0.39475 0.0691785 -0.00155448)
(0.366554 0.0723985 -0.00168418)
(0.337911 0.075924 -0.00181617)
(0.308761 0.0797819 -0.0019503)
(0.279097 0.0839977 -0.00208566)
(0.248909 0.0885389 -0.00222269)
(0.21812 0.0933489 -0.00236239)
(0.186551 0.0983637 -0.00250443)
(0.15409 0.103568 -0.00264511)
(0.120731 0.109113 -0.00278281)
(0.0869409 0.115321 -0.00291681)
(0.0502417 0.123075 -0.00304186)
(0.0223141 0.13502 -0.00318173)
(3 4.76967e-08 0.000686908)
(3 1.63251e-07 0.000651993)
(3 4.79715e-07 0.000617296)
(3 6.43078e-07 0.000582816)
(3 8.57551e-07 0.000548558)
(3 1.06295e-06 0.000514529)
(3 1.32169e-06 0.000480731)
(3 1.51064e-06 0.000447164)
(2.99999 5.01918e-06 0.000413922)
(2.99998 1.86666e-06 0.00038113)
(2.99992 3.89584e-07 0.000349386)
(2.99981 -3.562e-05 0.000318557)
(2.99947 -3.18581e-05 0.000292759)
(2.99885 -0.000245356 0.000269809)
(2.99693 -0.000178149 0.000279814)
(2.99434 -0.00170482 0.000273666)
(2.99339 0.000903718 0.000205365)
(2.96072 0.00475213 0.00121535)
(2.9192 0.00385947 0.00147485)
(2.73097 0.00928864 0.00675312)
(2.16418 -0.00915713 0.0127141)
(1.2109 -0.0149861 0.0217606)
(0.445095 0.0077815 0.00761542)
(0.591779 0.0400853 -0.00173737)
(0.699147 0.0489573 -0.00148269)
(0.713698 0.0502069 -0.000532492)
(0.690204 0.0510227 -0.000213122)
(0.653859 0.0538756 -0.00018796)
(0.620531 0.057673 -0.000337982)
(0.59482 0.0614838 -0.000530618)
(0.571646 0.0650385 -0.000670111)
(0.547651 0.0684315 -0.000779099)
(0.522361 0.0718082 -0.00088651)
(0.496265 0.0752497 -0.00100016)
(0.469697 0.0787954 -0.00111803)
(0.442682 0.0824692 -0.00123793)
(0.415178 0.0862979 -0.00135866)
(0.387199 0.0903287 -0.00148043)
(0.358756 0.0946162 -0.00160393)
(0.329852 0.0991923 -0.00172953)
(0.300512 0.104091 -0.00185685)
(0.270771 0.109366 -0.0019853)
(0.24063 0.114986 -0.00211481)
(0.210057 0.120902 -0.00224647)
(0.178921 0.127082 -0.00237986)
(0.147173 0.133503 -0.00251223)
(0.114823 0.140295 -0.00264066)
(0.0823883 0.147676 -0.00276699)
(0.0475622 0.156359 -0.00288156)
(0.0206902 0.168774 -0.00301653)
(3 3.33737e-08 0.00065435)
(3 2.05155e-07 0.000621041)
(3 5.06518e-07 0.000587944)
(3 8.04733e-07 0.00055506)
(3 1.10199e-06 0.000522392)
(3 1.4013e-06 0.000489948)
(3 1.7345e-06 0.000457729)
(3 2.14552e-06 0.000425734)
(2.99999 2.64855e-06 0.000394062)
(2.99998 2.08833e-06 0.000362815)
(2.99992 1.15706e-06 0.000332541)
(2.99981 3.63097e-06 0.000303097)
(2.99949 1.03542e-05 0.000278253)
(2.99891 4.71261e-05 0.000255794)
(2.99711 0.000122627 0.000262588)
(2.99478 0.000451701 0.000252448)
(2.99412 0.000890689 0.00018636)
(2.96232 -5.21807e-06 0.00113033)
(2.92277 0.00276343 0.00134712)
(2.73753 0.0025737 0.00634863)
(2.18185 -0.00346041 0.0118912)
(1.2402 -0.00359838 0.0207942)
(0.469407 0.0255347 0.00736757)
(0.595916 0.058585 -0.00146935)
(0.694004 0.0621008 -0.0013177)
(0.707705 0.0634552 -0.000504524)
(0.68504 0.0654061 -0.000219021)
(0.649065 0.0700288 -0.000189931)
(0.614939 0.0744938 -0.000319877)
(0.58834 0.0785927 -0.00050042)
(0.564589 0.0825501 -0.000634285)
(0.540299 0.0864947 -0.000738941)
(0.514909 0.0905029 -0.000841294)
(0.488851 0.0946361 -0.000949217)
(0.462406 0.0989344 -0.0010609)
(0.435557 0.103415 -0.00117441)
(0.408234 0.1081 -0.00128844)
(0.38042 0.113026 -0.00140367)
(0.352093 0.118233 -0.00152057)
(0.323252 0.123739 -0.00163932)
(0.293971 0.129571 -0.00175878)
(0.264291 0.135778 -0.00187996)
(0.234219 0.142348 -0.00200233)
(0.203812 0.149238 -0.00212636)
(0.173014 0.156419 -0.00225203)
(0.141832 0.163867 -0.00237535)
(0.110257 0.17165 -0.00249566)
(0.0788853 0.179949 -0.00261108)
(0.0455654 0.189302 -0.00272123)
(0.0195686 0.20198 -0.00284515)
(3 2.18687e-08 0.000620474)
(3 2.2417e-07 0.00058884)
(3 5.41479e-07 0.000557414)
(3 9.53662e-07 0.000526195)
(3 1.33076e-06 0.000495185)
(3 1.69097e-06 0.000464393)
(3 2.04116e-06 0.00043382)
(3 2.39819e-06 0.000403463)
(2.99999 2.66505e-06 0.00037342)
(2.99998 2.70679e-06 0.000343774)
(2.99993 3.35262e-06 0.000315016)
(2.99982 1.10106e-05 0.000286982)
(2.99952 2.53875e-05 0.000263177)
(2.99898 8.42314e-05 0.000241195)
(2.99727 0.000183632 0.000245586)
(2.99488 0.000546296 0.000240658)
(2.99392 0.00094361 0.000186765)
(2.96352 -7.96804e-05 0.00102029)
(2.92734 0.00322467 0.00118994)
(2.74488 0.0035552 0.00595561)
(2.20028 -0.000535233 0.0110621)
(1.26824 0.00322657 0.019778)
(0.4874 0.0379025 0.00710584)
(0.593539 0.0735013 -0.00118266)
(0.682563 0.072264 -0.0011422)
(0.699516 0.0743328 -0.000504685)
(0.679341 0.0778867 -0.000230914)
(0.644342 0.0846549 -0.000189796)
(0.609441 0.090143 -0.000296354)
(0.582306 0.0948965 -0.000469164)
(0.55836 0.0995642 -0.000598857)
(0.533977 0.104294 -0.000698741)
(0.508534 0.10912 -0.000795494)
(0.482477 0.114102 -0.000897388)
(0.456094 0.119296 -0.00100269)
(0.429366 0.124722 -0.00110945)
(0.402215 0.130398 -0.00121656)
(0.3746 0.136346 -0.00132501)
(0.346464 0.142582 -0.00143526)
(0.317808 0.149108 -0.00154665)
(0.288718 0.155941 -0.00165847)
(0.259225 0.163104 -0.00177243)
(0.229322 0.170604 -0.00188751)
(0.199107 0.178425 -0.00200286)
(0.168589 0.186518 -0.00211973)
(0.137831 0.194844 -0.00223519)
(0.106849 0.203453 -0.00234666)
(0.0762922 0.212444 -0.00245622)
(0.0440991 0.222324 -0.00255525)
(0.0186623 0.235193 -0.00267527)
(3 1.16681e-08 0.000585223)
(3 2.19071e-07 0.000555338)
(3 5.19269e-07 0.000525655)
(3 9.55994e-07 0.000496172)
(3 1.34696e-06 0.000466893)
(3 1.71359e-06 0.000437823)
(3 2.04657e-06 0.000408965)
(3 2.34655e-06 0.000380316)
(3 2.46349e-06 0.000351965)
(2.99998 2.93498e-06 0.00032398)
(2.99993 4.82113e-06 0.000296783)
(2.99983 1.64311e-05 0.000270244)
(2.99955 3.61735e-05 0.000247368)
(2.99906 0.000115852 0.000226029)
(2.9975 0.000232197 0.000227551)
(2.99536 0.000712427 0.000219966)
(2.99456 0.00164029 0.000170157)
(2.9654 0.00168884 0.000926382)
(2.9318 0.00468568 0.00105546)
(2.75312 0.0052012 0.00551241)
(2.22557 0.00297141 0.0101605)
(1.30841 0.0116603 0.0186757)
(0.517916 0.054319 0.00683928)
(0.596189 0.0895712 -0.000867808)
(0.67324 0.0863581 -0.000963509)
(0.694326 0.0889052 -0.000516258)
(0.676903 0.0932385 -0.000246061)
(0.642544 0.100939 -0.00018808)
(0.606225 0.107017 -0.000269223)
(0.578356 0.112341 -0.000436767)
(0.554208 0.117659 -0.000562832)
(0.529726 0.123095 -0.0006576)
(0.50418 0.128667 -0.000748557)
(0.478042 0.134435 -0.000844213)
(0.451617 0.140469 -0.00094302)
(0.424894 0.146796 -0.00104275)
(0.397804 0.153437 -0.00114272)
(0.370291 0.160407 -0.00124395)
(0.34229 0.167701 -0.0013468)
(0.3138 0.175304 -0.00145059)
(0.284891 0.183223 -0.00155497)
(0.255572 0.191429 -0.00166159)
(0.225857 0.19989 -0.00176982)
(0.195849 0.208594 -0.0018778)
(0.165576 0.217504 -0.00198491)
(0.135151 0.226587 -0.00209067)
(0.104563 0.235856 -0.00219432)
(0.0745403 0.245417 -0.00229275)
(0.0431373 0.255685 -0.00238826)
(0.018078 0.268761 -0.00249847)
(3 5.99667e-09 0.000548536)
(3 2.06442e-07 0.000520477)
(3 4.91807e-07 0.000492613)
(3 9.32687e-07 0.000464943)
(3 1.33341e-06 0.000437468)
(3 1.70739e-06 0.000410195)
(3 2.03761e-06 0.000383124)
(3 2.31845e-06 0.000356256)
(3 2.39121e-06 0.000329665)
(2.99998 3.13045e-06 0.00030341)
(2.99994 5.80098e-06 0.000277837)
(2.99985 1.92716e-05 0.00025288)
(2.9996 4.33184e-05 0.000230917)
(2.99915 0.000132038 0.000210426)
(2.99776 0.000281544 0.000209608)
(2.9959 0.000803275 0.000197676)
(2.9954 0.00182451 0.000140958)
(2.96735 0.00189101 0.00084498)
(2.93645 0.00570678 0.000933152)
(2.76216 0.00682076 0.00504121)
(2.25439 0.00633203 0.00922921)
(1.3559 0.0192022 0.017507)
(0.553905 0.0728921 0.00656599)
(0.601266 0.100585 -0.000546977)
(0.665678 0.10199 -0.000794201)
(0.690988 0.106163 -0.000522085)
(0.676242 0.111053 -0.000255162)
(0.642617 0.118425 -0.000184813)
(0.605016 0.124782 -0.000243886)
(0.576453 0.130715 -0.000404746)
(0.552109 0.136701 -0.000526141)
(0.527541 0.14283 -0.000615402)
(0.501904 0.149137 -0.000700348)
(0.475682 0.155688 -0.000789611)
(0.449191 0.162552 -0.000881769)
(0.422427 0.169764 -0.000974342)
(0.395331 0.177346 -0.00106719)
(0.367848 0.185319 -0.00116101)
(0.339915 0.19366 -0.00125608)
(0.311551 0.202333 -0.00135178)
(0.282786 0.211337 -0.00144811)
(0.253579 0.220632 -0.00154586)
(0.223969 0.230141 -0.0016453)
(0.19407 0.239815 -0.00174642)
(0.163926 0.249567 -0.0018469)
(0.133677 0.259349 -0.00194388)
(0.103306 0.269208 -0.00203827)
(0.073592 0.279208 -0.00213145)
(0.0426777 0.289813 -0.00221672)
(0.0176831 0.302999 -0.00232032)
(3 3.1395e-09 0.000510349)
(3 1.89668e-07 0.000484198)
(3 4.56637e-07 0.000458233)
(3 8.73405e-07 0.000432454)
(3 1.26245e-06 0.000406863)
(3 1.62738e-06 0.000381463)
(3 1.95173e-06 0.000356256)
(3 2.23071e-06 0.000331243)
(3 2.37295e-06 0.000306486)
(2.99998 2.65105e-06 0.000282033)
(2.99994 4.68858e-06 0.000258164)
(2.99987 1.44749e-05 0.000234819)
(2.99965 3.41527e-05 0.000213999)
(2.99927 9.89558e-05 0.000193958)
(2.99804 0.000189204 0.000190286)
(2.99649 0.000545228 0.000177263)
(2.99613 0.00137384 0.000134494)
(2.96981 0.000868904 0.000736504)
(2.94211 0.00577529 0.000788516)
(2.77197 0.007931 0.00460644)
(2.28591 0.010448 0.00827312)
(1.41067 0.0272263 0.016258)
(0.588534 0.0941854 0.00633259)
(0.603079 0.111599 -0.000237783)
(0.662068 0.118725 -0.000693783)
(0.688522 0.124738 -0.000493396)
(0.675542 0.130151 -0.000249167)
(0.642881 0.136814 -0.000178122)
(0.60487 0.143361 -0.000223441)
(0.575959 0.149922 -0.000373245)
(0.551541 0.156592 -0.00048778)
(0.526999 0.163435 -0.000571341)
(0.501396 0.170509 -0.000650352)
(0.475198 0.177886 -0.000733236)
(0.448721 0.185624 -0.000818546)
(0.421963 0.19376 -0.000904271)
(0.394877 0.202311 -0.000989931)
(0.367408 0.211297 -0.00107644)
(0.339492 0.220705 -0.00116353)
(0.311179 0.23048 -0.00125122)
(0.2825 0.240578 -0.00134055)
(0.253377 0.250939 -0.00143058)
(0.223848 0.261474 -0.0015202)
(0.193997 0.272129 -0.0016107)
(0.16383 0.282793 -0.00170213)
(0.133555 0.293349 -0.00179217)
(0.103167 0.303785 -0.00187905)
(0.0734657 0.314202 -0.001961)
(0.0426581 0.325059 -0.00204175)
(0.0175076 0.33839 -0.00213725)
(3 -2.929e-10 0.000470595)
(3 1.74932e-07 0.000446438)
(3 4.16349e-07 0.000422457)
(3 8.1149e-07 0.000398652)
(3 1.16218e-06 0.000375025)
(3 1.48529e-06 0.00035158)
(3 1.76032e-06 0.000328318)
(3 1.97972e-06 0.000305237)
(3 2.04363e-06 0.000282399)
(2.99998 2.37283e-06 0.000259832)
(2.99995 4.66628e-06 0.000237783)
(2.99988 1.49358e-05 0.000216194)
(2.99967 3.60449e-05 0.000196774)
(2.9993 0.000103929 0.000178502)
(2.99815 0.000174306 0.000174272)
(2.9968 0.000560908 0.000158467)
(2.99641 0.00132794 0.000110588)
(2.97219 0.0008515 0.000638305)
(2.94868 0.00609987 0.000656006)
(2.78358 0.00885483 0.00412977)
(2.32057 0.0146217 0.00732345)
(1.47408 0.0357389 0.0148703)
(0.628851 0.116766 0.00611364)
(0.605299 0.128987 7.09575e-05)
(0.660889 0.136658 -0.000614478)
(0.687587 0.143595 -0.000455361)
(0.675555 0.14944 -0.000235043)
(0.64381 0.155789 -0.000169379)
(0.605957 0.162657 -0.000206512)
(0.576925 0.16981 -0.000342606)
(0.5525 0.177154 -0.000448361)
(0.528067 0.184738 -0.000525745)
(0.502606 0.192632 -0.000598381)
(0.476546 0.200899 -0.000674482)
(0.450194 0.209577 -0.000752754)
(0.423539 0.218693 -0.000831231)
(0.396534 0.228269 -0.000909291)
(0.369134 0.238313 -0.000988371)
(0.341276 0.248818 -0.00106768)
(0.312993 0.259756 -0.00114643)
(0.284306 0.271053 -0.00122681)
(0.255139 0.2826 -0.00130966)
(0.225564 0.29427 -0.00139207)
(0.195665 0.305959 -0.00147475)
(0.165393 0.317542 -0.00155661)
(0.134901 0.328906 -0.00163642)
(0.104198 0.340004 -0.00171511)
(0.0741998 0.350859 -0.00179259)
(0.0432117 0.362023 -0.00186443)
(0.0175728 0.375459 -0.00195149)
(3 -4.16386e-09 0.000429205)
(3 1.6048e-07 0.000407131)
(3 3.72346e-07 0.000385222)
(3 7.44966e-07 0.000363479)
(3 1.04036e-06 0.000341904)
(3 1.30176e-06 0.000320498)
(3 1.50189e-06 0.000299263)
(3 1.62505e-06 0.000278198)
(3 1.49726e-06 0.000257352)
(2.99999 2.56666e-06 0.000236745)
(2.99996 6.11159e-06 0.000216563)
(2.99989 2.16806e-05 0.000196769)
(2.99972 5.00283e-05 0.00017863)
(2.99941 0.000149083 0.000161633)
(2.99845 0.000311373 0.000154829)
(2.9974 0.000964734 0.000138005)
(2.99711 0.00120675 9.76724e-05)
(2.97501 0.00046845 0.000537819)
(2.95519 0.00519016 0.000526715)
(2.79593 0.00513944 0.00365464)
(2.36135 0.0150159 0.0063484)
(1.55165 0.0420121 0.0133534)
(0.680442 0.139498 0.00588947)
(0.610487 0.149006 0.0003868)
(0.662537 0.155954 -0.00054105)
(0.689453 0.163283 -0.00041972)
(0.677728 0.169449 -0.00021801)
(0.646646 0.175805 -0.000159669)
(0.609043 0.183036 -0.000190789)
(0.579826 0.190701 -0.000311924)
(0.555346 0.198644 -0.000408388)
(0.531024 0.206924 -0.000479235)
(0.505741 0.215625 -0.000545323)
(0.479874 0.224791 -0.00061414)
(0.453705 0.234453 -0.00068493)
(0.427223 0.244611 -0.000756086)
(0.400365 0.25528 -0.000826931)
(0.373081 0.266467 -0.000897847)
(0.345334 0.278142 -0.000969815)
(0.317132 0.290276 -0.00104147)
(0.288463 0.302813 -0.00111249)
(0.259258 0.315634 -0.00118509)
(0.229555 0.328582 -0.00125834)
(0.199406 0.341514 -0.00133192)
(0.168792 0.354228 -0.0014063)
(0.137907 0.366535 -0.001479)
(0.106684 0.378351 -0.00154853)
(0.0760403 0.389723 -0.00161394)
(0.0443597 0.4012 -0.00168101)
(0.0178737 0.414777 -0.00175979)
(3 -3.30067e-09 0.000386103)
(3 1.41885e-07 0.000366207)
(3 3.34414e-07 0.000346464)
(3 6.65709e-07 0.000326875)
(3 9.58528e-07 0.000307441)
(3 1.11235e-06 0.000288163)
(3 1.1759e-06 0.000269043)
(3 1.12849e-06 0.000250082)
(3 4.06935e-07 0.000231312)
(2.99999 1.37558e-06 0.000212753)
(2.99996 1.10889e-06 0.000194529)
(2.99991 1.70593e-05 0.000176656)
(2.99978 2.08101e-05 0.000159926)
(2.99953 0.000118484 0.00014392)
(2.99883 0.000137493 0.000134462)
(2.99752 0.000577486 0.000127885)
(2.99672 0.000235832 0.000103867)
(2.97663 -0.00153549 0.000439552)
(2.95877 0.00294869 0.000414372)
(2.8061 -0.00119046 0.0031364)
(2.40796 0.0170398 0.00534916)
(1.6364 0.0486194 0.0117709)
(0.729498 0.163363 0.00565075)
(0.60636 0.17006 0.000692628)
(0.657497 0.176252 -0.000467883)
(0.686633 0.183336 -0.00038231)
(0.676333 0.189391 -0.000198619)
(0.646876 0.195846 -0.000148539)
(0.610498 0.20362 -0.00017471)
(0.581886 0.21193 -0.000280654)
(0.557993 0.220583 -0.000367406)
(0.53435 0.229652 -0.000431451)
(0.509741 0.239238 -0.000490661)
(0.484485 0.249371 -0.00055207)
(0.458849 0.260078 -0.00061492)
(0.432822 0.271363 -0.000677755)
(0.406347 0.283224 -0.00074081)
(0.379354 0.295672 -0.000803892)
(0.351818 0.308675 -0.000866714)
(0.323756 0.322177 -0.000930826)
(0.295119 0.336121 -0.000995228)
(0.265857 0.350366 -0.00105864)
(0.236034 0.364738 -0.00112303)
(0.20562 0.379078 -0.00118829)
(0.174518 0.39314 -0.00125179)
(0.142891 0.406677 -0.00131466)
(0.110732 0.4195 -0.00137717)
(0.0790488 0.431564 -0.00143871)
(0.0463056 0.443497 -0.00149568)
(0.0185159 0.457252 -0.00156604)
(3 -2.97302e-10 0.000341213)
(3 1.21323e-07 0.000323594)
(3 2.98656e-07 0.000306115)
(3 5.78501e-07 0.000288776)
(3 8.66277e-07 0.000271579)
(3 1.04587e-06 0.000254523)
(3 1.15377e-06 0.00023761)
(3 1.18407e-06 0.000220844)
(3 4.19501e-07 0.000204239)
(2.99999 4.20084e-07 0.000187847)
(2.99997 -1.75562e-06 0.00017165)
(2.99991 6.30824e-06 0.00015599)
(2.99981 -5.30643e-07 0.000140676)
(2.99952 5.34979e-05 0.000127694)
(2.99888 -1.58123e-05 0.00011766)
(2.99754 0.000156517 0.00011371)
(2.99608 1.45787e-06 0.000108866)
(2.97851 -0.00112022 0.000341623)
(2.96165 0.00335869 0.000384988)
(2.81631 0.00219893 0.00257748)
(2.4589 0.0228387 0.00430471)
(1.73056 0.0618229 0.0101748)
(0.782545 0.195615 0.00539563)
(0.594976 0.195971 0.000974719)
(0.645852 0.199896 -0.000399126)
(0.678201 0.20531 -0.000344748)
(0.67019 0.210411 -0.000180543)
(0.643359 0.216586 -0.000139428)
(0.609001 0.224716 -0.00015971)
(0.581588 0.233454 -0.000248898)
(0.558938 0.242692 -0.000325716)
(0.536643 0.252538 -0.000382717)
(0.513351 0.263071 -0.000435025)
(0.489297 0.274287 -0.000488654)
(0.464743 0.286168 -0.000543895)
(0.439664 0.298715 -0.000598718)
(0.414011 0.311912 -0.000653261)
(0.387709 0.325768 -0.000708377)
(0.360705 0.340257 -0.00076295)
(0.333048 0.35532 -0.000817173)
(0.304656 0.370906 -0.000873146)
(0.275417 0.386855 -0.000928445)
(0.245425 0.402976 -0.000982449)
(0.214644 0.419087 -0.00103863)
(0.18294 0.434871 -0.00109559)
(0.15046 0.449964 -0.00114974)
(0.117088 0.464132 -0.00120173)
(0.0838322 0.477265 -0.00125151)
(0.0492598 0.489877 -0.00130442)
(0.0195482 0.503929 -0.00136491)
(3 1.60067e-09 0.000294452)
(3 1.01832e-07 0.000279216)
(3 2.5922e-07 0.000264104)
(3 4.92068e-07 0.000249117)
(3 7.45758e-07 0.000234255)
(3 1.03815e-06 0.000219519)
(3 1.30942e-06 0.000204909)
(3 1.58421e-06 0.000190432)
(3 1.39541e-06 0.000176095)
(2.99999 9.49128e-07 0.000161942)
(2.99997 1.77431e-06 0.000147953)
(2.99992 4.14524e-06 0.000134415)
(2.99983 1.72936e-05 0.000121138)
(2.99955 4.39773e-05 0.000109858)
(2.99898 0.000105243 0.000100257)
(2.99762 0.000418686 9.86369e-05)
(2.9963 0.000373222 8.17271e-05)
(2.98072 -0.000526857 0.000271753)
(2.96768 0.00462908 0.00024276)
(2.83361 0.0046574 0.00205867)
(2.51952 0.0283251 0.00338694)
(1.84682 0.0740247 0.00837428)
(0.845161 0.231072 0.00511146)
(0.5778 0.21829 0.00121773)
(0.62914 0.217558 -0.000334825)
(0.665176 0.220971 -0.000304539)
(0.660071 0.227397 -0.000163309)
(0.636378 0.234728 -0.000130004)
(0.604349 0.244122 -0.000143558)
(0.578383 0.253833 -0.000215722)
(0.557458 0.263943 -0.000282586)
(0.537122 0.27476 -0.000332313)
(0.515802 0.286406 -0.000377349)
(0.493604 0.298877 -0.000423074)
(0.470765 0.312131 -0.000469705)
(0.447243 0.326155 -0.000516738)
(0.422966 0.340933 -0.000562822)
(0.397867 0.35646 -0.000609352)
(0.371856 0.372722 -0.000655905)
(0.344967 0.389644 -0.000701972)
(0.317154 0.407179 -0.000748447)
(0.28827 0.425184 -0.000795614)
(0.258338 0.443456 -0.000841657)
(0.227283 0.461791 -0.000887018)
(0.194878 0.479885 -0.000932802)
(0.161202 0.497244 -0.000979137)
(0.126201 0.513461 -0.00102439)
(0.0908389 0.528205 -0.00106862)
(0.0537457 0.541984 -0.00110978)
(0.0212025 0.556608 -0.00116312)
(3 1.65603e-09 0.000245734)
(3 8.46061e-08 0.000232991)
(3 2.1526e-07 0.000220355)
(3 4.10723e-07 0.000207826)
(3 6.41552e-07 0.000195404)
(3 9.68105e-07 0.000183091)
(3 1.02598e-06 0.000170887)
(3 1.01532e-06 0.000158796)
(3 1.24089e-07 0.000146824)
(2.99999 -1.38177e-06 0.000134998)
(2.99997 -3.988e-06 0.000123309)
(2.99993 -8.39801e-06 0.000111942)
(2.99986 -1.64704e-05 0.000100757)
(2.99963 -3.80882e-05 9.10327e-05)
(2.99926 -9.18726e-05 8.14152e-05)
(2.99786 -0.000132551 8.16501e-05)
(2.99583 -0.000728671 8.37515e-05)
(2.98335 -0.00230815 0.00018865)
(2.97191 0.0128965 0.000196683)
(2.84839 -0.0182385 0.00154328)
(2.58277 0.0915057 0.00246002)
(1.97109 0.0828419 0.00657951)
(0.912794 0.317571 0.00479153)
(0.549979 0.272704 0.00139012)
(0.60778 0.251462 -0.000292351)
(0.652397 0.241789 -0.000282206)
(0.652225 0.245404 -0.000155891)
(0.630639 0.25172 -0.000117299)
(0.600097 0.262008 -0.000125637)
(0.574668 0.272496 -0.000181035)
(0.55497 0.283386 -0.000237592)
(0.536513 0.295241 -0.00028022)
(0.517344 0.308171 -0.000317774)
(0.497354 0.322118 -0.000355739)
(0.476697 0.337007 -0.000394073)
(0.455301 0.352798 -0.000432427)
(0.433015 0.369477 -0.000470559)
(0.409739 0.387023 -0.000508194)
(0.385347 0.405425 -0.000545988)
(0.359799 0.424646 -0.000583183)
(0.33303 0.444625 -0.000620702)
(0.30491 0.465239 -0.000658187)
(0.275387 0.486313 -0.000696029)
(0.244323 0.507636 -0.000733916)
(0.211439 0.528798 -0.000770743)
(0.17668 0.549291 -0.000806168)
(0.139734 0.568618 -0.000841082)
(0.101459 0.586173 -0.00087464)
(0.0605974 0.60205 -0.000911604)
(0.0238717 0.61782 -0.000952868)
(3 2.83493e-09 0.000194968)
(3 6.57996e-08 0.000184835)
(3 1.73226e-07 0.000174789)
(3 3.26259e-07 0.00016483)
(3 5.08567e-07 0.00015496)
(3 7.49223e-07 0.000145179)
(3 8.39699e-07 0.000135486)
(3 7.1073e-07 0.000125887)
(3 3.23961e-08 0.000116386)
(2.99999 -8.44407e-07 0.00010701)
(2.99997 -2.08306e-06 9.77481e-05)
(2.99991 -3.87398e-06 8.87969e-05)
(2.99981 -7.41966e-06 8.00551e-05)
(2.9995 -1.40219e-05 7.28044e-05)
(2.99895 -6.67789e-05 6.61387e-05)
(2.99715 -0.000201768 6.86078e-05)
(2.99485 -0.000317599 6.55261e-05)
(2.99438 -0.000387864 4.75445e-05)
(2.95747 0.0105793 0.000373807)
(2.90742 -0.0111731 0.000483109)
(2.69005 0.0775295 0.0021131)
(2.02077 0.0844256 0.00413994)
(1.14415 0.33571 0.00424519)
(0.631558 0.306945 0.00159747)
(0.662572 0.28861 -0.000228792)
(0.698915 0.269446 -0.000262923)
(0.694785 0.269328 -0.000158329)
(0.666276 0.273388 -0.000107793)
(0.628803 0.283416 -0.000107928)
(0.595346 0.293488 -0.000143198)
(0.570135 0.30401 -0.000189596)
(0.548549 0.315933 -0.000225083)
(0.527824 0.329469 -0.00025496)
(0.507409 0.344478 -0.000284681)
(0.487175 0.360821 -0.000314908)
(0.466844 0.378389 -0.000344804)
(0.446061 0.397116 -0.000374526)
(0.424506 0.416969 -0.00040412)
(0.401949 0.437889 -0.000433398)
(0.378202 0.459822 -0.00046259)
(0.353035 0.482788 -0.000491207)
(0.326263 0.506633 -0.000519412)
(0.297807 0.531218 -0.000547485)
(0.267285 0.556541 -0.000575775)
(0.234194 0.58212 -0.000603813)
(0.198469 0.607362 -0.00063186)
(0.159583 0.631584 -0.000658237)
(0.117832 0.653828 -0.000683907)
(0.0717169 0.673865 -0.000708449)
(0.0283651 0.692305 -0.00074295)
(3 4.8089e-09 0.000142059)
(3 4.70746e-08 0.000134658)
(3 1.35366e-07 0.000127322)
(3 2.44663e-07 0.000120053)
(3 3.7537e-07 0.00011285)
(3 4.72643e-07 0.000105713)
(3 7.69967e-07 9.86435e-05)
(3 8.80673e-07 9.16434e-05)
(3 1.42145e-06 8.47138e-05)
(2.99999 2.925e-06 7.78708e-05)
(2.99997 8.88489e-06 7.11076e-05)
(2.99993 2.04143e-05 6.45352e-05)
(2.99986 5.85716e-05 5.80464e-05)
(2.99961 0.00012516 5.26165e-05)
(2.99918 0.000336362 4.72722e-05)
(2.9978 0.000682155 4.71514e-05)
(2.9958 0.00197615 4.57015e-05)
(2.99511 0.00316638 3.3795e-05)
(2.96579 0.00280192 0.000220049)
(2.93179 0.0172145 0.000252169)
(2.7569 0.0374032 0.00128664)
(2.23458 0.0997881 0.00233902)
(1.36236 0.273744 0.00392594)
(0.693577 0.325652 0.00152259)
(0.704371 0.323127 -0.000110293)
(0.740322 0.308892 -0.000195964)
(0.746198 0.307392 -0.000146147)
(0.719192 0.309037 -9.08829e-05)
(0.67923 0.316122 -8.42487e-05)
(0.6385 0.324479 -0.000101503)
(0.606369 0.333076 -0.00013691)
(0.579322 0.343194 -0.000164965)
(0.55429 0.355462 -0.000187516)
(0.530606 0.369866 -0.000209138)
(0.508219 0.386288 -0.000231125)
(0.486812 0.404606 -0.000252848)
(0.465954 0.424717 -0.000274183)
(0.445136 0.446514 -0.000295332)
(0.423848 0.469951 -0.000316072)
(0.401823 0.494754 -0.000336848)
(0.378591 0.521039 -0.000357615)
(0.353653 0.548851 -0.000377613)
(0.327037 0.577956 -0.00039752)
(0.29818 0.608359 -0.00041693)
(0.266109 0.63983 -0.000435485)
(0.230424 0.672 -0.000453375)
(0.189976 0.704072 -0.000470906)
(0.144436 0.734961 -0.000486836)
(0.0912767 0.763591 -0.000504505)
(0.0371764 0.789288 -0.000525865)
(3 7.47603e-09 8.6904e-05)
(3 3.2604e-08 8.23652e-05)
(3 1.0009e-07 7.78681e-05)
(3 1.67608e-07 7.34125e-05)
(3 2.80892e-07 6.89987e-05)
(3 3.51704e-07 6.46267e-05)
(3 5.12089e-07 6.02969e-05)
(3 6.53491e-07 5.60104e-05)
(3 1.52352e-06 5.1767e-05)
(2.99999 3.20473e-06 4.75725e-05)
(2.99998 9.99622e-06 4.34251e-05)
(2.99996 2.06974e-05 3.93587e-05)