# Field minima and maxima
# Time         	field          	min            	location(min)  	max            	location(max)  
1              	p              	-1.80752500e+01	(1.02709283e+00 1.21582604e-01 0.00000000e+00)	2.11488188e+01	(-1.03340804e+00 4.06193460e-02 0.00000000e+00)
1              	U              	(5.17145547e-01 -7.09839949e-02 3.32515643e-19)	(-9.95500333e-01 -2.80771032e-01 0.00000000e+00)	(9.81662270e-01 3.15554579e-01 6.51787345e-18)	(7.76278584e-01 -9.84821267e-01 0.00000000e+00)
2              	p              	-1.26136157e+01	(1.03340804e+00 4.06193460e-02 -2.57200967e-17)	1.56843735e+01	(-1.03340804e+00 4.06193460e-02 0.00000000e+00)
2              	U              	(8.65933037e-02 -2.69803010e-01 -5.45745227e-18)	(1.10565837e+00 4.07913059e-01 1.04508224e-17)	(1.43322825e+00 -9.30194039e-02 3.72429904e-18)	(1.38518882e-01 1.16988515e+00 -4.34292794e-17)
3              	p              	-2.89703194e+00	(-1.21582604e-01 -1.02709283e+00 0.00000000e+00)	2.66044402e+00	(1.16988515e+00 1.38518882e-01 -3.37112276e-17)
3              	U              	(1.20881596e-01 -5.20768426e-01 -1.26907147e-18)	(-1.32795511e+00 -4.89939430e-01 -1.71634959e-17)	(1.57635754e+00 -1.89996868e-02 6.44096155e-19)	(5.55685452e-02 1.41263523e+00 0.00000000e+00)
4              	p              	-9.99031051e+00	(-1.03340804e+00 -4.06193460e-02 0.00000000e+00)	9.56819739e+00	(1.02709283e+00 1.21582604e-01 0.00000000e+00)
4              	U              	(7.67141543e-02 -1.83647812e-01 -1.97909733e-18)	(7.02007805e-01 7.59452234e-01 0.00000000e+00)	(1.47392138e+00 -3.21821402e-02 1.36826171e-18)	(5.55685452e-02 1.41263523e+00 0.00000000e+00)
5              	p              	-5.56201744e+00	(-1.03340804e+00 -4.06193460e-02 0.00000000e+00)	5.14921834e+00	(1.02709283e+00 1.21582604e-01 0.00000000e+00)
5              	U              	(3.72516038e-02 -6.57140723e-02 -8.96243852e-19)	(7.02007805e-01 7.59452234e-01 0.00000000e+00)	(1.16256681e+00 4.99603710e-03 7.44648964e-19)	(2.71032507e+01 1.93303998e+01 -1.24641126e-17)
6              	p              	-2.84569253e+00	(1.02709283e+00 1.21582604e-01 0.00000000e+00)	3.29946102e+00	(-1.03340804e+00 4.06193460e-02 0.00000000e+00)
6              	U              	(5.77042407e-02 -5.34726842e-02 0.00000000e+00)	(-1.01443079e+00 -2.01798769e-01 0.00000000e+00)	(9.61792863e-01 1.81789513e-01 7.77115304e-19)	(-1.48315909e+00 1.60471714e+00 0.00000000e+00)
7              	p              	-5.72990073e+00	(1.02709283e+00 1.21582604e-01 0.00000000e+00)	6.72918071e+00	(-1.03340804e+00 4.06193460e-02 0.00000000e+00)
7              	U              	(6.23204777e-02 -7.83281046e-02 1.28293357e-19)	(-9.95500333e-01 -2.80771032e-01 0.00000000e+00)	(1.08601240e+00 3.16072758e-03 1.79007181e-18)	(1.17698730e+00 -1.81016858e+01 3.75686721e-17)
8              	p              	-2.61991812e+00	(9.39341130e-01 -4.33038181e-01 -1.35778440e-17)	3.35892285e+00	(-1.03340804e+00 4.06193460e-02 0.00000000e+00)
8              	U              	(8.60142004e-02 -1.60165999e-01 -1.35068065e-18)	(1.10565837e+00 4.07913059e-01 1.04508224e-17)	(1.20249449e+00 3.57087869e-01 6.42428607e-19)	(-3.62010175e-01 1.28335018e+00 0.00000000e+00)
9              	p              	-2.50710861e+00	(-2.80771032e-01 -9.95500333e-01 0.00000000e+00)	1.84236705e+00	(1.16988515e+00 1.38518882e-01 -3.37112276e-17)
9              	U              	(8.50055215e-02 -9.21936312e-02 -7.36895350e-19)	(7.02007805e-01 7.59452234e-01 0.00000000e+00)	(1.33976042e+00 1.48157158e-02 5.73621471e-19)	(5.55685452e-02 1.41263523e+00 0.00000000e+00)
10             	p              	-2.85356121e+00	(-6.40292572e-01 -8.12236333e-01 -1.36210266e-17)	2.78791805e+00	(1.02709283e+00 1.21582604e-01 0.00000000e+00)
10             	U              	(4.16236194e-02 -5.38564214e-02 -7.79378644e-19)	(7.02007805e-01 7.59452234e-01 0.00000000e+00)	(1.28572726e+00 6.24338009e-02 7.85463801e-19)	(1.76335018e-01 -1.48871873e+00 0.00000000e+00)
11             	p              	-9.06245431e-01	(-3.58010293e-01 -9.70418669e-01 2.63958979e-17)	6.86505823e-01	(1.01443079e+00 2.01798769e-01 0.00000000e+00)
11             	U              	(3.19033299e-02 -3.14061313e-02 -1.83601242e-19)	(7.02007805e-01 7.59452234e-01 0.00000000e+00)	(1.23576506e+00 6.42458165e-02 2.56693582e-19)	(1.76335018e-01 -1.48871873e+00 0.00000000e+00)
12             	p              	-1.54413232e+00	(1.02709283e+00 1.21582604e-01 0.00000000e+00)	2.12602111e+00	(-1.03340804e+00 4.06193460e-02 0.00000000e+00)
12             	U              	(2.01598486e-02 -4.13310065e-02 0.00000000e+00)	(-1.02709283e+00 -1.21582604e-01 0.00000000e+00)	(9.26948607e-01 2.52641289e-01 4.81531236e-19)	(-1.48315909e+00 1.60471714e+00 0.00000000e+00)
13             	p              	-1.78758037e+00	(1.03340804e+00 4.06193460e-02 -2.57200967e-17)	2.32381098e+00	(-1.03340804e+00 4.06193460e-02 0.00000000e+00)
13             	U              	(2.20522960e-02 -6.32722463e-02 0.00000000e+00)	(-1.01443079e+00 -2.01798769e-01 0.00000000e+00)	(1.19242203e+00 1.86525277e-01 3.07256463e-19)	(6.83554323e-01 -1.85266391e+00 0.00000000e+00)
14             	p              	-1.34347827e+00	(2.80771032e-01 -9.95500333e-01 -1.35833420e-17)	8.97657906e-01	(-1.03340804e+00 4.06193460e-02 0.00000000e+00)
14             	U              	(5.58197134e-02 -9.86377179e-02 -4.98629422e-19)	(1.10565837e+00 4.07913059e-01 1.04508224e-17)	(1.30444181e+00 -2.40248279e-03 2.24449258e-19)	(1.97416220e-01 -1.66645754e+00 0.00000000e+00)
15             	p              	-1.62779422e+00	(-1.21582604e-01 -1.02709283e+00 0.00000000e+00)	6.88223337e-01	(1.24528550e+00 1.47461948e-01 1.02498209e-17)
15             	U              	(4.64722607e-02 -4.42154102e-02 -3.88823395e-19)	(7.02007805e-01 7.59452234e-01 0.00000000e+00)	(1.30042473e+00 2.16139837e-03 1.65268382e-19)	(1.97416220e-01 -1.66645754e+00 0.00000000e+00)
16             	p              	-1.28484082e+00	(-2.01798769e-01 -1.01443079e+00 0.00000000e+00)	6.25997505e-01	(1.02709283e+00 1.21582604e-01 0.00000000e+00)
16             	U              	(3.18506048e-02 -3.09581601e-02 -2.98993474e-19)	(7.02007805e-01 7.59452234e-01 0.00000000e+00)	(1.26904981e+00 6.73162082e-02 1.22490940e-19)	(3.46208974e-01 -1.73946696e+00 -2.23024559e-17)
17             	p              	-7.02269174e-01	(1.21582604e-01 -1.02709283e+00 -2.64491183e-17)	6.96784198e-01	(-1.03340804e+00 4.06193460e-02 0.00000000e+00)
17             	U              	(3.05516237e-02 -2.67985862e-02 -6.37832912e-20)	(7.02007805e-01 7.59452234e-01 0.00000000e+00)	(1.23486104e+00 1.08330389e-01 1.07628997e-19)	(-7.35095758e-02 1.86775839e+00 9.86917004e-18)
18             	p              	-7.38821814e-01	(9.70418669e-01 -3.58010293e-01 -1.35777083e-17)	1.22498329e+00	(-1.03340804e+00 4.06193460e-02 0.00000000e+00)
18             	U              	(1.23163591e-02 -4.57359360e-02 0.00000000e+00)	(-1.02709283e+00 -1.21582604e-01 0.00000000e+00)	(1.23295211e+00 1.20629147e-01 1.07081157e-19)	(-7.35095758e-02 1.86775839e+00 9.86917004e-18)
19             	p              	-9.46955433e-01	(4.33038181e-01 -9.39341130e-01 1.35777088e-17)	1.04064871e+00	(-1.03340804e+00 4.06193460e-02 0.00000000e+00)
19             	U              	(3.71914455e-02 -5.83998704e-02 -1.38521440e-19)	(-1.10382177e+00 -4.33950669e-02 0.00000000e+00)	(1.26630417e+00 3.53421455e-02 1.37603883e-19)	(3.46208974e-01 -1.73946696e+00 -2.23024559e-17)
20             	p              	-1.15282952e+00	(1.21582604e-01 -1.02709283e+00 -2.64491183e-17)	5.55805794e-01	(-1.02709283e+00 1.21582604e-01 0.00000000e+00)
20             	U              	(3.73523700e-02 -6.47696781e-02 -2.49865219e-19)	(1.10565837e+00 4.07913059e-01 1.04508224e-17)	(1.26767450e+00 3.13701181e-02 1.57140709e-19)	(3.46208974e-01 -1.73946696e+00 -2.23024559e-17)
21             	p              	-1.16293763e+00	(4.06193460e-02 -1.03340804e+00 0.00000000e+00)	3.30355551e-01	(-1.02709283e+00 1.21582604e-01 0.00000000e+00)
21             	U              	(3.07743372e-02 -2.73059528e-02 -2.03188165e-19)	(7.02007805e-01 7.59452234e-01 0.00000000e+00)	(1.23672940e+00 1.34760421e-01 2.16300957e-19)	(-7.35095758e-02 1.86775839e+00 9.86917004e-18)
22             	p              	-9.57432440e-01	(4.06193460e-02 -1.03340804e+00 0.00000000e+00)	4.89352729e-01	(-1.02709283e+00 1.21582604e-01 0.00000000e+00)
22             	U              	(2.60436419e-02 -2.29415776e-02 -1.44071152e-19)	(7.02007805e-01 7.59452234e-01 0.00000000e+00)	(1.23147649e+00 1.35809156e-01 1.67233540e-19)	(-7.35095758e-02 1.86775839e+00 9.86917004e-18)
23             	p              	-7.91871104e-01	(1.21582604e-01 -1.02709283e+00 -2.64491183e-17)	7.53231179e-01	(-1.02709283e+00 1.21582604e-01 0.00000000e+00)
23             	U              	(2.60094086e-02 -2.22020709e-02 -6.52197249e-20)	(7.02007805e-01 7.59452234e-01 0.00000000e+00)	(1.22688163e+00 1.41271890e-01 1.37133770e-19)	(-7.35095758e-02 1.86775839e+00 9.86917004e-18)
24             	p              	-8.20391270e-01	(2.01798769e-01 -1.01443079e+00 -1.39798975e-17)	8.36788810e-01	(-1.02709283e+00 1.21582604e-01 0.00000000e+00)
24             	U              	(2.79116421e-02 -2.34339013e-02 -4.49104833e-20)	(7.02007805e-01 7.59452234e-01 0.00000000e+00)	(1.22483903e+00 1.48634326e-01 1.49104893e-19)	(-7.35095758e-02 1.86775839e+00 9.86917004e-18)
25             	p              	-9.36995520e-01	(2.01798769e-01 -1.01443079e+00 -1.39798975e-17)	7.21137989e-01	(-1.02709283e+00 1.21582604e-01 0.00000000e+00)
25             	U              	(2.81600246e-02 -2.37219789e-02 -8.21276911e-20)	(7.02007805e-01 7.59452234e-01 0.00000000e+00)	(1.22441577e+00 1.54001401e-01 1.79208103e-19)	(-7.35095758e-02 1.86775839e+00 9.86917004e-18)
26             	p              	-1.00593185e+00	(1.21582604e-01 -1.02709283e+00 -2.64491183e-17)	5.82517095e-01	(-1.02709283e+00 1.21582604e-01 0.00000000e+00)
26             	U              	(2.54439550e-02 -4.56050966e-02 -1.52386222e-19)	(1.10565837e+00 4.07913059e-01 1.04508224e-17)	(1.22357386e+00 1.56290769e-01 1.92370574e-19)	(-7.35095758e-02 1.86775839e+00 9.86917004e-18)
27             	p              	-9.68872906e-01	(4.06193460e-02 -1.03340804e+00 0.00000000e+00)	5.60171803e-01	(-1.02709283e+00 1.21582604e-01 0.00000000e+00)
27             	U              	(2.29797607e-02 -1.96147260e-02 -1.25437912e-19)	(7.02007805e-01 7.59452234e-01 0.00000000e+00)	(1.22127942e+00 1.57524811e-01 1.79462511e-19)	(-7.35095758e-02 1.86775839e+00 9.86917004e-18)
28             	p              	-8.80405779e-01	(4.06193460e-02 -1.03340804e+00 0.00000000e+00)	6.36844219e-01	(-1.02709283e+00 1.21582604e-01 0.00000000e+00)
28             	U              	(2.13304240e-02 -1.80778942e-02 -9.84498245e-20)	(7.02007805e-01 7.59452234e-01 0.00000000e+00)	(1.18108145e+00 2.49803511e-01 1.96240252e-19)	(-3.65380545e-01 1.83572112e+00 0.00000000e+00)
29             	p              	-8.37256899e-01	(1.21582604e-01 -1.02709283e+00 -2.64491183e-17)	7.07356942e-01	(-1.02709283e+00 1.21582604e-01 0.00000000e+00)
29             	U              	(2.11918817e-02 -1.77741082e-02 -7.44883325e-20)	(7.02007805e-01 7.59452234e-01 0.00000000e+00)	(1.21517113e+00 1.64007337e-01 1.51571411e-19)	(-7.35095758e-02 1.86775839e+00 9.86917004e-18)
30             	p              	-8.60608555e-01	(1.21582604e-01 -1.02709283e+00 -2.64491183e-17)	7.07495259e-01	(-1.02709283e+00 1.21582604e-01 0.00000000e+00)
30             	U              	(2.13913067e-02 -1.78421971e-02 -7.34403766e-20)	(7.02007805e-01 7.59452234e-01 0.00000000e+00)	(1.21313323e+00 1.68071030e-01 1.59364008e-19)	(-7.35095758e-02 1.86775839e+00 9.86917004e-18)
31             	p              	-9.01659536e-01	(1.21582604e-01 -1.02709283e+00 -2.64491183e-17)	6.61110559e-01	(-1.02709283e+00 1.21582604e-01 0.00000000e+00)
31             	U              	(1.96628947e-02 -3.50164512e-02 -1.13703740e-19)	(1.10565837e+00 4.07913059e-01 1.04508224e-17)	(1.23530464e+00 3.11502621e-02 1.60642211e-19)	(8.38289810e-01 -2.27200702e+00 0.00000000e+00)
32             	p              	-9.09931781e-01	(4.06193460e-02 -1.03340804e+00 0.00000000e+00)	6.28172436e-01	(-1.02709283e+00 1.21582604e-01 0.00000000e+00)
32             	U              	(1.73922796e-02 -3.30216752e-02 -1.09463435e-19)	(1.10565837e+00 4.07913059e-01 1.04508224e-17)	(1.21195172e+00 2.72879708e-02 8.27748072e-20)	(4.05887266e-01 2.03909204e+00 0.00000000e+00)
33             	p              	-8.82294011e-01	(4.06193460e-02 -1.03340804e+00 0.00000000e+00)	6.35982731e-01	(-1.02709283e+00 1.21582604e-01 0.00000000e+00)
33             	U              	(1.58684776e-02 -3.06183224e-02 -9.43051264e-20)	(1.10565837e+00 4.07913059e-01 1.04508224e-17)	(1.21115173e+00 3.01880223e-02 7.89270991e-20)	(4.05887266e-01 2.03909204e+00 0.00000000e+00)
34             	p              	-8.47893279e-01	(4.06193460e-02 -1.03340804e+00 0.00000000e+00)	6.64238891e-01	(-1.02709283e+00 1.21582604e-01 0.00000000e+00)
34             	U              	(1.52398681e-02 -2.86739235e-02 -8.34026495e-20)	(1.10565837e+00 4.07913059e-01 1.04508224e-17)	(1.21023423e+00 3.35634452e-02 7.63077585e-20)	(4.05887266e-01 2.03909204e+00 0.00000000e+00)
35             	p              	-8.35949228e-01	(1.21582604e-01 -1.02709283e+00 -2.64491183e-17)	6.80095159e-01	(-1.02709283e+00 1.21582604e-01 0.00000000e+00)
35             	U              	(1.48496786e-02 -2.73983510e-02 -8.36905777e-20)	(1.10565837e+00 4.07913059e-01 1.04508224e-17)	(1.20959062e+00 3.69945344e-02 7.66103672e-20)	(4.05887266e-01 2.03909204e+00 0.00000000e+00)
36             	p              	-8.44835234e-01	(1.21582604e-01 -1.02709283e+00 -2.64491183e-17)	6.73394381e-01	(-1.02709283e+00 1.21582604e-01 0.00000000e+00)
36             	U              	(1.40723679e-02 -2.63446376e-02 -8.98537561e-20)	(1.10565837e+00 4.07913059e-01 1.04508224e-17)	(1.20919558e+00 3.99858148e-02 7.82452537e-20)	(4.05887266e-01 2.03909204e+00 0.00000000e+00)
37             	p              	-8.53448698e-01	(4.06193460e-02 -1.03340804e+00 0.00000000e+00)	6.58707286e-01	(-1.02709283e+00 1.21582604e-01 0.00000000e+00)
37             	U              	(1.28723118e-02 -2.50301708e-02 -9.28327798e-20)	(1.10565837e+00 4.07913059e-01 1.04508224e-17)	(1.20875523e+00 4.24657710e-02 7.87748142e-20)	(4.05887266e-01 2.03909204e+00 0.00000000e+00)
38             	p              	-8.47769195e-01	(4.06193460e-02 -1.03340804e+00 0.00000000e+00)	6.53322968e-01	(-1.02709283e+00 1.21582604e-01 0.00000000e+00)
38             	U              	(1.16559859e-02 -2.34010337e-02 -8.93001649e-20)	(1.10565837e+00 4.07913059e-01 1.04508224e-17)	(1.20804830e+00 4.47434417e-02 7.74813943e-20)	(4.05887266e-01 2.03909204e+00 0.00000000e+00)
39             	p              	-8.31091126e-01	(4.06193460e-02 -1.03340804e+00 0.00000000e+00)	6.59995287e-01	(-1.02709283e+00 1.21582604e-01 0.00000000e+00)
39             	U              	(1.07638371e-02 -2.17497892e-02 -8.30348722e-20)	(1.10565837e+00 4.07913059e-01 1.04508224e-17)	(1.20709819e+00 4.71133339e-02 7.55755581e-20)	(4.05887266e-01 2.03909204e+00 0.00000000e+00)
40             	p              	-8.16336378e-01	(4.06193460e-02 -1.03340804e+00 0.00000000e+00)	6.69170342e-01	(-1.02709283e+00 1.21582604e-01 0.00000000e+00)
40             	U              	(1.01756150e-02 -2.03321370e-02 -7.93081512e-20)	(1.10565837e+00 4.07913059e-01 1.04508224e-17)	(1.20607630e+00 4.95821445e-02 7.45068914e-20)	(4.05887266e-01 2.03909204e+00 0.00000000e+00)
41             	p              	-8.10557384e-01	(4.06193460e-02 -1.03340804e+00 0.00000000e+00)	6.72100892e-01	(-1.02709283e+00 1.21582604e-01 0.00000000e+00)
41             	U              	(1.45812451e-02 -4.65538946e-02 -1.50680084e-19)	(1.48871873e+00 1.76335018e-01 0.00000000e+00)	(1.20510780e+00 5.19442804e-02 7.45123389e-20)	(4.05887266e-01 2.03909204e+00 0.00000000e+00)
42             	p              	-8.10040204e-01	(4.06193460e-02 -1.03340804e+00 0.00000000e+00)	6.68834829e-01	(-1.02709283e+00 1.21582604e-01 0.00000000e+00)
42             	U              	(1.20844363e-02 -4.66910451e-02 -1.48917459e-19)	(1.48871873e+00 1.76335018e-01 0.00000000e+00)	(1.20417539e+00 5.40419970e-02 7.47377840e-20)	(4.05887266e-01 2.03909204e+00 0.00000000e+00)
43             	p              	-8.07178171e-01	(4.06193460e-02 -1.03340804e+00 0.00000000e+00)	6.65234217e-01	(-1.02709283e+00 1.21582604e-01 0.00000000e+00)
43             	U              	(9.65902786e-03 -4.67019431e-02 -1.41746957e-19)	(1.48871873e+00 1.76335018e-01 0.00000000e+00)	(1.20317816e+00 5.59085206e-02 7.43689336e-20)	(4.05887266e-01 2.03909204e+00 0.00000000e+00)
44             	p              	-7.98923897e-01	(4.06193460e-02 -1.03340804e+00 0.00000000e+00)	6.65495317e-01	(-1.02709283e+00 1.21582604e-01 0.00000000e+00)
44             	U              	(7.51875198e-03 -4.65877703e-02 -1.33339336e-19)	(1.48871873e+00 1.76335018e-01 0.00000000e+00)	(1.20204691e+00 5.76887404e-02 7.33949714e-20)	(4.05887266e-01 2.03909204e+00 0.00000000e+00)
45             	p              	-7.88286640e-01	(4.06193460e-02 -1.03340804e+00 0.00000000e+00)	6.68727032e-01	(-1.02709283e+00 1.21582604e-01 0.00000000e+00)
45             	U              	(5.66058230e-03 -4.63714038e-02 -1.27805340e-19)	(1.48871873e+00 1.76335018e-01 0.00000000e+00)	(1.20079751e+00 5.94762969e-02 7.23872478e-20)	(4.05887266e-01 2.03909204e+00 0.00000000e+00)
46             	p              	-7.79597911e-01	(4.06193460e-02 -1.03340804e+00 0.00000000e+00)	6.71478658e-01	(-1.02709283e+00 1.21582604e-01 0.00000000e+00)
46             	U              	(3.92866864e-03 -4.60734063e-02 -1.25480130e-19)	(1.48871873e+00 1.76335018e-01 0.00000000e+00)	(1.19949439e+00 6.12457443e-02 7.17889526e-20)	(4.05887266e-01 2.03909204e+00 0.00000000e+00)
47             	p              	-7.73989979e-01	(4.06193460e-02 -1.03340804e+00 0.00000000e+00)	6.71849738e-01	(-1.02709283e+00 1.21582604e-01 0.00000000e+00)
47             	U              	(2.19844386e-03 -4.56971625e-02 -1.23793877e-19)	(1.48871873e+00 1.76335018e-01 0.00000000e+00)	(1.19818345e+00 6.29172151e-02 7.15334585e-20)	(4.05887266e-01 2.03909204e+00 0.00000000e+00)
48             	p              	-7.69319979e-01	(4.06193460e-02 -1.03340804e+00 0.00000000e+00)	6.70774304e-01	(-1.02709283e+00 1.21582604e-01 0.00000000e+00)
48             	U              	(4.75988488e-04 -4.52357216e-02 -1.20491000e-19)	(1.48871873e+00 1.76335018e-01 0.00000000e+00)	(1.19686019e+00 6.44549454e-02 7.12594521e-20)	(4.05887266e-01 2.03909204e+00 0.00000000e+00)
49             	p              	-7.63231760e-01	(4.06193460e-02 -1.03340804e+00 0.00000000e+00)	6.70198667e-01	(-1.02709283e+00 1.21582604e-01 0.00000000e+00)
49             	U              	(-1.15210768e-03 -4.46870752e-02 -1.15594150e-19)	(1.48871873e+00 1.76335018e-01 0.00000000e+00)	(1.19549295e+00 6.58952830e-02 7.07411686e-20)	(4.05887266e-01 2.03909204e+00 0.00000000e+00)
50             	p              	-7.55469268e-01	(4.06193460e-02 -1.03340804e+00 0.00000000e+00)	6.70901664e-01	(-1.02709283e+00 1.21582604e-01 0.00000000e+00)
50             	U              	(-2.62725847e-03 -4.40597020e-02 -1.10702111e-19)	(1.48871873e+00 1.76335018e-01 0.00000000e+00)	(1.19406369e+00 6.72982590e-02 7.00620695e-20)	(4.05887266e-01 2.03909204e+00 0.00000000e+00)
51             	p              	-7.47474186e-01	(4.06193460e-02 -1.03340804e+00 0.00000000e+00)	6.72139272e-01	(-1.02709283e+00 1.21582604e-01 0.00000000e+00)
51             	U              	(-3.96823377e-03 -4.33655414e-02 -1.07039933e-19)	(1.48871873e+00 1.76335018e-01 0.00000000e+00)	(1.19258497e+00 6.86906540e-02 6.94442791e-20)	(4.05887266e-01 2.03909204e+00 0.00000000e+00)
52             	p              	-7.40493445e-01	(4.06193460e-02 -1.03340804e+00 0.00000000e+00)	6.72852164e-01	(-1.02709283e+00 1.21582604e-01 0.00000000e+00)
52             	U              	(-5.23401161e-03 -4.26112619e-02 -1.04424182e-19)	(1.48871873e+00 1.76335018e-01 0.00000000e+00)	(1.19154398e+00 2.76596495e-02 1.45778532e-19)	(6.90656563e-01 2.44782347e+00 0.00000000e+00)
53             	p              	-7.34457367e-01	(4.06193460e-02 -1.03340804e+00 0.00000000e+00)	6.72779722e-01	(-1.02709283e+00 1.21582604e-01 0.00000000e+00)
53             	U              	(-6.46122080e-03 -4.17969769e-02 -1.01889820e-19)	(1.48871873e+00 1.76335018e-01 0.00000000e+00)	(1.19099733e+00 2.89273238e-02 1.45546379e-19)	(6.90656563e-01 2.44782347e+00 0.00000000e+00)
54             	p              	-7.28450554e-01	(4.06193460e-02 -1.03340804e+00 0.00000000e+00)	6.72458130e-01	(-1.02709283e+00 1.21582604e-01 0.00000000e+00)
54             	U              	(-7.64110255e-03 -4.09219015e-02 -9.88150421e-20)	(1.48871873e+00 1.76335018e-01 0.00000000e+00)	(1.19043731e+00 3.01839790e-02 1.45160385e-19)	(6.90656563e-01 2.44782347e+00 0.00000000e+00)
55             	p              	-7.21845491e-01	(4.06193460e-02 -1.03340804e+00 0.00000000e+00)	6.72457459e-01	(-1.02709283e+00 1.21582604e-01 0.00000000e+00)
55             	U              	(-8.74526962e-03 -3.99891622e-02 -9.53821178e-20)	(1.48871873e+00 1.76335018e-01 0.00000000e+00)	(1.18986272e+00 3.14510638e-02 1.44549064e-19)	(6.90656563e-01 2.44782347e+00 0.00000000e+00)
56             	p              	-7.14816510e-01	(4.06193460e-02 -1.03340804e+00 0.00000000e+00)	6.72827606e-01	(-1.02709283e+00 1.21582604e-01 0.00000000e+00)
56             	U              	(-9.76121891e-03 -3.90053129e-02 -9.21552048e-20)	(1.48871873e+00 1.76335018e-01 0.00000000e+00)	(1.18927659e+00 3.27489379e-02 1.43874213e-19)	(6.90656563e-01 2.44782347e+00 0.00000000e+00)
57             	p              	-7.07937552e-01	(4.06193460e-02 -1.03340804e+00 0.00000000e+00)	6.73214609e-01	(-1.02709283e+00 1.21582604e-01 0.00000000e+00)
57             	U              	(-1.07021337e-02 -3.79763609e-02 -8.94382385e-20)	(1.48871873e+00 1.76335018e-01 0.00000000e+00)	(1.18869097e+00 3.40825419e-02 1.43310280e-19)	(6.90656563e-01 2.44782347e+00 0.00000000e+00)
58             	p              	-7.01524935e-01	(4.06193460e-02 -1.03340804e+00 0.00000000e+00)	6.73323644e-01	(-1.02709283e+00 1.21582604e-01 0.00000000e+00)
58             	U              	(-1.15899033e-02 -3.69053306e-02 -8.70746478e-20)	(1.48871873e+00 1.76335018e-01 0.00000000e+00)	(1.18812177e+00 3.54452781e-02 1.42882209e-19)	(6.90656563e-01 2.44782347e+00 0.00000000e+00)
59             	p              	-6.95421623e-01	(4.06193460e-02 -1.03340804e+00 0.00000000e+00)	6.73182980e-01	(-1.02709283e+00 1.21582604e-01 0.00000000e+00)
59             	U              	(-1.24353240e-02 -3.57933457e-02 -8.47337377e-20)	(1.48871873e+00 1.76335018e-01 0.00000000e+00)	(1.18758091e+00 3.68318384e-02 1.42489916e-19)	(6.90656563e-01 2.44782347e+00 0.00000000e+00)
60             	p              	-6.89290990e-01	(4.06193460e-02 -1.03340804e+00 0.00000000e+00)	6.73022028e-01	(-1.02709283e+00 1.21582604e-01 0.00000000e+00)
60             	U              	(-1.32346404e-02 -3.46421424e-02 -8.22665841e-20)	(1.48871873e+00 1.76335018e-01 0.00000000e+00)	(1.18707423e+00 3.82445453e-02 1.42044676e-19)	(6.90656563e-01 2.44782347e+00 0.00000000e+00)
61             	p              	-6.82988036e-01	(4.06193460e-02 -1.03340804e+00 0.00000000e+00)	6.72998532e-01	(-1.02709283e+00 1.21582604e-01 0.00000000e+00)
61             	U              	(-1.39803656e-02 -3.34553128e-02 -7.97826873e-20)	(1.48871873e+00 1.76335018e-01 0.00000000e+00)	(1.18660435e+00 3.96921604e-02 1.41557824e-19)	(6.90656563e-01 2.44782347e+00 0.00000000e+00)
62             	p              	-6.76640046e-01	(4.06193460e-02 -1.03340804e+00 0.00000000e+00)	6.73074371e-01	(-1.02709283e+00 1.21582604e-01 0.00000000e+00)
62             	U              	(-1.46720487e-02 -3.22372545e-02 -7.74647546e-20)	(1.48871873e+00 1.76335018e-01 0.00000000e+00)	(1.18617156e+00 4.11863849e-02 1.41104574e-19)	(6.90656563e-01 2.44782347e+00 0.00000000e+00)
63             	p              	-6.70453739e-01	(4.06193460e-02 -1.03340804e+00 0.00000000e+00)	6.73108176e-01	(-1.02709283e+00 1.21582604e-01 0.00000000e+00)
63             	U              	(-1.53171027e-02 -3.09915311e-02 -7.53753502e-20)	(1.48871873e+00 1.76335018e-01 0.00000000e+00)	(1.18577869e+00 4.27274470e-02 1.40743494e-19)	(6.90656563e-01 2.44782347e+00 0.00000000e+00)
64             	p              	-6.64509024e-01	(4.06193460e-02 -1.03340804e+00 0.00000000e+00)	6.73271506e-01	(-1.03340804e+00 4.06193460e-02 0.00000000e+00)
64             	U              	(-1.59240285e-02 -2.97204498e-02 -7.34349602e-20)	(1.48871873e+00 1.76335018e-01 0.00000000e+00)	(1.18543260e+00 4.43060375e-02 1.40454908e-19)	(6.90656563e-01 2.44782347e+00 0.00000000e+00)
65             	p              	-6.58732473e-01	(4.06193460e-02 -1.03340804e+00 0.00000000e+00)	6.73547670e-01	(-1.03340804e+00 4.06193460e-02 0.00000000e+00)
65             	U              	(-1.64966884e-02 -2.84259228e-02 -7.15369689e-20)	(1.48871873e+00 1.76335018e-01 0.00000000e+00)	(1.18513841e+00 4.59184117e-02 1.40183400e-19)	(6.90656563e-01 2.44782347e+00 0.00000000e+00)
66             	p              	-6.53016400e-01	(4.06193460e-02 -1.03340804e+00 0.00000000e+00)	6.73817135e-01	(-1.03340804e+00 4.06193460e-02 0.00000000e+00)
66             	U              	(-1.70345429e-02 -2.71103804e-02 -6.96515812e-20)	(1.48871873e+00 1.76335018e-01 0.00000000e+00)	(1.18489838e+00 4.75655831e-02 1.39890457e-19)	(6.90656563e-01 2.44782347e+00 0.00000000e+00)
67             	p              	-6.47328514e-01	(4.06193460e-02 -1.03340804e+00 0.00000000e+00)	6.74126254e-01	(-1.03340804e+00 4.06193460e-02 0.00000000e+00)
67             	U              	(-1.75367685e-02 -2.57769132e-02 -6.78269459e-20)	(1.48871873e+00 1.76335018e-01 0.00000000e+00)	(1.18471280e+00 4.92506508e-02 1.39574368e-19)	(6.90656563e-01 2.44782347e+00 0.00000000e+00)
68             	p              	-6.41718188e-01	(4.06193460e-02 -1.03340804e+00 0.00000000e+00)	6.74457367e-01	(-1.03340804e+00 4.06193460e-02 0.00000000e+00)
68             	U              	(-1.80052517e-02 -2.44286424e-02 -6.61164923e-20)	(1.48871873e+00 1.76335018e-01 0.00000000e+00)	(1.18458253e+00 5.09749989e-02 1.39260572e-19)	(6.90656563e-01 2.44782347e+00 0.00000000e+00)
69             	p              	-6.36247474e-01	(4.06193460e-02 -1.03340804e+00 0.00000000e+00)	6.74765729e-01	(-1.03340804e+00 4.06193460e-02 0.00000000e+00)
69             	U              	(-1.84440239e-02 -2.30681903e-02 -6.45260640e-20)	(1.48871873e+00 1.76335018e-01 0.00000000e+00)	(1.18450874e+00 5.27372711e-02 1.38964500e-19)	(6.90656563e-01 2.44782347e+00 0.00000000e+00)
70             	p              	-6.30935904e-01	(4.06193460e-02 -1.03340804e+00 0.00000000e+00)	6.75026094e-01	(-1.03340804e+00 4.06193460e-02 0.00000000e+00)
70             	U              	(-1.88568348e-02 -2.16977180e-02 -6.30214106e-20)	(1.48871873e+00 1.76335018e-01 0.00000000e+00)	(1.18449184e+00 5.45350946e-02 1.38681071e-19)	(6.90656563e-01 2.44782347e+00 0.00000000e+00)
71             	p              	-6.25762924e-01	(4.06193460e-02 -1.03340804e+00 0.00000000e+00)	6.75245183e-01	(-1.03340804e+00 4.06193460e-02 0.00000000e+00)
71             	U              	(-2.04903661e-05 -4.57956382e-02 -6.54780295e-20)	(1.85765077e+00 2.20093220e-01 -1.06142564e-17)	(1.18453082e+00 5.63668165e-02 1.38397700e-19)	(6.90656563e-01 2.44782347e+00 0.00000000e+00)
72             	p              	-6.20703895e-01	(4.06193460e-02 -1.03340804e+00 0.00000000e+00)	6.75442952e-01	(-1.03340804e+00 4.06193460e-02 0.00000000e+00)
72             	U              	(-1.02284022e-03 -4.43386332e-02 -6.45879996e-20)	(1.85765077e+00 2.20093220e-01 -1.06142564e-17)	(1.18462348e+00 5.82316238e-02 1.38109435e-19)	(6.90656563e-01 2.44782347e+00 0.00000000e+00)
73             	p              	-6.15755033e-01	(4.06193460e-02 -1.03340804e+00 0.00000000e+00)	6.75630616e-01	(-1.03340804e+00 4.06193460e-02 0.00000000e+00)
73             	U              	(-1.97186420e-03 -4.28604461e-02 -6.37160246e-20)	(1.85765077e+00 2.20093220e-01 -1.06142564e-17)	(1.18476725e+00 6.01286716e-02 1.37821653e-19)	(6.90656563e-01 2.44782347e+00 0.00000000e+00)
74             	p              	-6.10929059e-01	(4.06193460e-02 -1.03340804e+00 0.00000000e+00)	6.75805944e-01	(-1.03340804e+00 4.06193460e-02 0.00000000e+00)
74             	U              	(-2.87181334e-03 -4.13641913e-02 -6.28765926e-20)	(1.85765077e+00 2.20093220e-01 -1.06142564e-17)	(1.15031382e+00 1.22028344e-01 1.54923740e-19)	(1.15329171e-01 2.92862646e+00 -1.96469762e-17)
75             	p              	-6.06237259e-01	(4.06193460e-02 -1.03340804e+00 0.00000000e+00)	6.75961986e-01	(-1.03340804e+00 4.06193460e-02 0.00000000e+00)
75             	U              	(-3.72689844e-03 -3.98525945e-02 -6.20657904e-20)	(1.85765077e+00 2.20093220e-01 -1.06142564e-17)	(1.15179519e+00 1.24428085e-01 1.55242140e-19)	(1.15329171e-01 2.92862646e+00 -1.96469762e-17)
76             	p              	-6.04923683e-01	(2.01798769e-01 1.01443079e+00 1.39798975e-17)	6.76095261e-01	(-1.03340804e+00 4.06193460e-02 0.00000000e+00)
76             	U              	(-1.16260848e-02 -3.02082868e-02 -6.41715316e-20)	(1.02819339e+00 -5.75773652e-01 -2.16706732e-17)	(1.15327426e+00 1.26828964e-01 1.55552394e-19)	(1.15329171e-01 2.92862646e+00 -1.96469762e-17)
77             	p              	-6.05292475e-01	(2.01798769e-01 1.01443079e+00 1.39798975e-17)	6.76206905e-01	(-1.03340804e+00 4.06193460e-02 0.00000000e+00)
77             	U              	(-1.14721344e-02 -2.97837816e-02 -6.31555510e-20)	(1.02819339e+00 -5.75773652e-01 -2.16706732e-17)	(1.15474678e+00 1.29227652e-01 1.55848592e-19)	(1.15329171e-01 2.92862646e+00 -1.96469762e-17)
78             	p              	-6.05619637e-01	(2.01798769e-01 1.01443079e+00 1.39798975e-17)	6.76299063e-01	(-1.03340804e+00 4.06193460e-02 0.00000000e+00)
78             	U              	(-1.13028769e-02 -2.93425903e-02 -6.21880974e-20)	(1.02819339e+00 -5.75773652e-01 -2.16706732e-17)	(1.15620868e+00 1.31621278e-01 1.56126908e-19)	(1.15329171e-01 2.92862646e+00 -1.96469762e-17)