/*--------------------------------*- C++ -*----------------------------------*\
| =========                 |                                                 |
| \\      /  F ield         | OpenFOAM: The Open Source CFD Toolbox           |
|  \\    /   O peration     | Version:  2112                                  |
|   \\  /    A nd           | Website:  www.openfoam.com                      |
|    \\/     M anipulation  |                                                 |
\*---------------------------------------------------------------------------*/
FoamFile
{
    version     2.0;
    format      ascii;
    arch        "LSB;label=32;scalar=64";
    class       volScalarField;
    location    "9.4995";
    object      Ma;
}
// * * * * * * * * * * * * * * * * * * * * * * * * * * * * * * * * * * * * * //

dimensions      [0 0 0 0 0 0 0];

internalField   nonuniform List<scalar> 
7000
(
3.00001
3
3
3
2.99997
2.99974
2.99933
2.99724
2.99515
2.98426
2.97173
2.92523
2.78509
2.47904
1.78608
0.938825
0.405461
0.381406
0.421641
0.447848
0.447966
0.436096
0.417266
0.399477
0.386204
0.374915
0.363481
0.351426
0.339248
0.327042
0.314467
0.301714
0.288978
0.275885
0.262466
0.249141
0.235602
0.221552
0.207355
0.193111
0.178251
0.162694
0.146912
0.131002
0.113971
0.0953194
0.0756782
0.0556499
0.0345347
0.018917
3.00001
3
3
3
2.99997
2.99975
2.99935
2.99735
2.99535
2.98505
2.97304
2.92931
2.79103
2.49317
1.80327
0.958911
0.412391
0.376858
0.416102
0.442436
0.442774
0.431065
0.41225
0.394257
0.380766
0.369299
0.357672
0.345451
0.333166
0.320871
0.308264
0.295568
0.282866
0.269731
0.256284
0.24292
0.229268
0.215119
0.200884
0.186566
0.171607
0.156082
0.140453
0.12476
0.108119
0.0904295
0.072546
0.0554554
0.0393552
0.030442
3.00001
3
3
3
2.99997
2.99975
2.99936
2.99743
2.99549
2.98555
2.97387
2.93136
2.79491
2.50015
1.81203
0.967462
0.410679
0.368974
0.408915
0.43593
0.436551
0.424958
0.406164
0.388113
0.374588
0.363058
0.351348
0.339141
0.326887
0.314537
0.301976
0.289464
0.276841
0.263736
0.250443
0.237208
0.223607
0.209608
0.195622
0.181518
0.166827
0.15176
0.136815
0.121981
0.106507
0.0907023
0.0757
0.0626396
0.0518747
0.0471446
3.00001
3
3
3
2.99997
2.99975
2.99938
2.9975
2.99564
2.98603
2.97471
2.93342
2.8
2.50977
1.82679
0.984836
0.421519
0.369881
0.408766
0.435381
0.435675
0.423842
0.404854
0.386674
0.372979
0.361208
0.34924
0.33685
0.324425
0.311855
0.299138
0.286556
0.273844
0.260657
0.247357
0.234111
0.220489
0.20657
0.192759
0.178848
0.164489
0.150021
0.135974
0.122287
0.108419
0.0949959
0.0831361
0.0737061
0.0665669
0.0638147
3.00001
3
3.00001
3
2.99997
2.99975
2.99939
2.99758
2.99579
2.98651
2.97553
2.93548
2.80514
2.51954
1.84189
1.00203
0.42952
0.367201
0.406158
0.433217
0.433641
0.421881
0.402985
0.384985
0.371424
0.359687
0.347733
0.335398
0.323005
0.310427
0.297738
0.285205
0.272523
0.259422
0.246283
0.233156
0.21961
0.205847
0.192282
0.178659
0.164749
0.151007
0.137991
0.125602
0.113479
0.102432
0.0933933
0.0867383
0.0819446
0.0801981
3.00001
3
3.00001
3
2.99997
2.99975
2.9994
2.99766
2.99595
2.98704
2.97643
2.93777
2.81074
2.53034
1.8591
1.02234
0.440354
0.366131
0.404895
0.432229
0.432578
0.420672
0.401709
0.38382
0.370366
0.358666
0.346758
0.334514
0.322209
0.309709
0.297143
0.284757
0.272203
0.259299
0.246459
0.233624
0.220347
0.206923
0.19379
0.180657
0.167397
0.154544
0.142688
0.131705
0.121344
0.112476
0.105755
0.10116
0.0978564
0.0967402
3.00001
3
3.00001
3
2.99997
2.99975
2.99942
2.99776
2.99613
2.98762
2.97742
2.94031
2.81678
2.54211
1.87827
1.04553
0.45293
0.365049
0.403708
0.431475
0.431782
0.419706
0.400653
0.382907
0.369629
0.358047
0.346253
0.334178
0.322042
0.309701
0.29734
0.285179
0.272838
0.260221
0.247764
0.235328
0.222501
0.209626
0.197082
0.18461
0.172219
0.160451
0.149865
0.140291
0.131598
0.124619
0.11971
0.116563
0.114335
0.113496
3.00001
3.00001
3.00001
3
2.99997
2.99975
2.99944
2.99787
2.99634
2.98829
2.97852
2.9432
2.82341
2.55521
1.89983
1.07197
0.467044
0.3636
0.402407
0.43086
0.431191
0.418938
0.399789
0.382226
0.36919
0.357801
0.346199
0.334348
0.322457
0.310379
0.29832
0.286473
0.274429
0.262192
0.250196
0.238271
0.226007
0.213825
0.20207
0.19044
0.179023
0.168425
0.15917
0.151006
0.143849
0.138468
0.134981
0.132926
0.131335
0.130831
3.00001
3.00001
3.00001
3
2.99997
2.99976
2.99947
2.998
2.99658
2.98905
2.97978
2.94649
2.83069
2.56976
1.92414
1.1023
0.483047
0.361773
0.400985
0.430349
0.430723
0.418256
0.398996
0.381649
0.368916
0.357787
0.346459
0.334916
0.323341
0.311631
0.299991
0.28855
0.276935
0.2652
0.253766
0.242456
0.2309
0.219551
0.208732
0.198108
0.187797
0.178452
0.170512
0.163644
0.157844
0.153795
0.151434
0.150182
0.149212
0.148722
3.00001
3.00001
3.00001
3
2.99997
2.99977
2.99951
2.99815
2.99685
2.98993
2.98119
2.95023
2.83871
2.58595
1.95173
1.13734
0.501242
0.35949
0.399443
0.429961
0.430375
0.417651
0.398262
0.381192
0.368824
0.358015
0.347023
0.335868
0.324688
0.313427
0.30231
0.291403
0.280338
0.269222
0.258479
0.24788
0.237148
0.226749
0.216945
0.207427
0.198354
0.190328
0.183741
0.178152
0.173569
0.17063
0.169172
0.168635
0.167953
0.16774
3.00001
3.00001
3.00001
3
2.99998
2.99979
2.99956
2.99833
2.99718
2.99094
2.9828
2.95453
2.84759
2.60404
1.9833
1.17813
0.521893
0.356506
0.39766
0.429582
0.430006
0.416979
0.397491
0.380773
0.368828
0.358404
0.347807
0.337105
0.326441
0.315726
0.305224
0.294984
0.2846
0.274255
0.264349
0.25461
0.244843
0.235523
0.226873
0.218546
0.210679
0.203928
0.198648
0.194321
0.190872
0.18895
0.18829
0.188216
0.188097
0.187753
3.00001
3.00001
3.00001
3
2.99998
2.99981
2.99961
2.99853
2.99754
2.99208
2.98457
2.9593
2.85731
2.6242
2.01974
1.22614
0.545637
0.353047
0.395896
0.429355
0.429695
0.416306
0.396764
0.380518
0.369045
0.35903
0.348891
0.338702
0.328598
0.318529
0.308725
0.299211
0.289642
0.280184
0.271202
0.262448
0.253783
0.245626
0.238242
0.231301
0.224811
0.219444
0.215447
0.212293
0.209959
0.208957
0.209065
0.209661
0.209604
0.209642
3.00001
3.00001
3.00001
3
2.99998
2.99984
2.99967
2.99878
2.998
2.99347
2.98662
2.96457
2.86781
2.64673
2.0623
1.28337
0.573053
0.349163
0.394104
0.42912
0.429276
0.415557
0.396103
0.380418
0.369417
0.359796
0.350148
0.340558
0.331122
0.321799
0.312831
0.304198
0.295556
0.287131
0.279264
0.27166
0.26416
0.257279
0.251196
0.245551
0.240532
0.236626
0.234005
0.232152
0.230918
0.230933
0.231796
0.232873
0.233542
0.233295
3.00001
3.00001
3.00001
3
2.99998
2.99986
2.99969
2.99899
2.99797
2.99491
2.98646
2.97188
2.88025
2.67239
2.10988
1.35028
0.603031
0.343549
0.39108
0.427677
0.427922
0.414398
0.395556
0.380644
0.370131
0.36091
0.35172
0.342717
0.333942
0.325382
0.317275
0.309588
0.302
0.294717
0.288056
0.281764
0.275727
0.270334
0.265761
0.261681
0.258124
0.255685
0.254513
0.254107
0.254087
0.255157
0.257008
0.258844
0.259692
0.260244
3.00001
3.00001
3.00001
3
2.99997
2.99989
2.99958
2.99931
2.99724
2.99702
2.98529
2.98149
2.89525
2.69904
2.16534
1.43149
0.637311
0.337068
0.386341
0.423791
0.424709
0.412035
0.394425
0.38038
0.370427
0.361795
0.353329
0.34508
0.337133
0.329454
0.322307
0.315694
0.309235
0.303193
0.297878
0.292951
0.288367
0.284507
0.281541
0.279236
0.277449
0.276685
0.277119
0.278409
0.279891
0.282222
0.285237
0.288166
0.29006
0.290201
3.00001
3.00001
3.00001
2.99999
2.99998
2.99987
2.9997
2.99922
2.99787
2.99671
2.98733
2.98306
2.90473
2.73262
2.24013
1.52816
0.688418
0.346898
0.390808
0.424871
0.426985
0.414651
0.397472
0.382661
0.372203
0.363569
0.355454
0.347764
0.340513
0.333685
0.327549
0.322022
0.316845
0.312238
0.308383
0.305174
0.302308
0.300133
0.298945
0.298435
0.298598
0.299811
0.302141
0.305446
0.308818
0.31285
0.317593
0.321951
0.324992
0.326721
3.00001
3.00001
3.00001
3
2.99997
2.99992
2.9997
2.99947
2.99838
2.99633
2.99348
2.97032
2.91318
2.75091
2.40444
1.69046
0.847794
0.417907
0.434664
0.457054
0.462272
0.44745
0.42704
0.406966
0.392088
0.380213
0.369613
0.359994
0.351358
0.343669
0.337154
0.331663
0.326906
0.323051
0.320271
0.318391
0.317245
0.316978
0.317717
0.319384
0.321688
0.32506
0.329741
0.33554
0.341632
0.348142
0.355431
0.362508
0.368037
0.370314
3.00001
3.00001
3
3
2.99996
2.99992
2.9997
2.99947
2.99839
2.99631
2.99374
2.9731
2.92541
2.79093
2.47423
1.77995
0.93494
0.445637
0.435983
0.464382
0.478281
0.469409
0.452777
0.433174
0.417221
0.404451
0.392894
0.381969
0.371775
0.362577
0.354727
0.348259
0.342873
0.338761
0.336165
0.334829
0.334595
0.335795
0.338265
0.342052
0.346863
0.352925
0.360361
0.369229
0.378972
0.389193
0.400701
0.412155
0.422543
0.430045
3.00001
3.00001
3
3
2.99996
2.99993
2.99975
2.99953
2.99884
2.9966
2.99467
2.97733
2.94093
2.81586
2.53436
1.867
1.03399
0.483976
0.422415
0.454046
0.476268
0.475464
0.46458
0.449419
0.435865
0.425074
0.41518
0.40539
0.3958
0.386554
0.378177
0.370954
0.364867
0.360194
0.357219
0.355914
0.356099
0.357926
0.361658
0.367288
0.374619
0.383589
0.394403
0.407196
0.421771
0.437823
0.456028
0.47613
0.496729
0.516206
3.00001
3.00001
3
3
2.99998
2.99996
2.9999
2.99969
2.9993
2.9973
2.99579
2.98163
2.95903
2.84567
2.59827
1.96043
1.14796
0.534813
0.400267
0.433559
0.462796
0.469419
0.463931
0.453941
0.444274
0.436987
0.430405
0.423584
0.416537
0.409472
0.402566
0.396172
0.390429
0.385795
0.382654
0.381165
0.381483
0.383965
0.388719
0.395739
0.405115
0.416919
0.431354
0.449176
0.469925
0.494144
0.523565
0.560374
0.61015
0.696656
3.00001
3.00001
3.00001
3
2.99999
2.99998
2.99989
2.99975
2.99904
2.99834
2.99261
2.99151
2.95343
2.86185
2.61957
2.16199
1.26325
0.662256
0.41533
0.441935
0.473147
0.48143
0.476099
0.466859
0.45743
0.451141
0.446474
0.442267
0.43817
0.434148
0.430334
0.426863
0.4238
0.421089
0.419327
0.41922
0.421
0.424716
0.430609
0.439239
0.451011
0.466106
0.485128
0.508988
0.539438
0.57677
0.623948
0.688144
0.783757
0.911148
3.00001
3.00001
3.00001
3
2.99999
2.99993
2.99988
2.99955
2.9992
2.99714
2.99469
2.9822
2.96307
2.88691
2.73535
2.35413
1.64871
0.817692
0.433275
0.470007
0.510585
0.52513
0.518519
0.506456
0.493177
0.482735
0.475418
0.469797
0.465104
0.461302
0.458414
0.456307
0.454955
0.454608
0.455579
0.457803
0.461557
0.467046
0.474922
0.485389
0.499364
0.51752
0.539989
0.568602
0.604258
0.650232
0.708609
0.781962
0.887208
0.996031
3.00001
3.00001
3.00001
3.00001
3
3
2.99995
2.99985
2.99946
2.99885
2.99485
2.99329
2.96906
2.91633
2.76673
2.43471
1.72476
0.878054
0.425319
0.459328
0.50324
0.531776
0.534908
0.52812
0.518286
0.509432
0.503013
0.497973
0.493704
0.490251
0.487654
0.486263
0.486374
0.488023
0.490734
0.494916
0.500577
0.508362
0.518227
0.531154
0.546887
0.567071
0.591889
0.622202
0.659795
0.704802
0.761931
0.827182
0.914176
0.991746
3.00001
3.00001
3.00001
3.00001
3
3
2.99996
2.99989
2.99959
2.99912
2.99615
2.99545
2.97522
2.93647
2.8064
2.51216
1.82872
0.994081
0.475254
0.448126
0.488541
0.520864
0.529279
0.527724
0.523073
0.519149
0.517252
0.51613
0.514876
0.513729
0.513223
0.514038
0.515917
0.5189
0.523055
0.528777
0.536074
0.545538
0.557061
0.571322
0.588856
0.609331
0.634895
0.664168
0.700369
0.740766
0.790456
0.844031
0.910344
0.970291
3.00001
3.00001
3.00001
3.00001
3.00001
3
2.99998
2.99993
2.99969
2.99935
2.99734
2.99606
2.98239
2.95994
2.8437
2.58512
1.94037
1.13
0.547557
0.436673
0.470828
0.504404
0.516938
0.518878
0.51846
0.518438
0.520454
0.522969
0.525491
0.528479
0.531934
0.535722
0.539994
0.545049
0.551134
0.558439
0.567351
0.577873
0.590656
0.60537
0.623302
0.643459
0.667995
0.695026
0.727839
0.763225
0.805057
0.850458
0.902354
0.950913
3.00001
3.00001
3.00001
3.00001
3
2.99999
2.99999
2.99989
2.99974
2.99895
2.99811
2.99198
2.98957
2.95061
2.86312
2.62357
2.17137
1.28709
0.688362
0.452
0.477125
0.508188
0.522892
0.52515
0.524239
0.52408
0.525987
0.529063
0.533379
0.538903
0.544829
0.550966
0.557613
0.564847
0.573157
0.582253
0.592897
0.604594
0.61833
0.633402
0.651179
0.670538
0.69343
0.718031
0.74685
0.778006
0.813299
0.851447
0.893087
0.932624
3.00001
3.00001
3.00001
3.00001
3.00001
3
2.99999
2.99994
2.99986
2.99931
2.99905
2.99531
2.98642
2.96595
2.89327
2.74307
2.37861
1.67562
0.856603
0.471289
0.493919
0.528409
0.553147
0.555563
0.551182
0.547928
0.546535
0.54711
0.550118
0.554846
0.560436
0.566514
0.573747
0.581693
0.591057
0.601212
0.612846
0.625514
0.639774
0.655384
0.67278
0.691778
0.712844
0.735898
0.760979
0.788419
0.818227
0.850237
0.884192
0.916505
3.00001
3.00001
3.00001
3.00001
3.00001
3
3
2.99996
2.99989
2.99955
2.99907
2.99562
2.99524
2.97255
2.92822
2.78714
2.47146
1.771
0.937801
0.471101
0.477204
0.520981
0.555581
0.565446
0.565043
0.563876
0.56341
0.564388
0.567755
0.572545
0.577879
0.583618
0.590521
0.598302
0.607497
0.617665
0.629213
0.641926
0.655986
0.671405
0.688289
0.706559
0.726367
0.747724
0.770528
0.795177
0.821183
0.848195
0.876875
0.903824
3.00001
3.00001
3.00001
3.00001
3.00001
3
3
2.99997
2.99993
2.99969
2.99933
2.99736
2.99577
2.9819
2.95576
2.83579
2.55689
1.8921
1.07601
0.533668
0.462775
0.500353
0.537534
0.554332
0.559492
0.562277
0.565314
0.569335
0.575544
0.582441
0.589489
0.596364
0.604146
0.612488
0.621935
0.632127
0.6435
0.655785
0.669316
0.683869
0.699771
0.716805
0.735117
0.754661
0.775518
0.797611
0.820462
0.844189
0.869053
0.89208
3.00001
3.00001
3.00001
3.00001
3.00001
3
3
2.99999
2.99989
2.99973
2.9989
2.99804
2.99121
2.99055
2.94795
2.85265
2.59599
2.11324
1.21366
0.658102
0.46173
0.490351
0.527371
0.548834
0.556436
0.559914
0.5642
0.570097
0.577831
0.585861
0.594131
0.602563
0.61152
0.621004
0.631252
0.642027
0.653682
0.665998
0.679243
0.69328
0.708246
0.7242
0.740987
0.758941
0.777792
0.797451
0.817593
0.83844
0.860176
0.880224
3.00001
3.00001
3.00001
3.00001
3.00001
3.00001
3
2.99999
2.99992
2.99981
2.99918
2.99863
2.99432
2.99234
2.96308
2.89056
2.71982
2.34374
1.62807
0.835431
0.477959
0.506019
0.547015
0.574947
0.581627
0.581078
0.581644
0.584903
0.590144
0.596436
0.603346
0.611087
0.619593
0.6288
0.638851
0.649532
0.660964
0.673085
0.685915
0.699481
0.713738
0.728759
0.744533
0.761095
0.77815
0.795585
0.813639
0.832202
0.851357
0.869052
3.00001
3.00001
3.00001
3.00001
3.00001
3
3
2.99998
2.99996
2.99977
2.99951
2.9979
2.99664
2.98508
2.98197
2.91021
2.75466
2.36592
1.68997
0.814419
0.442646
0.473043
0.522056
0.561548
0.576855
0.581609
0.584998
0.589864
0.595802
0.602584
0.609741
0.617455
0.625847
0.634837
0.644577
0.654959
0.665956
0.677659
0.689908
0.702866
0.716334
0.730539
0.745327
0.760607
0.776118
0.792118
0.808497
0.825246
0.842406
0.858212
3.00001
3.00001
3.00001
3.00001
3.00001
3.00001
3
3
2.99996
2.99993
2.99964
2.99924
2.997
2.99525
2.98003
2.95231
2.82148
2.52915
1.83502
1.01219
0.508041
0.470122
0.508891
0.547765
0.565755
0.572791
0.577915
0.584301
0.591871
0.600075
0.608665
0.617494
0.626735
0.636373
0.646391
0.65698
0.667913
0.679445
0.691368
0.703819
0.716752
0.73021
0.743982
0.757974
0.772364
0.787132
0.802179
0.817462
0.833043
0.847349
3.00001
3.00001
3.00001
3.00001
3.00001
3.00001
3
2.99999
2.99997
2.9998
2.99959
2.99769
2.99489
2.97851
2.97488
2.94125
2.84013
2.56221
2.04633
1.13228
0.61048
0.457631
0.490746
0.531258
0.554912
0.564576
0.570121
0.576569
0.584522
0.593352
0.602707
0.612336
0.622283
0.632606
0.64317
0.654162
0.665391
0.677001
0.688903
0.701178
0.713827
0.726659
0.739668
0.752973
0.766531
0.780328
0.794307
0.808405
0.822732
0.835846
3.00001
3.00001
3.00001
3.00001
3.00001
3.00001
3
3
2.99999
2.99992
2.99981
2.99922
2.9985
2.99254
2.99104
2.95644
2.87511
2.67166
2.24666
1.43491
0.76086
0.473556
0.505481
0.551432
0.581079
0.589556
0.591091
0.593278
0.597749
0.603724
0.610697
0.618389
0.626624
0.635499
0.644844
0.654736
0.665074
0.675842
0.687054
0.698644
0.710444
0.72246
0.734725
0.747255
0.759972
0.772854
0.785861
0.79893
0.812174
0.82428
3.00001
3.00001
3.00001
3.00001
3.00001
3.00001
3.00001
3
2.99998
2.99997
2.99979
2.99952
2.99795
2.99659
2.98327
2.98209
2.89963
2.73496
2.31238
1.63329
0.76303
0.416435
0.469541
0.529436
0.568082
0.583116
0.588935
0.593863
0.600097
0.607239
0.614667
0.622328
0.630159
0.638427
0.647061
0.656151
0.665666
0.675627
0.685994
0.69659
0.707452
0.718609
0.730037
0.741674
0.75351
0.765452
0.777534
0.789621
0.801892
0.813071
3.00001
3.00001
3.00001
3.00001
3.00001
3.00001
3
3
2.99999
2.99998
2.9998
2.99957
2.99795
2.99686
2.98466
2.98498
2.91427
2.76574
2.39747
1.73056
0.822029
0.435507
0.454485
0.50295
0.545075
0.563681
0.571883
0.578942
0.587188
0.596206
0.60537
0.614518
0.623575
0.632698
0.641952
0.65141
0.661143
0.671092
0.681206
0.691493
0.702028
0.712761
0.723695
0.734772
0.746003
0.757283
0.76867
0.780051
0.79156
0.802058
3.00001
3.00001
3.00001
3.00001
3.00001
3.00001
3.00001
3
2.99999
2.99995
2.9999
2.99947
2.99882
2.99475
2.99529
2.97902
2.96543
2.83656
2.54781
1.85539
1.04505
0.516358
0.460316
0.497289
0.536337
0.554043
0.561673
0.568203
0.576095
0.585169
0.594637
0.604213
0.613819
0.623489
0.633239
0.643016
0.652863
0.662789
0.672825
0.68304
0.693403
0.703918
0.714569
0.725304
0.736131
0.747016
0.757932
0.768851
0.779822
0.789873
3.00001
3.00001
3.00001
3.00001
3.00001
3.00001
3.00001
3
3
2.99996
2.99992
2.99957
2.99906
2.99606
2.99432
2.9744
2.97321
2.85748
2.60971
1.97727
1.18893
0.577564
0.43546
0.470884
0.515168
0.54066
0.551162
0.557671
0.564883
0.573398
0.582647
0.592211
0.60194
0.611761
0.621637
0.631569
0.64159
0.65166
0.661858
0.672156
0.682552
0.693014
0.70354
0.714087
0.724666
0.735231
0.745796
0.756315
0.766879
0.776528
3.00001
3.00001
3.00001
3.00001
3.00001
3.00001
3.00001
3
2.99999
2.99997
2.99984
2.99971
2.99849
2.99665
2.98518
2.98378
2.95813
2.88372
2.65818
2.22331
1.36822
0.716728
0.437851
0.47617
0.529397
0.563236
0.574732
0.577814
0.580872
0.585726
0.591829
0.598584
0.605746
0.6133
0.621249
0.629532
0.638134
0.64699
0.65609
0.665423
0.674931
0.684606
0.69441
0.704324
0.714302
0.724318
0.734348
0.744367
0.754427
0.763634
3.00001
3.00001
3.00001
3.00001
3.00001
3.00001
3.00001
3
2.99999
2.99998
2.9999
2.99981
2.99896
2.99768
2.98998
2.98853
2.9705
2.91768
2.74545
2.38317
1.64498
0.829766
0.419589
0.47071
0.533971
0.577642
0.59251
0.595299
0.596956
0.600345
0.605049
0.610447
0.616184
0.622101
0.628378
0.635017
0.64203
0.64938
0.657029
0.664991
0.673177
0.681612
0.690229
0.699021
0.707945
0.716984
0.726096
0.735264
0.744508
0.752997
3.00001
3.00001
3.00001
3.00001
3.00001
3.00001
3.00001
3
3
2.99998
2.99995
2.99975
2.99947
2.99778
2.99642
2.98416
2.98373
2.90769
2.75067
2.35134
1.67581
0.770857
0.384847
0.433711
0.497993
0.545015
0.564975
0.572481
0.578
0.584744
0.592459
0.600311
0.607945
0.615358
0.622677
0.630026
0.637455
0.645033
0.652719
0.660573
0.668576
0.676709
0.684952
0.693308
0.701737
0.710253
0.718794
0.727358
0.735975
0.74388
3.00001
3.00001
3.00001
3.00001
3.00001
3.00001
3.00001
3.00001
3
2.99999
2.99997
2.99981
2.99958
2.99799
2.99696
2.98643
2.98631
2.9206
2.7808
2.42959
1.79616
0.867182
0.445339
0.430539
0.477609
0.52173
0.541915
0.550107
0.556395
0.564056
0.572929
0.582112
0.59122
0.600212
0.609041
0.617715
0.626261
0.634718
0.643081
0.651402
0.659682
0.667974
0.676266
0.684559
0.692874
0.701183
0.709515
0.717836
0.726184
0.733831
3.00001
3.00001
3.00001
3.00001
3.00001
3.00001
3.00001
3
3
2.99998
2.99996
2.99978
2.99954
2.99808
2.99704
2.98719
2.98703
2.92741
2.80516
2.48499
1.89921
0.977417
0.509555
0.432076
0.472145
0.515416
0.536584
0.544627
0.549948
0.556544
0.564623
0.573451
0.582475
0.591544
0.60056
0.609548
0.618435
0.627236
0.635948
0.644555
0.653061
0.661494
0.669876
0.678204
0.68648
0.694712
0.70288
0.711018
0.719128
0.726562
3.00001
3.00001
3.00001
3.00001
3.00001
3.00001
3.00001
3.00001
3
2.99999
2.99996
2.99991
2.99956
2.99903
2.99585
2.99428
2.97339
2.97156
2.84893
2.58815
1.94091
1.15533
0.552804
0.427674
0.467513
0.514459
0.539774
0.548355
0.552303
0.557222
0.563823
0.571428
0.579378
0.5875
0.595724
0.604068
0.612543
0.621045
0.629593
0.638111
0.646577
0.65501
0.66335
0.671661
0.679908
0.688107
0.696261
0.70432
0.712379
0.719688
3.00001
3.00001
3.00001
3.00001
3.00001
3.00001
3.00001
3.00001
3
3
2.99996
2.99994
2.99963
2.99927
2.99647
2.99484
2.97561
2.97652
2.85829
2.63096
2.02778
1.26848
0.589912
0.401624
0.445235
0.49696
0.525138
0.534801
0.539145
0.54427
0.550945
0.558525
0.566355
0.57423
0.582201
0.590239
0.598452
0.606757
0.615166
0.623656
0.632181
0.640764
0.649295
0.657841
0.6663
0.674688
0.683022
0.691242
0.69952
0.707044
3.00001
3.00001
3.00001
3.00001
3.00001
3.00001
3.00001
3.00001
3
3
2.99997
2.99995
2.99975
2.99949
2.99772
2.99581
2.97882
2.97315
2.87333
2.65812
2.10081
1.34919
0.617171
0.366959
0.417126
0.476919
0.507297
0.517746
0.522386
0.527723
0.534552
0.542132
0.549939
0.557646
0.565374
0.573134
0.581012
0.589083
0.597315
0.605746
0.614311
0.622993
0.631684
0.640399
0.649054
0.657678
0.666285
0.674806
0.683416
0.691233
3.00001
3.00001
3.00001
3.00001
3.00001
3.00001
3.00001
3.00001
3
2.99999
2.99998
2.99989
2.99983
2.99891
2.99755
2.98907
2.99076
2.96555
2.90528
2.72772
2.34477
1.59661
0.794656
0.40316
0.45302
0.51714
0.552958
0.561842
0.561882
0.561942
0.564287
0.567791
0.571905
0.576235
0.580825
0.585707
0.590861
0.596455
0.602358
0.608662
0.615258
0.622152
0.629282
0.63661
0.644079
0.651672
0.65935
0.66709
0.674949
0.682179
3.00001
3.00001
3.00001
3.00001
3.00001
3.00001
3.00001
3.00001
3.00001
3
2.99999
2.99996
2.99992
2.99953
2.99902
2.99551
2.9935
2.97177
2.92864
2.76995
2.41382
1.66512
0.83611
0.377205
0.433249
0.50212
0.549992
0.566643
0.569949
0.571622
0.574889
0.579231
0.583938
0.58859
0.593163
0.597775
0.602437
0.607343
0.612448
0.617808
0.623394
0.629196
0.635186
0.641356
0.647687
0.654154
0.660749
0.667415
0.674214
0.680471
3.00001
3.00001
3.00001
3.00001
3.00001
3.00001
3.00001
3.00001
3.00001
3
2.99999
2.99994
2.99988
2.99951
2.99902
2.99574
2.9937
2.97349
2.94486
2.79381
2.45479
1.70922
0.87955
0.390291
0.422715
0.481232
0.532665
0.553344
0.55872
0.561762
0.56637
0.572307
0.578604
0.584699
0.590596
0.596295
0.601901
0.607526
0.613103
0.618822
0.624562
0.630412
0.636371
0.64235
0.648478
0.654571
0.660776
0.66698
0.673226
0.679016
3.00001
3.00001
3.00001
3.00001
3.00001
3.00001
3.00001
3.00001
3.00001
3
2.99999
2.99995
2.99992
2.99947
2.99884
2.99446
2.99444
2.97775
2.96151
2.81555
2.48805
1.74971
0.925789
0.413
0.415229
0.470166
0.520696
0.541962
0.547944
0.551226
0.556012
0.562288
0.569135
0.575805
0.582408
0.588741
0.59505
0.601329
0.607506
0.613834
0.619978
0.626297
0.632471
0.638688
0.644904
0.650991
0.657181
0.663188
0.669275
0.674799
3.00001
3.00001
3.00001
3.00001
3.00001
3.00001
3.00001
3.00001
3.00001
3
2.99999
2.99995
2.9999
2.99952
2.99898
2.99582
2.9939
2.97456
2.96349
2.82257
2.50606
1.79454
0.976132
0.436952
0.411326
0.463295
0.513059
0.533818
0.539476
0.542495
0.547069
0.553213
0.560036
0.566833
0.573683
0.580329
0.58704
0.593678
0.600251
0.606881
0.613314
0.619845
0.626192
0.632548
0.638806
0.644975
0.651097
0.657084
0.663077
0.668473
3.00001
3.00001
3.00001
3.00001
3.00001
3.00001
3.00001
3.00001
3.00001
3
2.99999
2.99994
2.99989
2.99945
2.99887
2.995
2.99355
2.96888
2.96949
2.82142
2.52849
1.83552
1.02193
0.460729
0.407762
0.45788
0.507434
0.527987
0.533347
0.536121
0.540484
0.54644
0.553104
0.559901
0.566702
0.573415
0.580153
0.586803
0.593464
0.600025
0.60654
0.612978
0.619288
0.625569
0.631689
0.637772
0.643731
0.649605
0.655382
0.660651
3.00001
3.00001
3.00001
3.00001
3.00001
3.00001
3.00001
3.00001
3.00001
3
2.99999
2.99996
2.99993
2.99954
2.99899
2.99551
2.99381
2.97031
2.97212
2.82806
2.54387
1.87052
1.06536
0.482806
0.404263
0.452494
0.501858
0.523233
0.528862
0.531493
0.535576
0.541223
0.547619
0.554189
0.560746
0.567339
0.573906
0.580467
0.587
0.59342
0.59982
0.606054
0.612262
0.6183
0.624269
0.630119
0.63582
0.641462
0.646962
0.65198
3.00001
3.00001
3.00001
3.00001
3.00001
3.00001
3.00001
3.00001
3.00001
3
3
2.99996
2.99993
2.99954
2.99902
2.9955
2.99412
2.97047
2.97412
2.83572
2.56518
1.90248
1.10466
0.501902
0.399908
0.4464
0.495689
0.518753
0.525315
0.527973
0.531677
0.5368
0.542591
0.548599
0.554698
0.560884
0.567117
0.573386
0.5796
0.585785
0.591871
0.597888
0.603783
0.609524
0.615187
0.620708
0.626306
0.631823
0.637493
0.642699
3.00001
3.00001
3.00001
3.00001
3.00001
3.00001
3.00001
3.00001
3.00001
3
3
2.99996
2.99992
2.99957
2.99905
2.99576
2.99418
2.97273
2.97236
2.84648
2.58493
1.93176
1.14191
0.519896
0.392748
0.438359
0.488776
0.514161
0.521706
0.524098
0.527062
0.531358
0.536372
0.541557
0.546896
0.5524
0.558039
0.563753
0.569464
0.575224
0.58089
0.586592
0.592252
0.598013
0.603852
0.60983
0.615955
0.622188
0.628657
0.634627
3.00001
3.00001
3.00001
3.00001
3.00001
3.00001
3.00001
3.00001
3
3
2.99999
2.99998
2.99985
2.99966
2.99846
2.99789
2.99048
2.99015
2.94364
2.83463
2.55678
2.02575
1.11493
0.566625
0.391544
0.437294
0.491807
0.52324
0.534602
0.538873
0.543189
0.549016
0.555712
0.562618
0.569513
0.576405
0.583318
0.590213
0.597009
0.603614
0.609961
0.61605
0.621905
0.627573
0.633078
0.638445
0.643705
0.648925
0.654331
0.659379
3.00001
3.00001
3.00001
3.00001
3.00001
3.00001
3.00001
3.00001
3
3
2.99998
2.99996
2.99983
2.99975
2.99834
2.99638
2.98314
2.98757
2.94905
2.85444
2.59485
2.09845
1.20727
0.618919
0.399725
0.445207
0.503032
0.539996
0.554565
0.560408
0.565795
0.572598
0.580233
0.587978
0.59549
0.602676
0.609541
0.616094
0.622343
0.628313
0.633953
0.639242
0.64436
0.649356
0.654235
0.65899
0.663638
0.668247
0.672981
0.677477
3.00001
3.00001
3.00001
3.00001
3.00001
3.00001
3.00001
3.00001
3.00001
3
3
2.99997
2.99994
2.99962
2.99917
2.99596
2.9943
2.97398
2.97522
2.85498
2.61219
1.97163
1.19271
0.534396
0.367113
0.418707
0.476086
0.504745
0.513914
0.517052
0.520482
0.525213
0.530483
0.535668
0.540627
0.545462
0.550319
0.555341
0.560623
0.566302
0.572565
0.579271
0.586382
0.5938
0.60148
0.609349
0.617329
0.625411
0.633536
0.641088
3.00001
3.00001
3.00001
3.00001
3.00001
3.00001
3.00001
3.00001
3
3
2.99998
2.99997
2.99983
2.99976
2.99837
2.99646
2.98346
2.98784
2.95025
2.85835
2.60436
2.11659
1.23112
0.626884
0.392007
0.440781
0.502393
0.5409
0.555524
0.560748
0.565419
0.571598
0.578636
0.58569
0.592322
0.59843
0.604071
0.609435
0.614476
0.618961
0.623337
0.627879
0.632575
0.637354
0.642188
0.647326
0.652971
0.658727
0.664432
0.669724
1.24871
0.880899
0.392862
0.254861
0.184779
0.312254
0.344436
0.353813
0.345646
0.335738
0.328208
0.321943
0.313505
0.299785
0.281184
0.2592
0.234489
0.208424
0.181225
0.153329
0.125093
0.0967327
0.0685111
0.0410235
0.0186407
0.0251905
0.0516276
0.0785416
0.105139
0.131053
0.156494
0.181346
0.205614
0.229332
0.251971
0.273228
0.294198
0.316296
0.338792
0.360376
0.381042
0.401077
0.420572
0.439526
0.458039
0.47606
0.493638
0.510752
0.527428
0.543658
0.559473
0.574803
0.589744
0.604199
0.618282
0.631874
0.645068
0.657798
0.67009
0.681907
0.693277
0.704107
0.714456
0.724214
0.733418
0.741988
0.749918
0.757156
0.763637
0.769371
0.774241
0.778296
0.781427
0.783686
0.785046
0.785932
0.78657
0.786756
0.786116
0.784164
0.78139
0.778401
0.775424
0.772363
0.769547
0.766768
0.764482
0.762442
0.760987
0.75993
0.759493
0.759468
0.759938
0.760613
0.761404
0.762306
0.763477
0.764913
0.766307
0.770372
1.15141
0.942
0.692124
0.486761
0.425909
0.34081
0.26837
0.215559
0.163387
0.116267
0.0917325
0.0707704
0.0826015
0.0951647
0.10791
0.12571
0.144106
0.163615
0.183957
0.204631
0.225406
0.24612
0.266789
0.287092
0.306724
0.325868
0.34545
0.365245
0.385007
0.404615
0.424068
0.4433
0.462312
0.481124
0.499403
0.516767
0.533754
0.551335
0.569688
0.587597
0.604712
0.621278
0.637477
0.653343
0.668897
0.684093
0.699006
0.713525
0.727747
0.741627
0.755109
0.768315
0.781066
0.793556
0.805544
0.817313
0.828544
0.839547
0.850066
0.860246
0.870031
0.879376
0.888302
0.896737
0.904719
0.912152
0.919051
0.925379
0.931063
0.936093
0.940429
0.944011
0.946836
0.948855
0.950081
0.950898
0.951443
0.951662
0.951055
0.949429
0.946976
0.944317
0.941514
0.938791
0.936113
0.933698
0.931586
0.92985
0.928595
0.927733
0.927401
0.927485
0.927934
0.928644
0.929351
0.930305
0.931341
0.932821
0.933902
0.93766
1.08834
1.03549
0.93173
0.847704
0.788971
0.736232
0.684959
0.643462
0.610454
0.581783
0.561014
0.550446
0.543975
0.540994
0.540417
0.542527
0.546678
0.552081
0.558726
0.566461
0.575059
0.584382
0.594192
0.604412
0.614839
0.625445
0.636335
0.647447
0.658745
0.670153
0.68167
0.693269
0.704936
0.716741
0.728375
0.739526
0.750551
0.762135
0.77487
0.787891
0.80043
0.812458
0.824284
0.835958
0.847653
0.859244
0.870825
0.882346
0.893736
0.905132
0.916258
0.927387
0.938235
0.948938
0.959414
0.969653
0.97963
0.989347
0.998738
1.00786
1.01658
1.025
1.03296
1.04055
1.04762
1.0542
1.06025
1.0657
1.07057
1.07483
1.07842
1.08138
1.08357
1.085
1.08577
1.08616
1.08633
1.08615
1.08532
1.08359
1.08124
1.07866
1.07598
1.07334
1.07092
1.06863
1.06675
1.06499
1.06376
1.06273
1.06224
1.06193
1.06212
1.06239
1.06265
1.06304
1.06367
1.06444
1.06495
1.0677
1.06294
1.0687
1.04074
1.0072
0.979729
0.956031
0.9324
0.90813
0.886635
0.869011
0.855166
0.847055
0.843517
0.840897
0.838151
0.83531
0.833131
0.831386
0.830477
0.830543
0.831305
0.833136
0.835687
0.838818
0.842299
0.846238
0.850643
0.855615
0.86118
0.86716
0.873543
0.880245
0.887172
0.894425
0.901752
0.90872
0.915534
0.922665
0.930528
0.938808
0.946862
0.954771
0.96262
0.970592
0.978852
0.987379
0.996079
1.00495
1.01386
1.02287
1.03189
1.04091
1.0499
1.05887
1.06769
1.07651
1.08511
1.09366
1.10201
1.11019
1.11817
1.12584
1.13332
1.14037
1.14718
1.15352
1.15946
1.16498
1.16987
1.17432
1.17811
1.18124
1.1837
1.1854
1.18636
1.1871
1.18762
1.18774
1.18716
1.18589
1.18408
1.18192
1.1795
1.17696
1.17461
1.17225
1.17024
1.16849
1.16706
1.16603
1.16523
1.16508
1.16493
1.16512
1.16508
1.16537
1.16556
1.16601
1.16591
1.16781
1.03798
1.06739
1.0752
1.07511
1.0725
1.06926
1.06442
1.057
1.04824
1.03966
1.03328
1.0301
1.0281
1.02524
1.02092
1.01613
1.01123
1.00651
1.00205
0.997953
0.994386
0.991399
0.988984
0.987159
0.985874
0.985226
0.985122
0.985826
0.987237
0.989291
0.99199
0.995285
0.999158
1.00358
1.00819
1.01266
1.01718
1.02222
1.02841
1.03575
1.04333
1.05095
1.0585
1.06606
1.07367
1.08137
1.08907
1.09688
1.10458
1.11238
1.12008
1.12779
1.13548
1.14309
1.15069
1.15817
1.16557
1.1728
1.17989
1.18679
1.19348
1.19998
1.20622
1.21225
1.21787
1.22335
1.22821
1.23295
1.23703
1.24083
1.24397
1.24673
1.2487