/*--------------------------------*- C++ -*----------------------------------*\
| =========                 |                                                 |
| \\      /  F ield         | OpenFOAM: The Open Source CFD Toolbox           |
|  \\    /   O peration     | Version:  2112                                  |
|   \\  /    A nd           | Website:  www.openfoam.com                      |
|    \\/     M anipulation  |                                                 |
\*---------------------------------------------------------------------------*/
FoamFile
{
    version     2.0;
    format      ascii;
    arch        "LSB;label=32;scalar=64";
    class       volScalarField;
    location    "9.4995";
    object      p;
}
// * * * * * * * * * * * * * * * * * * * * * * * * * * * * * * * * * * * * * //

dimensions      [1 -1 -2 0 0 0 0];

internalField   nonuniform List<scalar> 
7000
(
0.999999
1
1.00001
1.00001
1.00003
1.00016
1.00066
1.00154
1.00458
1.00892
1.02704
1.03889
1.22873
1.32228
2.55745
4.48168
10.4354
11.0359
10.7982
10.5079
10.474
10.5193
10.6324
10.7629
10.8577
10.9311
11.0009
11.0721
11.1437
11.2137
11.2816
11.3477
11.4121
11.4746
11.5353
11.5944
11.6513
11.7059
11.7586
11.8093
11.8566
11.9013
11.9435
11.9827
12.0173
12.0479
12.0746
12.0965
12.1124
12.1242
1
1
1.00001
1.00001
1.00003
1.00015
1.00064
1.00149
1.0044
1.00852
1.02582
1.03635
1.22373
1.30466
2.52733
4.3838
10.2739
11.0138
10.7914
10.5051
10.47
10.5143
10.6254
10.7553
10.8505
10.9245
10.9946
11.0661
11.1377
11.2079
11.2759
11.3421
11.4067
11.4694
11.5303
11.5896
11.6467
11.7015
11.7545
11.8054
11.8529
11.8979
11.9402
11.9797
12.0144
12.0452
12.0721
12.094
12.1098
12.1211
1
1
1.00001
1.00001
1.00003
1.00015
1.00063
1.00144
1.00426
1.00824
1.025
1.03493
1.22006
1.29558
2.51069
4.33453
10.2035
11.0184
10.7966
10.5095
10.4732
10.5169
10.6268
10.7555
10.8503
10.9241
10.9941
11.0652
11.1365
11.2062
11.2739
11.3398
11.4041
11.4664
11.527
11.586
11.6428
11.6974
11.7501
11.8004
11.8477
11.8924
11.9343
11.9729
12.0071
12.0372
12.0633
12.0842
12.099
12.1095
1
1.00001
1.00001
1.00001
1.00003
1.00015
1.00061
1.0014
1.00412
1.00795
1.02417
1.03363
1.21463
1.28583
2.48484
4.26091
10.0601
10.9939
10.7824
10.4976
10.4632
10.5074
10.6179
10.7461
10.8407
10.9148
10.985
11.0563
11.1277
11.1973
11.2649
11.3308
11.395
11.4572
11.5179
11.5768
11.6334
11.688
11.7406
11.7906
11.8376
11.8819
11.9235
11.9613
11.9946
12.024
12.049
12.0689
12.0826
12.0923
1
1.00001
1.00001
1
1.00003
1.00015
1.0006
1.00136
1.00399
1.00767
1.02336
1.03239
1.20912
1.27643
2.45871
4.18749
9.92159
10.9869
10.781
10.4944
10.46
10.5043
10.6148
10.742
10.8356
10.9092
10.979
11.05
11.1207
11.1898
11.2568
11.3222
11.3858
11.4474
11.5076
11.566
11.6222
11.6763
11.7283
11.7777
11.8241
11.8678
11.9087
11.9455
11.9778
12.0062
12.0302
12.049
12.0618
12.0709
1
1
1
1
1.00003
1.00015
1.00058
1.00131
1.00384
1.00736
1.02247
1.03102
1.20309
1.26615
2.42954
4.10535
9.7601
10.9713
10.772
10.4825
10.4487
10.4938
10.6055
10.7322
10.825
10.8983
10.9681
11.0389
11.1093
11.1779
11.2445
11.3094
11.3724
11.4336
11.4933
11.5512
11.6068
11.6604
11.7119
11.7606
11.8063
11.8493
11.8893
11.9251
11.9563
11.9836
12.0065
12.0243
12.0363
12.0448
1
1
1
1
1.00003
1.00015
1.00056
1.00126
1.00367
1.00702
1.02149
1.0295
1.19656
1.25507
2.39753
4.01566
9.57748
10.9568
10.7644
10.4706
10.4371
10.4832
10.5964
10.7226
10.8145
10.8871
10.9564
11.0265
11.0963
11.1641
11.2299
11.294
11.3562
11.4166
11.4755
11.5326
11.5874
11.6402
11.691
11.7389
11.7837
11.8258
11.8649
11.8995
11.9297
11.9559
11.9777
11.9946
12.0059
12.0141
1
1
1
1
1.00003
1.00015
1.00054
1.00119
1.00348
1.00663
1.02037
1.02776
1.18932
1.24288
2.36188
3.91664
9.37041
10.9427
10.7564
10.4563
10.4226
10.4697
10.5848
10.7108
10.8015
10.8732
10.9419
11.0114
11.0802
11.1471
11.2119
11.2751
11.3363
11.3957
11.4536
11.5096
11.5634
11.6153
11.6651
11.712
11.7558
11.7969
11.8349
11.8683
11.8974
11.9226
11.9433
11.9594
11.9701
11.9779
1
1
1
0.999998
1.00003
1.00014
1.00051
1.00112
1.00326
1.00618
1.0191
1.02577
1.18129
1.2295
2.32212
3.80745
9.13517
10.9297
10.7484
10.4397
10.4056
10.454
10.5715
10.6971
10.7866
10.8572
10.925
10.9935
11.0613
11.127
11.1906
11.2525
11.3125
11.3706
11.4272
11.4819
11.5344
11.5851
11.6337
11.6792
11.7219
11.7618
11.7987
11.8309
11.859
11.8832
11.9029
11.9182
11.9284
11.936
1
1
1
0.999998
1.00003
1.00013
1.00047
1.00103
1.00301
1.00567
1.01765
1.02349
1.17235
1.21482
2.27761
3.68668
8.86688
10.9191
10.741
10.421
10.3864
10.4364
10.5566
10.6817
10.7696
10.8389
10.9056
10.973
11.0394
11.1036
11.1657
11.226
11.2844
11.341
11.396
11.4491
11.5
11.5491
11.5962
11.6402
11.6814
11.7198
11.7553
11.7863
11.8132
11.8363
11.8551
11.8699
11.8796
11.8869
1
1
1
0.999997
1.00003
1.00012
1.00043
1.00093
1.00271
1.00507
1.01597
1.02086
1.16234
1.19868
2.22752
3.5526
8.55948
10.9127
10.7346
10.4001
10.3652
10.4171
10.5404
10.6645
10.7504
10.8182
10.8836
10.9495
11.0143
11.0766
11.1369
11.1953
11.2518
11.3064
11.3594
11.4104
11.4594
11.5065
11.5517
11.5939
11.6334
11.6702
11.7041
11.7337
11.7592
11.7813
11.7992
11.8132
11.8225
11.83
1
1
0.999999
0.999997
1.00003
1.00011
1.00038
1.00082
1.00237
1.00441
1.01408
1.01793
1.15129
1.18118
2.17105
3.40334
8.2053
10.9129
10.7301
10.3777
10.3432
10.3972
10.5236
10.6458
10.7292
10.7953
10.8591
10.9233
10.986
11.0462
11.1042
11.1603
11.2144
11.2667
11.3172
11.3658
11.4123
11.457
11.4998
11.5396
11.5767
11.6114
11.6434
11.6713
11.6953
11.716
11.7328
11.7462
11.7551
11.7623
1
1
1
0.999997
1.00002
1.00009
1.00032
1.00069
1.00197
1.00356
1.01196
1.01411
1.13931
1.16232
2.10714
3.23644
7.79499
10.919
10.7269
10.3553
10.3217
10.3775
10.5058
10.625
10.7058
10.7701
10.8322
10.8942
10.9545
11.0121
11.0674
11.1207
11.1719
11.2212
11.2687
11.3143
11.3578
11.3995
11.4394
11.4764
11.5108
11.5426
11.572
11.5976
11.6195
11.6385
11.654
11.6664
11.6747
11.6823
1
1
1
1
1.00003
1.00009
1.00029
1.00061
1.00167
1.00356
1.00981
1.01204
1.12437
1.13861
2.03964
3.04845
7.32293
10.9319
10.7255
10.3383
10.3055
10.3615
10.4883
10.6028
10.6805
10.7429
10.803
10.8625
10.9199
10.9745
11.0266
11.0766
11.1244
11.1702
11.2141
11.256
11.2956
11.3334
11.3694
11.4027
11.4334
11.4617
11.4876
11.5102
11.5291
11.5456
11.559
11.5701
11.5776
11.5847
1
1
1
1
1.00003
1.0001
1.00025
1.00069
1.00144
1.00375
1.00755
1.00701
1.10793
1.1112
1.96542
2.82966
6.77299
10.9411
10.721
10.3278
10.2925
10.3468
10.4683
10.5784
10.654
10.7145
10.7719
10.8283
10.8823
10.9334
10.9819
11.0279
11.0716
11.1133
11.1529
11.1902
11.2253
11.2583
11.2894
11.3177
11.3435
11.3668
11.3878
11.406
11.4202
11.4329
11.4431
11.4517
11.4579
11.4656
1
1
1
1.00001
1.00003
1.00008
1.00025
1.00053
1.00142
1.00328
1.00758
1.00989
1.09182
1.09354
1.86943
2.60079
6.1365
10.9764
10.7503
10.3583
10.29
10.3342
10.4402
10.5498
10.6258
10.6844
10.7386
10.7915
10.8419
10.8891
10.9334
10.975
11.014
11.0506
11.0848
11.1168
11.1458
11.173
11.1978
11.2199
11.2389
11.2553
11.2693
11.2807
11.2882
11.2946
11.2993
11.3034
11.3063
11.3124
1
1
1
1.00001
1.00002
1.00008
1.00018
1.0005
1.00092
1.0031
1.00313
1.02929
1.02986
1.26179
1.3925
2.7206
5.03071
10.8936
10.8054
10.5059
10.3142
10.3338
10.4086
10.521
10.5999
10.656
10.7056
10.7537
10.7996
10.8424
10.882
10.9185
10.952
10.9828
11.0108
11.0359
11.0581
11.0775
11.0942
11.1078
11.1177
11.1247
11.1283
11.1288
11.1264
11.1216
11.1159
11.1111
11.1082
11.1133
1
1
1
1.00001
1.00003
1.00009
1.00018
1.0005
1.00093
1.0029
1.00463
1.0242
1.03125
1.22241
1.30978
2.56068
4.48852
10.3828
10.7901
10.5677
10.3246
10.3265
10.3745
10.4792
10.5648
10.621
10.6668
10.7107
10.7527
10.7912
10.826
10.8572
10.8847
10.9089
10.9299
10.9472
10.961
10.9712
10.9777
10.9799
10.978
10.972
10.9605
10.9451
10.9255
10.9012
10.8766
10.8528
10.8334
10.8301
1
1
1
1.00001
1.00003
1.00007
1.00014
1.00042
1.00075
1.00254
1.00396
1.02026
1.01941
1.20063
1.2508
2.41679
4.05586
9.62826
10.7736
10.6051
10.3414
10.314
10.3504
10.4382
10.5243
10.58
10.6221
10.6613
10.6991
10.7327
10.7629
10.7888
10.8104
10.8277
10.841
10.8498
10.8538
10.8531
10.8482
10.8367
10.8182
10.7934
10.7614
10.7217
10.6741
10.6169
10.5542
10.489
10.4278
10.3954
1
1
1
1.00001
1.00001
1.00004
1.00006
1.0003
1.00041
1.00206
1.00341
1.01447
1.01365
1.1647
1.1934
2.26079
3.63445
8.72786
10.7799
10.6454
10.3647
10.2956
10.3231
10.3946
10.4768
10.5314
10.5703
10.6048
10.6371
10.666
10.6904
10.7106
10.7259
10.7361
10.7412
10.7406
10.7355
10.7226
10.7014
10.6728
10.6352
10.5873
10.5269
10.4525
10.3603
10.2477
10.1128
9.95376
9.77547
9.59853
1
1
1
1
1.00001
1.00001
1.00011
1.00013
1.0008
1.00162
1.00433
1.0046
1.04749
1.0474
1.40323
1.66684
3.5867
7.43058
10.9417
10.7849
10.4212
10.2798
10.2929
10.3414
10.4177
10.4704
10.505
10.5329
10.558
10.5798
10.5974
10.6099
10.6172
10.6176
10.6144
10.6041
10.5827
10.5524
10.5129
10.4622
10.3977
10.3164
10.2138
10.0834
9.9166
9.69635
9.39469
8.95603
8.26185
6.85521
1
1
1
1
1.00002
1.00004
1.00014
1.00026
1.00092
1.00157
1.00597
1.00909
1.04061
1.05787
1.27636
1.49347
2.79888
5.40191
11.2885
11.0752
10.5916
10.2964
10.2673
10.2942
10.3556
10.4075
10.4363
10.4545
10.4693
10.4809
10.488
10.4892
10.4865
10.4773
10.4576
10.4281
10.3899
10.3408
10.2792
10.2018
10.1051
9.98454
9.83314
9.6412
9.39421
9.07071
8.63709
8.04313
7.25138
6.0804
1
1
1
1
1
1.00001
1.00006
1.00007
1.00052
1.00074
1.0035
1.00468
1.02976
1.02943
1.25614
1.34877
2.67127
4.7936
10.9144
10.9069
10.5995
10.2648
10.1924
10.2118
10.2633
10.3181
10.3465
10.3592
10.3657
10.3679
10.3664
10.3603
10.3452
10.3184
10.2839
10.2403
10.1859
10.1183
10.0353
9.9337
9.80952
9.65774
9.47126
9.24127
8.95602
8.6012
8.16188
7.61814
6.98765
6.1972
1
1
1
1
1
1
1.00004
1.00005
1.00039
1.00057
1.00261
1.00383
1.02137
1.02446
1.20937
1.26282
2.48513
4.22614
9.95161
10.7059
10.5108
10.1967
10.116
10.1341
10.1818
10.2313
10.2541
10.2602
10.2597
10.2566
10.2473
10.2274
10.1981
10.1611
10.1152
10.0591
9.99061
9.90776
9.80828
9.6895
9.54798
9.37955
9.17947
8.94156
8.66026
8.32883
7.94486
7.50174
7.01515
6.46119
1
1
1
1
1
1
1.00003
1.00003
1.00029
1.0004
1.00195
1.00346
1.0131
1.01121
1.16813
1.19148
2.29744
3.69608
8.85768
10.6583
10.5081
10.1996
10.0825
10.0902
10.1189
10.1564
10.1709
10.1701
10.1652
10.1526
10.1284
10.0976
10.06
10.0144
9.95911
9.89272
9.81364
9.72023
9.61067
9.48277
9.33481
9.16268
8.96507
8.73736
8.47917
8.18636
7.85973
7.50034
7.10018
6.67708
1
1
1
1
1
1.00001
1.00001
1.0001
1.00012
1.00087
1.00175
1.00471
1.00856
1.04617
1.05439
1.39749
1.6429
3.53676
7.27487
10.7574
10.6246
10.2816
10.0907
10.0592
10.069
10.0901
10.0957
10.0918
10.0793
10.0534
10.0195
9.98094
9.93609
9.88288
9.81983
9.74582
9.65973
9.56028
9.44637
9.31589
9.16832
9.00036
8.8127
8.60139
8.36711
8.10916
7.82756
7.52052
7.20174
6.85702
1
1
1
1
1
1.00001
1.00001
1.00007
1.0001
1.00044
1.00072
1.00444
1.0055
1.03724
1.04583
1.27109
1.44365
2.74846
5.12875
10.9092
10.8212
10.4986
10.1367
10.0285
10.0295
10.0357
10.0344
10.026
10.0042
9.96596
9.92426
9.87924
9.82821
9.76884
9.70002
9.62103
9.53107
9.42926
9.31459
9.18602
9.04256
8.88327
8.7074
8.51444
8.30427
8.07659
7.83283
7.57076
7.30387
7.01793
1
1
1
1
1
1
1.00001
1.00004
1.00004
1.00042
1.00061
1.00282
1.00399
1.02391
1.0269
1.23135
1.29594
2.58926
4.50664
10.3931
10.7335
10.4761
10.1064
9.9657
9.95865
9.96324
9.96202
9.95268
9.92785
9.88301
9.83606
9.78698
9.73217
9.66918
9.59725
9.51596
9.42476
9.32325
9.2106
9.08622
8.94954
8.80014
8.6377
8.46216
8.27375
8.07352
7.85661
7.63531
7.40661
7.16406
1
1
1
1
1
1
1.00001
1.00003
1.00004
1.00029
1.00042
1.00186
1.00392
1.01278
1.01556
1.17492
1.20573
2.37826
3.88606
9.24508
10.5782
10.4164
10.0852
9.92376
9.89743
9.9001
9.89835
9.88726
9.85866
9.80966
9.75931
9.70732
9.64993
9.58497
9.51173
9.43005
9.33967
9.2401
9.13108
9.01225
8.88333
8.74411
8.59468
8.43511
8.26594
8.08446
7.89754
7.70449
7.50652
7.29848
1
1
1
1
1
1
1.00001
1.00001
1.0001
1.00011
1.00094
1.00153
1.00569
1.00479
1.05177
1.05035
1.43488
1.71535
3.72421
7.72951
10.6566
10.5211
10.1658
9.93897
9.86989
9.8619
9.8527
9.83184
9.7923
9.74471
9.69418
9.64042
9.58106
9.5149
9.44148
9.36065
9.27223
9.17602
9.07178
8.95934
8.83859
8.70955
8.57225
8.42714
8.27251
8.11134
7.94725
7.77787
7.60481
7.42412
1
1
1
1
1
1
1.00001
1.00001
1.00007
1.00008
1.00067
1.0012
1.00372
1.00369
1.03805
1.03855
1.29521
1.47928
2.82097
5.44215
10.9236
10.7966
10.3818
10.0014
9.86224
9.83767
9.82383
9.79537
9.75111
9.70066
9.64709
9.58996
9.52826
9.46099
9.38767
9.3081
9.22212
9.12959
9.03037
8.92431
8.81144
8.69179
8.56565
8.43194
8.29241
8.15064
8.00418
7.85364
7.70045
7.54145
1
1
1
1
1
1
1
1.00002
1.00002
1.00021
1.00025
1.0016
1.00331
1.00822
1.01511
1.08645
1.09864
1.71334
2.27715
5.20919
10.5717
10.6211
10.3515
9.9681
9.80894
9.77368
9.76092
9.73551
9.69576
9.64836
9.59652
9.54056
9.47987
9.41389
9.34242
9.26547
9.18294
9.09481
9.00097
8.90146
8.7963
8.68574
8.56891
8.44661
8.32247
8.19456
8.06299
7.92821
7.79151
7.65028
1
1
1
1
1
1
1
1.00001
1.00003
1.00005
1.00033
1.00047
1.00208
1.0045
1.01404
1.01706
1.18974
1.22696
2.46631
4.14479
9.67763
10.5163
10.326
9.95986
9.78226
9.73438
9.72032
9.6972
9.65962
9.61295
9.56102
9.50499
9.44484
9.38022
9.31086
9.23658
9.15741
9.07329
8.98436
8.89075
8.79264
8.68908
8.58126
8.47184
8.3588
8.24231
8.12295
8.00129
7.87836
7.75182
1
1
1
1
1
1
1
1.00002
1.00003
1.00013
1.00014
1.00209
1.00269
1.01508
1.03597
1.0552
1.06539
1.46363
1.78984
3.94739
8.23494
10.5495
10.4014
10.0322
9.79488
9.71138
9.68835
9.66607
9.63011
9.58403
9.53232
9.47663
9.41715
9.35377
9.28636
9.21484
9.13924
9.0595
8.97577
8.88822
8.79581
8.69986
8.60207
8.50126
8.39739
8.29085
8.18214
8.07175
7.96048
7.84624
1
1
1
1
1
1
1
1.00001
1.00001
1.00007
1.00008
1.00071
1.00109
1.00452
1.00695
1.04091
1.05077
1.34741
1.5612
3.21713
6.44808
10.8213
10.679
10.2289
9.85502
9.71378
9.67978
9.65735
9.62093
9.57324
9.51959
9.46226
9.40217
9.33924
9.27322
9.20389
9.13109
9.05492
8.97554
8.89184
8.80555
8.71764
8.62695
8.53351
8.43769
8.33987
8.24041
8.13968
8.03829
7.93437
1
1
1
1
1
1
1
1
1.00002
1.00003
1.00017
1.0002
1.00166
1.00298
1.00968
1.01251
1.09684
1.10534
1.79097
2.39388
5.50607
10.8191
10.6599
10.2017
9.82864
9.68189
9.645
9.62622
9.59371
9.548
9.49584
9.44117
9.38414
9.32435
9.26159
9.19572
9.12692
9.05499
8.97911
8.90127
8.82161
8.73947
8.65488
8.56803
8.47927
8.38894
8.29741
8.2049
8.11189
8.01671
1
1
1
1
1
1
1
1
1.00002
1.00001
1.00017
1.00018
1.00158
1.00321
1.00863
1.01105
1.08381
1.0824
1.68839
2.19358
5.08089
10.345
10.4567
10.1942
9.82109
9.66024
9.62065
9.60345
9.57396
9.53133
9.48182
9.42919
9.37446
9.31722
9.25717
9.1942
9.12804
9.05882
8.98752
8.9148
8.84013
8.76331
8.68445
8.60382
8.5216
8.43806
8.35335
8.26775
8.18175
8.09387
1
1
1
1
1
1
1
1.00001
1.00001
1.00004
1.00005
1.00048
1.00055
1.00384
1.00923
1.0109
1.01333
1.17375
1.187
2.43191
4.02319
9.43862
10.4655
10.2628
9.87369
9.69133
9.63773
9.61292
9.58012
9.53608
9.48584
9.43268
9.37746
9.3201
9.26062
9.19908
9.1357
9.07071
9.00435
8.93559
8.86466
8.79183
8.71737
8.64146
8.56429
8.48604
8.40693
8.32717
8.2471
8.16537
1
1
1
1
1
1
1
1.00001
1.00001
1.00004
1.00004
1.0004
1.0005
1.00289
1.00599
1.01486
1.0141
1.1462
1.14237
2.25175
3.48842
8.39089
10.5537
10.3818
9.98553
9.73017
9.63717
9.60483
9.57407
9.5325
9.48372
9.43171
9.37802
9.32278
9.26598
9.20758
9.14744
9.08556
9.02173
8.95594
8.88842
8.81937
8.749
8.67743
8.60481
8.53128
8.45701
8.38215
8.30697
8.23024
1
1
1
1
1
1
1
1
1.00002
1.00003
1.00011
1.00013
1.00135
1.0016
1.01055
1.02546
1.03708
1.03253
1.37287
1.5568
3.34328
6.77065
10.8768
10.6941
10.1914
9.80159
9.64294
9.59805
9.57185
9.53452
9.48717
9.43571
9.38318
9.33005
9.27536
9.2187
9.16024
9.10015
9.0385
8.97538
8.91095
8.84527
8.77843
8.71058
8.64183
8.57234
8.50222
8.4316
8.3607
8.28839
1
1
1
1
1
1
1
1
1.00001
1.00002
1.00007
1.0001
1.00091
1.00107
1.00731
1.01791
1.02482
1.01967
1.28228
1.36969
2.81373
5.14632
11.1093
10.89
10.3543
9.85878
9.65012
9.59554
9.57309
9.54033
9.49523
9.44417
9.39145
9.33803
9.28391
9.22864
9.17204
9.11406
9.05474
8.99416
8.93237
8.86943
8.80548
8.74065
8.67511
8.60895
8.54233
8.47536
8.40825
8.34004
1
1
1
1
1
1
1
1
1.00001
1.00003
1.00003
1.00021
1.00023
1.00179
1.00307
1.00984
1.00966
1.09116
1.08545
1.7523
2.29638
5.32495
10.737
10.6532
10.2321
9.81111
9.62597
9.57764
9.56143
9.53491
9.49381
9.44548
9.39456
9.3428
9.29028
9.23658
9.18153
9.12517
9.06768
9.00913
8.94959
8.88926
8.82819
8.7664
8.70401
8.64118
8.57801
8.51462
8.45115
8.38673
1
1
1
1
1
1
1
1
1
1.00001
1.00001
1.00015
1.00015
1.00152
1.00272
1.00814
1.00784
1.07836
1.07151
1.65068
2.09411
4.85024
9.96003
10.4379
10.2055
9.81964
9.63515
9.58346
9.56595
9.54003
9.50039
9.45353
9.40387
9.35287
9.30063
9.24728
9.19298
9.1378
9.08179
9.02492
8.96725
8.90888
8.84989
8.79041
8.73048
8.67015
8.60956
8.5488
8.48814
8.42685
1
1
1
1
1
1
1
1
1
1.00002
1.00004
1.00018
1.00023
1.00148
1.00264
1.00757
1.00754
1.06913
1.06245
1.57781
1.95046
4.46114
9.24936
10.4738
10.2858
9.89042
9.67442
9.60283
9.57771
9.54942
9.50876
9.46075
9.41014
9.35885
9.30712
9.2548
9.20167
9.1477
9.09293
9.03748
8.98143
8.92488
8.8679
8.81057
8.75297
8.69516
8.63722
8.5792
8.52125
8.46269
1
1
1
1
1
1
1
1
1.00001
1.00001
1.00004
1.00005
1.00041
1.00051
1.00295
1.00636
1.01459
1.01338
1.15592
1.15158
2.31057
3.62852
8.62708
10.5758
10.391
9.97547
9.707
9.61003
9.57968
9.55159
9.51111
9.46274
9.41194
9.36093
9.3099
9.25853
9.20659
9.15395
9.10073
9.04702
8.99291
8.93842
8.88362
8.82852
8.77323
8.71771
8.66205
8.60629
8.55056
8.49411
1
1
1
1
1
1
1
1
1
1.00001
1.00003
1.00006
1.00028
1.00039
1.00254
1.00536
1.01281
1.01948
1.13383
1.13436
2.17745
3.22933
7.85281
10.5818
10.402
9.97835
9.70279
9.60585
9.57704
9.54994
9.50995
9.46189
9.41149
9.36109
9.311
9.26072
9.21004
9.15901
9.10764
9.05591
9.00382
8.9514
8.89865
8.84565
8.79237
8.73891
8.6853
8.63156
8.57775
8.5232
1
1
1
1
1
1
1
1
1
1
1.00003
1.00004
1.0002
1.00019
1.00201
1.00304
1.01273
1.02069
1.11511
1.13833
2.05123
2.9827
7.2536
10.7295
10.4953
9.99084
9.70039
9.59994
9.57092
9.54489
9.50593
9.45877
9.40939
9.36021
9.31131
9.26233
9.21314
9.16372
9.11414
9.06436
9.01428
8.96388
8.91318
8.86213
8.81084
8.75938
8.70774
8.65589
8.60386
8.55093
1
1
1
1
1
1
1
1
1
1.00001
1.00003
1.00007
1.00009
1.00092
1.00112
1.00766
1.01696
1.02889
1.03082
1.29106
1.41905
2.8795
5.49829
11.1453
10.8789
10.2403
9.79409
9.62671
9.58297
9.55688
9.51847
9.47074
9.42011
9.36974
9.3202
9.27137
9.2228
9.17427
9.12561
9.07679
9.02781
8.97861
8.9292
8.87965
8.82991
8.77993
8.72976
8.67945
8.62908
8.57802
1
1
1
1
1
1
1
1
1
1.00001
1.00001
1.00003
1.00005
1.00041
1.0005
1.00305
1.00601
1.02156
1.02402
1.2536
1.30991
2.76742
4.95363
11.0628
10.8505
10.3243
9.8255
9.61457
9.56153
9.54206
9.5113
9.46802
9.41987
9.37131
9.32342
9.27603
9.22875
9.18134
9.13376
9.08606
9.03839
8.99067
8.94285
8.89485
8.84666
8.79829
8.74977
8.70115
8.65253
8.60336
1
1
1
1
1
1
1
1
1
1.00001
1.00001
1.00005
1.00006
1.00045
1.00054
1.00286
1.00592
1.0175
1.01696
1.2269
1.25452
2.68074
4.67725
10.7141
10.6826
10.3372
9.8481
9.61972
9.56017
9.54345
9.5175
9.47699
9.4304
9.38302
9.33641
9.29024
9.24403
9.19755
9.15077
9.10367
9.05632
9.00878
8.96113
8.91338
8.86557
8.81772
8.76985
8.722
8.67423
8.62618
1
1
1
1
1
1
1
1
1
1.00001
1.00001
1.00003
1.00005
1.00043
1.00044
1.00399
1.00961
1.0124
1.01172
1.20141
1.20855
2.60638
4.43786
10.3234
10.6285
10.3308
9.86382
9.6374
9.574
9.55687
9.53276
9.49414
9.44815
9.40067
9.35363
9.30701
9.26038
9.21349
9.16635
9.11901
9.07157
9.02406
8.97656
8.92909
8.88168
8.83435
8.78711
8.73999
8.69301
8.64578
1
1
1
1
1
1
1
1
1
1.00001
1.00001
1.00004
1.00005
1.00044
1.00056
1.00287
1.00667
1.01414
1.01709
1.18808
1.19925
2.53992
4.2311
9.93451
10.601
10.3352
9.8765
9.65353
9.59072
9.57277
9.54781
9.50875
9.4626
9.4149
9.36758
9.32067
9.27379
9.22677
9.17957
9.13226
9.08491
9.03757
8.99029
8.94309
8.896
8.84905
8.80224
8.7556
8.70916
8.66255
1
1
1
1
1
1
1
1
1
1.00001
1.00001
1.00005
1.00007
1.00048
1.00057
1.00338
1.00742
1.01564
1.01682
1.18278
1.1873
2.47425
4.04164
9.58211
10.5911
10.3489
9.89298
9.66958
9.60567
9.58631
9.56013
9.52026
9.47364
9.42568
9.37815
9.33103
9.28396
9.23678
9.18948
9.14214
9.09481
9.04755
9.00041
8.95341
8.90659
8.85995
8.81355
8.76741
8.72156
8.67568
1
1
1
1
1
1
1
1
1
1.00001
1.00001
1.00003
1.00004
1.0004
1.00045
1.00317
1.00677
1.01594
1.01105
1.1787
1.17715
2.42362
3.88324
9.25984
10.5875
10.3644
9.92061
9.68976
9.61922
9.59663
9.569
9.52843
9.48145
9.43335
9.38579
9.3387
9.29169
9.24459
9.1974
9.15021
9.10308
9.05606
9.00919
8.96249
8.91602
8.86978
8.82378
8.77807
8.73268
8.68733
1
1
1
1
1
1
1
1
1
1.00001
1.00001
1.00003
1.00004
1.0004
1.00046
1.0031
1.0069
1.01465
1.01646
1.16398
1.15833
2.37479
3.74387
8.97645
10.5945
10.3866
9.95675
9.71438
9.63267
9.60481
9.57523
9.53385
9.48628
9.43758
9.38967
9.3424
9.29535
9.24831
9.20123
9.1542
9.10725
9.06045
9.01384
8.96742
8.92126
8.87538
8.82983
8.78459
8.73974
8.69498
1
1
1
1
1
1
1
1
1
1.00001
1.00001
1.00003
1.00004
1.00038
1.00044
1.00301
1.00635
1.01501
1.01368
1.15492
1.14678
2.32821
3.62199
8.70622
10.626
10.4262
9.99768
9.73788
9.6435
9.61199
9.58289
9.54261
9.49517
9.44585
9.39769
9.35006
9.30282
9.25571
9.20864
9.16162
9.11473
9.06803
9.02158
8.97542
8.92951
8.88388
8.83856
8.7935
8.74872
8.70373
1
1
1
1
1
1
1
1
1
1
1.00002
1.00001
1.00013
1.00014
1.00107
1.00217
1.00513
1.00743
1.04961
1.05594
1.47736
1.77059
3.99829
8.2571
10.7122
10.5284
10.0806
9.77049
9.64715
9.60828
9.58005
9.54099
9.49372
9.44411
9.39525
9.34746
9.30038
9.25361
9.20699
9.16051
9.11414
9.068
9.02209
8.97638
8.93093
8.88574
8.84106
8.79619
8.75266
8.7087
1
1
1
1
1
1
1
1
1
1
1.00002
1.00004
1.00011
1.00013
1.00139
1.00164
1.01138
1.02569
1.04465
1.04731
1.43191
1.69534
3.7479
7.69787
10.8112
10.6436
10.1848
9.82565
9.67453
9.62747
9.59862
9.55975
9.51172
9.46074
9.41018
9.36076
9.31219
9.26421
9.21635
9.16939
9.12191
9.0752
9.0289
8.98284
8.93711
8.89167
8.84683
8.80193
8.75833
8.71445
1
1
1
1
1
1
1
1
1
1
1.00001
1.00003
1.00004
1.00031
1.00032
1.00295
1.00568
1.01556
1.01321
1.14301
1.13172
2.26092
3.46917
8.35588
10.7459
10.5199
10.0384
9.75155
9.64611
9.61236
9.58476
9.54601
9.49893
9.44924
9.39987
9.35135
9.30354
9.25635
9.20932
9.16283
9.11717
9.07152
9.02639
8.98165
8.93711
8.89281
8.84856
8.80426
8.75986
8.71465
1
1
1
1
1
1
1
1
1
1
1.00002
1.00004
1.0001
1.00013
1.00136
1.00159
1.0112
1.02528
1.04366
1.04626
1.42062
1.67696
3.68599
7.56831
10.892
10.7025
10.2013
9.82185
9.66444
9.6186
9.59309
9.55662
9.50958
9.45882
9.40814
9.35896
9.31036
9.26361
9.21633
9.16866
9.12284
9.07675
9.03102
8.98561
8.93985
8.89538
8.85106
8.80617
8.76202
8.71802
2.8625
2.71347
3.7936
4.19973
3.92071
3.84383
3.80957
3.80649
3.83346
3.86902
3.89481
3.9145
3.94129
3.98481
4.04508
4.11576
4.19274
4.27257
4.35327
4.4333
4.51126
4.58598
4.6566
4.72298
4.78505
4.84469
4.89647
4.94096
4.97844
5.00971
5.03473
5.05384
5.0673
5.07516
5.07772
5.07678
5.07271
5.06286
5.04587
5.02603
5.00362
4.97834
4.95036
4.92003
4.88756
4.85323
4.81728
4.77994
4.74141
4.70192
4.66167
4.62086
4.57967
4.53833
4.497
4.4559
4.4152
4.3751
4.33575
4.29735
4.26005
4.22404
4.18947
4.15653
4.12537
4.09619
4.06916
4.04447
4.02232
4.00289
3.9864
3.97302
3.96294
3.95627
3.95299
3.95298
3.9534
3.95492
3.9588
3.96714
3.98094
3.99599
4.01125
4.02646
4.04132
4.05541
4.06829
4.07963
4.08918
4.0968
4.10248
4.10626
4.10828
4.10905
4.10901
4.10874
4.1079
4.10598
4.10252
4.10069
3.86199
3.79817
4.13022
4.09635
3.93579
3.82777
3.79778
3.81089
3.8569
3.90024
3.92049
3.92186
3.93442
3.97525
4.03595
4.10449
4.18139
4.26234
4.34382
4.42426
4.50248
4.57742
4.64818
4.7148
4.77738
4.83699
4.88899
4.93361
4.97147
5.00304
5.02842
5.04784
5.06154
5.06957
5.07209
5.07141
5.0683
5.06009
5.04303
5.02148
4.99859
4.97367
4.94614
4.91608
4.88378
4.84957
4.81371
4.77647
4.73806
4.69869
4.65856
4.61787
4.57683
4.53563
4.49444
4.45347
4.4129
4.3729
4.33366
4.29534
4.25811
4.22215
4.18763
4.15471
4.12358
4.09441
4.06739
4.04271
4.02056
4.00113
3.98463
3.97125
3.9612
3.95458
3.9516
3.95168
3.95226
3.95401
3.95809
3.96659
3.98008
3.99522
4.0108
4.02634
4.04148
4.05578
4.06881
4.0803
4.09002
4.09782
4.1036
4.10738
4.10926
4.10978
4.10971
4.10937
4.10845
4.10642
4.10294
4.1028
5.04509
4.52938
4.44806
4.27634
4.07536
3.93674
3.87187
3.85939
3.86462
3.87976
3.90148
3.9206
3.94755
3.98999
4.04888
4.11737
4.19213
4.27058
4.34992
4.42854
4.50531
4.57895
4.64892
4.71481
4.77665
4.83408
4.88537
4.92978
4.96738
4.99853
5.02345
5.04242
5.05569
5.06326
5.06502
5.06436
5.06168
5.05465
5.03963
5.01645
4.99214
4.96676
4.93935
4.9096
4.8775
4.8434
4.80768
4.77059
4.73233
4.69314
4.6532
4.61273
4.57191
4.53093
4.48999
4.44925
4.4089
4.36911
4.33006
4.29192
4.25484
4.21903
4.18464
4.15184
4.12082
4.09176
4.06484
4.04025
4.01818
3.99884
3.98243
3.96914
3.95923
3.95269
3.95011
3.95027
3.95101
3.95298
3.95736
3.96628
3.97927
3.9944
4.01044
4.02651
4.04203
4.05663
4.07001
4.08179
4.09167
4.09954
4.10536
4.10904
4.11071
4.11087
4.11074
4.11029
4.10918
4.10685
4.10384
4.10399
5.61938
5.05905
4.76694
4.54044
4.32321
4.1456
4.02753
3.96806
3.95511
3.95876
3.96984
3.99205
4.01166
4.03927
4.08399
4.1422
4.2092
4.28152
4.35648
4.43185
4.50619
4.57757
4.646
4.71017
4.76999
4.82575
4.87613
4.92009
4.95755
4.98854
5.01323
5.03193
5.04489
5.05214
5.05331
5.05272
5.05041
5.04443
5.03147
5.00787
4.98259
4.95631
4.92878
4.89921
4.86765
4.83382
4.79842
4.76163
4.72368
4.6848
4.64519
4.60507
4.5646
4.524
4.48341
4.44303
4.40302
4.36356
4.32482
4.28696
4.25016
4.21459
4.18044
4.14788
4.11708
4.08824
4.06152
4.03714
4.01526
3.99611
3.97988
3.96677
3.95702
3.95074
3.94879
3.94902
3.94992
3.95218
3.95699
3.96653
3.97896
3.99364
4.00969
4.02615
4.04222
4.05733
4.07105
4.08305
4.09313
4.10114
4.10712
4.1107
4.11224
4.11222
4.11201
4.11137
4.10993
4.10718
4.10473
4.10492
6.00318
5.50031
5.13934
4.85607
4.61025
4.40088
4.24293
4.14055
4.08603
4.06184
4.05949
4.06194
4.07021
4.08961
4.12899
4.18091
4.24077
4.30603
4.3747
4.44471
4.51448
4.58235
4.6473
4.7091
4.76693
4.82045
4.86897
4.91157
4.94812
4.97858
5.00247
5.02051
5.03282
5.0395
5.03989
5.03928
5.03709
5.03159
5.0198
4.99755
4.97195
4.94501
4.91685
4.88725
4.85573
4.82231
4.78722
4.75075
4.71311
4.67458
4.63535
4.59563
4.5556
4.51544
4.47532
4.43539
4.39583
4.35681
4.31848
4.28104
4.24465
4.2095
4.17574
4.14356
4.11315
4.0847
4.05835
4.03434
4.01277
3.994
3.97813
3.96536
3.95592
3.94996
3.94871
3.94902
3.95009
3.95267
3.9581
3.96771
3.97992
3.99417
4.0099
4.0263
4.04251
4.05787
4.07184
4.08403
4.09432
4.10247
4.10857
4.11232
4.11356
4.1135
4.11315
4.11227
4.11038
4.10741
4.10515
4.10556
6.31139
5.88122
5.51493
5.19875
4.92448
4.68921
4.49914
4.35858
4.26482
4.20928
4.18166
4.17505
4.17675
4.1836
4.20064
4.23573
4.28341
4.33871
4.39843
4.46053
4.52357
4.5862
4.64714
4.70559
4.76061
4.81179
4.85835
4.8996
4.93538
4.96513
4.98813
5.00586
5.01759
5.0239
5.02387
5.02318
5.02093
5.01553
5.00417
4.98344
4.95849
4.93132
4.90268
4.87269
4.84115
4.808
4.77332
4.73731
4.70017
4.66215
4.62346
4.58428
4.54482
4.50523
4.46568
4.42633
4.38734
4.34887
4.31109
4.27419
4.23834
4.20372
4.1705
4.1388
4.10895
4.08106
4.05528
4.03182
4.01092
3.99263
3.97723
3.96489
3.95591
3.95038
3.94989
3.95026
3.95148
3.95434
3.96026
3.97
3.98198
3.99574
4.01083
4.02669
4.04258
4.05781
4.07179
4.08411
4.09448
4.10274
4.10891
4.11285
4.11408
4.11398
4.11355
4.11249
4.11028
4.10721
4.10501
4.10551
6.56621
6.19668
5.85512
5.53267
5.24063
4.98606
4.77219
4.60157
4.47443
4.38613
4.32977
4.29833
4.284
4.28435
4.28811
4.29974
4.32548
4.37054
4.42227
4.47716
4.53386
4.59085
4.64721
4.70163
4.75346
4.80197
4.84648
4.88623
4.92072
4.94961
4.97243
4.98954
5.00048
5.00623
5.00612
5.0053
5.00287
4.99732
4.98588
4.96674
4.94301
4.91626
4.88748
4.85722
4.82558
4.79257
4.75826
4.72272
4.68613
4.64868
4.61059
4.57203
4.53319
4.49424
4.45533
4.41662
4.37827
4.34045
4.30332
4.2671
4.23189
4.19796
4.16544
4.13458
4.10539
4.07816
4.05308
4.03033
4.0101
3.99253
3.97781
3.96612
3.95772
3.95283
3.95285
3.9533
3.95467
3.9578
3.96419
3.97397
3.98564
3.99874
4.01297
4.02791
4.043
4.05765
4.07129
4.08344
4.09378
4.1021
4.10832
4.11255
4.11378
4.11367
4.11321
4.11209
4.10976
4.1066
4.10436
4.10493
6.78228
6.46354
6.15084
5.83753
5.54352
5.27856
5.04792
4.85511
4.70137
4.58448
4.5002
4.44359
4.40878
4.39068
4.38694
4.38867
4.39592
4.41387
4.45067
4.49611
4.54589
4.59691
4.64769
4.69735
4.74519
4.79049
4.83245
4.87033
4.90349
4.93141
4.9538
4.97028
4.98117
4.98627
4.98611
4.98518
4.98261
4.97688
4.96521
4.94733
4.92491
4.89895
4.87043
4.84008
4.80836
4.77545
4.74142
4.70635
4.67035
4.63357
4.59616
4.55832
4.5202
4.48197
4.44379
4.40582
4.3682
4.33112
4.29477
4.25937
4.22505
4.19195
4.16027
4.13021
4.1019
4.07556
4.05137
4.02952
4.01019
3.99351
3.97968
3.96884
3.96119
3.95721
3.9573
3.95788
3.95946
3.96293
3.96993
3.97942
3.99051
4.00276
4.0159
4.02961
4.04351
4.05712
4.06997
4.08161
4.09167
4.09991
4.10613
4.11049
4.11199
4.11188
4.11144
4.11036
4.10811
4.10497
4.10278
4.10337
6.9706
6.69244
6.40921
6.11279
5.82371
5.55573
5.31638
5.10911
4.9351
4.79423
4.68453
4.60306
4.54525
4.50756
4.48545
4.47466
4.47511
4.47901
4.49054
4.5157
4.55623
4.60108
4.64673
4.6918
4.73572
4.77764
4.81674
4.85242
4.88401
4.91089
4.93265
4.94869
4.95955
4.96427
4.96408
4.96308
4.96042
4.95461
4.94281
4.92591
4.90472
4.87977
4.85187
4.82183
4.79026
4.75751
4.72378
4.68917
4.65376
4.61766
4.58099
4.54392
4.50657
4.46913
4.43174
4.39457
4.3578
4.32164
4.28622
4.25172
4.21832
4.18617
4.15546
4.12637
4.0991
4.07382
4.05072
4.02996
4.01171
3.99614
3.98338
3.97355
3.9668
3.96376
3.9639
3.9646
3.96637
3.97012
3.97754
3.98654
3.99679
4.00798
4.01983
4.03209
4.0445
4.05672
4.0684
4.07914
4.08859
4.09651
4.10264
4.10711
4.10886
4.10879
4.10842
4.10748
4.10551
4.10253
4.10049
4.1011
7.13843
6.89284
6.63644
6.35896
6.07994
5.81442
5.57115
5.35426
5.16611
5.0074
4.87722
4.77348
4.69421
4.63536
4.59443
4.56763
4.55242
4.5488
4.5504
4.55705
4.57332
4.60637
4.64484
4.68512
4.72551
4.76416
4.80024
4.83336
4.863
4.88849
4.90933
4.92492
4.93549
4.94027
4.94007
4.93905
4.93636
4.93055
4.91887
4.90274
4.88254
4.85859
4.83151
4.80204
4.77083
4.73839
4.70499
4.67082
4.63597
4.60054
4.56461
4.52833
4.4918
4.45519
4.41865