/*--------------------------------*- C++ -*----------------------------------*\
| =========                 |                                                 |
| \\      /  F ield         | OpenFOAM: The Open Source CFD Toolbox           |
|  \\    /   O peration     | Version:  2112                                  |
|   \\  /    A nd           | Website:  www.openfoam.com                      |
|    \\/     M anipulation  |                                                 |
\*---------------------------------------------------------------------------*/
FoamFile
{
    version     2.0;
    format      ascii;
    arch        "LSB;label=32;scalar=64";
    class       surfaceScalarField;
    location    "9.4995";
    object      phi;
}
// * * * * * * * * * * * * * * * * * * * * * * * * * * * * * * * * * * * * * //

dimensions      [1 0 -1 0 0 0 0];

oriented        oriented;

internalField   nonuniform List<scalar> 
13790
(
0.00290515
5.90727e-09
0.00290514
2.53187e-09
0.00290514
1.97819e-09
0.00290514
1.40498e-09
0.00290514
-1.33009e-09
0.00290514
-2.78652e-09
0.00290514
6.44174e-09
0.0029051
3.31177e-08
0.00290494
1.43133e-07
0.00290464
3.00885e-07
0.00290353
9.93408e-07
0.00290225
1.30246e-06
0.00289928
2.29683e-06
0.00289583
3.02771e-06
0.0029057
-1.20168e-05
0.00293073
-3.01418e-05
0.00289379
2.56969e-05
0.00285975
3.21199e-05
0.00280569
5.25167e-05
0.002745
5.90274e-05
0.00268363
5.95255e-05
0.00262475
5.71765e-05
0.00256695
5.62248e-05
0.00250807
5.69903e-05
0.00244766
5.90052e-05
0.00238572
6.10409e-05
0.00232126
6.28141e-05
0.00225556
6.45071e-05
0.00218933
6.64861e-05
0.00211959
6.88078e-05
0.00204602
7.11294e-05
0.00197133
7.34721e-05
0.00189414
7.60688e-05
0.00181295
7.86266e-05
0.00173082
8.10198e-05
0.00164757
8.37335e-05
0.00155986
8.66492e-05
0.0014693
8.93775e-05
0.00137761
9.23781e-05
0.0012817
9.62006e-05
0.00117956
9.99533e-05
0.00107467
0.000103784
0.000966698
0.000108648
0.000850784
0.000115496
0.000724145
0.000122303
0.000591537
0.000128889
0.000453578
0.000136811
0.000308486
0.000145056
0.000157286
0.000151472
0.000157262
0.00301309
6.7066e-09
0.00301309
4.39992e-09
0.00301309
4.25377e-09
0.00301309
4.46218e-09
0.00301308
1.01728e-09
0.00301308
-1.6351e-09
0.00301308
7.8078e-09
0.00301308
3.50875e-08
0.00301307
1.30488e-07
0.00301306
3.00015e-07
0.00301311
8.4663e-07
0.00301324
1.12365e-06
0.00301246
2.48981e-06
0.0030132
1.60522e-06
0.00301221
-1.30478e-05
0.00301765
-4.07105e-05
0.00297794
5.37923e-05
0.00293029
7.76665e-05
0.00287634
0.000104807
0.00281632
0.000117277
0.00275419
0.00011969
0.00269175
0.000117837
0.00262961
0.000116475
0.00256638
0.000118129
0.00250231
0.000121838
0.00243661
0.000125739
0.00236805
0.000129191
0.00229848
0.00013251
0.00222859
0.000136401
0.00215543
0.000140889
0.0020791
0.000145443
0.00200179
0.000150292
0.00192119
0.000155645
0.00183618
0.000160821
0.00175021
0.000165885
0.00166248
0.000171637
0.00156997
0.000177554
0.00147491
0.00018321
0.00137849
0.000189617
0.00127719
0.000197206
0.00117018
0.000204618
0.00106062
0.000212567
0.000947681
0.000222512
0.000826814
0.000235114
0.0006974
0.000247116
0.000563802
0.000259199
0.000426996
0.000272724
0.000286685
0.000285467
0.000143866
0.000294547
0.000301013
0.00312505
6.8983e-09
0.00312504
5.70341e-09
0.00312504
6.39885e-09
0.00312504
7.65837e-09
0.00312504
3.13574e-09
0.00312504
-6.98962e-10
0.00312503
7.11749e-09
0.00312504
3.09656e-08
0.00312503
1.20314e-07
0.00312506
2.63824e-07
0.00312508
7.2038e-07
0.00312557
5.97346e-07
0.00312467
2.74107e-06
0.00312546
9.26643e-08
0.00311978
-9.41706e-06
0.00310309
-2.93618e-05
0.00303703
0.000107945
0.00298817
0.000124067
0.00293665
0.00015451
0.00287887
0.000173249
0.00281694
0.000179659
0.00275176
0.000181241
0.00268584
0.000180272
0.00261923
0.000182637
0.00255222
0.000187695
0.00248329
0.000193243
0.00241176
0.00019832
0.0023396
0.00020334
0.00226644
0.000209157
0.00219001
0.000215671
0.00211172
0.000222483
0.0020322
0.000229995
0.00194819
0.000238081
0.00186015
0.000245931
0.00177131
0.000253963
0.00167973
0.000262872
0.00158335
0.000271784
0.00148502
0.000280584
0.00138492
0.000290637
0.00127932
0.000301808
0.00116865
0.000312842
0.00105568
0.000325064
0.000939441
0.000340018
0.000814878
0.000357527
0.000683184
0.000373893
0.000549049
0.00039023
0.000413095
0.00040796
0.000275487
0.000423315
0.000137092
0.000433233
0.000438014
0.00324116
6.61373e-09
0.00324116
6.04829e-09
0.00324116
7.71245e-09
0.00324115
9.34869e-09
0.00324115
5.23235e-09
0.00324115
1.1475e-09
0.00324114
1.01222e-08
0.00324114
3.34958e-08
0.00324113
1.18974e-07
0.00324113
2.60088e-07
0.00324106
7.02125e-07
0.00324109
5.4436e-07
0.00324015
2.99505e-06
0.00323942
4.47702e-07
0.00323446
-6.64186e-06
0.003221
-2.14571e-05
0.00315796
0.000158611
0.00309917
0.000180191
0.00304073
0.00021125
0.0029787
0.000233395
0.00291258
0.000243695
0.00284435
0.000247566
0.00277398
0.000248376
0.00270291
0.00025166
0.0026315
0.00025798
0.00255792
0.000265084
0.00248195
0.000271768
0.00240554
0.000278584
0.00232754
0.000286363
0.00224619
0.000294837
0.00216374
0.000303882
0.00208009
0.000314106
0.00199149
0.000324979
0.00189901
0.000335571
0.00180572
0.0003467
0.0017091
0.000358831
0.00160777
0.000370743
0.00150492
0.000382785
0.0013999
0.000396412
0.00128924
0.000410981
0.00117434
0.000425411
0.00105755
0.000441714
0.000937587
0.000461145
0.000809778
0.000482415
0.000676483
0.000502181
0.000541818
0.000522224
0.000406421
0.00054285
0.000270032
0.000560024
0.000134427
0.000569142
0.000572355
0.00336158
6.25905e-09
0.00336158
6.6394e-09
0.00336158
8.40824e-09
0.00336158
1.01703e-08
0.00336158
7.0513e-09
0.00336158
3.25682e-09
0.00336157
1.46985e-08
0.00336156
4.06378e-08
0.00336153
1.33881e-07
0.0033615
2.88911e-07
0.00336135
7.65273e-07
0.00336117
7.12999e-07
0.00336006
3.38103e-06
0.00335868
1.46888e-06
0.00335223
-2.46761e-06
0.00333479
-9.70751e-06
0.00326008
0.000220232
0.00319702
0.000240551
0.00313634
0.000270253
0.00307307
0.000294767
0.00300592
0.000308719
0.00293553
0.000315952
0.00286304
0.000318455
0.00278959
0.000323129
0.00271549
0.000330875
0.00263895
0.000339632
0.00256014
0.000348099
0.00248073
0.000356925
0.00239908
0.00036685
0.00231388
0.000377467
0.00222778
0.000388913
0.00214023
0.000401931
0.00204763
0.000415707
0.00195159
0.000429351
0.00185433
0.000443981
0.0017526
0.000459646
0.00164587
0.000474764
0.00153779
0.000490217
0.00142713
0.000507574
0.00131074
0.000525483
0.00119082
0.000543184
0.00106939
0.00056326
0.000944798
0.000586701
0.000812686
0.00061097
0.000676569
0.000633137
0.000540526
0.000655663
0.000404418
0.000678404
0.000268807
0.000695888
0.000133153
0.000705043
0.000705472
0.00348648
5.81697e-09
0.00348648
6.99695e-09
0.00348648
8.55275e-09
0.00348648
1.01133e-08
0.00348648
7.71897e-09
0.00348648
5.98096e-09
0.00348647
1.98909e-08
0.00348646
5.09326e-08
0.00348642
1.56291e-07
0.00348637
3.36205e-07
0.00348618
8.72205e-07
0.0034859
9.83356e-07
0.00348458
3.95004e-06
0.00348285
2.84041e-06
0.0034754
2.62826e-06
0.00345598
3.92013e-06
0.00337648
0.000285904
0.00330761
0.000306701
0.00324196
0.00033426
0.00317484
0.000360003
0.00310443
0.000376981
0.00303144
0.00038686
0.00295609
0.00039133
0.00287979
0.000397439
0.00280268
0.000406629
0.00272317
0.000416965
0.00264165
0.000427255
0.00255943
0.000438181
0.00247447
0.000450339
0.00238589
0.0004632
0.00229657
0.00047718
0.00220542
0.000493091
0.00210914
0.000509799
0.00201003
0.000526651
0.00190956
0.000545099
0.00180354
0.000564609
0.00169199
0.000583241
0.00157915
0.000602392
0.00146332
0.000623702
0.00134147
0.000645144
0.00121633
0.000666282
0.00108986
0.000689994
0.000960332
0.000717044
0.000823515
0.000743785
0.00068384
0.000767512
0.000545486
0.000791637
0.000407932
0.000815546
0.000270434
0.000833779
0.000134808
0.000841035
0.000840226
0.00361602
5.50465e-09
0.00361602
6.8473e-09
0.00361602
8.29484e-09
0.00361602
9.63262e-09
0.00361602
8.06339e-09
0.00361602
8.47703e-09
0.00361601
2.59015e-08
0.003616
6.3758e-08
0.00361595
1.86071e-07
0.00361589
3.99492e-07
0.00361565
1.01763e-06
0.00361531
1.32166e-06
0.00361379
4.68118e-06
0.00361183
4.4349e-06
0.00360375
8.25878e-06
0.00358338
1.83296e-05
0.00349868
0.000355973
0.00342334
0.000379346
0.00335267
0.00040336
0.00328137
0.000429451
0.00320746
0.000448732
0.00313152
0.000460662
0.00305351
0.000466811
0.00297466
0.00047432
0.00289486
0.000484931
0.00281256
0.000496839
0.00272855
0.000508961
0.00264384
0.000522088
0.00255585
0.000536613
0.00246414
0.000551869
0.00237177
0.000568539
0.00227714
0.000587468
0.00217723
0.00060717
0.00207501
0.000627351
0.00197127
0.00064975
0.00186147
0.000673279
0.00174594
0.00069584
0.00162853
0.000719198
0.00150751
0.000744554
0.00138066
0.0007696
0.00125083
0.000794448
0.00111936
0.000821923
0.000984402
0.000852397
0.000842432
0.000881129
0.000698502
0.000906224
0.000556422
0.000931712
0.000415604
0.00095625
0.000276231
0.000973728
0.000136558
0.000981057
0.000976697
0.00375038
5.3555e-09
0.00375038
6.51976e-09
0.00375038
7.64098e-09
0.00375038
8.59044e-09
0.00375038
7.81467e-09
0.00375038
1.04608e-08
0.00375037
3.2211e-08
0.00375035
7.83179e-08
0.0037503
2.21191e-07
0.00375022
4.74698e-07
0.00374996
1.19256e-06
0.00374957
1.71067e-06
0.0037479
5.53117e-06
0.00374576
6.18816e-06
0.0037369
1.45829e-05
0.00371476
3.43492e-05
0.00362414
0.000431051
0.0035424
0.000458467
0.00346662
0.000477677
0.00339088
0.000503376
0.00331332
0.00052413
0.00323433
0.000537449
0.00315388
0.000544703
0.00307281
0.000553458
0.00299067
0.000565452
0.00290597
0.000578919
0.00281971
0.000592898
0.00273274
0.000608239
0.00264227
0.000625203
0.00254803
0.000643024
0.00245304
0.000662612
0.00235516
0.000684735
0.00225183
0.000707593
0.00214652
0.000731301
0.00203962
0.00075776
0.00192611
0.000785521
0.00180684
0.000812174
0.00168559
0.000840115
0.00155989
0.000870105
0.00142775
0.000899152
0.0012928
0.000927622
0.00115638
0.000958752
0.00101629
0.000992549
0.000869162
0.00102316
0.000720515
0.00104951
0.000573988
0.00107623
0.000428642
0.0011014
0.000283952
0.00111885
0.000141873
0.00112326
0.00111842
0.00388972
5.47131e-09
0.00388972
6.02494e-09
0.00388972
6.65258e-09
0.00388972
7.06279e-09
0.00388972
7.09735e-09
0.00388972
1.21104e-08
0.00388971
3.87551e-08
0.0038897
9.41816e-08
0.00388964
2.60547e-07
0.00388956
5.60329e-07
0.00388926
1.39501e-06
0.00388882
2.14525e-06
0.00388701
6.49045e-06
0.00388472
8.08385e-06
0.00387509
2.15587e-05
0.00385134
5.18061e-05
0.00375407
0.000511723
0.00366525
0.000544794
0.00358365
0.000557948
0.00350288
0.00058238
0.00342132
0.000603519
0.00333929
0.000617236
0.00325651
0.000624858
0.00317344
0.000634577
0.00308926
0.00064789
0.0030026
0.000662841
0.00291459
0.000678633
0.00282567
0.000696208
0.00273314
0.000715626
0.00263703
0.000736175
0.00253988
0.000758897
0.00243928
0.000784346
0.00233311
0.00081063
0.00222502
0.000838073
0.00211511
0.000868729
0.00199834
0.000900821
0.00187587
0.000931859
0.00175126
0.000964653
0.00162164
0.000999696
0.00148466
0.00103312
0.00134462
0.00106578
0.0012027
0.00110125
0.00105648
0.00113851
0.00090338
0.00117094
0.000749207
0.00119848
0.000597195
0.00122628
0.000446228
0.00125197
0.000296747
0.00126889
0.000146674
0.00127366
0.00126494
0.00403424
5.18044e-09
0.00403424
5.31848e-09
0.00403425
5.48371e-09
0.00403425
5.35517e-09
0.00403425
6.22613e-09
0.00403425
1.35803e-08
0.00403424
4.54931e-08
0.00403422
1.10381e-07
0.00403416
3.04431e-07
0.00403407
6.54289e-07
0.00403375
1.62052e-06
0.00403328
2.60824e-06
0.00403135
7.52789e-06
0.00402895
1.0071e-05
0.00401862
2.91268e-05
0.00399344
7.05179e-05
0.00388944
0.000597931
0.00379246
0.000639474
0.00370371
0.000645503
0.00361713
0.000667249
0.00353128
0.000687178
0.00344624
0.000699922
0.00336137
0.000706999
0.00327662
0.000717436
0.00319072
0.000731958
0.00310244
0.000748258
0.00301314
0.000765746
0.00292272
0.000785511
0.00282847
0.000807388
0.00273098
0.000830707
0.00263241
0.000856706
0.00252982
0.000885743
0.00242136
0.000915664
0.00231103
0.000947145
0.00219833
0.00098235
0.00207848
0.00101892
0.00195306
0.00105475
0.00182505
0.00109288
0.0016916
0.00113302
0.0015506
0.00117121
0.00140629
0.00120837
0.00125956
0.00124829
0.00110751
0.00129004
0.00094764
0.00132522
0.000786517
0.00135427
0.000627655
0.00138322
0.000469866
0.00140944
0.000311722
0.00142726
0.000156078
0.00142961
0.001421
0.00418414
4.60065e-09
0.00418414
4.43368e-09
0.00418414
4.19392e-09
0.00418414
3.52987e-09
0.00418414
5.13327e-09
0.00418414
1.46104e-08
0.00418413
5.11701e-08
0.00418412
1.24205e-07
0.00418407
3.42749e-07
0.00418397
7.44968e-07
0.00418365
1.84586e-06
0.00418315
3.10015e-06
0.00418114
8.60479e-06
0.00417875
1.20214e-05
0.00416782
3.71588e-05
0.00414132
9.03245e-05
0.00403073
0.000689408
0.00392363
0.000744547
0.00382552
0.000742527
0.00373222
0.000758998
0.00364191
0.000775277
0.00355438
0.000785051
0.00346783
0.000790668
0.00338149
0.00080169
0.00329414
0.000817323
0.00320465
0.000834772
0.00311441
0.00085375
0.00302325
0.00087554
0.0029281
0.000899879
0.00282977
0.000925959
0.00273058
0.000955255
0.00262693
0.000987973
0.00251723
0.00102171
0.00240571
0.00105755
0.00229122
0.0010975
0.00216918
0.00113882
0.00204164
0.00117985
0.00191103
0.0012237
0.0017741
0.00126998
0.00162812
0.00131394
0.00147832
0.00135598
0.00132622
0.00140072
0.00116854
0.00144714
0.0010018
0.00148603
0.000833135
0.00151745
0.000665836
0.00154847
0.000498594
0.00157628
0.000332944
0.00159324
0.000164715
0.00159796
0.00158539
0.0043396
3.90571e-09
0.0043396
3.37163e-09
0.0043396
2.55881e-09
0.0043396
1.23404e-09
0.00433961
1.96744e-09
0.00433961
1.27188e-08
0.0043396
5.22192e-08
0.0043396
1.29152e-07
0.00433954
3.75589e-07
0.00433949
8.07032e-07
0.00433928
1.93578e-06
0.00433893
3.53604e-06
0.00433716
9.34613e-06
0.00433486
1.38849e-05
0.00432349
4.54362e-05
0.0042961
0.000110763
0.00418211
0.000782826
0.00406184
0.000863055
0.00395098
0.000852517
0.00384869
0.00085988
0.00375388
0.000867778
0.0036645
0.000871828
0.00357673
0.00087548
0.003489
0.000887248
0.00340035
0.000903741
0.00331015
0.000921916
0.0032195
0.000942143
0.00312779
0.000965788
0.00303226
0.000992443
0.00293373
0.00102135
0.00283411
0.00105399
0.00273002
0.00109041
0.00261992
0.00112823
0.00250757
0.00116868
0.00239185
0.00121361
0.00226847
0.00126016
0.00213938
0.00130659
0.00200699
0.00135613
0.00186859
0.00140887
0.00171984
0.0014592
0.0015658
0.00150772
0.00140792
0.0015591
0.00124326
0.00161087
0.00106884
0.00165445
0.000891133
0.00168967
0.000714343
0.0017235
0.000536874
0.00175375
0.000356762
0.0017743
0.000179428
0.0017755
0.00176436
0.00450084
3.42795e-09
0.00450084
2.61402e-09
0.00450084
1.36979e-09
0.00450084
-1.1013e-09
0.00450084
-1.67134e-09
0.00450086
4.59383e-10
0.00450088
2.64437e-08
0.00450096
6.36279e-08
0.00450102
2.36961e-07
0.00450182
2.83433e-07
0.00450183
1.54684e-06
0.00450434
2.64854e-06
0.00450097
1.03593e-05
0.00449774
1.71294e-05
0.00448735
5.22607e-05
0.00445767
0.000132914
0.00434763
0.000870915
0.00420672
0.00100212
0.00407696
0.000981182
0.00396541
0.00096977
0.00386764
0.000963058
0.00377762
0.000958967
0.00368844
0.000961574
0.00359881
0.000974556
0.00350862
0.000991361
0.00341777
0.00100954
0.00332733
0.00103042
0.00323613
0.00105554
0.00314127
0.00108419
0.00304388
0.00111564
0.00294552
0.00115154
0.00284227
0.00119166
0.00273303
0.00123359
0.00262172
0.00127884
0.00250652
0.0013293
0.00238238
0.00138168
0.00225197
0.00143426
0.00211768
0.00149076
0.00197621
0.00155016
0.00182484
0.00160719
0.00166769
0.00166301
0.00150513
0.00172175
0.00133441
0.00178091
0.00115145
0.00183138
0.000963959
0.00187154
0.000774902
0.00191083
0.000583606
0.00194501
0.000391482
0.00196648
0.000193685
0.00197378
0.0019585
0.00466806
3.32952e-09
0.00466806
2.74592e-09
0.00466806
2.04634e-09
0.00466806
-1.08052e-09
0.00466806
-2.23279e-09
0.00466807
-9.25935e-09
0.00466808
1.36763e-08
0.0046683
-5.59153e-09
0.00466817
1.56657e-07
0.00466686
3.2727e-08
0.00466958
1.35351e-06
0.0046709
2.12792e-06
0.00466618
1.06878e-05
0.00467579
1.88593e-05
0.00465907
5.78245e-05
0.00462431
0.000156337
0.00451543
0.000957611
0.00433938
0.00117617
0.00418559
0.00113323
0.00407219
0.00108096
0.00397846
0.00105444
0.0038918
0.00104299
0.00380287
0.00104762
0.00371207
0.00106304
0.00362107
0.00107962
0.00352958
0.00109737
0.00343884
0.00111861
0.00334769
0.00114486
0.00325329
0.00117509
0.00315702
0.00120866
0.00306023
0.00124731
0.00295893
0.00129092
0.00285182
0.00133682
0.00274251
0.00138673
0.00262942
0.00144251
0.00250795
0.00150075
0.00237973
0.00156018
0.0022464
0.00162397
0.00210485
0.00169158
0.00195102
0.00175774
0.0017899
0.00182168
0.00162257
0.00188874
0.001446
0.00195689
0.00125432
0.00201733
0.001055
0.00206502
0.000852825
0.00211065
0.000645181
0.00215238
0.000431965
0.00218062
0.00021907
0.00218668
0.00217719
0.00484151
2.66911e-09
0.00484151
3.11884e-09
0.00484151
2.50284e-09
0.0048415
8.33816e-10
0.0048415
-1.26152e-09
0.00484149
4.38071e-09
0.00484149
9.94935e-09
0.00484149
7.64961e-08
0.00484104
1.05686e-07
0.00484155
3.4577e-07
0.00484008
7.02678e-07
0.00487162
-1.811e-06
0.00484911
1.03894e-05
0.00486408
-3.94869e-06
0.00483294
8.96999e-05
0.00480473
0.000175887
0.00469577
0.00104428
0.00445872
0.00141196
0.00427408
0.00131678
0.00416881
0.00118356
0.00408211
0.0011386
0.00400236
0.00111984
0.00391225
0.00113491
0.00382133
0.0011516
0.00373163
0.00116649
0.00364236
0.00118323
0.00355381
0.00120474
0.00346479
0.00123184
0.00337271
0.00126346
0.00327896
0.00129883
0.00318531
0.00134
0.00308719
0.0013868
0.00298326
0.00143651
0.00287743
0.00149131
0.00276726
0.00155276
0.00264802
0.00161741
0.00252175
0.00168394
0.0023903
0.00175493
0.00225118
0.00183089
0.0020988
0.00190697
0.00193623
0.00198155
0.00176519
0.00205931
0.00158338
0.0021384
0.00138438
0.00221213
0.00117143
0.00227104
0.00095297
0.00232616
0.000726351
0.00237785
0.000490778
0.00241616
0.000243979
0.00243401
0.00242088
0.00502139
2.23436e-09
0.00502139
2.08598e-09
0.00502139
2.88902e-09
0.00502139
1.0713e-09
0.00502139
2.57721e-09
0.00502139
3.78999e-09
0.00502136
3.94455e-08
0.00502152
5.20509e-08
0.00502104
2.66029e-07
0.0050211
3.08097e-07
0.00502151
1.77144e-06
0.00502121
-7.34355e-06
0.0050043
2.2665e-05
0.00508528
-5.89114e-05
0.00496175
0.000198721
0.0050512
7.25999e-05
0.00498508
0.00107929
0.0046783
0.00171545
0.00442369
0.00157151
0.00434803
0.00125661
0.00425351
0.00122984
0.00415701
0.00121263
0.00405285
0.00123562
0.00395325
0.00124815
0.00385716
0.00125901
0.00376419
0.00127236
0.00367436
0.00129195
0.0035857
0.00131824
0.00349539
0.00134973
0.0034049
0.00138564
0.00331519
0.00142816
0.00322203
0.00147691
0.00312444
0.00152986
0.00302484
0.00158896
0.0029217
0.0016555
0.00280995
0.00172754
0.00268815
0.0018019
0.00256056
0.00188177
0.00242412
0.0019672
0.00227444
0.00205383
0.00211331
0.00214042
0.00194101
0.00223072
0.00175526
0.00232364
0.00154985
0.00241424
0.00132346
0.00248973
0.00108699
0.00255958
0.000835687
0.00262805
0.000569932
0.00268155
0.00029255
0.00271182
0.0027132
0.00520796
1.83142e-09
0.00520796
1.22305e-09
0.00520797
4.86477e-10
0.00520797
-1.04904e-09
0.00520797
-1.11612e-09
0.00520798
-1.31391e-09
0.00520801
9.24137e-09
0.00520798
2.05328e-08
0.00520854
7.55612e-08
0.00520731
1.67488e-07
0.00522046
1.10177e-07
0.00520477
-6.14974e-08
0.00522243
4.04045e-06
0.00516866
-1.44524e-06
0.00530519
5.59296e-05
0.00523312
0.000134929
0.00577295
0.000519721
0.00553777
0.00194215
0.00532053
0.001786
0.00501664
0.00155794
0.00480436
0.00143844
0.00462763
0.00138529
0.0044778
0.00138166
0.00432729
0.00139543
0.0041852
0.00139728
0.00405213
0.00140107
0.0039284
0.00141227
0.0038127
0.00143126
0.00370195
0.00145644
0.00359678
0.0014875
0.00349718
0.00152674
0.00339796
0.00157358
0.00329761
0.00162608
0.00319834
0.00168605
0.00309812
0.00175528
0.00299239
0.0018313
0.00287924
0.00191235
0.00275894
0.00200093
0.00262967
0.0020959
0.00248619
0.0021954
0.00232795
0.002295
0.00215804
0.00239918
0.00197287
0.00250861
0.00176585
0.00261889
0.0015278
0.00271981
0.00127235
0.00281109
0.000994562
0.00290471
0.000688811
0.00298762
0.000351425
0.00304939
0.00306437
0.00540147
1.06827e-09
0.00540147
9.91369e-10
0.00540147
2.18554e-10
0.00540147
-2.36969e-10
0.00540146
1.40414e-09
0.00540145
9.05074e-09
0.00540142
2.60749e-08
0.00540138
6.81689e-08
0.00540147
1.51838e-07
0.00540156
3.06569e-07
0.00539404
3.65052e-07
0.00540433
2.32998e-06
0.00532624
4.20901e-06
0.00537931
1.63928e-05
0.00538979
3.76137e-05
0.00540258
0.000116737
0.00555343
0.000361158
0.00561803
0.00185339
0.00551799
0.00188115
0.0053493
0.001724
0.00518581
0.00159873
0.0050212
0.00154668
0.00487758
0.00152223
0.00473682
0.0015335
0.00459092
0.00153985
0.0044453
0.00154347
0.00430338
0.00155187
0.0041649
0.00156686
0.00402966
0.00158732
0.00390093
0.00161301
0.00378078
0.00164623
0.00366471
0.00168797
0.00355071
0.00173641
0.00344168
0.00179365
0.00333518
0.00186171
0.00322578
0.00193822
0.003114
0.00202184
0.0029984
0.00211508
0.00287722
0.00221619
0.0027455
0.0023255
0.00259677
0.00244094
0.00243191
0.00256224
0.0022504
0.00268891
0.00204518
0.00282198
0.00180537
0.00295228
0.00153573
0.0030765
0.00123032
0.00320924
0.000880234
0.00333729
0.000474554
0.00345562
0.00353858
0.00560216
5.19536e-10
0.00560216
4.26188e-10
0.00560216
6.27871e-10
0.00560215
2.87905e-09
0.00560215
7.59238e-09
0.00560213
2.346e-08
0.00560211
5.3293e-08
0.00560206
1.00835e-07
0.00560205
2.2247e-07
0.00560146
3.60562e-07
0.00560742
4.6957e-07
0.00559722
3.04885e-06
0.00566295
1.84879e-06
0.00560501
2.03949e-05
0.00560574
2.2361e-05
0.00559718
0.000128707
0.00562112
0.000324683
0.00561799
0.00182865
0.0055359
0.00195782
0.00544878
0.00180807
0.00536875
0.00167658
0.00527149
0.00164182
0.00516672
0.00162468
0.00506004
0.00163774
0.00494202
0.00165456
0.00481631
0.00166645
0.00468729
0.00167957
0.00455527
0.00169747
0.00441884
0.00172008
0.00428008
0.00174606
0.00414542
0.00177751
0.00401399
0.00181543
0.00388603
0.00185965
0.00376451
0.00191274
0.00364832
0.00197691
0.00353343
0.00205165
0.00341868
0.00213334
0.0033052
0.00222627
0.00318661
0.00233333
0.003061
0.00244972
0.00292505
0.00257466
0.00277596
0.00270904
0.00260982
0.00285399
0.00241824
0.00301142
0.00219216
0.00317411
0.00192361
0.00333891
0.0016066
0.00352215
0.00121565
0.00372778
0.000708223
0.00396396
0.00424663
0.00581031
7.06517e-11
0.00581031
2.81649e-10
0.00581031
6.92218e-10
0.00581031
3.06709e-09
0.00581031
4.10179e-09
0.00581031
1.75744e-08
0.00581037
8.27196e-09
0.00581038
8.05596e-08
0.00581036
-1.62633e-08
0.00581057
2.28217e-07
0.00581438
-1.51126e-07
0.00580835
3.12525e-06
0.00586966
-6.876e-06
0.00581051
3.55567e-05
0.00584973
-3.02211e-05
0.00575349
0.000226805
0.00581193
0.000253861
0.00563184
0.00197939
0.00551375
0.00207137
0.00548366
0.00183578
0.00544156
0.00171733
0.0053918
0.00168969
0.00533566
0.00167883
0.00526901
0.00170205
0.00519235
0.00172854
0.00510521
0.00175192
0.00500944
0.0017745
0.00490582
0.00180056
0.00479437
0.00183076
0.00467415
0.00186399
0.00454784
0.00190024
0.00441734
0.00194086
0.00428531
0.00198569
0.00415688
0.00203721
0.00403545
0.00209648
0.00391977
0.00216582
0.003802
0.00224838
0.00368407
0.0023417
0.00356972
0.00244565
0.00345546
0.00256254
0.00333577
0.00269249
0.00320788
0.00283457
0.00306986
0.00299029
0.00291356
0.00316631
0.00272412
0.00335833
0.00249381
0.00356432
0.00221179
0.00380033
0.0018467
0.00409214
0.00133711
0.00447537
0.00558257
0.00840003
4.78188e-12
0.00840003
8.09893e-11
0.00840003
1.20108e-10
0.00840003
5.17154e-10
0.00840004
3.43509e-10
0.00840006
1.00291e-09
0.00840008
2.88782e-11
0.00840016
5.93597e-09
0.00840009
-9.98579e-09
0.00839889
9.76588e-08
0.00840151
-1.12647e-07
0.00842475
1.77003e-07
0.00839903
3.64367e-07
0.0084375
6.63637e-06
0.00838201
2.7631e-05
0.00849936
9.33365e-05
0.00824918
0.000480841
0.00845772
0.00171749
0.00827543
0.00225305
0.0080748
0.00203616
0.00796312
0.00182617
0.00786549
0.0017843
0.00775442
0.00178667
0.0076519
0.00180092
0.00754756
0.00183008
0.00744329
0.00185404
0.00733726
0.0018789
0.00722814
0.00190906
0.00711253
0.00194461
0.00698833
0.0019847
0.0068561
0.00202874
0.00671535
0.00207683
0.00656644
0.00212718
0.00641503
0.00217967
0.00626452
0.00224203
0.00611429
0.00231313
0.00596931
0.00239044
0.00583076
0.0024765
0.00569905
0.00257375
0.00557728
0.00268235
0.0054619
0.00280461
0.00535203
0.00294019
0.0052516
0.00308628
0.0051694
0.0032485
0.00509986
0.00342648
0.00504102
0.00361384
0.0050381
0.00379378
0.00518312
0.00394029
0.00565185
0.00400426
0.0036802
0.00755602
0.00840003
2.25059e-11
0.00840003
5.59521e-11
0.00840002
4.89317e-10
0.00840002
9.20409e-10
0.00840001
4.81151e-09
0.00839997
1.02498e-08
0.00839993
2.88767e-08
0.00839982
6.58113e-08
0.00839958
1.53077e-07
0.0083992
3.36695e-07
0.00839801
8.77162e-07
0.00839635
1.52719e-06
0.00839109
4.71848e-06
0.00838589
1.0457e-05
0.00838883
2.26451e-05
0.00839268
7.46452e-05
0.00866252
0.00021219
0.00956734
0.000737044
0.00941407
0.0023972
0.00908546
0.00236683
0.00884968
0.00207186
0.00862788
0.00200451
0.00841985
0.00198921
0.0082372
0.00197614
0.00806308
0.00199445
0.0079001
0.00200878
0.00775137
0.00202204
0.00761537
0.00204129
0.00748873
0.00206797
0.00736804
0.00210187
0.00725233
0.00214093
0.00714126
0.00218407
0.00702778
0.00223418
0.00690843
0.00229207
0.00679125
0.00235292
0.00668028
0.00241856
0.00657612
0.00249061
0.00647918
0.00256967
0.00639248
0.00265628
0.00631952
0.00275153
0.00626921
0.00285383
0.00623808
0.00296795
0.00623436
0.0030857
0.0062705
0.00320792
0.00636456
0.00332975
0.00653856
0.00343917
0.00679612
0.00353068
0.00718465
0.0035448
0.00766811
0.00351181
0.00311099
0.00823004
0.00840003
7.03504e-12
0.00840003
2.41347e-11
0.00840003
1.55592e-10
0.00840003
3.25701e-10
0.00840003
1.65677e-09
0.00840003
3.72474e-09
0.00840005
1.28279e-08
0.00840007
2.76488e-08
0.0084001
8.43116e-08
0.0084007
1.70633e-07
0.00839956
5.33774e-07
0.00841447
9.41625e-07
0.00839383
3.92486e-06
0.00850457
7.01332e-06
0.00841075
2.34285e-05
0.00842206
4.93564e-05
0.00846948
0.000158139
0.00870479
0.000477261
0.00890137
0.00216836
0.00901581
0.00224811
0.00884085
0.0022489
0.0087339
0.00211123
0.00863013
0.00208823
0.00850557
0.00209421
0.00838409
0.00211072
0.00825376
0.00213216
0.00811909
0.00214933
0.00798751
0.00216627
0.00786448
0.0021865
0.00775204
0.00221072
0.00764905
0.00224061
0.00754958
0.00228028
0.0074547
0.00232558
0.00736763
0.00237422
0.00728835
0.00242716
0.00721598
0.00248598
0.00715396
0.00254803
0.00710357
0.00261671
0.00706926
0.00268781
0.00705129
0.00276549
0.00705627
0.00284552
0.00709569
0.00292725
0.00716608
0.00301309
0.00728207
0.00308796
0.00744484
0.00316242
0.00767506
0.00320486
0.00796376
0.00323823
0.00830098
0.00320367
0.00868647
0.00312194
0.00291835
0.00887314
0.00840003
5.07537e-12
0.00840003
1.1697e-11
0.00840003
6.99208e-11
0.00840003
1.02745e-10
0.00840003
4.20242e-10
0.00840003
1.17191e-10
0.00840004
6.29837e-09
0.00840007
6.31157e-09
0.00840009
4.49833e-08
0.00840014
7.18454e-08
0.00840067
2.80564e-07
0.00840159
3.58105e-07
0.0083992
3.02334e-06
0.00841853
3.95607e-06
0.00839165
2.03254e-05
0.00843965
3.2984e-05
0.00841845
0.000155638
0.00844687
0.000418902
0.00852692
0.00205049
0.00846381
0.00230904
0.00848228
0.00223094
0.00846785
0.00212372
0.00844772
0.00210411
0.00842544
0.00211209
0.00839022
0.00214197
0.00834407
0.00217501
0.00828593
0.00220471
0.00821825
0.00223139
0.00814674
0.0022558
0.00807031
0.00228369
0.0079919
0.00231638
0.00791846
0.00235195
0.0078532
0.00238941
0.00779493
0.0024307
0.00774519
0.00247487
0.00770533
0.00252243
0.00767862
0.00257244
0.00766669
0.00262508
0.00767108
0.00267973
0.00770106
0.00273433
0.00775053
0.00279258
0.00783179
0.00284265
0.00794541
0.00289757
0.00809735
0.0029342
0.00828407
0.00297266
0.00850756
0.00297771
0.00876563
0.00297619
0.00903775
0.00292665
0.00932709
0.00282927
0.00271427
0.00952668
0.00840003
4.51807e-12
0.00840003
-1.81372e-11
0.00840003
2.01156e-11
0.00840003
-1.6203e-10
0.00840003
3.20369e-11
0.00840003
-1.81694e-09
0.00840003
4.12126e-09
0.00840007
-1.31999e-08
0.00840005
5.02941e-08
0.00840022
-3.83153e-08
0.00839976
1.48105e-07
0.00840434
-4.07965e-08
0.00839833
1.92352e-06
0.00848423
-5.07448e-06
0.00840725
3.12186e-05
0.00843193
-1.16874e-05
0.00836403
0.000227079
0.00842639
0.000338949
0.00827431
0.00216066
0.00817082
0.00240821
0.00817188
0.00222741
0.00820635
0.00208547
0.00823138
0.00207506
0.00824985
0.00208971
0.00826935
0.00211864
0.0082833
0.00215819
0.0082892
0.00219633
0.00828964
0.00222962
0.00828162
0.00226399
0.00826404
0.002301
0.00824241
0.00233756
0.00821895
0.00237469
0.00819526
0.00241246
0.00817469
0.0024503
0.00815853
0.00248955
0.00815081
0.00252777
0.00815287
0.00256796
0.00816971
0.00260557
0.00820142
0.00264504
0.00825426
0.002679
0.00832915
0.0027153
0.00842867
0.00274068
0.00855589
0.00276822
0.00871093
0.00277716
0.00889602
0.00278652
0.00910023
0.00277087
0.00932786
0.00274578
0.00957535
0.00267551
0.00978607
0.00261501
0.00250188
0.00999484
0.00840003
8.00869e-13
0.00840003
1.61895e-11
0.00840003
3.87197e-11
0.00840003
1.69e-10
0.00840003
4.75128e-10
0.00840003
4.61925e-10
0.00839999
2.41393e-09
0.00839998
8.91195e-09
0.00840018
2.19542e-08
0.00839989
1.12804e-07
0.0083985
3.62747e-07
0.00839964
3.89489e-07
0.00838309
1.24792e-06
0.00838539
2.26875e-06
0.00844862
9.14307e-06
0.00831364
3.42291e-05
0.00850353
0.000100656
0.00833541
0.000493041
0.00869505
0.00172996
0.00859151
0.00250697
0.00842837
0.00238983
0.00838087
0.00213165
0.00837353
0.00207991
0.00835215
0.00210829
0.00834546
0.00212232
0.00834858
0.0021524
0.00835865
0.00218404
0.00837162
0.00221499
0.00838747
0.00224794
0.00840536
0.00228343
0.00842235
0.00232008
0.00843965
0.00235632
0.0084567
0.0023937
0.00847688
0.0024286
0.00849934
0.00246482
0.00852772
0.00249714
0.00856279
0.00253023
0.00860728
0.00255838
0.00866327
0.00258601
0.00873228
0.00260692
0.0088188
0.00262607
0.00892149
0.00263531
0.00904552
0.00264158
0.00918582
0.00263426
0.00935012
0.00261979
0.00952817
0.00259092
0.00972643
0.00254495
0.00991642
0.00248295
0.0101116
0.00241728
0.00231815
0.0102922
0.00840003
7.28791e-14
0.00840003