/*--------------------------------*- C++ -*----------------------------------*\
| =========                 |                                                 |
| \\      /  F ield         | OpenFOAM: The Open Source CFD Toolbox           |
|  \\    /   O peration     | Version:  2112                                  |
|   \\  /    A nd           | Website:  www.openfoam.com                      |
|    \\/     M anipulation  |                                                 |
\*---------------------------------------------------------------------------*/
FoamFile
{
    version     2.0;
    format      ascii;
    arch        "LSB;label=32;scalar=64";
    class       volScalarField;
    location    "9.4995";
    object      T;
}
// * * * * * * * * * * * * * * * * * * * * * * * * * * * * * * * * * * * * * //

dimensions      [0 0 0 1 0 0 0];

internalField   nonuniform List<scalar> 
7000
(
1
1
1
1
1.00001
1.00011
1.00027
1.00136
1.00217
1.00768
1.01384
1.02914
1.11036
1.2557
1.72096
2.54128
2.70121
2.70302
2.68939
2.67611
2.67617
2.68225
2.68779
2.69474
2.7001
2.7033
2.70686
2.712
2.71482
2.71662
2.72242
2.72825
2.73106
2.73685
2.74406
2.74566
2.74797
2.75468
2.75737
2.75626
2.76202
2.77063
2.77147
2.76824
2.78025
2.80127
2.81151
2.81051
2.8042
2.79508
1
1
1
1
1.00001
1.00011
1.00027
1.0013
1.00209
1.00728
1.01326
1.0269
1.1078
1.2467
1.71213
2.53039
2.69752
2.70144
2.69004
2.67693
2.67702
2.683
2.68858
2.69596
2.70124
2.70416
2.70823
2.714
2.717
2.71914
2.72486
2.72952
2.73166
2.73803
2.74536
2.747
2.75048
2.75782
2.75996
2.75939
2.76646
2.77399
2.77351
2.7715
2.78612
2.80548
2.81284
2.81035
2.8029
2.79275
1
1
1
1
1.00001
1.00011
1.00026
1.00127
1.00202
1.00703
1.01287
1.02589
1.10592
1.24242
1.70725
2.52657
2.69703
2.70175
2.69136
2.67804
2.67779
2.68346
2.68891
2.69631
2.70105
2.70395
2.70857
2.7138
2.71638
2.71971
2.72521
2.72772
2.72991
2.7373
2.74349
2.74493
2.75007
2.75731
2.75841
2.75901
2.76728
2.77387
2.7724
2.77215
2.78914
2.80813
2.81393
2.81067
2.8029
2.79358
1
1
1
1
1.00001
1.00011
1.00026
1.00123
1.00196
1.00679
1.01246
1.025
1.10327
1.23652
1.69811
2.51664
2.69138
2.7013
2.69108
2.67795
2.67801
2.68376
2.68945
2.69692
2.70144
2.70451
2.70955
2.71445
2.71691
2.72113
2.72673
2.72835
2.73041
2.73784
2.74324
2.74474
2.75068
2.75736
2.7577
2.75932
2.76796
2.77302
2.77061
2.77292
2.79136
2.80834
2.81241
2.80809
2.80105
2.79052
1
1
1
1
1.00001
1.00011
1.00026
1.00119
1.00189
1.00656
1.01207
1.02413
1.10058
1.23054
1.68885
2.50654
2.68695
2.70204
2.69168
2.67832
2.67835
2.68395
2.68975
2.69703
2.7013
2.70458
2.70971
2.71421
2.71674
2.72161
2.72725
2.72875
2.73126
2.73821
2.74205
2.74336
2.7503
2.75703
2.75715
2.75981
2.76855
2.77216
2.76886
2.77301
2.79259
2.80865
2.81162
2.80759
2.79909
2.79054
1
1
1
1
1.00001
1.00011
1.00025
1.00115
1.00182
1.0063
1.01164
1.02314
1.09767
1.22403
1.67825
2.49392
2.68106
2.7021
2.69162
2.67824
2.67836
2.68399
2.6899
2.69707
2.70126
2.70472
2.70978
2.71385
2.71643
2.72174
2.7273
2.72876
2.73194
2.73868
2.7411
2.74187
2.74938
2.75632
2.7564
2.7597
2.76827
2.77128
2.76784
2.77327
2.79351
2.80882
2.8107
2.80515
2.79812
2.78639
1
1
1
1
1.00001
1.00012
1.00025
1.00111
1.00174
1.00601
1.01117
1.02205
1.09455
1.21704
1.66637
2.47874
2.67419
2.70218
2.69153
2.67799
2.67817
2.68382
2.68985
2.69689
2.70097
2.70464
2.70977
2.7134
2.71592
2.72156
2.72698
2.72839
2.73219
2.7388
2.74024
2.74085
2.7481
2.75412
2.75483
2.75952
2.76731
2.76888
2.76515
2.77243
2.79305
2.80721
2.80879
2.80382
2.7941
2.78641
1
1
0.999999
1
1.00001
1.00011
1.00024
1.00105
1.00165
1.00569
1.01065
1.02079
1.09115
1.20935
1.65297
2.46059
2.66625
2.70226
2.69135
2.67757
2.67781
2.68349
2.68966
2.69654
2.70052
2.7043
2.70942
2.71291
2.71541
2.72103
2.72612
2.72745
2.73194
2.73846
2.73942
2.7398
2.74712
2.7524
2.75262
2.75804
2.7665
2.76809
2.76441
2.77222
2.79206
2.80449
2.80504
2.79948
2.79349
2.78119
1
1
0.999999
1
1.00001
1.00011
1.00023
1.00099
1.00154
1.00531
1.01006
1.01933
1.08744
1.20093
1.63778
2.43881
2.65707
2.70234
2.69112
2.67699
2.6773
2.68303
2.68931
2.6961
2.69996
2.70386
2.70879
2.7121
2.71485
2.72035
2.7249
2.72647
2.7313
2.73761
2.73842
2.7389
2.74587
2.7501
2.74948
2.75484
2.76355
2.76504
2.76208
2.77198
2.792
2.80328
2.80316
2.79806
2.78871
2.78163
1
1
0.999999
1
1.00001
1.00011
1.00021
1.00092
1.00142
1.00488
1.0094
1.01767
1.08339
1.19171
1.62046
2.41252
2.64636
2.70239
2.6908
2.67623
2.67665
2.68242
2.68895
2.69556
2.69924
2.70318
2.70793
2.71091
2.71398
2.71954
2.72357
2.72505
2.73016
2.73638
2.73701
2.73821
2.74499
2.74845
2.74798
2.75354
2.76134
2.76191
2.75808
2.76824
2.78849
2.79992
2.79977
2.79248
2.78708
2.77427
1
1
0.999999
1
1.00001
1.0001
1.00019
1.00083
1.00127
1.00438
1.00865
1.01575
1.07894
1.18161
1.60054
2.38063
2.63385
2.7024
2.69048
2.67531
2.67584
2.68165
2.68827
2.69487
2.69855
2.70243
2.7071
2.70996
2.71282
2.71843
2.72216
2.72327
2.72851
2.73424
2.73443
2.73593
2.7423
2.74478
2.74348
2.74913
2.75836
2.76018
2.75673
2.76599
2.78596
2.79658
2.79644
2.79208
2.78027
2.77384
1
1
0.999999
1
1.00001
1.00009
1.00017
1.00073
1.00111
1.00382
1.00784
1.01362
1.07409
1.1706
1.57743
2.34164
2.61888
2.70223
2.68993
2.67409
2.67469
2.68075
2.68756
2.69384
2.69747
2.70135
2.70564
2.70843
2.71152
2.71691
2.72055
2.72211
2.72723
2.73266
2.73334
2.73541
2.74134
2.74373
2.7418
2.74509
2.75305
2.75424
2.75167
2.7619
2.78109
2.79227
2.7916
2.78392
2.77987
2.76547
1
1
0.999999
1
1.00001
1.00008
1.00015
1.00061
1.0009
1.00312
1.00694
1.01131
1.0689
1.15861
1.55025
2.29353
2.60071
2.70159
2.68885
2.67259
2.67328
2.67961
2.68673
2.69292
2.69657
2.70068
2.70471
2.70706
2.70989
2.71483
2.71767
2.7188
2.72387
2.72868
2.72858
2.73039
2.73716
2.73978
2.73883
2.74389
2.75043
2.75052
2.74756
2.75621
2.7756
2.78548
2.78575
2.78069
2.76894
2.76465
1
1
1
1
1.00001
1.00007
1.00014
1.00049
1.00095
1.00234
1.00742
1.00772
1.06285
1.14489
1.52105
2.23817
2.57864
2.70069
2.6879
2.67139
2.67205
2.67796
2.68503
2.69091
2.69451
2.69869
2.70323
2.70583
2.70914
2.71424
2.71707
2.71827
2.72297
2.72746
2.72749
2.72882
2.73349
2.73479
2.73294
2.73648
2.74419
2.74536
2.74258
2.74854
2.76831
2.77886
2.77798
2.77264
2.76764
2.74967
1
1
1
1
1.00002
1.00005
1.00021
1.0003
1.00143
1.0011
1.00867
1.00295
1.05589
1.13175
1.48851
2.17186
2.54955
2.69819
2.68604
2.67049
2.67117
2.67675
2.68355
2.6893
2.69278
2.69646
2.69998
2.70235
2.70525
2.71016
2.71293
2.71371
2.71861
2.72308
2.7229
2.72516
2.73075
2.73278
2.73131
2.73236
2.73814
2.73958
2.73718
2.74
2.75846
2.77049
2.77057
2.76366
2.75346
2.75072
1
1
1
1.00001
1.00001
1.00007
1.00014
1.00037
1.00105
1.00135
1.00717
1.00315
1.05152
1.11398
1.43978
2.08607
2.51056
2.68117
2.67242
2.66194
2.66393
2.67227
2.6798
2.68686
2.69152
2.69592
2.69956
2.70172
2.70449
2.70901
2.71101
2.71194
2.71582
2.71876
2.71856
2.71821
2.72252
2.72544
2.72452
2.72651
2.73131
2.73166
2.72949
2.73013
2.74627
2.76001
2.76043
2.75592
2.74658
2.72767
1
1
1
1
1.00002
1.00004
1.00015
1.00024
1.00077
1.00192
1.0017
1.01547
1.03554
1.12829
1.30742
1.77742
2.53908
2.68165
2.65706
2.65323
2.64445
2.65309
2.65887
2.6676
2.6746
2.68161
2.68859
2.69395
2.69885
2.70451
2.70721
2.70891
2.71331
2.71706
2.71737
2.71738
2.71897
2.71957
2.71829
2.71797
2.72249
2.72399
2.7216
2.7197
2.73004
2.74488
2.74652
2.74
2.72804
2.72279
1
1
1
1
1.00002
1.00004
1.00015
1.00025
1.00077
1.00188
1.00184
1.01404
1.03009
1.10716
1.26121
1.72274
2.53498
2.68091
2.67433
2.65987
2.64603
2.6525
2.65597
2.66155
2.66638
2.67049
2.67437
2.67846
2.68423
2.69116
2.69539
2.69739
2.70209
2.70666
2.70768
2.70929
2.71344
2.71377
2.71273
2.71059
2.71146
2.71195
2.71058
2.70767
2.71232
2.72648
2.72737
2.72341
2.70915
2.68678
1
1
1
1
1.00002
1.00004
1.00013
1.00022
1.00052
1.00176
1.00161
1.01201
1.02201
1.09546
1.22288
1.67251
2.48308
2.66408
2.68394
2.67534
2.65767
2.6554
2.65873
2.66197
2.66591
2.66871
2.67024
2.67132
2.67362
2.67937
2.68454
2.68828
2.69301
2.69683
2.69769
2.69825
2.70121
2.70365
2.70369
2.70255
2.70116
2.69977
2.69651
2.69169
2.69157
2.69935
2.69987
2.69156
2.67494
2.65652
1
1
1
1
1.00001
1.00002
1.00004
1.00016
1.00027
1.00137
1.00139
1.01004
1.01298
1.08091
1.18411
1.61777
2.40151
2.6355
2.69629
2.68306
2.67104
2.66555
2.66789
2.66842
2.66982
2.67039
2.67034
2.67013
2.6702
2.67119
2.67392
2.67719
2.68252
2.68707
2.68885
2.68862
2.68942
2.69047
2.69035
2.6894
2.68757
2.68524
2.68146
2.67104
2.66677
2.66865
2.66558
2.65286
2.61265
2.5026
1
1
1
1
1.00001
1.00001
1.00006
1.00009
1.00046
1.00064
1.00418
1.00136
1.02419
1.05913
1.2007
1.46708
2.10066
2.56186
2.68937
2.67794
2.66739
2.66173
2.66522
2.66671
2.66944
2.66943
2.66903
2.66795
2.66651
2.66586
2.66588
2.66629
2.66774
2.67145
2.67385
2.6742
2.67346
2.67224
2.67117
2.66859
2.66416
2.66021
2.65487
2.6452
2.62522
2.61039
2.59791
2.56788
2.51842
2.39364
1
1
1
1
1.00001
1.00004
1.00005
1.00022
1.00036
1.00134
1.00242
1.00801
1.01732
1.05124
1.13004
1.34497
1.77001
2.52217
2.68463
2.66072
2.64138
2.63134
2.63764
2.64384
2.65245
2.66016
2.66411
2.66464
2.6642
2.66321
2.66203
2.66051
2.65919
2.65942
2.65906
2.65834
2.65602
2.654
2.6497
2.64662
2.64049
2.63085
2.62401
2.61075
2.59504
2.56584
2.53066
2.49328
2.41757
2.35873
1
1
1
1
1
1
1.00003
1.00006
1.00027
1.00044
1.00279
1.0017
1.0161
1.03383
1.12042
1.28703
1.75347
2.5562
2.69122
2.65505
2.64782
2.6311
2.62915
2.63381
2.63834
2.64348
2.64892
2.65339
2.65656
2.65735
2.65696
2.6555
2.65424
2.65133
2.64943
2.64571
2.64262
2.63637
2.63119
2.62155
2.61525
2.60248
2.58885
2.57435
2.55262
2.53203
2.48977
2.45643
2.38466
2.34442
1
1
1
1
1
1
1.00002
1.00005
1.0002
1.00034
1.00206
1.00102
1.01327
1.02413
1.10068
1.23639
1.69638
2.50573
2.67039
2.66904
2.65305
2.63471
2.63141
2.63209
2.63405
2.63581
2.63689
2.63754
2.6389
2.64022
2.6428
2.64271
2.64215
2.6404
2.6385
2.63467
2.63114
2.62423
2.61769
2.60818
2.59466
2.58442
2.56371
2.54932
2.52049
2.50172
2.46221
2.43514
2.38309
2.34591
1
1
1
1
1
1
1.00002
1.00003
1.00016
1.00025
1.00135
1.00131
1.00984
1.01226
1.08238
1.19281
1.63085
2.41923
2.62412
2.67623
2.66257
2.64702
2.63954
2.63876
2.63761
2.6372
2.63522
2.63317
2.63054
2.62818
2.62646
2.62475
2.62321
2.62123
2.61882
2.61639
2.61226
2.60835
2.60072
2.59438
2.58082
2.5712
2.55064
2.53683
2.50766
2.48823
2.45366
2.42506
2.38622
2.35092
1
1
1
1
1
1.00001
1.00001
1.00006
1.0001
1.0005
1.00074
1.0044
1.00261
1.02593
1.0584
1.19938
1.46186
2.07586
2.54666
2.67187
2.65754
2.64662
2.63815
2.63693
2.63631
2.63573
2.6336
2.63115
2.62778
2.62325
2.61886
2.61482
2.61031
2.60673
2.6012
2.59788
2.59135
2.58742
2.57921
2.57399
2.56237
2.55467
2.53755
2.52634
2.50373
2.48406
2.45699
2.42893
2.39709
2.36672
1
1
1
1
1
1
1.00001
1.00004
1.00006
1.00038
1.00023
1.00241
1.00568
1.01657
1.04793
1.12866
1.32802
1.76105
2.50648
2.66538
2.63802
2.63136
2.61787
2.61642
2.6193
2.62124
2.62189
2.62166
2.62015
2.61792
2.61352
2.6105
2.60446
2.60061
2.59299
2.58766
2.57923
2.57226
2.56301
2.55433
2.54373
2.5334
2.5207
2.50686
2.49215
2.47453
2.45534
2.43205
2.40818
2.3838
1
1
1
1
1
1
1
1.00002
1.00004
1.00022
1.00035
1.00238
1.00093
1.01471
1.02785
1.11084
1.26292
1.72965
2.52727
2.66702
2.65958
2.63952
2.61976
2.61278
2.61237
2.61225
2.61195
2.61115
2.6087
2.60669
2.60306
2.60092
2.59644
2.59342
2.58734
2.5822
2.57465
2.56685
2.55774
2.54762
2.53607
2.52404
2.51071
2.4962
2.48112
2.46453
2.44739
2.42919
2.40976
2.39044
1
1
1
1
1
1
1
1.00002
1.00002
1.00016
1.00027
1.00132
1.00149
1.01014
1.01418
1.08628
1.20993
1.66253
2.45943
2.63323
2.66509
2.6497
2.6334
2.6227
2.61899
2.61609
2.61266
2.61028
2.60532
2.60187
2.59542
2.59202
2.58592
2.58188
2.57585
2.57118
2.56455
2.55845
2.55041
2.54241
2.53216
2.52135
2.509
2.49537
2.48089
2.46508
2.44885
2.43167
2.41378
2.39725
1
1
1
1
1
1
1.00001
1
1.00006
1.0001
1.00053
1.00074
1.00493
1.00161
1.02741
1.06291
1.21441
1.50928
2.13208
2.56933
2.67187
2.65429
2.6394
2.62762
2.62281
2.62121
2.6177
2.61458
2.60838
2.60312
2.59625
2.58998
2.58316
2.57679
2.56939
2.56323
2.55578
2.54904
2.54119
2.53344
2.52486
2.51512
2.50521
2.49342
2.48132
2.46727
2.45326
2.43831
2.42242
2.40783
1
1
1
1
1
1
1.00001
1
1.00005
1.00007
1.0004
1.00052
1.00316
1.00165
1.01897
1.04825
1.14244
1.3548
1.7798
2.46659
2.67137
2.64635
2.63338
2.61497
2.60799
2.60769
2.60692
2.60475
2.60168
2.59761
2.5937
2.58804
2.58164
2.5753
2.56779
2.56072
2.55307
2.54528
2.53723
2.52871
2.52002
2.51054
2.5007
2.49018
2.47908
2.46781
2.45562
2.44268
2.42927
2.41651
1
1
1
1
1
1
1
1.00001
1.00001
1.00012
1.00018
1.00102
1.00132
1.00836
1.00404
1.04776
1.1099
1.35095
1.94086
2.37924
2.65543
2.62837
2.62456
2.61228
2.6066
2.60444
2.60307
2.59991
2.5973
2.59271
2.58875
2.58422
2.57875
2.57336
2.56684
2.56003
2.55309
2.54527
2.53771
2.52911
2.52076
2.51131
2.50187
2.49141
2.48118
2.47025
2.45918
2.44753
2.43564
2.42437
1
1
1
1
1
1
1
1
1.00003
1.00002
1.00019
1.0003
1.0015
1.0017
1.01122
1.01519
1.09413
1.22537
1.70225
2.48335
2.63958
2.64107
2.62614
2.60902
2.60152
2.59955
2.59845
2.59603
2.59288
2.58905
2.58433
2.5797
2.57419
2.56846
2.56296
2.55632
2.55039
2.54321
2.53628
2.52849
2.52054
2.51203
2.50306
2.49409
2.48463
2.47463
2.46441
2.45376
2.44288
2.43271
1
1
1
1
1
1
1
1.00001
1.00001
1.00012
1.0001
1.00118
1.00198
1.01036
1.00969
1.03128
1.06806
1.23357
1.56601
2.18734
2.59638
2.67024
2.65041
2.63005
2.61553
2.60849
2.60486
2.60066
2.59584
2.59096
2.5854
2.58017
2.57471
2.56857
2.56288
2.55619
2.54999
2.54317
2.53629
2.52916
2.52164
2.51398
2.5061
2.49773
2.48912
2.48014
2.47088
2.46138
2.45152
2.44242
1
1
1
1
1
1
1
1.00001
1.00001
1.00005
1.00007
1.00039
1.00055
1.00414
1.00211
1.02278
1.05392
1.17058
1.418
1.93362
2.49301
2.66598
2.64068
2.62619
2.60759
2.60105
2.59776
2.59537
2.59103
2.58653
2.58157
2.5763
2.57128
2.5654
2.55987
2.55384
2.54776
2.5414
2.53481
2.52798
2.52098
2.51376
2.50645
2.49875
2.49093
2.48286
2.47459
2.4662
2.45748
2.44951
1
1
1
1
1
1
1
1
1.00001
1.00001
1.00012
1.00017
1.00101
1.00127
1.00952
1.00314
1.05377
1.1178
1.3889
1.99003
2.43587
2.66234
2.63035
2.61707
2.60177
2.59783
2.59615
2.59398
2.5904
2.58613
2.58196
2.57703
2.57253
2.56696
2.56135
2.55516
2.54872
2.54223
2.53543
2.5287
2.52184
2.5148
2.50757
2.50032
2.49278
2.48532
2.47749
2.4699
2.46186
2.45479
1
1
1
1
1
1
1
1
1.00001
1.00001
1.00011
1.00016
1.00101
1.00121
1.00875
1.00241
1.0459
1.10432
1.33175
1.8957
2.37937
2.64673
2.62905
2.61804
2.59665
2.5883
2.58684
2.58617
2.58473
2.58279
2.58051
2.57724
2.57384
2.56992
2.56558
2.56075
2.55522
2.5493
2.54285
2.53598
2.52855
2.52103
2.51328
2.50554
2.49758
2.48997
2.48213
2.47454
2.46671
2.45973
1
1
1
1
1
1
1
1
1.00001
1.00003
1.00003
1.00028
1.00044
1.0025
1.0016
1.01238
1.00799
1.08793
1.21542
1.69099
2.46385
2.63765
2.64712
2.63154
2.60743
2.59487
2.58924
2.58522
2.58144
2.57708
2.57356
2.57044
2.56758
2.56457
2.5612
2.55786
2.5541
2.54978
2.54508
2.53989
2.53433
2.52823
2.5216
2.51475
2.50753
2.50009
2.4925
2.4848
2.47709
2.4699
1
1
1
1
1
1
1
1
1
1.00003
1.00002
1.00022
1.00036
1.00193
1.00219
1.01474
1.00472
1.07776
1.17798
1.61488
2.3812
2.60671
2.67281
2.65577
2.63542
2.61902
2.61058
2.60391
2.59768
2.59107
2.58448
2.57812
2.57203
2.56641
2.56138
2.55679
2.55229
2.54813
2.54373
2.53914
2.53417
2.52889
2.52321
2.51736
2.51121
2.50499
2.49853
2.49205
2.48534
2.47921
1
1
1
1
1
1
1
1
1.00001
1.00001
1.00009
1.00008
1.00079
1.00126
1.00711
1.006
1.02287
1.047
1.18163
1.43134
2.00175
2.52997
2.67924
2.6539
2.63528
2.61569
2.60736
2.60342
2.59934
2.59435
2.58892
2.58315
2.57712
2.57092
2.56494
2.55956
2.55441
2.54957
2.54476
2.53974
2.53467
2.5294
2.52397
2.51829
2.51251
2.50664
2.50074
2.49479
2.48879
2.48329
1
1
1
1
1
1
1
1
1.00001
1.00001
1.00006
1.00005
1.00055
1.00088
1.00474
1.00437
1.01633
1.03138
1.134
1.32497
1.79944
2.54378
2.69408
2.65845
2.63305
2.60824
2.59945
2.5976
2.59591
2.59301
2.58984
2.5858
2.58115
2.57687
2.57188
2.5665
2.56076
2.55495
2.54925
2.54333
2.5377
2.53194
2.52628
2.52052
2.51477
2.50893
2.50312
2.49725
2.49143
2.48604
1
1
1
1
1
1
1
1
1
1.00002
1.00002
1.00014
1.00019
1.00109
1.00136
1.00894
1.00258
1.04972
1.11045
1.3633
1.95553
2.42
2.67797
2.64576
2.63508
2.6145
2.60779
2.60689
2.60565
2.60265
2.59868
2.59499
2.59174
2.5886
2.58531
2.58155
2.57732
2.57222
2.5667
2.56042
2.55363
2.54652
2.53934
2.53205
2.52489
2.51765
2.51069
2.50396
2.49749
2.49163
1
1
1
1
1
1
1
1
1
1.00001
1.00001
1.00011
1.00015
1.00099
1.00116
1.0077
1.00206
1.04268
1.09694
1.31365
1.81994
2.35033
2.64626
2.64502
2.6295
2.60959
2.60177
2.60039
2.59951
2.59733
2.59384
2.59067
2.58795
2.58514
2.58248
2.5798
2.57685
2.57344
2.56981
2.56576
2.56139
2.55643
2.55106
2.54539
2.53938
2.53328
2.52687
2.5203
2.5136
2.50732
1
1
1
1
1
1
1
1
1
1.00002
1.00002
1.00012
1.00017
1.00094
1.00112
1.00717
1.00212
1.03882
1.08465
1.28046
1.70993
2.27031
2.61825
2.64647
2.63086
2.61032
2.59932
2.59543
2.59315
2.5906
2.58734
2.58363
2.58018
2.57663
2.57342
2.57015
2.56732
2.5646
2.56182
2.55897
2.55598
2.55263
2.5488
2.54456
2.53998
2.53506
2.53002
2.5246
2.51913
2.51383
1
1
1
1
1
1
1
1
1
1
1.00003
1.00003
1.00023
1.00038
1.00203
1.0022
1.01551
1.00497
1.08233
1.19069
1.63914
2.39426
2.61389
2.66644
2.64656
2.62447
2.60885
2.60226
2.59852
2.5949
2.59082
2.58617
2.58201
2.57807
2.5745
2.57101
2.56733
2.56401
2.56049
2.55711
2.55383
2.55038
2.54714
2.54357
2.53991
2.53602
2.53186
2.52775
2.52328
2.51942
1
1
1
1
1
1
1
1
1
1
1.00002
1.00002
1.00021
1.00025
1.00174
1.00198
1.01397
1.00335
1.07858
1.16581
1.58569
2.31416
2.58437
2.67979
2.65952
2.64056
2.62608
2.62078
2.61822
2.6151
2.61123
2.60623
2.6013
2.59679
2.59234
2.58848
2.58418
2.57995
2.5755
2.57088
2.56632
2.5615
2.55716
2.55265
2.54861
2.54481
2.54105
2.5377
2.53376
2.53052
1
1
1
1
1
1
1
1
1
1
1.00002
1.00002
1.00014
1.00016
1.00113
1.00152
1.01179
1.00701
1.06963
1.15149
1.53699
2.25757
2.55912
2.67645
2.65744
2.63454
2.62038
2.61512
2.61336
2.61111
2.60843
2.60527
2.60132
2.5983
2.59536
2.59278
2.58996
2.58621
2.58181
2.57647
2.57074
2.56464
2.55894
2.55335
2.54838
2.54375
2.53923
2.53523
2.53065
2.52705
1
1
1
1
1
1
1
1
1
1.00001
1.00001
1.00006
1.00004
1.00058
1.00093
1.00525
1.00254
1.01918
1.03826
1.1417
1.35353
1.82095
2.50695
2.68892
2.66203
2.63704
2.61577
2.60851
2.60374
2.6017
2.597
2.59358
2.59015
2.58771
2.58541
2.58312
2.5812
2.5782
2.57513
2.571
2.56653
2.56149
2.55619
2.55074
2.54541
2.54013
2.535
2.53004
2.52496
2.52044
1
1
1
1
1
1
1
1
1
1
1
1.00003
1.00002
1.00025
1.00037
1.0023
1.00215
1.0157
1.02554
1.12148
1.30279
1.79563
2.5694
2.69788
2.663
2.64392
2.61972
2.61046
2.60732
2.60508
2.60181
2.5986
2.5951
2.59217
2.5898
2.58755
2.58584
2.58329
2.5804
2.57665
2.57227
2.5674
2.56232
2.55706
2.55172
2.54637
2.54099
2.53585
2.53062
2.52601
1
1
1
1
1
1
1
1
1
1
1
1.00003
1.00004
1.00025
1.00037
1.0021
1.00227
1.01509
1.01679
1.10998
1.27446
1.77405
2.5656
2.69283
2.65927
2.6488
2.62452
2.61499
2.61443
2.61355
2.61134
2.60775
2.60367
2.60035
2.59716
2.59467
2.59252
2.59011
2.58819
2.58526
2.58243
2.57896
2.57492
2.57103
2.56625
2.562
2.55709
2.55235
2.54758
2.54281
1
1
1
1
1
1
1
1
1
1
1
1.00003
1.00002
1.00029
1.00042
1.00263
1.002
1.01304
1.00825
1.09996
1.25343
1.75349
2.55606
2.6737
2.66934
2.64929
2.62578
2.61603
2.6149
2.61419
2.61275
2.61021
2.60681
2.60468
2.60167
2.59993
2.59773
2.59532
2.59342
2.58987
2.58757
2.58349
2.58031
2.57647
2.57232
2.56887
2.56426
2.56071
2.55632
2.55262
1
1
1
1
1
1
1
1
1
1
1.00001
1.00003
1.00003
1.00025
1.0004
1.00203
1.0024
1.01474
1.0074
1.09551
1.24176
1.72828
2.52736
2.66823
2.66898
2.65287
2.62969
2.62017
2.61897
2.61853
2.61749
2.6154
2.61238
2.61013
2.60658
2.60415
2.6007
2.59751
2.5945
2.59054
2.58777
2.58364
2.58048
2.57668
2.57304
2.56948
2.56562
2.5621
2.558
2.55473
1
1
1
1
1
1
1
1
1
1
1
1.00004
1.00003
1.00028
1.00043
1.00246
1.00247
1.0183
1.00393
1.09778
1.22576
1.70336
2.50316
2.65655
2.67082
2.65471
2.63208
2.6228
2.62211
2.6219
2.62108
2.61929
2.61656
2.61344
2.60976
2.60641
2.60254
2.59914
2.59525
2.59172
2.58803
2.58436
2.58107
2.5773
2.57409
2.57039
2.56687
2.56321
2.55962
2.55619
1
1
1
1
1
1
1
1
1
1
1
1.00003
1.00001
1.00025
1.00038
1.0022
1.00236
1.01756
1.00281
1.09407
1.21713
1.68307
2.47653
2.64385
2.67171
2.6556
2.63332
2.62333
2.62249
2.62238
2.6217
2.62018
2.61754
2.61438
2.61111
2.6073
2.60362
2.59984
2.59596
2.59257
2.5887
2.58553
2.5818
2.57868
2.57532
2.57214
2.5694
2.56633
2.56379
2.56131
1
1
1
1
1
1
1
1
1
1
1
1.00003
1.00002
1.00024
1.00037
1.00222
1.00225
1.01742
1.0025
1.09072
1.20342
1.66409
2.45105
2.63382
2.67406
2.65662
2.63567
2.62437
2.62267
2.6226
2.62212
2.62105
2.61947
2.61695
2.61345
2.60924
2.60485
2.60039
2.59648
2.59266
2.58938
2.58623
2.58359
2.58167
2.57982
2.5786
2.57626
2.57418
2.57066
2.56718
1
1
1
1
1
1
1
1
1
1
1
1.00003
1.00002
1.00023
1.00036
1.00208
1.00222
1.01594
1.00451
1.08455
1.19141
1.64764
2.42178
2.62619
2.67956
2.66095
2.64038
2.6264
2.62361
2.62383
2.62375
2.62332
2.62253
2.62134
2.61855
2.61456
2.60978
2.60501
2.601
2.59711
2.5945
2.59191
2.58996
2.58744
2.58457
2.58085
2.57629
2.57131
2.56513
2.55962
1
1
1
1
1
1
1
1
1
1
1.00001
1.00001
1.00009
1.00012
1.00076
1.0008
1.00539
1.00181
1.03053
1.07121
1.23861
1.59317
2.17432
2.59223
2.67575
2.65462
2.63522
2.61891
2.61188
2.60921
2.60734
2.60513
2.60303
2.60121
2.5992
2.59654
2.59309
2.58918
2.58537
2.58219
2.57996
2.57848
2.57757
2.57684
2.57617
2.57544
2.57463
2.57312
2.56961
2.56549
1
1
1
1
1
1
1
1
1
1
1.00001
1.00002
1.0001
1.00005
1.00089
1.00136
1.00825
1.00274
1.0283
1.06151
1.21651
1.53182
2.10892
2.56793
2.67816
2.65161
2.6316
2.61223
2.60489
2.60184
2.59827
2.59378
2.58912
2.5848
2.58115
2.57837
2.57647
2.57536
2.5749
2.57496
2.57559
2.57694
2.57805
2.57863
2.57876
2.57872
2.5785
2.57767
2.57549
2.57196
1
1
1
1
1
1
1
1
1
1
1
1.00002
1.00002
1.00021
1.00029
1.00201
1.00216
1.01499
1.00366
1.08072
1.17478
1.62254
2.37579
2.61673
2.6872
2.66753
2.6454
2.63146
2.62512
2.62201
2.61934
2.61678
2.61511
2.6145
2.61443
2.6144
2.61429
2.61401
2.6133
2.61146
2.6074
2.60226
2.59627
2.59014
2.5839
2.57783
2.57214
2.56645
2.56126
2.55636
1
1
1
1
1
1
1
1
1
1
1.00001
1.00002
1.0001
1.00004
1.00087
1.00134
1.00809
1.00268
1.02763
1.05973
1.2109
1.51656
2.09208
2.56684
2.68402
2.6575
2.63546
2.61515
2.60905
2.60784
2.60536
2.60078
2.59514
2.58954
2.58497
2.58208
2.58083
2.58084
2.5823
2.58648
2.59097
2.59388
2.59513
2.59529
2.59464
2.59213
2.58636
2.57971
2.57361
2.56772
2.1441
2.66763
2.71683
3.05885
3.09774
3.0369
3.02387
3.01417
3.01346
3.01347
3.01301
3.01191
3.01079
3.01036
3.00863
3.00641
3.00471
3.00302
3.00061
2.99805
2.99605
2.99446
2.99142
2.98886
2.98313
2.98014
2.97412
2.96797
2.9595
2.95196
2.9434
2.93446
2.9258
2.91703
2.90788
2.89894
2.89011
2.8811
2.87137
2.86112
2.8517
2.84207
2.83222
2.82288
2.81311
2.80363
2.79405
2.78468
2.7753
2.76603
2.75657
2.74767
2.73844
2.72979
2.72073
2.7123
2.70373
2.69553
2.68746
2.67975
2.67206
2.665
2.65797
2.65162
2.64548
2.63993
2.63477
2.63013
2.62621
2.6227
2.62014
2.61796
2.61672
2.61598
2.61607
2.61638
2.61702
2.61791
2.61917
2.62182
2.62498
2.62841
2.63143
2.6351
2.63771
2.64131
2.64341
2.64618
2.64771
2.6496
2.65033
2.65127
2.65135
2.65152
2.6515
2.65139
2.65107
2.65101
2.65073
2.64922
2.18225
2.46569
2.5504
2.74383
2.87202
2.98017
3.04306
3.07953
3.09058
3.11795
3.15789
3.24165
3.24744
3.23445
3.20314
3.15032
3.10415
3.0668
3.03639
3.00973
2.98598
2.96517
2.94491
2.92673
2.90849
2.89065
2.87277
2.8547
2.83688
2.81955
2.80215
2.78493
2.76771
2.75034
2.73289
2.71635
2.69958
2.68336
2.667
2.65141
2.63681
2.62309
2.60999
2.59748
2.58534
2.57381
2.56224
2.55143
2.54066
2.5302
2.52041
2.51042
2.50139
2.49204
2.48385
2.47504
2.46753
2.4594
2.45214
2.44483
2.43772
2.43098
2.42439
2.41823
2.41218
2.40662
2.4013
2.39629
2.3918
2.38771
2.38407
2.381
2.37843
2.37645
2.37519
2.37418
2.37367
2.3731
2.37351
2.37462
2.37666
2.37868
2.38113
2.3833
2.38575
2.38781
2.38975
2.39147
2.39256
2.39352
2.39368
2.39357
2.39317
2.39223
2.39154
2.38998
2.38895
2.38683
2.38568
2.38124
2.25337
2.31559
2.40463
2.46074
2.50691
2.55405
2.60956
2.64928
2.67873
2.70066
2.7167
2.72108
2.71812
2.7096
2.69819
2.68444
2.67002
2.65872
2.64824
2.63754
2.62706
2.61622
2.60601
2.59584
2.58611
2.57682
2.56843
2.56149
2.55557
2.55041
2.54544
2.54042
2.5353
2.52973
2.52374
2.51752
2.51038
2.50208
2.49199
2.48169
2.47187
2.46333
2.45516
2.44748
2.43924
2.431
2.42219
2.41302
2.40384
2.39385
2.38449
2.37429
2.36468
2.35494
2.34544
2.3362
2.32727
2.31862
2.31048
2.30251
2.29525
2.28815
2.28184
2.27579
2.27057
2.26592
2.26184
2.25854
2.25582
2.25359
2.25206
2.25088
2.25054
2.25078
2.2515
2.25255
2.25387
2.25536
2.25714
2.25986
2.26303
2.266
2.26899
2.2719
2.27431
2.27696
2.27871
2.2811
2.28248
2.28433
2.28527
2.28677
2.28733
2.28797
2.28868
2.28913
2.28921
2.28925
2.28933
2.28749
2.27643
2.27716
2.30707
2.33837
2.36263
2.38126
2.40021
2.41918
2.4338
2.44471
2.45142
2.4536
2.45271
2.45078
2.44829
2.44694
2.44401
2.44169
2.43828
2.43331
2.42879
2.42237
2.41582
2.40967
2.40438
2.3993
2.39499
2.39101
2.38701
2.38366
2.38057
2.37783
2.3757
2.37371
2.37155
2.36989
2.36856
2.36734
2.36694
2.36711
2.36749
2.36751
2.36724
2.36624
2.36384
2.35998
2.35503
2.34903
2.34248
2.33516
2.32747
2.31932
2.31096
2.30222
2.29371
2.28476
2.27619
2.26732
2.25872
2.25014
2.24168
2.23369
2.22562
2.21828
2.21087
2.20416
2.19781
2.19172
2.18659
2.18162
2.1775
2.17415
2.17143
2.16942
2.16846
2.16758
2.16699
2.16684
2.16738
2.16846
2.17025
2.17241
2.17503
2.17807
2.18077
2.18408
2.18691
2.18972
2.19238
2.19456
2.19701
2.19819
2.20025
2.20133
2.20337
2.20441
2.20634
2.20744
2.20964
2.21063
2.28847
2.26978
2.27055
2.27389
2.28103
2.28762
2.29311
2.29932
2.30532
2.31032
2.3131
2.31279
2.31177
2.3111
2.31141
2.31214
2.31318
2.31373
2.31404
2.31415
2.31394
2.31359
2.31319
2.31277
2.31258
2.31223
2.31255
2.31225
2.3118
2.31161
2.31128
2.31074
2.30993
2.30907
2.30825
2.3076
2.30692
2.30562
2.30304
2.29844
2.2931
2.28729
2.28162
2.27596
2.27036
2.26452
2.25884
2.25271
2.24702
2.24082
2.23491
2.22877
2.22252
2.21633
2.20996
2.20379
2.19757
2.19167
2.18591
2.18038
2.1751
2.16997
2.16512
2.16027
2.15611
2.1515
2.14806
2.14399
2.14102
2.13772
2.13532
2.13273
2.13128
2.1296
2.12908
2.12802
2.12766
2.12685
2.12718
2.12768
2.12857
2.12995
2.13097
2.13255
2.13348
2.13447
2.13499
2.13524
2.13516
2.13491
2.1343
2.13381
2.13278
2.13192
2.13106
2.13036
2.12966
2.12892
2.12886
2.12723
2.30533
2.27808
2.26376
2.25037
2.24283
2.23688
2.23424
2.23234
2.2325
2.2328
2.23391
2.23388
2.23357
2.23241
2.23202
2.23247
2.23338
2.23474
2.23562
2.23686
2.23757
2.23886
2.24033
2.24214
2.24425
2.24736
2.24925
2.2532
2.25475
2.25809
2.25875
2.26004
2.26018
2.2599
2.25931
2.25831
2.25747
2.25573
2.25363
2.2504
2.24712
2.24314
2.2392
2.23454
2.22999
2.2249
2.21983
2.21452
2.20914
2.20371
2.19816
2.19266
2.18691
2.18118
2.17519
2.16909
2.16286
2.15654
2.15025
2.144
2.13796
2.1321
2.12656
2.12126
2.11646
2.11177
2.1077
2.10381
2.10045
2.09749
2.09495
2.09294
2.09142
2.0905
2.09008
2.08972
2.08963
2.08974
2.09052
2.09156
2.09297
2.09465
2.09637
2.09826
2.09985
2.10152
2.1027
2.10384
2.10445
2.10491
2.10487
2.10474
2.1042
2.10363
2.1031
2.1023
2.10176
2.1009
2.10076
2.09875
2.33466
2.30086
2.27399
2.25484
2.23614
2.22142
2.20894
2.20186
2.19492
2.19293
2.1908
2.19034
2.18984
2.18992
2.18921
2.18907
2.18991
2.1914
2.19372
2.19491
2.19705
2.19885
2.20183
2.20444
2.20857
2.21176
2.21653
2.22013
2.22406
2.22681
2.22879
2.23023
2.2299
2.2291
2.22782
2.22617
2.22433
2.2218
2.21866
2.21455
2.21027
2.20563
2.20107
2.19656
2.19207
2.18793
2.18364
2.17973
2.17563
2.17165
2.16752
2.16322
2.15874
2.15399
2.14905
2.14386
2.13867
2.13312
2.12796
2.12231
2.11727
2.11185
2.10703
2.10208
2.09766
2.09338
2.08957
2.08611
2.08298
2.08037
2.07812
2.07635
2.07512
2.07441
2.07421
2.07401
2.07406
2.0743
2.07522
2.07639
2.07781
2.07941
2.08113
2.08291
2.08462
2.08614
2.08749
2.08851
2.08922
2.0896
2.08952
2.08929
2.08867
2.08753
2.08688
2.08552
2.08474
2.08312
2.08264
2.07957
2.35012
2.32347
2.29618
2.26929
2.24587
2.22623
2.20964
2.19581
2.18529
2.17724
2.17341
2.17001
2.16886
2.16884
2.16828
2.16786
2.1669
2.16765
2.16938
2.17125
2.17401
2.17684
2.18019
2.18426
2.18837
2.19342
2.19799
2.20273
2.20662
2.20945
2.21187
2.21223
2.21209
2.21085
2.20905
2.20673
2.20418
2.20106
2.19731
2.19295
2.1884
2.18392
2.17942
2.17536
2.17139
2.16781
2.16434
2.16091
2.15745
2.15373
2.14978
2.14539
2.14077
2.13558
2.13038
2.1246
2.11899
2.11299
2.10724
2.10128
2.09567
2.09003
2.08481
2.07982
2.0752
2.07101
2.06725
2.0639
2.06109
2.05869
2.05677
2.05542
2.05444
2.05419
2.05425
2.0544
2.05478
2.05532
2.05665
2.05809
2.05978
2.06153
2.06345
2.06528
2.06715
2.06882
2.07031
2.07154
2.07241
2.07306
2.07327
2.07324
2.07289
2.07217
2.07173
2.07077
2.0702
2.06902
2.06875
2.06607
2.36164
2.33769
2.31317
2.28688
2.26234
2.23825
2.2175
2.20076
2.18748
2.17648
2.16849
2.16289
2.15899
2.15758
2.15625
2.15553
2.15531
2.15458
2.15534
2.15723
2.16057
2.16446
2.1688
2.17365
2.17846
2.1839
2.18875
2.19354
2.19741
2.20029
2.20272
2.20322
2.20286
2.20201
2.19995
2.19759
2.19477
2.19161
2.18761
2.18327
2.17852
2.17386
2.16923
2.16481
2.16063
2.15652
2.1526
2.14846
2.14436
2.13961
2.13488
2.1293
2.12383
2.11777
2.11183
2.10567
2.09962
2.09352
2.08761
2.08173
2.07613
2.07071
2.06563
2.06088
2.05657
2.05274
2.0493
2.04651
2.04401
2.04219
2.0407
2.03976
2.03931
2.03942
2.03977
2.04012
2.04089
2.04163
2.04322
2.04477
2.04658
2.04833
2.0503
2.05209
2.05404
2.05574
2.05738
2.05885
2.05992
2.06099
2.06142
2.06198
2.06183
2.06154
2.06133
2.06081
2.06042
2.05957
2.05941
2.05693
2.37644
2.35339
2.32935
2.30481
2.27952
2.25586
2.23315
2.21251
2.1945
2.18041
2.1693
2.16151
2.15492
2.15133
2.14846
2.14711
2.14623
2.14622
2.14655
2.1478
2.15067
2.15526
2.16078
2.1661
2.17186
2.17714
2.18181
2.18577
2.18921
2.19139
2.1932
2.1937
2.19343
2.19261
2.19124
2.18945
2.18718
2.18446
2.18103
2.17708
2.17263
2.16793
2.1631
2.1581
2.15319
2.14809
2.14315
2.13774
2.13248
2.12658
2.12097
2.11493
2.10914
2.10324
2.09747
2.09174
2.08614
2.08058
2.07523
2.06995
2.06495
2.06007
2.05558
2.05134
2.04747
2.04407
2.041
2.03845
2.0363
2.03457
2.03341
2.03251
2.03234
2.03249
2.03294
2.03336
2.0343
2.03509
2.03674
2.03824
2.03997
2.04162
2.0434
2.04507
2.04676
2.04833
2.04982
2.05116
2.05225
2.0534
2.05383
2.05472
2.05467