/*--------------------------------*- C++ -*----------------------------------*\
| =========                 |                                                 |
| \\      /  F ield         | OpenFOAM: The Open Source CFD Toolbox           |
|  \\    /   O peration     | Version:  2112                                  |
|   \\  /    A nd           | Website:  www.openfoam.com                      |
|    \\/     M anipulation  |                                                 |
\*---------------------------------------------------------------------------*/
FoamFile
{
    version     2.0;
    format      ascii;
    arch        "LSB;label=32;scalar=64";
    class       volVectorField;
    location    "9.4995";
    object      U;
}
// * * * * * * * * * * * * * * * * * * * * * * * * * * * * * * * * * * * * * //

dimensions      [0 1 -1 0 0 0 0];

internalField   nonuniform List<vector> 
7000
(
(3 -5.12772e-07 0.000805021)
(3 -1.46133e-06 0.000764327)
(3 -1.6677e-06 0.000723858)
(3 -1.83975e-06 0.000683646)
(2.99998 -2.61891e-06 0.0006439)
(2.9999 -3.44116e-06 0.000605297)
(2.99974 -1.60994e-06 0.0005679)
(2.99927 1.16808e-06 0.000536596)
(2.9984 2.48947e-05 0.000509372)
(2.99569 4.0811e-05 0.000525059)
(2.99223 0.000237753 0.00051863)
(2.96754 3.63055e-06 0.00114737)
(2.93474 0.000113602 0.00141163)
(2.77796 -0.00157736 0.00574534)
(2.34302 -0.0100759 0.0108481)
(1.49626 -0.0226376 0.0230327)
(0.66611 -0.0163009 0.0102701)
(0.626927 -0.0129596 0.0010034)
(0.691406 -0.00886024 -0.000436707)
(0.732594 -0.00661477 -0.000263537)
(0.732803 -0.00579779 0.000152203)
(0.714197 -0.0055159 0.000279425)
(0.684063 -0.00526426 0.000305097)
(0.655749 -0.00479126 0.000155382)
(0.634595 -0.00409905 -6.02024e-05)
(0.616413 -0.00339326 -0.000222802)
(0.598011 -0.00274741 -0.000348177)
(0.578728 -0.00213606 -0.000468497)
(0.558965 -0.0015174 -0.000594912)
(0.539033 -0.000875945 -0.000726528)
(0.518861 -0.000224895 -0.000860851)
(0.498352 0.000427543 -0.000995729)
(0.477559 0.00108598 -0.00113129)
(0.456401 0.0017395 -0.00126968)
(0.434771 0.00238141 -0.00140962)
(0.412812 0.00303696 -0.0015488)
(0.390534 0.00371595 -0.00169062)
(0.367682 0.00440616 -0.00183593)
(0.344275 0.00512889 -0.00197978)
(0.32054 0.00593461 -0.00212385)
(0.296153 0.00679438 -0.00227503)
(0.270685 0.00773165 -0.00242918)
(0.244403 0.00881237 -0.00257837)
(0.217707 0.0101485 -0.0027269)
(0.189653 0.0117005 -0.00289272)
(0.158932 0.0135244 -0.0030698)
(0.125883 0.0156524 -0.0032386)
(0.091515 0.0178131 -0.00339727)
(0.0543004 0.0195771 -0.0035501)
(0.0231118 0.0212693 -0.00369923)
(3 -4.82912e-07 0.00077721)
(3 -1.55387e-06 0.000737871)
(3 -1.45652e-06 0.000698753)
(3 -1.24e-06 0.000659895)
(2.99998 -2.36975e-06 0.000621481)
(2.9999 -2.8668e-06 0.00058414)
(2.99975 2.35125e-06 0.000547927)
(2.9993 1.60729e-05 0.000517353)
(2.99847 7.46835e-05 0.000490497)
(2.99588 0.000163507 0.000503155)
(2.99267 0.000566612 0.000492876)
(2.96844 0.000676824 0.00109244)
(2.93761 0.0017473 0.00130686)
(2.78375 0.0021756 0.00546493)
(2.35952 -0.00165306 0.0102608)
(1.52519 -0.00406676 0.022166)
(0.67699 0.0183747 0.0101443)
(0.619091 0.0196962 0.00118312)
(0.682104 0.0220646 -0.00039309)
(0.723524 0.02275 -0.000249801)
(0.724105 0.0222679 0.000143002)
(0.705753 0.0213977 0.000264366)
(0.675642 0.0207751 0.000290105)
(0.647015 0.0206079 0.000149746)
(0.62546 0.0207452 -5.61762e-05)
(0.606925 0.0209188 -0.000212964)
(0.588232 0.0210616 -0.000334458)
(0.568706 0.0212192 -0.000450862)
(0.548746 0.0214582 -0.0005728)
(0.528659 0.0217975 -0.000699586)
(0.50837 0.022195 -0.000828772)
(0.487789 0.0226403 -0.000958164)
(0.466937 0.0231546 -0.00108829)
(0.445691 0.0237078 -0.00122145)
(0.423943 0.0242796 -0.00135597)
(0.401841 0.024919 -0.0014898)
(0.379363 0.0256308 -0.00162668)
(0.356261 0.02638 -0.00176663)
(0.332614 0.0272068 -0.00190452)
(0.308619 0.0281956 -0.00204326)
(0.283914 0.0292783 -0.00218922)
(0.258154 0.0304861 -0.00233629)
(0.23171 0.0318876 -0.00247827)
(0.204933 0.0336719 -0.00262135)
(0.17688 0.0357022 -0.00278214)
(0.146589 0.0380075 -0.00294934)
(0.114662 0.0405802 -0.00310661)
(0.0823392 0.0430382 -0.00325477)
(0.0480213 0.0449845 -0.00339695)
(0.0199658 0.0466577 -0.0035346)
(3 1.94161e-08 0.000748287)
(3 -2.30657e-07 0.000710359)
(3 1.56577e-07 0.000672652)
(3 6.60967e-07 0.000635206)
(2.99998 -5.97925e-07 0.000598185)
(2.99991 -2.00441e-06 0.000562175)
(2.99975 1.03655e-06 0.000527221)
(2.99932 1.0453e-05 0.000497525)
(2.99852 5.49469e-05 0.000471265)
(2.99602 0.00011461 0.000481929)
(2.99294 0.000408698 0.000470398)
(2.96905 0.000201027 0.00104089)
(2.93919 0.00134234 0.00123088)
(2.78675 -0.00030649 0.00522065)
(2.3676 -0.00525125 0.00977812)
(1.53759 -0.0135052 0.0213638)
(0.674364 0.00266872 0.00989279)
(0.606462 0.00458214 0.001239)
(0.670771 0.00950942 -0.000378173)
(0.713264 0.013145 -0.000243057)
(0.714214 0.0148391 0.000134773)
(0.695958 0.0156462 0.000251224)
(0.665828 0.0160693 0.000275076)
(0.637074 0.0168937 0.000141389)
(0.615362 0.0181408 -5.49441e-05)
(0.596682 0.0194861 -0.000205108)
(0.577864 0.0207942 -0.000322015)
(0.55825 0.0220983 -0.000433958)
(0.538244 0.0234881 -0.000551134)
(0.518115 0.0249978 -0.000673002)
(0.497796 0.026584 -0.000796631)
(0.477237 0.0282411 -0.000920012)
(0.456422 0.0299921 -0.00104473)
(0.435183 0.0317938 -0.00117247)
(0.413453 0.0336208 -0.00130066)
(0.391388 0.0355326 -0.00142872)
(0.368907 0.0375335 -0.00156041)
(0.345794 0.039585 -0.00169403)
(0.322199 0.041752 -0.00182544)
(0.298252 0.0441301 -0.00195878)
(0.273557 0.0466724 -0.00209872)
(0.247865 0.0494225 -0.00223833)
(0.221667 0.052462 -0.00237305)
(0.195205 0.0560065 -0.00251084)
(0.167469 0.0598842 -0.00266572)
(0.137833 0.064001 -0.00282413)
(0.10707 0.0682075 -0.00297148)
(0.0764322 0.0719489 -0.00311045)
(0.0442058 0.0746851 -0.00324381)
(0.0180685 0.0766235 -0.00337394)
(3 -5.36615e-10 0.000718202)
(3 -8.68667e-08 0.000681749)
(3 3.90857e-07 0.000645512)
(3 9.68666e-07 0.000609537)
(2.99998 -2.06988e-07 0.000573969)
(2.99991 -1.7874e-06 0.000539347)
(2.99976 1.50817e-06 0.000505707)
(2.99934 1.08775e-05 0.000476959)
(2.99857 5.40047e-05 0.000451371)
(2.99615 0.000110776 0.000460116)
(2.99319 0.000393387 0.00044789)
(2.96986 0.000140501 0.000982711)
(2.94102 0.00168018 0.00115298)
(2.79082 -3.52018e-05 0.00494161)
(2.3805 -0.00247943 0.00922332)
(1.56219 -0.0065569 0.020405)
(0.691093 0.0222602 0.00964367)
(0.607412 0.0248433 0.00135353)
(0.6699 0.0297141 -0.00034608)
(0.71169 0.033445 -0.000227359)
(0.712107 0.0349744 0.000132518)
(0.693435 0.0355203 0.000242403)
(0.662994 0.0354577 0.000263658)
(0.633997 0.0357973 0.00013458)
(0.611932 0.0366622 -5.22575e-05)
(0.592821 0.0377018 -0.000195285)
(0.573564 0.0387466 -0.000307299)
(0.553548 0.0398308 -0.000414763)
(0.533171 0.0410512 -0.000527182)
(0.512674 0.0424497 -0.000644017)
(0.491995 0.0440027 -0.000762201)
(0.471111 0.0457074 -0.000879941)
(0.449988 0.0475741 -0.00099912)
(0.428434 0.0495606 -0.00112103)
(0.406419 0.0516434 -0.00124309)
(0.384095 0.0538671 -0.00136547)
(0.361331 0.0562369 -0.00149148)
(0.337946 0.0587285 -0.0016186)
(0.314149 0.0614117 -0.00174365)
(0.290021 0.0643824 -0.00187146)
(0.265165 0.0676345 -0.0020049)
(0.239443 0.0712226 -0.00213662)
(0.213445 0.0752428 -0.00226422)
(0.187298 0.0798746 -0.00239726)
(0.159955 0.084965 -0.00254521)
(0.131067 0.0903165 -0.00269334)
(0.101437 0.0956074 -0.00283079)
(0.0722322 0.100144 -0.0029605)
(0.0416518 0.103283 -0.00308657)
(0.0168656 0.10521 -0.00320746)
(3 5.23334e-09 0.000686908)
(3 1.61779e-07 0.000651992)
(3 8.66007e-07 0.000617289)
(3 1.6684e-06 0.000582847)
(2.99998 8.1688e-07 0.000548793)
(2.99991 -3.82862e-07 0.000515623)
(2.99977 3.39185e-06 0.000483361)
(2.99936 1.33436e-05 0.000455633)
(2.99862 5.7453e-05 0.0004308)
(2.99628 0.000116603 0.000437781)
(2.99343 0.000402491 0.000425119)
(2.97067 0.000168545 0.000923845)
(2.94282 0.00177639 0.00107641)
(2.79491 0.000115446 0.00465759)
(2.39361 -0.00166392 0.00866564)
(1.58629 -0.00477286 0.0194348)
(0.703524 0.025944 0.00939484)
(0.603015 0.026519 0.0014608)
(0.665629 0.031092 -0.000325704)
(0.708084 0.0356659 -0.000219559)
(0.70865 0.0382454 0.000126713)
(0.690012 0.0397396 0.000231499)
(0.659674 0.0404331 0.000250084)
(0.630884 0.0414621 0.000125517)
(0.608937 0.043067 -5.18717e-05)
(0.589819 0.0448962 -0.000187334)
(0.570497 0.0467513 -0.000293914)
(0.550415 0.0486573 -0.000396518)
(0.529971 0.0507114 -0.00050387)
(0.509373 0.0529575 -0.00061526)
(0.488565 0.0553822 -0.000727671)
(0.467545 0.0579879 -0.000839695)
(0.446263 0.0607788 -0.000953198)
(0.424522 0.0637088 -0.00106879)
(0.40232 0.0667545 -0.0011841)
(0.379788 0.0699442 -0.00130026)
(0.356752 0.0732737 -0.00142029)
(0.333066 0.0767319 -0.001541)
(0.308986 0.0803888 -0.00165971)
(0.28456 0.0843346 -0.00178167)
(0.259411 0.0885795 -0.00190829)
(0.233506 0.0931907 -0.00203214)
(0.207511 0.0982722 -0.00215247)
(0.181467 0.103975 -0.00227986)
(0.154335 0.110164 -0.00242054)
(0.126005 0.116556 -0.00255952)
(0.0972763 0.122694 -0.00268796)
(0.0691895 0.12778 -0.00281009)
(0.0398389 0.131148 -0.00292699)
(0.0159808 0.132979 -0.00304262)
(3 -5.41849e-08 0.00065435)
(3 3.47353e-07 0.000621039)
(3 9.90831e-07 0.000587936)
(3 1.71471e-06 0.000555093)
(2.99998 1.02662e-06 0.000522617)
(2.99991 3.00087e-07 0.000490961)
(2.99977 5.17696e-06 0.00046014)
(2.99938 1.7182e-05 0.000433486)
(2.99867 6.63527e-05 0.00040946)
(2.99642 0.000135769 0.000414668)
(2.9937 0.000447791 0.00040154)
(2.97157 0.000273839 0.00086338)
(2.9448 0.00204201 0.000998034)
(2.79946 0.000659534 0.0043633)
(2.40839 0.00016647 0.00808563)
(1.61438 -0.000559217 0.0183998)
(0.720057 0.0363534 0.00912875)
(0.600713 0.0368968 0.00156738)
(0.662956 0.0418622 -0.000305658)
(0.70578 0.0471942 -0.000211922)
(0.706143 0.0504417 0.000122233)
(0.687182 0.0524394 0.000222773)
(0.656672 0.0533744 0.00023874)
(0.627974 0.0545336 0.000117839)
(0.606107 0.056269 -5.03835e-05)
(0.586977 0.0582652 -0.000178208)
(0.567614 0.0603266 -0.00027923)
(0.547517 0.0624773 -0.000376863)
(0.52708 0.0648143 -0.000479035)
(0.506483 0.0673883 -0.000584851)
(0.485668 0.0702017 -0.000691395)
(0.464646 0.073264 -0.000797622)
(0.443345 0.0765792 -0.00090538)
(0.421567 0.080106 -0.00101467)
(0.399338 0.083823 -0.00112324)
(0.376762 0.0877455 -0.0012329)
(0.353623 0.0918613 -0.00134655)
(0.329802 0.0961503 -0.00146072)
(0.305579 0.100668 -0.00157301)
(0.280955 0.105497 -0.00168861)
(0.255585 0.110654 -0.00180803)
(0.229529 0.116196 -0.00192456)
(0.203498 0.122218 -0.00203807)
(0.177474 0.128855 -0.00215916)
(0.150454 0.13598 -0.00229213)
(0.122522 0.143235 -0.00242223)
(0.0944352 0.150036 -0.00254182)
(0.0671322 0.155538 -0.00265489)
(0.0386587 0.159035 -0.00276574)
(0.0154375 0.160718 -0.00287097)
(3 -9.39181e-08 0.000620474)
(3 4.53338e-07 0.000588838)
(3 1.08367e-06 0.000557406)
(3 1.76594e-06 0.000526228)
(2.99998 1.34234e-06 0.000495397)
(2.99991 1.29494e-06 0.00046532)
(2.99978 7.7267e-06 0.000436005)
(2.99941 2.26562e-05 0.000410481)
(2.99873 7.89764e-05 0.000387314)
(2.99658 0.000162599 0.000390751)
(2.99399 0.000510066 0.00037716)
(2.97254 0.000409986 0.000801633)
(2.94693 0.00236525 0.000918524)
(2.80443 0.00129185 0.00406074)
(2.4246 0.00216848 0.00748805)
(1.64598 0.00382962 0.0172947)
(0.739131 0.0469279 0.0088551)
(0.598304 0.0460891 0.00167725)
(0.660371 0.0507224 -0.000286604)
(0.703831 0.0564119 -0.000205642)
(0.704049 0.0601545 0.000117092)
(0.68472 0.0626019 0.000213926)
(0.653988 0.063869 0.000227365)
(0.625413 0.0653228 0.000109826)
(0.603719 0.0674009 -4.95897e-05)
(0.584681 0.0698147 -0.000169786)
(0.565367 0.0723553 -0.000265014)
(0.545333 0.075033 -0.000357402)
(0.524971 0.0779357 -0.000454102)
(0.504437 0.0811117 -0.000554083)
(0.483675 0.0845686 -0.000654539)
(0.462699 0.0883183 -0.000754713)
(0.441422 0.0923626 -0.000856442)
(0.419655 0.0966702 -0.000959272)
(0.397449 0.101225 -0.00106111)
(0.374889 0.106027 -0.0011642)
(0.351727 0.111064 -0.00127085)
(0.327865 0.116304 -0.00137761)
(0.303592 0.121781 -0.00148349)
(0.278874 0.127565 -0.00159289)
(0.253387 0.133674 -0.00170456)
(0.227242 0.140146 -0.00181302)
(0.201169 0.147075 -0.00191933)
(0.17511 0.15459 -0.00203417)
(0.148121 0.162558 -0.00215903)
(0.120428 0.170551 -0.00227995)
(0.0927362 0.177891 -0.0023915)
(0.0659183 0.183693 -0.00249754)
(0.0379468 0.187294 -0.00259869)
(0.0150179 0.188838 -0.00270078)
(3 -5.80789e-08 0.000585223)
(3 4.40724e-07 0.000555336)
(3 1.00225e-06 0.000525647)
(3 1.57585e-06 0.000496205)
(2.99998 1.40514e-06 0.000467089)
(2.99992 2.11718e-06 0.000438659)
(2.99979 1.04462e-05 0.000410917)
(2.99944 2.90363e-05 0.000386579)
(2.9988 9.45122e-05 0.000364321)
(2.99676 0.000196329 0.000365964)
(2.99433 0.000589743 0.000351893)
(2.97362 0.00058036 0.000738414)
(2.94927 0.00276763 0.000837681)
(2.80996 0.00206187 0.00374942)
(2.44254 0.00453389 0.00687452)
(1.68142 0.00891468 0.0161279)
(0.760296 0.0588613 0.00857359)
(0.59504 0.0563343 0.00178656)
(0.657368 0.060658 -0.000270386)
(0.701857 0.0667789 -0.000201375)
(0.702016 0.071022 0.000111193)
(0.682287 0.0738855 0.000204957)
(0.651305 0.0754461 0.000216)
(0.622894 0.0771803 0.000101828)
(0.601456 0.0795795 -4.87794e-05)
(0.582601 0.0823641 -0.000161213)
(0.563428 0.0853236 -0.000250441)
(0.543548 0.0884658 -0.000337414)
(0.523355 0.091877 -0.000428455)
(0.50298 0.0956057 -0.000522352)
(0.482365 0.0996649 -0.000616515)
(0.46152 0.10407 -0.000710438)
(0.440344 0.108823 -0.000805947)
(0.418664 0.113902 -0.000902195)
(0.396548 0.119294 -0.000997368)
(0.37406 0.124994 -0.00109371)
(0.350945 0.130983 -0.00119333)
(0.327123 0.137227 -0.00129265)
(0.302881 0.143724 -0.0013913)
(0.278144 0.150534 -0.0014938)
(0.252601 0.157652 -0.00159833)
(0.226423 0.165081 -0.00169954)
(0.200339 0.172907 -0.00179879)
(0.174231 0.181257 -0.00190625)
(0.147215 0.189996 -0.00202202)
(0.119622 0.198638 -0.00213336)
(0.0920896 0.20645 -0.00223629)
(0.0654616 0.212542 -0.00233439)
(0.0377307 0.216229 -0.00243149)
(0.0148826 0.217663 -0.00252254)
(3 6.2149e-08 0.000548535)
(3 4.34478e-07 0.000520475)
(3 8.55279e-07 0.000492606)
(3 1.253e-06 0.000464974)
(2.99998 1.32292e-06 0.000437646)
(2.99992 2.8686e-06 0.000410934)
(2.99981 1.33518e-05 0.000384835)
(2.99947 3.6155e-05 0.000361743)
(2.99888 0.000112231 0.000340447)
(2.99697 0.000235101 0.00034029)
(2.99472 0.000681666 0.000325745)
(2.97483 0.000773162 0.000673889)
(2.95185 0.00321674 0.000755934)
(2.81611 0.00290184 0.00343014)
(2.46241 0.00714511 0.00624804)
(1.7213 0.0145075 0.0149046)
(0.784028 0.0721981 0.00828289)
(0.590867 0.0674723 0.00189295)
(0.653917 0.0713534 -0.000256971)
(0.699799 0.0778345 -0.000198445)
(0.699928 0.0824436 0.000104939)
(0.679732 0.0855913 0.000195901)
(0.648462 0.0873337 0.000204457)
(0.620262 0.0893069 9.36432e-05)
(0.59916 0.0920174 -4.79965e-05)
(0.580574 0.0951712 -0.000152543)
(0.561633 0.0985559 -0.000235625)
(0.542005 0.102181 -0.000316996)
(0.522083 0.106131 -0.000402212)
(0.501978 0.110453 -0.000489831)
(0.481625 0.115162 -0.000577506)
(0.461022 0.120272 -0.000665042)
(0.440054 0.125786 -0.000753999)
(0.418564 0.131686 -0.000843487)
(0.396627 0.137958 -0.000931956)
(0.374292 0.144601 -0.00102146)
(0.351304 0.151588 -0.00111372)
(0.327595 0.158877 -0.00120532)
(0.303457 0.166444 -0.00129638)
(0.278784 0.174343 -0.0013913)
(0.253248 0.182556 -0.00148814)
(0.227055 0.191041 -0.0015817)
(0.200929 0.199826 -0.00167397)
(0.174723 0.209047 -0.00177472)
(0.147614 0.218559 -0.00188202)
(0.119988 0.227825 -0.00198432)
(0.0924269 0.236083 -0.00207907)
(0.0657576 0.242447 -0.00217007)
(0.037926 0.246262 -0.00225738)
(0.0148261 0.247586 -0.00234588)
(3 1.3942e-07 0.000510348)
(3 3.56856e-07 0.000484196)
(3 6.02176e-07 0.000458227)
(3 7.84444e-07 0.000432483)
(2.99998 1.10443e-06 0.000407019)
(2.99993 3.56887e-06 0.000382101)
(2.99982 1.65235e-05 0.00035772)
(2.99952 4.40321e-05 0.00033594)
(2.99897 0.000132643 0.000315669)
(2.9972 0.000280134 0.000313723)
(2.99516 0.000789718 0.000298748)
(2.97618 0.00099596 0.00060825)
(2.95469 0.00373119 0.000673702)
(2.82296 0.00384494 0.00310347)
(2.48447 0.0101022 0.00561033)
(1.76636 0.0208345 0.0136239)
(0.810664 0.0873955 0.00798251)
(0.585553 0.07975 0.00199349)
(0.64995 0.083022 -0.000246697)
(0.697628 0.089763 -0.000196429)
(0.697735 0.0945553 9.84972e-05)
(0.677002 0.0978131 0.000186539)
(0.645428 0.099604 0.000192328)
(0.617516 0.10177 8.49535e-05)
(0.596827 0.104777 -4.7278e-05)
(0.578578 0.108286 -0.000143679)
(0.559944 0.112084 -0.000220485)
(0.540656 0.11619 -0.000296088)
(0.521102 0.12069 -0.000375283)
(0.501373 0.125627 -0.000456471)
(0.481398 0.131015 -0.000537495)
(0.461158 0.136868 -0.000618371)
(0.44052 0.143189 -0.000700529)
(0.419337 0.149963 -0.000783107)
(0.397692 0.157174 -0.000864686)
(0.375607 0.164819 -0.00094732)
(0.352831 0.172869 -0.00103214)
(0.329317 0.181275 -0.00111607)
(0.305352 0.189981 -0.00119983)
(0.280817 0.19903 -0.00128718)
(0.255372 0.208388 -0.00137569)
(0.229203 0.217974 -0.00146102)
(0.203024 0.227801 -0.00154512)
(0.176684 0.237989 -0.00163766)
(0.149386 0.248369 -0.00173624)
(0.121567 0.258334 -0.00183021)
(0.0937488 0.267085 -0.00191711)
(0.0667606 0.27377 -0.00199915)
(0.0386012 0.277711 -0.00208209)
(0.0150538 0.278975 -0.00215929)
(3 1.04516e-07 0.000470595)
(3 2.28977e-07 0.000446436)
(3 3.50483e-07 0.000422451)
(3 3.72603e-07 0.000398678)
(2.99998 8.90489e-07 0.000375159)
(2.99993 4.15957e-06 0.000352113)
(2.99984 1.93518e-05 0.00032953)
(2.99956 5.09131e-05 0.000309133)
(2.99908 0.000151601 0.000289956)
(2.99748 0.000322863 0.000286254)
(2.99567 0.000893715 0.000270928)
(2.9777 0.00121076 0.000541719)
(2.95783 0.00424088 0.000591475)
(2.83063 0.0047803 0.00277033)
(2.50908 0.0132899 0.00496378)
(1.81751 0.0278151 0.0122856)
(0.840463 0.104636 0.00767216)
(0.578594 0.0932123 0.00208404)
(0.645209 0.0956959 -0.000240062)
(0.695119 0.102523 -0.000194704)
(0.695181 0.107228 9.21291e-05)
(0.673853 0.110376 0.000176584)
(0.64201 0.112091 0.000179134)
(0.614515 0.114427 7.55104e-05)
(0.594335 0.117727 -4.65653e-05)
(0.576501 0.121579 -0.000134479)
(0.55826 0.12578 -0.000204908)
(0.539409 0.130369 -0.000274632)
(0.520331 0.13543 -0.000347555)
(0.501096 0.141003 -0.000422123)
(0.481624 0.147099 -0.000496377)
(0.461879 0.153729 -0.000570373)
(0.441714 0.160901 -0.000645497)
(0.420988 0.168599 -0.000720906)
(0.399778 0.176802 -0.000795326)
(0.37808 0.185511 -0.000870697)
(0.355651 0.194697 -0.000947838)
(0.332433 0.204308 -0.00102387)
(0.308707 0.214263 -0.00109964)
(0.284359 0.224594 -0.00117897)
(0.259028 0.235232 -0.00125994)
(0.232906 0.246047 -0.00133801)
(0.206678 0.257032 -0.00141454)
(0.180174 0.268291 -0.00149816)
(0.152615 0.279651 -0.00158761)
(0.124431 0.290444 -0.00167255)
(0.0961344 0.299829 -0.00175157)
(0.0685598 0.30693 -0.00182802)
(0.0397022 0.311106 -0.00189949)
(0.0153608 0.312316 -0.00197425)
(3 4.2098e-08 0.000429204)
(3 7.29131e-08 0.000407129)
(3 6.16895e-08 0.000385218)
(3 -9.59322e-08 0.000363501)
(2.99998 6.03553e-07 0.000342013)
(2.99994 4.78237e-06 0.000320926)
(2.99986 2.26139e-05 0.000300232)
(2.99962 5.89616e-05 0.000281306)
(2.99919 0.00017622 0.000263323)
(2.99778 0.000387027 0.000258009)
(2.99624 0.00102043 0.000242509)
(2.97938 0.00153697 0.000474891)
(2.96126 0.00481582 0.000510137)
(2.83922 0.00576514 0.0024317)
(2.53664 0.0168143 0.00431105)
(1.87591 0.035672 0.0108898)
(0.874155 0.124448 0.00734971)
(0.57008 0.108697 0.00215899)
(0.63989 0.110196 -0.000236558)
(0.692342 0.11669 -0.000192164)
(0.692273 0.120845 8.59125e-05)
(0.670327 0.123538 0.000165345)
(0.63831 0.12505 0.000164217)
(0.61138 0.127534 6.51429e-05)
(0.591773 0.131085 -4.57465e-05)
(0.574392 0.135209 -0.000124831)
(0.556609 0.139746 -0.000188782)
(0.538283 0.144768 -0.000252463)
(0.519781 0.15036 -0.000318935)
(0.501148 0.156557 -0.000386638)
(0.482296 0.163365 -0.000453975)
(0.463175 0.170794 -0.000521086)
(0.443625 0.178854 -0.000589002)
(0.423502 0.187531 -0.000657056)
(0.402876 0.196795 -0.000724391)
(0.381719 0.206641 -0.000792547)
(0.359792 0.217039 -0.000861943)
(0.337022 0.227924 -0.000930351)
(0.313674 0.239227 -0.000998216)
(0.289632 0.250947 -0.00106857)
(0.264499 0.263016 -0.00114062)
(0.238451 0.275266 -0.00121024)
(0.212137 0.287612 -0.00127905)
(0.185401 0.300163 -0.00135437)
(0.157489 0.312719 -0.00143429)
(0.128794 0.324543 -0.0015108)
(0.0997653 0.334752 -0.00158142)
(0.0712793 0.342478 -0.00164832)
(0.041398 0.347005 -0.00171721)
(0.0159862 0.348256 -0.00177993)
(3 -4.38512e-08 0.000386103)
(3 -1.89873e-07 0.000366206)
(3 -5.78993e-07 0.000346461)
(3 -1.31009e-06 0.000326893)
(2.99999 -1.18988e-06 0.000307525)
(2.99995 2.22419e-06 0.000288486)
(2.99988 1.69215e-05 0.000269771)
(2.99968 4.67708e-05 0.000252396)
(2.99934 0.000152481 0.000235603)
(2.99814 0.000272577 0.000229038)
(2.99695 0.000934022 0.000212795)
(2.98128 0.00140991 0.000408792)
(2.96495 0.005165 0.000431598)
(2.84889 0.00687497 0.002089)
(2.56766 0.0199323 0.00365611)
(1.94306 0.0441186 0.00943991)
(0.912518 0.145963 0.00700994)
(0.559964 0.125689 0.0022099)
(0.633792 0.126224 -0.000232717)
(0.689072 0.131598 -0.00018652)
(0.688856 0.134542 7.91927e-05)
(0.66644 0.136357 0.000151471)
(0.634495 0.137681 0.000146708)
(0.608272 0.140417 5.41752e-05)
(0.589221 0.144272 -4.42954e-05)
(0.572275 0.148699 -0.000114412)
(0.554988 0.1536 -0.000171955)
(0.537267 0.15908 -0.000229459)
(0.51944 0.165222 -0.000289227)
(0.501526 0.172057 -0.000349856)
(0.48343 0.179593 -0.000409994)
(0.465083 0.187844 -0.000469866)
(0.446315 0.196825 -0.000530395)
(0.426976 0.206528 -0.000590922)
(0.407111 0.216925 -0.00065062)
(0.386669 0.228006 -0.000710996)
(0.365403 0.239748 -0.000772729)
(0.343238 0.25207 -0.000833352)
(0.3204 0.26488 -0.00089365)
(0.296772 0.278151 -0.000956419)
(0.271971 0.291819 -0.00101969)
(0.246082 0.305692 -0.00108073)
(0.219716 0.319649 -0.0011411)
(0.192742 0.333756 -0.00120687)
(0.164364 0.34783 -0.00127748)
(0.134944 0.361023 -0.00134438)
(0.104925 0.372377 -0.00140725)
(0.075188 0.380972 -0.00146778)
(0.0437885 0.386138 -0.00152498)
(0.0167725 0.387539 -0.00158632)
(3 3.90163e-08 0.000341213)
(3 -1.57592e-07 0.000323594)
(3 -4.4721e-07 0.000306114)
(3 -1.71982e-06 0.000288792)
(2.99999 -1.98047e-06 0.000271644)
(2.99996 -4.1589e-06 0.000254776)
(2.99989 6.25457e-06 0.000238179)
(2.99972 3.81103e-07 0.000222544)
(2.99939 8.41473e-05 0.000208163)
(2.99841 1.23936e-05 0.000199479)
(2.99751 0.000717625 0.000184909)
(2.98332 0.00109826 0.000339595)
(2.96938 0.00571899 0.000346998)
(2.85942 0.00891199 0.0017599)
(2.60202 0.0234092 0.00300943)
(2.01933 0.0543831 0.00796104)
(0.953092 0.171117 0.00664481)
(0.545115 0.146953 0.00222361)
(0.624184 0.146597 -0.00022392)
(0.682867 0.149362 -0.000174531)
(0.683165 0.150267 7.04534e-05)
(0.661183 0.150697 0.000132736)
(0.630145 0.151748 0.000125164)
(0.605003 0.154452 4.26096e-05)
(0.586601 0.158232 -4.21628e-05)
(0.570143 0.162655 -0.000103244)
(0.553426 0.167711 -0.000154325)
(0.536384 0.173504 -0.000205412)
(0.519309 0.180091 -0.000258261)
(0.502206 0.187492 -0.000311694)
(0.484978 0.195714 -0.000364622)
(0.467547 0.20477 -0.000417255)
(0.44973 0.214679 -0.000470301)
(0.43137 0.225435 -0.000523265)
(0.412484 0.237009 -0.000575527)
(0.392998 0.249389 -0.000628169)
(0.372656 0.262566 -0.000681508)
(0.351329 0.276452 -0.000733845)
(0.329196 0.290951 -0.000785785)
(0.306161 0.306022 -0.000839667)
(0.281828 0.321576 -0.000894733)
(0.256208 0.337393 -0.000947823)
(0.22983 0.353316 -0.000999917)
(0.20264 0.369336 -0.00105571)
(0.173773 0.385387 -0.0011169)
(0.143444 0.400423 -0.00117491)
(0.112101 0.413431 -0.00122877)
(0.0806661 0.423388 -0.00128119)
(0.0472519 0.429433 -0.00133406)
(0.018116 0.431157 -0.00138135)
(3 5.99265e-08 0.000294452)
(3 1.85804e-07 0.000279216)
(3 -1.50134e-08 0.000264105)
(3 -9.67284e-07 0.000249129)
(2.99998 -2.11939e-06 0.000234322)
(2.99996 -2.36595e-06 0.000219703)
(2.99989 1.21346e-06 0.000205472)
(2.99975 7.46185e-06 0.000191669)
(2.99938 4.13568e-05 0.000179684)
(2.99867 4.25924e-05 0.000169312)
(2.99819 0.000409511 0.000152922)
(2.98588 0.000261569 0.000272516)
(2.97505 0.00511358 0.000268025)
(2.87133 0.007023 0.00144159)
(2.64166 0.0268024 0.00236669)
(2.10867 0.0630199 0.0064658)
(0.998142 0.198007 0.00623657)
(0.527613 0.167848 0.00218658)
(0.611626 0.16379 -0.000203249)
(0.673603 0.160856 -0.000155381)
(0.675268 0.160718 5.81998e-05)
(0.654535 0.161311 0.000110204)
(0.624929 0.164147 0.000102136)
(0.600818 0.167719 3.29942e-05)
(0.583091 0.171748 -3.84996e-05)
(0.567321 0.176353 -9.12781e-05)
(0.551413 0.181689 -0.000135773)
(0.535266 0.187843 -0.00018001)
(0.519136 0.194859 -0.000225498)
(0.503033 0.202776 -0.000271415)
(0.486866 0.211623 -0.000316869)
(0.470553 0.221435 -0.000361955)
(0.453905 0.232248 -0.000407387)
(0.43675 0.244069 -0.000452624)
(0.419073 0.256871 -0.000497173)
(0.40079 0.270629 -0.000542215)
(0.38163 0.285368 -0.000587751)
(0.361426 0.300952 -0.000632377)
(0.340303 0.317318 -0.000676504)
(0.318149 0.334408 -0.00072142)
(0.294553 0.352156 -0.000767357)
(0.269427 0.370318 -0.000812093)
(0.243157 0.388683 -0.000855831)
(0.215851 0.40717 -0.000901718)
(0.186526 0.425793 -0.000952719)
(0.155119 0.4434 -0.00100178)
(0.122133 0.458798 -0.00104734)
(0.0884115 0.470822 -0.00109087)
(0.0520608 0.478486 -0.0011337)
(0.0198251 0.480896 -0.00118028)
(3 -1.21677e-08 0.000245734)
(3 1.74097e-07 0.000232992)
(3 3.95169e-07 0.000220356)
(3 8.50535e-08 0.000207839)
(2.99999 1.65205e-07 0.000195448)
(2.99996 2.94727e-06 0.000183247)
(2.9999 1.30575e-05 0.000171244)
(2.99976 3.89869e-05 0.000159817)
(2.99944 0.000100381 0.000149469)
(2.99872 0.00019767 0.000141253)
(2.99802 0.000682849 0.000130912)
(2.98775 -0.00271689 0.000208596)
(2.97859 0.00857425 0.000200321)
(2.88408 -0.0179257 0.00109693)
(2.68705 0.0690171 0.00175588)
(2.20649 0.0536249 0.00496213)
(1.05813 0.264797 0.00575493)
(0.5208 0.226736 0.0020775)
(0.604174 0.207688 -0.000169407)
(0.669309 0.180398 -0.000143615)
(0.674722 0.174427 2.73641e-05)
(0.655426 0.17284 7.88488e-05)
(0.626093 0.177122 7.72032e-05)
(0.600539 0.181068 2.76657e-05)
(0.581982 0.184837 -3.25966e-05)
(0.566136 0.189318 -7.82897e-05)
(0.550569 0.19482 -0.000116056)
(0.534987 0.201325 -0.000152995)
(0.519603 0.208793 -0.00019088)
(0.504422 0.217241 -0.000229137)
(0.489345 0.226713 -0.000266958)
(0.474259 0.237279 -0.000304485)
(0.458958 0.248996 -0.000342096)
(0.443249 0.261894 -0.00037943)
(0.427052 0.275972 -0.000416156)
(0.410296 0.291217 -0.00045294)
(0.39265 0.307631 -0.000490202)
(0.373888 0.325134 -0.000526847)
(0.35412 0.343631 -0.00056298)
(0.333208 0.363047 -0.000599823)
(0.310732 0.383367 -0.000637126)
(0.286471 0.404319 -0.000673182)
(0.260627 0.425729 -0.000708525)
(0.233404 0.447476 -0.000744902)
(0.203774 0.469449 -0.000785434)
(0.171287 0.490708 -0.000825366)
(0.136365 0.509738 -0.00086209)
(0.0997441 0.525079 -0.000897971)
(0.059549 0.535298 -0.000933027)
(0.0228862 0.539113 -0.000966147)
(3 6.09202e-08 0.000194968)
(3 -7.87739e-08 0.000184835)
(3 3.46105e-08 0.00017479)
(3 -6.50108e-07 0.000164839)
(2.99999 -2.17325e-08 0.000154995)
(2.99997 -7.46502e-07 0.00014526)
(2.99992 1.0625e-05 0.000135751)
(2.99983 1.44768e-05 0.0001264)
(2.99953 7.93529e-05 0.000118353)
(2.99919 0.00011661 0.00010882)
(2.99601 0.000445132 0.000120253)
(2.9932 -0.00188949 0.000112847)
(2.96448 0.00626161 0.000306732)
(2.922 -0.0161143 0.00041122)
(2.74873 0.055255 0.00151832)
(2.25353 0.0289683 0.0029583)
(1.33548 0.203574 0.00514931)
(0.641373 0.238695 0.00203166)
(0.669932 0.230638 -5.10729e-05)
(0.716253 0.203063 -0.000122049)
(0.725954 0.195173 -3.45103e-05)
(0.703211 0.191494 3.99553e-05)
(0.66852 0.194827 4.94702e-05)
(0.634292 0.198702 2.40237e-05)
(0.60866 0.201754 -2.52089e-05)
(0.587759 0.205419 -6.40609e-05)
(0.568379 0.210337 -9.47063e-05)
(0.549779 0.216485 -0.000123793)
(0.532076 0.223772 -0.000153606)
(0.515266 0.232217 -0.000183862)
(0.499225 0.241887 -0.000213884)
(0.483775 0.252863 -0.000243697)
(0.468634 0.265227 -0.000273526)
(0.453545 0.27902 -0.000303115)
(0.438342 0.294254 -0.000332211)
(0.422832 0.310935 -0.000361146)
(0.406674 0.329034 -0.000390009)
(0.389558 0.348557 -0.000418445)
(0.371417 0.369383 -0.0004465)
(0.352133 0.391472 -0.00047474)
(0.331215 0.414761 -0.000503533)
(0.308338 0.439037 -0.000531537)
(0.283558 0.464232 -0.000558696)
(0.256827 0.490144 -0.000585705)
(0.227299 0.516684 -0.000615275)
(0.194149 0.54313 -0.000645864)
(0.157203 0.567675 -0.000673644)
(0.116878 0.588563 -0.000700072)
(0.0709857 0.603717 -0.000726042)
(0.0274811 0.610431 -0.00075539)
(3 1.86046e-08 0.000142059)
(3 -4.68109e-08 0.000134658)
(3 -5.07586e-07 0.000127324)
(3 -1.22997e-06 0.00012006)
(2.99999 -1.52535e-06 0.000112876)
(2.99997 -6.95718e-07 0.000105772)
(2.99992 2.58313e-06 9.88357e-05)
(2.99983 1.17703e-05 9.20204e-05)
(2.99954 2.73915e-05 8.60399e-05)
(2.99912 7.6088e-05 8.00705e-05)
(2.99649 -3.36888e-05 8.44702e-05)
(2.99389 0.00107427 8.21314e-05)
(2.96909 0.00111405 0.000199369)
(2.93665 0.00872316 0.000242804)
(2.77857 0.0198487 0.001039)
(2.33577 0.0467207 0.00193858)
(1.48306 0.127876 0.00398751)
(0.684397 0.252991 0.00168316)
(0.66766 0.250133 0.000106301)
(0.720634 0.232992 -8.14389e-05)
(0.745121 0.223781 -4.37957e-05)
(0.732467 0.218985 1.64047e-05)
(0.704654 0.21898 2.61584e-05)
(0.670955 0.221875 1.72598e-05)
(0.643306 0.224277 -1.61187e-05)
(0.620697 0.2271 -4.70673e-05)
(0.59952 0.23109 -7.02815e-05)
(0.578728 0.236346 -9.1165e-05)
(0.558611 0.242813 -0.000112634)
(0.539441 0.250576 -0.000134699)
(0.521266 0.259701 -0.000156674)
(0.504047 0.270343 -0.000178453)
(0.487617 0.282649 -0.000200235)
(0.471778 0.29671 -0.00022181)
(0.456382 0.31257 -0.000243)
(0.441214 0.330255 -0.000264121)
(0.425928 0.349805 -0.000285278)
(0.410131 0.371202 -0.000305841)
(0.393632 0.394273 -0.000326123)
(0.376177 0.41908 -0.000346068)
(0.357213 0.445673 -0.000366046)
(0.336448 0.47391 -0.000385941)
(0.313569 0.503657 -0.000405242)
(0.288272 0.534822 -0.000423845)
(0.259843 0.56747 -0.000443564)
(0.226947 0.601228 -0.000464413)
(0.188658 0.634285 -0.000482906)
(0.144652 0.664608 -0.000500922)
(0.0914093 0.689449 -0.000517734)