/*--------------------------------*- C++ -*----------------------------------*\
| =========                 |                                                 |
| \\      /  F ield         | OpenFOAM: The Open Source CFD Toolbox           |
|  \\    /   O peration     | Version:  2112                                  |
|   \\  /    A nd           | Website:  www.openfoam.com                      |
|    \\/     M anipulation  |                                                 |
\*---------------------------------------------------------------------------*/
FoamFile
{
    version     2.0;
    format      ascii;
    arch        "LSB;label=32;scalar=64";
    class       volScalarField;
    location    "50";
    object      T;
}
// * * * * * * * * * * * * * * * * * * * * * * * * * * * * * * * * * * * * * //

dimensions      [0 0 0 1 0 0 0];

internalField   nonuniform List<scalar> 
10000
(
0.998128
1.00296
0.998195
0.998943
0.999079
0.998989
0.998945
0.998192
1.00291
0.99816
0.990581
0.99705
0.992635
0.993929
0.994205
0.99413
0.993929
0.992615
0.996857
0.990711
0.99178
0.996164
0.993165
0.993959
0.994189
0.994251
0.993982
0.993194
0.996058
0.991809
0.994612
0.997364
0.995491
0.995744
0.995827
0.995918
0.995792
0.995564
0.997475
0.994559
0.995882
0.997765
0.996807
0.996903
0.996924
0.996975
0.996945
0.996852
0.997939
0.99588
0.996443
0.997721
0.997266
0.997357
0.997375
0.997405
0.997389
0.99729
0.997831
0.996443
0.996944
0.997777
0.997539
0.997634
0.997658
0.997675
0.997653
0.997553
0.997811
0.996919
0.997338
0.997875
0.997763
0.997851
0.997882
0.997887
0.997858
0.997764
0.997885
0.99732
0.997589
0.997943
0.997899
0.99798
0.998014
0.998013
0.99798
0.997895
0.997948
0.997575
0.997745
0.997985
0.997979
0.998047
0.998078
0.998075
0.998043
0.997969
0.997989
0.997731
0.997846
0.998006
0.998005
0.998074
0.998088
0.998099
0.998073
0.997991
0.99803
0.997796
0.997912
0.998018
0.998008
0.998082
0.998076
0.998105
0.998084
0.99799
0.998063
0.997812
0.99795
0.998034
0.998031
0.998083
0.998085
0.998099
0.998078
0.998005
0.998048
0.997879
0.99796
0.998034
0.998033
0.998072
0.998079
0.998084
0.998063
0.998006
0.998017
0.997925
0.997919
0.998045
0.998035
0.998052
0.998074
0.998042
0.998011
0.997996
0.99798
0.997935
0.997807
0.998032
0.997993
0.998007
0.998042
0.997965
0.997928
0.997935
0.997925
0.997862
0.997751
0.997915
0.997884
0.997931
0.997949
0.997912
0.99788
0.99782
0.997802
0.997769
0.997722
0.997742
0.997771
0.997807
0.997805
0.997821
0.997788
0.997692
0.99759
0.997716
0.997479
0.997535
0.997598
0.997605
0.997599
0.997613
0.997564
0.997493
0.997321
0.997493
0.99705
0.997275
0.99736
0.99734
0.997382
0.997338
0.997269
0.997225
0.99693
0.997211
0.996621
0.996879
0.997003
0.997026
0.997088
0.99704
0.996954
0.996842
0.99644
0.996868
0.995959
0.996262
0.996434
0.996551
0.996613
0.996614
0.996503
0.996266
0.995761
0.99624
0.994751
0.995327
0.995565
0.995769
0.995899
0.995935
0.995809
0.995469
0.994694
0.995284
0.992849
0.993825
0.994193
0.994547
0.994817
0.99494
0.994838
0.994389
0.993136
0.993881
0.989824
0.991365
0.991975
0.992588
0.993099
0.993426
0.993452
0.992933
0.990905
0.9917
0.984864
0.98722
0.988252
0.989281
0.99021
0.990955
0.991356
0.991018
0.987893
0.988301
0.976534
0.980041
0.981759
0.983428
0.985045
0.986556
0.987801
0.988325
0.983866
0.982312
0.962442
0.967483
0.970184
0.972755
0.975407
0.978231
0.98126
0.984686
0.981563
0.975834
0.938794
0.945663
0.949544
0.953134
0.957043
0.961644
0.967233
0.975965
0.980119
0.969161
0.90029
0.90894
0.913716
0.91795
0.922924
0.929628
0.939595
0.95998
1.01253
1.04811
1.00288
1.0083
1.00333
1.00423
1.00442
1.00441
1.00423
1.00336
1.00821
1.0029
0.996786
1.00553
1.00108
1.00251
1.0029
1.00294
1.00251
1.0012
1.00547
0.99683
0.996163
1.00292
1.00037
1.001
1.00123
1.0012
1.00098
1.00045
1.00304
0.996076
0.99749
1.00149
1.00004
1.00007
1.00009
0.999996
1.00002
0.999968
1.00142
0.997542
0.997936
1.00013
0.999302
0.999201
0.999162
0.999099
0.999162
0.99921
1
0.998017
0.99783
0.999143
0.998758
0.998671
0.998617
0.998588
0.998651
0.998707
0.999119
0.997891
0.997783
0.998594
0.998477
0.99842
0.998374
0.998364
0.998413
0.998456
0.998671
0.99785
0.997855
0.998383
0.998338
0.998307
0.998279
0.998275
0.998305
0.998333
0.998451
0.99791
0.997925
0.998288
0.998264
0.998252
0.99824
0.998238
0.998252
0.998267
0.998332
0.997966
0.997974
0.998231
0.99822
0.998217
0.99822
0.998217
0.998219
0.998224
0.998258
0.998005
0.998012
0.998197
0.998227
0.998206
0.99824
0.99821
0.998202
0.998228
0.998227
0.998061
0.998047
0.998182
0.998259
0.9982
0.998278
0.998205
0.998193
0.998257
0.998217
0.998116
0.998057
0.998154
0.998211
0.998177
0.998231
0.998183
0.998172
0.998203
0.99817
0.998103
0.99804
0.998122
0.998157
0.998149
0.998171
0.998148
0.998137
0.998137
0.998109
0.998073
0.998023
0.998096
0.998069
0.998099
0.998081
0.998124
0.998115
0.998038
0.99803
0.998029
0.997961
0.998083
0.997992
0.99804
0.997977
0.998113
0.998099
0.997948
0.997948
0.997986
0.997797
0.998049
0.997987
0.997963
0.997914
0.997972
0.997945
0.9979
0.997829
0.997907
0.997639
0.997843
0.997864
0.997837
0.997834
0.997763
0.997717
0.99772
0.997612
0.997726
0.99749
0.997635
0.9977
0.99771
0.997734
0.997632
0.997574
0.997496
0.997375
0.997539
0.997209
0.997466
0.997446
0.99752
0.997465
0.997456
0.997379
0.997157
0.997027
0.997264
0.996637
0.99703
0.997024
0.997099
0.997034
0.997048
0.996931
0.996637
0.996381
0.996821
0.99578
0.996386
0.996495
0.996504
0.996529
0.996473
0.996322
0.996019
0.99552
0.996253
0.994626
0.995558
0.995724
0.995757
0.995836
0.995795
0.995617
0.9952
0.994435
0.995471
0.992835
0.994254
0.994497
0.994615
0.994781
0.994822
0.994648
0.994068
0.992888
0.994286
0.989955
0.992071
0.99247
0.99275
0.993095
0.993321
0.993243
0.992522
0.990662
0.992381
0.985226
0.988316
0.988999
0.989567
0.990254
0.990861
0.991121
0.990472
0.987631
0.989321
0.977261
0.9817
0.982857
0.983892
0.985165
0.986482
0.987561
0.987623
0.983477
0.983595
0.963707
0.969896
0.971744
0.973442
0.975608
0.978148
0.980917
0.983647
0.981078
0.977602
0.940707
0.948942
0.951599
0.954015
0.957257
0.961442
0.966554
0.975049
0.97756
0.970568
0.902662
0.912833
0.915971
0.918668
0.922726
0.928779
0.937847
0.959227
1.01321
1.04001
0.998207
1.00337
0.998075
0.998867
0.999053
0.99907
0.998844
0.998073
1.00337
0.998191
0.992632
1.00115
0.996224
0.997544
0.997988
0.998061
0.997574
0.996349
1.00122
0.992603
0.993182
1.00039
0.997464
0.997966
0.998288
0.998321
0.998025
0.99761
1.00043
0.993201
0.995503
1.00002
0.998682
0.998686
0.998798
0.998799
0.998717
0.998708
0.999912
0.995615
0.996809
0.999263
0.998797
0.99877
0.998789
0.998783
0.99878
0.998776
0.999155
0.996923
0.997271
0.998731
0.998665
0.99867
0.998653
0.998647
0.998669
0.99863
0.998672
0.99736
0.997551
0.998466
0.99854
0.998568
0.998552
0.998546
0.998561
0.998504
0.998439
0.997607
0.997776
0.998338
0.998432
0.998471
0.998468
0.998464
0.998463
0.998405
0.998326
0.997803
0.997909
0.998266
0.99835
0.998392
0.998399
0.998397
0.998384
0.998333
0.998263
0.997927
0.997979
0.99822
0.998289
0.998328
0.998342
0.998341
0.998324
0.998279
0.99822
0.997994
0.998022
0.998187
0.998247
0.998277
0.998298
0.998295
0.998276
0.99824
0.998187
0.998033
0.998049
0.998163
0.998216
0.998236
0.998263
0.998255
0.998236
0.998208
0.998162
0.99806
0.998055
0.998141
0.998186
0.998202
0.998226
0.998218
0.998201
0.998175
0.998133
0.998072
0.998038
0.998118
0.998157
0.998172
0.998186
0.998177
0.99816
0.998137
0.998097
0.998073
0.997999
0.998086
0.998112
0.998131
0.998134
0.998127
0.998109
0.998078
0.998046
0.998056
0.997935
0.998044
0.998053
0.998073
0.998067
0.998069
0.998045
0.998002
0.997969
0.998016
0.997836
0.997969
0.997974
0.997985
0.997981
0.997982
0.99795
0.997902
0.997855
0.99795
0.997677
0.997832
0.997856
0.997856
0.997859
0.997849
0.997813
0.997754
0.997682
0.997843
0.997441
0.997656
0.997697
0.997691
0.997691
0.99767
0.997626
0.997546
0.99745
0.9977
0.997105
0.997421
0.997468
0.997469
0.997458
0.997435
0.997373
0.997253
0.997121
0.997499
0.996601
0.997066
0.997133
0.99714
0.997132
0.997107
0.99702
0.996846
0.996636
0.997208
0.99585
0.996537
0.99664
0.996651
0.996666
0.996641
0.996526
0.996282
0.995941
0.996787
0.994716
0.995731
0.995892
0.995927
0.995982
0.995978
0.995839
0.995495
0.994941
0.996147
0.992947
0.994465
0.994722
0.99482
0.994953
0.995016
0.99488
0.994409
0.993501
0.995135
0.990147
0.992406
0.992825
0.99305
0.993339
0.993562
0.99351
0.992928
0.991425
0.99344
0.985599
0.988902
0.989596
0.990055
0.990634
0.991196
0.991442
0.990934
0.988554
0.990608
0.977995
0.982729
0.983859
0.984697
0.985767
0.98696
0.987931
0.988086
0.984587
0.985161
0.965031
0.971614
0.973354
0.974721
0.97653
0.978774
0.98125
0.983907
0.982221
0.97991
0.942819
0.951581
0.953973
0.95585
0.958504
0.962099
0.96666
0.974723
0.97828
0.973537
0.905428
0.916305
0.918932
0.920791
0.923927
0.928967
0.937012
0.95708
1.01297
1.04495
0.998956
1.00425
0.998854
0.999669
0.999874
0.999876
0.999649
0.998835
1.00425
0.998936
0.993942
1.00252
0.997519
0.998789
0.999232
0.999258
0.998793
0.99758
1.00256
0.993878
0.993992
1.00098
0.997964
0.998335
0.998627
0.998651
0.998365
0.998064
1.00097
0.993979
0.995756
1.00006
0.9987
0.998595
0.998677
0.998689
0.998623
0.998735
0.99995
0.995868
0.996912
0.999194
0.998779
0.998702
0.998697
0.9987
0.998716
0.998775
0.999095
0.997043
0.997373
0.998661
0.99867
0.99868
0.998655
0.998656
0.998688
0.998654
0.998604
0.99748
0.997643
0.998411
0.998566
0.998629
0.998618
0.998618
0.998631
0.998546
0.998387
0.997722
0.997851
0.998301
0.998468
0.99855
0.998559
0.998558
0.998548
0.998453
0.998294
0.997906
0.997975
0.998251
0.99839
0.99847
0.99849
0.99849
0.998467
0.99838
0.998248
0.998018
0.998041
0.998221
0.998332
0.998401
0.998426
0.998426
0.998398
0.998324
0.998219
0.998077
0.99808
0.998197
0.998289
0.998344
0.998371
0.998368
0.998341
0.998282
0.998199
0.998109
0.9981
0.998179
0.998253
0.998295
0.998321
0.998317
0.998292
0.998246
0.998181
0.998127
0.998098
0.998159
0.998218
0.99825
0.998272
0.998268
0.998246
0.998208
0.998156
0.998132
0.998074
0.998134
0.998179
0.998204
0.998221
0.998217
0.998198
0.998164
0.99812
0.998123
0.998027
0.998099
0.99813
0.998152
0.998163
0.998161
0.998142
0.998108
0.998069
0.998099
0.997956
0.998047
0.99807
0.998088
0.998094
0.998094
0.998073
0.998036
0.997998
0.998058
0.997852
0.997965
0.997992
0.998003
0.998005
0.998003
0.997978
0.997938
0.997893
0.997997
0.997697
0.997841
0.997879
0.997882
0.997885
0.997877
0.997846
0.997796
0.997739
0.997904
0.997474
0.997673
0.997719
0.997719
0.997721
0.997708
0.997668
0.997599
0.997524
0.997774
0.997144
0.997438
0.997492
0.997492
0.997491
0.997475
0.997422
0.997323
0.997215
0.997591
0.996642
0.997087
0.997159
0.997164
0.997167
0.997152
0.997078
0.996933
0.996761
0.997323
0.995893
0.996575
0.996677
0.996691
0.99671
0.996699
0.996601
0.996391
0.996105
0.99693
0.99479
0.995797
0.995962
0.995997
0.996049
0.996059
0.995941
0.995641
0.99516
0.996329
0.993094
0.994586
0.994854
0.994939
0.99506
0.995134
0.995016
0.9946
0.993788
0.995368
0.990416
0.99264
0.993054
0.993247
0.993505
0.993726
0.993682
0.993158
0.991782
0.993725
0.986074
0.989326
0.98999
0.990382
0.990889
0.991418
0.991643
0.991185
0.988973
0.99095
0.978799
0.983469
0.984521
0.985225
0.986151
0.987247
0.988129
0.988298
0.985105
0.98569
0.96632
0.972828
0.974409
0.975529
0.977073
0.979099
0.98138
0.984007
0.98265
0.980654
0.94469
0.953372
0.955479
0.956942
0.959135
0.962277
0.966398
0.974003
0.978149
0.974545
0.907649
0.918485
0.920652
0.921877
0.924285
0.92854
0.935772
0.955096
1.0119
1.04609
0.998948
1.00449
0.999069
0.999827
1.00004
1.00004
0.999814
0.999057
1.0045
0.998933
0.994057
1.00301
0.998052
0.999243
0.999664
0.999675
0.999246
0.998105
1.00306
0.994014
0.994331
1.00105
0.998284
0.998647
0.998934
0.998949
0.998672
0.998376
1.00106
0.994326
0.995939
0.999945
0.998776
0.998653
0.998727
0.998739
0.998679
0.998817
0.999865
0.996042
0.996974
0.999095
0.99877
0.998677
0.998659
0.998665
0.998691
0.998772
0.999012
0.997105
0.9974
0.99859
0.99864
0.998646
0.998612
0.998615
0.998655
0.998627
0.998538
0.997519
0.997667
0.998363
0.998543
0.998614
0.9986
0.998602
0.998619
0.998528
0.998339
0.997758
0.997876
0.998275
0.99846
0.998556
0.998566
0.998567
0.998558
0.998452
0.998265
0.997944
0.998001
0.998248
0.998393
0.998489
0.998513
0.998513
0.998489
0.998389
0.998235
0.998057
0.998071
0.998226
0.998345
0.998427
0.998456
0.998456
0.998426
0.99834
0.998219
0.998113
0.998111
0.998202
0.998308
0.998371
0.9984
0.998399
0.998368
0.998299
0.998205
0.998143
0.998125
0.998187
0.998273
0.99832
0.998346
0.998344
0.998316
0.998262
0.99819
0.998158
0.998118
0.998166
0.998233
0.998272
0.998293
0.998292
0.998268
0.998223
0.998165
0.998157
0.998089
0.998139
0.998187
0.998221
0.998239
0.998237
0.998216
0.998179
0.998131
0.998145
0.998037
0.998112
0.998135
0.998165
0.99818
0.998178
0.998158
0.998123
0.998082
0.998119
0.997966
0.998065
0.998079
0.9981
0.99811
0.998108
0.998087
0.998052
0.998012
0.998079
0.997869
0.997976
0.998007
0.998015
0.99802
0.998016
0.997992
0.997954
0.997912
0.99802
0.997721
0.997849
0.997898
0.997897
0.9979
0.997893
0.997864
0.997816
0.997764
0.997932
0.997496
0.997685
0.997739
0.997735
0.997736
0.997726
0.997689
0.997624
0.997553
0.997807
0.997167
0.997451
0.997509
0.997508
0.997509
0.997496
0.997446
0.997354
0.997251
0.997628
0.996661
0.997135
0.997183
0.997185
0.997191
0.997176
0.997108
0.996973
0.99681
0.997368
0.995911
0.996677
0.996716
0.996722
0.996739
0.996731
0.996639
0.996443
0.996171
0.996987
0.994859
0.99587
0.996014
0.996041
0.996088
0.996102
0.995989
0.995703
0.995243
0.9964
0.993219
0.994652
0.994931
0.995005
0.995116
0.99519
0.995076
0.994675
0.993886
0.995454
0.990591
0.992808
0.993179
0.993349
0.993586
0.993799
0.993752
0.993244
0.991894
0.993826
0.986366
0.989586
0.990194
0.990544
0.991007
0.991512
0.991719
0.991271
0.989095
0.991065
0.979271
0.983877
0.984854
0.985475
0.98632
0.987361
0.988193
0.988358
0.985235
0.985846
0.967061
0.973453
0.974922
0.975902
0.977297
0.979203
0.981371
0.983955
0.982712
0.980854
0.94573
0.954261
0.956195
0.957419
0.959357
0.962274
0.966191
0.973649
0.977907
0.97472
0.908814
0.919544
0.921415
0.92227
0.924285
0.928151
0.935018
0.953869
1.01075
1.0451
0.999089
1.00442
0.999042
0.999864
1.00008
1.00008
0.99985
0.99903
1.00443
0.999071
0.994204
1.00289
0.997967
0.999219
0.999661
0.999668
0.999221
0.998021
1.00295
0.99414
0.994174
1.00125
0.9983
0.99863
0.998914
0.998926
0.998652
0.998387
1.00126
0.994156
0.995817
1.00012
0.998815
0.998685
0.998755
0.998767
0.998708
0.998851
1.00003
0.995922
0.996928
0.999174
0.998793
0.998699
0.998679
0.998685
0.99871
0.998792
0.999088
0.997062
0.99738
0.998622
0.998652
0.998656
0.998619
0.998623
0.998663
0.998637
0.998565
0.997504
0.997657
0.99838
0.998548
0.998618
0.998603
0.998605
0.998622
0.998531
0.998346
0.997755
0.997854
0.998314
0.998463
0.998558
0.998568
0.998568
0.998558
0.998451
0.998267
0.997945
0.997964
0.998325
0.9984
0.998491
0.998515
0.998514
0.998489
0.998388
0.998236
0.998057
0.998069
0.998249
0.99835
0.998429
0.998458
0.998456
0.998426
0.998339
0.998219
0.998114
0.998137
0.998152
0.998307
0.998371
0.9984
0.998399
0.998368
0.998297
0.998206
0.998144
0.998139
0.998147
0.998269
0.998319
0.998345
0.998344
0.998316
0.99826
0.998189
0.998157
0.998126
0.998148
0.998228
0.998271
0.998292
0.998291
0.998268
0.998222
0.998165
0.998157
0.998081
0.998165
0.998187
0.998222
0.998239
0.998238
0.998216
0.998178
0.998131
0.998145
0.997993
0.998212
0.998145
0.998169
0.998182
0.998178
0.998158
0.998124
0.998083
0.99812
0.997927
0.998157
0.998091
0.998104
0.998112
0.998107
0.998087
0.998052
0.998013
0.998081
0.997881
0.997948
0.998008
0.998015
0.998021
0.998016
0.997993
0.997954
0.997912
0.998022
0.99776
0.997754
0.99789
0.997895
0.997901
0.997894
0.997866
0.997818
0.997766
0.997934
0.997522
0.997619
0.997727
0.997732
0.997736
0.997727
0.99769
0.997626
0.997555
0.997808
0.997175
0.997424
0.9975
0.997505
0.997509
0.997497
0.997447
0.997355
0.997251
0.997629
0.996673
0.997103
0.997179
0.997184
0.99719
0.997177
0.997109
0.996976
0.996812
0.997372
0.995945
0.996609
0.996714
0.996721
0.996741
0.996733
0.996642
0.996447
0.996176
0.996991
0.994871
0.995849
0.996018
0.996043
0.996091
0.996105
0.995992
0.995707
0.995248
0.996403
0.993215
0.994679
0.994939
0.995009
0.99512
0.995194
0.99508
0.99468
0.993891
0.995456
0.990606
0.992794
0.993188
0.993357
0.993591
0.993805
0.993757
0.993251
0.991901
0.993828
0.986379
0.989588
0.99021
0.990553
0.991017
0.991522
0.991728
0.99128
0.989109
0.991081
0.97929
0.983908
0.984881
0.985494
0.986338
0.987379
0.988212
0.988373
0.985238
0.985842
0.967087
0.97353
0.974974
0.975938
0.97733
0.979229
0.981378
0.983924
0.982756
0.981063
0.945783
0.9544
0.956286
0.957496
0.959432
0.962351
0.966289
0.973859
0.977961
0.974284
0.908939
0.919727
0.921574
0.92242
0.924432
0.928302
0.935184
0.954015
1.01115
1.04636
0.99893
1.00425
0.99886
0.999652
0.999853
0.99985
0.999636
0.998842
1.00425
0.998911
0.993891
1.00254
0.997556
0.998792
0.999227
0.99923
0.998789
0.997599
1.00259
0.993825
0.993948
1.00101
0.998005
0.998354
0.99864
0.99865
0.998372
0.998086
1.00101
0.993922
0.995778
1.00004
0.998703
0.99861
0.998692
0.998702
0.998629
0.998734
0.999947
0.995876
0.996938
0.999175
0.998768
0.998705
0.998701
0.998706
0.998715
0.998766
0.999082
0.997071
0.997382
0.998657
0.998662
0.998682
0.998658
0.998662
0.998688
0.998647
0.998597
0.997501
0.997641
0.998417
0.998558
0.998628
0.99862
0.998622
0.99863
0.998539
0.998382
0.997737
0.997838
0.998314
0.998459
0.998548
0.998558
0.998559
0.998547
0.998445
0.99829
0.997914
0.997962
0.998269
0.998383
0.998468
0.998489
0.998489
0.998465
0.998374
0.998247
0.998021
0.998037
0.998233
0.998331
0.998401
0.998427
0.998425
0.998397
0.99832
0.99822
0.998081
0.998082
0.998199
0.998292
0.998346
0.99837
0.998368
0.998341
0.998278
0.9982
0.998114
0.998106
0.998179
0.998256
0.998297
0.998319
0.998318
0.998293
0.998244
0.998182
0.998131
0.998103
0.998157
0.998217
0.998251
0.99827
0.998269
0.998248
0.998207
0.998157
0.998135
0.998069
0.998135
0.998173
0.998205
0.99822
0.998218
0.998199
0.998163
0.998122
0.998126
0.998012
0.998116
0.998126
0.998153
0.998166
0.998162
0.998143
0.99811
0.998072
0.998102
0.997944
0.998067
0.998072
0.99809
0.998098
0.998093
0.998073
0.998039
0.998
0.998061
0.997858
0.997968
0.997999
0.998005
0.998009
0.998003
0.997979
0.997939
0.997895
0.998001
0.99772
0.997835
0.997888
0.997887
0.997889
0.99788
0.99785
0.997799
0.997744
0.997911
0.997475
0.997698
0.997727
0.997723
0.997724
0.997711
0.997671
0.997603
0.997529
0.997778
0.997111
0.997514
0.9975
0.997496
0.997496
0.997479
0.997424
0.997328
0.997217
0.99759
0.996637
0.997114
0.99717
0.997169
0.997173
0.997155
0.997082
0.996941
0.996766
0.997324
0.995932
0.996524
0.99669
0.996697
0.996716
0.996704
0.996607
0.996402
0.996117
0.996934
0.99483
0.995757
0.995975
0.996006
0.996057
0.996068
0.995949
0.995651
0.995175
0.996337
0.993128
0.994576
0.994866
0.994951
0.995071
0.995145
0.995028
0.994613
0.993803
0.995382
0.990452
0.992646
0.993074
0.993267
0.993522
0.993742
0.993697
0.993179
0.991801
0.993743
0.98612
0.989356
0.990025
0.990413
0.990918
0.991443
0.991666
0.991214
0.989004
0.990973
0.978875
0.983533
0.984583
0.985282
0.986203
0.987293
0.98817
0.988341
0.985143
0.985709
0.966452
0.972954
0.974526
0.975638
0.977172
0.97918
0.981428
0.984063
0.982709
0.980704
0.944924
0.953614
0.955706
0.95716
0.959338
0.962457
0.966528
0.974153
0.978209
0.974468
0.908061
0.918918
0.921076
0.922295
0.924691
0.928925
0.936097
0.955337
1.01207
1.04601
0.998197
1.00336
0.998081
0.998856
0.99905
0.999048
0.998842
0.998068
1.00337
0.998178
0.992608
1.00118
0.996332
0.997575
0.998009
0.998018
0.997591
0.996403
1.00127
0.992555
0.993175
1.00045
0.997588
0.998041
0.998353
0.998369
0.998079
0.997705
1.0005
0.993161
0.99554
0.999988
0.998692
0.998711
0.998821
0.99883
0.998728
0.998726
0.999884
0.995631
0.996825
0.999217
0.998763
0.998758
0.998776
0.998779
0.998762
0.998754
0.999103
0.996948
0.997269
0.998705
0.998622
0.998647
0.998633
0.998634
0.998645
0.998595
0.998626
0.997376
0.997541
0.998462
0.998499
0.998545
0.998533
0.998532
0.998539
0.998467
0.998404
0.997615
0.997744
0.998336
0.998401
0.998454
0.998453
0.998452
0.998446
0.998374
0.998303
0.997805
0.997877
0.998273
0.998335
0.998382
0.998391
0.998388
0.998374
0.998313
0.998252
0.997924
0.997967
0.998237
0.998287
0.998328
0.998342
0.99834
0.998321
0.99827
0.998218
0.997996
0.998022
0.998198
0.998251
0.998285
0.998301
0.998299
0.998279
0.998237
0.998194
0.998046
0.998055
0.99817
0.998226
0.99825
0.998264
0.998262
0.998244
0.998209
0.99817
0.998077
0.998062
0.998144
0.998194
0.998215
0.998227
0.998226
0.998209
0.998177
0.998141
0.99809
0.998043
0.998122
0.998153
0.998175
0.998187
0.998184
0.998167
0.998138
0.998102
0.998087
0.998006
0.998107
0.998108
0.998129
0.998138
0.998133
0.998115
0.998084
0.998048
0.998068
0.997937
0.99806
0.998056
0.99807
0.998074
0.998067
0.998045
0.998011
0.997971
0.998027
0.997834
0.997964
0.997985
0.997988
0.997988
0.997977
0.99795
0.997908
0.997859
0.997958
0.99769
0.997827
0.997873
0.997868
0.997867
0.997853
0.997818
0.997761
0.997695
0.997856
0.99746
0.997664
0.997705
0.997701
0.9977
0.99768
0.997633
0.997552
0.99746
0.99771
0.997112
0.997444
0.997471
0.997469
0.997467
0.99744
0.997376
0.997261
0.997125
0.997502
0.996603
0.997079
0.99714
0.997136
0.997137
0.997107
0.997019
0.996853
0.996642
0.997208
0.995858
0.996531
0.996651
0.996652
0.996666
0.996641
0.996526
0.996286
0.99595
0.996781
0.994732
0.995726
0.995907
0.995936
0.995987
0.995985
0.995846
0.995502
0.994956
0.996145
0.992973
0.99447
0.994745
0.99484
0.994969
0.995034
0.994897
0.994429
0.993523
0.995153
0.990188
0.992426
0.992859
0.993084
0.993369
0.993591
0.993539
0.992962
0.991455
0.993478
0.985664
0.988953
0.989654
0.990111
0.990684
0.991243
0.991486
0.990984
0.988606
0.99068
0.978107
0.982831
0.98396
0.984792
0.985854
0.98704
0.988006
0.988163
0.984659
0.985281
0.965226
0.971807
0.973541
0.974896
0.976691
0.978913
0.981358
0.984028
0.982361
0.980177
0.943172
0.951938
0.954323
0.956187
0.958822
0.962392
0.966922
0.975065
0.978494
0.973696
0.906049
0.916947
0.919572
0.921425
0.924543
0.929559
0.937507
0.957682
1.01364
1.04526
1.0029
1.0082
1.00335
1.00423
1.00441
1.00441
1.00424
1.00337
1.00823
1.00288
0.996835
1.00544
1.00118
1.00253
1.00292
1.00293
1.00256
1.00126
1.00556
0.996773
0.996031
1.00309
1.00042
1.00099
1.00128
1.00128
1.00101
1.0005
1.0031
0.996
0.997421
1.00155
0.999923
0.999978
1.00007
1.00006
0.999954
0.999889
1.0013
0.997522
0.997927
1.00005
0.999154
0.99911
0.99911
0.999105
0.999086
0.999106
0.999884
0.998041
0.997859
0.999102
0.998666
0.998611
0.998579
0.998576
0.998598
0.998626
0.999057
0.997938
0.9978
0.998718
0.99844
0.998393
0.998356
0.998353
0.998383
0.998404
0.998648
0.997893
0.997905
0.99847
0.998327
0.998299
0.998272
0.99827
0.998292
0.998303
0.998446
0.997939
0.998012
0.998331
0.998269
0.998253
0.998239
0.998238
0.998247
0.99825
0.998332
0.997984
0.997979
0.99831
0.998234
0.998227
0.998223
0.998222
0.998221
0.998218
0.998263
0.998016
0.997986
0.998199
0.998202
0.998206
0.998209
0.998208
0.998202
0.998195
0.998216
0.998044
0.998054
0.998095
0.998181
0.998186
0.998193
0.998192
0.998184
0.998172
0.998177
0.998061
0.998068
0.99809
0.998156
0.998164
0.998172
0.998171
0.998161
0.998143
0.998134
0.998066
0.998055
0.998142
0.998128
0.998138
0.998144
0.99814
0.998127
0.998105
0.998084
0.998055
0.997999
0.998223
0.998096
0.998104
0.998106
0.998097
0.998079
0.998052
0.99802
0.998024
0.997891
0.998148
0.998042
0.998051
0.998049
0.998036
0.998012
0.997977
0.997931
0.997966
0.99781
0.997903
0.997962
0.997965
0.997962
0.997947
0.997915
0.997866
0.997803
0.997877
0.997716
0.997707
0.997845
0.997841
0.997838
0.997819
0.997778
0.997708
0.997618
0.997746
0.997499
0.997624
0.997683
0.997675
0.99767
0.997642
0.997584
0.997485
0.997355
0.997551
0.997145
0.997488
0.997451
0.997442
0.997435
0.997396
0.997313
0.997169
0.996974
0.997274
0.996619
0.997063
0.997099
0.997098
0.997095
0.997049
0.996937
0.996727
0.996428
0.996884
0.995858
0.996416
0.996578
0.996589
0.996606
0.996563
0.996417
0.996113
0.995648
0.996326
0.994715
0.995589
0.995792
0.995836
0.995897
0.995877
0.995702
0.995269
0.994535
0.995517
0.992924
0.994287
0.994555
0.99468
0.994832
0.994882
0.994708
0.994122
0.99295
0.994305
0.990053
0.992117
0.992531
0.992815
0.993149
0.993374
0.993294
0.992576
0.990699
0.99237
0.985344
0.988395
0.989084
0.989648
0.990324
0.990924
0.991176
0.990534
0.987661
0.989282
0.977441
0.98184
0.982996
0.984017
0.985277
0.986586
0.987638
0.987708
0.983485
0.983513
0.964
0.970144
0.97199
0.973672
0.975819
0.978326
0.981031
0.983798
0.981128
0.977609
0.941213
0.949396
0.952046
0.954452
0.957667
0.961796
0.966866
0.975456
0.977432
0.970079
0.903505
0.913632
0.916771
0.919469
0.923486
0.929487
0.938405
0.960038
1.01321
1.04018
0.998171
1.0029
0.998205
0.998933
0.999073
0.999069
0.99892
0.998186
1.00289
0.998174
0.990751
0.996842
0.992608
0.993859
0.994128
0.994119
0.99383
0.992567
0.996778
0.990742
0.991771
0.996079
0.993171
0.993917
0.994101
0.994096
0.993902
0.993159
0.996
0.991784
0.994463
0.997567
0.995574
0.995828
0.995878
0.995886
0.99585
0.995621
0.997518
0.994574
0.995831
0.998047
0.996888
0.997023
0.99703
0.997041
0.997049
0.996939
0.998037
0.995926
0.996416
0.9979
0.997333
0.997461
0.997473
0.997482
0.997485
0.997369
0.997935
0.996482
0.996871
0.997868
0.997589
0.997705
0.99773
0.997735
0.997724
0.997607
0.997889
0.996948
0.997278
0.997936
0.997786
0.997893
0.997929
0.997932
0.997904
0.997797
0.997935
0.997344
0.997504
0.997994
0.99791
0.998007
0.998047
0.998049
0.99801
0.997919
0.997979
0.997602
0.997701
0.998013
0.99799
0.998072
0.998106
0.998105
0.998068
0.997991
0.998011
0.99776
0.997921
0.997999
0.998048
0.998108
0.998133
0.998133
0.998102
0.998036
0.998036
0.997866
0.998005
0.998008
0.998085
0.998121
0.998142
0.998143
0.998116
0.998061
0.998051
0.997935
0.998012
0.998034
0.998091
0.998119
0.998139
0.998138
0.998114
0.998069
0.99805
0.997976
0.997952
0.998072
0.998069
0.998103
0.998123
0.99812
0.998097
0.998059
0.998033
0.997992
0.99784
0.998114
0.998035
0.998076
0.998091
0.998085
0.998063
0.998026
0.997992
0.99798
0.997868
0.998041
0.997992
0.998028
0.998037
0.998027
0.998004
0.997965
0.997919
0.99793
0.997917
0.997875
0.99793
0.997947
0.997952
0.997939
0.997914
0.997868
0.997807
0.997842
0.99779
0.997729
0.997823
0.997827
0.997832
0.997817
0.997782
0.997725
0.997639
0.997703
0.997482
0.997586
0.997641
0.997655
0.997664
0.997646
0.997594
0.997518
0.997389
0.997496
0.997056
0.997373
0.997373
0.99741
0.997427
0.997403
0.997331
0.997223
0.997027
0.997195
0.99664
0.996921
0.996988
0.997054
0.997088
0.997062
0.99697
0.99681
0.996508
0.996765
0.995977
0.99623
0.996428
0.996532
0.9966
0.996586
0.996472
0.996239
0.995761
0.996143
0.994776
0.995295
0.995573
0.995757
0.995893
0.995916
0.995787
0.995457
0.994686
0.995231
0.992892
0.993823
0.994216
0.994562
0.99483
0.994947
0.994841
0.994395
0.993142
0.99386
0.989895
0.991396
0.99202
0.992632
0.993138
0.99346
0.993479
0.992964
0.990926
0.991704
0.984975
0.987293
0.98834
0.989365
0.990285
0.991022
0.991413
0.991085
0.987937
0.988337
0.976725
0.980194
0.981921
0.983581
0.98518
0.986679
0.98791
0.98845
0.983947
0.982391
0.962767
0.967771
0.970475
0.973031
0.975657
0.978456
0.981445
0.984927
0.981778
0.976074
0.939354
0.946195
0.95007
0.953645
0.957522
0.962078
0.967606
0.976437
0.980446
0.969384
0.901223
0.909854
0.914638
0.918871
0.923814
0.930467
0.940332
0.960857
1.01346
1.04815
0.840699
0.850236
0.854627
0.857952
0.862168
0.868123
0.877032
0.886188
0.936504
0.989419
0.75476
0.763187
0.76478
0.764588
0.765505
0.768771
0.776822
0.787726
0.823456
0.909103
0.641545
0.646104
0.641863
0.635158
0.62973
0.627546
0.630846
0.640687
0.660319
0.710217
0.507593
0.505957
0.49391
0.479022
0.465284
0.454676
0.448343
0.446693
0.448952
0.460069
0.367385
0.359393
0.340782
0.319871
0.300514
0.284022
0.27073
0.260453
0.252681
0.248867
0.239527
0.227706
0.207221
0.186001
0.166889
0.150517
0.136705
0.124991
0.115018
0.107324
0.138922
0.127185
0.109823
0.0931366
0.0788062
0.0669005
0.0569798
0.0485291
0.0412461
0.0354398
0.0710814
0.0621857
0.0504864
0.0400381
0.0315726
0.0248768
0.0195105
0.0151051
0.0114515
0.00875134
0.0319612
0.0266009
0.0201983
0.0148719
0.0108233
0.00780385
0.00552553
0.00376269
0.00242304
0.0016057
0.0126562
0.0100161
0.00711184
0.00485024
0.00324108
0.00211985
0.00133688
0.00078042
0.000413379
0.000265138
0.842664
0.853802
0.856091
0.857438
0.860379
0.865341
0.873265
0.879454
0.93485
0.985654
0.75444
0.7645
0.763439
0.760668
0.759659
0.761039
0.767364
0.775072
0.808709
0.901451
0.636359
0.642419
0.635075
0.625211
0.61711
0.61215
0.612473
0.618739
0.632887
0.682586
0.495654
0.495173
0.480134
0.462129
0.44568
0.432142
0.42227
0.416168
0.41212
0.416896
0.349554
0.342372
0.322032
0.29962
0.279021
0.261119
0.245991
0.233173
0.221818
0.213863
0.220088
0.209093
0.188797
0.167975
0.149342
0.13329
0.119502
0.107304
0.0963273
0.0875033
0.122682
0.11187
0.0959533
0.080808
0.0678618
0.0571063
0.0480129
0.0400178
0.0330123
0.0276122
0.060182
0.0522474
0.0422167
0.033357
0.0261982
0.0205428
0.0159195
0.0120249
0.00879944
0.00669477
0.0259426
0.0213478
0.0161663
0.0119054
0.00866824
0.00625094
0.00438649
0.00289582
0.0018245
0.00128816
0.00987366
0.00769669
0.00545656
0.00373327
0.00250555
0.00164433
0.00103295
0.000577263
0.000309089
0.000229167
0.845064
0.857151
0.858595
0.858689
0.860268
0.863742
0.869673
0.872571
0.928171
0.982738
0.754104
0.765307
0.763037
0.75852
0.755561
0.754745
0.758169
0.763034
0.79123
0.886634
0.629757
0.637038
0.628304
0.616388
0.605868
0.597933
0.594445
0.596022
0.603594
0.646603
0.480092
0.480716
0.464677
0.44512
0.426675
0.41052
0.397172
0.386506
0.376279
0.374039
0.326326
0.320132
0.300402
0.278268
0.257444
0.238768
0.22229
0.20754
0.193652
0.182971
0.195334
0.185593
0.16743
0.148618
0.131469
0.116394
0.103158
0.0912358
0.0804027
0.0717744
0.102592
0.0933251
0.080165
0.0676135
0.0567088
0.0475013
0.0395814
0.0325818
0.0264731
0.0219568
0.0472815
0.0408339
0.0331277
0.0263447
0.0207803
0.0163101