/*--------------------------------*- C++ -*----------------------------------*\
| =========                 |                                                 |
| \\      /  F ield         | OpenFOAM: The Open Source CFD Toolbox           |
|  \\    /   O peration     | Version:  2112                                  |
|   \\  /    A nd           | Website:  www.openfoam.com                      |
|    \\/     M anipulation  |                                                 |
\*---------------------------------------------------------------------------*/
FoamFile
{
    version     2.0;
    format      ascii;
    arch        "LSB;label=32;scalar=64";
    class       volScalarField;
    location    "7.5";
    object      Ma;
}
// * * * * * * * * * * * * * * * * * * * * * * * * * * * * * * * * * * * * * //

dimensions      [0 0 0 0 0 0 0];

internalField   nonuniform List<scalar> 
7000
(
3.00001
3
3.00001
3
3.00001
2.99998
2.99992
2.9994
2.99874
2.99545
2.99226
2.97528
2.95734
2.88523
2.72528
2.34357
1.61754
0.747616
0.289557
0.386396
0.460287
0.471409
0.457135
0.436283
0.417823
0.403864
0.391034
0.37781
0.36409
0.349688
0.334559
0.319164
0.30375
0.287877
0.271
0.253167
0.234849
0.216318
0.197521
0.178664
0.160144
0.142258
0.125054
0.10829
0.0918454
0.0758224
0.0600242
0.044631
0.0282261
0.0179073
3.00001
3
3.00001
3
3.00001
2.99998
2.99992
2.99941
2.99878
2.9956
2.99252
2.97623
2.95902
2.89032
2.73238
2.36185
1.63487
0.764538
0.291321
0.379692
0.45181
0.463805
0.450691
0.430634
0.412106
0.397994
0.385194
0.372087
0.358382
0.343853
0.328575
0.313086
0.297602
0.281663
0.264802
0.247168
0.229281
0.211402
0.193458
0.175576
0.157984
0.140812
0.124047
0.107515
0.0912797
0.0756188
0.0603341
0.0456658
0.0312345
0.0263154
3.00001
3
3
3
3.00001
2.99997
2.99992
2.99941
2.9988
2.99569
2.99269
2.97676
2.95993
2.89239
2.73683
2.37024
1.64281
0.768735
0.284757
0.370766
0.441714
0.454827
0.443033
0.423815
0.405147
0.390845
0.378171
0.36539
0.35196
0.337644
0.322674
0.307612
0.292555
0.277008
0.2606
0.243559
0.226384
0.209275
0.19213
0.175045
0.158189
0.141646
0.125418
0.109382
0.0937163
0.0788066
0.0646055
0.0517236
0.0410286
0.0399926
3.00001
3
3
3
3.00001
2.99997
2.99992
2.99941
2.99882
2.99581
2.9929
2.97743
2.96111
2.89523
2.74284
2.3819
1.65811
0.78659
0.300201
0.374066
0.439413
0.453673
0.442803
0.424068
0.40482
0.389796
0.376609
0.36347
0.349697
0.335064
0.319913
0.304819
0.289814
0.274394
0.258251
0.241664
0.225103
0.208696
0.192315
0.17603
0.159947
0.144125
0.128586
0.113274
0.0984812
0.0846554
0.0718683
0.0610277
0.0533154
0.0541375
3.00001
3
3
3
3
2.99996
2.99991
2.99942
2.99885
2.99593
2.99314
2.97816
2.96236
2.89841
2.74835
2.39335
1.67104
0.799637
0.306588
0.371706
0.432904
0.449029
0.439918
0.422325
0.403008
0.387857
0.374769
0.361788
0.34809
0.333501
0.318458
0.303551
0.288765
0.273578
0.257739
0.241588
0.225616
0.209882
0.194225
0.178701
0.163384
0.148324
0.133581
0.119164
0.105398
0.0927653
0.0814395
0.0723378
0.0666943
0.0684693
3.00001
3
3
3
3
2.99996
2.99991
2.99943
2.99889
2.99607
2.99339
2.97895
2.96374
2.90177
2.75453
2.40573
1.68653
0.817092
0.319666
0.373135
0.42811
0.445924
0.438458
0.421714
0.402063
0.386503
0.373392
0.360529
0.346932
0.332499
0.317748
0.303214
0.288808
0.274017
0.258653
0.243095
0.227798
0.212777
0.197874
0.183135
0.168615
0.154361
0.140476
0.126997
0.114322
0.102916
0.0928743
0.0851552
0.080888
0.0832271
3.00001
3
3.00001
3
3
2.99996
2.99991
2.99944
2.99893
2.99624
2.99368
2.97987
2.96532
2.90572
2.76107
2.41918
1.70285
0.835856
0.333146
0.37436
0.422954
0.442748
0.436904
0.421138
0.401403
0.38531
0.372209
0.359554
0.346204
0.332085
0.31776
0.303759
0.289902
0.275651
0.260885
0.246028
0.231516
0.217305
0.203238
0.189346
0.175672
0.162299
0.149293
0.136806
0.125203
0.114828
0.105851
0.0991264
0.0958144
0.0984354
3.00001
3
3.00001
3
3
2.99996
2.99991
2.99946
2.99897
2.99642
2.99402
2.98093
2.96712
2.91021
2.76817
2.43374
1.72071
0.857102
0.348509
0.376403
0.418528
0.439633
0.435124
0.420288
0.400703
0.384149
0.371105
0.358812
0.34588
0.332265
0.318568
0.305221
0.291999
0.278408
0.264398
0.250399
0.23679
0.223482
0.210315
0.197315
0.184502
0.171972
0.159933
0.148341
0.137733
0.128372
0.120266
0.11431
0.111544
0.114379
3.00001
3
3.00001
3
3
2.99996
2.99992
2.99949
2.99903
2.99665
2.99443
2.98218
2.96928
2.91547
2.77596
2.44929
1.74022
0.880709
0.363369
0.37607
0.415928
0.437009
0.433223
0.419052
0.399762
0.383184
0.370382
0.358548
0.346186
0.333208
0.320214
0.30761
0.29513
0.282297
0.269109
0.256037
0.243431
0.231139
0.218994
0.206987
0.195159
0.183533
0.172322
0.161729
0.151916
0.143353
0.135926
0.130488
0.128217
0.131014
3.00001
3
3.00001
3
3
2.99996
2.99992
2.99951
2.99908
2.99688
2.99486
2.98375
2.9718
2.92229
2.78423
2.46663
1.76138
0.908156
0.380074
0.375813
0.414106
0.434791
0.431374
0.417846
0.399044
0.382753
0.370324
0.359024
0.347256
0.334966
0.32273
0.310885
0.299189
0.287249
0.275091
0.263133
0.251652
0.240454
0.229366
0.218357
0.207458
0.196826
0.18653
0.17672
0.167864
0.159931
0.153124
0.148063
0.145881
0.148779
3.00001
3.00001
3.00001
3
3
2.99996
2.99991
2.99955
2.99913
2.99718
2.99535
2.98561
2.97447
2.92878
2.79439
2.48656
1.78868
0.942254
0.399984
0.376357
0.412356
0.43275
0.429514
0.416519
0.398345
0.382635
0.370764
0.360047
0.348918
0.33734
0.325938
0.315008
0.304236
0.29324
0.282119
0.27132
0.261059
0.251074
0.241178
0.231311
0.221451
0.211734
0.202418
0.193494
0.185337
0.178227
0.171759
0.166996
0.165135
0.167738
3.00001
3.00001
3
3.00001
2.99999
2.99997
2.99979
2.99956
2.99843
2.99734
2.99089
2.98969
2.97512
2.9383
2.80252
2.5079
1.82026
0.98069
0.422266
0.376104
0.410743
0.431279
0.428251
0.415595
0.397961
0.382923
0.371668
0.361563
0.351152
0.340433
0.32995
0.319956
0.310181
0.300297
0.2904
0.280887
0.271922
0.263214
0.254559
0.245865
0.237156
0.228524
0.220128
0.212101
0.204735
0.198154
0.192343
0.187834
0.185777
0.188477
3.00001
3.00001
3
3
2.99999
2.99997
2.99981
2.99961
2.9986
2.99768
2.99193
2.99129
2.97794
2.94359
2.8188
2.53268
1.85926
1.02854
0.44984
0.375751
0.409018
0.430083
0.42737
0.414983
0.397882
0.383571
0.373015
0.363564
0.353857
0.344026
0.334585
0.325659
0.316965
0.308275
0.299723
0.291639
0.284093
0.276757
0.269423
0.261958
0.254458
0.247144
0.23979
0.232662
0.226184
0.220313
0.21487
0.210684
0.209009
0.211187
3.00001
3.00001
3.00001
3
2.99999
2.99998
2.99982
2.99965
2.99876
2.99794
2.99307
2.99253
2.98027
2.95258
2.83114
2.56366
1.90664
1.08662
0.482009
0.373371
0.405762
0.428157
0.426161
0.414228
0.397856
0.384409
0.37462
0.365905
0.357035
0.348175
0.339834
0.332088
0.324606
0.317178
0.310013
0.303439
0.297418
0.291575
0.285677
0.279625
0.273566
0.2676
0.26152
0.255458
0.249951
0.245117
0.240424
0.236565
0.234627
0.237053
3.00001
3.00001
3.00001
3.00001
3
2.99998
2.99992
2.9997
2.99937
2.99839
2.99637
2.9928
2.9815
2.96012
2.84848
2.59796
1.96442
1.16055
0.521337
0.368612
0.400647
0.425255
0.424422
0.413051
0.397567
0.385097
0.376142
0.368275
0.360451
0.352805
0.345709
0.339195
0.333027
0.327068
0.321469
0.316485
0.312049
0.307786
0.303446
0.299
0.294628
0.290067
0.285396
0.28082
0.276523
0.272765
0.269155
0.266017
0.264715
0.266373
3.00001
3.00001
3.00001
3
2.99999
2.99997
2.99986
2.99971
2.99908
2.99833
2.9948
2.99561
2.98066
2.97605
2.87141
2.64361
2.03236
1.24724
0.574155
0.364078
0.395639
0.423395
0.424417
0.413337
0.398491
0.38647
0.377996
0.370816
0.363928
0.357494
0.35175
0.346649
0.341991
0.337698
0.333911
0.330764
0.328089
0.325529
0.322847
0.320086
0.317677
0.314946
0.312081
0.309218
0.306789
0.30474
0.302472
0.30049
0.299557
0.302048
3.00001
3.00001
3.00001
3
3
2.99994
2.99987
2.99953
2.99917
2.9973
2.99527
2.9844
2.98196
2.95822
2.87929
2.65375
2.21379
1.3436
0.680224
0.383217
0.411986
0.441199
0.442087
0.429007
0.412704
0.398433
0.38811
0.379836
0.372475
0.366027
0.360672
0.35631
0.352715
0.349793
0.347609
0.346205
0.345325
0.344593
0.34386
0.343228
0.342897
0.342431
0.341742
0.341238
0.340954
0.341474
0.341942
0.342113
0.343196
0.345481
3.00001
3.00001
3.00001
3.00001
3
2.99998
2.99991
2.99984
2.99949
2.99905
2.99777
2.99383
2.99073
2.96247
2.89468
2.72007
2.34799
1.56397
0.802681
0.435408
0.457708
0.483993
0.486016
0.47002
0.449974
0.430724
0.415993
0.404066
0.393825
0.38512
0.378082
0.372645
0.368596
0.365853
0.364367
0.364075
0.364622
0.365539
0.36685
0.368734
0.370763
0.372686
0.375016
0.37763
0.380846
0.384584
0.389184
0.393688
0.398577
0.405081
3.00001
3.00001
3.00001
3.00001
3
2.99999
2.99993
2.99988
2.99962
2.99926
2.99837
2.99458
2.9932
2.96705
2.91267
2.76131
2.42551
1.71337
0.880315
0.443763
0.46528
0.496389
0.510116
0.500434
0.483087
0.463531
0.447465
0.434431
0.422868
0.412576
0.403866
0.396927
0.391763
0.388371
0.386711
0.386644
0.387846
0.389918
0.392869
0.396825
0.401456
0.406374
0.411925
0.418683
0.426626
0.436475
0.44762
0.460696
0.475307
0.49224
3.00001
3.00001
3.00001
3.00001
3
3
2.99997
2.99994
2.99986
2.99954
2.99903
2.99609
2.9949
2.97482
2.9387
2.80186
2.50256
1.80683
0.97287
0.469684
0.448984
0.485083
0.507499
0.507086
0.496459
0.48197
0.469073
0.458644
0.449
0.439738
0.431322
0.424246
0.418854
0.415298
0.413589
0.413543
0.415282
0.41843
0.422663
0.428266
0.435148
0.443183
0.452752
0.464226
0.478429
0.496062
0.519434
0.549271
0.592057
0.675182
3.00001
3.00001
3.00001
3.00001
3.00001
3
2.99999
2.99998
2.99985
2.99963
2.9986
2.99757
2.98866
2.98659
2.93713
2.82171
2.51771
1.96836
1.0441
0.550005
0.435913
0.465344
0.491385
0.49832
0.49456
0.486905
0.479592
0.474407
0.46984
0.465076
0.460262
0.456024
0.452834
0.450867
0.450378
0.451913
0.455344
0.460076
0.466365
0.474197
0.484306
0.496457
0.511684
0.530521
0.554171
0.585076
0.625872
0.6851
0.775366
0.895769
3.00001
3.00001
3.00001
3.00001
3.00001
3
2.99999
2.99998
2.99988
2.99967
2.99892
2.99792
2.99123
2.98844
2.94684
2.85474
2.60583
2.14237
1.24174
0.670749
0.44795
0.468247
0.494741
0.504901
0.50335
0.497924
0.492147
0.488946
0.487129
0.485596
0.484045
0.4827
0.482104
0.482894
0.48506
0.488554
0.493902
0.500763
0.509503
0.520337
0.53325
0.549659
0.569208
0.594441
0.625547
0.665841
0.718424
0.786087
0.887086
0.991719
3.00001
3.00001
3.00001
3.00001
3.00001
3.00001
3
2.99998
2.99992
2.99983
2.99923
2.99897
2.99496
2.98625
2.96409
2.88894
2.72766
2.35659
1.64915
0.848651
0.480919
0.499736
0.529636
0.545498
0.541906
0.533157
0.524684
0.518866
0.515592
0.513563
0.51233
0.512223
0.513376
0.515707
0.519251
0.524145
0.530746
0.539677
0.550362
0.563795
0.57962
0.59873
0.621982
0.649631
0.684564
0.725713
0.778895
0.839662
0.921802
0.996514
3.00001
3.00001
3.00001
3.00001
3.00001
3
2.99999
2.99998
2.99989
2.99978
2.99897
2.99775
2.99077
2.98953
2.97375
2.93027
2.78318
2.46287
1.75813
0.932245
0.478264
0.488559
0.528466
0.555987
0.560315
0.555264
0.549126
0.544504
0.542105
0.540787
0.540424
0.54174
0.544188
0.547495
0.55203
0.558051
0.565659
0.575347
0.58743
0.601774
0.619398
0.639423
0.664209
0.691947
0.726296
0.764147
0.811208
0.861222
0.925075
0.98244
3.00001
3.00001
3.00001
3.00001
3.00001
3.00001
3
2.99999
2.99996
2.99992
2.9996
2.99919
2.99646
2.99493
2.97923
2.96103
2.83774
2.55893
1.88705
1.0764
0.54624
0.48215
0.51559
0.54582
0.556056
0.556411
0.554708
0.553761
0.554535
0.556032
0.558881
0.562968
0.567571
0.572843
0.579137
0.586722
0.595856
0.606574
0.619535
0.634299
0.652287
0.672233
0.696543
0.722739
0.754458
0.788385
0.828031
0.871731
0.920574
0.967391
3.00001
3.00001
3.00001
3.00001
3.00001
3.00001
3
2.99999
2.99997
2.99981
2.99961
2.99786
2.99529
2.98038
2.97692
2.94698
2.85905
2.60462
2.13415
1.23036
0.683521
0.491498
0.513401
0.540311
0.55527
0.558759
0.558814
0.559467
0.561635
0.565141
0.57052
0.576923
0.583491
0.590587
0.598652
0.607802
0.618354
0.630159
0.643904
0.659098
0.676985
0.69647
0.71929
0.744121
0.772188
0.803061
0.837131
0.874423
0.913716
0.950962
3.00001
3.00001
3.00001
3.00001
3.00001
3.00001
3
2.99999
2.99997
2.99985
2.99971
2.99859
2.99687
2.9869
2.9847
2.96505
2.90285
2.73804
2.37953
1.66362
0.880115
0.522546
0.53166
0.558754
0.580735
0.583596
0.580508
0.578653
0.578547
0.581469
0.586632
0.592642
0.599208
0.606613
0.615257
0.625046
0.636289
0.648534
0.662525
0.677649
0.69488
0.713527
0.73444
0.757467
0.782493
0.810038
0.839813
0.871075
0.904433
0.935188
3.00001
3.00001
3.00001
3.00001
3.00001
3.00001
3
3
2.99999
2.99991
2.99984
2.9992
2.99823
2.99279
2.99139
2.97586
2.94508
2.80985
2.50198
1.80688
0.997723
0.530858
0.517282
0.553745
0.584269
0.593751
0.594156
0.593524
0.594153
0.59735
0.602554
0.608437
0.614912
0.622232
0.630845
0.640569
0.651797
0.664004
0.677616
0.69244
0.708558
0.726282
0.745105
0.765644
0.788043
0.812067
0.837536
0.863705
0.891653
0.917871
3.00001
3.00001
3.00001
3.00001
3.00001
3.00001
3.00001
3
3
2.99996
2.99991
2.99954
2.99901
2.99593
2.99407
2.97376
2.97326
2.84732
2.59803
1.95975
1.16929
0.614016
0.509918
0.538195
0.568597
0.585857
0.591629
0.59397
0.597117
0.602183
0.608982
0.616182
0.623985
0.632233
0.641591
0.651718
0.663025
0.67534
0.688611
0.703013
0.71844
0.734947
0.752628
0.771253
0.791044
0.81189
0.833414
0.855884
0.879491
0.901565
3.00001
3.00001
3.00001
3.00001
3.00001
3.00001
3.00001
3
2.99999
2.99997
2.99985
2.99977
2.99858
2.99695
2.9865
2.98507
2.96168
2.89524
2.68578
2.27961
1.44794
0.804623
0.538791
0.549596
0.575503
0.597517
0.60393
0.605171
0.607389
0.611782
0.617919
0.62477
0.632456
0.640653
0.649889
0.659903
0.670867
0.682846
0.69563
0.709407
0.724035
0.739556
0.755916
0.773281
0.791286
0.809704
0.828638
0.848264
0.868731
0.887648
3.00001
3.00001
3.00001
3.00001
3.00001
3.00001
3.00001
3
3
2.99999
2.99992
2.99986
2.99925
2.99836
2.99289
2.99169
2.97541
2.94254
2.79426
2.46971
1.75547
0.955585
0.539505
0.535778
0.571093
0.60321
0.615609
0.618699
0.621025
0.624867
0.630179
0.636317
0.643277
0.650905
0.659302
0.668609
0.678611
0.689609
0.701341
0.713975
0.727405
0.741614
0.756659
0.772429
0.788458
0.805123
0.822207
0.839759
0.857815
0.874426
3.00001
3.00001
3.00001
3.00001
3.00001
3.00001
3.00001
3
3
2.99998
2.99995
2.99977
2.9996
2.99762
2.99491
2.97644
2.97514
2.93651
2.82378
2.51761
1.95017
1.05522
0.596637
0.512806
0.54862
0.584982
0.606159
0.615407
0.620944
0.626641
0.633343
0.640765
0.648501
0.656753
0.665434
0.674731
0.684535
0.694983
0.706069
0.717765
0.730008
0.743046
0.756586
0.770528
0.78495
0.799854
0.815171
0.830761
0.846808
0.861439
3.00001
3.00001
3.00001
3.00001
3.00001
3.00001
3.00001
3.00001
3
3
2.99997
2.99995
2.9997
2.99945
2.99763
2.99549
2.97673
2.97621
2.86296
2.65706
2.06638
1.31581
0.690319
0.509484
0.532921
0.566508
0.592789
0.605333
0.612922
0.620358
0.628729
0.637841
0.647249
0.656882
0.666574
0.676516
0.686657
0.697165
0.707982
0.719278
0.731124
0.743349
0.75584
0.768567
0.781672
0.795109
0.808894
0.822833
0.837107
0.850114
3.00001
3.00001
3.00001
3.00001
3.00001
3.00001
3.00001
3.00001
3
3
2.99999
2.99992
2.99985
2.99914
2.99812
2.99154
2.98991
2.97111
2.92953
2.7658
2.41327
1.68457
0.898554
0.524314
0.531719
0.565627
0.59784
0.610901
0.616359
0.622005
0.62931
0.637947
0.647353
0.657187
0.66713
0.677301
0.687581
0.69804
0.708726
0.719729
0.730973
0.74232
0.753891
0.765768
0.777952
0.790314
0.802873
0.815497
0.828328
0.84003
3.00001
3.00001
3.00001
3.00001
3.00001
3.00001
3.00001
3.00001
3.00001
3
2.99999
2.99995
2.99991
2.99949
2.99892
2.99509
2.99402
2.96837
2.9705
2.82161
2.5255
1.83052
1.02389
0.539156
0.507477
0.54512
0.583153
0.60224
0.611182
0.618359
0.626465
0.635808
0.64565
0.655675
0.665726
0.675833
0.68596
0.696392
0.706998
0.717687
0.7284
0.739243
0.750318
0.761557
0.773004
0.784534
0.796164
0.807808
0.819598
0.830341
3.00001
3.00001
3.00001
3.00001
3.00001
3.00001
3.00001
3.00001
3
3
2.99998
2.99997
2.99983
2.99974
2.99843
2.99662
2.98363
2.98524
2.95356
2.85815
2.58384
2.0849
1.18652
0.664495
0.500032
0.529161
0.568017
0.59596
0.609383
0.6176
0.625665
0.634705
0.644306
0.654085
0.663919
0.67401
0.684223
0.694442
0.704602
0.714674
0.724722
0.73494
0.745359
0.755825
0.766388
0.77706
0.787821
0.798653
0.809605
0.819612
3.00001
3.00001
3.00001
3.00001
3.00001
3.00001
3.00001
3.00001
3.00001
3
2.99999
2.99999
2.99991
2.99986
2.99904
2.9979
2.99003
2.98797
2.96599
2.90953
2.73076
2.34731
1.60005
0.839756
0.498096
0.523365
0.568233
0.60732
0.623819
0.629732
0.634613
0.641027
0.648627
0.656992
0.665757
0.674735
0.68377
0.692849
0.702019
0.711384
0.720907
0.730443
0.740086
0.749811
0.759559
0.769389
0.779263
0.789174
0.799293
0.808492
3.00001
3.00001
3.00001
3.00001
3.00001
3.00001
3.00001
3.00001
3.00001
3
3
2.99998
2.99996
2.99977
2.9995
2.99772
2.99686
2.98451
2.98578
2.9164
2.76049
2.38659
1.71952
0.829745
0.459852
0.482103
0.536414
0.58557
0.609322
0.619677
0.626678
0.634027
0.642074
0.650702
0.659585
0.668524
0.677537
0.686526
0.695584
0.704773
0.714028
0.723311
0.732557
0.741875
0.751209
0.760588
0.770035
0.779449
0.789049
0.79776
3.00001
3.00001
3.00001
3.00001
3.00001
3.00001
3.00001
3.00001
3.00001
3.00001
3
2.99999
2.99997
2.99983
2.99966
2.99842
2.99741
2.99029
2.97667
2.93601
2.81181
2.49103
1.89861
0.988324
0.549515
0.486322
0.5269
0.57136
0.597014
0.608838
0.616315
0.624036
0.63261
0.641395
0.650005
0.658651
0.667714
0.676985
0.686408
0.695856
0.70525
0.714662
0.723917
0.733163
0.742358
0.751477
0.76063
0.769686
0.778891
0.787238
3.00001
3.00001
3.00001
3.00001
3.00001
3.00001
3.00001
3.00001
3.00001
3.00001
3
3
2.99996
2.99993
2.99965
2.99935
2.9969
2.99532
2.97607
2.97224
2.85642
2.61457
2.01236
1.24459
0.620468
0.467203
0.502642
0.548289
0.577405
0.590867
0.599205
0.60756
0.616717
0.626205
0.635822
0.645393
0.655012
0.664594
0.674156
0.6838
0.693434
0.703129
0.712765
0.722297
0.73179
0.741114
0.750341
0.75939
0.768459
0.776685
3.00001
3.00001
3.00001
3.00001
3.00001
3.00001
3.00001
3.00001
3.00001
3.00001
3
2.99999
2.99992
2.99991
2.99975
2.9995
2.99767
2.99627
2.98048
2.98408
2.88104
2.69288
2.14101
1.41821
0.687567
0.448402
0.480929
0.527071
0.55878
0.572843
0.580553
0.588375
0.597679
0.607923
0.618479
0.628979
0.639346
0.649578
0.659671
0.669734
0.679636
0.68951
0.699207
0.708803
0.718288
0.727597
0.73699
0.746179
0.755475
0.763874
3.00001
3.00001
3.00001
3.00001
3.00001
3.00001
3.00001
3.00001
3.00001
3.00001
3
3
2.99999
2.99992
2.99988
2.99937
2.99872
2.99419
2.99541
2.97383
2.95636
2.7967
2.43474
1.68164
0.890059
0.477728
0.490902
0.529863
0.565136
0.577163
0.579972
0.58345
0.589791
0.598022
0.607071
0.616432
0.62601
0.635716
0.645495
0.655345
0.66527
0.675179
0.685085
0.694644
0.704164
0.713455
0.722645
0.731856
0.740914
0.749399
3.00001
3.00001
3.00001
3.00001
3.00001
3.00001
3.00001
3.00001
3.00001
3.00001
3.00001
3
3
2.99996
2.99994
2.99948
2.99889
2.99471
2.99308
2.96711
2.97116
2.82117
2.52137
1.82476
1.0251
0.508433
0.472756
0.512421
0.550747
0.56538
0.569139
0.572397
0.577991
0.585311
0.593535
0.602134
0.610973
0.620046
0.629321
0.638844
0.648608
0.658377
0.668256
0.678018
0.687784
0.697376
0.706871
0.71629
0.725611
0.734165
3.00001
3.00001
3.00001
3.00001
3.00001
3.00001
3.00001
3.00001
3.00001
3.00001
3.00001
3
2.99999
2.99995
2.99993
2.99958
2.99915
2.99592
2.99438
2.97259
2.97849
2.8471
2.60598
1.95285
1.17613
0.575323
0.447462
0.481137
0.522399
0.545415
0.553712
0.557807
0.562697
0.569112
0.576439
0.584185
0.592342
0.601026
0.610193
0.619823
0.629798
0.639904
0.650031
0.660093
0.670126
0.680058
0.689915
0.699619
0.709315
0.71807
3.00001
3.00001
3.00001
3.00001
3.00001
3.00001
3.00001
3.00001
3.00001
3.00001
3
3
2.99999
2.99999
2.99985
2.99968
2.99842
2.99754
2.98915
2.98744
2.96222
2.8988
2.68327
2.24344
1.39815
0.737645
0.45255
0.486539
0.535039
0.56785
0.578592
0.579959
0.580459
0.582596
0.586072
0.590318
0.59521
0.600845
0.607351
0.614673
0.62266
0.631197
0.640111
0.649289
0.658593
0.667941
0.677347
0.686664
0.696056
0.704566
3.00001
3.00001
3.00001
3.00001
3.00001
3.00001
3.00001
3.00001
3.00001
3.00001
3.00001
3
3
2.99999
2.99994
2.9999
2.99942
2.99891
2.99479
2.99391
2.97451
2.93392
2.79099
2.41022
1.6392
0.841312
0.419879
0.461613
0.518289
0.564986
0.581824
0.584786
0.585422
0.587418
0.590735
0.594653
0.598826
0.603433
0.608642
0.614521
0.621
0.627972
0.635344
0.643042
0.650958
0.65909
0.667367
0.675758
0.684291
0.692128
3.00001
3.00001
3.00001
3.00001
3.00001
3.00001
3.00001
3.00001
3.00001
3.00001
3.00001
3
2.99999
2.99998
2.99988
2.99984
2.99903
2.99823
2.9913
2.99354
2.96058
2.97077
2.79599
2.46548
1.72318
0.906136
0.422135
0.438386
0.493016
0.540957
0.560272
0.565872
0.569033
0.573314
0.578558
0.584222
0.589858
0.595576
0.601409
0.607466
0.613821
0.620357
0.62707
0.633939
0.640857
0.647997
0.655207
0.662631
0.670293
0.677374
3.00001
3.00001
3.00001
3.00001
3.00001
3.00001
3.00001
3.00001
3.00001
3.00001
3.00001
3
3
2.99997
2.99997
2.99985
2.9997
2.99825
2.99681
2.98366
2.98466
2.92408
2.80262
2.47718
1.86438
0.91967
0.466296
0.408208
0.457264
0.5063
0.530981
0.541848
0.549151
0.556735
0.564899
0.573171
0.581208
0.588971
0.596387
0.603605
0.610653
0.61754
0.624247
0.630777
0.637116
0.643469
0.64986
0.656393
0.663172
0.669426
3.00001
3.00001
3.00001
3.00001
3.00001
3.00001
3.00001
3.00001
3.00001
3.00001
3.00001
3
3
2.99998
2.99995
2.99978
2.99961
2.99809
2.99631
2.98221
2.97956
2.94262
2.84026
2.54859
2.00091
1.07005
0.555952
0.402589
0.443146
0.495113
0.52731
0.542304
0.551179
0.559678
0.56883
0.578122
0.586986
0.595454
0.60368
0.611407
0.618647
0.625444
0.63185
0.637933
0.643719
0.649305
0.654831
0.660368
0.666104
0.671386
3.00001
3.00001
3.00001
3.00001
3.00001
3.00001
3.00001
3.00001
3.00001
3.00001
3.00001
3
3
2.99999
2.99997
2.99983
2.99976
2.99858
2.99717
2.98703
2.98463
2.95471
2.87559
2.62561
2.14233
1.2655
0.644489
0.386505
0.439451
0.508105
0.547087
0.560749
0.566146
0.57179
0.578931
0.586681
0.594349
0.601937
0.609379
0.616462
0.623171
0.629515
0.635547
0.641309
0.646864
0.65222
0.657474
0.662621
0.667861
0.672684
3.00001
3.00001
3.00001
3.00001
3.00001
3.00001
3.00001
3.00001
3.00001
3.00001
3.00001
3
3
2.99998
2.99995
2.99977
2.99974
2.99932
2.9988
2.99343
2.99414
2.96138
2.90142
2.69887
2.29023
1.46338
0.71839
0.350478
0.427238
0.512734
0.54968
0.558263
0.560558
0.564652
0.571088
0.578379
0.585786
0.593107
0.600205
0.607234
0.614012
0.620667
0.627103
0.633324
0.639454
0.645319
0.651161
0.656842
0.662567
0.667845
3.00001
3.00001
3.00001
3.00001
3.00001
3.00001
3.00001
3.00001
3.00001
3.00001
3.00001
3.00001
3
3
2.99999
2.99993
2.99988
2.99947
2.9989
2.99552
2.99308
2.97064
2.93665
2.75253
2.35576
1.55371
0.749219
0.311878
0.40749
0.496419
0.53207
0.540877
0.544079
0.548762
0.555469
0.562974
0.570765
0.578461
0.585964
0.59345
0.600604
0.607814
0.614693
0.621575
0.628263
0.634797
0.641333
0.647646
0.654047
0.659811
3.00001
3.00001
3.00001
3.00001
3.00001
3.00001
3.00001
3.00001
3.00001
3.00001
3.00001
3.00001
3
2.99999
2.99998
2.99987
2.9998
2.99903
2.99821
2.9917
2.99297
2.96409
2.94835
2.77946
2.37649
1.60344
0.782447
0.315886
0.398005
0.475951
0.515798
0.528742
0.533119
0.537521
0.543761
0.551339
0.559269
0.566982
0.574556
0.581936
0.589183
0.596428
0.603414
0.610555
0.617389
0.624375
0.631138
0.637872
0.64456
0.650604
3.00001
3.00001
3.00001
3.00001
3.00001
3.00001
3.00001
3.00001
3.00001
3.00001
3.00001
3.00001
3
2.99999
2.99998
2.99986
2.9998
2.99894
2.99804
2.99033
2.99335
2.95486
2.96317
2.77757
2.42088
1.64538
0.824867
0.338232
0.393059
0.457924
0.505121
0.523042
0.528006
0.531537
0.536937
0.543782
0.551109
0.558424
0.565669
0.572793
0.579975
0.587029
0.594119
0.601158
0.608048
0.615038
0.621714
0.628511
0.635013
0.641058
3.00001
3.00001
3.00001
3.00001
3.00001
3.00001
3.00001
3.00001
3.00001
3.00001
3.00001
3
3
2.99998
2.99995
2.99973
2.99973
2.99905
2.99824
2.9906
2.99445
2.95898
2.96103
2.79522
2.42593
1.68192
0.85639
0.358834
0.392837
0.450402
0.499888
0.51946
0.524236
0.526909
0.531363
0.537316
0.543853
0.550572
0.557276
0.564039
0.570847
0.577617
0.584492
0.591185
0.59796
0.604534
0.611038
0.617467
0.623681
0.62945
3.00001
3.00001
3.00001
3.00001
3.00001
3.00001
3.00001
3.00001
3.00001
3.00001
3.00001
3.00001
3.00001
2.99999
2.99998
2.99989
2.99979
2.99906
2.99814
2.99132
2.99341
2.96005
2.96668
2.79794
2.44104
1.70961
0.888231
0.380392
0.394886
0.450107
0.498295
0.517
0.521091
0.522833
0.526126
0.530889
0.536181
0.541724
0.547359
0.553201
0.559204
0.565351
0.571576
0.577834
0.584153
0.590468
0.596931
0.60338
0.610026
0.616139
3.00001
3.00001
3.00001
3.00001
3.00001
3.00001
3.00001
3.00001
3.00001
3.00001
3.00001
3.00001
3
3
2.99998
2.99996
2.99977
2.99958
2.99784
2.99698
2.98482
2.98818
2.91658
2.77262
2.40129
1.73332
0.788865
0.36938
0.374468
0.429891
0.478715
0.501038
0.509678
0.515634
0.522636
0.530675
0.538993
0.547227
0.555317
0.563332
0.571252
0.579038
0.586578
0.593907
0.600973
0.607834
0.614492
0.620894
0.62735
0.633149
3.00001
3.00001
3.00001
3.00001
3.00001
3.00001
3.00001
3.00001
3.00001
3.00001
3.00001
3.00001
3
3
2.99998
2.99996
2.99979
2.99958
2.99805
2.99713
2.98615
2.98311
2.92512
2.77786
2.42947
1.77221
0.826974
0.398478
0.383096
0.435483
0.48431
0.506804
0.515994
0.522974
0.531342
0.540942
0.550924
0.560733
0.570158
0.579194
0.587858
0.596023
0.60371
0.611127
0.618272
0.625114
0.631675
0.637992
0.644201
0.649899
3.00001
3.00001
3.00001
3.00001
3.00001
3.00001
3.00001
3.00001
3.00001
3.00001
3.00001
3.00001
3
2.99999
2.99998
2.99988
2.99982
2.99907
2.99826
2.99142
2.9939
2.96283
2.97094
2.80173
2.48523
1.74421
0.941452
0.411619
0.393992
0.446099
0.494787
0.513746
0.517338
0.517831
0.519867
0.523191
0.527101
0.531193
0.535424
0.539902
0.544742
0.550091
0.556288
0.563192
0.570591
0.578427
0.586521
0.594973
0.603539
0.61162
3.00001
3.00001
3.00001
3.00001
3.00001
3.00001
3.00001
3.00001
3.00001
3.00001
3.00001
3.00001
3
3
2.99998
2.99997
2.9998
2.99964
2.99817
2.99749
2.98704
2.98674
2.92476
2.78491
2.444
1.7978
0.852343
0.412549
0.381508
0.435486
0.487002
0.510328
0.51896
0.524826
0.532044
0.540568
0.549464
0.558056
0.566144
0.573845
0.580934
0.587343
0.593762
0.600273
0.606793
0.613205
0.619684
0.626596
0.633671
0.64022
1.22946
0.874428
0.417937
0.256012
0.176112
0.314343
0.351896
0.362447
0.356052
0.34923
0.344789
0.339628
0.33129
0.316571
0.298214
0.275837
0.251444
0.225178
0.197776
0.169609
0.14093
0.112167
0.0834008
0.0551148
0.0294331
0.0177196
0.0389793
0.0650999
0.0918747
0.117404
0.142475
0.166703
0.190243
0.21304
0.234233
0.254191
0.274838
0.296596
0.317835
0.338186
0.357755
0.376952
0.395445
0.413756
0.431341
0.448881
0.465652
0.482478
0.498467
0.514543
0.529905
0.545344
0.560097
0.574952
0.589188
0.603454
0.617322
0.63108
0.644496
0.657735
0.670629
0.683377
0.695803
0.70806
0.720024
0.73175
0.743215
0.754395
0.76529
0.775882
0.786135
0.796038
0.805604
0.814746
0.823504
0.831821
0.83963
0.84697
0.853712
0.859873
0.865349
0.870075
0.873997
0.876907
0.878802
0.879936
0.880816
0.881182
0.880677
0.878735
0.875266
0.871343
0.866433
0.861589
0.856237
0.851439
0.846789
0.843489
0.8408
0.84453
1.14164
0.940366
0.707457
0.481814
0.422047
0.333849
0.255128
0.192491
0.130679
0.0817815
0.0605569
0.0361786
0.0535535
0.0612545
0.0786875
0.0944695
0.114115
0.134457
0.15598
0.178435
0.201021
0.224083
0.246986
0.269965
0.292474
0.314234
0.335495
0.35691
0.378121
0.399091
0.419601
0.439872
0.459598
0.479035
0.497388
0.514764
0.531985
0.550166
0.568387
0.58577
0.602322
0.618464
0.634153
0.649526
0.664485
0.679116
0.693325
0.707198
0.720661
0.733797
0.746569
0.759015
0.771169
0.783001
0.794562
0.80586
0.816931
0.827833
0.838533
0.849059
0.859385
0.869519
0.879447
0.889171
0.898686
0.908008
0.917175
0.926103
0.934943
0.943455
0.951877
0.959981
0.967893
0.975612
0.98298
0.99018
0.996948
1.00337
1.00931
1.01476
1.01958
1.02377
1.02734
1.02983
1.03173
1.03271
1.03379
1.03435
1.03435
1.03298
1.0306
1.02755
1.02384
1.01999
1.01576
1.01199
1.0083
1.00574
1.00339
1.0067
1.09398
1.04125
0.93767
0.846019
0.784769
0.729194
0.672781
0.625696
0.586842
0.554681
0.531161
0.517214
0.50726
0.49962
0.493491
0.491024
0.492683
0.498257
0.505898
0.515687
0.526847
0.539076
0.551958
0.565517
0.579052
0.592314
0.605277
0.618402
0.631737
0.645271
0.658925
0.672673
0.686535
0.700425
0.713979
0.726928
0.73992
0.753747
0.76833
0.782697
0.79659
0.81017
0.82362
0.836853
0.849991
0.862909
0.875686
0.888285
0.900697
0.912947
0.924988
0.936847
0.948497
0.959922
0.971138
0.982114
0.992865
1.0034
1.01374
1.02383
1.03377
1.0434
1.05293
1.0621
1.07116
1.07981
1.08827
1.09636
1.10417
1.11162
1.11872
1.12551
1.1319
1.13802
1.14376
1.14921
1.1543
1.15911
1.16348
1.1676
1.17112
1.1743
1.17683
1.17869
1.17962
1.18014
1.18047
1.18052
1.17985
1.17823
1.17572
1.17269
1.16914
1.1652
1.16139
1.15755
1.15439
1.1518
1.1496
1.15244
1.07327
1.07714
1.04351
1.00531
0.975322
0.950673
0.92601
0.900302
0.875251
0.854076
0.839016
0.831608
0.828101
0.826772
0.821859
0.815038
0.810238
0.806984
0.804735
0.803381
0.803036
0.803395
0.804613
0.806602
0.808977
0.812113
0.815911
0.820623
0.826157
0.832531
0.839573
0.84725
0.855438
0.864064
0.872685
0.881111
0.889689
0.899181
0.909783
0.920947
0.931954
0.942892
0.953798
0.964735
0.975659
0.986546
0.997355
1.00811
1.01877
1.02941
1.03999
1.05053
1.06104
1.07144
1.08184
1.09205
1.10227
1.11229
1.12224
1.13204
1.1417
1.1512
1.16059
1.16969
1.17881
1.18749
1.19623
1.20452
1.21271
1.22058
1.22814
1.23543
1.24238
1.24896
1.2552
1.26102
1.26642
1.27138
1.27588
1.27985
1.28331
1.28616
1.28845
1.28996
1.29062
1.29074
1.29082
1.29034
1.28943
1.28754
1.28483
1.28183
1.27795
1.27409
1.26961
1.26572
1.2615
1.25863
1.25499
1.25661
1.04639
1.0757
1.07859
1.0727
1.0677
1.06388
1.05894
1.0522
1.04333
1.03615
1.03017
1.02731
1.02496
1.02389
1.02091
1.01444
1.00688
1.00007
0.994165
0.98878
0.983848
0.979524
0.975824
0.972763
0.970631
0.969254
0.968635
0.968726
0.969808
0.971622
0.974228
0.977478
0.981478
0.985998
0.990786
0.995491
1.00055
1.00645
1.01364
1.02172
1.03014
1.03881
1.04772
1.05689
1.06622
1.07569
1.08519
1.09473
1.1042
1.11365
1.12298
1.13229
1.14149
1.15065
1.15978
1.16881
1.1779
1.18687
1.19592
1.20487
1.21387
1.22276
1.23168
1.24044
1.24918
1.25776
1.26623
1.27455
1.28264
1.29057
1.29823
1.30566
1.31276
1.31959
1.32601
1.3321
1.33774
1.34294
1.34769
1.35188
1.35555
1.35861
1.36109
1.36282
1.36371
1.3641
1.3644
1.36421
1.36337
1.36197
1.35952
1.35726
1.35379
1.35066
1.34656
1.34316
1.3391
1.33636