/*--------------------------------*- C++ -*----------------------------------*\
| =========                 |                                                 |
| \\      /  F ield         | OpenFOAM: The Open Source CFD Toolbox           |
|  \\    /   O peration     | Version:  2112                                  |
|   \\  /    A nd           | Website:  www.openfoam.com                      |
|    \\/     M anipulation  |                                                 |
\*---------------------------------------------------------------------------*/
FoamFile
{
    version     2.0;
    format      ascii;
    arch        "LSB;label=32;scalar=64";
    class       volScalarField;
    location    "7.5";
    object      p;
}
// * * * * * * * * * * * * * * * * * * * * * * * * * * * * * * * * * * * * * //

dimensions      [1 -1 -2 0 0 0 0];

internalField   nonuniform List<scalar> 
7000
(
0.999999
1
1
1
1
0.999992
1.00009
1.00034
1.00119
1.00257
1.00733
1.01404
1.04121
1.06517
1.28891
1.48694
2.88317
5.51878
11.9923
11.4262
10.6291
10.4257
10.4723
10.5913
10.718
10.8038
10.8699
10.9352
11.0038
11.0731
11.1414
11.2084
11.2741
11.3379
11.399
11.4571
11.512
11.563
11.6094
11.6514
11.6889
11.7219
11.7508
11.7758
11.7974
11.8159
11.8308
11.843
11.8523
11.8613
1
1.00001
1.00001
1
1
0.999994
1.00009
1.00034
1.00116
1.00248
1.00708
1.01353
1.03976
1.06171
1.28361
1.46153
2.84652
5.3878
11.8329
11.3904
10.6378
10.4328
10.4736
10.5833
10.7092
10.7963
10.8633
10.9289
10.9975
11.0669
11.1353
11.2025
11.2684
11.3324
11.3938
11.4522
11.5073
11.5587
11.6054
11.6477
11.6855
11.7189
11.7481
11.7734
11.7952
11.8138
11.8289
11.8411
11.8503
11.8591
1
1.00001
1.00001
1.00001
1
0.999999
1.0001
1.00033
1.00114
1.00243
1.00693
1.01321
1.0389
1.06016
1.27977
1.44962
2.82846
5.32861
11.7895
11.3602
10.6538
10.4469
10.4815
10.5807
10.7055
10.7941
10.8619
10.9275
10.9957
11.0647
11.1327
11.1995
11.2649
11.3283
11.3892
11.4471
11.5017
11.5525
11.5988
11.6409
11.6786
11.7121
11.7415
11.7668
11.7887
11.8073
11.8223
11.8344
11.8432
11.8509
1
1
1.00001
1.00001
1.00001
1
1.0001
1.00033
1.00111
1.00236
1.00673
1.0128
1.0378
1.05819
1.27406
1.43482
2.79838
5.23005
11.6428
11.2986
10.668
10.4492
10.4774
10.5667
10.6915
10.7824
10.8516
10.9176
10.9858
11.0546
11.1226
11.1893
11.2545
11.3178
11.3784
11.4361
11.4905
11.541
11.5872
11.6292
11.6669
11.7005
11.7301
11.7556
11.7776
11.7962
11.8111
11.823
11.8313
11.8382
1
1
1.00001
1.00001
1.00002
1.00001
1.00011
1.00033
1.00109
1.00229
1.00651
1.01237
1.03662
1.05591
1.26915
1.41922
2.77222
5.14168
11.53
11.2424
10.6888
10.4595
10.4797
10.5567
10.681
10.7739
10.8441
10.9098
10.9773
11.0454
11.1127
11.1788
11.2433
11.3057
11.3656
11.4227
11.4763
11.5261
11.5718
11.6135
11.6511
11.6846
11.7142
11.7398
11.7619
11.7805
11.7953
11.807
11.815
11.8215
1
1
1.00001
1
1.00002
1.00002
1.00012
1.00033
1.00106
1.00221
1.00628
1.0119
1.03534
1.0535
1.2634
1.40289
2.74194
5.04128
11.3841
11.1693
10.7033
10.4617
10.4736
10.5387
10.6627
10.7593
10.8312
10.8969
10.9638
11.0314
11.0982
11.1637
11.2276
11.2894
11.3486
11.4049
11.4578
11.5069
11.552
11.5932
11.6305
11.6639
11.6935
11.7191
11.7412
11.7597
11.7743
11.7858
11.7936
11.7997
1
1
1.00001
1
1.00002
1.00002
1.00012
1.00032
1.00102
1.00212
1.00601
1.01136
1.03387
1.05064
1.25732
1.38483
2.70968
4.93554
11.2251
11.0919
10.7197
10.4628
10.4667
10.5223
10.6414
10.7438
10.8174
10.8823
10.9481
11.0148
11.0808
11.1455
11.2084
11.2691
11.3274
11.3827
11.4349
11.483
11.5274
11.568
11.6049
11.638
11.6674
11.6928
11.7148
11.7333
11.7479
11.7593
11.7669
11.7729
1
1
1
1
1.00002
1.00002
1.00012
1.00031
1.00098
1.00202
1.0057
1.01074
1.03219
1.04737
1.25062
1.36511
2.67471
4.82154
11.0451
11.0159
10.7231
10.4582
10.4544
10.5042
10.6183
10.7251
10.8003
10.8644
10.929
10.9946
11.0597
11.1233
11.185
11.2446
11.3016
11.3558
11.4068
11.4539
11.4975
11.5374
11.5737
11.6064
11.6356
11.6608
11.6826
11.7009
11.7153
11.7265
11.7341
11.7399
1
1
1
1
1.00002
1.00002
1.00011
1.0003
1.00092
1.0019
1.00533
1.00999
1.03027
1.04326
1.24325
1.34277
2.63817
4.6953
10.8329
10.9632
10.705
10.4458
10.4384
10.4857
10.5961
10.7039
10.7798
10.8431
10.9064
10.9709
11.0347
11.097
11.1573
11.2154
11.271
11.3238
11.3735
11.4194
11.4619
11.5008
11.5363
11.5684
11.5972
11.6221
11.6438
11.6619
11.6762
11.6872
11.6946
11.7005
1
1
1
1
1.00001
1.00002
1.00011
1.00028
1.00087
1.00179
1.00496
1.00915
1.0282
1.03802
1.23574
1.31592
2.59999
4.55734
10.5892
10.9149
10.6773
10.4272
10.4199
10.466
10.5735
10.6803
10.7558
10.8182
10.8803
10.9433
11.0057
11.0664
11.125
11.1813
11.2351
11.2862
11.3342
11.3786
11.4198
11.4576
11.492
11.5234
11.5515
11.576
11.5973
11.6151
11.6291
11.6401
11.6475
11.6534
1
1
1
1
1.00001
1.00002
1.00011
1.00027
1.00081
1.00167
1.00451
1.00815
1.02588
1.03297
1.22452
1.29192
2.54892
4.40541
10.3085
10.8687
10.6508
10.4057
10.399
10.4444
10.5499
10.6544
10.7286
10.7899
10.8506
10.912
10.9725
11.0313
11.0879
11.1421
11.1938
11.2427
11.2888
11.3313
11.3707
11.407
11.4402
11.4705
11.4978
11.5215
11.5421
11.5596
11.5733
11.5841
11.5913
11.5973
1
1
1
1
1
1.00004
1.00012
1.00041
1.0009
1.00252
1.005
1.01475
1.02059
1.01917
1.21386
1.26716
2.48969
4.2358
9.98406
10.824
10.6262
10.3826
10.3759
10.4209
10.525
10.6267
10.6989
10.7585
10.8174
10.8768
10.9351
10.9915
11.0457
11.0973
11.1464
11.1928
11.2364
11.2766
11.3138
11.3481
11.3796
11.4085
11.4344
11.457
11.4768
11.4936
11.5068
11.5173
11.5245
11.5305
1
1
1
1.00001
1.00001
1.00004
1.00011
1.00037
1.0008
1.00225
1.00433
1.01266
1.01771
1.02077
1.1921
1.24257
2.42331
4.04202
9.6033
10.7835
10.6067
10.3602
10.3515
10.3962
10.4988
10.5972
10.6667
10.7242
10.7809
10.8378
10.8936
10.9471
10.9983
11.0469
11.0929
11.1362
11.1766
11.2139
11.2484
11.28
11.3093
11.3362
11.3599
11.3809
11.3994
11.4152
11.4277
11.4376
11.4443
11.4507
1
1
1
1.00001
1.00001
1.00004
1.00011
1.00033
1.00071
1.00198
1.00381
1.01144
1.01537
1.01324
1.18202
1.213
2.34593
3.82504
9.15026
10.7522
10.5962
10.3411
10.3276
10.3714
10.4717
10.5662
10.6325
10.6875
10.7414
10.7954
10.848
10.8981
10.9458
10.9908
11.0331
11.0725
11.1092
11.1428
11.1736
11.2019
11.228
11.2515
11.2726
11.2907
11.307
11.3208
11.3319
11.3411
11.3474
11.3537
1
1
1
1
1
1.00002
1.00008
1.0002
1.00054
1.00111
1.00276
1.00593
1.01457
1.01651
1.16103
1.1806
2.25901
3.57577
8.60297
10.7413
10.5995
10.3274
10.3036
10.346
10.4429
10.5333
10.5965
10.6486
10.6994
10.7498
10.7985
10.8447
10.8882
10.9289
10.9667
11.0015
11.0336
11.0625
11.0885
11.112
11.1341
11.153
11.1697
11.1842
11.1968
11.2075
11.2159
11.223
11.2283
11.2352
1
1
1
1
1.00001
1.00004
1.00009
1.00027
1.00056
1.00151
1.00306
1.00853
1.01004
1.0119
1.13043
1.14359
2.14743
3.30253
7.93301
10.7851
10.635
10.3318
10.2822
10.3212
10.412
10.4988
10.5594
10.6085
10.6555
10.7017
10.7458
10.7873
10.8258
10.8613
10.8937
10.923
10.9493
10.9724
10.9923
11.0094
11.0257
11.0379
11.0482
11.0566
11.0629
11.0681
11.0719
11.0756
11.0784
11.0845
1
1
1
1
1.00001
1.00004
1.00013
1.00027
1.00077
1.00152
1.00442
1.00861
1.02536
1.03696
1.04549
1.35268
1.58168
3.3616
6.84862
10.9147
10.7438
10.3649
10.2644
10.2959
10.3757
10.462
10.5217
10.5676
10.6102
10.6516
10.6906
10.7267
10.7595
10.7889
10.8148
10.8374
10.8564
10.8721
10.8844
10.8937
10.9005
10.9037
10.9045
10.9035
10.8997
10.8948
10.8893
10.8849
10.8829
10.8886
1
1
1
1
1.00001
1.00002
1.00006
1.00016
1.00031
1.00083
1.00153
1.00441
1.0076
1.0353
1.04477
1.29308
1.45374
2.89868
5.63051
11
10.8581
10.4529
10.2586
10.2727
10.3298
10.4195
10.4819
10.5254
10.5632
10.5992
10.6327
10.6627
10.6891
10.7114
10.73
10.7447
10.7551
10.7615
10.7633
10.7625
10.7576
10.7476
10.7344
10.7175
10.6973
10.6748
10.652
10.6306
10.6139
10.6132
1
1
1
1
1.00001
1.00002
1.00004
1.00012
1.00023
1.00064
1.00115
1.00375
1.0055
1.03072
1.03523
1.25814
1.35534
2.68271
4.83229
10.7606
10.8008
10.5197
10.2461
10.2352
10.2742
10.361
10.4313
10.4747
10.5083
10.5393
10.5675
10.5919
10.6117
10.6271
10.6377
10.6434
10.6435
10.64
10.6305
10.6157
10.5942
10.567
10.5335
10.493
10.4451
10.3908
10.3317
10.2719
10.2172
10.1915
1
1
1
1
1
1.00001
1.00002
1.00006
1.00009
1.00045
1.00063
1.00277
1.00443
1.02084
1.02389
1.21244
1.26359
2.51776
4.30316
9.99856
10.6765
10.4883
10.2195
10.1873
10.2198
10.2969
10.3686
10.4117
10.4416
10.4679
10.4911
10.5099
10.5233
10.5313
10.5334
10.5308
10.522
10.5041
10.4797
10.4489
10.4085
10.3584
10.2971
10.2223
10.1315
10.0222
9.89326
9.74305
9.57514
9.41751
1
1
1
1
1
1
1.00001
1.00001
1.00015
1.00017
1.00118
1.00225
1.00684
1.00888
1.06258
1.06236
1.52622
1.89537
4.20982
8.81567
10.5669
10.4572
10.2122
10.1417
10.1639
10.2231
10.2897
10.3302
10.3555
10.3759
10.3927
10.4045
10.4103
10.4095
10.4038
10.3893
10.3639
10.3304
10.288
10.2346
10.1685
10.0856
9.98269
9.85369
9.68939
9.47465
9.18142
8.75764
8.08825
6.72489
1
1
1
1
1
1
1.00001
1.00001
1.00013
1.00014
1.00095
1.00183
1.00528
1.00939
1.05018
1.05689
1.41859
1.67979
3.62562
7.46385
10.6576
10.5515
10.2632
10.1159
10.1189
10.1468
10.2023
10.238
10.2573
10.2697
10.2771
10.2785
10.2754
10.265
10.243
10.211
10.1709
10.1192
10.055
9.97568
9.8779
9.75719
9.60682
9.41791
9.17581
8.86036
8.43952
7.86542
7.10375
5.97896
1
1
1
1
1
1
1.00001
1.00001
1.00008
1.00011
1.00052
1.0008
1.00469
1.00569
1.03939
1.0457
1.28595
1.47364
2.78357
5.31628
10.8698
10.7759
10.4347
10.1292
10.0731
10.088
10.1239
10.1518
10.1615
10.1615
10.159
10.1509
10.1333
10.1063
10.0709
10.0255
9.96883
9.90025
9.81497
9.71174
9.5868
9.43513
9.25006
9.02302
8.74298
8.39636
7.96912
7.4429
6.83151
6.07559
1
1
1
1
1
1
1.00001
1.00002
1.00009
1.0001
1.00096
1.00122
1.00665
1.016
1.02255
1.01913
1.23976
1.29775
2.60566
4.54102
10.3754
10.6575
10.3992
10.0731
9.97563
9.98602
10.016
10.0444
10.0513
10.0487
10.0396
10.0193
9.98902
9.95167
9.90549
9.84842
9.77852
9.69441
9.59316
9.47285
9.33115
9.16291
8.96344
8.72735
8.44971
8.1231
7.74754
7.31496
6.84636
6.30363
1
1
1
1
1
1
1.00001
1.00001
1.00004
1.00004
1.00035
1.00038
1.0027
1.00488
1.01463
1.01857
1.17402
1.18998
2.38458
3.87748
9.18156
10.4237
10.2805
9.99299
9.8829
9.89012
9.91559
9.94334
9.94749
9.94255
9.92699
9.89477
9.85467
9.80864
9.75362
9.68717
9.60763
9.51333
9.40369
9.27523
9.12698
8.95452
8.7577
8.53119
8.27511
7.98552
7.66379
7.31169
6.9158
6.50702
1
1
1
1
1
1
1
1.00002
1.00002
1.00012
1.00014
1.00195
1.0025
1.01384
1.03343
1.05016
1.05412
1.42397
1.66866
3.66524
7.51867
10.418
10.3268
10.0533
9.87682
9.83962
9.84708
9.86267
9.8615
9.85198
9.82701
9.78355
9.73591
9.68283
9.62078
9.54729
9.46132
9.36171
9.24788
9.11723
8.96989
8.80258
8.61495
8.40583
8.17433
7.91977
7.64245
7.33757
7.02685
6.69358
1
1
1
1
1
1
1
1.00002
1.00003
1.00011
1.00017
1.00128
1.00165
1.0093
1.02261
1.0335
1.03645
1.28048
1.41438
2.74578
5.10769
10.4839
10.5002
10.254
9.92242
9.81634
9.81032
9.81062
9.80406
9.78314
9.74042
9.68991
9.63669
9.57789
9.5104
9.43215
9.34249
9.24071
9.12628
8.99753
8.8542
8.69515
8.51975
8.32861
8.12039
7.8961
7.65424
7.39822
7.1396
6.86388
1
1
1
1
1
1
1
1.00001
1.00002
1.00007
1.0001
1.00075
1.00095
1.00521
1.01245
1.01881
1.0208
1.2082
1.244
2.52183
4.26283
9.84783
10.4437
10.2381
9.89931
9.7609
9.74041
9.73983
9.73258
9.71011
9.6639
9.60967
9.55285
9.49047
9.41974
9.33905
9.24824
9.14671
9.03403
8.90956
8.77293
8.62381
8.46213
8.28685
8.10022
7.90152
7.68971
7.47562
7.2555
7.02267
1
1
1
1
1
1
1
1
1.00001
1.00003
1.00004
1.00043
1.00053
1.00299
1.00642
1.01504
1.01774
1.15276
1.15648
2.27679
3.54947
8.47942
10.3134
10.1937
9.91297
9.7307
9.67622
9.67163
9.66219
9.63962
9.59484
9.54109
9.48249
9.41788
9.34534
9.26406
9.17372
9.07413
8.96501
8.8461
8.71726
8.57834
8.42961
8.27129
8.10333
7.92402
7.74292
7.55675
7.3662
7.16637
1
1
1
1
1
1
1
1
1.00002
1.00003
1.0001
1.00014
1.00124
1.00145
1.0097
1.02342
1.03365
1.02892
1.34463
1.49393
3.16695
6.256
10.3386
10.3208
10.0837
9.79117
9.68263
9.65903
9.64018
9.60437
9.55413
9.49592
9.43286
9.36439
9.28947
9.20734
9.11765
9.02033
8.91509
8.80186
8.68067
8.55156
8.41477
8.27125
8.11784
7.96252
7.80292
7.63815
7.47018
7.29589
1
1
1
1
1
1
1
1
1.00001
1.00002
1.00006
1.00008
1.00068
1.00081
1.00514
1.01255
1.01825
1.01726
1.22731
1.26665
2.60681
4.49165
10.0459
10.4477
10.2303
9.86382
9.68933
9.63866
9.61224
9.57289
9.52022
9.45937
9.39357
9.323
9.24671
9.16422
9.07541
8.98022
8.87885
8.7711
8.65722
8.53751
8.41232
8.27933
8.14412
8.00501
7.86189
7.71528
7.56676
7.41344
1
1
1
1
1
1
1
1
1
1.00003
1.00004
1.00017
1.00014
1.00206
1.00234
1.01648
1.03952
1.0592
1.05491
1.53978
1.87496
4.24343
8.75835
10.302
10.1773
9.87276
9.67022
9.592
9.56098
9.52782
9.48058
9.4227
9.35795
9.28748
9.21146
9.13012
9.0435
8.95169
8.85484
8.75324
8.64682
8.53579
8.4184
8.29825
8.17564
8.04972
7.92084
7.78959
7.65729
7.5213
1
1
1
1
1
1
1
1
1
1
1.00003
1.00005
1.00023
1.00034
1.00208
1.0029
1.0148
1.01823
1.12686
1.12515
2.12865
3.08583
7.43549
10.3106
10.2196
9.93836
9.68557
9.57739
9.53564
9.50085
9.45348
9.39566
9.33069
9.26051
9.18569
9.1062
9.02219
8.93382
8.84147
8.74552
8.6457
8.54066
8.43311
8.3241
8.21219
8.09736
7.98035
7.86187
7.74303
7.62155
1
1
1
1
1
1
1
1
1
1.00001
1.00002
1.00006
1.00006
1.00077
1.0009
1.00604
1.01496
1.02269
1.02176
1.26205
1.31847
2.73611
4.8579
10.3294
10.4257
10.1697
9.78226
9.60748
9.54744
9.50579
9.45394
9.39189
9.32317
9.25014
9.17388
9.0946
9.01235
8.92724
8.83928
8.74736
8.65185
8.55475
8.4567
8.356
8.25284
8.14779
8.04135
7.93411
7.82682
7.71759
1
1
1
1
1
1
1
1
1
1.00001
1.00001
1.00004
1.00004
1.00047
1.00056
1.0034
1.00764
1.01599
1.0165
1.18494
1.19197
2.48486
4.09071
9.59699
10.4272
10.2246
9.83215
9.62458
9.54285
9.49602
9.44353
9.37909
9.30804
9.23546
9.16173
9.08619
9.00851
8.92775
8.84297
8.75586
8.66761
8.57857
8.48737
8.39407
8.29922
8.20324
8.10659
8.0094
7.91216
7.81305
1
1
1
1
1
1
1
1
1
1
1.00002
1.00004
1.0001
1.00014
1.00134
1.00149
1.01109
1.02835
1.04089
1.03227
1.45993
1.71014
3.8206
7.88919
10.4554
10.3323
9.97026
9.67052
9.53408
9.47144
9.41949
9.35985
9.29445
9.22668
9.15739
9.08582
9.01111
8.93402
8.85529
8.77576
8.69493
8.61195
8.52713
8.44111
8.35397
8.26582
8.17687
8.08755
7.99834
7.90763
1
1
1
1
1
1
1
1
1
1
1.00001
1.00002
1.00006
1.00007
1.0008
1.00091
1.00698
1.0178
1.02891
1.02882
1.29887
1.42255
2.85884
5.49031
10.7054
10.6257
10.2366
9.77243
9.54312
9.4597
9.41052
9.35666
9.29532
9.22995
9.16188
9.0926
9.02278
8.95252
8.88159
8.80846
8.73309
8.65585
8.57717
8.49712
8.41598
8.33414
8.25182
8.16913
8.08642
8.00223
1
1
1
1
1
1
1
1
1
1
1
1.00002
1.00003
1.0002
1.00023
1.00162
1.00341
1.00783
1.00865
1.08231
1.07164
1.72095
2.19104
5.12035
10.3083
10.4692
10.1911
9.73923
9.50514
9.41889
9.38015
9.3406
9.29032
9.23187
9.16973
9.10665
9.04325
8.97909
8.91348
8.84601
8.77648
8.70504
8.63183
8.55719
8.48158
8.40517
8.32816
8.25071
8.17324
8.09442
1
1
1
1
1
1
1
1
1
1
1
1.00001
1.00003
1.00013
1.00017
1.0013
1.00187
1.00823
1.01675
1.05936
1.04944
1.5809
1.92718
4.46542
9.19622
10.3254
10.1441
9.74711
9.50297
9.40914
9.37492
9.34333
9.29875
9.24655
9.1922
9.13755
9.08121
9.02197
8.96016
8.89601
8.83002
8.76236
8.69316
8.62268
8.55109
8.47867
8.40571
8.33243
8.25905
8.18441
1
1
1
1
1
1
1
1
1
1
1
1.00001
1.00004
1.00007
1.00026
1.00031
1.00246
1.00433
1.01338
1.02068
1.13244
1.15899
2.17597
3.33355
7.963
10.3341
10.1777
9.79463
9.52204
9.41948
9.38742
9.36197
9.3265
9.28317
9.23556
9.18375
9.1288
9.0711
9.01102
8.94891
8.88501
8.81969
8.75343
8.68633
8.61847
8.54997
8.48115
8.41189
8.34226
8.2713
1
1
1
1
1
1
1
1
1
1
1.00001
1.00001
1.00006
1.00015
1.0002
1.00018
1.0019
1.00324
1.01111
1.01231
1.10479
1.09152
2.04001
2.78426
6.87698
10.4144
10.2643
9.87324
9.56729
9.44828
9.41877
9.40166
9.37334
9.3324
9.2848
9.23256
9.17777
9.12094
9.06201
9.00207
8.94075
8.87833
8.81487
8.7505
8.68532
8.61949
8.55287
8.48587
8.41895
8.35105
1
1
1
1
1
1
1
1
1
1
1
1.00001
1.00002
1.00006
1.00008
1.00054
1.00059
1.00397
1.00973
1.01138
1.01309
1.22154
1.23639
2.72686
4.76185
10.3879
10.4238
10.1242
9.70852
9.53342
9.49359
9.47685
9.44371
9.3961
9.34253
9.28706
9.23088
9.17392
9.11617
9.05686
8.9968
8.93561
8.8737
8.81116
8.74807
8.68447
8.62042
8.55605
8.49154
8.4259
1
1
1
1
1
1
1
1
1
1
1
1.00001
1.00001
1.00003
1.00004
1.00041
1.00047
1.00352
1.00821
1.01762
1.01372
1.18514
1.17526
2.50887
4.0699
9.58337
10.4094
10.1857
9.78019
9.59314
9.54273
9.52166
9.48882
9.44254
9.38983
9.3351
9.27958
9.22335
9.16622
9.10814
9.04932
8.98968
8.92952
8.8687
8.80726
8.74537
8.68308
8.62046
8.55759
8.49353
1
1
1
1
1
1
1
1
1
1
1
1.00001
1.00001
1.00004
1.00005
1.00036
1.00036
1.00293
1.00647
1.01394
1.01987
1.13902
1.12684
2.29624
3.48274
8.49233
10.4798
10.3066
9.91757
9.67015
9.5806
9.54953
9.51889
9.47606
9.42533
9.37169
9.31732
9.26246
9.20715
9.15108
9.09418
9.03641
8.97786
8.91899
8.85944
8.79931
8.73866
8.67754
8.6162
8.55362
1
1
1
1
1
1
1
1
1
1
1
1.00001
1.00001
1.00001
1.00012
1.00013
1.00113
1.00285
1.00536
1.01816
1.02912
1.03113
1.35116
1.49304
3.29359
6.60772
10.8393
10.6864
10.221
9.82831
9.65708
9.60135
9.56811
9.52527
9.4726
9.41629
9.35985
9.30386
9.24785
9.19163
9.13511
9.0782
9.02087
8.96286
8.90453
8.84586
8.78695
8.72782
8.66848
8.60803
1
1
1
1
1
1
1
1
1
1
1
1
1.00001
1.00002
1.00005
1.00006
1.00048
1.00056
1.00347
1.00941
1.01785
1.0181
1.2384
1.26903
2.79448
5.01524
10.9618
10.8312
10.4328
9.93026
9.69738
9.62591
9.59502
9.555
9.50386
9.44711
9.39014
9.3341
9.27859
9.22311
9.16745
9.1116
9.05542
8.999
8.94242
8.88569
8.82883
8.77187
8.71483
8.65693
1
1
1
1
1
1
1
1
1
1
1
1
1.00001
1.00001
1.00009
1.00015
1.00069
1.00087
1.00611
1.01458
1.01787
1.01503
1.21121
1.20563
2.68603
4.56527
10.5411
10.7383
10.4235
9.95601
9.73243
9.66173
9.63034
9.59091
9.53947
9.48257
9.42458
9.36749
9.31114
9.25505
9.19897
9.14291
9.08695
9.03106
8.97529
8.91969
8.86434
8.80928
8.75458
8.69953
1
1
1
1
1
1
1
1
1
1
1
1
1
1.00003
1.00007
1.0001
1.00008
1.00139
1.00222
1.00903
1.01094
1.06901
1.06441
1.6092
1.95262
4.65301
9.58842
10.6181
10.4084
9.99103
9.77269
9.69415
9.65862
9.61983
9.56997
9.51352
9.45543
9.39815
9.3416
9.28559
9.22993
9.17451
9.11933
9.06442
9.00987
8.95577
8.90213
8.849
8.79645
8.7439
1
1
1
1
1
1
1
1
1
1
1
1
1
1.00003
1.00004
1.00018
1.00026
1.00153
1.00189
1.01222
1.03057
1.04878
1.04348
1.51725
1.767
4.1461
8.57851
10.72
10.5361
10.1072
9.82956
9.71914
9.67871
9.64387
9.59723
9.54223
9.48421
9.4275
9.37124
9.31572
9.2608
9.20624
9.15202
9.09824
9.04496
8.9922
8.94
8.88843
8.83754
8.78683
1
1
1
1
1
1
1
1
1
1
1
1
1
1.00002
1.00002
1.00015
1.00012
1.00121
1.00121
1.00923
1.02306
1.03624
1.0307
1.42739
1.59834
3.63622
7.4548
11.0898
10.851
10.2622
9.87399
9.73449
9.69871
9.67129
9.62763
9.57345
9.5156
9.45988
9.40433
9.34976
9.29584
9.24233
9.18925
9.13657
9.08434
9.03252
8.98115
8.93017
8.87995
8.8297
1
1
1
1
1
1
1
1
1
1
1
1
1
1.00002
1.00002
1.00018
1.00042
1.00057
1.00068
1.00413
1.00563
1.03082
1.02488
1.34253
1.45133
3.16378
6.27864
11.5634
11.1649
10.3165
9.87714
9.74899
9.72317
9.69825
9.65505
9.60092
9.5448
9.48963
9.4356
9.38239
9.32966
9.27728
9.2252
9.17344
9.1221
9.07116
9.02029
8.96981
8.91959
8.86922
1
1
1
1
1
1
1
1
1
1
1
1
1
1.00001
1.00001
1.00006
1.00005
1.00049
1.00062
1.0027
1.00728
1.01692
1.01258
1.27878
1.30983
2.98046
5.54875
11.6923
11.201
10.316
9.88702
9.7662
9.74257
9.71979
9.67978
9.62892
9.57472
9.52062
9.46737
9.41477
9.36259
9.3107
9.25907
9.20768
9.15657
9.10574
9.05513
9.00475
8.95454
8.9041
1
1
1
1
1
1
1
1
1
1
1
1
1
1.00001
1.00002
1.0001
1.00016
1.00075
1.00095
1.00561
1.01311
1.01552
1.02748
1.23098
1.31052
2.81737
5.17606
11.4787
11.0922
10.3734
9.94386
9.7928
9.7562
9.73433
9.69834
9.64997
9.59615
9.54231
9.48951
9.43751
9.38597
9.33466
9.28355
9.23263
9.18194
9.13147
9.08124
9.03117
8.98137
8.93127
1
1
1
1
1
1
1
1
1
1
1
1
1
1.00001
1.00002
1.00011
1.00018
1.00077
1.00087
1.00691
1.01641
1.01896
1.02175
1.22889
1.24694
2.80249
4.89786
11.1538
10.9616
10.4825
10.0226
9.82201
9.76826
9.74631
9.71246
9.66496
9.61195
9.55866
9.50645
9.45503
9.40398
9.35308
9.30231
9.25172
9.20131
9.15117
9.10129
9.05168
9.0023
8.95284
1
1
1
1
1
1
1
1
1
1
1
1
1
1.00002
1.00002
1.00021
1.00049
1.00065
1.00071
1.00686
1.01557
1.01653
1.02024
1.2119
1.25983
2.69441
4.75462
10.9309
10.8745
10.5248
10.0591
9.83724
9.77403
9.75073
9.71796
9.67191
9.62022
9.56804
9.51678
9.46616
9.41577
9.36541
9.31511
9.26489
9.21487
9.16506
9.11552
9.06624
9.0174
8.96868
1
1
1
1
1
1
1
1
1
1
1
1
1
1.00001
1.00001
1.00009
1.00018
1.00067
1.00087
1.00605
1.01519
1.01711
1.02504
1.1983
1.24901
2.65796
4.63171
10.7066
10.8619
10.5329
10.0708
9.85091
9.78592
9.76106
9.72807
9.68259
9.6315
9.58003
9.52949
9.4796
9.42987
9.3801
9.33027
9.2805
9.23085
9.18138
9.13214
9.08318
9.03447
8.98567
1
1
1
1
1
1
1
1
1
1
1
1
1
1
1.00002
1.00004
1.00018
1.00021
1.00163
1.00304
1.00882
1.00862
1.07663
1.06713
1.70638
2.11473
5.16897
10.4694
10.7033
10.425
10.0265
9.83394
9.77697
9.75591
9.72678
9.68489
9.63689
9.58752
9.53844
9.48971
9.44095
9.3919
9.34264
9.29321
9.24376
9.19441
9.14519
9.09632
9.04776
8.99884
1
1
1
1
1
1
1
1
1
1
1
1
1
1
1.00002
1.00003
1.00016
1.00021
1.00142
1.00305
1.00698
1.01624
1.06598
1.0755
1.6602
2.06291
5.02209
10.2488
10.7141
10.4482
10.0394
9.84091
9.7838
9.76543
9.73939
9.70027
9.65427
9.60627
9.55818
9.50997
9.462
9.41236
9.36319
9.31354
9.26363
9.2137
9.16402
9.1145
9.0655
9.01606
1
1
1
1
1
1
1
1
1
1
1
1
1
1.00001
1.00001
1.00009
1.00016
1.00066
1.00067
1.00626
1.01469
1.01684
1.01333
1.19896
1.19717
2.64088
4.41132
10.3664
10.8812
10.5668
10.0834
9.85146
9.78617
9.76723
9.74119
9.70147
9.65483
9.60618
9.55784
9.50995
9.46193
9.41342
9.36634
9.31769
9.26907
9.2204
9.17167
9.12278
9.07364
9.02376
1
1
1
1
1
1
1
1
1
1
1
1
1
1
1.00002
1.00003
1.00015
1.00018
1.00138
1.00264
1.00691
1.01085
1.06631
1.07365
1.64148
2.02583
4.92364
10.0858
10.7549
10.4955
10.0602
9.84621
9.78563
9.77025
9.74802
9.71132
9.66607
9.6184
9.56992
9.52345
9.47416
9.4263
9.37834
9.32961
9.28044
9.23104
9.1812
9.13312
9.0832
9.03366
2.86996
2.70874
3.77892
4.25301
3.95911
3.86365
3.81827
3.81109
3.82733
3.84971
3.86105
3.87063
3.89197
3.93309
3.98903
4.0549
4.12675
4.20225
4.27967
4.35701
4.43312
4.50665
4.57689
4.64294
4.70381
4.76288
4.81652
4.86192
4.8993
4.93009
4.95382
4.97117
4.98239
4.98785
4.98789
4.9858
4.97903
4.96484
4.9465
4.92548
4.90193
4.87549
4.84681
4.81565
4.78275
4.74777
4.7115
4.67356
4.6347
4.59459
4.55384
4.51224
4.47027
4.42779
4.38514
4.34224
4.29936
4.25647
4.21371
4.17112
4.12883
4.08687
4.04534
4.0043
3.96383
3.924
3.88491
3.84662
3.80924
3.77285
3.73754
3.70343
3.67059
3.63914
3.60917
3.58084
3.55426
3.52958
3.50697
3.48665
3.46884
3.45383
3.44195
3.43356
3.42931
3.42943
3.43019
3.43227
3.43696
3.44676
3.46335
3.48371
3.50637
3.53069
3.55574
3.58046
3.60365
3.62398
3.63978
3.6527
3.86378
3.78032
4.14478
4.12178
3.9634
3.83607
3.80669
3.82096
3.8588
3.88625
3.88621
3.87344
3.87772
3.92071
3.97804
4.04471
4.1157
4.19168
4.26991
4.34774
4.42456
4.49846
4.56921
4.63545
4.69743
4.75563
4.80909
4.85464
4.89242
4.92317
4.94733
4.96493
4.97649
4.98217
4.98233
4.98097
4.97595
4.96402
4.94321
4.92118
4.89774
4.87185
4.84342
4.81257
4.77969
4.74496
4.70868
4.67096
4.63209
4.59215
4.55141
4.50995
4.468
4.42567
4.383
4.34019
4.29734
4.2546
4.21185
4.16934
4.1271
4.08521
4.04374
4.00276
3.96236
3.92259
3.88357
3.84535
3.80804
3.77171
3.73648
3.70242
3.66964
3.63826
3.60832
3.58006
3.55351
3.52888
3.50628
3.48599
3.46819
3.45318
3.44131
3.43283
3.42883
3.42899
3.42982
3.43203
3.43695
3.44698
3.46282
3.48278
3.50546
3.53019
3.55556
3.58078
3.60446
3.62551
3.64179
3.65846
4.94971
4.44024
4.39344
4.28541
4.09065
3.9491
3.87975
3.85596
3.85446
3.85643
3.86103
3.87089
3.89219
3.93329
3.98697
4.05182
4.12167
4.19463
4.2706
4.34695
4.42256
4.4958
4.56568
4.63154
4.69308
4.75005
4.80188
4.84693
4.88457
4.91513
4.93908
4.95659
4.968
4.97358
4.97355
4.97245
4.96849
4.95882
4.93906
4.9156
4.89134
4.86554
4.8375
4.80706
4.77445
4.73992
4.70378
4.66623
4.62749
4.58772
4.54712
4.50583
4.464
4.42178
4.37927
4.33659
4.29386
4.25116
4.20857
4.16618
4.12407
4.0823
4.04097
4.00012
3.95986
3.92025
3.88138
3.84332
3.80619
3.77005
3.73501
3.70116
3.66857
3.6374
3.60766
3.57967
3.55322
3.52894
3.5064
3.48644
3.46875
3.4539
3.44211
3.43364
3.42997
3.43021
3.43121
3.43363
3.4388
3.44916
3.46438
3.48353
3.5058
3.53025
3.55573
3.58111
3.60515
3.62687
3.64348
3.66444
5.48708
4.94892
4.69806
4.52444
4.33018
4.15688
4.03501
3.96857
3.94692
3.94733
3.94853
3.95078
3.95633
3.97106
4.00443
4.0674
4.1363
4.20622
4.27812
4.35103
4.42395
4.49523
4.56326
4.62727
4.68696
4.74199
4.79205
4.83598
4.87307
4.90336
4.92714
4.94458
4.95589
4.96134
4.96127
4.96029
4.95698
4.94889
4.93192
4.90767
4.88233
4.85611
4.82823
4.7982
4.76599
4.73183
4.69598
4.6587
4.62021
4.58071
4.54036
4.49932
4.45773
4.41573
4.37345
4.33099
4.28848
4.24598
4.20361
4.16143
4.11954
4.078
4.0369
3.99629
3.95629
3.91694
3.87837
3.84061
3.8038
3.76799
3.73328
3.69977
3.66753
3.6367
3.60733
3.57963
3.55364
3.52959
3.50758
3.48786
3.4707
3.45616
3.44464
3.43631
3.43314
3.43344
3.43456
3.43724
3.4428
3.4536
3.46797
3.48589
3.50699
3.53042
3.55528
3.58033
3.60441
3.62672
3.64441
3.6668
5.85763
5.37805
5.05871
4.82345
4.60724
4.41105
4.25427
4.14778
4.08466
4.04969
4.02766
4.01716
4.01862
4.02628
4.04746
4.09303
4.15973
4.22818
4.29622
4.36441
4.43268
4.49983
4.56459
4.62592
4.68332
4.73605
4.78428
4.8266
4.86258
4.89225
4.91561
4.93257
4.94352
4.94849
4.94834
4.9473
4.94417
4.93687
4.92171
4.89847
4.87285
4.84606
4.81787
4.78788
4.75593
4.72209
4.68658
4.64962
4.61143
4.57222
4.53216
4.49141
4.4501
4.40839
4.36639
4.32421
4.28198
4.23977
4.19769
4.1558
4.11421
4.07297
4.03218
3.99191
3.95225
3.91328
3.87508
3.83775
3.80136
3.76601
3.73177
3.69873
3.667
3.63668
3.60787
3.58071
3.55535
3.53191
3.51056
3.49149
3.47491
3.46113
3.4502
3.4422
3.43959
3.43994
3.44117
3.44408
3.45003
3.46094
3.47449
3.49095
3.51029
3.53186
3.55507
3.57882
3.60207
3.62437
3.64205
3.66646
6.16588
5.75489
5.42253
5.15218
4.91074
4.69362
4.50916
4.36606
4.26424
4.19728
4.15476
4.13032
4.12432
4.12587
4.13278
4.15136
4.19118
4.25156
4.31581
4.37995
4.44338
4.50579
4.56629
4.62397
4.67827
4.72848
4.77412
4.81458
4.8493
4.87817
4.90109
4.91744
4.92805
4.93269
4.9325
4.93143
4.92841
4.92159
4.90758
4.88606
4.86105
4.83402
4.80539
4.77518
4.74331
4.70976
4.67463
4.63808
4.60032
4.56151
4.52186
4.48149
4.44057
4.39922
4.35758
4.31577
4.27389
4.23204
4.19033
4.1488
4.10758
4.06673
4.02635
3.98651
3.94732
3.90885
3.8712
3.83442
3.79859
3.76388
3.73032
3.69798
3.66697
3.63739
3.60937
3.583
3.5585
3.53596
3.51554
3.49742
3.48178
3.46883
3.45891
3.45175
3.44954
3.44993
3.45125
3.45428
3.46044
3.47066
3.48333
3.49813
3.51522
3.5342
3.55474
3.57612
3.59745
3.61878
3.63556
3.66182
6.42813
6.07711
5.76407
5.4724
5.21194
4.97881
4.77389
4.60367
4.47079
4.37293
4.30383
4.2573
4.22962
4.21965
4.22063
4.22616
4.24184
4.27613
4.33223
4.39328
4.45346
4.51228
4.5682
4.62208
4.67305
4.72042
4.76358
4.80211
4.83546
4.86345
4.88559
4.90212
4.9119
4.91615
4.91591
4.91477
4.91175
4.90514
4.89179
4.87185
4.84788
4.82109
4.79224
4.76174
4.72978
4.69637
4.66158
4.62547
4.58818
4.54985
4.51063
4.47071
4.43021
4.3893
4.34808
4.30669
4.26523
4.2238
4.1825
4.14142
4.10065
4.06028
4.02041
3.98114
3.94251
3.90466
3.86765
3.83157
3.79654
3.76252
3.7297
3.69816
3.668
3.63934
3.61228
3.58702
3.56357
3.54215
3.52291
3.50598
3.49154
3.47969
3.47077
3.46466
3.46308
3.46348
3.46478
3.46775
3.47374
3.48296
3.49413
3.50707
3.52158
3.53745
3.55464
3.57282
3.59129
3.61084
3.62605
3.65288
6.65448
6.35017
6.06001
5.77306
5.50286
5.25495
5.03495
4.84639
4.69056
4.56721
4.47338
4.4048
4.35822
4.33006
4.31678
4.31709
4.32061
4.33202
4.35811
4.40824
4.46251
4.5164
4.56912
4.61945
4.66689
4.71098
4.75137
4.78773
4.81953
4.84641
4.86807
4.88416
4.89409
4.89764
4.89735
4.89613
4.89307
4.88662
4.87371
4.85518
4.83238
4.80618
4.77742
4.7468
4.71474
4.68143
4.64691
4.61121
4.57441
4.53659
4.49789
4.45847
4.41846
4.37802
4.33727
4.29636
4.25537
4.21442
4.1736
4.13301
4.09275
4.05291
4.01364
3.97501
3.93711
3.90001
3.86379
3.82852
3.79429
3.76119
3.72932
3.69879
3.6697
3.64219
3.61634
3.59233
3.57025
3.55025
3.53245
3.51697
3.50393
3.49341
3.48563
3.48046
3.4795
3.47987
3.48106
3.48373
3.48915
3.49698
3.50621
3.51682
3.52843
3.54091
3.55442
3.56895
3.58401
3.60099
3.61424
3.64004
6.84989
6.58316
6.31634
6.03989
5.76966
5.51769
5.28905
5.08713
4.91416
4.77083
4.6556
4.56594
4.49889
4.45127
4.42036
4.40354
4.40007
4.402
4.40983
4.42937
4.46929
4.51729
4.56605
4.61345
4.65825
4.69944
4.73716
4.7712
4.8014
4.8271
4.84808
4.86383
4.87406
4.87722
4.87692
4.87567
4.87263
4.8663
4.85388
4.8365
4.81481
4.78939
4.76106
4.73062
4.69865
4.66547
4.6312
4.5959
4.55959
4.52231
4.48418
4.44531
4.40586
4.36597
4.32577
4.28539
4.24494
4.20453
4.16427
4.12427
4.08465
4.04554
4.00699
3.96911
3.93199
3.89571
3.86035
3.82599
3.79274
3.76069
3.72993
3.70058
3.67276
3.64659
3.62216
3.59964
3.57912
3.56073
3.54456
3.53071
3.51925
3.51017
3.50359
3.49924
3.49874
3.49905
3.50002
3.50218
3.50653
3.51258
3.51949
3.52722
3.53563
3.54466
3.55436
3.56512
3.57655
3.59035
3.60169
3.62454
7.01984
6.78261
6.53814
6.27588
6.01233
5.76098
5.52861
5.31928
5.13527
4.97737
4.84519
4.73701
4.65096
4.58446
4.53591
4.50247
4.48242
4.4734
4.47418
4.47892
4.49222
4.52069
4.56197
4.60426
4.64624
4.68519
4.72076
4.75271
4.78099
4.80521
4.82519
4.84057
4.85087
4.85407
4.85381
4.85261
4.84976
4.8438
4.83187
4.81533
4.79466
4.77003
4.74238
4.71244
4.68084
4.64796
4.61402
4.57913
4.5433
4.50659
4.46905
4.4308
4.39197
4.35269
4.3131
4.27332
4.23346
4.19365
4.15404
4.11474
4.07588
4.03753
3.99978
3.96271
3.92645
3.89108
3.8567
3.82341
3.79129
3.76046
3.731
3.70302
3.67667
3.65204
3.62926
3.60843
3.58966
3.57305
3.55868
3.54657
3.53672
3.52906
3.5236
3.52003
3.51943
3.51964
3.52031
3.52179
3.52476
3.52865
3.53291
3.53771
3.54277
3.54836
3.55441
3.56153
3.56921
3.57947
3.58881
3.60789
7.17007
6.957
6.73239
6.48543
6.23184
5.9852
5.7533
5.54064
5.34964
5.18132
5.03587
4.9125
4.80992
4.72625
4.66049
4.61038
4.5741
4.55002
4.53625
4.53439
4.53633
4.5438
4.56133
4.59649
4.62966
4.66574
4.70007
4.7307
4.75744
4.78013
4.79887
4.81362
4.82389
4.82746
4.82724
4.82623
4.82366
4.81817
4.80712
4.79143
4.77153
4.74783
4.72108
4.69196
4.66102
4.62869
4.59523
4.56082
4.52552