/*--------------------------------*- C++ -*----------------------------------*\
| =========                 |                                                 |
| \\      /  F ield         | OpenFOAM: The Open Source CFD Toolbox           |
|  \\    /   O peration     | Version:  2112                                  |
|   \\  /    A nd           | Website:  www.openfoam.com                      |
|    \\/     M anipulation  |                                                 |
\*---------------------------------------------------------------------------*/
FoamFile
{
    version     2.0;
    format      ascii;
    arch        "LSB;label=32;scalar=64";
    class       surfaceScalarField;
    location    "7.5";
    object      phi;
}
// * * * * * * * * * * * * * * * * * * * * * * * * * * * * * * * * * * * * * //

dimensions      [1 0 -1 0 0 0 0];

oriented        oriented;

internalField   nonuniform List<scalar> 
13790
(
0.00290515
5.62855e-09
0.00290514
3.01816e-09
0.00290514
1.00967e-09
0.00290514
-1.17206e-09
0.00290515
-3.58211e-09
0.00290515
-6.25331e-09
0.00290516
-1.00959e-08
0.00290518
-1.14372e-08
0.00290518
-3.95591e-09
0.00290517
1.44335e-08
0.00290507
1.20583e-07
0.00290487
2.19956e-07
0.00290414
8.10243e-07
0.00290338
9.92352e-07
0.0029032
2.8445e-07
0.00290226
2.37634e-06
0.00292753
-2.36213e-05
0.00298089
-4.57557e-05
0.00301845
-3.17737e-05
0.00293086
8.99513e-05
0.00285268
7.83505e-05
0.00278998
6.21285e-05
0.0027375
5.13872e-05
0.00267976
5.76585e-05
0.00261482
6.42015e-05
0.0025422
6.88032e-05
0.00246599
7.19054e-05
0.00238993
7.46789e-05
0.0023113
7.78116e-05
0.00222608
8.1224e-05
0.00213629
8.47285e-05
0.0020459
8.85727e-05
0.00195309
9.30413e-05
0.00185236
9.7965e-05
0.00174236
0.000102958
0.00162711
0.000107946
0.00151031
0.000113007
0.0013918
0.00011776
0.00127131
0.000121117
0.00115054
0.000122366
0.0010311
0.000121292
0.000913831
0.000118323
0.000798663
0.000114504
0.000684625
0.000111246
0.000572006
0.000108848
0.000460511
0.000106744
0.000350997
0.000104128
0.000244522
0.000101735
0.000135132
0.000105608
0.000131876
0.00301309
6.36717e-09
0.00301309
5.20928e-09
0.00301309
2.19262e-09
0.00301309
-9.96247e-10
0.00301309
-4.57661e-09
0.00301309
-9.38828e-09
0.0030131
-1.52162e-08
0.00301311
-1.82666e-08
0.00301312
-1.04072e-08
0.00301312
1.07878e-08
0.00301317
9.40671e-08
0.00301321
1.97527e-07
0.00301349
6.40402e-07
0.00301404
5.9006e-07
0.00301357
9.54027e-07
0.0030167
5.5788e-07
0.00302385
-2.90883e-05
0.00305375
-6.81942e-05
0.00304496
-1.09015e-05
0.00298499
0.000152788
0.00291735
0.00014625
0.00285803
0.000120847
0.00280119
0.000107215
0.0027403
0.000118246
0.0026722
0.000130961
0.00259707
0.000140065
0.00251909
0.000146608
0.00244074
0.00015277
0.00235828
0.000159545
0.00226829
0.000166636
0.00217389
0.000173842
0.00207915
0.000181734
0.00198174
0.000190703
0.00187628
0.00020023
0.00176221
0.000209595
0.00164418
0.000218702
0.00152595
0.000227689
0.00140723
0.00023587
0.00128758
0.000241515
0.00116798
0.000243666
0.00104898
0.000242187
0.000930525
0.000237782
0.000812339
0.000231921
0.000694193
0.00022626
0.000577466
0.000221581
0.000461817
0.000217452
0.000347587
0.000212798
0.000234703
0.000209814
0.000120298
0.000216184
0.000248879
0.00312505
6.74638e-09
0.00312504
6.63903e-09
0.00312504
4.09829e-09
0.00312504
1.76603e-09
0.00312504
-3.74185e-09
0.00312504
-9.90476e-09
0.00312504
-1.68118e-08
0.00312504
-2.06608e-08
0.00312505
-1.22917e-08
0.00312505
9.48782e-09
0.00312506
1.0727e-07
0.00312504
2.33086e-07
0.00312512
6.7265e-07
0.00312534
5.35119e-07
0.00312522
1.26484e-06
0.00312761
-4.56033e-07
0.00312314
-2.29365e-05
0.00311229
-4.97316e-05
0.00308008
3.08757e-05
0.00301332
0.00022268
0.00297163
0.000187936
0.00291787
0.000173806
0.00285783
0.000166204
0.00279243
0.000183125
0.00272081
0.00020042
0.00264357
0.00021324
0.00256497
0.000222993
0.0024858
0.00023254
0.0024013
0.000242914
0.00230915
0.000253597
0.00221352
0.0002645
0.00211774
0.000276481
0.00201851
0.00028989
0.00191078
0.000303894
0.00179492
0.00031752
0.00167577
0.000330694
0.00155674
0.000343509
0.00143715
0.000354988
0.00131662
0.000362888
0.00119587
0.000366177
0.00107521
0.000364771
0.000954307
0.000359611
0.00083274
0.000352548
0.000710472
0.000345105
0.000589346
0.00033849
0.00046925
0.000332451
0.000350216
0.000326154
0.000233174
0.000321966
0.000116559
0.000328901
0.000362101
0.00324116
6.63696e-09
0.00324116
6.23072e-09
0.00324115
6.93906e-09
0.00324115
7.70894e-09
0.00324115
-1.97022e-09
0.00324115
-9.32242e-09
0.00324115
-1.67315e-08
0.00324115
-1.99866e-08
0.00324115
-9.12662e-09
0.00324114
2.00157e-08
0.00324114
1.29162e-07
0.0032411
2.90203e-07
0.00324108
7.97231e-07
0.00324082
9.77824e-07
0.00324072
1.55459e-06
0.00324047
1.19639e-06
0.00324193
-2.27107e-05
0.00324886
-4.9086e-05
0.0032141
7.55478e-05
0.00315486
0.000285896
0.00308909
0.000253024
0.00302788
0.000234193
0.00296227
0.000230921
0.00289055
0.000254425
0.00281196
0.000276664
0.00272829
0.00029299
0.00264396
0.000305741
0.00255882
0.000318569
0.00246779
0.000332288
0.00236953
0.000346132
0.00226888
0.000360303
0.00216869
0.000375943
0.00206504
0.000393297
0.00195312
0.000411159
0.00183393
0.00042847
0.00171241
0.000445222
0.0015915
0.000461455
0.0014702
0.000475866
0.00134817
0.000485866
0.0012258
0.000490383
0.00110306
0.00048942
0.000979363
0.000484135
0.000854285
0.000476323
0.000728208
0.000467545
0.000603031
0.000459387
0.000478678
0.000451549
0.000356205
0.000442838
0.000235781
0.000437529
0.000117288
0.000443497
0.000476002
0.00336158
6.48923e-09
0.00336158
5.99222e-09
0.00336158
7.91988e-09
0.00336158
9.87175e-09
0.00336158
2.10501e-09
0.00336157
-4.81102e-09
0.00336157
-1.05826e-08
0.00336156
-1.28078e-08
0.00336155
4.10706e-10
0.00336154
3.67255e-08
0.00336153
1.59933e-07
0.00336149
3.51235e-07
0.00336146
9.3044e-07
0.00336134
1.28721e-06
0.00336093
2.15997e-06
0.00336116
2.41189e-06
0.00335708
-1.69203e-05
0.00335102
-3.54724e-05
0.00330489
0.000132033
0.00324622
0.000349402
0.00318699
0.00031124
0.0031231
0.000296919
0.00305324
0.000299754
0.00297915
0.000327894
0.00289785
0.000355682
0.00281219
0.000375645
0.00272593
0.000391469
0.00263752
0.000407871
0.00254205
0.000425163
0.00243932
0.00044236
0.00233482
0.000459935
0.00223098
0.000479381
0.00212318
0.000500735
0.00200672
0.000522403
0.00188325
0.00054317
0.00175823
0.000563233
0.0016344
0.000582688
0.00151018
0.000599752
0.00138538
0.000611725
0.00126018
0.000617505
0.00113438
0.00061712
0.00100742
0.000611789
0.000878747
0.000603632
0.000748455
0.000594059
0.000618864
0.000584353
0.000490534
0.000574386
0.00036376
0.000563781
0.000240361
0.000556119
0.000118878
0.000561199
0.000591636
0.00348648
6.24192e-09
0.00348648
5.97127e-09
0.00348648
7.28285e-09
0.00348648
8.40934e-09
0.00348648
7.07273e-09
0.00348647
1.65126e-09
0.00348647
-2.44305e-09
0.00348646
-2.95337e-09
0.00348644
1.98079e-08
0.00348642
6.11993e-08
0.00348639
2.07366e-07
0.00348632
4.45379e-07
0.00348621
1.14194e-06
0.00348589
1.80779e-06
0.00348532
2.92356e-06
0.00348475
4.4512e-06
0.00348147
-1.1887e-05
0.00347648
-2.30584e-05
0.00342823
0.000191443
0.00336779
0.000414401
0.00330283
0.000375451
0.00322947
0.000369373
0.00315168
0.000376163
0.00307436
0.000404588
0.00298756
0.000440903
0.00289911
0.000462392
0.00281005
0.000480777
0.0027177
0.000500498
0.00261791
0.000521096
0.00251168
0.000541489
0.00240453
0.000562534
0.00229792
0.000585893
0.0021867
0.000611339
0.00206652
0.000636829
0.0019396
0.000661126
0.00181137
0.000684621
0.0016843
0.000707326
0.00155667
0.000727053
0.00142853
0.000741005
0.0012999
0.000748133
0.00117037
0.000748614
0.00103938
0.000743503
0.000906165
0.000735142
0.000771579
0.000724495
0.000638002
0.000713358
0.000505155
0.000701848
0.000374533
0.000688505
0.00024685
0.000678962
0.000122302
0.000681913
0.000710655
0.00361602
5.89804e-09
0.00361602
5.93059e-09
0.00361602
6.5848e-09
0.00361602
6.94892e-09
0.00361602
8.48007e-09
0.00361602
5.77405e-09
0.00361601
3.99928e-09
0.003616
7.46158e-09
0.00361599
3.56311e-08
0.00361597
8.77112e-08
0.00361594
2.6194e-07
0.00361584
5.59996e-07
0.00361569
1.39912e-06
0.00361527
2.42803e-06
0.00361447
3.93235e-06
0.00361365
6.74256e-06
0.00360941
-5.85638e-06
0.00360171
-8.16329e-06
0.00354777
0.000257492
0.00349476
0.000471778
0.00342103
0.000448237
0.00333743
0.000452016
0.00324801
0.000463815
0.00316396
0.000488638
0.00307875
0.00052626
0.00298916
0.000551421
0.00289685
0.000573039
0.00280058
0.000595859
0.00269718
0.000619493
0.00258815
0.000642943
0.0024791
0.000667465
0.0023706
0.000694928
0.00225661
0.000724611
0.00213294
0.000754101
0.00200256
0.000782149
0.00187116
0.000809295
0.00174086
0.000835452
0.00160984
0.000857953
0.00147819
0.000874061
0.00134595
0.000882592
0.00121268
0.000883924
0.00107717
0.000879677
0.000939615
0.000870814
0.000800136
0.000859884
0.000660632
0.000848153
0.000522576
0.000834334
0.000386714
0.000818603
0.000255195
0.000805848
0.000125836
0.000807377
0.000833238
0.00375038
5.51473e-09
0.00375038
5.77213e-09
0.00375038
5.94494e-09
0.00375038
5.73794e-09
0.00375038
8.15952e-09
0.00375038
6.82335e-09
0.00375037
7.22773e-09
0.00375037
1.31587e-08
0.00375036
4.72139e-08
0.00375034
1.09312e-07
0.0037503
3.22238e-07
0.00375018
7.03085e-07
0.00375002
1.66256e-06
0.00374938
3.27965e-06
0.00374843
5.09056e-06
0.00374696
9.78486e-06
0.00374302
-1.93978e-07
0.00373305
9.68114e-06
0.00364924
0.000353554
0.00362977
0.00049218
0.00353371
0.000544248
0.00344195
0.000544373
0.00334528
0.000559806
0.00325552
0.000579739
0.0031702
0.000612342
0.00307878
0.000641703
0.00298362
0.000667189
0.00288452
0.000692923
0.00277894
0.00071931
0.00266884
0.000745892
0.002559
0.000774249
0.00244887
0.000806024
0.00233231
0.000840124
0.00220582
0.000873769
0.0020728
0.000905778
0.00193877
0.000936809
0.00180539
0.000966649
0.00167086
0.000992252
0.00153538
0.00101077
0.00139875
0.00102126
0.00126083
0.0010236
0.00112122
0.0010196
0.000977893
0.00101219
0.000833489
0.000999957
0.000689414
0.000987287
0.000545419
0.000972817
0.000403635
0.000954576
0.00026494
0.000939896
0.000131467
0.000937433
0.000961748
0.00388972
5.1704e-09
0.00388972
5.54464e-09
0.00388972
5.32926e-09
0.00388972
4.65474e-09
0.00388972
7.85538e-09
0.00388972
6.98325e-09
0.00388972
7.59671e-09
0.00388972
1.28266e-08
0.00388973
4.46684e-08
0.00388974
1.02809e-07
0.00388976
3.26334e-07
0.00388968
7.89472e-07
0.00388961
1.85538e-06
0.0038889
4.16489e-06
0.00388795
6.25281e-06
0.00388587
1.34728e-05
0.00388031
7.02373e-06
0.00386795
2.98889e-05
0.00378298
0.00045047
0.00371662
0.000562779
0.00363766
0.000623204
0.00354461
0.000637246
0.003449
0.000655229
0.00335454
0.000674822
0.00326339
0.000703377
0.00316955
0.000733903
0.00307274
0.000762537
0.0029723
0.000791182
0.00286586
0.000820441
0.00275529
0.000850312
0.00264494
0.00088258
0.0025336
0.00091879
0.00241472
0.00095746
0.00228514
0.000995525
0.00214905
0.00103178
0.0020123
0.001067
0.0018762
0.00110081
0.00173886
0.00112975
0.00160037
0.00115104
0.00146052
0.00116371
0.00131809
0.00116849
0.00117276
0.00116557
0.00102488
0.00115802
0.000873078
0.0011474
0.000722423
0.00113319
0.000571943
0.0011174
0.000423473
0.00109728
0.000279501
0.00107939
0.000137204
0.00107613
0.00109601
0.00403424
4.92331e-09
0.00403424
5.10457e-09
0.00403425
4.72157e-09
0.00403425
3.81841e-09
0.00403425
8.66333e-09
0.00403425
4.92441e-09
0.00403425
1.84204e-09
0.00403428
-1.51951e-08
0.00403434
-6.3622e-09
0.00403452
-7.85812e-08
0.00403484
2.58796e-08
0.00403609
-4.45438e-07
0.00403728
8.22987e-07
0.00403799
3.53096e-06
0.0040362
8.33023e-06
0.00403786
1.35958e-05
0.00402606
2.0536e-05
0.00400891
5.41288e-05
0.00391508
0.000558147
0.00382432
0.000655897
0.00374123
0.00070766
0.00364909
0.000729493
0.00355365
0.000750594
0.00345752
0.000770788
0.00336214
0.000797398
0.00326559
0.000828112
0.00316775
0.000859184
0.00306652
0.000890667
0.00295941
0.000922705
0.00284844
0.000955804
0.00273718
0.000992047
0.00262406
0.00103274
0.0025032
0.00107602
0.0023721
0.00111864
0.00223471
0.00115946
0.00209636
0.00119925
0.0019579
0.00123744
0.00181755
0.00127022
0.0016754
0.00129475
0.0015313
0.00131
0.00138505
0.00131652
0.00123465
0.00131667
0.0010798
0.00131053
0.000922876
0.00129977
0.000763687
0.00128771
0.000605832
0.00127038
0.00044854
0.00124924
0.000294412
0.00122911
0.000146523
0.00122099
0.00124
0.00418414
4.66161e-09
0.00418414
4.42652e-09
0.00418414
4.80621e-09
0.00418414
3.15774e-09
0.00418414
9.07947e-09
0.00418414
-1.63727e-09
0.00418416
-9.63648e-09
0.00418423
-8.59045e-08
0.00418432
-9.98316e-08
0.00418476
-5.2602e-07
0.00418536
-5.37788e-07
0.00418844
-3.57604e-06
0.00418875
6.48193e-07
0.0041864
5.48781e-06
0.00418616
9.53863e-06
0.00418525
1.49474e-05
0.00417773
3.02014e-05
0.00415818
8.08266e-05
0.0040557
0.000674771
0.00394377
0.000769235
0.00384593
0.000806007
0.00375111
0.000824511
0.00365552
0.000846319
0.00355953
0.000866753
0.00346288
0.000892387
0.00336538
0.000923419
0.0032672
0.00095646
0.00316544
0.000990528
0.00305751
0.00102536
0.00294616
0.00106172
0.002835
0.00110207
0.00272137
0.0011475
0.00259876
0.00119561
0.00246537
0.00124287
0.00232612
0.0012882
0.00218644
0.00133257
0.00204658
0.00137525
0.00190461
0.00141221
0.00176032
0.00144074
0.00161297
0.00145983
0.00146188
0.00146958
0.00130688
0.00147195
0.00114609
0.00146942
0.000980908
0.00146059
0.000815318
0.0014487
0.000646267
0.00143427
0.000479727
0.00141042
0.000316974
0.00138833
0.000155203
0.00137993
0.00139286
0.0043396
4.02406e-09
0.0043396
4.37822e-09
0.0043396
5.54777e-09
0.0043396
2.48654e-09
0.00433961
1.89224e-09
0.00433961
-1.08894e-09
0.0043396
-7.25362e-10
0.00433952
-5.56945e-09
0.00433939
1.96248e-08
0.00433895
4.13535e-09
0.00433806
1.89267e-07
0.00433041
5.97893e-08
0.00433192
1.58119e-06
0.00437948
2.82943e-06
0.00434057
1.13927e-05
0.00432977
1.58779e-05
0.0043281
3.95538e-05
0.00430715
0.0001086
0.0041903
0.000804999
0.00406404
0.000897315
0.00395668
0.000914033
0.0038579
0.000923585
0.00376082
0.000943542
0.0036645
0.000962987
0.00356709
0.00098811
0.00346904
0.00101953
0.00337054
0.00105411
0.00326875
0.00109028
0.00316144
0.0011277
0.00305083
0.00116754
0.00293973
0.00121213
0.00282549
0.00126214
0.00270224
0.00131496
0.0025684
0.00136717
0.00242873
0.00141764
0.00228843
0.00146711
0.0021476
0.00151465
0.0020043
0.00155613
0.00185811
0.00158902
0.00170832
0.00161225
0.00155399
0.00162676
0.0013931
0.00163417
0.00122584
0.00163504
0.00105251
0.00162967
0.000876216
0.00162062
0.000698934
0.00160588
0.00051898
0.001585
0.000340994
0.001562
0.000170138
0.00154805
0.00156076
0.00450084
3.43934e-09
0.00450084
3.82599e-09
0.00450084
4.31115e-09
0.00450084
4.04609e-09
0.00450084
1.94644e-09
0.00450083
4.57182e-09
0.00450082
1.17565e-08
0.00450077
4.21358e-08
0.00450072
1.02532e-07
0.00450027
3.05652e-07
0.00450006
6.56402e-07
0.00450254
1.82753e-06
0.00449916
3.27535e-06
0.00444042
3.99914e-06
0.00449607
1.05895e-05
0.00448866
1.80942e-05
0.00448307
4.99153e-05
0.0044659
0.000136879
0.00433345
0.000950844
0.0041888
0.00104374
0.0040714
0.00103201
0.0039682
0.00102705
0.00386942
0.00104241
0.00377262
0.00105954
0.00367487
0.00108428
0.00357694
0.00111613
0.00347857
0.00115182
0.00337643
0.00118956
0.00326938
0.00122908
0.00316026
0.00127213
0.00305053
0.00132103
0.00293653
0.00137576
0.00281318
0.0014332
0.00268005
0.00149007
0.00254174
0.00154563
0.0024026
0.00160055
0.00226212
0.00165349
0.00211842
0.00170008
0.00197084
0.00173798
0.00181899
0.00176603
0.0016627
0.00178665
0.00149758
0.00180234
0.00132236
0.00180823
0.00114021
0.00180734
0.000952935
0.00180327
0.000760976
0.00179328
0.000568451
0.00177236
0.000377152
0.00174955
0.000184609
0.00173802
0.00174362
0.00466807
3.02403e-09
0.00466807
2.97757e-09
0.00466807
2.66632e-09
0.00466807
4.83913e-09
0.00466806
4.48063e-09
0.00466806
1.00945e-08
0.00466805
1.75624e-08
0.00466802
7.73091e-08
0.00466798
1.38497e-07
0.00466784
5.08982e-07
0.00466745
8.336e-07
0.0046634
3.0422e-06
0.00466551
2.67269e-06
0.00471349
2.08149e-06
0.00467336
1.25681e-05
0.00466108
2.11694e-05
0.00465373
6.39085e-05
0.00462419
0.000172041
0.00446909
0.00112054
0.00430267
0.00121203
0.00417837
0.00115675
0.00407373
0.00113175
0.00397602
0.00114007
0.00388048
0.00115467
0.00378394
0.00117934
0.003687
0.00121206
0.00358951
0.00124838
0.00348836
0.00128717
0.00338271
0.00132891
0.0032756
0.0013753
0.00316815
0.00142835
0.00305585
0.00148754
0.00293337
0.00154945
0.00280131
0.00161089
0.00266521
0.00167137
0.00252883
0.0017316
0.00239058
0.00178996
0.00224839
0.00184217
0.00210136
0.00188587
0.0019495
0.00192102
0.00179218
0.00195024
0.00162323
0.00197341
0.00144132
0.00198816
0.00124891
0.00199403
0.001051
0.00199653
0.000844759
0.00199486
0.00063218
0.00198083
0.00041818
0.00196028
0.000209793
0.00194411
0.00195123
0.00484151
2.58184e-09
0.00484151
2.76501e-09
0.00484151
2.46784e-09
0.00484151
2.93033e-09
0.00484151
3.53305e-10
0.00484153
-4.74403e-09
0.00484155
-7.51083e-09
0.00484166
-2.61617e-08
0.0048418
-3.15019e-08
0.00484259
-1.01207e-07
0.00484315
-2.38353e-07
0.00484732
-6.59656e-07
0.00484918
-2.20252e-07
0.00486057
-3.00073e-06
0.00484883
1.51736e-05
0.00488104
1.46722e-06
0.00483281
0.000106808
0.00479013
0.000217465
0.00460817
0.00131978
0.00441112
0.00141074
0.00427583
0.0012921
0.00417422
0.00123298
0.00407872
0.00123534
0.00398613
0.00124666
0.00389171
0.00127283
0.00379672
0.00130623
0.00370126
0.00134209
0.0036033
0.00138114
0.0035022
0.0014248
0.00339946
0.0014747
0.00329502
0.00153178
0.00318505
0.00159492
0.00306568
0.00166109
0.00293761
0.00172757
0.00280567
0.00179372
0.00267331
0.00185975
0.00253872
0.00192381
0.00239971
0.00198192
0.00225534
0.00203209
0.002106
0.00207537
0.00194789
0.00211563
0.00177496
0.00214809
0.00158784
0.00217331
0.00138544
0.0021915
0.00117344
0.00220468
0.000951329
0.00221304
0.000718573
0.0022089
0.000480365
0.00219509
0.000236002
0.00218647
0.00218594
0.00502139
2.08326e-09
0.00502139
2.42283e-09
0.00502139
1.75597e-09
0.0050214
2.18811e-09
0.0050214
-6.29253e-10
0.00502139
-2.00821e-09
0.0050214
-1.36406e-08
0.00502138
-7.85691e-09
0.00502142
-5.38841e-08
0.00502121
-2.26977e-08
0.00502176
-3.42356e-07
0.0050224
-1.53092e-07
0.00502661
-3.83745e-06
0.00499721
-1.24534e-05
0.00501559
3.08509e-05
0.00508758
-6.92904e-05
0.00496306
0.000233879
0.00503511
0.000153236
0.0047758
0.0015946
0.00454542
0.00164241
0.00440062
0.00143698
0.00429718
0.00133489
0.00419819
0.00133321
0.00410455
0.00133891
0.00400738
0.00136881
0.00391098
0.00140164
0.00381593
0.00143484
0.00372
0.00147234
0.00362309
0.00151627
0.00352596
0.00156812
0.00342709
0.00162814
0.00332262
0.00169455
0.00320978
0.00176452
0.00308996
0.00183582
0.00296695
0.0019079
0.00284248
0.00198046
0.00271413
0.00205102
0.00257997
0.00211586
0.00243929
0.00217344
0.002294
0.00222632
0.00213904
0.00227993
0.00196493
0.00232564
0.00177261
0.00236475
0.00156324
0.00239717
0.0013379
0.00242667
0.00109459
0.00245329
0.00083479
0.00246517
0.000561951
0.00246499
0.000285218
0.00246126
0.00246998
0.00520796
1.66621e-09
0.00520796
1.4084e-09
0.00520796
1.93116e-09
0.00520796
2.22287e-09
0.00520796
4.82071e-09
0.00520795
1.03908e-08
0.0052079
3.68744e-08
0.00520781
7.74008e-08
0.00520751
2.45392e-07
0.00520711
4.6694e-07
0.00520483
1.43745e-06
0.00520239
2.61792e-06
0.00520692
7.90756e-06
0.00518338
2.59911e-06
0.00507971
7.92028e-06
0.00512752
4.60318e-06
0.00529133
7.88603e-05
0.0050899
0.000348499
0.00525908
0.00144365
0.00503783
0.00186559
0.00479726
0.00167689
0.00464822
0.00148329
0.00451604
0.00146528
0.00439423
0.00146136
0.00426605
0.00149611
0.0041415
0.00152289
0.00402346
0.00154896
0.003911
0.00157969
0.00380288
0.00161922
0.00369881
0.00166849
0.00359651
0.00172713
0.00349188
0.00179315
0.00338227
0.00186364
0.00326876
0.00193714
0.00315421
0.00201286
0.00303891
0.00209034
0.00291933
0.00216688
0.00279373
0.00223902
0.00266162
0.00230697
0.0025242
0.00237382
0.00237416
0.00243954
0.0022025
0.00250102
0.00200866
0.00255811
0.00179211
0.00261131
0.00155491
0.00266035
0.00129464
0.00271022
0.00100411
0.00275213
0.000688463
0.00277728
0.000346456
0.00280155
0.0028154
0.00540147
1.17303e-09
0.00540147
9.70834e-10
0.00540147
1.26465e-09
0.00540147
1.08999e-09
0.00540147
2.60454e-09
0.00540147
6.62532e-09
0.00540149
1.98403e-08
0.00540152
5.02312e-08
0.00540162
1.31986e-07
0.00540186
2.83294e-07
0.00540264
6.91121e-07
0.00540459
1.3803e-06
0.0053981
3.3922e-06
0.00541137
6.64149e-06
0.00531508
7.82272e-06
0.00538922
2.63481e-05
0.00539929
6.33803e-05
0.00553703
0.000212509
0.00616137
0.000838016
0.00595103
0.00207875
0.00560899
0.00202058
0.00535493
0.00173771
0.00514414
0.00167602
0.00494737
0.00165711
0.00477174
0.00167206
0.00459948
0.00169619
0.00443465
0.00171142
0.00427884
0.0017309
0.00413338
0.00176024
0.003998
0.00180032
0.00387033
0.00185047
0.00374667
0.00190912
0.00362549
0.00197407
0.0035072
0.00204411
0.00339324
0.0021189
0.00328244
0.00219756
0.00316947
0.00227774
0.00305392
0.0023546
0.00293715
0.00243106
0.00281151
0.00251194
0.00266628
0.00259258
0.00250173
0.00266891
0.00231287
0.00274679
0.00209685
0.0028247
0.00185042
0.0029035
0.00157347
0.00298489
0.00125484
0.00306824
0.000887056
0.00314245
0.000472958
0.00321313
0.00328735
0.00560216
5.63376e-10
0.00560216
6.73689e-10
0.00560216
5.8693e-10
0.00560216
7.99581e-10
0.00560216
1.98786e-09
0.00560216
6.73696e-09
0.00560216
1.66395e-08
0.00560217
4.47291e-08
0.00560222
9.80061e-08
0.0056023
1.77432e-07
0.00560268
3.67397e-07
0.00560345
7.13373e-07
0.00560658
8.48283e-07
0.0056056
5.04061e-06
0.00562364
4.36948e-06
0.00560008
2.69276e-05
0.00563711
3.97216e-05
0.00570036
0.000154603
0.00606384
0.000472458
0.00614062
0.00201311
0.0060917
0.00207042
0.00582821
0.00199912
0.00562446
0.00187611
0.00542636
0.00185024
0.00524896
0.00184641
0.00507816
0.00186714
0.00490414
0.00188555
0.0047309
0.0019025
0.00456347
0.00192506
0.00440424
0.00195634
0.00425311
0.00199674
0.00410897
0.00204582
0.00397153
0.00210297
0.00384189
0.00216751
0.00372034
0.00223882
0.00360734
0.00231351
0.00349857
0.00239135
0.00338592
0.00247309
0.00327201
0.00255543
0.00315718
0.00264192
0.00302665
0.00273279
0.00287461
0.00282501
0.00269987
0.00292079
0.00249712
0.0030234
0.00226256
0.00313367
0.00198485
0.0032587
0.00165138
0.00339922
0.00123663
0.00355511
0.000708195
0.00374171
0.003995
0.00581031
7.29577e-11
0.00581031
2.09732e-10
0.00581031
3.16685e-10
0.00581031
8.71058e-10
0.00581031
1.75432e-09
0.00581031
5.50021e-09
0.00581032
9.52634e-09
0.00581033
3.13719e-08
0.0058104
2.49211e-08
0.0058104
1.48786e-07
0.00581077
3.95808e-08
0.00581109
3.34608e-07
0.00581205
-9.63177e-08
0.00581145
4.22985e-06
0.00583244
-6.56582e-06
0.00579538
4.7173e-05
0.0058905
-3.20855e-05
0.00580217
0.000233324
0.00597756
0.000295215
0.00603096
0.00197308
0.00596888
0.0021326
0.00589472
0.00207025
0.00579509
0.00197054
0.0056816
0.00195832
0.00555815
0.00196477
0.00542714
0.00199457
0.00528601
0.00202492
0.00513654
0.00205048
0.00498181
0.00207651
0.00482592
0.00210672
0.00467253
0.0021425
0.00452476
0.00218504
0.00438468
0.00223566
0.00425481
0.00229377
0.00413572
0.0023581
0.00402287
0.00243027
0.00390993
0.00250979
0.00380035
0.0025898
0.0036928
0.00267317
0.0035869
0.00276266
0.00347109
0.00285901
0.00334065
0.0029608
0.0031907
0.00307233
0.00301776
0.00319393
0.002816
0.00333116
0.00257905
0.00349145
0.00228194
0.00369256
0.00188679
0.00394715
0.00134266
0.00428404
0.00533842
0.00840003
5.24536e-12
0.00840003
3.33742e-11
0.00840003
1.02099e-10
0.00840003
2.71452e-10
0.00840003
6.22425e-10
0.00840004
1.43628e-09
0.00840004
2.94471e-09
0.00840008
6.72443e-09
0.00840007
1.43865e-08
0.00840016
3.60013e-08
0.00839987
9.04864e-08
0.00840054
2.5097e-07
0.0083926
4.93755e-07
0.00843915
1.26141e-06
0.00838618
2.17225e-06
0.00847758
1.12764e-05
0.00840268
3.38038e-05
0.00848699
0.000109683
0.00826027
0.000517275
0.00824384
0.00201319
0.00809341
0.00228534
0.0080266
0.00213549
0.00796342
0.00202781
0.00788065
0.00203456
0.00779326
0.00204457
0.00769133
0.00208881
0.0075763
0.00213419
0.00744831
0.00217496
0.00730693
0.00221306
0.00715223
0.00225137
0.00698912
0.00229057
0.00682692
0.0023327
0.00667307
0.00237874
0.00652699
0.00243175
0.00638531
0.00249337
0.00625611
0.00256086
0.00613524
0.00263406
0.00601827
0.00271114
0.00590382
0.00279341
0.00579448
0.00287969
0.00568929
0.00297247
0.00558263
0.00307315
0.00547664
0.00318095
0.00536817
0.00330251
0.00526675
0.00342997
0.00518459
0.00356997
0.00516458
0.00370922
0.00527928
0.00382942
0.00568309
0.00387845
0.00355166
0.00746999
0.00840003
2.49273e-12
0.00840003
1.22537e-11
0.00840003
4.707e-11
0.00840003
8.98259e-11
0.00840003
2.56095e-10
0.00840003
5.70421e-10
0.00840002
5.53852e-10
0.00840005
3.77544e-10
0.00840001
1.31819e-08
0.00840022
1.75668e-08
0.00840017
1.15705e-07
0.00839787
3.24254e-07
0.00840104
3.87256e-07
0.00838483
4.19969e-07
0.00839239
3.83242e-06
0.00845578
7.34373e-06
0.00834504
5.24241e-05
0.00840173
0.000112477
0.00837364
0.000544327
0.00853236
0.00184658
0.00834202
0.00248134
0.00816501
0.00231895
0.0080713
0.00212191
0.00798796
0.00211635
0.00788455
0.0021442
0.00779451
0.0021721
0.00770235
0.00221959
0.00760944
0.00226322
0.00751264
0.00230483
0.00740804
0.0023467
0.00729641
0.00238691
0.00718566
0.00242804
0.00707692
0.00247593
0.00696905
0.00252857
0.00686948
0.00258273
0.00678351
0.00264084
0.00671114
0.00270695
0.00664293
0.00277799
0.00658315
0.0028519
0.00652733
0.00293176
0.00648439
0.00301133
0.00645548
0.00309721
0.00644857
0.00318315
0.00647543
0.00327143
0.00654266
0.00335927
0.00668082
0.0034297
0.00690131
0.00348778
0.00725691
0.00347414
0.00770925
0.00342625
0.00304922
0.00821508
0.00840003
6.02852e-13
0.00840003
2.69741e-12
0.00840003
1.18786e-11
0.00840003
2.90438e-11
0.00840003
-2.92973e-11
0.00840003
-7.13108e-12
0.00840003
-5.30573e-10
0.00840003
-1.72579e-09
0.00840005
3.2465e-09
0.00840005
1.01721e-08
0.00840026
-1.35144e-08
0.00839978
4.49677e-08
0.00840018
-1.24852e-08
0.00840233
-1.39086e-06
0.00839855
4.65639e-06
0.00839682
9.74617e-06
0.00842159
2.91772e-05
0.00844367
8.70451e-05
0.00873647
0.000245926
0.00977135
0.000819779
0.00953166
0.00271743
0.00922514
0.00261802
0.00890635
0.00243105
0.00865992
0.00235618
0.00848469
0.00231372
0.00832074
0.00232978
0.00817231
0.00236063
0.00803687
0.00239119
0.00791346
0.00242053
0.00780204
0.00244993
0.0076974
0.00248128
0.0075966
0.00251762
0.00750328
0.00255706
0.00742139
0.00259912
0.00734863
0.00264438
0.00728786
0.00269234
0.00724572
0.00274343
0.0072201
0.00280108
0.00720617
0.00286021
0.00720775
0.00292274
0.00722259
0.00298682
0.00726146
0.0030459
0.00732367
0.0031081
0.00742801
0.00315443
0.00757393
0.00320251
0.00777907
0.00321543
0.0080369
0.00322339
0.00834197
0.0031642
0.00868506
0.00307994
0.00285592
0.00887692
0.00840003
1.37681e-12
0.00840003
5.87356e-12
0.00840003
2.29971e-11
0.00840003
4.23117e-11
0.00840003
2.33539e-10
0.00840003
2.59863e-10
0.00840003
2.2511e-09
0.00840004
2.98444e-09
0.00840005
1.72e-08
0.00840003
2.41193e-08
0.00839989
1.62546e-07
0.00840012
1.58255e-07
0.00839877
9.49573e-07
0.00838605
1.78425e-06
0.00839309
2.64521e-06
0.00851492
2.05594e-06
0.00842146
2.4022e-05
0.00844122
4.59964e-05
0.0085128
0.000185526
0.00879971
0.000535219
0.00906642
0.00244814
0.00906103
0.00261615
0.00888687
0.00259242
0.00878334
0.0024481
0.00866919
0.00241841
0.00856205
0.00242874
0.00846135
0.00245474
0.00836363
0.00248193
0.0082705
0.00250732
0.00817859
0.00253139
0.00809168
0.00255583
0.0080121
0.00258456
0.00794059
0.0026158
0.00787729
0.00264914
0.00782464
0.00268433
0.00778345
0.00272107
0.00775637
0.00275884
0.00775167
0.00279804
0.00776427
0.00283989
0.00779959
0.00287915
0.00785398
0.00292315
0.00793425
0.00295606
0.00803895
0.00299335
0.00817507
0.00300865
0.00834172
0.00302558
0.00853984
0.0030078
0.00876968
0.00298393
0.00901096
0.00291471
0.00929058
0.00279359
0.00267805
0.00946287
0.00840003
1.65638e-12
0.00840003
1.9546e-13
0.00840003
2.20882e-11
0.00840003
7.10543e-12
0.00840003
2.64825e-10
0.00840003
5.18576e-11
0.00840003
1.77864e-09
0.00840004
4.75596e-10
0.00840006
7.43071e-09
0.00840011
-4.42924e-09
0.00840026
8.7932e-08
0.00840075
-1.77696e-07
0.00840121
2.88351e-07
0.00840405
-5.07573e-07
0.00840594
-2.85079e-06
0.00843094
-7.4955e-06
0.0084027
3.02983e-05
0.0084769
-1.28956e-05
0.00841185
0.000243413
0.00854467
0.000395833
0.00862664
0.00236786
0.00850293
0.00273303
0.00849579
0.00258962
0.00850185
0.00242976
0.00848217
0.00242752
0.00846192
0.00243888
0.00844121
0.00246636
0.00841705
0.00249797
0.0083908
0.00252509
0.00836223
0.00255064
0.00832859
0.00257694
0.0082941
0.00260348
0.00826387
0.00263032
0.00823943
0.0026583
0.00822175
0.00268681
0.00821333
0.00271468
0.00821546
0.00274252
0.00823243
0.00276803
0.00826661
0.00279498
0.00832035
0.00281593
0.00839601
0.00283958
0.00849358
0.00285139
0.00861533
0.00286574
0.00875687
0.00286166
0.00892491
0.00285391
0.00910381
0.00282362
0.00930386
0.00277938
0.00952366
0.00269044
0.00969737
0.00261551
0.00249359
0.00987735
0.00840003
3.87505e-13
0.00840003
6.69929e-13
0.00840003
5.71159e-12
0.00840003
5.35399e-12
0.00840003
5.3274e-11
0.00840003
5.38158e-11
0.00840003
3.49032e-10
0.00840003
3.13767e-10
0.00840004
9.8953e-10
0.00840003
2.90944e-09
0.00840007
1.45674e-08
0.00839976
1.24729e-07
0.00839936
3.27093e-07
0.0083991
1.11886e-06
0.00838765
2.79552e-06
0.00837517
4.62005e-06
0.00846624
1.2272e-05
0.00830576
4.19846e-05
0.00848655
0.000117646
0.00829377
0.000570674
0.00866789
0.00197705
0.00863296
0.00276946
0.00855064
0.00267065
0.00849902
0.00247468
0.00849582
0.00242518
0.00847494
0.00245735
0.00847011
0.00246873
0.00847095
0.00249332
0.00847624
0.00251422
0.00848012
0.00253892
0.00847998
0.00256522
0.00848132
0.00258724
0.00848605
0.00260964
0.00849567
0.00263227
0.00851068
0.00265488
0.00853284
0.00267537
0.00856321
0.00269524
0.00860461
0.00271048
0.00865981
0.00272542
0.00872993
0.00273298
0.00881856
0.00274057
0.00892404
0.00273776
0.00905054
0.00273262
0.00919068
0.00271696
0.00934962
0.00269178
0.00951714
0.00265456
0.00970319
0.00259236
0.0098666
0.0025255
0.0100312
0.0024493
0.00233941