/*--------------------------------*- C++ -*----------------------------------*\
| =========                 |                                                 |
| \\      /  F ield         | OpenFOAM: The Open Source CFD Toolbox           |
|  \\    /   O peration     | Version:  2112                                  |
|   \\  /    A nd           | Website:  www.openfoam.com                      |
|    \\/     M anipulation  |                                                 |
\*---------------------------------------------------------------------------*/
FoamFile
{
    version     2.0;
    format      ascii;
    arch        "LSB;label=32;scalar=64";
    class       volScalarField;
    location    "7.5";
    object      T;
}
// * * * * * * * * * * * * * * * * * * * * * * * * * * * * * * * * * * * * * //

dimensions      [0 0 0 1 0 0 0];

internalField   nonuniform List<scalar> 
7000
(
1
1
1
1
0.999996
1.00001
1.00003
1.00028
1.00055
1.00225
1.00348
1.01219
1.0204
1.05045
1.13746
1.34757
1.80743
2.61244
2.71725
2.69565
2.66147
2.66003
2.66938
2.67899
2.68757
2.69639
2.70772
2.71648
2.72126
2.72839
2.74005
2.74924
2.75192
2.75467
2.76495
2.78027
2.79175
2.79507
2.79332
2.78799
2.77989
2.77137
2.76553
2.76458
2.7667
2.77118
2.78338
2.7985
2.80531
2.80117
1
1
1
1
0.999997
1.00001
1.00003
1.00028
1.00053
1.00218
1.00337
1.0117
1.01964
1.04749
1.1346
1.33397
1.80062
2.60936
2.72019
2.69799
2.66523
2.66335
2.67235
2.68135
2.69058
2.70008
2.71075
2.71792
2.722
2.72981
2.74214
2.7511
2.75347
2.75667
2.76765
2.783
2.79388
2.79667
2.79466
2.78911
2.78093
2.77248
2.7667
2.76624
2.76876
2.77305
2.78541
2.80005
2.80502
2.79677
1
1
1
1
0.999998
1.00001
1.00003
1.00028
1.00052
1.00213
1.00329
1.01144
1.01921
1.04645
1.13243
1.32789
1.79728
2.61306
2.72021
2.69942
2.66758
2.66519
2.67384
2.68204
2.69181
2.70223
2.71216
2.71759
2.72134
2.73008
2.74238
2.75007
2.75199
2.75618
2.76812
2.78326
2.7932
2.79537
2.79318
2.78765
2.77966
2.77164
2.76624
2.76646
2.76951
2.77409
2.78601
2.80093
2.80554
2.79706
1
1
1
1
1
1.00002
1.00003
1.00028
1.00051
1.00208
1.00319
1.01111
1.01865
1.04505
1.12944
1.3199
1.78886
2.6057
2.71934
2.69776
2.6698
2.66616
2.67462
2.68218
2.69225
2.70303
2.71255
2.7174
2.72151
2.73108
2.74336
2.75032
2.75198
2.75674
2.76908
2.78367
2.79266
2.79431
2.79184
2.78608
2.77808
2.77024
2.76534
2.76661
2.76987
2.77434
2.78683
2.80003
2.80413
2.79393
1
1
1
1
1
1.00002
1.00003
1.00028
1.0005
1.00201
1.00309
1.01074
1.01806
1.04336
1.12689
1.31193
1.78264
2.60284
2.71856
2.69738
2.67222
2.66781
2.67602
2.68288
2.69325
2.70353
2.71172
2.71594
2.7208
2.73141
2.74385
2.75023
2.75158
2.75676
2.76965
2.78422
2.79237
2.79328
2.79038
2.78441
2.77645
2.76897
2.76433
2.76514
2.76871
2.77441
2.78647
2.8001
2.80318
2.79382
1
1
1
1
1
1.00002
1.00003
1.00027
1.00049
1.00194
1.00297
1.01034
1.01742
1.04163
1.12395
1.30356
1.77455
2.5964
2.71672
2.69419
2.67515
2.66915
2.67628
2.68348
2.69383
2.70333
2.71029
2.71442
2.72049
2.73206
2.7441
2.74966
2.75102
2.7568
2.76988
2.7837
2.79101
2.79157
2.7885
2.78239
2.77439
2.76723
2.76294
2.7653
2.76961
2.77414
2.78599
2.79756
2.80025
2.78897
1
1
1
1
1
1.00002
1.00003
1.00027
1.00047
1.00187
1.00284
1.00988
1.01669
1.03955
1.12093
1.29457
1.76608
2.58834
2.71513
2.68853
2.67787
2.67106
2.67694
2.68521
2.69386
2.70223
2.7088
2.7137
2.72083
2.73293
2.74459
2.74906
2.74991
2.75613
2.76962
2.78319
2.78982
2.78997
2.78652
2.78012
2.77189
2.76407
2.76068
2.76253
2.76589
2.77288
2.78595
2.79866
2.7993
2.78907
1
1
1
1
1
1.00002
1.00003
1.00026
1.00045
1.00177
1.00269
1.00935
1.01586
1.03717
1.1177
1.28501
1.75664
2.57839
2.71122
2.68154
2.68012
2.67283
2.67687
2.68541
2.69253
2.70126
2.70855
2.71418
2.72212
2.73402
2.74422
2.74769
2.74872
2.75552
2.76884
2.78145
2.78712
2.78691
2.78341
2.77713
2.76976
2.76328
2.75807
2.76205
2.76526
2.7696
2.7818
2.79293
2.79733
2.78412
1
1
1
1
1
1.00002
1.00003
1.00025
1.00043
1.00166
1.0025
1.00872
1.01487
1.03438
1.11425
1.27503
1.74659
2.57158
2.70201
2.68459
2.67798
2.6718
2.67527
2.68439
2.69231
2.70157
2.70913
2.71509
2.7228
2.73393
2.74304
2.74562
2.74661
2.75411
2.76821
2.781
2.78632
2.78579
2.78171
2.77469
2.7658
2.7594
2.75665
2.75759
2.76408
2.769
2.78167
2.79292
2.79193
2.78259
1
1
1
1
1
1.00002
1.00003
1.00024
1.00041
1.00155
1.00232
1.0079
1.01375
1.03061
1.11092
1.26416
1.73614
2.56225
2.69149
2.68892
2.67617
2.66969
2.67287
2.68164
2.69052
2.70081
2.70865
2.71428
2.72195
2.73237
2.74057
2.74334
2.74528
2.753
2.76605
2.77734
2.78168
2.78088
2.77698
2.77069
2.76299
2.75504
2.75193
2.75571
2.75803
2.76602
2.77626
2.78745
2.79202
2.77706
1
1
1
1
1
1.00002
1.00003
1.00022
1.00039
1.0014
1.00211
1.00691
1.01254
1.02741
1.10612
1.25178
1.72042
2.54144
2.6858
2.68665
2.67773
2.67063
2.67349
2.68134
2.6899
2.69997
2.70725
2.71271
2.72056
2.7312
2.73879
2.74074
2.74279
2.75152
2.76539
2.77664
2.78043
2.77916
2.77455
2.76739
2.75968
2.75333
2.7487
2.75167
2.75597
2.75843
2.77354
2.78462
2.78252
2.77427
1
1
1
1
1.00001
1.00001
1.0001
1.00019
1.00078
1.00119
1.00453
1.00409
1.01351
1.02259
1.10293
1.23869
1.70195
2.51945
2.67589
2.68661
2.6779
2.67107
2.67392
2.68151
2.68997
2.69936
2.70607
2.71151
2.71905
2.72856
2.73545
2.73777
2.74049
2.74918
2.7624
2.773
2.77654
2.77525
2.7706
2.76355
2.75501
2.74762
2.74423
2.74658
2.75054
2.75596
2.765
2.77606
2.78224
2.76649
1
1
1
1
1.00001
1.00001
1.00009
1.00017
1.0007
1.00103
1.00403
1.00341
1.01206
1.02058
1.09398
1.22385
1.67906
2.49007
2.66169
2.68679
2.67799
2.67126
2.67402
2.68152
2.68997
2.69864
2.70439
2.70974
2.7179
2.72698
2.73267
2.73483
2.7385
2.74754
2.75969
2.76879
2.7715
2.77009
2.7658
2.75973
2.7512
2.74044
2.73735
2.7412
2.7444
2.75003
2.76296
2.77302
2.77025
2.76365
1
1
1
1
1.00001
1.00001
1.00009
1.00016
1.00062
1.00092
1.00343
1.00287
1.01091
1.01589
1.08853
1.20516
1.65005
2.45192
2.64332
2.68735
2.67826
2.67134
2.67379
2.68117
2.68944
2.69748
2.70276
2.70812
2.71621
2.72503
2.73016
2.73195
2.73605
2.74599
2.75824
2.76631
2.76808
2.76627
2.76216
2.75573
2.74582
2.73418
2.72934
2.7342
2.73812
2.73967
2.75062
2.76288
2.76915
2.7515
1
1
1
1
1
1.00001
1.00004
1.00015
1.00029
1.00077
1.00174
1.00319
1.01009
1.01233
1.07984
1.18533
1.61551
2.39818
2.61948
2.68881
2.67998
2.67236
2.67409
2.68112
2.68893
2.69585
2.70082
2.7062
2.71317
2.72022
2.72476
2.72766
2.73286
2.74256
2.75393
2.76152
2.76322
2.76156
2.75774
2.7504
2.73792
2.72818
2.72388
2.72585
2.73121
2.73412
2.74193
2.75298
2.75265
2.74919
1
1
1
1
1.00001
1.00001
1.00007
1.00013
1.00046
1.00076
1.00255
1.00146
1.01139
1.0043
1.06853
1.15891
1.57514
2.32923
2.58618
2.68645
2.67675
2.67027
2.67213
2.68023
2.68825
2.69527
2.70033
2.70576
2.71252
2.71828
2.72194
2.72508
2.73069
2.73951
2.74843
2.75359
2.75444
2.75323
2.75073
2.74441
2.72956
2.71921
2.714
2.71576
2.71767
2.71909
2.72915
2.74105
2.74692
2.72895
1
1
1
1
1
1.00003
1.00006
1.00024
1.00038
1.00134
1.00213
1.00772
1.00715
1.02248
1.05035
1.18181
1.43124
2.03501
2.55336
2.69524
2.68285
2.6689
2.66591
2.67178
2.67739
2.68638
2.69471
2.70177
2.7089
2.71499
2.71915
2.72319
2.72947
2.73791
2.74555
2.74914
2.74911
2.74752
2.74389
2.73574
2.72108
2.70828
2.70304
2.70291
2.70786
2.70632
2.70963
2.72217
2.72404
2.72177
1
1
1
1
1
1.00001
1.00005
1.00008
1.00025
1.00045
1.00101
1.00323
1.0027
1.01935
1.04465
1.14404
1.34302
1.84791
2.45538
2.6748
2.66274
2.66126
2.65781
2.66741
2.67294
2.67814
2.68283
2.68948
2.69646
2.70294
2.70879
2.7153
2.72414
2.73385
2.74179
2.74534
2.74539
2.74372
2.7375
2.72349
2.70894
2.69859
2.68872
2.68593
2.68687
2.69071
2.69098
2.7009
2.7063
2.68779
1
1
1
1
1.00001
1.00001
1.00004
1.00006
1.00019
1.00036
1.0007
1.00289
1.00161
1.01723
1.0358
1.12324
1.29364
1.75618
2.5246
2.66763
2.6406
2.64294
2.64068
2.65193
2.66237
2.67151
2.67706
2.6817
2.68664
2.69132
2.696
2.70161
2.7091
2.71764
2.72545
2.73038
2.73112
2.73055
2.72653
2.71455
2.69895
2.68674
2.67803
2.67048
2.66753
2.66173
2.66139
2.66269
2.66574
2.658
1
1
1
1
1
1.00001
1.00002
1.00003
1.00006
1.00023
1.00038
1.00204
1.00138
1.01361
1.02226
1.10374
1.24147
1.71217
2.51129
2.66465
2.66296
2.64887
2.64192
2.64408
2.65336
2.66234
2.66953
2.67357
2.67747
2.68213
2.68708
2.69206
2.69657
2.70063
2.70263
2.70436
2.70461
2.70431
2.70247
2.69494
2.6833
2.67184
2.66117
2.65335
2.64619
2.63995
2.62371
2.61695
2.60016
2.50855
1
1
1
1
1
1
1.00001
1.00001
1.00008
1.00014
1.00067
1.00092
1.00634
1.00312
1.03294
1.07683
1.25922
1.63485
2.25188
2.61493
2.67165
2.66014
2.65156
2.65193
2.65619
2.66141
2.66719
2.67006
2.67152
2.67403
2.67868
2.68335
2.6859
2.68634
2.68618
2.68373
2.67852
2.67464
2.66986
2.66553
2.65533
2.64596
2.63224
2.61814
2.60462
2.58666
2.56817
2.52618
2.48364
2.38775
1
1
1
1
1
1
1.00001
1.00001
1.00006
1.00014
1.00051
1.00081
1.00478
1.00296
1.0279
1.06227
1.20903
1.48526
2.09744
2.53587
2.6581
2.64882
2.64384
2.64438
2.64806
2.65491
2.66164
2.66503
2.66633
2.66798
2.67186
2.67623
2.67878
2.6786
2.67732
2.67415
2.66551
2.65773
2.64884
2.63933
2.63257
2.61899
2.60876
2.5878
2.56811
2.53929
2.50173
2.46068
2.37813
2.32041
1
1
1
1
1
1
1
1.00001
1.00004
1.00007
1.00042
1.00026
1.0026
1.00559
1.01765
1.04971
1.13666
1.3446
1.76645
2.46295
2.65064
2.62754
2.62379
2.61558
2.61875
2.62569
2.63378
2.6417
2.64825
2.65317
2.65759
2.66195
2.66527
2.66665
2.66619
2.66435
2.65957
2.64839
2.63952
2.62568
2.61399
2.60065
2.58385
2.56834
2.53955
2.51591
2.468
2.43134
2.35704
2.31179
1
1
1
1
1
1
1.00001
1.00001
1.00006
1.00006
1.00052
1.00087
1.0044
1.00399
1.01429
1.02608
1.11346
1.26949
1.73664
2.51672
2.65395
2.64355
2.62742
2.61539
2.61431
2.61851
2.62136
2.62493
2.62771
2.6304
2.63581
2.63939
2.64201
2.64462
2.64583
2.64537
2.64399
2.63933
2.63049
2.62072
2.60434
2.59296
2.57047
2.55551
2.52468
2.50427
2.46062
2.43151
2.37169
2.33082
1
1
1
1
1
1
1
1
1.00002
1.00003
1.00021
1.00028
1.00174
1.00183
1.01144
1.0105
1.08644
1.2085
1.66626
2.45654
2.61805
2.65026
2.63829
2.62598
2.62153
2.62172
2.62242
2.62378
2.62345
2.62338
2.62384
2.62497
2.62611
2.62649
2.62622
2.6252
2.62273
2.61967
2.61212
2.60583
2.59118
2.58072
2.55795
2.54386
2.51422
2.49375
2.46028
2.42868
2.39198
2.3501
1
1
1
1
1
1
1
1.00001
1.00001
1.00011
1.00009
1.00109
1.00182
1.00942
1.00895
1.02817
1.05888
1.21154
1.49099
2.12281
2.545
2.6497
2.63631
2.63158
2.62671
2.6263
2.62549
2.62472
2.62283
2.62066
2.61949
2.61867
2.61813
2.61738
2.61579
2.61416
2.61075
2.60763
2.60055
2.59471
2.58173
2.57174
2.55272
2.53554
2.51289
2.48864
2.46257
2.43154
2.40167
2.37219
1
1
1
1
1
1
1
1.00001
1.00002
1.00008
1.00008
1.00072
1.00121
1.00627
1.00591
1.01845
1.04092
1.13486
1.32982
1.76385
2.4613
2.63264
2.61661
2.61053
2.60051
2.60155
2.60686
2.60899
2.61229
2.6115
2.6104
2.60929
2.60823
2.6071
2.60447
2.60198
2.59718
2.59403
2.58733
2.58256
2.57287
2.5642
2.55053
2.53388
2.51556
2.49305
2.46878
2.44242
2.41314
2.38841
1
1
1
1
1
1
1
1.00001
1.00001
1.00005
1.00005
1.00041
1.00069
1.00343
1.00335
1.01341
1.01838
1.10021
1.2451
1.71152
2.47903
2.63896
2.63697
2.62022
2.6023
2.59724
2.59764
2.59857
2.59979
2.59909
2.59786
2.59671
2.59514
2.59368
2.59045
2.58753
2.58167
2.57719
2.57102
2.56485
2.55822
2.54901
2.54122
2.5302
2.51497
2.49837
2.47852
2.45806
2.43475
2.41181
1
1
1
1
1
1
1
1
1
1.00003
1.00002
1.00024
1.00038
1.00197
1.00232
1.01503
1.00406
1.08369
1.1844
1.62529
2.39319
2.58639
2.64618
2.63172
2.61973
2.6106
2.60674
2.60518
2.60264
2.59989
2.59589
2.59338
2.58938
2.58688
2.5819
2.57791
2.57184
2.56525
2.55878
2.55125
2.54352
2.53519
2.52555
2.51623
2.50656
2.49452
2.48068
2.46465
2.44721
2.42959
1
1
1
1
1
1
1
1
1.00001
1.00001
1.00009
1.00005
1.00075
1.00115
1.00646
1.00558
1.02098
1.04147
1.16672
1.38934
1.95276
2.47143
2.63608
2.62171
2.61446
2.60181
2.59845
2.598
2.59697
2.59526
2.59146
2.58889
2.58481
2.5823
2.57771
2.57348
2.56826
2.56158
2.55504
2.54717
2.53892
2.52988
2.52015
2.50956
2.49877
2.48743
2.47606
2.46335
2.4492
2.43537
1
1
1
1
1
1
1
1
1.00001
1.00001
1.00005
1.00004
1.00039
1.00062
1.00338
1.00319
1.01387
1.0189
1.10922
1.26623
1.74034
2.49213
2.63355
2.6298
2.61494
2.59676
2.58931
2.58801
2.58692
2.5852
2.58154
2.57793
2.57322
2.56924
2.56575
2.56174
2.55871
2.55406
2.54948
2.54348
2.53649
2.52839
2.51958
2.50951
2.49966
2.4884
2.47711
2.46489
2.45213
2.4399
1
1
1
1
1
1
1
1
1
1.00002
1.00002
1.00013
1.00009
1.00125
1.00188
1.01144
1.00898
1.03444
1.07511
1.26214
1.66499
2.22471
2.59479
2.6473
2.62984
2.61469
2.60414
2.59912
2.59526
2.59145
2.58609
2.57937
2.57343
2.56697
2.56123
2.55519
2.55002
2.54473
2.53923
2.53363
2.52826
2.52183
2.51535
2.50785
2.49928
2.48986
2.47978
2.46928
2.45781
2.44746
1
1
1
1
1
1
1
1
1
1
1.00002
1.00002
1.00017
1.00018
1.0012
1.00161
1.01294
1.00424
1.07652
1.14852
1.56759
2.27437
2.50856
2.62638
2.61114
2.60393
2.59284
2.59236
2.5921
2.59075
2.58782
2.58236
2.57579
2.56814
2.56132
2.55448
2.54848
2.5423
2.53645
2.53001
2.5232
2.51654
2.50934
2.50222
2.49484
2.48717
2.47862
2.46979
2.46007
2.45116
1
1
1
1
1
1
1
1
1
1.00001
1.00001
1.00005
1.00004
1.00046
1.00071
1.00405
1.0039
1.01617
1.0248
1.12431
1.3051
1.78622
2.51391
2.63222
2.62028
2.60175
2.58185
2.57545
2.57555
2.57553
2.57475
2.57226
2.56819
2.56269
2.55745
2.55147
2.54571
2.53986
2.53418
2.52836
2.52217
2.51578
2.50906
2.50209
2.49462
2.48711
2.47907
2.47093
2.46229
2.45419
1
1
1
1
1
1
1
1
1
1
1
1.00003
1.00003
1.00026
1.00041
1.00242
1.00222
1.0188
1.00339
1.09798
1.22863
1.70741
2.48701
2.64422
2.65071
2.63287
2.60728
2.59212
2.58482
2.57907
2.57462
2.56893
2.56299
2.55668
2.55103
2.54599
2.54209
2.53762
2.53313
2.52823
2.52301
2.51738
2.51124
2.50484
2.49761
2.49017
2.48231
2.47442
2.46619
2.45856
1
1
1
1
1
1
1
1
1
1
1.00001
1.00001
1.0001
1.00006
1.00083
1.00125
1.008
1.00456
1.02569
1.05832
1.22536
1.54037
2.14139
2.57324
2.66019
2.6391
2.62318
2.60622
2.59827
2.59216
2.58524
2.57654
2.56724
2.55851
2.55118
2.54388
2.53734
2.53173
2.52688
2.52291
2.51981
2.5163
2.51181
2.50721
2.50222
2.49666
2.49048
2.48355
2.47609
2.4689
1
1
1
1
1
1
1
1
1
1
1.00001
1.00001
1.00006
1.00003
1.00052
1.00078
1.0048
1.0046
1.01886
1.03546
1.14089
1.35613
1.80086
2.46415
2.67981
2.64809
2.62803
2.60099
2.58994
2.58707
2.58403
2.57808
2.57065
2.5622
2.55381
2.54566
2.53839
2.53199
2.52649
2.52139
2.51662
2.51281
2.50909
2.50545
2.50196
2.49801
2.49373
2.48904
2.4833
2.47811
1
1
1
1
1
1
1
1
1
1
1
1.00001
1.00002
1.00013
1.00019
1.00113
1.00119
1.00903
1.00201
1.04519
1.10674
1.34256
1.91686
2.35882
2.65848
2.64382
2.63332
2.60891
2.59759
2.59329
2.58994
2.58619
2.58282
2.57771
2.57059
2.56214
2.55275
2.54397
2.53576
2.52798
2.52111
2.51533
2.51078
2.50637
2.50227
2.49813
2.49365
2.48933
2.48412
2.47958
1
1
1
1
1
1
1
1
1
1
1
1.00001
1.00001
1.00009
1.00012
1.00078
1.00097
1.00497
1.00993
1.03477
1.08063
1.27852
1.7192
2.25435
2.59256
2.62707
2.61244
2.59713
2.58761
2.58554
2.58553
2.58503
2.58396
2.58243
2.58032
2.57612
2.56836
2.55931
2.54952
2.54004
2.53148
2.52337
2.51684
2.51073
2.50517
2.5002
2.49502
2.49039
2.48511
2.48057
1
1
1
1
1
1
1
1
1
1
1
1
1.00003
1.00002
1.0002
1.00021
1.00155
1.00172
1.01367
1.00631
1.07967
1.17616
1.59539
2.32556
2.57749
2.6548
2.63096
2.61167
2.59701
2.59086
2.5879
2.58597
2.58469
2.58391
2.58253
2.581
2.57796
2.57401
2.56916
2.56273
2.55545
2.54679
2.53777
2.52894
2.51995
2.5118
2.50411
2.49753
2.4911
2.48549
1
1
1
1
1
1
1
1
1
1
1
1.00001
1.00004
1.00004
1.00014
1.00016
1.00116
1.00137
1.01117
1.00117
1.0679
1.12978
1.52269
2.20249
2.5215
2.65431
2.63326
2.61641
2.59913
2.58936
2.58252
2.57736
2.57386
2.57203
2.57147
2.57181
2.57176
2.57119
2.56977
2.56664
2.56302
2.55794
2.55262
2.54668
2.54036
2.53431
2.52678
2.51965
2.51133
2.50396
1
1
1
1
1
1
1
1
1
1
1
1.00001
1.00001
1.00005
1.00003
1.00034
1.00048
1.00278
1.00136
1.0158
1.00985
1.11066
1.2922
1.79898
2.53733
2.64974
2.63323
2.6205
2.60046
2.59043
2.58412
2.57841
2.57294
2.56864
2.56617
2.56519
2.5646
2.56425
2.56397
2.56314
2.5612
2.55845
2.55441
2.55165
2.54791
2.54462
2.54083
2.53568
2.53088
2.52466
1
1
1
1
1
1
1
1
1
1
1
1
1
1.00003
1.00001
1.00028
1.00041
1.0026
1.00262
1.01944
1.0027
1.09916
1.23094
1.71665
2.49588
2.65683
2.66451
2.65093
2.6307
2.62244
2.61833
2.61188
2.60297
2.59443
2.58698
2.58151
2.5777
2.57487
2.57266
2.57005
2.56651
2.5634
2.55952
2.5563
2.55245
2.54912
2.54565
2.54179
2.53806
2.53414
1
1
1
1
1
1
1
1
1
1
1
1
1
1.00003
1.00002
1.00023
1.00031
1.002
1.00218
1.01585
1.00164
1.0875
1.17665
1.64287
2.39125
2.61831
2.67932
2.66339
2.64528
2.63025
2.62309
2.6193
2.61591
2.61212
2.60861
2.60584
2.60245
2.59724
2.59064
2.58273
2.57414
2.56612
2.55903
2.55332
2.54832
2.54419
2.54044
2.53735
2.53404
2.53163
1
1
1
1
1
1
1
1
1
1
1
1
1.00001
1
1.00008
1.00012
1.00075
1.00102
1.00543
1.00483
1.02159
1.03825
1.16939
1.42471
1.96996
2.52228
2.6842
2.65736
2.63791
2.61867
2.61258
2.61152
2.61115
2.6095
2.60733
2.6052
2.60238
2.59814
2.59166
2.58331
2.57407
2.56448
2.55546
2.54718
2.54013
2.53442
2.52942
2.5258
2.52242
2.52026
1
1
1
1
1
1
1
1
1
1
1
1
1
1.00001
1.00004
1.00003
1.0003
1.0004
1.00254
1.00218
1.01456
1.02366
1.11158
1.3087
1.8116
2.55579
2.69537
2.65771
2.64164
2.61726
2.61273
2.61394
2.61491
2.61402
2.61139
2.60817
2.60495
2.60057
2.59445
2.58662
2.57787
2.56907
2.56067
2.55287
2.54616
2.5402
2.53514
2.53082
2.52703
2.52405
1
1
1
1
1
1
1
1
1
1
1
1
1.00001
1.00001
1.00007
1.00005
1.00054
1.00061
1.00415
1.00181
1.02404
1.0011
1.1144
1.26571
1.78142
2.5709
2.70108
2.68833
2.66495
2.63636
2.62913
2.63001
2.63144
2.63113
2.62983
2.62677
2.62322
2.61821
2.6125
2.60594
2.59829
2.59077
2.58358
2.57696
2.57177
2.56647
2.56214
2.55745
2.55241
2.54789
1
1
1
1
1
1
1
1
1
1
1
1
1
1.00002
1.00001
1.00009
1.00009
1.00092
1.00116
1.00892
1.00316
1.04122
1.08384
1.2884
1.75402
2.31117
2.65654
2.68189
2.66651
2.64379
2.63127
2.62891
2.62901
2.62874
2.62791
2.62609
2.62308
2.61861
2.61394
2.60842
2.60248
2.59661
2.59138
2.58708
2.58404
2.58082
2.57741
2.57311
2.56746
2.56205
1
1
1
1
1
1
1
1
1
1
1
1
1
1.00001
1.00002
1.00012
1.00013
1.00104
1.00134
1.00865
1.00759
1.03205
1.06556
1.2476
1.62382
2.19331
2.60359
2.67445
2.65633
2.63717
2.61991
2.61443
2.61376
2.61421
2.61443
2.6142
2.61333
2.61048
2.60505
2.59943
2.59439
2.59022
2.58689
2.58423
2.58242
2.58098
2.57908
2.57643
2.57199
2.56736
1
1
1
1
1
1
1
1
1
1
1
1
1
1.00001
1.00001
1.0001
1.00006
1.00077
1.00104
1.0062
1.0058
1.0258
1.04863
1.20306
1.50663
2.03809
2.57815
2.68898
2.65722
2.63553
2.62014
2.61691
2.61719
2.61711
2.61668
2.61587
2.61405
2.60971
2.60356
2.59767
2.59285
2.58929
2.58673
2.58493
2.5835
2.58259
2.58162
2.58063
2.57849
2.57603
1
1
1
1
1
1
1
1
1
1
1
1
1
1.00001
1.00002
1.00011
1.0001
1.00036
1.00042
1.00355
1.00095
1.0219
1.03769
1.16098
1.39072
1.90641
2.51877
2.71544
2.69455
2.65863
2.63976
2.63688
2.63654
2.6349
2.63079
2.62655
2.62195
2.61682
2.6122
2.60701
2.60303
2.59921
2.59631
2.59428
2.59202
2.59102
2.58935
2.58814
2.58608
2.58354
1
1
1
1
1
1
1
1
1
1
1
1
1
1.00001
1.00001
1.00004
1.00004
1.00027
1.00044
1.00216
1.00261
1.01731
1.01806
1.134
1.34539
1.86324
2.59361
2.72846
2.70485
2.67032
2.6523
2.64536
2.64177
2.63927
2.63573
2.63273
2.62827
2.6236
2.61939
2.61429
2.61127
2.60694
2.6046
2.60133
2.59874
2.59648
2.59327
2.59094
2.58716
2.58415
1
1
1
1
1
1
1
1
1
1
1
1
1
1.00001
1.00001
1.00007
1.00006
1.00052
1.00065
1.00397
1.00219
1.02138
1.01315
1.1194
1.33381
1.83918
2.60782
2.73671
2.71207
2.6741
2.65083
2.64563
2.64597
2.64565
2.6437
2.63927
2.63377
2.6293
2.62479
2.62104
2.61772
2.61372
2.61128
2.60676
2.60407
2.59928
2.59549
2.59103
2.58621
2.58223
1
1
1
1
1
1
1
1
1
1
1
1
1
1.00001
1.00001
1.00008
1.00006
1.00059
1.00068
1.00462
1.00173
1.02773
1.00436
1.12417
1.29536
1.82797
2.5994
2.73617
2.69874
2.67936
2.65897
2.65214
2.65037
2.64833
2.64528
2.64152
2.63759
2.63384
2.62988
2.6264
2.62195
2.61823
2.61368
2.60898
2.60486
2.59914
2.59527
2.58954
2.58555
2.58087
1
1
1
1
1
1
1
1
1
1
1
1
1
1.00002
1.00002
1.00013
1.0001
1.00054
1.00057
1.00451
1.00114
1.02513
1.00715
1.11313
1.29649
1.80134
2.60384
2.72694
2.69897
2.68965
2.66509
2.65289
2.65011
2.64894
2.64726
2.6449
2.642
2.63792
2.63367
2.62881
2.62367
2.61898
2.61327
2.60896
2.60355
2.5994
2.59531
2.59119
2.58832
2.58473
1
1
1
1
1
1
1
1
1
1
1
1
1
1.00001
1.00001
1.00006
1.00008
1.00052
1.00067
1.00411
1.00188
1.02428
1.00403
1.1123
1.28515
1.78888
2.58861
2.72325
2.71275
2.69249
2.66645
2.65577
2.65404
2.65348
2.6523
2.64989
2.64751
2.64375
2.63951
2.63412
2.62836
2.62243
2.61681
2.61177
2.60693
2.60273
2.5978
2.59351
2.58818
2.58353
1
1
1
1
1
1
1
1
1
1
1
1
1
1
1.00002
1.00002
1.00013
1.00014
1.00108
1.00114
1.00869
1.00106
1.04683
1.099
1.33872
1.90307
2.3813
2.67848
2.67317
2.65705
2.63778
2.62823
2.62596
2.62545
2.62476
2.62358
2.62244
2.62095
2.6188
2.61565
2.61198
2.60815
2.60503
2.60219
2.59997
2.59786
2.59595
2.59465
2.59185
2.58929
1
1
1
1
1
1
1
1
1
1
1
1
1
1
1.00001
1.00002
1.00012
1.00015
1.00096
1.00112
1.00784
1.00495
1.04112
1.09774
1.31903
1.85964
2.35581
2.67276
2.67066
2.65425
2.63207
2.62272
2.61867
2.61486
2.61073
2.60659
2.60296
2.60041
2.5991
2.59871
2.59897
2.60022
2.60223
2.60354
2.604
2.604
2.60384
2.60336
2.60207
2.59993
1
1
1
1
1
1
1
1
1
1
1
1
1
1.00001
1.00001
1.00006
1.00006
1.00052
1.0006
1.00409
1.00163
1.02257
1.00207
1.1123
1.25058
1.77917
2.53909
2.7164
2.71095
2.69123
2.6661
2.65289
2.64697
2.64522
2.64219
2.64069
2.64025
2.64021
2.64015
2.63998
2.63934
2.63738
2.63211
2.62486
2.61681
2.6085
2.60126
2.59374
2.58774
2.5818
1
1
1
1
1
1
1
1
1
1
1
1
1
1
1.00001
1.00001
1.00011
1.00012
1.00092
1.00093
1.00744
1.00273
1.04161
1.09411
1.30998
1.8306
2.34003
2.66979
2.67433
2.65755
2.63402
2.62682
2.62585
2.62375
2.61964
2.61468
2.61018
2.6073
2.60624
2.60666
2.60949
2.61527
2.6197
2.62188
2.62235
2.62202
2.62009
2.61461
2.60761
2.60005
2.14517
2.65165
2.68655
3.27764
3.31581
3.24823
3.23034
3.21893
3.21588
3.21064
3.20428
3.19678
3.18783
3.18274
3.17962
3.17813
3.17737
3.1769
3.17651
3.17521
3.17321
3.17029
3.16708
3.16201
3.15723
3.15151
3.14724
3.14402
3.13655
3.13199
3.12528
3.11883
3.1123
3.10546
3.09868
3.09315
3.08727
3.07938
3.07133
3.06306
3.05639
3.04655
3.04022
3.03002
3.02409
3.01308
3.00685
2.99499
2.98874
2.97734
2.97009
2.9584
2.95071
2.9389
2.93049
2.91916
2.90913
2.89782
2.88739
2.87642
2.86641
2.85563
2.84558
2.83498
2.82479
2.81456
2.80442
2.79451
2.78475
2.77521
2.76604
2.75724
2.74859
2.74057
2.73276
2.72534
2.71859
2.71203
2.70622
2.70078
2.69602
2.69197
2.68849
2.68631
2.68465
2.68412
2.68376
2.6839
2.68458
2.68655
2.69089
2.69385
2.69991
2.70357
2.70977
2.71342
2.71895
2.72105
2.72467
2.72105
2.16294
2.43637
2.51898
2.7774
2.97416
3.15224
3.24728
3.31425
3.36822
3.37037
3.42806
3.51932
3.44148
3.31941
3.25025
3.2065
3.16277
3.12059
3.0849
3.0454
3.01448
2.98175
2.95409
2.92478
2.89722
2.86972
2.84589
2.8223
2.80149
2.78066
2.76225
2.74292
2.72625
2.70925
2.69463
2.68085
2.66914
2.65697
2.64617
2.636
2.6282
2.62101
2.61534
2.61007
2.60586
2.602
2.59915
2.59667
2.59506
2.59376
2.59299
2.59255
2.59218
2.59214
2.59212
2.59205
2.59176
2.59093
2.58977
2.58809
2.5861
2.58377
2.58119
2.57833
2.57522
2.57176
2.56771
2.56354
2.55838
2.55354
2.54768
2.54202
2.53582
2.52907
2.52251
2.51513
2.5082
2.50117
2.49453
2.48826
2.48271
2.47768
2.47282
2.46992
2.46606
2.46434
2.4614
2.45944
2.4571
2.45685
2.45714
2.45788
2.45973
2.46103
2.46396
2.46541
2.46839
2.46934
2.47146
2.46793
2.21123
2.271
2.35376
2.41762
2.48194
2.55314
2.65218
2.72797
2.80073
2.85837
2.90441
2.93882
2.94244
2.93983
2.93302
2.91781
2.89945
2.87118
2.84368
2.81121
2.77832
2.74586
2.7147
2.68298
2.65495
2.63127
2.61271
2.59654
2.58184
2.56765
2.55389
2.54033
2.52654
2.51296
2.49915
2.4859
2.47244
2.45857
2.44431
2.43023
2.41693
2.40438
2.39217
2.381
2.37007
2.35996
2.35013
2.34071
2.33171
2.32299
2.31475
2.30685
2.2994
2.29245
2.28592
2.27991
2.27433
2.2691
2.26416
2.25963
2.2551
2.2512
2.24701
2.24367
2.24003
2.23732
2.23457
2.23256
2.23076
2.22947
2.22863
2.22799
2.22788
2.22766
2.22767
2.22755
2.22743
2.22696
2.22659
2.22555
2.22502
2.2239
2.22315
2.22255
2.22268
2.22274
2.22288
2.22295
2.2236
2.22499
2.22721
2.22932
2.23178
2.23473
2.23684
2.23954
2.24068
2.24203
2.24209
2.23756
2.24543
2.23707
2.26789
2.29428
2.31884
2.33968
2.36605
2.39614
2.42686
2.45482
2.47999
2.49595
2.51012
2.51417
2.52247
2.52968
2.53127
2.53074
2.52935
2.52685
2.52253
2.51898
2.51539
2.51165
2.50944
2.50606
2.50241
2.49738
2.49144
2.48413
2.47611
2.46722
2.45794
2.44833
2.43873
2.42901
2.41923
2.4082
2.39617
2.38297
2.36989
2.35683
2.34417
2.33189
2.32019
2.30908
2.29861
2.28858
2.27903
2.26968
2.26055
2.25164
2.24275
2.23432
2.22574
2.21783
2.20976
2.20228
2.19487
2.18777
2.18096
2.17439
2.16791
2.16206
2.15572
2.15048
2.1445
2.13957
2.13437
2.12966
2.1253
2.12117
2.11745
2.11413
2.11115
2.10861
2.1065
2.10481
2.10351
2.10272
2.1023
2.10244
2.10294
2.10404
2.10579
2.10813
2.11001
2.11274
2.1151
2.11874
2.12336
2.12737
2.1329
2.13736
2.14343
2.14759
2.15342
2.15621
2.16138
2.16051
2.29369
2.25149
2.24599
2.24913
2.25095
2.25301
2.25784
2.264
2.27585
2.28421
2.29565
2.30155
2.3102
2.31473
2.32067
2.32972
2.33827
2.34606
2.35222
2.35752
2.36218
2.36592
2.36908
2.37176
2.37267
2.37263
2.37193
2.3713
2.3693
2.36712
2.36443
2.36174
2.35836
2.35502
2.35119
2.34758
2.34335
2.3382
2.33135
2.32298
2.31344
2.30301
2.29193
2.2804
2.26886
2.25744
2.24642
2.2358
2.22586
2.21635
2.20769
2.19935
2.19172
2.18442
2.17745
2.17095
2.16436
2.15823
2.15189
2.14584
2.13958
2.13361
2.12739
2.12155
2.11553
2.10979
2.10414
2.09859
2.09335
2.0882
2.08342
2.07881
2.07465
2.07067
2.06723
2.06404
2.06139
2.05919
2.05735
2.05613
2.05532
2.05509
2.05534
2.05607
2.05753
2.05948
2.0611
2.06324
2.06571
2.06829
2.07295
2.07574
2.08108
2.08448
2.09025
2.09372
2.09937
2.102
2.10737
2.10714
2.31099
2.29389
2.26133
2.24835
2.23731
2.22628
2.21901
2.21305
2.21049
2.21058
2.21122
2.21319
2.21474
2.21795
2.21996
2.22325
2.23034
2.23798
2.24553
2.25274
2.25893
2.26454
2.26916
2.27365
2.27714
2.28053
2.28337
2.28648
2.28802
2.28949
2.29088
2.29061
2.29008
2.28906
2.28756
2.28562
2.28319
2.27956
2.27484
2.26862
2.26149
2.2533
2.24467
2.23574
2.22679
2.21814
2.20949
2.20138
2.19311
2.18539
2.17741
2.1698
2.16206
2.15451
2.14712
2.1398
2.13274
2.12582
2.1188
2.11218
2.10516
2.09863
2.09173
2.08525
2.07859
2.07229
2.06587
2.0601
2.05396
2.04867
2.04311
2.03821
2.03331
2.02884
2.02461
2.02074
2.0172
2.01411
2.01132
2.00919
2.0074
2.00625
2.00566
2.00586
2.00664
2.00762
2.00931
2.01062
2.01328
2.01541
2.01927
2.02209
2.02645
2.02936
2.03406
2.03688
2.04151
2.04375
2.04829
2.04791
2.33305
2.30326
2.28489
2.26243
2.24157
2.22401
2.20939
2.19645
2.18653
2.17913
2.17399
2.17065
2.16876
2.16891
2.16987
2.17081
2.17359
2.17969
2.18729
2.19434
2.20126
2.20767
2.21366
2.21879
2.22368
2.22842
2.23209
2.23556
2.23807
2.24163
2.24255
2.24459
2.24491
2.24552
2.24571
2.24568
2.24533
2.24422
2.24181
2.23796
2.23319
2.22733
2.22074
2.21385
2.20658
2.19963
2.19246
2.18566
2.17872
2.17189
2.165
2.15786
2.1507
2.14308
2.13555
2.12772
2.12005
2.11235
2.10483
2.09733
2.09004
2.08261
2.07559
2.06826
2.06141
2.05434
2.04766
2.04094
2.03456
2.0284
2.02246
2.017
2.0117
2.00697
2.00251
1.99851
1.99501
1.99177
1.98919
1.98686
1.9851
1.9838
1.98286
1.98271
1.98302
1.98344
1.98434
1.98515
1.98709
1.98831
1.99122
1.99292
1.99632
1.99837
2.00201
2.00425
2.00814
2.0102
2.01451
2.01421
2.36547
2.32643
2.29748
2.2733
2.25233
2.23189
2.21209
2.19567
2.18176
2.17068
2.16186
2.15521
2.15076
2.14776
2.14713
2.14764
2.14821
2.15014
2.15508
2.16146
2.16824
2.17386
2.17957
2.18496
2.18929
2.19348
2.19723
2.20127
2.20382
2.20557
2.20765
2.20894
2.20967
2.20957
2.20976
2.20994
2.20978
2.20924
2.20809
2.20621
2.20331
2.20003
2.19623
2.19228
2.1882
2.18386
2.17956
2.17474
2.16985
2.16435
2.15859
2.15228
2.14566
2.13849
2.13108
2.12307
2.11501
2.10629
2.09772
2.08864
2.07979
2.07074
2.06199
2.05322
2.04476
2.03647
2.02846
2.02083
2.01348
2.0067
2.00032
1.99449
1.98923
1.98434
1.98018
1.9762
1.97296
1.96995
1.96752
1.96546
1.96382
1.9627
1.96187
1.96178
1.96206
1.96241
1.96316
1.96386
1.96542
1.96672
1.96873
1.97032
1.97322
1.97485
1.97794
1.97983
1.98329
1.98526
1.9896
1.98953
2.39228
2.35861
2.32514
2.29409
2.26733
2.24268
2.22251
2.2033
2.18737
2.17315
2.16201
2.15219
2.14535
2.13965
2.13682
2.13457
2.13436
2.13394
2.13479
2.13723
2.14265
2.14615
2.15204
2.15568
2.16055
2.1631
2.16745
2.16904
2.17219
2.17357
2.17576
2.1763
2.17739
2.17726
2.1775
2.17802
2.17832
2.17868
2.17851
2.17801
2.17712
2.1756
2.17402
2.17221
2.17032
2.16827
2.16598
2.16341
2.1603
2.15659
2.15218
2.14707
2.14135
2.13489
2.12781
2.12003
2.11155
2.10264
2.09316
2.08349
2.07348
2.06353
2.05342
2.04368
2.03404
2.02498
2.01634
2.00829
2.00091
1.99401
1.98793
1.98217
1.97725
1.97252
1.96853
1.96469
1.96148
1.9584
1.95591
1.95351
1.9518
1.95009
1.94915
1.94834
1.9482
1.94821
1.94834
1.94867
1.94955
1.95025
1.95168
1.95264
1.95442
1.95534
1.95748
1.95879
1.96133
1.96285
1.96655
1.96618
2.40572
2.37915
2.34975
2.3189
2.29069
2.26399
2.24016
2.21828
2.19887
2.18188
2.16666
2.15477
2.14422
2.13625
2.12993
2.12583
2.12222
2.12049
2.11876
2.11777
2.11897
2.12115
2.12584
2.12898
2.13436
2.1371
2.14183
2.14395
2.14767
2.14925
2.15208
2.15295
2.1549
2.15497
2.1554
2.15651
2.15681
2.15729
2.15761
2.15744
2.15689
2.15591
2.1547
2.15371
2.15264
2.15173
2.15047
2.14891
2.14677
2.14421
2.14093
2.13715
2.13231
2.12675
2.12003
2.11252
2.10405
2.095
2.08526
2.07525
2.065
2.0548
2.04477
2.03515
2.02598
2.01749
2.00953
2.00236
1.99569
1.98978
1.98428
1.97947
1.97497
1.97106
1.96735
1.96414
1.96103
1.95838
1.95584
1.95365
1.95176
1.95
1.94873
1.94764
1.94691
1.94646
1.94593
1.94577
1.94584
1.94602
1.94647
1.94683
1.94762
1.94817
1.94931
1.94999
1.95154
1.95241
1.95526
1.95408
2.41383
2.39108
2.36462
2.33561
2.30776
2.28075
2.2566
2.234
2.21307
2.19462
2.17784
2.16298
2.14992
2.13911
2.12991
2.12294
2.11706
2.11323
2.1105
2.10919
2.10873
2.10951
2.11256
2.11573
2.12111
2.12439
2.12962
2.13196
2.13601
2.13778
2.14108
2.14222
2.14473
2.14501
2.14571
2.14703
2.14742
2.14824
2.14821
2.14789
2.14716
2.14571
2.14395
2.14209
2.14038
2.1387
2.13692
2.13475
2.13232
2.12947
2.12641
2.12277
2.1185
2.11321
2.10685
2.09943
2.09111
2.08219
2.07284
2.06345
2.05397
2.04481
2.03585
2.02747
2.01957
2.01235
2.00574
1.99968
1.99426
1.98924
1.98472