/*--------------------------------*- C++ -*----------------------------------*\
| =========                 |                                                 |
| \\      /  F ield         | OpenFOAM: The Open Source CFD Toolbox           |
|  \\    /   O peration     | Version:  2112                                  |
|   \\  /    A nd           | Website:  www.openfoam.com                      |
|    \\/     M anipulation  |                                                 |
\*---------------------------------------------------------------------------*/
FoamFile
{
    version     2.0;
    format      ascii;
    arch        "LSB;label=32;scalar=64";
    class       volVectorField;
    location    "7.5";
    object      U;
}
// * * * * * * * * * * * * * * * * * * * * * * * * * * * * * * * * * * * * * //

dimensions      [0 1 -1 0 0 0 0];

internalField   nonuniform List<vector> 
7000
(
(3 -5.79793e-07 0.000805021)
(3 -1.35052e-06 0.000764324)
(3 -1.8327e-06 0.00072385)
(3 -2.27437e-06 0.000683611)
(3 -2.72615e-06 0.000643599)
(2.99999 -3.52113e-06 0.000604075)
(2.99995 -5.01993e-06 0.000565238)
(2.99982 -6.4069e-06 0.00052828)
(2.99955 -5.08988e-06 0.000493084)
(2.99881 -6.48966e-06 0.000468631)
(2.99745 1.146e-05 0.000450782)
(2.99335 -5.08153e-06 0.000503622)
(2.98734 0.00013872 0.000539905)
(2.95711 -0.000171063 0.00134715)
(2.90655 -0.000810828 0.0019795)
(2.72052 -0.00235913 0.0070143)
(2.17454 -0.0150065 0.0137486)
(1.20782 -0.027619 0.0240725)
(0.476775 -0.020877 0.00850945)
(0.63436 -0.00679623 -0.00177274)
(0.750902 -0.00362444 -0.00146214)
(0.768836 -0.00420721 -0.000243216)
(0.746858 -0.00522368 0.00017658)
(0.714074 -0.00472766 0.000194621)
(0.684958 -0.00388403 1.9166e-05)
(0.663163 -0.003008 -0.000203493)
(0.643447 -0.00221231 -0.000359846)
(0.622694 -0.00147447 -0.000478809)
(0.600611 -0.000737334 -0.000596402)
(0.577607 3.33031e-05 -0.000723515)
(0.553797 0.000852179 -0.000857269)
(0.529195 0.00173557 -0.000992848)
(0.50388 0.00270127 -0.00112903)
(0.477778 0.00375882 -0.00126884)
(0.450593 0.00490929 -0.00141556)
(0.422085 0.00614637 -0.00156819)
(0.392324 0.00743357 -0.00172223)
(0.361541 0.00867413 -0.00187498)
(0.329972 0.00970998 -0.00202616)
(0.29813 0.0104102 -0.00217487)
(0.266781 0.0107269 -0.00232128)
(0.236565 0.0107424 -0.00246639)
(0.207673 0.0106516 -0.0026126)
(0.179716 0.0106764 -0.00276234)
(0.152355 0.010867 -0.00291465)
(0.125695 0.0110833 -0.00306996)
(0.0994671 0.0111379 -0.00323455)
(0.0737457 0.0111515 -0.00340372)
(0.0455101 0.012294 -0.00356372)
(0.0234152 0.0183359 -0.00371139)
(3 -6.37322e-07 0.000777211)
(3 -1.27396e-06 0.000737868)
(3 -2.14487e-06 0.000698747)
(3 -3.1112e-06 0.00065986)
(3 -4.3711e-06 0.000621197)
(2.99999 -6.42943e-06 0.00058301)
(2.99995 -9.0592e-06 0.000545467)
(2.99982 -9.80208e-06 0.000509694)
(2.99957 -3.4469e-06 0.000475567)
(2.99885 9.29849e-06 0.000451467)
(2.99754 6.71976e-05 0.00043343)
(2.99358 0.00013165 0.000481274)
(2.98792 0.00049061 0.000509363)
(2.95815 0.000545039 0.00128355)
(2.91045 0.000925548 0.00182413)
(2.72786 0.00205832 0.00667064)
(2.19374 -0.0058102 0.0130193)
(1.23475 -0.00700064 0.023345)
(0.48032 0.00882906 0.00845802)
(0.623046 0.0277478 -0.00147655)
(0.737108 0.0269482 -0.00134407)
(0.756562 0.0231658 -0.000246285)
(0.736477 0.0203379 0.000145838)
(0.70484 0.0210664 0.000171432)
(0.675609 0.0222197 1.94927e-05)
(0.653572 0.0230389 -0.000192371)
(0.633757 0.0235805 -0.000344731)
(0.612954 0.0240612 -0.000460451)
(0.590762 0.0246155 -0.000573822)
(0.567554 0.0252667 -0.000696097)
(0.543477 0.0259992 -0.000824747)
(0.518602 0.0268201 -0.000954982)
(0.493046 0.0277484 -0.0010857)
(0.466762 0.0287873 -0.00122007)
(0.43951 0.0299273 -0.00136114)
(0.411151 0.0311507 -0.00150753)
(0.381864 0.0324024 -0.00165482)
(0.351932 0.0335518 -0.00180067)
(0.321569 0.034385 -0.00194502)
(0.291148 0.0347466 -0.00208703)
(0.261167 0.0345765 -0.00222692)
(0.231974 0.0339825 -0.00236577)
(0.203627 0.033211 -0.00250596)
(0.175809 0.0325613 -0.00265004)
(0.14842 0.0321392 -0.00279647)
(0.121792 0.0318553 -0.00294519)
(0.0955641 0.0315796 -0.00310318)
(0.0695271 0.0315347 -0.00326485)
(0.0403716 0.0330909 -0.00341537)
(0.0185169 0.0397656 -0.00354714)
(3 -8.49098e-08 0.000748287)
(3 1.39525e-07 0.000710359)
(3 -8.15727e-07 0.000672651)
(3 -2.04414e-06 0.000635172)
(3 -3.85016e-06 0.000597917)
(2.99999 -6.8073e-06 0.000561121)
(2.99995 -1.00801e-05 0.000524933)
(2.99982 -1.21042e-05 0.000490427)
(2.99957 -8.29993e-06 0.000457463)
(2.99887 -2.62966e-07 0.000433951)
(2.9976 4.33041e-05 0.000416105)
(2.99373 7.80416e-05 0.000460463)
(2.98821 0.000337763 0.000485479)
(2.95879 2.11759e-05 0.00122325)
(2.91241 0.000492735 0.00171638)
(2.73132 -0.00102667 0.006376)
(2.20233 -0.010493 0.012429)
(1.2423 -0.0193597 0.0226594)
(0.469501 -0.00857861 0.00821285)
(0.608942 0.0163637 -0.00134241)
(0.72126 0.0159806 -0.00122706)
(0.742378 0.0145756 -0.000249291)
(0.724306 0.0138874 0.000113825)
(0.693876 0.0167057 0.000146777)
(0.664421 0.0196973 1.96046e-05)
(0.642104 0.0221782 -0.000181192)
(0.62232 0.0242905 -0.000329883)
(0.601772 0.0263299 -0.000442683)
(0.57991 0.0284713 -0.000552033)
(0.557038 0.0307463 -0.000669411)
(0.533322 0.0331397 -0.000792567)
(0.508874 0.0356671 -0.000916977)
(0.483802 0.038359 -0.00104202)
(0.458028 0.0412187 -0.00117089)
(0.431315 0.0442132 -0.00130604)
(0.403568 0.0472715 -0.00144573)
(0.374997 0.0502516 -0.00158572)
(0.345866 0.0529105 -0.00172415)
(0.316363 0.0549301 -0.00186117)
(0.286814 0.0561164 -0.00199603)
(0.257619 0.056437 -0.00212911)
(0.229034 0.056095 -0.00226156)
(0.201071 0.0554637 -0.0023956)
(0.173427 0.0549183 -0.0025338)
(0.146063 0.0546084 -0.0026741)
(0.119402 0.0544391 -0.00281645)
(0.0930986 0.0543345 -0.00296685)
(0.0670348 0.0546805 -0.00312136)
(0.0382478 0.057001 -0.00326407)
(0.0163348 0.0647711 -0.003388)
(3 -1.54021e-08 0.000718202)
(3 1.0204e-07 0.00068175)
(3 -6.55409e-08 0.000645515)
(3 -2.3655e-07 0.000609505)
(3 -3.28079e-06 0.000573716)
(2.99999 -7.11564e-06 0.000538368)
(2.99995 -1.0897e-05 0.00050359)
(2.99983 -1.27419e-05 0.000470398)
(2.99959 -7.27051e-06 0.000438638)
(2.99891 4.46798e-06 0.000415706)
(2.99767 5.9209e-05 0.00039801)
(2.99391 0.000116207 0.000438447)
(2.98858 0.000436463 0.000459971)
(2.95971 0.000269991 0.00115587)
(2.91494 0.000964203 0.00160079)
(2.73648 0.000123303 0.00603995)
(2.21765 -0.00736116 0.0117262)
(1.26949 -0.0114173 0.0217321)
(0.494812 0.0127805 0.00800059)
(0.613126 0.0394714 -0.00107727)
(0.717058 0.0363157 -0.00108418)
(0.739968 0.0345301 -0.00026549)
(0.723378 0.0338588 8.4505e-05)
(0.693534 0.0367978 0.000126078)
(0.663044 0.0396626 2.26784e-05)
(0.639484 0.041918 -0.000167534)
(0.618716 0.0438316 -0.000312621)
(0.597413 0.0457557 -0.000422661)
(0.574905 0.0478608 -0.000528005)
(0.551448 0.0501733 -0.000640362)
(0.527248 0.0526847 -0.000757974)
(0.502466 0.0554094 -0.000876701)
(0.477216 0.0583812 -0.000996152)
(0.4514 0.0616125 -0.00111936)
(0.424786 0.06507 -0.00124835)
(0.397309 0.0686547 -0.00138121)
(0.369183 0.0721731 -0.00151403)
(0.340624 0.0753303 -0.00164525)
(0.311781 0.0777523 -0.00177507)
(0.282931 0.0792266 -0.00190286)
(0.254382 0.0797336 -0.00202908)
(0.226312 0.0795101 -0.0021549)
(0.198703 0.0789619 -0.00228266)
(0.171279 0.07846 -0.00241499)
(0.144047 0.0781505 -0.00254872)
(0.117465 0.0779563 -0.00268414)
(0.0912223 0.0778754 -0.00282777)
(0.0653332 0.0784287 -0.00297277)
(0.0371814 0.0811091 -0.00310748)
(0.0152681 0.0891354 -0.00322268)
(3 3.20298e-08 0.000686907)
(3 7.04495e-08 0.000651993)
(3 8.2185e-07 0.000617291)
(3 1.76153e-06 0.000582825)
(3 -1.58644e-06 0.000548567)
(2.99999 -5.67329e-06 0.000514714)
(2.99995 -9.43234e-06 0.000481406)
(2.99983 -1.10513e-05 0.000449584)
(2.9996 -4.45923e-06 0.000419089)
(2.99894 9.12252e-06 0.000396776)
(2.99775 7.03053e-05 0.000379266)
(2.9941 0.000139714 0.0004158)
(2.98899 0.000487951 0.000433244)
(2.96057 0.000398614 0.00109114)
(2.9175 0.0010653 0.00148438)
(2.74131 0.000420056 0.00571327)
(2.23106 -0.00719015 0.0110532)
(1.28986 -0.0117803 0.0208556)
(0.505337 0.0103656 0.00774455)
(0.609155 0.040151 -0.000863333)
(0.706653 0.0377792 -0.000944775)
(0.732486 0.0369625 -0.000279209)
(0.718658 0.0375864 5.16341e-05)
(0.690457 0.042205 0.000102278)
(0.659729 0.0467014 2.40437e-05)
(0.635744 0.0502714 -0.000155292)
(0.614826 0.0534141 -0.000296694)
(0.593538 0.0565833 -0.00040378)
(0.571033 0.0599209 -0.000504782)
(0.547512 0.0634351 -0.000611805)
(0.523223 0.0671238 -0.000723661)
(0.498368 0.071011 -0.000836494)
(0.473069 0.0751333 -0.00095003)
(0.44722 0.0795063 -0.00106721)
(0.420609 0.0840914 -0.0011898)
(0.393217 0.0887571 -0.00131578)
(0.365293 0.0932565 -0.00144135)
(0.337023 0.0972488 -0.00156512)
(0.308532 0.100337 -0.00168742)
(0.280084 0.102309 -0.00180797)
(0.251929 0.103167 -0.00192722)
(0.224198 0.103191 -0.00204639)
(0.196843 0.102829 -0.00216745)
(0.169593 0.10246 -0.00229241)
(0.142482 0.102223 -0.00241939)
(0.115987 0.102056 -0.00254882)
(0.0898223 0.102008 -0.00268454)
(0.0640721 0.10266 -0.00282221)
(0.0364462 0.105508 -0.0029485)
(0.0145815 0.11347 -0.00305825)
(3 5.18856e-08 0.00065435)
(3 1.12774e-07 0.00062104)
(3 7.28032e-07 0.000587938)
(3 1.40007e-06 0.000555077)
(2.99999 2.48725e-07 0.000522414)
(2.99998 -2.14967e-06 0.000490125)
(2.99995 -4.43976e-06 0.000458352)
(2.99983 -5.15343e-06 0.000427959)
(2.99961 3.40377e-06 0.000398788)
(2.99898 1.97371e-05 0.000377134)
(2.99783 9.04211e-05 0.000359848)
(2.99431 0.000178758 0.000392432)
(2.98943 0.000578276 0.000406023)
(2.96154 0.000588468 0.00102327)
(2.92025 0.00148012 0.00136783)
(2.74669 0.00117762 0.0053708)
(2.24663 -0.00509453 0.0103451)
(1.31643 -0.00749834 0.0198813)
(0.526403 0.0213009 0.00747348)
(0.610216 0.0524012 -0.000630177)
(0.698443 0.0497006 -0.00080175)
(0.726832 0.0496928 -0.000292684)
(0.715462 0.0511137 2.17783e-05)
(0.688543 0.0560619 8.09624e-05)
(0.65703 0.0614761 2.80223e-05)
(0.632113 0.065318 -0.00013967)
(0.610863 0.0686885 -0.000279069)
(0.589578 0.0722391 -0.000383648)
(0.567147 0.0760627 -0.000480121)
(0.543712 0.0801262 -0.000581643)
(0.519543 0.0844212 -0.000687558)
(0.494856 0.0889779 -0.000794368)
(0.46974 0.093835 -0.000902011)
(0.444063 0.099003 -0.00101316)
(0.417614 0.104427 -0.00112913)
(0.390403 0.10994 -0.00124778)
(0.362696 0.115241 -0.00136603)
(0.334664 0.119928 -0.0014825)
(0.306435 0.123594 -0.00159739)
(0.278266 0.126023 -0.00171073)
(0.250369 0.127241 -0.00182288)
(0.222852 0.12755 -0.00193524)
(0.195656 0.127425 -0.00204954)
(0.168526 0.127254 -0.00216854)
(0.141522 0.127136 -0.002289)
(0.11511 0.12699 -0.00241024)
(0.0889914 0.126905 -0.00253811)
(0.0633192 0.127553 -0.002666)
(0.0360412 0.130441 -0.00278452)
(0.0141806 0.138235 -0.00288594)
(3 5.51182e-08 0.000620474)
(3 1.86306e-07 0.000588839)
(3 6.06712e-07 0.000557408)
(3 9.93637e-07 0.000526211)
(2.99999 1.51098e-06 0.00049521)
(2.99998 5.74451e-07 0.000464564)
(2.99995 -3.20122e-07 0.000434394)
(2.99984 2.17294e-07 0.00040549)
(2.99962 1.13836e-05 0.000377703)
(2.99902 3.203e-05 0.000356735)
(2.99793 0.000115397 0.000339683)
(2.99455 0.000229596 0.00036816)
(2.98995 0.000697917 0.000377493)
(2.96261 0.000855865 0.000954524)
(2.92325 0.00191164 0.00124919)
(2.7525 0.00212181 0.00502162)
(2.26295 -0.0031972 0.00962858)
(1.34461 -0.00413669 0.0188521)
(0.548142 0.0287972 0.00718967)
(0.610898 0.0598927 -0.000396903)
(0.689609 0.0590038 -0.000663519)
(0.721087 0.0602268 -0.00030634)
(0.712084 0.0626291 -1.93164e-06)
(0.686788 0.0675385 5.83463e-05)
(0.654669 0.073855 2.82645e-05)
(0.628514 0.0784343 -0.000121896)
(0.607013 0.082516 -0.00026203)
(0.585902 0.0868423 -0.000364485)
(0.563685 0.0914827 -0.000455858)
(0.540461 0.0963769 -0.000551405)
(0.516543 0.101522 -0.000651124)
(0.492151 0.106962 -0.00075163)
(0.467333 0.112737 -0.00085295)
(0.441919 0.118855 -0.000957646)
(0.415711 0.125243 -0.00106677)
(0.388742 0.131694 -0.00117809)
(0.361284 0.137857 -0.00128891)
(0.333491 0.143277 -0.00139793)
(0.305494 0.147547 -0.00150522)
(0.277553 0.150446 -0.00161121)
(0.249848 0.152034 -0.00171602)
(0.222476 0.152672 -0.00182078)
(0.195379 0.152822 -0.00192848)
(0.168291 0.152894 -0.00203967)
(0.141273 0.152952 -0.00215193)
(0.114815 0.152885 -0.00226763)
(0.0886514 0.152808 -0.00238876)
(0.0629627 0.153392 -0.00250988)
(0.0358552 0.156225 -0.00261932)
(0.0139019 0.16378 -0.00271556)
(3 3.90334e-08 0.000585223)
(3 2.32073e-07 0.000555337)
(3 4.92246e-07 0.000525649)
(3 6.64458e-07 0.000496186)
(2.99999 1.48942e-06 0.000466919)
(2.99998 1.03993e-06 0.000437985)
(2.99995 1.17389e-06 0.000409487)
(2.99985 3.32548e-06 0.000382136)
(2.99964 1.81143e-05 0.000355795)
(2.99907 4.5192e-05 0.000335554)
(2.99804 0.000146351 0.00031876)
(2.99483 0.000299898 0.000343022)
(2.99055 0.000842263 0.000347957)
(2.96379 0.00121735 0.000884141)
(2.92654 0.00249248 0.00112953)
(2.75883 0.00334567 0.00466494)
(2.28058 -0.00114137 0.00889577)
(1.37616 0.000481345 0.0177518)
(0.572391 0.0402585 0.00689712)
(0.612868 0.065643 -0.000176138)
(0.681566 0.0702261 -0.00054344)
(0.714989 0.0733877 -0.000307002)
(0.707752 0.0768329 -1.79607e-05)
(0.68391 0.0813758 4.20119e-05)
(0.651677 0.0873841 2.64212e-05)
(0.624555 0.0925015 -0.000106916)
(0.602952 0.0972911 -0.00024503)
(0.582213 0.102296 -0.000344743)
(0.560422 0.107614 -0.000430902)
(0.537601 0.113223 -0.0005202)
(0.514102 0.119147 -0.00061341)
(0.490142 0.125436 -0.000707514)
(0.465731 0.132126 -0.000802543)
(0.440684 0.139212 -0.000900733)
(0.414812 0.146593 -0.00100269)
(0.388166 0.154015 -0.00110624)
(0.361007 0.161074 -0.00120919)
(0.333478 0.167271 -0.00131053)
(0.305717 0.172196 -0.0014103)
(0.277976 0.175637 -0.00150896)
(0.250437 0.177661 -0.00160701)
(0.223153 0.178665 -0.00170526)
(0.196079 0.179155 -0.00180446)
(0.168988 0.179494 -0.00190962)
(0.141928 0.179749 -0.00201429)
(0.115372 0.179795 -0.00212036)
(0.0890284 0.179735 -0.0022327)
(0.0631345 0.180287 -0.00234445)
(0.0359629 0.183044 -0.00244971)
(0.013808 0.190332 -0.002537)
(3 3.09452e-08 0.000548536)
(3 2.55309e-07 0.000520477)
(3 3.91944e-07 0.000492608)
(3 4.08888e-07 0.000464954)
(3 1.47523e-06 0.000437493)
(2.99998 1.33421e-06 0.000410344)
(2.99995 1.74955e-06 0.00038359)
(2.99985 4.22598e-06 0.000357857)
(2.99966 1.97632e-05 0.000333026)
(2.99913 4.76575e-05 0.000313535)
(2.99817 0.000159436 0.000296945)
(2.99515 0.000352234 0.000317083)
(2.99127 0.000952321 0.00031666)
(2.96516 0.00166032 0.000812506)
(2.93023 0.00304432 0.00100817)
(2.76565 0.00502597 0.00430745)
(2.29983 0.0010429 0.00813921)
(1.4122 0.00583823 0.0165933)
(0.594813 0.0540007 0.00661622)
(0.611938 0.0721638 3.16528e-05)
(0.675702 0.0818802 -0.000465793)
(0.708963 0.0872856 -0.00028489)
(0.702647 0.0915744 -2.35499e-05)
(0.679842 0.0959431 3.24525e-05)
(0.648064 0.101326 2.21564e-05)
(0.620694 0.106808 -9.75273e-05)
(0.599194 0.112301 -0.000228826)
(0.578896 0.117988 -0.000324064)
(0.557621 0.123978 -0.000404816)
(0.53531 0.130315 -0.000487885)
(0.512326 0.137054 -0.000574619)
(0.488871 0.144241 -0.000662171)
(0.464927 0.151906 -0.000750613)
(0.440304 0.16003 -0.000842043)
(0.414834 0.168475 -0.000936912)
(0.388587 0.176934 -0.00103302)
(0.36181 0.184946 -0.00112828)
(0.334626 0.191977 -0.00122194)
(0.307173 0.197607 -0.00131397)
(0.279667 0.201646 -0.00140476)
(0.252271 0.2042 -0.00149446)
(0.225059 0.205654 -0.00158532)
(0.19795 0.206569 -0.0016784)
(0.170744 0.207295 -0.00177388)
(0.143497 0.207835 -0.00187296)
(0.116697 0.208039 -0.00197172)
(0.0900863 0.208023 -0.00207635)
(0.0638908 0.20849 -0.00218019)
(0.0364349 0.211105 -0.00227378)
(0.0138264 0.218095 -0.00235804)
(3 3.77838e-08 0.000510349)
(3 2.78358e-07 0.000484198)
(3 3.16832e-07 0.00045823)
(3 2.01347e-07 0.000432463)
(3 1.43613e-06 0.000406885)
(2.99998 1.35037e-06 0.000381602)
(2.99995 1.95753e-06 0.000356673)
(2.99986 4.06264e-06 0.000332645)
(2.99968 2.07462e-05 0.000309426)
(2.99919 4.86301e-05 0.000290762)
(2.99832 0.000172862 0.000274345)
(2.9955 0.000403884 0.000290486)
(2.99215 0.00106744 0.000283106)
(2.96667 0.00192436 0.000740742)
(2.93458 0.00398656 0.000881949)
(2.77334 0.00605333 0.00394962)
(2.32082 0.00505517 0.00737036)
(1.45355 0.0128982 0.0153519)
(0.619638 0.0693452 0.00633113)
(0.610538 0.083744 0.000234353)
(0.670837 0.0943151 -0.000403794)
(0.703185 0.101071 -0.000255182)
(0.697237 0.105997 -2.30292e-05)
(0.675257 0.11058 2.60672e-05)
(0.644232 0.11572 1.69168e-05)
(0.617176 0.121494 -9.15136e-05)
(0.595972 0.127592 -0.000213025)
(0.576134 0.13392 -0.000302188)
(0.555401 0.140568 -0.000377486)
(0.533645 0.147643 -0.000454398)
(0.511221 0.155221 -0.000534535)
(0.488322 0.163347 -0.000615583)
(0.464912 0.172035 -0.000697565)
(0.440801 0.181239 -0.000782032)
(0.415834 0.190789 -0.000869112)
(0.390085 0.20033 -0.000956942)
(0.36377 0.209354 -0.00104393)
(0.336996 0.217294 -0.00112959)
(0.309902 0.223724 -0.00121395)
(0.28269 0.228452 -0.00129743)
(0.255468 0.231624 -0.00138007)
(0.228315 0.233669 -0.00146246)
(0.201165 0.235115 -0.00154766)
(0.173777 0.236345 -0.00163679)
(0.146262 0.23732 -0.00172535)
(0.119075 0.237837 -0.001818)
(0.0919708 0.237976 -0.00191263)
(0.0652013 0.238438 -0.00200822)
(0.0372276 0.240889 -0.0020984)
(0.0140586 0.247524 -0.00217204)
(3 8.9339e-08 0.000470595)
(3 1.70256e-07 0.000446438)
(3 2.23097e-07 0.000422455)
(3 9.77967e-08 0.000398657)
(3 2.47786e-06 0.000375046)
(2.99998 -3.95251e-07 0.000351706)
(2.99996 -3.32501e-06 0.000328685)
(2.99987 -2.89438e-05 0.000306428)
(2.99971 -3.59558e-05 0.000284902)
(2.99926 -0.000181612 0.000267104)
(2.99849 -0.00019312 0.00025089)
(2.9959 -0.00122858 0.000263254)
(2.99306 3.15231e-05 0.000251235)
(2.96863 0.00190839 0.000660825)
(2.93891 0.00471667 0.000768843)
(2.78202 0.0063356 0.00355722)
(2.34608 0.0096734 0.00658007)
(1.50191 0.0212488 0.0140132)
(0.649664 0.0871228 0.00604861)
(0.608974 0.0984848 0.000438435)
(0.666091 0.107862 -0.000350107)
(0.697781 0.115045 -0.000229942)
(0.691879 0.120465 -2.12329e-05)
(0.670422 0.125353 2.15602e-05)
(0.640159 0.130479 1.18415e-05)
(0.613735 0.136486 -8.70432e-05)
(0.593026 0.14308 -0.00019763)
(0.573719 0.150012 -0.000279584)
(0.553587 0.157329 -0.000349108)
(0.53247 0.165163 -0.00041996)
(0.5107 0.173608 -0.00049351)
(0.488446 0.182709 -0.000567698)
(0.465647 0.192464 -0.000642741)
(0.442123 0.202799 -0.000720164)
(0.417752 0.2135 -0.000799864)
(0.392616 0.224169 -0.000879909)
(0.366894 0.234259 -0.000958864)
(0.340661 0.243192 -0.00103651)
(0.314033 0.250536 -0.00111278)
(0.287183 0.25611 -0.00118805)
(0.260201 0.260056 -0.00126293)
(0.233113 0.262851 -0.00133832)
(0.205888 0.265009 -0.00141491)
(0.178288 0.266896 -0.00149553)
(0.150364 0.268429 -0.001577)
(0.122643 0.2694 -0.00165817)
(0.0948667 0.26985 -0.00174727)
(0.0673393 0.270404 -0.00183438)
(0.0385066 0.272748 -0.00191247)
(0.0143924 0.279007 -0.00198441)
(3 7.3757e-08 0.000429205)
(3 1.75183e-07 0.000407131)
(3 5.68324e-07 0.000385221)
(3 -8.78389e-08 0.000363476)
(3 9.47208e-07 0.000341939)
(2.99998 -2.20406e-06 0.000320639)
(2.99994 -4.59975e-06 0.00029978)
(2.99984 -2.57423e-05 0.000279382)
(2.99959 -3.04417e-05 0.000260895)
(2.99911 -0.000152002 0.000244004)
(2.99765 -0.000161952 0.000240049)
(2.99579 -0.00104477 0.000227264)
(2.99514 0.000365577 0.000186871)
(2.97129 0.00184328 0.000591535)
(2.94321 0.00562882 0.000679369)
(2.79118 0.00703306 0.00314987)
(2.37464 0.0135574 0.00577659)
(1.55628 0.0302196 0.012631)
(0.682274 0.1077 0.00574877)
(0.605531 0.115594 0.000639553)
(0.6608 0.122994 -0.000301386)
(0.692805 0.129775 -0.00020841)
(0.687082 0.13532 -1.95341e-05)
(0.665917 0.140353 1.83662e-05)
(0.63627 0.145524 7.43586e-06)
(0.610558 0.151737 -8.30255e-05)
(0.590429 0.15875 -0.000182487)
(0.571694 0.166238 -0.000256627)
(0.552204 0.17421 -0.000319933)
(0.531794 0.182808 -0.000384289)
(0.510766 0.192136 -0.000450997)
(0.489255 0.202235 -0.000518354)
(0.467182 0.213091 -0.00058644)
(0.444374 0.224606 -0.000656413)
(0.420731 0.23652 -0.000728147)
(0.396338 0.248387 -0.000800001)
(0.371343 0.259623 -0.000870821)
(0.345786 0.269637 -0.000940426)
(0.319755 0.278012 -0.00100874)
(0.293366 0.284587 -0.00107604)
(0.266702 0.289513 -0.00114258)
(0.239755 0.293266 -0.00120968)
(0.212423 0.296395 -0.0012788)
(0.184518 0.299183 -0.00135071)
(0.156099 0.301534 -0.00142367)
(0.127678 0.303163 -0.00149808)
(0.0990106 0.304118 -0.00157498)
(0.0703604 0.304943 -0.00165347)
(0.0403296 0.307236 -0.00172883)
(0.0150416 0.313123 -0.00178949)
(3 -1.10124e-08 0.000386103)
(3 2.54648e-07 0.000366207)
(3 7.20284e-07 0.000346466)
(3 1.35937e-07 0.000326876)
(2.99999 -8.72703e-07 0.00030747)
(2.99998 -1.15163e-06 0.000288276)
(2.99994 1.11201e-06 0.000269459)
(2.99986 1.2301e-05 0.000251019)
(2.99964 3.70261e-05 0.000234158)
(2.99922 0.000114654 0.00021839)
(2.99795 0.000265988 0.000212527)
(2.99638 0.000737968 0.000200112)
(2.99584 0.00154836 0.000174748)
(2.97371 0.00164983 0.000496256)
(2.94826 0.00587474 0.000559845)
(2.80182 0.00776473 0.00274651)
(2.40913 0.017614 0.00495169)
(1.62249 0.0401681 0.0111759)
(0.721894 0.132085 0.00543337)
(0.600947 0.134925 0.000835016)
(0.654658 0.139414 -0.000257485)
(0.687778 0.145136 -0.000191126)
(0.682465 0.150453 -1.92461e-05)
(0.66154 0.155406 1.52653e-05)
(0.632489 0.16064 3.23223e-06)
(0.60756 0.167069 -7.88139e-05)
(0.588092 0.174457 -0.000167003)
(0.569981 0.182457 -0.000232968)
(0.551191 0.19107 -0.000289833)
(0.531575 0.200439 -0.000347613)
(0.5114 0.210674 -0.00040727)
(0.490755 0.221804 -0.000467507)
(0.46954 0.233792 -0.000528468)
(0.447595 0.246504 -0.000590919)
(0.424847 0.259647 -0.000654537)
(0.401377 0.272745 -0.000717943)
(0.377286 0.285199 -0.000780355)
(0.352579 0.296412 -0.000841765)
(0.327313 0.305991 -0.000902127)
(0.301538 0.313769 -0.000961712)
(0.275286 0.319925 -0.00102011)
(0.248574 0.324955 -0.00107801)
(0.221199 0.32934 -0.0011391)
(0.192921 0.333414 -0.00120293)
(0.163863 0.336968 -0.00126691)
(0.134525 0.339678 -0.00133277)
(0.104721 0.34146 -0.0014028)
(0.0747031 0.342789 -0.00147204)
(0.0429579 0.345209 -0.00153453)
(0.0158871 0.350719 -0.00159377)
(3 -2.26358e-08 0.000341213)
(3 9.47043e-08 0.000323594)
(3 1.14811e-07 0.000306117)
(3 7.60942e-07 0.000288779)
(2.99999 8.13441e-07 0.000271604)
(2.99998 3.43527e-06 0.000254613)
(2.99995 7.54026e-06 0.000237937)
(2.99988 3.44708e-05 0.000221578)
(2.99968 6.92388e-05 0.000206439)
(2.99931 0.000239412 0.000192189)
(2.99818 0.000442996 0.000186108)
(2.99681 0.0014617 0.000173739)
(2.99648 0.00190866 0.000143495)
(2.97594 0.00152593 0.000420873)
(2.95379 0.00601571 0.000457636)
(2.81435 0.00880966 0.00231231)
(2.44906 0.0221893 0.00412787)
(1.70068 0.0516134 0.00964614)
(0.766711 0.162032 0.00510034)
(0.591586 0.157019 0.00101852)
(0.64512 0.157395 -0.00021924)
(0.680917 0.161412 -0.000177998)
(0.676723 0.166246 -2.09096e-05)
(0.656382 0.170905 1.14143e-05)
(0.628241 0.176128 -1.19135e-06)
(0.604341 0.182696 -7.39713e-05)
(0.585728 0.190334 -0.000150703)
(0.568405 0.198734 -0.000208401)
(0.550467 0.207917 -0.000258576)
(0.531797 0.218025 -0.000309566)
(0.512628 0.229151 -0.000362048)
(0.493006 0.24131 -0.000414924)
(0.472814 0.254441 -0.000468429)
(0.451914 0.268373 -0.000523257)
(0.430263 0.282774 -0.00057894)
(0.407939 0.29714 -0.000634047)
(0.384984 0.310874 -0.000688061)
(0.361362 0.323408 -0.000741248)
(0.337066 0.334377 -0.000793505)
(0.312089 0.343613 -0.000844748)
(0.286486 0.351308 -0.000894867)
(0.260085 0.357977 -0.000944466)
(0.232716 0.364017 -0.000996449)
(0.204152 0.369799 -0.00105194)
(0.17437 0.375045 -0.00110731)
(0.143932 0.379324 -0.00116257)
(0.112605 0.382511 -0.00122234)
(0.0806447 0.384854 -0.00128352)
(0.0466313 0.387639 -0.00134223)
(0.0172736 0.392832 -0.00138915)
(3 -5.61265e-09 0.000294452)
(3 5.36045e-08 0.000279216)
(3 6.86781e-08 0.000264104)
(3 6.39401e-07 0.000249118)
(3 4.86882e-07 0.000234267)
(2.99999 7.86388e-07 0.000219581)
(2.99997 2.79546e-06 0.000205072)
(2.99991 1.29104e-05 0.000190912)
(2.9998 3.33676e-05 0.000177121)
(2.99954 0.000103929 0.000164627)
(2.99897 0.000197505 0.000154173)
(2.99757 0.000599934 0.000150314)
(2.9965 0.00132542 0.000135996)
(2.97831 0.00119971 0.000330596)
(2.95999 0.00777298 0.000342056)
(2.82844 0.0115202 0.00189473)
(2.49664 0.0307812 0.00330601)
(1.79598 0.0665597 0.00802998)
(0.819619 0.200386 0.00475052)
(0.576672 0.181073 0.00117811)
(0.632157 0.174816 -0.00019047)
(0.67256 0.175885 -0.000169661)
(0.670143 0.180556 -2.49853e-05)
(0.650462 0.18527 7.1045e-06)
(0.623343 0.190924 -5.28194e-06)
(0.600548 0.197825 -6.76951e-05)
(0.582908 0.205755 -0.000132866)
(0.566562 0.214565 -0.000182448)
(0.549707 0.224339 -0.000225809)
(0.532225 0.235213 -0.000269638)
(0.514307 0.247258 -0.00031465)
(0.495965 0.260467 -0.0003601)
(0.477075 0.274757 -0.000406052)
(0.457515 0.289929 -0.000452889)
(0.437258 0.305618 -0.00050025)
(0.416369 0.321304 -0.000547047)
(0.394841 0.336404 -0.000592849)
(0.372594 0.3504 -0.000637966)
(0.349545 0.36297 -0.000682249)
(0.325626 0.37397 -0.000724898)
(0.300881 0.383582 -0.000766339)
(0.274988 0.392333 -0.000808665)
(0.24773 0.400612 -0.000852161)
(0.218946 0.408683 -0.000897792)
(0.188448 0.416326 -0.00094475)
(0.156726 0.422913 -0.000991546)
(0.123623 0.428197 -0.00104079)
(0.0892032 0.432269 -0.00109202)
(0.0518959 0.436112 -0.00113941)
(0.0191117 0.441248 -0.00118548)
(3 -2.0794e-08 0.000245734)
(3 1.7428e-07 0.000232991)
(3 7.4009e-08 0.000220355)
(3 9.80911e-08 0.000207828)
(2.99999 -1.5199e-06 0.000195423)
(2.99999 -4.57897e-06 0.000183146)
(2.99996 -1.20845e-05 0.00017107)
(2.9999 -2.45583e-05 0.000159205)
(2.99975 -6.34077e-05 0.000148011)
(2.99946 -0.00013323 0.000137511)
(2.99861 -0.000398493 0.000131005)
(2.99779 -0.000805935 0.000119498)
(2.99758 -0.00235801 0.00010504)
(2.98243 -0.00579052 0.000242468)
(2.96814 0.0114551 0.000245279)
(2.84584 -0.0196053 0.00147711)
(2.54944 0.0802188 0.00253072)
(1.90226 0.0688285 0.00635049)
(0.882564 0.271292 0.00437206)
(0.554049 0.221633 0.00129381)
(0.615958 0.198966 -0.000176405)
(0.66443 0.192903 -0.00016919)
(0.665476 0.196134 -3.54147e-05)
(0.646371 0.200281 1.26817e-06)
(0.619911 0.206373 -9.01005e-06)
(0.597558 0.213275 -5.91673e-05)
(0.58047 0.221082 -0.000113113)
(0.564932 0.230006 -0.000154889)
(0.549147 0.240191 -0.000191437)
(0.532951 0.251722 -0.000228005)
(0.516482 0.264622 -0.000265372)
(0.499707 0.278843 -0.00030312)
(0.482474 0.294268 -0.000341258)
(0.464651 0.310662 -0.000379905)
(0.446196 0.32764 -0.000418644)
(0.427132 0.344692 -0.000456772)
(0.407397 0.361277 -0.000494163)
(0.386883 0.376932 -0.000531149)
(0.365439 0.39136 -0.000567586)
(0.342901 0.40447 -0.000602288)
(0.319328 0.416523 -0.000635377)
(0.294293 0.427915 -0.000669613)
(0.267426 0.439103 -0.000704371)
(0.238626 0.450249 -0.000741034)
(0.207542 0.461205 -0.00077789)
(0.174412 0.471265 -0.000814955)
(0.139072 0.479943 -0.000855193)
(0.101523 0.487023 -0.000897018)
(0.0599325 0.492849 -0.000937733)
(0.022305 0.498469 -0.000971183)
(3 -1.04176e-08 0.000194968)
(3 5.65215e-08 0.000184835)
(3 6.1147e-08 0.000174789)
(3 2.94307e-07 0.000164835)
(2.99999 4.1751e-07 0.000154976)
(2.99998 1.79044e-06 0.000145241)
(2.99995 5.8819e-06 0.000135628)
(2.99988 1.96161e-05 0.000126336)
(2.99973 4.98662e-05 0.000117315)
(2.99929 0.000128525 0.000109971)
(2.99846 0.000302713 0.000103798)
(2.99589 0.000752943 0.000107976)
(2.99258 0.000989538 0.000106245)
(2.99127 -0.00270656 9.15338e-05)
(2.95085 0.00890642 0.000401828)
(2.88484 -0.0190232 0.000586099)
(2.64764 0.0653295 0.00211391)
(1.91498 0.0811061 0.00420605)
(1.04186 0.309782 0.00383227)
(0.575545 0.254076 0.00142969)
(0.636628 0.223765 -0.00017329)
(0.689993 0.208389 -0.000181854)
(0.690636 0.209873 -5.08622e-05)
(0.667852 0.213786 -6.28115e-06)
(0.637962 0.221422 -1.14751e-05)
(0.611657 0.228768 -4.69198e-05)
(0.591625 0.236391 -9.05739e-05)
(0.574174 0.245199 -0.000124926)
(0.557236 0.255562 -0.000154368)
(0.540524 0.267535 -0.000183447)
(0.524122 0.281094 -0.000213073)
(0.507947 0.296167 -0.000243033)
(0.491776 0.312605 -0.000273263)
(0.475389 0.330153 -0.000303704)
(0.458654 0.348402 -0.000334009)
(0.441497 0.366859 -0.000363798)
(0.423751 0.38505 -0.000392943)
(0.405207 0.402565 -0.000421587)
(0.385667 0.41916 -0.00044961)
(0.365011 0.4348 -0.000476429)
(0.343019 0.449751 -0.000502021)
(0.319186 0.464423 -0.000527631)
(0.293164 0.479306 -0.000554078)
(0.264783 0.494594 -0.000581616)
(0.233564 0.510131 -0.000610272)
(0.199306 0.525207 -0.000637565)
(0.161667 0.539151 -0.000666323)
(0.120148 0.551514 -0.000698038)
(0.072331 0.561794 -0.000728187)
(0.0272007 0.569316 -0.000758567)
(3 2.10787e-08 0.000142059)
(3 -5.00471e-08 0.000134658)
(3 1.98977e-07 0.000127323)
(3 2.71375e-07 0.000120054)
(3 1.4591e-06 0.000112857)
(2.99999 4.16117e-06 0.000105732)
(2.99997 1.61634e-05 9.87031e-05)
(2.99994 3.63761e-05 9.17667e-05)
(2.99986 0.000111566 8.50801e-05)
(2.99972 0.000225979 7.85634e-05)
(2.99927 0.000660377 7.33137e-05)
(2.99865 0.00126839 6.84346e-05)
(2.99475 0.00383025 7.934e-05)
(2.99098 0.00430894 7.82301e-05)
(2.95859 0.00372533 0.000245509)
(2.90932 0.0157415 0.000336135)
(2.72082 0.0346215 0.0012593)
(2.12331 0.107345 0.00252907)
(1.22341 0.291949 0.00339436)
(0.655725 0.277684 0.00134561)
(0.698508 0.26442 -0.000121487)
(0.751406 0.242454 -0.000162599)
(0.755463 0.238906 -6.80751e-05)
(0.729196 0.239896 -1.60495e-05)
(0.693349 0.245909 -1.35948e-05)
(0.658193 0.252261 -3.17989e-05)
(0.630499 0.258327 -6.48944e-05)
(0.607073 0.265647 -9.17957e-05)
(0.585354 0.274909 -0.00011386)
(0.564804 0.286162 -0.000135061)
(0.545532 0.299338 -0.000156677)
(0.527481 0.314356 -0.00017861)
(0.510405 0.33105 -0.000200792)
(0.493982 0.349142 -0.000223024)
(0.477914 0.368247 -0.000244984)
(0.461991 0.387891 -0.000266537)
(0.445881 0.407659 -0.000287628)
(0.429237 0.427043 -0.000308359)
(0.411762 0.445937 -0.000328006)
(0.39318 0.464441 -0.000346318)
(0.373222 0.482792 -0.000364686)
(0.351298 0.501407 -0.000383102)
(0.326929 0.520815 -0.000401039)
(0.299842 0.541405 -0.000419805)
(0.269364 0.563165 -0.00043892)
(0.234746 0.585544 -0.000458237)
(0.195296 0.607819 -0.000477085)
(0.149889 0.629399 -0.00049807)
(0.0941188 0.648901 -0.00051904)