/*--------------------------------*- C++ -*----------------------------------*\
| =========                 |                                                 |
| \\      /  F ield         | OpenFOAM: The Open Source CFD Toolbox           |
|  \\    /   O peration     | Version:  2112                                  |
|   \\  /    A nd           | Website:  www.openfoam.com                      |
|    \\/     M anipulation  |                                                 |
\*---------------------------------------------------------------------------*/
FoamFile
{
    version     2.0;
    format      ascii;
    arch        "LSB;label=32;scalar=64";
    class       volScalarField;
    location    "4.5";
    object      p;
}
// * * * * * * * * * * * * * * * * * * * * * * * * * * * * * * * * * * * * * //

dimensions      [0 2 -2 0 0 0 0];

internalField   nonuniform List<scalar> 
8800
(
0.586151
0.538839
0.500912
0.472787
0.452856
0.438968
0.429252
0.422514
0.418201
0.416261
0.417145
0.420571
0.426258
0.434505
0.446191
0.462872
0.48668
0.51974
0.561491
0.620062
0.416158
0.424292
0.433273
0.437662
0.437358
0.433562
0.428198
0.42291
0.41859
0.415741
0.415203
0.417395
0.421284
0.426335
0.431917
0.436813
0.439098
0.437227
0.430337
0.420499
0.396277
0.402911
0.408315
0.412148
0.414474
0.415366
0.414805
0.413337
0.411779
0.411067
0.411503
0.413075
0.414969
0.416273
0.416258
0.414705
0.41171
0.407047
0.40119
0.397574
0.399035
0.401115
0.404247
0.406956
0.409002
0.409915
0.410104
0.40972
0.409064
0.408663
0.409116
0.410077
0.410887
0.411169
0.410798
0.409408
0.407098
0.404084
0.401338
0.400497
0.39856
0.398903
0.399635
0.40052
0.401476
0.402471
0.403199
0.403548
0.40365
0.403763
0.404094
0.404457
0.404582
0.404272
0.403523
0.402612
0.401765
0.400949
0.40044
0.400298
0.395592
0.395803
0.396246
0.396801
0.397383
0.397931
0.398392
0.39874
0.398987
0.399237
0.399576
0.39987
0.399971
0.39984
0.399516
0.399061
0.398553
0.398074
0.397758
0.397673
0.391731
0.391815
0.391995
0.392268
0.392623
0.393046
0.393498
0.393937
0.394349
0.394763
0.39515
0.395399
0.395455
0.395342
0.395125
0.394877
0.39465
0.394468
0.394363
0.394327
0.387345
0.387399
0.387514
0.387687
0.387919
0.388217
0.388578
0.388998
0.389468
0.389987
0.390469
0.390796
0.390954
0.390982
0.390933
0.390849
0.390757
0.390675
0.390621
0.390599
0.382729
0.382761
0.382841
0.382969
0.383156
0.383416
0.383763
0.384205
0.384753
0.38539
0.386004
0.386445
0.386709
0.386842
0.386892
0.386896
0.386878
0.386852
0.386831
0.386818
0.377897
0.37792
0.377984
0.378093
0.378263
0.378515
0.378873
0.379361
0.380002
0.380789
0.381574
0.38217
0.382561
0.382805
0.382946
0.38302
0.383054
0.383064
0.383063
0.383055
0.37285
0.37287
0.372932
0.373042
0.37322
0.373493
0.373896
0.374467
0.375237
0.376217
0.377217
0.377995
0.378543
0.378901
0.379127
0.379263
0.379338
0.379375
0.379388
0.379382
0.367576
0.367594
0.367661
0.367784
0.367988
0.368308
0.368787
0.369478
0.370426
0.371656
0.372932
0.373948
0.374669
0.375155
0.375469
0.375665
0.37578
0.375841
0.375866
0.375862
0.362034
0.362053
0.362131
0.362277
0.362523
0.362912
0.363502
0.364358
0.365546
0.367099
0.368725
0.370029
0.370962
0.371599
0.372017
0.372279
0.372436
0.372522
0.372558
0.372555
0.356158
0.35618
0.356276
0.356457
0.356763
0.357249
0.357988
0.359066
0.360567
0.362535
0.364603
0.366267
0.367462
0.368282
0.368822
0.369164
0.369369
0.369483
0.369532
0.369528
0.349864
0.34989
0.350011
0.350241
0.350628
0.351244
0.352182
0.353551
0.355458
0.357959
0.360587
0.362703
0.364224
0.365269
0.365958
0.366395
0.366658
0.366805
0.366869
0.366864
0.343036
0.34307
0.343225
0.343519
0.344014
0.344803
0.346003
0.347751
0.350182
0.353365
0.356702
0.359385
0.361312
0.362636
0.36351
0.364065
0.364399
0.364586
0.364668
0.364662
0.335521
0.335565
0.335766
0.336146
0.336785
0.337802
0.339345
0.341588
0.344695
0.348749
0.352982
0.356376
0.358812
0.360483
0.361586
0.362286
0.362708
0.362944
0.363047
0.36304
0.327112
0.327171
0.327434
0.327929
0.328762
0.330081
0.332076
0.334965
0.338946
0.344111
0.349475
0.353759
0.356827
0.35893
0.360318
0.361198
0.361729
0.362026
0.362155
0.362146
0.317533
0.317612
0.31796
0.318613
0.319707
0.321432
0.324028
0.327764
0.332876
0.339456
0.346241
0.351634
0.355489
0.358129
0.35987
0.360975
0.361641
0.362012
0.362173
0.362161
0.306398
0.306509
0.306977
0.30785
0.309302
0.311581
0.314986
0.319842
0.326422
0.334798
0.343356
0.350122
0.354949
0.358256
0.360438
0.361823
0.362658
0.363124
0.363327
0.363311
0.293173
0.29333
0.293972
0.29516
0.297122
0.300173
0.304683
0.311035
0.31952
0.330166
0.340915
0.349367
0.355391
0.359522
0.362256
0.363995
0.365045
0.365632
0.365886
0.365866
0.277083
0.277316
0.278217
0.279875
0.282586
0.286748
0.292802
0.301173
0.312131
0.325615
0.339035
0.349527
0.357013
0.36217
0.365601
0.367793
0.369124
0.369866
0.370188
0.370163
0.256971
0.257329
0.258636
0.261043
0.264922
0.270747
0.279009
0.290123
0.304269
0.321243
0.337851
0.350766
0.360018
0.366451
0.370779
0.373575
0.375283
0.376237
0.376649
0.37662
0.230947
0.231505
0.233543
0.237286
0.243127
0.251552
0.263031
0.277864
0.296052
0.317209
0.337509
0.353224
0.36457
0.372588
0.378096
0.381733
0.383994
0.385261
0.385802
0.385769
0.195525
0.196505
0.200232
0.206684
0.216022
0.228614
0.244772
0.264552
0.28771
0.313704
0.338123
0.356959
0.370717
0.380672
0.387748
0.392626
0.395802
0.397655
0.398457
0.398411
0.143721
0.146682
0.15505
0.167227
0.182771
0.201865
0.224549
0.250586
0.279556
0.310879
0.339679
0.361835
0.378248
0.390476
0.399575
0.406275
0.411081
0.414273
0.415904
0.415883
0.0633279
0.0781656
0.097783
0.120266
0.145224
0.17304
0.203619
0.236695
0.271913
0.308838
0.342246
0.36801
0.387474
0.402495
0.414304
0.423732
0.431356
0.437447
0.4421
0.443585
-0.0220468
0.00930088
0.0410621
0.0741307
0.108864
0.145318
0.183536
0.223423
0.264784
0.307443
0.345895
0.375836
0.398912
0.417256
0.432225
0.444751
0.455402
0.464824
0.47434
0.476497
-0.0805056
-0.0469422
-0.00756679
0.0336835
0.0763367
0.120308
0.165419
0.211473
0.258305
0.305878
0.348397
0.38145
0.40697
0.427262
0.443726
0.457291
0.468613
0.478175
0.486404
0.488483
-0.123185
-0.087533
-0.0441331
0.00194353
0.0499338
0.0993684
0.14976
0.200705
0.251914
0.303349
0.348931
0.384153
0.411148
0.43238
0.449372
0.463152
0.474487
0.483927
0.491915
0.494071
-0.153624
-0.11755
-0.0716762
-0.022409
0.0291653
0.0824845
0.136848
0.191557
0.246111
0.300405
0.348145
0.384803
0.412705
0.434465
0.451705
0.465544
0.476791
0.486051
0.493663
0.495803
-0.176983
-0.140547
-0.0930979
-0.0415673
0.0127516
0.0690551
0.12639
0.183851
0.240749
0.296922
0.346049
0.383678
0.41223
0.43437
0.451786
0.465649
0.476835
0.485962
0.493298
0.495436
-0.195872
-0.158837
-0.110034
-0.056825
-0.000407066
0.0581826
0.117788
0.177238
0.235649
0.29286
0.342751
0.381076
0.410205
0.432755
0.450407
0.464358
0.475536
0.484567
0.491694
0.493842
-0.21146
-0.173818
-0.123848
-0.069072
-0.0109261
0.0494807
0.110795
0.171583
0.23075
0.288188
0.338275
0.377136
0.406941
0.430071
0.448122
0.462297
0.473555
0.48257
0.489568
0.491743
-0.224559
-0.186319
-0.135177
-0.0790812
-0.0194214
0.0425146
0.105147
0.166747
0.225987
0.282829
0.332534
0.371862
0.402588
0.42663
0.44537
0.459985
0.471466
0.480556
0.487472
0.48966
-0.235957
-0.196944
-0.144797
-0.0873351
-0.0262937
0.0369793
0.100654
0.16266
0.221326
0.276713
0.32536
0.36512
0.397172
0.422644
0.442525
0.457905
0.469818
0.479109
0.486036
0.488266
-0.245905
-0.206204
-0.152941
-0.0942306
-0.0318612
0.0326567
0.0971986
0.159286
0.216789
0.269778
0.316512
0.356625
0.390577
0.418244
0.439934
0.456563
0.469229
0.478909
0.48594
0.488223
-0.254968
-0.214347
-0.160017
-0.10007
-0.0363847
0.0293429
0.0946767
0.15664
0.212457
0.261986
0.30569
0.345944
0.382534
0.413467
0.437927
0.456504
0.470371
0.480702
0.487983
0.49036
-0.263282
-0.221857
-0.166318
-0.105099
-0.0400675
0.0268813
0.093013
0.154742
0.208441
0.253389
0.292569
0.332483
0.372591
0.408232
0.436816
0.458337
0.474029
0.485368
0.493087
0.495545
-0.271064
-0.228819
-0.172087
-0.109538
-0.0431061
0.0251428
0.0921283
0.15364
0.204919
0.244111
0.276832
0.31545
0.36005
0.402332
0.436921
0.462755
0.481141
0.493902
0.502297
0.504868
-0.278653
-0.23538
-0.177465
-0.113557
-0.0456754
0.0239763
0.0919545
0.153351
0.202074
0.234389
0.258229
0.293904
0.343968
0.395437
0.438506
0.470484
0.492719
0.507607
0.516778
0.519727
-0.28626
-0.241772
-0.18262
-0.117304
-0.0479162
0.0232394
0.0924015
0.153902
0.200092
0.224536
0.236607
0.266693
0.323076
0.387008
0.441712
0.482161
0.509764
0.527591
0.538116
0.541425
-0.293777
-0.248101
-0.187669
-0.120914
-0.049951
0.022801
0.0933354
0.155268
0.199169
0.215
0.211946
0.232535
0.295926
0.375927
0.446633
0.498703
0.533495
0.555281
0.567464
0.570533
-0.301278
-0.254449
-0.192691
-0.124477
-0.0519063
0.0225428
0.0946492
0.157377
0.199454
0.206284
0.184424
0.190296
0.259924
0.361039
0.453338
0.520925
0.565095
0.591497
0.605101
0.607663
-0.309007
-0.260862
-0.197751
-0.128062
-0.0538683
0.0223445
0.0962313
0.160143
0.201017
0.198913
0.154518
0.138719
0.211898
0.340406
0.461738
0.55023
0.606512
0.638212
0.65149
0.651677
-0.316766
-0.267353
-0.202844
-0.131702
-0.0559084
0.0221148
0.097934
0.163446
0.203861
0.193381
0.122885
0.0755401
0.147769
0.311748
0.471893
0.584717
0.655781
0.69629
0.707954
0.699202
-0.324782
-0.273931
-0.207957
-0.135425
-0.0580946
0.0217853
0.0996843
0.167191
0.208024
0.190037
0.0901634
-0.00258241
0.0586094
0.270348
0.485683
0.627448
0.710808
0.764743
0.78569
0.761449
-0.332981
-0.280522
-0.213085
-0.139338
-0.0605415
0.021245
0.101372
0.171352
0.213635
0.18941
0.0553243
-0.105635
-0.0782515
0.200329
0.492121
0.66428
0.743537
0.778678
0.792659
0.746417
-0.341052
-0.286839
-0.218023
-0.143394
-0.0631655
0.0205539
0.102874
0.1758
0.220603
0.192293
0.0203065
-0.24141
-0.292787
0.0694898
0.492489
0.68089
0.74188
0.725968
0.635221
0.570035
-0.348007
-0.292215
-0.222263
-0.146998
-0.0654131
0.0200428
0.104306
0.180505
0.228901
0.199264
-0.0109331
-0.430523
-0.677408
-0.19132
0.426151
0.641952
0.665143
0.585194
0.456691
0.375889
-0.423289
-0.294134
-0.227221
-0.151108
-0.0685197
0.0184997
0.105675
0.185271
0.239178
0.212282
-0.0325554
-0.677207
-1.29016
-0.640248
0.214401
0.447488
0.398803
0.313016
0.194209
0.127847
-0.31682
-0.297658
-0.234636
-0.157661
-0.073474
0.0161738
0.106406
0.191266
0.252537
0.236026
-0.0309906
-1.05768
-2.52467
-1.51406
-0.458861
-0.295595
-0.255177
-0.258806
-0.326623
-0.198329
-0.353972
-0.308485
-0.24195
-0.164543
-0.0788438
0.0125535
0.105941
0.194861
0.263671
0.262013
-0.00691626
-1.19962
-2.82771
-1.99449
-1.01842
-0.769987
-0.70158
-0.691285
-0.763365
-0.584993
-0.375259
-0.323256
-0.252821
-0.17352
-0.0859996
0.00749524
0.10381
0.196884
0.273292
0.287036
0.0378235
-1.13584
-2.69517
-2.03761
-1.38848
-1.14799
-1.13405
-1.14766
-1.26598
-1.05478
-0.396574
-0.338835
-0.264924
-0.183
-0.0934117
0.00224754
0.101219
0.198417
0.282002
0.312827
0.114447
-0.873709
-2.12958
-1.75861
-1.43432
-1.38312
-1.49657
-1.61509
-1.81869
-1.69127
-0.416174
-0.354913
-0.277975
-0.193473
-0.101648
-0.00384156
0.0978261
0.198815
0.289282
0.337974
0.20113
-0.513251
-1.39967
-1.33628
-1.35983
-1.51908
-1.76275
-2.02505
-2.36206
-2.69906
-0.435028
-0.37173
-0.292373
-0.205415
-0.111341
-0.0112502
0.0930358
0.197448
0.294628
0.359053
0.28276
-0.170555
-0.775509
-0.966835
-1.2152
-1.55841
-1.93041
-2.20894
-2.32467
-2.62796
-0.454315
-0.389685
-0.308351
-0.219146
-0.122862
-0.0204324
0.0862766
0.194283
0.29694
0.375557
0.354874
0.106084
-0.288067
-0.630341
-1.06238
-1.54451
-2.03742
-2.19537
-2.16539
-2.24369
-0.474813
-0.40913
-0.326075
-0.234826
-0.136368
-0.0317435
0.077471
0.188426
0.296132
0.38722
0.408898
0.290896
0.0226159
-0.367591
-0.892672
-1.53551
-2.26146
-2.47142
-2.29266
-2.35763
-0.49722
-0.430467
-0.345787
-0.252539
-0.152022
-0.0452284
0.0662629
0.17991
0.291616
0.391728
0.443993
0.399806
0.206925
-0.161663
-0.705263
-1.5008
-2.5423
-3.25936
-3.02815
-2.82087
-0.522162
-0.45411
-0.367719
-0.272511
-0.16993
-0.061063
0.0524165
0.1684
0.283686
0.39128
0.462306
0.458255
0.323815
0.0293082
-0.44566
-1.19284
-2.10513
-2.69822
-2.59612
-2.3849
-0.549841
-0.480365
-0.392098
-0.294864
-0.190277
-0.0794208
0.0362603
0.154561
0.272688
0.385396
0.468468
0.489375
0.410232
0.217872
-0.0840627
-0.503943
-0.893991
-1.10186
-1.09021
-1.0281
-0.580159
-0.509268
-0.418996
-0.319636
-0.212855
-0.0998798
0.0176766
0.137952
0.258846
0.376431
0.469355
0.51198
0.486862
0.402881
0.280219
0.141708
0.0546767
0.0399718
0.0727755
0.0889302
-0.613231
-0.540781
-0.448207
-0.346618
-0.237704
-0.122665
-0.00294203
0.119721
0.243197
0.365528
0.468071
0.531354
0.55199
0.544237
0.530205
0.523809
0.546465
0.590748
0.624555
0.628214
-0.648664
-0.574615
-0.479583
-0.375612
-0.264272
-0.146846
-0.0248933
0.0999986
0.226244
0.353883
0.466018
0.547529
0.601452
0.640108
0.677772
0.722409
0.774545
0.825392
0.858496
0.866044
-0.685742
-0.609764
-0.512298
-0.405757
-0.291933
-0.172092
-0.0477792
0.0795849
0.20927
0.342384
0.463685
0.559532
0.634708
0.69806
0.756687
0.813318
0.866943
0.912712
0.942228
0.9493
-0.723194
-0.645727
-0.545645
-0.436409
-0.319853
-0.197465
-0.0706564
0.0594671
0.193067
0.33128
0.460806
0.567139
0.654004
0.727889
0.792203
0.848465
0.896829
0.9363
0.963038
0.970165
-0.760124
-0.68062
-0.578181
-0.466045
-0.346815
-0.221941
-0.0925193
0.0405757
0.177809
0.321273
0.457071
0.570076
0.662848
0.740206
0.804938
0.858831
0.903219
0.938949
0.96339
0.970819
-0.79382
-0.712668
-0.607928
-0.493137
-0.371425
-0.244124
-0.112204
0.0236246
0.164015
0.311593
0.452212
0.568812
0.663821
0.741703
0.805499
0.857593
0.899898
0.934051
0.957063
0.964605
-0.820688
-0.739253
-0.63236
-0.515369
-0.391685
-0.262434
-0.128671
0.00909205
0.151719
0.301987
0.444648
0.56279
0.657978
0.735168
0.79776
0.848448
0.88945
0.922404
0.944569
0.952109
-0.836934
-0.75651
-0.648481
-0.530222
-0.405322
-0.275241
-0.140915
-0.00256812
0.140726
0.291679
0.434294
0.5519
0.645839
0.721636
0.782844
0.8323
0.872278
0.904359
0.926045
0.933735
-0.839056
-0.759664
-0.652677
-0.53455
-0.410164
-0.280961
-0.147761
-0.0109106
0.130882
0.280029
0.420366
0.53552
0.627124
0.700923
0.760562
0.808827
0.847924
0.879315
0.900789
0.908634
-0.820429
-0.745333
-0.640644
-0.524628
-0.403237
-0.27758
-0.148153
-0.0161525
0.122032
0.266559
0.402047
0.512664
0.600674
0.671733
0.729447
0.77641
0.81475
0.84533
0.866806
0.874725
-0.7737
-0.704769
-0.606113
-0.496263
-0.381598
-0.26309
-0.141164
-0.0157398
0.11437
0.250879
0.378445
0.482124
0.564735
0.631761
0.686653
0.731698
0.768685
0.798766
0.820568
0.828597
-0.691998
-0.632221
-0.543881
-0.445459
-0.342397
-0.235714
-0.125309
-0.0109864
0.107988
0.232908
0.349171
0.443027
0.517531
0.578055
0.628055
0.669533
0.703665
0.731581
0.753575
0.76168
-0.568372
-0.523921
-0.450521
-0.36935
-0.284218
-0.194478
-0.100138
-0.00100487
0.103231
0.213096
0.314789
0.395692
0.458726
0.508884
0.549643
0.583479
0.611205
0.63269
0.648011
0.653662
-0.381286
-0.360426
-0.318273
-0.266603
-0.207319
-0.140759
-0.0670068
0.0138551
0.101663
0.196147
0.284341
0.354132
0.407548
0.448821
0.480588
0.5047
0.523509
0.539161
0.551309
0.555028
-0.201959
-0.19647
-0.18043
-0.156334
-0.123361
-0.0809495
-0.0287709
0.0330259
0.103951
0.183085
0.258096
0.317194
0.361466
0.394337
0.418622
0.436487
0.448982
0.456694
0.460821
0.461892
-0.0850471
-0.0839191
-0.078821
-0.0682713
-0.0512207
-0.0259527
0.00884778
0.0538532
0.10893
0.173118
0.235413
0.28453
0.320704
0.346799
0.364927
0.376766
0.384048
0.388334
0.390388
0.390706
-0.016942
-0.0174436
-0.0163673
-0.011403
-0.00132059
0.0151145
0.039175
0.0720295
0.114252
0.165336
0.215914
0.255829
0.284775
0.305028
0.318701
0.327606
0.333003
0.335787
0.336791
0.336918
0.022377
0.0222967
0.0231169
0.0261155
0.032457
0.0435256
0.0606902
0.0851064
0.117521
0.157814
0.198391
0.230528
0.253712
0.269824
0.280556
0.287299
0.291225
0.293273
0.294123
0.294274
0.0482715
0.0483798
0.0491667
0.0514526
0.0560441
0.0639546
0.0763956
0.0945936
0.119444
0.151054
0.183338
0.208994
0.227408
0.240049
0.248353
0.253558
0.256617
0.258229
0.258904
0.259029
0.0653671
0.0655232
0.0662192
0.0679828
0.0714194
0.0773224
0.0866497
0.100431
0.119537
0.144238
0.169759
0.190116
0.204702
0.21469
0.22124
0.22533
0.227724
0.228988
0.229524
0.229623
0.0764912
0.0766546
0.0772597
0.0786616
0.0813008
0.0857776
0.0928532
0.103383
0.118132
0.137418
0.157522
0.173614
0.18514
0.193015
0.198163
0.201373
0.203254
0.204251
0.204676
0.204753
0.0832727
0.0834137
0.0839075
0.08501
0.0870535
0.0904951
0.0959227
0.104021
0.115438
0.130487
0.146279
0.15896
0.168048
0.174252
0.178305
0.180831
0.182309
0.183092
0.183424
0.183483
0.0867597
0.0868762
0.087272
0.0881358
0.089721
0.0923785
0.0965665
0.102826
0.111685
0.123428
0.135815
0.145787
0.152938
0.157819
0.161006
0.162991
0.164152
0.164765
0.165024
0.165069
0.0877253
0.0878182
0.0881339
0.0888079
0.0900398
0.0921
0.0953435
0.100197
0.107083
0.116247
0.125951
0.13378
0.139399
0.143235
0.145739
0.147296
0.148204
0.148684
0.148886
0.14892
0.0867509
0.086825
0.0870709
0.0875973
0.0885555
0.0901558
0.0926744
0.0964444
0.101804
0.108957
0.116553
0.122692
0.127101
0.13011
0.132073
0.133293
0.134006
0.13438
0.134536
0.134562
0.0842721
0.0843304
0.0845224
0.0849327
0.0856784
0.0869225
0.0888804
0.0918141
0.0959893
0.101571
0.107512
0.11232
0.115774
0.118133
0.119672
0.120628
0.121185
0.121476
0.121597
0.121617
0.080628
0.0806737
0.0808236
0.0811432
0.0817237
0.0826919
0.0842156
0.0864985
0.0897506
0.0941062
0.0987488
0.102511
0.105217
0.107063
0.108266
0.109013
0.109448
0.109676
0.10977
0.109785
0.0760784
0.0761139
0.0762307
0.0764793
0.0769311
0.0776845
0.0788702
0.0806477
0.083182
0.0865794
0.0902046
0.0931441
0.0952582
0.096702
0.0976428
0.0982257
0.0985641
0.0987409
0.0988137
0.0988252
0.0708256
0.0708531
0.0709438
0.0711372
0.0714885
0.0720744
0.0729962
0.0743788
0.0763517
0.0789985
0.081826
0.0841198
0.0857693
0.0868949
0.087629
0.0880852
0.0883501
0.0884877
0.0885441
0.0885526
0.0650251
0.0650465
0.0651169
0.065267
0.0655395
0.0659941
0.0667106
0.0677858
0.0693196
0.0713782
0.0735796
0.075366
0.0766507
0.077528
0.0780994
0.0784532
0.0786581
0.0787644
0.0788077
0.0788143
0.0588008
0.0588171
0.0588713
0.0589872
0.0591985
0.059551
0.0601055
0.0609375
0.0621265
0.0637242
0.0654326
0.0668201
0.0678193
0.0685013
0.0689442
0.0692177
0.0693758
0.0694577
0.0694906
0.0694955
0.0522463
0.0522588
0.0523006
0.0523898
0.0525519
0.052823
0.0532511
0.0538939
0.0548119
0.056046
0.057366
0.0584383
0.0592094
0.0597345
0.0600766
0.0602889
0.0604114
0.0604745
0.0604999
0.0605038
0.0454381
0.0454474
0.045479
0.0455469
0.0456705
0.0458778
0.0462053
0.0466977
0.0474013
0.0483469
0.0493586
0.0501795
0.0507696
0.0511725
0.0514348
0.0515969
0.0516906
0.0517388
0.0517579
0.0517607
0.038436
0.0384429
0.0384658
0.0385164
0.0386098
0.0387661
0.039013
0.0393844
0.0399155
0.0406303
0.0413963
0.0420191
0.0424675
0.0427734
0.0429718
0.0430934
0.0431629
0.0431984
0.0432121
0.043214
0.0312855
0.0312905
0.0313071
0.031344
0.0314122
0.0315279
0.031711
0.0319863
0.0323797
0.0329092
0.033476
0.0339358
0.0342656
0.0344893
0.0346341
0.0347243
0.0347763
0.0348028
0.0348134
0.0348149
0.0240246
0.0240276
0.0240385
0.0240643
0.0241134
0.0241958
0.0243253
0.0245202
0.0247998
0.025176
0.0255779
0.0259036
0.0261371
0.0262962
0.0263992
0.0264615
0.0264969
0.0265147
0.0265209
0.0265216
0.0166832
0.0166853
0.0166932
0.0167103
0.0167419
0.0167947
0.0168784
0.0170051
0.0171869
0.0174316
0.0176945
0.0179083
0.018063
0.0181678
0.0182349
0.0182753
0.0182972
0.0183069
0.0183098
0.0183104
0.00929019
0.00929149
0.00929594
0.00930525
0.00932161
0.00934979
0.00939472
0.00946241
0.00955886
0.00968817
0.00982838
0.00994165
0.010021
0.010075
0.0101105
0.0101323
0.0101446
0.0101509
0.0101535
0.0101541
0.00185931
0.00185809
0.00185668
0.00185681
0.00185909
0.00186347
0.0018704
0.00188141
0.00189798
0.00192256
0.0019524
0.0019785
0.00199809
0.00201218
0.00202117
0.00202646
0.00202963
0.00203121
0.00203099
0.00202948
-1.22399
-0.880511
-0.500027
-0.184666
0.0770327
0.293171
0.473453
0.627111
0.719687
0.686421
-0.555566
-0.332027
-0.102419
0.0978611
0.269644
0.41423
0.532605
0.620322
0.664325
0.663636
-0.13107
0.00977465
0.153565
0.282641
0.395047
0.489271
0.563158
0.614519
0.643513
0.64986
0.139084
0.22917
0.323691
0.40854
0.48134
0.541686
0.587713
0.621111
0.641953
0.649636
0.319307
0.379565
0.441201
0.496243
0.544671
0.585455
0.617947
0.640262
0.654546
0.660339
0.448994
0.48664
0.527228
0.566561
0.602773
0.633431
0.657162
0.672621
0.681619
0.687917
0.542287
0.570766
0.604517
0.637169
0.665217
0.68828
0.706516
0.719415
0.728421
0.737859
0.613591
0.640142
0.671635
0.700412
0.727582
0.752402
0.773495
0.789158
0.797717
0.809944
0.683028
0.71839
0.756177
0.792025
0.823651
0.849348
0.868883
0.882513
0.890384
0.905234
0.788772
0.831497
0.873873
0.908865
0.937665
0.961271
0.98059
0.995116
1.0047
1.02118
0.934828
0.974286
1.01182
1.0432
1.06946
1.09165
1.10985
1.12398
1.13525
1.15286
1.10836
1.14155
1.16841
1.1912
1.21087
1.22938
1.24712
1.26366
1.27887
1.29659
1.29867
1.3158
1.33098
1.34726
1.3634
1.37794
1.39101
1.40483
1.42243
1.44251
1.48031
1.49003
1.50163
1.51247
1.52178
1.53143
1.54222
1.55356
1.56478
1.5801
1.68702
1.69078
1.67611
1.66165
1.65546
1.66105
1.67955
1.70978
1.74187
1.76848
1.99424
1.85942
1.7826
1.73976
1.72224
1.72642
1.75361
1.81006
1.9129
2.13733
0.476378
0.474672
0.47098
0.463442
0.452274
0.441202
0.431927
0.424797
0.419678
0.416588
0.416015
0.418313
0.422662
0.428952
0.437269
0.447637
0.459111
0.469055
0.474053
0.476534
0.399812
0.405788
0.413653
0.419229
0.422674
0.423358
0.421658
0.418736
0.415805
0.413795
0.413497
0.415056
0.417899
0.421144
0.423742
0.424437
0.422401
0.41781
0.411277
0.40346
0.397117
0.398965
0.403456
0.407522
0.410135
0.411469
0.411953
0.411568
0.410605
0.409708
0.409626
0.410575
0.411885
0.412832
0.412938
0.41214
0.410279
0.407018
0.402479
0.399017
0.399585
0.399906
0.401145
0.402867
0.404497
0.405985
0.406914
0.407195
0.407064
0.40686
0.406968
0.40753
0.40806
0.408241
0.407821
0.406678
0.405188
0.403551
0.402001
0.401222
0.397123
0.397222
0.397618
0.398226
0.398865
0.399502
0.400079
0.400522
0.400779
0.400918
0.401167
0.401539
0.401781
0.401727
0.401412
0.400925
0.400364
0.399781
0.39927
0.399047
0.393785
0.393841
0.394048
0.394405
0.394861
0.395375
0.395889
0.396346
0.396723
0.397059
0.39742
0.397737
0.397893
0.39784
0.397599
0.397242
0.396854
0.3965
0.396235
0.396121
0.389566
0.389593
0.38969
0.389862
0.390098
0.390403
0.39077
0.391181
0.391614
0.392064
0.392523
0.392895
0.393087
0.393116
0.393034
0.392899
0.392756
0.392626
0.392528
0.392483
0.385066
0.385082
0.38515
0.385271
0.385447
0.385688
0.386001
0.386391
0.38686
0.387403
0.387981
0.388454
0.388743
0.38888
0.388915
0.388893
0.388844
0.38879
0.388744
0.38872
0.38034
0.380347
0.380394
0.380486
0.380629
0.38084
0.381137
0.381538
0.382076
0.382717
0.38344
0.384059
0.384476
0.384726
0.384864
0.384929
0.384952
0.384953
0.384944
0.384935
0.375402
0.375408
0.375448
0.375531
0.375667
0.37588
0.376194
0.376641
0.377252
0.378042
0.378953
0.379762
0.380323
0.380704
0.38094
0.38108
0.381157
0.381194
0.381209
0.381209
0.370242
0.370244
0.370287
0.370375
0.370524
0.370761
0.371121
0.371647
0.372382
0.373358
0.374509
0.375548
0.376302
0.376818
0.377156
0.377368
0.377495
0.377565
0.377598
0.377605
0.364843
0.364843
0.36489
0.36499
0.365164
0.365445
0.365879
0.36652
0.367428
0.368649
0.370107
0.371439
0.372421
0.3731
0.373553
0.373842
0.374019
0.37412
0.374171
0.374184
0.359142
0.359142
0.359197
0.359318
0.359531
0.359877
0.360415
0.361215
0.362353
0.363894
0.365745
0.367445
0.368702
0.369581
0.370171
0.370551
0.370785
0.370921
0.37099
0.371009
0.353069
0.353068
0.353137
0.353288
0.353555
0.353991
0.354669
0.35568
0.357122
0.359076
0.361427
0.363591
0.365192
0.366316
0.367071
0.36756
0.367863
0.368039
0.368129
0.368154
0.346525
0.346523
0.34661
0.346803
0.347143
0.347698
0.348562
0.34985
0.351686
0.354173
0.357161
0.359909
0.361942
0.363369
0.364329
0.364951
0.365336
0.365561
0.365677
0.36571
0.339376
0.339373
0.339486
0.339734
0.340171
0.340885
0.341994
0.343644
0.345991
0.349162
0.35296
0.356444
0.359018
0.360822
0.362037
0.362824
0.363311
0.363596
0.363743
0.363784
0.331444
0.33144
0.331588
0.33191
0.332477
0.333401
0.334834
0.336958
0.339969
0.344018
0.348845
0.353254
0.356502
0.358778
0.360308
0.361299
0.361914
0.362273
0.362458
0.362509
0.32249
0.322486
0.322681
0.323105
0.323847
0.325053
0.326914
0.329663
0.333538
0.338714
0.344843
0.350412
0.354503
0.357363
0.359287
0.360531
0.361303
0.361753
0.361985
0.36205
0.312191
0.312187
0.312448
0.313012
0.313994
0.315583
0.318021
0.321598
0.326602
0.333225
0.340997
0.34801
0.353145
0.356733
0.359144
0.360705
0.361672
0.362237
0.362527
0.362608
0.300094
0.300093
0.30045
0.301215
0.302534
0.304652
0.307879
0.312568
0.319053
0.327531
0.337361
0.346161
0.352582
0.357067
0.360085
0.362041
0.363255
0.363964
0.364329
0.364429
0.285553
0.285559
0.286064
0.287128
0.288936
0.29181
0.296138
0.302342
0.310785
0.321633
0.334015
0.344996
0.352989
0.35858
0.362354
0.364808
0.366336
0.367232
0.367694
0.36782
0.267591
0.267615
0.268369
0.269908
0.27246
0.276453
0.282367
0.290671
0.301709
0.315559
0.331059
0.344658
0.354545
0.361495
0.36622
0.369316
0.371257
0.372404
0.373002
0.373166
0.244662
0.244742
0.245962
0.248303
0.252055
0.257793
0.26607
0.277326
0.291794
0.30939
0.328613
0.345281
0.357412
0.36602
0.371955
0.375904
0.378419
0.379935
0.380748
0.380979
0.214205
0.214473
0.216652
0.220456
0.226307
0.234938
0.246832
0.262231
0.281147
0.303289
0.326815
0.346967
0.361683
0.372285
0.37977
0.384898
0.388274
0.390388
0.39158
0.391944
0.171499
0.172321
0.176831
0.183747
0.193696
0.207322
0.224695
0.245723
0.270168
0.297575
0.325849
0.349778
0.367348
0.380263
0.389693
0.396463
0.401194
0.404375
0.406336
0.406947
0.107907
0.110536
0.121354
0.135591
0.15365
0.175395
0.20046
0.228602
0.259483
0.292632
0.325842
0.35363
0.374167
0.3896
0.401306
0.41021
0.416963
0.422085
0.425679
0.426396
0.0294243
0.0358989
0.0564917
0.0828194
0.111481
0.142489
0.175812
0.211349
0.248849
0.288015
0.326646
0.359011
0.383372
0.402276
0.417277
0.429388
0.439315
0.447595
0.453172
0.45531
-0.0489065
-0.0339848
-0.00254624
0.0339531
0.0721667
0.111923
0.153111
0.195618
0.239318
0.284075
0.327752
0.364309
0.392003
0.413758
0.431308
0.445711
0.457614
0.467501
0.474846
0.478762
-0.0997126
-0.0840279
-0.0479191
-0.00542644
0.0393834
0.0857322
0.133235
0.181582
0.230518
0.279893
0.327527
0.367145
0.397063
0.420433
0.43908
0.454136
0.466347
0.476282
0.483625
0.487426
-0.136496
-0.120561
-0.0812434
-0.0351232
0.0137275
0.0645413
0.116658
0.169476
0.222509
0.275508
0.32616
0.367983
0.399335
0.423603
0.442765
0.45808
0.470382
0.480283
0.487667
0.491535
-0.163231
-0.147361
-0.106684
-0.0580811
-0.00624513
0.0478433
0.103388
0.159566
0.215641
0.271218
0.323907
0.367183
0.399479
0.424325
0.443792
0.459221
0.471526
0.481354
0.488769
0.492682
-0.184463
-0.168562
-0.12658
-0.0762112
-0.0221808
0.0344403
0.092627
0.151306
0.209529
0.266773
0.320696
0.364916
0.397912
0.42324
0.44299
0.458546
0.470878
0.480667
0.488119
0.492065
-0.201873
-0.18576
-0.142587
-0.0906872
-0.0348902
0.0237012
0.0839172
0.144434
0.204063
0.262157
0.316568
0.361325
0.394948
0.420831
0.440968
0.456753
0.469193
0.479008
0.486491
0.490479
-0.216409
-0.200016
-0.155749
-0.102496
-0.0451577
0.0150997
0.0769209
0.138758
0.199134
0.257294
0.311456
0.356424
0.390735
0.417395
0.438166
0.454377
0.467066
0.477006
0.484549
0.488632
-0.228785
-0.212133
-0.166734
-0.112264
-0.0535146
0.0081866
0.0713412
0.134104
0.194673
0.252137
0.305262
0.350098
0.385273
0.41311
0.434918
0.451869
0.465016
0.475202
0.482869
0.487031
-0.239621
-0.222564
-0.176151
-0.120435
-0.0603688
0.00267242
0.0669791
0.130385
0.190669
0.246666
0.297833
0.34212
0.378425
0.408044
0.431495
0.449658
0.463586
0.474221
0.482128
0.486445
-0.249287
-0.231804
-0.184332
-0.127376
-0.0660309
-0.00169632
0.0636713
0.12753
0.187149
0.240901
0.289025
0.332142
0.369903
0.402138
0.428115
0.448189
0.463373
0.474734
0.483017
0.487494
-0.258149
-0.240122
-0.191606
-0.13343
-0.0707627
-0.00512607
0.0612911
0.125526
0.18418
0.234941
0.278685
0.319696
0.359225
0.395202
0.424935
0.447923
0.465034
0.477539
0.486411
0.491159
-0.266352
-0.247932
-0.198213
-0.13881
-0.0747933
-0.00780428
0.0597198
0.124344
0.181871
0.228923
0.266742
0.304237
0.345711
0.386862
0.422064
0.449354
0.46933
0.483533
0.493289
0.498423
-0.274219
-0.255227
-0.204379
-0.143698
-0.078287
-0.00989312
0.0588295
0.123951
0.180321
0.223081
0.253169
0.285139
0.328442
0.37653
0.419518
0.452974
0.477103
0.493801
0.504839
0.510421
-0.281823
-0.262277
-0.210266
-0.148264
-0.0814094
-0.0115268
0.0585115
0.124302
0.179645
0.217707
0.238105
0.261748
0.306215
0.363439
0.417188
0.459381
0.489319
0.509469
0.522323
0.528397
-0.28947
-0.269239
-0.216017
-0.152661
-0.0843147
-0.0128558
0.0586525
0.125342
0.179905
0.213113
0.221822
0.233436
0.277565
0.346467
0.414828
0.468934
0.506835
0.531565
0.546688
0.553642
-0.296973
-0.276186
-0.221721
-0.15697
-0.0871036
-0.0140077
0.059114
0.126977
0.181142
0.209602
0.204768
0.199638
0.24053
0.323932
0.411842
0.48214
0.530976
0.561683
0.579688
0.587447
-0.304635
-0.283197
-0.227452
-0.161288
-0.0898766
-0.0150968
0.0597677
0.129099
0.183362
0.207465
0.187566
0.159621
0.193516
0.293303
0.407438
0.499639
0.562704
0.601336
0.622048
0.629658
-0.312398
-0.290277
-0.233237
-0.165644
-0.0926937
-0.0162114
0.06051
0.131574
0.186506
0.206952
0.170963
0.113
0.132473
0.251524
0.401513
0.522395
0.602259
0.650794
0.674047
0.677536
-0.32036
-0.297522
-0.239061
-0.170039
-0.0956077
-0.0174336
0.0612323
0.134281
0.190452
0.208233
0.155756
0.0597302
0.0535409
0.194305
0.391177
0.548945
0.648313
0.709538
0.741326
0.732951
-0.328492
-0.304898
-0.244885
-0.1745
-0.0987001
-0.0188252
0.0618782
0.137178
0.195271
0.211551
0.142113
-0.00361873
-0.0571746
0.10652
0.375191
0.581584
0.697355
0.76166
0.805712
0.815187
-0.336746
-0.312394
-0.250581
-0.179028
-0.10203
-0.0204918
0.0623373
0.140092
0.20082
0.217118
0.131252
-0.0777643
-0.217042
-0.0328382
0.351522
0.596407