/*--------------------------------*- C++ -*----------------------------------*\
| =========                 |                                                 |
| \\      /  F ield         | OpenFOAM: The Open Source CFD Toolbox           |
|  \\    /   O peration     | Version:  2112                                  |
|   \\  /    A nd           | Website:  www.openfoam.com                      |
|    \\/     M anipulation  |                                                 |
\*---------------------------------------------------------------------------*/
FoamFile
{
    version     2.0;
    format      ascii;
    arch        "LSB;label=32;scalar=64";
    class       surfaceScalarField;
    location    "4.5";
    object      phi;
}
// * * * * * * * * * * * * * * * * * * * * * * * * * * * * * * * * * * * * * //

dimensions      [0 3 -1 0 0 0 0];

oriented        oriented;

internalField   nonuniform List<scalar> 
17370
(
-0.0915862
0.096218
0.284379
-0.0777644
0.0593801
0.36516
-0.042868
0.0315365
0.4275
-0.0223354
0.0163172
0.50527
-0.011667
0.00866495
0.602404
-0.00626776
0.00468071
0.720645
-0.00342169
0.0026079
0.86372
-0.00194324
0.00146183
1.03593
-0.000996979
0.000600831
1.2429
-0.000239981
-1.56937e-05
1.49145
0.000293843
-0.000675164
1.49157
0.00105906
-0.00150557
1.24314
0.00197417
-0.00262535
1.03629
0.00342714
-0.00467954
0.864159
0.00626715
-0.00866762
0.721458
0.0116747
-0.016331
0.603871
0.022353
-0.0315556
0.508642
0.0428843
-0.059391
0.432675
0.0777711
-0.0962202
0.365225
0.0915914
0.197419
-0.127869
0.0904655
0.0374039
-0.365138
0.355442
-0.0679162
0.077612
-0.447618
0.45531
-0.0750449
0.0673526
-0.521015
0.529346
-0.0591351
0.0508038
-0.61259
0.620062
-0.0433928
0.0359213
-0.72681
0.732458
-0.0298159
0.0241678
-0.867272
0.871232
-0.0198236
0.0158638
-1.03813
1.04093
-0.012788
0.00999189
-1.24425
1.24642
-0.00774944
0.0055849
-1.49241
1.49441
-0.00373404
0.00173326
-1.49236
1.49429
0.000214821
-0.00214059
-1.24369
1.24553
0.00412013
-0.00596345
-1.03723
1.03944
0.00811533
-0.0103272
-0.865874
0.868905
0.0130886
-0.01612
-0.724387
0.728699
0.0200387
-0.02435
-0.608743
0.614836
0.0299777
-0.0360715
-0.51487
0.522266
0.0435267
-0.0509227
-0.440374
0.448575
0.0592414
-0.067443
-0.375649
0.378206
0.0751086
-0.0776652
-0.257527
0.226992
0.0679534
-0.0374181
-0.0735961
0.0669998
0.00659632
-0.0362455
0.0424186
-0.375275
0.369101
-0.0439205
0.0430612
-0.453065
0.453924
-0.0407062
0.0383416
-0.526648
0.529012
-0.0355687
0.0328854
-0.619432
0.622115
-0.0296326
0.0263865
-0.733092
0.736338
-0.0226214
0.0191754
-0.872574
0.87602
-0.0154648
0.0122379
-1.04244
1.04566
-0.00882601
0.00581335
-1.24807
1.25109
-0.00259891
-0.000304625
-1.49669
1.4996
0.00323167
-0.00643126
-1.49697
1.50016
0.00941092
-0.0127642
-1.24927
1.25262
0.0159576
-0.0196254
-1.04442
1.04808
0.0230505
-0.0267753
-0.875511
0.879236
0.0299879
-0.0331896
-0.737446
0.740648
0.035827
-0.0385544
-0.624786
0.627513
0.0408809
-0.0432026
-0.5342
0.536521
0.0440375
-0.0425159
-0.457581
0.456059
0.0363181
-0.0218341
-0.340566
0.326082
0.00661111
-0.0735487
0.0669375
-0.064999
0.0649049
9.41293e-05
-0.00931409
0.0157369
-0.361943
0.35552
-0.0218911
0.0263107
-0.451374
0.446954
-0.029365
0.0307032
-0.529358
0.52802
-0.030769
0.0298368
-0.623744
0.624677
-0.0281286
0.0261205
-0.738897
0.740905
-0.0235064
0.0207853
-0.879097
0.881818
-0.0175185
0.014338
-1.04892
1.0521
-0.0106788
0.00718973
-1.25445
1.25794
-0.0031779
-0.000738149
-1.50321
1.50712
0.00463968
-0.00859607
-1.50393
1.50789
0.0120136
-0.0155881
-1.25622
1.2598
0.0186832
-0.021836
-1.05152
1.05467
0.0244439
-0.0269356
-0.882318
0.88481
0.028833
-0.0304391
-0.742894
0.7445
0.0312972
-0.0311687
-0.628749
0.62862
0.0297732
-0.0266584
-0.535716
0.532602
0.0221815
-0.0159571
-0.451286
0.445062
0.00946463
-0.00301383
-0.315618
0.309167
0.00012188
-0.0649141
0.0647922
-0.064992
0.0648624
0.00012957
-0.00343065
0.00691921
-0.350635
0.347146
-0.0112743
0.014988
-0.442497
0.438783
-0.0182753
0.020409
-0.525893
0.52376
-0.0218323
0.0223921
-0.624552
0.623992
-0.0222437
0.0214931
-0.742297
0.743047
-0.0200509
0.0182449
-0.884225
0.886031
-0.0157882
0.0131789
-1.05515
1.05776
-0.00997477
0.00676694
-1.26141
1.26462
-0.00286719
-0.00101466
-1.51111
1.51499
0.0048583
-0.0086761
-1.51187
1.51568
0.0118476
-0.0149863
-1.26328
1.26642
0.017456
-0.0197736
-1.05758
1.0599
0.0214588
-0.0227741
-0.886835
0.88815
0.023418
-0.0234536
-0.745164
0.745199
0.022781
-0.0212091
-0.627289
0.625718
0.0189415
-0.0155157
-0.528829
0.525403
0.0116855
-0.00721299
-0.439369
0.434897
0.00362704
-0.00106885
-0.305275
0.302717
0.00015935
-0.0648551
0.0646958
-0.064744
0.064713
3.10265e-05
-0.00136893
0.00296254
-0.344738
0.343145
-0.00520741
0.00735213
-0.435878
0.433733
-0.00953694
0.0112431
-0.521782
0.520076
-0.0127203
0.0136736
-0.623143
0.622189
-0.014225
0.0142654
-0.74334
0.7433
-0.0137912
0.012909
-0.88734
0.888222
-0.0114632
0.0097401
-1.05991
1.06163
-0.00742527
0.00495583
-1.26747
1.26994
-0.00185846
-0.00129077
-1.51859
1.52174
0.00440782
-0.00742195
-1.51917
1.52218
0.00980356
-0.0120094
-1.26911
1.27131
0.013588
-0.0148297
-1.06165
1.06289
0.0155258
-0.0158011
-0.888902
0.889178
0.0155851
-0.0148504
-0.74477
0.744035
0.0137387
-0.0120971
-0.624032
0.622391
0.0102512
-0.00792652
-0.522502
0.520178
0.00566368
-0.00329632
-0.431571
0.429203
0.00159228
-0.00047255
-0.301004
0.299885
6.73899e-05
-0.0645374
0.06447
-0.0646917
0.0646574
3.42612e-05
-0.000680901
0.00138602
-0.342102
0.341397
-0.00239767
0.00341984
-0.43224
0.431218
-0.00455015
0.00552928
-0.518744
0.517765
-0.00648625
0.00719416
-0.621316
0.620609
-0.00773787
0.0079881
-0.74309
0.74284
-0.00795262
0.00760955
-0.888774
0.889117
-0.00686794
0.0058487
-1.06297
1.06399
-0.00435384
0.00266682
-1.27201
1.2737
-0.000539364
-0.00161989
-1.52437
1.52653
0.00374579
-0.00575581
-1.52468
1.52669
0.00725474
-0.00851104
-1.27302
1.27427
0.00933288
-0.00984066
-1.06371
1.06422
0.00996085
-0.00975227
-0.889133
0.888924
0.00928221
-0.00850604
-0.743211
0.742435
0.00760147
-0.00645465
-0.620972
0.619825
0.00531585
-0.00402195
-0.518426
0.517132
0.00286038
-0.00170761
-0.427566
0.426413
0.000887129
-0.000314748
-0.299117
0.298545
6.74746e-05
-0.0644172
0.0643498
-0.0646326
0.064625
7.6246e-06
-0.000306144
0.000638544
-0.340909
0.340577
-0.00111448
0.00160305
-0.43051
0.430022
-0.00215963
0.00266124
-0.517058
0.516556
-0.00317448
0.00357673
-0.620065
0.619663
-0.00391207
0.00409408
-0.742612
0.74243
-0.00412061
0.00395747
-0.889342
0.889505
-0.00354065
0.00292587
-1.06477
1.06539
-0.00198207
0.000885115
-1.27506
1.27615
0.000519917
-0.00195858
-1.5283
1.52974
0.00335454
-0.00461909
-1.52829
1.52955
0.00549375
-0.00613988
-1.27518
1.27583
0.00649403
-0.00662499
-1.0645
1.06463
0.00652276
-0.0062071
-0.888641
0.888325
0.00576769
-0.00516262
-0.741745
0.74114
0.00453043
-0.00378858
-0.618907
0.618165
0.00309462
-0.00234267
-0.516158
0.515406
0.00168954
-0.00104847
-0.425569
0.424928
0.000579284
-0.000226887
-0.2981
0.297748
5.53447e-05
-0.0642851
0.0642297
-0.064629
0.064642
-1.2973e-05
-6.68902e-05
0.000201426
-0.340358
0.340223
-0.000405744
0.000619336
-0.429692
0.429478
-0.000865043
0.00108796
-0.516212
0.51599
-0.00131728
0.00149699
-0.619381
0.619202
-0.00164277
0.00170974
-0.742304
0.742237
-0.00168626
0.00155415
-0.889641
0.889773
-0.00126279
0.000848009
-1.06588
1.0663
-0.000219661
-0.000508469
-1.27704
1.27777
0.0014426
-0.00238451
-1.5309
1.53185
0.00326776
-0.00402217
-1.53054
1.53129
0.00449967
-0.00479761
-1.27628
1.27657
0.00489517
-0.00483299
-1.06465
1.06459
0.00464105
-0.00431534
-0.887999
0.887674
0.00394028
-0.00347306
-0.740611
0.740143
0.00301746
-0.00250751
-0.617557
0.617047
0.00204712
-0.00156089
-0.514811
0.514325
0.00114495
-0.000735819
-0.424425
0.424016
0.000427229
-0.000180456
-0.297459
0.297212
4.85764e-05
-0.0641796
0.064131
-0.0646642
0.064694
-2.97538e-05
8.46949e-05
-7.27698e-05
-0.340155
0.340143
2.68505e-05
2.809e-05
-0.429352
0.429297
-9.02878e-05
0.000142146
-0.51586
0.515809
-0.000186786
0.000208642
-0.619107
0.619085
-0.000201699
0.000155964
-0.742228
0.742273
-4.80302e-05
-0.000116855
-0.889917
0.890081
0.000384085
-0.000716641
-1.06666
1.06699
0.00118325
-0.00169774
-1.27838
1.27889
0.00233561
-0.00294918
-1.53261
1.53322
0.00348916
-0.00391071
-1.53186
1.53228
0.004131
-0.00419364
-1.27674
1.27681
0.00414383
-0.0039727
-1.06447
1.0643
0.00373567
-0.00341148
-0.887351
0.887026
0.0030769
-0.0026874
-0.739723
0.739333
0.00232447
-0.00193119
-0.616607
0.616213
0.00158389
-0.00122242
-0.513913
0.513552
0.000914941
-0.000610012
-0.423669
0.423364
0.000371936
-0.000168711
-0.296993
0.296789
4.9497e-05
-0.0640826
0.0640331
-0.0647314
0.0647753
-4.39232e-05
0.000205268
-0.000266172
-0.340167
0.340228
0.000325223
-0.000381057
-0.429303
0.429359
0.000448198
-0.000518606
-0.515823
0.515893
0.000609351
-0.000708846
-0.619128
0.619227
0.000841475
-0.000989843
-0.742372
0.74252
0.00118927
-0.00141153
-0.890272
0.890495
0.00170551
-0.00202264
-1.06731
1.06763
0.00242234
-0.00282532
-1.27934
1.27974
0.00328641
-0.00368947
-1.53372
1.53412
0.00400008
-0.00418405
-1.53258
1.53276
0.00422744
-0.00416836
-1.2768
1.27674
0.00399321
-0.00373592
-1.06408
1.06382
0.00345284
-0.00310951
-0.886695
0.886352
0.00277991
-0.00241376
-0.738961
0.738595
0.0020837
-0.00173409
-0.615849
0.615499
0.00143037
-0.00111739
-0.513222
0.512909
0.000851933
-0.00058605
-0.423085
0.422819
0.00037149
-0.000177562
-0.296594
0.2964
5.51534e-05
-0.0639813
0.0639262
-0.0648275
0.0648889
-6.14509e-05
0.000325605
-0.000460179
-0.340329
0.340464
0.000605378
-0.0007448
-0.429457
0.429596
0.000910751
-0.001077
-0.516013
0.516179
0.00127733
-0.00147902
-0.619379
0.61958
0.00172255
-0.00196794
-0.742717
0.742962
0.00226411
-0.00256056
-0.890752
0.891048
0.00291348
-0.00325793
-1.06795
1.0683
0.00365151
-0.00401048
-1.28012
1.28048
0.00437732
-0.00465038
-1.53445
1.53472
0.00480705
-0.00482721
-1.53286
1.53288
0.00472457
-0.00451782
-1.27661
1.27641
0.00426702
-0.00393322
-1.06353
1.0632
0.00359739
-0.00321217
-0.885991
0.885606
0.0028566
-0.00247268
-0.738225
0.737841
0.00213362
-0.0017798
-0.615153
0.614799
0.00147547
-0.00116396
-0.512601
0.51229
0.000900076
-0.000633568
-0.422557
0.42229
0.000412721
-0.000204222
-0.296202
0.295993
6.5656e-05
-0.0638664
0.0638007
-0.0649598
0.0650408
-8.09415e-05
0.000448573
-0.000649877
-0.340631
0.340833
0.000877032
-0.00109794
-0.429776
0.429997
0.00135961
-0.00161865
-0.516391
0.51665
0.00192596
-0.00222902
-0.619832
0.620135
0.00258597
-0.0029344
-0.743258
0.743606
0.00333941
-0.00372737
-0.891388
0.891776
0.00416649
-0.00457105
-1.06867
1.06907
0.00500298
-0.00536587
-1.28083
1.2812
0.00569606
-0.00589457
-1.53495
1.53515
0.00594668
-0.00584227
-1.53283
1.53273
0.00563067
-0.00530038
-1.27613
1.2758
0.00494215
-0.00450977
-1.06282
1.06238
0.00409613
-0.00363752
-0.885188
0.884729
0.00322429
-0.00278589
-0.737434
0.736996
0.00240365
-0.0020083
-0.614429
0.614033
0.00167039
-0.00132587
-0.511966
0.511621
0.00103424
-0.000737867
-0.422012
0.421716
0.000487928
-0.000245777
-0.29577
0.295528
8.03519e-05
-0.0637282
0.0636478
-0.065133
0.0652383
-0.000105218
0.000594249
-0.00086927
-0.341069
0.341344
0.00118414
-0.00149167
-0.43026
0.430568
0.0018558
-0.00221505
-0.516958
0.517317
0.00263895
-0.00305391
-0.620492
0.620907
0.00353773
-0.00400424
-0.744011
0.744478
0.00453792
-0.00503928
-0.892218
0.892719
0.00559299
-0.00608761
-1.06952
1.07001
0.00659499
-0.0069979
-1.28157
1.28198
0.00733172
-0.00748903
-1.53533
1.53548
0.00746078
-0.00724259
-1.53256
1.53235
0.00691645
-0.00646019
-1.27541
1.27496
0.00598663
-0.00543376
-1.06189
1.06134
0.00491682
-0.00435335
-0.884222
0.883659
0.00385182
-0.00332476
-0.736517
0.73599
0.00286828
-0.00239874
-0.613605
0.613135
0.00199884
-0.00159217
-0.511249
0.510842
0.00124804
-0.000897045
-0.421395
0.421044
0.000598055
-0.000304141
-0.295262
0.294968
0.000100326
-0.0635582
0.0634579
-0.065358
0.0654942
-0.000136227
0.00077505
-0.00113819
-0.341661
0.342024
0.00155635
-0.00196529
-0.430924
0.431333
0.00244906
-0.00292542
-0.517732
0.518209
0.00348619
-0.00403334
-0.621385
0.621932
0.00466856
-0.00527753
-0.745012
0.745621
0.00596906
-0.00661255
-0.893288
0.893931
0.00731436
-0.00793119
-1.07057
1.07118
0.00854944
-0.00902392
-1.28241
1.28289
0.00939192
-0.00952952
-1.53563
1.53577
0.00943161
-0.00909816
-1.53207
1.53174
0.00864568
-0.00804017
-1.27443
1.27382
0.00742682
-0.00672136
-1.06072
1.06001
0.00606982
-0.00536566
-0.88303
0.882326
0.00474331
-0.00409211
-0.735406
0.734754
0.00353017
-0.00295339
-0.612617
0.61204
0.00246319
-0.0019652
-0.510394
0.509896
0.00154383
-0.00111342
-0.420656
0.420226
0.000745106
-0.000380575
-0.294641
0.294277
0.000126003
-0.0633455
0.0632195
-0.0656492
0.0658255
-0.000176299
0.00100496
-0.00147762
-0.342439
0.342912
0.00202285
-0.00255626
-0.4318
0.432334
0.00318721
-0.00380788
-0.518753
0.519374
0.00453745
-0.00524796
-0.622556
0.623267
0.00607087
-0.00685716
-0.746313
0.7471
0.00774641
-0.00856928
-0.894659
0.895482
0.00946045
-0.0102361
-1.07187
1.07265
0.0110033
-0.0115793
-1.28341
1.28398
0.0120066
-0.0121366
-1.5359
1.53603
0.0119672
-0.0115034
-1.53134
1.53088
0.0109009
-0.0101126
-1.27313
1.27234
0.00932396
-0.00842494
-1.05922
1.05832
0.00759949
-0.00671157
-0.881536
0.880648
0.00592934
-0.00511331
-0.734026
0.73321
0.00441058
-0.0036907
-0.611396
0.610677
0.00307948
-0.00245883
-0.509341
0.50872
0.0019336
-0.0013965
-0.419746
0.419209
0.000935833
-0.000478525
-0.293869
0.293412
0.000158496
-0.0630783
0.0629198
-0.0660263
0.0662551
-0.000228854
0.0013024
-0.00191455
-0.34345
0.344062
0.00262089
-0.00331178
-0.432941
0.433632
0.00412866
-0.00493149
-0.52008
0.520883
0.00587426
-0.00679116
-0.624074
0.624991
0.00785114
-0.00886177
-0.747992
0.749002
0.0100011
-0.0110515
-0.896412
0.897462
0.0121832
-0.0131617
-1.07352
1.0745
0.01412
-0.0148285
-1.28462
1.28533
0.0153367
-0.0154636
-1.53616
1.53628
0.0152106
-0.0145875
-1.53034
1.52972
0.0137995
-0.0127814
-1.27145
1.27043
0.011771
-0.0106253
-1.0573
1.05616
0.00957736
-0.00845332
-0.879649
0.878525
0.00746501
-0.00643559
-0.732294
0.731265
0.00555017
-0.00464379
-0.609869
0.608963
0.00387474
-0.00309435
-0.508024
0.507244
0.00243426
-0.00175911
-0.418607
0.417932
0.0011794
-0.000603214
-0.292899
0.292322
0.000199718
-0.0627418
0.0625421
-0.0665162
0.0668145
-0.000298262
0.00169118
-0.00248366
-0.344758
0.345551
0.00339759
-0.00429116
-0.434417
0.435311
0.00534708
-0.00638389
-0.521795
0.522832
0.00759993
-0.00878086
-0.626032
0.627213
0.0101436
-0.0114398
-0.750147
0.751443
0.0128971
-0.0142357
-0.898648
0.899987
0.0156714
-0.0169051
-1.0756
1.07683
0.0181028
-0.018976
-1.28612
1.28699
0.0195832
-0.0197035
-1.53641
1.53653
0.0193427
-0.0185168
-1.529
1.52817
0.0174928
-0.0161828
-1.26927
1.26796
0.0148906
-0.0134309
-1.05486
1.0534
0.0120997
-0.0106747
-0.877259
0.875834
0.00942384
-0.00812238
-0.730108
0.728806
0.00700381
-0.00585935
-0.607945
0.6068
0.00488857
-0.00390371
-0.506368
0.505383
0.00307071
-0.00221858
-0.417174
0.416322
0.00148686
-0.000759834
-0.291675
0.290948
0.000251248
-0.0623181
0.0620668
-0.0671561
0.0675474
-0.000391326
0.00220635
-0.0032348
-0.346453
0.347481
0.00441929
-0.00557662
-0.436327
0.437485
0.00694277
-0.00828255
-0.52401
0.52535
0.00985164
-0.0113728
-0.628553
0.630074
0.0131244
-0.0147862
-0.752911
0.754572
0.0166482
-0.0183514
-0.901497
0.9032
0.0201685
-0.0217192
-1.07821
1.07977
0.0232101
-0.0242804
-1.28796
1.28903
0.0249985
-0.0250974
-1.53664
1.53674
0.0245898
-0.0234997
-1.52722
1.52613
0.0221732
-0.0204915
-1.26648
1.2648
0.0188414
-0.016984
-1.05176
1.0499
0.0152941
-0.0134879
-0.87423
0.872424
0.0119043
-0.0102579
-0.727342
0.725696
0.00884359
-0.00739723
-0.605514
0.604067
0.00617087
-0.0049269
-0.504276
0.503032
0.00387472
-0.00279838
-0.415364
0.414288
0.00187426
-0.000956684
-0.290131
0.289214
0.000315788
-0.0617849
0.0614691
-0.0679983
0.0685166
-0.000518328
0.00289992
-0.0042417
-0.348654
0.349996
0.00578384
-0.00728912
-0.438802
0.440308
0.00906216
-0.010798
-0.526874
0.52861
0.0128266
-0.0147886
-0.631802
0.633764
0.0170411
-0.0191706
-0.756454
0.758584
0.0215465
-0.0237083
-0.90512
0.907282
0.0259987
-0.0279364
-1.0815
1.08344
0.0297765
-0.0310719
-1.29021
1.2915
0.0319012
-0.0319474
-1.53682
1.53686
0.0312337
-0.0297961
-1.52488
1.52344
0.0280807
-0.0259264
-1.26289
1.26074
0.023824
-0.021465
-1.0478
1.04545
0.019323
-0.0170367
-0.870391
0.868105
0.0150338
-0.0129526
-0.723844
0.721763
0.0111654
-0.0093381
-0.602441
0.600614
0.00778875
-0.00621697
-0.501634
0.500062
0.00488737
-0.00352727
-0.413078
0.411718
0.00236015
-0.00120276
-0.288183
0.287026
0.000396117
-0.0611156
0.0607195
-0.0691193
0.069815
-0.000695632
0.00385304
-0.00562056
-0.351526
0.353294
0.00764544
-0.00961647
-0.442023
0.443994
0.0119287
-0.0141851
-0.53059
0.532846
0.0168134
-0.0193473
-0.635997
0.638531
0.0222452
-0.0249724
-0.760996
0.763723
0.0279972
-0.030729
-0.909714
0.912446
0.0335965
-0.0359933
-1.0856
1.08799
0.0382317
-0.0397657
-1.29292
1.29445
0.040683
-0.0406183
-1.53686
1.5368
0.0396122
-0.0377162
-1.52179
1.5199
0.0355024
-0.0327514
-1.2583
1.25555
0.0300814
-0.0270957
-1.04279
1.0398
0.0243895
-0.0215037
-0.865534
0.862649
0.0189769
-0.0163515
-0.719423
0.716798
0.014097
-0.0117911
-0.59856
0.596254
0.00983504
-0.00784967
-0.498297
0.496311
0.00616923
-0.00444957
-0.410191
0.408471
0.00297434
-0.00151331
-0.285727
0.284266
0.00049731
-0.0602756
0.0597783
-0.0706339
0.0715922
-0.00095838
0.00522301
-0.00759219
-0.355301
0.35767
0.0102854
-0.0128862
-0.44624
0.448841
0.0159116
-0.0188486
-0.535437
0.538374
0.0222547
-0.025527
-0.641431
0.644703
0.0292528
-0.0327381
-0.766815
0.7703
0.0365718
-0.0399982
-0.915508
0.918934
0.043546
-0.0464619
-1.09064
1.09356
0.0491214
-0.0508748
-1.2961
1.29785
0.0518145
-0.05154
-1.53665
1.53637
0.0501182
-0.0476211
-1.51772
1.51522
0.044777
-0.041283
-1.25245
1.24895
0.0379132
-0.0341553
-1.03645
1.03269
0.0307543
-0.0271288
-0.859408
0.855783
0.023954
-0.0206543
-0.713848
0.710548
0.0178191
-0.0149163
-0.593662
0.590759
0.0124503
-0.00994243
-0.494083
0.491576
0.00781479
-0.0056334
-0.406546
0.404364
0.00376157
-0.00191097
-0.282627
0.280776
0.000627294
-0.0592212
0.0585939
-0.0727208
0.0741104
-0.00138964
0.00734961
-0.0106057
-0.36031
0.363566
0.014229
-0.0176632
-0.451825
0.455259
0.0216019
-0.0254075
-0.541816
0.545622
0.0298089
-0.0340294
-0.648494
0.652714
0.0388129
-0.0432508
-0.774249
0.778687
0.0480721
-0.0523135
-0.922741
0.926983
0.0566194
-0.0600723
-1.09673
1.10018
0.0631161
-0.0650084
-1.29969
1.30158
0.0658369
-0.0651965
-1.53593
1.53529
0.0631904
-0.0599166
-1.51236
1.50909
0.056289
-0.0518921
-1.24503
1.24063
0.0476792
-0.0429949
-1.02849
1.0238
0.0387589
-0.0342418
-0.851716
0.847199
0.030283
-0.0261631
-0.706832
0.702712
0.0226179
-0.0189814
-0.587485
0.583849
0.0158826
-0.0127171
-0.488763
0.485598
0.0100146
-0.00722623
-0.401941
0.399153
0.0048245
-0.00245113
-0.278712
0.276339
0.000807485
-0.0578953
0.0570878
-0.0756831
0.0778622
-0.00217913
0.0109612
-0.0155026
-0.367089
0.37163
0.0203393
-0.0247997
-0.45937
0.46383
0.0298556
-0.0347609
-0.550305
0.55521
0.0404559
-0.0459127
-0.657682
0.663138
0.0520519
-0.0576629
-0.78366
0.789271
0.0636324
-0.0687562
-0.93159
0.936714
0.07381
-0.077721
-1.10383
1.10774
0.0809993
-0.082849
-1.30344
1.30529
0.0833344
-0.0820977
-1.53437
1.53313
0.0792881
-0.0750332
-1.50534
1.50108
0.0704599
-0.0650026
-1.23571
1.23026
0.0598134
-0.0540605
-1.01858
1.01283
0.0488617
-0.0433125
-0.842135
0.836586
0.0384416
-0.0333619
-0.698039
0.69296
0.0289811
-0.0244762
-0.579693
0.575188
0.0206192
-0.016648
-0.482026
0.478055
0.0132125
-0.00960585
-0.396112
0.392505
0.0064447
-0.00329055
-0.273758
0.270603
0.00109731
-0.05622
0.0551227
-0.0801258
0.0838747
-0.00374886
0.017605
-0.0238997
-0.376638
0.382932
0.0302163
-0.0359258
-0.469818
0.475527
0.04244
-0.0488412
-0.561654
0.568055
0.0563031
-0.0633607
-0.669513
0.67657
0.0711166
-0.0779928
-0.795305
0.802181
0.0850627
-0.0909167
-0.942015
0.947869
0.0964623
-0.10054
-1.11162
1.1157
0.103691
-0.105153
-1.30689
1.30835
0.104914
-0.102752
-1.5314
1.52924
0.0988639
-0.0934013
-1.49621
1.49074
0.0877285
-0.0810822
-1.22418
1.21754
0.0748236
-0.0679155
-1.00646
0.999553
0.0616778
-0.0550124
-0.830368
0.823703
0.0491487
-0.0430156
-0.687123
0.68099
0.037709
-0.0322345
-0.569881
0.564407
0.0275175
-0.022606
-0.473437
0.468526
0.0182671
-0.0135411
-0.388654
0.383928
0.00922286
-0.00476758
-0.267433
0.262977
0.00160672
-0.0540681
0.0524614
-0.0873894
0.0947748
-0.0073854
0.0316876
-0.0405014
-0.390847
0.399661
0.0485087
-0.0557932
-0.484414
0.491699
0.0643142
-0.0726624
-0.576584
0.584932
0.0821506
-0.0907539
-0.684286
0.692889
0.0997818
-0.107418
-0.809056
0.816693
0.114934
-0.120866
-0.953494
0.959427
0.126178
-0.129766
-1.11936
1.12294
0.132112
-0.132598
-1.30921
1.3097
0.131071
-0.127533
-1.52631
1.52277
0.122221
-0.115309
-1.48449
1.47758
0.108395
-0.100478
-1.21019
1.20228
0.0931195
-0.0850616
-0.991973
0.983916
0.0778066
-0.0700542
-0.816277
0.808525
0.0632209
-0.0560528
-0.673875
0.666707
0.049824
-0.0433603
-0.557711
0.551247
0.0377473
-0.0318494
-0.462478
0.456581
0.0264778
-0.0201736
-0.37892
0.372616
0.0138944
-0.00708099
-0.258952
0.252139
0.00229597
-0.051162
0.048866
-0.102472
0.104994
-0.00252137
0.0185132
-0.0266915
-0.412204
0.420382
0.0349277
-0.0430577
-0.504
0.51213
0.0528655
-0.0628805
-0.594926
0.604941
0.073742
-0.0833797
-0.701231
0.710869
0.0940493
-0.103453
-0.82364
0.833044
0.113179
-0.121489
-0.964532
0.972842
0.129723
-0.13629
-1.12558
1.13215
0.142129
-0.145952
-1.30914
1.31296
0.148028
-0.147509
-1.51814
1.51762
0.144283
-0.138722
-1.46972
1.46416
0.13212
-0.123663
-1.19363
1.18517
0.11533
-0.105239
-0.975203
0.965112
0.0958664
-0.0854176
-0.800055
0.789606
0.0759428
-0.0657451
-0.658514
0.648316
0.0564446
-0.04685
-0.543336
0.533742
0.0386861
-0.0297946
-0.449066
0.440175
0.0218653
-0.0134088
-0.365925
0.357469
0.00653423
-0.00155336
-0.246009
0.241028
-0.000330577
-0.0466274
0.046958
-0.112052
0.10666
0.00539229
-0.00499148
-0.000509969
-0.432305
0.437806
0.00813055
-0.0154928
-0.523474
0.530836
0.0245979
-0.0331092
-0.614948
0.623459
0.0426877
-0.0513926
-0.720477
0.729182
0.0606484
-0.0690039
-0.841973
0.850328
0.0776523
-0.0847649
-0.980849
0.987962
0.0920019
-0.0974858
-1.13859
1.14407
0.102327
-0.105276
-1.31665
1.3196
0.106313
-0.105173
-1.51661
1.51547
0.10158
-0.0959634
-1.45822
1.45261
0.0894038
-0.0813143
-1.17672
1.16863
0.073562
-0.0646849
-0.955284
0.946407
0.0563747
-0.0471302
-0.77912
0.769875
0.0388687
-0.0303965
-0.637242
0.62877
0.0232117
-0.0158824
-0.522499
0.51517
0.00974511
-0.00381565
-0.428797
0.422867
-0.000792364
0.00471969
-0.346814
0.342887
-0.00639239
0.00539343
-0.233001
0.234
-0.00268239
-0.0450366
0.047719
-0.108273
0.103937
0.00433616
-0.00927508
0.00658907
-0.447152
0.449838
-0.00173802
-0.00388371
-0.540154
0.545776
0.0109051
-0.0178157
-0.632024
0.638934
0.0256145
-0.0327569
-0.73728
0.744423
0.0405684
-0.0475016
-0.857888
0.864821
0.054485
-0.0605814
-0.994813
1.00091
0.0666433
-0.0713475
-1.14916
1.15387
0.0751411
-0.0772672
-1.32206
1.32418
0.0779692
-0.0766046
-1.514
1.51264
0.073127
-0.0680089
-1.44693
1.44181
0.0622782
-0.0555885
-1.16109
1.1544
0.0490007
-0.0418723
-0.93802
0.930891
0.0353747
-0.0283302
-0.761761
0.754716
0.0223742
-0.0163077
-0.620768
0.614701
0.0114042
-0.00642517
-0.507206
0.502227
0.00268546
0.000599744
-0.41514
0.411855
-0.00300231
0.00480241
-0.336089
0.334288
-0.00507224
0.00350389
-0.228425
0.229993
-0.00169451
-0.0465208
0.0482153
-0.104956
0.101551
0.00340548
-0.00908515
0.00794349
-0.457063
0.458205
-0.00475761
0.000336184
-0.552621
0.557042
0.00532358
-0.010662
-0.645405
0.650743
0.0168582
-0.0225809
-0.751131
0.756853
0.0288374
-0.0344256
-0.871162
0.87675
0.0404239
-0.045316
-1.00649
1.01139
0.050382
-0.0538936
-1.15814
1.16165
0.0569942
-0.058666
-1.32618
1.32785
0.0589801
-0.057383
-1.51114
1.50955
0.0543811
-0.0501104
-1.43673
1.43246
0.0453614
-0.0396377
-1.14815
1.14242
0.0343953
-0.0288492
-0.924232
0.918685
0.0237285
-0.0185473
-0.748446
0.743265
0.0138775
-0.00936157
-0.608763
0.604247
0.0056911
-0.00227082
-0.496819
0.493399
-0.000207491
0.00240404
-0.406406
0.404209
-0.00394308
0.0046661
-0.329136
0.328413
-0.00466078
0.00312025
-0.225219
0.226759
-0.0014451
-0.0467856
0.0482307
-0.103126
0.100697
0.002429
-0.00726517
0.0070047
-0.464063
0.464324
-0.00444307
0.00110861
-0.562463
0.565798
0.00314124
-0.00762809
-0.655967
0.660454
0.0124908
-0.0172359
-0.762063
0.766808
0.0223222
-0.0268816
-0.881837
0.886396
0.0317204
-0.0358268
-1.01604
1.02015
0.0398431
-0.0428999
-1.16496
1.16802
0.0453644
-0.0466068
-1.32922
1.33046
0.046667
-0.0450916
-1.50799
1.50641
0.0423958
-0.0385387
-1.42797
1.42411
0.0345255
-0.0298979
-1.13717
1.13255
0.0256378
-0.0210535
-0.913411
0.908827
0.0170344
-0.0128834
-0.738342
0.734191
0.00933416
-0.0057925
-0.599868
0.596326
0.00299419
-0.000406452
-0.489283
0.486696
-0.00160763
0.00323273
-0.400168
0.398543
-0.00406639
0.00458794
-0.324356
0.323834
-0.00447847
0.00278209
-0.222631
0.224327
-0.00129637
-0.0469292
0.0482256
-0.102529
0.100508
0.00202151
-0.00592697
0.00555614
-0.46939
0.46976
-0.00375192
0.000854463
-0.569714
0.572612
0.00303611
-0.00665064
-0.664416
0.66803
0.0106158
-0.0145357
-0.770948
0.774868
0.0188286
-0.022695
-0.890589
0.894455
0.0269034
-0.0302692
-1.0239
1.02727
0.0336381
-0.0361687
-1.17071
1.17325
0.0380855
-0.038929
-1.33141
1.33225
0.0386829
-0.0373663
-1.50482
1.5035
0.0347765
-0.0314351
-1.42011
1.41677
0.0278955
-0.0238852
-1.12811
1.1241
0.0204628
-0.0164962
-0.9045
0.900533
0.0131057
-0.00977239
-0.730278
0.726945
0.00686846
-0.00397899
-0.592993
0.590104
0.00166584
0.000625569
-0.483532
0.48124
-0.00207894
0.00331888
-0.395329
0.394089
-0.00414869
0.00442364
-0.320414
0.320139
-0.0041117
0.00260997
-0.220699
0.222201
-0.00117066
-0.0470324
0.0482031
-0.102433
0.100794
0.00163953
-0.00465856
0.00428462
-0.474051
0.474425
-0.00235629
-1.25323e-05
-0.576134
0.578503
0.0034979
-0.00668971
-0.671483
0.674674
0.0104215
-0.0136823
-0.778563
0.781823
0.0173125
-0.0205887
-0.898273
0.901549
0.0244383
-0.0273038
-1.03058
1.03344
0.0300347
-0.0322104
-1.17549
1.17767
0.0340519
-0.0345465
-1.33299
1.33349
0.0341161
-0.0325864
-1.50177
1.50024
0.0302955
-0.0269068
-1.41334
1.40995
0.0238193
-0.0203646
-1.12016
1.11671
0.0172471
-0.0139684
-0.896863
0.893584
0.0110121
-0.00798529
-0.72359
0.720563
0.00572057
-0.00317205
-0.587231
0.584683
0.00107265
0.000759398
-0.478634
0.476802
-0.00214303
0.00336388
-0.391508
0.390287
-0.00396166
0.00412369
-0.317378
0.317216
-0.00375715
0.00239072
-0.219143
0.22051
-0.00108836
-0.0471288
0.0482171
-0.102767
0.101403
0.00136368
-0.00355947
0.00317273
-0.478303
0.47869
-0.00108645
-0.00127797
-0.581797
0.584161
0.00446822
-0.00731714
-0.67777
0.680619
0.0104801
-0.0136501
-0.78517
0.78834
0.0169643
-0.0203558
-0.904648
0.90804
0.0234775
-0.0260865
-1.03632
1.03893
0.0287816
-0.0305367
-1.1796
1.18135
0.031644
-0.0322105
-1.33371
1.33427
0.0315549
-0.0299176
-1.49859
1.49695
0.0274662
-0.0243759
-1.40673
1.40364
0.0214489
-0.0182362
-1.11307
1.10986
0.0154623
-0.0124916
-0.890355
0.887384
0.00986714
-0.00733151
-0.717748
0.715212
0.00505793
-0.00287148
-0.582141
0.579955
0.00111058
0.000694132
-0.474612
0.472807
-0.0020478
0.00295042
-0.388025
0.387122
-0.00355478
0.00377738
-0.314738
0.314516
-0.00347857
0.00219868
-0.21789
0.21917
-0.00101981
-0.047302
0.0483218
-0.103526
0.102297
0.00122889
-0.00238583
0.00173457
-0.482444
0.483095
0.000306918
-0.00269896
-0.587128
0.58952
0.00562408
-0.00844875
-0.683665
0.68649
0.0115637
-0.0144495
-0.791432
0.794318
0.0179365
-0.0206292
-0.910911
0.913604
0.0237039
-0.0260672
-1.04161
1.04397
0.0285036
-0.0302204
-1.18293
1.18465
0.0312578
-0.0312107
-1.33437
1.33432
0.0303312
-0.0285219
-1.49496
1.49316
0.0261526
-0.0229178
-1.40031
1.39707
0.0201062
-0.0170374
-1.10678
1.10371
0.0144837
-0.0116922
-0.884339
0.881548
0.00938837
-0.0069813
-0.71261
0.710203
0.00492005
-0.00287053
-0.577727
0.575678
0.00114212
0.000330415
-0.470821
0.469349
-0.00166969
0.00258792
-0.384941
0.384023
-0.00328802
0.00347326
-0.312321
0.312135
-0.00314613
0.00209018
-0.216761
0.217817
-0.0009096
-0.0474968
0.0484064
-0.104419
0.103517
0.000902854
-0.00137628
0.000287161
-0.486769
0.487859
0.00171021
-0.00415617
-0.591969
0.594415
0.00683831
-0.0096574
-0.689281
0.6921
0.0127424
-0.0158538
-0.797181
0.800292
0.0188671
-0.0217568
-0.916493
0.919383
0.0248067
-0.0269375
-1.04665
1.04878
0.0293104
-0.0307535
-1.186
1.18744
0.0314626
-0.0314387
-1.33436
1.33433
0.0303456
-0.0280901
-1.49099
1.48874
0.0252841
-0.0221267
-1.39377
1.39062
0.0194355
-0.0164206
-1.10052
1.0975
0.0139201
-0.0115173
-0.878815
0.876412
0.0090695
-0.00700326
-0.707721
0.705654
0.00511938
-0.00314719
-0.573806
0.571834
0.00166848
-0.000156638
-0.46736
0.465848
-0.00104948
0.00215397
-0.382274
0.38117
-0.00276212
0.00300355
-0.310126
0.309884
-0.00289166
0.00194596
-0.215779
0.216724
-0.000850468
-0.0476342
0.0484847
-0.105639
0.104921
0.000718857
-0.000549655
-0.000584337
-0.491188
0.492322
0.00318049
-0.00540353
-0.597068
0.599291
0.00831919
-0.0111351
-0.694689
0.697505
0.0142227
-0.0170957
-0.803192
0.806065
0.0203406
-0.0230148
-0.922286
0.92496
0.0260504
-0.0285527
-1.05124
1.05374
0.0304827
-0.0320132
-1.18873
1.19026
0.0327134
-0.0322413
-1.33385
1.33338
0.0307303
-0.0283404
-1.4862
1.48381
0.0251032
-0.0218319
-1.38703
1.38376
0.0188856
-0.0159993
-1.09451
1.09162
0.0137452
-0.0114291
-0.873783
0.871467
0.00932655
-0.00737706
-0.703315
0.701366
0.00564958
-0.00374702
-0.569915
0.568013
0.00224357
-0.000868663
-0.464138
0.462763
-0.000469727
0.00155485
-0.379537
0.378452
-0.00226382
0.00261751
-0.30796
0.307606
-0.00251162
0.00168445
-0.214957
0.215785
-0.000717604
-0.0478002
0.0485178
-0.107091
0.1066
0.000490701
0.0005612
-0.00190037
-0.495774
0.497113
0.00432523
-0.00680012
-0.601968
0.604443
0.00974442
-0.0125463
-0.70014
0.702942
0.015866
-0.0187381
-0.809009
0.811881
0.0219818
-0.0248747