/*--------------------------------*- C++ -*----------------------------------*\
| =========                 |                                                 |
| \\      /  F ield         | OpenFOAM: The Open Source CFD Toolbox           |
|  \\    /   O peration     | Version:  2112                                  |
|   \\  /    A nd           | Website:  www.openfoam.com                      |
|    \\/     M anipulation  |                                                 |
\*---------------------------------------------------------------------------*/
FoamFile
{
    version     2.0;
    format      ascii;
    arch        "LSB;label=32;scalar=64";
    class       volVectorField;
    location    "4.5";
    object      U;
}
// * * * * * * * * * * * * * * * * * * * * * * * * * * * * * * * * * * * * * //

dimensions      [0 1 -1 0 0 0 0];

internalField   nonuniform List<vector> 
8800
(
(0.979117 -0.0913727 0)
(1.00183 -0.0588865 0)
(0.999685 -0.0320393 0)
(1.0009 -0.0165686 0)
(1.00047 -0.00878766 0)
(1.00019 -0.00474777 0)
(1.00023 -0.00261798 0)
(1.00025 -0.00148823 0)
(1.00025 -0.000703479 0)
(1.00002 -9.69509e-05 0)
(1.00017 0.000407256 0)
(1.00026 0.00112629 0)
(1.00024 0.00200484 0)
(1.00022 0.00350019 0)
(1.00026 0.0064646 0)
(1.00075 0.0120478 0)
(1.0007 0.0230479 0)
(0.998362 0.0429255 0)
(1.00679 0.0794396 0)
(0.774934 0.0479692 0)
(0.363695 -0.0137356 0)
(1.04937 -0.068664 0)
(1.0914 -0.0619522 0)
(1.0498 -0.046888 0)
(1.02351 -0.0335829 0)
(1.00979 -0.0227603 0)
(1.00408 -0.015155 0)
(1.00154 -0.00973467 0)
(1.00069 -0.00574843 0)
(1.00079 -0.00236038 0)
(1.00097 0.00100536 0)
(1.00058 0.00433403 0)
(1.00096 0.00792474 0)
(1.00249 0.0124441 0)
(1.0064 0.0188064 0)
(1.01543 0.0279276 0)
(1.03482 0.0402602 0)
(1.06961 0.0540125 0)
(1.09766 0.0670285 0)
(0.848615 0.0532483 0)
(0.239124 -0.000605995 0)
(1.07743 -0.0354417 0)
(1.09545 -0.0379025 0)
(1.06233 -0.0340843 0)
(1.03978 -0.0295653 0)
(1.02508 -0.024126 0)
(1.01573 -0.0179228 0)
(1.01035 -0.0118395 0)
(1.00752 -0.00623966 0)
(1.00617 -0.000955021 0)
(1.0067 0.00411503 0)
(1.00862 0.00946303 0)
(1.0125 0.0152254 0)
(1.01961 0.0214081 0)
(1.0315 0.0272664 0)
(1.04952 0.0320415 0)
(1.07748 0.0361938 0)
(1.10321 0.0383521 0)
(0.960874 0.0288768 0)
(0.23894 0.000611436 0)
(0.224144 0.000297106 0)
(1.03289 -0.0112047 0)
(1.0785 -0.0213176 0)
(1.05771 -0.0262844 0)
(1.04002 -0.0263075 0)
(1.02802 -0.0235015 0)
(1.01948 -0.0191314 0)
(1.01375 -0.013724 0)
(1.01035 -0.0076792 0)
(1.00878 -0.00103733 0)
(1.00925 0.00568292 0)
(1.0116 0.0118831 0)
(1.01607 0.0174857 0)
(1.02312 0.0222346 0)
(1.03321 0.0256613 0)
(1.04773 0.0273881 0)
(1.06862 0.0248376 0)
(1.07609 0.0171833 0)
(0.898075 0.00545111 0)
(0.223806 -0.00029333 0)
(0.224658 4.94921e-06 0)
(1.00544 -0.00439658 0)
(1.05896 -0.0116114 0)
(1.05223 -0.0170055 0)
(1.0429 -0.0193293 0)
(1.03419 -0.0190486 0)
(1.02684 -0.0166236 0)
(1.02112 -0.0125303 0)
(1.01716 -0.00722865 0)
(1.01516 -0.000784431 0)
(1.01568 0.00583958 0)
(1.01852 0.0116038 0)
(1.02324 0.0161228 0)
(1.0297 0.0192226 0)
(1.03776 0.0204691 0)
(1.04682 0.019251 0)
(1.05605 0.0151766 0)
(1.05008 0.00832796 0)
(0.875988 0.00169121 0)
(0.224146 9.73518e-07 0)
(0.223916 2.24112e-05 0)
(0.991261 -0.00180094 0)
(1.04418 -0.00550984 0)
(1.043 -0.00911459 0)
(1.03853 -0.0115408 0)
(1.03358 -0.0124334 0)
(1.02874 -0.0116285 0)
(1.0244 -0.0092189 0)
(1.02104 -0.0053731 0)
(1.0194 -0.000241791 0)
(1.01974 0.00513976 0)
(1.02212 0.00946968 0)
(1.02566 0.0123591 0)
(1.03017 0.0136571 0)
(1.03504 0.0133021 0)
(1.03971 0.0113151 0)
(1.04334 0.00798554 0)
(1.03353 0.00389479 0)
(0.866023 0.000737657 0)
(0.223137 -1.23475e-05 0)
(0.223765 1.96487e-06 0)
(0.985322 -0.000860754 0)
(1.03719 -0.00253437 0)
(1.03796 -0.00440392 0)
(1.03596 -0.00598289 0)
(1.0333 -0.00687338 0)
(1.03024 -0.00679951 0)
(1.02712 -0.00555446 0)
(1.02446 -0.0030618 0)
(1.023 0.000464794 0)
(1.02315 0.00413339 0)
(1.02495 0.00686373 0)
(1.02741 0.00836764 0)
(1.03033 0.00860799 0)
(1.03308 0.0077741 0)
(1.0353 0.00614305 0)
(1.03657 0.00407899 0)
(1.02579 0.00197074 0)
(0.861623 0.000452361 0)
(0.222761 9.03031e-06 0)
(0.223609 6.01336e-06 0)
(0.982511 -0.000395086 0)
(1.03377 -0.00118156 0)
(1.03508 -0.00210215 0)
(1.03409 -0.00295101 0)
(1.03263 -0.0035021 0)
(1.03076 -0.0035395 0)
(1.02866 -0.00283921 0)
(1.0267 -0.00126468 0)
(1.02542 0.00106692 0)
(1.02536 0.00347705 0)
(1.02646 0.00507518 0)
(1.02798 0.00572823 0)
(1.02965 0.00555676 0)
(1.0311 0.00476909 0)
(1.03218 0.00362684 0)
(1.03263 0.00236731 0)
(1.02172 0.00118165 0)
(0.859069 0.000316609 0)
(0.222328 9.66741e-06 0)
(0.223635 6.34318e-06 0)
(0.98125 -0.000106827 0)
(1.03218 -0.000445515 0)
(1.0337 -0.000852281 0)
(1.03315 -0.0012318 0)
(1.03227 -0.00147126 0)
(1.03106 -0.0014288 0)
(1.02961 -0.000940854 0)
(1.02812 0.000106496 0)
(1.02697 0.00165428 0)
(1.02666 0.00317967 0)
(1.02717 0.00405872 0)
(1.028 0.00424369 0)
(1.02889 0.00390554 0)
(1.02963 0.00322996 0)
(1.03015 0.00240418 0)
(1.03024 0.00156839 0)
(1.0193 0.000812471 0)
(0.857402 0.000244458 0)
(0.221979 1.08519e-05 0)
(0.223788 1.28422e-05 0)
(0.980862 7.67801e-05 0)
(1.03158 -8.295e-07 0)
(1.03319 -0.000103671 0)
(1.03284 -0.000177244 0)
(1.03225 -0.000164311 0)
(1.0314 1.56555e-05 0)
(1.03031 0.000459749 0)
(1.0291 0.00123413 0)
(1.028 0.00228837 0)
(1.02743 0.0032204 0)
(1.02745 0.00364155 0)
(1.02776 0.00353465 0)
(1.02813 0.0031106 0)
(1.02845 0.00250661 0)
(1.02868 0.00184928 0)
(1.02859 0.0012182 0)
(1.01763 0.000659425 0)
(0.856136 0.000222045 0)
(0.221645 1.28903e-05 0)
(0.224046 1.46069e-05 0)
(0.981002 0.000204862 0)
(1.03161 0.000306539 0)
(1.03325 0.000417436 0)
(1.03298 0.000567864 0)
(1.03252 0.000787626 0)
(1.03184 0.00111789 0)
(1.03093 0.00160424 0)
(1.02982 0.00226455 0)
(1.02867 0.00302362 0)
(1.02783 0.00356182 0)
(1.02743 0.00366813 0)
(1.02734 0.0033634 0)
(1.02736 0.00285154 0)
(1.02742 0.00225548 0)
(1.02746 0.00165716 0)
(1.02727 0.00110512 0)
(1.01629 0.000622402 0)
(0.855009 0.000228911 0)
(0.221287 1.56747e-05 0)
(0.224409 2.01182e-05 0)
(0.981587 0.000341591 0)
(1.03208 0.000585004 0)
(1.03373 0.000860446 0)
(1.03349 0.00119266 0)
(1.03307 0.00159571 0)
(1.03244 0.00208524 0)
(1.03156 0.00266752 0)
(1.03043 0.00331538 0)
(1.02911 0.00391556 0)
(1.02795 0.00418496 0)
(1.02722 0.00399904 0)
(1.02677 0.00355913 0)
(1.02652 0.00295616 0)
(1.02638 0.00231262 0)
(1.0263 0.00169771 0)
(1.02604 0.00114472 0)
(1.01503 0.000664116 0)
(0.853863 0.000259807 0)
(0.220872 1.95507e-05 0)
(0.2249 2.58722e-05 0)
(0.982554 0.000476165 0)
(1.03295 0.000855835 0)
(1.03458 0.00129016 0)
(1.03433 0.001799 0)
(1.0339 0.00238967 0)
(1.03323 0.00305839 0)
(1.03228 0.00378166 0)
(1.031 0.00449066 0)
(1.02942 0.00502723 0)
(1.02789 0.0051168 0)
(1.02678 0.00474182 0)
(1.02603 0.00409963 0)
(1.02555 0.00335389 0)
(1.02525 0.00260616 0)
(1.02506 0.0019128 0)
(1.02474 0.00129895 0)
(1.01369 0.000767644 0)
(0.852575 0.000310528 0)
(0.22037 2.44372e-05 0)
(0.225539 3.33207e-05 0)
(0.983922 0.000633772 0)
(1.03422 0.00115953 0)
(1.03582 0.00176368 0)
(1.03553 0.00246604 0)
(1.03503 0.00326627 0)
(1.03426 0.00414731 0)
(1.03315 0.00505861 0)
(1.03161 0.00588987 0)
(1.02965 0.00642898 0)
(1.02767 0.00638028 0)
(1.02614 0.0058017 0)
(1.02508 0.00495157 0)
(1.02437 0.00401873 0)
(1.02391 0.00311079 0)
(1.02363 0.00228295 0)
(1.02324 0.0015565 0)
(1.01215 0.000929526 0)
(0.851041 0.000382844 0)
(0.219749 3.08792e-05 0)
(0.226369 4.2997e-05 0)
(0.985753 0.000828126 0)
(1.03593 0.00152612 0)
(1.03748 0.00232887 0)
(1.03713 0.00325754 0)
(1.03652 0.00430835 0)
(1.03559 0.0054495 0)
(1.03422 0.00660433 0)
(1.03232 0.0076165 0)
(1.02985 0.00820845 0)
(1.0273 0.00803941 0)
(1.02529 0.00723513 0)
(1.02387 0.00613286 0)
(1.02291 0.00495641 0)
(1.02228 0.00382938 0)
(1.02189 0.00281009 0)
(1.02144 0.00191917 0)
(1.01028 0.00115136 0)
(0.849155 0.000478383 0)
(0.218971 3.89021e-05 0)
(0.227443 5.56243e-05 0)
(0.988148 0.00107448 0)
(1.03818 0.00198419 0)
(1.03967 0.00303115 0)
(1.03922 0.00423952 0)
(1.03845 0.00560032 0)
(1.03728 0.00706765 0)
(1.03556 0.00853344 0)
(1.03316 0.00978861 0)
(1.03003 0.0104741 0)
(1.02677 0.0101821 0)
(1.02417 0.00911031 0)
(1.02233 0.00769278 0)
(1.02107 0.00620217 0)
(1.02025 0.00478549 0)
(1.01973 0.0035108 0)
(1.01922 0.00240032 0)
(1.00797 0.0014431 0)
(0.8468 0.000601371 0)
(0.217992 4.89506e-05 0)
(0.228835 7.23528e-05 0)
(0.991257 0.00139228 0)
(1.04111 0.00257045 0)
(1.04251 0.00392609 0)
(1.04192 0.00548709 0)
(1.04095 0.00724016 0)
(1.03945 0.00911991 0)
(1.03725 0.0109811 0)
(1.03419 0.0125487 0)
(1.0302 0.0133625 0)
(1.02604 0.0129267 0)
(1.02272 0.0115232 0)
(1.02036 0.00970634 0)
(1.01875 0.00781374 0)
(1.01769 0.00602405 0)
(1.01703 0.00441767 0)
(1.01643 0.00302031 0)
(1.00508 0.00181717 0)
(0.843838 0.000758118 0)
(0.21676 6.16036e-05 0)
(0.230645 9.46323e-05 0)
(0.99528 0.0018069 0)
(1.04489 0.00333053 0)
(1.04618 0.00508334 0)
(1.04541 0.00709691 0)
(1.04414 0.00934983 0)
(1.04221 0.0117537 0)
(1.03938 0.0141144 0)
(1.03546 0.0160735 0)
(1.03036 0.0170445 0)
(1.02507 0.0164235 0)
(1.02085 0.0145988 0)
(1.01785 0.0122741 0)
(1.0158 0.00986918 0)
(1.01447 0.00760362 0)
(1.01363 0.00557436 0)
(1.01291 0.00381057 0)
(1.00143 0.00229224 0)
(0.840103 0.000955353 0)
(0.215208 7.73478e-05 0)
(0.233012 0.000124804 0)
(1.00049 0.00235524 0)
(1.04979 0.00432879 0)
(1.05091 0.00659748 0)
(1.0499 0.00919517 0)
(1.04824 0.0120908 0)
(1.04572 0.0151617 0)
(1.04206 0.0181493 0)
(1.03702 0.020588 0)
(1.03051 0.0217353 0)
(1.02379 0.0208623 0)
(1.01845 0.0184961 0)
(1.01466 0.0155267 0)
(1.01207 0.0124729 0)
(1.01038 0.00960405 0)
(1.00932 0.00703831 0)
(1.00847 0.00480965 0)
(0.99682 0.00289205 0)
(0.835388 0.00120379 0)
(0.213256 9.68929e-05 0)
(0.236134 0.00016648 0)
(1.00726 0.00309159 0)
(1.05613 0.00565972 0)
(1.05703 0.00860536 0)
(1.05568 0.0119634 0)
(1.05349 0.0156857 0)
(1.05018 0.0196033 0)
(1.04541 0.023369 0)
(1.03891 0.0263795 0)
(1.0306 0.0277032 0)
(1.0221 0.0264768 0)
(1.01538 0.0234137 0)
(1.0106 0.019628 0)
(1.00735 0.0157565 0)
(1.00522 0.0121279 0)
(1.00388 0.00888549 0)
(1.00286 0.00606993 0)
(0.990999 0.00364666 0)
(0.82944 0.00151464 0)
(0.210807 0.000121151 0)
(0.240298 0.000225604 0)
(1.01608 0.00410144 0)
(1.06436 0.00747249 0)
(1.06495 0.0113145 0)
(1.06312 0.0156634 0)
(1.06019 0.0204509 0)
(1.0558 0.0254367 0)
(1.04955 0.030151 0)
(1.04115 0.0338148 0)
(1.03057 0.0352772 0)
(1.01985 0.0335484 0)
(1.01143 0.0295902 0)
(1.00545 0.02478 0)
(1.00137 0.0198871 0)
(0.998693 0.0153088 0)
(0.997015 0.0112184 0)
(0.995781 0.00766428 0)
(0.983653 0.00460167 0)
(0.82194 0.00190723 0)
(0.207733 0.000151584 0)
(0.245963 0.000315884 0)
(1.02762 0.00555053 0)
(1.07506 0.0100324 0)
(1.0752 0.0150587 0)
(1.07268 0.0206926 0)
(1.06869 0.0268451 0)
(1.06278 0.0331633 0)
(1.05455 0.0389983 0)
(1.04369 0.0433552 0)
(1.03026 0.0448499 0)
(1.01686 0.0424065 0)
(1.00638 0.0373115 0)
(0.998923 0.0312335 0)
(0.99382 0.0250813 0)
(0.990462 0.0193285 0)
(0.988353 0.0141848 0)
(0.986855 0.00970499 0)
(0.97439 0.00582836 0)
(0.812474 0.00240983 0)
(0.203869 0.000190927 0)
(0.253918 0.000471191 0)
(1.04286 0.00779032 0)
(1.08913 0.013815 0)
(1.08861 0.0203557 0)
(1.085 0.0276331 0)
(1.07938 0.0355308 0)
(1.07131 0.0434767 0)
(1.06036 0.0505638 0)
(1.04635 0.0555583 0)
(1.02943 0.056868 0)
(1.01283 0.0534174 0)
(0.999915 0.0469049 0)
(0.990695 0.0392974 0)
(0.984328 0.0316296 0)
(0.980102 0.024454 0)
(0.97744 0.0180233 0)
(0.975613 0.0123961 0)
(0.962716 0.00747529 0)
(0.800488 0.00309003 0)
(0.198974 0.000247174 0)
(0.265628 0.000764261 0)
(1.06353 0.0115311 0)
(1.10825 0.0195578 0)
(1.10654 0.0279419 0)
(1.10102 0.0373613 0)
(1.09281 0.0474998 0)
(1.08154 0.0573441 0)
(1.06691 0.0656755 0)
(1.04888 0.0710652 0)
(1.02779 0.0718093 0)
(1.00749 0.0669703 0)
(0.991766 0.0587394 0)
(0.980456 0.0493551 0)
(0.97252 0.0399344 0)
(0.967152 0.0310998 0)
(0.963718 0.0231508 0)
(0.961418 0.0161523 0)
(0.947958 0.00990662 0)
(0.785197 0.00414067 0)
(0.192663 0.000341923 0)
(0.283711 0.00133525 0)
(1.09282 0.018199 0)
(1.13514 0.0286137 0)
(1.13089 0.039396 0)
(1.12191 0.0517646 0)
(1.10959 0.0645829 0)
(1.09372 0.0762572 0)
(1.07418 0.0854187 0)
(1.05115 0.0906101 0)
(1.02518 0.0901582 0)
(1.00071 0.0834489 0)
(0.981833 0.0732122 0)
(0.968082 0.0618772 0)
(0.958177 0.0505603 0)
(0.951222 0.0399138 0)
(0.946542 0.0302724 0)
(0.943343 0.0217147 0)
(0.929084 0.013832 0)
(0.765615 0.00597075 0)
(0.184397 0.00050857 0)
(0.311477 0.00269901 0)
(1.13531 0.0318019 0)
(1.1721 0.0449749 0)
(1.16269 0.059161 0)
(1.14802 0.0749179 0)
(1.12963 0.0898331 0)
(1.1075 0.102259 0)
(1.0818 0.111043 0)
(1.05294 0.114893 0)
(1.02153 0.112296 0)
(0.992551 0.103113 0)
(0.97023 0.0906101 0)
(0.953698 0.0772655 0)
(0.941381 0.0640923 0)
(0.932227 0.0516758 0)
(0.925506 0.0403453 0)
(0.92045 0.0301314 0)
(0.904956 0.0203772 0)
(0.740599 0.00888548 0)
(0.174294 0.000715534 0)
(0.353464 0.0120449 9.24536e-21)
(1.19113 0.0609588 9.69576e-21)
(1.21765 0.0771967 -3.97267e-21)
(1.19922 0.094238 0)
(1.17624 0.111042 -1.39091e-34)
(1.14996 0.125593 2.1132e-21)
(1.12046 0.136792 -4.28977e-21)
(1.08797 0.143664 0)
(1.05284 0.145045 9.87764e-35)
(1.0156 0.139571 -6.29052e-21)
(0.98171 0.127598 0)
(0.955485 0.112848 -7.91074e-21)
(0.935597 0.0977421 -2.36271e-20)
(0.920158 0.0831469 -1.12716e-20)
(0.907882 0.0695735 -3.45287e-21)
(0.897931 0.0574249 -2.07305e-21)
(0.889447 0.0466487 0)
(0.871593 0.0366932 1.48662e-21)
(0.706888 0.023379 1.758e-21)
(0.163841 0.00503018 3.17488e-20)
(0.371899 0.0326414 -3.10557e-21)
(1.24039 0.112352 4.97905e-22)
(1.25929 0.129214 7.07099e-22)
(1.23214 0.144139 0)
(1.20075 0.158676 -5.95185e-21)
(1.16675 0.170949 -7.42079e-21)
(1.13014 0.179842 -4.06785e-21)
(1.09102 0.184273 -1.607e-20)
(1.04959 0.183135 0)
(1.00614 0.175062 2.6562e-20)
(0.966493 0.160956 2.71894e-20)
(0.935314 0.144901 8.26065e-21)
(0.911021 0.129187 3.10531e-20)
(0.891406 0.114502 4.46509e-20)
(0.875048 0.101314 0)
(0.860932 0.0900573 6.49637e-20)
(0.848149 0.0810174 9.4834e-20)
(0.826657 0.0730873 1.06097e-19)
(0.675372 0.0562027 -1.23419e-19)
(0.16164 0.0140024 -2.29283e-21)
(0.35792 0.0529513 0)
(1.27268 0.181115 -1.93144e-21)
(1.29036 0.194689 0)
(1.25691 0.204796 -3.05777e-21)
(1.21916 0.214684 0)
(1.17884 0.222713 -1.27451e-20)
(1.13609 0.227741 7.89924e-21)
(1.09105 0.228627 -3.05945e-20)
(1.04394 0.224177 -1.30956e-21)
(0.994993 0.213101 1.33625e-20)
(0.950535 0.196779 6.02565e-20)
(0.915548 0.179617 -9.59664e-23)
(0.888139 0.163795 -2.26646e-20)
(0.865952 0.149819 -4.22462e-20)
(0.847541 0.137906 5.08945e-20)
(0.831927 0.128232 -9.07609e-20)
(0.818251 0.120884 -1.22628e-20)
(0.798035 0.114653 0)
(0.659392 0.0933732 8.20268e-22)
(0.163981 0.0238191 0)
(0.345882 0.0706909 -7.95254e-20)
(1.28768 0.252135 2.81525e-20)
(1.30748 0.264451 1.00111e-20)
(1.27087 0.269836 4.35038e-22)
(1.22928 0.27463 -1.53633e-21)
(1.18476 0.277847 2.62418e-20)
(1.13759 0.278388 1.60738e-20)
(1.08803 0.275116 0)
(1.0364 0.266818 -6.27077e-20)
(0.983052 0.25235 0)
(0.934842 0.233631 -3.0856e-20)
(0.897085 0.215308 -3.98891e-20)
(0.867757 0.199252 -2.45482e-20)
(0.844319 0.185579 -3.06352e-20)
(0.825204 0.174246 0)
(0.809342 0.165263 0)
(0.795736 0.158586 -8.00888e-20)
(0.776055 0.152549 1.59068e-20)
(0.64415 0.12571 -9.47548e-21)
(0.162681 0.0323505 -1.10629e-20)
(0.337801 0.0871293 6.3909e-20)
(1.29193 0.321713 0)
(1.31399 0.33365 -3.23002e-20)
(1.27588 0.334741 -1.34866e-21)
(1.23216 0.335053 6.84712e-21)
(1.18495 0.333744 0)
(1.13457 0.329842 1.42909e-20)
(1.0815 0.322265 3.27418e-20)
(1.02629 0.309916 3.09547e-20)
(0.969478 0.291783 6.23474e-20)
(0.918498 0.270382 0)
(0.878924 0.25061 -8.466e-20)
(0.848494 0.233927 -5.19913e-20)
(0.824454 0.220105 -3.07634e-20)
(0.805099 0.20887 1.95665e-19)
(0.789249 0.199966 2.36428e-20)
(0.775852 0.193357 1.13272e-19)
(0.75674 0.187019 -5.46811e-19)
(0.629958 0.155038 3.28219e-19)
(0.161005 0.0402567 -3.95862e-19)
(0.332465 0.102726 7.0314e-20)
(1.29024 0.386999 -1.11658e-20)
(1.31352 0.400013 6.59951e-21)
(1.27461 0.397773 1.20143e-20)
(1.22949 0.394166 1.71485e-22)
(1.18035 0.388787 1.60942e-21)
(1.12764 0.380736 -1.59013e-20)
(1.07193 0.368969 3.29406e-20)
(1.014 0.352522 -6.63764e-20)
(0.954598 0.330548 0)
(0.901681 0.30623 -3.7593e-20)
(0.860973 0.284732 -9.73828e-22)
(0.829952 0.267093 -5.6486e-20)
(0.805688 0.252783 0)
(0.786344 0.24127 -4.18742e-20)
(0.770658 0.232168 -1.00463e-19)
(0.757509 0.225318 2.75513e-19)
(0.738869 0.218531 -2.75658e-19)
(0.616482 0.181769 3.94665e-19)
(0.159094 0.0475552 -4.1055e-19)
(0.328278 0.11744 -6.32814e-22)
(1.28508 0.448533 1.43846e-20)
(1.30841 0.462842 3.54972e-20)
(1.26889 0.457979 -9.48616e-21)
(1.22281 0.451155 3.04161e-22)
(1.17226 0.44222 0)
(1.11773 0.430358 -1.25459e-20)
(1.05992 0.414596 -3.40023e-20)
(0.999828 0.394048 -3.36924e-20)
(0.938502 0.368091 0)
(0.884309 0.340654 -3.69734e-20)
(0.842988 0.317195 -4.73834e-20)
(0.811776 0.29838 6.01704e-20)
(0.787524 0.283357 -3.77829e-20)
(0.768341 0.27134 -1.78607e-19)
(0.752918 0.261841 1.08689e-19)
(0.74006 0.254605 3.38931e-20)
(0.72191 0.247243 0)
(0.603487 0.206129 -3.74307e-19)
(0.157084 0.0543216 -1.36421e-20)
(0.324969 0.131532 1.17496e-20)
(1.27774 0.506699 -1.67499e-20)
(1.30022 0.522235 -1.8677e-20)
(1.26011 0.515145 -2.24326e-20)
(1.21316 0.505633 7.89005e-21)
(1.16143 0.493629 1.40056e-20)
(1.10539 0.478289 2.85147e-20)
(1.04586 0.458732 -5.44027e-20)
(0.98402 0.434097 2.21378e-20)
(0.921273 0.404032 -1.46808e-19)
(0.866373 0.373296 -4.21818e-20)
(0.824905 0.347722 0)
(0.793779 0.327608 6.39146e-20)
(0.769739 0.311699 7.71929e-20)
(0.750825 0.299071 9.43143e-20)
(0.735704 0.289083 -1.1577e-19)
(0.723195 0.281379 -3.45804e-20)
(0.705557 0.273294 4.16088e-20)
(0.590857 0.228316 0)
(0.155125 0.0606394 -2.92322e-20)
(0.322344 0.145115 -1.36541e-19)
(1.26899 0.561716 7.98477e-20)
(1.29004 0.578306 1.86527e-20)
(1.24925 0.569409 -1.76705e-20)
(1.20146 0.557604 7.50341e-21)
(1.14862 0.542878 -2.74883e-21)
(1.09118 0.524389 -3.31558e-20)
(1.03011 0.501191 -1.99626e-20)
(0.966779 0.472468 -5.83594e-20)
(0.90304 0.438141 -2.2281e-22)
(0.847938 0.403939 -1.25668e-19)
(0.806732 0.376182 1.11385e-19)
(0.775929 0.354714 -6.86711e-20)
(0.752233 0.337877 8.4028e-20)
(0.733648 0.324567 0)
(0.718853 0.314015 -6.11049e-20)
(0.70669 0.305799 -1.7407e-21)
(0.689621 0.29697 -1.76353e-19)
(0.578656 0.248653 -2.64818e-20)
(0.153162 0.0665259 0)
(0.320378 0.158149 0)
(1.25937 0.613926 8.0369e-20)
(1.27865 0.631287 4.67246e-20)
(1.23702 0.620937 2.06467e-20)
(1.18837 0.607146 2.0805e-21)
(1.1344 0.590011 0)
(1.07556 0.568615 -1.26524e-20)
(1.01296 0.541888 -4.33627e-22)
(0.948329 0.509046 1.24051e-19)
(0.883899 0.470247 -1.91676e-20)
(0.829083 0.432434 -8.95648e-20)
(0.788528 0.402489 5.60074e-20)
(0.758288 0.379711 -1.07874e-21)
(0.735007 0.361975 8.66762e-20)
(0.716759 0.347955 5.60092e-20)
(0.702298 0.336792 -1.31442e-19)
(0.690497 0.32803 1.58154e-19)
(0.674001 0.318449 4.72194e-20)
(0.566728 0.267148 1.98251e-19)
(0.151113 0.0719561 -5.29458e-19)
(0.319104 0.170986 -3.44066e-20)
(1.24932 0.663386 4.771e-20)
(1.26641 0.681611 -3.22585e-20)
(1.22401 0.669937 -2.46816e-20)
(1.17441 0.654424 0)
(1.11919 0.63513 -3.29121e-21)
(1.05889 0.610999 4.85992e-20)
(0.994706 0.580871 4.37734e-20)
(0.928777 0.543839 0)
(0.863889 0.50031 -2.71706e-19)
(0.809889 0.458648 2.31804e-19)
(0.770485 0.426564 0)
(0.740989 0.402685 7.64561e-20)
(0.718105 0.384149 -1.19246e-21)
(0.700153 0.369418 -1.72582e-19)
(0.685976 0.357611 6.83278e-20)
(0.674484 0.348242 0)
(0.658585 0.337915 2.51775e-19)
(0.555089 0.284111 0)
(0.148998 0.0769967 -2.47774e-19)
(0.318493 0.183586 3.76541e-20)
(1.23931 0.710486 5.5854e-20)
(1.25376 0.729463 -3.20573e-20)
(1.21053 0.716608 0)
(1.15992 0.699617 5.71424e-21)
(1.10338 0.678378 0)
(1.0415 0.651685 -4.58969e-20)
(0.975576 0.618201 -1.91551e-20)
(0.908229 0.576871 2.12191e-20)
(0.843064 0.528248 -1.32427e-19)
(0.790429 0.482431 2.30802e-20)
(0.75275 0.448392 0)
(0.724248 0.423754 -1.56039e-19)
(0.701687 0.404655 1.40952e-21)
(0.683824 0.389255 0)
(0.669765 0.376751 2.72668e-21)
(0.658527 0.366647 2.24023e-19)
(0.643235 0.355498 -2.18007e-19)
(0.543658 0.299525 6.48841e-20)
(0.146615 0.0815294 0)
(0.31823 0.195896 0)
(1.22945 0.755264 6.17213e-20)
(1.24111 0.774976 3.90941e-20)
(1.1969 0.761141 -2.36691e-21)
(1.14517 0.742873 7.6173e-21)
(1.08723 0.719897 -1.57156e-20)
(1.02364 0.690845 1.96e-20)
(0.955797 0.654049 -2.42479e-20)
(0.886805 0.608254 9.54985e-20)
(0.821366 0.554054 -2.02525e-19)
(0.770697 0.503666 3.01262e-21)
(0.735644 0.467821 -6.35006e-20)
(0.70843 0.443005 2.46232e-19)
(0.685958 0.423813 -1.8065e-21)
(0.667791 0.407897 -1.29785e-19)
(0.653481 0.394521 -2.41012e-19)
(0.642351 0.383499 0)
(0.627645 0.371407 0)
(0.532118 0.313558 7.17631e-20)
(0.143671 0.0853931 -4.12246e-20)
(0.318629 0.208406 4.59357e-20)
(1.21968 0.798093 -1.29136e-19)
(1.22868 0.818348 -3.94804e-20)
(1.18338 0.80368 0)
(1.13041 0.784311 -4.04738e-22)
(1.07093 0.759798 -1.21211e-20)
(1.00553 0.728575 4.64162e-20)
(0.935545 0.688592 9.52657e-20)
(0.86459 0.63812 1.23862e-19)
(0.798699 0.577764 -1.60323e-19)
(0.75076 0.522101 -1.71025e-19)
(0.719495 0.484683 1.616e-19)
(0.694046 0.460657 0)
(0.671225 0.442167 -5.57107e-20)
(0.651957 0.425941 -1.41259e-19)
(0.636801 0.411521 -1.72489e-19)
(0.625439 0.399252 -2.12486e-19)
(0.61124 0.385866 6.41733e-20)
(0.519794 0.326138 -3.80326e-20)
(0.139674 0.0882817 5.17538e-22)
(0.319211 0.220834 0)
(1.21024 0.839055 0)
(1.21658 0.859704 6.37252e-22)
(1.17016 0.844365 0)
(1.11589 0.82406 -2.48508e-20)
(1.05472 0.798192 7.22852e-21)
(0.987305 0.764977 0)
(0.91497 0.722002 1.14679e-20)
(0.84168 0.666759 2.08256e-19)
(0.775029 0.599395 -3.59103e-19)
(0.730459 0.537469 0)
(0.704641 0.498629 -9.19509e-20)
(0.681822 0.476836 -3.43742e-21)
(0.657956 0.460311 -3.64529e-21)
(0.636364 0.444181 1.45961e-19)
(0.619365 0.428533 -1.03827e-21)
(0.607224 0.414553 -4.62043e-19)
(0.593219 0.399038 1.41673e-19)
(0.505653 0.336978 4.25019e-20)
(0.134012 0.0897051 0)
(0.320078 0.233058 -1.66827e-19)
(1.20123 0.878287 -7.75086e-20)
(1.20493 0.899198 -9.64988e-20)
(1.15736 0.883278 1.0057e-19)
(1.10174 0.862196 -4.46471e-20)
(1.03884 0.835163 0)
(0.969179 0.800192 3.28803e-20)
(0.894181 0.754393 -2.69628e-20)
(0.818142 0.694425 1.19489e-21)
(0.75028 0.619193 2.47727e-20)
(0.709587 0.549446 1.88878e-19)
(0.691561 0.509014 -3.00204e-20)
(0.672832 0.491639 -1.30637e-19)
(0.647013 0.479515 -6.12642e-20)
(0.62133 0.464481 8.24469e-20)
(0.600982 0.446455 -9.52054e-22)
(0.586559 0.429836 1.29105e-19)
(0.571524 0.410982 -3.09881e-19)
(0.488363 0.345363 3.76792e-19)
(0.125841 0.0892531 5.41686e-20)
(0.320834 0.244981 6.08764e-20)
(1.19267 0.915856 -4.04598e-20)
(1.1938 0.936923 4.55965e-21)
(1.14505 0.920521 5.58991e-20)
(1.08805 0.898782 1.25907e-20)
(1.02341 0.870788 -1.94878e-20)
(0.951446 0.834309 9.05597e-21)
(0.873393 0.785942 -1.17153e-19)
(0.793992 0.721286 -2.36385e-19)
(0.724251 0.637474 -2.02523e-19)
(0.68787 0.557726 0)
(0.680609 0.514964 -1.10984e-19)
(0.668103 0.504623 1.7388e-19)
(0.640458 0.500472 0)
(0.60751 0.487796 -1.73069e-19)
(0.580846 0.466872 1.14783e-19)
(0.562342 0.445056 -1.40906e-19)
(0.547605 0.421997 -1.7666e-19)
(0.467702 0.350653 -3.15335e-19)
(0.113719 0.0854185 -2.46907e-19)
(0.322137 0.256885 -6.59394e-20)
(1.18456 0.951789 4.31547e-20)
(1.18321 0.972946 8.98914e-20)
(1.13332 0.956126 7.79597e-20)
(1.07495 0.93386 -2.03759e-20)
(1.00852 0.905099 -1.37021e-20)
(0.934228 0.867395 3.40428e-20)
(0.852901 0.816798 -1.26748e-19)
(0.769339 0.747622 -1.43456e-19)
(0.696659 0.654576 2.03572e-19)
(0.664834 0.56209 3.33576e-19)
(0.672104 0.515183 0)
(0.670248 0.515594 0)
(0.639798 0.525517 -7.02613e-20)
(0.595425 0.517588 0)
(0.556059 0.496632 2.55659e-19)
(0.530814 0.464587 3.18697e-19)
(0.516084 0.434189 0)
(0.437274 0.353167 0)
(0.0954349 0.0767309 2.81962e-19)
(0.323226 0.268279 7.27229e-20)
(1.17686 0.986213 5.45558e-20)
(1.17317 1.00734 6.32317e-20)
(1.12217 0.990147 -6.74996e-20)
(1.06249 0.967459 -2.26002e-20)
(0.994323 0.938115 1.48871e-20)
(0.917633 0.899468 -5.21183e-20)
(0.832885 0.847065 -4.11515e-21)
(0.744527 0.773743 -9.22131e-22)
(0.667312 0.670833 -3.41746e-21)
(0.639707 0.562425 1.51468e-19)
(0.665476 0.507976 0)
(0.681144 0.523735 1.3177e-19)
(0.648499 0.556917 1.31644e-19)
(0.587078 0.557647 4.11059e-19)
(0.523433 0.532894 1.38111e-19)
(0.486722 0.491665 -1.88895e-19)
(0.470509 0.446428 -1.14476e-19)
(0.392718 0.347888 0)
(0.0699549 0.0607323 3.25001e-19)
(0.324843 0.279981 -1.58834e-19)
(1.16952 1.01913 0)
(1.16364 1.04011 7.01276e-20)
(1.11165 1.02258 -5.31649e-20)
(1.05073 0.999576 2.5519e-20)
(0.980878 0.96984 -1.62494e-20)
(0.901865 0.930569 1.13753e-19)
(0.813518 0.876792 -6.95191e-21)
(0.719852 0.799907 0)
(0.636248 0.686899 -2.18891e-19)
(0.611089 0.558746 -2.5519e-19)
(0.660242 0.490737 6.1893e-21)
(0.704949 0.525452 1.06231e-19)
(0.670613 0.594635 0)
(0.57444 0.620791 2.76988e-19)
(0.487521 0.588357 0)
(0.429965 0.524735 0)
(0.403907 0.444282 -1.37622e-19)
(0.332287 0.32019 0)
(0.0636773 0.0424882 9.10449e-20)
(0.326152 0.291089 -1.73198e-19)
(1.16248 1.0506 0)
(1.15458 1.07135 1.15394e-19)
(1.10171 1.05357 0)
(1.03966 1.0304 -1.37575e-20)
(0.968163 1.00048 0)
(0.88692 0.960971 5.98465e-21)
(0.794886 0.906405 2.09136e-20)
(0.695256 0.826745 1.90701e-20)
(0.603342 0.703867 -2.40911e-19)
(0.577001 0.551343 7.87144e-21)
(0.65514 0.46016 1.10324e-20)
(0.746667 0.517521 6.65462e-20)
(0.719494 0.62884 2.0953e-20)
(0.579905 0.689963 2.24202e-19)
(0.434154 0.668164 0)
(0.344286 0.590231 4.48651e-19)
(0.298297 0.455054 -2.78672e-19)
(0.17249 0.256043 3.28153e-19)
(-0.0444896 0.472101 -4.01738e-19)
(0.327685 0.302155 1.41779e-19)
(1.15553 1.08087 2.01387e-19)
(1.14585 1.10131 0)
(1.09227 1.08351 1.2192e-21)
(1.02909 1.06049 4.01092e-20)
(0.955935 1.03075 2.93657e-20)
(0.872475 0.991552 4.69787e-20)
(0.776476 0.937009 0)
(0.669835 0.855714 1.4018e-19)
(0.566503 0.723397 -1.46101e-20)
(0.533538 0.540086 0)
(0.645853 0.407694 0)
(0.816827 0.487215 -2.82052e-20)
(0.79061 0.710064 -6.95995e-20)
(0.572374 0.851188 -2.27453e-19)
(0.353233 0.820562 0)
(0.211741 0.674749 2.36101e-19)
(0.0862162 0.737442 -2.86779e-19)
(0.100436 1.96548 -1.61229e-19)
(0.12016 2.84495 -1.94772e-19)
(0.329174 0.31206 -1.04295e-19)
(1.14843 1.10991 -2.52017e-19)
(1.13742 1.12978 6.38186e-20)
(1.08339 1.11218 4.67001e-20)
(1.01911 1.08954 0)
(0.944319 1.06027 2.09136e-20)
(0.858887 1.02198 7.24275e-20)
(0.758759 0.968308 -1.17777e-20)
(0.644387 0.88671 2.1304e-20)
(0.526136 0.746497 2.38015e-19)
(0.478239 0.52666 3.14138e-20)
(0.625388 0.321503 -1.87563e-19)
(0.929747 0.398917 -1.62022e-19)
(0.960482 0.736589 -5.33622e-20)
(0.680266 0.959821 -3.4819e-19)
(0.343047 0.971268 0)
(0.149056 1.08146 0)
(0.21745 2.52057 1.22596e-19)
(0.211049 3.12092 0)
(0.197968 3.27985 2.77853e-19)
(0.334167 0.320506 0)
(1.14078 1.13743 0)
(1.12917 1.1564 0)
(1.07481 1.13934 1.42105e-20)
(1.00946 1.11728 2.97061e-20)
(0.933168 1.08885 1.71302e-20)
(0.846176 1.05216 5.17483e-20)
(0.741906 1.0004 -1.24035e-20)
(0.619226 0.919834 2.00741e-19)
(0.482295 0.775045 5.27204e-21)
(0.408079 0.514113 -2.33152e-20)
(0.578836 0.186754 4.13336e-20)
(1.05038 0.257089 -5.4681e-20)
(1.21316 0.838209 1.56674e-21)
(0.848254 1.19641 6.65379e-21)
(0.365413 1.28472 5.97794e-22)
(0.299349 2.46233 -6.00771e-19)
(0.336429 3.18263 -2.24959e-19)
(0.281601 3.32178 9.85248e-20)
(0.241796 3.35511 -9.52257e-20)
(0.214531 0.251781 6.00672e-20)
(1.13111 1.16269 0)
(1.12204 1.18162 -1.25816e-19)
(1.06705 1.16556 -1.19927e-19)
(1.00083 1.1444 7.23399e-20)
(0.923321 1.11706 -1.73217e-20)
(0.835496 1.08115 -6.10728e-20)
(0.728415 1.0321 1.62636e-19)
(0.598417 0.957384 -1.7867e-19)
(0.440462 0.819535 0)
(0.323251 0.536959 -3.79118e-20)
(0.492966 0.106239 3.13338e-19)
(1.04941 0.314885 0)
(1.35149 1.14398 -8.50071e-20)
(0.969761 1.59196 6.84222e-20)
(0.427118 2.03049 -1.18226e-19)
(0.495536 3.20855 1.22866e-19)
(0.419427 3.36267 5.19817e-20)
(0.331343 3.40576 7.01044e-20)
(0.274355 3.42548 6.1537e-20)
(0.406169 0.394321 -9.29645e-20)
(1.11227 1.17891 0)
(1.11264 1.21879 1.29474e-19)
(1.05398 1.20483 1.25445e-19)
(0.98583 1.18523 -7.66748e-20)
(0.905748 1.15963 1.45603e-20)
(0.812335 1.12606 8.02091e-20)
(0.698468 1.07993 1.36973e-20)
(0.555395 1.00905 2.06948e-19)
(0.363813 0.870156 2.82909e-19)
(0.147791 0.531474 4.27744e-21)
(0.106271 0.128482 -5.65861e-19)
(0.799964 0.876848 -1.90976e-19)
(1.25898 2.02226 1.84513e-19)
(0.914847 2.48457 8.9868e-20)
(0.688945 3.30616 -7.2716e-20)
(0.575727 3.52124 7.90589e-20)
(0.466945 3.52703 2.68391e-20)
(0.376805 3.55313 8.06951e-20)
(0.281974 3.51878 5.38058e-21)
(0.398952 0.395587 0)
(1.11323 1.20617 4.17172e-20)
(1.10599 1.24565 -2.7418e-20)
(1.04668 1.23257 -1.55896e-20)
(0.977289 1.21386 -5.11444e-20)
(0.896031 1.18946 -1.27598e-20)
(0.800451 1.15754 -5.25788e-20)
(0.683277 1.11483 1.36327e-20)
(0.532147 1.05036 -2.37052e-19)
(0.314174 0.924248 1.51987e-20)
(0.000208535 0.626734 1.23572e-20)
(-0.251895 0.467402 -1.3205e-19)
(0.288659 1.51935 2.18749e-19)
(0.982838 2.71351 1.67048e-19)
(0.787879 3.17487 8.80832e-20)
(0.692767 3.66259 3.37475e-20)
(0.561461 3.67508 -4.05369e-19)
(0.473771 3.65058 -2.55253e-19)
(0.374741 3.6692 1.92829e-19)
(0.287331 3.62791 1.12082e-19)
(0.379192 0.39201 1.13225e-19)
(1.11257 1.23779 2.8093e-19)
(1.09979 1.27554 -7.52588e-20)
(1.03926 1.26267 -5.59768e-20)
(0.968706 1.24465 0)
(0.886339 1.22128 -6.40982e-21)
(0.78908 1.19135 -7.23507e-20)
(0.669346 1.15263 1.34474e-20)
(0.511787 1.09698 -2.72359e-20)
(0.27295 0.995938 -3.65186e-19)
(-0.119701 0.793839 -6.06796e-20)
(-0.5597 0.879276 7.69399e-19)
(-0.115449 2.16686 1.78747e-18)
(0.639377 3.23368 -1.38161e-18)
(0.642887 3.72098 -8.64796e-19)
(0.63991 3.81826 0)
(0.548578 3.76932 0)
(0.481556 3.77118 1.99357e-19)
(0.378918 3.79749 0)
(0.275851 3.7483 3.22274e-19)
(0.363877 0.392427 -1.72376e-19)
(1.10958 1.27213 -2.40399e-19)
(1.0927 1.30779 0)
(1.03093 1.29459 2.97748e-21)
(0.959384 1.27691 -5.90875e-20)
(0.876097 1.25451 -1.04342e-21)
(0.777725 1.22671 -4.6481e-20)
(0.656218 1.19231 1.05252e-20)