# Field minima and maxima
# Time         	field          	min            	location(min)  	max            	location(max)  
5.00000000e-04	p              	0.00000000e+00	(-5.25000000e-04 0.00000000e+00 2.16000000e-01)	7.92711727e+00	(-5.25000000e-04 -6.81731646e-21 1.50000000e-03)
5.00000000e-04	U              	(-5.50381274e-03 -1.20005859e-01 2.47618408e-01)	(7.50000000e-05 1.50000000e-04 1.50000000e-03)	(1.80291651e-01 2.48887790e-01 3.42605653e-01)	(9.41497050e-04 2.68590784e-04 1.50000000e-03)
1.00000000e-03	p              	0.00000000e+00	(-5.25000000e-04 0.00000000e+00 2.16000000e-01)	8.06036331e+00	(-6.43409140e-04 1.20947902e-03 1.50000000e-03)
1.00000000e-03	U              	(-1.27213371e-02 -2.71010343e-02 2.86788603e-01)	(4.22323113e-04 1.39239555e-03 1.50000000e-03)	(1.66893598e-01 1.83309750e-01 8.99997085e-01)	(-3.75000000e-04 1.50000000e-04 1.50000000e-03)
1.50000000e-03	p              	0.00000000e+00	(-5.25000000e-04 0.00000000e+00 2.16000000e-01)	7.73716941e+00	(-6.35796848e-04 4.79267646e-05 1.50000000e-03)
1.50000000e-03	U              	(3.52086438e-02 -4.44832780e-02 5.32412537e-01)	(-5.25000000e-04 -6.81731646e-21 1.50000000e-03)	(3.12503250e-01 1.32904634e-01 1.66984894e+00)	(-3.00000000e-04 7.50000000e-05 1.50000000e-03)
2.00000000e-03	p              	0.00000000e+00	(-5.25000000e-04 0.00000000e+00 2.16000000e-01)	6.93929778e+00	(-6.35796848e-04 4.79267646e-05 1.50000000e-03)
2.00000000e-03	U              	(-7.48184933e-02 -2.68842594e-01 2.56337227e-01)	(-6.35796848e-04 -4.79267646e-05 1.50000000e-03)	(3.50812348e-01 1.21165350e-01 9.03625722e-01)	(-3.00000000e-04 7.50000000e-05 1.50000000e-03)
2.50000000e-03	p              	0.00000000e+00	(-5.25000000e-04 0.00000000e+00 2.16000000e-01)	6.22293080e+00	(-6.35796848e-04 4.79267646e-05 1.50000000e-03)
2.50000000e-03	U              	(-7.60069118e-02 -2.72291210e-01 1.33066754e-01)	(-6.35796848e-04 -4.79267646e-05 1.50000000e-03)	(3.62665075e-01 1.11838107e-01 4.81977413e-01)	(-3.00000000e-04 7.50000000e-05 1.50000000e-03)
3.00000000e-03	p              	0.00000000e+00	(-5.25000000e-04 0.00000000e+00 2.16000000e-01)	5.77216750e+00	(-6.35796848e-04 4.79267646e-05 1.50000000e-03)
3.00000000e-03	U              	(-7.73343413e-02 -2.69126821e-01 9.97129739e-02)	(-6.35796848e-04 -4.79267646e-05 1.50000000e-03)	(3.53868319e-01 1.21800305e-01 3.03657087e-01)	(-3.00000000e-04 7.50000000e-05 1.50000000e-03)
3.50000000e-03	p              	0.00000000e+00	(-5.25000000e-04 0.00000000e+00 2.16000000e-01)	5.60926707e+00	(-6.35796848e-04 4.79267646e-05 1.50000000e-03)
3.50000000e-03	U              	(-7.49453062e-02 -2.64831110e-01 1.13059159e-01)	(-6.35796848e-04 -4.79267646e-05 1.50000000e-03)	(3.56411463e-01 1.31279044e-01 3.25767541e-01)	(-3.00000000e-04 7.50000000e-05 1.50000000e-03)
4.00000000e-03	p              	0.00000000e+00	(-5.25000000e-04 0.00000000e+00 2.16000000e-01)	5.59791787e+00	(-6.35796848e-04 4.79267646e-05 1.50000000e-03)
4.00000000e-03	U              	(-7.27801484e-02 -2.66809879e-01 1.40393467e-01)	(-6.35796848e-04 -4.79267646e-05 1.50000000e-03)	(3.62502145e-01 1.34470148e-01 4.36326212e-01)	(-3.00000000e-04 7.50000000e-05 1.50000000e-03)
4.50000000e-03	p              	0.00000000e+00	(-5.25000000e-04 0.00000000e+00 2.16000000e-01)	5.60273989e+00	(-6.35796848e-04 4.79267646e-05 1.50000000e-03)
4.50000000e-03	U              	(-7.13328605e-02 -2.70538384e-01 1.56971135e-01)	(-6.35796848e-04 -4.79267646e-05 1.50000000e-03)	(3.64681255e-01 1.34404303e-01 5.37067028e-01)	(-3.00000000e-04 7.50000000e-05 1.50000000e-03)
5.00000000e-03	p              	0.00000000e+00	(-5.25000000e-04 0.00000000e+00 2.16000000e-01)	5.56178672e+00	(-6.35796848e-04 4.79267646e-05 1.50000000e-03)
5.00000000e-03	U              	(-7.03700299e-02 -2.74674988e-01 1.57120733e-01)	(-6.35796848e-04 -4.79267646e-05 1.50000000e-03)	(1.97577510e-01 2.84666836e-01 3.12500535e-01)	(-3.75000000e-04 1.50000000e-04 1.50000000e-03)
5.50000000e-03	p              	0.00000000e+00	(-5.25000000e-04 0.00000000e+00 2.16000000e-01)	5.47915416e+00	(-6.35796848e-04 4.79267646e-05 1.50000000e-03)
5.50000000e-03	U              	(-6.92886709e-02 -2.77885536e-01 1.46097539e-01)	(-6.35796848e-04 -4.79267646e-05 1.50000000e-03)	(1.99967625e-01 2.85414262e-01 3.12801467e-01)	(-3.75000000e-04 1.50000000e-04 1.50000000e-03)
6.00000000e-03	p              	0.00000000e+00	(-5.25000000e-04 0.00000000e+00 2.16000000e-01)	5.39311859e+00	(-6.35796848e-04 4.79267646e-05 1.50000000e-03)
6.00000000e-03	U              	(-6.79311299e-02 -2.79434884e-01 1.33613038e-01)	(-6.35796848e-04 -4.79267646e-05 1.50000000e-03)	(2.02582095e-01 2.83620768e-01 2.97370499e-01)	(-3.75000000e-04 1.50000000e-04 1.50000000e-03)
6.50000000e-03	p              	0.00000000e+00	(-5.25000000e-04 0.00000000e+00 2.16000000e-01)	5.34107882e+00	(-6.35796848e-04 4.79267646e-05 1.50000000e-03)
6.50000000e-03	U              	(-6.72424877e-02 -2.80322996e-01 1.27310235e-01)	(-6.35796848e-04 -4.79267646e-05 1.50000000e-03)	(2.04211224e-01 2.80232228e-01 2.81944498e-01)	(-3.75000000e-04 1.50000000e-04 1.50000000e-03)
7.00000000e-03	p              	0.00000000e+00	(-5.25000000e-04 0.00000000e+00 2.16000000e-01)	5.33697922e+00	(-6.35796848e-04 4.79267646e-05 1.50000000e-03)
7.00000000e-03	U              	(-6.69820206e-02 -2.80468278e-01 1.29064936e-01)	(-6.35796848e-04 -4.79267646e-05 1.50000000e-03)	(2.04817635e-01 2.77065400e-01 2.76480630e-01)	(-3.75000000e-04 1.50000000e-04 1.50000000e-03)
7.50000000e-03	p              	0.00000000e+00	(-5.25000000e-04 0.00000000e+00 2.16000000e-01)	5.36828174e+00	(-6.35796848e-04 4.79267646e-05 1.50000000e-03)
7.50000000e-03	U              	(-6.65676736e-02 -2.79280251e-01 1.36011833e-01)	(-6.35796848e-04 -4.79267646e-05 1.50000000e-03)	(2.04304926e-01 2.74010061e-01 2.81160304e-01)	(-3.75000000e-04 1.50000000e-04 1.50000000e-03)
8.00000000e-03	p              	0.00000000e+00	(-5.25000000e-04 0.00000000e+00 2.16000000e-01)	5.41207866e+00	(-6.35796848e-04 4.79267646e-05 1.50000000e-03)
8.00000000e-03	U              	(-6.56597051e-02 -2.76636494e-01 1.43938600e-01)	(-6.35796848e-04 -4.79267646e-05 1.50000000e-03)	(2.02798081e-01 2.70406593e-01 2.90716915e-01)	(-3.75000000e-04 1.50000000e-04 1.50000000e-03)
8.50000000e-03	p              	0.00000000e+00	(-5.25000000e-04 0.00000000e+00 2.16000000e-01)	5.45055787e+00	(-6.35796848e-04 4.79267646e-05 1.50000000e-03)
8.50000000e-03	U              	(-6.41252319e-02 -2.72704581e-01 1.50063492e-01)	(-6.35796848e-04 -4.79267646e-05 1.50000000e-03)	(2.00402387e-01 2.66314088e-01 3.00090667e-01)	(-3.75000000e-04 1.50000000e-04 1.50000000e-03)
9.00000000e-03	p              	0.00000000e+00	(-5.25000000e-04 0.00000000e+00 2.16000000e-01)	5.47830540e+00	(-6.35796848e-04 4.79267646e-05 1.50000000e-03)
9.00000000e-03	U              	(-6.22462302e-02 -2.67961944e-01 1.53838109e-01)	(-6.35796848e-04 -4.79267646e-05 1.50000000e-03)	(1.97276527e-01 2.61794516e-01 3.07065336e-01)	(-3.75000000e-04 1.50000000e-04 1.50000000e-03)
9.50000000e-03	p              	0.00000000e+00	(-5.25000000e-04 0.00000000e+00 2.16000000e-01)	5.50000348e+00	(-6.35796848e-04 4.79267646e-05 1.50000000e-03)
9.50000000e-03	U              	(-6.02093082e-02 -2.62763762e-01 1.56374816e-01)	(-6.35796848e-04 -4.79267646e-05 1.50000000e-03)	(1.93610078e-01 2.57040400e-01 3.12491197e-01)	(-3.75000000e-04 1.50000000e-04 1.50000000e-03)
1.00000000e-02	p              	0.00000000e+00	(-5.25000000e-04 0.00000000e+00 2.16000000e-01)	5.52385918e+00	(-6.35796848e-04 4.79267646e-05 1.50000000e-03)
1.00000000e-02	U              	(-5.82225937e-02 -2.57428088e-01 1.59384581e-01)	(-6.35796848e-04 -4.79267646e-05 1.50000000e-03)	(1.89626992e-01 2.52229336e-01 3.18799277e-01)	(-3.75000000e-04 1.50000000e-04 1.50000000e-03)
1.05000000e-02	p              	0.00000000e+00	(-5.25000000e-04 0.00000000e+00 2.16000000e-01)	5.55529119e+00	(-6.35796848e-04 4.79267646e-05 1.50000000e-03)
1.05000000e-02	U              	(-5.62872801e-02 -2.52159145e-01 1.64109176e-01)	(-6.35796848e-04 -4.79267646e-05 1.50000000e-03)	(1.85441783e-01 2.47660684e-01 3.28279419e-01)	(-3.75000000e-04 1.50000000e-04 1.50000000e-03)
1.10000000e-02	p              	0.00000000e+00	(-5.25000000e-04 0.00000000e+00 2.16000000e-01)	5.59442890e+00	(-6.35796848e-04 4.79267646e-05 1.50000000e-03)
1.10000000e-02	U              	(-5.44159742e-02 -2.46942743e-01 1.70689976e-01)	(-6.35796848e-04 -4.79267646e-05 1.50000000e-03)	(1.81125171e-01 2.43438509e-01 3.41551986e-01)	(-3.75000000e-04 1.50000000e-04 1.50000000e-03)
1.15000000e-02	p              	0.00000000e+00	(-5.25000000e-04 0.00000000e+00 2.16000000e-01)	5.63730629e+00	(-6.35796848e-04 4.79267646e-05 1.50000000e-03)
1.15000000e-02	U              	(-5.25336197e-02 -2.41786396e-01 1.78370529e-01)	(-6.35796848e-04 -4.79267646e-05 1.50000000e-03)	(1.76835778e-01 2.39674171e-01 3.57623284e-01)	(-3.75000000e-04 1.50000000e-04 1.50000000e-03)
1.20000000e-02	p              	0.00000000e+00	(-5.25000000e-04 0.00000000e+00 2.16000000e-01)	5.67919676e+00	(-6.35796848e-04 4.79267646e-05 1.50000000e-03)
1.20000000e-02	U              	(-5.06430834e-02 -2.36694012e-01 1.86166688e-01)	(-6.35796848e-04 -4.79267646e-05 1.50000000e-03)	(1.72723817e-01 2.36348874e-01 3.74518680e-01)	(-3.75000000e-04 1.50000000e-04 1.50000000e-03)
1.25000000e-02	p              	0.00000000e+00	(-5.25000000e-04 0.00000000e+00 2.16000000e-01)	5.71751718e+00	(-6.35796848e-04 4.79267646e-05 1.50000000e-03)
1.25000000e-02	U              	(-4.88174304e-02 -2.31780503e-01 1.93431718e-01)	(-6.35796848e-04 -4.79267646e-05 1.50000000e-03)	(1.69035912e-01 2.33448726e-01 3.90574096e-01)	(-3.75000000e-04 1.50000000e-04 1.50000000e-03)
1.30000000e-02	p              	0.00000000e+00	(-5.25000000e-04 0.00000000e+00 2.16000000e-01)	5.75217198e+00	(-6.35796848e-04 4.79267646e-05 1.50000000e-03)
1.30000000e-02	U              	(-4.69862414e-02 -2.26970330e-01 2.00057855e-01)	(-6.35796848e-04 -4.79267646e-05 1.50000000e-03)	(1.65649911e-01 2.30983991e-01 4.05117480e-01)	(-3.75000000e-04 1.50000000e-04 1.50000000e-03)
1.35000000e-02	p              	0.00000000e+00	(-5.25000000e-04 0.00000000e+00 2.16000000e-01)	5.78521434e+00	(-6.35796848e-04 4.79267646e-05 1.50000000e-03)
1.35000000e-02	U              	(-4.52648957e-02 -2.22324830e-01 2.06486456e-01)	(-6.35796848e-04 -4.79267646e-05 1.50000000e-03)	(1.62498775e-01 2.28846741e-01 4.18565772e-01)	(-3.75000000e-04 1.50000000e-04 1.50000000e-03)
1.40000000e-02	p              	0.00000000e+00	(-5.25000000e-04 0.00000000e+00 2.16000000e-01)	5.81890971e+00	(-6.35796848e-04 4.79267646e-05 1.50000000e-03)
1.40000000e-02	U              	(-4.36734192e-02 -2.17868961e-01 2.13217529e-01)	(-6.35796848e-04 -4.79267646e-05 1.50000000e-03)	(1.59572612e-01 2.26960916e-01 4.32036095e-01)	(-3.75000000e-04 1.50000000e-04 1.50000000e-03)
1.45000000e-02	p              	0.00000000e+00	(-5.25000000e-04 0.00000000e+00 2.16000000e-01)	5.85467131e+00	(-6.35796848e-04 4.79267646e-05 1.50000000e-03)
1.45000000e-02	U              	(-4.22061908e-02 -2.13689063e-01 2.20536760e-01)	(-6.35796848e-04 -4.79267646e-05 1.50000000e-03)	(1.57230517e-01 2.25153240e-01 4.46504366e-01)	(-3.75000000e-04 1.50000000e-04 1.50000000e-03)
1.50000000e-02	p              	0.00000000e+00	(-5.25000000e-04 0.00000000e+00 2.16000000e-01)	5.89172270e+00	(-6.35796848e-04 4.79267646e-05 1.50000000e-03)
1.50000000e-02	U              	(-4.08588423e-02 -2.09659528e-01 2.28369297e-01)	(-6.35796848e-04 -4.79267646e-05 1.50000000e-03)	(1.55046173e-01 2.23350342e-01 4.62212029e-01)	(-3.75000000e-04 1.50000000e-04 1.50000000e-03)
1.55000000e-02	p              	0.00000000e+00	(-5.25000000e-04 0.00000000e+00 2.16000000e-01)	5.92903653e+00	(-6.35796848e-04 4.79267646e-05 1.50000000e-03)
1.55000000e-02	U              	(-3.96273671e-02 -2.05769747e-01 2.36459607e-01)	(-6.35796848e-04 -4.79267646e-05 1.50000000e-03)	(1.52896813e-01 2.21322882e-01 4.78787407e-01)	(-3.75000000e-04 1.50000000e-04 1.50000000e-03)
1.60000000e-02	p              	0.00000000e+00	(-5.25000000e-04 0.00000000e+00 2.16000000e-01)	5.96548547e+00	(-6.35796848e-04 4.79267646e-05 1.50000000e-03)
1.60000000e-02	U              	(-3.84852714e-02 -2.02001197e-01 2.44526279e-01)	(-6.35796848e-04 -4.79267646e-05 1.50000000e-03)	(1.50767768e-01 2.19001160e-01 4.95759396e-01)	(-3.75000000e-04 1.50000000e-04 1.50000000e-03)
1.65000000e-02	p              	0.00000000e+00	(-5.25000000e-04 0.00000000e+00 2.16000000e-01)	6.00082563e+00	(-6.35796848e-04 4.79267646e-05 1.50000000e-03)
1.65000000e-02	U              	(-3.74575460e-02 -1.98334915e-01 2.52407000e-01)	(-6.35796848e-04 -4.79267646e-05 1.50000000e-03)	(2.81526472e-01 -2.07432817e-02 2.86590837e-01)	(-3.75000000e-04 4.86951176e-21 1.50000000e-03)
1.70000000e-02	p              	0.00000000e+00	(-5.25000000e-04 0.00000000e+00 2.16000000e-01)	6.03536510e+00	(-6.35796848e-04 4.79267646e-05 1.50000000e-03)
1.70000000e-02	U              	(-3.65423536e-02 -1.94772820e-01 2.60140741e-01)	(-6.35796848e-04 -4.79267646e-05 1.50000000e-03)	(2.76482967e-01 -1.95486655e-02 2.99132414e-01)	(-3.75000000e-04 4.86951176e-21 1.50000000e-03)
1.75000000e-02	p              	0.00000000e+00	(-5.25000000e-04 0.00000000e+00 2.16000000e-01)	6.06984307e+00	(-6.35796848e-04 4.79267646e-05 1.50000000e-03)
1.75000000e-02	U              	(-3.57186847e-02 -1.91300767e-01 2.67888064e-01)	(-6.35796848e-04 -4.79267646e-05 1.50000000e-03)	(2.71557502e-01 -1.84782116e-02 3.11600926e-01)	(-3.75000000e-04 4.86951176e-21 1.50000000e-03)
1.80000000e-02	p              	0.00000000e+00	(-5.25000000e-04 0.00000000e+00 2.16000000e-01)	6.10480733e+00	(-6.35796848e-04 4.79267646e-05 1.50000000e-03)
1.80000000e-02	U              	(-3.49458630e-02 -1.87938152e-01 2.75819251e-01)	(-6.35796848e-04 -4.79267646e-05 1.50000000e-03)	(2.66782538e-01 -1.75136984e-02 3.24231502e-01)	(-3.75000000e-04 4.86951176e-21 1.50000000e-03)
1.85000000e-02	p              	0.00000000e+00	(-5.25000000e-04 0.00000000e+00 2.16000000e-01)	6.14040605e+00	(-6.35796848e-04 4.79267646e-05 1.50000000e-03)
1.85000000e-02	U              	(-3.42282333e-02 -1.84673043e-01 2.84028160e-01)	(-6.35796848e-04 -4.79267646e-05 1.50000000e-03)	(2.62157629e-01 -1.66370812e-02 3.37114293e-01)	(-3.75000000e-04 4.86951176e-21 1.50000000e-03)
1.90000000e-02	p              	0.00000000e+00	(-5.25000000e-04 0.00000000e+00 2.16000000e-01)	6.17636380e+00	(-6.35796848e-04 4.79267646e-05 1.50000000e-03)
1.90000000e-02	U              	(-3.35463705e-02 -1.81489462e-01 2.92464194e-01)	(-6.35796848e-04 -4.79267646e-05 1.50000000e-03)	(2.57680498e-01 -1.58283093e-02 3.50180767e-01)	(-3.75000000e-04 4.86951176e-21 1.50000000e-03)
1.95000000e-02	p              	0.00000000e+00	(-5.25000000e-04 0.00000000e+00 2.16000000e-01)	6.21230317e+00	(-6.35796848e-04 4.79267646e-05 1.50000000e-03)
1.95000000e-02	U              	(-3.28861906e-02 -1.78377434e-01 3.01020470e-01)	(-6.35796848e-04 -4.79267646e-05 1.50000000e-03)	(2.53353424e-01 -1.50804736e-02 3.63263030e-01)	(-3.75000000e-04 4.86951176e-21 1.50000000e-03)
2.00000000e-02	p              	0.00000000e+00	(-5.25000000e-04 0.00000000e+00 2.16000000e-01)	6.24796634e+00	(-6.35796848e-04 4.79267646e-05 1.50000000e-03)
2.00000000e-02	U              	(-3.22334498e-02 -1.75342967e-01 3.09604133e-01)	(-6.35796848e-04 -4.79267646e-05 1.50000000e-03)	(2.49187776e-01 -1.43829312e-02 3.76206386e-01)	(-3.75000000e-04 4.86951176e-21 1.50000000e-03)
2.05000000e-02	p              	0.00000000e+00	(-5.25000000e-04 0.00000000e+00 2.16000000e-01)	6.28330245e+00	(-6.35796848e-04 4.79267646e-05 1.50000000e-03)
2.05000000e-02	U              	(-3.15879897e-02 -1.72387722e-01 3.18180680e-01)	(-6.35796848e-04 -4.79267646e-05 1.50000000e-03)	(2.45174891e-01 -1.37345582e-02 3.88938120e-01)	(-3.75000000e-04 4.86951176e-21 1.50000000e-03)
2.10000000e-02	p              	0.00000000e+00	(-5.25000000e-04 0.00000000e+00 2.16000000e-01)	6.31846335e+00	(-6.35796848e-04 4.79267646e-05 1.50000000e-03)
2.10000000e-02	U              	(-3.09632475e-02 -1.69505899e-01 3.26784677e-01)	(-6.35796848e-04 -4.79267646e-05 1.50000000e-03)	(2.41292327e-01 -1.31345052e-02 4.01481673e-01)	(-3.75000000e-04 4.86951176e-21 1.50000000e-03)
2.15000000e-02	p              	0.00000000e+00	(-5.25000000e-04 0.00000000e+00 2.16000000e-01)	6.35367363e+00	(-6.35796848e-04 4.79267646e-05 1.50000000e-03)
2.15000000e-02	U              	(-3.03534587e-02 -1.66707993e-01 3.35477020e-01)	(-6.35796848e-04 -4.79267646e-05 1.50000000e-03)	(2.37543938e-01 -1.25773197e-02 4.13929879e-01)	(-3.75000000e-04 4.86951176e-21 1.50000000e-03)
2.20000000e-02	p              	0.00000000e+00	(-5.25000000e-04 0.00000000e+00 2.16000000e-01)	6.38906887e+00	(-6.35796848e-04 4.79267646e-05 1.50000000e-03)
2.20000000e-02	U              	(-2.97485746e-02 -1.63998960e-01 3.44298849e-01)	(-6.35796848e-04 -4.79267646e-05 1.50000000e-03)	(2.33939803e-01 -1.20618632e-02 4.26348355e-01)	(-3.75000000e-04 4.86951176e-21 1.50000000e-03)
2.25000000e-02	p              	0.00000000e+00	(-5.25000000e-04 0.00000000e+00 2.16000000e-01)	6.42460793e+00	(-6.35796848e-04 4.79267646e-05 1.50000000e-03)
2.25000000e-02	U              	(-2.91458273e-02 -1.61377901e-01 3.53249890e-01)	(-6.35796848e-04 -4.79267646e-05 1.50000000e-03)	(2.30477597e-01 -1.15828278e-02 4.38736167e-01)	(-3.75000000e-04 4.86951176e-21 1.50000000e-03)
2.30000000e-02	p              	0.00000000e+00	(-5.25000000e-04 0.00000000e+00 2.16000000e-01)	6.46022975e+00	(-6.35796848e-04 4.79267646e-05 1.50000000e-03)
2.30000000e-02	U              	(-2.85821183e-02 -1.58888811e-01 3.62284516e-01)	(-6.35796848e-04 -4.79267646e-05 1.50000000e-03)	(2.27180197e-01 -1.11762809e-02 4.51030402e-01)	(-3.75000000e-04 4.86951176e-21 1.50000000e-03)
2.35000000e-02	p              	0.00000000e+00	(-5.25000000e-04 0.00000000e+00 2.16000000e-01)	6.49571866e+00	(-6.35796848e-04 4.79267646e-05 1.50000000e-03)
2.35000000e-02	U              	(-2.79783707e-02 -1.56459027e-01 3.71339558e-01)	(-6.35796848e-04 -4.79267646e-05 1.50000000e-03)	(2.23995342e-01 -1.07785501e-02 4.63172036e-01)	(-3.75000000e-04 4.86951176e-21 1.50000000e-03)
2.40000000e-02	p              	0.00000000e+00	(-5.25000000e-04 0.00000000e+00 2.16000000e-01)	6.53102907e+00	(-6.35796848e-04 4.79267646e-05 1.50000000e-03)
2.40000000e-02	U              	(-2.73780930e-02 -1.54112337e-01 3.80365098e-01)	(-6.35796848e-04 -4.79267646e-05 1.50000000e-03)	(2.20924997e-01 -1.04120424e-02 4.75048760e-01)	(-3.75000000e-04 4.86951176e-21 1.50000000e-03)
2.45000000e-02	p              	0.00000000e+00	(-5.25000000e-04 0.00000000e+00 2.16000000e-01)	6.56617372e+00	(-6.35796848e-04 4.79267646e-05 1.50000000e-03)
2.45000000e-02	U              	(-2.67649243e-02 -1.51836944e-01 3.89370874e-01)	(-6.35796848e-04 -4.79267646e-05 1.50000000e-03)	(2.17965751e-01 -1.00657302e-02 4.86687210e-01)	(-3.75000000e-04 4.86951176e-21 1.50000000e-03)
2.50000000e-02	p              	0.00000000e+00	(-5.25000000e-04 0.00000000e+00 2.16000000e-01)	6.60123128e+00	(-6.35796848e-04 4.79267646e-05 1.50000000e-03)
2.50000000e-02	U              	(-2.61501004e-02 -1.49634256e-01 3.98364655e-01)	(-6.35796848e-04 -4.79267646e-05 1.50000000e-03)	(2.15111860e-01 -9.73810345e-03 4.98100625e-01)	(-3.75000000e-04 4.86951176e-21 1.50000000e-03)
2.55000000e-02	p              	0.00000000e+00	(-5.25000000e-04 0.00000000e+00 2.16000000e-01)	6.63626197e+00	(-6.35796848e-04 4.79267646e-05 1.50000000e-03)
2.55000000e-02	U              	(-2.55377814e-02 -1.47500477e-01 4.07359047e-01)	(-6.35796848e-04 -4.79267646e-05 1.50000000e-03)	(2.12355247e-01 -9.42619366e-03 5.09328815e-01)	(-3.75000000e-04 4.86951176e-21 1.50000000e-03)
2.60000000e-02	p              	0.00000000e+00	(-5.25000000e-04 0.00000000e+00 2.16000000e-01)	6.67129360e+00	(-6.35796848e-04 4.79267646e-05 1.50000000e-03)
2.60000000e-02	U              	(-2.49299978e-02 -1.45434508e-01 4.16353531e-01)	(-6.35796848e-04 -4.79267646e-05 1.50000000e-03)	(2.09696454e-01 -9.13015330e-03 5.20394070e-01)	(-3.75000000e-04 4.86951176e-21 1.50000000e-03)
2.65000000e-02	p              	0.00000000e+00	(-5.25000000e-04 0.00000000e+00 2.16000000e-01)	6.70627774e+00	(-6.35796848e-04 4.79267646e-05 1.50000000e-03)
2.65000000e-02	U              	(-2.43245663e-02 -1.43428247e-01 4.25333627e-01)	(-6.35796848e-04 -4.79267646e-05 1.50000000e-03)	(2.07120766e-01 -8.85298840e-03 5.31293362e-01)	(-3.75000000e-04 4.86951176e-21 1.50000000e-03)
2.70000000e-02	p              	0.00000000e+00	(-5.25000000e-04 0.00000000e+00 2.16000000e-01)	6.74117593e+00	(-6.35796848e-04 4.79267646e-05 1.50000000e-03)
2.70000000e-02	U              	(-2.37208109e-02 -1.41477699e-01 4.34280546e-01)	(-6.35796848e-04 -4.79267646e-05 1.50000000e-03)	(2.04621012e-01 -8.59004992e-03 5.42004378e-01)	(-3.75000000e-04 4.86951176e-21 1.50000000e-03)
2.75000000e-02	p              	0.00000000e+00	(-5.25000000e-04 0.00000000e+00 2.16000000e-01)	6.77594869e+00	(-6.35796848e-04 4.79267646e-05 1.50000000e-03)
2.75000000e-02	U              	(5.24894608e-02 -2.47279201e-02 4.42767462e-01)	(-5.25000000e-04 -6.81731646e-21 1.50000000e-03)	(2.02197512e-01 -8.33533171e-03 5.52511474e-01)	(-3.75000000e-04 4.86951176e-21 1.50000000e-03)
2.80000000e-02	p              	0.00000000e+00	(-5.25000000e-04 0.00000000e+00 2.16000000e-01)	6.81057893e+00	(-6.35796848e-04 4.79267646e-05 1.50000000e-03)
2.80000000e-02	U              	(5.18594799e-02 -2.42075290e-02 4.50760867e-01)	(-5.25000000e-04 -6.81731646e-21 1.50000000e-03)	(1.99843896e-01 -8.09395072e-03 5.62802479e-01)	(-3.75000000e-04 4.86951176e-21 1.50000000e-03)
2.85000000e-02	p              	0.00000000e+00	(-5.25000000e-04 0.00000000e+00 2.16000000e-01)	6.84508378e+00	(-6.35796848e-04 4.79267646e-05 1.50000000e-03)
2.85000000e-02	U              	(5.12629420e-02 -2.37128123e-02 4.58703522e-01)	(-5.25000000e-04 -6.81731646e-21 1.50000000e-03)	(1.97554449e-01 -7.86048075e-03 5.72883505e-01)	(-3.75000000e-04 4.86951176e-21 1.50000000e-03)
2.90000000e-02	p              	0.00000000e+00	(-5.25000000e-04 0.00000000e+00 2.16000000e-01)	6.87948842e+00	(-6.35796848e-04 4.79267646e-05 1.50000000e-03)
2.90000000e-02	U              	(5.07013563e-02 -2.32379644e-02 4.66601898e-01)	(-5.25000000e-04 -6.81731646e-21 1.50000000e-03)	(1.95321411e-01 -7.63649571e-03 5.82778200e-01)	(-3.75000000e-04 4.86951176e-21 1.50000000e-03)
2.95000000e-02	p              	0.00000000e+00	(-5.25000000e-04 0.00000000e+00 2.16000000e-01)	6.91381599e+00	(-6.35796848e-04 4.79267646e-05 1.50000000e-03)
2.95000000e-02	U              	(5.01721719e-02 -2.27848690e-02 4.74461768e-01)	(-5.25000000e-04 -6.81731646e-21 1.50000000e-03)	(1.93148233e-01 -7.42203483e-03 5.92505195e-01)	(-3.75000000e-04 4.86951176e-21 1.50000000e-03)
3.00000000e-02	p              	0.00000000e+00	(-5.25000000e-04 0.00000000e+00 2.16000000e-01)	6.94806082e+00	(-6.35796848e-04 4.79267646e-05 1.50000000e-03)
3.00000000e-02	U              	(4.96729213e-02 -2.23516319e-02 4.82282653e-01)	(-5.25000000e-04 -6.81731646e-21 1.50000000e-03)	(1.91032101e-01 -7.21630232e-03 6.02073132e-01)	(-3.75000000e-04 4.86951176e-21 1.50000000e-03)
3.05000000e-02	p              	0.00000000e+00	(-5.25000000e-04 0.00000000e+00 2.16000000e-01)	6.98221090e+00	(-6.35796848e-04 4.79267646e-05 1.50000000e-03)
3.05000000e-02	U              	(4.91995060e-02 -2.19368166e-02 4.90056433e-01)	(-5.25000000e-04 -6.81731646e-21 1.50000000e-03)	(1.88967782e-01 -7.01766618e-03 6.11480512e-01)	(-3.75000000e-04 4.86951176e-21 1.50000000e-03)
3.10000000e-02	p              	0.00000000e+00	(-5.25000000e-04 0.00000000e+00 2.16000000e-01)	7.01624606e+00	(-6.35796848e-04 4.79267646e-05 1.50000000e-03)
3.10000000e-02	U              	(4.87505348e-02 -2.15393406e-02 4.97772288e-01)	(-5.25000000e-04 -6.81731646e-21 1.50000000e-03)	(1.86952663e-01 -6.82616233e-03 6.20725326e-01)	(-3.75000000e-04 4.86951176e-21 1.50000000e-03)
3.15000000e-02	p              	0.00000000e+00	(-5.25000000e-04 0.00000000e+00 2.16000000e-01)	7.05015507e+00	(-6.35796848e-04 4.79267646e-05 1.50000000e-03)
3.15000000e-02	U              	(4.83251509e-02 -2.11576155e-02 5.05420742e-01)	(-5.25000000e-04 -6.81731646e-21 1.50000000e-03)	(1.84984411e-01 -6.64227425e-03 6.29802510e-01)	(-3.75000000e-04 4.86951176e-21 1.50000000e-03)
3.20000000e-02	p              	0.00000000e+00	(-5.25000000e-04 0.00000000e+00 2.16000000e-01)	7.08394182e+00	(-6.35796848e-04 4.79267646e-05 1.50000000e-03)
3.20000000e-02	U              	(4.79168375e-02 -2.07874447e-02 5.12998495e-01)	(-5.25000000e-04 -6.81731646e-21 1.50000000e-03)	(1.83061329e-01 -6.46159130e-03 6.38712213e-01)	(-3.75000000e-04 4.86951176e-21 1.50000000e-03)
3.25000000e-02	p              	0.00000000e+00	(-5.25000000e-04 0.00000000e+00 2.16000000e-01)	7.11761117e+00	(-6.35796848e-04 4.79267646e-05 1.50000000e-03)
3.25000000e-02	U              	(4.75305540e-02 -2.04296279e-02 5.20505391e-01)	(-5.25000000e-04 -6.81731646e-21 1.50000000e-03)	(1.81182638e-01 -6.28653995e-03 6.47460429e-01)	(-3.75000000e-04 4.86951176e-21 1.50000000e-03)
3.30000000e-02	p              	0.00000000e+00	(-5.25000000e-04 0.00000000e+00 2.16000000e-01)	7.15117417e+00	(-6.35796848e-04 4.79267646e-05 1.50000000e-03)
3.30000000e-02	U              	(4.71628784e-02 -2.00843793e-02 5.27944209e-01)	(-5.25000000e-04 -6.81731646e-21 1.50000000e-03)	(1.79346765e-01 -6.11883755e-03 6.56055071e-01)	(-3.75000000e-04 4.86951176e-21 1.50000000e-03)
3.35000000e-02	p              	0.00000000e+00	(-5.25000000e-04 0.00000000e+00 2.16000000e-01)	7.18463766e+00	(-6.35796848e-04 4.79267646e-05 1.50000000e-03)
3.35000000e-02	U              	(4.68118633e-02 -1.97511584e-02 5.35317045e-01)	(-5.25000000e-04 -6.81731646e-21 1.50000000e-03)	(1.77550604e-01 -5.95978393e-03 6.64504557e-01)	(-3.75000000e-04 4.86951176e-21 1.50000000e-03)
3.40000000e-02	p              	0.00000000e+00	(-5.25000000e-04 0.00000000e+00 2.16000000e-01)	7.21799953e+00	(-6.35796848e-04 4.79267646e-05 1.50000000e-03)
3.40000000e-02	U              	(4.64767596e-02 -1.94272392e-02 5.42623790e-01)	(-5.25000000e-04 -6.81731646e-21 1.50000000e-03)	(1.75788683e-01 -5.80793339e-03 6.72815712e-01)	(-3.75000000e-04 4.86951176e-21 1.50000000e-03)
3.45000000e-02	p              	0.00000000e+00	(-5.25000000e-04 0.00000000e+00 2.16000000e-01)	7.25125694e+00	(-6.35796848e-04 4.79267646e-05 1.50000000e-03)
3.45000000e-02	U              	(4.61577854e-02 -1.91137103e-02 5.49861728e-01)	(-5.25000000e-04 -6.81731646e-21 1.50000000e-03)	(1.74065102e-01 -5.66071611e-03 6.80991661e-01)	(-3.75000000e-04 4.86951176e-21 1.50000000e-03)
3.50000000e-02	p              	0.00000000e+00	(-5.25000000e-04 0.00000000e+00 2.16000000e-01)	7.28440291e+00	(-6.35796848e-04 4.79267646e-05 1.50000000e-03)
3.50000000e-02	U              	(4.58534935e-02 -1.88098878e-02 5.57028321e-01)	(-5.25000000e-04 -6.81731646e-21 1.50000000e-03)	(1.72378861e-01 -5.51827011e-03 6.89031492e-01)	(-3.75000000e-04 4.86951176e-21 1.50000000e-03)
3.55000000e-02	p              	0.00000000e+00	(-5.25000000e-04 0.00000000e+00 2.16000000e-01)	7.31743655e+00	(-6.35796848e-04 4.79267646e-05 1.50000000e-03)
3.55000000e-02	U              	(4.55630324e-02 -1.85151385e-02 5.64120380e-01)	(-5.25000000e-04 -6.81731646e-21 1.50000000e-03)	(1.70728080e-01 -5.38050669e-03 6.96932837e-01)	(-3.75000000e-04 4.86951176e-21 1.50000000e-03)
3.60000000e-02	p              	0.00000000e+00	(-5.25000000e-04 0.00000000e+00 2.16000000e-01)	7.35036019e+00	(-6.35796848e-04 4.79267646e-05 1.50000000e-03)
3.60000000e-02	U              	(4.52853434e-02 -1.82289504e-02 5.71137655e-01)	(-5.25000000e-04 -6.81731646e-21 1.50000000e-03)	(1.69111602e-01 -5.24729621e-03 7.04698164e-01)	(-3.75000000e-04 4.86951176e-21 1.50000000e-03)
3.65000000e-02	p              	0.00000000e+00	(-5.25000000e-04 0.00000000e+00 2.16000000e-01)	7.38317895e+00	(-6.35796848e-04 4.79267646e-05 1.50000000e-03)
3.65000000e-02	U              	(4.50197009e-02 -1.79507683e-02 5.78080359e-01)	(-5.25000000e-04 -6.81731646e-21 1.50000000e-03)	(1.67527950e-01 -5.11831082e-03 7.12331148e-01)	(-3.75000000e-04 4.86951176e-21 1.50000000e-03)
3.70000000e-02	p              	0.00000000e+00	(-5.25000000e-04 0.00000000e+00 2.16000000e-01)	7.41589893e+00	(-6.35796848e-04 4.79267646e-05 1.50000000e-03)
3.70000000e-02	U              	(4.47657412e-02 -1.76807794e-02 5.84950534e-01)	(-5.25000000e-04 -6.81731646e-21 1.50000000e-03)	(1.65977713e-01 -4.99359549e-03 7.19837585e-01)	(-3.75000000e-04 4.86951176e-21 1.50000000e-03)
3.75000000e-02	p              	0.00000000e+00	(-5.25000000e-04 0.00000000e+00 2.16000000e-01)	7.44852110e+00	(-6.35796848e-04 4.79267646e-05 1.50000000e-03)
3.75000000e-02	U              	(4.45224247e-02 -1.74179371e-02 5.91748308e-01)	(-5.25000000e-04 -6.81731646e-21 1.50000000e-03)	(1.64457939e-01 -4.87294651e-03 7.27220071e-01)	(-3.75000000e-04 4.86951176e-21 1.50000000e-03)
3.80000000e-02	p              	0.00000000e+00	(-5.25000000e-04 0.00000000e+00 2.16000000e-01)	7.48104564e+00	(-6.35796848e-04 4.79267646e-05 1.50000000e-03)
3.80000000e-02	U              	(4.42874878e-02 -1.71624010e-02 5.98474329e-01)	(-5.25000000e-04 -6.81731646e-21 1.50000000e-03)	(1.62967839e-01 -4.75696156e-03 7.34482907e-01)	(-3.75000000e-04 4.86951176e-21 1.50000000e-03)
3.85000000e-02	p              	0.00000000e+00	(-5.25000000e-04 0.00000000e+00 2.16000000e-01)	7.51347291e+00	(-6.35796848e-04 4.79267646e-05 1.50000000e-03)
3.85000000e-02	U              	(4.40617844e-02 -1.69130635e-02 6.05127970e-01)	(-5.25000000e-04 -6.81731646e-21 1.50000000e-03)	(1.61506139e-01 -4.64432067e-03 7.41626967e-01)	(-3.75000000e-04 4.86951176e-21 1.50000000e-03)
3.90000000e-02	p              	0.00000000e+00	(-5.25000000e-04 0.00000000e+00 2.16000000e-01)	7.54580230e+00	(-6.35796848e-04 4.79267646e-05 1.50000000e-03)
3.90000000e-02	U              	(4.38455047e-02 -1.66699943e-02 6.11707602e-01)	(-5.25000000e-04 -6.81731646e-21 1.50000000e-03)	(1.60073180e-01 -4.53495188e-03 7.48654841e-01)	(-3.75000000e-04 4.86951176e-21 1.50000000e-03)