/*--------------------------------*- C++ -*----------------------------------*\
| =========                 |                                                 |
| \\      /  F ield         | OpenFOAM: The Open Source CFD Toolbox           |
|  \\    /   O peration     | Version:  2112                                  |
|   \\  /    A nd           | Website:  www.openfoam.com                      |
|    \\/     M anipulation  |                                                 |
\*---------------------------------------------------------------------------*/
FoamFile
{
    version     2.0;
    format      ascii;
    arch        "LSB;label=32;scalar=64";
    class       surfaceScalarField;
    location    "0.01";
    object      phi;
}
// * * * * * * * * * * * * * * * * * * * * * * * * * * * * * * * * * * * * * //

dimensions      [1 0 -1 0 0 0 0];

oriented        oriented;

internalField   nonuniform List<scalar> 
999
(
2.6112446e-12
-1.0935253e-11
-9.8410169e-13
-5.6458171e-12
1.8415491e-11
2.2783109e-11
2.7250424e-11
1.0760726e-11
-1.8332003e-12
3.5949022e-13
6.3606898e-12
2.3068214e-12
6.2552186e-12
-2.3336888e-13
6.4946937e-12
-3.2863712e-12
9.0876195e-12
-6.6551209e-12
3.1754599e-12
-7.8159701e-13
1.8500645e-11
2.7766678e-12
-3.2602809e-12
-8.7370111e-12
-1.1620704e-11
-2.6941893e-11
-2.7506109e-11
1.3633539e-12
-1.7188473e-12
-3.8795633e-12
-6.0189631e-12
-7.1713746e-12
-5.3939075e-12
1.5023538e-12
1.8880453e-12
4.2188475e-15
1.559064e-11
1.4659385e-12
1.673417e-11
2.1911584e-11
-7.1009865e-13
1.6484369e-11
2.147893e-11
2.9640068e-11
1.763234e-11
-1.0162982e-11
-4.7151172e-12
-3.9022119e-12
-1.1216139e-11
-9.9849018e-12
-1.4277912e-11
-1.5957902e-11
7.7036155e-12
-1.1583623e-11
-6.4824812e-12
-1.458611e-12
1.7079671e-11
4.7326587e-12
2.4262814e-12
-5.2593485e-12
-1.5044188e-11
-5.9513505e-12
-2.3891999e-12
1.6517898e-12
1.2852164e-11
2.4182656e-11
8.6445295e-12
8.268275e-12
1.5173418e-11
4.7511994e-12
1.3606671e-11
-1.6742163e-12
2.0135005e-12
-2.3003821e-12
-7.8291817e-12
-8.9259711e-12
-2.0477842e-11
-1.0347834e-11
-1.1351808e-11
-3.7120307e-12
-3.7725378e-13
-1.8576252e-12
1.7519319e-12
-1.2975843e-11
-5.3510529e-12
6.8587358e-12
5.6770144e-12
-1.3129053e-11
-2.0817792e-12
-3.9980241e-12
-2.7284841e-12
1.2374546e-12
7.2836182e-12
1.0216383e-11
3.3080205e-12
-2.4980018e-12
1.209477e-12
2.3382407e-12
9.2620356e-12
8.910428e-12
1.9626523e-12
1.627487e-11
6.0713656e-12
2.1651236e-11
1.3516299e-11
6.52145e-13
-4.4939608e-12
-4.1204817e-12
-8.5658147e-12
-1.7408075e-11
-1.4816592e-11
-1.4860779e-11
-3.4533376e-11
-2.4510283e-11
-1.1784351e-11
-7.820633e-12
-1.8054447e-11
5.1803006e-12
3.5170755e-12
1.6826318e-11
1.9778623e-11
-3.7438941e-12
2.0216717e-11
2.2243984e-11
-1.4062085e-12
5.3445026e-12
1.7164048e-13
-1.1840529e-12
-1.1788903e-11
-1.1310175e-11
-1.4130253e-11
-1.9715785e-11
-1.7028823e-11
-1.933409e-11
-1.0536017e-12
-1.5827784e-11
-1.7894131e-11
-1.2368551e-11
9.5934372e-13
9.2454933e-12
-8.8429264e-12
-3.6397552e-12
-6.9115824e-12
-2.1312063e-11
-1.7761459e-11
-5.510703e-12
9.4575459e-12
2.2378654e-11
1.7184032e-11
-6.3329342e-12
9.9192876e-12
2.1326496e-11
1.0249135e-11
1.5531465e-11
6.5778494e-12
8.2546192e-12
1.071776e-11
2.0976554e-12
2.5309532e-11
2.4570568e-11
-7.1156414e-12
8.5145224e-12
-2.95719e-12
-6.083356e-12
-6.3744565e-12
-1.0325074e-12
-6.854517e-12
-6.8418604e-12
-1.2532642e-11
-1.9418356e-11
1.1827206e-12
2.7584601e-12
-3.7760906e-12
-1.3701484e-11
7.6936235e-12
6.8601791e-12
-3.9829251e-12
-5.7509553e-13
1.1075585e-11
1.6954438e-11
4.3712811e-12
-8.0165874e-12
1.3103629e-11
-5.6070704e-12
-1.5712098e-11
-1.2263746e-11
-2.4722002e-11
-2.7207125e-12
-1.5276891e-11
-1.7404744e-11
-1.6115553e-11
1.2501111e-12
5.2526872e-12
1.6808555e-11
8.6683993e-12
-1.3161916e-11
2.8496761e-11
8.5944585e-12
2.5517366e-12
-1.2124413e-11
-7.3142603e-12
5.7858163e-12
1.039302e-11
2.5662805e-12
5.6528116e-12
7.8639317e-12
-1.249878e-11
-1.0778045e-12
-1.1440515e-11
-5.7207572e-12
-3.1155301e-11
-7.1060935e-12
-2.3109403e-11
-2.0230706e-11
-1.9576563e-11
-6.9855233e-13
-1.6613377e-12
1.3075541e-11
-1.2032597e-11
1.5099255e-11
7.681189e-12
1.3457457e-11
2.7797764e-12
-4.2039705e-12
2.0150548e-12
-1.6439849e-11
-5.7160943e-12
3.9164227e-12
6.7272854e-12
1.2333246e-11
1.31406e-12
-2.4555913e-12
-3.2871483e-12
1.5749624e-12
-2.6750158e-11
-1.375744e-11
1.2515766e-11
-5.3157478e-13
1.1118217e-11
1.7264301e-11
2.0657254e-11
-4.231504e-12
-1.5615287e-11
-1.2828183e-11
-1.3704371e-11
2.1425084e-12
-1.1355694e-11
4.7697402e-12
9.149792e-12
7.3627771e-12
2.0814017e-11
1.3898549e-11
2.6520897e-11
1.9688917e-11
-2.9287683e-12
1.6304735e-11
8.2398532e-12
2.628342e-12
-3.608891e-12
-1.8456348e-11
-1.4392265e-11
1.8512525e-11
8.0188078e-12
7.8923534e-12
1.2498447e-11
7.9329876e-12
-1.996292e-11
-3.4214187e-11
-1.4628299e-11
1.3335999e-12
1.5171198e-11
5.5024874e-12
-4.3165471e-12
1.0757173e-11
6.1788352e-12
1.7503776e-12
-4.0225601e-12
3.1190606e-12
-1.639533e-11
-6.3029582e-12
-2.4669156e-12
6.8287598e-12
-8.0120355e-12
-2.3294033e-11
-1.7933655e-11
-1.2601475e-11
-2.5090152e-11
-1.7511326e-11
-3.8086201e-12
-7.1465056e-13
3.3739678e-13
-1.2414514e-11
-1.2929213e-11
3.703482e-12
-7.0443651e-12
-3.6726178e-13
5.5808691e-12
8.1643581e-12
7.0228268e-12
-4.9960036e-14
1.2681634e-11
2.4002245e-11
2.3592017e-11
2.7087887e-11
2.3713365e-11
6.5448758e-12
1.1611934e-11
2.8640423e-11
-2.1116442e-13
4.8890891e-12
4.2440496e-12
-7.9147799e-12
-7.0421446e-12
-9.9531494e-13
-5.0324189e-12
9.2970076e-13
-9.7932773e-13
1.2714274e-12
-3.8669068e-12
2.0983215e-12
-3.4071412e-11
3.2729375e-13
-1.3363533e-11
-3.0083602e-11
-1.7831958e-11
-6.0338401e-12
-5.0519589e-12
8.527401e-12
5.166978e-12
1.517797e-11
2.5628388e-12
1.9239499e-11
-1.2637669e-11
-8.2063245e-12
-1.0988321e-11
-9.5157215e-12
-1.9385271e-11
-3.6304293e-12
2.4393931e-11
2.5962343e-11
1.0667689e-11
2.1151858e-11
7.4860118e-12
1.5916934e-11
-2.1849189e-13
3.7241321e-12
6.924239e-12
-4.0811798e-12
-8.2394092e-12
-9.1815444e-12
-1.9250379e-11
9.0178975e-12
-6.4481753e-12
-1.11815e-11
-6.3444805e-12
-3.3861802e-12
3.205769e-12
-5.1569859e-12
3.0307978e-12
-1.2081003e-11
1.3375301e-11
6.6269212e-12
1.896705e-12
-3.1286085e-13
1.4600654e-11
1.2013057e-11
5.6541438e-12
-6.2778671e-12
-1.8154589e-11
-2.2966073e-12
-2.1907809e-11
-2.9431568e-11
-1.3338664e-11
-1.110223e-12
-6.7041928e-12
-2.2882918e-11
-4.8967497e-12
-7.2122308e-12
-3.2773784e-13
1.1459056e-11
7.8210771e-12
3.0775382e-12
-3.738565e-12
9.8432373e-12
1.6013413e-11
4.9102944e-12
-1.8791635e-12
-6.3649086e-12
4.0559778e-12
2.8608227e-12
-1.2386314e-11
-1.16267e-11
-1.4095058e-11
9.5585762e-12
1.660605e-11
1.5182744e-11
1.0578871e-11
8.1683549e-12
1.9814927e-11
1.7631785e-11
2.732925e-11
2.0491053e-11
3.1571967e-11
4.6143089e-12
1.2660983e-12
-4.4266812e-12
-3.290701e-12
-2.3959945e-11
-1.7075674e-11
-2.1834867e-11
-2.4782065e-11
-2.2273294e-11
2.8853586e-12
-6.9400041e-12
-6.645684e-12
-5.7420735e-12
1.4327095e-11
5.1834093e-12
8.2640561e-12
-8.4870999e-12
-1.584044e-11
-2.0426549e-11
-3.0477176e-11
1.8154367e-12
8.3293372e-12
-8.756329e-12
2.0294877e-13
-1.5276669e-12
-1.0080825e-12
1.5814017e-12
-1.014322e-11
-6.1484151e-13
2.3929747e-12
2.4051872e-12
1.598166e-11
1.1786572e-11
8.6286533e-12
-2.9018121e-11
-8.5640384e-12
-1.4381163e-11
6.8123285e-13
-1.7039703e-12
1.5625279e-11
1.8294255e-12
7.5603968e-12
2.1223689e-11
3.2762792e-11
3.8034909e-11
8.7861052e-11
1.7653978e-10
3.70315e-10
7.2571738e-10
1.3695345e-09
2.6297339e-09
5.1673609e-09
9.989359e-09
1.9309645e-08
3.7020268e-08
7.056167e-08
1.3371899e-07
2.5177152e-07
4.7083186e-07
8.7433082e-07
1.6116339e-06
2.9478715e-06
5.3483933e-06
9.6214249e-06
1.7153934e-05
3.0296179e-05
5.2977096e-05
9.1668553e-05
0.00015686278
0.00026527731
0.00044304752
0.0007301894
0.0011865776
0.0018995456
0.0029929126
0.0046367427
0.0070564309
0.010538888
0.015432849
0.022140028
0.031094293
0.042727394
0.05742251
0.075459232
0.096956897
0.12182409
0.14972169
0.1800493
0.21192965
0.24435455
0.27572101
0.30563467
0.33070256
0.35198905
0.3694947
0.37819378
0.38380203
0.38911903
0.3896439
0.38691408
0.37853411
0.36488489
0.34540865
0.32327519
0.30077905
0.28007086
0.26185808
0.24584119
0.23087016
0.2158304
0.19941453
0.18053517
0.15934636
0.13503011
0.1085305
0.081582158
0.056580831
0.035929997
0.02097149
0.011425039
0.0059312412
0.0029889999
0.0014804627
0.00072570187
0.00035324893
0.00017100971
8.2382982e-05
3.950176e-05
1.885282e-05
8.9560805e-06
4.2348946e-06
1.9932384e-06
9.338686e-07
4.3555678e-07
2.022369e-07
9.3491026e-08
4.3033724e-08
1.9721556e-08
9.0035015e-09
4.0954724e-09
1.854214e-09
8.3602286e-10
3.7667855e-10
1.6742513e-10
7.5679851e-11
3.3183498e-11
1.5754453e-11
9.1193719e-12
4.9006216e-12
3.1504938e-12
-7.2310213e-13
-6.430273e-13
-1.4316326e-13
-1.3000989e-12
-3.4211523e-13
3.9847015e-12
9.3192121e-13
1.829592e-12
8.3576202e-13
1.1477069e-12
-1.6971008e-12
-3.4490466e-13
-1.6829177e-12
1.7166824e-14
-1.700029e-13
3.8404835e-12
2.8014258e-12
2.711234e-12
4.575923e-13
-2.7115254e-12
3.6193271e-13
-2.0772412e-12
2.8109598e-12
8.1810947e-13
5.8483773e-13
1.7150309e-12
-2.6666308e-12
-1.399561e-12
-5.8429372e-12
-1.5361185e-12
-1.5046575e-12
-2.4419494e-12
-1.7078144e-12
-2.9776875e-12
-3.3988368e-12
1.4564322e-12
4.354711e-13
-1.1762674e-12
1.2488205e-12
1.98494e-13
-9.6023189e-13
6.8942074e-13
2.1941754e-12
-4.1175396e-14
-4.2664483e-13
1.7869317e-12
2.3915453e-12
2.3376301e-12
-5.3565485e-13
2.1723734e-12
1.0549062e-12
6.4867556e-13
8.262141e-13
-1.3884172e-12
-1.1284029e-13
6.0390581e-13
-4.9669158e-12
-4.6727067e-12
-2.1360275e-12
-1.2285867e-12
-1.241604e-12
-2.2986613e-12
-3.7307657e-12
-3.5309256e-13
2.214201e-13
3.4459241e-12
1.3214152e-12
1.3555546e-12
-1.4215573e-12
-2.7437635e-12
-2.0814184e-12
8.1344653e-13
2.8629876e-13
-2.1087437e-12
-3.7393977e-12
-4.0367154e-12
-5.8178878e-12
-9.1007757e-13
-8.3649754e-13
-1.865591e-12
1.1076001e-12
-2.7779723e-12
-2.9091451e-12
-3.8456738e-13
-1.0776796e-12
4.1079917e-12
3.3497094e-12
1.490294e-12
3.0147551e-12
3.6415593e-12
8.7861662e-13
-9.1633645e-13
-1.0881712e-12
-8.0786766e-13
-1.5235868e-12
2.0114466e-12
1.5079604e-13
-1.6295298e-13
7.4507067e-13
-7.076284e-14
-3.4898889e-12
-1.58841e-12
-1.071504e-12
2.2318952e-12
-1.3571921e-12
2.6881969e-12
2.7126079e-12
1.8587076e-12
-6.8049733e-13
5.355022e-13
-1.9957785e-12
-1.0560997e-13
2.5017488e-13
-2.8088643e-14
-4.5534826e-12
-2.3811508e-13
-8.029688e-13
1.4689083e-12
3.4485054e-12
3.7121001e-12
5.1787741e-13
-1.4447471e-12
-2.2965657e-12
-3.8053727e-12
-6.0562666e-14
-1.6871782e-12
-6.0113026e-13
4.7191417e-13
2.354783e-13
4.1992798e-13
-7.0715656e-13
-5.6638028e-13
-1.7044005e-12
-5.493217e-12
-4.3140491e-13
-1.9578228e-12
-3.6000786e-12
-5.4235644e-12
-1.0484252e-12
-9.1598951e-13
-9.3980379e-13
-5.7893967e-13
-9.7094555e-13
-1.34244e-12
8.5768892e-13
-2.4646951e-12
-2.6133956e-12
1.242853e-12
1.2832652e-12
5.3297783e-12
2.447112e-12
1.6187052e-12
2.9190261e-12
-8.6292085e-14
5.0574822e-13
-1.6169566e-12
1.150316e-12
-1.0333678e-12
7.8821671e-13
9.2824359e-13
2.1689733e-12
1.0599022e-12
-2.6042501e-12
2.4158869e-12
-8.1364082e-13
-4.0682319e-12
-4.3283016e-12
3.4926229e-13
2.455175e-12
4.5662085e-12
2.8761576e-12
2.1662672e-12
-5.8522631e-14
-1.2215229e-12
-3.4354186e-12
-3.1463721e-13
-2.7593899e-12
-6.3657413e-13
-2.9613673e-12
8.0356555e-13
2.1165569e-12
-7.6064155e-14
-3.8626463e-12
-3.2372716e-12
7.2257478e-13
2.0997787e-12
-2.2377933e-13
-1.2431861e-12
-2.5104918e-14
3.9435122e-13
-4.7975512e-14
1.0037388e-12
-4.0374371e-12
-3.993389e-12
-5.4844462e-12
-1.4692692e-12
6.1643746e-13
4.0735609e-12
2.8970021e-12
-1.5932117e-12
-3.6155939e-12
-1.3644363e-12
-4.1744386e-14
4.721501e-13
-9.9308062e-13
1.8925e-12
5.6880889e-13
1.338582e-12
-1.0759588e-12
1.7140456e-13
-3.9855619e-13
2.6113833e-13
-5.3324012e-13
-1.6144031e-13
1.9103191e-12
-1.987549e-12
-1.6843332e-12
-5.1442739e-12
-7.8771711e-13
-2.2875868e-12
-8.4586504e-13
-7.7853002e-13
3.6873282e-14
-7.4616702e-13
-1.7920387e-12
-1.171313e-12
-3.0308811e-12
-2.8593794e-13
1.6934787e-12
8.4085516e-13
-1.9557272e-12
-2.1082303e-12
-2.2950947e-12
-3.0293823e-12
-2.7948199e-12
-3.9479392e-12
7.3913098e-14
7.3283046e-13
-2.2893076e-12
-2.2956637e-13
2.5127123e-13
1.1356194e-13
2.8609615e-12
3.0430242e-12
3.4128117e-12
5.9405258e-13
-1.4259843e-12
-1.1336349e-12
1.1594892e-13
-1.7282703e-12
-3.7144177e-12
1.3954116e-13
2.0303065e-12
-2.2135072e-13
-3.0853098e-13
-1.2068124e-12
-2.8801683e-12
-2.1430774e-12
-2.4791974e-12
-7.0554673e-14
-1.8832158e-13
-1.8291618e-12
-1.9288876e-12
5.7530369e-13
8.6899932e-13
1.7705004e-12
-1.7002233e-12
-1.5053653e-12
1.4904467e-12
-6.4405425e-13
-4.5350806e-12
-4.5371068e-12
-3.7012615e-12
-2.1898594e-12
-8.983092e-14
-5.8535121e-13
-1.3349044e-12
-4.6911086e-13
1.6965873e-12
1.7244678e-12
2.0561886e-12
3.0169062e-12
4.0894232e-12
6.462747e-13
4.3352821e-13
-1.225034e-12
-1.0443452e-12
-1.7377627e-12
-1.5915741e-12
-2.0081298e-12
-9.1811281e-13
2.1099789e-13
-3.1864233e-12
-2.8084479e-12
-2.4683033e-13
-1.0913076e-12
-3.2503444e-12
-1.9837326e-12
-2.9932584e-12
2.5308089e-12
4.1706916e-13
1.5409896e-12
3.138434e-12
3.3916342e-12
3.0103836e-12
1.7463114e-12
1.4744317e-12
7.204376e-13
2.5056068e-12
2.2733759e-12
3.7203018e-12
-1.1131374e-13
5.9122152e-12
7.6078033e-13
-1.8356011e-12
-6.8889339e-13
-4.2080645e-12
-4.2713749e-12
-3.861772e-13
-1.5742962e-12
1.8569174e-12
6.344647e-13
1.8891139e-12
-3.220757e-13
4.0184661e-12
1.0755979e-12
2.4051178e-12
-9.847817e-13
-4.3321041e-12
-2.8710229e-12
-3.8547082e-12
3.2802927e-13
-3.7475439e-12
-4.1559117e-12
-3.6984721e-12
-1.2694429e-12
-3.3047037e-12
2.3146762e-13
-6.9186323e-13
2.4610869e-13
-2.5544844e-13
1.3497814e-12
-7.226858e-13
7.5957296e-13
1.017561e-12
5.7710781e-13
7.116252e-13
-4.8606952e-13
-8.9594998e-14
1.1312479e-12
8.8340446e-13
-2.7499114e-12
-3.2735759e-12
-1.9128588e-12
-4.1523729e-13
-1.8531149e-12
4.4481085e-13
4.055839e-12
1.5887708e-12
-1.4552526e-12
-6.2361227e-13
-1.2733981e-12
-6.3236916e-13
1.5616258e-12
-7.4378004e-13
-2.6422892e-12
3.1784297e-13
-8.6118612e-13
-6.2334859e-13
8.3227869e-13
-1.4033774e-12
-2.5610486e-12
6.605827e-14
-2.2749858e-12
-1.7620627e-12
4.8221149e-13
3.2583658e-13
9.2588437e-13
3.5687286e-12
2.2484792e-12
-6.9162731e-13
5.7312488e-13
1.6326385e-12
1.378106e-12
4.4725473e-12
5.9163785e-13
-8.7335694e-13
1.145195e-12
-3.2260028e-12
-1.2330276e-12
-1.7720408e-12
-2.2261221e-12
-2.3776675e-12
-5.1459531e-12
1.3119644e-12
-2.055342e-12
-1.0310364e-12
-1.4280244e-13
-2.3668567e-12
-1.7502666e-13
2.9531239e-12
3.4501429e-12
-4.4267368e-13
-1.8476609e-12
-8.4396379e-13
-8.7541085e-14
-2.6520453e-14
2.7679248e-12
1.353237e-12
2.3687718e-12
4.0803888e-12
3.0054986e-12
6.6548156e-13
-1.5989016e-12
-6.4176442e-13
2.8294589e-12
2.0873858e-12
2.7607361e-12
-2.2183089e-12
-5.0828786e-13
6.0880467e-13
-7.3940853e-13
-2.8927416e-12
7.3355211e-13
2.6431635e-13
-9.0177865e-14
-2.6626479e-12
-2.9469344e-12
-8.5330354e-13
-2.2994107e-12
7.7074458e-13
5.2839261e-12
-5.996037e-13
-5.0907056e-12
-3.6838033e-12
-4.3376969e-12
-1.5216717e-12
-1.7188057e-12
-2.1836144e-12
-5.0931481e-13
1.0364071e-12
4.7132298e-12
3.266859e-12
2.0801e-12
3.8568176e-12
1.4452328e-12
)
;

boundaryField
{
    sides
    {
        type            calculated;
        value           nonuniform List<scalar> 2(1.3701084e-22 1.8376656e-21);
    }
    emptywalls
    {
        type            empty;
        value           nonuniform List<scalar> 0();
    }
}


// ************************************************************************* //
