/*--------------------------------*- C++ -*----------------------------------*\
| =========                 |                                                 |
| \\      /  F ield         | OpenFOAM: The Open Source CFD Toolbox           |
|  \\    /   O peration     | Version:  2112                                  |
|   \\  /    A nd           | Website:  www.openfoam.com                      |
|    \\/     M anipulation  |                                                 |
\*---------------------------------------------------------------------------*/
FoamFile
{
    version     2.0;
    format      ascii;
    arch        "LSB;label=32;scalar=64";
    class       volVectorField;
    location    "0.01";
    object      U;
}
// * * * * * * * * * * * * * * * * * * * * * * * * * * * * * * * * * * * * * //

dimensions      [0 1 -1 0 0 0 0];

internalField   nonuniform List<vector> 
1000
(
(-1.8398504e-21 0 0)
(-9.7993617e-13 0 0)
(-1.2800527e-11 0 0)
(-2.8473281e-12 0 0)
(-1.1705241e-23 0 0)
(2.3527471e-11 0 0)
(1.3775795e-11 0 0)
(2.3089301e-11 0 0)
(3.1834587e-12 0 0)
(-5.3362949e-12 0 0)
(1.0593226e-11 0 0)
(3.0211734e-13 0 0)
(4.6364675e-12 0 0)
(8.1609475e-12 0 0)
(-8.628129e-12 0 0)
(5.9931055e-12 0 0)
(-7.0590751e-12 0 0)
(-2.4917456e-12 0 0)
(8.8979004e-12 0 0)
(-8.1218212e-12 0 0)
(1.7459893e-11 0 0)
(1.6674032e-11 0 0)
(-3.3296266e-12 0 0)
(-4.6989362e-12 0 0)
(-9.3496314e-12 0 0)
(-2.395586e-11 0 0)
(-1.8430158e-11 0 0)
(-1.0399595e-12 0 0)
(6.7904152e-13 0 0)
(-2.8008656e-12 0 0)
(-7.0273961e-12 0 0)
(-6.2684347e-12 0 0)
(-3.2484839e-12 0 0)
(-1.0080804e-11 0 0)
(1.1498911e-11 0 0)
(-8.0577963e-12 0 0)
(9.8796151e-12 0 0)
(-1.457455e-12 0 0)
(8.8360986e-12 0 0)
(1.8579883e-11 0 0)
(1.8532531e-11 0 0)
(1.2926465e-11 0 0)
(1.6683258e-11 0 0)
(2.0240084e-11 0 0)
(2.8344342e-11 0 0)
(-3.2289208e-12 0 0)
(2.4645128e-12 0 0)
(-1.1577608e-11 0 0)
(-1.1506914e-11 0 0)
(-6.0118906e-12 0 0)
(-1.2061574e-11 0 0)
(-1.1763236e-11 0 0)
(-1.2678591e-11 0 0)
(-1.0989379e-11 0 0)
(-1.0270656e-11 0 0)
(-2.2077464e-12 0 0)
(1.419996e-11 0 0)
(1.0032341e-11 0 0)
(6.2344215e-12 0 0)
(-6.7646274e-12 0 0)
(-8.6833727e-12 0 0)
(-1.042705e-11 0 0)
(-4.2168601e-12 0 0)
(-4.228309e-13 0 0)
(1.3378418e-11 0 0)
(1.2199405e-11 0 0)
(9.7228875e-12 0 0)
(8.1282682e-12 0 0)
(1.7113314e-12 0 0)
(2.8268757e-12 0 0)
(1.0951698e-11 0 0)
(1.978813e-11 0 0)
(1.4546761e-12 0 0)
(4.7941954e-12 0 0)
(-1.0413711e-11 0 0)
(-2.5825586e-12 0 0)
(-1.7417987e-11 0 0)
(-1.4790522e-11 0 0)
(-9.1532218e-12 0 0)
(2.085699e-12 0 0)
(-8.5684391e-12 0 0)
(7.3450751e-13 0 0)
(-1.0761958e-12 0 0)
(1.0317341e-12 0 0)
(-3.8661683e-12 0 0)
(-4.8403244e-12 0 0)
(5.281607e-12 0 0)
(-2.2625454e-12 0 0)
(-4.6715922e-12 0 0)
(-2.7217238e-12 0 0)
(-7.0559628e-12 0 0)
(-6.6025645e-14 0 0)
(2.8485508e-12 0 0)
(1.4665696e-11 0 0)
(3.8250412e-12 0 0)
(-1.4722385e-12 0 0)
(4.8654453e-12 0 0)
(-3.7825803e-12 0 0)
(5.2402576e-12 0 0)
(7.3853129e-12 0 0)
(1.822041e-12 0 0)
(8.1682837e-12 0 0)
(1.0037232e-11 0 0)
(7.0631878e-12 0 0)
(1.6084914e-11 0 0)
(1.191385e-11 0 0)
(-2.1588385e-12 0 0)
(-7.6409678e-12 0 0)
(-1.0467399e-12 0 0)
(-1.7409317e-11 0 0)
(-6.1672843e-12 0 0)
(-2.9442102e-11 0 0)
(-2.717122e-11 0 0)
(-2.1672418e-11 0 0)
(-1.4073911e-11 0 0)
(-1.1039621e-11 0 0)
(-4.620239e-12 0 0)
(-1.2286105e-11 0 0)
(1.2558656e-11 0 0)
(1.6454169e-11 0 0)
(1.6031782e-11 0 0)
(1.1634297e-11 0 0)
(-9.6415226e-13 0 0)
(1.8486291e-11 0 0)
(4.0624668e-12 0 0)
(7.7610144e-12 0 0)
(-2.0456834e-12 0 0)
(1.1363302e-12 0 0)
(-5.1352168e-12 0 0)
(-1.0582555e-11 0 0)
(-7.9295243e-12 0 0)
(-1.8469729e-11 0 0)
(-1.3453781e-11 0 0)
(-1.6985042e-11 0 0)
(-1.1120319e-11 0 0)
(-1.003123e-11 0 0)
(-9.4779035e-12 0 0)
(-1.9398201e-11 0 0)
(-4.2849976e-12 0 0)
(6.1619489e-12 0 0)
(1.0065687e-11 0 0)
(-4.4586206e-12 0 0)
(-2.435835e-12 0 0)
(-1.3888728e-11 0 0)
(-9.7088821e-12 0 0)
(-1.5707879e-11 0 0)
(9.4658988e-13 0 0)
(2.1860491e-11 0 0)
(1.3615288e-11 0 0)
(1.6549317e-11 0 0)
(7.5518221e-13 0 0)
(1.9106977e-11 0 0)
(1.5067852e-11 0 0)
(8.1780653e-12 0 0)
(9.2224709e-12 0 0)
(1.1364414e-11 0 0)
(4.324124e-12 0 0)
(2.8337673e-12 0 0)
(1.3280492e-11 0 0)
(1.9614507e-11 0 0)
(8.4981896e-12 0 0)
(5.0975355e-13 0 0)
(6.693711e-12 0 0)
(-7.1783437e-13 0 0)
(-6.376032e-12 0 0)
(-7.4797941e-12 0 0)
(4.2779949e-12 0 0)
(-7.3246227e-12 0 0)
(-6.3751428e-12 0 0)
(-1.4217189e-11 0 0)
(-1.3398982e-11 0 0)
(1.2284771e-12 0 0)
(5.113764e-12 0 0)
(-1.2120041e-11 0 0)
(-4.206745e-12 0 0)
(5.0634111e-12 0 0)
(1.0559657e-12 0 0)
(1.2315895e-12 0 0)
(-1.6506411e-12 0 0)
(1.7307389e-11 0 0)
(3.6078457e-12 0 0)
(5.8629439e-12 0 0)
(-1.257155e-13 0 0)
(8.132492e-12 0 0)
(-1.4734612e-11 0 0)
(-1.1296388e-11 0 0)
(-1.4436385e-11 0 0)
(-9.7488976e-12 0 0)
(-7.8597194e-12 0 0)
(-1.0920908e-11 0 0)
(-2.2467393e-11 0 0)
(6.2993356e-12 0 0)
(-6.5472096e-12 0 0)
(1.6460616e-11 0 0)
(1.0561769e-11 0 0)
(5.811146e-13 0 0)
(-1.3087972e-11 0 0)
(-6.8155361e-12 0 0)
(2.4024776e-11 0 0)
(-8.4479479e-12 0 0)
(-6.8063103e-12 0 0)
(-1.3780908e-12 0 0)
(1.0433386e-11 0 0)
(6.4500608e-12 0 0)
(2.8744498e-12 0 0)
(5.3795339e-12 0 0)
(-3.0860875e-12 0 0)
(-5.8211498e-13 0 0)
(-7.5342597e-12 0 0)
(-3.1292154e-12 0 0)
(-1.2706491e-11 0 0)
(-1.5407762e-11 0 0)
(-1.9882389e-11 0 0)
(-2.1644851e-11 0 0)
(-1.5608618e-11 0 0)
(-8.0191147e-12 0 0)
(-3.842159e-12 0 0)
(4.1033715e-12 0 0)
(5.7113294e-12 0 0)
(2.5299827e-12 0 0)
(1.3923853e-11 0 0)
(4.0771391e-12 0 0)
(8.629574e-12 0 0)
(-3.5702756e-13 0 0)
(-6.3204549e-12 0 0)
(-1.2931245e-11 0 0)
(2.0210072e-12 0 0)
(-8.4970781e-12 0 0)
(1.0536981e-11 0 0)
(6.8315423e-13 0 0)
(1.3917183e-11 0 0)
(9.0779704e-13 0 0)
(-4.0494617e-12 0 0)
(4.1578371e-12 0 0)
(-1.6909901e-11 0 0)
(-1.3562601e-11 0 0)
(-3.1345507e-14 0 0)
(1.4021001e-12 0 0)
(5.0810846e-12 0 0)
(1.0280549e-11 0 0)
(2.3570266e-11 0 0)
(4.2286424e-12 0 0)
(-6.5836682e-12 0 0)
(-1.2923242e-11 0 0)
(-7.8756145e-12 0 0)
(-9.9620915e-12 0 0)
(-4.4421698e-12 0 0)
(3.5324831e-13 0 0)
(1.9218576e-12 0 0)
(1.2289885e-11 0 0)
(6.5069718e-13 0 0)
(6.7575135e-12 0 0)
(1.910631e-11 0 0)
(2.0610116e-11 0 0)
(5.7311149e-12 0 0)
(1.233179e-11 0 0)
(9.5601577e-12 0 0)
(8.680038e-12 0 0)
(-9.2680442e-13 0 0)
(-1.2495298e-11 0 0)
(-1.6074021e-11 0 0)
(1.6696485e-12 0 0)
(5.5225894e-12 0 0)
(4.6671461e-12 0 0)
(1.0090364e-11 0 0)
(1.0146163e-11 0 0)
(-5.9844355e-12 0 0)
(-2.392307e-11 0 0)
(-1.6343237e-11 0 0)
(-4.2857757e-12 0 0)
(9.3827554e-12 0 0)
(1.0480293e-11 0 0)
(-5.1965739e-12 0 0)
(6.7004914e-12 0 0)
(3.7789122e-12 0 0)
(5.9802116e-12 0 0)
(-2.1198233e-12 0 0)
(1.8235972e-12 0 0)
(-9.9416392e-12 0 0)
(-5.9396403e-12 0 0)
(-7.9702068e-12 0 0)
(8.4790711e-12 0 0)
(-1.2914127e-11 0 0)
(-7.2850518e-13 0 0)
(-2.0443274e-11 0 0)
(-1.4582331e-11 0 0)
(-1.4496964e-11 0 0)
(-2.0086691e-11 0 0)
(-1.3126654e-11 0 0)
(4.8180936e-12 0 0)
(-8.5551006e-12 0 0)
(3.4635675e-12 0 0)
(-2.0142935e-11 0 0)
(6.8217607e-12 0 0)
(-5.2198052e-12 0 0)
(-6.2301976e-12 0 0)
(9.8578288e-12 0 0)
(-2.5154214e-12 0 0)
(9.152666e-12 0 0)
(4.9094624e-12 0 0)
(1.8763065e-11 0 0)
(8.2582075e-12 0 0)
(3.1516908e-11 0 0)
(1.827332e-11 0 0)
(2.3571711e-11 0 0)
(1.8033004e-11 0 0)
(1.7710434e-11 0 0)
(5.5410411e-12 0 0)
(6.4662893e-12 0 0)
(7.3902037e-12 0 0)
(-4.1204893e-13 0 0)
(2.471849e-12 0 0)
(-1.2352798e-11 0 0)
(-3.4882437e-12 0 0)
(-6.744842e-13 0 0)
(-4.9470326e-12 0 0)
(6.0843632e-12 0 0)
(-2.2293103e-12 0 0)
(-3.2786068e-12 0 0)
(4.6760384e-12 0 0)
(-1.1033841e-11 0 0)
(-7.3740863e-12 0 0)
(-7.8225939e-12 0 0)
(-1.7733554e-11 0 0)
(-2.509697e-11 0 0)
(-8.9067928e-12 0 0)
(-4.8469937e-12 0 0)
(2.3060068e-12 0 0)
(1.522358e-11 0 0)
(7.0285077e-12 0 0)
(7.3061711e-12 0 0)
(3.7710202e-12 0 0)
(-6.594339e-12 0 0)
(-7.4313308e-12 0 0)
(-2.7979756e-12 0 0)
(-1.2633129e-11 0 0)
(-1.9627846e-11 0 0)
(-1.4514526e-11 0 0)
(1.4930688e-11 0 0)
(2.2970922e-11 0 0)
(1.8389809e-11 0 0)
(2.1669861e-11 0 0)
(2.0688258e-11 0 0)
(7.3258454e-12 0 0)
(-2.4284988e-12 0 0)
(3.8952907e-12 0 0)
(2.1806247e-12 0 0)
(-8.0066654e-12 0 0)
(1.940865e-12 0 0)
(-5.4291087e-12 0 0)
(-7.8979565e-12 0 0)
(-5.8872866e-12 0 0)
(5.1708973e-13 0 0)
(-6.0607985e-12 0 0)
(-6.7094949e-12 0 0)
(-3.8797291e-12 0 0)
(-3.8499398e-12 0 0)
(1.3338514e-13 0 0)
(2.5220907e-12 0 0)
(-7.1070938e-12 0 0)
(6.9762652e-12 0 0)
(5.7295587e-12 0 0)
(4.6172378e-12 0 0)
(-5.604399e-13 0 0)
(1.6171614e-11 0 0)
(5.8164814e-12 0 0)
(1.2271211e-11 0 0)
(-5.6605319e-12 0 0)
(-7.5113619e-12 0 0)
(-2.6600332e-12 0 0)
(-1.7261593e-11 0 0)
(-1.2103368e-11 0 0)
(-1.9988208e-11 0 0)
(-1.2006775e-11 0 0)
(-6.2479823e-12 0 0)
(-7.1765652e-12 0 0)
(-3.6049557e-12 0 0)
(-1.0161947e-11 0 0)
(-5.7480103e-12 0 0)
(6.804643e-12 0 0)
(7.2014637e-12 0 0)
(6.2793278e-12 0 0)
(-3.6057338e-12 0 0)
(2.2241972e-12 0 0)
(1.2175951e-11 0 0)
(4.7496226e-12 0 0)
(7.3896479e-12 0 0)
(-9.1935708e-12 0 0)
(-2.3142322e-13 0 0)
(6.6121237e-12 0 0)
(-1.0888451e-11 0 0)
(-2.9149099e-12 0 0)
(-1.300394e-11 0 0)
(-8.156946e-12 0 0)
(1.1076524e-11 0 0)
(1.5717216e-11 0 0)
(1.5804138e-11 0 0)
(1.1666087e-11 0 0)
(9.0246163e-12 0 0)
(5.4887985e-12 0 0)
(3.1984423e-11 0 0)
(2.4131373e-11 0 0)
(1.8421155e-11 0 0)
(1.8974481e-11 0 0)
(3.4425593e-12 0 0)
(-2.2604335e-12 0 0)
(-4.5671072e-12 0 0)
(-1.5728109e-11 0 0)
(-1.4861439e-11 0 0)
(-1.9376526e-11 0 0)
(-2.0141823e-11 0 0)
(-2.271749e-11 0 0)
(-1.6544426e-11 0 0)
(-4.5533241e-12 0 0)
(-4.0004427e-12 0 0)
(-1.10992e-11 0 0)
(1.3600838e-11 0 0)
(4.9677073e-12 0 0)
(5.8809509e-12 0 0)
(9.8771697e-13 0 0)
(-1.249263e-11 0 0)
(-1.9502464e-11 0 0)
(-1.8966922e-11 0 0)
(-7.4917987e-13 0 0)
(3.7536802e-12 0 0)
(-1.0414712e-11 0 0)
(-7.3446305e-12 0 0)
(-1.3449668e-12 0 0)
(-1.7142214e-12 0 0)
(1.7566823e-12 0 0)
(6.0178929e-13 0 0)
(1.8922905e-12 0 0)
(-3.4611221e-12 0 0)
(6.8915656e-13 0 0)
(4.8778946e-12 0 0)
(1.1743672e-11 0 0)
(1.0420269e-11 0 0)
(4.5313155e-12 0 0)
(-1.3440109e-11 0 0)
(-1.1090974e-11 0 0)
(-6.0001082e-13 0 0)
(1.3194013e-12 0 0)
(5.050406e-12 0 0)
(5.2464823e-14 0 0)
(4.613792e-12 0 0)
(1.1528033e-11 0 0)
(2.245461e-11 0 0)
(3.5782787e-11 0 0)
(5.9348829e-11 0 0)
(1.3394358e-10 0 0)
(2.752299e-10 0 0)
(5.3670802e-10 0 0)
(1.0405061e-09 0 0)
(1.9962594e-09 0 0)
(3.8904551e-09 0 0)
(7.5538333e-09 0 0)
(1.4610485e-08 0 0)
(2.8085238e-08 0 0)
(5.3644216e-08 0 0)
(1.0186348e-07 0 0)
(1.9222351e-07 0 0)
(3.603191e-07 0 0)
(6.7076341e-07 0 0)
(1.2396531e-06 0 0)
(2.2736787e-06 0 0)
(4.1371966e-06 0 0)
(7.4654145e-06 0 0)
(1.3353363e-05 0 0)
(2.3665421e-05 0 0)
(4.1534619e-05 0 0)
(7.2151475e-05 0 0)
(0.00012398442 0 0)
(0.00021062238 0 0)
(0.00035348087 0 0)
(0.0005856525 0 0)
(0.00095718838 0 0)
(0.0015420347 0 0)
(0.0024466802 0 0)
(0.0038202616 0 0)
(0.0058654196 0 0)
(0.0088486552 0 0)
(0.013108424 0 0)
(0.019058943 0 0)
(0.027187857 0 0)
(0.038046583 0 0)
(0.052233368 0 0)
(0.070370266 0 0)
(0.093076213 0 0)
(0.1209384 0 0)
(0.15448303 0 0)
(0.19414471 0 0)
(0.24022668 0 0)
(0.29285939 0 0)
(0.35185328 0 0)
(0.41677731 0 0)
(0.48594567 0 0)
(0.55843425 0 0)
(0.6296437 0 0)
(0.6981992 0 0)
(0.76131184 0 0)
(0.81690724 0 0)
(0.86241354 0 0)
(0.89754861 0 0)
(0.92175062 0 0)
(0.92886409 0 0)
(0.92879016 0 0)
(0.92748925 0 0)
(0.92400707 0 0)
(0.91965362 0 0)
(0.91397782 0 0)
(0.90460856 0 0)
(0.88989326 0 0)
(0.86953373 0 0)
(0.84109907 0 0)
(0.8015487 0 0)
(0.75105277 0 0)
(0.68646654 0 0)
(0.60479395 0 0)
(0.50744051 0 0)
(0.39861761 0 0)
(0.28808324 0 0)
(0.18954984 0 0)
(0.11404466 0 0)
(0.063826243 0 0)
(0.033875123 0 0)
(0.017329956 0 0)
(0.00865734 0 0)
(0.0042612941 0 0)
(0.0020774468 0 0)
(0.0010057935 0 0)
(0.00048420345 0 0)
(0.00023191722 0 0)
(0.00011054276 0 0)
(5.2440616e-05 0 0)
(2.4761239e-05 0 0)
(1.1637701e-05 0 0)
(5.4447372e-06 0 0)
(2.535876e-06 0 0)
(1.1758402e-06 0 0)
(5.428386e-07 0 0)
(2.4953646e-07 0 0)
(1.1422144e-07 0 0)
(5.2078096e-08 0 0)
(2.3662425e-08 0 0)
(1.0707833e-08 0 0)
(4.8131183e-09 0 0)
(2.1691665e-09 0 0)
(9.4647686e-10 0 0)
(4.2490445e-10 0 0)
(1.9117318e-10 0 0)
(1.0178969e-10 0 0)
(4.7483925e-11 0 0)
(2.9958325e-11 0 0)
(1.2207295e-11 0 0)
(-1.0955942e-11 0 0)
(-2.0541767e-12 0 0)
(-2.3567479e-12 0 0)
(-1.5034105e-11 0 0)
(7.3935709e-12 0 0)
(2.0282705e-11 0 0)
(8.8426052e-12 0 0)
(1.3345877e-11 0 0)
(1.0366894e-11 0 0)
(-1.4431626e-11 0 0)
(-8.6839939e-12 0 0)
(-5.4009962e-12 0 0)
(-5.057912e-12 0 0)
(3.3101913e-12 0 0)
(-3.0464682e-12 0 0)
(3.1304356e-11 0 0)
(2.005783e-11 0 0)
(1.0026251e-11 0 0)
(-1.2574132e-11 0 0)
(-7.7089065e-12 0 0)
(-1.780353e-13 0 0)
(1.044459e-12 0 0)
(5.856185e-12 0 0)
(1.1325665e-11 0 0)
(-3.5180842e-12 0 0)
(1.5302157e-11 0 0)
(-1.9842168e-11 0 0)
(-1.7295841e-11 0 0)
(-2.8247455e-11 0 0)
(4.4980553e-12 0 0)
(-2.4889203e-11 0 0)
(-2.0329989e-11 0 0)
(-1.2552488e-11 0 0)
(-2.6511943e-11 0 0)
(-7.9115826e-12 0 0)
(1.1595937e-11 0 0)
(-4.6305829e-12 0 0)
(-8.8389423e-12 0 0)
(8.9824583e-12 0 0)
(-5.0217278e-12 0 0)
(-2.2192256e-12 0 0)
(1.4160466e-11 0 0)
(2.9413566e-14 0 0)
(1.3250311e-11 0 0)
(-7.1380614e-12 0 0)
(1.8760415e-11 0 0)
(1.9827628e-11 0 0)
(4.3926105e-12 0 0)
(-9.4229958e-12 0 0)
(8.1443383e-12 0 0)
(4.4417811e-12 0 0)
(1.3431676e-11 0 0)
(-9.4380911e-12 0 0)
(4.2564201e-12 0 0)
(-8.3636636e-12 0 0)
(-2.542575e-11 0 0)
(-3.4133275e-11 0 0)
(-2.5659838e-11 0 0)
(-5.5239782e-12 0 0)
(-6.3991705e-12 0 0)
(-1.7866131e-11 0 0)
(-1.0878024e-11 0 0)
(1.4313861e-12 0 0)
(-8.8469339e-12 0 0)
(1.423117e-11 0 0)
(2.7370819e-11 0 0)
(1.2980816e-11 0 0)
(-6.8627948e-12 0 0)
(-4.3084766e-12 0 0)
(-1.693078e-11 0 0)
(-1.218443e-11 0 0)
(1.1136308e-11 0 0)
(-6.5566718e-12 0 0)
(-2.1097628e-11 0 0)
(-2.3544281e-11 0 0)
(-4.1569024e-11 0 0)
(-2.0975534e-11 0 0)
(-8.8380544e-12 0 0)
(-6.5433524e-12 0 0)
(-4.0812707e-12 0 0)
(1.3044083e-12 0 0)
(-2.600159e-11 0 0)
(-1.0212389e-11 0 0)
(1.413183e-12 0 0)
(1.209064e-12 0 0)
(3.6194888e-11 0 0)
(5.9639607e-12 0 0)
(2.0879634e-11 0 0)
(2.2801394e-11 0 0)
(1.2843849e-11 0 0)
(8.5465829e-15 0 0)
(-9.5803861e-12 0 0)
(-7.9754045e-12 0 0)
(-6.2968335e-12 0 0)
(3.3705724e-12 0 0)
(2.0268498e-11 0 0)
(1.5251765e-12 0 0)
(-3.1677853e-12 0 0)
(9.6926017e-12 0 0)
(-1.4365695e-11 0 0)
(-1.6258486e-11 0 0)
(-1.2084313e-11 0 0)
(5.2044248e-12 0 0)
(-2.60027e-12 0 0)
(-1.4296102e-12 0 0)
(2.4646901e-11 0 0)
(1.2375119e-11 0 0)
(9.0038803e-12 0 0)
(-1.2355917e-12 0 0)
(2.1179986e-12 0 0)
(-1.6829664e-11 0 0)
(9.2252035e-12 0 0)
(-6.9584722e-12 0 0)
(-1.2879034e-11 0 0)
(-5.0272775e-12 0 0)
(-9.2035595e-12 0 0)
(4.505048e-12 0 0)
(1.8991839e-11 0 0)
(2.3495111e-11 0 0)
(1.2167115e-11 0 0)
(-3.8831454e-12 0 0)
(-1.3115231e-11 0 0)
(-1.4922666e-11 0 0)
(-3.1968548e-11 0 0)
(-2.6244668e-11 0 0)
(-1.7947823e-13 0 0)
(7.7940394e-13 0 0)
(-1.658703e-12 0 0)
(3.461477e-12 0 0)
(4.2607489e-12 0 0)
(-5.1888856e-12 0 0)
(-3.871047e-12 0 0)
(-2.3444164e-11 0 0)
(-2.4411371e-11 0 0)
(-1.7477761e-11 0 0)
(-6.8094065e-12 0 0)
(-3.5130006e-11 0 0)
(-2.0028195e-11 0 0)
(-7.1481619e-12 0 0)
(-9.95133e-12 0 0)
(-6.9551423e-12 0 0)
(-2.3056904e-12 0 0)
(-4.0168938e-12 0 0)
(-1.8061038e-12 0 0)
(-3.6026621e-12 0 0)
(-1.6562389e-11 0 0)
(-2.9092789e-12 0 0)
(8.5008529e-12 0 0)
(1.266992e-11 0 0)
(2.2514362e-11 0 0)
(1.6003198e-11 0 0)
(1.6131175e-11 0 0)
(2.0135416e-11 0 0)
(-3.3282835e-12 0 0)
(-1.5332458e-11 0 0)
(-9.7855041e-12 0 0)
(3.0334818e-13 0 0)
(-1.004845e-11 0 0)
(4.526248e-12 0 0)
(1.2836634e-11 0 0)
(2.1360796e-11 0 0)
(-1.6306991e-11 0 0)
(5.3777984e-12 0 0)
(-8.6064087e-12 0 0)
(-1.2509089e-12 0 0)
(-4.5299885e-11 0 0)
(-3.4022059e-12 0 0)
(1.0251015e-11 0 0)
(1.5508163e-11 0 0)
(1.9567345e-11 0 0)
(2.4595844e-11 0 0)
(5.2888917e-13 0 0)
(-3.7998994e-12 0 0)
(-9.1566088e-12 0 0)
(-1.9935736e-12 0 0)
(-3.153689e-12 0 0)
(-1.4926329e-11 0 0)
(-1.7949266e-11 0 0)
(-1.9884901e-11 0 0)
(1.7113588e-11 0 0)
(-5.1288375e-12 0 0)
(5.3126446e-12 0 0)
(-3.2339492e-11 0 0)
(-5.8419777e-12 0 0)
(1.227478e-11 0 0)
(4.2559762e-12 0 0)
(-1.4965399e-12 0 0)
(-9.0729189e-12 0 0)
(4.8833175e-12 0 0)
(5.7484093e-13 0 0)
(-3.8581716e-13 0 0)
(-1.4905462e-11 0 0)
(-2.6950594e-11 0 0)
(-4.6398953e-11 0 0)
(-2.0589938e-11 0 0)
(-2.8740936e-12 0 0)
(2.2440773e-11 0 0)
(2.6850366e-11 0 0)
(6.9051948e-12 0 0)
(-2.3415749e-11 0 0)
(-1.5893536e-11 0 0)
(-1.4440395e-13 0 0)
(-5.2356143e-13 0 0)
(-8.5236067e-12 0 0)
(1.4820329e-11 0 0)
(3.5869008e-12 0 0)
(6.3406763e-12 0 0)
(6.5905251e-12 0 0)
(-3.7715958e-13 0 0)
(-5.8816028e-13 0 0)
(-4.2878316e-12 0 0)
(1.7974462e-12 0 0)
(1.0835735e-11 0 0)
(-1.3649558e-11 0 0)
(-6.7186129e-12 0 0)
(-1.3414805e-11 0 0)
(-2.5887599e-11 0 0)
(-6.1112506e-12 0 0)
(-1.4342609e-11 0 0)
(-6.6420266e-12 0 0)
(-6.4321359e-12 0 0)
(-1.2862163e-11 0 0)
(8.7946555e-12 0 0)
(-7.7054657e-12 0 0)
(-1.3674421e-11 0 0)
(-1.1161504e-11 0 0)
(1.3191706e-12 0 0)
(-7.7354342e-12 0 0)
(8.7262828e-12 0 0)
(6.55312e-13 0 0)
(5.2702446e-12 0 0)
(-3.467959e-11 0 0)
(-2.5043929e-11 0 0)
(-1.4462261e-11 0 0)
(-1.945624e-11 0 0)
(-2.5710784e-11 0 0)
(7.5738261e-12 0 0)
(-1.4568039e-12 0 0)
(-1.1361294e-11 0 0)
(1.7724058e-11 0 0)
(-1.0634835e-11 0 0)
(-1.0266998e-13 0 0)
(2.2890523e-11 0 0)
(1.9150783e-11 0 0)
(2.2226443e-11 0 0)
(-3.4066456e-12 0 0)
(-1.5222685e-11 0 0)
(2.9966317e-12 0 0)
(-9.665963e-12 0 0)
(-1.9570231e-11 0 0)
(-1.9212829e-11 0 0)
(1.789166e-11 0 0)
(4.2518694e-12 0 0)
(-4.5315757e-12 0 0)
(1.2051791e-12 0 0)
(-2.0509578e-11 0 0)
(5.4823553e-12 0 0)
(-2.8722511e-11 0 0)
(-6.3951747e-12 0 0)
(5.3885648e-12 0 0)
(-8.4008467e-12 0 0)
(-1.3130548e-11 0 0)
(-9.4171131e-12 0 0)
(-2.2376507e-12 0 0)
(1.4220404e-11 0 0)
(-1.1723679e-22 0 0)
(-1.7540251e-11 0 0)
(1.9874689e-11 0 0)
(3.297316e-12 0 0)
(-1.4268686e-11 0 0)
(-2.3174558e-11 0 0)
(-5.7924297e-11 0 0)
(-2.3526744e-11 0 0)
(5.4798024e-13 0 0)
(-8.8214052e-12 0 0)
(-2.2133429e-12 0 0)
(-1.4069673e-12 0 0)
(5.9081305e-12 0 0)
(5.7203276e-12 0 0)
(1.585491e-11 0 0)
(1.3556767e-11 0 0)
(2.3502325e-11 0 0)
(8.5680046e-12 0 0)
(8.5286015e-12 0 0)
(-5.6489581e-12 0 0)
(-7.2659272e-12 0 0)
(1.3321569e-12 0 0)
(-2.0121763e-11 0 0)
(-1.7595083e-11 0 0)
(-1.4349712e-11 0 0)
(1.4884373e-12 0 0)
(-3.4571482e-12 0 0)
(-2.4037208e-11 0 0)
(-2.5708564e-12 0 0)
(-4.505492e-12 0 0)
(-1.8173808e-11 0 0)
(-2.3495333e-11 0 0)
(-8.7944335e-12 0 0)
(-1.6173686e-11 0 0)
(-6.3191434e-12 0 0)
(1.2062669e-11 0 0)
(1.4654281e-11 0 0)
(3.5950922e-11 0 0)
(3.0635614e-12 0 0)
(2.2152076e-11 0 0)
(4.1449816e-12 0 0)
(1.0964822e-11 0 0)
(4.7834224e-12 0 0)
(2.2493717e-11 0 0)
(1.6177793e-11 0 0)
(1.7892104e-11 0 0)
(3.0751492e-11 0 0)
(1.8134849e-11 0 0)
(-7.5948041e-12 0 0)
(-4.4141434e-12 0 0)
(-2.4783536e-11 0 0)
(-3.1340651e-11 0 0)
(-2.6086168e-11 0 0)
(-2.0622904e-11 0 0)
(2.8064979e-12 0 0)
(1.3033538e-11 0 0)
(1.5638026e-11 0 0)
(5.9574121e-12 0 0)
(2.744452e-12 0 0)
(1.583593e-11 0 0)
(2.5628648e-13 0 0)
(-2.2251083e-12 0 0)
(-1.2363575e-11 0 0)
(-3.3315023e-11 0 0)
(-1.6624324e-11 0 0)
(-2.2167948e-11 0 0)
(-2.1136587e-11 0 0)
(-4.2099356e-11 0 0)
(-2.9758313e-11 0 0)
(-2.2495493e-11 0 0)
(5.7718291e-12 0 0)
(-1.1683733e-11 0 0)
(-7.2751224e-22 0 0)
(-3.9603976e-12 0 0)
(4.1026926e-12 0 0)
(8.8348355e-12 0 0)
(1.2741068e-12 0 0)
(-9.686497e-12 0 0)
(8.3092762e-12 0 0)
(3.9224374e-12 0 0)
(1.003835e-12 0 0)
(8.1633183e-12 0 0)
(-6.4931828e-14 0 0)
(3.6468379e-12 0 0)
(-7.2479459e-14 0 0)
(6.7262715e-13 0 0)
(-2.1362794e-11 0 0)
(-1.5249878e-11 0 0)
(-1.9323268e-11 0 0)
(7.7873797e-12 0 0)
(-6.2233551e-12 0 0)
(1.25092e-11 0 0)
(2.4353432e-11 0 0)
(-1.3631244e-11 0 0)
(-7.2649282e-12 0 0)
(-2.4664106e-12 0 0)
(-1.4661052e-11 0 0)
(1.1051841e-11 0 0)
(5.6255383e-12 0 0)
(-1.4913232e-11 0 0)
(-1.2722421e-11 0 0)
(1.78224e-12 0 0)
(2.8747595e-14 0 0)
(-9.9998346e-12 0 0)
(-6.6823177e-12 0 0)
(-1.0664359e-11 0 0)
(-1.2258241e-11 0 0)
(-7.0892238e-13 0 0)
(-1.9671791e-11 0 0)
(-6.4452332e-12 0 0)
(9.0239703e-12 0 0)
(1.1776303e-11 0 0)
(-4.2288935e-13 0 0)
(1.14401e-11 0 0)
(1.6221747e-11 0 0)
(-9.9445593e-12 0 0)
(-4.2855007e-13 0 0)
(1.7592641e-11 0 0)
(2.4515484e-11 0 0)
(2.6359215e-11 0 0)
(-1.0274435e-11 0 0)
(-1.1152735e-12 0 0)
(-3.4737974e-12 0 0)
(-3.747399e-12 0 0)
(-1.4843749e-11 0 0)
(-6.9853329e-12 0 0)
(-2.7192229e-11 0 0)
(-2.5078115e-11 0 0)
(-7.2302979e-12 0 0)
(-5.8525222e-12 0 0)
(-1.5339895e-11 0 0)
(-8.1925099e-12 0 0)
(6.7413668e-12 0 0)
(-7.6214428e-12 0 0)
(-4.893751e-13 0 0)
(2.2930592e-11 0 0)
(1.5946258e-11 0 0)
(-8.4940822e-12 0 0)
(-1.3739575e-11 0 0)
(1.6050926e-12 0 0)
(-3.9878133e-12 0 0)
(6.347336e-12 0 0)
(5.4165355e-13 0 0)
(1.6722776e-11 0 0)
(1.6951203e-11 0 0)
(3.6900148e-11 0 0)
(5.2045358e-13 0 0)
(5.9503084e-12 0 0)
(-2.2385387e-12 0 0)
(-1.1619357e-11 0 0)
(1.8313551e-11 0 0)
(1.5662556e-11 0 0)
(3.9803766e-12 0 0)
(-9.1587177e-12 0 0)
(1.0283648e-12 0 0)
(-3.0190526e-13 0 0)
(-1.107515e-11 0 0)
(-1.2963945e-11 0 0)
(1.3917499e-11 0 0)
(-5.857184e-12 0 0)
(-9.521892e-12 0 0)
(-2.4924388e-11 0 0)
(-1.0276544e-11 0 0)
(-6.4255872e-12 0 0)
(-1.4103304e-11 0 0)
(4.3012064e-11 0 0)
(2.7503347e-12 0 0)
(-6.7443636e-12 0 0)
(-4.6561782e-11 0 0)
(-3.1415684e-11 0 0)
(-1.8334196e-11 0 0)
(-7.2398434e-12 0 0)
(-1.2008504e-11 0 0)
(-6.4554448e-13 0 0)
(-7.8522005e-12 0 0)
(2.2718371e-11 0 0)
(2.9197013e-11 0 0)
(1.9994453e-11 0 0)
(2.1948845e-11 0 0)
(1.5711727e-11 0 0)
(1.095813e-21 0 0)
)
;

boundaryField
{
    sides
    {
        type            zeroGradient;
    }
    emptywalls
    {
        type            empty;
    }
}


// ************************************************************************* //
