/*--------------------------------*- C++ -*----------------------------------*\
| =========                 |                                                 |
| \\      /  F ield         | OpenFOAM: The Open Source CFD Toolbox           |
|  \\    /   O peration     | Version:  2112                                  |
|   \\  /    A nd           | Website:  www.openfoam.com                      |
|    \\/     M anipulation  |                                                 |
\*---------------------------------------------------------------------------*/
FoamFile
{
    version     2.0;
    format      ascii;
    arch        "LSB;label=32;scalar=64";
    class       volScalarField;
    location    "6.4995";
    object      Ma;
}
// * * * * * * * * * * * * * * * * * * * * * * * * * * * * * * * * * * * * * //

dimensions      [0 0 0 0 0 0 0];

internalField   nonuniform List<scalar> 
7000
(
3.00001
3.00001
3
3
3
3
3.00001
2.99999
2.99994
2.9995
2.99903
2.99607
2.99356
2.97751
2.96162
2.88787
2.72711
2.32666
1.57001
0.695586
0.242402
0.35689
0.425543
0.429834
0.412533
0.3918
0.373471
0.358159
0.344113
0.330151
0.315503
0.300265
0.284639
0.268796
0.252823
0.236833
0.220964
0.205347
0.190068
0.175184
0.16069
0.146534
0.132607
0.118674
0.104607
0.090026
0.0745078
0.058228
0.0387447
0.0238737
3.00001
3
3
3
3
3
3.00001
2.99999
2.99994
2.99953
2.99907
2.99627
2.9939
2.97886
2.96382
2.8948
2.73453
2.34724
1.58952
0.714417
0.24555
0.351911
0.419029
0.42357
0.406979
0.386469
0.367579
0.351706
0.337164
0.322643
0.307431
0.291726
0.275789
0.259833
0.243938
0.22817
0.212606
0.197305
0.182291
0.167589
0.153172
0.139006
0.125003
0.110979
0.096917
0.0825854
0.067886
0.0536287
0.0391353
0.0342361
3.00001
3
3
3
3
3
3.00001
2.99999
2.99994
2.99954
2.99912
2.99643
2.99418
2.97966
2.96515
2.89766
2.73981
2.35656
1.59711
0.718048
0.238749
0.344226
0.41064
0.416195
0.401165
0.381507
0.362464
0.34646
0.331984
0.317425
0.302179
0.28642
0.270472
0.254517
0.238651
0.222944
0.207475
0.192305
0.177461
0.162958
0.148755
0.134834
0.121117
0.107478
0.0940664
0.0808483
0.0682279
0.0576001
0.0494456
0.0503704
3.00001
3
3
3
3
3
3.00001
2.99999
2.99995
2.99957
2.99917
2.99664
2.99454
2.98076
2.96695
2.90207
2.7464
2.36969
1.61191
0.735039
0.251084
0.34573
0.407879
0.413105
0.399032
0.379728
0.360001
0.343434
0.328634
0.313821
0.298357
0.28244
0.266406
0.250417
0.234577
0.21895
0.203615
0.188624
0.174021
0.159843
0.146052
0.13266
0.119595
0.106835
0.0946615
0.0832421
0.0732922
0.066246
0.0624663
0.0657872
3.00001
3
3
3
3
3
3.00001
2.99999
2.99995
2.9996
2.99924
2.99687
2.99494
2.98197
2.9689
2.90658
2.75313
2.38279
1.62538
0.748929
0.25891
0.344968
0.403335
0.40975
0.397592
0.379147
0.359073
0.342188
0.327158
0.312085
0.296345
0.280212
0.264001
0.247892
0.231994
0.216393
0.20119
0.18644
0.172188
0.158463
0.145241
0.132567
0.120415
0.108851
0.0982141
0.0887926
0.081407
0.0772136
0.076164
0.0804702
3.00001
3
3
3
3
3
3.00001
2.99999
2.99995
2.99964
2.99931
2.99715
2.99541
2.98353
2.97124
2.91198
2.76111
2.39699
1.64022
0.76572
0.270965
0.345394
0.398397
0.407205
0.396847
0.379105
0.358569
0.341295
0.326066
0.31083
0.294937
0.278719
0.262509
0.246503
0.230793
0.215433
0.200513
0.186109
0.1723
0.15913
0.146585
0.134763
0.123607
0.113342
0.104323
0.096859
0.0916933
0.0895458
0.0901985
0.0950093
3.00001
3
3
3
3
3
3
2.99999
2.99996
2.99967
2.99936
2.99744
2.99589
2.98539
2.97396
2.91996
2.76884
2.41054
1.6545
0.785787
0.286737
0.346955
0.39371
0.405523
0.396562
0.379165
0.358082
0.340414
0.325056
0.309787
0.293974
0.277951
0.262057
0.246478
0.231273
0.216478
0.202121
0.188259
0.174968
0.162345
0.15044
0.139383
0.129247
0.120226
0.112689
0.106878
0.103471
0.102841
0.104639
0.109603
3.00001
3
3
3
3
3
3
2.99999
2.99994
2.99975
2.99935
2.99789
2.99634
2.98785
2.97719
2.92606
2.77269
2.42668
1.67403
0.811413
0.304542
0.348539
0.389693
0.404702
0.396926
0.379777
0.358271
0.34021
0.324781
0.309604
0.294086
0.278548
0.263327
0.248521
0.234109
0.220086
0.206469
0.193248
0.180545
0.168437
0.157047
0.146618
0.13722
0.129245
0.122939
0.118555
0.116504
0.116901
0.119463
0.124625
3.00001
3
3
3
3
3
3
2.99999
2.99989
2.99972
2.99877
2.99811
2.99187
2.99239
2.97609
2.9343
2.78069
2.44687
1.69885
0.838301
0.322151
0.348959
0.38681
0.403969
0.397194
0.380146
0.358486
0.340422
0.325277
0.310618
0.295775
0.281086
0.26683
0.253034
0.239601
0.226456
0.213613
0.201061
0.188874
0.177227
0.166273
0.156362
0.147605
0.14041
0.135071
0.131696
0.130684
0.131954
0.13508
0.14016
3.00001
3.00001
3
3
3
3
3
2.99999
2.99988
2.99972
2.99882
2.99823
2.99225
2.99349
2.97819
2.94079
2.79279
2.46879
1.72824
0.871326
0.341688
0.349219
0.386479
0.404177
0.397579
0.380359
0.35868
0.341114
0.326746
0.313003
0.299226
0.285732
0.272714
0.260115
0.247793
0.235651
0.223615
0.211727
0.200129
0.188845
0.178235
0.168639
0.160331
0.153769
0.149085
0.146503
0.146212
0.147958
0.151482
0.156753
3.00001
3.00001
3
3
3
3
3
2.99999
2.99988
2.99973
2.99888
2.99822
2.99276
2.99402
2.97958
2.94884
2.80669
2.49402
1.76173
0.909085
0.363697
0.349999
0.386593
0.404733
0.398019
0.380526
0.359066
0.342524
0.329411
0.317028
0.304745
0.292778
0.281202
0.269891
0.258663
0.247409
0.23614
0.224751
0.213598
0.202803
0.192582
0.183355
0.17536
0.169177
0.165034
0.162986
0.16321
0.165515
0.169357
0.174405
3.00001
3.00001
3
3
3
3
3
2.99999
2.99991
2.99978
2.99911
2.99849
2.99444
2.9936
2.97971
2.95831
2.82193
2.51927
1.79891
0.954222
0.391808
0.351253
0.386638
0.405314
0.398427
0.380951
0.36028
0.345361
0.333941
0.323279
0.31269
0.302296
0.292106
0.281947
0.271699
0.261323
0.250818
0.240147
0.229474
0.219055
0.209301
0.200458
0.192771
0.186975
0.183163
0.18149
0.18216
0.18458
0.188631
0.194016
3.00001
3.00001
3.00001
3
3
3
3
2.99999
2.99991
2.9998
2.99919
2.99874
2.99492
2.9951
2.98391
2.96361
2.8394
2.54545
1.84334
1.01111
0.425713
0.351437
0.38574
0.40537
0.398865
0.382172
0.363122
0.350286
0.340846
0.332046
0.323213
0.314494
0.305709
0.296578
0.287082
0.277337
0.267431
0.257421
0.247413
0.237587
0.228243
0.219961
0.212722
0.207159
0.20367
0.202332
0.203237
0.206199
0.210526
0.215489
3.00001
3.00001
3.00001
3.00001
3.00001
3
3
2.99998
2.99994
2.99979
2.9993
2.99892
2.99516
2.99698
2.97426
2.97397
2.85273
2.58108
1.89829
1.0796
0.461437
0.347234
0.382306
0.404511
0.399868
0.385284
0.369001
0.358663
0.351429
0.344602
0.337303
0.329638
0.32159
0.313156
0.304394
0.295349
0.286063
0.276618
0.267318
0.258202
0.249634
0.241822
0.235281
0.230347
0.227111
0.226099
0.227416
0.230359
0.234781
0.24043
3.00001
3.00001
3.00001
3.00001
3.00001
3
3
2.99998
2.99995
2.99976
2.99955
2.99865
2.99674
2.99491
2.97839
2.97819
2.85544
2.61348
1.96066
1.1614
0.499254
0.335214
0.373631
0.400856
0.400261
0.389707
0.37723
0.369866
0.36509
0.360041
0.353991
0.347267
0.339871
0.332028
0.323772
0.315294
0.306698
0.297999
0.28945
0.281151
0.273437
0.266584
0.260589
0.256307
0.253861
0.253246
0.254967
0.258725
0.263738
0.268794
3.00001
3.00001
3.00001
3.00001
3.00001
3.00001
3
2.99998
2.99995
2.99977
2.9996
2.9987
2.99755
2.99442
2.98038
2.97829
2.86936
2.66249
2.03905
1.25802
0.553845
0.329573
0.369778
0.403369
0.40737
0.400621
0.391554
0.386161
0.38244
0.378172
0.372968
0.367023
0.360376
0.353233
0.345657
0.337753
0.329847
0.321917
0.314259
0.306871
0.300123
0.294339
0.289557
0.286196
0.284565
0.284986
0.287606
0.291777
0.297194
0.303623
3.00001
3.00001
3.00001
3.00001
3.00001
3
3
2.99996
2.99992
2.99973
2.99948
2.99863
2.99722
2.9929
2.9897
2.95989
2.89231
2.68283
2.25306
1.40969
0.707199
0.387243
0.418208
0.446649
0.446198
0.434242
0.421501
0.412221
0.405917
0.400476
0.394948
0.389185
0.383058
0.376615
0.369909
0.362934
0.355886
0.348889
0.342184
0.335919
0.330266
0.325612
0.322222
0.320432
0.320275
0.322
0.326266
0.332687
0.339998
0.34637
3.00001
3.00001
3.00001
3.00001
3.00001
3
3
2.99997
2.99994
2.99975
2.99956
2.99857
2.99741
2.99087
2.98988
2.97272
2.91813
2.75271
2.38329
1.63365
0.815363
0.411272
0.442706
0.470291
0.476292
0.465177
0.451309
0.43865
0.430082
0.423532
0.417643
0.412077
0.406585
0.401098
0.395569
0.390031
0.384361
0.378765
0.373432
0.368606
0.364627
0.361622
0.35992
0.36002
0.362373
0.366867
0.373892
0.383122
0.393997
0.405208
3.00001
3.00001
3.00001
3.00001
3.00001
3
3
2.99998
2.99995
2.99982
2.99967
2.99897
2.99818
2.99313
2.99253
2.97716
2.94719
2.80257
2.47608
1.74078
0.903964
0.431246
0.438562
0.467799
0.482671
0.477012
0.46581
0.45394
0.445997
0.440622
0.436148
0.432045
0.428228
0.424563
0.42099
0.417298
0.413741
0.410142
0.407118
0.404543
0.402628
0.402058
0.402952
0.405898
0.411367
0.420292
0.433131
0.450243
0.470142
0.491609
3.00001
3.00001
3.00001
3.00001
3.00001
3.00001
3
3
2.99998
2.99995
2.99988
2.99938
2.99867
2.99422
2.99563
2.9711
2.97557
2.84301
2.55811
1.85462
1.03107
0.483052
0.416893
0.44749
0.471394
0.473113
0.465754
0.457238
0.451795
0.449292
0.447997
0.446851
0.445751
0.444691
0.443706
0.442681
0.441979
0.441514
0.441203
0.441657
0.442845
0.445459
0.450244
0.457586
0.468776
0.484083
0.506253
0.538308
0.585176
0.672304
3.00001
3.00001
3.00001
3.00001
3.00001
3.00001
3
3
2.99998
2.99996
2.99982
2.99967
2.9983
2.99622
2.98319
2.98162
2.9513
2.86088
2.59176
2.08595
1.17301
0.623324
0.436204
0.462116
0.490577
0.496338
0.489716
0.481262
0.474691
0.471421
0.470211
0.469945
0.470156
0.471029
0.472599
0.47482
0.477533
0.480836
0.484658
0.489605
0.495887
0.504123
0.515121
0.530249
0.550534
0.57958
0.618622
0.676901
0.76805
0.889519
3.00001
3.00001
3.00001
3.00001
3.00001
3.00001
3.00001
3
2.99999
2.99998
2.99989
2.99984
2.99886
2.99753
2.98856
2.98819
2.96659
2.9006
2.72517
2.32958
1.57174
0.792565
0.444778
0.478271
0.516201
0.528431
0.523569
0.514581
0.506219
0.500916
0.498144
0.496923
0.497149
0.498874
0.50186
0.505773
0.510825
0.517013
0.524492
0.533723
0.54468
0.558702
0.57547
0.597693
0.625818
0.663401
0.71436
0.780445
0.880448
0.98449
3.00001
3.00001
3.00001
3.00001
3.00001
3.00001
3.00001
3.00001
3
2.99999
2.99994
2.9999
2.99938
2.99857
2.99374
2.99295
2.97693
2.94695
2.79957
2.45812
1.71477
0.886863
0.446527
0.476181
0.516095
0.541093
0.542838
0.535603
0.528188
0.523227
0.520472
0.519567
0.520429
0.523519
0.527512
0.533159
0.540164
0.549271
0.559869
0.572915
0.588109
0.606336
0.6283
0.654328
0.687264
0.726172
0.777149
0.83578
0.915478
0.988601
3.00001
3.00001
3.00001
3.00001
3.00001
3.00001
3.00001
3.00001
3
3
2.99996
2.99992
2.99958
2.99905
2.99581
2.99449
2.97244
2.97306
2.83703
2.55291
1.86894
1.05693
0.521025
0.469838
0.505988
0.535824
0.542857
0.539987
0.536235
0.534088
0.533488
0.534615
0.537833
0.542663
0.548308
0.555459
0.564232
0.574967
0.587984
0.603041
0.621237
0.641605
0.666321
0.693688
0.727253
0.764001
0.809659
0.858006
0.919529
0.975105
3.00001
3.00001
3.00001
3.00001
3.00001
3.00001
3.00001
3.00001
3
3
2.99997
2.99996
2.99974
2.99951
2.99767
2.99586
2.97807
2.97303
2.86628
2.6293
2.02858
1.24389
0.633081
0.479124
0.505681
0.5344
0.546122
0.547116
0.545828
0.545222
0.54592
0.5486
0.553472
0.559556
0.566514
0.574854
0.585185
0.596998
0.611348
0.62726
0.646412
0.667225
0.692017
0.718557
0.750188
0.783503
0.82271
0.865155
0.913218
0.957536
3.00001
3.00001
3.00001
3.00001
3.00001
3.00001
3.00001
3.00001
3.00001
3
2.99999
2.99994
2.99991
2.99928
2.99843
2.99274
2.99136
2.97237
2.92901
2.75911
2.38258
1.62756
0.854275
0.509483
0.523254
0.549862
0.569599
0.571818
0.568972
0.566934
0.566435
0.568797
0.573446
0.579133
0.586291
0.594405
0.604949
0.616652
0.631365
0.647196
0.666185
0.686529
0.710077
0.73532
0.763668
0.794208
0.828182
0.864351
0.903034
0.938758
3.00001
3.00001
3.00001
3.00001
3.00001
3.00001
3.00001
3.00001
3.00001
3
2.99999
2.99994
2.99989
2.99937
2.99856
2.99336
2.99476
2.96877
2.97175
2.82869
2.51792
1.81236
1.01132
0.539936
0.522268
0.554501
0.58049
0.587484
0.585764
0.583788
0.583621
0.586286
0.591398
0.597033
0.603975
0.611898
0.622118
0.633617
0.647876
0.663323
0.681326
0.700727
0.722589
0.746001
0.771752
0.799406
0.829278
0.859844
0.892268
0.922697
3.00001
3.00001
3.00001
3.00001
3.00001
3.00001
3.00001
3.00001
3.00001
3
3
2.99996
2.99995
2.99969
2.99943
2.99733
2.99573
2.97775
2.97398
2.86438
2.62571
2.02516
1.25329
0.654448
0.524335
0.549075
0.575169
0.589282
0.592278
0.592565
0.594279
0.598562
0.60486
0.611509
0.619176
0.627445
0.637491
0.648603
0.661922
0.676563
0.693323
0.711335
0.731349
0.752716
0.775963
0.800675
0.826454
0.85317
0.88114
0.907369
3.00001
3.00001
3.00001
3.00001
3.00001
3.00001
3.00001
3.00001
3
3
2.99998
2.99997
2.99986
2.99976
2.99914
2.99847
2.99523
2.98823
2.97829
2.89869
2.74196
2.30252
1.60385
0.805684
0.538853
0.551647
0.577257
0.598269
0.604134
0.605378
0.607494
0.611688
0.617967
0.625281
0.633611
0.642397
0.652555
0.663431
0.67569
0.689031
0.704164
0.720707
0.738505
0.757938
0.778592
0.800481
0.822843
0.846202
0.870543
0.893147
3.00001
3.00001
3.00001
3.00001
3.00001
3.00001
3.00001
3.00001
3.00001
3.00001
2.99999
2.99998
2.99988
2.99986
2.99959
2.99912
2.99505
2.99504
2.96867
2.97578
2.8272
2.5298
1.83364
1.0348
0.574127
0.547055
0.576027
0.602497
0.613394
0.617062
0.620043
0.62439
0.630463
0.637944
0.646427
0.655647
0.66574
0.676714
0.688479
0.701282
0.714761
0.729521
0.745441
0.762696
0.780784
0.799538
0.819078
0.839391
0.860556
0.880112
3.00001
3.00001
3.00001
3.00001
3.00001
3.00001
3.00001
3.00001
3.00001
3.00001
3
3
2.99997
2.99994
2.99972
2.99944
2.9975
2.99601
2.97981
2.97582
2.874
2.64951
2.05553
1.29025
0.689793
0.549609
0.565817
0.591054
0.611598
0.621114
0.626869
0.632617
0.639353
0.647151
0.655771
0.665181
0.675309
0.686219
0.69765
0.709828
0.722628
0.736285
0.750821
0.766164
0.781859
0.798334
0.815502
0.833124
0.851522
0.868349
3.00001
3.00001
3.00001
3.00001
3.00001
3.00001
3.00001
3.00001
3.00001
3.00001
3.00001
3
2.99999
2.99993
2.99986
2.99928
2.99846
2.99303
2.99748
2.97055
2.95605
2.79725
2.433
1.68599
0.912079
0.54966
0.550465
0.581165
0.611704
0.625982
0.632915
0.638935
0.645813
0.653355
0.661563
0.670525
0.680398
0.690945
0.702134
0.713812
0.726197
0.739215
0.752565
0.766233
0.780527
0.795222
0.810631
0.826318
0.842464
0.857289
3.00001
3.00001
3.00001
3.00001
3.00001
3.00001
3.00001
3.00001
3.00001
3.00001
3.00001
3
2.99999
2.99998
2.99986
2.99969
2.99871
2.99799
2.99237
2.97807
2.94184
2.82447
2.53134
1.93588
1.08306
0.637094
0.552873
0.578507
0.609027
0.629693
0.63998
0.646038
0.651941
0.659054
0.66699
0.675269
0.68426
0.693901
0.704315
0.715325
0.726764
0.73834
0.750282
0.762508
0.775436
0.788839
0.802572
0.816691
0.83101
0.844239
3.00001
3.00001
3.00001
3.00001
3.00001
3.00001
3.00001
3.00001
3.00001
3.00001
3.00001
3
3
2.99997
2.99995
2.9997
2.99941
2.9972
2.99616
2.98101
2.98489
2.88549
2.70444
2.18408
1.4579
0.734881
0.525042
0.548737
0.585187
0.616892
0.632429
0.641078
0.649041
0.657438
0.66587
0.674619
0.683816
0.693525
0.703372
0.71348
0.723646
0.733957
0.74483
0.756128
0.767812
0.779968
0.792333
0.805022
0.817888
0.829756
3.00001
3.00001
3.00001
3.00001
3.00001
3.00001
3.00001
3.00001
3.00001
3.00001
3.00001
3
3
2.99998
2.99997
2.99977
2.99951
2.99773
2.99707
2.98404
2.98792
2.9144
2.76773
2.41735
1.74343
0.882334
0.542175
0.535472
0.573545
0.610885
0.629547
0.63893
0.645736
0.652921
0.661838
0.671388
0.680837
0.690212
0.699587
0.708926
0.718541
0.72835
0.738404
0.748868
0.759531
0.770622
0.781848
0.793335
0.804969
0.81565
3.00001
3.00001
3.00001
3.00001
3.00001
3.00001
3.00001
3.00001
3.00001
3.00001
3.00001
3.00001
3
3
2.99996
2.99994
2.99961
2.99932
2.99638
2.9951
2.97392
2.97975
2.84865
2.60636
1.94206
1.16728
0.612172
0.520716
0.551727
0.591066
0.616488
0.628561
0.636204
0.643608
0.651737
0.660583
0.670152
0.67985
0.689712
0.699585
0.709528
0.719492
0.729449
0.739593
0.74975
0.760128
0.77056
0.78118
0.791883
0.801692
3.00001
3.00001
3.00001
3.00001
3.00001
3.00001
3.00001
3.00001
3.00001
3.00001
3.00001
3.00001
3
3
2.99997
2.99996
2.9997
2.99945
2.99729
2.99635
2.98158
2.98528
2.89028
2.71155
2.18204
1.46042
0.716076
0.500761
0.526466
0.567507
0.602107
0.617454
0.625054
0.631478
0.638782
0.647226
0.656133
0.665484
0.675343
0.685349
0.695463
0.705814
0.716085
0.726462
0.736865
0.747228
0.757527
0.767874
0.778197
0.78764
3.00001
3.00001
3.00001
3.00001
3.00001
3.00001
3.00001
3.00001
3.00001
3.00001
3.00001
3.00001
3.00001
3
2.99999
2.99993
2.99987
2.99933
2.99861
2.99304
2.99405
2.96251
2.97377
2.80236
2.4694
1.74031
0.94899
0.519645
0.515224
0.55231
0.58872
0.604682
0.610847
0.61577
0.622235
0.630269
0.639139
0.648653
0.658563
0.668804
0.679009
0.689345
0.699736
0.710095
0.720439
0.73089
0.741347
0.75174
0.762146
0.771597
3.00001
3.00001
3.00001
3.00001
3.00001
3.00001
3.00001
3.00001
3.00001
3.00001
3.00001
3.00001
3.00001
3
3
2.99995
2.99993
2.99957
2.99921
2.99607
2.99587
2.97477
2.98399
2.84929
2.58839
1.93616
1.15038
0.602494
0.505593
0.53126
0.564874
0.584931
0.593039
0.597845
0.603894
0.611809
0.620882
0.630762
0.640852
0.651293
0.661765
0.672263
0.682863
0.69332
0.703811
0.714136
0.724403
0.734613
0.744712
0.754064
3.00001
3.00001
3.00001
3.00001
3.00001
3.00001
3.00001
3.00001
3.00001
3.00001
3.00001
3.00001
3
3
2.99998
2.99994
2.99972
2.9997
2.99919
2.99848
2.99287
2.99274
2.97143
2.93347
2.74134
2.31419
1.50501
0.805017
0.505219
0.521466
0.556493
0.587406
0.598328
0.600838
0.603385
0.608278
0.614949
0.622852
0.631404
0.640424
0.649774
0.659223
0.668983
0.678656
0.688563
0.698402
0.70825
0.718152
0.727992
0.737056
3.00001
3.00001
3.00001
3.00001
3.00001
3.00001
3.00001
3.00001
3.00001
3.00001
3.00001
3.00001
3.00001
3
2.99999
2.99998
2.99989
2.99984
2.99918
2.99835
2.99199
2.99493
2.95887
2.97153
2.79013
2.46193
1.72339
0.929832
0.481447
0.486551
0.530605
0.570876
0.588231
0.594093
0.59789
0.602812
0.608797
0.615522
0.62283
0.630536
0.638628
0.646936
0.655587
0.664382
0.673411
0.682496
0.69168
0.70095
0.710336
0.718944
3.00001
3.00001
3.00001
3.00001
3.00001
3.00001
3.00001
3.00001
3.00001
3.00001
3.00001
3.00001
3.00001
3
3
2.99998
2.99996
2.99978
2.99958
2.99786
2.99694
2.98507
2.98176
2.9406
2.8376
2.53055
1.94333
1.00935
0.553612
0.457314
0.498156
0.544622
0.573063
0.586197
0.593455
0.599974
0.606857
0.614045
0.621178
0.628363
0.635531
0.64279
0.650017
0.657383
0.664776
0.67247
0.680261
0.688261
0.696462
0.704001
3.00001
3.00001
3.00001
3.00001
3.00001
3.00001
3.00001
3.00001
3.00001
3.00001
3.00001
3.00001
3.00001
3.00001
3
2.99999
2.99999
2.9999
2.99979
2.99896
2.99875
2.99297
2.9885
2.95915
2.89779
2.66363
2.19153
1.31484
0.703496
0.448238
0.48703
0.542504
0.581844
0.59923
0.606448
0.6117
0.617477
0.623712
0.629911
0.63593
0.641716
0.647499
0.653006
0.65861
0.664073
0.669858
0.675784
0.682074
0.688706
0.694849
3.00001
3.00001
3.00001
3.00001
3.00001
3.00001
3.00001
3.00001
3.00001
3.00001
3.00001
3.00001
3.00001
3.00001
3
2.99999
2.99998
2.99985
2.99983
2.99889
2.99811
2.99005
2.99419
2.95219
2.96162
2.75661
2.36849
1.57989
0.795595
0.391936
0.455069
0.524814
0.572855
0.593484
0.601611
0.607318
0.613599
0.620436
0.627173
0.633413
0.639093
0.644466
0.649508
0.654436
0.659168
0.664044
0.668983
0.674259
0.680063
0.685367
3.00001
3.00001
3.00001
3.00001
3.00001
3.00001
3.00001
3.00001
3.00001
3.00001
3.00001
3.00001
3.00001
3.00001
3
3
2.99998
2.99996
2.99977
2.9998
2.99838
2.99542
2.98936
2.96776
2.91542
2.75854
2.35966
1.66345
0.738167
0.366626
0.418868
0.482918
0.532896
0.557937
0.569798
0.578473
0.587375
0.596688
0.605788
0.614223
0.622073
0.629221
0.635937
0.642256
0.648165
0.654038
0.659568
0.665293
0.670868
0.676199
3.00001
3.00001
3.00001
3.00001
3.00001
3.00001
3.00001
3.00001
3.00001
3.00001
3.00001
3.00001
3.00001
3.00001
3
3
2.99998
2.99996
2.99978
2.99961
2.99835
2.9975
2.98732
2.98591
2.92311
2.79054
2.44643
1.79731
0.847669
0.436122
0.414457
0.46551
0.516647
0.543277
0.555984
0.564973
0.574216
0.584165
0.594152
0.603619
0.612533
0.620711
0.628392
0.635613
0.642406
0.64908
0.65532
0.661655
0.667628
0.673234
3.00001
3.00001
3.00001
3.00001
3.00001
3.00001
3.00001
3.00001
3.00001
3.00001
3.00001
3.00001
3.00001
3.00001
3
3
2.99997
2.99995
2.99971
2.99955
2.99824
2.99725
2.98893
2.98584
2.93439
2.82561
2.51666
1.90734
0.98277
0.512127
0.419998
0.468536
0.524989
0.558299
0.572673
0.580047
0.586857
0.594451
0.602532
0.610577
0.61824
0.625406
0.632142
0.638618
0.644814
0.651064
0.657018
0.663179
0.668975
0.674415
3.00001
3.00001
3.00001
3.00001
3.00001
3.00001
3.00001
3.00001
3.00001
3.00001
3.00001
3.00001
3.00001
3.00001
3
2.99999
2.99998
2.99985
2.99984
2.99952
2.99897
2.9962
2.9938
2.97762
2.9421
2.85925
2.59699
1.93332
1.15369
0.522695
0.390771
0.441837
0.50187
0.533088
0.544259
0.54977
0.556484
0.565161
0.574746
0.584422
0.593725
0.60253
0.610795
0.618665
0.626196
0.633664
0.640776
0.648019
0.654791
0.661149
3.00001
3.00001
3.00001
3.00001
3.00001
3.00001
3.00001
3.00001
3.00001
3.00001
3.00001
3.00001
3.00001
3.00001
3.00001
3
2.99998
2.99989
2.99988
2.99959
2.9992
2.9966
2.99413
2.98112
2.94969
2.8678
2.64269
2.00383
1.24967
0.555666
0.378241
0.428565
0.485788
0.510778
0.516617
0.519387
0.525201
0.533709
0.543331
0.55316
0.562739
0.572135
0.581331
0.590305
0.599065
0.607675
0.616045
0.624459
0.632524
0.640028
3.00001
3.00001
3.00001
3.00001
3.00001
3.00001
3.00001
3.00001
3.00001
3.00001
3.00001
3.00001
3.00001
3.00001
3.00001
3
3
2.99996
2.99994
2.99967
2.99936
2.99689
2.9959
2.97852
2.98256
2.86705
2.6512
2.06365
1.32314
0.578322
0.35926
0.415325
0.4784
0.505334
0.511687
0.514394
0.519152
0.525882
0.533409
0.541321
0.549195
0.557338
0.565608
0.57411
0.582807
0.59158
0.600434
0.609289
0.618099
0.626219
3.00001
3.00001
3.00001
3.00001
3.00001
3.00001
3.00001
3.00001
3.00001
3.00001
3.00001
3.00001
3.00001
3.00001
3.00001
3
3
2.99996
2.99994
2.99971
2.99945
2.99771
2.99654
2.97896
2.98689
2.88106
2.69046
2.14277
1.41814
0.60421
0.342279
0.409642
0.480975
0.510067
0.517422
0.520252
0.524307
0.529982
0.536503
0.543481
0.550633
0.558079
0.565728
0.573707
0.581933
0.590396
0.599036
0.607843
0.616663
0.624917
3.00001
3.00001
3.00001
3.00001
3.00001
3.00001
3.00001
3.00001
3.00001
3.00001
3.00001
3.00001
3.00001
3.00001
3.00001
3
3
2.99998
2.99994
2.99978
2.99932
2.99833
2.99444
2.98804
2.96152
2.90482
2.72032
2.26287
1.5455
0.661373
0.336435
0.408348
0.479932
0.511987
0.522642
0.526826
0.530923
0.536631
0.543661
0.551248
0.559031
0.566959
0.57501
0.583184
0.591412
0.599658
0.607857
0.616042
0.624148
0.631658
3.00001
3.00001
3.00001
3.00001
3.00001
3.00001
3.00001
3.00001
3.00001
3.00001
3.00001
3.00001
3.00001
3.00001
3.00001
3
3
2.99997
2.99996
2.99976
2.99955
2.99779
2.99687
2.98322
2.98863
2.90429
2.74823
2.34758
1.64764
0.717557
0.353454
0.408321
0.468786
0.509515
0.526556
0.532507
0.536989
0.543177
0.550865
0.559253
0.567778
0.57613
0.584253
0.592166
0.599678
0.606812
0.613876
0.620925
0.627932
0.634227
3.00001
3.00001
3.00001
3.00001
3.00001
3.00001
3.00001
3.00001
3.00001
3.00001
3.00001
3.00001
3.00001
3.00001
3.00001
3
3
2.99997
2.99997
2.99977
2.99961
2.99788
2.99715
2.98454
2.98498
2.9167
2.76984
2.40409
1.7368
0.78931
0.39571
0.404536
0.457675
0.506591
0.528835
0.537174
0.54262
0.549419
0.557642
0.566383
0.574984
0.582948
0.590392
0.597538
0.6044
0.610973
0.617225
0.623304
0.629415
0.635052
3.00001
3.00001
3.00001
3.00001
3.00001
3.00001
3.00001
3.00001
3.00001
3.00001
3.00001
3.00001
3.00001
3.00001
3.00001
3
3
2.99996
2.99995
2.99981
2.99965
2.99814
2.99722
2.98634
2.98466
2.9208
2.79178
2.44866
1.81149
0.860173
0.43304
0.399058
0.450237
0.502472
0.52838
0.538908
0.545567
0.552984
0.561273
0.569578
0.577733
0.58548
0.592738
0.599473
0.60568
0.61172
0.617589
0.623392
0.628606
0.633624
3.00001
3.00001
3.00001
3.00001
3.00001
3.00001
3.00001
3.00001
3.00001
3.00001
3.00001
3.00001
3.00001
3.00001
3.00001
3
3
2.99998
2.99996
2.99979
2.99959
2.99795
2.99727
2.98634
2.98281
2.92946
2.8127
2.48075
1.84853
0.890186
0.446592
0.391292
0.443792
0.498421
0.526938
0.53972
0.548052
0.556644
0.565836
0.574681
0.582874
0.590424
0.597349
0.603679
0.609379
0.614894
0.620479
0.625892
0.630664
0.635166
3.00001
3.00001
3.00001
3.00001
3.00001
3.00001
3.00001
3.00001
3.00001
3.00001
3.00001
3.00001
3.00001
3.00001
3.00001
3
3
2.99998
2.99995
2.99982
2.99961
2.9988
2.99723
2.9918
2.97956
2.93794
2.83924
2.55955
1.84084
1.06154
0.47354
0.394522
0.442568
0.493395
0.513587
0.516649
0.515603
0.515771
0.517994
0.5215
0.52574
0.530732
0.536398
0.542707
0.549558
0.556775
0.564239
0.571854
0.579301
0.58633
3.00001
3.00001
3.00001
3.00001
3.00001
3.00001
3.00001
3.00001
3.00001
3.00001
3.00001
3.00001
3.00001
3.00001
3.00001
3
2.99999
2.99998
2.99986
2.99984
2.99954
2.99918
2.99574
2.99454
2.97219
2.96532
2.84327
2.55947
1.88372
1.09899
0.485796
0.386831
0.436495
0.488871
0.51116
0.514874
0.513235
0.512315
0.51298
0.514783
0.517166
0.520565
0.524655
0.529537
0.534978
0.54087
0.547288
0.554022
0.561101
0.567848
3.00001
3.00001
3.00001
3.00001
3.00001
3.00001
3.00001
3.00001
3.00001
3.00001
3.00001
3.00001
3.00001
3.00001
3.00001
3
3
2.99998
2.99997
2.99982
2.99969
2.99842
2.99826
2.99022
2.98444
2.94573
2.86241
2.54064
1.95636
0.997409
0.514367
0.395023
0.443311
0.497541
0.530745
0.545702
0.553681
0.561152
0.569399
0.577672
0.584858
0.590988
0.596587
0.601718
0.606327
0.610571
0.614881
0.619334
0.623343
0.62681
3.00001
3.00001
3.00001
3.00001
3.00001
3.00001
3.00001
3.00001
3.00001
3.00001
3.00001
3.00001
3.00001
3.00001
3.00001
3
2.99999
2.99998
2.99988
2.99986
2.99958
2.99926
2.99613
2.99431
2.97094
2.97885
2.83583
2.58835
1.9083
1.13851
0.504713
0.383123
0.431195
0.48367
0.50816
0.513554
0.513114
0.513014
0.514519
0.516839
0.519708
0.523608
0.528075
0.533384
0.538957
0.545159
0.551695
0.55852
0.565738
0.572457
1.20827
0.838113
0.341259
0.2369
0.212889
0.328141
0.365032
0.375064
0.370882
0.36225
0.35901
0.358522
0.355643
0.350485
0.342841
0.330799
0.316399
0.299999
0.281553
0.261392
0.239864
0.21719
0.193624
0.169334
0.144666
0.119652
0.0947423
0.0701375
0.0458699
0.023171
0.013511
0.0334737
0.0569374
0.0800732
0.103234
0.125433
0.14739
0.167878
0.187519
0.207382
0.228158
0.248816
0.268954
0.288355
0.307285
0.325735
0.343913
0.361765
0.379328
0.396593
0.413614
0.430413
0.446852
0.463138
0.479241
0.494965
0.51073
0.526104
0.541403
0.556474
0.57148
0.586112
0.600792
0.615079
0.629339
0.643252
0.657184
0.670674
0.684239
0.697383
0.710581
0.723373
0.73626
0.74875
0.761333
0.77357
0.785828
0.797917
0.809829
0.821748
0.833391
0.845128
0.856596
0.868113
0.879418
0.890801
0.901891
0.913202
0.923963
0.935166
0.94553
0.956462
0.96634
0.976737
0.985919
0.995326
1.00327
1.0108
1.01593
1.02065
1.12071
0.915668
0.657706
0.476033
0.396677
0.299007
0.219046
0.155955
0.0999624
0.0441045
0.0110729
0.00741572
0.0252774
0.0155239
0.0173776
0.0203363
0.02546
0.0382552
0.0518811
0.0682865
0.0857156
0.104282
0.123786
0.143715
0.164207
0.184563
0.205189
0.22568
0.24607
0.266104
0.285521
0.304426
0.323011
0.341677
0.360119
0.378275
0.39616
0.413168
0.429301
0.445459
0.462323
0.479297
0.495598
0.511411
0.526687
0.541852
0.556682
0.571178
0.585734
0.599565
0.613703
0.627147
0.640758
0.653937
0.667192
0.680043
0.693059
0.705591
0.718301
0.73058
0.742963
0.754994
0.766996
0.778857
0.790498
0.802235
0.813535
0.825111
0.835992
0.847355
0.857806
0.868944
0.879018
0.889965
0.899759
0.910493
0.920106
0.930738
0.940155
0.950665
0.960022
0.970601
0.979927
0.990517
0.999745
1.01026
1.01932
1.02971
1.03856
1.04875
1.0573
1.06715
1.07527
1.0846
1.09207
1.10052
1.10688
1.11366
1.11757
1.12183
1.07568
1.01316
0.906041
0.815875
0.753162
0.689956
0.627297
0.575486
0.533455
0.495388
0.467031
0.444525
0.430474
0.417716
0.409876
0.403175
0.398352
0.398921
0.403254
0.410249
0.41939
0.429773
0.441135
0.453562
0.467265
0.48187
0.497066
0.512437
0.527746
0.542889
0.557484
0.571728
0.585845
0.599899
0.614233
0.628403
0.64285
0.656525
0.669767
0.682794
0.696224
0.710199
0.723625
0.736521
0.749011
0.761192
0.773233
0.785053
0.796645
0.808087
0.819183
0.830336
0.840935
0.851822
0.862009
0.872636
0.882602
0.893039
0.902852
0.913232
0.922976
0.933292
0.942865
0.952989
0.962317
0.972174
0.981211
0.990817
0.999592
1.00898
1.01754
1.02677
1.03522
1.04432
1.0527
1.06186
1.07032
1.07954
1.08804
1.09726
1.10566
1.11472
1.12295
1.13185
1.13997
1.14868
1.15668
1.16507
1.17297
1.18088
1.18863
1.196
1.20335
1.21018
1.21678
1.22285
1.22826
1.23274
1.23584
1.2375
1.05911
1.0564
1.01896
0.97831
0.945071
0.914292
0.882341
0.85058
0.819983
0.793719
0.774292
0.761889
0.755039
0.75156
0.74962
0.749178
0.746597
0.743995
0.744035
0.745282
0.747198
0.749826
0.753248
0.757232
0.761856
0.767115
0.772797
0.778897
0.78524
0.791935
0.798694
0.80576
0.812964
0.820601
0.828589
0.836968
0.845713
0.854268
0.862631
0.871099
0.880092
0.889999
0.899995
0.909969
0.919631
0.929457
0.939043
0.948895
0.95851
0.968233
0.97781
0.987295
0.996769
1.00608
1.01532
1.02444
1.03343
1.04234
1.05104
1.0597
1.06814
1.07657
1.08478
1.09303
1.10104
1.10908
1.11682
1.12461
1.13206
1.13972
1.14704
1.15473
1.16212
1.16994
1.17759
1.18544
1.1933
1.20112
1.20924
1.21706
1.22535
1.23314
1.2414
1.24911
1.25717
1.26474
1.2725
1.27991
1.28733
1.29456
1.30163
1.30866
1.31538
1.32202
1.32829
1.33416
1.3395
1.34399
1.34709
1.34941
1.0344
1.05784
1.0583
1.05085
1.04261
1.03445
1.0233
1.01084
0.997365
0.985481
0.976721
0.971314
0.968018
0.965566
0.964382
0.963948
0.962916
0.960715
0.959066
0.957949
0.957154
0.956577
0.95615
0.955842
0.955687
0.955803
0.956242
0.957093
0.958233
0.959982
0.962019
0.964742
0.967729
0.971358
0.975375
0.979991
0.985039
0.9901
0.995185
1.00047
1.00641
1.01327
1.02068
1.02832
1.03593
1.04388
1.05175
1.06013
1.06827
1.07691
1.08519
1.09387
1.10215
1.11086
1.11911
1.12788
1.13611
1.14494
1.15316
1.16195
1.17012
1.17879
1.18684
1.19541
1.20337
1.2119
1.21979
1.2283
1.23609
1.24449
1.2521
1.26032
1.26768
1.27561
1.28266
1.29019
1.29686
1.30397
1.31037
1.31726
1.32347
1.3303
1.33639
1.34325
1.34922
1.35605
1.36191
1.36866
1.37439
1.38101
1.38655
1.39297
1.39825
1.40427
1.40923
1.41445
1.41866
1.42253
1.42477
1.42669
1.00839
1.03846
1.05992
1.07267
1.08223
1.08989
1.09468
1.09623
1.09583
1.09426
1.09299
1.09264
1.09322
1.09436
1.09513
1.0962
1.09727
1.09749
1.09572
1.09298
1.09023
1.08759
1.08504
1.08248
1.08003
1.07781
1.07577
1.07412
1.0729
1.0721
1.07163
1.07172
1.07225
1.0733
1.07485
1.07728
1.07996
1.08324
1.08621