/*--------------------------------*- C++ -*----------------------------------*\
| =========                 |                                                 |
| \\      /  F ield         | OpenFOAM: The Open Source CFD Toolbox           |
|  \\    /   O peration     | Version:  2112                                  |
|   \\  /    A nd           | Website:  www.openfoam.com                      |
|    \\/     M anipulation  |                                                 |
\*---------------------------------------------------------------------------*/
FoamFile
{
    version     2.0;
    format      ascii;
    arch        "LSB;label=32;scalar=64";
    class       volScalarField;
    location    "6.4995";
    object      p;
}
// * * * * * * * * * * * * * * * * * * * * * * * * * * * * * * * * * * * * * //

dimensions      [1 -1 -2 0 0 0 0];

internalField   nonuniform List<scalar> 
7000
(
0.999998
1
1.00001
1.00001
1.00001
1.00001
1
0.999998
1.00008
1.00028
1.00102
1.00216
1.0066
1.01241
1.03914
1.06068
1.29362
1.4961
2.97881
5.88228
12.5088
11.7459
10.9616
10.793
10.8427
10.9565
11.0605
11.1342
11.1908
11.2417
11.2911
11.3395
11.3853
11.428
11.4674
11.5034
11.5362
11.5657
11.5921
11.6159
11.6377
11.6578
11.6769
11.6952
11.7131
11.7304
11.7471
11.7631
11.7761
11.7903
1
1
1.00001
1.00001
1.00001
1.00001
1
0.999997
1.00007
1.00026
1.00098
1.00206
1.00627
1.01174
1.0372
1.05582
1.28899
1.46397
2.93941
5.70003
12.3648
11.7228
10.9682
10.7957
10.8396
10.9457
11.051
11.1265
11.1839
11.2353
11.2853
11.3341
11.3803
11.4233
11.463
11.4993
11.5323
11.562
11.5887
11.6127
11.6346
11.6549
11.674
11.6924
11.7104
11.7276
11.7443
11.76
11.7726
11.7858
1
1
1.00001
1.00001
1.00001
1.00001
1
0.999997
1.00007
1.00025
1.00094
1.00197
1.00602
1.01126
1.03593
1.05356
1.28416
1.44953
2.91868
5.63394
12.3227
11.7019
10.9784
10.8058
10.8446
10.9426
11.049
11.1262
11.1837
11.2347
11.2844
11.3327
11.3785
11.421
11.4601
11.4959
11.5285
11.5578
11.5842
11.608
11.6297
11.6498
11.6687
11.6868
11.7044
11.721
11.7367
11.751
11.762
11.7724
1
1.00001
1.00001
1.00001
1.00001
1.00001
1.00001
0.999998
1.00007
1.00024
1.00089
1.00186
1.0057
1.01064
1.03426
1.05036
1.2781
1.43012
2.88779
5.52312
12.1751
11.6581
10.9706
10.8001
10.8343
10.9253
11.0341
11.1141
11.1728
11.2243
11.2745
11.3233
11.3693
11.4118
11.4508
11.4866
11.519
11.5482
11.5745
11.5982
11.6198
11.6399
11.6587
11.6765
11.6936
11.7094
11.7242
11.7372
11.7466
11.7549
1
1
1.00001
1.00001
1.00001
1.00001
1.00001
0.999999
1.00007
1.00022
1.00083
1.00173
1.00534
1.00995
1.03244
1.04701
1.27181
1.41074
2.85878
5.42155
12.0566
11.6227
10.9735
10.8017
10.8297
10.912
11.023
11.1052
11.1643
11.2155
11.2654
11.3139
11.3594
11.4013
11.4398
11.475
11.5069
11.5356
11.5616
11.5851
11.6065
11.6263
11.6448
11.6622
11.6787
11.6938
11.7076
11.7193
11.7275
11.7346
1
1
1.00001
1.00001
1.00001
1.00001
1.00001
1
1.00006
1.0002
1.00076
1.00158
1.0049
1.00909
1.03016
1.04292
1.26436
1.38921
2.82543
5.30669
11.9048
11.5608
10.977
10.7955
10.8164
10.8902
11.0048
11.0901
11.1502
11.2016
11.2516
11.3
11.3452
11.3867
11.4246
11.4592
11.4906
11.5189
11.5445
11.5677
11.5889
11.6085
11.6267
11.6437
11.6596
11.6739
11.6867
11.6974
11.7048
11.7109
1
1
1.00001
1.00001
1.00001
1.00001
1.00001
1
1.00006
1.00019
1.00069
1.00143
1.00442
1.0081
1.02723
1.03693
1.25756
1.36128
2.79192
5.18013
11.7279
11.4777
10.9938
10.7897
10.8026
10.8672
10.9847
11.0726
11.1332
11.1844
11.2342
11.2822
11.3268
11.3676
11.4048
11.4388
11.4696
11.4975
11.5228
11.5458
11.5668
11.5862
11.6041
11.6207
11.636
11.6496
11.6617
11.6714
11.6781
11.6836
1
1
1.00001
1.00001
1.00001
1.00001
1.00001
1.00001
1.00006
1.00018
1.00061
1.00128
1.00375
1.00668
1.02355
1.029
1.25066
1.32961
2.76045
5.04168
11.5291
11.3828
11.0068
10.7797
10.7865
10.8441
10.9607
11.0512
11.1123
11.1632
11.2125
11.2599
11.3037
11.3437
11.3801
11.4133
11.4436
11.471
11.4961
11.5189
11.5399
11.5592
11.5769
11.5932
11.6079
11.6208
11.6321
11.6412
11.6473
11.6522
1
1
1.00001
1.00001
1.00001
1.00001
1.00001
1.00002
1.00007
1.0003
1.00069
1.00205
1.00405
1.01234
1.01834
1.01978
1.23916
1.3055
2.71369
4.89504
11.3134
11.2824
10.9969
10.7635
10.7664
10.8201
10.9342
11.0258
11.0868
11.1373
11.1859
11.2324
11.2753
11.3143
11.35
11.3826
11.4123
11.4395
11.4644
11.4872
11.508
11.5273
11.5447
11.5606
11.5748
11.5871
11.5977
11.606
11.6116
11.6165
1
1
1.00001
1.00001
1.00001
1.00001
1.00001
1.00002
1.00008
1.00029
1.00067
1.00194
1.0038
1.01124
1.01604
1.01693
1.22561
1.2813
2.6589
4.72966
11.0512
11.223
10.9645
10.7343
10.7377
10.7923
10.9067
10.9967
11.0566
11.1064
11.1543
11.1996
11.2413
11.2794
11.3143
11.3462
11.3755
11.4022
11.427
11.4496
11.4704
11.4895
11.5066
11.5222
11.5358
11.5475
11.5575
11.5654
11.5705
11.5749
1
1
1
1.00001
1.00001
1.00001
1.00001
1.00002
1.00008
1.00029
1.00065
1.00189
1.00375
1.0109
1.01441
1.01037
1.215
1.25696
2.59738
4.54666
10.7406
11.1751
10.928
10.6977
10.7023
10.7593
10.8759
10.9636
11.0218
11.0705
11.1172
11.1613
11.2017
11.2387
11.2727
11.3041
11.333
11.3593
11.3837
11.406
11.4266
11.4454
11.4621
11.4772
11.4902
11.5012
11.5104
11.5175
11.5223
11.527
1
1
1
1.00001
1.00001
1.00001
1.00001
1.00002
1.00006
1.00023
1.0005
1.00157
1.00319
1.0102
1.01408
1.01239
1.19729
1.22797
2.52813
4.34449
10.3724
11.1305
10.8966
10.658
10.663
10.7222
10.8411
10.9263
10.9823
11.0296
11.075
11.1178
11.1568
11.1925
11.2256
11.2562
11.2843
11.31
11.3337
11.3554
11.3753
11.3936
11.4095
11.4238
11.4359
11.4461
11.4548
11.4615
11.4658
11.47
1
1
1
1
1.00001
1.00001
1
1.00002
1.00006
1.00021
1.00046
1.00139
1.00266
1.00753
1.0111
1.01616
1.17249
1.19961
2.45298
4.11956
9.93599
11.0897
10.868
10.617
10.6217
10.6819
10.8019
10.885
10.9389
10.9843
11.028
11.0697
11.1066
11.1409
11.1727
11.2021
11.229
11.2536
11.2761
11.2967
11.3153
11.3324
11.3472
11.3603
11.3713
11.3804
11.388
11.3937
11.3976
11.4025
1
1
1
1
1
1
1.00001
1.00002
1.00006
1.00018
1.00043
1.00125
1.00237
1.00803
1.00852
1.00793
1.15631
1.16638
2.36672
3.86967
9.42472
11.0552
10.8435
10.5782
10.5818
10.6412
10.76
10.8408
10.8926
10.9358
10.9772
11.0164
11.0517
11.0843
11.1142
11.1416
11.1667
11.1893
11.2099
11.2284
11.2451
11.2599
11.2726
11.2837
11.2928
11.3002
11.3066
11.3117
11.315
11.3193
1
1
1
1
1
1
1.00001
1.00002
1.00006
1.00014
1.00043
1.00083
1.00241
1.00542
1.01142
1.01355
1.14109
1.15281
2.26254
3.56199
8.81377
11.0335
10.8228
10.5383
10.5402
10.5982
10.715
10.7938
10.8446
10.8846
10.923
10.9594
10.9923
11.0224
11.0495
11.074
11.0962
11.1158
11.1334
11.1487
11.1621
11.1738
11.1833
11.1912
11.1973
11.2019
11.2057
11.2087
11.211
11.2161
1
1
1
1
1
1
1
1.00002
1.00006
1.00014
1.00039
1.00075
1.00214
1.00385
1.01247
1.01663
1.11935
1.1264
2.1416
3.26108
8.07042
11.0839
10.8505
10.5188
10.5013
10.5552
10.6667
10.7457
10.7935
10.8308
10.8656
10.8982
10.9276
10.9541
10.9775
10.9982
11.0164
11.0318
11.045
11.0557
11.0641
11.0707
11.0749
11.0775
11.0783
11.0781
11.078
11.0783
11.0783
11.0823
1
1
1
1
1
1
1.00001
1.00003
1.00008
1.00017
1.00041
1.00093
1.00187
1.00457
1.0083
1.03403
1.0422
1.33575
1.52913
3.28579
6.73483
11.2555
11.0135
10.5631
10.4821
10.5219
10.6136
10.6936
10.7418
10.7752
10.8047
10.8321
10.857
10.8789
10.8975
10.9131
10.9259
10.9358
10.9429
10.9472
10.9484
10.9474
10.9438
10.9376
10.9296
10.9206
10.9118
10.9045
10.8994
10.9035
1
1
1
1
1
1
1.00001
1.00002
1.00007
1.00015
1.00044
1.00084
1.00265
1.00498
1.01594
1.02332
1.01934
1.27564
1.38469
2.83042
5.32279
11.2573
11.0703
10.6609
10.4667
10.482
10.5428
10.6287
10.6814
10.7119
10.7365
10.7589
10.7786
10.795
10.8076
10.8171
10.8232
10.8256
10.8246
10.8204
10.8116
10.7989
10.7826
10.7627
10.7397
10.7146
10.6898
10.6674
10.6488
10.6459
1
1
1
1
1
1
1.00001
1.00002
1.00005
1.00011
1.00033
1.00065
1.00202
1.00379
1.01183
1.01724
1.01667
1.22339
1.26487
2.64704
4.65746
10.7646
10.9756
10.7031
10.4387
10.4284
10.4668
10.55
10.6082
10.6389
10.6592
10.6766
10.6909
10.7011
10.7073
10.7093
10.7077
10.7018
10.6897
10.6724
10.65
10.6219
10.5873
10.546
10.4977
10.4431
10.3834
10.3229
10.2674
10.2399
1
1
1
1
1
1
1
1.00001
1.00002
1.00005
1.00006
1.00061
1.00076
1.00433
1.01081
1.01091
1.00766
1.168
1.17529
2.44092
4.05751
9.72676
10.8925
10.7002
10.4079
10.3615
10.3932
10.4656
10.5241
10.5548
10.572
10.5843
10.5927
10.5962
10.5951
10.59
10.5783
10.5593
10.5339
10.5017
10.4613
10.4114
10.3504
10.2763
10.1871
10.0801
9.95346
9.80602
9.63978
9.4797
1
1
1
1
1
1
1
1
1.00002
1.00004
1.00013
1.00016
1.00156
1.00188
1.0121
1.02951
1.04373
1.03966
1.44975
1.73526
3.86551
8.20903
10.9595
10.7905
10.4302
10.3087
10.3254
10.3747
10.4292
10.4575
10.4699
10.4746
10.4743
10.4705
10.4595
10.4387
10.4115
10.3773
10.3349
10.2823
10.2168
10.1352
10.0338
9.90675
9.74502
9.53415
9.24591
8.82777
8.16351
6.80999
1
1
1
1
1
1
1
1
1.00001
1.00003
1.00007
1.00009
1.001
1.00118
1.00831
1.02022
1.03116
1.02841
1.30251
1.47109
2.93565
5.84273
11.244
11.0548
10.5521
10.2862
10.2569
10.2758
10.317
10.3403
10.346
10.3434
10.3346
10.3154
10.2888
10.2555
10.2145
10.1631
10.0994
10.0209
9.92347
9.80388
9.65426
9.46682
9.22699
8.91472
8.49867
7.93113
7.17713
6.06773
1
1
1
1
1
1
1
1
1.00001
1.00001
1.00004
1.00004
1.00055
1.00068
1.00463
1.01148
1.01666
1.01811
1.22587
1.2714
2.68947
4.75956
10.8469
10.876
10.5525
10.2184
10.1391
10.1538
10.1908
10.2141
10.2139
10.2072
10.1879
10.153
10.113
10.066
10.0091
9.93968
9.85528
9.75303
9.62851
9.47719
9.29273
9.0662
8.78754
8.44339
8.02056
7.50094
6.89841
6.16184
1
1
1
1
1
1
1
1
1.00001
1.00001
1.00003
1.00004
1.0004
1.0005
1.00295
1.00649
1.01458
1.01004
1.17293
1.17364
2.43172
3.97701
9.52283
10.6092
10.4359
10.112
10.0194
10.0324
10.0662
10.087
10.0846
10.0728
10.0434
9.99772
9.94662
9.88797
9.81821
9.73463
9.63468
9.51559
9.37396
9.20577
9.00688
8.77117
8.4948
8.17069
7.79943
7.37425
6.91367
6.38557
1
1
1
1
1
1
1
1
1
1
1.00003
1.00004
1.00019
1.00024
1.002
1.00318
1.01295
1.02109
1.12331
1.14957
2.15825
3.30362
8.12073
10.5957
10.4501
10.131
9.973
9.95938
9.96944
9.97968
9.97438
9.95489
9.91268
9.85734
9.79721
9.73041
9.65171
9.55895
9.45021
9.3233
9.17576
9.00467
8.80827
8.58226
8.32768
8.03942
7.7206
7.37497
6.98655
6.58923
1
1
1
1
1
1
1
1
1
1.00001
1.00002
1.00004
1.00005
1.00062
1.00071
1.00528
1.01346
1.02104
1.02018
1.27314
1.35308
2.8379
5.3251
10.6058
10.5667
10.2896
9.98824
9.90412
9.90401
9.90366
9.89423
9.86605
9.81007
9.74525
9.67726
9.60101
9.51456
9.41592
9.30318
9.1747
9.02869
8.86353
8.67757
8.4698
8.23964
7.98742
7.71445
7.40906
7.1049
6.78077
1
1
1
1
1
1
1
1
1
1.00001
1.00001
1.00005
1.00008
1.00054
1.0006
1.00473
1.01151
1.01356
1.00983
1.1866
1.1884
2.52285
4.2145
9.85717
10.5016
10.2817
9.95701
9.82815
9.81546
9.81421
9.80344
9.7723
9.71085
9.64242
9.5704
9.49088
9.40206
9.30107
9.18786
9.06144
8.92061
8.76441
8.59187
8.40265
8.19661
7.97442
7.73222
7.48247
7.22725
6.95534
1
1
1
1
1
1
1
1
1
1
1
1.00003
1.00006
1.00023
1.00029
1.00221
1.00384
1.01274
1.01994
1.12613
1.15195
2.16086
3.33553
8.10384
10.3699
10.2564
9.97459
9.79312
9.74253
9.73704
9.72289
9.68933
9.62967
9.56103
9.48645
9.4043
9.31311
9.21182
9.10026
8.97783
8.84378
8.69745
8.53857
8.36659
8.18189
7.98334
7.77484
7.56199
7.34278
7.11163
1
1
1
1
1
1
1
1
1
1.00001
1.00001
1.00005
1.00008
1.00028
1.00045
1.00172
1.00238
1.01122
1.01286
1.09165
1.08682
1.83134
2.43696
5.8804
10.3233
10.32
10.104
9.82742
9.7295
9.70319
9.6774
9.6318
9.57186
9.50134
9.42414
9.34015
9.24839
9.14823
9.03955
8.92111
8.79268
8.65528
8.50814
8.35203
8.18564
8.00872
7.82905
7.64358
7.45377
7.25471
1
1
1
1
1
1
1
1
1
1
1.00001
1.00002
1.0001
1.00024
1.00033
1.00043
1.00354
1.01017
1.01277
1.0079
1.18157
1.17626
2.50672
4.14685
9.62961
10.4097
10.2274
9.89129
9.73576
9.67725
9.63922
9.59012
9.52763
9.45494
9.37575
9.29106
9.20009
9.1021
8.99678
8.88395
8.76392
8.63583
8.50032
8.35587
8.20306
8.04908
7.89038
7.72675
7.55999
7.38664
1
1
1
1
1
1
1
1
1
1
1.00001
1.00001
1.00003
1.00006
1.00021
1.00028
1.00199
1.00354
1.01149
1.01934
1.11148
1.12973
2.13871
3.21398
7.95379
10.4042
10.3107
10.0245
9.77132
9.66347
9.61006
9.55843
9.49467
9.4202
9.33952
9.25498
9.16581
9.07142
8.97117
8.86449
8.75136
8.6322
8.505
8.37145
8.23672
8.09844
7.95643
7.81097
7.6637
7.51183
1
1
1
1
1
1
1
1
1
1
1
1.00001
1.00001
1.00007
1.00008
1.00062
1.00065
1.00467
1.01086
1.00969
1.00776
1.22585
1.2385
2.75968
4.79418
10.3202
10.525
10.2696
9.86911
9.67544
9.59418
9.5365
9.47128
9.39654
9.31545
9.23036
9.14264
9.05106
8.95597
8.85635
8.75114
8.63825
8.521
8.4027
8.28196
8.15774
8.03021
7.90052
7.77003
7.63629
1
1
1
1
1
1
1
1
1
1
1
1
1.00001
1.00002
1.00011
1.00019
1.00102
1.00141
1.00761
1.01029
1.05733
1.04793
1.5444
1.87516
4.33544
8.99943
10.519
10.3615
9.98176
9.70712
9.58276
9.5201
9.45936
9.38813
9.30848
9.22456
9.13895
9.0506
8.95811
8.86153
8.76127
8.65859
8.55577
8.45031
8.34089
8.22827
8.11353
7.99754
7.88126
7.76252
1
1
1
1
1
1
1
1
1
1
1
1
1.00001
1.00003
1.00002
1.00026
1.00024
1.00204
1.004
1.0104
1.01143
1.10172
1.0887
2.01841
2.74451
6.9046
10.4887
10.4121
10.0986
9.73497
9.55959
9.48455
9.43187
9.37051
9.30079
9.2247
9.14261
9.05706
8.96961
8.88013
8.78942
8.69896
8.60548
8.50898
8.4097
8.30816
8.20492
8.10059
7.99602
7.8893
1
1
1
1
1
1
1
1
1
1
1
1
1
1.00002
1.00002
1.0002
1.00023
1.00161
1.00355
1.0083
1.008
1.08198
1.07858
1.69264
2.14225
5.07643
10.0893
10.4524
10.2109
9.78586
9.56385
9.47351
9.42286
9.37052
9.30703
9.23381
9.1578
9.07927
9.00055
8.92129
8.8406
8.75707
8.67055
8.58132
8.48987
8.39669
8.30227
8.20703
8.11153
8.01403
1
1
1
1
1
1
1
1
1
1
1
1
1
1.00001
1.00004
1.00006
1.00027
1.00033
1.00271
1.00536
1.01453
1.01286
1.14108
1.12285
2.339
3.61418
8.82396
10.4763
10.2865
9.87075
9.59182
9.47716
9.42678
9.38094
9.32604
9.26062
9.19168
9.12215
9.05102
8.97828
8.90307
8.82517
8.7443
8.66083
8.57533
8.48841
8.40041
8.31156
8.22252
8.13176
1
1
1
1
1
1
1
1
1
1
1
1
1
1
1.00003
1.00004
1.00023
1.00028
1.00194
1.00386
1.0105
1.01008
1.09498
1.07478
2.0162
2.72369
6.96712
10.502
10.3961
10.0327
9.66807
9.50541
9.45057
9.41438
9.37046
9.31474
9.25283
9.18691
9.11763
9.04585
8.97162
8.895
8.81675
8.73721
8.65654
8.57504
8.49246
8.40887
8.32464
8.23874
1
1
1
1
1
1
1
1
1
1
1
1
1
1.00001
1.00001
1.00005
1.00011
1.00051
1.00072
1.00519
1.01397
1.01505
1.00849
1.20575
1.19666
2.6803
4.49474
10.1162
10.4345
10.1683
9.7544
9.56148
9.50139
9.47339
9.43511
9.38151
9.31868
9.25175
9.1815
9.10945
9.03597
8.96118
8.88519
8.80812
8.72999
8.65068
8.57071
8.49039
8.41005
8.32844
1
1
1
1
1
1
1
1
1
1
1
1
1
1.00001
1.00001
1.00004
1.00007
1.00033
1.0004
1.00283
1.00644
1.01107
1.01179
1.13401
1.14274
2.30451
3.61012
8.82239
10.4776
10.2961
9.90898
9.6618
9.56533
9.52707
9.48822
9.43507
9.3712
9.30245
9.23141
9.15911
9.08581
9.01168
8.937
8.86197
8.78668
8.71093
8.63471
8.55809
8.48135
8.40332
1
1
1
1
1
1
1
1
1
1
1
1
1
1
1.00003
1.00003
1.00021
1.00049
1.00062
1.00065
1.00505
1.01275
1.01715
1.01486
1.29595
1.37134
3.06146
6.02941
10.6493
10.6083
10.2774
9.87647
9.68512
9.61005
9.55707
9.49472
9.42352
9.34922
9.27498
9.20146
9.12855
9.05579
8.98283
8.9095
8.83578
8.76177
8.68761
8.61348
8.53935
8.46452
1
1
1
1
1
1
1
1
1
1
1
1
1
1
1.00001
1.00001
1.00009
1.00015
1.00061
1.00065
1.00586
1.01438
1.01566
1.0173
1.20701
1.20872
2.69035
4.50151
10.323
10.6549
10.3849
9.94872
9.72238
9.63041
9.57409
9.51282
9.44313
9.37038
9.29783
9.22626
9.15553
9.08511
9.01446
8.94346
8.87212
8.8008
8.72975
8.65905
8.58895
8.5181
1
1
1
1
1
1
1
1
1
1
1
1
1
1
1
1.00002
1.00004
1.00018
1.0002
1.00157
1.0039
1.00686
1.024
1.04708
1.04756
1.542
1.78638
4.38242
9.02139
10.6438
10.4623
10.0475
9.76607
9.63854
9.57513
9.5192
9.45662
9.38836
9.31813
9.24796
9.17799
9.10831
9.03901
8.97018
8.90195
8.8343
8.76714
8.70055
8.63458
8.5682
1
1
1
1
1
1
1
1
1
1
1
1
1
1
1
1.00001
1.00002
1.0001
1.00012
1.00077
1.00193
1.00273
1.01244
1.02993
1.027
1.38822
1.51619
3.51902
7.16384
10.9744
10.7997
10.2955
9.86967
9.66739
9.58497
9.53201
9.47268
9.40511
9.33466
9.26473
9.1962
9.12901
9.06271
8.99717
8.9323
8.86803
8.80439
8.74138
8.67929
8.61757
1
1
1
1
1
1
1
1
1
1
1
1
1
1
1
1.00001
1.00001
1.00011
1.00016
1.00079
1.0009
1.00694
1.01655
1.01863
1.01213
1.26579
1.27258
2.94831
5.33618
11.2865
11.0186
10.4159
9.905
9.66674
9.57931
9.5305
9.47783
9.41567
9.34911
9.28216
9.21643
9.15181
9.08816
9.02537
8.96349
8.90177
8.84097
8.78109
8.72222
8.66389
1
1
1
1
1
1
1
1
1
1
1
1
1
1
1
1
1.00002
1.00004
1.00013
1.0001
1.0016
1.00149
1.01088
1.01952
1.07456
1.06237
1.78198
2.20759
5.47945
10.8513
10.743
10.296
9.85676
9.64088
9.56145
9.52318
9.4802
9.42582
9.36523
9.30271
9.24023
9.17841
9.11725
9.05675
8.99688
8.93752
8.87877
8.82147
8.76438
8.70737
1
1
1
1
1
1
1
1
1
1
1
1
1
1
1
1
1.00002
1.00003
1.00017
1.00017
1.00133
1.00217
1.00715
1.01191
1.06513
1.06654
1.65523
1.98403
4.94299
10.0229
10.5956
10.3314
9.8903
9.65732
9.56908
9.52935
9.48921
9.43809
9.37956
9.31859
9.25778
9.19791
9.13895
9.08072
9.02301
8.96608
8.90917
8.85374
8.79792
8.74205
1
1
1
1
1
1
1
1
1
1
1
1
1
1
1
1.00001
1.00002
1.00003
1.00024
1.00038
1.00127
1.00226
1.00674
1.01274
1.05353
1.05362
1.57007
1.82368
4.50223
9.25703
10.7087
10.4872
10.0044
9.70493
9.58577
9.54272
9.50712
9.45918
9.40221
9.34205
9.28212
9.22322
9.16531
9.10816
9.05147
8.9955
8.93958
8.88457
8.82953
8.77451
1
1
1
1
1
1
1
1
1
1
1
1
1
1
1
1.00001
1.00002
1.00011
1.00027
1.00036
1.00046
1.00327
1.0038
1.01804
1.03639
1.12786
1.13283
2.32188
3.60224
8.78395
10.7301
10.474
9.94713
9.64952
9.54842
9.5203
9.49239
9.44852
9.39534
9.33977
9.28451
9.22996
9.17603
9.12231
9.06856
9.01484
8.96111
8.90763
8.85407
8.80022
1
1
1
1
1
1
1
1
1
1
1
1
1
1
1
1.00001
1.00001
1.00009
1.00021
1.00032
1.00051
1.00259
1.0034
1.01814
1.02767
1.11611
1.0854
2.25954
3.25583
8.18301
10.6617
10.407
9.87619
9.59644
9.52174
9.50834
9.48603
9.44532
9.39587
9.34477
9.29449
9.24436
9.19323
9.14109
9.08842
9.03553
8.98236
8.9297
8.8766
8.82308
1
1
1
1
1
1
1
1
1
1
1
1
1
1
1
1
1.00001
1.00004
1.00005
1.00027
1.00025
1.0023
1.00474
1.01124
1.01606
1.11029
1.11214
2.13832
3.02614
7.69999
10.6879
10.4189
9.86447
9.58919
9.52151
9.50979
9.48593
9.44508
9.39709
9.34806
9.29951
9.2508
9.20141
9.1513
9.10068
9.04973
8.99859
8.94722
8.8956
8.84312
1
1
1
1
1
1
1
1
1
1
1
1
1
1
1
1
1
1.00004
1.00004
1.00026
1.00027
1.0018
1.00401
1.00971
1.01453
1.10032
1.06254
2.09226
2.76969
7.18107
10.8099
10.493
9.86194
9.56981
9.49937
9.48867
9.46946
9.43403
9.39032
9.34441
9.29833
9.252
9.20501
9.15731
9.10889
9.05985
9.01034
8.96044
8.91026
8.85908
1
1
1
1
1
1
1
1
1
1
1
1
1
1
1
1
1
1.00003
1.00005
1.00017
1.00044
1.00171
1.00232
1.01139
1.02262
1.08312
1.08096
1.90241
2.46619
6.33642
10.9614
10.6271
9.93994
9.60193
9.49912
9.47539
9.45913
9.43096
9.39147
9.3476
9.30281
9.25793
9.21268
9.16643
9.11923
9.07133
9.02284
8.97399
8.92496
8.87483
1
1
1
1
1
1
1
1
1
1
1
1
1
1
1
1
1
1.00002
1.00004
1.00018
1.0002
1.00171
1.00304
1.00902
1.00822
1.08572
1.06273
1.81457
2.23297
5.57536
10.8722
10.6635
10.1102
9.7
9.52449
9.47735
9.46176
9.43691
9.39968
9.35647
9.31135
9.2658
9.21978
9.17411
9.12587
9.07848
9.03075
8.98267
8.93464
8.88626
1
1
1
1
1
1
1
1
1
1
1
1
1
1
1
1
1
1.00002
1.00004
1.00016
1.0002
1.00153
1.00326
1.00746
1.01493
1.06983
1.06768
1.71804
2.0741
5.22647
10.4478
10.5943
10.2743
9.80668
9.57686
9.50556
9.4839
9.45923
9.4214
9.3767
9.32964
9.28092
9.23394
9.18682
9.13912
9.0914
9.04364
8.99584
8.94894
8.90165
1
1
1
1
1
1
1
1
1
1
1
1
1
1
1
1
1.00001
1.00004
1.0001
1.00014
1.00015
1.00145
1.00257
1.00796
1.01296
1.06668
1.0652
1.65632
1.95455
4.90493
9.93303
10.5832
10.3152
9.84684
9.60475
9.52402
9.49816
9.4727
9.43323
9.38675
9.33774
9.28844
9.2401
9.19194
9.14325
9.09653
9.04849
9.00105
8.95461
8.90886
1
1
1
1
1
1
1
1
1
1
1
1
1
1
1
1
1
1.00002
1.00004
1.00016
1.00022
1.00143
1.00356
1.00657
1.01804
1.05811
1.05684
1.61891
1.88797
4.75721
9.65123
10.5829
10.3403
9.87414
9.63038
9.54601
9.51778
9.49029
9.45041
9.40147
9.35133
9.30129
9.25224
9.20384
9.1547
9.10783
9.05983
9.01214
8.96575
8.92016
1
1
1
1
1
1
1
1
1
1
1
1
1
1
1
1
1.00001
1.00001
1.00006
1.00009
1.00041
1.00054
1.00291
1.0027
1.0206
1.03417
1.14453
1.11094
2.49776
3.86375
9.37988
10.6642
10.4079
9.91064
9.65183
9.56673
9.53755
9.50484
9.45891
9.40668
9.35402
9.30312
9.25373
9.2053
9.15718
9.10948
9.06184
9.0145
8.96778
8.92126
1
1
1
1
1
1
1
1
1
1
1
1
1
1
1
1
1.00001
1.00001
1.00011
1.00027
1.00035
1.00036
1.00302
1.00679
1.01309
1.02578
1.13998
1.13856
2.39577
3.74063
9.09565
10.6565
10.4117
9.92565
9.65817
9.5676
9.53842
9.50857
9.4653
9.41455
9.36206
9.31278
9.26407
9.21637
9.16902
9.12161
9.07421
9.02684
8.97988
8.93302
1
1
1
1
1
1
1
1
1
1
1
1
1
1
1
1
1
1.00002
1.00003
1.00013
1.00017
1.00111
1.00268
1.00338
1.01663
1.03655
1.0289
1.54175
1.69819
4.36088
8.85023
10.6246
10.4396
10.0088
9.718
9.59955
9.5582
9.52566
9.48164
9.42965
9.3719
9.31881
9.26741
9.218
9.16977
9.12199
9.07671
9.03069
8.98634
8.9438
1
1
1
1
1
1
1
1
1
1
1
1
1
1
1
1
1.00001
1.00001
1.0001
1.00023
1.00032
1.0004
1.00296
1.00496
1.01666
1.01442
1.14535
1.1082
2.40002
3.56732
8.82203
10.6731
10.4485
9.98192
9.7097
9.60875
9.57179
9.53817
9.49075
9.43572
9.37902
9.32677
9.27461
9.22466
9.17622
9.12882
9.08244
9.03672
8.99156
8.94642
2.92711
2.93331
4.05328
4.34326
4.10377
4.01787
3.98506
3.97984
3.99275
4.00568
4.0099
4.00808
4.00678
4.01067
4.02593
4.05334
4.08837
4.12839
4.1742
4.22453
4.27785
4.33327
4.3897
4.44614
4.50118
4.55418
4.60386
4.6495
4.69102
4.72812
4.76254
4.79275
4.81771
4.83675
4.85007
4.859
4.86258
4.86236
4.85984
4.85305
4.83965
4.82256
4.80239
4.7796
4.7541
4.72607
4.69561
4.66303
4.62848
4.59221
4.55431
4.51499
4.47449
4.43284
4.39023
4.34687
4.30268
4.25794
4.21259
4.16677
4.12046
4.0738
4.02675
3.97946
3.9319
3.88418
3.8363
3.78836
3.74035
3.69238
3.64447
3.59671
3.54913
3.50179
3.45474
3.40816
3.36203
3.31639
3.27126
3.22683
3.18307
3.14005
3.0977
3.05614
3.01533
2.97535
2.93614
2.89784
2.86032
2.82376
2.78806
2.75346
2.71992
2.68778
2.65712
2.62845
2.60213
2.57916
2.56046
2.54904
3.95721
3.97125
4.30412
4.2512
4.09613
3.99666
3.97959
3.99155
4.02107
4.03937
4.03822
4.02705
4.00089
3.99864
4.01776
4.04519
4.08321
4.12109
4.16703
4.21738
4.27098
4.32647
4.38274
4.43905
4.49382
4.54676
4.59651
4.64286
4.68484
4.72258
4.75651
4.78655
4.81159
4.83084
4.84459
4.85344
4.85714
4.85693
4.85514
4.84966
4.83758
4.81883
4.79823
4.77571
4.75079
4.72318
4.69312
4.66082
4.62647
4.59044
4.55269
4.51356
4.47312
4.43156
4.38896
4.34556
4.30137
4.25654
4.2111
4.16519
4.1188
4.07205
4.02496
3.97763
3.93007
3.88236
3.83452
3.78663
3.73869
3.69083
3.643
3.59539
3.54786
3.50068
3.45374
3.40737
3.36123
3.31571
3.27059
3.22622
3.18244
3.13954
3.09718
3.05574
3.01491
2.97507
2.93584
2.89763
2.86007
2.82357
2.78786
2.75333
2.71981
2.68775
2.6571
2.62849
2.60215
2.57914
2.56009
2.54835
5.05995
4.61199
4.55719
4.42764
4.22663
4.10142
4.04211
4.02003
4.01426
4.01063
4.00843
4.00476
4.00544
4.01052
4.02527
4.0535
4.08823
4.12769
4.17175
4.22022
4.27205
4.3264
4.38193
4.43742
4.49165
4.54397
4.59331
4.63911
4.68085
4.71836
4.75191
4.78122
4.80578
4.825
4.83871
4.84733
4.85057
4.85031
4.8488
4.8444
4.83439
4.81517
4.79369
4.77086
4.7462
4.71912
4.68951
4.65753
4.6234
4.58748
4.5498
4.51072
4.47026
4.42868
4.38606
4.34256
4.2983
4.25331
4.20766
4.16162
4.11501
4.06809
4.02082
3.97336
3.9257
3.87802
3.83022
3.78247
3.73471
3.68714
3.63957
3.59222
3.54485
3.49788
3.45124
3.40513
3.35929
3.31405
3.26925
3.22518
3.18149
3.13861
3.09638
3.055
3.01428
2.97443
2.93528
2.89705
2.85961
2.82313
2.78759
2.75313
2.71984
2.68788
2.65747
2.62896
2.60283
2.57991
2.56137
2.54896
5.59003
5.08008
4.84919
4.66092
4.4594
4.29326
4.18163
4.12241
4.09985
4.09478
4.08846
4.07567
4.06054
4.05462
4.05741
4.06858
4.09518
4.1413
4.1861
4.23206
4.28133
4.33359
4.38735
4.44103
4.49332
4.54358
4.59096
4.63505
4.67533
4.7115
4.74364
4.77162
4.79514
4.81376
4.82714
4.83538
4.838
4.83765
4.8362
4.83234
4.82383
4.80665
4.78473
4.76121
4.73641
4.70973
4.68073
4.64936
4.6158
4.58028
4.54302
4.5042
4.46402
4.42259
4.38009
4.33662
4.29234
4.24733
4.20168
4.15553
4.10889
4.06195
4.01474
3.96736
3.91986
3.87237
3.82482
3.77707
3.7297
3.68247
3.63529
3.58832
3.54154
3.49508
3.44866
3.40265
3.35707
3.31202
3.26747
3.22346
3.18005
3.13725
3.09519
3.05383
3.01322
2.97341
2.93439
2.89625
2.85897
2.82267
2.78736
2.75322
2.72023
2.68864
2.65864
2.6306
2.60496
2.58265
2.56406
2.55321
5.95821
5.49801
5.19227
4.95108
4.72897
4.53581
4.38708
4.2887
4.22808
4.18942
4.15914
4.13197
4.11069
4.10395
4.10595
4.11351
4.13182
4.1689
4.21072
4.25438
4.30014
4.34798
4.39721
4.44684
4.49586
4.54325
4.58788
4.62986
4.66835
4.70299
4.73364
4.76016
4.78249
4.80038
4.81332
4.82136
4.82347
4.82308
4.82164
4.81806
4.81041
4.79505
4.77414
4.7506
4.7255
4.69875
4.66999
4.63906
4.60595
4.57088
4.53396
4.49547
4.4555
4.41429
4.3719
4.32856
4.28427
4.23929
4.19357
4.1474
4.10067
4.05374
4.00655
3.9592
3.91179
3.86453
3.81722
3.77038
3.72313
3.67614
3.62919
3.5826
3.53612
3.49005
3.44408
3.39858
3.35337
3.30873
3.26449
3.22086
3.1777
3.13524
3.09334
3.05226
3.01175
2.97229
2.93338
2.89556
2.85849
2.82262
2.78764
2.75399
2.7215
2.69057
2.66129
2.63417
2.60954
2.58856
2.57097
2.56265
6.26651
5.86737
5.54471
5.27138
5.02503
4.80796
4.62864
4.49273
4.39533
4.32779
4.27952
4.24225
4.21387
4.19775
4.19
4.19108
4.19623
4.20987
4.23858
4.2789
4.32218
4.36625
4.41092
4.45597
4.50076
4.54406
4.58573
4.62486
4.66088
4.69341
4.72222
4.74699
4.76776
4.78462
4.7966
4.80439
4.80578
4.80534
4.80381
4.80025
4.79278
4.7786
4.75938
4.73665
4.71153
4.68456
4.65572
4.62499
4.59225
4.55764
4.52116
4.4831
4.44347
4.40259
4.36043
4.31731
4.27314
4.22826
4.18259
4.13647
4.08976
4.04296
3.99598
3.94925
3.9023
3.85549
3.80862
3.762
3.71531
3.66883
3.62237
3.57623
3.53022
3.48458
3.43913
3.39407
3.34931
3.305
3.26111
3.21776
3.17491
3.13268
3.09104
3.05017
3.00995
2.97065
2.93208
2.89457
2.85798
2.82261
2.78828
2.75528
2.72367
2.69372
2.66576
2.6402
2.61755
2.59908
2.58421
2.58024
6.52651
6.18324
5.87398
5.58219
5.32001
5.08493
4.88311
4.71889
4.59148
4.49578
4.42401
4.36857
4.3251
4.29251
4.27413
4.26706
4.26782
4.27187
4.28305
4.3071
4.34394
4.3839
4.42436
4.46504
4.50505
4.54428
4.58222
4.61809
4.6514
4.68167
4.70856
4.73171
4.75105
4.76663
4.77775
4.7848
4.78564
4.78515
4.78354
4.77983
4.77219
4.75894
4.74119
4.71958
4.69487
4.66784
4.63882
4.60807
4.57551
4.54127
4.50522
4.46764
4.42844
4.38797
4.34615
4.30332
4.25938
4.21471
4.16924
4.12336
4.07715
4.03084
3.9843
3.93784
3.89129
3.84486
3.79839
3.75212
3.70589
3.65989
3.61397
3.56832
3.52284
3.47766
3.43276
3.38816
3.34394
3.30008
3.25669
3.21376
3.17138
3.12956
3.08835
3.04787
3.00809
2.96922
2.93118
2.89423
2.85836
2.82363
2.79019
2.75822
2.72797
2.69964
2.67367
2.65065
2.63116
2.61668
2.60708
2.60737
6.74836
6.45027
6.16136
5.87463
5.60197
5.35485
5.13913
4.95579
4.80521
4.68517
4.5909
4.51671
4.45805
4.41375
4.38127
4.36052
4.34922
4.34768
4.34928
4.35546
4.37035
4.40044
4.43454
4.47076
4.50677
4.54248
4.57682
4.60941
4.63989
4.66775
4.6926
4.71404
4.73191
4.74616
4.75643
4.76256
4.76271
4.76217
4.76044
4.75654
4.74857
4.736
4.71923
4.69867
4.67464
4.64784
4.61881
4.58804
4.55558
4.52161
4.48598
4.44889
4.41022
4.37023
4.32888
4.28641
4.24283
4.19843
4.15345
4.10811
4.06249
4.01667
3.97066
3.9246
3.8785
3.8325
3.78654
3.74075
3.69507
3.6496
3.60429
3.55919
3.51433
3.4697
3.42539
3.38133
3.33767
3.29432
3.25146
3.20901
3.16711
3.12576
3.08505
3.04506
3.00584
2.96755
2.93024
2.8942
2.85923
2.82553
2.79332
2.76286
2.7345
2.7086
2.68569
2.66676
2.65239
2.64426
2.64319
2.64442
6.94168
6.68015
6.41491
6.13828
5.86832
5.61848
5.39284
5.19527
5.02707
4.88764
4.77342
4.6805
4.60507
4.54468
4.49748
4.46219
4.43735
4.42193
4.41367
4.41397
4.41664
4.42503
4.44343
4.47306
4.50397
4.53604
4.56754
4.59748
4.62542
4.65089
4.67362
4.69327
4.70971
4.72278
4.73229
4.73745
4.73731
4.73652
4.73451
4.73032
4.72202
4.70989
4.69368
4.67407
4.65071
4.62441
4.59563
4.56501
4.5327
4.49897
4.46373
4.42712
4.38901
4.34959
4.30878
4.26679
4.22377
4.18007
4.13577
4.09106
4.04602
4.00077
3.95532
3.90982
3.86427
3.81882
3.77341
3.72822
3.68311
3.63827
3.59356
3.54912
3.50487
3.4609
3.41719
3.37377
3.33071
3.28798
3.2457
3.20385
3.16255
3.12182
3.08175
3.04245
3.00401
2.9666
2.93043
2.89531
2.8615
2.82936
2.79905
2.77088
2.74536
2.72308
2.70482
2.69225
2.68531
2.68584
2.68835
2.6956
7.11391
6.88316
6.64217
6.38143
6.11921
5.86966
5.63986
5.43411
5.25376
5.0982
4.96633
4.85562
4.76335
4.68712
4.62476
4.57463
4.53537
4.50597
4.4851
4.47203
4.46602
4.46669
4.47031
4.48007
4.50056
4.52486
4.55299
4.58061
4.60674
4.63031
4.65105
4.66894
4.68396
4.69591
4.70467
4.70887
4.70868
4.7078
4.70552
4.70067
4.69217
4.68034
4.66451
4.64551
4.62284
4.59725
4.56905
4.53886
4.50689
4.4735
4.43863
4.4025
4.36493
4.32611
4.28587
4.24459
4.20237
4.15949
4.11594
4.07194
4.02755
3.98292
3.9381
3.89323
3.84831
3.80348
3.75871
3.71414
3.66968
3.62548
3.58144
3.53767
3.49412
3.45082
3.40783
3.36509
3.32274
3.2807
3.23914
3.19799
3.15745
3.11748
3.07827
3.03989
3.00253
2.96649
2.93149
2.89779
2.86574
2.83568
2.80798
2.78311
2.76186
2.7449
2.73383
2.73031
2.73133
2.73544
2.74577
2.76871
7.27309
7.0685
6.84977
6.60574
6.35392
6.10866
5.87854
5.66789
5.47857
5.3109
5.1646
5.03847
4.93035
4.83823
4.76033
4.69529
4.64153
4.59777
4.56309
4.53672
4.51825
4.50652
4.50254
4.50352
4.50776
4.51816
4.53725
4.55844
4.58252
4.60431
4.62356
4.64014
4.65398
4.66493
4.67296
4.67634
4.67611
4.67516
4.67276
4.66765
4.65898
4.64719
4.63161
4.61299
4.59105
4.5663
4.53898
4.50953
4.47817
4.44528
4.41088
4.37524
4.33822
4.29996
4.26046
4.2201
4.17883
4.13685
4.09418
4.051
4.00739
3.96351
3.91942
3.87527
3.83106
3.78693
3.74287
3.69898
3.65525
3.61174
3.56845
3.52538
3.48261
3.44003
3.39783
3.35585
3.31431
3.27306
3.23234
3.19205
3.15242
3.11345
3.07535
3.03825
3.00253
2.96776
2.93432
2.9027
2.87318
2.84619
2.8223
2.80231
2.78756
2.77781
2.77782
2.77943
2.78504
2.79828
2.8251
2.87949
7.42627
7.24377
7.04387
6.81556
6.5747
6.33554
6.10686
5.89342
5.69771
5.52097
5.36329
5.22404
5.10184
4.99521
4.90245
4.82276
4.75464
4.69692
4.64876
4.6094
4.57815
4.55445
4.53816
4.52783
4.52513
4.52618
4.5304
4.54007
4.55686
4.57383
4.59131
4.60674
4.61961
4.62986
4.63684
4.63971
4.63945
4.63846
4.63602
4.63089
4.62201
4.61007