/*--------------------------------*- C++ -*----------------------------------*\
| =========                 |                                                 |
| \\      /  F ield         | OpenFOAM: The Open Source CFD Toolbox           |
|  \\    /   O peration     | Version:  2112                                  |
|   \\  /    A nd           | Website:  www.openfoam.com                      |
|    \\/     M anipulation  |                                                 |
\*---------------------------------------------------------------------------*/
FoamFile
{
    version     2.0;
    format      ascii;
    arch        "LSB;label=32;scalar=64";
    class       surfaceScalarField;
    location    "6.4995";
    object      phi;
}
// * * * * * * * * * * * * * * * * * * * * * * * * * * * * * * * * * * * * * //

dimensions      [1 0 -1 0 0 0 0];

oriented        oriented;

internalField   nonuniform List<scalar> 
13790
(
0.00290515
5.62707e-09
0.00290514
2.99526e-09
0.00290514
8.48217e-10
0.00290514
8.29715e-10
0.00290514
6.67526e-10
0.00290515
5.83821e-10
0.00290515
5.64153e-10
0.00290515
-1.0606e-12
0.00290514
1.06958e-10
0.00290514
3.55665e-09
0.00290506
3.17711e-08
0.00290495
7.28003e-08
0.00290445
2.49707e-07
0.00290384
4.79994e-07
0.0029012
1.43281e-06
0.00289752
2.55841e-06
0.0028935
9.24745e-07
0.00287677
7.09002e-06
0.00288619
-2.52328e-05
0.0028558
-3.35637e-05
0.00284311
-2.27888e-05
0.00273931
9.11273e-05
0.00265594
8.42782e-05
0.00258799
7.12208e-05
0.00252666
6.28779e-05
0.00245023
7.30047e-05
0.00236974
7.85403e-05
0.0022884
8.15964e-05
0.0022055
8.48384e-05
0.00211913
8.86154e-05
0.00202866
9.23401e-05
0.00193496
9.59241e-05
0.00183834
9.92066e-05
0.00173917
0.000101852
0.00163822
0.000103578
0.00153642
0.000104208
0.00143482
0.000103748
0.00133417
0.000102418
0.00123514
0.000100497
0.00113809
9.839e-05
0.00104286
9.64726e-05
0.000949067
9.50378e-05
0.000855505
9.46313e-05
0.000760865
9.54554e-05
0.000663325
9.82894e-05
0.000559976
0.000103483
0.00044847
0.000111558
0.000323672
0.000124216
0.000179982
0.000142745
0.000179519
0.00301309
6.46707e-09
0.00301309
4.81447e-09
0.00301309
3.29273e-09
0.00301309
2.6604e-09
0.00301309
2.23185e-09
0.00301309
1.83243e-09
0.00301309
1.42917e-09
0.00301309
4.95249e-10
0.00301308
3.7552e-10
0.00301308
7.7056e-09
0.00301302
3.74873e-08
0.00301297
9.22595e-08
0.00301269
2.642e-07
0.0030125
5.31296e-07
0.00301128
1.34642e-06
0.00301064
1.98298e-06
0.00300576
2.68488e-06
0.00299921
3.47702e-06
0.00298728
-2.74233e-05
0.00296912
-6.35455e-05
0.00288886
5.1611e-06
0.00280587
0.000161369
0.00272638
0.000167395
0.00265581
0.000143912
0.00258348
0.000134519
0.00250193
0.000150299
0.00241636
0.000162342
0.00232857
0.000169867
0.00223844
0.000177077
0.00214439
0.000184842
0.00204644
0.000192085
0.00194591
0.000198643
0.00184352
0.000204165
0.00173986
0.000208268
0.00163557
0.000210611
0.00153124
0.000211089
0.00142745
0.000209852
0.00132454
0.000207268
0.00122281
0.000203827
0.00112243
0.000200225
0.00102314
0.000197089
0.000924618
0.000194905
0.000825739
0.000194598
0.000725456
0.00019659
0.000622466
0.00020201
0.000514516
0.000211557
0.000400002
0.000226105
0.000276458
0.000247011
0.000143253
0.000275099
0.000322367
0.00312504
6.82208e-09
0.00312504
6.04901e-09
0.00312504
5.36251e-09
0.00312504
4.50803e-09
0.00312504
3.73602e-09
0.00312504
2.93212e-09
0.00312504
2.06764e-09
0.00312505
5.55335e-10
0.00312503
1.2411e-09
0.00312503
1.15064e-08
0.00312497
5.06599e-08
0.0031249
1.22341e-07
0.00312455
3.36559e-07
0.00312424
6.8572e-07
0.00312254
1.62431e-06
0.00312065
2.57753e-06
0.00311632
3.55351e-06
0.00310411
5.03147e-06
0.00308354
-2.12202e-05
0.00301861
-4.62024e-05
0.00291844
5.01661e-05
0.00284229
0.000224924
0.00278274
0.000231789
0.00271777
0.000211113
0.00264226
0.000208807
0.00255728
0.000231123
0.00246934
0.000248762
0.0023787
0.000261315
0.00228467
0.000273251
0.00218619
0.000285367
0.00208373
0.000296575
0.00197864
0.000306284
0.00187162
0.000314158
0.0017633
0.000319662
0.00165442
0.000322446
0.0015457
0.00032247
0.00143784
0.000320087
0.00133115
0.000315983
0.00122589
0.000310873
0.00112199
0.000305742
0.00101911
0.00030143
0.000916685
0.000298808
0.000813547
0.000298803
0.000708997
0.000301958
0.000601504
0.000310092
0.000490257
0.000322773
0.000374572
0.000341713
0.000253178
0.000367599
0.000126839
0.000400642
0.000448858
0.00324116
6.68143e-09
0.00324116
6.35371e-09
0.00324115
6.44946e-09
0.00324115
5.75222e-09
0.00324115
4.97662e-09
0.00324116
3.95752e-09
0.00324116
2.7871e-09
0.00324117
9.50944e-10
0.00324115
3.14864e-09
0.00324114
1.5334e-08
0.00324107
6.09936e-08
0.00324102
1.46725e-07
0.00324065
3.9623e-07
0.00324036
8.25806e-07
0.00323852
1.94993e-06
0.00323639
3.30226e-06
0.00323127
4.77598e-06
0.0032184
7.08626e-06
0.00320006
-1.7053e-05
0.00314619
-4.00103e-05
0.00302928
0.00011076
0.00293691
0.000306016
0.00287485
0.000299364
0.00280401
0.000282953
0.00272128
0.000289132
0.00262927
0.000318846
0.00253494
0.000341871
0.00243791
0.000359431
0.00233741
0.000376022
0.00223251
0.000392408
0.00212392
0.000407313
0.00201296
0.000420003
0.0019003
0.000429962
0.00178673
0.000436527
0.00167302
0.000439443
0.00155983
0.000438697
0.00144776
0.000434844
0.00133718
0.000428671
0.00122849
0.000421336
0.00112157
0.000414271
0.00101598
0.000408513
0.0009109
0.000405432
0.000805035
0.00040562
0.000697933
0.000409891
0.000588542
0.000419993
0.000476058
0.000435361
0.00035983
0.000457911
0.000239958
0.000486645
0.000119317
0.000520588
0.000567952
0.00336158
6.44697e-09
0.00336158
6.37914e-09
0.00336158
6.97002e-09
0.00336158
6.68968e-09
0.00336158
5.96978e-09
0.00336158
4.83527e-09
0.00336158
3.26713e-09
0.00336159
9.17578e-10
0.00336157
3.36601e-09
0.00336157
1.52587e-08
0.0033615
6.57005e-08
0.00336145
1.58291e-07
0.00336103
4.55193e-07
0.00336073
9.66742e-07
0.00335858
2.35564e-06
0.00335598
4.27116e-06
0.00335051
5.95454e-06
0.00333669
9.86183e-06
0.00331592
-1.14016e-05
0.00325199
-2.53924e-05
0.00312237
0.000181057
0.00302347
0.00039632
0.0029698
0.000357361
0.00289695
0.000355836
0.00280943
0.000373882
0.00271392
0.000410456
0.0026151
0.000440072
0.00251219
0.000463673
0.0024045
0.000485795
0.00229192
0.00050703
0.00217589
0.000525942
0.00205756
0.000541757
0.00193753
0.000553627
0.00181687
0.000560811
0.00169667
0.000562979
0.00157793
0.000560464
0.00146131
0.000554187
0.00134703
0.000545194
0.00123522
0.000535109
0.0011256
0.000525522
0.00101753
0.000517983
0.000910507
0.000513881
0.000802789
0.000514284
0.000693748
0.000519898
0.000582274
0.000531815
0.000468284
0.000549372
0.000352593
0.000573521
0.000234384
0.000604047
0.000115314
0.000639112
0.000683225
0.00348648
6.11971e-09
0.00348648
6.21189e-09
0.00348648
6.8439e-09
0.00348648
7.29325e-09
0.00348648
6.49331e-09
0.00348648
5.28889e-09
0.00348649
3.52284e-09
0.00348649
-6.90001e-11
0.00348648
1.35413e-09
0.00348649
6.29909e-09
0.00348642
5.16919e-08
0.00348641
1.26988e-07
0.00348599
4.26191e-07
0.00348582
9.68708e-07
0.00348313
2.64655e-06
0.00347994
5.54059e-06
0.00347518
6.34753e-06
0.00345669
1.38626e-05
0.00343769
-9.23446e-06
0.00337085
-9.10351e-06
0.00323231
0.000257905
0.00313494
0.000479211
0.00307448
0.000426226
0.00299273
0.000438087
0.00289958
0.000465829
0.0028
0.000507547
0.00269549
0.000544322
0.00258604
0.000574527
0.0024711
0.00060299
0.00235098
0.000629526
0.00222759
0.000652475
0.00210213
0.000671018
0.00197558
0.000684111
0.0018491
0.000691241
0.00172358
0.000692168
0.00159999
0.000687099
0.00147912
0.000677443
0.00136148
0.000664785
0.00124719
0.000651216
0.00113556
0.000638819
0.00102587
0.000629265
0.000916613
0.000624629
0.000806937
0.000624805
0.000696164
0.00063169
0.000583262
0.000645193
0.000468135
0.000664678
0.000350693
0.000691024
0.000232392
0.000721619
0.000115011
0.000756136
0.000798415
0.00361602
5.75948e-09
0.00361602
5.9652e-09
0.00361602
6.55939e-09
0.00361602
7.41337e-09
0.00361602
7.20114e-09
0.00361603
6.44132e-09
0.00361603
4.99449e-09
0.00361604
-8.43419e-10
0.00361602
-2.00058e-09
0.00361605
-1.79341e-08
0.00361601
3.74837e-09
0.00361618
-6.39325e-08
0.00361596
1.88585e-07
0.0036169
-1.72965e-07
0.00361499
1.69972e-06
0.0036127
5.75124e-06
0.00360614
6.82092e-06
0.00358445
1.3934e-05
0.00356571
-5.15164e-06
0.0035003
8.56536e-06
0.0033597
0.000336807
0.00326935
0.000551608
0.00318877
0.000511152
0.003094
0.000533671
0.00299243
0.000568725
0.00288644
0.00061239
0.00277507
0.00065614
0.00265833
0.000692953
0.0025356
0.000727896
0.00240829
0.000759434
0.00227843
0.000786011
0.00214711
0.000806458
0.00201562
0.000819833
0.00188528
0.000825821
0.00175694
0.000824522
0.001631
0.000816705
0.00150789
0.000803541
0.00138772
0.00078744
0.00127086
0.000770354
0.00115662
0.000755195
0.00104425
0.000743715
0.000933035
0.000737765
0.000820743
0.000738554
0.000707371
0.000746409
0.000591343
0.000761546
0.000474085
0.00078223
0.000355448
0.000809986
0.000235379
0.000841111
0.000115573
0.00087572
0.000914334
0.00375038
5.40457e-09
0.00375038
5.63026e-09
0.00375038
6.20733e-09
0.00375038
7.07321e-09
0.00375038
7.73737e-09
0.00375038
8.1107e-09
0.00375037
8.5281e-09
0.00375039
5.66275e-10
0.00375036
-7.8372e-09
0.0037505
-7.4682e-08
0.00375042
-1.01915e-07
0.00375113
-5.26534e-07
0.00375086
-5.13926e-07
0.00375444
-3.38224e-06
0.0037508
9.68826e-07
0.00374746
4.70869e-06
0.00373887
7.93066e-06
0.00373879
1.01919e-05
0.00371267
7.25091e-06
0.00364259
2.84376e-05
0.00348623
0.000428276
0.00340592
0.000604462
0.00330415
0.000619104
0.00319966
0.000640263
0.00309033
0.000682163
0.00297593
0.000727827
0.00285768
0.000774977
0.0027326
0.00081947
0.00260162
0.000860671
0.00246765
0.000896468
0.00233277
0.000925378
0.00219808
0.000946223
0.00206462
0.000958626
0.00193321
0.00096234
0.0018043
0.000958018
0.00167811
0.000947015
0.00155426
0.000931039
0.00143279
0.000911895
0.00131336
0.00089274
0.00119547
0.00087541
0.00107878
0.00086252
0.000962216
0.000856116
0.000845634
0.000856188
0.000728025
0.000865088
0.000608854
0.000881085
0.000487434
0.000904074
0.000364435
0.000933077
0.000241375
0.000963708
0.00011984
0.000997201
0.00103464
0.00388972
5.06651e-09
0.00388972
5.23764e-09
0.00388972
5.83391e-09
0.00388972
6.61979e-09
0.00388972
7.55074e-09
0.00388972
8.49805e-09
0.00388972
9.39665e-09
0.00388972
5.81266e-09
0.00388971
-1.36357e-09
0.00388962
-1.59085e-08
0.0038895
-2.97746e-08
0.00388907
-1.00515e-07
0.00388825
-1.34415e-07
0.00388345
-5.24443e-07
0.00388194
6.26091e-07
0.00389495
1.264e-06
0.00387437
7.10924e-06
0.00388485
1.02408e-05
0.00385287
1.52607e-05
0.00377581
5.30815e-05
0.00358449
0.000551975
0.00350299
0.00066045
0.00340864
0.00071522
0.00330442
0.000751882
0.00318843
0.000801441
0.00306583
0.000851528
0.00293957
0.000902224
0.00280689
0.000953322
0.00267054
0.000999685
0.00253323
0.00103834
0.00239645
0.00106758
0.00226135
0.00108714
0.00212871
0.00109698
0.00199868
0.00109783
0.00187096
0.00109056
0.00174534
0.00107679
0.00162119
0.0010589
0.0014976
0.00103881
0.00137507
0.00101832
0.00125258
0.00100045
0.0011306
0.000986956
0.00100808
0.000980687
0.0008845
0.0009812
0.000760655
0.000990481
0.000634905
0.00100758
0.000508855
0.00103069
0.000381509
0.00106109
0.000252449
0.00109258
0.000124066
0.00112573
0.00115941
0.00403424
4.71301e-09
0.00403424
4.84088e-09
0.00403424
5.42063e-09
0.00403425
6.11784e-09
0.00403425
7.03422e-09
0.00403425
7.93411e-09
0.00403425
8.69604e-09
0.00403424
7.31809e-09
0.00403424
6.98094e-09
0.0040342
1.13576e-08
0.00403411
2.96448e-08
0.00403396
8.83059e-08
0.00403321
1.70076e-07
0.00403081
5.8987e-07
0.00402856
1.3323e-06
0.00403935
8.95797e-07
0.00401862
6.25913e-06
0.00402723
1.13359e-05
0.00399552
2.3942e-05
0.00392108
7.64213e-05
0.00372149
0.000672901
0.00361332
0.000760542
0.00351892
0.000811158
0.00340811
0.000863001
0.0032851
0.000923433
0.0031548
0.000981776
0.00302009
0.00103783
0.00288254
0.00109318
0.00274448
0.00114217
0.00260732
0.00118076
0.00247244
0.00120824
0.00234066
0.00122495
0.00221211
0.00123181
0.00208638
0.00122997
0.00196223
0.00122089
0.00183844
0.00120631
0.00171433
0.00118775
0.00158917
0.00116792
0.00146201
0.00114935
0.00133303
0.00113188
0.00120296
0.0011195
0.00107222
0.00111329
0.000940638
0.00111452
0.000807717
0.0011252
0.000673951
0.00114231
0.000539031
0.00116688
0.000403102
0.00119752
0.000267487
0.00122811
0.000133342
0.00126046
0.0012937
0.00418414
4.34296e-09
0.00418414
4.44351e-09
0.00418414
4.96331e-09
0.00418414
5.5948e-09
0.00418414
6.46029e-09
0.00418414
7.17192e-09
0.00418414
7.54367e-09
0.00418414
9.03145e-09
0.00418413
1.34536e-08
0.00418408
3.95336e-08
0.00418402
9.42251e-08
0.00418377
2.5569e-07
0.00418375
5.12548e-07
0.00418058
1.24263e-06
0.00418016
1.65786e-06
0.00423725
1.84194e-07
0.0041859
9.17368e-06
0.00416521
1.45435e-05
0.00414113
3.389e-05
0.00406789
0.00010064
0.00385979
0.000795729
0.00374383
0.000878608
0.00363194
0.000922564
0.00350912
0.000983094
0.00337672
0.00105225
0.00323937
0.00111754
0.00309986
0.00117804
0.00296207
0.00123494
0.0028272
0.00128262
0.00269582
0.00131846
0.00256839
0.0013427
0.00244451
0.00135643
0.00232323
0.00136105
0.00220299
0.0013581
0.00208197
0.00134898
0.00195894
0.0013354
0.00183217
0.00131926
0.0017023
0.00130091
0.00157026
0.00128448
0.00143447
0.0012705
0.00129625
0.00126052
0.0011552
0.00125649
0.00101284
0.00125822
0.000870067
0.00126951
0.000725401
0.00128821
0.000580612
0.00131289
0.000435618
0.00134393
0.000288442
0.00137562
0.000141926
0.00140754
0.00143681
0.0043396
3.93848e-09
0.0043396
4.05803e-09
0.0043396
4.46065e-09
0.0043396
5.08337e-09
0.0043396
5.91503e-09
0.0043396
6.66919e-09
0.0043396
6.44743e-09
0.0043396
6.72588e-09
0.00433961
7.52178e-09
0.00433958
2.19684e-08
0.0043396
4.58733e-08
0.00433924
1.49049e-07
0.00433892
3.49653e-07
0.00433171
1.32151e-06
0.00433079
2.39302e-06
0.00438871
1.67598e-06
0.00433438
1.08354e-05
0.00431199
1.51352e-05
0.00429196
4.00855e-05
0.0042268
0.000121077
0.00401496
0.000921394
0.00387963
0.00101442
0.00374495
0.00105563
0.00360558
0.0011173
0.00346385
0.00118864
0.0033233
0.0012551
0.00318614
0.00131647
0.00305497
0.00137129
0.00292957
0.00141459
0.002809
0.00144637
0.00269213
0.00146757
0.00257734
0.00147999
0.00246269
0.00148503
0.0023468
0.00148303
0.00222823
0.00147572
0.00210548
0.00146546
0.00197721
0.00145351
0.00184217
0.00144042
0.00170217
0.00142786
0.00155842
0.00141732
0.00141074
0.0014117
0.00125886
0.00141057
0.00110509
0.00141388
0.00094968
0.00142679
0.000792567
0.00144611
0.000634717
0.00147198
0.000474487
0.00150498
0.00031542
0.00153497
0.000158143
0.00156608
0.00159646
0.00450084
3.51876e-09
0.00450084
3.64552e-09
0.00450084
3.93459e-09
0.00450084
4.58154e-09
0.00450084
5.33855e-09
0.00450084
6.11088e-09
0.00450084
4.49594e-09
0.00450084
5.09991e-09
0.00450085
1.43551e-09
0.00450079
2.07041e-08
0.00450082
2.57425e-08
0.0045005
1.05825e-07
0.00450134
2.51272e-07
0.00450579
4.07294e-07
0.00450447
1.40244e-06
0.00444009
1.36281e-06
0.00448891
7.73641e-06
0.00448044
1.20632e-05
0.00445967
4.33977e-05
0.00440472
0.000141398
0.00417433
0.0010571
0.00400774
0.00117856
0.00384756
0.00121099
0.0036954
0.001262
0.00355169
0.0013261
0.00341654
0.00138644
0.00329003
0.0014453
0.00317215
0.00149529
0.00306134
0.00153353
0.00295475
0.00156266
0.0028515
0.00158391
0.00274854
0.00159823
0.00264051
0.00160561
0.00252599
0.00160697
0.00240533
0.00160418
0.00227881
0.0015987
0.00214602
0.00159212
0.00200618
0.00158512
0.00185909
0.00157889
0.00170553
0.00157403
0.00154834
0.00157208
0.00138544
0.00157632
0.00121768
0.00158372
0.00104859
0.00159823
0.000876853
0.00161928
0.000703486
0.0016471
0.00052981
0.00168038
0.000351828
0.00171408
0.000173022
0.00174589
0.00177106
0.00466807
3.09132e-09
0.00466807
3.16766e-09
0.00466807
3.48039e-09
0.00466807
4.01017e-09
0.00466807
4.48494e-09
0.00466807
4.90304e-09
0.00466807
5.05332e-09
0.00466806
4.32302e-09
0.00466809
1.3892e-09
0.00466795
1.82607e-08
0.00466813
7.75038e-09
0.00466774
1.83553e-07
0.00466738
7.16975e-08
0.00466452
1.21831e-06
0.00466494
-2.98254e-07
0.0046732
-3.70065e-06
0.00467307
4.68234e-06
0.00468366
2.92077e-06
0.00464488
5.54427e-05
0.00457587
0.00017591
0.00429414
0.00122821
0.00409432
0.00137245
0.00392481
0.00137324
0.00377906
0.00139874
0.00365024
0.00144759
0.00353679
0.00149869
0.00343473
0.00155391
0.00333875
0.00160113
0.00324814
0.0016395
0.00315668
0.00167032
0.00306113
0.00169414
0.00295992
0.00171215
0.00285088
0.00172385
0.00273507
0.00173119
0.00261167
0.00173485
0.00248054
0.00173662
0.00234104
0.00173664
0.00219432
0.00173589
0.00204034
0.00173678
0.00187916
0.00173848
0.00171088
0.00174392
0.00153805
0.00175207
0.00135901
0.00176565
0.00117354
0.00178616
0.000984701
0.00181002
0.000792854
0.00184084
0.000595588
0.00187925
0.000397433
0.00191254
0.000200838
0.00194424
0.00197406
0.00484151
2.62471e-09
0.00484151
2.69899e-09
0.00484151
2.96188e-09
0.00484151
3.42167e-09
0.00484151
3.79582e-09
0.00484151
4.09802e-09
0.00484151
4.00839e-09
0.00484151
1.12685e-09
0.00484151
-2.17642e-09
0.00484154
-5.33446e-09
0.00484154
-7.92273e-09
0.00484172
6.59366e-09
0.00484166
6.26374e-09
0.00484046
5.2233e-07
0.00484465
-2.26589e-07
0.00485073
-4.05495e-06
0.0048251
8.98365e-06
0.00499664
-1.0239e-05
0.00471903
9.71712e-05
0.00472159
0.000223021
0.00436383
0.00145705
0.00412067
0.00160524
0.00396621
0.00151649
0.00385342
0.00150123
0.00376369
0.0015325
0.00369185
0.0015762
0.00362271
0.00163489
0.00355471
0.00168743
0.00348485
0.0017312
0.00340456
0.00176718
0.00331362
0.00179805
0.00321151
0.0018241
0.00309861
0.00184408
0.00297707
0.00185947
0.00284728
0.00187049
0.0027104
0.00187924
0.00256542
0.00188706
0.00241205
0.00189365
0.00225108
0.0019016
0.00208236
0.00191055
0.00190638
0.0019237
0.00172074
0.0019413
0.00152843
0.00196029
0.00132952
0.00198765
0.00112108
0.0020203
0.000907686
0.00205637
0.000689647
0.00209953
0.000462128
0.00214179
0.000228038
0.0021793
0.00220377
0.00502139
2.13414e-09
0.00502139
2.22006e-09
0.00502139
2.40811e-09
0.0050214
2.82189e-09
0.0050214
3.12561e-09
0.0050214
3.33158e-09
0.0050214
1.11339e-09
0.0050214
-2.26251e-09
0.00502141
-9.59617e-09
0.00502143
-2.34144e-08
0.00502148
-3.61714e-08
0.00502165
-1.18185e-07
0.00502179
-8.03211e-08
0.00502274
-5.21385e-07
0.00502431
-1.60976e-08
0.00503059
-7.35334e-06
0.00499176
2.77691e-05
0.0052099
-6.42322e-05
0.00484828
0.000241175
0.00492195
0.000170588
0.00445043
0.0017934
0.00418803
0.00187782
0.00407689
0.00163324
0.00402416
0.0015617
0.00397947
0.00159674
0.00395047
0.00163087
0.00390793
0.0017025
0.00385187
0.0017638
0.00378266
0.00181314
0.00370043
0.00185691
0.00360655
0.00189759
0.00350134
0.00193455
0.00338457
0.00196519
0.00325832
0.00199075
0.00312207
0.00201115
0.00297821
0.00202771
0.00282718
0.00204306
0.00266804
0.0020571
0.0025008
0.00207294
0.00232497
0.00208974
0.00214127
0.0021106
0.00194819
0.00213765
0.00174295
0.00216846
0.00152718
0.00220585
0.00130059
0.00224828
0.00106178
0.00229702
0.000809161
0.0023538
0.000546665
0.0024049
0.000279209
0.0024486
0.00248509
0.00520796
1.65817e-09
0.00520796
1.67875e-09
0.00520796
1.89227e-09
0.00520797
2.19895e-09
0.00520797
2.23588e-09
0.00520797
1.81954e-09
0.00520797
9.7198e-10
0.00520796
1.37171e-09
0.00520799
3.89799e-09
0.00520792
1.42737e-08
0.00520818
1.28364e-08
0.00520773
7.17698e-08
0.0052085
-7.72891e-08
0.00520905
-1.03467e-10
0.00520265
-1.76043e-06
0.00521067
2.44481e-06
0.00511479
1.09112e-05
0.00514338
1.35601e-05
0.0052856
8.75516e-05
0.00509444
0.000337347
0.00539833
0.00137025
0.00516986
0.00210171
0.00481186
0.00198437
0.00465808
0.00172623
0.00454849
0.0017237
0.00445084
0.00174135
0.00435399
0.00180931
0.00425775
0.00186421
0.00415771
0.00191225
0.00405307
0.00195819
0.00394431
0.00200371
0.00382971
0.00204787
0.00370747
0.00208754
0.00357763
0.00212213
0.00343904
0.0021521
0.00329152
0.00217829
0.00313621
0.00220206
0.00297233
0.00222484
0.00280042
0.00224899
0.00261899
0.00227485
0.00242815
0.00230508
0.00222699
0.00234199
0.00201246
0.00238609
0.00178275
0.00243865
0.00153478
0.00249778
0.0012713
0.00256293
0.000988825
0.00263915
0.000678646
0.00271706
0.000342053
0.00278626
0.00282919
0.00540147
1.16548e-09
0.00540147
1.12747e-09
0.00540147
1.32401e-09
0.00540147
1.42028e-09
0.00540147
1.76411e-09
0.00540147
1.50425e-09
0.00540146
2.37794e-09
0.00540146
5.16884e-09
0.00540144
1.53428e-08
0.00540142
3.58652e-08
0.00540131
9.54788e-08
0.00540116
1.919e-07
0.00540044
4.61451e-07
0.00539954
8.1314e-07
0.00538784
1.59383e-06
0.0053868
3.96201e-06
0.00547109
5.38864e-06
0.0053819
2.91381e-05
0.00536688
6.99035e-05
0.00548748
0.000190876
0.00603133
0.000677307
0.00575052
0.00234332
0.00545931
0.00224492
0.00520545
0.00197416
0.00503525
0.001898
0.00488861
0.00189244
0.00477178
0.00193062
0.0046548
0.00198322
0.00453534
0.00202775
0.00441431
0.00207091
0.00429463
0.00211645
0.0041743
0.00216319
0.00405046
0.0022081
0.00392186
0.00224949
0.00378754
0.00228738
0.003645
0.00232293
0.00349307
0.00235659
0.00333275
0.00238813
0.00316234
0.00242285
0.00297958
0.00246146
0.0027852
0.00250419
0.00257796
0.0025537
0.00235684
0.0026109
0.00211959
0.00267942
0.00185867
0.00276123
0.00156809
0.00285532
0.00124363
0.00296504
0.000880179
0.00308148
0.000470878
0.00319695
0.00330224
0.00560216
6.12231e-10
0.00560216
6.50464e-10
0.00560216
7.93421e-10
0.00560216
8.92865e-10
0.00560216
1.10822e-09
0.00560216
1.41231e-09
0.00560216
3.26999e-09
0.00560215
6.62553e-09
0.00560213
2.17098e-08
0.00560212
4.03257e-08
0.00560203
1.37749e-07
0.00560197
1.31275e-07
0.00560193
6.0392e-07
0.00560204
3.81094e-07
0.00559865
1.03602e-06
0.00560236
2.32188e-06
0.00565372
-2.63197e-08
0.00561092
2.29563e-05
0.00563473
3.14032e-05
0.00562717
0.0001571
0.00574566
0.000466301
0.00569782
0.00226046
0.00559769
0.00231549
0.00540341
0.00215549
0.00524862
0.0020402
0.00511476
0.00202196
0.00500937
0.00203238
0.00491411
0.0020744
0.00481312
0.00211983
0.00470766
0.00216461
0.00460059
0.00221301
0.00449326
0.00226373
0.00438327
0.00231405
0.00426877
0.00236204
0.00414751
0.00240834
0.00402073
0.00245074
0.00388402
0.00249463
0.00373421
0.00253967
0.00357277
0.00258702
0.00339864
0.00263784
0.00321264
0.00269304
0.00301209
0.00275822
0.00279365
0.00283369
0.00255468
0.0029216
0.00229207
0.00302656
0.00199767
0.00315209
0.00165641
0.00330832
0.00123741
0.00350153
0.000707183
0.00372829
0.00401142
0.00581031
1.09354e-10
0.00581031
2.04481e-10
0.00581031
3.12925e-10
0.00581031
4.69414e-10
0.00581031
5.99877e-10
0.00581031
1.05833e-09
0.00581031
1.33027e-09
0.00581031
3.8344e-09
0.00581033
5.92159e-09
0.00581035
1.63445e-08
0.00581048
2.68633e-08
0.0058103
1.7266e-07
0.00581105
6.29809e-08
0.00581066
7.72423e-07
0.00580818
2.96775e-07
0.00582394
-3.1376e-06
0.00586743
-1.01715e-05
0.00582302
3.29477e-05
0.00588917
-4.10425e-05
0.00576736
0.000248126
0.00581957
0.000345998
0.00554403
0.00239877
0.00541673
0.00244161
0.00534728
0.00222895
0.00527006
0.00211502
0.00518704
0.00209932
0.0051172
0.00209919
0.00505071
0.00213931
0.00498435
0.00218441
0.00491938
0.00223172
0.00485051
0.00228426
0.00477503
0.00234005
0.00469202
0.00239598
0.00460358
0.0024499
0.0045085
0.00250301
0.00440255
0.0025574
0.00428577
0.00261318
0.00415838
0.00266899
0.00402086
0.00272573
0.00387074
0.00278951
0.00370627
0.00285783
0.00352974
0.00293585
0.0033373
0.00302821
0.00312642
0.00313687
0.0028875
0.00326883
0.0026137
0.00342853
0.00229466
0.00362965
0.0018914
0.00390599
0.0013465
0.00427428
0.00536009
0.00840003
9.88503e-12
0.00840003
3.64318e-11
0.00840003
8.39112e-11
0.00840003
1.44199e-10
0.00840003
2.70758e-10
0.00840003
4.12116e-10
0.00840003
9.3563e-10
0.00840003
1.50837e-09
0.00840003
4.00206e-09
0.00840009
7.73355e-09
0.00839993
1.89861e-08
0.00840032
4.98551e-08
0.00839999
1.63915e-07
0.00840051
3.81026e-07
0.0083981
1.4038e-06
0.00836864
2.64175e-06
0.00836327
3.15208e-06
0.00853556
1.07611e-05
0.00830825
3.43134e-05
0.0083809
0.000114997
0.00810079
0.000571168
0.00819869
0.00204514
0.0081052
0.00257174
0.00793054
0.00242649
0.0078184
0.00222579
0.00770233
0.0022223
0.00758189
0.00223337
0.00746855
0.00227028
0.00735697
0.00231607
0.00725513
0.00235859
0.00716
0.00240462
0.00706649
0.00245423
0.00697341
0.00250572
0.0068741
0.00256192
0.00676619
0.00262003
0.00665557
0.00267655
0.00654114
0.00273422
0.00641839
0.00279508
0.00628818
0.00285875
0.0061513
0.00292886
0.00600646
0.00300339
0.00585593
0.003088
0.00570545
0.00317911
0.00555547
0.00328847
0.0054205
0.00340704
0.00530397
0.00354802
0.00524424
0.00369206
0.0053326
0.00381916
0.00572137
0.00388617
0.00357907
0.00750301
0.00840003
1.4136e-12
0.00840003
5.19267e-12
0.00840003
1.56003e-11
0.00840003
2.91582e-11
0.00840003
6.66732e-11
0.00840003
1.09753e-10
0.00840003
3.69321e-10
0.00840003
6.56816e-10
0.00840003
2.50328e-09
0.0084
5.75959e-09
0.00840009
1.57129e-08
0.0083998
2.75335e-08
0.00839979
1.71673e-07
0.00840025
3.10374e-07
0.0083998
1.35368e-06
0.00837613
3.65483e-06
0.0083736
7.16878e-06
0.00848642
9.56897e-06
0.00837528
3.35588e-05
0.00832213
8.86992e-05
0.00855052
0.000269356
0.0092379
0.000946039
0.00902667
0.00280401
0.00870701
0.00276997
0.00846017
0.00246469
0.00825592
0.00240695
0.00806509
0.00240543
0.00789875
0.00242969
0.00775251
0.0024669
0.00762231
0.00250011
0.00751272
0.00253277
0.00741406
0.00256946
0.00732189
0.00260964
0.0072344
0.00265744
0.00715212
0.00270804
0.00707109
0.00276196
0.00699338
0.00281772
0.00691653
0.00287739
0.00684333
0.00293785
0.00677429
0.00300421
0.00671237
0.00307079
0.00666071
0.00314461
0.00662566
0.00321762
0.00662238
0.00329389
0.00666062
0.00337097
0.00677725
0.00343375
0.00698037
0.00349117
0.00732213
0.00347924
0.0077699
0.00343929
0.00308008
0.00826816
0.00840003
1.09644e-13
0.00840003
6.1145e-13
0.00840003
2.0431e-12
0.00840003
3.34285e-12
0.00840003
2.09805e-11
0.00840003
2.9047e-11
0.00840003
1.57714e-10
0.00840003
2.98296e-10
0.00840003
1.09671e-09
0.00840004
2.78375e-09
0.00840002
6.35267e-09
0.00840027
9.48455e-09
0.00840004
7.18065e-08
0.00839939
1.355e-07
0.00840132
6.98235e-07
0.00840738
2.14649e-06
0.00840837
2.90692e-06
0.00835124
3.72404e-06
0.00840541
2.07479e-05
0.00841067
4.34819e-05
0.00845571
0.000175798
0.00871098
0.000553959
0.00874419
0.00264764
0.0087771
0.0026902
0.00851691
0.00270332
0.00834928
0.00254631
0.00818815
0.00253928
0.00804222
0.00255743
0.00791698
0.0025874
0.00780262
0.00261361
0.00770914
0.00263447
0.0076279
0.00266006
0.00755816
0.00268772
0.00749915
0.00272317
0.00744885
0.00276155
0.00740608
0.00280601
0.00737369
0.00285189
0.00735047
0.00290257
0.00733664
0.00295437
0.00733697
0.00300816
0.00734904
0.0030636
0.00738299
0.00311454
0.00743697
0.00316762
0.00752874
0.00320474
0.00765828
0.00324356
0.00784631
0.00324805
0.00808897
0.0032508
0.0083817
0.00318886
0.00871902
0.00310379
0.00288984
0.00891053
0.00840003
-2.42745e-14
0.00840003
-2.65146e-13
0.00840003
5.33796e-14
0.00840003
-8.01618e-13
0.00840003
3.80737e-12
0.00840003
8.15354e-13
0.00840003
1.04481e-10
0.00840003
1.5868e-10
0.00840003
7.14627e-10
0.00840004
2.12432e-09
0.0084
3.41309e-09
0.0084002
3.43693e-09
0.00839997
6.58818e-08
0.00839984
9.97453e-08
0.0083999
3.97225e-07
0.00840193
1.31767e-06
0.00839789
1.33235e-06
0.00853566
2.86177e-07
0.00839978
1.68724e-05
0.00849269
2.2616e-05
0.00843286
0.000168861
0.00837466
0.000458036
0.00840699
0.0024127
0.00824017
0.00284472
0.00818796
0.002753
0.00810404
0.00261435
0.0080171
0.00260303
0.00794287
0.00261416
0.00787753
0.00264403
0.00781581
0.00266969
0.0077675
0.00268692
0.00773325
0.00270604
0.00770434
0.00272789
0.00768499
0.0027529
0.00767377
0.00278109
0.0076718
0.00281363
0.00767898
0.00284974
0.00770088
0.00288571
0.00773504
0.00292586
0.00778864
0.00296099
0.00785808
0.00300087
0.00794986
0.0030286
0.00806344
0.00305934
0.00820433
0.00306819
0.00837319
0.00307809
0.00857171
0.00305267
0.00879989
0.00302553
0.00904057
0.00295131
0.00931749
0.00282924
0.00271663
0.00949308
0.00840003
2.49264e-13
0.00840003
5.55915e-13
0.00840003
3.04768e-12
0.00840003
3.76046e-12
0.00840003
1.86853e-11
0.00840003
2.1188e-11
0.00840003
1.17026e-10
0.00840003
2.64648e-11
0.00840003
8.00256e-10
0.00840003
2.9332e-10
0.00840005
3.97585e-09
0.00839995
2.87524e-09
0.00840009
4.82883e-08
0.00839984
-1.8377e-08
0.00839961
3.82085e-07
0.0084006
8.3543e-08
0.00840099
3.64776e-07
0.00836563
4.78829e-07
0.008389
2.69747e-05
0.00804581
-1.04024e-07
0.00833318
0.000248467
0.00823385
0.000398318
0.00830749
0.00213653
0.00818982
0.00296789
0.00810136
0.00285876
0.00809433
0.00263847
0.00804865
0.00265811
0.00799588
0.00267989
0.00795628
0.00269595
0.00792187
0.00271692
0.00789354
0.00272973
0.00787719
0.00274104
0.00787269
0.00275149
0.00788039
0.00276397
0.00789999
0.00278211
0.00793649
0.00280104
0.00798237
0.00282618
0.00804145
0.00284629
0.00811179
0.00287316
0.00819861
0.00289077
0.00830086
0.00291348
0.00841992
0.00292248
0.00855767
0.00293241
0.00871193
0.00292306
0.00888742
0.00291011
0.00907392
0.00287227
0.00928006
0.00282421
0.00951249
0.00272322
0.00968941
0.00265601
0.00253104
0.00987806
0.00840003
8.85081e-14
0.00840003
4.35229e-13
0.00840003
1.37961e-12
0.00840003
3.79107e-12
0.00840003
8.98141e-12
0.00840003
1.90054e-11
0.00840003
4.54025e-11
0.00840003
1.0671e-10
0.00840003
3.25479e-10
0.00840003
5.93226e-10
0.00840001
2.34869e-09
0.00840006
2.22392e-09
0.00839993
7.67395e-09
0.0083998
2.89237e-08
0.00840066
1.20935e-07
0.00839895
2.45093e-07
0.00838696
8.56032e-07
0.00838366
2.30373e-06
0.00848647
7.21157e-06
0.00836178
2.39427e-05
0.0084866
7.37914e-05
0.0085749
0.000263194
0.00945191
0.000901259
0.00913927
0.00331145
0.008919
0.00306286
0.00866297
0.00289943
0.00851192
0.00281422
0.00842422
0.00276701
0.00834347
0.00277596
0.0082757
0.00278531
0.00822172
0.00278979
0.00818301
0.00278938
0.00816661
0.00278481
0.0081712
0.0027789
0.00819413
0.00277959
0.00823615
0.00277897
0.00829513
0.00278665
0.00837285
0.00278959
0.00846674
0.00280106
0.00857475
0.00280373
0.00869805
0.00281011
0.00883306
0.00280547
0.00898186
0.00279898
0.009139
0.00277886
0.00930831
0.0027511
0.00948205
0.00270812
0.0096769
0.00263728
0.00983509
0.00257116
0.0100075
0.00248905
0.00237808
0.0101654