/*--------------------------------*- C++ -*----------------------------------*\
| =========                 |                                                 |
| \\      /  F ield         | OpenFOAM: The Open Source CFD Toolbox           |
|  \\    /   O peration     | Version:  2112                                  |
|   \\  /    A nd           | Website:  www.openfoam.com                      |
|    \\/     M anipulation  |                                                 |
\*---------------------------------------------------------------------------*/
FoamFile
{
    version     2.0;
    format      ascii;
    arch        "LSB;label=32;scalar=64";
    class       volScalarField;
    location    "6.4995";
    object      T;
}
// * * * * * * * * * * * * * * * * * * * * * * * * * * * * * * * * * * * * * //

dimensions      [0 0 0 1 0 0 0];

internalField   nonuniform List<scalar> 
7000
(
1
1
1
1
1
1
0.999998
1.00001
1.00002
1.00024
1.00042
1.00196
1.00288
1.01116
1.01843
1.04932
1.13704
1.36114
1.83548
2.64075
2.77958
2.76699
2.74289
2.73518
2.73978
2.74792
2.75551
2.76001
2.76328
2.76441
2.76695
2.76877
2.76988
2.77
2.76957
2.76887
2.76798
2.76717
2.76653
2.76582
2.7651
2.76406
2.76309
2.76264
2.76097
2.76182
2.76205
2.76145
2.77043
2.7744
1
1
1
1
1
1
0.999998
1.00001
1.00002
1.00023
1.0004
1.00186
1.00273
1.01046
1.01748
1.0451
1.13456
1.34564
1.83
2.63792
2.78275
2.76852
2.7401
2.73356
2.73977
2.749
2.75643
2.76098
2.76405
2.76539
2.76825
2.77025
2.77161
2.77185
2.77146
2.77075
2.76973
2.7688
2.76807
2.76732
2.7666
2.7655
2.76468
2.76421
2.76266
2.76362
2.76314
2.76368
2.77246
2.77228
1
1
1
1
1
1
0.999998
1.00001
1.00002
1.00022
1.00038
1.00179
1.00261
1.01007
1.01686
1.04365
1.13205
1.33891
1.82687
2.64175
2.78371
2.7701
2.74145
2.73433
2.74064
2.74932
2.7563
2.76101
2.7634
2.76546
2.76797
2.76979
2.77033
2.77
2.76924
2.76841
2.76748
2.76661
2.76573
2.76477
2.76398
2.76267
2.76211
2.76202
2.76044
2.76293
2.76336
2.76563
2.77316
2.77271
1
1
1
1
1
1
0.999999
1.00001
1.00002
1.00021
1.00036
1.00168
1.00245
1.00952
1.01604
1.04129
1.12912
1.32972
1.81989
2.63691
2.7831
2.76851
2.73898
2.73405
2.74155
2.74984
2.7568
2.76156
2.76396
2.76614
2.76869
2.77044
2.77077
2.77023
2.76903
2.76754
2.76596
2.76493
2.76421
2.76347
2.76279
2.76125
2.76106
2.76113
2.76033
2.76241
2.7614
2.76479
2.77398
2.77073
1
1
1
1
1
1
0.999999
1.00001
1.00002
1.00019
1.00033
1.00157
1.00227
1.00891
1.01516
1.03891
1.12613
1.32059
1.81386
2.6351
2.78299
2.76679
2.73734
2.7343
2.74222
2.74985
2.7566
2.76118
2.76395
2.76667
2.76924
2.7702
2.76994
2.76905
2.76795
2.76665
2.76497
2.76344
2.76199
2.76094
2.76035
2.75949
2.75948
2.75882
2.75823
2.76093
2.76138
2.76473
2.7719
2.77047
1
1
1
1
1
1
1
1.00001
1.00002
1.00018
1.0003
1.00143
1.00206
1.00813
1.01412
1.03606
1.12247
1.31113
1.80712
2.63238
2.78106
2.76194
2.73714
2.73529
2.7432
2.74932
2.75609
2.76101
2.76394
2.76663
2.76895
2.76952
2.76903
2.76773
2.76606
2.76476
2.76391
2.7633
2.76224
2.76097
2.75974
2.75761
2.75854
2.7581
2.75807
2.75988
2.75881
2.76484
2.7726
2.76691
1
1
1
1
1
1
1
1.00001
1.00002
1.00016
1.00028
1.00128
1.00185
1.00717
1.01297
1.03137
1.11954
1.30288
1.80246
2.62746
2.77622
2.75386
2.7394
2.73676
2.74352
2.74876
2.75588
2.7607
2.7638
2.76664
2.76835
2.76848
2.76791
2.76664
2.76487
2.76288
2.76161
2.76087
2.76029
2.75962
2.75861
2.75728
2.75642
2.75528
2.75522
2.75873
2.75769
2.76243
2.76873
2.76629
1
1
1
1
1
1
1
1
1.00003
1.00011
1.0003
1.00103
1.00168
1.00583
1.0116
1.02817
1.11948
1.29153
1.79411
2.6171
2.76952
2.74683
2.74338
2.73816
2.74277
2.74804
2.75517
2.76028
2.76401
2.7669
2.76776
2.7672
2.76567
2.76362
2.76152
2.75923
2.75705
2.75587
2.75422
2.75359
2.75312
2.75217
2.75438
2.75362
2.7548
2.75572
2.75442
2.76267
2.76968
2.76178
1
1
1
1
1
1
1
1.00001
1.00005
1.00012
1.00062
1.00081
1.00419
1.00282
1.0136
1.02393
1.1159
1.27736
1.78022
2.60695
2.7616
2.74623
2.74579
2.73726
2.74083
2.74748
2.75476
2.76065
2.76439
2.7656
2.76515
2.76373
2.76179
2.75942
2.75725
2.75555
2.75378
2.75237
2.75158
2.75118
2.75076
2.74929
2.75109
2.75156
2.75299
2.75593
2.75381
2.7581
2.76432
2.76194
1
1
1
1
1
1
1
1.00001
1.00005
1.00012
1.00059
1.00075
1.00403
1.00231
1.01249
1.0207
1.10969
1.26296
1.76375
2.59123
2.75515
2.75028
2.74152
2.73433
2.73979
2.74737
2.7554
2.76105
2.76312
2.76316
2.76233
2.76087
2.7588
2.75617
2.75339
2.75058
2.74876
2.74685
2.74387
2.74448
2.74443
2.74507
2.74685
2.74561
2.74886
2.75118
2.75012
2.75873
2.76504
2.7557
1
1
1
1
1
1
1
1.00001
1.00006
1.00012
1.00056
1.00077
1.00373
1.00207
1.01176
1.0163
1.10242
1.24687
1.74471
2.57329
2.74963
2.74698
2.73853
2.73339
2.73987
2.74753
2.75616
2.76062
2.76122
2.76046
2.75878
2.7562
2.75295
2.74928
2.74599
2.74353
2.74167
2.74318
2.74228
2.74109
2.7404
2.74001
2.74302
2.74333
2.74508
2.74804
2.74791
2.75159
2.75745
2.7562
1
1
1
1
1
1
1
1.00001
1.00004
1.0001
1.00045
1.00067
1.00278
1.00259
1.01162
1.01124
1.09492
1.23179
1.72423
2.55033
2.73654
2.74314
2.7372
2.73311
2.74013
2.74761
2.75602
2.75822
2.75741
2.75556
2.75303
2.75003
2.7469
2.74384
2.74085
2.73774
2.73522
2.7348
2.73572
2.73699
2.73532
2.73483
2.73897
2.73807
2.74038
2.74332
2.74129
2.75181
2.75865
2.74725
1
1
1
1
1
1
1
1.00001
1.00004
1.00009
1.00041
1.00055
1.00261
1.00191
1.00916
1.00953
1.08571
1.2168
1.69885
2.51353
2.71744
2.74176
2.73701
2.73326
2.73991
2.7473
2.7546
2.75538
2.754
2.75157
2.74764
2.74161
2.73561
2.73165
2.73028
2.72954
2.72866
2.72783
2.7277
2.72895
2.73049
2.72828
2.73176
2.73485
2.73742
2.73983
2.73975
2.74191
2.74681
2.74804
1
1
1
1
1
1
1
1.00001
1.00003
1.0001
1.00035
1.00047
1.00247
1.00079
1.01614
1.00394
1.07921
1.19408
1.66378
2.46154
2.698
2.74344
2.73782
2.73355
2.73887
2.74597
2.74846
2.74664
2.74249
2.73678
2.73184
2.72789
2.72511
2.72302
2.7216
2.72027
2.71994
2.72109
2.72064
2.72184
2.72167
2.72351
2.72377
2.72329
2.72937
2.73233
2.73032
2.74022
2.74867
2.73503
1
1
1
1
1
1
1
1.00001
1.00002
1.00012
1.00021
1.00066
1.00159
1.0021
1.0126
1.00214
1.07968
1.17476
1.62968
2.39459
2.67615
2.74896
2.74213
2.7368
2.73913
2.74263
2.742
2.73841
2.73039
2.72301
2.71845
2.71502
2.71425
2.71368
2.71419
2.71367
2.71269
2.71325
2.71318
2.71434
2.71387
2.71278
2.71769
2.71814
2.72
2.72619
2.72613
2.72706
2.73038
2.73395
1
1
1
1
1
1
1
1.00001
1.00002
1.00012
1.00018
1.00064
1.00117
1.00243
1.01084
1.00367
1.07308
1.14462
1.58271
2.31755
2.65122
2.74419
2.73579
2.72236
2.71959
2.71672
2.713
2.71042
2.708
2.70702
2.7062
2.70486
2.70441
2.70364
2.70382
2.70494
2.70439
2.70492
2.70412
2.70543
2.70537
2.70336
2.70411
2.7059
2.70993
2.71298
2.71253
2.72138
2.73072
2.71638
1
1
1
1
1
1
1
1.00002
1.00004
1.00014
1.00024
1.00066
1.00127
1.00361
1.0032
1.02132
1.0432
1.16695
1.40857
1.9791
2.5693
2.73333
2.72854
2.71146
2.69468
2.69247
2.69137
2.69202
2.69435
2.69755
2.69988
2.69989
2.69916
2.69794
2.69657
2.69598
2.69541
2.69545
2.69508
2.69501
2.69593
2.69572
2.69515
2.69406
2.69735
2.70385
2.70238
2.70036
2.70433
2.70964
1
1
1
1
1
1
1
1.00002
1.00003
1.00013
1.00021
1.00069
1.00117
1.00455
1.00387
1.01528
1.03223
1.12904
1.32577
1.8012
2.56005
2.72968
2.71673
2.71266
2.69693
2.69651
2.69338
2.69278
2.69335
2.69612
2.69899
2.69938
2.69871
2.69725
2.69487
2.69086
2.68822
2.68571
2.68353
2.68235
2.68066
2.67976
2.67992
2.67923
2.67726
2.67953
2.68131
2.68801
2.69278
2.67775
1
1
1
1
1
1
1
1.00002
1.00002
1.00009
1.00016
1.0005
1.0008
1.00343
1.00286
1.01302
1.01666
1.10489
1.26065
1.7573
2.56013
2.73051
2.72434
2.72074
2.71088
2.71283
2.71096
2.70841
2.70523
2.70398
2.70383
2.703
2.70101
2.69836
2.69465
2.69109
2.68481
2.68141
2.6755
2.67094
2.66824
2.6634
2.66108
2.66006
2.66141
2.65999
2.65504
2.64794
2.64898
2.64818
1
1
1
1
1
1
1
1
1.00001
1.00003
1.00003
1.00033
1.00052
1.00277
1.00134
1.01806
1.00198
1.08523
1.20759
1.69523
2.49141
2.70568
2.73522
2.72844
2.718
2.71876
2.72317
2.72336
2.72214
2.71804
2.7115
2.70606
2.70183
2.6985
2.69415
2.69028
2.6843
2.67779
2.67203
2.66312
2.65623
2.6488
2.63948
2.63268
2.62464
2.62572
2.62259
2.61225
2.59285
2.50265
1
1
1
1
1
1
1
1
1.00001
1.00002
1.0001
1.00009
1.00089
1.00143
1.0081
1.0068
1.02684
1.05736
1.21944
1.53929
2.15105
2.62161
2.71675
2.70627
2.70438
2.70347
2.70741
2.7073
2.70656
2.70386
2.69789
2.69123
2.6868
2.68342
2.68149
2.67967
2.67688
2.67156
2.66621
2.65735
2.64759
2.63604
2.62262
2.60473
2.58826
2.56178
2.54613
2.51162
2.47167
2.38248
1
1
1
1
1
1
1
1
1.00001
1.00001
1.00007
1.00003
1.0006
1.00092
1.00554
1.00418
1.0184
1.04205
1.14179
1.36758
1.81493
2.52991
2.72242
2.69566
2.67861
2.67693
2.68422
2.69051
2.69136
2.68967
2.684
2.67553
2.668
2.66192
2.65651
2.65406
2.6519
2.64997
2.647
2.64033
2.63359
2.61908
2.60801
2.58598
2.56457
2.53356
2.4902
2.44913
2.36601
2.3107
1
1
1
1
1
1
1
1
1
1.00001
1.00004
1.00002
1.00033
1.00055
1.00296
1.00267
1.01329
1.01638
1.10633
1.27389
1.77151
2.56313
2.71535
2.69091
2.68432
2.67685
2.67917
2.68841
2.69023
2.68919
2.68481
2.67499
2.66769
2.65548
2.64818
2.64044
2.63645
2.62915
2.62472
2.61543
2.60658
2.59389
2.57712
2.56091
2.5319
2.50836
2.46013
2.42378
2.35054
2.30465
1
1
1
1
1
1
1
1
1
1
1.00003
1.00002
1.00022
1.00037
1.00207
1.00209
1.01638
1.00308
1.0892
1.2119
1.68585
2.47931
2.67709
2.70216
2.68949
2.68117
2.6832
2.69029
2.69209
2.6913
2.68766
2.67868
2.66777
2.65462
2.64458
2.63487
2.62741
2.62028
2.61133
2.60376
2.58953
2.5791
2.55785
2.54308
2.51237
2.49168
2.44758
2.4187
2.36097
2.3201
1
1
1
1
1
1
1
1
1
1
1.00002
1.00001
1.00015
1.00016
1.00117
1.00149
1.01232
1.00667
1.07425
1.167
1.58682
2.35701
2.5864
2.68122
2.67403
2.66539
2.66716
2.67242
2.67753
2.6787
2.6774
2.6722
2.66298
2.65091
2.63866
2.62672
2.61301
2.60377
2.59067
2.58302
2.56769
2.55841
2.53867
2.52633
2.49925
2.4823
2.44803
2.41884
2.37964
2.34363
1
1
1
1
1
1
1
1
1
1
1.00001
1.00004
1.00001
1.00039
1.00059
1.00347
1.00329
1.01581
1.02496
1.12789
1.32821
1.81481
2.53774
2.68056
2.65679
2.64795
2.63194
2.63006
2.63333
2.63616
2.63936
2.63858
2.63548
2.63048
2.61976
2.61201
2.59712
2.58854
2.57146
2.56221
2.54476
2.53368
2.51548
2.50135
2.48174
2.46257
2.43986
2.41588
2.38664
2.36199
1
1
1
1
1
1
1
1
1
1
1.00001
1.00004
1.00004
1.00035
1.00054
1.00316
1.00155
1.01916
1.00281
1.09336
1.23566
1.72014
2.48928
2.67804
2.67424
2.6582
2.64251
2.63351
2.63343
2.63196
2.62929
2.62616
2.62013
2.61665
2.60916
2.60359
2.59139
2.58282
2.56584
2.55372
2.53604
2.52192
2.50363
2.48761
2.46825
2.44976
2.42824
2.40777
2.38557
2.36394
1
1
1
1
1
1
1
1
1
1
1
1.00002
1.00002
1.00018
1.00019
1.00133
1.00156
1.01267
1.00592
1.07544
1.17028
1.58617
2.32652
2.60977
2.69307
2.67842
2.66795
2.65408
2.64577
2.63862
2.63086
2.6215
2.60955
2.60185
2.59294
2.58838
2.58004
2.57428
2.5621
2.55103
2.53526
2.52129
2.50383
2.48737
2.46877
2.45014
2.43054
2.41002
2.38966
2.36932
1
1
1
1
1
1
1
1
1
1
1.00001
1.00002
1.00007
1.00011
1.00041
1.0007
1.00212
1.00582
1.00627
1.05702
1.1124
1.40209
2.02475
2.45456
2.63279
2.62291
2.62444
2.61987
2.62082
2.62173
2.62018
2.61538
2.60393
2.59219
2.5795
2.57167
2.56211
2.55633
2.54938
2.54358
2.53302
2.52047
2.50712
2.49074
2.4746
2.45583
2.43794
2.41853
2.39913
2.38085
1
1
1
1
1
1
1
1
1
1
1.00001
1.00001
1.00006
1.00005
1.00023
1.00031
1.00245
1.00177
1.01922
1.00065
1.09573
1.22576
1.71595
2.47896
2.64767
2.64655
2.63397
2.61685
2.60989
2.60943
2.60838
2.60565
2.59898
2.58862
2.57669
2.5658
2.55555
2.54614
2.53828
2.52993
2.52366
2.51502
2.50513
2.49305
2.47958
2.46475
2.4492
2.4326
2.41527
2.39908
1
1
1
1
1
1
1
1
1
1
1
1
1.00002
1.00003
1.00016
1.00019
1.00124
1.00147
1.01145
1.00597
1.07129
1.1539
1.57718
2.31579
2.6011
2.66959
2.64946
2.63212
2.61063
2.59896
2.59285
2.58968
2.58728
2.58279
2.57594
2.56708
2.5575
2.54716
2.53839
2.52963
2.5217
2.51358
2.50512
2.4945
2.48387
2.47159
2.45838
2.44509
2.43031
2.41712
1
1
1
1
1
1
1
1
1
1
1
1
1.00001
1.00004
1.00004
1.0004
1.00057
1.00329
0.999805
1.01827
1.01011
1.11046
1.29199
1.80387
2.5442
2.67102
2.65921
2.63391
2.60441
2.58598
2.57717
2.57243
2.56943
2.56876
2.56815
2.56554
2.55942
2.5517
2.54286
2.53459
2.52615
2.51756
2.50872
2.49929
2.4885
2.47824
2.46614
2.45412
2.44153
2.4297
1
1
1
1
1
1
1
1
1
1
1
1
1.00001
1.00001
1.00008
1.00011
1.00065
1.00067
1.00384
1.00955
1.03151
1.07607
1.25392
1.6957
2.17385
2.6224
2.67435
2.65742
2.63892
2.61458
2.59188
2.57878
2.57197
2.56535
2.55962
2.55641
2.55243
2.54793
2.54189
2.5352
2.52825
2.52164
2.51398
2.50717
2.49864
2.48932
2.47957
2.46853
2.45782
2.44715
1
1
1
1
1
1
1
1
1
1
1
1
1
1.00002
1.00001
1.00016
1.00021
1.0014
1.00146
1.01099
1.00105
1.06519
1.12526
1.49553
2.15342
2.53757
2.67149
2.64982
2.64173
2.62908
2.61961
2.6074
2.59022
2.57404
2.56301
2.55456
2.54699
2.53924
2.5336
2.52851
2.52432
2.52073
2.51576
2.51024
2.50416
2.49663
2.489
2.48008
2.47125
2.46242
1
1
1
1
1
1
1
1
1
1
1
1
1
1.00001
1.00001
1.00013
1.00019
1.00113
1.0011
1.00941
1.00092
1.04698
1.10415
1.32376
1.90255
2.33303
2.61561
2.62507
2.61605
2.60704
2.60675
2.60443
2.60041
2.59381
2.57902
2.5633
2.55098
2.54139
2.53336
2.52725
2.52137
2.51676
2.51283
2.50805
2.50348
2.49726
2.49105
2.48372
2.47646
2.46946
1
1
1
1
1
1
1
1
1
1
1
1
1
1
1.00003
1.00002
1.00022
1.00023
1.00182
1.00183
1.0152
1.00135
1.08782
1.17587
1.65978
2.38864
2.63358
2.66424
2.64351
2.61682
2.59971
2.59755
2.59776
2.5968
2.59407
2.58844
2.5774
2.56524
2.55248
2.54099
2.53096
2.52293
2.51689
2.51096
2.50584
2.49983
2.49394
2.48712
2.48049
2.47413
1
1
1
1
1
1
1
1
1
1
1
1
1
1
1.00002
1.00001
1.00017
1.00019
1.00135
1.00138
1.01058
1.0014
1.06365
1.12024
1.49848
2.15931
2.57846
2.66201
2.62451
2.60569
2.57781
2.57305
2.57454
2.57908
2.58284
2.58278
2.58109
2.57686
2.5693
2.56123
2.55315
2.54389
2.53552
2.52662
2.51773
2.50937
2.50178
2.49399
2.48676
2.47983
1
1
1
1
1
1
1
1
1
1
1
1
1
1
1.00001
1.00004
1.00004
1.00037
1.00051
1.00339
1.00201
1.02328
0.999717
1.11108
1.26445
1.78081
2.54494
2.6688
2.65824
2.63158
2.60092
2.58613
2.58273
2.58326
2.58433
2.58408
2.58316
2.5803
2.5761
2.57008
2.56488
2.55901
2.5528
2.5467
2.54046
2.53297
2.52468
2.51597
2.50685
2.49842
1
1
1
1
1
1
1
1
1
1
1
1
1
1
1
1.00003
1.00002
1.00024
1.00028
1.00194
1.00143
1.01524
0.998952
1.08743
1.18879
1.65531
2.42883
2.64372
2.67374
2.65503
2.62968
2.61049
2.60075
2.59564
2.591
2.58585
2.58097
2.57486
2.57013
2.56453
2.56002
2.55598
2.55121
2.54712
2.54216
2.53766
2.53267
2.52702
2.52149
2.51506
1
1
1
1
1
1
1
1
1
1
1
1
1
1
1.00002
1.00002
1.00013
1.00012
1.00044
1.00054
1.00337
1.00259
1.01694
1.01959
1.13952
1.38343
1.88155
2.51173
2.69928
2.6752
2.65269
2.62175
2.60687
2.59992
2.59468
2.58773
2.58006
2.57094
2.56235
2.55453
2.54783
2.54342
2.53895
2.53674
2.53365
2.53133
2.52874
2.52522
2.52174
2.51765
1
1
1
1
1
1
1
1
1
1
1
1
1
1
1.00001
1.00001
1.00006
1.00005
1.00046
1.00058
1.0038
1.0012
1.02569
1.00104
1.1191
1.26673
1.78727
2.53599
2.69752
2.69315
2.67362
2.64709
2.63159
2.62282
2.61516
2.606
2.59655
2.58638
2.57538
2.56489
2.55513
2.54751
2.5408
2.53602
2.5317
2.52843
2.52533
2.5221
2.51877
2.51577
1
1
1
1
1
1
1
1
1
1
1
1
1
1
1
1.00002
1.00001
1.00013
1.00015
1.00104
1.00127
1.00765
1.00709
1.03451
1.06464
1.26057
1.68333
2.23839
2.63533
2.691
2.67256
2.64901
2.63105
2.62253
2.61835
2.61309
2.60655
2.59839
2.59003
2.58062
2.57156
2.56264
2.55525
2.54828
2.54271
2.53657
2.53143
2.52634
2.52161
2.51764
1
1
1
1
1
1
1
1
1
1
1
1
1
1
1
1.00001
1
1.00006
1.00008
1.0005
1.00051
1.00352
1.00454
1.02381
1.03624
1.18312
1.47132
2.00629
2.53874
2.68686
2.66492
2.65197
2.62938
2.61524
2.60835
2.60387
2.59939
2.59399
2.5881
2.58147
2.57485
2.56734
2.56196
2.55632
2.55265
2.54772
2.54321
2.53746
2.53094
2.52496
1
1
1
1
1
1
1
1
1
1
1
1
1
1
1
1.00001
1.00001
1.00008
1.00004
1.00062
1.00063
1.00479
1.00118
1.0299
1.00295
1.13646
1.33606
1.86041
2.5767
2.72565
2.688
2.66231
2.63802
2.62745
2.62257
2.61685
2.6097
2.60165
2.59391
2.58756
2.58305
2.57901
2.57635
2.57384
2.57263
2.57042
2.568
2.56344
2.5557
2.54855
1
1
1
1
1
1
1
1
1
1
1
1
1
1
1
1
1.00001
1.00002
1.00014
1
1.00085
1.00206
1.0048
1.01463
1.04846
1.10397
1.36861
1.99729
2.39962
2.69196
2.67182
2.66131
2.64102
2.63098
2.6268
2.62192
2.61621
2.60918
2.60201
2.59624
2.59085
2.58731
2.58409
2.58146
2.57995
2.57695
2.57486
2.57
2.566
2.55992
1
1
1
1
1
1
1
1
1
1
1
1
1
1
1
1
1.00002
1.00001
1.00012
1.00013
1.00082
1.00091
1.00712
1.00338
1.04335
1.08852
1.31167
1.83945
2.33083
2.65104
2.65815
2.64481
2.62182
2.61081
2.60768
2.60512
2.60134
2.59608
2.59072
2.58645
2.58218
2.57962
2.57729
2.57538
2.57398
2.571
2.56889
2.56401
2.56068
2.55537
1
1
1
1
1
1
1
1
1
1
1
1
1
1
1
1
1.00002
1.00002
1.00015
1.00018
1.00089
1.00111
1.00595
1.00426
1.03718
1.071
1.26921
1.72919
2.22783
2.62784
2.66639
2.64552
2.6185
2.59953
2.5956
2.5959
2.59562
2.59445
2.59154
2.58715
2.58256
2.57898
2.57644
2.57407
2.57229
2.56863
2.56582
2.55999
2.55587
2.55027
1
1
1
1
1
1
1
1
1
1
1
1
1
1
1
1.00001
1.00001
1.00007
1.00006
1.00027
1.00038
1.0019
1.00222
1.01055
1.02589
1.08071
1.17987
1.65884
2.42401
2.65803
2.70287
2.68067
2.64897
2.63037
2.62443
2.62244
2.61923
2.61441
2.60891
2.60293
2.59748
2.5929
2.58973
2.58718
2.58506
2.58125
2.57823
2.57216
2.56815
2.56231
1
1
1
1
1
1
1
1
1
1
1
1
1
1
1
1.00001
1.00001
1.00006
1.00005
1.00023
1.00028
1.00174
1.00216
1.00892
1.02242
1.0772
1.15182
1.61872
2.34956
2.6356
2.70883
2.69027
2.66417
2.64533
2.63206
2.62138
2.6102
2.60045
2.59341
2.58751
2.58333
2.57998
2.57764
2.57602
2.57459
2.5726
2.57064
2.56635
2.56333
2.55877
1
1
1
1
1
1
1
1
1
1
1
1
1
1
1
1
1
1.00002
1.00002
1.00018
1.00023
1.00155
1.00156
1.01235
1.0016
1.07796
1.15088
1.57903
2.29238
2.62429
2.70595
2.68292
2.6459
2.62118
2.60768
2.5988
2.59178
2.58562
2.58147
2.57717
2.57502
2.57199
2.56928
2.56571
2.56128
2.55675
2.55193
2.54737
2.54353
2.5398
1
1
1
1
1
1
1
1
1
1
1
1
1
1
1
1
1
1.00002
1.00002
1.00016
1.0002
1.00116
1.00125
1.01203
0.999299
1.06967
1.12867
1.53103
2.21946
2.61158
2.69238
2.65782
2.61372
2.5955
2.59118
2.58984
2.58797
2.58462
2.58085
2.57626
2.57228
2.56773
2.56362
2.55895
2.55441
2.54987
2.54559
2.54129
2.53824
2.53474
1
1
1
1
1
1
1
1
1
1
1
1
1
1
1
1
1
1.00002
1.00003
1.00011
1.0003
1.00084
1.0026
1.00536
1.01765
1.05433
1.12156
1.4378
2.11142
2.53084
2.66755
2.6401
2.61139
2.59512
2.59117
2.59117
2.59033
2.58743
2.58257
2.57732
2.57245
2.56789
2.56398
2.56055
2.5578
2.55573
2.55451
2.55343
2.55307
2.55237
1
1
1
1
1
1
1
1
1
1
1
1
1
1
1
1
1
1.00002
1.00002
1.00013
1.00015
1.00112
1.00115
1.00974
1.00001
1.05473
1.10832
1.37657
2.0201
2.41699
2.66687
2.64616
2.62555
2.60126
2.59517
2.59413
2.59133
2.5867
2.58176
2.57729
2.57382
2.57176
2.57104
2.5714
2.57332
2.57658
2.57929
2.58078
2.58146
2.58154
1
1
1
1
1
1
1
1
1
1
1
1
1
1
1
1
1
1.00002
1.00001
1.00013
1.00013
1.00106
1.00108
1.00893
1.00337
1.04695
1.09828
1.33906
1.90671
2.3663
2.66317
2.65206
2.63046
2.60986
2.59925
2.59367
2.59071
2.58803
2.58582
2.58518
2.58594
2.58861
2.59194
2.59435
2.59561
2.596
2.59593
2.5949
2.5922
2.58837
1
1
1
1
1
1
1
1
1
1
1
1
1
1
1
1
1
1.00003
1.00002
1.00011
1.00011
1.00094
1.00105
1.00766
1.00396
1.04455
1.08708
1.31144
1.82014
2.32042
2.64815
2.65247
2.63843
2.61401
2.59672
2.59255
2.59241
2.59289
2.59556
2.60122
2.60619
2.60943
2.6109
2.61112
2.61047
2.60764
2.60342
2.59664
2.59276
2.58612
1
1
1
1
1
1
1
1
1
1
1
1
1
1
1
1
1
1.00001
1.00002
1.00012
1.00015
1.00099
1.00109
1.00716
1.00545
1.04015
1.0752
1.29183
1.7861
2.30077
2.63952
2.65589
2.63999
2.61344
2.595
2.59124
2.59138
2.59192
2.59412
2.59965
2.60602
2.61072
2.61319
2.61381
2.61325
2.6102
2.6038
2.59548
2.59025
2.58335
1
1
1
1
1
1
1
1
1
1
1
1
1
1
1
1
1
1.00001
1.00003
1.00008
1.00019
1.00054
1.0014
1.00363
1.00948
1.02823
1.09515
1.20043
1.73215
2.48957
2.67376
2.69334
2.67775
2.65144
2.64452
2.64245
2.6408
2.639
2.63446
2.62899
2.62414
2.61841
2.61218
2.60514
2.59738
2.58978
2.58249
2.57538
2.57098
2.56583
1
1
1
1
1
1
1
1
1
1
1
1
1
1
1
1
1.00001
1.00001
1.00007
1.00006
1.00026
1.00027
1.00211
1.00209
1.01607
1.00995
1.09056
1.20273
1.6933
2.47764
2.6663
2.69804
2.68103
2.65439
2.64295
2.64018
2.64088
2.6405
2.63914
2.6357
2.63114
2.62099
2.60998
2.59738
2.5858
2.57604
2.56686
2.55952
2.5534
2.54776
1
1
1
1
1
1
1
1
1
1
1
1
1
1
1
1
1
1.00001
1.00001
1.0001
1.00011
1.00077
1.00069
1.00496
1.00633
1.03229
1.04684
1.26071
1.67728
2.23436
2.60718
2.66402
2.64271
2.62491
2.60498
2.59569
2.59313
2.5917
2.59111
2.59242
2.59746
2.60391
2.60801
2.6095
2.60948
2.608
2.60347
2.59529
2.5881
2.58152
1
1
1
1
1
1
1
1
1
1
1
1
1
1
1
1
1.00001
1.00001
1.00006
1.00006
1.00023
1.00023
1.00197
1.00208
1.01655
1.00055
1.09671
1.18192
1.6864
2.44235
2.64973
2.69511
2.67622
2.64999
2.63787
2.63754
2.6393
2.64088
2.6402
2.63848
2.63414
2.62348
2.61268
2.59946
2.59021
2.58096
2.5737
2.56784
2.56177
2.55743
2.15698
2.63896
2.7945
3.25052
3.25652
3.23066
3.21175
3.20929
3.21742
3.21966
3.21855
3.21675
3.21672
3.21745
3.21829
3.21867
3.21828
3.21732
3.21655
3.21516
3.21284
3.21046
3.20715
3.20366
3.19795
3.19203
3.18449
3.17859
3.17062
3.1662
3.15861
3.15379
3.14401
3.1384
3.12732
3.12131
3.10949
3.10223
3.09264
3.08359
3.07203
3.06289
3.05199
3.0411
3.02925
3.01909
3.00794
2.99647
2.98452
2.97276
2.96042
2.94734
2.93573
2.92313
2.90979
2.89854
2.88441
2.87244
2.85934
2.8467
2.83284
2.82091
2.80671
2.79438
2.78055
2.76805
2.75368
2.74138
2.7269
2.71429
2.69985
2.68721
2.67269
2.66001
2.64562
2.63272
2.61884
2.60538
2.59231
2.57852
2.5659
2.55225
2.53976
2.52656
2.5142
2.50114
2.48938
2.47604
2.46526
2.45164
2.44182
2.42833
2.41926
2.40643
2.39805
2.38653
2.37917
2.36969
2.36491
2.35785
2.17212
2.4266
2.54783
2.79447
2.98842
3.16253
3.22179
3.28426
3.50377
3.62848
3.59631
3.55202
3.53211
3.51388
3.50584
3.49577
3.48101
3.46488
3.44648
3.42619
3.39906
3.37306
3.34194
3.31327
3.27863
3.2508
3.22
3.19267
3.16754
3.14297
3.12058
3.09768
3.07719
3.05456
3.03357
3.01395
2.99444
2.97652
2.96082
2.9458
2.93089
2.91631
2.90276
2.88917
2.87803
2.86565
2.85467
2.84505
2.83271
2.82545
2.81352
2.80624
2.79592
2.78793
2.77795
2.77011
2.7598
2.7523
2.74245
2.73496
2.72572
2.71809
2.70965
2.70118
2.69317
2.68346
2.67561
2.66494
2.65776
2.64655
2.64012
2.62858
2.62267
2.61075
2.60482
2.59281
2.58669
2.57435
2.56817
2.55564
2.54918
2.53612
2.52947
2.51607
2.50929
2.49563
2.48876
2.47491
2.46799
2.45412
2.44728
2.43361
2.42697
2.41375
2.40745
2.39505
2.38933
2.37851
2.37443
2.36512
2.21545
2.297
2.36239
2.45018
2.50723
2.58954
2.6971
2.77709
2.85425
2.95416
3.02032
3.08395
3.14574
3.20144
3.23904
3.27139
3.29752
3.3007
3.29606
3.28294
3.25709
3.22704
3.19529
3.15871
3.11246
3.06058
3.00702
2.95601
2.90959
2.86733
2.83187
2.8006
2.77176
2.74541
2.71816
2.69371
2.6674
2.64477
2.62244
2.60225
2.5843
2.56632
2.55098
2.53745
2.52542
2.5149
2.50496
2.49611
2.48822
2.48072
2.47474
2.46781
2.46355
2.457
2.45387
2.44763
2.44452
2.43824
2.43483
2.42786
2.42376
2.41613
2.4118
2.40408
2.39979
2.39226
2.38816
2.38067
2.37655
2.36895
2.36465
2.3568
2.35212
2.34407
2.33908
2.3306
2.32526
2.31663
2.31106
2.30243
2.29709
2.28876
2.28359
2.27552
2.27043
2.26279
2.25773
2.25092
2.24571
2.2401
2.23477
2.23038
2.22552
2.22191
2.21821
2.21523
2.21297
2.21154
2.21138
2.21384
2.24055
2.24367
2.27339
2.31053
2.3398
2.36858
2.40496
2.44002
2.47814
2.51401
2.5449
2.56953
2.5884
2.59881
2.61058
2.61382
2.61956
2.62518
2.62541
2.62375
2.62016
2.61361
2.60401
2.5936
2.58188
2.56875
2.55544
2.54192
2.52934
2.51675
2.50564
2.49436
2.48405
2.4732
2.46234
2.45137
2.43972
2.42881
2.4182
2.40772
2.39762
2.38649
2.37631
2.36598
2.35705
2.34747
2.33955
2.33077
2.32349
2.31593
2.30923
2.30304
2.29693
2.29159
2.28648
2.28184
2.27766
2.27365
2.27036
2.26704
2.26437
2.26141
2.25896
2.25596
2.25349
2.25045
2.24821
2.24523
2.24331
2.24023
2.23826
2.23459
2.23188
2.22727
2.22301
2.21752
2.2115
2.20517
2.1974
2.19035
2.18139
2.17395
2.16467
2.15713
2.14823
2.14087
2.13274
2.12565
2.11834
2.11142
2.1048
2.09803
2.09184
2.08547
2.0796
2.07412
2.06904
2.06488
2.06197
2.05979
2.27999
2.25062
2.2465
2.25221
2.25963
2.26555
2.27813
2.28917
2.30356
2.31739
2.32952
2.33922
2.34707
2.35421
2.35918
2.36322
2.36602
2.37024
2.37323
2.37548
2.37699
2.3777
2.37781
2.3777
2.37754
2.37709
2.37632
2.37488
2.37365
2.37112
2.36886
2.36491
2.36133
2.35655
2.35191
2.34673
2.34119
2.33591
2.3306
2.32529
2.31946
2.31272
2.30562
2.29824
2.29136
2.28345
2.27656
2.26818
2.26144
2.25317
2.24692
2.23937
2.23385
2.22682
2.22188
2.215
2.21038
2.20352
2.199
2.19232
2.18789
2.18143
2.17713
2.17068
2.16637
2.15988
2.15552
2.14885
2.14452
2.13779
2.1335
2.12682
2.12268
2.11634
2.11265
2.10705
2.10395
2.09913
2.09635
2.09179
2.08916
2.08437
2.08171
2.07641
2.07367
2.06807
2.06523
2.05947
2.05659
2.05074
2.04784
2.04198
2.03909
2.03354
2.03043
2.02572
2.02272
2.01929
2.01757
2.01585
2.30461
2.28415
2.25529
2.24277
2.23442
2.22699
2.22278
2.22261
2.22349
2.22619
2.22919
2.2324
2.23466
2.23668
2.23984
2.24185
2.24402
2.24563
2.24941
2.25394
2.25831
2.26241
2.26604
2.26957
2.27291
2.27565
2.27829
2.28029
2.28171
2.28269
2.28377
2.28402
2.2838
2.28308
2.28205
2.27949
2.27761
2.27365
2.27141
2.26658
2.26329
2.25659
2.25185
2.24447
2.23928
2.23197
2.22663
2.21941
2.21407
2.20681
2.20174
2.19475
2.19015
2.18347
2.17932
2.17288
2.16885
2.16248
2.15838
2.15205
2.14775
2.14152
2.13706
2.13085
2.12635
2.12016
2.11564
2.10935
2.10472
2.09825
2.09338
2.08681
2.08162
2.07501
2.06936
2.06266
2.05656
2.04984
2.04353
2.03684
2.03067
2.02409
2.01829
2.01184
2.00645
2.00017
1.99516
1.98919
1.98448
1.97904
1.97445
1.96972
1.96516
1.96133
1.95698
1.95426
1.95068
1.94936
1.94788
1.94804
2.32137
2.29399
2.27864
2.25227
2.23341
2.21884
2.20566
2.1965
2.18964
2.18516
2.18221
2.17983
2.17818
2.17703
2.17728
2.1781
2.17898
2.18035
2.18165
2.18474
2.18884
2.19313
2.19702
2.20086
2.20427
2.20749
2.21056
2.21298
2.21547
2.21729
2.21866
2.21965
2.22022
2.22037
2.21989
2.21871
2.21736
2.21524
2.21399
2.21171
2.20971
2.2062
2.20307
2.19825
2.19426
2.18841
2.18422
2.17755
2.17314
2.16586
2.16132
2.15395
2.14945
2.14235
2.13785
2.13097
2.12626
2.11943
2.11444
2.10756
2.10245
2.09557
2.0904
2.08371
2.07874
2.07235
2.06765
2.06166
2.05726
2.05172
2.04745
2.04233
2.03799
2.03324
2.02868
2.02415
2.01924
2.01465
2.00938
2.00447
1.99898
1.99367
1.98823
1.98264
1.97743
1.97169
1.96672
1.96107
1.95624
1.951
1.9462
1.94172
1.93708
1.93361
1.92954
1.92725
1.92461
1.92384
1.92383
1.92428
2.33147
2.30679
2.28595
2.2651
2.24547
2.22363
2.20619
2.19178
2.18023
2.17106
2.16364
2.15766
2.1527
2.1489
2.14604
2.14465
2.14398
2.14405
2.14432
2.14513
2.14653
2.15039
2.15383
2.15767
2.16105
2.16425
2.16759
2.17017
2.17315
2.17492
2.17714
2.17808
2.17948
2.1797
2.18025
2.17971
2.17912
2.17819
2.17755
2.17622
2.17499
2.17231
2.17041
2.16661
2.16381
2.15919
2.15574
2.15051
2.14653
2.14065
2.13613
2.12995
2.12512
2.11899
2.11384
2.10774
2.10208
2.09588
2.08977
2.08353
2.07727
2.07121
2.06504
2.05918
2.05316
2.04741
2.04148
2.0358
2.02975
2.02411
2.01781
2.01224
2.00574
2.00028
1.99369
1.98824
1.98167
1.97616
1.96977
1.96415
1.95806
1.9524
1.94666
1.94101
1.93562
1.93002
1.92491
1.91951
1.91454
1.90952
1.90465
1.90038
1.89587
1.89261
1.88905
1.88718
1.88556
1.88575
1.88712
1.88647
2.34391
2.31869
2.29527
2.27355
2.25174
2.233
2.2146
2.19779
2.18222
2.16935
2.15859
2.14947
2.14185
2.13558
2.13063
2.127
2.12443
2.12302
2.12206
2.12206
2.12248
2.12308
2.12596
2.12831
2.13259
2.13509
2.13906
2.14116
2.14452
2.14625
2.14874
2.14982
2.15147
2.15186
2.15267
2.15237
2.15195
2.15126
2.15072
2.14962
2.14854
2.14615
2.14439
2.14065
2.13817
2.13351
2.13016
2.12495
2.12097
2.11533
2.11097
2.10501
2.1002
2.09389
2.08845
2.08186
2.07582
2.06914
2.06285
2.0564
2.05024
2.04399
2.03818
2.03205
2.02675
2.02069
2.01592
2.00989
2.00541
1.99937
1.99479
1.98871
1.98375
1.9777
1.97228
1.9663
1.96047
1.95455
1.94849
1.94258
1.9365
1.93052
1.92464
1.91863
1.91312
1.90728
1.90218
1.89681
1.89195
1.88739
1.88299
1.87926
1.87597
1.87319
1.87146
1.8709
1.87156
1.87258
1.87606
1.87574
2.36513
2.33863
2.31087
2.28567
2.26132
2.23982
2.21974
2.20184
2.18613
2.17189
2.15913
2.14829
2.13831
2.13037
2.12333
2.11793
2.11316
2.10964
2.10685
2.10543
2.10461
2.10471
2.10516
2.10599
2.10872
2.11082
2.1142
2.1165
2.11965
2.12154
2.12385
2.12518
2.12673
2.12725
2.12826
2.12798
2.12768
2.12715
2.12666
2.12562
2.12465
2.12255
2.12097
2.11757
2.11536
2.11087
2.10794
2.10279
2.09926
2.09355
2.08934
2.083
2.07815
2.07147
2.06599
2.05897
2.05286
2.04575
2.03939
2.03245
2.02617
2.01945
2.01334
2.00674
2.00083
1.99432
1.98859
1.98226
1.97672
1.97072
1.96534
1.95971
1.95438
1.94907
1.94366
1.93856
1.93301
1.92798
1.92232
1.9173
1.91163
1.90664
1.90112
1.89621
1.89103
1.88628
1.88159
1.87701
1.87285
1.86886
1.86536
1.86239
1.86013
1.85854
1.85861
1.85941
1.86129
1.86293
1.86809
1.8685
2.38819
2.36539
2.33952
2.31254
2.28453
2.25844
2.23407
2.21228
2.19347
2.17673
2.16216
2.14934
2.13834
2.1286
2.12016
2.11301
2.10698
2.10198
2.09778
2.09444
2.09174
2.09031
2.08905
2.08878
2.08908
2.09003
2.0925
2.09437
2.09748
2.09946
2.10214
2.10348
2.10551
2.10614
2.10725
2.10692
2.10667
2.10618
2.1057
2.10462
2.10362
2.10148
2.09992
2.09662
2.09442
2.09045
2.08754
2.0832
2.07987
2.07508
2.07126
2.06579
2.06133
2.05533
2.05025
2.0441
2.03864
2.03256
2.02686
2.02084
2.015
2.00887
2.00287
1.99649
1.99033
1.98369
1.97742
1.97067
1.9643
1.95773
1.95129
1.94517
1.93869
1.9331
1.9266
1.92143
1.91503
1.91005
1.90395
1.89895
1.89326
1.88818
1.88292
1.87794
1.87309
1.8685
1.86396
1.85994
1.85623
1.85293
1.85025
1.84842
1.84735
1.8477
1.84909
1.85078
1.85355
1.85768
1.8648
1.8704
2.40547
2.38513
2.36295
2.33818
2.31242
2.28582
2.26007
2.23551
2.21305
2.19266
2.17486
2.15929
2.14587
2.1342
2.12386
2.1151
2.10723
2.10051
2.09492
2.09006
2.0866
2.08348
2.0819
2.08096
2.08088
2.08113
2.08176
2.08301
2.08537
2.08749
2.08973
2.09098
2.09272
2.09335
2.09402
2.0938
2.09348
2.093
2.09248
2.09145
2.09049
2.08854
2.08715
2.08432
2.08255
2.07917
2.07701
2.07333
2.0706
2.06631
2.06298
2.05807
2.05403
2.04856
2.04387
2.03823
2.0331
2.02752
2.02214
2.01657
2.01096
2.00514
1.99927
1.99302
1.98686
1.9802
1.97372
1.9669
1.96009
1.95348
1.94643
1.94024
1.93315
1.9273
1.92044
1.91474
1.90829
1.90264
1.89662
1.89104
1.88533
1.87992
1.87452
1.86937
1.86442
1.85954
1.8552
1.85121
1.84772
1.84498
1.84306
1.8422
1.84274
1.84415
1.8454
1.84872
1.85331
1.86366
1.87196
1.87898