/*--------------------------------*- C++ -*----------------------------------*\
| =========                 |                                                 |
| \\      /  F ield         | OpenFOAM: The Open Source CFD Toolbox           |
|  \\    /   O peration     | Version:  2112                                  |
|   \\  /    A nd           | Website:  www.openfoam.com                      |
|    \\/     M anipulation  |                                                 |
\*---------------------------------------------------------------------------*/
FoamFile
{
    version     2.0;
    format      ascii;
    arch        "LSB;label=32;scalar=64";
    class       volVectorField;
    location    "6.4995";
    object      U;
}
// * * * * * * * * * * * * * * * * * * * * * * * * * * * * * * * * * * * * * //

dimensions      [0 1 -1 0 0 0 0];

internalField   nonuniform List<vector> 
7000
(
(3 -5.8942e-07 0.000805021)
(3 -1.33407e-06 0.000764326)
(3 -1.97499e-06 0.00072386)
(3 -1.90984e-06 0.000683622)
(3 -1.78955e-06 0.000643617)
(3 -1.63196e-06 0.000603858)
(3 -1.43807e-06 0.000564335)
(2.99999 -1.49996e-06 0.000525312)
(2.99996 -1.54638e-06 0.000486963)
(2.99985 -1.60654e-06 0.000450606)
(2.99964 3.78652e-06 0.00041573)
(2.999 7.44415e-06 0.000392548)
(2.99786 4.82656e-05 0.000374527)
(2.99407 6.66539e-05 0.000435572)
(2.98877 0.000336939 0.000470225)
(2.95822 0.000257366 0.00138904)
(2.90797 -0.00068489 0.00207756)
(2.71445 -0.0014819 0.00777377)
(2.12693 -0.016753 0.0154688)
(1.12977 -0.0261404 0.0251593)
(0.403463 -0.0216756 0.00849471)
(0.593606 -0.00760712 -0.00237682)
(0.704751 -0.00449842 -0.00168172)
(0.710854 -0.00541735 -0.00042731)
(0.682806 -0.00621957 -6.80707e-05)
(0.64946 -0.00510112 -9.86135e-05)
(0.619937 -0.00399625 -0.000292086)
(0.59501 -0.00298542 -0.00049823)
(0.572018 -0.00190417 -0.000662853)
(0.548924 -0.00075225 -0.000801304)
(0.524809 0.000418594 -0.000933708)
(0.499624 0.00158439 -0.00106876)
(0.473713 0.00271425 -0.0012079)
(0.447346 0.00375335 -0.00134896)
(0.420719 0.00464812 -0.00149072)
(0.394047 0.00536034 -0.00163295)
(0.367571 0.00587841 -0.0017755)
(0.341527 0.00622547 -0.00191813)
(0.316064 0.00644317 -0.00206037)
(0.291261 0.00659134 -0.00220173)
(0.267108 0.00673216 -0.00234223)
(0.243508 0.00691944 -0.00248184)
(0.220293 0.00723298 -0.00262136)
(0.197078 0.00773331 -0.00276165)
(0.173583 0.008532 -0.00290187)
(0.149263 0.00973545 -0.00304643)
(0.123256 0.0114448 -0.00319253)
(0.0956997 0.0138954 -0.00334115)
(0.0618903 0.0177796 -0.00350467)
(0.0300819 0.0257469 -0.00366713)
(3 -6.14354e-07 0.000777211)
(3 -1.35662e-06 0.000737871)
(3 -1.98543e-06 0.000698755)
(3 -1.83227e-06 0.000659867)
(3 -1.63225e-06 0.000621213)
(3 -1.41739e-06 0.0005828)
(3 -1.19975e-06 0.000544619)
(2.99999 -1.25119e-06 0.00050692)
(2.99996 -9.10075e-07 0.000469853)
(2.99986 1.79741e-06 0.000434631)
(2.99966 1.73439e-05 0.000400781)
(2.99905 4.34577e-05 0.000377645)
(2.99798 0.000147149 0.000359091)
(2.99439 0.000286181 0.000413394)
(2.9896 0.000873664 0.000435825)
(2.95935 0.00131179 0.00132754)
(2.9127 0.00165716 0.00188952)
(2.72282 0.00400164 0.00739759)
(2.1502 -0.00574285 0.0145422)
(1.16007 -0.00284352 0.0245904)
(0.409354 0.0118912 0.00852851)
(0.584749 0.0303261 -0.00207162)
(0.69295 0.0306038 -0.00157595)
(0.699792 0.0268439 -0.000427112)
(0.67319 0.0246441 -8.76837e-05)
(0.640236 0.0261062 -0.000105102)
(0.609673 0.0270376 -0.000275816)
(0.583758 0.0273905 -0.000475303)
(0.559861 0.0277394 -0.000635923)
(0.535794 0.0282054 -0.000769708)
(0.510698 0.0286949 -0.000897285)
(0.484671 0.029183 -0.00102751)
(0.458177 0.0296432 -0.00116168)
(0.431547 0.0300169 -0.00129756)
(0.404969 0.0302492 -0.00143399)
(0.378587 0.030309 -0.00157078)
(0.352534 0.0301941 -0.00170777)
(0.326935 0.0299408 -0.00184482)
(0.301832 0.0295979 -0.0019815)
(0.277242 0.0292394 -0.00211741)
(0.253113 0.0289427 -0.00225254)
(0.229354 0.028768 -0.00238679)
(0.20582 0.0288359 -0.00252111)
(0.182164 0.0292269 -0.00265594)
(0.158226 0.0301011 -0.00279065)
(0.133563 0.0316397 -0.00292912)
(0.107547 0.034032 -0.00306762)
(0.08076 0.0376289 -0.00320956)
(0.0488008 0.043051 -0.00336235)
(0.0216813 0.0526026 -0.00350412)
(3 -3.90114e-08 0.000748287)
(3 -7.25893e-08 0.00071036)
(3 -1.25262e-07 0.000672655)
(3 -1.84077e-07 0.000635175)
(3 -2.44785e-07 0.000597926)
(3 -3.38143e-07 0.000560915)
(3 -4.74533e-07 0.000524132)
(2.99999 -9.08855e-07 0.000487815)
(2.99996 -7.27548e-07 0.000452088)
(2.99986 2.45618e-06 0.000418075)
(2.99968 1.89214e-05 0.000385339)
(2.9991 4.74783e-05 0.000362551)
(2.99807 0.000148121 0.000343949)
(2.99461 0.000277691 0.000393598)
(2.99003 0.0007935 0.000412029)
(2.96021 0.000832512 0.00126224)
(2.91509 0.00160408 0.00176976)
(2.72678 0.000906288 0.00707393)
(2.1586 -0.0102177 0.0138928)
(1.16667 -0.0190257 0.0238912)
(0.398175 -0.00789139 0.00830209)
(0.572661 0.0169568 -0.00192117)
(0.679582 0.0210224 -0.00146675)
(0.687937 0.0194057 -0.000418513)
(0.663839 0.0193965 -0.000105325)
(0.632153 0.0232133 -0.000111948)
(0.601183 0.0264378 -0.000260401)
(0.574957 0.0289888 -0.000453231)
(0.550971 0.0315205 -0.000610326)
(0.52676 0.0341477 -0.000739452)
(0.5014 0.0366885 -0.000861546)
(0.475075 0.0390395 -0.000986412)
(0.448297 0.0411271 -0.00111478)
(0.421423 0.0428641 -0.00124463)
(0.394671 0.044188 -0.00137488)
(0.368193 0.0450805 -0.00150553)
(0.342123 0.0455739 -0.00163644)
(0.316568 0.045761 -0.00176737)
(0.291552 0.0457534 -0.00189782)
(0.26707 0.0457014 -0.00202751)
(0.243029 0.0457523 -0.00215654)
(0.219321 0.0460315 -0.00228466)
(0.195778 0.0467254 -0.00241323)
(0.172043 0.0479626 -0.00254233)
(0.148049 0.0500004 -0.00267088)
(0.123447 0.0530353 -0.00280433)
(0.0978463 0.0572801 -0.00293676)
(0.0720771 0.0630168 -0.00307265)
(0.0422096 0.0706257 -0.00321468)
(0.0175377 0.0819514 -0.00334589)
(3 3.20258e-09 0.000718202)
(3 3.98894e-08 0.000681751)
(3 1.23431e-07 0.000645517)
(3 3.15704e-08 0.000609505)
(3 -7.34822e-08 0.00057372)
(3 -2.25449e-07 0.000538168)
(3 -4.40596e-07 0.000502841)
(2.99999 -1.02682e-06 0.000467959)
(2.99996 -1.93839e-07 0.000433621)
(2.99987 4.47425e-06 0.000400857)
(2.9997 2.55022e-05 0.000369263)
(2.99915 6.34439e-05 0.000346765)
(2.99819 0.000188902 0.000327993)
(2.9949 0.000368798 0.000372188)
(2.99064 0.00101423 0.000385051)
(2.96136 0.00129967 0.00119273)
(2.91832 0.00243416 0.00163582)
(2.73256 0.00263722 0.00671337)
(2.17446 -0.00644924 0.0131147)
(1.19334 -0.00952966 0.0229746)
(0.418486 0.0160728 0.00812461)
(0.573744 0.041616 -0.00165181)
(0.67362 0.0436204 -0.00134815)
(0.681802 0.0415335 -0.000404438)
(0.659374 0.0418637 -0.00011811)
(0.62802 0.0458076 -0.000113546)
(0.595728 0.0488891 -0.000240826)
(0.568403 0.0513055 -0.000427264)
(0.543707 0.0537446 -0.000581022)
(0.51889 0.0563154 -0.000705418)
(0.492948 0.058825 -0.000822236)
(0.466117 0.0611365 -0.000941964)
(0.438926 0.0631587 -0.00106506)
(0.411726 0.0647846 -0.00118937)
(0.384731 0.0659482 -0.00131376)
(0.358093 0.0666307 -0.00143823)
(0.33196 0.0668797 -0.00156282)
(0.306443 0.0668061 -0.00168762)
(0.281562 0.0665486 -0.00181209)
(0.257307 0.0662972 -0.00193586)
(0.233541 0.0662347 -0.00205891)
(0.210146 0.0665452 -0.00218081)
(0.186911 0.0674531 -0.00230357)
(0.163502 0.0691069 -0.00242663)
(0.139898 0.0718099 -0.00254955)
(0.115766 0.0757125 -0.0026758)
(0.090889 0.0810236 -0.00279968)
(0.0662338 0.087965 -0.00292891)
(0.038322 0.0966755 -0.00306411)
(0.0153294 0.108381 -0.00318388)
(3 3.31954e-08 0.000686908)
(3 1.72904e-07 0.000651994)
(3 4.84013e-07 0.000617295)
(3 5.27299e-07 0.000582814)
(3 5.30862e-07 0.000548554)
(3 4.25563e-07 0.000514524)
(3 1.88508e-07 0.000480715)
(2.99999 -5.20536e-07 0.000447322)
(2.99997 7.0489e-07 0.000414432)
(2.99988 5.91932e-06 0.00038297)
(2.99972 2.98944e-05 0.000352562)
(2.99921 7.36656e-05 0.000330383)
(2.99832 0.000220339 0.000311472)
(2.99522 0.000444456 0.000350258)
(2.99131 0.00120901 0.000358003)
(2.96258 0.00170215 0.00112254)
(2.9216 0.00301624 0.00150522)
(2.73822 0.00353197 0.00635547)
(2.18901 -0.00536411 0.0123598)
(1.2155 -0.00876732 0.0220851)
(0.431525 0.0167201 0.00790742)
(0.571905 0.0466525 -0.00141924)
(0.665679 0.0466365 -0.0012337)
(0.675947 0.0465669 -0.00039638)
(0.65655 0.0492778 -0.000134177)
(0.626293 0.0552577 -0.000117269)
(0.593131 0.0600998 -0.000222839)
(0.564971 0.064194 -0.000403079)
(0.539607 0.0682225 -0.000553089)
(0.514043 0.0722686 -0.000672535)
(0.487242 0.0760873 -0.000783739)
(0.459554 0.0795014 -0.000897725)
(0.431584 0.0823891 -0.00101493)
(0.403727 0.0846318 -0.00113315)
(0.37623 0.0861603 -0.00125152)
(0.34926 0.0869818 -0.0013699)
(0.322972 0.0872088 -0.00148817)
(0.297461 0.0870129 -0.00160633)
(0.272736 0.0866104 -0.00172396)
(0.248763 0.0862669 -0.00184115)
(0.225367 0.0862256 -0.00195791)
(0.202411 0.0867192 -0.00207404)
(0.179623 0.0879888 -0.00219057)
(0.156679 0.0901899 -0.00230655)
(0.133559 0.0936044 -0.00242305)
(0.10996 0.0983352 -0.00254287)
(0.0858624 0.104501 -0.00266104)
(0.0622218 0.112266 -0.0027825)
(0.0357994 0.121612 -0.00290744)
(0.0139619 0.133176 -0.00302186)
(3 3.07741e-08 0.00065435)
(3 1.95029e-07 0.000621041)
(3 5.39834e-07 0.000587944)
(3 7.31144e-07 0.000555059)
(3 6.31552e-07 0.00052239)
(3 3.85485e-07 0.000489945)
(3 1.42538e-09 0.000457717)
(2.99999 -9.38402e-07 0.000425874)
(2.99997 -3.55304e-08 0.000394492)
(2.99989 4.07013e-06 0.000364378)
(2.99975 2.7338e-05 0.000335197)
(2.99928 6.85965e-05 0.000313274)
(2.99848 0.000227058 0.000294092)
(2.99562 0.000480923 0.000326905)
(2.99214 0.00140235 0.000329236)
(2.964 0.00229241 0.00104945)
(2.9253 0.00340632 0.00137251)
(2.74464 0.00542482 0.00598626)
(2.20489 -0.00367456 0.011576)
(1.24216 -0.00419952 0.0211191)
(0.45092 0.0283497 0.00766133)
(0.57079 0.0607206 -0.00115738)
(0.656578 0.0578209 -0.00109845)
(0.670783 0.0600074 -0.000399465)
(0.654106 0.0645259 -0.000148777)
(0.624527 0.0714029 -0.000117415)
(0.590255 0.0771478 -0.000201692)
(0.561122 0.0821554 -0.000376559)
(0.535041 0.0871127 -0.000522816)
(0.50875 0.0920293 -0.000637276)
(0.481178 0.0965931 -0.000742943)
(0.452798 0.100599 -0.000851362)
(0.424287 0.103898 -0.000962836)
(0.396056 0.106373 -0.00107494)
(0.368348 0.10795 -0.00118687)
(0.341336 0.108646 -0.0012989)
(0.315157 0.108618 -0.00141115)
(0.289869 0.108097 -0.00152328)
(0.265464 0.107371 -0.00163467)
(0.241882 0.106787 -0.00174533)
(0.218909 0.106651 -0.00185523)
(0.196396 0.107264 -0.00196409)
(0.174042 0.108864 -0.00207479)
(0.151566 0.1116 -0.00218441)
(0.128953 0.115682 -0.00229471)
(0.105863 0.121158 -0.00240674)
(0.0824003 0.128058 -0.00251645)
(0.0594963 0.136466 -0.00263285)
(0.0341949 0.14622 -0.00275053)
(0.0131912 0.157461 -0.00285375)
(3 2.07128e-08 0.000620474)
(3 2.17999e-07 0.000588841)
(3 5.52963e-07 0.000557414)
(3 9.61594e-07 0.000526194)
(3 9.5648e-07 0.000495185)
(3 7.61333e-07 0.000464391)
(3 3.03279e-07 0.000433811)
(2.99999 -1.49903e-06 0.000403588)
(2.99997 -5.1496e-07 0.000373789)
(2.9999 -9.32934e-07 0.000345097)
(2.99977 2.35478e-05 0.000317236)
(2.99935 5.08137e-05 0.000295533)
(2.99865 0.000228681 0.000275951)
(2.99607 0.000514044 0.000301532)
(2.99318 0.00150153 0.000295079)
(2.9654 0.00284681 0.000980543)
(2.92965 0.00371878 0.00122784)
(2.75146 0.00642051 0.00563281)
(2.22123 -0.00297475 0.0107867)
(1.27356 -7.81689e-05 0.0200645)
(0.47613 0.0387317 0.00738359)
(0.571317 0.0714062 -0.000867188)
(0.648003 0.0686733 -0.000941815)
(0.666842 0.0733301 -0.000417144)
(0.652025 0.0794493 -0.000162728)
(0.622576 0.0870383 -0.00011858)
(0.586965 0.0939991 -0.000182955)
(0.556655 0.100245 -0.000351189)
(0.529797 0.106489 -0.000492949)
(0.502833 0.112546 -0.000601993)
(0.47467 0.118023 -0.000701749)
(0.445903 0.122691 -0.000804226)
(0.41726 0.126396 -0.000909585)
(0.389135 0.12903 -0.0010154)
(0.361714 0.13056 -0.00112075)
(0.335112 0.131051 -0.00122581)
(0.30941 0.130702 -0.00133105)
(0.284594 0.12982 -0.00143624)
(0.260624 0.128746 -0.00154107)
(0.237425 0.127902 -0.00164536)
(0.214793 0.127647 -0.00174886)
(0.192601 0.128329 -0.00185179)
(0.170537 0.130223 -0.00195468)
(0.148356 0.133459 -0.00205714)
(0.126049 0.138184 -0.00216059)
(0.103294 0.144352 -0.00226685)
(0.0803157 0.151881 -0.00236953)
(0.057916 0.160796 -0.00247728)
(0.0332239 0.170895 -0.00258594)
(0.0126707 0.181832 -0.00268563)
(3 9.84806e-09 0.000585223)
(3 2.1626e-07 0.000555338)
(3 5.29483e-07 0.000525654)
(3 9.59082e-07 0.000496173)
(3 1.24498e-06 0.000466896)
(3 1.36721e-06 0.000437826)
(3 1.34596e-06 0.000408966)
(2.99999 -1.33975e-06 0.000380422)
(2.99997 -3.89978e-06 0.000352291)
(2.99991 -2.65459e-05 0.000325032)
(2.99979 -3.00306e-05 0.000298578)
(2.99943 -0.000170324 0.000276813)
(2.99884 -0.000128519 0.000256336)
(2.99654 -0.00105985 0.000274632)
(2.99439 0.000497093 0.000257393)
(2.96698 0.00242898 0.000915595)
(2.93365 0.00420874 0.00108523)
(2.7578 0.0054252 0.00527463)
(2.24224 0.000146082 0.00994049)
(1.31251 0.00570952 0.0188967)
(0.504195 0.0509567 0.00708713)
(0.572015 0.0804968 -0.000581027)
(0.640202 0.0821612 -0.000786221)
(0.663756 0.0888395 -0.00042768)
(0.650271 0.0962806 -0.000168831)
(0.620848 0.104388 -0.000120531)
(0.58399 0.112261 -0.0001691)
(0.552394 0.119755 -0.000325646)
(0.524738 0.127289 -0.000462508)
(0.497152 0.134386 -0.000565922)
(0.468619 0.140603 -0.000659714)
(0.439852 0.145714 -0.000756037)
(0.411572 0.149605 -0.000854642)
(0.384088 0.152198 -0.000953447)
(0.357465 0.153516 -0.00105175)
(0.331699 0.153703 -0.00114959)
(0.306785 0.153013 -0.00124727)
(0.28262 0.151794 -0.00134505)
(0.25912 0.150441 -0.00144219)
(0.236198 0.149431 -0.00153948)
(0.213662 0.149158 -0.00163637)
(0.191474 0.14999 -0.00173281)
(0.169381 0.152217 -0.00183098)
(0.147219 0.155949 -0.00192707)
(0.124977 0.161284 -0.00202457)
(0.102301 0.168115 -0.00212175)
(0.0794541 0.176262 -0.00221717)
(0.0572406 0.185666 -0.00232031)
(0.0329133 0.196056 -0.00242215)
(0.0125196 0.206715 -0.00251047)
(3 9.07025e-09 0.000548536)
(3 1.97758e-07 0.000520478)
(3 5.05714e-07 0.000492613)
(3 9.19711e-07 0.000464943)
(3 1.38215e-06 0.000437471)
(3 1.86949e-06 0.000410196)
(3 2.44615e-06 0.000383145)
(2.99999 5.25685e-07 0.000356385)
(2.99996 -3.93827e-06 0.000330193)
(2.99989 -2.53176e-05 0.000304561)
(2.99969 -4.41966e-05 0.000281326)
(2.99931 -0.000182756 0.000259702)
(2.99812 -0.000236409 0.000253937)
(2.99659 -0.00117495 0.000240253)
(2.99624 0.00023872 0.000198129)
(2.9692 0.00122773 0.000839315)
(2.9374 0.00426212 0.000976888)
(2.76545 0.00457932 0.00484681)
(2.26667 0.00428907 0.00907115)
(1.35335 0.0125471 0.0177105)
(0.531129 0.0667673 0.00677071)
(0.571408 0.0889088 -0.000329328)
(0.633607 0.0968023 -0.000643475)
(0.659974 0.105485 -0.000411199)
(0.647558 0.114318 -0.000166239)
(0.617939 0.123244 -0.000119399)
(0.580198 0.131868 -0.000158876)
(0.547835 0.140707 -0.000302463)
(0.51976 0.14945 -0.000431922)
(0.492007 0.157361 -0.000528672)
(0.463684 0.164009 -0.00061625)
(0.43556 0.169252 -0.000705979)
(0.408272 0.173054 -0.000797607)
(0.381971 0.175416 -0.000889066)
(0.356587 0.176447 -0.000980053)
(0.331976 0.176357 -0.00107081)
(0.308005 0.175463 -0.00116128)
(0.284504 0.174131 -0.00125161)
(0.261384 0.172727 -0.00134199)
(0.238561 0.171751 -0.00143238)
(0.215877 0.171592 -0.00152239)
(0.193385 0.172675 -0.00161177)
(0.170904 0.175291 -0.00170282)
(0.148363 0.179532 -0.00179288)
(0.125813 0.185454 -0.00188362)
(0.102909 0.192884 -0.00197516)
(0.0799426 0.201582 -0.002063)
(0.0575785 0.211431 -0.00215559)
(0.0330863 0.222126 -0.0022493)
(0.012484 0.232586 -0.00233574)
(3 1.08981e-08 0.000510349)
(3 1.76933e-07 0.000484198)
(3 4.77373e-07 0.000458233)
(3 8.48642e-07 0.000432455)
(3 1.32519e-06 0.000406864)
(3 1.86363e-06 0.000381463)
(3 2.40771e-06 0.000356281)
(2.99999 1.65119e-06 0.000331371)
(2.99996 7.03427e-07 0.000306971)
(2.99989 1.23225e-06 0.000283081)
(2.9997 5.16623e-06 0.000261248)
(2.99935 2.53838e-05 0.000240821)
(2.99826 4.57525e-05 0.000233487)
(2.99693 0.000229509 0.00021782)
(2.99672 0.000736119 0.000179178)
(2.97107 0.000351255 0.000746814)
(2.94197 0.00365245 0.000850912)
(2.77445 0.00460205 0.00440406)
(2.29518 0.00739604 0.0081712)
(1.40236 0.0198665 0.0164216)
(0.560635 0.0854987 0.00650707)
(0.570331 0.100644 -8.05928e-05)
(0.63013 0.111458 -0.000566613)
(0.657045 0.122345 -0.000377573)
(0.644507 0.132986 -0.000152378)
(0.613949 0.143299 -0.000108965)
(0.575411 0.152929 -0.000148032)
(0.542883 0.162939 -0.000282521)
(0.515003 0.172541 -0.000401346)
(0.487843 0.180877 -0.000490417)
(0.460576 0.187606 -0.000571604)
(0.433898 0.192708 -0.000654766)
(0.408251 0.196239 -0.000739133)
(0.383605 0.198311 -0.000823004)
(0.359738 0.199121 -0.000906223)
(0.336406 0.198929 -0.000989089)
(0.313399 0.198061 -0.00107211)
(0.290455 0.196902 -0.00115466)
(0.267512 0.195785 -0.00123661)
(0.244532 0.195133 -0.00132006)
(0.221427 0.195324 -0.00140304)
(0.198348 0.196782 -0.00148655)
(0.175166 0.199813 -0.00157049)
(0.151923 0.204539 -0.00165258)
(0.128703 0.211019 -0.00173728)
(0.105184 0.219048 -0.00182113)
(0.0816471 0.228303 -0.00190264)
(0.0587781 0.238608 -0.00199081)
(0.033925 0.249587 -0.00207721)
(0.0128086 0.25989 -0.00215187)
(3 1.22594e-08 0.000470595)
(3 1.59824e-07 0.000446438)
(3 4.40023e-07 0.000422457)
(3 7.76661e-07 0.000398653)
(3 1.22106e-06 0.000375026)
(3 1.66924e-06 0.000351579)
(3 2.04406e-06 0.000328343)
(2.99999 2.41363e-06 0.000305359)
(2.99996 3.81541e-06 0.00028284)
(2.9999 1.22947e-05 0.00026077)
(2.99972 3.22181e-05 0.000240566)
(2.99937 9.15954e-05 0.000221763)
(2.99832 0.000185203 0.000214301)
(2.99711 0.000473701 0.000196746)
(2.99704 0.000875418 0.000149096)
(2.97277 -0.000134943 0.000662984)
(2.9469 0.00409672 0.000737838)
(2.78489 0.00576209 0.00393862)
(2.32698 0.0113649 0.00725018)
(1.45796 0.0279553 0.0150529)
(0.593757 0.105458 0.00625528)
(0.568292 0.116387 0.00017464)
(0.627018 0.127006 -0.000510938)
(0.654334 0.13999 -0.0003465)
(0.640894 0.152645 -0.000136222)
(0.608905 0.164545 -9.49583e-05)
(0.569765 0.175248 -0.000135558)
(0.537865 0.185967 -0.000262939)
(0.511137 0.195859 -0.00037054)
(0.485559 0.204146 -0.000451379)
(0.46026 0.210629 -0.000525711)
(0.435731 0.215395 -0.0006016)
(0.412179 0.218623 -0.000678126)
(0.389396 0.220519 -0.000753856)
(0.367058 0.221339 -0.000829076)
(0.344858 0.221374 -0.000904229)
(0.322607 0.220918 -0.000979645)
(0.300048 0.220308 -0.00105604)
(0.277094 0.219842 -0.00113135)
(0.253783 0.219843 -0.00120664)
(0.230097 0.220656 -0.00128202)
(0.206233 0.222671 -0.00135777)
(0.182123 0.22623 -0.00143507)
(0.1579 0.231477 -0.00151087)
(0.133722 0.238498 -0.00158744)
(0.109285 0.24709 -0.00166437)
(0.0848769 0.256884 -0.00173928)
(0.0610792 0.267668 -0.00181663)
(0.03524 0.279003 -0.00189518)
(0.0132087 0.289235 -0.00196899)
(3 1.16669e-08 0.000429205)
(3 1.48527e-07 0.000407131)
(3 3.94178e-07 0.000385222)
(3 7.0622e-07 0.00036348)
(3 1.11937e-06 0.000341904)
(3 1.51288e-06 0.000320497)
(3 1.8143e-06 0.00029928)
(2.99999 2.48082e-06 0.000278285)
(2.99997 4.18083e-06 0.000257666)
(2.99992 1.48242e-05 0.000237392)
(2.99977 3.58486e-05 0.000218677)
(2.99949 0.000109952 0.000201195)
(2.9986 0.000237986 0.000194294)
(2.99746 0.000710608 0.000179852)
(2.99697 0.00130376 0.000142097)
(2.97488 0.000461622 0.000558864)
(2.95281 0.00603688 0.000602055)
(2.79602 0.00754292 0.00348548)
(2.36208 0.015477 0.00633555)
(1.52337 0.0364306 0.0135928)
(0.635512 0.127208 0.00598311)
(0.565984 0.134558 0.000437621)
(0.622983 0.145157 -0.000461122)
(0.650699 0.159941 -0.000322526)
(0.636156 0.174023 -0.000121331)
(0.603163 0.18691 -8.17796e-05)
(0.564317 0.198194 -0.000122647)
(0.534158 0.208945 -0.000242205)
(0.50967 0.218476 -0.000338753)
(0.486588 0.226299 -0.000410977)
(0.46389 0.232338 -0.000477814)
(0.44185 0.236796 -0.000546288)
(0.420469 0.239971 -0.000615269)
(0.399419 0.242037 -0.000683252)
(0.378362 0.243251 -0.000750755)
(0.35702 0.243915 -0.000818087)
(0.335242 0.2443 -0.000885552)
(0.31284 0.244637 -0.000953543)
(0.289725 0.245185 -0.0010219)
(0.26595 0.246177 -0.00109043)
(0.241588 0.24791 -0.00115786)
(0.21688 0.25071 -0.00122611)
(0.191772 0.254958 -0.00129638)
(0.166408 0.260821 -0.00136418)
(0.141001 0.268425 -0.00143351)
(0.115286 0.27761 -0.00150282)
(0.089556 0.287991 -0.00156935)
(0.0644628 0.299324 -0.00164306)
(0.0374099 0.311054 -0.00171471)
(0.0140529 0.321265 -0.00177545)
(3 7.04945e-09 0.000386103)
(3 1.43194e-07 0.000366207)
(3 3.36651e-07 0.000346464)
(3 6.4688e-07 0.000326875)
(3 1.05292e-06 0.000307441)
(3 1.49553e-06 0.000288163)
(3 1.15334e-06 0.000269059)
(2.99999 1.40815e-06 0.000250155)
(2.99997 6.96674e-07 0.00023157)
(2.99992 8.8033e-06 0.000213295)
(2.99979 1.54136e-05 0.000196237)
(2.99955 5.59344e-05 0.000179894)
(2.99882 0.000139346 0.000169788)
(2.99795 0.000339041 0.000156638)
(2.99754 0.000993084 0.000140787)
(2.97769 0.00105186 0.000456773)
(2.95856 0.00584305 0.000474563)
(2.80784 0.00710798 0.00303441)
(2.40253 0.0174245 0.00540043)
(1.60239 0.0435508 0.0120022)
(0.685364 0.150755 0.00569236)
(0.560784 0.155396 0.000696253)
(0.616084 0.166409 -0.000414395)
(0.645036 0.181848 -0.000299862)
(0.630438 0.196083 -0.000107865)
(0.598006 0.208913 -7.10044e-05)
(0.561039 0.220109 -0.000110038)
(0.533874 0.230353 -0.000219574)
(0.512577 0.23919 -0.000305726)
(0.492562 0.246486 -0.000369714)
(0.472628 0.252306 -0.000428413)
(0.452982 0.256845 -0.000489088)
(0.433443 0.260366 -0.000549907)
(0.413624 0.263033 -0.000609432)
(0.393354 0.265123 -0.0006694)
(0.37247 0.26685 -0.00072955)
(0.350849 0.268431 -0.000789749)
(0.328384 0.270043 -0.000849804)
(0.305037 0.271887 -0.000910023)
(0.280831 0.27418 -0.000970741)
(0.255813 0.277134 -0.00103155)
(0.23025 0.281042 -0.0010913)
(0.20413 0.286258 -0.00115332)
(0.177559 0.292979 -0.00121515)
(0.150771 0.301361 -0.00127688)
(0.123554 0.311282 -0.00133827)
(0.0962119 0.322345 -0.00139836)
(0.0693326 0.33432 -0.00145974)
(0.0402504 0.346583 -0.00152254)
(0.0149982 0.356902 -0.00158375)
(3 7.87521e-09 0.000341213)
(3 1.2395e-07 0.000323595)
(3 2.97195e-07 0.000306115)
(3 5.79112e-07 0.000288776)
(3 8.99343e-07 0.000271578)
(3 1.25611e-06 0.000254526)
(3 1.02304e-06 0.000237623)
(2.99999 1.13139e-06 0.000220908)
(2.99997 -2.93233e-07 0.000204438)
(2.99993 8.53817e-06 0.000188273)
(2.99981 6.71313e-06 0.000173058)
(2.99961 7.55719e-05 0.000158369)
(2.99885 7.15241e-05 0.000150942)
(2.99816 0.000385947 0.000134055)
(2.99816 0.000179681 0.000108873)
(2.97981 -0.000852214 0.000376107)
(2.96355 0.00320843 0.000374355)
(2.82044 0.00236518 0.00255021)
(2.44846 0.0199853 0.00446436)
(1.69291 0.0542253 0.0103181)
(0.735589 0.182615 0.00538776)
(0.545415 0.182484 0.00093465)
(0.602653 0.192253 -0.000368862)
(0.636145 0.206412 -0.000275534)
(0.624487 0.218962 -9.6139e-05)
(0.595506 0.230202 -6.34361e-05)
(0.562594 0.240253 -9.85271e-05)
(0.539543 0.249435 -0.000195217)
(0.521904 0.257524 -0.000270241)
(0.504981 0.26455 -0.000325917)
(0.487427 0.270598 -0.000377123)
(0.469422 0.275782 -0.000429631)
(0.450917 0.280185 -0.00048265)
(0.431733 0.283977 -0.000534962)
(0.411798 0.287389 -0.000587278)
(0.390992 0.290544 -0.000639478)
(0.369291 0.293599 -0.000691914)
(0.346626 0.296747 -0.000744578)
(0.323011 0.300127 -0.000796789)
(0.298443 0.303958 -0.000849509)
(0.272924 0.308412 -0.000901814)
(0.246654 0.313728 -0.000954986)
(0.219603 0.320239 -0.00100762)
(0.191834 0.328169 -0.00105995)
(0.163533 0.33769 -0.00111481)
(0.134487 0.348697 -0.00116832)
(0.105018 0.360799 -0.00121978)
(0.0758599 0.373702 -0.00127679)
(0.0444099 0.386701 -0.00133345)
(0.0166367 0.397269 -0.00138031)
(3 7.27926e-09 0.000294452)
(3 1.01195e-07 0.000279216)
(3 2.6771e-07 0.000264104)
(3 5.05403e-07 0.000249116)
(3 7.17039e-07 0.000234254)
(3 8.84381e-07 0.00021952)
(3 1.27634e-06 0.000204921)
(2.99999 9.96312e-07 0.000190487)
(2.99998 4.9159e-07 0.000176217)
(2.99993 4.00891e-06 0.000162314)
(2.99985 3.97133e-06 0.00014867)
(2.99962 5.90927e-05 0.0001366)
(2.99912 3.32718e-05 0.000126764)
(2.99804 0.000527548 0.000120102)
(2.99708 -0.000156356 0.000106405)
(2.98137 -0.00210322 0.000291805)
(2.96702 0.00301434 0.000294507)
(2.83265 0.00148845 0.0020147)
(2.50281 0.025952 0.00352751)
(1.7959 0.0677816 0.00860044)
(0.785995 0.221872 0.0050793)
(0.515808 0.206967 0.00114134)
(0.581711 0.210741 -0.000329332)
(0.624667 0.222605 -0.000250732)
(0.619559 0.234471 -8.44926e-05)
(0.597029 0.245113 -5.61022e-05)
(0.570133 0.255223 -8.63584e-05)
(0.55194 0.264534 -0.000168524)
(0.537963 0.273 -0.000233076)
(0.523638 0.280683 -0.000281415)
(0.50778 0.287761 -0.000324759)
(0.490735 0.294269 -0.000369135)
(0.472664 0.300194 -0.000414221)
(0.453616 0.305604 -0.000459147)
(0.433626 0.31063 -0.000504064)
(0.41265 0.315412 -0.000548461)
(0.39077 0.320098 -0.00059287)
(0.367938 0.324908 -0.000637446)
(0.344125 0.329984 -0.000681759)
(0.319319 0.335544 -0.000726396)
(0.293424 0.341777 -0.000770447)
(0.266601 0.348873 -0.000814485)
(0.238754 0.357133 -0.00086028)
(0.20987 0.366765 -0.000904702)
(0.180074 0.377972 -0.000949648)
(0.14908 0.390657 -0.000995958)
(0.117163 0.404341 -0.00104018)
(0.0850412 0.418702 -0.00108519)
(0.0499703 0.43292 -0.00113149)
(0.0185956 0.44405 -0.00117871)
(3 1.18618e-09 0.000245734)
(3 8.94279e-08 0.000232991)
(3 2.15603e-07 0.000220355)
(3 4.19376e-07 0.000207826)
(3 6.42212e-07 0.000195404)
(3 8.93221e-07 0.000183092)
(3 4.5128e-07 0.000170898)
(2.99999 -1.14891e-06 0.000158841)
(2.99998 -4.36343e-06 0.00014692)
(2.99994 -1.12272e-05 0.000135281)
(2.99987 -1.7543e-05 0.000123842)
(2.99965 -5.21706e-05 0.000113579)
(2.99929 -4.00392e-05 0.000103813)
(2.99806 -0.000106553 0.000101852)
(2.99648 0.000120913 9.46098e-05)
(2.98374 -0.0035501 0.000211927)
(2.97234 0.0100676 0.000206686)
(2.84842 -0.022166 0.00153186)
(2.56392 0.0820889 0.00264708)
(1.91357 0.0776106 0.0067826)
(0.842047 0.322761 0.00473745)
(0.476611 0.266285 0.00130383)
(0.562187 0.240883 -0.00030712)
(0.62136 0.238441 -0.000241401)
(0.62542 0.245284 -8.15746e-05)
(0.609655 0.253665 -5.06062e-05)
(0.588063 0.264805 -7.3086e-05)
(0.572937 0.275534 -0.000139497)
(0.560841 0.285534 -0.000194311)
(0.54781 0.295031 -0.000234792)
(0.532846 0.304169 -0.000271127)
(0.516258 0.312789 -0.000307786)
(0.498335 0.320757 -0.000344762)
(0.479255 0.328111 -0.000381585)
(0.459175 0.334971 -0.000418481)
(0.438092 0.341535 -0.000455232)
(0.416109 0.347974 -0.000491727)
(0.393213 0.354534 -0.000528263)
(0.369353 0.36143 -0.000564433)
(0.344507 0.368895 -0.000601028)
(0.318466 0.377174 -0.000637069)
(0.291294 0.386463 -0.000672665)
(0.262878 0.397008 -0.000708866)
(0.233028 0.409061 -0.000745157)
(0.201747 0.422775 -0.000782048)
(0.168616 0.438072 -0.000818587)
(0.133689 0.454422 -0.000854238)
(0.0978157 0.471287 -0.000893354)
(0.0583332 0.487631 -0.000933339)
(0.0220016 0.499929 -0.000966697)
(3 5.72997e-11 0.000194968)
(3 6.98668e-08 0.000184835)
(3 1.77969e-07 0.000174789)
(3 3.57479e-07 0.00016483)
(3 4.56751e-07 0.00015496)
(3 4.61521e-07 0.000145182)
(3 -2.07039e-07 0.000135499)
(2.99999 -1.14016e-06 0.000125928)
(2.99997 -2.85064e-06 0.000116477)
(2.99993 -4.89909e-06 0.000107217)
(2.99983 -1.2094e-05 9.82758e-05)
(2.99962 -2.63717e-05 8.97364e-05)
(2.99911 -9.36905e-05 8.27847e-05)
(2.99828 -0.000235001 7.67893e-05)
(2.99447 -0.000691866 9.22255e-05)
(2.99127 -0.00146736 8.91142e-05)
(2.9541 0.010152 0.000388394)
(2.8981 -0.0144442 0.000545046)
(2.67297 0.0743443 0.0021583)
(1.98116 0.0888632 0.0042992)
(1.07774 0.351341 0.00421988)
(0.567236 0.296853 0.001536)
(0.635684 0.270407 -0.000284287)
(0.690581 0.253014 -0.00025952)
(0.686504 0.255346 -9.4157e-05)
(0.66262 0.261994 -5.26739e-05)
(0.63453 0.274817 -6.40214e-05)
(0.612439 0.286986 -0.000108264)
(0.595721 0.298427 -0.000153383)
(0.580203 0.309837 -0.00018753)
(0.56391 0.321156 -0.000216723)
(0.546532 0.332023 -0.000245145)
(0.52819 0.342156 -0.000273785)
(0.508991 0.351567 -0.000302555)
(0.488981 0.360383 -0.000331261)
(0.468074 0.368813 -0.000359792)
(0.446285 0.377113 -0.00038822)
(0.42361 0.385556 -0.000416658)
(0.399963 0.394454 -0.00044489)
(0.375332 0.404022 -0.000473178)
(0.349474 0.41464 -0.000501359)
(0.322237 0.426581 -0.000529105)
(0.293548 0.440065 -0.000556777)
(0.263136 0.455386 -0.000584112)
(0.230678 0.472725 -0.000612091)
(0.195579 0.49203 -0.00064065)
(0.157554 0.512681 -0.000667464)
(0.117081 0.534011 -0.00069462)
(0.0709626 0.554598 -0.000723994)
(0.0269335 0.569521 -0.000755289)
(3 1.04163e-08 0.000142059)
(3 4.13447e-08 0.000134658)
(3 1.43061e-07 0.000127322)
(3 2.46985e-07 0.000120053)
(3 3.44241e-07 0.00011285)
(3 1.9588e-07 0.000105716)
(3 2.98734e-07 9.86513e-05)
(2.99999 1.35502e-06 9.16714e-05)
(2.99998 5.10605e-06 8.47714e-05)
(2.99993 1.44211e-05 7.8057e-05)
(2.99986 3.1575e-05 7.14735e-05)
(2.99961 8.04312e-05 6.57958e-05)
(2.99915 9.76378e-05 6.0555e-05)
(2.99766 0.000274574 6.09606e-05)
(2.99566 -9.07707e-05 5.84235e-05)
(2.99533 0.00260077 4.11523e-05)
(2.96477 0.00414122 0.000239855)
(2.92487 0.0182259 0.00030744)
(2.74386 0.0408595 0.00129876)
(2.19013 0.101607 0.00247619)
(1.27383 0.281593 0.00395501)
(0.609017 0.301338 0.00149363)
(0.664755 0.300909 -0.00017738)
(0.721318 0.282253 -0.000206373)
(0.729679 0.281734 -0.000107399)
(0.708359 0.285869 -5.38525e-05)
(0.678828 0.296269 -5.30937e-05)
(0.651049 0.307019 -7.50753e-05)
(0.630294 0.317674 -0.000110188)
(0.612659 0.329052 -0.000137481)
(0.595356 0.34106 -0.000159128)
(0.577649 0.35312 -0.000179679)
(0.559504 0.3648 -0.000200361)
(0.540923 0.375943 -0.000221164)
(0.521769 0.386567 -0.000241736)
(0.501847 0.396853 -0.000261954)
(0.481068 0.407075 -0.000282252)
(0.45936 0.417475 -0.000302417)
(0.436562 0.428526 -0.000322348)
(0.412719 0.440583 -0.00034246)
(0.387714 0.453957 -0.000362437)
(0.361191 0.469013 -0.000382117)
(0.332924 0.486131 -0.000401713)
(0.3026 0.505666 -0.000420889)
(0.269763 0.528004 -0.00043954)
(0.233405 0.553318 -0.000458476)
(0.192554 0.581167 -0.000477138)
(0.147131 0.610657 -0.000496981)
(0.0927894 0.639842 -0.000517173)
(0.0368119 0.66205 -0.000535625)
(3 1.10982e-08 8.6904e-05)
(3 2.88659e-08 8.23652e-05)
(3 9.8318e-08 7.78681e-05)
(3 1.36977e-07 7.34125e-05)
(3 2.92778e-07 6.89989e-05)
(3 3.68597e-07 6.46282e-05)