/*--------------------------------*- C++ -*----------------------------------*\
| =========                 |                                                 |
| \\      /  F ield         | OpenFOAM: The Open Source CFD Toolbox           |
|  \\    /   O peration     | Version:  2112                                  |
|   \\  /    A nd           | Website:  www.openfoam.com                      |
|    \\/     M anipulation  |                                                 |
\*---------------------------------------------------------------------------*/
FoamFile
{
    version     2.0;
    format      ascii;
    arch        "LSB;label=32;scalar=64";
    class       volScalarField;
    location    "48";
    object      p;
}
// * * * * * * * * * * * * * * * * * * * * * * * * * * * * * * * * * * * * * //

dimensions      [0 2 -2 0 0 0 0];

internalField   nonuniform List<scalar> 
400
(
5.3339209e-10
-0.00067287544
-0.0013853533
-0.0019427116
-0.002220005
-0.0021565016
-0.0017277968
-0.00092620624
0.00023541345
0.0017073971
0.0033872769
0.005112186
0.006673467
0.0078490915
0.0084583816
0.0084236821
0.0078133999
0.0068445214
0.0058613014
0.0052989451
0.00065783925
-4.0528072e-05
-0.00056966178
-0.00094062754
-0.0011108656
-0.0010399237
-0.000705793
-9.5547623e-05
0.00078909545
0.0019161801
0.003209577
0.004554695
0.0057819542
0.0067162496
0.0072144191
0.0072145259
0.0067699525
0.0060527656
0.0053105244
0.0047384841
0.0014236967
0.00044064702
-0.00011660291
-0.00045324593
-0.00061481111
-0.00058481413
-0.0003465837
0.00011973912
0.00082845488
0.0017699006
0.0028942839
0.0040981559
0.0052282308
0.006110964
0.0065938585
0.0065976521
0.0061557236
0.0054214974
0.0045937363
0.0037482277
0.0020141914
0.00068168147
1.6765046e-05
-0.00035885741
-0.00057155333
-0.00062656392
-0.00051008778
-0.0001906369
0.00036849546
0.0011843796
0.0022299064
0.0034174187
0.0045913559
0.0055569303
0.0061235431
0.0061665482
0.0056836057
0.0048170363
0.0037472822
0.0024735909
0.0021672618
0.00049611095
-0.00029626553
-0.00074871162
-0.0010582594
-0.0012452768
-0.0012927559
-0.001151311
-0.00075506098
-5.3111344e-05
0.00095701454
0.0022102733
0.0035447
0.0047326554
0.0055218365
0.0057098747
0.0052292737
0.0042015909
0.0028061728
0.00098395125
0.0016539524
-0.00031448781
-0.0012387955
-0.0017993087
-0.0022526701
-0.002627918
-0.0028986305
-0.0029910936
-0.0028025514
-0.0022376942
-0.001251112
0.00013087919
0.0017446366
0.0033271032
0.0045416372
0.0050657688
0.0047174815
0.0035661835
0.0017895794
-0.00072593521
0.00028701471
-0.0019195804
-0.0029730077
-0.0036713907
-0.0043203047
-0.0049532095
-0.0055301303
-0.0059479646
-0.0060590175
-0.0057074
-0.0047757365
-0.0032587153
-0.0012665255
0.00090716496
0.0028231153
0.003986823
0.0040250785
0.0028876914
0.00071536311
-0.002680516
-0.0020764398
-0.0044512025
-0.0056268146
-0.0064923322
-0.0073929283
-0.0083657706
-0.0093569296
-0.010231791
-0.010790981
-0.010804858
-0.010063384
-0.0084617869
-0.0060407905
-0.0030832367
-0.00012632414
0.0021126054
0.0029638082
0.0021355629
-0.00036605177
-0.0048726278
-0.005524178
-0.0079921247
-0.0092779325
-0.010333801
-0.011538009
-0.012935425
-0.014462716
-0.015956329
-0.017162475
-0.017766048
-0.017438103
-0.015919502
-0.013122986
-0.0092517828
-0.0048990282
-0.0010300355
0.0012693897
0.0012777438
-0.001333977
-0.0072016961
-0.010076924
-0.012565107
-0.013936677
-0.015184018
-0.016718397
-0.018602639
-0.020774213
-0.023048779
-0.025121702
-0.026586368
-0.026969371
-0.025812969
-0.022845706
-0.018074475
-0.012051114
-0.0059519745
-0.00137076
0.00030057352
-0.0019472226
-0.0093822443
-0.015685001
-0.018132426
-0.019537568
-0.020926823
-0.022757762
-0.025129903
-0.027997031
-0.031166426
-0.034291493
-0.036876872
-0.038294198
-0.037844307
-0.035065885
-0.029601498
-0.021822523
-0.0129856
-0.0051849974
-0.00071577132
-0.0017642193
-0.010792275
-0.022243615
-0.024613054
-0.025945606
-0.027334969
-0.029324182
-0.032079261
-0.035588977
-0.039664684
-0.043927305
-0.047801333
-0.050530218
-0.051236511
-0.048956909
-0.043143577
-0.033769043
-0.021926368
-0.010036906
-0.001415465
-9.886807e-06
-0.010225639
-0.029641236
-0.031923916
-0.032978763
-0.034079881
-0.035939524
-0.038831544
-0.042795653
-0.047651626
-0.052990573
-0.058163623
-0.062284281
-0.064265565
-0.062875191
-0.057112217
-0.04647677
-0.031649113
-0.015037884
-0.00086441032
0.0046467444
-0.0055215558
-0.03786603
-0.040048535
-0.040440158
-0.040752535
-0.042015058
-0.044653082
-0.048758224
-0.054144099
-0.060356073
-0.066665383
-0.072060722
-0.075268315
-0.074811394
-0.069269296
-0.057628334
-0.039961533
-0.018247993
0.0027890192
0.01444514
0.0069075311
-0.047230621
-0.04913438
-0.048140598
-0.046882326
-0.046905519
-0.048798704
-0.052668312
-0.058276047
-0.065076139
-0.072232032
-0.078595801
-0.082712352
-0.08288024
-0.077309419
-0.064523965
-0.043934978
-0.016748008
0.012502931
0.032938769
0.032408939
-0.058896833
-0.059639909
-0.05588392
-0.051941083
-0.04997235
-0.050629898
-0.053928668
-0.059495369
-0.066611892
-0.07428533
-0.081191201
-0.085679436
-0.085831827
-0.079522223
-0.064876125
-0.040689289
-0.0072409383
0.032139357
0.064981437
0.077749169
-0.076226558
-0.072613783
-0.063516184
-0.055435393
-0.050725052
-0.04978163
-0.05231237
-0.057664394
-0.064891851
-0.072775004
-0.0797794
-0.08403678
-0.083391686
-0.07534899
-0.057602699
-0.028375162
0.012933312
0.065396463
0.1155515
0.15150621
-0.10809226
-0.089556429
-0.071233875
-0.057233015
-0.049072146
-0.046330241
-0.048077294
-0.053202637
-0.060434654
-0.068295897
-0.075027427
-0.078526947
-0.076389039
-0.065809705
-0.043865506
-0.0078184695
0.044393653
0.11299814
0.18838041
0.27186076
-0.17684552
-0.10828977
-0.07620256
-0.054651283
-0.042992407
-0.038998055
-0.04057054
-0.045928075
-0.05344157
-0.061438391
-0.068027619
-0.070962592
-0.067551166
-0.054739865
-0.029148841
0.013563579
0.078146941
0.17006434
0.28949545
0.47421821
-0.37208351
-0.1247085
-0.054973103
-0.031962551
-0.022063587
-0.02030055
-0.024359487
-0.031958032
-0.041261593
-0.05064092
-0.058316935
-0.062187498
-0.059782587
-0.048056841
-0.022658556
0.021474185
0.092818703
0.21015275
0.40288841
0.77640927
)
;

boundaryField
{
    movingWall
    {
        type            zeroGradient;
    }
    fixedWalls
    {
        type            zeroGradient;
    }
    frontAndBack
    {
        type            empty;
    }
}


// ************************************************************************* //
