/*--------------------------------*- C++ -*----------------------------------*\
| =========                 |                                                 |
| \\      /  F ield         | OpenFOAM: The Open Source CFD Toolbox           |
|  \\    /   O peration     | Version:  2112                                  |
|   \\  /    A nd           | Website:  www.openfoam.com                      |
|    \\/     M anipulation  |                                                 |
\*---------------------------------------------------------------------------*/
FoamFile
{
    version     2.0;
    format      ascii;
    arch        "LSB;label=32;scalar=64";
    class       volScalarField;
    location    "46";
    object      p;
}
// * * * * * * * * * * * * * * * * * * * * * * * * * * * * * * * * * * * * * //

dimensions      [0 2 -2 0 0 0 0];

internalField   nonuniform List<scalar> 
400
(
9.3291244e-10
-0.00067287501
-0.0013853528
-0.0019427111
-0.0022200046
-0.0021565009
-0.0017277954
-0.00092620415
0.00023541587
0.0017073998
0.0033872802
0.0051121884
0.0066734652
0.0078490822
0.0084583642
0.00842366
0.00781338
0.0068445103
0.0058613014
0.0052989521
0.0006578396
-4.052776e-05
-0.00056966134
-0.00094062694
-0.0011108651
-0.0010399234
-0.00070579253
-9.5546469e-05
0.00078909707
0.0019161815
0.0032095783
0.0045546971
0.0057819567
0.0067162497
0.0072144141
0.0072145171
0.0067699448
0.0060527635
0.0053105268
0.004738489
0.001423697
0.0004406472
-0.00011660275
-0.00045324555
-0.00061481079
-0.00058481459
-0.00034658525
0.0001197371
0.00082845329
0.0017698999
0.0028942853
0.0040981634
0.0052282478
0.0061109872
0.0065938792
0.0065976635
0.0061557265
0.0054214969
0.004593736
0.0037482254
0.0020141918
0.00068168181
1.6765194e-05
-0.00035885728
-0.00057155309
-0.00062656399
-0.00051008898
-0.00019063943
0.0003684923
0.0011843767
0.0022299057
0.0034174246
0.0045913714
0.0055569528
0.0061235638
0.0061665594
0.0056836077
0.004817034
0.0037472779
0.0024735849
0.002167262
0.00049611152
-0.00029626481
-0.00074871104
-0.0010582586
-0.001245275
-0.0012927535
-0.0011513101
-0.00075506425
-5.3119803e-05
0.00095700314
0.0022102623
0.0035446929
0.0047326548
0.0055218399
0.0057098785
0.0052292759
0.004201591
0.0028061696
0.00098394666
0.0016539523
-0.00031448741
-0.0012387943
-0.0017993074
-0.0022526688
-0.0026279155
-0.0028986253
-0.002991088
-0.0028025517
-0.0022377046
-0.0012511304
0.00013085613
0.0017446158
0.0033270893
0.0045416321
0.0050657714
0.0047174877
0.0035661882
0.0017895794
-0.00072593694
0.00028701446
-0.0019195807
-0.0029730073
-0.0036713898
-0.0043203045
-0.004953209
-0.0055301257
-0.0059479545
-0.0060590077
-0.0057073978
-0.0047757437
-0.0032587271
-0.0012665368
0.00090715659
0.002823112
0.0039868258
0.0040250849
0.0028876965
0.00071536447
-0.002680516
-0.0020764396
-0.0044512031
-0.0056268157
-0.0064923332
-0.0073929303
-0.0083657733
-0.0093569285
-0.010231781
-0.010790961
-0.010804837
-0.01006337
-0.00846178
-0.0060407892
-0.0030832385
-0.00012632611
0.0021126055
0.0029638103
0.0021355649
-0.00036605087
-0.0048726273
-0.0055241769
-0.0079921241
-0.0092779334
-0.010333804
-0.011538014
-0.012935431
-0.014462721
-0.015956327
-0.01716246
-0.017766024
-0.017438082
-0.01591949
-0.013122984
-0.0092517849
-0.0048990309
-0.0010300372
0.001269389
0.0012777437
-0.0013339768
-0.0072016956
-0.010076923
-0.012565104
-0.013936674
-0.015184019
-0.016718403
-0.018602647
-0.020774222
-0.023048792
-0.025121709
-0.026586363
-0.02696936
-0.025812962
-0.022845705
-0.018074477
-0.012051116
-0.0059519754
-0.0013707602
0.00030057356
-0.0019472224
-0.0093822439
-0.015685001
-0.018132424
-0.01953756
-0.020926817
-0.022757765
-0.025129911
-0.027997042
-0.031166445
-0.034291515
-0.036876885
-0.038294199
-0.037844303
-0.035065883
-0.029601496
-0.021822523
-0.0129856
-0.0051849968
-0.00071577075
-0.0017642188
-0.010792274
-0.022243618
-0.024613055
-0.025945597
-0.027334956
-0.029324174
-0.032079263
-0.035588981
-0.039664692
-0.043927317
-0.047801344
-0.050530223
-0.05123651
-0.048956905
-0.043143573
-0.033769041
-0.021926367
-0.010036905
-0.0014154644
-9.886162e-06
-0.010225638
-0.02964124
-0.03192392
-0.032978763
-0.034079869
-0.035939501
-0.038831531
-0.042795649
-0.047651623
-0.052990569
-0.058163622
-0.062284283
-0.064265567
-0.06287519
-0.057112215
-0.046476768
-0.031649112
-0.015037884
-0.0008644099
0.004646745
-0.0055215551
-0.037866032
-0.040048537
-0.040440171
-0.040752542
-0.042015034
-0.044653056
-0.048758216
-0.054144098
-0.060356068
-0.066665378
-0.07206072
-0.075268317
-0.074811395
-0.069269296
-0.057628334
-0.039961532
-0.018247993
0.0027890195
0.01444514
0.0069075317
-0.047230622
-0.049134373
-0.048140612
-0.046882356
-0.046905518
-0.048798683
-0.0526683
-0.058276048
-0.065076141
-0.072232032
-0.078595801
-0.082712353
-0.08288024
-0.07730942
-0.064523965
-0.043934978
-0.016748008
0.012502931
0.032938769
0.03240894
-0.058896836
-0.0596399
-0.055883914
-0.051941112
-0.049972375
-0.050629899
-0.05392866
-0.059495364
-0.066611892
-0.074285331
-0.081191201
-0.085679436
-0.085831827
-0.079522222
-0.064876125
-0.040689289
-0.0072409381
0.032139357
0.064981438
0.077749169
-0.076226558
-0.072613796
-0.06351616
-0.055435384
-0.050725069
-0.049781648
-0.052312378
-0.057664395
-0.064891848
-0.072775002
-0.079779398
-0.084036779
-0.083391685
-0.075348989
-0.057602698
-0.028375161
0.012933312
0.065396464
0.1155515
0.15150622
-0.10809224
-0.089556474
-0.071233871
-0.057232984
-0.049072129
-0.046330242
-0.048077301
-0.05320264
-0.060434653
-0.068295895
-0.075027425
-0.078526946
-0.076389038
-0.065809704
-0.043865505
-0.0078184689
0.044393654
0.11299814
0.18838041
0.27186076
-0.17684546
-0.1082898
-0.076202606
-0.054651292
-0.0429924
-0.03899805
-0.040570539
-0.045928076
-0.053441571
-0.061438391
-0.068027618
-0.070962592
-0.067551165
-0.054739865
-0.02914884
0.01356358
0.078146941
0.17006435
0.28949545
0.47421821
-0.37208342
-0.12470846
-0.0549731
-0.031962555
-0.022063586
-0.020300547
-0.024359485
-0.031958031
-0.041261593
-0.050640921
-0.058316935
-0.062187498
-0.059782587
-0.048056841
-0.022658556
0.021474185
0.092818704
0.21015276
0.40288841
0.77640928
)
;

boundaryField
{
    movingWall
    {
        type            zeroGradient;
    }
    fixedWalls
    {
        type            zeroGradient;
    }
    frontAndBack
    {
        type            empty;
    }
}


// ************************************************************************* //
