/*--------------------------------*- C++ -*----------------------------------*\
| =========                 |                                                 |
| \\      /  F ield         | OpenFOAM: The Open Source CFD Toolbox           |
|  \\    /   O peration     | Version:  2112                                  |
|   \\  /    A nd           | Website:  www.openfoam.com                      |
|    \\/     M anipulation  |                                                 |
\*---------------------------------------------------------------------------*/
FoamFile
{
    version     2.0;
    format      ascii;
    arch        "LSB;label=32;scalar=64";
    class       surfaceScalarField;
    location    "46";
    object      phi_0;
}
// * * * * * * * * * * * * * * * * * * * * * * * * * * * * * * * * * * * * * //

dimensions      [0 3 -1 0 0 0 0];

oriented        oriented;

internalField   nonuniform List<scalar> 
760
(
1.2703172e-05
-1.2703184e-05
-2.8723015e-05
4.1426186e-05
-0.00012229196
9.3568942e-05
-0.0002503969
0.00012810495
-0.00039607663
0.00014567974
-0.0005453938
0.00014931716
-0.00068627532
0.00014088151
-0.00080689676
0.00012062143
-0.00089495767
8.8060905e-05
-0.00093839592
4.3438245e-05
-0.00092727948
-1.1116467e-05
-0.00085686605
-7.041345e-05
-0.0007304322
-0.00012643384
-0.00056134345
-0.00016908868
-0.00037276106
-0.00018858226
-0.00019447412
-0.0001782868
-5.6521765e-05
-0.00013795224
1.9614645e-05
-7.6136339e-05
3.0411427e-05
-1.0796794e-05
3.0411342e-05
-4.318278e-05
3.0479596e-05
-0.00020456657
0.00020280998
-0.00046832586
0.00035732823
-0.00080071022
0.0004604893
-0.0011673542
0.0005123237
-0.0015364544
0.00051841733
-0.0018782335
0.00048266069
-0.0021636888
0.00040607669
-0.0023645513
0.00028892333
-0.0024553581
0.00013424511
-0.0024181507
-4.8323874e-05
-0.0022453653
-0.00024319874
-0.0019475621
-0.00042423704
-0.001554473
-0.00056217766
-0.0011143234
-0.0006287317
-0.00068747563
-0.00060513456
-0.00033452574
-0.00049090214
-0.00010089661
-0.00030976554
-1.5518571e-06
-0.00011014163
2.8859439e-05
-0.00011002745
0.00014050705
-0.00040303342
0.00049581595
-0.00083139247
0.00078568729
-0.0013456245
0.00097472135
-0.0018986088
0.001065308
-0.0024465936
0.0010664021
-0.0029480473
0.00098411439
-0.0033626349
0.00082066428
-0.0036519072
0.0005781957
-0.0037823337
0.00026467158
-0.0037298381
-0.00010081952
-0.0034858241
-0.00048721278
-0.0030632829
-0.00084677832
-0.0024999991
-0.0011254618
-0.0018582377
-0.0012704933
-0.0012181458
-0.0012452265
-0.00066373726
-0.0010453107
-0.00026308974
-0.00071041302
-4.7956324e-05
-0.00032527506
-1.9096845e-05
-0.00017344051
0.00031394756
-0.00059329587
0.0009156713
-0.0011777026
0.001370094
-0.0018583817
0.0016554005
-0.0025769248
0.0017838511
-0.0032813276
0.001770805
-0.0039228156
0.0016256024
-0.0044541592
0.0013520079
-0.0048302823
0.00095431883
-0.0050112548
0.00044564401
-0.0049672712
-0.00014480315
-0.0046844458
-0.00077003833
-0.0041723586
-0.0013588657
-0.0034691331
-0.0018286875
-0.0026440134
-0.0020956131
-0.0017932031
-0.0020960368
-0.0010258516
-0.0018126621
-0.00044021527
-0.0012960492
-9.6723917e-05
-0.00066876638
-0.00011582072
-0.0002297969
0.00054374446
-0.00076507935
0.0014509537
-0.0014914945
0.0020965092
-0.0023225616
0.0024864676
-0.0031901593
0.0026514488
-0.0040368453
0.0026174909
-0.0048100625
0.0023988196
-0.0054589922
0.0020009376
-0.0059342094
0.0014295361
-0.0061898396
0.00070127427
-0.0061884188
-0.00014622387
-0.0059055877
-0.0010528695
-0.0053404225
-0.0019240308
-0.0045231203
-0.0026459897
-0.0035229796
-0.0030957539
-0.0024498068
-0.0031692096
-0.0014425404
-0.0028199284
-0.00064123165
-0.002097358
-0.00014883698
-0.001161161
-0.0002646577
-0.00027729944
0.0008210439
-0.00091155225
0.0020852066
-0.0017607402
0.0029456971
-0.0027228235
0.0034485508
-0.0037222306
0.003650856
-0.0046987178
0.0035939782
-0.0055989172
0.0032990189
-0.0063712188
0.0027732391
-0.0069637567
0.002022074
-0.007324864
0.0010623817
-0.0074074851
-6.3602541e-05
-0.007171715
-0.0012886394
-0.0065989026
-0.002496843
-0.005701689
-0.0035432032
-0.0045400247
-0.0042574182
-0.0032318455
-0.0044773889
-0.0019490223
-0.0041027517
-0.00088728824
-0.0031590921
-0.00021159433
-0.0018368549
-0.00047625203
-0.00031411698
0.0011351609
-0.0010263422
0.0027974318
-0.0019735138
0.0038928686
-0.0030417629
0.0045168
-0.004150728
0.0047598211
-0.0052399573
0.0046832075
-0.0062580884
0.00431715
-0.0071555418
0.0036706925
-0.0078803838
0.0027469161
-0.0083768584
0.0015588563
-0.0085854044
0.00014494366
-0.008451333
-0.0014227106
-0.0079295104
-0.0030186656
-0.0070049722
-0.0044677414
-0.0057150496
-0.0055473408
-0.0041735848
-0.0060188538
-0.0025818464
-0.0056944901
-0.0012041054
-0.0045368331
-0.00029450419
-0.0027464562
-0.00077075622
-0.00033824894
0.0014734098
-0.0011031705
0.0035623533
-0.0021176364
0.0049073346
-0.0032598928
0.0056590564
-0.0044474109
0.0059473391
-0.005621966
0.0058577627
-0.006736953
0.0054321369
-0.0077479708
0.0046817101
-0.008606378
0.0036053231
-0.0092552539
0.002207732
-0.0096270172
0.00051670687
-0.0096492082
-0.0014005197
-0.0092489827
-0.0034188911
-0.0083739453
-0.0053427788
-0.0070220745
-0.0068992116
-0.0052818154
-0.0077591129
-0.0033676679
-0.0076086375
-0.0016173639
-0.0062871371
-0.00040826908
-0.003955551
-0.0011790253
-0.00034815637
0.0018215662
-0.0011372156
0.0043514125
-0.0021827895
0.0059529085
-0.0033586213
0.0068348882
-0.0045822442
0.007170962
-0.0057998239
0.0070753424
-0.0069721964
0.0066045094
-0.0080636695
0.0057731832
-0.009033443
0.0045750964
-0.009828995
0.0030032837
-0.010381276
0.0010689874
-0.010604527
-0.0011772684
-0.010400779
-0.003622639
-0.0096748969
-0.0060686608
-0.0083686765
-0.008205432
-0.006515687
-0.0096121024
-0.0043098859
-0.0098144385
-0.0021483241
-0.008448699
-0.00056492554
-0.0055389496
-0.0017439509
-0.00034393489
0.0021655011
-0.00112786
0.0051353376
-0.0021647105
0.0069897591
-0.0033259031
0.0079960808
-0.0045308038
0.0083758627
-0.0057319457
0.0082764844
-0.0069002228
0.0077727865
-0.0080123826
0.0068853431
-0.009040827
0.0056035409
-0.0099449676
0.0039074243
-0.010663395
0.0017874151
-0.011106746
-0.00073391765
-0.011163421
-0.0035659643
-0.010697129
-0.006534953
-0.0095826001
-0.0093199604
-0.0077667782
-0.011427924
-0.0053715022
-0.012209715
-0.0028071794
-0.011013022
-0.0007783692
-0.0075677597
-0.0025223201
-0.00032890791
0.002494409
-0.0010824215
0.0058888511
-0.0020707773
0.0079781148
-0.0031636133
0.0090889168
-0.0042839024
0.009496152
-0.0053928539
0.0093854359
-0.0064741409
0.0088540735
-0.0075205484
0.0079317508
-0.0085229181
0.0066059108
-0.0094603447
0.004844851
-0.010291332
0.0026184023
-0.010933227
-9.2022687e-05
-0.011283212
-0.0032159793
-0.011173633
-0.0066445316
-0.010415714
-0.01007788
-0.0088467368
-0.012996902
-0.0064557547
-0.014600697
-0.0035815275
-0.013887249
-0.0010642231
-0.010085064
-0.0035865431
-0.00031178406
0.0028061931
-0.0010206787
0.0065977458
-0.0019260998
0.0088835358
-0.0028949489
0.010057766
-0.0038568828
0.010458086
-0.0047855633
0.010314117
-0.0056807662
0.0097492765
-0.0065544554
0.00880544
-0.0074198889
0.0074713444
-0.0082818244
0.0057067866
-0.0091251547
0.0034617328
-0.0099086389
0.00069146141
-0.010527256
-0.0025973624
-0.010827013
-0.0063447743
-0.010573628
-0.010331265
-0.0094932085
-0.014077321
-0.0073911391
-0.016702766
-0.0044189149
-0.016859473
-0.0014372118
-0.013066767
-0.0050237549
-0.00031004259
0.0031162357
-0.00098036406
0.0072680674
-0.0017790477
0.0096822194
-0.0025693647
0.010848083
-0.0032945945
0.011183315
-0.0039478952
0.010967418
-0.0045499685
0.01035135
-0.0051347836
0.0093902551
-0.005739918
0.0080764787
-0.0063985222
0.0063653907
-0.0071301247
0.0041933353
-0.0079302567
0.0014915934
-0.0087388035
-0.0017888156
-0.0094303568
-0.0056532209
-0.0097685795
-0.0099930424
-0.0094003427
-0.014445558
-0.007930579
-0.01817253
-0.0052061613
-0.019583891
-0.0019026121
-0.016370317
-0.006926367
-0.00035603978
0.0034722754
-0.0010239961
0.0079360237
-0.0017042284
0.010362452
-0.0022607957
0.01140465
-0.0026657185
0.011588238
-0.0029440062
0.011245705
-0.0031442449
0.010551589
-0.0033248623
0.0095708726
-0.0035471875
0.0082988039
-0.0038710404
0.0066892435
-0.0043491656
0.0046714605
-0.0050183753
0.0021608031
-0.0058766085
-0.0009305823
-0.0068578315
-0.0046719979
-0.0077762853
-0.0090745886
-0.0082658332
-0.01395601
-0.0077687388
-0.018669624
-0.005751099
-0.021601531
-0.0024366711
-0.019684744
-0.0093630381
-0.00050826047
0.003980536
-0.00124563
0.008673393
-0.0017958814
0.010912703
-0.0020479954
0.011656765
-0.0020325014
0.011572744
-0.0018254211
0.011038624
-0.0015121872
0.010238355
-0.0011778546
0.0092365402
-0.00090470805
0.0080256575
-0.00077371561
0.006558251
-0.00086348616
0.004761231
-0.0012473542
0.0025446712
-0.0019828289
-0.00019510763
-0.0030818655
-0.0035729613
-0.0044600292
-0.0076964248
-0.0058274849
-0.012588554
-0.0065661622
-0.017930947
-0.005768446
-0.022399247
-0.0029512247
-0.022501966
-0.012314263
-0.00086855266
0.0048490889
-0.0017629814
0.0095678214
-0.0021213518
0.011271073
-0.0019368391
0.011472252
-0.001350913
0.010986818
-0.00051618187
0.010203893
0.00043705319
0.0092851193
0.0013996264
0.0082739669
0.00227239
0.0071528939
0.0029609282
0.0058697129
0.0033691625
0.0043529968
0.0033968098
0.0025170238
0.0029385543
0.00026314785
0.001909618
-0.002544025
0.00026969035
-0.0060564972
-0.0018541592
-0.010464705
-0.003951593
-0.015833513
-0.0048608327
-0.021490007
-0.0032547029
-0.024108096
-0.015568966
-0.0015910837
0.0064401726
-0.0026108507
0.010587589
-0.0025131325
0.011173354
-0.0015898998
0.01054902
-0.00017216105
0.0095690796
0.0014928127
0.0085389195
0.0032329107
0.0075450214
0.0049232508
0.0065836268
0.0064630096
0.005613135
0.0077575135
0.004575209
0.008707518
0.0034029922
0.0092015047
0.0020230371
0.0091033481
0.00036130443
0.0082750957
-0.0017157725
0.0065654643
-0.0043468658
0.0039042379
-0.0078034782
0.0005589562
-0.012488231
-0.0024680531
-0.018462998
-0.0030273162
-0.023548832
-0.018596282
-0.00271836
0.0091585321
-0.0031498642
0.011019095
-0.0018029956
0.0098264856
0.00046670615
0.008279317
0.0030894303
0.006946355
0.0057738196
0.0058545301
0.0083629079
0.0049559332
0.010760406
0.0041861287
0.012893501
0.0034800397
0.014690669
0.0027780414
0.016068353
0.0020253083
0.01692329
0.0011680995
0.017119717
0.00016487742
0.016490832
-0.0010868876
0.014816842
-0.0026728755
0.011846659
-0.0048332947
0.0074354936
-0.0080770663
0.0022629302
-0.013290435
-0.001272466
-0.020013436
-0.019868748
-0.0024132803
0.011571811
2.805657e-05
0.008577759
0.0042551389
0.0055994045
0.0084161238
0.0041183325
0.012231487
0.0031309919
0.015656267
0.0024297502
0.018686551
0.0019256492
0.021329194
0.001543485
0.023583495
0.0012257394
0.025429229
0.00093230677
0.026820172
0.0006343656
0.027677182
0.00031108898
0.027900206
-5.8145932e-05
0.027347226
-0.00053390764
0.025771633
-0.0010972823
0.022843048
-0.0019047096
0.018054771
-0.0032887893
0.011113587
-0.0063492511
0.0033886755
-0.012288525
-0.016480072
0.011571811
0.020149569
0.025748973
0.029867306
0.032998298
0.035428048
0.037353697
0.038897182
0.040122922
0.041055228
0.041689594
0.042000683
0.041942537
0.041408629
0.040311347
0.038406637
0.035117848
0.028768597
0.016480072
)
;

boundaryField
{
    movingWall
    {
        type            calculated;
        value           uniform 0;
    }
    fixedWalls
    {
        type            calculated;
        value           uniform 0;
    }
    frontAndBack
    {
        type            empty;
        value           nonuniform List<scalar> 0();
    }
}


// ************************************************************************* //
