/*--------------------------------*- C++ -*----------------------------------*\
| =========                 |                                                 |
| \\      /  F ield         | OpenFOAM: The Open Source CFD Toolbox           |
|  \\    /   O peration     | Version:  2112                                  |
|   \\  /    A nd           | Website:  www.openfoam.com                      |
|    \\/     M anipulation  |                                                 |
\*---------------------------------------------------------------------------*/
FoamFile
{
    version     2.0;
    format      ascii;
    arch        "LSB;label=32;scalar=64";
    class       volScalarField;
    location    "0.1";
    object      p;
}
// * * * * * * * * * * * * * * * * * * * * * * * * * * * * * * * * * * * * * //

dimensions      [1 -1 -2 0 0 0 0];

internalField   nonuniform List<scalar> 
1000
(
1
1
1
1
1
1
1
1
1
1
1
1
1
1
1
1
1
1
1
1
1
1
1
1
1
1
1
1
1
1
1
1
1
1
1
1
1
1
1
1
1
1
1
1
1
1
1
1
1
1
1
1
1
1
1
1
1
1
1
1
1
1
1
1
1
1
1
1
1
1
1
1
1
1
1
1
1
1
1
1
1
1
1
1
1
1
1
1
1
1
1
1
1
1
1
1
1
1
1
1
1
1
1
1
1
1
1
1
1
1
1
1
1
1
1
1
1
1
1
1
1
1
1
1
1
1
1
1
1
1
1
1
1
1
1
1
1
1
1
1
1
1
1
1
1
1
1
1
1
1
1
1
1
1
1
1
1
1
1
1
1
1
1
1
1
1
1
1
1
1
1
1
1
1
1
1
1
1
1
1
1
1
1
1
1
1
1
1
1
1
1
1
1
1
1
1
1
1
1
1
1
1
1
1
1
1
1
1
1
1
1
1
1
1
1
1
1
1
1
1
1
1
1
1
1
1
1
1
1
1
1
1
1
1
1
1
1
1
1
1
1
1
1
1
1
1
1
1
1
1
1
1
1
1
1
1
1
1
1
1
1
1
1
1
1
1
1
1
1
1
1
1
1
1
1
1
1
1
1
1
1
1
1
1
1
1
1
1
1
1
1
1
1
1
1
1
1
1
1
1
1
1
1
1
0.99999999
0.99999999
0.99999999
0.99999999
0.99999998
0.99999997
0.99999996
0.99999995
0.99999993
0.9999999
0.99999986
0.99999981
0.99999974
0.99999965
0.99999953
0.99999937
0.99999916
0.99999887
0.99999849
0.999998
0.99999734
0.99999649
0.99999537
0.99999392
0.99999204
0.99998962
0.9999865
0.9999825
0.99997739
0.9999709
0.99996266
0.99995226
0.99993918
0.99992279
0.99990233
0.9998769
0.99984542
0.99980661
0.99975895
0.99970068
0.99962974
0.99954376
0.99943999
0.9993153
0.99916615
0.99898856
0.99877805
0.99852967
0.99823797
0.997897
0.9975003
0.99704093
0.99651151
0.99590426
0.99521102
0.99442338
0.99353269
0.9925302
0.99140714
0.99015481
0.98876473
0.9872287
0.98553893
0.98368817
0.98166976
0.97947773
0.97710692
0.97455296
0.97181238
0.96888263
0.96576206
0.96244996
0.95894654
0.95525286
0.95137085
0.94730322
0.94305342
0.93862558
0.93402441
0.92925516
0.92432357
0.91923573
0.91399807
0.90861727
0.9031002
0.89745386
0.89168532
0.8858017
0.87981006
0.87371745
0.8675308
0.86125692
0.85490249
0.84847401
0.84197779
0.83541996
0.82880644
0.82214292
0.81543488
0.80868758
0.80190605
0.7950951
0.78825933
0.7814031
0.77453057
0.7676457
0.76075224
0.75385375
0.74695358
0.74005492
0.73316077
0.72627397
0.7193972
0.71253295
0.70568359
0.69885134
0.69203827
0.68524629
0.67847726
0.67173268
0.66501445
0.65832314
0.6516617
0.64502819
0.63842796
0.63185732
0.62532111
0.61881906
0.61234755
0.60591079
0.59950428
0.59312715
0.58677625
0.58045374
0.57414476
0.5679354
0.56173038
0.55567586
0.54975382
0.54389315
0.53784192
0.53204238
0.52624439
0.52039538
0.5147152
0.50885952
0.50341227
0.49765597
0.49220798
0.48659245
0.48109
0.47564943
0.470168
0.46478838
0.45943804
0.45411963
0.44885067
0.44364361
0.4384931
0.43339905
0.42839753
0.42348832
0.41868472
0.41397933
0.40938049
0.40487799
0.4004934
0.39622195
0.39208631
0.38809196
0.3842387
0.38049938
0.37686102
0.37330652
0.36984774
0.36647357
0.36321807
0.36007251
0.35701313
0.35406584
0.35110903
0.34842267
0.34546699
0.3426138
0.34005408
0.33651942
0.33361654
0.33050022
0.32750755
0.32393689
0.32105864
0.31835067
0.31592692
0.31387365
0.31209556
0.31058205
0.30931024
0.30826248
0.30741273
0.30671595
0.30611754
0.30557818
0.30508521
0.30465116
0.30428336
0.30397457
0.30372756
0.30353902
0.30342825
0.30339951
0.30340441
0.30342531
0.30344832
0.30351444
0.30358869
0.30369119
0.30379115
0.30387748
0.30394902
0.30401139
0.30405708
0.30409545
0.30413244
0.30416154
0.30419958
0.30424607
0.30427114
0.30429122
0.30430072
0.30429608
0.30430162
0.30432803
0.30434327
0.30436008
0.30436907
0.30437982
0.30438457
0.30438823
0.30438486
0.30438895
0.30439096
0.30437668
0.30436549
0.30432513
0.30425013
0.30417681
0.30411219
0.30405827
0.30401946
0.30398565
0.30395579
0.30392995
0.30390687
0.30388976
0.30388023
0.30387768
0.30387587
0.30387333
0.30387035
0.30386756
0.30386608
0.30386426
0.3038615
0.30385936
0.30385634
0.30385332
0.3038518
0.30385298
0.30385365
0.30385598
0.30385866
0.30386256
0.3038656
0.30386517
0.3038623
0.30385918
0.30385735
0.30385642
0.30385205
0.30384539
0.30383844
0.30382393
0.30381314
0.30380921
0.30381155
0.30381522
0.30382342
0.30383003
0.30383296
0.30383737
0.3038456
0.30385182
0.30385706
0.30386124
0.30386401
0.30386568
0.30386739
0.30386626
0.30386615
0.30386623
0.30386685
0.30386829
0.3038684
0.30387021
0.30387089
0.30387062
0.30386926
0.30386678
0.30386326
0.30385745
0.30385155
0.30384298
0.3038366
0.30383186
0.30382742
0.30382537
0.30382395
0.3038227
0.30382017
0.3038141
0.30380569
0.30379507
0.30378348
0.30377253
0.30376607
0.3037604
0.30375596
0.30375099
0.30374801
0.30374077
0.30373549
0.30372852
0.30372331
0.30371913
0.30371378
0.30370875
0.30370367
0.30369773
0.30368975
0.30368306
0.30366907
0.30365778
0.30365128
0.30365532
0.3036688
0.30367771
0.30367446
0.30367557
0.3036281
0.30355116
0.30345996
0.30336618
0.30319046
0.30295883
0.30265312
0.3021144
0.30135821
0.30047803
0.299137
0.29770161
0.29563964
0.29261905
0.28962092
0.28459681
0.27889119
0.27107724
0.26181959
0.25041321
0.23634537
0.22016044
0.20167506
0.18204798
0.16221483
0.14404024
0.12904256
0.11794755
0.11052695
0.10595096
0.10328656
0.10179059
0.1009683
0.10052156
0.10028037
0.10015056
0.10008081
0.10004336
0.10002327
0.10001248
0.1000067
0.10000359
0.10000193
0.10000103
0.10000055
0.1000003
0.10000016
0.10000009
0.10000005
0.10000002
0.10000001
0.10000001
0.1
0.1
0.1
0.1
0.1
0.1
0.1
0.1
0.1
0.1
0.1
0.1
0.1
0.1
0.1
0.1
0.1
0.1
0.1
0.1
0.1
0.1
0.1
0.1
0.1
0.1
0.1
0.1
0.1
0.1
0.1
0.1
0.1
0.1
0.1
0.1
0.1
0.1
0.1
0.1
0.1
0.1
0.1
0.1
0.1
0.1
0.1
0.1
0.1
0.1
0.1
0.1
0.1
0.1
0.1
0.1
0.1
0.1
0.1
0.1
0.1
0.1
0.1
0.1
0.1
0.1
0.1
0.1
0.1
0.1
0.1
0.1
0.1
0.1
0.1
0.1
0.1
0.1
0.1
0.1
0.1
0.1
0.1
0.1
0.1
0.1
0.1
0.1
0.1
0.1
0.1
0.1
0.1
0.1
0.1
0.1
0.1
0.1
0.1
0.1
0.1
0.1
0.1
0.1
0.1
0.1
0.1
0.1
0.1
0.1
0.1
0.1
0.1
0.1
0.1
0.1
0.1
0.1
0.1
0.1
0.1
0.1
0.1
0.1
0.1
0.1
0.1
0.1
0.1
0.1
0.1
0.1
0.1
0.1
0.1
0.1
0.1
0.1
0.1
0.1
0.1
0.1
0.1
0.1
0.1
0.1
0.1
0.1
0.1
0.1
0.1
0.1
0.1
0.1
0.1
0.1
0.1
0.1
0.1
0.1
0.1
0.1
0.1
0.1
0.1
0.1
0.1
0.1
0.1
0.1
0.1
0.1
0.1
0.1
0.1
0.1
0.1
0.1
0.1
0.1
0.1
0.1
0.1
0.1
0.1
0.1
0.1
0.1
0.1
0.1
0.1
0.1
0.1
0.1
0.1
0.1
0.1
0.1
0.1
0.1
0.1
0.1
0.1
0.1
0.1
0.1
0.1
0.1
0.1
0.1
0.1
0.1
0.1
0.1
0.1
0.1
0.1
0.1
0.1
0.1
0.1
0.1
0.1
0.1
0.1
0.1
0.1
0.1
0.1
0.1
0.1
0.1
0.1
0.1
0.1
0.1
0.1
0.1
0.1
0.1
0.1
0.1
0.1
0.1
0.1
0.1
0.1
0.1
0.1
0.1
0.1
0.1
0.1
0.1
0.1
0.1
0.1
0.1
0.1
0.1
0.1
0.1
0.1
0.1
0.1
0.1
0.1
0.1
0.1
0.1
0.1
0.1
0.1
0.1
0.1
0.1
0.1
0.1
0.1
0.1
0.1
0.1
0.1
0.1
0.1
0.1
0.1
0.1
0.1
0.1
0.1
0.1
0.1
0.1
0.1
0.1
)
;

boundaryField
{
    sides
    {
        type            zeroGradient;
    }
    emptywalls
    {
        type            empty;
    }
}


// ************************************************************************* //
