/*--------------------------------*- C++ -*----------------------------------*\
| =========                 |                                                 |
| \\      /  F ield         | OpenFOAM: The Open Source CFD Toolbox           |
|  \\    /   O peration     | Version:  2112                                  |
|   \\  /    A nd           | Website:  www.openfoam.com                      |
|    \\/     M anipulation  |                                                 |
\*---------------------------------------------------------------------------*/
FoamFile
{
    version     2.0;
    format      ascii;
    arch        "LSB;label=32;scalar=64";
    class       surfaceScalarField;
    location    "0.1";
    object      phi;
}
// * * * * * * * * * * * * * * * * * * * * * * * * * * * * * * * * * * * * * //

dimensions      [1 0 -1 0 0 0 0];

oriented        oriented;

internalField   nonuniform List<scalar> 
999
(
2.4655833e-11
1.5717427e-11
6.9821926e-12
1.643885e-11
7.2442052e-12
-2.6905145e-12
-1.8173685e-11
-1.6024293e-11
1.2026824e-11
1.8340884e-12
2.9192204e-12
1.8045343e-11
2.6198599e-11
9.3447472e-12
-3.2884806e-13
-7.2903905e-12
8.3448803e-12
7.0332629e-12
1.8765212e-11
1.1844303e-11
-5.5242477e-12
-2.3467339e-11
-2.0565216e-11
-3.4716674e-11
-2.114986e-11
1.2896351e-12
-1.1901147e-11
7.0210504e-13
-2.698286e-12
-1.4477308e-12
3.9982462e-12
2.4102387e-11
1.2878809e-11
9.7848396e-12
2.9156788e-11
4.7765569e-11
4.1609161e-11
4.667311e-11
5.1074478e-11
5.1311511e-11
6.3351768e-11
6.2715277e-11
5.6126881e-11
6.2405081e-11
8.1873508e-11
5.5470073e-11
6.5485395e-11
5.3383409e-11
6.8686057e-11
4.6549209e-11
5.8440919e-11
5.7484573e-11
4.9386495e-11
3.7835513e-11
4.0207615e-11
4.5244142e-11
1.1074475e-11
1.1945334e-11
-8.2127638e-12
-4.549805e-12
1.7135626e-11
-1.7955859e-11
-5.2475801e-12
-3.1545877e-12
1.2109425e-11
7.1664896e-12
1.6310508e-11
3.3968828e-11
2.3747893e-11
1.9835467e-11
2.6703972e-11
3.1683767e-11
3.0069724e-11
1.5653479e-11
1.7587043e-11
2.7039038e-11
8.5338403e-12
1.4146684e-11
2.3670843e-11
5.3438365e-12
1.6044499e-11
2.4140356e-11
2.1231905e-11
2.7948532e-11
1.5376145e-11
3.1574743e-11
2.547107e-11
2.4776403e-11
3.1871616e-11
5.4845017e-12
-1.0933698e-11
2.5905944e-12
6.9346751e-12
2.9629632e-12
9.7211128e-13
3.9990233e-13
-2.2171154e-13
-2.5701663e-12
-3.8391512e-12
-3.1274983e-13
-1.8676283e-11
-1.4164225e-11
-7.2066797e-12
-1.6852519e-11
-6.0653704e-12
-1.1191048e-11
-1.5684676e-11
-1.7898127e-11
-1.6584289e-11
-3.4120373e-11
-4.0272674e-11
-2.6425861e-11
-1.5979773e-11
-1.5741741e-11
-1.5235702e-11
-2.0315971e-11
-1.7005175e-11
-2.2514768e-11
-1.0357493e-11
-1.2183143e-11
-7.4940054e-12
-3.3706149e-11
-3.0499603e-11
-5.5921712e-11
-5.3844817e-11
-4.2769455e-11
-1.6313173e-11
1.8690605e-12
-1.3396728e-11
6.6062711e-12
6.6762151e-12
6.9987349e-12
-1.8751667e-13
-1.0731416e-12
1.6351365e-12
4.7618576e-12
6.9984019e-12
7.0025097e-12
1.114997e-12
-2.006062e-12
4.3318682e-12
3.1920022e-12
2.3531732e-11
-2.4478197e-12
3.1419312e-12
2.2131186e-12
1.7097435e-12
1.2273516e-11
4.2141846e-12
9.0638608e-13
2.4271696e-12
1.2025048e-11
5.5737637e-12
1.0244361e-11
2.3760771e-11
2.1011526e-11
1.3719692e-11
1.9170887e-11
1.4432122e-11
1.1683543e-11
6.1473049e-12
2.5328739e-11
2.8797631e-11
1.6476265e-11
1.4948154e-11
1.9603985e-11
-1.1812773e-13
8.7856389e-12
-5.6886718e-12
-4.8128168e-13
2.3212987e-11
1.830458e-11
2.7659097e-11
2.1307622e-11
1.6425861e-11
9.2184038e-12
1.0067502e-11
1.4085622e-11
2.6300073e-11
3.5191183e-11
1.7821522e-11
9.3731689e-12
9.5061736e-12
1.0762724e-11
5.9672267e-12
-9.8093755e-12
3.833156e-12
4.9721338e-12
7.7863271e-12
-1.2908008e-11
4.1424641e-12
1.8771429e-11
2.0803581e-11
1.4469537e-11
2.0585866e-11
1.7058577e-11
8.4240392e-12
1.1665113e-12
1.5923041e-11
2.4150015e-11
4.1660009e-12
1.5868973e-11
1.8686719e-11
2.7572611e-11
2.5597302e-11
2.7903235e-11
3.1190495e-11
2.9726444e-11
3.3631431e-11
6.8585138e-12
2.6436409e-11
3.0308756e-11
3.0496716e-11
4.2639337e-11
5.0245141e-11
5.2331028e-11
6.3471561e-11
5.4876215e-11
2.9932168e-11
4.4511173e-11
2.2150837e-11
2.2332913e-11
-4.4636517e-12
2.5587199e-11
3.2088221e-11
1.2742474e-11
2.4934166e-11
1.2257084e-11
-1.16267e-11
-6.9770856e-12
3.7463366e-12
-1.0157208e-11
-8.5648155e-12
1.1571633e-11
-1.0971335e-11
1.5491164e-11
4.8446802e-12
1.0212275e-11
1.0840218e-11
1.0063284e-11
-9.8410169e-13
-4.6488369e-12
-1.1396217e-11
-3.2587932e-11
-2.3062552e-11
-2.5743407e-11
-3.638001e-11
-4.4659609e-11
-1.8697044e-11
-3.2357672e-11
-4.4802828e-11
-4.3605564e-11
-2.3729463e-11
-3.8967829e-11
-2.4566238e-11
-2.403866e-11
-2.4419133e-11
-6.2536643e-12
-9.9151798e-12
-9.4987351e-12
6.8400841e-13
-2.6016966e-11
-1.0785817e-11
-3.9640513e-11
-2.6966318e-11
-2.3403279e-11
-1.1844525e-11
-1.6485813e-11
-2.3561486e-11
-3.7401748e-11
-2.2600921e-11
-2.8202551e-11
-2.4648616e-11
-3.9372505e-11
-4.2591819e-11
-4.3442361e-11
-3.9691805e-11
-1.6020629e-11
-2.2400526e-11
-1.5119905e-11
-2.1613378e-11
-1.2118639e-11
-2.2986169e-11
-2.3121949e-11
-3.6550096e-11
-3.1993963e-11
-1.685263e-11
-2.8210545e-11
1.2418955e-12
9.1624486e-12
6.6647798e-12
3.5374814e-11
5.6035954e-11
8.0986329e-11
1.2938128e-10
2.0884372e-10
3.0874692e-10
4.649201e-10
6.6701233e-10
9.5064556e-10
1.3654249e-09
1.9398826e-09
2.7477178e-09
3.8608007e-09
5.4327149e-09
7.5595392e-09
1.0558853e-08
1.4676192e-08
2.0348473e-08
2.8158562e-08
3.8845159e-08
5.3423395e-08
7.3238266e-08
1.0019734e-07
1.3658557e-07
1.8573606e-07
2.5186488e-07
3.4051013e-07
4.590351e-07
6.1697054e-07
8.2674627e-07
1.1045096e-06
1.4710905e-06
1.953286e-06
2.5855007e-06
3.411588e-06
4.4873039e-06
5.8832642e-06
7.6885022e-06
1.0014725e-05
1.300155e-05
1.6822736e-05
2.1693318e-05
2.7878411e-05
3.5703119e-05
4.5564291e-05
5.7943836e-05
7.3423927e-05
9.2704136e-05
0.00011662063
0.00014616711
0.00018251793
0.00022705266
0.00028138222
0.00034737597
0.00042718932
0.00052329104
0.00063848979
0.0007759584
0.00093925541
0.0011323421
0.0013595944
0.0016258073
0.0019361926
0.0022963662
0.0027123261
0.0031904202
0.0037373017
0.0043598746
0.0050652282
0.0058605617
0.0067531005
0.0077500062
0.0088582811
0.010084671
0.01143557
0.012916924
0.014534144
0.016292025
0.018194677
0.020245466
0.022446968
0.024800938
0.027308293
0.029969112
0.03278264
0.035747318
0.038860817
0.042120077
0.045521366
0.049060336
0.052732087
0.056531231
0.060451965
0.064488133
0.068633297
0.072880797
0.077223815
0.081655432
0.086168677
0.090756581
0.095412211
0.10012872
0.10489936
0.10971753
0.11457681
0.11947093
0.12439385
0.12933973
0.13430294
0.1392781
0.14426005
0.14924387
0.15422486
0.15919857
0.16416077
0.16910746
0.17403484
0.17893936
0.18381764
0.18866654
0.19348307
0.19826446
0.2030081
0.20771157
0.21237261
0.2169891
0.22155909
0.22608077
0.23055248
0.23497266
0.23933995
0.24365292
0.24791082
0.25211154
0.2562567
0.26033981
0.26437162
0.26833115
0.2722493
0.27608168
0.27988319
0.28358977
0.28727776
0.29085588
0.29443902
0.29788243
0.30138226
0.30463165
0.30814652
0.31112409
0.31433465
0.31733741
0.32037413
0.32318853
0.32604651
0.32890832
0.3316045
0.33436422
0.33674376
0.33947541
0.341894
0.34439266
0.34674316
0.34907373
0.35126681
0.35346721
0.35563786
0.35771983
0.35972521
0.36170098
0.36359625
0.36543977
0.36720526
0.36890952
0.37052259
0.37207436
0.37355024
0.37497
0.37630683
0.37758818
0.37878416
0.37993048
0.38097448
0.3819762
0.38288533
0.38376102
0.38454611
0.38528632
0.38596727
0.38658179
0.38720177
0.38770586
0.38828063
0.3887041
0.38917245
0.38983914
0.38996629
0.39091551
0.39112945
0.39142988
0.39190513
0.39251189
0.39275496
0.3930283
0.39336456
0.39359535
0.39377875
0.39392248
0.39403836
0.39413789
0.39422339
0.39428855
0.3943317
0.39434758
0.39434206
0.39433216
0.39431599
0.39430469
0.39428324
0.39425716
0.39423556
0.39421713
0.39420005
0.39418348
0.39417836
0.39414038
0.39414399
0.39413605
0.39412574
0.3940927
0.39406707
0.39403733
0.39402427
0.39401101
0.39399212
0.39397909
0.39395085
0.39391746
0.39389096
0.39386403
0.39382962
0.39381563
0.3937926
0.393763
0.39373238
0.39370842
0.39368182
0.39364923
0.39361742
0.39358071
0.39355447
0.39352043
0.39348473
0.39345188
0.39341214
0.39338359
0.39335388
0.39331695
0.39327759
0.39323673
0.3931955
0.39315623
0.39311376
0.39306644
0.39301699
0.39296429
0.39290726
0.39284924
0.39278001
0.392703
0.39261273
0.39250459
0.3923815
0.39223069
0.39205375
0.39183135
0.39155844
0.39121491
0.39078243
0.39023542
0.38954376
0.38868156
0.38761028
0.3862991
0.38470445
0.38279409
0.3805262
0.37787488
0.37480618
0.3713084
0.36736908
0.36299432
0.35819705
0.35300955
0.34747519
0.34164962
0.33559774
0.32939138
0.32310713
0.3168244
0.31061339
0.3045553
0.29870219
0.29312626
0.28785442
0.28293857
0.27838392
0.27422594
0.27045135
0.26706492
0.26405335
0.26138993
0.25907543
0.25705385
0.25533388
0.25385328
0.25261129
0.25156702
0.25069709
0.24998136
0.24939586
0.24892063
0.24853587
0.24822878
0.24798462
0.24779374
0.24764476
0.24753161
0.2474427
0.24737518
0.24732516
0.24728736
0.24726075
0.24724121
0.24722645
0.2472151
0.24720578
0.24719811
0.24719144
0.24718578
0.24717893
0.24717595
0.24717104
0.24716782
0.24716505
0.24715836
0.2471528
0.24714616
0.2471399
0.24713523
0.24713537
0.24713321
0.24713225
0.24713234
0.24713593
0.24713271
0.24712501
0.24711294
0.24709541
0.24708038
0.2470391
0.246975
0.24688019
0.24675242
0.24647671
0.2461776
0.24560664
0.24498578
0.2440805
0.24301597
0.24132185
0.23953238
0.23657778
0.23380441
0.22902527
0.22383569
0.21696908
0.20768687
0.1969688
0.18276834
0.16669304
0.14736146
0.12576919
0.10236665
0.078623494
0.056478522
0.037747618
0.023551277
0.013883808
0.0078609607
0.0043397129
0.002361622
0.0012754742
0.00068627997
0.00036860992
0.00019783264
0.00010614387
5.694371e-05
3.0548183e-05
1.6387968e-05
8.7915776e-06
4.7163794e-06
2.5301633e-06
1.3573271e-06
7.2814025e-07
3.9060408e-07
2.0953331e-07
1.1239937e-07
6.0295399e-08
3.2347172e-08
1.7351398e-08
9.3078582e-09
4.9905567e-09
2.6783975e-09
1.4358993e-09
7.6463721e-10
4.0978916e-10
2.1942895e-10
1.1665108e-10
6.1175662e-11
2.9564282e-11
1.6958296e-11
5.0934673e-12
1.6287111e-12
-1.448619e-12
-4.9926868e-12
-3.7681247e-12
-3.3046066e-12
-4.043807e-12
-3.040776e-12
-4.287723e-12
-2.0408397e-12
-3.272646e-12
-3.2357866e-12
-2.2556124e-12
-3.020223e-12
1.7380541e-13
2.8641811e-12
3.592307e-12
4.7452181e-12
3.7371495e-12
-4.5412285e-13
-1.1795565e-12
-5.3602539e-12
-2.9912739e-12
-4.5171228e-12
-1.9529794e-12
-1.5357993e-12
-3.6384507e-12
-3.0276337e-12
-5.9390826e-12
1.9771546e-12
-3.2722852e-12
-1.5236978e-12
-3.5798864e-12
-2.0347335e-12
8.3578977e-13
-5.2065297e-13
3.053946e-12
3.2059772e-12
3.3619635e-12
2.7160357e-12
1.2413681e-12
3.1493835e-12
3.0222769e-12
-5.40748e-13
8.2478468e-13
-1.4062224e-12
-1.177114e-12
-4.3517273e-12
-4.6635612e-12
-6.1799593e-12
-7.0715517e-12
-4.4406562e-12
-4.5226878e-12
-3.7818221e-12
-9.508172e-12
-7.3001327e-12
-6.5062816e-12
-5.8476557e-12
-6.3427597e-12
-6.2338745e-12
-1.4374057e-12
-3.8857251e-12
-3.2290143e-12
-3.7507081e-12
-1.1449869e-12
-3.2787384e-12
-3.4196812e-12
-3.6397829e-12
-2.921649e-12
-6.2870126e-12
-7.5838363e-12
-8.1986223e-12
-1.0684092e-11
-8.7128221e-12
-1.0787926e-11
-5.7166771e-12
-4.3402226e-12
-5.0155297e-12
-3.4807573e-12
-2.8552855e-12
-3.6475961e-12
-2.6835062e-12
-4.3108572e-13
-2.6218611e-12
-1.6777274e-12
-2.1772029e-12
-4.4087511e-12
-1.7516821e-12
-8.4307561e-13
1.8519769e-12
6.0503685e-12
5.0167925e-12
1.8771235e-12
2.8990699e-14
-7.9429519e-13
-3.7871511e-12
-2.5170421e-12
-3.5410563e-13
4.6479487e-13
1.7095769e-12
-2.1072033e-13
4.3169496e-12
4.5786847e-12
4.0724368e-12
5.9073718e-12
4.0045189e-12
3.8286596e-12
5.2689519e-12
3.2871483e-12
9.6536668e-13
1.5359797e-12
3.4921788e-12
3.2043118e-12
3.9627746e-12
4.6378179e-13
1.8305496e-12
4.6391502e-12
5.8933414e-12
7.3343692e-12
2.0901059e-12
3.9901138e-12
2.338546e-13
-1.7104373e-12
-2.2395835e-12
-1.3926638e-12
-5.3974603e-12
-4.4672321e-12
-4.1477655e-12
-1.1118745e-12
-1.2369272e-13
-8.7567453e-13
-3.0889041e-12
-1.6525115e-12
1.272954e-12
1.6888296e-12
1.7051638e-12
5.7173016e-12
4.5279058e-12
5.5670468e-12
5.7683441e-12
7.0803224e-12
3.1661063e-12
2.4804742e-12
1.1996237e-12
-1.3380963e-13
1.3415935e-12
2.6636471e-12
4.1561199e-13
3.0530162e-12
4.0600717e-12
-2.2476465e-13
4.8416271e-12
1.3698487e-12
1.1940449e-13
5.7683025e-13
-7.718548e-13
1.8166996e-12
-1.0839107e-12
-1.524475e-12
-1.8413604e-12
-3.3564124e-12
-5.1716686e-12
-4.1719267e-12
-6.92639e-12
-3.0340314e-12
-2.397943e-12
-2.3755997e-13
-1.6484314e-12
-1.9600571e-12
-1.0683121e-12
-2.9333758e-12
-4.7327975e-12
-4.6714299e-12
-3.8093695e-12
-1.4375445e-12
-1.9162311e-12
1.7393587e-12
3.2386177e-12
5.0140447e-13
-1.3120616e-12
-9.3784702e-13
1.6321666e-12
3.4857117e-12
1.8046675e-12
-2.0095037e-14
6.1294025e-13
4.8970689e-12
4.8090976e-12
2.1175423e-12
1.4105384e-13
1.6478208e-12
-6.8726969e-13
1.0302176e-12
1.9812069e-12
2.5041497e-12
4.7628707e-12
4.849024e-12
5.9986738e-12
4.7877813e-12
5.2554905e-12
6.8220013e-12
6.1575189e-12
6.7950506e-12
4.4265841e-12
4.3778869e-12
2.2812585e-12
-5.0658089e-13
2.9822117e-12
5.2095828e-13
4.1525117e-13
-1.9417939e-12
1.5886736e-12
5.0843774e-12
1.7581214e-12
2.9049541e-12
4.9989041e-12
3.4577896e-12
1.8329921e-12
2.0597274e-12
-1.2655016e-12
-5.0726784e-12
7.0568551e-13
-1.2112533e-12
-7.2272743e-13
1.3797852e-12
9.8260289e-13
1.9072938e-12
6.7729156e-13
5.4516114e-13
-2.1503355e-12
-1.2997659e-12
-8.8058727e-13
-4.4185766e-12
-2.2115643e-12
2.2159358e-12
-2.2399166e-12
-2.9100333e-13
-2.4344277e-12
-2.4519414e-12
-2.1843638e-13
-1.0425411e-12
2.120526e-14
2.7746277e-12
-6.9425021e-13
-4.3538784e-13
-1.2314594e-12
-3.6613768e-13
-1.161321e-12
2.753478e-12
2.4785174e-12
4.8602788e-12
-5.4965754e-13
1.093528e-12
1.8245544e-12
1.1325108e-12
4.844139e-12
1.845718e-12
4.337114e-12
2.6409708e-12
3.1568498e-12
4.4796111e-13
-7.6481876e-13
-1.4145907e-12
-2.5286717e-13
1.729672e-12
4.8439447e-12
4.062195e-12
1.7005841e-13
2.922898e-12
3.182829e-12
7.317924e-12
7.9428686e-12
5.4840854e-12
7.4800305e-12
1.3246765e-12
7.3467621e-13
-1.8648555e-12
8.3413831e-13
3.3465453e-12
2.1100205e-12
4.454298e-12
4.0133175e-12
5.438594e-12
6.2850558e-12
6.8537398e-12
4.0947662e-12
)
;

boundaryField
{
    sides
    {
        type            calculated;
        value           nonuniform List<scalar> 2(4.3650431e-21 2.4706719e-21);
    }
    emptywalls
    {
        type            empty;
        value           nonuniform List<scalar> 0();
    }
}


// ************************************************************************* //
