/*--------------------------------*- C++ -*----------------------------------*\
| =========                 |                                                 |
| \\      /  F ield         | OpenFOAM: The Open Source CFD Toolbox           |
|  \\    /   O peration     | Version:  2112                                  |
|   \\  /    A nd           | Website:  www.openfoam.com                      |
|    \\/     M anipulation  |                                                 |
\*---------------------------------------------------------------------------*/
FoamFile
{
    version     2.0;
    format      ascii;
    arch        "LSB;label=32;scalar=64";
    class       volScalarField;
    location    "0.1";
    object      T;
}
// * * * * * * * * * * * * * * * * * * * * * * * * * * * * * * * * * * * * * //

dimensions      [0 0 0 1 0 0 0];

internalField   nonuniform List<scalar> 
1000
(
0.00348
0.00348
0.00348
0.00348
0.00348
0.00348
0.00348
0.00348
0.00348
0.00348
0.00348
0.00348
0.00348
0.00348
0.00348
0.00348
0.00348
0.00348
0.00348
0.00348
0.00348
0.00348
0.00348
0.00348
0.00348
0.00348
0.00348
0.00348
0.00348
0.00348
0.00348
0.00348
0.00348
0.00348
0.00348
0.00348
0.00348
0.00348
0.00348
0.00348
0.00348
0.00348
0.00348
0.00348
0.00348
0.00348
0.00348
0.00348
0.00348
0.00348
0.00348
0.00348
0.00348
0.00348
0.00348
0.00348
0.00348
0.00348
0.00348
0.00348
0.00348
0.00348
0.00348
0.00348
0.00348
0.00348
0.00348
0.00348
0.00348
0.00348
0.00348
0.00348
0.00348
0.00348
0.00348
0.00348
0.00348
0.00348
0.00348
0.00348
0.00348
0.00348
0.00348
0.00348
0.00348
0.00348
0.00348
0.00348
0.00348
0.00348
0.00348
0.00348
0.00348
0.00348
0.00348
0.00348
0.00348
0.00348
0.00348
0.00348
0.00348
0.00348
0.00348
0.00348
0.00348
0.00348
0.00348
0.00348
0.00348
0.00348
0.00348
0.00348
0.00348
0.00348
0.00348
0.00348
0.00348
0.00348
0.00348
0.00348
0.00348
0.00348
0.00348
0.00348
0.00348
0.00348
0.00348
0.00348
0.00348
0.00348
0.00348
0.00348
0.00348
0.00348
0.00348
0.00348
0.00348
0.00348
0.00348
0.00348
0.00348
0.00348
0.00348
0.00348
0.00348
0.00348
0.00348
0.00348
0.00348
0.00348
0.00348
0.00348
0.00348
0.00348
0.00348
0.00348
0.00348
0.00348
0.00348
0.00348
0.00348
0.00348
0.00348
0.00348
0.00348
0.00348
0.00348
0.00348
0.00348
0.00348
0.00348
0.00348
0.00348
0.00348
0.00348
0.00348
0.00348
0.00348
0.00348
0.00348
0.00348
0.00348
0.00348
0.00348
0.00348
0.00348
0.00348
0.00348
0.00348
0.00348
0.00348
0.00348
0.00348
0.00348
0.00348
0.00348
0.00348
0.00348
0.00348
0.00348
0.00348
0.00348
0.00348
0.00348
0.00348
0.00348
0.00348
0.00348
0.00348
0.00348
0.00348
0.00348
0.00348
0.00348
0.00348
0.00348
0.00348
0.00348
0.00348
0.00348
0.00348
0.00348
0.00348
0.00348
0.00348
0.00348
0.00348
0.00348
0.00348
0.00348
0.00348
0.00348
0.00348
0.00348
0.00348
0.00348
0.00348
0.00348
0.00348
0.00348
0.00348
0.00348
0.00348
0.00348
0.00348
0.00348
0.00348
0.00348
0.00348
0.00348
0.00348
0.00348
0.00348
0.00348
0.00348
0.00348
0.00348
0.00348
0.00348
0.00348
0.00348
0.00348
0.00348
0.00348
0.00348
0.00348
0.00348
0.00348
0.00348
0.00348
0.00348
0.00348
0.00348
0.00348
0.00348
0.00348
0.00348
0.00348
0.00348
0.00348
0.00348
0.00348
0.00348
0.00348
0.00348
0.00348
0.00348
0.00348
0.00348
0.00348
0.00348
0.00348
0.00348
0.00348
0.00348
0.00348
0.00348
0.00348
0.00348
0.00348
0.00348
0.00348
0.00348
0.00348
0.00348
0.00348
0.00348
0.00348
0.00348
0.00348
0.00348
0.0034799999
0.0034799999
0.0034799999
0.0034799999
0.0034799998
0.0034799997
0.0034799997
0.0034799995
0.0034799994
0.0034799992
0.0034799989
0.0034799985
0.003479998
0.0034799974
0.0034799965
0.0034799954
0.003479994
0.0034799921
0.0034799897
0.0034799866
0.0034799827
0.0034799776
0.0034799711
0.003479963
0.0034799526
0.0034799396
0.0034799234
0.003479903
0.0034798778
0.0034798465
0.0034798079
0.0034797605
0.0034797025
0.003479632
0.0034795464
0.0034794431
0.003479319
0.0034791705
0.0034789936
0.0034787839
0.0034785364
0.0034782457
0.0034779057
0.0034775101
0.0034770518
0.0034765234
0.003475917
0.0034752245
0.0034744372
0.0034735464
0.0034725432
0.0034714185
0.0034701633
0.0034687689
0.0034672265
0.003465528
0.0034636654
0.0034616315
0.0034594196
0.0034570237
0.0034544384
0.0034516592
0.0034486825
0.0034455054
0.0034421258
0.0034385426
0.0034347553
0.0034307643
0.0034265707
0.0034221763
0.0034175836
0.0034127954
0.0034078153
0.0034026473
0.0033972957
0.0033917651
0.0033860606
0.0033801874
0.0033741507
0.003367956
0.0033616089
0.003355115
0.0033484799
0.003341709
0.0033348081
0.0033277824
0.0033206373
0.0033133781
0.0033060098
0.0032985375
0.0032909658
0.0032832995
0.0032755432
0.003267701
0.0032597773
0.0032517761
0.0032437012
0.0032355563
0.003227345
0.0032190708
0.0032107368
0.0032023462
0.003193902
0.003185407
0.0031768639
0.0031682752
0.0031596436
0.0031509712
0.0031422603
0.003133513
0.0031247314
0.0031159165
0.0031070734
0.0030981939
0.0030893054
0.003080345
0.0030714619
0.0030623438
0.0030535942
0.0030441672
0.0030357109
0.0030258436
0.0030178211
0.0030073184
0.0029999901
0.0029884433
0.0029823747
0.0029687195
0.0029659464
0.0029478864
0.0029492726
0.0029295176
0.0029300841
0.0029110801
0.0029126025
0.0028936032
0.0028932674
0.0028755279
0.0028746712
0.0028578219
0.0028573435
0.0028389431
0.0028389428
0.0028205027
0.0028205001
0.0028022564
0.0028026413
0.002783367
0.0027844657
0.0027647765
0.0027662346
0.0027461915
0.0027481654
0.0027278929
0.0027303081
0.00270992
0.0027131121
0.0026923294
0.0026963506
0.0026753337
0.0026801267
0.0026591543
0.0026644618
0.0026440169
0.0026494936
0.0026295342
0.0026349113
0.0026160067
0.0026204986
0.0026030235
0.0026069368
0.0025920659
0.0025923338
0.0025815851
0.0025751964
0.0025748981
0.0025581402
0.0025683448
0.0025426879
0.0025519357
0.0025292023
0.0025427065
0.0025209477
0.0025204465
0.0025122814
0.002507419
0.0025029241
0.0024987825
0.002495326
0.002492334
0.0024899119
0.0024879014
0.0024863641
0.0024849487
0.002483829
0.0024827234
0.0024818389
0.0024811209
0.002480414
0.0024800068
0.0024795561
0.002479394
0.0024794476
0.002479509
0.0024796664
0.0024798163
0.0024800229
0.0024803285
0.0024802775
0.0024807842
0.002481122
0.0024813925
0.0024817631
0.0024817971
0.002482119
0.0024821429
0.0024825056
0.0024824061
0.0024829717
0.0024829047
0.0024833367
0.002483376
0.0024836627
0.0024835863
0.0024841234
0.0024841219
0.0024845132
0.0024845017
0.0024848659
0.0024849566
0.0024852744
0.0024855264
0.0024855418
0.0024860541
0.0024860001
0.0024865677
0.0024864326
0.0024869526
0.0024865762
0.002486895
0.0024868674
0.0024872475
0.0024872848
0.0024875985
0.0024878346
0.0024880258
0.0024883711
0.0024886564
0.0024890684
0.0024895085
0.0024900143
0.0024906147
0.0024913517
0.0024921533
0.002493236
0.0024943589
0.0024960225
0.0024977794
0.0025003587
0.0025032951
0.0025073013
0.0025121597
0.0025183909
0.0025260031
0.0025354733
0.0025469422
0.0025608249
0.0025773151
0.0025967993
0.0026196138
0.0026458649
0.0026760222
0.0027098957
0.0027480581
0.0027899822
0.0028361326
0.0028858227
0.0029392298
0.002995565
0.0030546872
0.0031155554
0.0031781032
0.0032408121
0.0033039966
0.003365417
0.0034262906
0.0034835064
0.0035394186
0.0035900791
0.0036390136
0.0036817737
0.0037224874
0.0037571705
0.0037892634
0.0038164099
0.0038404198
0.0038609767
0.0038781774
0.0038929502
0.0039050263
0.0039151404
0.0039232246
0.0039298945
0.0039351695
0.0039393584
0.0039426928
0.0039452177
0.0039472609
0.0039486418
0.0039498613
0.0039506022
0.003951206
0.0039515884
0.0039518125
0.0039519538
0.0039519856
0.0039520258
0.0039519514
0.0039519452
0.0039518624
0.0039517501
0.0039516215
0.0039515741
0.003951302
0.003951314
0.0039510629
0.0039510955
0.0039509083
0.0039509231
0.0039507974
0.0039507161
0.0039505532
0.0039504454
0.0039504522
0.0039502757
0.003950171
0.0039501823
0.0039501727
0.003950151
0.0039499592
0.0039498647
0.0039496289
0.0039496883
0.0039491713
0.0039492656
0.0039472561
0.0039479668
0.0039450345
0.0039457497
0.003939036
0.0039426794
0.0039315512
0.0039361826
0.0039168033
0.0039196975
0.0038868973
0.0038957819
0.0038361982
0.0038324523
0.0037676261
0.0037330051
0.0036536544
0.0035728674
0.0034662013
0.0033474752
0.0032178748
0.0030921889
0.0029856657
0.0029066981
0.0028543246
0.0028222072
0.0028034724
0.0027928802
0.002787008
0.0027837926
0.0027820456
0.0027811011
0.0027805919
0.0027803179
0.0027801707
0.0027800916
0.0027800492
0.0027800264
0.0027800142
0.0027800076
0.0027800041
0.0027800022
0.0027800012
0.0027800006
0.0027800003
0.0027800002
0.0027800001
0.0027800001
0.00278
0.00278
0.00278
0.00278
0.00278
0.00278
0.00278
0.00278
0.00278
0.00278
0.00278
0.00278
0.00278
0.00278
0.00278
0.00278
0.00278
0.00278
0.00278
0.00278
0.00278
0.00278
0.00278
0.00278
0.00278
0.00278
0.00278
0.00278
0.00278
0.00278
0.00278
0.00278
0.00278
0.00278
0.00278
0.00278
0.00278
0.00278
0.00278
0.00278
0.00278
0.00278
0.00278
0.00278
0.00278
0.00278
0.00278
0.00278
0.00278
0.00278
0.00278
0.00278
0.00278
0.00278
0.00278
0.00278
0.00278
0.00278
0.00278
0.00278
0.00278
0.00278
0.00278
0.00278
0.00278
0.00278
0.00278
0.00278
0.00278
0.00278
0.00278
0.00278
0.00278
0.00278
0.00278
0.00278
0.00278
0.00278
0.00278
0.00278
0.00278
0.00278
0.00278
0.00278
0.00278
0.00278
0.00278
0.00278
0.00278
0.00278
0.00278
0.00278
0.00278
0.00278
0.00278
0.00278
0.00278
0.00278
0.00278
0.00278
0.00278
0.00278
0.00278
0.00278
0.00278
0.00278
0.00278
0.00278
0.00278
0.00278
0.00278
0.00278
0.00278
0.00278
0.00278
0.00278
0.00278
0.00278
0.00278
0.00278
0.00278
0.00278
0.00278
0.00278
0.00278
0.00278
0.00278
0.00278
0.00278
0.00278
0.00278
0.00278
0.00278
0.00278
0.00278
0.00278
0.00278
0.00278
0.00278
0.00278
0.00278
0.00278
0.00278
0.00278
0.00278
0.00278
0.00278
0.00278
0.00278
0.00278
0.00278
0.00278
0.00278
0.00278
0.00278
0.00278
0.00278
0.00278
0.00278
0.00278
0.00278
0.00278
0.00278
0.00278
0.00278
0.00278
0.00278
0.00278
0.00278
0.00278
0.00278
0.00278
0.00278
0.00278
0.00278
0.00278
0.00278
0.00278
0.00278
0.00278
0.00278
0.00278
0.00278
0.00278
0.00278
0.00278
0.00278
0.00278
0.00278
0.00278
0.00278
0.00278
0.00278
0.00278
0.00278
0.00278
0.00278
0.00278
0.00278
0.00278
0.00278
0.00278
0.00278
0.00278
0.00278
0.00278
0.00278
0.00278
0.00278
0.00278
0.00278
0.00278
0.00278
0.00278
0.00278
0.00278
0.00278
0.00278
0.00278
0.00278
0.00278
0.00278
0.00278
0.00278
0.00278
0.00278
0.00278
0.00278
0.00278
0.00278
0.00278
0.00278
0.00278
0.00278
0.00278
0.00278
0.00278
0.00278
0.00278
0.00278
0.00278
0.00278
0.00278
0.00278
0.00278
0.00278
0.00278
0.00278
0.00278
0.00278
0.00278
0.00278
0.00278
0.00278
0.00278
0.00278
0.00278
0.00278
0.00278
0.00278
0.00278
0.00278
0.00278
0.00278
0.00278
0.00278
0.00278
0.00278
0.00278
0.00278
0.00278
0.00278
0.00278
0.00278
0.00278
0.00278
0.00278
0.00278
0.00278
0.00278
0.00278
0.00278
0.00278
0.00278
0.00278
0.00278
0.00278
0.00278
0.00278
0.00278
0.00278
0.00278
0.00278
0.00278
0.00278
0.00278
)
;

boundaryField
{
    sides
    {
        type            zeroGradient;
    }
    emptywalls
    {
        type            empty;
    }
}


// ************************************************************************* //
