/*--------------------------------*- C++ -*----------------------------------*\
| =========                 |                                                 |
| \\      /  F ield         | OpenFOAM: The Open Source CFD Toolbox           |
|  \\    /   O peration     | Version:  2112                                  |
|   \\  /    A nd           | Website:  www.openfoam.com                      |
|    \\/     M anipulation  |                                                 |
\*---------------------------------------------------------------------------*/
FoamFile
{
    version     2.0;
    format      ascii;
    arch        "LSB;label=32;scalar=64";
    class       volVectorField;
    location    "0.1";
    object      U;
}
// * * * * * * * * * * * * * * * * * * * * * * * * * * * * * * * * * * * * * //

dimensions      [0 1 -1 0 0 0 0];

internalField   nonuniform List<vector> 
1000
(
(-2.4736089e-21 0 0)
(3.557215e-11 0 0)
(1.4491517e-11 0 0)
(3.1926845e-12 0 0)
(9.8094767e-12 0 0)
(6.4086002e-12 0 0)
(-1.0635131e-11 0 0)
(-1.7253035e-11 0 0)
(-7.2617091e-13 0 0)
(-7.0434024e-12 0 0)
(9.7921366e-12 0 0)
(5.3706415e-12 0 0)
(2.0734942e-11 0 0)
(1.8722161e-11 0 0)
(1.6536423e-12 0 0)
(-2.9744887e-12 0 0)
(-6.7616262e-12 0 0)
(4.6114578e-12 0 0)
(1.6889115e-11 0 0)
(1.3241588e-11 0 0)
(-6.2568747e-12 0 0)
(-5.2398129e-12 0 0)
(-2.3631512e-11 0 0)
(-1.5845265e-11 0 0)
(-3.2267866e-11 0 0)
(-3.7653514e-12 0 0)
(-2.8384247e-11 0 0)
(5.9523119e-12 0 0)
(-4.0711368e-12 0 0)
(-3.092868e-12 0 0)
(1.645528e-12 0 0)
(1.4564101e-11 0 0)
(1.4103256e-11 0 0)
(1.1685094e-11 0 0)
(2.1664859e-11 0 0)
(3.3110082e-11 0 0)
(5.1585703e-11 0 0)
(3.3429429e-11 0 0)
(6.1477878e-11 0 0)
(2.8549978e-11 0 0)
(6.3940724e-11 0 0)
(4.2923005e-11 0 0)
(6.7488102e-11 0 0)
(4.6114911e-11 0 0)
(7.38638e-11 0 0)
(6.2954229e-11 0 0)
(5.8148252e-11 0 0)
(5.1998196e-11 0 0)
(6.2571525e-11 0 0)
(6.3686069e-11 0 0)
(6.6297973e-11 0 0)
(5.5396516e-11 0 0)
(3.8656236e-11 0 0)
(3.7013154e-11 0 0)
(2.5425876e-11 0 0)
(5.928347e-11 0 0)
(1.4655137e-11 0 0)
(1.3775906e-11 0 0)
(7.3402954e-12 0 0)
(-1.9464115e-11 0 0)
(1.3586944e-11 0 0)
(-3.222585e-12 0 0)
(-3.1207677e-12 0 0)
(-7.4854629e-12 0 0)
(1.5714993e-12 0 0)
(1.0029451e-12 0 0)
(1.8254646e-11 0 0)
(1.6622901e-11 0 0)
(2.7060288e-11 0 0)
(2.7576044e-11 0 0)
(2.2113367e-11 0 0)
(3.7476556e-11 0 0)
(2.8651462e-11 0 0)
(1.0359023e-11 0 0)
(1.8422378e-11 0 0)
(2.0315446e-11 0 0)
(1.144978e-11 0 0)
(1.2722942e-11 0 0)
(1.2541982e-11 0 0)
(1.7565045e-11 0 0)
(1.1307058e-11 0 0)
(1.0880448e-11 0 0)
(3.1376187e-11 0 0)
(1.5549373e-11 0 0)
(2.7908618e-11 0 0)
(1.3636074e-11 0 0)
(2.6978256e-11 0 0)
(2.4016439e-11 0 0)
(3.3378853e-11 0 0)
(6.3285692e-12 0 0)
(9.4646761e-12 0 0)
(-1.1684983e-11 0 0)
(8.3919261e-12 0 0)
(7.3647494e-12 0 0)
(-4.2612106e-12 0 0)
(4.1272697e-12 0 0)
(5.051073e-12 0 0)
(-6.0162256e-12 0 0)
(5.2336994e-12 0 0)
(-9.1067593e-12 0 0)
(-8.3596914e-12 0 0)
(-2.3193786e-11 0 0)
(-2.4675139e-12 0 0)
(-1.96822e-11 0 0)
(-7.0787494e-12 0 0)
(-1.5689872e-11 0 0)
(-1.3103645e-11 0 0)
(-1.2901678e-11 0 0)
(-5.1338829e-12 0 0)
(-3.0584879e-11 0 0)
(-2.4636347e-11 0 0)
(-4.084931e-11 0 0)
(-1.8863771e-11 0 0)
(-1.7808806e-11 0 0)
(-1.0670256e-11 0 0)
(-2.2720714e-11 0 0)
(-6.5158642e-12 0 0)
(-1.4889783e-11 0 0)
(-1.3300166e-11 0 0)
(-2.1428323e-11 0 0)
(-5.7082171e-12 0 0)
(-1.5145549e-11 0 0)
(-2.9703648e-11 0 0)
(-3.2818747e-11 0 0)
(-5.7270022e-11 0 0)
(-3.4523965e-11 0 0)
(-3.5275701e-11 0 0)
(-3.0865322e-12 0 0)
(-1.1147552e-11 0 0)
(-1.3170782e-11 0 0)
(2.0258313e-11 0 0)
(-8.1201539e-12 0 0)
(1.8948693e-11 0 0)
(-4.3070062e-12 0 0)
(2.0004436e-12 0 0)
(-2.087144e-12 0 0)
(1.278541e-11 0 0)
(1.4894674e-12 0 0)
(7.7514551e-12 0 0)
(-7.6359658e-12 0 0)
(4.8564418e-12 0 0)
(-1.2659361e-12 0 0)
(2.5807135e-11 0 0)
(1.9168779e-11 0 0)
(2.2039671e-12 0 0)
(9.3736407e-13 0 0)
(3.4295543e-12 0 0)
(-8.5977838e-13 0 0)
(2.1398089e-11 0 0)
(-4.11093e-12 0 0)
(2.9779344e-12 0 0)
(9.9719843e-12 0 0)
(1.2265875e-12 0 0)
(2.3258256e-11 0 0)
(-2.7452885e-12 0 0)
(3.5525243e-11 0 0)
(4.9341387e-13 0 0)
(2.516055e-11 0 0)
(3.9548695e-13 0 0)
(2.2922348e-11 0 0)
(-1.2079136e-12 0 0)
(1.486344e-11 0 0)
(2.8566095e-11 0 0)
(1.1704213e-11 0 0)
(1.3646523e-11 0 0)
(3.290667e-11 0 0)
(-1.1824593e-11 0 0)
(1.9435993e-11 0 0)
(-1.4976484e-11 0 0)
(6.4421688e-12 0 0)
(3.1013157e-12 0 0)
(1.4837763e-11 0 0)
(2.4438825e-11 0 0)
(1.8236083e-11 0 0)
(1.5704544e-11 0 0)
(1.0533647e-11 0 0)
(7.9248558e-12 0 0)
(8.2939992e-12 0 0)
(1.8438273e-11 0 0)
(2.6298214e-11 0 0)
(3.3018713e-11 0 0)
(-4.3504675e-12 0 0)
(1.2537536e-11 0 0)
(1.660645e-12 0 0)
(1.8246976e-11 0 0)
(-9.6453018e-12 0 0)
(2.9774898e-12 0 0)
(4.012225e-12 0 0)
(1.3658638e-11 0 0)
(-4.5602156e-12 0 0)
(-8.7537333e-12 0 0)
(1.76214e-11 0 0)
(1.7859048e-11 0 0)
(1.0328901e-11 0 0)
(1.946067e-11 0 0)
(1.7977872e-11 0 0)
(1.3260373e-11 0 0)
(8.0306747e-12 0 0)
(3.7705756e-12 0 0)
(1.5674755e-11 0 0)
(2.0868439e-11 0 0)
(1.0141161e-11 0 0)
(9.1175413e-12 0 0)
(2.7824474e-11 0 0)
(1.8477955e-11 0 0)
(3.1111084e-11 0 0)
(1.8002659e-11 0 0)
(4.4133253e-11 0 0)
(2.1554261e-11 0 0)
(3.4529856e-11 0 0)
(1.7164445e-12 0 0)
(4.1950516e-11 0 0)
(1.9599501e-11 0 0)
(5.5902602e-11 0 0)
(2.3968198e-11 0 0)
(5.3617381e-11 0 0)
(3.4065898e-11 0 0)
(5.772631e-11 0 0)
(4.3247909e-11 0 0)
(2.910964e-11 0 0)
(3.540753e-11 0 0)
(2.7571931e-11 0 0)
(1.1315284e-11 0 0)
(1.8592999e-11 0 0)
(2.5544255e-11 0 0)
(1.6387143e-11 0 0)
(1.5040508e-11 0 0)
(2.2639905e-11 0 0)
(-5.4360002e-12 0 0)
(-8.6666995e-12 0 0)
(-5.6874312e-12 0 0)
(1.5383751e-13 0 0)
(-8.4142681e-12 0 0)
(2.35447e-12 0 0)
(-1.4626348e-11 0 0)
(3.7153319e-12 0 0)
(1.3556488e-11 0 0)
(3.5347063e-14 0 0)
(1.3290495e-11 0 0)
(1.0186957e-11 0 0)
(6.1501665e-12 0 0)
(8.5577683e-13 0 0)
(-1.3072633e-11 0 0)
(-1.0210744e-11 0 0)
(-2.2636236e-11 0 0)
(-2.474839e-11 0 0)
(-2.8420038e-11 0 0)
(-4.5050942e-11 0 0)
(-2.2227633e-11 0 0)
(-3.1792015e-11 0 0)
(-3.6332556e-11 0 0)
(-3.8697586e-11 0 0)
(-4.2348893e-11 0 0)
(-3.2118253e-11 0 0)
(-2.8153046e-11 0 0)
(-2.4457277e-11 0 0)
(-1.9662081e-11 0 0)
(-2.1734997e-11 0 0)
(6.8804476e-14 0 0)
(-1.1115651e-11 0 0)
(-4.9918277e-12 0 0)
(-1.8982929e-12 0 0)
(-1.1247702e-11 0 0)
(-2.0770401e-11 0 0)
(-3.5807463e-11 0 0)
(-8.5853346e-12 0 0)
(-2.4645239e-11 0 0)
(-2.9784902e-12 0 0)
(-3.769364e-11 0 0)
(-1.2267098e-11 0 0)
(-3.746344e-11 0 0)
(-1.1964203e-11 0 0)
(-3.5184555e-11 0 0)
(-1.8121038e-11 0 0)
(-3.9607495e-11 0 0)
(-3.9379517e-11 0 0)
(-3.7426425e-11 0 0)
(-3.3673968e-11 0 0)
(-4.049684e-12 0 0)
(-2.1577381e-11 0 0)
(-1.3780908e-11 0 0)
(-2.3483121e-11 0 0)
(-2.7510908e-11 0 0)
(-1.4425381e-11 0 0)
(-3.1311828e-11 0 0)
(-3.6918784e-11 0 0)
(-1.8378583e-11 0 0)
(-2.2417929e-11 0 0)
(-9.0246163e-12 0 0)
(6.4247186e-14 0 0)
(9.9341918e-12 0 0)
(7.702325e-12 0 0)
(4.1842474e-11 0 0)
(6.886208e-11 0 0)
(9.5465635e-11 0 0)
(1.6657403e-10 0 0)
(2.5517066e-10 0 0)
(3.8494351e-10 0 0)
(5.6399439e-10 0 0)
(8.0096699e-10 0 0)
(1.1594728e-09 0 0)
(1.6400004e-09 0 0)
(2.3573629e-09 0 0)
(3.2925991e-09 0 0)
(4.651614e-09 0 0)
(6.4904372e-09 0 0)
(9.0606513e-09 0 0)
(1.2616985e-08 0 0)
(1.750877e-08 0 0)
(2.4246208e-08 0 0)
(3.3509402e-08 0 0)
(4.6136119e-08 0 0)
(6.3343107e-08 0 0)
(8.6727815e-08 0 0)
(1.1841186e-07 0 0)
(1.6118977e-07 0 0)
(2.1885078e-07 0 0)
(2.9625965e-07 0 0)
(3.9988425e-07 0 0)
(5.3816045e-07 0 0)
(7.2207441e-07 0 0)
(9.6595904e-07 0 0)
(1.2882465e-06 0 0)
(1.7128436e-06 0 0)
(2.2702853e-06 0 0)
(2.9998008e-06 0 0)
(3.9511764e-06 0 0)
(5.1876766e-06 0 0)
(6.7891422e-06 0 0)
(8.8560828e-06 0 0)
(1.1514183e-05 0 0)
(1.4920328e-05 0 0)
(1.9269039e-05 0 0)
(2.4800646e-05 0 0)
(3.1810529e-05 0 0)
(4.0660049e-05 0 0)
(5.1789098e-05 0 0)
(6.5730358e-05 0 0)
(8.3125583e-05 0 0)
(0.00010474378 0 0)
(0.00013150143 0 0)
(0.00016448458 0 0)
(0.00020497294 0 0)
(0.00025446541 0 0)
(0.00031470709 0 0)
(0.00038771704 0 0)
(0.00047581629 0 0)
(0.00058165571 0 0)
(0.00070824225 0 0)
(0.00085896345 0 0)
(0.0010376082 0 0)
(0.0012483837 0 0)
(0.0014959262 0 0)
(0.0017853056 0 0)
(0.0021220223 0 0)
(0.0025119947 0 0)
(0.0029615384 0 0)
(0.0034773344 0 0)
(0.0040663876 0 0)
(0.0047359764 0 0)
(0.0054935914 0 0)
(0.0063468671 0 0)
(0.007303506 0 0)
(0.0083711979 0 0)
(0.0095575358 0 0)
(0.01086993 0 0)
(0.012315523 0 0)
(0.013901112 0 0)
(0.015633065 0 0)
(0.017517262 0 0)
(0.019559027 0 0)
(0.021763082 0 0)
(0.024133505 0 0)
(0.026673708 0 0)
(0.029386413 0 0)
(0.032273654 0 0)
(0.035336779 0 0)
(0.038576467 0 0)
(0.04199275 0 0)
(0.045585049 0 0)
(0.049352209 0 0)
(0.053292541 0 0)
(0.05740387 0 0)
(0.061683583 0 0)
(0.066128679 0 0)
(0.070735817 0 0)
(0.075501368 0 0)
(0.08042146 0 0)
(0.085492024 0 0)
(0.090708839 0 0)
(0.096067568 0 0)
(0.1015638 0 0)
(0.10719306 0 0)
(0.11295089 0 0)
(0.11883282 0 0)
(0.12483441 0 0)
(0.13095128 0 0)
(0.13717913 0 0)
(0.14351373 0 0)
(0.14995096 0 0)
(0.15648679 0 0)
(0.16311732 0 0)
(0.16983875 0 0)
(0.17664742 0 0)
(0.1835398 0 0)
(0.19051247 0 0)
(0.19756214 0 0)
(0.20468567 0 0)
(0.21188001 0 0)
(0.21914228 0 0)
(0.22646967 0 0)
(0.23385953 0 0)
(0.24130932 0 0)
(0.2488166 0 0)
(0.25637904 0 0)
(0.26399444 0 0)
(0.27166068 0 0)
(0.27937575 0 0)
(0.28713777 0 0)
(0.29494488 0 0)
(0.30279546 0 0)
(0.31068767 0 0)
(0.31862067 0 0)
(0.32659107 0 0)
(0.33460296 0 0)
(0.34264136 0 0)
(0.3507378 0 0)
(0.35882029 0 0)
(0.36702912 0 0)
(0.37510944 0 0)
(0.38346982 0 0)
(0.39151817 0 0)
(0.40002843 0 0)
(0.40807226 0 0)
(0.41671242 0 0)
(0.42477037 0 0)
(0.43354705 0 0)
(0.44164824 0 0)
(0.4504208 0 0)
(0.45880128 0 0)
(0.46731437 0 0)
(0.47564069 0 0)
(0.48422064 0 0)
(0.49218235 0 0)
(0.50114621 0 0)
(0.50900396 0 0)
(0.518143 0 0)
(0.52591298 0 0)
(0.5352627 0 0)
(0.54287413 0 0)
(0.55237234 0 0)
(0.55994548 0 0)
(0.56971587 0 0)
(0.57701518 0 0)
(0.58720775 0 0)
(0.59417315 0 0)
(0.60464393 0 0)
(0.61157174 0 0)
(0.62223854 0 0)
(0.62896741 0 0)
(0.63994151 0 0)
(0.6463752 0 0)
(0.65756992 0 0)
(0.66373256 0 0)
(0.67507394 0 0)
(0.68084696 0 0)
(0.69222455 0 0)
(0.69760447 0 0)
(0.70898071 0 0)
(0.71394469 0 0)
(0.7252862 0 0)
(0.72979015 0 0)
(0.74095639 0 0)
(0.74500105 0 0)
(0.75577082 0 0)
(0.75958339 0 0)
(0.77002512 0 0)
(0.77383606 0 0)
(0.78382725 0 0)
(0.78789691 0 0)
(0.79706106 0 0)
(0.80153898 0 0)
(0.80944065 0 0)
(0.81447886 0 0)
(0.82092838 0 0)
(0.82676051 0 0)
(0.83227023 0 0)
(0.84016694 0 0)
(0.84345249 0 0)
(0.85416931 0 0)
(0.85538181 0 0)
(0.86689314 0 0)
(0.87031671 0 0)
(0.88113769 0 0)
(0.88503948 0 0)
(0.89266435 0 0)
(0.89726632 0 0)
(0.90207678 0 0)
(0.90609692 0 0)
(0.90963674 0 0)
(0.91258655 0 0)
(0.91502049 0 0)
(0.91694533 0 0)
(0.9185455 0 0)
(0.91993565 0 0)
(0.92127913 0 0)
(0.92250348 0 0)
(0.9236348 0 0)
(0.92449581 0 0)
(0.92534573 0 0)
(0.92593932 0 0)
(0.926508 0 0)
(0.92681627 0 0)
(0.92684728 0 0)
(0.92684988 0 0)
(0.92681491 0 0)
(0.92675624 0 0)
(0.92662322 0 0)
(0.92641057 0 0)
(0.92621132 0 0)
(0.92590999 0 0)
(0.92573187 0 0)
(0.92555097 0 0)
(0.92539485 0 0)
(0.92529249 0 0)
(0.9251848 0 0)
(0.92514504 0 0)
(0.92503605 0 0)
(0.9249758 0 0)
(0.92487104 0 0)
(0.92480741 0 0)
(0.92477195 0 0)
(0.92475021 0 0)
(0.92474446 0 0)
(0.92473058 0 0)
(0.92466689 0 0)
(0.92464599 0 0)
(0.92459863 0 0)
(0.92455818 0 0)
(0.92454052 0 0)
(0.9245201 0 0)
(0.92451419 0 0)
(0.92451885 0 0)
(0.92448997 0 0)
(0.92448865 0 0)
(0.92451428 0 0)
(0.92451891 0 0)
(0.9246874 0 0)
(0.92476524 0 0)
(0.92500648 0 0)
(0.92509177 0 0)
(0.92524675 0 0)
(0.92532686 0 0)
(0.92542361 0 0)
(0.92548585 0 0)
(0.9255706 0 0)
(0.92561766 0 0)
(0.92567513 0 0)
(0.92568916 0 0)
(0.92568702 0 0)
(0.92568594 0 0)
(0.92568644 0 0)
(0.92568731 0 0)
(0.92568733 0 0)
(0.92568538 0 0)
(0.92568545 0 0)
(0.92568528 0 0)
(0.92568663 0 0)
(0.9256866 0 0)
(0.92568528 0 0)
(0.92568502 0 0)
(0.92567256 0 0)
(0.92566365 0 0)
(0.92565065 0 0)
(0.92563364 0 0)
(0.92563023 0 0)
(0.92560237 0 0)
(0.92558626 0 0)
(0.92558102 0 0)
(0.92556718 0 0)
(0.92556095 0 0)
(0.92553352 0 0)
(0.92552234 0 0)
(0.92551443 0 0)
(0.92551346 0 0)
(0.92553188 0 0)
(0.92554215 0 0)
(0.92553593 0 0)
(0.92551216 0 0)
(0.9254981 0 0)
(0.92548397 0 0)
(0.92545191 0 0)
(0.9254438 0 0)
(0.92546047 0 0)
(0.92545948 0 0)
(0.92545321 0 0)
(0.92546942 0 0)
(0.92546893 0 0)
(0.92548178 0 0)
(0.9254962 0 0)
(0.92550577 0 0)
(0.92551064 0 0)
(0.92551861 0 0)
(0.92551255 0 0)
(0.92551154 0 0)
(0.92550125 0 0)
(0.9254909 0 0)
(0.92547777 0 0)
(0.92546059 0 0)
(0.9254376 0 0)
(0.92542317 0 0)
(0.92541357 0 0)
(0.92540004 0 0)
(0.92539003 0 0)
(0.92539268 0 0)
(0.92539484 0 0)
(0.92539319 0 0)
(0.92538687 0 0)
(0.92537376 0 0)
(0.92536217 0 0)
(0.92533494 0 0)
(0.92532182 0 0)
(0.92530103 0 0)
(0.92529295 0 0)
(0.92528055 0 0)
(0.9252808 0 0)
(0.92528141 0 0)
(0.92527479 0 0)
(0.92526564 0 0)
(0.92523915 0 0)
(0.92522498 0 0)
(0.92519033 0 0)
(0.92516932 0 0)
(0.92514302 0 0)
(0.92513574 0 0)
(0.92510167 0 0)
(0.92508319 0 0)
(0.92504168 0 0)
(0.92502395 0 0)
(0.92498993 0 0)
(0.92496413 0 0)
(0.92494274 0 0)
(0.92494213 0 0)
(0.92495041 0 0)
(0.9249836 0 0)
(0.92499667 0 0)
(0.92499782 0 0)
(0.92498454 0 0)
(0.92497894 0 0)
(0.92492624 0 0)
(0.92489385 0 0)
(0.92487897 0 0)
(0.92509758 0 0)
(0.92504302 0 0)
(0.92491965 0 0)
(0.92467987 0 0)
(0.92444044 0 0)
(0.92344321 0 0)
(0.92290962 0 0)
(0.92093694 0 0)
(0.92008582 0 0)
(0.9162359 0 0)
(0.91463478 0 0)
(0.90802769 0 0)
(0.90425492 0 0)
(0.89399229 0 0)
(0.88607405 0 0)
(0.86898745 0 0)
(0.85620349 0 0)
(0.82452756 0 0)
(0.80408067 0 0)
(0.75438196 0 0)
(0.71474921 0 0)
(0.64709112 0 0)
(0.57709269 0 0)
(0.48776217 0 0)
(0.39181642 0 0)
(0.29379284 0 0)
(0.20417154 0 0)
(0.13180417 0 0)
(0.079941381 0 0)
(0.046261304 0 0)
(0.025928858 0 0)
(0.014247258 0 0)
(0.0077397344 0 0)
(0.0041786383 0 0)
(0.0022487831 0 0)
(0.0012082535 0 0)
(0.00064867088 0 0)
(0.00034811725 0 0)
(0.00018678768 0 0)
(0.00010021515 0 0)
(5.3764932e-05 0 0)
(2.884384e-05 0 0)
(1.5473854e-05 0 0)
(8.3011042e-06 0 0)
(4.4531444e-06 0 0)
(2.3888279e-06 0 0)
(1.2814482e-06 0 0)
(6.8740462e-07 0 0)
(3.6877249e-07 0 0)
(1.9781662e-07 0 0)
(1.0612857e-07 0 0)
(5.6907018e-08 0 0)
(3.0530822e-08 0 0)
(1.6362161e-08 0 0)
(8.775146e-09 0 0)
(4.6521183e-09 0 0)
(2.5235309e-09 0 0)
(1.3190337e-09 0 0)
(7.1714996e-10 0 0)
(3.3889165e-10 0 0)
(1.8756574e-10 0 0)
(7.8574173e-11 0 0)
(2.5481803e-11 0 0)
(-6.9994292e-12 0 0)
(-1.247901e-11 0 0)
(-4.1408415e-11 0 0)
(-4.7442414e-12 0 0)
(-4.0464184e-11 0 0)
(-1.6622659e-11 0 0)
(-2.5161139e-11 0 0)
(-2.3042919e-11 0 0)
(-2.7545969e-11 0 0)
(-2.1857719e-11 0 0)
(-1.0317612e-11 0 0)
(-3.6101653e-11 0 0)
(8.1525515e-13 0 0)
(1.4730091e-12 0 0)
(4.1200966e-11 0 0)
(2.1666919e-11 0 0)
(2.549046e-11 0 0)
(1.2807665e-11 0 0)
(-1.5924281e-11 0 0)
(-1.1008553e-11 0 0)
(-3.9694991e-11 0 0)
(-2.012476e-11 0 0)
(-2.4571647e-11 0 0)
(6.2012669e-13 0 0)
(-3.3875435e-11 0 0)
(-1.7536811e-11 0 0)
(-3.5456885e-11 0 0)
(9.438868e-12 0 0)
(-1.5482856e-11 0 0)
(-1.2117833e-11 0 0)
(-1.2255133e-11 0 0)
(-3.2043691e-11 0 0)
(4.9047395e-12 0 0)
(-5.9504194e-13 0 0)
(2.3257249e-11 0 0)
(9.3155531e-12 0 0)
(4.0251407e-11 0 0)
(1.6236398e-11 0 0)
(2.031778e-11 0 0)
(5.1861107e-12 0 0)
(4.9291028e-11 0 0)
(-8.2434564e-12 0 0)
(9.2215406e-12 0 0)
(-2.4410372e-11 0 0)
(1.5256538e-11 0 0)
(-5.7015363e-11 0 0)
(-3.3725704e-12 0 0)
(-5.4832432e-11 0 0)
(-5.1818707e-11 0 0)
(-4.5330519e-11 0 0)
(-3.5841038e-11 0 0)
(-3.9551697e-11 0 0)
(-4.6543135e-11 0 0)
(-6.3229727e-11 0 0)
(-4.3508543e-11 0 0)
(-3.6803361e-11 0 0)
(-2.5596571e-11 0 0)
(-5.6237735e-11 0 0)
(-2.0785067e-11 0 0)
(-5.3363974e-11 0 0)
(4.6250331e-12 0 0)
(-5.7681996e-11 0 0)
(-1.4312085e-11 0 0)
(-3.4661054e-11 0 0)
(-1.451132e-11 0 0)
(-4.1207626e-11 0 0)
(-2.0039405e-11 0 0)
(-5.1141307e-11 0 0)
(-5.7767129e-11 0 0)
(-6.5028949e-11 0 0)
(-6.081504e-11 0 0)
(-6.6510061e-11 0 0)
(-6.9528559e-11 0 0)
(-5.3917837e-11 0 0)
(-3.3359199e-11 0 0)
(-3.1915825e-11 0 0)
(-2.4460763e-11 0 0)
(-2.6618498e-11 0 0)
(-1.9054772e-11 0 0)
(-2.2080929e-11 0 0)
(-2.1238369e-11 0 0)
(4.8883122e-12 0 0)
(-2.9346301e-11 0 0)
(-3.8926909e-12 0 0)
(-1.8546972e-11 0 0)
(-3.352447e-11 0 0)
(7.7369881e-12 0 0)
(-2.0904608e-11 0 0)
(5.2964393e-11 0 0)
(3.7098162e-11 0 0)
(3.698628e-11 0 0)
(-5.4720328e-12 0 0)
(-1.7230799e-12 0 0)
(-1.4661718e-11 0 0)
(-3.0158781e-11 0 0)
(-8.727504e-13 0 0)
(-7.4551729e-12 0 0)
(9.6010311e-12 0 0)
(9.7009263e-12 0 0)
(4.6964914e-11 0 0)
(1.7044439e-11 0 0)
(3.1317343e-11 0 0)
(4.2369517e-11 0 0)
(3.8669623e-11 0 0)
(1.3587734e-11 0 0)
(4.0327661e-11 0 0)
(2.2638121e-11 0 0)
(2.0275824e-11 0 0)
(2.1832634e-12 0 0)
(2.6967021e-11 0 0)
(3.5043653e-11 0 0)
(8.9498259e-12 0 0)
(1.7058757e-11 0 0)
(-3.7238681e-12 0 0)
(4.9141296e-11 0 0)
(1.4965288e-11 0 0)
(6.4129671e-11 0 0)
(-9.1424014e-12 0 0)
(5.4471811e-11 0 0)
(-1.130724e-11 0 0)
(1.602795e-11 0 0)
(-3.6961417e-11 0 0)
(5.9972591e-12 0 0)
(-2.417473e-11 0 0)
(-3.6010304e-11 0 0)
(-2.7460281e-11 0 0)
(-1.8913365e-11 0 0)
(-2.2333219e-12 0 0)
(-9.1835805e-12 0 0)
(-1.0674682e-11 0 0)
(-2.0343309e-11 0 0)
(-1.0621071e-11 0 0)
(2.5540186e-11 0 0)
(-1.0256232e-11 0 0)
(4.1173994e-11 0 0)
(4.7592922e-11 0 0)
(3.8839778e-11 0 0)
(5.586668e-11 0 0)
(4.5768393e-11 0 0)
(5.4112521e-11 0 0)
(1.3272288e-11 0 0)
(1.3262631e-11 0 0)
(2.1268781e-12 0 0)
(2.0194243e-11 0 0)
(4.7091671e-12 0 0)
(3.7831725e-11 0 0)
(1.5198377e-11 0 0)
(9.3552891e-12 0 0)
(3.8123752e-11 0 0)
(9.7382204e-12 0 0)
(2.1738621e-11 0 0)
(-1.7108705e-12 0 0)
(5.4503888e-12 0 0)
(-3.0085081e-12 0 0)
(-2.2196696e-12 0 0)
(1.3662545e-11 0 0)
(-1.8426765e-11 0 0)
(-6.4032773e-12 0 0)
(-2.0263392e-11 0 0)
(-3.1608037e-11 0 0)
(-4.4126672e-11 0 0)
(-2.1159896e-11 0 0)
(-3.9597982e-11 0 0)
(-1.1844232e-11 0 0)
(-1.6582368e-11 0 0)
(9.2536177e-13 0 0)
(-2.2899403e-11 0 0)
(-6.6586758e-12 0 0)
(-1.3248202e-11 0 0)
(-1.8486591e-11 0 0)
(-4.3278784e-11 0 0)
(-3.2563479e-11 0 0)
(-1.3640346e-11 0 0)
(-1.2093747e-11 0 0)
(3.9193296e-12 0 0)
(1.6752745e-11 0 0)
(-6.6797648e-12 0 0)
(1.0561134e-11 0 0)
(-1.7613841e-11 0 0)
(-6.0695166e-12 0 0)
(3.1665977e-11 0 0)
(1.3746124e-11 0 0)
(2.4588629e-12 0 0)
(2.1681015e-11 0 0)
(-1.1307129e-11 0 0)
(5.1117999e-11 0 0)
(1.8270707e-11 0 0)
(-3.9627285e-12 0 0)
(8.1229163e-12 0 0)
(3.1189482e-14 0 0)
(-8.6509177e-13 0 0)
(2.0935576e-11 0 0)
(1.1765536e-11 0 0)
(3.1098461e-11 0 0)
(5.3431792e-11 0 0)
(4.5414209e-11 0 0)
(3.6909915e-11 0 0)
(5.9130031e-11 0 0)
(3.0514297e-11 0 0)
(5.9756929e-11 0 0)
(5.2456704e-11 0 0)
(3.5227349e-11 0 0)
(4.0291587e-11 0 0)
(1.2385774e-11 0 0)
(1.3110236e-11 0 0)
(-1.0282982e-11 0 0)
(3.7945717e-12 0 0)
(1.1037634e-11 0 0)
(-9.5456448e-12 0 0)
(-1.2120386e-11 0 0)
(3.4301765e-11 0 0)
(2.9848773e-11 0 0)
(2.483648e-11 0 0)
(1.5567101e-11 0 0)
(1.8956764e-11 0 0)
(3.6095881e-11 0 0)
(-5.7025684e-12 0 0)
(1.6939771e-11 0 0)
(-3.0161445e-11 0 0)
(6.3281338e-12 0 0)
(-1.0585664e-11 0 0)
(1.3458537e-11 0 0)
(-1.4699567e-11 0 0)
(2.6314706e-11 0 0)
(-7.8859428e-12 0 0)
(2.2798398e-11 0 0)
(1.1018876e-11 0 0)
(-1.6363931e-11 0 0)
(-6.347669e-12 0 0)
(-1.6589916e-11 0 0)
(2.0036741e-12 0 0)
(-1.6865848e-11 0 0)
(-5.4995594e-12 0 0)
(-5.0944292e-12 0 0)
(1.3116007e-11 0 0)
(-2.4353432e-11 0 0)
(-3.5570433e-12 0 0)
(-6.7930902e-12 0 0)
(-2.3220066e-12 0 0)
(-9.9536609e-12 0 0)
(1.8856536e-11 0 0)
(8.7824461e-12 0 0)
(7.618224e-12 0 0)
(-1.6572712e-11 0 0)
(-5.5821394e-12 0 0)
(-2.3594118e-12 0 0)
(1.351692e-11 0 0)
(1.9621733e-11 0 0)
(2.3416193e-11 0 0)
(8.477988e-12 0 0)
(1.7558232e-12 0 0)
(1.3480181e-11 0 0)
(1.6566829e-11 0 0)
(8.3494562e-12 0 0)
(1.0927638e-11 0 0)
(4.0086691e-11 0 0)
(1.6651962e-11 0 0)
(2.7324424e-11 0 0)
(-3.4887816e-12 0 0)
(1.3475297e-11 0 0)
(-2.1159452e-11 0 0)
(5.2683577e-12 0 0)
(-1.3745236e-11 0 0)
(3.5893205e-11 0 0)
(3.4344276e-11 0 0)
(4.7905261e-12 0 0)
(2.1948068e-11 0 0)
(4.4536575e-12 0 0)
(5.2116617e-11 0 0)
(3.6534865e-11 0 0)
(6.9206452e-11 0 0)
(3.8344298e-11 0 0)
(4.4512489e-11 0 0)
(2.1158231e-11 0 0)
(-1.856573e-11 0 0)
(1.5882214e-12 0 0)
(1.1754437e-11 0 0)
(1.8347626e-11 0 0)
(2.3172338e-11 0 0)
(2.9199233e-11 0 0)
(4.1969381e-11 0 0)
(3.6500567e-11 0 0)
(4.019036e-11 0 0)
(5.0911105e-11 0 0)
(3.4911625e-20 0 0)
)
;

boundaryField
{
    sides
    {
        type            zeroGradient;
    }
    emptywalls
    {
        type            empty;
    }
}


// ************************************************************************* //
