/*--------------------------------*- C++ -*----------------------------------*\
| =========                 |                                                 |
| \\      /  F ield         | OpenFOAM: The Open Source CFD Toolbox           |
|  \\    /   O peration     | Version:  2112                                  |
|   \\  /    A nd           | Website:  www.openfoam.com                      |
|    \\/     M anipulation  |                                                 |
\*---------------------------------------------------------------------------*/
FoamFile
{
    version     2.0;
    format      ascii;
    arch        "LSB;label=32;scalar=64";
    class       volScalarField;
    location    "3";
    object      T;
}
// * * * * * * * * * * * * * * * * * * * * * * * * * * * * * * * * * * * * * //

dimensions      [0 0 0 1 0 0 0];

internalField   nonuniform List<scalar> 
1000
(
0
0
0
0
0
0
0
0
0
0
0
0
0
0
0
0
0
0
0
0
0
0
0
0
0
0
0
0
0
0
0
0
0
0
0
0
0
0
0
0
0
0
0
0
0
0
0
0
0
0
0
0
0
0
0
0
0
0
0
0
0
0
0
0
0
0
0
0
0
0
0
0
0
0
0
0
0
0
0
0
0
0
0
0
0
0
0
0
0
0
0
0
0
0
0
0
0
0
0
0
0
0
0
0
0
0
0
0
0
0
0
0
0
0
0
0
0
0
0
0
0
0
0
0
0
0
0
0
0
0
0
0
0
0
0
0
0
0
0
0
0
0
0
0
0
0
0
0
0
0
3.58612e-234
-2.5067e-231
8.70415e-229
-2.00173e-226
3.42975e-224
-4.66975e-222
5.26253e-220
-5.04854e-218
4.20851e-216
-3.09661e-214
2.03609e-212
-1.20834e-210
6.52567e-209
-3.22919e-207
1.47275e-205
-6.22176e-204
2.44531e-202
-8.97521e-201
3.08678e-199
-9.9772e-198
3.03885e-196
-8.74262e-195
2.38088e-193
-6.14946e-192
1.50905e-190
-3.52398e-189
7.84251e-188
-1.66551e-186
3.37935e-185
-6.55841e-184
1.21866e-182
-2.17015e-181
3.70671e-180
-6.07735e-179
9.57142e-178
-1.44895e-176
2.10957e-175
-2.95549e-174
3.98623e-173
-5.17809e-172
6.48051e-171
-7.81652e-170
9.08853e-169
-1.01891e-167
1.10157e-166
-1.14855e-165
1.15499e-164
-1.12015e-163
1.04763e-162
-9.44726e-162
8.21219e-161
-6.879e-160
5.55032e-159
-4.31119e-158
3.22155e-157
-2.31392e-156
1.59584e-155
-1.0554e-154
6.68222e-154
-4.04201e-153
2.32965e-152
-1.27493e-151
6.59358e-151
-3.20111e-150
1.44439e-149
-5.96011e-149
2.18345e-148
-6.64489e-148
1.33927e-147
1.15664e-147
-3.0677e-146
2.02082e-145
-9.35393e-145
3.2909e-144
-7.83134e-144
1.85702e-144
1.05988e-142
-7.09091e-142
2.92405e-141
-7.89049e-141
6.43371e-141
7.21897e-140
-5.1289e-139
1.97464e-138
-4.29583e-138
-2.2645e-138
6.86005e-137
-3.39766e-136
9.22484e-136
-5.22959e-136
-8.77393e-135
5.04764e-134
-1.43204e-133
9.28552e-134
1.24473e-132
-6.92732e-132
1.76884e-131
-1.6918e-132
-1.90908e-130
8.58159e-130
-1.62103e-129
-2.3897e-129
2.7346e-128
-8.74043e-128
6.85924e-128
6.29244e-127
-3.171e-126
5.89872e-126
9.22779e-126
-9.27744e-125
2.51666e-124
-1.66464e-125
-2.34434e-123
8.39349e-123
-7.11658e-123
-5.33837e-122
2.44017e-121
-3.21841e-121
-1.14042e-120
6.49955e-120
-1.04565e-119
-2.40251e-119
1.63173e-118
-2.8582e-118
-5.28731e-118
3.9225e-117
-6.88186e-117
-1.26293e-116
9.07838e-116
-1.47209e-115
-3.23762e-115
2.01541e-114
-2.74306e-114
-8.4824e-114
4.24098e-113
-4.15266e-113
-2.15823e-112
8.29339e-112
-3.8491e-112
-5.13972e-111
1.46179e-110
3.60169e-111
-1.11606e-109
2.19919e-109
3.00877e-109
-2.15663e-108
2.46178e-108
9.52957e-108
-3.58571e-107
8.19046e-108
2.20362e-106
-4.79517e-106
-5.1585e-106
4.04555e-105
-4.16286e-105
-1.80024e-104
5.81295e-104
9.86357e-105
-3.74708e-103
5.7497e-103
1.30869e-102
-5.59482e-102
1.23087e-102
3.10608e-101
-5.5588e-101
-9.51342e-101
4.63134e-100
-1.4199e-100
-2.41594e-99
4.24827e-99
7.4971e-99
-3.38118e-98
4.69053e-99
1.77627e-97
-2.57304e-97
-6.20645e-97
2.14761e-96
6.15033e-97
-1.19703e-95
1.10606e-95
4.86687e-95
-1.12234e-94
-1.2039e-94
6.96843e-94
-1.52642e-94
-3.28738e-93
4.16364e-93
1.17868e-92
-3.18932e-92
-2.54379e-92
1.76287e-91
-4.47922e-92
-7.86312e-91
9.13985e-91
2.83342e-90
-6.62651e-90
-7.34507e-90
3.59881e-89
4.1133e-90
-1.63559e-88
1.06912e-88
6.38256e-88
-9.31065e-88
-2.09974e-87
5.45486e-87
5.26857e-87
-2.65628e-86
-5.11631e-87
1.14046e-85
-4.80425e-86
-4.40813e-85
4.49166e-85
1.53751e-84
-2.64059e-84
-4.76226e-84
1.29074e-83
1.24151e-83
-5.6457e-83
-2.22187e-83
2.27873e-82
-1.29094e-83
-8.62234e-82
3.93759e-82
3.08605e-81
-2.61063e-81
-1.05017e-80
1.318e-80
3.40651e-80
-5.84364e-80
-1.05378e-79
2.38981e-79
3.10315e-79
-9.22922e-79
-8.65779e-79
3.41172e-78
2.26698e-78
-1.21791e-77
-5.46823e-78
4.22481e-77
1.16708e-77
-1.43085e-76
-1.97039e-77
4.74863e-76
1.36091e-77
-1.54878e-75
8.26981e-77
4.97547e-75
-5.45715e-76
-1.57698e-74
2.21994e-75
4.93667e-74
-7.25741e-75
-1.52715e-73
1.96637e-74
4.66812e-73
-4.03892e-74
-1.40906e-72
2.94371e-74
4.19484e-72
2.83582e-73
-1.22947e-71
-2.19833e-72
3.53909e-71
1.10901e-71
-9.97441e-71
-4.72143e-71
2.74147e-70
1.81834e-70
-7.31023e-70
-6.51851e-70
1.87781e-69
2.20583e-69
-4.59871e-69
-7.0973e-69
1.05583e-68
2.17878e-68
-2.20245e-68
-6.38735e-68
3.87802e-68
1.78599e-67
-4.36111e-68
-4.74647e-67
-4.94445e-68
1.19122e-66
5.54012e-67
-2.79145e-66
-2.44702e-66
5.98267e-66
8.44175e-66
-1.12277e-65
-2.53302e-65
1.63461e-65
6.83075e-65
-8.4559e-66
-1.66753e-64
-5.82849e-65
3.65001e-64
3.15094e-64
-6.92963e-64
-1.08201e-63
1.03486e-63
3.02288e-63
-7.31482e-64
-7.24065e-63
-2.38118e-63
1.48531e-62
1.38389e-62
-2.47702e-62
-4.5152e-62
2.69513e-62
1.1473e-61
1.30327e-62
-2.38605e-61
-1.80665e-61
3.90375e-61
6.39501e-61
-3.94536e-61
-1.60594e-60
-2.80543e-61
3.13108e-60
2.78381e-60
-4.43e-60
-8.87636e-60
2.48834e-60
1.97503e-59
9.81551e-60
-3.19863e-59
-4.40603e-59
2.899e-59
1.09428e-58
3.02545e-59
-1.8874e-58
-2.12023e-58
1.89662e-58
5.64351e-58
1.11696e-58
-9.77691e-58
-1.04962e-57
9.31153e-58
2.78189e-57
7.23033e-58
-4.51954e-57
-5.41333e-57
3.38558e-57
1.3032e-56
5.92763e-57
-1.81119e-56
-2.7864e-56
5.99764e-57
5.57587e-56
4.3551e-56
-5.64247e-56
-1.33085e-55
-3.34749e-56
2.00223e-55
2.62383e-55
-8.00509e-56
-5.3906e-55
-4.2425e-55
4.83715e-55
1.2435e-54
5.02445e-55
-1.58208e-54
-2.578e-54
-1.43863e-55
4.20326e-54
4.93049e-54
-1.52698e-54
-9.99849e-54
-8.86344e-54
6.47376e-54
2.22469e-53
1.52554e-53
-1.8846e-53
-4.75278e-53
-2.57634e-53
4.70504e-53
9.92651e-53
4.42945e-53
-1.07481e-52
-2.05269e-52
-8.14086e-53
2.30675e-52
4.23593e-52
1.6669e-52
-4.69701e-52
-8.74875e-52
-3.81529e-52
9.05928e-52
1.80479e-51
9.41045e-52
-1.63162e-51
-3.69373e-51
-2.38604e-51
2.64473e-51
7.41713e-51
5.99951e-51
-3.48346e-51
-1.43807e-50
-1.46215e-50
2.19793e-51
2.62887e-50
3.40032e-50
7.14665e-51
-4.34937e-50
-7.43795e-50
-3.97103e-50
5.93151e-50
1.50184e-49
1.28924e-49
-4.50391e-50
-2.71012e-49
-3.36991e-49
-8.22813e-50
4.06717e-49
7.51731e-49
5.13192e-49
-3.94071e-49
-1.42163e-48
-1.59463e-48
-2.53697e-49
2.119e-48
3.75218e-48
2.61406e-48
-1.75726e-48
-6.95029e-48
-8.41621e-48
-2.62196e-48
9.05769e-48
1.8934e-47
1.66911e-47
-2.52292e-48
-3.06279e-47
-4.68424e-47
-2.94872e-47
2.5004e-47
8.88519e-47
1.10183e-46
4.53782e-47
-9.81112e-47
-2.3973e-46
-2.54595e-46
-5.59538e-47
3.09352e-46
6.25481e-46
5.9425e-46
3.83292e-47
-8.82841e-46
-1.61399e-45
-1.4354e-45
4.30493e-47
2.37745e-45
4.17116e-45
3.64843e-45
-1.48974e-46
-6.13328e-45
-1.08474e-44
-9.79991e-45
-3.56275e-46
1.51489e-44
2.83168e-44
2.75614e-44
5.03818e-45
-3.52531e-44
-7.35228e-44
-7.96599e-44
-2.94574e-44
7.40802e-44
1.86845e-43
2.31363e-43
1.33024e-43
-1.24554e-43
-4.53074e-43
-6.59748e-43
-5.20954e-43
7.91434e-44
1.00279e-42
1.8014e-42
1.83754e-42
6.08264e-43
-1.82977e-42
-4.55837e-42
-5.89242e-42
-4.04254e-42
1.75432e-42
1.00986e-41
1.70219e-41
1.7009e-41
5.64135e-42
-1.68555e-41
-4.28781e-41
-5.7739e-41
-4.46296e-41
6.03518e-42
8.60487e-41
1.63414e-40
1.87375e-40
1.08127e-40
-9.18419e-41
-3.66581e-40
-5.94558e-40
-6.0451e-40
-2.47266e-40
5.00561e-40
1.44231e-39
2.13738e-39
2.00523e-39
5.76773e-40
-2.15973e-39
-5.45692e-39
-7.75017e-39
-7.02846e-39
-1.69523e-39
8.25384e-39
2.01918e-38
2.86228e-38
2.63834e-38
7.54012e-39
-2.8518e-38
-7.32442e-38
-1.07587e-37
-1.05443e-37
-4.31447e-38
8.61641e-38
2.577e-37
4.07231e-37
4.38896e-37
2.54697e-37
-1.95487e-37
-8.55673e-37
-1.52171e-36
-1.84718e-36
-1.42571e-36
4.17697e-38
2.5225e-36
5.44399e-36
7.61618e-36
7.40775e-36
3.2579e-36
-5.5029e-36
-1.77151e-35
-2.97078e-35
-3.53685e-35
-2.74303e-35
-1.82817e-37
4.67189e-35
1.04393e-34
1.52573e-34
1.61307e-34
9.83025e-35
-5.76131e-35
-2.98936e-34
-5.72997e-34
-7.74692e-34
-7.5792e-34
-3.73351e-34
4.663e-34
1.7035e-33
3.05991e-33
4.00499e-33
3.81314e-33
1.74568e-33
-2.63493e-33
-9.06127e-33
-1.61773e-32
-2.135e-32
-2.08909e-32
-1.08777e-32
1.13491e-32
4.51616e-32
8.45585e-32
1.16822e-31
1.22985e-31
8.11705e-32
-2.65057e-32
-2.03759e-31
-4.2841e-31
-6.42646e-31
-7.50505e-31
-6.28621e-31
-1.55417e-31
7.39499e-31
2.01043e-30
3.42898e-30
4.53972e-30
4.67082e-30
3.0345e-30
-1.05615e-30
-7.8517e-30
-1.67513e-29
-2.59033e-29
-3.19792e-29
-3.0326e-29
-1.57133e-29
1.61649e-29
6.64284e-29
1.30244e-28
1.94166e-28
2.3459e-28
2.1867e-28
1.09159e-28
-1.25667e-28
-4.96694e-28
-9.74598e-28
-1.47001e-27
-1.81958e-27
-1.78688e-27
-1.08868e-27
5.43596e-28
3.26173e-27
6.96158e-27
1.11251e-26
1.4681e-26
1.59418e-26
1.26946e-26
2.52898e-27
-1.65265e-26
-4.50321e-26
-8.08841e-26
-1.17963e-25
-1.45028e-25
-1.45375e-25
-9.79338e-26
1.94623e-26
2.24011e-25
5.18807e-25
8.81082e-25
1.24934e-24
1.51234e-24
1.50454e-24
1.01413e-24
-1.89251e-25
-2.30021e-24
-5.39254e-24
-9.30411e-24
-1.35018e-23
-1.69492e-23
-1.8016e-23
-1.44854e-23
-3.73181e-24
1.68521e-23
4.91053e-23
9.29841e-23
1.45107e-22
1.97088e-22
2.33934e-22
2.32991e-22
1.64109e-22
-8.07159e-24
-3.18697e-22
-7.93137e-22
-1.43257e-21
-2.19466e-21
-2.9704e-21
-3.56006e-21
-3.65339e-21
-2.82239e-21
-5.37821e-22
3.77613e-21
1.06332e-20
2.03066e-20
3.25704e-20
4.63599e-20
5.93673e-20
6.76205e-20
6.51254e-20
4.37076e-20
-6.76056e-21
-9.74982e-20
-2.39025e-19
-4.3812e-19
-6.9325e-19
-9.88268e-19
-1.28446e-18
-1.51133e-18
-1.55725e-18
-1.26171e-18
-4.1223e-19
1.24986e-18
4.0091e-18
8.13394e-18
1.38048e-17
2.1004e-17
2.93595e-17
3.79386e-17
4.49946e-17
4.76779e-17
4.17437e-17
2.13098e-17
-2.12494e-17
-9.51444e-17
-2.10571e-16
-3.77436e-16
-6.03124e-16
-8.88964e-16
-1.22503e-15
-1.58294e-15
-1.9064e-15
-2.09933e-15
-2.01211e-15
-1.42643e-15
-4.08869e-17
2.53998e-15
6.80834e-15
1.33405e-14
2.27592e-14
3.56569e-14
5.24635e-14
7.32342e-14
9.73324e-14
1.22974e-13
1.46598e-13
1.62031e-13
1.59409e-13
1.23843e-13
3.38227e-14
-1.40576e-13
-4.39594e-13
-9.15567e-13
-1.63422e-12
-2.67493e-12
-4.12898e-12
-6.09469e-12
-8.66733e-12
-1.19215e-11
-1.58819e-11
-2.04784e-11
-2.54781e-11
-3.03855e-11
-3.43007e-11
-3.57191e-11
-3.22547e-11
-2.02623e-11
5.67336e-12
5.34179e-11
1.34189e-10
2.63736e-10
4.63876e-10
7.64474e-10
1.20598e-09
1.84265e-09
2.74665e-09
4.01315e-09
5.76678e-09
8.16954e-09
1.14307e-08
1.58189e-08
2.1677e-08
2.94401e-08
3.96575e-08
5.30192e-08
7.03875e-08
9.28355e-08
1.21692e-07
1.58597e-07
2.05562e-07
2.65049e-07
3.40059e-07
4.34232e-07
5.51971e-07
6.9858e-07
8.80428e-07
1.10514e-06
1.38179e-06
1.7212e-06
2.13617e-06
2.64181e-06
3.25593e-06
3.99944e-06
4.89682e-06
5.97663e-06
7.27213e-06
8.82191e-06
1.06707e-05
1.287e-05
1.54792e-05
1.85666e-05
2.22103e-05
2.64996e-05
3.15361e-05
3.74356e-05
4.43294e-05
5.23658e-05
6.17124e-05
7.25579e-05
8.51144e-05
9.96195e-05
0.000116339
0.00013557
0.000157642
0.000182923
0.000211819
0.000244781
0.000282306
0.00032494
0.000373286
0.000428004
0.000489816
0.000559512
0.000637952
0.000726073
0.000824891
0.000935509
0.00105912
0.001197
0.00135055
0.00152125
0.0017107
0.00192062
0.00215282
0.00240926
0.00269202
0.00300331
0.00334546
0.00372096
0.00413241
0.00458257
0.00507435
0.0056108
0.0061951
0.00683059
0.00752076
0.00826925
0.00907981
0.00995638
0.010903
0.0119238
0.0130232
0.0142056
0.0154756
0.0168377
0.0182969
0.0198578
0.0215255
0.023305
0.0252014
0.0272197
0.0293652
0.0316429
0.0340581
0.0366159
0.0393214
0.0421796
0.0451966
0.0483722
0.0517321
0.0551992
0.0590959
0.0621995
0.0692249
)
;

boundaryField
{
    sides
    {
        type            zeroGradient;
    }
    empty
    {
        type            empty;
    }
}


// ************************************************************************* //
