/*--------------------------------*- C++ -*----------------------------------*\
| =========                 |                                                 |
| \\      /  F ield         | OpenFOAM: The Open Source CFD Toolbox           |
|  \\    /   O peration     | Version:  2112                                  |
|   \\  /    A nd           | Website:  www.openfoam.com                      |
|    \\/     M anipulation  |                                                 |
\*---------------------------------------------------------------------------*/
FoamFile
{
    version     2.0;
    format      ascii;
    arch        "LSB;label=32;scalar=64";
    class       volScalarField;
    location    "2.5005";
    object      Ma;
}
// * * * * * * * * * * * * * * * * * * * * * * * * * * * * * * * * * * * * * //

dimensions      [0 0 0 0 0 0 0];

internalField   nonuniform List<scalar> 
7000
(
3.00001
3
3
3
3
3
3
3
3.00001
2.99997
2.99993
2.99946
2.99898
2.99608
2.99374
2.97841
2.96387
2.89286
2.73582
2.34745
1.60111
0.739127
0.279039
0.375661
0.444078
0.450924
0.433373
0.409637
0.388596
0.3724
0.357543
0.342505
0.326995
0.310905
0.294882
0.278702
0.262407
0.246299
0.230095
0.213898
0.197712
0.181154
0.164424
0.147108
0.12867
0.109455
0.0894146
0.0676585
0.0437342
0.0266674
3.00001
3
3
3
3
3
3
3
3.00001
2.99997
2.99993
2.99949
2.99903
2.99634
2.99413
2.98041
2.96709
2.90396
2.74255
2.36847
1.61383
0.757513
0.283539
0.371299
0.437892
0.445935
0.430044
0.4071
0.385648
0.368933
0.35368
0.338362
0.322541
0.30624
0.29014
0.273938
0.257677
0.241516
0.225125
0.208634
0.19199
0.17497
0.157858
0.140286
0.121976
0.103383
0.0845312
0.0651433
0.0467636
0.0392794
3.00001
3
3
3
3
3
3
3
3
2.99997
2.99993
2.99949
2.99901
2.99643
2.99418
2.98086
2.96831
2.90464
2.74953
2.37687
1.62412
0.763229
0.279463
0.363403
0.428236
0.437566
0.423451
0.401425
0.379895
0.363057
0.347932
0.332808
0.317034
0.300872
0.284982
0.268963
0.252943
0.236942
0.220643
0.204246
0.187703
0.170859
0.154088
0.137061
0.119786
0.102902
0.0866693
0.0716798
0.0605208
0.0589557
3.00001
3
3
3
3
3
3
3
3
2.99998
2.99985
2.99961
2.9983
2.99719
2.98951
2.98873
2.96879
2.91904
2.74904
2.39043
1.62708
0.777364
0.290539
0.363297
0.422039
0.433132
0.420528
0.399239
0.377272
0.359914
0.344566
0.329394
0.313575
0.297476
0.281648
0.26571
0.249816
0.233907
0.217756
0.201597
0.185366
0.169035
0.153018
0.137047
0.121421
0.106927
0.0939452
0.083419
0.0773937
0.0784033
3.00001
3
3
3
3
3
3
3
3
2.99998
2.99984
2.99963
2.99836
2.99743
2.99021
2.98878
2.96917
2.92557
2.75794
2.40259
1.64167
0.793745
0.301534
0.362685
0.415923
0.429219
0.418489
0.398209
0.375824
0.358083
0.342706
0.327731
0.312103
0.296216
0.280511
0.264648
0.248914
0.233154
0.21719
0.201369
0.185582
0.169948
0.154953
0.140308
0.126605
0.114642
0.104727
0.0977645
0.0950181
0.0972134
3.00001
3
3
3
3
3
3
3
3
2.99998
2.99984
2.99964
2.99844
2.99759
2.99064
2.98981
2.97107
2.93123
2.76782
2.41916
1.66126
0.814424
0.316195
0.364345
0.411124
0.426632
0.417782
0.398235
0.37549
0.35748
0.342168
0.327447
0.31207
0.296432
0.280916
0.265268
0.249772
0.234359
0.218806
0.203478
0.188374
0.173664
0.159815
0.146703
0.134969
0.125385
0.118133
0.113874
0.113211
0.115969
3.00001
3
3
3
3
3
3
3
3
2.99998
2.99985
2.99966
2.99856
2.99783
2.99126
2.99112
2.97323
2.93689
2.7781
2.43672
1.68358
0.838153
0.332782
0.366626
0.407303
0.42493
0.417587
0.398958
0.376391
0.358342
0.343292
0.328869
0.313796
0.298489
0.283175
0.267781
0.252625
0.237575
0.222546
0.207854
0.193544
0.179923
0.167412
0.155858
0.146096
0.138597
0.133442
0.131105
0.131818
0.134826
3.00001
3
3
3
3
3
3
3
3
2.99998
2.99986
2.99969
2.99869
2.99808
2.99194
2.9926
2.97573
2.94346
2.78955
2.45609
1.70916
0.866509
0.35174
0.368222
0.406499
0.425046
0.418919
0.401353
0.379224
0.361112
0.346413
0.332277
0.317533
0.302563
0.287523
0.272434
0.257624
0.243038
0.228551
0.214619
0.201197
0.188716
0.17754
0.167512
0.159513
0.15388
0.150319
0.149401
0.151054
0.15426
3.00001
3
3
3
3
3
3
3
3
2.99998
2.99987
2.99969
2.99877
2.99806
2.99231
2.99306
2.97795
2.95355
2.80398
2.47822
1.73815
0.900455
0.373061
0.370692
0.408113
0.427113
0.421744
0.404873
0.383251
0.36523
0.350773
0.337002
0.322562
0.308024
0.29339
0.278746
0.264466
0.250425
0.236716
0.22354
0.211181
0.199916
0.190101
0.181565
0.175023
0.170775
0.168666
0.168742
0.170992
0.174157
3.00001
3.00001
3
3
3
3
3
3
3
2.99999
2.99988
2.99973
2.99895
2.99827
2.99363
2.99385
2.98107
2.96039
2.81798
2.5012
1.77257
0.943862
0.400481
0.375402
0.410984
0.430299
0.425029
0.408369
0.386755
0.368857
0.354696
0.341394
0.327595
0.313748
0.299928
0.286114
0.272723
0.259567
0.246795
0.234773
0.223335
0.213335
0.204808
0.19768
0.19263
0.189504
0.18826
0.189282
0.19191
0.195133
3.00001
3.00001
3
3
3
3
3
3
3
2.99999
2.9999
2.99976
2.99906
2.99864
2.99413
2.99608
2.97936
2.96702
2.83152
2.52433
1.81171
0.993834
0.431775
0.379188
0.412676
0.431962
0.426488
0.409908
0.388513
0.371039
0.357514
0.344969
0.332093
0.319268
0.306581
0.293956
0.281755
0.269904
0.258429
0.247745
0.237821
0.228854
0.221662
0.215721
0.21181
0.209948
0.209566
0.211036
0.214156
0.217193
3.00001
3.00001
3
3
3
3
3
3
3
2.99998
2.99995
2.99972
2.99937
2.99852
2.99546
2.99431
2.97377
2.97101
2.83258
2.54763
1.86117
1.04642
0.458389
0.375998
0.409891
0.430864
0.426221
0.410263
0.389627
0.37302
0.360392
0.348828
0.336981
0.325383
0.314001
0.302807
0.292035
0.281569
0.271628
0.262334
0.25398
0.246697
0.24054
0.235965
0.233299
0.232077
0.232523
0.234717
0.237944
0.241273
3.00001
3.00001
3.00001
3
3
3
3
3
3
2.99998
2.99995
2.99971
2.99947
2.99841
2.99601
2.99398
2.97462
2.97004
2.8413
2.57929
1.91204
1.11524
0.495141
0.374997
0.408231
0.430641
0.42668
0.411295
0.391467
0.375704
0.364048
0.35344
0.342708
0.332332
0.322267
0.312646
0.303533
0.29471
0.286398
0.278839
0.271838
0.266216
0.261667
0.258101
0.256634
0.256676
0.257653
0.260224
0.263966
0.266974
3.00001
3.00001
3.00001
3.00001
3
3
3
3
3
2.99998
2.99995
2.99975
2.99958
2.99853
2.99688
2.99397
2.9752
2.97051
2.85584
2.59969
1.98261
1.19483
0.539191
0.37472
0.40754
0.431335
0.42822
0.413752
0.394813
0.37993
0.369127
0.359494
0.349912
0.340685
0.331971
0.323758
0.316236
0.309229
0.302744
0.297034
0.291997
0.287652
0.284897
0.282959
0.282456
0.283418
0.285554
0.288816
0.29267
0.296259
3.00001
3.00001
3.00001
3.00001
3.00001
3
3
3
3
2.99998
2.99995
2.99977
2.99962
2.99867
2.99758
2.99416
2.97865
2.97146
2.86758
2.63952
2.06133
1.29464
0.587846
0.369961
0.402339
0.427441
0.426442
0.41369
0.396654
0.383416
0.374047
0.365851
0.357728
0.350156
0.342966
0.33641
0.330443
0.325179
0.320596
0.316836
0.313829
0.311584
0.310147
0.310009
0.311337
0.313553
0.316423
0.320639
0.325482
0.328771
3.00001
3.00001
3.00001
3.00001
3.00001
3.00001
3.00001
3
3
2.99998
2.99995
2.99978
2.99964
2.9988
2.9978
2.99478
2.98093
2.98041
2.88134
2.69968
2.14275
1.4078
0.649487
0.373585
0.402058
0.426775
0.427994
0.415902
0.400221
0.387773
0.37942
0.372577
0.36602
0.360082
0.354775
0.350129
0.346192
0.342839
0.340185
0.33845
0.337643
0.337733
0.338644
0.340142
0.343116
0.347436
0.352275
0.357674
0.363218
0.367862
3.00001
3.00001
3.00001
3.00001
3.00001
3.00001
3.00001
3
3
2.99996
2.99993
2.99971
2.99951
2.99829
2.99723
2.99029
2.98954
2.97052
2.9168
2.74167
2.36829
1.62277
0.836879
0.459137
0.460298
0.47225
0.469021
0.450841
0.429779
0.411379
0.398792
0.389496
0.381603
0.375161
0.370078
0.366365
0.36388
0.362433
0.361947
0.362259
0.363553
0.365968
0.369653
0.374099
0.379529
0.386026
0.39318
0.401409
0.409527
0.414653
3.00001
3.00001
3.00001
3.00001
3.00001
3.00001
3.00001
3
3
2.99998
2.99995
2.99981
2.99967
2.99896
2.9981
2.99373
2.99297
2.97924
2.95107
2.80968
2.4769
1.75004
0.944084
0.489264
0.478574
0.496101
0.500729
0.485914
0.465638
0.445032
0.42958
0.417559
0.40754
0.399173
0.392778
0.388284
0.385778
0.385201
0.386239
0.388882
0.392704
0.39753
0.403807
0.411645
0.420888
0.43155
0.442938
0.455122
0.467534
0.47797
3.00001
3.00001
3.00001
3.00001
3.00001
3.00001
3.00001
3.00001
3
2.99999
2.99995
2.99994
2.99969
2.99923
2.99823
2.99213
2.99297
2.96975
2.96697
2.83477
2.5391
1.8815
1.07912
0.539985
0.470396
0.493571
0.507765
0.502357
0.488754
0.472247
0.458261
0.446979
0.437184
0.428723
0.421916
0.416908
0.41397
0.412906
0.414468
0.418399
0.424689
0.433082
0.442965
0.454358
0.468165
0.484315
0.503015
0.524148
0.547167
0.569189
3.00001
3.00001
3.00001
3.00001
3.00001
3.00001
3.00001
3.00001
3
3
2.99998
2.99995
2.9999
2.99963
2.99928
2.99698
2.99499
2.97601
2.97756
2.85699
2.6367
2.01089
1.23945
0.616744
0.460506
0.481168
0.500476
0.506124
0.499505
0.48901
0.478842
0.47069
0.463588
0.457137
0.451806
0.447909
0.44564
0.445293
0.447451
0.452342
0.46015
0.47098
0.484925
0.502123
0.52208
0.546909
0.576488
0.614357
0.666172
0.756308
3.00001
3.00001
3.00001
3.00001
3.00001
3.00001
3.00001
3.00001
3.00001
3
2.99999
2.99998
2.99989
2.99981
2.99895
2.99772
2.98956
2.98747
2.96488
2.91363
2.72145
2.33944
1.52873
0.835521
0.525387
0.526768
0.542572
0.550954
0.5439
0.532453
0.52047
0.511271
0.504383
0.498911
0.494518
0.491682
0.491083
0.493108
0.497546
0.504351
0.514168
0.527794
0.545867
0.569241
0.599436
0.636928
0.687484
0.754198
0.856895
0.997407
3.00001
3.00001
3.00001
3.00001
3.00001
3.00001
3.00001
3.00001
3.00001
3
3
2.99999
2.99995
2.9999
2.99952
2.99901
2.99566
2.99423
2.97677
2.96155
2.81539
2.49303
1.77274
0.985473
0.544789
0.532803
0.561571
0.58233
0.583086
0.574436
0.564071
0.554837
0.548338
0.543374
0.539688
0.538216
0.539403
0.543089
0.549422
0.558661
0.571787
0.588719
0.611206
0.639533
0.676167
0.723745
0.784753
0.86832
0.98787
1.1293
3.00001
3.00001
3.00001
3.00001
3.00001
3.00001
3.00001
3.00001
3.00001
3.00001
3
3
2.99995
2.99993
2.99958
2.99909
2.99596
2.99446
2.97283
2.97562
2.83985
2.591
1.95793
1.19209
0.632096
0.539163
0.569857
0.596016
0.603745
0.600364
0.594258
0.588661
0.585312
0.583175
0.582446
0.584359
0.58811
0.593728
0.602027
0.61335
0.628901
0.648964
0.674383
0.706921
0.746573
0.797698
0.860418
0.939812
1.04607
1.15657
3.00001
3.00001
3.00001
3.00001
3.00001
3.00001
3.00001
3.00001
3.00001
3.00001
3
3
2.99997
2.99995
2.9997
2.9994
2.9973
2.99602
2.98015
2.98336
2.88222
2.69538
2.17762
1.47242
0.772392
0.567719
0.58142
0.602457
0.616409
0.618
0.615319
0.61316
0.612908
0.613999
0.617707
0.623734
0.631194
0.63974
0.650741
0.66453
0.68174
0.703751
0.730019
0.763477
0.802801
0.851848
0.909908
0.980127
1.06793
1.15837
3.00001
3.00001
3.00001
3.00001
3.00001
3.00001
3.00001
3.00001
3.00001
3.00001
3
3
2.99998
2.99996
2.99978
2.99952
2.99771
2.99708
2.98533
2.98467
2.92021
2.77713
2.45113
1.82549
0.990179
0.647492
0.610328
0.62748
0.641016
0.643323
0.640946
0.639358
0.639904
0.643075
0.649404
0.658065
0.667716
0.679282
0.692424
0.709093
0.727767
0.751457
0.777856
0.810713
0.847786
0.892714
0.944019
1.00443
1.07687
1.15041
3.00001
3.00001
3.00001
3.00001
3.00001
3.00001
3.00001
3.00001
3.00001
3.00001
3.00001
3
3
2.99995
2.99993
2.99963
2.99929
2.99677
2.99521
2.97581
2.97903
2.85673
2.64385
2.05541
1.32431
0.770017
0.647422
0.653022
0.664688
0.672455
0.672184
0.670321
0.6702
0.67399
0.681089
0.689945
0.700239
0.712831
0.727096
0.744967
0.764612
0.78876
0.81539
0.846908
0.88217
0.922881
0.969013
1.0211
1.08285
1.14447
3.00001
3.00001
3.00001
3.00001
3.00001
3.00001
3.00001
3.00001
3.00001
3.00001
3.00001
3
3
2.99997
2.99996
2.99974
2.99945
2.99738
2.99646
2.98324
2.98678
2.90694
2.75823
2.40684
1.77572
0.985967
0.699038
0.678107
0.690925
0.701462
0.703165
0.702367
0.70323
0.707447
0.714222
0.723026
0.733306
0.74577
0.76015
0.777623
0.797047
0.8201
0.845538
0.87488
0.907483
0.944278
0.985482
1.03147
1.08495
1.13879
3.00001
3.00001
3.00001
3.00001
3.00001
3.00001
3.00001
3.00001
3.00001
3.00001
3.00001
3.00001
3
2.99999
2.99998
2.99988
2.99979
2.99897
2.99825
2.99085
2.99252
2.94615
2.86295
2.6063
2.13263
1.27146
0.840557
0.725629
0.721958
0.728544
0.734449
0.735498
0.736287
0.739648
0.745583
0.754053
0.764238
0.776967
0.791254
0.808411
0.827338
0.849109
0.873157
0.900062
0.929925
0.963098
0.999845
1.04061
1.08721
1.13374
3.00001
3.00001
3.00001
3.00001
3.00001
3.00001
3.00001
3.00001
3.00001
3.00001
3.00001
3.00001
3
2.99999
2.99998
2.99987
2.99979
2.99898
2.99802
2.99113
2.99175
2.96031
2.96525
2.80426
2.50116
1.83261
1.12782
0.79822
0.762833
0.764656
0.770968
0.775722
0.777276
0.779278
0.783397
0.789963
0.79853
0.80952
0.822333
0.837713
0.85508
0.874946
0.897091
0.921845
0.94907
0.979245
1.01226
1.04872
1.08984
1.13088
3.00001
3.00001
3.00001
3.00001
3.00001
3.00001
3.00001
3.00001
3.00001
3.00001
3.00001
3.00001
3.00001
3
2.99999
2.99998
2.99985
2.99973
2.99856
2.99798
2.99023
2.98825
2.96262
2.90392
2.6889
2.26756
1.46715
0.969896
0.802735
0.790203
0.799138
0.808704
0.814344
0.818285
0.822403
0.828609
0.836284
0.846251
0.857734
0.871497
0.88693
0.90471
0.924167
0.946213
0.970112
0.996837
1.02586
1.05805
1.09434
1.13089
3.00001
3.00001
3.00001
3.00001
3.00001
3.00001
3.00001
3.00001
3.00001
3.00001
3.00001
3.00001
3.00001
3.00001
3
2.99999
2.99993
2.99989
2.99944
2.99889
2.99504
2.99391
2.97055
2.97185
2.84059
2.58298
1.98718
1.2839
0.899923
0.833374
0.829618
0.835875
0.844342
0.850561
0.854968
0.860892
0.868257
0.878035
0.889195
0.902369
0.916968
0.933497
0.951685
0.9717
0.993684
1.01748
1.04361
1.07173
1.10366
1.13537
3.00001
3.00001
3.00001
3.00001
3.00001
3.00001
3.00001
3.00001
3.00001
3.00001
3.00001
3.00001
3.00001
3.00001
3
2.99999
2.99998
2.99987
2.99978
2.999
2.99821
2.99107
2.99379
2.96181
2.96174
2.8028
2.47061
1.82853
1.16039
0.880411
0.854536
0.860335
0.870011
0.880109
0.886389
0.892495
0.899739
0.908749
0.919444
0.931607
0.945338
0.960463
0.977189
0.995477
1.01531
1.03713
1.06049
1.08647
1.11504
1.14427
3.00001
3.00001
3.00001
3.00001
3.00001
3.00001
3.00001
3.00001
3.00001
3.00001
3.00001
3.00001
3.00001
3.00001
3.00001
3
2.99999
2.99998
2.99989
2.99979
2.999
2.99891
2.99405
2.99119
2.96727
2.92152
2.72161
2.31001
1.56533
1.05542
0.887666
0.877369
0.888757
0.901813
0.913369
0.922752
0.931577
0.94099
0.951354
0.962916
0.975445
0.989412
1.00431
1.02098
1.03859
1.05827
1.07914
1.10233
1.12814
1.15422
3.00001
3.00001
3.00001
3.00001
3.00001
3.00001
3.00001
3.00001
3.00001
3.00001
3.00001
3.00001
3.00001
3.00001
3.00001
3.00001
3
2.99999
2.99998
2.99985
2.99972
2.9986
2.99809
2.98987
2.99205
2.9455
2.85645
2.62205
2.11475
1.3753
1.01561
0.919557
0.912817
0.923089
0.937099
0.950104
0.960424
0.970067
0.979883
0.990836
1.00246
1.01543
1.02911
1.04426
1.06036
1.07804
1.09715
1.11793
1.14157
1.16515
3.00001
3.00001
3.00001
3.00001
3.00001
3.00001
3.00001
3.00001
3.00001
3.00001
3.00001
3.00001
3.00001
3.00001
3.00001
3.00001
3.00001
2.99999
2.99998
2.99984
2.99983
2.99925
2.99859
2.99292
2.99574
2.96544
2.97816
2.82864
2.58296
1.98527
1.34723
1.0213
0.969749
0.961927
0.968758
0.979848
0.990604
0.999613
1.00775
1.01673
1.02651
1.03771
1.04986
1.06327
1.07785
1.09361
1.11103
1.13005
1.15206
1.17382
3.00001
3.00001
3.00001
3.00001
3.00001
3.00001
3.00001
3.00001
3.00001
3.00001
3.00001
3.00001
3.00001
3.00001
3.00001
3.00001
3
3
2.99998
2.99995
2.99972
2.99965
2.99902
2.99825
2.99144
2.99508
2.95771
2.97168
2.81171
2.51063
1.9411
1.32019
1.03682
0.997287
0.996322
1.00421
1.01535
1.0261
1.03427
1.04166
1.04971
1.0587
1.06917
1.08065
1.0936
1.1078
1.12386
1.14163
1.16144
1.18169
3.00001
3.00001
3.00001
3.00001
3.00001
3.00001
3.00001
3.00001
3.00001
3.00001
3.00001
3.00001
3.00001
3.00001
3.00001
3.00001
3.00001
3
3
2.99998
2.99996
2.99985
2.99976
2.99917
2.99831
2.99488
2.98878
2.96517
2.91932
2.77944
2.46972
1.8877
1.2614
1.05114
1.0209
1.02331
1.03108
1.04117
1.05048
1.05839
1.06631
1.07492
1.0846
1.09553
1.1078
1.12162
1.13659
1.1528
1.17111
1.18973
3.00001
3.00001
3.00001
3.00001
3.00001
3.00001
3.00001
3.00001
3.00001
3.00001
3.00001
3.00001
3.00001
3.00001
3.00001
3.00001
3.00001
3.00001
3.00001
3
2.99999
2.99995
2.99992
2.99964
2.99939
2.99705
2.99633
2.98215
2.9873
2.90495
2.77517
2.4379
1.83438
1.23365
1.06837
1.04541
1.04679
1.05272
1.06122
1.06968
1.0781
1.08691
1.0964
1.10699
1.11876
1.13178
1.14603
1.1615
1.17913
1.19712
3.00001
3.00001
3.00001
3.00001
3.00001
3.00001
3.00001
3.00001
3.00001
3.00001
3.00001
3.00001
3.00001
3.00001
3.00001
3.00001
3.00001
3.00001
3.00001
3
3
2.99997
2.99994
2.9997
2.99962
2.99903
2.9986
2.99284
2.99147
2.96449
2.91786
2.77925
2.45189
1.81734
1.32481
1.12937
1.09294
1.08595
1.08652
1.09345
1.10264
1.11069
1.11872
1.12722
1.13685
1.1474
1.15957
1.17345
1.18964
1.20625
3.00001
3.00001
3.00001
3.00001
3.00001
3.00001
3.00001
3.00001
3.00001
3.00001
3.00001
3.00001
3.00001
3.00001
3.00001
3.00001
3.00001
3.00001
3.00001
3.00001
3
2.99999
2.99998
2.99992
2.99987
2.99951
2.99927
2.99728
2.99549
2.98569
2.97141
2.91435
2.8051
2.47435
1.89854
1.39495
1.17038
1.12128
1.11283
1.11404
1.1214
1.13131
1.14158
1.15194
1.16239
1.17329
1.18458
1.19671
1.21025
1.22487
3.00001
3.00001
3.00001
3.00001
3.00001
3.00001
3.00001
3.00001
3.00001
3.00001
3.00001
3.00001
3.00001
3.00001
3.00001
3.00001
3.00001
3.00001
3.00001
3.00001
3.00001
3.00001
3
2.99999
2.99994
2.99992
2.99966
2.9994
2.99755
2.99659
2.98376
2.98976
2.91016
2.8047
2.45319
1.94036
1.37416
1.17189
1.12701
1.12496
1.13181
1.14283
1.15528
1.16766
1.17928
1.19155
1.20344
1.21667
1.23072
1.24555
3.00001
3.00001
3.00001
3.00001
3.00001
3.00001
3.00001
3.00001
3.00001
3.00001
3.00001
3.00001
3.00001
3.00001
3.00001
3.00001
3.00001
3.00001
3.00001
3.00001
3.00001
3.00001
3
3
2.99998
2.99992
2.99991
2.99966
2.9993
2.99746
2.99581
2.98127
2.98051
2.93104
2.82624
2.50046
1.97234
1.41624
1.2012
1.15709
1.15193
1.15804
1.16764
1.18057
1.19262
1.20458
1.21632
1.22894
1.24309
1.25766
3.00001
3.00001
3.00001
3.00001
3.00001
3.00001
3.00001
3.00001
3.00001
3.00001
3.00001
3.00001
3.00001
3.00001
3.00001
3.00001
3.00001
3.00001
3.00001
3.00001
3.00001
3.00001
3
3
2.99999
2.99998
2.99992
2.99987
2.99949
2.99933
2.99735
2.99629
2.98674
2.97436
2.91367
2.83428
2.58933
2.09319
1.56821
1.27119
1.20891
1.19747
1.19641
1.20114
1.20907
1.21882
1.22922
1.24053
1.25383
1.26737
3.00001
3.00001
3.00001
3.00001
3.00001
3.00001
3.00001
3.00001
3.00001
3.00001
3.00001
3.00001
3.00001
3.00001
3.00001
3.00001
3.00001
3.00001
3.00001
3.00001
3.00001
3.00001
3.00001
3.00001
3
2.99999
2.99999
2.99994
2.99988
2.9994
2.99933
2.9979
2.9964
2.98425
2.98169
2.94862
2.88648
2.64218
2.22495
1.7147
1.39113
1.27462
1.24264
1.23607
1.23676
1.24255
1.25143
1.26006
1.27075
1.28152
3.00001
3.00001
3.00001
3.00001
3.00001
3.00001
3.00001
3.00001
3.00001
3.00001
3.00001
3.00001
3.00001
3.00001
3.00001
3.00001
3.00001
3.00001
3.00001
3.00001
3.00001
3.00001
3.00001
3.00001
3.00001
3.00001
3
3
2.99996
2.99996
2.99975
2.99976
2.9987
2.99827
2.99084
2.98797
2.95217
2.94168
2.74229
2.44123
1.94947
1.55154
1.34062
1.28884
1.27727
1.27545
1.27685
1.28341
1.29257
1.30295
3.00001
3.00001
3.00001
3.00001
3.00001
3.00001
3.00001
3.00001
3.00001
3.00001
3.00001
3.00001
3.00001
3.00001
3.00001
3.00001
3.00001
3.00001
3.00001
3.00001
3.00001
3.00001
3.00001
3.00001
3.00001
3.00001
3
3
2.99999
2.99998
2.99987
2.99987
2.99958
2.99939
2.99676
2.99652
2.98321
2.98146
2.93236
2.84075
2.53009
2.13918
1.66675
1.42453
1.33664
1.31129
1.30564
1.30741
1.3146
1.32388
3.00001
3.00001
3.00001
3.00001
3.00001
3.00001
3.00001
3.00001
3.00001
3.00001
3.00001
3.00001
3.00001
3.00001
3.00001
3.00001
3.00001
3.00001
3.00001
3.00001
3.00001
3.00001
3.00001
3.00001
3.00001
3.00001
3.00001
3
3
2.99999
2.99999
2.99993
2.99988
2.99953
2.99953
2.99785
3.00212
2.99284
2.98094
2.9481
2.88382
2.71829
2.38482
1.97159
1.573
1.39359
1.3489
1.34057
1.34234
1.34922
3.00001
3.00001
3.00001
3.00001
3.00001
3.00001
3.00001
3.00001
3.00001
3.00001
3.00001
3.00001
3.00001
3.00001
3.00001
3.00001
3.00001
3.00001
3.00001
3.00001
3.00001
3.00001
3.00001
3.00001
3.00001
3.00001
3.00001
3.00001
3.00001
3
3
2.99997
2.99997
2.9999
2.99983
2.99921
2.99914
2.99753
2.99641
2.98215
2.9863
2.9237
2.84144
2.56484
2.19916
1.76778
1.51531
1.41346
1.38795
1.38625
3.00001
3.00001
3.00001
3.00001
3.00001
3.00001
3.00001
3.00001
3.00001
3.00001
3.00001
3.00001
3.00001
3.00001
3.00001
3.00001
3.00001
3.00001
3.00001
3.00001
3.00001
3.00001
3.00001
3.00001
3.00001
3.00001
3.00001
3.00001
3.00001
3.00001
3.00001
3
3
2.99999
2.99996
2.99992
2.99975
2.9999
2.99884
3.0023
2.99541
2.98757
2.94222
2.90299
2.76978
2.47224
2.11802
1.74248
1.52904
1.47184
3.00001
3.00001
3.00001
3.00001
3.00001
3.00001
3.00001
3.00001
3.00001
3.00001
3.00001
3.00001
3.00001
3.00001
3.00001
3.00001
3.00001
3.00001
3.00001
3.00001
3.00001
3.00001
3.00001
3.00001
3.00001
3.00001
3.00001
3.00001
3.00001
3.00001
3.00001
3.00001
3
3
2.99998
2.99998
2.99989
2.99986
2.99946
2.99924
2.99734
2.99588
2.98746
2.97697
2.93223
2.88218
2.76756
2.46769
2.17276
1.82516
3.00001
3.00001
3.00001
3.00001
3.00001
3.00001
3.00001
3.00001
3.00001
3.00001
3.00001
3.00001
3.00001
3.00001
3.00001
3.00001
3.00001
3.00001
3.00001
3.00001
3.00001
3.00001
3.00001
3.00001
3.00001
3.00001
3.00001
3.00001
3.00001
3.00001
3.00001
3.00001
3.00001
3.00001
3.00001
3.00001
3.00001
3.00001
3.00004
2.99999
3.00026
2.99952
2.99872
2.98973
2.9914
2.95617
3.05832
2.89863
2.73365
2.26625
3.00001
3.00001
3.00001
3.00001
3.00001
3.00001
3.00001
3.00001
3.00001
3.00001
3.00001
3.00001
3.00001
3.00001
3.00001
3.00001
3.00001
3.00001
3.00001
3.00001
3.00001
3.00001
3.00001
3.00001
3.00001
3.00001
3.00001
3.00001
3.00001
3.00001
3.00001
3.00001
3.00001
3.00001
3.00001
3.00001
3.00001
3
3
2.99997
3.00003
3.00011
3.00115
3.0011
3.00803
3.00068
3.05573
2.9873
2.93952
2.67622
3.00001
3.00001
3.00001
3.00001
3.00001
3.00001
3.00001
3.00001
3.00001
3.00001
3.00001
3.00001
3.00001
3.00001
3.00001
3.00001
3.00001
3.00001
3.00001
3.00001
3.00001
3.00001
3.00001
3.00001
3.00001
3.00001
3.00001
3.00001
3.00001
3.00001
3.00001
3.00001
3.00001
3.00001
3.00001
3.00001
3.00001
3
3
2.99999
3.00002
3.00003
3.00035
3.00032
3.00184
2.99769
3.01679
2.99074
2.96333
2.86289
3.00001
3.00001
3.00001
3.00001
3.00001
3.00001
3.00001
3.00001
3.00001
3.00001
3.00001
3.00001
3.00001
3.00001
3.00001
3.00001
3.00001
3.00001
3.00001
3.00001
3.00001
3.00001
3.00001
3.00001
3.00001
3.00001
3.00001
3.00001
3.00001
3.00001
3.00001
3.00001
3.00001
3.00001
3.00001
3.00001
3.00001
3.00001
3.00001
3
3.00001
3.00003
3.00022
3.00022
3.00116
2.99924
3.0089
2.99551
2.98131
2.92948
3.00001
3.00001
3.00001
3.00001
3.00001
3.00001
3.00001
3.00001
3.00001
3.00001
3.00001
3.00001
3.00001
3.00001
3.00001
3.00001
3.00001
3.00001
3.00001
3.00001
3.00001
3.00001
3.00001
3.00001
3.00001
3.00001
3.00001
3.00001
3.00001
3.00001
3.00001
3.00001
3.00001
3.00001
3.00001
3.00001
3.00001
3.00001
3.00001
3
3.00001
3.00002
3.00012
3.00013
3.00064
2.99961
3.00485
2.99759
2.99053
2.96166
3.00001
3.00001
3.00001
3.00001
3.00001
3.00001
3.00001
3.00001
3.00001
3.00001
3.00001
3.00001
3.00001
3.00001
3.00001
3.00001
3.00001
3.00001
3.00001
3.00001
3.00001
3.00001
3.00001
3.00001
3.00001
3.00001
3.00001
3.00001
3.00001
3.00001
3.00001
3.00001
3.00001
3.00001
3.00001
3.00001
3.00001
3.00001
3.00001
3.00001
3.00001
3.00001
3.00006
3.00005
3.00027
2.99968
3.00236
2.99858
2.99467
2.98029
3.00001
3.00001
3.00001
3.00001
3.00001
3.00001
3.00001
3.00001
3.00001
3.00001
3.00001
3.00001
3.00001
3.00001
3.00001
3.00001
3.00001
3.00001
3.00001
3.00001
3.00001
3.00001
3.00001
3.00001
3.00001
3.00001
3.00001
3.00001
3.00001
3.00001
3.00001
3.00001
3.00001
3.00001
3.00001
3.00001
3.00001
3.00001
3.00001
3.00001
3
3
2.99998
2.99997
2.99983
2.9998
2.99902
2.9991
2.99665
2.99432
3.00001
3.00001
3.00001
3.00001
3.00001
3.00001
3.00001
3.00001
3.00001
3.00001
3.00001
3.00001
3.00001
3.00001
3.00001
3.00001
3.00001
3.00001
3.00001
3.00001
3.00001
3.00001
3.00001
3.00001
3.00001
3.00001
3.00001
3.00001
3.00001
3.00001
3.00001
3.00001
3.00001
3.00001
3.00001
3.00001
3.00001
3.00001
3.00001
3.00001
3
3
2.99999
2.99998
2.9999
2.99987
2.9994
2.99942
2.99802
2.99653
3.00001
3.00001
3.00001
3.00001
3.00001
3.00001
3.00001
3.00001
3.00001
3.00001
3.00001
3.00001
3.00001
3.00001
3.00001
3.00001
3.00001
3.00001
3.00001
3.00001
3.00001
3.00001
3.00001
3.00001
3.00001
3.00001
3.00001
3.00001
3.00001
3.00001
3.00001
3.00001
3.00001
3.00001
3.00001
3.00001
3.00001
3.00001
3.00001
3.00001
3.00001
3.00001
3.00001
3
3.00003
2.99986
3.00048
2.99954
2.99845
2.995
3.00001
3.00001
3.00001
3.00001
3.00001
3.00001
3.00001
3.00001
3.00001
3.00001
3.00001
3.00001
3.00001
3.00001
3.00001
3.00001
3.00001
3.00001
3.00001
3.00001
3.00001
3.00001
3.00001
3.00001
3.00001
3.00001
3.00001
3.00001
3.00001
3.00001
3.00001
3.00001
3.00001
3.00001
3.00001
3.00001
3.00001
3.00001
3.00001
3.00001
3.00001
3.00001
3
3.00001
2.99996
2.99995
2.99955
2.99957
2.99846
2.9973
1.48413
1.65223
1.68604
1.61244
1.4991
1.36062
1.22724
1.10765
1.06651
1.06025
1.06056
1.05686
1.04766
1.03502
1.01994
1.01029
1.00571
1.00386
1.00288
1.00235
1.00259
1.00438
1.00738
1.01091
1.01439
1.01518
1.00911
0.989927
0.943406
0.836052
0.59892
0.249065
0.132757
0.202423
0.240836
0.288414
0.282828
0.228047
0.166304
0.103408
0.0526374
0.0480824
0.0937469
0.139572
0.183002
0.223249
0.25969
0.292429
0.325291
0.358789
0.391338
0.421987
0.451402
0.479413
0.506846
0.53326
0.559515
0.584858
0.610225
0.634689
0.659246
0.682903
0.706633
0.729447
0.752329
0.774297
0.796238
0.817265
0.8382
0.858179
0.878123
0.897036
0.91607
0.934001
0.952227
0.969309
0.986841
1.00321
1.02011
1.03584
1.05211
1.06723
1.08293
1.09746
1.11261
1.12659
1.14129
1.15489
1.16925
1.18255
1.19658
1.20962
1.22337
1.2361
1.24955
1.26179
1.27455
1.28534
1.29532
1.30061
1.42827
1.53568
1.56817
1.57015
1.57297
1.59797
1.6212
1.61782
1.58796
1.53838
1.48623
1.46101
1.45603
1.45711
1.45729
1.45574
1.45097
1.44497
1.44004
1.43737
1.43658
1.43667
1.43746
1.43843
1.43884
1.43677
1.43035
1.4136
1.37237
1.27934
1.07594
0.713308
0.429463
0.306979
0.229456
0.172986
0.151169
0.186512
0.239393
0.287885
0.331749
0.369779
0.406487
0.441886
0.476457
0.509443
0.540156
0.567974
0.595044
0.62262
0.650843
0.677194
0.702643
0.726704
0.750656
0.773656
0.796758
0.818801
0.841098
0.862453
0.884259
0.905038
0.926231
0.946274
0.9668
0.986191
1.00617
1.02498
1.04438
1.06251
1.08119
1.09857
1.11655
1.13324
1.15059
1.16666
1.18341
1.19887
1.21509
1.23007
1.24593
1.26067
1.27636
1.29098
1.30656
1.3211
1.33653
1.35083
1.366
1.37992
1.39477
1.40826
1.4227
1.43564
1.4496
1.4618
1.47494
1.48554
1.49606
1.50101
1.36201
1.4527
1.52729
1.601
1.68343
1.75889
1.80333
1.80622
1.7995
1.77612
1.7392
1.70262
1.67612
1.6607
1.65317
1.64982
1.64809
1.64628
1.64426
1.64228
1.64072
1.63972
1.63897
1.63832
1.6375
1.63528
1.62981
1.61718
1.58762
1.52093
1.37574
1.07516
0.758435
0.609186
0.507843
0.451738
0.448854
0.487188
0.536371
0.578163
0.610959
0.637335
0.662409
0.687344
0.713201
0.738647
0.763752
0.786162
0.808288
0.83003
0.852902
0.874307
0.895681
0.915692
0.935769
0.95468
0.973961
0.992221
1.0109
1.02847
1.04656
1.06377
1.08172
1.09868
1.11627
1.13255
1.1494
1.16491
1.18114
1.19617
1.21203
1.22675
1.24235
1.25679
1.27217
1.28642
1.30164
1.31576
1.33085
1.34471
1.35955
1.37304
1.38754
1.40075
1.41506
1.42813
1.44239
1.45539
1.46963
1.48251
1.49672
1.50933
1.52345
1.53561
1.54953
1.56096
1.57433
1.58448
1.59539
1.60094
1.32938
1.42106
1.50471
1.58296
1.65833
1.72279
1.78089
1.8275
1.85541
1.86092
1.85944
1.84701
1.82501
1.79942
1.7778
1.76274
1.75489
1.75158
1.75023
1.7495
1.74867
1.74771
1.74671
1.74569
1.74461
1.74279
1.73885
1.73013
1.71069
1.66693
1.57269
1.36099
1.04635
0.795418
0.664221
0.619178
0.630791
0.675007
0.728044
0.773357
0.807312
0.831698
0.849495
0.865257
0.882239
0.899775
0.918873
0.936931
0.954425
0.971254
0.989337
1.00694
1.02483
1.0417
1.0587
1.07454
1.09085
1.10629
1.12242
1.13748
1.15326
1.16798
1.18352
1.19803
1.21334
1.22763
1.24278
1.25691
1.27181
1.28567
1.30006
1.31344
1.3272
1.34004
1.35339
1.36584
1.37908
1.39114
1.40423
1.416
1.42887
1.44045
1.45318
1.46469
1.47749
1.48909
1.50215
1.51393
1.52733
1.53922
1.55295
1.5648
1.57875
1.59033
1.60425
1.6155
1.6287
1.63942
1.65009
1.65665
1.30027
1.38975
1.47174
1.5484
1.62113
1.68867
1.75132
1.80841
1.85876
1.89399
1.91011
1.91108
1.90855
1.89731
1.88028
1.86117
1.84325
1.82955
1.82077
1.81594
1.81378
1.81298
1.81251
1.81191
1.81115
1.80975
1.80682
1.80057
1.78703
1.757
1.69068
1.5483
1.26326
0.925286
0.736895
0.693993
0.71865
0.781523
0.852956
0.910356
0.950597
0.978357
0.999405
1.01425
1.0232
1.03203
1.04257
1.05436
1.06687
1.07804
1.0901
1.10282
1.11712
1.1306
1.1447
1.15788
1.17175
1.1847
1.19842
1.21107
1.22477
1.2375
1.25129
1.26397
1.27751
1.28985
1.30311
1.31523
1.32833
1.34029
1.3532
1.36499
1.37785
1.38963
1.40253
1.41429
1.42724
1.43891
1.45177
1.46317
1.47577
1.48679
1.49918
1.50989
1.52223
1.5328
1.54525
1.55584
1.56853
1.57918
1.59214
1.60298
1.616
1.62713
1.63992
1.65125
1.66347
1.67438
1.68472
1.6915
1.27634
1.36114
1.43955
1.51349
1.5841
1.64995
1.71226
1.76855
1.82078
1.86748
1.90748
1.93251
1.94633
1.94789
1.94642
1.9386
1.92572
1.90929
1.89358
1.88061
1.87181
1.86703
1.86472
1.8637
1.86336
1.8624
1.86025
1.85547
1.8448
1.82116
1.76888
1.65548
1.42907
1.04352
0.780424
0.728898
0.77656
0.85346
0.939092
1.00948
1.05984
1.09111
1.11113
1.12431
1.13295
1.13636
1.13775
1.1407
1.14565
1.15261
1.1604
1.16801
1.17764
1.1887
1.20062
1.21184
1.22366
1.23478
1.24634
1.25719
1.269
1.28022
1.29253
1.30404
1.3166
1.32833
1.34106
1.35287
1.36564
1.37739
1.39015
1.40174
1.41432
1.42567
1.43814
1.44929
1.46169
1.47266
1.48501
1.49578
1.50808
1.51865
1.5308
1.54114
1.55314
1.56333
1.57528
1.58552
1.59745
1.608
1.61993
1.63068
1.6426
1.65354
1.66536
1.67647
1.68807
1.69882
1.70901
1.7157
1.25463
1.3344
1.4096
1.48152
1.55014
1.61494
1.67623
1.73329
1.78684
1.83527
1.88012
1.92014
1.95086
1.97027
1.97942
1.98003
1.97834
1.97133
1.96049
1.94709
1.93324
1.92151
1.91303
1.90786
1.90492
1.90309
1.90068
1.89551
1.88455
1.86113
1.81243
1.70576
1.52105
1.22153
0.946018
0.860274
0.900166
0.951419
1.0149
1.07302
1.12412
1.15969
1.18166
1.1943
1.20255
1.20831
1.21063
1.20979
1.20812
1.20898
1.21251
1.21794
1.224
1.23137
1.24076
1.25133
1.26235
1.27329
1.28382
1.29432
1.30497
1.31577
1.327
1.33784
1.34934
1.3602
1.3719
1.38288
1.39462
1.40563
1.41743
1.42853
1.4405