/*--------------------------------*- C++ -*----------------------------------*\
| =========                 |                                                 |
| \\      /  F ield         | OpenFOAM: The Open Source CFD Toolbox           |
|  \\    /   O peration     | Version:  2112                                  |
|   \\  /    A nd           | Website:  www.openfoam.com                      |
|    \\/     M anipulation  |                                                 |
\*---------------------------------------------------------------------------*/
FoamFile
{
    version     2.0;
    format      ascii;
    arch        "LSB;label=32;scalar=64";
    class       volScalarField;
    location    "2.5005";
    object      p;
}
// * * * * * * * * * * * * * * * * * * * * * * * * * * * * * * * * * * * * * //

dimensions      [1 -1 -2 0 0 0 0];

internalField   nonuniform List<scalar> 
7000
(
0.999998
1
1.00001
1.00001
1.00001
1.00001
1.00001
1.00001
1.00001
1
1.0001
1.00029
1.00103
1.00212
1.00634
1.01157
1.03693
1.05359
1.28703
1.44695
2.90662
5.53082
11.973
11.4018
10.6416
10.4702
10.5273
10.6644
10.803
10.9026
10.9819
11.058
11.1351
11.2117
11.2867
11.3591
11.4287
11.4959
11.5598
11.6209
11.6787
11.7331
11.7844
11.8316
11.8748
11.9142
11.9485
11.9769
12.0008
12.0198
1
1.00001
1.00001
1.00001
1.00001
1.00001
1.00001
1.00001
1.00001
1
1.00009
1.00028
1.00098
1.00201
1.00593
1.01074
1.03409
1.04566
1.28443
1.40413
2.88056
5.38772
11.7978
11.3636
10.6474
10.4741
10.5247
10.6525
10.7919
10.8935
10.9737
11.0501
11.1275
11.2045
11.2799
11.3526
11.4226
11.4901
11.5545
11.6159
11.6741
11.7287
11.7804
11.8277
11.8711
11.9106
11.9449
11.9734
11.9968
12.0151
1
1.00001
1.00001
1.00001
1.00001
1.00001
1.00001
1.00001
1.00001
1.00001
1.0001
1.00029
1.00097
1.00202
1.00584
1.01056
1.03349
1.04474
1.27662
1.39646
2.85291
5.32411
11.7408
11.3288
10.6615
10.4862
10.53
10.647
10.7872
10.8909
10.9716
11.0478
11.1248
11.2014
11.2764
11.3487
11.4184
11.4855
11.5494
11.6105
11.6682
11.7224
11.7735
11.8202
11.8627
11.9012
11.9341
11.9612
11.9825
11.998
1
1.00001
1.00001
1.00001
1.00001
1.00001
1.00001
1.00001
1.00001
1.00002
1.00009
1.0004
1.00093
1.00284
1.00553
1.01678
1.02414
1.02516
1.27522
1.35243
2.84506
5.22918
11.5832
11.2519
10.6687
10.4832
10.5194
10.6264
10.7692
10.8761
10.9581
11.0348
11.112
11.1889
11.2641
11.3364
11.4062
11.4733
11.5372
11.5982
11.6557
11.7096
11.7602
11.806
11.8477
11.8848
11.9162
11.9416
11.9607
11.974
1
1
1.00001
1.00001
1.00001
1.00001
1.00001
1.00001
1.00001
1.00002
1.0001
1.0004
1.00088
1.00267
1.00504
1.01577
1.02383
1.02355
1.26749
1.33392
2.8096
5.12463
11.4465
11.1853
10.6889
10.4889
10.5155
10.6095
10.7543
10.8637
10.9464
11.0229
11.0996
11.1762
11.251
11.3228
11.3921
11.4587
11.522
11.5824
11.6392
11.6923
11.742
11.7865
11.827
11.8625
11.8922
11.916
11.9335
11.9452
1
1
1.00001
1.00001
1.00001
1.00001
1.00001
1.00001
1.00001
1.00003
1.0001
1.00038
1.00085
1.00252
1.00477
1.01478
1.02191
1.02099
1.25622
1.31357
2.76916
5.00334
11.2818
11.1024
10.7013
10.4852
10.5029
10.585
10.7317
10.8444
10.9285
11.0051
11.0816
11.158
11.2325
11.3039
11.3728
11.4388
11.5015
11.5612
11.6171
11.6694
11.7178
11.7611
11.8002
11.8341
11.862
11.8842
11.9001
11.9107
1
1
1.00001
1.00001
1.00001
1.00001
1.00001
1.00001
1.00001
1.00003
1.00009
1.00035
1.00079
1.00231
1.00439
1.01343
1.01954
1.0183
1.24482
1.29218
2.72827
4.86851
11.0961
11.0112
10.7105
10.4779
10.4883
10.5611
10.7065
10.8222
10.9075
10.9837
11.0597
11.1356
11.2094
11.2803
11.3483
11.4135
11.4754
11.5342
11.5891
11.6402
11.6873
11.7292
11.7667
11.7991
11.8254
11.8461
11.8608
11.8707
1
1
1.00001
1.00001
1.00001
1.00001
1.00001
1.00001
1.00001
1.00002
1.00009
1.00032
1.00073
1.00209
1.00397
1.01192
1.01676
1.01496
1.2317
1.26836
2.68298
4.71825
10.866
10.9556
10.6947
10.4616
10.469
10.5364
10.6774
10.7957
10.882
10.9577
11.0329
11.1081
11.1811
11.251
11.3181
11.3822
11.4431
11.5007
11.5543
11.6042
11.6498
11.6902
11.7262
11.7569
11.7817
11.8012
11.8147
11.8238
1
1
1.00001
1.00001
1.00001
1.00001
1.00001
1.00001
1.00001
1.00003
1.00008
1.00031
1.00069
1.002
1.00395
1.01156
1.01549
1.01254
1.21678
1.24164
2.62725
4.55388
10.5943
10.9103
10.6692
10.4371
10.4435
10.5083
10.6458
10.765
10.8515
10.9265
11.0007
11.0748
11.1467
11.2154
11.2813
11.3441
11.4037
11.46
11.5121
11.5604
11.6044
11.6433
11.6778
11.7069
11.7303
11.7486
11.7612
11.77
1
1
1.00001
1.00001
1.00001
1.00001
1.00001
1.00001
1.00001
1.00002
1.00007
1.00027
1.0006
1.00172
1.00343
1.00992
1.01266
1.0103
1.2004
1.21471
2.5691
4.37392
10.2723
10.8665
10.6439
10.407
10.4124
10.4756
10.6111
10.7299
10.8158
10.8896
10.9624
11.0351
11.1054
11.1725
11.2369
11.298
11.356
11.4109
11.4614
11.508
11.5503
11.5874
11.6203
11.6479
11.6701
11.6874
11.6992
11.7075
1
1
1
1.00001
1.00001
1.00001
1.00001
1.00001
1.00001
1.00002
1.00007
1.00024
1.00053
1.0015
1.00274
1.00833
1.01007
1.01154
1.17918
1.18708
2.5055
4.17072
9.89113
10.8174
10.6152
10.3715
10.3759
10.4385
10.573
10.6904
10.7747
10.8468
10.9179
10.9886
11.0569
11.122
11.1843
11.2435
11.2994
11.3522
11.4009
11.4456
11.4861
11.5215
11.5528
11.5788
11.5996
11.616
11.6271
11.6354
1
1
1
1
1.00001
1.00001
1.00001
1.00001
1.00001
1.00002
1.00007
1.00017
1.00052
1.00115
1.00276
1.00662
1.01494
1.01008
1.17617
1.17662
2.4312
3.95279
9.4485
10.7589
10.5794
10.3304
10.3345
10.3973
10.5314
10.6464
10.7282
10.7981
10.8668
10.935
11.0006
11.0631
11.1229
11.1795
11.233
11.2832
11.3295
11.3719
11.41
11.4434
11.4728
11.4973
11.5167
11.532
11.5423
11.5501
1
1
1
1
1.00001
1.00001
1.00001
1.00001
1.00001
1.00002
1.00007
1.00016
1.0005
1.00097
1.00277
1.00638
1.01323
1.02073
1.15413
1.16317
2.34069
3.68468
8.95025
10.7062
10.5463
10.2875
10.2909
10.3528
10.4854
10.5976
10.6766
10.7438
10.8096
10.8746
10.9368
10.9958
11.0522
11.1054
11.1556
11.2029
11.2459
11.2856
11.3209
11.3516
11.3786
11.401
11.4188
11.433
11.4427
11.4508
1
1
1
1
1
1
1
1
1.00001
1.00002
1.00006
1.00014
1.00043
1.00081
1.00257
1.00552
1.01346
1.02076
1.13853
1.16753
2.20563
3.44398
8.3462
10.661
10.5195
10.249
10.2498
10.3082
10.4359
10.5446
10.6202
10.6839
10.746
10.807
10.8651
10.92
10.9719
11.0208
11.0667
11.1097
11.1487
11.1841
11.2159
11.2429
11.2669
11.2865
11.3019
11.3143
11.3229
11.3304
1
1
1
1
1
1
1
1
1.00001
1.00002
1.00006
1.00013
1.00039
1.00073
1.00222
1.00375
1.01329
1.02168
1.12265
1.14644
2.09912
3.13858
7.62861
10.6131
10.4818
10.212
10.2051
10.2609
10.3834
10.4876
10.5593
10.6189
10.6764
10.7323
10.7852
10.835
10.8815
10.9249
10.9652
11.0026
11.0363
11.0662
11.0925
11.1146
11.1336
11.1491
11.1611
11.1707
11.1776
11.1852
1
1
1
1
1
1
1
1
1.00001
1.00002
1.00006
1.00012
1.00036
1.00067
1.00201
1.00336
1.01234
1.01607
1.10399
1.09745
2.01724
2.79424
6.85736
10.6394
10.4968
10.2077
10.1622
10.2112
10.3227
10.4242
10.4935
10.5487
10.6006
10.6505
10.6973
10.7405
10.7804
10.8168
10.85
10.8798
10.906
10.9284
10.9472
10.9618
10.9735
10.9821
10.9875
10.9923
10.9958
11.0018
1
1
1
1
1
1
1
1
1.00001
1.00002
1.00008
1.00016
1.00048
1.00093
1.00276
1.00508
1.01599
1.02304
1.0263
1.27383
1.39269
2.81109
5.37238
10.6211
10.5745
10.3034
10.1555
10.1811
10.2615
10.3616
10.4281
10.4766
10.5207
10.5629
10.6021
10.6374
10.6688
10.6963
10.7202
10.7404
10.7563
10.7682
10.776
10.7789
10.7787
10.7763
10.7709
10.7655
10.7618
10.7656
1
1
1
1
1
1
1
1
1.00001
1.00002
1.00005
1.00011
1.00032
1.0006
1.00187
1.00351
1.01028
1.01437
1.02059
1.20745
1.2372
2.60921
4.48533
10.1764
10.5359
10.3244
10.1228
10.1301
10.1822
10.2807
10.3479
10.3926
10.4308
10.4662
10.4975
10.5236
10.545
10.5621
10.5744
10.5819
10.584
10.5816
10.5739
10.5594
10.5401
10.5168
10.4903
10.4653
10.4441
10.4379
1
1
1
1
1
1
1
1
1.00001
1.00001
1.00003
1.00008
1.00012
1.00062
1.00066
1.00566
1.01388
1.01475
1.02135
1.16275
1.21122
2.36184
3.84969
9.11364
10.408
10.2833
10.0665
10.0578
10.0959
10.1809
10.2509
10.2944
10.3268
10.3547
10.378
10.3954
10.4069
10.4119
10.4106
10.4041
10.3889
10.3653
10.3342
10.2941
10.2455
10.1872
10.1208
10.0503
9.98356
9.9427
1
1
1
1
1
1
1
1
1
1.00001
1.00002
1.00005
1.00007
1.0003
1.00031
1.00257
1.00431
1.0145
1.01646
1.13177
1.12544
2.19527
3.27053
7.95176
10.3612
10.2779
10.0679
9.98064
10.0019
10.0625
10.132
10.1757
10.2035
10.2243
10.2394
10.2477
10.2476
10.2421
10.2265
10.1986
10.1613
10.1134
10.0516
9.97411
9.878
9.76088
9.61831
9.45011
9.25947
9.06196
1
1
1
1
1
1
1
1
1
1
1.00002
1.00003
1.00008
1.0001
1.00088
1.00098
1.00731
1.01814
1.0277
1.02669
1.30662
1.40648
2.98707
5.77779
10.3678
10.3785
10.1696
9.9487
9.92408
9.94677
9.99747
10.0357
10.0554
10.0651
10.0675
10.0643
10.0523
10.0258
9.98607
9.93496
9.86959
9.78639
9.6799
9.54409
9.3697
9.14008
8.82692
8.36917
7.648
6.16446
1
1
1
1
1
1
1
1
1
1
1.00001
1.00001
1.00004
1.00005
1.00044
1.0005
1.00308
1.00671
1.01273
1.00891
1.204
1.20507
2.57114
4.33108
9.83238
10.328
10.127
9.83582
9.75099
9.76519
9.80508
9.84563
9.86149
9.86094
9.85504
9.83786
9.80229
9.75214
9.68906
9.60946
9.50918
9.38273
9.22326
9.02031
8.75871
8.41456
7.95126
7.31187
6.44477
5.05965
1
1
1
1
1
1
1
1
1
1
1.00001
1.00001
1.00004
1.00004
1.00038
1.0004
1.00286
1.00616
1.01415
1.01447
1.15572
1.15242
2.29159
3.47541
8.31515
10.0617
9.93458
9.65026
9.53365
9.5435
9.57773
9.61968
9.63208
9.62789
9.61186
9.57568
9.51906
9.44952
9.36421
9.25793
9.12601
8.96283
8.76118
8.51117
8.19925
7.80815
7.3169
6.6974
5.96002
5.00541
1
1
1
1
1
1
1
1
1
1
1
1
1.00003
1.00004
1.00025
1.00026
1.00207
1.00381
1.011
1.01187
1.10723
1.09646
1.99631
2.64814
6.42024
9.73013
9.71793
9.55808
9.37736
9.3568
9.37291
9.40598
9.4109
9.4015
9.3724
9.31293
9.23835
9.15145
9.04692
8.91936
8.76445
8.57761
8.35304
8.08392
7.76195
7.37826
6.92492
6.39182
5.7909
5.0524
1
1
1
1
1
1
1
1
1
1
1
1.00001
1.00002
1.00002
1.00019
1.00019
1.00161
1.0035
1.00743
1.01123
1.07421
1.08811
1.62093
2.00945
4.57212
8.92446
9.62951
9.51182
9.28665
9.21229
9.21476
9.22234
9.21724
9.19602
9.1466
9.06887
8.98001
8.87919
8.76015
8.61848
8.45048
8.25328
8.02292
7.7557
7.44716
7.09369
6.69237
6.23961
5.74457
5.15726
1
1
1
1
1
1
1
1
1
1
1
1
1.00001
1.00004
1.00006
1.0003
1.00029
1.00253
1.00458
1.0135
1.01454
1.1323
1.12496
2.14689
3.09385
7.28336
9.41884
9.3982
9.26224
9.09885
9.05085
9.04594
9.03259
8.99851
8.93002
8.84335
8.74485
8.63476
8.50623
8.35807
8.18539
7.98709
7.76134
7.50632
7.21999
6.90076
6.54782
6.15916
5.74211
5.25501
1
1
1
1
1
1
1
1
1
1
1
1
1.00001
1.00002
1.00002
1.00023
1.00022
1.00184
1.00378
1.00909
1.00914
1.08916
1.08781
1.6901
2.10123
4.65472
8.81425
9.30924
9.20716
9.00327
8.91256
8.88678
8.86024
8.81001
8.73634
8.64675
8.54407
8.42727
8.29227
8.13943
7.9653
7.7703
7.55297
7.31276
7.04907
6.76067
6.44736
6.10722
5.74424
5.3258
1
1
1
1
1
1
1
1
1
1
1
1
1
1.00001
1.00002
1.00009
1.0001
1.00089
1.00136
1.0055
1.00652
1.04559
1.03966
1.44454
1.62729
3.60447
7.10889
9.01136
9.07955
8.98709
8.82434
8.7435
8.6958
8.63908
8.56209
8.46859
8.36047
8.23908
8.10237
7.94976
7.78023
7.59339
7.38885
7.16561
6.92282
6.6606
6.37849
6.07503
5.75258
5.38789
1
1
1
1
1
1
1
1
1
1
1
1
1
1.00001
1.00001
1.0001
1.00018
1.00074
1.00094
1.00627
1.01413
1.02091
1.0183
1.20895
1.20975
2.4683
3.90642
8.24869
9.01333
8.95156
8.80664
8.65325
8.56058
8.48742
8.40542
8.30876
8.19774
8.0744
7.93767
7.78731
7.62272
7.44336
7.24933
7.04022
6.81587
6.5761
6.32059
6.04844
5.76233
5.43916
1
1
1
1
1
1
1
1
1
1
1
1
1
1
1.00001
1.00002
1.00011
1.00015
1.00103
1.00247
1.00483
1.01764
1.02598
1.02156
1.35193
1.44922
3.12869
5.9269
8.5317
8.84435
8.75867
8.57752
8.43931
8.34595
8.2604
8.16426
8.05397
7.93088
7.79571
7.64874
7.48977
7.31889
7.13549
6.9397
6.73125
6.51019
6.27583
6.02722
5.76666
5.47575
1
1
1
1
1
1
1
1
1
1
1
1
1
1
1.00001
1.00002
1.00005
1.00009
1.00044
1.00063
1.00327
1.00802
1.01435
1.02223
1.14953
1.17577
2.21038
3.27844
7.26872
8.59858
8.612
8.52489
8.34574
8.20923
8.11315
8.02179
7.91746
7.79838
7.66659
7.52383
7.37068
7.20738
7.03384
6.85011
6.65624
6.45218
6.23835
6.01325
5.77692
5.51134
1
1
1
1
1
1
1
1
1
1
1
1
1
1
1
1.00001
1.00002
1.0001
1.00021
1.00067
1.00082
1.00625
1.0154
1.01564
1.02398
1.19759
1.24501
2.4344
3.88382
7.82602
8.53671
8.48691
8.34837
8.1597
8.02271
7.91313
7.80341
7.68319
7.55197
7.41147
7.26281
7.10627
6.94181
6.7693
6.58858
6.39947
6.2015
5.99351
5.7763
5.53297
1
1
1
1
1
1
1
1
1
1
1
1
1
1
1
1
1.00001
1.00002
1.00009
1.00011
1.00075
1.0018
1.00221
1.0101
1.02129
1.0174
1.31684
1.36825
2.93185
5.36627
7.98956
8.37134
8.30761
8.14567
7.97071
7.82929
7.70473
7.5797
7.44792
7.30919
7.16442
7.01412
6.85807
6.69604
6.52743
6.35195
6.16882
5.97679
5.7769
5.55259
1
1
1
1
1
1
1
1
1
1
1
1
1
1
1
1
1
1.00002
1.00002
1.00012
1.00011
1.00109
1.00223
1.00518
1.00626
1.04703
1.03926
1.44498
1.58159
3.41762
6.3552
7.91489
8.1305
8.06251
7.89535
7.71046
7.56734
7.44535
7.32428
7.19689
7.06272
6.923
6.77814
6.62821
6.47266
6.31101
6.14251
5.96555
5.78067
5.57359
1
1
1
1
1
1
1
1
1
1
1
1
1
1
1
1
1
1.00001
1.00001
1.00012
1.00037
1.0005
1.00042
1.00532
1.0127
1.01342
1.00689
1.17035
1.15349
2.241
3.13087
6.71022
7.7821
7.86731
7.79805
7.63845
7.45791
7.31798
7.20051
7.08631
6.96642
6.84004
6.70794
6.57069
6.42841
6.2803
6.1268
5.96532
5.79126
5.59843
1
1
1
1
1
1
1
1
1
1
1
1
1
1
1
1
1.00001
1.00002
1.00002
1.00002
1.00022
1.00047
1.0008
1.00075
1.00621
1.01494
1.01471
1.0197
1.18604
1.20055
2.28558
3.32603
6.69021
7.62007
7.65114
7.58492
7.43579
7.26215
7.12554
7.01196
6.90364
6.7912
6.6721
6.54632
6.4143
6.27672
6.12951
5.9728
5.81038
5.6298
1
1
1
1
1
1
1
1
1
1
1
1
1
1
1
1
1
1
1.00001
1.00001
1.00005
1.00007
1.0003
1.00034
1.00193
1.0022
1.01112
1.02084
1.07261
1.07186
1.64117
1.80868
3.90061
6.70518
7.42819
7.45658
7.39946
7.26332
7.11862
6.99475
6.88224
6.77164
6.65826
6.53995
6.41486
6.28072
6.13979
5.99243
5.84046
5.66882
1
1
1
1
1
1
1
1
1
1
1
1
1
1
1
1
1
1
1
1.00001
1.00001
1.00004
1.00008
1.00028
1.00032
1.00213
1.00475
1.00893
1.00979
1.08219
1.0745
1.70747
1.83993
4.22939
6.64279
7.24797
7.29836
7.25305
7.13962
7.01049
6.88975
6.77483
6.66059
6.54317
6.42037
6.29134
6.15686
6.01676
5.87078
5.70642
1
1
1
1
1
1
1
1
1
1
1
1
1
1
1
1
1
1
1
1
1.00001
1.00003
1.00004
1.00021
1.00039
1.00082
1.001
1.00487
1.00914
1.02425
1.04691
1.23801
1.27439
2.42441
4.02555
6.36109
7.07879
7.20514
7.17622
7.09299
6.94339
6.80776
6.68492
6.56471
6.443
6.31807
6.18689
6.04657
5.90036
5.73767
1
1
1
1
1
1
1
1
1
1
1
1
1
1
1
1
1
1
1
1
1
1.00001
1.00003
1.00004
1.00016
1.00023
1.0009
1.00118
1.0052
1.00608
1.03165
1.02746
1.22873
1.25086
2.27337
3.71339
6.09825
6.97179
7.12401
7.09421
7.01213
6.87682
6.73594
6.6004
6.46844
6.33803
6.20768
6.07435
5.9358
5.77916
1
1
1
1
1
1
1
1
1
1
1
1
1
1
1
1
1
1
1
1
1
1
1.00001
1.00001
1.00005
1.00008
1.00026
1.00036
1.00185
1.00337
1.0088
1.00811
1.0732
1.06807
1.66281
1.76232
3.61203
5.92715
6.81787
6.97359
6.94712
6.86192
6.72349
6.58798
6.45624
6.32782
6.20019
6.06984
5.93474
5.784
1
1
1
1
1
1
1
1
1
1
1
1
1
1
1
1
1
1
1
1
1
1
1
1.00001
1.00002
1.00007
1.00018
1.00023
1.00025
1.00213
1.00576
1.00731
1.02822
1.04969
1.06019
1.5854
1.69379
3.38201
5.73709
6.56363
6.76167
6.75003
6.6845
6.55697
6.42114
6.29586
6.17557
6.05388
5.92846
5.78538
1
1
1
1
1
1
1
1
1
1
1
1
1
1
1
1
1
1
1
1
1
1
1
1.00001
1.00001
1.00003
1.00004
1.00016
1.00023
1.00082
1.00115
1.00457
1.00505
1.02793
1.04526
1.16775
1.17144
2.06836
2.67003
5.14526
6.22143
6.51442
6.55054
6.51318
6.42182
6.29861
6.1774
6.05571
5.93204
5.79304
1
1
1
1
1
1
1
1
1
1
1
1
1
1
1
1
1
1
1
1
1
1
1
1
1
1.00002
1.00004
1.00005
1.00006
1.00045
1.0011
1.00151
1.00187
1.01174
1.02737
1.03665
1.05879
1.40018
1.45661
2.67313
4.30224
5.69578
6.23994
6.39103
6.37721
6.32276
6.20746
6.08266
5.95942
5.82295
1
1
1
1
1
1
1
1
1
1
1
1
1
1
1
1
1
1
1
1
1
1
1
1
1
1
1.00001
1.00001
1.00003
1.00005
1.00017
1.00026
1.00099
1.00079
1.00693
1.014
1.02952
1.02523
1.28663
1.27857
2.22883
3.32862
5.17861
5.97893
6.22664
6.25257
6.22191
6.14888
6.03164
5.8934
1
1
1
1
1
1
1
1
1
1
1
1
1
1
1
1
1
1
1
1
1
1
1
1
1
1
1
1.00001
1.00001
1.00001
1.00011
1.00024
1.00031
1.00025
1.00249
1.0055
1.00692
1.02759
1.05179
1.04643
1.53979
1.57444
2.88338
4.45039
5.51843
5.97563
6.11333
6.09648
6.05561
5.93601
1
1
1
1
1
1
1
1
1
1
1
1
1
1
1
1
1
1
1
1
1
1
1
1
1
1
1
1
1.00001
1.00001
1.00003
1.00004
1.00015
1.00023
1.00079
1.00071
1.00239
1.00387
1.00113
1.047
1.12608
1.12125
1.6933
1.90284
3.32622
4.96875
5.66985
5.91234
5.9373
5.90212
1
1
1
1
1
1
1
1
1
1
1
1
1
1
1
1
1
1
1
1
1
1
1
1
1
1
1
1
1
1
1
1.00003
1.00006
1.00007
1.00006
1.00062
1.00137
1.0019
1.00248
1.01056
1.02062
1.05658
1.05744
1.49109
1.52555
2.66037
4.02962
5.09273
5.56421
5.69468
1
1
1
1
1
1
1
1
1
1
1
1
1
1
1
1
1
1
1
1
1
1
1
1
1
1
1
1
1
1
1
1
1.00001
1.00002
1.00003
1.00009
1.00014
1.00042
1.00025
1.00138
1.00081
0.997057
1.04814
1.11186
1.09307
1.58068
1.75645
2.8044
4.22266
4.9696
1
1
1
1
1
1
1
1
1
1
1
1
1
1
1
1
1
1
1
1
1
1
1
1
1
1
1
1
1
1
1
1
1
1.00001
1.00001
1.00004
1.00005
1.00019
1.00023
1.00097
1.00103
1.00504
1.00446
1.02579
1.03565
1.12536
1.11144
1.49582
1.88728
2.63493
1
1
1
1
1
1
1
1
1
1
1
1
1
1
1
1
1
1
1
1
1
1
1
1
1
1
1
1
1
1
1
1
1
1
1
1
1
0.999999
0.999997
0.999945
1
0.99983
0.999286
1.00787
1.01846
1.01423
1.04167
1.06773
0.991977
1.70935
1
1
1
1
1
1
1
1
1
1
1
1
1
1
1
1
1
1
1
1
1
1
1
1
1
1
1
1
1
1
1
1
1
1
1
1
1
1.00001
1.00001
1.00003
1.00005
1.00009
0.999264
0.998108
0.997637
0.986801
0.989628
0.987762
0.950144
1.29487
1
1
1
1
1
1
1
1
1
1
1
1
1
1
1
1
1
1
1
1
1
1
1
1
1
1
1
1
1
1
1
1
1
1
1
1
1
1
1
1.00001
1.00002
1.00004
0.99974
0.999431
0.999416
0.997271
0.99907
0.999696
0.986601
1.12761
1
1
1
1
1
1
1
1
1
1
1
1
1
1
1
1
1
1
1
1
1
1
1
1
1
1
1
1
1
1
1
1
1
1
1
1
1
1
1
1
1.00001
1.00002
0.999853
0.999632
0.999647
0.998161
0.999006
0.999243
0.993425
1.06404
1
1
1
1
1
1
1
1
1
1
1
1
1
1
1
1
1
1
1
1
1
1
1
1
1
1
1
1
1
1
1
1
1
1
1
1
1
1
1
1
1.00001
1.00001
0.99992
0.9998
0.999806
0.99899
0.999433
0.999505
0.996142
1.03459
1
1
1
1
1
1
1
1
1
1
1
1
1
1
1
1
1
1
1
1
1
1
1
1
1
1
1
1
1
1
1
1
1
1
1
1
1
1
1
1
1
1.00001
0.999964
0.999917
0.999915
0.999612
0.999881
0.999997
0.998486
1.01785
1
1
1
1
1
1
1
1
1
1
1
1
1
1
1
1
1
1
1
1
1
1
1
1
1
1
1
1
1
1
1
1
1
1
1
1
1
1
1
1
1
1.00001
1.00001
1.00005
1.00007
1.00028
1.00036
1.00151
1.00226
1.00252
1
1
1
1
1
1
1
1
1
1
1
1
1
1
1
1
1
1
1
1
1
1
1
1
1
1
1
1
1
1
1
1
1
1
1
1
1
1
1
1
1
1.00001
1.00001
1.00003
1.00004
1.00019
1.00021
1.00102
1.00139
1.00133
1
1
1
1
1
1
1
1
1
1
1
1
1
1
1
1
1
1
1
1
1
1
1
1
1
1
1
1
1
1
1
1
1
1
1
1
1
1
1
1
1
1
1
1
1.00001
0.999979
1.00009
1.0002
0.999833
1.00447
1
1
1
1
1
1
1
1
1
1
1
1
1
1
1
1
1
1
1
1
1
1
1
1
1
1
1
1
1
1
1
1
1
1
1
1
1
1
1
1
1
1
1
1.00001
1.00001
0.999988
1.00033
1.0008
1.0011
1.00105
1.96226
0.983363
0.655108
0.562532
0.578824
0.639104
0.777314
1.03575
1.17061
1.19948
1.1986
1.20046
1.20777
1.22537
1.25941
1.2841
1.29691
1.30273
1.30651
1.31061
1.31537
1.32033
1.32458
1.32829
1.33244
1.34054
1.35711
1.39188
1.46683
1.6328
2.01578
2.91384
3.81103
3.81248
3.82117
3.86419
3.95832
4.10444
4.28827
4.44915
4.56975
4.68612
4.76017
4.80971
4.83783
4.8501
4.84925
4.84376
4.82873
4.79919
4.76347
4.72412
4.68104
4.63519
4.58665
4.53677
4.48533
4.43302
4.37906
4.3238
4.26666
4.20821
4.14844
4.08805
4.0271
3.96608
3.90498
3.84409
3.78339
3.72308
3.6632
3.60388
3.54523
3.48732
3.4303
3.37414
3.31901
3.26471
3.21138
3.15884
3.1073
3.05656
3.00678
2.95771
2.90964
2.86247
2.81632
2.77084
2.72624
2.6823
2.63927
2.59691
2.55546
2.51468
2.47489
2.43594
2.39852
2.36315
2.33229
2.30927
2.59891
1.56152
1.15138
1.00413
0.96524
0.957895
0.946736
0.960087
0.995375
1.06784
1.17403
1.24034
1.26361
1.26401
1.26528
1.26884
1.27666
1.29201
1.30568
1.31544
1.32154
1.32496
1.32718
1.32885
1.33174
1.33762
1.35023
1.37787
1.43919
1.57731
1.89113
2.61987
3.79245
3.86636
3.83956
3.86346
3.94834
4.09158
4.25148
4.40785
4.54033
4.65049
4.72887
4.78098
4.81087
4.82469
4.82461
4.82182
4.81216
4.78962
4.7501
4.70956
4.66777
4.62404
4.57752
4.52889
4.4781
4.42589
4.37203
4.31687
4.26012
4.20209
4.14286
4.08287
4.02236
3.96161
3.90086
3.84016
3.77974
3.71958
3.65995
3.60075
3.5423
3.48447
3.42759
3.37147
3.31642
3.26221
3.2091
3.15659
3.10532
3.05476
3.00526
2.95645
2.90866
2.86137
2.81508
2.76947
2.72494
2.68103
2.63814
2.59579
2.55446
2.51363
2.47391
2.43483
2.3973
2.36147
2.32973
2.30561
3.47837
2.54648
1.94683
1.54552
1.27805
1.09487
0.972192
0.961895
0.971447
1.00045
1.0624
1.13863
1.20388
1.24927
1.27342
1.2856
1.29216
1.29741
1.30347
1.30952
1.31469
1.31895
1.32251
1.32552
1.32874
1.33328
1.34269
1.36297
1.40769
1.50891
1.73964
2.27572
3.4742
3.91317
4.00595
4.05891
4.12782
4.20628
4.29614
4.39761
4.4922
4.59074
4.67574
4.73806
4.77377
4.79002
4.79001
4.78789
4.78071
4.7637
4.72919
4.69001
4.64942
4.60751
4.56319
4.51626
4.4666
4.41487
4.36135
4.30638
4.25007
4.19259
4.13411
4.07476
4.01492
3.95465
3.89439
3.83404
3.77403
3.71417
3.6549
3.59598
3.53789
3.48036
3.42383
3.36791
3.31309
3.25906
3.20618
3.15405
3.10286
3.05225
3.00279
2.95393
2.9062
2.859
2.81293
2.76741
2.72303
2.67915
2.63639
2.59403
2.55282
2.51194
2.47231
2.4331
2.39549
2.35923
2.3264
2.30096
3.94028
3.1188
2.47445
1.98731
1.64632
1.40987
1.25788
1.14608
1.08056
1.069
1.07358
1.09009
1.12591
1.17768
1.22726
1.26868
1.29329
1.30517
1.31056
1.31328
1.31595
1.31903
1.32225
1.32542
1.3287
1.33209
1.33869
1.35245
1.3823
1.4481
1.59724
1.93324
2.70319
3.89113
4.39075
4.47866
4.47546
4.45738
4.41523
4.40509
4.41828
4.45821
4.53899
4.62422
4.68596
4.72303
4.73613
4.73541
4.7314
4.72083
4.69809
4.66286
4.62316
4.58221
4.53975
4.49486
4.44704
4.39666
4.34428
4.29022
4.23493
4.17839
4.12095
4.06248
4.0035
3.94392
3.88434
3.82454
3.76508
3.70568
3.64687
3.58834
3.53062
3.47344
3.41737
3.36193
3.30753
3.25363
3.20092
3.14884
3.09791
3.04751
2.99829
2.9496
2.9021
2.85508
2.80924
2.76383
2.71964
2.67581
2.6332
2.59089
2.54983
2.50901
2.46948
2.4303
2.39262
2.35615
2.32278
2.29591
4.25081
3.53388
2.92118
2.41758
2.03113
1.74029
1.52183
1.36111
1.23548
1.15377
1.10713
1.10715
1.11178
1.12616
1.15686
1.1952
1.23442
1.27007
1.29421
1.30882
1.31649
1.31976
1.32136
1.32282
1.32455
1.32695
1.33169
1.34147
1.36246
1.40864
1.51261
1.7502
2.2988
3.55073
4.89003
5.0767
5.01186
4.84588
4.60224
4.44893
4.39196
4.39462
4.41101
4.45273
4.53326
4.60447
4.64922
4.66928
4.66946
4.6664
4.65624
4.63384
4.59725
4.55662
4.51405
4.46971
4.42324
4.37447
4.32374
4.27114
4.21727
4.16199
4.10574
4.04827
3.99021
3.93141
3.87256
3.81341
3.75461
3.69582
3.63759
3.57974
3.52277
3.46615
3.41048
3.35529
3.30125
3.24767
3.19528
3.14339
3.09273
3.04254
2.99355
2.94501
2.89772
2.85075
2.80521
2.7598
2.71589
2.6721
2.62965
2.58744
2.54645
2.50578
2.46625
2.4272
2.38943
2.35285
2.31917
2.29118
4.48499
3.85973
3.29739
2.80296
2.3949
2.06826
1.81207
1.61268
1.45771
1.33803
1.24118
1.18425
1.14853
1.14616
1.14935
1.15978
1.18215
1.21378
1.24779
1.27988
1.30296
1.31731
1.32447
1.32747
1.32814
1.32955
1.33274
1.33995
1.35617
1.39258
1.47455
1.66198
2.09411
3.09022
5.19785
5.76308
5.63872
5.33475
4.902
4.62635
4.45168
4.37061
4.35645
4.35996
4.37857
4.42317
4.49166
4.54515
4.5805
4.59177
4.59003
4.58264
4.56477
4.52924
4.48724
4.44147
4.39459
4.34671
4.29769
4.24715
4.19534
4.14195
4.0873
4.03113
3.97415
3.91622
3.85812
3.79962
3.74143
3.68335
3.62605
3.56885
3.51249
3.45641
3.40125
3.34647
3.29283
3.2396
3.18756
3.13592
3.08554
3.03556
2.98682
2.93851
2.89141
2.84471
2.79927
2.75422
2.71029
2.66682
2.6244
2.58248
2.54155
2.50114
2.46167
2.42283
2.38511
2.34852
2.31478
2.28613
4.66294
4.11601
3.60635
3.1346
2.72313
2.37758
2.0943
1.86412
1.67863
1.52769
1.40962
1.31028
1.23698
1.19302
1.16612
1.1662
1.16918
1.17827
1.19756
1.22306
1.25223
1.2803
1.30164
1.31567
1.32372
1.32795
1.33166
1.33927
1.35547
1.39053
1.4672
1.63458
2.00072
2.81502
4.57204
6.05032
5.99393
5.77641
5.34507
5.00577
4.68859
4.49025
4.36948
4.32014
4.30935
4.31398
4.33379
4.37794
4.43931
4.48047
4.50734
4.50777
4.5039
4.4912
4.46327
4.41791
4.36906
4.31984
4.27055
4.22096
4.1708
4.11942
4.06658
4.01206
3.95638
3.8995
3.84216
3.7845
3.72726
3.67004
3.61349
3.55713
3.50149
3.44609
3.39153
3.33727
3.28405
3.2312
3.17951
3.12819
3.07811
3.02841
2.97994
2.93187
2.88498
2.83857
2.79319
2.7485
2.70457
2.66147
2.61902
2.57744
2.53648
2.49637
2.45692
2.41829
2.38061
2.34406
2.3103
2.28122
4.80422
4.31903
3.8584
3.41627
3.01376
2.66231
2.36313
2.11226
1.90401
1.73128
1.58927
1.47199
1.37545
1.29505
1.23966
1.20595
1.18428
1.18434
1.1868
1.19428
1.21008
1.23248
1.2586
1.2846
1.30544
1.32088
1.33328
1.34536
1.36958
1.41976
1.5244
1.74311
2.18981
3.08814
3.87504
4.9443
5.63988
5.63149
5.54286
5.32134
5.02258
4.75439
4.52147
4.37692
4.29296
4.26315
4.25925
4.26462
4.28379
4.32511
4.37591
4.40681
4.41879
4.41671
4.40797
4.3869
4.34419
4.29566
4.24429
4.19347
4.1434
4.09316
4.04191
3.98927
3.93518
3.87964
3.82357
3.767
3.71073
3.65452
3.59883
3.54334
3.48846
3.43381
3.3799
3.32623
3.27353
3.22111
3.16983
3.11886
3.06911
3.0197
2.9715
2.9237
2.87701
2.8309
2.78564
2.74126
2.69745
2.65467
2.61233
2.57108
2.5302
2.49041
2.45106
2.41271
2.37515
2.33874
2.30506
2.27578
4.91685
4.48002
4.06203
3.65116
3.26474
2.91653
2.61078
2.34731
2.1229
1.93267
1.77219
1.6372
1.52277
1.42959
1.34769
1.28398
1.23867
1.21129
1.1943
1.19446
1.19683
1.20371
1.21817
1.23879
1.26358
1.29064
1.31719
1.34615
1.38941
1.47702
1.65533
2.01746
2.75429
3.25424
3.58852
4.03511
4.61753
5.16838
5.36093
5.32845
5.2137
4.97261
4.7577
4.56237
4.39074
4.28807
4.23309
4.21153
4.20698
4.21194
4.22826
4.26254
4.3005
4.31965
4.31909
4.31441
4.30065
4.27087
4.22193
4.17023
4.11833
4.06697
4.01576
3.96426
3.9116
3.85766
3.80308
3.74792
3.69286
3.63776
3.58309
3.52854
3.47455
3.42069
3.36754
3.31451
3.26241
3.21049
3.15967
3.1091
3.05971
3.01062
2.96271
2.9152
2.86874
2.8229
2.77787
2.7337
2.69013
2.64756
2.60546
2.56441
2.52375
2.48416
2.445
2.40684
2.36946
2.33316
2.29961
2.27021
5.00513
4.60775
4.22674
3.84622
3.48012
3.14142
2.8364
2.56702
2.33236
2.1295
1.95504
1.80552
1.67726
1.56811
1.47435
1.39542
1.32692
1.27586
1.23878
1.21552
1.20334
1.20376
1.20687
1.21516
1.23245
1.25909
1.29431
1.34525
1.42344
1.57985
1.89513
2.54181
3.09168
3.32459
3.46942
3.63715
3.88261
4.23551
4.66513
4.97865
5.03097
4.99878
4.90532
4.71887
4.56531
4.42745
4.29455
4.21474
4.17658
4.15469
4.14624
4.15027
4.16344
4.19126
4.2136
4.21962
4.21741
4.20886
4.18846
4.1472
4.09666
4.04319
3.98982
3.9373
3.88507
3.83231
3.77929
3.72572
3.67227
3.61858
3.56525
3.5118
3.45887
3.40585
3.35354
3.30119
3.24976
3.19839
3.14808
3.09794
3.04894
3.00022
2.95261
2.90541
2.85924
2.81363
2.76892
2.72492
2.6817
2.63928
2.59754
2.55664
2.51636
2.47691
2.43812
2.40009
2.36304
2.32683
2.29353
2.2641
5.07583
4.70892
4.35928
4.00682
3.6624
3.3374
3.03846
2.76897
2.52923
2.31821
2.13345
1.97241
1.83226
1.71057
1.60495
1.51334
1.43479
1.36651
1.30881
1.26596
1.23678
1.21647
1.21588
1.21831
1.22653
1.24553
1.28456
1.35577
1.49043
1.74834
2.26885
2.94708
3.22508
3.34157
3.4093
3.45204
3.52721
3.66093
3.87415
4.15989
4.4769
4.7212
4.77005
4.74671
4.68089
4.54468
4.42045
4.3123
4.21266
4.14517
4.11024
4.08464
4.076
4.07945
4.08921
4.10758
4.11868
4.11786
4.1131
4.09978
4.07102
4.02215
3.96858
3.91318
3.85893
3.80551
3.75315
3.7009
3.64918
3.5972
3.54554
3.49347
3.4418
3.38978
3.33838
3.2868
3.23607
3.18532
3.13557
3.08597
3.03742
2.98913
2.9419
2.89504
2.84921
2.80386
2.75951
2.7157
2.67286
2.63059
2.58925
2.54847
2.50861
2.46925
2.43088
2.39292
2.35629
2.32006
2.28722
2.25766
5.13431
4.79117
4.46785
4.14059
3.81718
3.5073
3.2174
2.95144
2.71076
2.49518
2.30357
2.13387
1.98426
1.85249
1.73656
1.63489
1.54572
1.46772
1.40102
1.34202
1.2951
1.25926
1.24344
1.24515
1.25283
1.27352
1.32042
1.41934
1.62124
2.01873
2.73626
3.1244
3.25516
3.32099
3.33917
3.34295
3.35223
3.37729
3.43465
3.5503
3.75169
4.0138
4.28893
4.4933
4.55971
4.54608
4.50041
4.40014
4.28913
4.20529
4.13174
4.06825
4.03418
4.01066
3.99969
4.00155
4.00695
4.01793
4.01871
4.01617
4.0074
3.987
3.94579
3.8922
3.83593
3.78066
3.72751
3.67544
3.62461
3.57393
3.52374
3.47313
3.42275
3.3719
3.32149
3.27083
3.22085
3.17084
3.12169
3.07268
3.02461
2.9768
2.92998
2.8835
2.83805
2.793
2.749
2.70544
2.66296
2.62091
2.57995
2.53938
2.4999
2.46076
2.42278
2.385
2.34882
2.31252
2.28075
2.25044
5.1822
4.86261
4.56019
4.2557
3.95193
3.65709
3.3774
3.11683
2.87764
2.66008
2.46419
2.28821
2.1313
1.99144
1.86692
1.75682
1.65863
1.57243
1.4961
1.42933
1.37284
1.32406
1.29834
1.30051
1.31117
1.34129
1.41212
1.56329
1.87236
2.49505
2.9926
3.18986
3.24324
3.25543
3.25146
3.23874
3.21206
3.21273
3.22109
3.24702
3.30631
3.42587
3.61627
3.84852
4.09187
4.27134
4.3718
4.36257
4.33197
4.27324
4.17994
4.10268
4.0377
3.98706
3.95239
3.92757
3.9157
3.91683
3.92012
3.92028
3.91859
3.9122
3.89633
3.86324
3.81208
3.75709
3.70318
3.65043
3.59944
3.5492
3.49993
3.45057
3.40151
3.35202
3.30278
3.25326
3.20415
3.15506
3.10655
3.05826
3.01071
2.96346
2.91709
2.87104
2.826
2.78131
2.7377
2.69447
2.65235
2.61061
2.57
2.52973
2.49061
2.45176
2.41413
2.37661
2.34083
2.30465
2.2737
2.24278
5.22831
4.92759
4.64543
4.35816
4.07144
3.79061
3.52111
3.26691
3.03061
2.81287
2.61463
2.43436
2.27191
2.12587
1.99427
1.87732
1.7717
1.67847
1.59503
1.5213
1.45955
1.40493
1.38358
1.38784
1.40623
1.45736
1.57512
1.82522
2.34075
2.87957
3.13561
3.21364
3.21613
3.20746
3.1826
3.13262
3.09515
3.07155
3.06811
3.07191
3.08526
3.11738
3.1844
3.30076
3.46317
3.66557
3.88182
4.05829
4.17869
4.19678
4.18496
4.15085
4.07959
4.00275
3.94597
3.90095
3.86455
3.84029
3.82687
3.82461
3.8241
3.82227
3.81664
3.80308
3.77472
3.72729
3.67664
3.62508
3.57435
3.52412
3.47512
3.4264
3.3783
3.33002
3.28205
3.23382
3.18584
3.13782
3.09015
3.04267
2.99573
2.94908
2.90319
2.85761
2.81299
2.76871
2.7255
2.68264
2.64091
2.59953
2.55929
2.51938
2.48062
2.44212
2.40486
2.36766
2.33226
2.2963
2.26566
2.2349
5.27522
4.98968
4.72313
4.45217
4.17921
3.91054
3.65067
3.40289
3.17042
2.9538
2.7545
2.57191
2.40525
2.25481
2.11772
1.99509
1.88383
1.78444
1.69577
1.61655
1.55225
1.49749
1.49821
1.50827
1.54373
1.63558
1.84007
2.26747
2.86078
3.14432
3.22669
3.22387
3.21042
3.17445
3.1143
3.06199
3.01918
2.98362
2.95786
2.94113
2.94187
2.94634
2.9593
2.98903
3.04965
3.15118
3.29053
3.46666
3.66084
3.84524
3.97744
4.0517
4.04418
4.02135
3.98315
3.91952
3.85553
3.8087
3.77497
3.74854
3.73433
3.73264
3.72999
3.72397
3.71079