/*--------------------------------*- C++ -*----------------------------------*\
| =========                 |                                                 |
| \\      /  F ield         | OpenFOAM: The Open Source CFD Toolbox           |
|  \\    /   O peration     | Version:  2112                                  |
|   \\  /    A nd           | Website:  www.openfoam.com                      |
|    \\/     M anipulation  |                                                 |
\*---------------------------------------------------------------------------*/
FoamFile
{
    version     2.0;
    format      ascii;
    arch        "LSB;label=32;scalar=64";
    class       surfaceScalarField;
    location    "2.5005";
    object      phi;
}
// * * * * * * * * * * * * * * * * * * * * * * * * * * * * * * * * * * * * * //

dimensions      [1 0 -1 0 0 0 0];

oriented        oriented;

internalField   nonuniform List<scalar> 
13790
(
0.00290515
5.64692e-09
0.00290514
2.89078e-09
0.00290514
1.03178e-09
0.00290514
1.79523e-10
0.00290514
2.89555e-10
0.00290514
1.65995e-10
0.00290514
-1.15682e-10
0.00290514
-6.8726e-10
0.00290514
-1.7242e-09
0.00290514
-3.70036e-09
0.00290514
-4.8883e-09
0.00290515
-6.3636e-09
0.00290512
1.13912e-08
0.00290508
2.80776e-08
0.00290477
2.20653e-07
0.00290429
4.53157e-07
0.00290206
1.81667e-06
0.00289766
4.17506e-06
0.00289544
1.15175e-06
0.00287965
1.36187e-05
0.0029029
-2.6694e-05
0.00293767
-4.34744e-05
0.00293589
-1.06774e-05
0.00282328
0.000106415
0.00273077
9.14662e-05
0.00265469
7.57985e-05
0.00258891
6.57863e-05
0.00251298
7.43051e-05
0.00243358
7.98436e-05
0.00235171
8.2914e-05
0.00226672
8.54472e-05
0.00218034
8.81343e-05
0.00209024
9.10358e-05
0.00199767
9.35848e-05
0.00190322
9.60574e-05
0.00180548
9.82102e-05
0.00170695
9.98224e-05
0.0016071
0.00010139
0.00150528
0.000102738
0.00140243
0.000104246
0.00129657
0.000106645
0.00118744
0.000109796
0.00107403
0.000114608
0.000951858
0.000121123
0.000822335
0.000127974
0.000684578
0.000136288
0.000536406
0.000145487
0.000379289
0.000155511
0.000204287
0.000174658
0.000203549
0.00301309
6.46286e-09
0.00301309
4.75696e-09
0.00301309
3.35833e-09
0.00301309
2.5416e-09
0.00301308
1.914e-09
0.00301308
1.32413e-09
0.00301308
5.32593e-10
0.00301308
-6.63004e-10
0.00301308
-2.59007e-09
0.00301308
-7.13186e-09
0.00301308
-1.1005e-08
0.00301311
-3.42089e-08
0.00301313
-3.35012e-08
0.00301331
-1.53953e-07
0.00301351
-7.76144e-08
0.00301482
-8.76492e-07
0.00301559
6.04552e-07
0.00301665
3.06831e-06
0.00301051
6.15208e-06
0.00301617
5.88651e-06
0.00300371
-1.74192e-05
0.00301413
-6.33862e-05
0.00297453
1.67789e-05
0.00289292
0.000183419
0.00280946
0.000174837
0.00273739
0.000148252
0.00266644
0.00013727
0.00258668
0.000152276
0.00250258
0.000164319
0.00241492
0.000171539
0.00232411
0.000176854
0.00223169
0.00018211
0.00213555
0.000187311
0.00203784
0.000191866
0.00193883
0.000196472
0.00183697
0.000200602
0.00173409
0.000204229
0.00162888
0.000208046
0.00152082
0.000211693
0.00141043
0.000215936
0.00129631
0.000221434
0.00117862
0.000228293
0.00105641
0.000237874
0.000926713
0.000249417
0.00079114
0.00026203
0.000648693
0.000277115
0.000497765
0.000293726
0.000339632
0.000312164
0.000173622
0.00034043
0.000376378
0.00312505
6.80306e-09
0.00312504
6.02107e-09
0.00312504
5.36201e-09
0.00312504
4.61294e-09
0.00312504
3.94195e-09
0.00312504
3.14539e-09
0.00312503
2.32926e-09
0.00312503
1.26144e-09
0.00312502
6.01869e-10
0.00312502
-9.81149e-09
0.00312502
-1.05821e-08
0.00312509
-1.02819e-07
0.00312507
-4.15733e-08
0.00312555
-6.18607e-07
0.00312547
-1.86611e-07
0.00312922
-4.21694e-06
0.00312636
2.39417e-06
0.00312173
1.07768e-05
0.003118
5.57373e-06
0.00310154
2.04091e-05
0.00310711
-2.63451e-05
0.00308067
-4.74111e-05
0.00301616
6.81939e-05
0.00292167
0.000273165
0.0028656
0.000231117
0.0027991
0.000215457
0.00272412
0.000212548
0.0026406
0.00023451
0.00255473
0.000251532
0.00246466
0.000262763
0.00237119
0.000271098
0.00227497
0.000279005
0.00217481
0.000286451
0.00207404
0.000293154
0.00197199
0.000300159
0.00186724
0.00030649
0.00176106
0.000312662
0.00165145
0.000319205
0.0015384
0.000325635
0.00142251
0.000333125
0.00130231
0.000342193
0.0011785
0.000352858
0.00104993
0.000366926
0.000914655
0.000382907
0.000774624
0.000400495
0.00062872
0.000421164
0.000476376
0.000443271
0.000319883
0.000467353
0.000160021
0.000500457
0.00053564
0.00324116
6.62348e-09
0.00324116
6.41557e-09
0.00324116
6.30329e-09
0.00324115
6.14704e-09
0.00324115
5.66261e-09
0.00324115
5.07775e-09
0.00324115
4.48386e-09
0.00324115
3.82774e-09
0.00324114
3.42187e-09
0.00324113
-2.66548e-09
0.00324112
-6.54958e-09
0.00324103
-2.56157e-08
0.00324093
-2.14013e-08
0.00324043
-9.01885e-08
0.00324027
7.57192e-08
0.00323536
-4.48092e-07
0.00323612
8.93077e-07
0.00325511
2.45203e-06
0.0032414
7.02523e-06
0.00326308
9.40289e-06
0.0032341
-7.85445e-06
0.00319801
-2.57867e-05
0.00311395
0.000140159
0.00303184
0.000349058
0.00295731
0.000306883
0.00288261
0.000291588
0.00280083
0.000294411
0.0027127
0.000322676
0.00262192
0.000344076
0.0025259
0.000358826
0.00242707
0.000369866
0.00232578
0.000380264
0.00222109
0.000389904
0.00211626
0.00039896
0.00200997
0.000408452
0.00190095
0.000417215
0.00179004
0.000426107
0.00167528
0.00043542
0.00155712
0.000444803
0.00143588
0.00045564
0.0013104
0.00046811
0.00118141
0.000482561
0.00104764
0.000500683
0.00090812
0.000520334
0.000764976
0.000542153
0.000617058
0.000567166
0.000464597
0.000593069
0.000309765
0.000621088
0.000153769
0.000656582
0.000688536
0.00336158
6.36696e-09
0.00336158
6.50926e-09
0.00336158
6.71505e-09
0.00336158
7.18642e-09
0.00336158
6.87582e-09
0.00336158
6.51168e-09
0.00336158
6.08627e-09
0.00336157
5.6343e-09
0.00336157
5.15117e-09
0.00336157
1.78125e-09
0.00336156
-1.43223e-09
0.00336152
5.14795e-09
0.00336143
1.58411e-08
0.00336135
9.39898e-08
0.00336093
2.10277e-07
0.00335571
9.09911e-07
0.00335644
1.96215e-06
0.00338634
1.66166e-06
0.0033579
6.62375e-06
0.00336173
8.02774e-06
0.00335013
-2.84901e-06
0.0033145
-2.97528e-06
0.00321769
0.000222389
0.00313313
0.000427484
0.00306082
0.000382123
0.00297774
0.0003767
0.00288812
0.00038529
0.00279616
0.000414893
0.00269999
0.000440356
0.00259842
0.00045841
0.00249566
0.000472028
0.002391
0.000485347
0.00228292
0.000497684
0.00217414
0.000509608
0.00206275
0.000521924
0.00194863
0.000533315
0.00183218
0.000545349
0.00171117
0.00055765
0.00158687
0.000570034
0.00145925
0.000584364
0.00132763
0.000599958
0.00119319
0.000617813
0.00105377
0.000639883
0.000909761
0.000662124
0.00076294
0.000687678
0.00061187
0.000716049
0.000458026
0.000743979
0.000304263
0.000773648
0.000150718
0.000810245
0.00083835
0.00348648
6.08261e-09
0.00348648
6.27403e-09
0.00348648
6.71886e-09
0.00348648
7.44228e-09
0.00348648
7.66058e-09
0.00348648
7.60522e-09
0.00348648
7.40597e-09
0.00348648
7.12632e-09
0.00348648
6.67472e-09
0.00348647
5.37297e-09
0.00348646
5.09235e-09
0.00348645
2.06096e-08
0.00348636
4.65836e-08
0.0034864
1.65569e-07
0.00348588
3.44642e-07
0.003482
1.21447e-06
0.00348316
2.43229e-06
0.00351243
2.9215e-06
0.00348149
7.80547e-06
0.00348069
9.70898e-06
0.00346987
1.75752e-06
0.00343732
1.65232e-05
0.00333563
0.000307827
0.00325347
0.00050762
0.00317251
0.000467468
0.00307973
0.00047106
0.00298139
0.000483827
0.00288416
0.000510631
0.00278236
0.000541025
0.00267685
0.000561601
0.00257108
0.00057797
0.00246326
0.000594516
0.00235164
0.000609812
0.00223866
0.000624866
0.00212243
0.000640202
0.00200314
0.000654587
0.00188174
0.000669795
0.00175541
0.000685586
0.00162523
0.000701188
0.00149178
0.000718814
0.0013542
0.000737904
0.0012136
0.000759232
0.00106854
0.000784146
0.000918968
0.00080944
0.000767924
0.00083728
0.000614097
0.000867418
0.000458537
0.000896818
0.000303555
0.000927735
0.000150207
0.0009637
0.000987425
0.00361602
5.78974e-09
0.00361602
5.943e-09
0.00361602
6.56087e-09
0.00361602
7.32157e-09
0.00361602
8.10729e-09
0.00361602
8.26497e-09
0.00361602
8.32467e-09
0.00361602
8.29453e-09
0.00361602
8.08956e-09
0.00361602
7.34202e-09
0.00361601
8.07608e-09
0.00361601
2.4021e-08
0.00361594
5.14013e-08
0.00361608
1.73007e-07
0.00361555
3.41495e-07
0.00361246
1.20351e-06
0.00361369
2.46505e-06
0.00364364
2.66119e-06
0.00361397
8.30477e-06
0.00361178
1.15491e-05
0.00359798
9.41473e-06
0.00356163
3.87276e-05
0.00342516
0.000428796
0.00339164
0.000543252
0.003287
0.000573252
0.00318395
0.000572398
0.00307862
0.00058762
0.00297735
0.000610856
0.0028751
0.000643566
0.00276846
0.000667628
0.00265999
0.000687579
0.00254844
0.000707426
0.00243312
0.00072613
0.0023153
0.000744948
0.00219335
0.000763608
0.00206852
0.000781458
0.00194107
0.000800392
0.00180876
0.000819581
0.00167233
0.000838727
0.00153227
0.000859777
0.00138859
0.000881908
0.00124218
0.000906593
0.00109083
0.000934357
0.000936504
0.000961143
0.000780257
0.000991984
0.000622077
0.00102333
0.000463256
0.00105276
0.000306288
0.00108347
0.000151164
0.00111863
0.00113755
0.00375038
5.46256e-09
0.00375038
5.58493e-09
0.00375038
6.23914e-09
0.00375038
6.9958e-09
0.00375038
7.97367e-09
0.00375038
8.43199e-09
0.00375038
8.75329e-09
0.00375038
8.97949e-09
0.00375038
9.04383e-09
0.00375038
7.9515e-09
0.00375037
8.36361e-09
0.00375038
1.63393e-08
0.00375034
3.62703e-08
0.00375055
1.1188e-07
0.0037501
1.54119e-07
0.00374819
6.25137e-07
0.00374991
1.66266e-06
0.00378014
9.72539e-07
0.00375178
8.81261e-06
0.00374885
1.34344e-05
0.00373175
2.03563e-05
0.00369858
5.88322e-05
0.00357108
0.000541579
0.00348555
0.000624245
0.00339961
0.000659486
0.00329973
0.000673073
0.00319389
0.000693168
0.00308834
0.000716423
0.0029837
0.000748186
0.00287525
0.000775785
0.00276378
0.000800372
0.00264804
0.000824194
0.00252852
0.000847056
0.00240567
0.00087027
0.00227774
0.000892934
0.00214653
0.000914728
0.0020127
0.00093748
0.00187343
0.000960516
0.00173045
0.000983013
0.00158336
0.00100751
0.00143268
0.00103273
0.00127938
0.00106062
0.00112128
0.00109084
0.000961183
0.00111891
0.000800675
0.00115106
0.000636648
0.00118449
0.000473638
0.00121304
0.000313331
0.00124293
0.000155341
0.00127683
0.00129246
0.00388972
5.10302e-09
0.00388972
5.22633e-09
0.00388972
5.84667e-09
0.00388972
6.59554e-09
0.00388972
7.56558e-09
0.00388972
8.16406e-09
0.00388972
8.6308e-09
0.00388972
8.95449e-09
0.00388973
8.95599e-09
0.00388972
9.44682e-09
0.00388972
1.26647e-08
0.00388969
3.30783e-08
0.00388966
7.39991e-08
0.00388954
2.14038e-07
0.00388909
4.25466e-07
0.00388572
1.27492e-06
0.00388568
2.39006e-06
0.00393935
2.28602e-06
0.0038913
9.62488e-06
0.00387662
1.39699e-05
0.00387178
2.47526e-05
0.003844
7.73333e-05
0.00371644
0.000648809
0.00361809
0.000722172
0.00352768
0.000749351
0.00342768
0.00077276
0.00332112
0.00079887
0.0032133
0.000824768
0.00310505
0.000857339
0.00299295
0.000887936
0.00287791
0.000917113
0.00275736
0.000945614
0.00263299
0.000972774
0.00250494
0.00100088
0.00237106
0.001028
0.00223371
0.00105415
0.00209315
0.00108133
0.00194765
0.00110801
0.00179728
0.00113476
0.0016438
0.0011619
0.00148671
0.00119014
0.00132698
0.00122114
0.00116214
0.00125407
0.000994207
0.00128451
0.000826844
0.00131725
0.000658949
0.00134935
0.00048947
0.00137976
0.000323486
0.00140868
0.000160072
0.00144037
0.00145166
0.00403424
4.71372e-09
0.00403424
4.86731e-09
0.00403424
5.39896e-09
0.00403425
6.15997e-09
0.00403425
7.00323e-09
0.00403425
7.70388e-09
0.00403425
8.2928e-09
0.00403425
8.7759e-09
0.00403425
7.91846e-09
0.00403425
8.35161e-09
0.00403425
9.65842e-09
0.00403424
3.02551e-08
0.00403428
6.26359e-08
0.0040342
1.90508e-07
0.00403399
4.93393e-07
0.00403246
1.26438e-06
0.00403121
2.22776e-06
0.00408448
7.94668e-07
0.00404214
8.10158e-06
0.00403432
8.98797e-06
0.00403416
2.36081e-05
0.00400866
9.22875e-05
0.00388723
0.000749276
0.00377655
0.000833093
0.00367046
0.00085695
0.00356271
0.000881084
0.00345048
0.000910652
0.00333689
0.000938642
0.00322282
0.000971703
0.00310588
0.00100479
0.0029868
0.00103745
0.00286316
0.00106991
0.00273574
0.00110145
0.00260487
0.00113411
0.0024678
0.00116627
0.00232677
0.00119708
0.00218169
0.0012294
0.00203081
0.00126061
0.00187558
0.00129184
0.00171416
0.00132425
0.00155023
0.00135431
0.00138372
0.00138813
0.00121265
0.00142332
0.00103908
0.00145572
0.000863165
0.00149127
0.000686087
0.00152371
0.000511588
0.00155149
0.000337906
0.00158151
0.000167724
0.00161072
0.00161788
0.00418414
4.31581e-09
0.00418414
4.49852e-09
0.00418414
4.90453e-09
0.00418414
5.72016e-09
0.00418414
6.3349e-09
0.00418414
7.2182e-09
0.00418414
7.93365e-09
0.00418414
8.66364e-09
0.00418414
5.55029e-09
0.00418414
7.34195e-09
0.00418415
3.94063e-09
0.00418413
4.23974e-08
0.00418419
3.25108e-08
0.004184
2.36664e-07
0.00418485
1.82352e-07
0.00418616
1.08122e-06
0.00418613
-5.01485e-07
0.00416182
-3.0807e-06
0.00418753
1.20629e-06
0.00420004
-4.47883e-06
0.00419653
2.49778e-05
0.00417632
0.00010453
0.00405941
0.000847198
0.00392982
0.000962025
0.00380278
0.00098325
0.00368103
0.00100142
0.00356061
0.00102949
0.00344252
0.00105629
0.00332437
0.00108914
0.00320433
0.00112384
0.00308332
0.00115916
0.00295864
0.00119498
0.00283055
0.00123044
0.00269908
0.0012678
0.00256117
0.00130521
0.0024185
0.00134143
0.00227186
0.00137879
0.00211893
0.00141564
0.00196076
0.00145206
0.00179691
0.00148996
0.00162486
0.00152657
0.00145141
0.00156191
0.00127227
0.0016001
0.00109064
0.00163431
0.0009092
0.00167134
0.000723609
0.00170595
0.000538086
0.00173409
0.000357088
0.00176159
0.000176621
0.0017915
0.00179406
0.0043396
3.9376e-09
0.0043396
4.05283e-09
0.0043396
4.47179e-09
0.0043396
5.11943e-09
0.0043396
5.81168e-09
0.0043396
6.51054e-09
0.0043396
7.1333e-09
0.0043396
7.62278e-09
0.0043396
7.46712e-09
0.0043396
6.59885e-09
0.0043396
5.77824e-09
0.00433962
1.43628e-08
0.00433964
2.29429e-08
0.00433959
1.22885e-07
0.00433958
9.83535e-08
0.00434268
4.73341e-07
0.00433652
3.28298e-07
0.0044041
-3.94187e-06
0.00433751
4.29099e-06
0.00438098
-3.19998e-06
0.00434125
3.38811e-05
0.00428812
0.000124803
0.00415465
0.000954837
0.00402255
0.0010946
0.00389648
0.00110889
0.00377407
0.0011224
0.00365468
0.00114701
0.00353817
0.00117251
0.00341968
0.00120679
0.00329923
0.0012429
0.00317865
0.00128072
0.00305429
0.00131967
0.00292703
0.00135863
0.00279667
0.00140076
0.00265981
0.00144326
0.00251737
0.00148594
0.00236927
0.0015296
0.0022148
0.00157226
0.00205385
0.00161543
0.00188743
0.00165795
0.00171397
0.0017006
0.00153218
0.00174377
0.00134655
0.001783
0.00115727
0.00182128
0.000963934
0.00186289
0.00076965
0.00189682
0.000574979
0.0019258
0.000380632
0.00195495
0.000190388
0.00198129
0.00198343
0.00450084
3.53559e-09
0.00450084
3.60185e-09
0.00450084
4.00514e-09
0.00450084
4.52975e-09
0.00450084
5.20739e-09
0.00450084
5.7927e-09
0.00450084
6.24461e-09
0.00450084
6.48591e-09
0.00450084
7.58519e-09
0.00450084
7.51956e-09
0.00450083
1.02466e-08
0.00450084
1.63254e-08
0.0045008
4.54504e-08
0.00450088
1.15698e-07
0.0045005
1.97507e-07
0.00449957
7.12541e-07
0.00449875
5.00377e-07
0.00448551
-5.96359e-07
0.00448427
4.96445e-06
0.00464021
1.67845e-06
0.00442539
4.72911e-05
0.00446651
0.000145602
0.00429542
0.00108572
0.00413908
0.00124844
0.00400059
0.00124687
0.00387432
0.0012475
0.00375483
0.00126488
0.00363863
0.00128861
0.00351948
0.00132507
0.00339879
0.00136249
0.00327834
0.00140252
0.00315439
0.00144391
0.00302792
0.00148645
0.00289829
0.00153236
0.00276353
0.00157951
0.00262373
0.00162824
0.00247707
0.00167916
0.00232228
0.0017291
0.00216059
0.00177953
0.00199006
0.00183049
0.00181309
0.00187781
0.00162879
0.00192783
0.0014337
0.00197558
0.0012365
0.00201617
0.00103592
0.00206164
0.000827353
0.00210229
0.000618543
0.00213203
0.000412112
0.00216044
0.00020429
0.00218881
0.00218645
0.00466807
3.0963e-09
0.00466807
3.15485e-09
0.00466807
3.49374e-09
0.00466807
3.96473e-09
0.00466807
4.52576e-09
0.00466807
5.12043e-09
0.00466807
5.43172e-09
0.00466807
5.59167e-09
0.00466807
6.53643e-09
0.00466807
6.14656e-09
0.00466807
7.2785e-09
0.0046681
1.02538e-08
0.00466807
2.81985e-08
0.00466796
6.07816e-08
0.00466788
1.79875e-07
0.00466661
8.23582e-07
0.00465844
4.76381e-07
0.00464933
-5.57413e-07
0.00467819
6.56867e-06
0.00440517
6.75211e-06
0.00466105
6.09521e-05
0.00461006
0.000185127
0.00444991
0.00121525
0.00426837
0.00143133
0.00410962
0.00140582
0.00398388
0.00137175
0.00386491
0.00138207
0.00374921
0.00140327
0.00363221
0.00144072
0.00351148
0.00148193
0.00339113
0.00152401
0.00326835
0.00156788
0.00314232
0.0016138
0.00301306
0.00166381
0.00287872
0.00171574
0.00273994
0.00176956
0.00259571
0.00182612
0.00244322
0.00188394
0.00228249
0.00194277
0.00211298
0.00200298
0.00193061
0.00206078
0.00174233
0.00211511
0.00154396
0.00217198
0.00133496
0.00222257
0.00112198
0.00227325
0.000903019
0.00231787
0.000677965
0.00235381
0.000451352
0.00238619
0.000226927
0.0024134
0.00241257
0.00484151
2.62847e-09
0.00484151
2.69502e-09
0.00484151
2.95848e-09
0.00484151
3.38492e-09
0.00484151
3.84327e-09
0.00484151
4.43485e-09
0.00484151
4.64695e-09
0.00484151
4.77396e-09
0.00484151
4.46263e-09
0.00484152
2.53298e-09
0.00484152
-5.92416e-10
0.00484154
-3.98943e-09
0.00484156
-7.00077e-09
0.00484166
-2.16244e-08
0.00484182
-3.07616e-08
0.00484255
-5.57444e-08
0.00484304
-2.54893e-07
0.00482314
-9.82394e-07
0.00484364
1.16771e-05
0.00465237
2.10192e-06
0.00482232
9.9348e-05
0.00473453
0.000230698
0.00460093
0.00133545
0.00436824
0.00166514
0.00419255
0.00158087
0.00406147
0.0015007
0.00394885
0.00149271
0.00384331
0.00150787
0.00373197
0.00155045
0.003617
0.00159497
0.00350274
0.00163889
0.00338551
0.00168546
0.00326562
0.00173492
0.00314108
0.00179041
0.0030102
0.0018481
0.00287315
0.00190891
0.00273006
0.00197179
0.00257974
0.00203679
0.00242118
0.00210383
0.00225322
0.00217337
0.00207254
0.00224261
0.00187761
0.00231023
0.00167387
0.00237323
0.00146018
0.00243425
0.00123456
0.0024971
0.00099672
0.00255212
0.000753836
0.002594
0.000506635
0.00263252
0.000252606
0.00266768
0.00266433
0.00502139
2.14537e-09
0.00502139
2.20841e-09
0.00502139
2.41062e-09
0.0050214
2.77425e-09
0.0050214
3.16949e-09
0.0050214
3.7218e-09
0.0050214
3.6441e-09
0.0050214
3.68701e-09
0.0050214
1.73977e-09
0.00502141
-1.34609e-09
0.00502141
-8.09418e-09
0.00502143
-1.86197e-08
0.00502146
-4.49875e-08
0.00502155
-1.0832e-07
0.00502174
-2.55884e-07
0.00502244
-7.00628e-07
0.00502376
-1.2849e-06
0.00503781
-2.2055e-06
0.00500164
2.94833e-05
0.00522403
-4.17273e-05
0.00488895
0.000243604
0.00498726
0.000152767
0.00478401
0.00150357
0.00448483
0.00197164
0.00426786
0.00180376
0.00418043
0.0015894
0.00406304
0.00161008
0.00395704
0.00161367
0.00384308
0.00166401
0.0037304
0.00170687
0.00362061
0.00175008
0.00350875
0.00179801
0.00339468
0.00185032
0.00327769
0.00190916
0.00315508
0.00197258
0.00302588
0.00204036
0.00288817
0.0021122
0.00274062
0.00218616
0.00258434
0.00226254
0.00241892
0.00234107
0.0022416
0.00242154
0.00204904
0.0025031
0.00183802
0.00258314
0.00161394
0.00265576
0.00137928
0.00272968
0.0011275
0.00280082
0.000858518
0.00285884
0.000580096
0.00291047
0.000295404
0.00295287
0.00295861
0.00520796
1.66486e-09
0.00520796
1.67246e-09
0.00520796
1.87903e-09
0.00520797
2.11397e-09
0.00520797
2.44468e-09
0.00520797
2.70651e-09
0.00520797
3.16612e-09
0.00520797
3.04258e-09
0.00520797
3.2478e-09
0.00520796
4.09471e-09
0.00520794
1.20671e-08
0.0052079
2.48739e-08
0.00520775
8.15232e-08
0.00520757
1.3961e-07
0.00520647
4.35462e-07
0.00520623
3.94295e-07
0.00520959
1.37346e-06
0.00520149
2.70741e-06
0.00512627
6.99773e-06
0.00516854
1.4831e-05
0.0053072
8.07348e-05
0.00525974
0.000201156
0.00593793
0.000793141
0.00557463
0.00232751
0.00522832
0.00214324
0.00487741
0.00193881
0.00462182
0.00186702
0.00441129
0.00182658
0.00422535
0.00185165
0.00405218
0.001882
0.00389343
0.00191285
0.00374564
0.00194937
0.00360596
0.00199269
0.00347269
0.00204489
0.00334223
0.00210517
0.00321165
0.00217342
0.00307761
0.00224899
0.00293592
0.00233045
0.00278333
0.0024172
0.00261903
0.00250712
0.00244273
0.00259895
0.0022543
0.00269205
0.00204801
0.00278838
0.00181868
0.00288279
0.00157026
0.00297684
0.00129974
0.00306763
0.00100816
0.00314705
0.000693718
0.00322361
0.000353155
0.00329358
0.00331054
0.00540147
1.15734e-09
0.00540147
1.13476e-09
0.00540147
1.3359e-09
0.00540147
1.4567e-09
0.00540147
1.77588e-09
0.00540147
1.81551e-09
0.00540147
2.41139e-09
0.00540147
2.35643e-09
0.00540147
3.49703e-09
0.00540147
4.99165e-09
0.00540146
1.73361e-08
0.00540147
2.81768e-08
0.00540138
1.17659e-07
0.00540145
1.1717e-07
0.00540047
6.4399e-07
0.00540211
1.57854e-07
0.00540791
6.69061e-07
0.00540637
1.36127e-06
0.00532065
1.24943e-07
0.00539755
1.83434e-05
0.00544178
2.8727e-05
0.0054928
0.000150696
0.00579048
0.000484994
0.00584119
0.00225334
0.00561531
0.00235961
0.00532365
0.00222494
0.00509677
0.00209524
0.00487799
0.00204869
0.00468289
0.00205033
0.00448599
0.00208082
0.00429582
0.00210634
0.00411466
0.00213361
0.00394139
0.00216941
0.00377629
0.00221369
0.00361849
0.00226673
0.00346728
0.00232707
0.00332164
0.00239718
0.00317773
0.00247702
0.00303018
0.00256726
0.00287445
0.00266583
0.00270336
0.00277079
0.00251483
0.00288074
0.00230958
0.00299239
0.00208449
0.00310592
0.00183401
0.0032252
0.00155132
0.00334688
0.00122984
0.00346425
0.000871129
0.00358135
0.000466312
0.00369869
0.0037759
0.00560216
6.03144e-10
0.00560216
6.62318e-10
0.00560216
7.86676e-10
0.00560216
9.5872e-10
0.00560216
1.12757e-09
0.00560216
1.33584e-09
0.00560216
1.48588e-09
0.00560216
1.79268e-09
0.00560216
2.73844e-09
0.00560216
5.54117e-09
0.00560217
1.18793e-08
0.00560217
2.86596e-08
0.00560226
5.01719e-08
0.00560221
1.81917e-07
0.00560227
2.64193e-07
0.0056013
1.16165e-06
0.00559709
3.28124e-06
0.00560383
2.05908e-06
0.00549004
-1.43385e-07
0.00563265
1.67752e-05
0.0052963
1.93318e-05
0.00562147
0.000144351
0.00568533
0.000400046
0.00574904
0.00215866
0.00560662
0.00249577
0.00544948
0.00237705
0.00531966
0.00222492
0.00516514
0.00220516
0.00501193
0.002206
0.00484903
0.00224494
0.0046764
0.00228021
0.00450001
0.00231158
0.00432439
0.00234702
0.00415098
0.0023899
0.00397967
0.00244099
0.00381108
0.00249907
0.00364509
0.00256552
0.00348815
0.0026363
0.00333641
0.00272136
0.00318326
0.00282161
0.00302278
0.00293367
0.00284799
0.00305704
0.00265204
0.00318709
0.00243358
0.0033225
0.00219081
0.00346597
0.00191265
0.00362227
0.00158539
0.00378788
0.00119009
0.0039741
0.000688468
0.00419995
0.0044635
0.00581031
1.06867e-10
0.00581031
2.07374e-10
0.00581031
3.13174e-10
0.00581031
4.78547e-10
0.00581031
6.10634e-10
0.00581031
8.38372e-10
0.00581031
1.04394e-09
0.00581031
1.59293e-09
0.00581031
2.02048e-09
0.00581031
4.76635e-09
0.00581032
5.98211e-09
0.00581032
1.58278e-08
0.00581045
2.07353e-08
0.00581039
1.0518e-07
0.00581104
1.5118e-08
0.0058114
7.00468e-07
0.00581325
9.19251e-07
0.00581502
1.20122e-06
0.00583816
-4.26093e-07
0.00579161
3.1012e-05
0.00606374
-1.57252e-05
0.00568252
0.000259342
0.0057966
0.000326711
0.00573212
0.00217495
0.00558608
0.00264128
0.00550278
0.00246091
0.00544243
0.00228534
0.00534166
0.00230539
0.00523304
0.00231472
0.00511756
0.0023605
0.00498431
0.00241371
0.00483898
0.00245818
0.00468601
0.00250142
0.00452878
0.00254864
0.004369
0.00260273
0.00420876
0.00266191
0.00405006
0.00272671
0.00388551
0.00280302
0.00372034
0.00288828
0.00356309
0.00298121
0.00341004
0.00308909
0.00325593
0.00321305
0.00309148
0.00335181
0.00290512
0.00350701
0.0026947
0.00367408
0.0024502
0.00386369
0.00215299
0.00408187
0.00178037
0.00434414
0.00127955
0.00470052
0.00574296
0.00840003
9.02171e-12
0.00840003
3.73988e-11
0.00840003
8.28493e-11
0.00840003
1.46433e-10
0.00840003
2.32135e-10
0.00840003
3.21457e-10
0.00840003
4.63166e-10
0.00840003
6.43064e-10
0.00840003
1.13579e-09
0.00840004
1.76278e-09
0.00840004
4.11823e-09
0.00840006
8.38139e-09
0.0084
1.66745e-08
0.00840034
3.3813e-08
0.0084
1.10032e-07
0.00840074
2.40417e-07
0.00840061
1.05793e-06
0.00838658
2.96418e-06
0.00838767
4.59666e-06
0.00849566
1.03047e-05
0.0083639
2.72085e-05
0.00853276
8.42486e-05
0.00853631
0.000301575
0.00956727
0.00104421
0.00922723
0.00298797
0.00892297
0.002782
0.00854833
0.00267284
0.00826136
0.00260024
0.00800804
0.00257386
0.00777166
0.00260154
0.00754376
0.0026463
0.0073192
0.00268694
0.0070985
0.00272567
0.0068824
0.00276758
0.00667605
0.00281211
0.00647607
0.00286522
0.00627649
0.0029297
0.00607972
0.0030022
0.00588635
0.00308269
0.00569671
0.003171
0.0055158
0.00327059
0.00534982
0.00337982
0.00519888
0.0035038
0.00506679
0.00363859
0.00494845
0.00378991
0.00486359
0.00394508
0.00484348
0.00409706
0.00496163
0.00422071
0.00544058
0.00421821
0.00377137
0.00741178
0.00840003
1.16187e-12
0.00840003
5.5193e-12
0.00840003
1.54968e-11
0.00840003
3.10081e-11
0.00840003
6.05677e-11
0.00840003
9.29528e-11
0.00840003
1.59744e-10
0.00840003
2.1891e-10
0.00840003
4.08313e-10
0.00840003
6.51849e-10
0.00840003
1.48077e-09
0.00840006
3.47309e-09
0.00840004
6.23269e-09
0.00840013
1.02268e-08
0.00840018
5.32323e-08
0.00840095
1.09936e-07
0.00839949
3.89792e-07
0.00840359
1.15175e-06
0.00840265
1.92695e-06
0.00851864
2.32295e-06
0.00845132
1.89918e-05
0.00849063
3.30219e-05
0.00859959
0.000182527
0.00907054
0.000556105
0.00933874
0.00269081
0.00912789
0.00298951
0.00885578
0.00294343
0.00865819
0.00279279
0.00843586
0.00279156
0.00821379
0.00282132
0.00799621
0.002865
0.00777989
0.00290633
0.00756927
0.00294176
0.00736746
0.00297453
0.00717328
0.00301096
0.00698795
0.00305464
0.00681736
0.00310368
0.00666273
0.00316081
0.00652081
0.00322782
0.00639403
0.00330079
0.00628138
0.00338486
0.00619006
0.00347218
0.00612768
0.0035665
0.00610343
0.00366278
0.0061413
0.00375094
0.00625129
0.00383286
0.00648041
0.00386514
0.00685464
0.00384299
0.00736589
0.0037029
0.00325584
0.00787863
0.00840003
1.44802e-13
0.00840003
8.57802e-13
0.00840003
2.76689e-12
0.00840003
6.56237e-12
0.00840003
1.37972e-11
0.00840003
2.45592e-11
0.00840003
4.60901e-11
0.00840003
6.30522e-11
0.00840003
2.21268e-10
0.00840003
3.39649e-10
0.00840003
1.11018e-09
0.00840004
2.33851e-09
0.00840006
5.46014e-09
0.0084001
6.8763e-09
0.00840005
4.38561e-08
0.00840022
7.37914e-08
0.00840026
2.8399e-07
0.00840013
8.07152e-07
0.00840196
1.44769e-06
0.00844593
1.95103e-06
0.00838748
1.52583e-05
0.00876452
2.70795e-05
0.00838827
0.000145337
0.00858861
0.000423459
0.00892689
0.00227094
0.00890634
0.00299891
0.00876475
0.0030797
0.0085975
0.00295433
0.00845118
0.00293351
0.00830752
0.00296063
0.00816707
0.00300336
0.00802416
0.00305038
0.00787888
0.00308928
0.00773418
0.00312318
0.00759135
0.00315804
0.00745298
0.00319745
0.0073223
0.00323769
0.00720718
0.00328035
0.00710873
0.00332944
0.00703258
0.00338049
0.00698413
0.00343583
0.00696332
0.00349479
0.00698346
0.00354734
0.00704421
0.00360213
0.00716281
0.00363164
0.00734503
0.00364919
0.0075921
0.00361558
0.00790182
0.00353072
0.00822458
0.00337727
0.00300013
0.00847772
0.00840003
3.48009e-14
0.00840003
1.83693e-13
0.00840003
6.75272e-13
0.00840003
1.44482e-12
0.00840003
4.10592e-12
0.00840003
6.46413e-12
0.00840003
2.16401e-11
0.00840003
3.91847e-11
0.00840003
8.21608e-11
0.00840003
1.42918e-10
0.00840003
5.95189e-10
0.00840004
7.98705e-10
0.00840003
5.00162e-09
0.00840015
9.92683e-09
0.00839999
2.94276e-08
0.00840067
5.14035e-08
0.00840045
2.26109e-07
0.00840037
4.21141e-07
0.00840206
1.46371e-06
0.00842688
2.17947e-06
0.00839655
1.1654e-05
0.00870476
1.64213e-05
0.00837891
0.000146123
0.00853656
0.000309534
0.00909532
0.00163157
0.00887854
0.00321332
0.00874879
0.00321178
0.00856654
0.00313745
0.00843112
0.00306702
0.00832179
0.00306711
0.0082334
0.00309023
0.00814862
0.00313551
0.00806567
0.00317354
0.00798226
0.00320954
0.00789952
0.00324547
0.00782429
0.0032788
0.00775388
0.00331259
0.0076917
0.00334755
0.00764411
0.003381
0.00761126
0.00341695
0.0076062
0.00344432
0.00762668
0.00347716
0.00768456
0.00349178
0.00778016
0.0035083
0.00791674
0.00349556
0.00809571
0.00347024
0.00830751
0.00340257
0.00853832
0.003298
0.00876978
0.00314338
0.00286741
0.00890016
0.00840003
2.18642e-14
0.00840003
4.2737e-14
0.00840003
3.59838e-13
0.00840003
4.6031e-13
0.00840003
2.46769e-12
0.00840003
2.62313e-12
0.00840003
1.25706e-11
0.00840003
8.81353e-12
0.00840003
9.60334e-11
0.00840003
6.73634e-11
0.00840003
8.94575e-10
0.00840004
8.51861e-10
0.00840003
5.2486e-09
0.00840013
2.31433e-09
0.00840012
3.93217e-08
0.00840019
1.41561e-08
0.00840005
3.52099e-07
0.00840044
4.95978e-07
0.00839682
1.25235e-06
0.00838357
9.07226e-07
0.0084044
1.56255e-05
0.00823027
5.56812e-06
0.00839253
0.000141921
0.00858175
0.000133995
0.00935086
0.00083284
0.00943299
0.00312727
0.00917698
0.00346766
0.00890102
0.00341127
0.00873069
0.00323365
0.00859755
0.00319686
0.00847628
0.00320849
0.00838178
0.00322927
0.00830322
0.00325308
0.0082343
0.0032802
0.0081777
0.00330505
0.00813618
0.00332444
0.00810949
0.0033438
0.00809351
0.00336782
0.00809448
0.00338465
0.00810828
0.00340715
0.0081429
0.00341372
0.00819741
0.00342594
0.00827541
0.00341701
0.00838047
0.00340614
0.00850899
0.00336966
0.00866217
0.00331902
0.00882928
0.00323694
0.00900269
0.00312526
0.00916485
0.00298087
0.00276068
0.00927083
0.00840003
5.36203e-15
0.00840003
2.68192e-14
0.00840003
9.49882e-14
0.00840003
2.25322e-13
0.00840003
6.95698e-13
0.00840003
1.98846e-12
0.00840003
4.31351e-12
0.00840003
1.2744e-11
0.00840003
3.87995e-11
0.00840003
7.47639e-11
0.00840003
2.79211e-10
0.00840003
6.89679e-10
0.00840004
1.495e-09
0.00840001
6.4081e-09
0.00840019
1.78898e-08
0.00839997
3.47926e-08
0.00840112
1.0829e-07
0.00840088
3.36817e-07
0.00840068
6.75114e-07
0.00840188
1.69869e-06
0.0084442
4.75902e-06
0.00838861
1.46138e-05
0.00881349
3.63509e-05
0.00840073
0.000188236
0.00881806
0.000464587
0.00960787
0.00226408
0.0094587
0.00360226
0.00931445
0.00354483
0.00907827
0.00346031
0.00890805
0.00336181
0.00878504
0.00332649
0.00868374
0.00332878
0.008597
0.00333818
0.00852531
0.00335287
0.0084723
0.00335929
0.008436
0.00336289
0.0084182
0.00336449
0.00841996
0.00336986
0.00844018
0.00336887
0.00847938
0.00337239
0.00853608
0.00336167
0.00861325
0.00335286
0.00870623
0.0033275
0.00881871
0.00329667
0.00894371
0.0032472
0.00908228
0.0031828
0.0092243
0.00309694
0.00936445
0.00298689
0.0094935
0.00285323
0.0026694
0.00958567