/*--------------------------------*- C++ -*----------------------------------*\
| =========                 |                                                 |
| \\      /  F ield         | OpenFOAM: The Open Source CFD Toolbox           |
|  \\    /   O peration     | Version:  2112                                  |
|   \\  /    A nd           | Website:  www.openfoam.com                      |
|    \\/     M anipulation  |                                                 |
\*---------------------------------------------------------------------------*/
FoamFile
{
    version     2.0;
    format      ascii;
    arch        "LSB;label=32;scalar=64";
    class       volScalarField;
    location    "2.5005";
    object      T;
}
// * * * * * * * * * * * * * * * * * * * * * * * * * * * * * * * * * * * * * //

dimensions      [0 0 0 1 0 0 0];

internalField   nonuniform List<scalar> 
7000
(
1
1
1
1
1
1
1
1
1
1.00002
1.00002
1.00026
1.00044
1.00196
1.0028
1.01067
1.01736
1.04625
1.13365
1.34662
1.81917
2.61522
2.73244
2.71241
2.68467
2.68115
2.69105
2.7012
2.71109
2.7146
2.72032
2.72416
2.72646
2.73206
2.73382
2.73764
2.74227
2.74315
2.74633
2.74826
2.7486
2.75196
2.75058
2.75291
2.76147
2.76662
2.77616
2.79426
2.79198
2.80619
1
1
1
1
1
1
1
1
1
1.00002
1.00002
1.00025
1.00042
1.00183
1.00263
1.00961
1.01602
1.03911
1.13278
1.33116
1.81999
2.61367
2.73486
2.71357
2.68569
2.68182
2.69019
2.69978
2.70995
2.71382
2.7199
2.72349
2.72702
2.7336
2.73566
2.73992
2.74406
2.74512
2.74885
2.75063
2.75195
2.75491
2.75302
2.75701
2.76512
2.76989
2.78036
2.79655
2.79292
2.80621
1
1
1
1
1
1
1
1
1
1.00002
1.00002
1.00024
1.00044
1.00177
1.00262
1.00938
1.01533
1.03941
1.12845
1.32552
1.8122
2.6145
2.73433
2.71463
2.68773
2.68354
2.69077
2.7001
2.70844
2.71225
2.71795
2.72132
2.7269
2.73393
2.73541
2.73946
2.74194
2.74249
2.7464
2.74805
2.74966
2.75299
2.75166
2.75767
2.76571
2.77103
2.78297
2.79801
2.79262
2.80736
1
1
1
1
1
1
1
1
1
1.00001
1.00007
1.00016
1.00085
1.00124
1.00527
1.00433
1.01743
1.03045
1.13251
1.31585
1.81758
2.61049
2.73176
2.71163
2.68944
2.68433
2.69176
2.69986
2.70663
2.71186
2.71879
2.72266
2.7291
2.73537
2.73645
2.73992
2.74133
2.74222
2.74598
2.74706
2.74902
2.75176
2.75069
2.75828
2.76568
2.77097
2.78349
2.79602
2.78851
2.80502
1
1
1
1
1
1
1
1
1
1.00001
1.00007
1.00015
1.00082
1.00112
1.00493
1.00443
1.01721
1.02676
1.12824
1.3084
1.80994
2.60411
2.73069
2.71095
2.6914
2.68407
2.69098
2.69717
2.70468
2.71252
2.72077
2.72408
2.72992
2.73467
2.73545
2.73927
2.73961
2.7406
2.74503
2.74586
2.74879
2.75158
2.75001
2.75882
2.76485
2.76969
2.78376
2.7968
2.78849
2.80548
1
1
1
1
1
1
1
1
1
1.00001
1.00007
1.00015
1.00078
1.00104
1.00474
1.00397
1.01625
1.02396
1.12323
1.29706
1.79971
2.59713
2.73028
2.7063
2.69121
2.68314
2.68886
2.69699
2.70591
2.71448
2.72253
2.72498
2.73023
2.73426
2.73536
2.73901
2.73949
2.73945
2.74319
2.74435
2.74671
2.74883
2.74889
2.75735
2.76369
2.76958
2.78313
2.79363
2.78481
2.80206
1
1
1
1
1
1
1
1
1
1.00001
1.00007
1.00014
1.00072
1.00093
1.00446
1.00339
1.01519
1.02122
1.11806
1.28524
1.78857
2.59265
2.7253
2.6953
2.68995
2.68473
2.69037
2.69909
2.70683
2.71408
2.72077
2.72358
2.72874
2.73174
2.73398
2.73792
2.73785
2.73836
2.74131
2.7426
2.74573
2.74718
2.74704
2.75682
2.76118
2.76812
2.78203
2.79237
2.78362
2.80348
1
1
1
1
1
1
1
1
1
1.00001
1.00006
1.00013
1.00066
1.00082
1.00415
1.00273
1.01397
1.01802
1.11234
1.27247
1.77541
2.58707
2.71292
2.69662
2.6918
2.68456
2.68861
2.69724
2.70491
2.71333
2.71867
2.72263
2.72765
2.72994
2.73244
2.73616
2.73614
2.73593
2.73903
2.73931
2.74291
2.7443
2.7453
2.75636
2.76009
2.76405
2.78036
2.79015
2.78031
2.79657
1
1
1
1
1
1
1
1
1
1.00001
1.00006
1.00013
1.00061
1.00084
1.00394
1.00258
1.01254
1.01248
1.10514
1.25856
1.7593
2.57143
2.70455
2.70037
2.69048
2.68359
2.68695
2.69655
2.70269
2.71117
2.71642
2.71995
2.72604
2.72783
2.7308
2.73487
2.73469
2.73544
2.73654
2.73874
2.74077
2.74124
2.74162
2.75154
2.75826
2.76518
2.77565
2.78583
2.77669
2.79459
1
1
1
1
1
1
1
1
1
1.00001
1.00006
1.00012
1.00052
1.00076
1.00322
1.00238
1.01079
1.00934
1.0981
1.24441
1.73992
2.54613
2.69726
2.69773
2.68955
2.68134
2.68446
2.69345
2.70066
2.70877
2.71408
2.71769
2.72314
2.72519
2.72755
2.7315
2.73091
2.73196
2.73315
2.73235
2.73915
2.73871
2.73962
2.74751
2.74989
2.75986
2.7748
2.77938
2.77238
2.78819
1
1
1
1
1
1
1
1
1
1.00001
1.00005
1.0001
1.00047
1.00057
1.00304
1.00119
1.01238
1.00649
1.09146
1.23068
1.71872
2.51929
2.67986
2.69385
2.68626
2.67913
2.68305
2.69159
2.69901
2.70763
2.71285
2.71659
2.72172
2.72392
2.72611
2.73017
2.73059
2.73053
2.73079
2.72872
2.73029
2.73629
2.7363
2.74595
2.74995
2.75387
2.76833
2.77738
2.76653
2.7869
1
1
1
1
1
1
1
1
1
1.00001
1.00002
1.00014
1.00029
1.00069
1.00229
1.00215
1.01541
1.00403
1.0915
1.21467
1.68807
2.48863
2.6658
2.69535
2.68661
2.67892
2.68244
2.69079
2.69763
2.70611
2.71093
2.71385
2.71911
2.72036
2.72214
2.72518
2.7259
2.72754
2.72724
2.72726
2.72632
2.72627
2.73318
2.73957
2.74061
2.75191
2.764
2.76834
2.76206
2.77375
1
1
1
1
1
1
1
1
1
1.00001
1.00002
1.00014
1.00025
1.00077
1.00195
1.00247
1.01456
1.00591
1.08745
1.19423
1.65997
2.43474
2.64581
2.69529
2.68592
2.67786
2.68077
2.68964
2.6961
2.70513
2.70904
2.71222
2.71709
2.71845
2.72077
2.72174
2.72069
2.72207
2.72227
2.72069
2.72489
2.72222
2.72497
2.7371
2.73676
2.74083
2.75732
2.76501
2.75478
2.77308
1
1
1
1
1
1
1
1
1
1.00001
1.00002
1.00013
1.00019
1.00072
1.0015
1.00259
1.01418
1.00671
1.07856
1.18528
1.60838
2.37881
2.6171
2.69279
2.68284
2.67378
2.67622
2.68474
2.6915
2.70022
2.70454
2.70742
2.71134
2.71407
2.7165
2.71882
2.71817
2.71755
2.71659
2.71396
2.71424
2.71934
2.71725
2.72452
2.72978
2.73598
2.74572
2.75257
2.74846
2.75689
1
1
1
1
1
1
1
1
1
1.00001
1.00002
1.00012
1.00017
1.00066
1.00115
1.00253
1.01179
1.00748
1.07277
1.1624
1.56027
2.29937
2.58325
2.69304
2.68313
2.67502
2.67649
2.68405
2.68987
2.69765
2.70116
2.70298
2.70639
2.70647
2.70904
2.71078
2.71278
2.71318
2.71201
2.70904
2.70731
2.70828
2.71425
2.71776
2.71663
2.72333
2.73942
2.74466
2.7345
2.75206
1
1
1
1
1
1
1
1
1
1.00001
1.00002
1.00011
1.00016
1.00059
1.00105
1.00225
1.01044
1.00337
1.06704
1.12508
1.51821
2.20826
2.53256
2.67796
2.66993
2.66883
2.67116
2.68091
2.68771
2.69627
2.70006
2.70177
2.70479
2.70479
2.7043
2.70366
2.70273
2.70374
2.70453
2.70282
2.69986
2.69703
2.69805
2.70726
2.71
2.71017
2.71948
2.72821
2.72447
2.72941
1
1
1
1
1
1
1
1
1
1.00002
1.00004
1.00015
1.00022
1.00085
1.00124
1.00483
1.00395
1.01654
1.03198
1.13494
1.33713
1.81108
2.46758
2.66139
2.65118
2.64351
2.64321
2.65122
2.65898
2.67116
2.68096
2.68741
2.69501
2.69899
2.70106
2.70041
2.69823
2.69574
2.69308
2.69301
2.69322
2.69109
2.68676
2.68878
2.69226
2.69732
2.70845
2.71028
2.70084
2.71768
1
1
1
1
1
1
1
1
1
1.00001
1.00003
1.0001
1.00015
1.00051
1.00087
1.00312
1.00278
1.01159
1.01431
1.10132
1.26221
1.74954
2.50465
2.65587
2.65275
2.64785
2.63734
2.645
2.64671
2.65239
2.65702
2.66196
2.66741
2.67515
2.68227
2.68891
2.69165
2.68977
2.68622
2.67954
2.6756
2.67634
2.67683
2.67525
2.67274
2.67189
2.67955
2.68646
2.6799
2.67918
1
1
1
1
1
1
1
1
1
1.00001
1.00003
1.00003
1.00015
1.00042
1.00067
1.00374
1.00238
1.01776
1.00678
1.08919
1.22327
1.67227
2.45453
2.62898
2.66188
2.65645
2.64217
2.64499
2.64645
2.6492
2.65116
2.65211
2.65315
2.65508
2.65819
2.66366
2.66972
2.67803
2.67768
2.67416
2.66699
2.6572
2.65344
2.65544
2.65362
2.65207
2.65053
2.64752
2.63376
2.63933
1
1
1
1
1
1
1
1
1
1
1.00001
1.00003
1.00004
1.0002
1.00025
1.00148
1.00187
1.01358
1.00298
1.08054
1.15916
1.60209
2.33884
2.58124
2.66909
2.65986
2.6574
2.65211
2.65367
2.65281
2.65181
2.65035
2.64814
2.64638
2.64393
2.64253
2.64307
2.64705
2.65259
2.65641
2.65422
2.64663
2.63623
2.62439
2.6205
2.61054
2.608
2.59954
2.56809
2.48353
1
1
1
1
1
1
1
1
1
1
1.00001
1.00001
1.00007
1.00005
1.00056
1.00084
1.00499
1.00482
1.01953
1.03161
1.14833
1.34989
1.89092
2.44658
2.63761
2.62824
2.62552
2.62064
2.628
2.63385
2.64072
2.64261
2.64183
2.63992
2.63715
2.63218
2.62667
2.6211
2.61697
2.61646
2.617
2.61509
2.60947
2.59828
2.57833
2.56182
2.52856
2.49814
2.43921
2.31935
1
1
1
1
1
1
1
1
1
1
1
1.00001
1.00003
1.00003
1.00025
1.00038
1.00211
1.00226
1.01357
1.00788
1.09992
1.25198
1.73621
2.47586
2.62557
2.62337
2.61024
2.6008
2.60124
2.60833
2.61284
2.61818
2.62084
2.6216
2.62087
2.61898
2.6149
2.60744
2.59775
2.58914
2.5781
2.5713
2.55961
2.54899
2.53077
2.50225
2.47055
2.40656
2.33416
2.22117
1
1
1
1
1
1
1
1
1
1
1
1
1.00003
1.00002
1.00023
1.00034
1.00199
1.00211
1.016
1.00241
1.08897
1.18816
1.63191
2.36708
2.57529
2.62852
2.61062
2.59916
2.59516
2.59874
2.60081
2.60179
2.60132
2.59917
2.59741
2.59292
2.58916
2.58382
2.57509
2.56614
2.55227
2.53726
2.52089
2.4977
2.47722
2.44093
2.40452
2.34752
2.27072
2.18963
1
1
1
1
1
1
1
1
1
1
1
1
1.00002
1.00002
1.00017
1.00021
1.00135
1.00149
1.01144
1.00141
1.06616
1.13103
1.49446
2.15804
2.44906
2.60247
2.59091
2.59118
2.58812
2.58951
2.59303
2.59327
2.59223
2.58958
2.58338
2.57573
2.5656
2.55776
2.547
2.53591
2.52405
2.50582
2.49057
2.46352
2.44036
2.40318
2.36534
2.31264
2.24966
2.17837
1
1
1
1
1
1
1
1
1
1
1
1
1.00001
1.00001
1.00012
1.00018
1.00113
1.00109
1.00853
1.0033
1.04261
1.10041
1.30095
1.80567
2.25939
2.52496
2.54585
2.54433
2.5468
2.5523
2.56275
2.57125
2.57436
2.57328
2.56998
2.56217
2.55321
2.5393
2.52818
2.50906
2.49639
2.47228
2.45617
2.42732
2.40397
2.36845
2.33405
2.28798
2.23577
2.17946
1
1
1
1
1
1
1
1
1
1
1
1
1
1.00003
1.00003
1.00021
1.00025
1.00161
1.00179
1.01397
1.00207
1.08072
1.15752
1.57413
2.2472
2.46478
2.53816
2.52804
2.5254
2.52541
2.52851
2.53451
2.54247
2.54509
2.54491
2.54298
2.53843
2.52747
2.51806
2.49883
2.48501
2.45991
2.43898
2.40969
2.38161
2.34761
2.31115
2.27032
2.22195
2.17539
1
1
1
1
1
1
1
1
1
1
1
1
1
1.00002
1.00001
1.00014
1.0002
1.00129
1.00135
1.00977
1.00083
1.05046
1.10948
1.32897
1.86311
2.29486
2.51677
2.51728
2.51091
2.50331
2.5029
2.50394
2.5061
2.50537
2.50403
2.50122
2.49922
2.49432
2.48922
2.47701
2.46625
2.447
2.42835
2.40273
2.3758
2.34433
2.30966
2.27109
2.22701
2.18172
1
1
1
1
1
1
1
1
1
1
1
1
1
1.00001
1.00001
1.00007
1.00007
1.00052
1.00063
1.00512
1.00079
1.03013
1.05519
1.21329
1.51017
2.06087
2.42136
2.49662
2.49567
2.49287
2.48921
2.48848
2.48887
2.48731
2.48508
2.47992
2.47578
2.4671
2.46059
2.44819
2.437
2.42086
2.40383
2.38356
2.36052
2.33397
2.30436
2.27061
2.23222
2.19321
1
1
1
1
1
1
1
1
1
1
1
1
1
1.00001
1.00001
1.00007
1.00007
1.00056
1.00072
1.0042
1.00271
1.02366
1.0047
1.10745
1.24946
1.68936
2.32964
2.45687
2.4629
2.46045
2.45595
2.45192
2.451
2.45052
2.44934
2.44655
2.44392
2.4383
2.43337
2.42453
2.41528
2.4026
2.38795
2.36994
2.34984
2.32596
2.29998
2.26964
2.23605
2.20184
1
1
1
1
1
1
1
1
1
1
1
1
1
1
1.00001
1.00001
1.00009
1.00009
1.0007
1.00082
1.00494
1.00465
1.02174
1.0348
1.16753
1.40929
1.9265
2.35143
2.46518
2.46293
2.45314
2.44241
2.43404
2.42583
2.42061
2.41282
2.40719
2.39887
2.39236
2.38332
2.37513
2.36413
2.35391
2.3398
2.3257
2.30724
2.28768
2.26333
2.23531
2.20481
1
1
1
1
1
1
1
1
1
1
1
1
1
1
1.00001
1.00001
1.00004
1.00004
1.0003
1.00042
1.00241
1.00227
1.01722
1.00482
1.08868
1.19808
1.6024
2.24959
2.38415
2.4253
2.43099
2.42955
2.42545
2.41742
2.41215
2.40342
2.39611
2.38486
2.37483
2.3624
2.3508
2.33754
2.32416
2.30989
2.2942
2.27792
2.2593
2.24028
2.2179
2.19582
1
1
1
1
1
1
1
1
1
1
1
1
1
1
1
1.00001
1.00001
1.00007
1.00008
1.00056
1.0006
1.00424
1.00165
1.0232
1.00735
1.10797
1.27245
1.70148
2.31843
2.419
2.41635
2.4056
2.40152
2.39331
2.38981
2.38408
2.37751
2.36899
2.35879
2.34767
2.3351
2.32215
2.30802
2.29312
2.27774
2.26024
2.24319
2.22239
2.20207
2.17887
1
1
1
1
1
1
1
1
1
1
1
1
1
1
1
1
1.00001
1.00001
1.00006
1.00008
1.00048
1.00043
1.00303
1.00354
1.01942
1.02562
1.15077
1.3873
1.84406
2.29977
2.42323
2.41773
2.40045
2.38841
2.37704
2.36767
2.3588
2.34927
2.33898
2.32724
2.31548
2.30184
2.28905
2.27356
2.25955
2.24228
2.22626
2.20705
2.18727
2.16666
1
1
1
1
1
1
1
1
1
1
1
1
1
1
1
1
1
1.00001
1.00001
1.00008
1.0001
1.0007
1.00072
1.00587
1.00091
1.03028
1.05977
1.20307
1.54555
1.97001
2.30199
2.38463
2.38921
2.38023
2.36966
2.35804
2.3488
2.3392
2.32999
2.31828
2.30678
2.29275
2.27951
2.26404
2.24908
2.23242
2.21531
2.19716
2.17688
2.15734
1
1
1
1
1
1
1
1
1
1
1
1
1
1
1
1
1
1.00001
1.00001
1.00009
1.00007
1.00043
1.00048
1.00337
1.00094
1.0216
0.999942
1.09667
1.19797
1.60365
2.16316
2.2852
2.31397
2.32918
2.32806
2.32583
2.32164
2.31613
2.31152
2.30449
2.2969
2.28629
2.27495
2.26178
2.24752
2.2325
2.21553
2.19834
2.17796
2.15867
1
1
1
1
1
1
1
1
1
1
1
1
1
1
1
1
1
1
1.00002
1.00002
1.00014
1.00014
1.00054
1.0006
1.00408
1.001
1.02639
1.00172
1.10421
1.24827
1.62802
2.20453
2.28867
2.30753
2.307
2.30124
2.29617
2.28945
2.28427
2.27929
2.27336
2.26717
2.2588
2.25008
2.23897
2.22725
2.21325
2.19719
2.17981
2.16124
1
1
1
1
1
1
1
1
1
1
1
1
1
1
1
1
1
1
1
1.00001
1.00002
1.00007
1.00011
1.00038
1.00081
1.00235
1.00507
1.01622
1.04504
1.09704
1.29524
1.77572
2.09565
2.27169
2.28877
2.28692
2.28377
2.27939
2.27386
2.26899
2.26318
2.25655
2.24875
2.23963
2.22949
2.21751
2.20501
2.19124
2.17573
2.15999
1
1
1
1
1
1
1
1
1
1
1
1
1
1
1
1
1
1
1
1
1.00001
1.00003
1.00003
1.0002
1.00021
1.00145
1.0014
1.01049
1.00083
1.05333
1.09253
1.32108
1.81193
2.10178
2.24831
2.2588
2.259
2.25876
2.25678
2.2537
2.25013
2.24555
2.23992
2.23262
2.22396
2.21361
2.20182
2.18882
2.17376
2.15842
1
1
1
1
1
1
1
1
1
1
1
1
1
1
1
1
1
1
1
1
1
1.00002
1.00002
1.00014
1.00015
1.0005
1.00044
1.00352
1.00301
1.01958
1.03321
1.1176
1.29238
1.66364
2.05684
2.21341
2.22108
2.21652
2.21519
2.20891
2.20277
2.19962
2.19729
2.19571
2.19288
2.18993
2.18483
2.17694
2.16571
2.15327
1
1
1
1
1
1
1
1
1
1
1
1
1
1
1
1
1
1
1
1
1
1.00001
1.00001
1.00004
1.00006
1.00024
1.00033
1.00131
1.00207
1.00653
1.01442
1.03751
1.10182
1.2828
1.60457
2.01313
2.19637
2.21934
2.21602
2.21133
2.19978
2.18828
2.1779
2.16816
2.15961
2.15136
2.14434
2.13754
2.13145
2.12322
1
1
1
1
1
1
1
1
1
1
1
1
1
1
1
1
1
1
1
1
1
1
1.00001
1.00001
1.00003
1.00003
1.00019
1.00021
1.00122
1.00127
1.00929
0.999926
1.05145
1.07592
1.31754
1.71195
2.00484
2.17897
2.21358
2.21239
2.20365
2.19216
2.18015
2.167
2.15623
2.14308
2.13251
2.11949
2.10839
2.09589
1
1
1
1
1
1
1
1
1
1
1
1
1
1
1
1
1
1
1
1
1
1
1
1.00001
1.00001
1.00004
1.00004
1.00019
1.00028
1.00113
1.00179
1.00938
1.00684
1.04088
1.06627
1.28715
1.69597
1.94566
2.15288
2.18139
2.18697
2.18171
2.17568
2.16415
2.15403
2.14212
2.13108
2.1186
2.10527
2.09199
1
1
1
1
1
1
1
1
1
1
1
1
1
1
1
1
1
1
1
1
1
1
1
1
1.00001
1.00001
1.00004
1.00006
1.00026
1.0003
1.00131
1.00172
1.00617
1.01168
1.04228
1.09107
1.2015
1.52611
1.95788
2.09727
2.1431
2.143
2.14534
2.14208
2.13867
2.13218
2.1242
2.11475
2.10256
2.09068
1
1
1
1
1
1
1
1
1
1
1
1
1
1
1
1
1
1
1
1
1
1
1
1
1
1.00001
1.00001
1.00004
1.00005
1.00028
1.00026
1.00117
1.00131
1.00753
1.00717
1.02826
1.03941
1.198
1.47533
1.74455
2.01273
2.09745
2.11461
2.11284
2.11069
2.10474
2.09747
2.09238
2.08418
2.0771
1
1
1
1
1
1
1
1
1
1
1
1
1
1
1
1
1
1
1
1
1
1
1
1
1
1
1
1
1.00002
1.00001
1.00014
1.00006
1.00072
1.00051
1.00447
1.00475
1.02778
1.01288
1.14175
1.30597
1.58886
1.88189
2.05808
2.08974
2.08915
2.08546
2.08237
2.07427
2.06626
2.05644
1
1
1
1
1
1
1
1
1
1
1
1
1
1
1
1
1
1
1
1
1
1
1
1
1
1
1
1
1.00001
1.00001
1.00006
1.00005
1.00024
1.00019
1.00154
1.00141
1.00872
1.00635
1.03939
1.06058
1.26774
1.53461
1.78892
1.98818
2.05536
2.06776
2.06797
2.0625
2.05277
2.04491
1
1
1
1
1
1
1
1
1
1
1
1
1
1
1
1
1
1
1
1
1
1
1
1
1
1
1
1
1
1.00001
1.00001
1.00004
1.00006
1.00024
1.00019
1.00116
0.998086
1.00453
1.00849
1.02102
1.06161
1.13168
1.34
1.63836
1.86076
2.01765
2.04554
2.04484
2.03946
2.03051
1
1
1
1
1
1
1
1
1
1
1
1
1
1
1
1
1
1
1
1
1
1
1
1
1
1
1
1
1
1
1
1.00002
1.00001
1.00006
1.00006
1.00037
1.00033
1.00135
1.00125
1.00877
1.00235
1.04445
1.06163
1.24303
1.48502
1.70971
1.91596
1.99772
2.01178
2.00903
1
1
1
1
1
1
1
1
1
1
1
1
1
1
1
1
1
1
1
1
1
1
1
1
1
1
1
1
1
1
1
1
1.00001
1.00001
1.00002
1.00004
1.00012
1.00002
1.00066
0.998294
1.00326
1.00438
1.02633
1.05066
1.10344
1.28513
1.52606
1.72629
1.91226
1.95182
1
1
1
1
1
1
1
1
1
1
1
1
1
1
1
1
1
1
1
1
1
1
1
1
1
1
1
1
1
1
1
1
1
1
1.00001
1.00001
1.00006
1.00006
1.00027
1.00035
1.00128
1.00196
1.00587
1.01063
1.03312
1.06194
1.10709
1.2711
1.43727
1.68155
1
1
1
1
1
1
1
1
1
1
1
1
1
1
1
1
1
1
1
1
1
1
1
1
1
1
1
1
1
1
1
1
1
1
1
1
1
1
0.999986
1.00001
0.999845
1.0004
1.00023
1.00479
1.00325
1.02515
0.953296
1.06477
1.12058
1.38505
1
1
1
1
1
1
1
1
1
1
1
1
1
1
1
1
1
1
1
1
1
1
1
1
1
1
1
1
1
1
1
1
1
1
1
1
1
1
1
1.00002
0.999975
0.999987
0.999444
0.999601
0.995935
1.00136
0.965447
1.01389
1.01827
1.16768
1
1
1
1
1
1
1
1
1
1
1
1
1
1
1
1
1
1
1
1
1
1
1
1
1
1
1
1
1
1
1
1
1
1
1
1
1
1
1
1.00001
0.99999
1
0.999834
0.999879
0.999051
1.00182
0.988945
1.00746
1.01472
1.06606
1
1
1
1
1
1
1
1
1
1
1
1
1
1
1
1
1
1
1
1
1
1
1
1
1
1
1
1
1
1
1
1
1
1
1
1
1
1
1
1
0.999994
0.999999
0.9999
0.999912
0.999413
1.00073
0.994196
1.0037
1.00754
1.03344
1
1
1
1
1
1
1
1
1
1
1
1
1
1
1
1
1
1
1
1
1
1
1
1
1
1
1
1
1
1
1
1
1
1
1
1
1
1
1
1
0.999997
0.999999
0.999946
0.999952
0.999677
1.00039
0.996845
1.002
1.00367
1.01822
1
1
1
1
1
1
1
1
1
1
1
1
1
1
1
1
1
1
1
1
1
1
1
1
1
1
1
1
1
1
1
1
1
1
1
1
1
1
1
1
0.999999
1
0.999976
0.999983
0.999863
1.00026
0.998431
1.00111
1.00216
1.00927
1
1
1
1
1
1
1
1
1
1
1
1
1
1
1
1
1
1
1
1
1
1
1
1
1
1
1
1
1
1
1
1
1
1
1
1
1
1
1
1
1
1
1.00002
1.00001
1.00009
1.00009
1.0005
1.0003
1.00191
1.00229
1
1
1
1
1
1
1
1
1
1
1
1
1
1
1
1
1
1
1
1
1
1
1
1
1
1
1
1
1
1
1
1
1
1
1
1
1
1
1
1
1
1
1.00001
1.00001
1.00005
1.00006
1.00031
1.0002
1.00113
1.00141
1
1
1
1
1
1
1
1
1
1
1
1
1
1
1
1
1
1
1
1
1
1
1
1
1
1
1
1
1
1
1
1
1
1
1
1
1
1
1
1
1
1
1
1
0.999986
1.00009
0.999664
1.00032
1.00068
1.00235
1
1
1
1
1
1
1
1
1
1
1
1
1
1
1
1
1
1
1
1
1
1
1
1
1
1
1
1
1
1
1
1
1
1
1
1
1
1
1
1
1
1
1
0.999997
1.00003
1.00001
1.00022
1.00015
1.00087
1.0011
1.95788
1.86483
1.8703
1.95897
2.06297
2.1945
2.27494
2.36443
2.38984
2.39411
2.39313
2.39633
2.4056
2.41439
2.42471
2.43228
2.43568
2.43599
2.43553
2.43454
2.43264
2.42766
2.42128
2.4153
2.4078
2.40318
2.4074
2.42258
2.46208
2.55627
2.75563
2.99824
3.15862
3.1972
3.4111
3.46147
3.44235
3.42035
3.40818
3.38651
3.36283
3.3471
3.32911
3.30841
3.28704
3.27011
3.24665
3.22934
3.20691
3.18563
3.16039
3.13936
3.11528
3.09491
3.07119
3.0521
3.02929
3.01137
2.98867
2.97008
2.94624
2.92613
2.90175
2.88164
2.85826
2.83922
2.81796
2.80069
2.78163
2.76642
2.74904
2.73574
2.71949
2.70767
2.69225
2.68153
2.6668
2.65696
2.64301
2.63387
2.62084
2.61245
2.60026
2.59274
2.58144
2.57482
2.56431
2.55828
2.54841
2.54263
2.53325
2.52752
2.51836
2.5128
2.50365
2.49847
2.48973
2.48584
2.47959
2.48266
1.97494
1.8881
1.86736
1.86868
1.86884
1.84943
1.82766
1.82888
1.85284
1.88926
1.93172
1.95362
1.95821
1.95745
1.95738
1.95863
1.96274
1.96711
1.97122
1.97296
1.97272
1.97201
1.97025
1.96798
1.96569
1.96635
1.97031
1.98305
2.01787
2.1002
2.29458
2.59729
2.94151
3.02506
3.12447
3.20823
3.22832
3.19386
3.13358
3.07736
3.02073
2.97816
2.94088
2.91482
2.88909
2.86693
2.84399
2.82517
2.80535
2.78834
2.76563
2.74647
2.72529
2.70832
2.68775
2.67067
2.65039
2.63488
2.61571
2.60025
2.58008
2.56387
2.54358
2.52798
2.50844
2.4935
2.47442
2.45994
2.44152
2.42793
2.41067
2.39814
2.38194
2.37024
2.35487
2.34388
2.32935
2.31908
2.3052
2.29536
2.28171
2.27175
2.25789
2.24744
2.23332
2.22243
2.20821
2.19738
2.1834
2.17309
2.15965
2.15015
2.1375
2.1291
2.11738
2.11034
2.09983
2.095
2.08715
2.08906
2.02659
1.95521
1.89425
1.83837
1.77174
1.71741
1.68197
1.68176
1.68679
1.70466
1.73278
1.76082
1.78113
1.79326
1.79947
1.80229
1.8038
1.80547
1.80709
1.80871
1.80979
1.80999
1.80987
1.80955
1.80915
1.80998
1.81337
1.82258
1.84592
1.90147
2.02587
2.29665
2.6577
2.71967
2.79993
2.83026
2.82816
2.79963
2.75479
2.71854
2.68774
2.66216
2.63616
2.61709
2.59785
2.58376
2.56603
2.55418
2.53916
2.52893
2.51422
2.50414
2.48966
2.47899
2.46542
2.45594
2.44291
2.43346
2.42067
2.41186
2.39935
2.38965
2.37552
2.36476
2.35049
2.34103
2.32855
2.32079
2.30947
2.30204
2.29067
2.28278
2.27088
2.26246
2.24999
2.24095
2.22806
2.21855
2.20546
2.19613
2.18318
2.17408
2.16128
2.15208
2.13906
2.1294
2.11579
2.10555
2.09141
2.08085
2.06635
2.05604
2.04149
2.03199
2.01769
2.00961
1.99609
1.98986
1.97928
1.977
2.04617
1.97786
1.91109
1.85212
1.79284
1.74557
1.7008
1.66877
1.64717
1.64589
1.64736
1.65774
1.67426
1.69378
1.71003
1.7219
1.72843
1.73145
1.73301
1.73391
1.73471
1.7354
1.73596
1.73639
1.73675
1.73763
1.7401
1.7463
1.76108
1.79585
1.87178
2.07459
2.30935
2.5872
2.70675
2.70786
2.69287
2.65707
2.6104
2.56939
2.54145
2.52332
2.50769
2.49364
2.48006
2.47168
2.45979
2.45074
2.43907
2.42975
2.41677
2.40761
2.3952
2.38499
2.37241
2.36366
2.35165
2.34236
2.32944
2.3203
2.3077
2.29871
2.28594
2.27661
2.26373
2.25424
2.24122
2.23152
2.21872
2.20921
2.19747
2.18882
2.17854
2.17094
2.16147
2.15472
2.14524
2.13907
2.12941
2.1234
2.11379
2.10766
2.09787
2.0913
2.08076
2.07334
2.06164
2.05322
2.04023
2.03108
2.01697
2.00764
1.9928
1.98388
1.96904
1.96063
1.94716
1.93896
1.92901
1.92401
2.06408
1.99986
1.93733
1.87969
1.82397
1.77328
1.72635
1.68503
1.64845
1.62436
1.61295
1.61377
1.61631
1.62606
1.63918
1.65377
1.66756
1.67822
1.68552
1.68976
1.69183
1.69276
1.69335
1.69398
1.69449
1.69531
1.69721
1.70157
1.71149
1.73438
1.78697
1.90548
2.15623
2.47452
2.67705
2.66325
2.62986
2.58383
2.52163
2.46171
2.41957
2.39801
2.38421
2.37113
2.36578
2.36195
2.3576
2.35326
2.34635
2.34305
2.3363
2.33026
2.31991
2.3121
2.30083
2.29233
2.28019
2.27104
2.25868
2.25031
2.23806
2.22937
2.21682
2.20813
2.19639
2.18864
2.17775
2.17056
2.16006
2.15312
2.14304
2.13639
2.12637
2.11958
2.10925
2.10214
2.09138
2.0843
2.07366
2.06713
2.05711
2.05144
2.0419
2.03684
2.02727
2.02228
2.0122
2.00685
1.99594
1.99008
1.97827
1.97158
1.95939
1.95165
1.93979
1.9312
1.92022
1.91162
1.90272
1.89733
2.07269
2.01203
1.95498
1.90153
1.84914
1.80132
1.75483
1.71483
1.67666
1.64456
1.61579
1.59989
1.58963
1.58974
1.59112
1.59769
1.60712
1.61966
1.63128
1.64126
1.64844
1.6524
1.65461
1.65595
1.65633
1.65708
1.65858
1.66189
1.6695
1.68698
1.72702
1.81862
2.00691
2.35261
2.66205
2.63971
2.57864
2.5411
2.46955
2.3958
2.34349
2.31591
2.30093
2.29531
2.29106
2.29175
2.29356
2.29313
2.29127
2.28718
2.28204
2.27851
2.27113
2.26229
2.25184
2.24403
2.23332
2.22468
2.21451
2.2072
2.19699
2.18932
2.17839
2.1705
2.15938
2.15114
2.13984
2.13163
2.1205
2.1127
2.1019
2.09463
2.08438
2.07776
2.06783
2.06164
2.05186
2.04607
2.03637
2.03098
2.02135
2.0163
2.007
2.00238
1.9934
1.98892
1.97989
1.97511
1.96598
1.96018
1.95087
1.94431
1.93485
1.92756
1.91807
1.91005
1.90061
1.89248
1.88418
1.87914
2.08706
2.02504
1.96871
1.91619
1.8662
1.81937
1.7748
1.73398
1.69547
1.66161
1.63004
1.60277
1.58169
1.56934
1.56328
1.56371
1.56536
1.57134
1.57942
1.58935
1.59964
1.6085
1.61524
1.61945
1.62201
1.62361
1.62543
1.62928
1.63738
1.65485
1.69116
1.7816
1.91923
2.1977
2.45767
2.53516
2.50281
2.46124
2.3954
2.34879
2.29916
2.26589
2.24924
2.24118
2.23519
2.23041
2.22971
2.2314
2.23497
2.23518
2.23301
2.22896
2.22388
2.21756
2.20964
2.20108
2.19089
2.18072
2.17187
2.16333
2.15474
2.14628
2.13711
2.12972
2.12067
2.11393
2.10485
2.09821
2.08941
2.08288
2.074
2.06717
2.05784
2.051
2.04159
2.03512
2.02557
2.01946
2.00963
2.00394
1.99429
1.98901
1.97992
1.97504
1.9667
1.96163
1.95462
1.94843
1.9426
1.93562
1.92986
1.92248
1.91626
1.90857
1.90155
1.89375
1.88592
1.87844
1.8709
1.86671
2.1084
2.04562
1.98837
1.93456
1.88492
1.83832
1.79489
1.75427
1.7163
1.68171
1.64965
1.6212
1.59445
1.5727
1.55693
1.54765
1.54302
1.54348
1.54499
1.55005
1.557
1.56582
1.57528
1.58359
1.59039
1.59533
1.59984
1.60577
1.61778
1.64257
1.6929
1.80562
1.95802
2.10545
2.25486
2.37176
2.42363
2.40421
2.38191
2.35288
2.31202
2.27491
2.24131
2.2166
2.19867
2.18797
2.18043
2.17513
2.17082
2.17165
2.17146
2.17038
2.16861
2.16582
2.16162
2.15743
2.15075
2.14312
2.13649
2.12896
2.1226
2.11546
2.10853
2.10184
2.09419
2.08778
2.07967
2.07314
2.06486
2.05814
2.04977
2.04285
2.03438
2.02765
2.01907
2.01296
2.00405
1.99837
1.989
1.9836
1.97418
1.96893
1.95998
1.95471
1.94667
1.9408
1.93471
1.92753
1.92299
1.91516
1.91098
1.9028
1.89863
1.89033
1.88563
1.87763
1.87188
1.86476
1.85844
1.85497
2.12833
2.06863
2.01222
1.95608
1.90536
1.857
1.8133
1.77239
1.73438
1.69947
1.66692
1.63744
1.61045
1.58618
1.56412
1.54634
1.5344
1.52685
1.52409
1.52464
1.52623
1.53046
1.53762
1.54511
1.55519
1.56435
1.57417
1.58613
1.60733
1.6488
1.74295
1.87406
2.01437
2.08417
2.13346
2.20902
2.28231
2.3336
2.34914
2.33559
2.31164
2.27342
2.23687
2.2057
2.17716
2.15881
2.1465
2.13833
2.1331
2.13023
2.13073
2.13364
2.13725
2.13761
2.13733
2.13623
2.1338
2.1288
2.12264
2.11441
2.1083
2.1006
2.09393
2.08652
2.07888
2.07191
2.06349
2.05624
2.04742
2.03997
2.03135
2.02418
2.01552
2.00872
1.99947
1.99327
1.98369
1.97801
1.96851
1.9629
1.95345
1.94777
1.9386
1.9328
1.92467
1.91831
1.91197
1.90488
1.89981
1.89245
1.88796
1.88024
1.87632
1.86859
1.86458
1.85731
1.85255
1.84604
1.8404
1.83735
2.14225
2.09168
2.04002
1.98607
1.93427
1.885
1.83899
1.79692
1.75753
1.72145
1.68791
1.65726
1.62902
1.6031
1.58016
1.5581
1.54069
1.52528
1.51692
1.51006
1.51006
1.51109
1.51376
1.51913
1.52895
1.53907
1.55483
1.57611
1.61379
1.69011
1.8225
1.96608
2.03906
2.06215
2.08042
2.10819
2.15331
2.20491
2.25386
2.27649
2.26805
2.25349
2.23284
2.20328
2.17832
2.15578
2.13318
2.12068
2.11442
2.11181
2.112
2.11267
2.11443
2.11746
2.12159
2.12107
2.12006
2.11812
2.11482
2.10789
2.10064
2.0928
2.08493
2.07739
2.06873
2.06172
2.05239
2.04493
2.03504
2.02746
2.01765
2.0106
2.00074
1.99419
1.98404
1.97785
1.9676
1.9614
1.95114
1.94475
1.9345
1.9282
1.91866
1.91243
1.90408
1.89768
1.89025
1.88354
1.87672
1.86999
1.864
1.85742
1.85209
1.8457
1.84049
1.83432
1.82858
1.82284
1.81661
1.81405
2.14148
2.10027
2.05774
2.01078
1.96329
1.91614
1.87122
1.82847
1.78914
1.7519
1.71783
1.68608
1.65678
1.62986
1.6051
1.58239
1.56215
1.54335
1.52794
1.51686
1.50893
1.50653
1.50742
1.50982
1.51511
1.52724
1.54506
1.58199
1.64399
1.76863
1.91137
2.01537
2.03986
2.05027
2.05708
2.06042
2.07198
2.09213
2.12087
2.15647
2.18971
2.20976
2.20534
2.19602
2.18183
2.16133
2.14447
2.13119
2.11909
2.11216
2.10738
2.10411
2.10259
2.10249
2.10301
2.10515
2.1045
2.10321
2.10073
2.09641
2.08885
2.08114
2.07153
2.06419
2.05439
2.04796
2.03817
2.03142
2.02084
2.01359
2.00302
1.99647
1.9865
1.98045
1.97031
1.96396
1.95345
1.94693
1.93662
1.93016
1.92014
1.91349
1.90384
1.897
1.88792
1.8813
1.87276
1.86633
1.85811
1.85169
1.84357
1.83746
1.8295
1.82397
1.81612
1.81121
1.80332
1.79909
1.79169
1.79055
2.13451
2.09963
2.06229
2.02302
1.98122
1.93866
1.89713
1.85655
1.81815
1.78194
1.74769
1.71604
1.6863
1.65865
1.63335
1.60929
1.58809
1.56773
1.55083
1.53368
1.52235
1.51256
1.51239
1.51413
1.51953
1.53171
1.55787
1.60843
1.71827
1.85554
1.98236
2.02182
2.03775
2.03754
2.03343
2.02453
2.01998
2.01326
2.02037
2.03789
2.06833
2.10521
2.13988
2.16093
2.16776
2.16279
2.15461
2.1412
2.12546
2.11464
2.1041
2.09439
2.08726
2.08261
2.07899
2.07782
2.07593
2.07457
2.07084
2.06716
2.06124
2.05621
2.04666
2.03903
2.0288
2.02155
2.01141
2.00411
1.99382
1.98668
1.97664
1.96997
1.96038
1.95436
1.94505
1.93929
1.92963
1.92343
1.91339
1.90667
1.89674
1.88967
1.87998
1.87292
1.86335
1.85652
1.84717
1.84071
1.83156
1.82544
1.81647
1.81073
1.80208
1.79703
1.78901
1.78484
1.77743
1.77429
1.76783
1.7688
2.12247
2.09508
2.06287
2.02723
1.99114
1.95323
1.91495
1.87789
1.84112
1.80654
1.77306
1.74204
1.71217
1.68472
1.65904
1.63411
1.61288
1.59038
1.57286
1.5538
1.54025
1.5267
1.52514
1.52746
1.53496
1.553
1.59142
1.68146
1.80192
1.94123
2.00322
2.02133
2.01742
2.00906
1.99637
1.98177
1.96872
1.96129
1.96054
1.9637
1.9765
2.00225
2.03731
2.07343
2.10678
2.12548
2.13645
2.12965
2.12131
2.11003
2.09312
2.07942
2.06671
2.05701
2.04963
2.04393
2.0388
2.03586
2.03209
2.02865
2.02464
2.02183
2.01599
2.0108
2.00092
1.9936
1.98336
1.97559
1.96536
1.95849
1.94986
1.94434
1.93623
1.93014
1.92127
1.91406
1.90498
1.89754
1.88881
1.88159
1.87278
1.8658
1.85663
1.8499
1.84057
1.8341
1.82494
1.81871
1.80999
1.80411
1.79573
1.79037
1.78238
1.77756
1.77013
1.76611
1.75935
1.75657
1.75097
1.75273
2.11398
2.08544
2.05824
2.02777
1.99423
1.96042
1.92623
1.89135
1.85785
1.82497
1.79242
1.76315
1.7333
1.7062
1.68112
1.65533
1.63487
1.61121
1.59411
1.5736
1.56078
1.54738
1.54767
1.5517
1.56392
1.59239
1.66279
1.77035
1.91066
1.9802
1.99894
1.99591
1.98396
1.97025
1.95467
1.94013
1.92807
1.92089
1.92162
1.9242
1.93032
1.93822
1.95446
1.97449
2.00079
2.02873
2.05406
2.07177
2.08043
2.07405
2.06671
2.05813
2.04363
2.0305
2.02008
2.0116
2.00297
1.99685
1.99203
1.98891
1.98676
1.98559
1.98376
1.98114
1.97515
1.96875
1.95929
1.95308
1.94378
1.93769
1.92899
1.92371
1.91608
1.91106
1.90349
1.89717
1.88895
1.88134
1.87319
1.86579
1.8578
1.85108
1.8426
1.83622
1.82742
1.82147
1.8127
1.80723
1.7987
1.79349
1.7853
1.78033
1.7726
1.76805
1.76076
1.75681
1.74989
1.747
1.74115
1.7427
2.11616
2.08418
2.05563
2.02642
1.9963
1.9641
1.93168
1.90095
1.86764
1.83851
1.80707
1.77803
1.75108
1.7221
1.69949
1.67254
1.65227
1.62961
1.61068
1.5934
1.57761
1.57302
1.57545
1.58322
1.60446
1.65383
1.7567
1.88657
1.9679
1.98585
1.98226
1.96976
1.95338
1.9395
1.92413
1.91177
1.90298
1.8982
1.8959
1.89475
1.89384
1.89291
1.89183
1.89514
1.90399
1.91932
1.939
1.96173
1.98494
2.00451
2.01582
2.02123
2.01528
2.0088
1.99974
1.98866
1.97608
1.9664
1.9588
1.95358
1.95008
1.94958
1.94928
1.94855
1.94641
1.94302
1.93499
1.92865
1.91951
1.9142
1.90653
1.90276
1.89617
1.8926
1.88564
1.88062
1.87291
1.86645
1.85886
1.85212
1.84519
1.8391
1.83219
1.8264
1.81898
1.81311
1.80558
1.80007
1.79269
1.7877
1.78019
1.77565
1.76795
1.76384
1.75638
1.75271
1.74559
1.7425
1.73602
1.73685
2.1242
2.08918
2.05807
2.02774
1.99788
1.96737
1.93623
1.90487
1.87645
1.84501
1.81845
1.78896
1.76334
1.73717
1.71153
1.68989
1.66515
1.64689
1.62548
1.61085
1.59883
1.59977
1.60618
1.6223
1.65961
1.75156
1.86948
1.96253
1.98711
1.98236
1.96594
1.95011
1.93391
1.92006
1.90713
1.89741
1.88859
1.88056
1.87298
1.8649
1.85847
1.85245
1.84895
1.84511
1.84208
1.84134
1.84604
1.85715
1.87374
1.89703
1.92093
1.94446