/*--------------------------------*- C++ -*----------------------------------*\
| =========                 |                                                 |
| \\      /  F ield         | OpenFOAM: The Open Source CFD Toolbox           |
|  \\    /   O peration     | Version:  2112                                  |
|   \\  /    A nd           | Website:  www.openfoam.com                      |
|    \\/     M anipulation  |                                                 |
\*---------------------------------------------------------------------------*/
FoamFile
{
    version     2.0;
    format      ascii;
    arch        "LSB;label=32;scalar=64";
    class       volVectorField;
    location    "2.5005";
    object      U;
}
// * * * * * * * * * * * * * * * * * * * * * * * * * * * * * * * * * * * * * //

dimensions      [0 1 -1 0 0 0 0];

internalField   nonuniform List<vector> 
7000
(
(3 -5.83624e-07 0.000805021)
(3 -1.36452e-06 0.000764326)
(3 -1.91898e-06 0.000723861)
(3 -2.13585e-06 0.000683627)
(3 -1.94533e-06 0.000643626)
(3 -1.75638e-06 0.000603868)
(3 -1.61218e-06 0.000564358)
(3 -1.55246e-06 0.000525101)
(3 -1.60364e-06 0.000486086)
(2.99999 -2.22795e-06 0.000447662)
(2.99996 -2.69538e-06 0.000409929)
(2.99984 -3.66702e-06 0.000374334)
(2.99963 1.45338e-06 0.000340184)
(2.999 3.65053e-06 0.000318012)
(2.99791 5.8872e-05 0.000299714)
(2.99425 0.000104765 0.000362846)
(2.98948 0.000571453 0.000381177)
(2.95899 0.00105857 0.00136621)
(2.9129 -0.000371284 0.00190891)
(2.72405 0.00118577 0.00783653)
(2.1594 -0.0170235 0.015078)
(1.19466 -0.0291799 0.0255908)
(0.460687 -0.0211127 0.00877447)
(0.618652 -0.00642662 -0.00234769)
(0.727607 -0.00338971 -0.00191776)
(0.738339 -0.00421535 -0.000653677)
(0.710902 -0.0051564 -0.000239278)
(0.673236 -0.00433768 -0.000223739)
(0.639827 -0.00341169 -0.000415924)
(0.61356 -0.00254083 -0.000643316)
(0.589704 -0.00165425 -0.000810624)
(0.565302 -0.000743137 -0.000942978)
(0.539932 0.000182142 -0.00107221)
(0.513889 0.00109098 -0.0012085)
(0.487559 0.00197469 -0.00134829)
(0.461123 0.00281204 -0.00149219)
(0.434522 0.00356798 -0.00163753)
(0.407905 0.00425937 -0.0017827)
(0.381277 0.00490575 -0.00193099)
(0.354547 0.00555593 -0.00207943)
(0.327716 0.00630644 -0.00222837)
(0.30042 0.00721875 -0.00238049)
(0.272554 0.00837083 -0.00253007)
(0.243868 0.00981458 -0.00268509)
(0.213493 0.0114668 -0.00284741)
(0.181542 0.0133492 -0.00300889)
(0.148139 0.0154925 -0.00317843)
(0.111585 0.0181281 -0.00336008)
(0.0695169 0.0222518 -0.00351985)
(0.0338971 0.0288595 -0.00370459)
(3 -6.09803e-07 0.000777211)
(3 -1.39377e-06 0.00073787)
(3 -1.92282e-06 0.000698757)
(3 -2.03742e-06 0.000659872)
(3 -1.84281e-06 0.00062122)
(3 -1.69664e-06 0.000582809)
(3 -1.67193e-06 0.000544642)
(3 -1.86144e-06 0.000506725)
(3 -2.47661e-06 0.000469047)
(2.99999 -3.90768e-06 0.000431928)
(2.99996 -5.02744e-06 0.00039546)
(2.99985 -6.8663e-06 0.000360954)
(2.99965 1.85753e-06 0.000327793)
(2.99906 5.09304e-06 0.000305285)
(2.99806 9.20273e-05 0.000285987)
(2.99469 0.000187565 0.000338916)
(2.99077 0.000847197 0.000335563)
(2.9602 0.00152892 0.00131812)
(2.91895 0.00215543 0.00168537)
(2.73263 0.00519871 0.00754171)
(2.17711 -0.00566328 0.0143192)
(1.22439 -0.00626911 0.0247956)
(0.468611 0.0138865 0.00875525)
(0.610707 0.0336655 -0.00199008)
(0.716885 0.0323938 -0.00177698)
(0.72973 0.0281485 -0.000643015)
(0.704886 0.0254882 -0.000256409)
(0.668368 0.0267776 -0.000228744)
(0.634238 0.0278345 -0.000394987)
(0.607107 0.0283162 -0.000613591)
(0.582587 0.0286384 -0.000777104)
(0.557644 0.028976 -0.000905221)
(0.531822 0.0293496 -0.0010299)
(0.50545 0.029705 -0.00116117)
(0.478942 0.0300595 -0.00129568)
(0.452417 0.0304112 -0.00143406)
(0.425735 0.0307223 -0.00157336)
(0.398943 0.0310446 -0.00171292)
(0.371921 0.0313976 -0.00185566)
(0.344546 0.0318361 -0.00199827)
(0.316824 0.0324833 -0.0021422)
(0.288478 0.0333926 -0.00228806)
(0.259606 0.0346658 -0.0024314)
(0.230065 0.0363549 -0.00258156)
(0.199152 0.0383473 -0.00273644)
(0.167142 0.0407413 -0.00289025)
(0.134002 0.0436013 -0.00305246)
(0.0981635 0.047128 -0.00322261)
(0.0578853 0.052398 -0.00337035)
(0.0267479 0.0600136 -0.00353827)
(3 -4.53838e-08 0.000748287)
(3 -9.11334e-08 0.00071036)
(3 -1.17948e-07 0.000672657)
(3 -1.4533e-07 0.00063518)
(3 -2.5223e-07 0.000597934)
(3 -4.41012e-07 0.000560924)
(3 -7.16532e-07 0.000524156)
(3 -1.19801e-06 0.000487635)
(3 -1.80954e-06 0.000451348)
(2.99999 -6.56574e-06 0.000415597)
(2.99996 -7.97152e-06 0.000380488)
(2.99985 -3.95939e-05 0.000347211)
(2.99965 -2.71555e-05 0.000315348)
(2.99908 -0.000231965 0.000293293)
(2.99809 -0.000132386 0.000274325)
(2.9948 -0.00162036 0.000323713)
(2.99097 0.000436051 0.000319426)
(2.96131 0.00359683 0.00123595)
(2.92076 0.00322808 0.00159566)
(2.7365 0.00549928 0.00717281)
(2.18629 -0.00972998 0.0136425)
(1.2337 -0.0198329 0.024038)
(0.461999 -0.0058077 0.00850223)
(0.598291 0.0232683 -0.00181242)
(0.701683 0.0229695 -0.00163422)
(0.716477 0.0213916 -0.000632087)
(0.694284 0.0212428 -0.000274657)
(0.659143 0.0250607 -0.000235146)
(0.624568 0.0282042 -0.000374171)
(0.597136 0.0305028 -0.00058444)
(0.572683 0.032509 -0.000744582)
(0.547929 0.034468 -0.000868601)
(0.522259 0.0364136 -0.000988735)
(0.496003 0.0382753 -0.00111448)
(0.469623 0.0400833 -0.00124309)
(0.443196 0.0418381 -0.00137529)
(0.416572 0.0435185 -0.00150754)
(0.38977 0.0452105 -0.00164059)
(0.362622 0.0469538 -0.0017769)
(0.335038 0.0488306 -0.00191301)
(0.307038 0.0509942 -0.00205067)
(0.278385 0.0535154 -0.0021901)
(0.24926 0.0565363 -0.00232738)
(0.219515 0.0601007 -0.00247222)
(0.188603 0.0640807 -0.00261959)
(0.15694 0.0685878 -0.00276628)
(0.124367 0.0736796 -0.00292131)
(0.0897002 0.0795016 -0.00308063)
(0.0516847 0.0868734 -0.00321703)
(0.0231398 0.0959732 -0.00337512)
(3 -6.3609e-09 0.000718202)
(3 4.01965e-08 0.00068175)
(3 1.0813e-07 0.000645518)
(3 9.87553e-08 0.000609509)
(3 8.43898e-08 0.000573726)
(3 2.96181e-08 0.000538176)
(3 -3.04571e-08 0.000502863)
(3 -1.53207e-07 0.000467787)
(3 -8.72321e-08 0.000432991)
(2.99999 -4.58027e-06 0.000398625)
(2.99994 -6.16165e-06 0.000365277)
(2.99985 -3.54463e-05 0.000332815)
(2.99956 -2.30642e-05 0.00030508)
(2.99904 -0.000197292 0.000280045)
(2.99737 -7.07222e-05 0.000285063)
(2.99519 -0.00131647 0.000271531)
(2.99454 0.000800069 0.000200656)
(2.96314 0.00371371 0.0012264)
(2.9255 0.00395052 0.00143492)
(2.74205 0.00866163 0.00695771)
(2.19353 -0.00553246 0.0130044)
(1.25574 -0.00907209 0.0230012)
(0.479752 0.0191015 0.00826268)
(0.596161 0.04982 -0.00150626)
(0.690601 0.0458245 -0.00145369)
(0.708273 0.0439942 -0.000632198)
(0.688529 0.0441262 -0.000289707)
(0.654225 0.0481956 -0.000235645)
(0.618561 0.0512371 -0.000348234)
(0.590287 0.0533729 -0.000551571)
(0.565456 0.0551977 -0.000709078)
(0.540519 0.0569731 -0.000829425)
(0.514681 0.0587584 -0.000944734)
(0.488256 0.0605128 -0.00106467)
(0.461724 0.0622815 -0.00118761)
(0.435128 0.0640728 -0.00131363)
(0.408334 0.06589 -0.00143939)
(0.381356 0.067814 -0.00156659)
(0.354003 0.0698987 -0.00169648)
(0.326227 0.0722258 -0.00182595)
(0.298054 0.0749459 -0.0019574)
(0.269282 0.0781524 -0.00208976)
(0.240158 0.0820064 -0.00222075)
(0.210485 0.0865783 -0.00235975)
(0.179861 0.0917491 -0.00249906)
(0.148824 0.0976015 -0.00263799)
(0.117086 0.104159 -0.00278484)
(0.0837591 0.111501 -0.00293215)
(0.0478562 0.120012 -0.0030575)
(0.0210777 0.129569 -0.00320748)
(3 1.52232e-08 0.000686908)
(3 2.05055e-07 0.000651993)
(3 4.18218e-07 0.000617296)
(3 6.82189e-07 0.000582817)
(3 7.65582e-07 0.00054856)
(3 8.15882e-07 0.00051453)
(3 8.47032e-07 0.000480733)
(3 8.71143e-07 0.000447168)
(3 9.06335e-07 0.000413883)
(2.99999 -4.03556e-07 0.000381006)
(2.99994 -2.51166e-06 0.000349066)
(2.99985 -1.75304e-06 0.000317901)
(2.99958 1.37581e-06 0.000290947)
(2.9991 4.06841e-05 0.000265957)
(2.99756 0.000114875 0.000269182)
(2.99538 0.000466745 0.000260277)
(2.9946 0.000910196 0.000189129)
(2.96444 0.000122234 0.00113801)
(2.92944 0.00333883 0.00130703)
(2.74819 0.00327188 0.00658016)
(2.20857 -0.00232209 0.0122454)
(1.28069 -0.0037413 0.0220632)
(0.497662 0.0234356 0.00801643)
(0.594646 0.0546977 -0.00122779)
(0.68042 0.0511437 -0.00128221)
(0.701348 0.0509183 -0.000637714)
(0.684476 0.0526331 -0.000308989)
(0.651393 0.0581044 -0.000239635)
(0.614904 0.0625312 -0.000324471)
(0.58605 0.06598 -0.00052059)
(0.561057 0.0689891 -0.000674904)
(0.536116 0.0718623 -0.000790909)
(0.510234 0.0746721 -0.000900545)
(0.48369 0.0774028 -0.00101401)
(0.45697 0.0801154 -0.00113085)
(0.430106 0.0828277 -0.00125068)
(0.403008 0.0855741 -0.00136963)
(0.375708 0.0884378 -0.00149048)
(0.348015 0.0914867 -0.00161408)
(0.319923 0.0948124 -0.00173685)
(0.291468 0.0985509 -0.00186222)
(0.262489 0.102796 -0.00198782)
(0.233276 0.107733 -0.00211172)
(0.203585 0.113398 -0.00224426)
(0.173149 0.119712 -0.0023748)
(0.142588 0.126742 -0.00250551)
(0.111523 0.134488 -0.00264509)
(0.0793388 0.14293 -0.00278384)
(0.0451883 0.15207 -0.00290032)
(0.0197216 0.1616 -0.0030416)
(3 1.29398e-08 0.00065435)
(3 2.2449e-07 0.000621041)
(3 4.76818e-07 0.000587944)
(3 8.42022e-07 0.000555062)
(3 9.82703e-07 0.000522395)
(3 1.07937e-06 0.00048995)
(3 1.13664e-06 0.000457732)
(3 1.16127e-06 0.00042574)
(3 1.12313e-06 0.000394023)
(2.99999 5.01425e-07 0.000362693)
(2.99994 -1.48209e-07 0.000332216)
(2.99986 5.39686e-06 0.000302467)
(2.9996 1.44411e-05 0.000276467)
(2.99915 6.79565e-05 0.000252302)
(2.9977 0.000138153 0.000253085)
(2.99573 0.000514412 0.000241538)
(2.99511 0.00130592 0.000173897)
(2.96613 0.00108349 0.00104542)
(2.9334 0.00427077 0.00118029)
(2.75514 0.0040923 0.00617547)
(2.2286 -0.000367323 0.0114289)
(1.31232 0.0025223 0.0210626)
(0.521128 0.0365338 0.00776565)
(0.595513 0.0679333 -0.000938995)
(0.671255 0.0654917 -0.00110913)
(0.695611 0.0670478 -0.000639688)
(0.681503 0.0697826 -0.000321705)
(0.649668 0.0751537 -0.000240474)
(0.612453 0.0800789 -0.000300257)
(0.582955 0.0839656 -0.000487436)
(0.557778 0.0873632 -0.000638104)
(0.532872 0.0906759 -0.000749953)
(0.507011 0.093964 -0.000853953)
(0.480428 0.0972154 -0.000961271)
(0.453603 0.100495 -0.0010722)
(0.426562 0.103819 -0.00118569)
(0.399255 0.107232 -0.00129841)
(0.371724 0.110817 -0.00141226)
(0.343783 0.114645 -0.00152878)
(0.315444 0.118812 -0.00164499)
(0.286749 0.12344 -0.00176303)
(0.2576 0.128611 -0.00188126)
(0.228284 0.134503 -0.0019993)
(0.198537 0.141143 -0.00212389)
(0.168243 0.14844 -0.00224707)
(0.138072 0.156435 -0.00237082)
(0.107556 0.165121 -0.00250124)
(0.0762571 0.174367 -0.00262882)
(0.0433686 0.183858 -0.00273706)
(0.018783 0.193192 -0.00286965)
(3 2.08061e-08 0.000620474)
(3 2.22311e-07 0.000588841)
(3 5.41274e-07 0.000557414)
(3 9.51801e-07 0.000526196)
(3 1.33671e-06 0.000495189)
(3 1.58149e-06 0.000464395)
(3 1.78326e-06 0.000433823)
(3 1.95228e-06 0.000403469)
(3 2.03995e-06 0.000373382)
(2.99999 1.98943e-06 0.000343656)
(2.99995 2.59335e-06 0.000314689)
(2.99987 1.10732e-05 0.000286395)
(2.99963 2.58143e-05 0.00026133)
(2.99922 9.32654e-05 0.000237932)
(2.99791 0.000193657 0.000235804)
(2.99617 0.000655465 0.000221819)
(2.99572 0.00156605 0.000159793)
(2.96787 0.00152203 0.000955994)
(2.93751 0.00493003 0.00105397)
(2.76246 0.00517464 0.00576471)
(2.25155 0.00190429 0.0105655)
(1.34939 0.00860114 0.0200117)
(0.546884 0.051669 0.0074979)
(0.597 0.0766518 -0.000648114)
(0.66336 0.0787624 -0.000939727)
(0.691366 0.0823455 -0.00063586)
(0.679514 0.0860302 -0.000325582)
(0.649082 0.091102 -0.000240487)
(0.61167 0.0966186 -0.000280537)
(0.581621 0.101134 -0.000454182)
(0.556389 0.105218 -0.000600447)
(0.531623 0.109279 -0.000708115)
(0.505812 0.113333 -0.000806159)
(0.479176 0.117362 -0.000906862)
(0.4522 0.121433 -0.00101172)
(0.424921 0.125564 -0.00111878)
(0.397339 0.129798 -0.00122474)
(0.369513 0.13422 -0.00133199)
(0.341277 0.138906 -0.0014412)
(0.312667 0.143962 -0.00155057)
(0.283724 0.149499 -0.00166193)
(0.254404 0.155588 -0.00177263)
(0.224992 0.162375 -0.0018834)
(0.19518 0.169905 -0.00200107)
(0.164967 0.178091 -0.00211499)
(0.135028 0.186909 -0.00223155)
(0.104847 0.196316 -0.00235368)
(0.0741694 0.20613 -0.00247256)
(0.0421734 0.21583 -0.0025735)
(0.0181277 0.225002 -0.0026999)
(3 2.28068e-08 0.000585223)
(3 2.03734e-07 0.000555338)
(3 5.3626e-07 0.000525654)
(3 9.30944e-07 0.000496173)
(3 1.4216e-06 0.000466896)
(3 1.72673e-06 0.000437826)
(3 1.99435e-06 0.000408968)
(3 2.23713e-06 0.000380322)
(3 2.42837e-06 0.000351931)
(2.99999 2.1885e-06 0.000323875)
(2.99995 2.39653e-06 0.000296486)
(2.99988 8.00877e-06 0.000269715)
(2.99967 1.81257e-05 0.000245662)
(2.9993 6.49298e-05 0.000223075)
(2.99814 9.73782e-05 0.00021798)
(2.99667 0.000397835 0.000201174)
(2.99643 0.00113231 0.000144242)
(2.96985 0.000563143 0.000864054)
(2.94206 0.00484113 0.000926888)
(2.77055 0.00596181 0.00534543)
(2.27732 0.0058397 0.0096719)
(1.3935 0.0159821 0.0188607)
(0.575046 0.070089 0.00726635)
(0.598519 0.0860251 -0.000361497)
(0.660412 0.0930063 -0.000837118)
(0.689432 0.0984092 -0.000602163)
(0.679134 0.102987 -0.000315764)
(0.650239 0.108026 -0.000237121)
(0.613233 0.113751 -0.000264632)
(0.582832 0.118859 -0.000421237)
(0.557614 0.123733 -0.00056202)
(0.532966 0.128624 -0.000665212)
(0.507139 0.133525 -0.00075719)
(0.480364 0.138419 -0.00085132)
(0.453138 0.143365 -0.000949651)
(0.425511 0.14838 -0.00104984)
(0.397538 0.153493 -0.00114902)
(0.369301 0.158805 -0.00124899)
(0.340667 0.164374 -0.00135116)
(0.311709 0.170325 -0.00145288)
(0.282446 0.17679 -0.00155705)
(0.252878 0.183806 -0.00166033)
(0.223303 0.191482 -0.0017644)
(0.193402 0.199839 -0.00187498)
(0.163211 0.208774 -0.00198064)
(0.133375 0.218303 -0.00208692)
(0.103343 0.22834 -0.0022022)
(0.0730585 0.238611 -0.0023122)
(0.0416461 0.248392 -0.00240499)
(0.0178079 0.25734 -0.00251951)
(3 2.12954e-08 0.000548536)
(3 1.90562e-07 0.000520478)
(3 5.13291e-07 0.000492613)
(3 9.02199e-07 0.000464943)
(3 1.40458e-06 0.000437471)
(3 1.80351e-06 0.000410197)
(3 2.18006e-06 0.000383127)
(3 2.52984e-06 0.00035626)
(3 2.79238e-06 0.00032964)
(2.99999 2.89755e-06 0.00030333)
(2.99995 3.92578e-06 0.000277628)
(2.99988 1.11741e-05 0.000252484)
(2.99968 2.62151e-05 0.000229798)
(2.99931 8.03934e-05 0.000208899)
(2.99819 0.000128164 0.000203222)
(2.9969 0.000436386 0.00018449)
(2.99655 0.00111214 0.000128378)
(2.97192 0.000371075 0.000761068)
(2.94769 0.00517383 0.00079379)
(2.78018 0.00661094 0.0049061)
(2.30542 0.00906002 0.0087737)
(1.44365 0.0225426 0.0175831)
(0.607122 0.0880627 0.0070639)
(0.600939 0.0996691 -6.87904e-05)
(0.660743 0.107382 -0.000759263)
(0.690282 0.114294 -0.000562439)
(0.680838 0.119923 -0.000298503)
(0.652902 0.12546 -0.000227579)
(0.616216 0.13134 -0.000248768)
(0.585531 0.137121 -0.000390669)
(0.56018 0.142929 -0.000523641)
(0.535504 0.148793 -0.000620957)
(0.509615 0.154676 -0.000707014)
(0.48273 0.160568 -0.000794486)
(0.455342 0.166501 -0.000886108)
(0.427481 0.172498 -0.000979285)
(0.399227 0.178568 -0.00107149)
(0.37066 0.184812 -0.00116469)
(0.34168 0.191294 -0.00125861)
(0.312419 0.198109 -0.00135402)
(0.282882 0.205442 -0.00144996)
(0.253062 0.21334 -0.00154514)
(0.223253 0.221885 -0.00164105)
(0.193153 0.231074 -0.00174263)
(0.162884 0.240746 -0.0018423)
(0.133022 0.250888 -0.00194256)
(0.102966 0.261449 -0.00204499)
(0.0727706 0.272071 -0.00214683)
(0.0415248 0.281879 -0.00223309)
(0.0176159 0.290596 -0.00234046)
(3 1.53966e-08 0.000510349)
(3 1.78546e-07 0.000484198)
(3 4.77205e-07 0.000458233)
(3 8.48722e-07 0.000432455)
(3 1.32219e-06 0.000406865)
(3 1.72482e-06 0.000381466)
(3 2.09848e-06 0.000356259)
(3 2.42658e-06 0.000331247)
(3 2.61184e-06 0.000306465)
(2.99999 3.13546e-06 0.000281963)
(2.99996 4.78528e-06 0.000257979)
(2.9999 1.53256e-05 0.000234466)
(2.99973 3.48857e-05 0.000212947)
(2.9994 0.000106829 0.000193003)
(2.99844 0.000253449 0.000184967)
(2.9974 0.000706087 0.000164815)
(2.9971 0.00152493 0.000117366)
(2.97417 0.00138316 0.000665175)
(2.95295 0.00626579 0.000667737)
(2.79014 0.00722164 0.00445628)
(2.33808 0.0112631 0.00784402)
(1.50571 0.0292956 0.0161676)
(0.648971 0.106716 0.00686789)
(0.605682 0.115448 0.000238716)
(0.662768 0.122567 -0.000690042)
(0.692398 0.13058 -0.000527456)
(0.682704 0.137331 -0.000278742)
(0.65463 0.143631 -0.000213637)
(0.617663 0.149839 -0.000231778)
(0.586619 0.156265 -0.000361792)
(0.561161 0.162951 -0.000485698)
(0.536585 0.169765 -0.00057628)
(0.510919 0.176643 -0.000655824)
(0.484315 0.183574 -0.000736649)
(0.457214 0.190566 -0.000820967)
(0.429588 0.197625 -0.000906668)
(0.401483 0.204765 -0.000991335)
(0.372961 0.212047 -0.00107719)
(0.343901 0.219544 -0.00116333)
(0.314519 0.227329 -0.00124975)
(0.284837 0.235565 -0.00134022)
(0.254842 0.24433 -0.00142733)
(0.224833 0.2537 -0.00151569)
(0.194518 0.263676 -0.00160773)
(0.164045 0.274088 -0.00169655)
(0.133944 0.284898 -0.00179024)
(0.103625 0.295977 -0.00188699)
(0.0733105 0.306919 -0.00197669)
(0.0419643 0.316763 -0.00205735)
(0.0176826 0.325341 -0.00215463)
(3 6.67291e-09 0.000470595)
(3 1.73736e-07 0.000446438)
(3 4.25014e-07 0.000422457)
(3 8.08913e-07 0.000398653)
(3 1.19332e-06 0.000375028)
(3 1.65107e-06 0.000351583)
(3 2.0953e-06 0.00032832)
(3 2.56384e-06 0.000305241)
(3 1.75576e-06 0.000282376)
(2.99999 2.41288e-06 0.000259767)
(2.99996 1.88168e-06 0.000237593)
(2.99991 1.80551e-05 0.000215845)
(2.99976 2.37348e-05 0.00019571)
(2.99949 0.000113316 0.000176214)
(2.99867 0.000180502 0.000166808)
(2.99785 0.00063018 0.000146636)
(2.99774 0.000345552 0.000115986)
(2.97662 -0.000870812 0.000562428)
(2.95816 0.00250638 0.000539313)
(2.80038 -0.000156677 0.004007)
(2.37511 0.00938703 0.00689105)
(1.57702 0.0329798 0.0146882)
(0.695721 0.124622 0.00665422)
(0.608048 0.132689 0.000550843)
(0.661636 0.140393 -0.000621045)
(0.691132 0.149116 -0.00049244)
(0.680851 0.156417 -0.000257278)
(0.652436 0.163029 -0.000196998)
(0.615393 0.169363 -0.000214071)
(0.584547 0.176244 -0.000334132)
(0.55949 0.183618 -0.000448064)
(0.53545 0.191251 -0.000531191)
(0.510433 0.199058 -0.000604085)
(0.484554 0.207028 -0.000678121)
(0.458194 0.215149 -0.000755096)
(0.43129 0.223383 -0.000833289)
(0.403821 0.231724 -0.000910756)
(0.375794 0.240189 -0.0009886)
(0.347077 0.248823 -0.00106664)
(0.317877 0.257748 -0.00114453)
(0.288265 0.267064 -0.00122455)
(0.2582 0.276842 -0.00130651)
(0.227998 0.287159 -0.00138638)
(0.197424 0.298002 -0.00147091)
(0.166697 0.309162 -0.00155248)
(0.136281 0.32064 -0.00163433)
(0.105484 0.332338 -0.00172189)
(0.0746675 0.343679 -0.00180608)
(0.0428655 0.353609 -0.00187708)
(0.0179278 0.362132 -0.0019689)
(3 6.45213e-09 0.000429205)
(3 1.57968e-07 0.000407131)
(3 3.82887e-07 0.000385222)
(3 7.37705e-07 0.00036348)
(3 1.0839e-06 0.000341905)
(3 1.52991e-06 0.000320499)
(3 1.97188e-06 0.000299264)
(3 2.42509e-06 0.000278211)
(3 1.76712e-06 0.000257333)
(2.99999 2.03941e-06 0.000236709)
(2.99997 8.86415e-07 0.000216348)
(2.99992 1.28807e-05 0.000196629)
(2.99981 1.21926e-05 0.000177645)
(2.99954 9.05912e-05 0.000160599)
(2.99887 5.69574e-05 0.000148672)
(2.99753 0.000350259 0.000145486)
(2.99659 -0.000278513 0.000106073)
(2.97698 -0.00248535 0.000488055)
(2.95932 0.000798629 0.00047112)
(2.80778 -0.00387865 0.00344326)
(2.4181 0.0112508 0.00588996)
(1.65024 0.0396851 0.0131486)
(0.733897 0.146599 0.00644069)
(0.598021 0.153046 0.000852898)
(0.652368 0.1606 -0.000550731)
(0.684592 0.16928 -0.000453334)
(0.675408 0.176424 -0.000233518)
(0.647629 0.182964 -0.000178395)
(0.61127 0.189401 -0.000195989)
(0.581259 0.19666 -0.000306765)
(0.556988 0.204609 -0.000409909)
(0.53373 0.212966 -0.000484975)
(0.509555 0.221639 -0.000551089)
(0.484589 0.230627 -0.00061796)
(0.459166 0.239912 -0.000687282)
(0.433193 0.249436 -0.000757324)
(0.406606 0.259126 -0.000827015)
(0.379332 0.268976 -0.000897357)
(0.351266 0.278982 -0.000967368)
(0.322555 0.289212 -0.00103803)
(0.293223 0.299804 -0.00110865)
(0.263295 0.310793 -0.0011798)
(0.233001 0.322255 -0.00125429)
(0.202141 0.334177 -0.00132848)
(0.170991 0.346304 -0.00140011)
(0.140047 0.35861 -0.00147716)
(0.108632 0.370994 -0.00155463)
(0.0770796 0.382843 -0.00162777)
(0.044428 0.392942 -0.00169427)
(0.0184818 0.4014 -0.00177189)
(3 1.14773e-08 0.000386103)
(3 1.32007e-07 0.000366207)
(3 3.54357e-07 0.000346464)
(3 6.38835e-07 0.000326875)
(3 1.00244e-06 0.000307442)
(3 1.35902e-06 0.000288164)
(3 1.70236e-06 0.000269044)
(3 1.98654e-06 0.000250091)
(3 2.55848e-06 0.000231304)
(2.99999 2.5234e-06 0.000212745)
(2.99997 3.36545e-06 0.000194408)
(2.99992 5.83225e-06 0.000176663)
(2.99983 1.56998e-05 0.000159291)
(2.99955 5.51942e-05 0.000144351)
(2.99893 6.51209e-05 0.000133373)
(2.99766 0.000285775 0.000127022)
(2.99618 0.000358294 0.000119766)
(2.9788 -0.000938015 0.000390718)
(2.96293 0.00318336 0.000372994)
(2.81866 9.54414e-05 0.00288864)
(2.46339 0.0181923 0.0049303)
(1.73943 0.0493895 0.0115167)
(0.786374 0.173875 0.00621816)
(0.590264 0.174945 0.00112714)
(0.644194 0.180627 -0.000486852)
(0.679009 0.188571 -0.000415567)
(0.670742 0.195325 -0.000210183)
(0.643582 0.201964 -0.000160991)
(0.607868 0.208959 -0.000178042)
(0.578633 0.216839 -0.000278323)
(0.555144 0.225487 -0.000370521)
(0.532687 0.234633 -0.000437623)
(0.50939 0.244211 -0.000496784)
(0.485389 0.254234 -0.00055666)
(0.460978 0.264697 -0.000618561)
(0.436024 0.275545 -0.000680252)
(0.410441 0.286704 -0.000741513)
(0.384109 0.298128 -0.000803634)
(0.356832 0.309774 -0.000865384)
(0.328798 0.321601 -0.000927314)
(0.299947 0.333747 -0.000991348)
(0.270255 0.346245 -0.00105302)
(0.240013 0.359122 -0.00111723)
(0.208932 0.372398 -0.00118496)
(0.177315 0.38575 -0.00124752)
(0.145654 0.399193 -0.00131227)
(0.113257 0.412571 -0.00138269)
(0.0805769 0.425136 -0.0014491)
(0.0465841 0.43563 -0.00150621)
(0.0191673 0.444164 -0.00157891)
(3 1.09706e-08 0.000341213)
(3 1.15541e-07 0.000323594)
(3 3.11784e-07 0.000306115)
(3 5.62705e-07 0.000288776)
(3 8.80469e-07 0.000271579)
(3 1.21173e-06 0.000254523)
(3 1.48126e-06 0.00023761)
(3 1.68611e-06 0.000220847)
(3 2.3051e-06 0.000204235)
(2.99999 2.45783e-06 0.000187821)
(2.99998 3.82385e-06 0.000171595)
(2.99993 6.52157e-06 0.000155841)
(2.99986 2.071e-05 0.000140347)
(2.99961 4.80671e-05 0.000127172)
(2.99912 0.000112947 0.000116354)
(2.99785 0.000434919 0.000112937)
(2.99621 0.000334869 0.0001074)
(2.98045 -0.0003042 0.00031339)
(2.96588 0.00344019 0.00033767)
(2.83029 0.00156372 0.00238995)
(2.51426 0.0243428 0.00393228)
(1.84171 0.0634326 0.00978623)
(0.846752 0.209367 0.00594486)
(0.580598 0.202508 0.00138808)
(0.634958 0.205955 -0.000424154)
(0.672872 0.211413 -0.000376166)
(0.66607 0.217011 -0.000188941)
(0.640236 0.222935 -0.000146875)
(0.605581 0.229812 -0.000161471)
(0.577219 0.237875 -0.000248585)
(0.554572 0.246888 -0.000329546)
(0.532964 0.256598 -0.000388401)
(0.510591 0.26696 -0.00044028)
(0.487586 0.277976 -0.000493007)
(0.464215 0.289608 -0.000547135)
(0.44035 0.301786 -0.000601303)
(0.415862 0.314466 -0.000654727)
(0.390589 0.327562 -0.000708142)
(0.364276 0.341009 -0.000761314)
(0.337056 0.354742 -0.00081442)
(0.308911 0.368774 -0.000868719)
(0.279616 0.383172 -0.00092426)
(0.24948 0.397877 -0.000977908)
(0.218253 0.412921 -0.00103467)
(0.186067 0.427975 -0.00109054)
(0.153535 0.442939 -0.00114731)
(0.119956 0.457709 -0.00120557)
(0.0857136 0.471439 -0.00126276)
(0.0498566 0.482631 -0.00131513)
(0.0203984 0.491479 -0.00137414)
(3 7.42066e-09 0.000294452)
(3 1.00834e-07 0.000279216)
(3 2.65148e-07 0.000264104)
(3 4.891e-07 0.000249117)
(3 7.51632e-07 0.000234255)
(3 1.06863e-06 0.000219519)
(3 1.30071e-06 0.00020491)
(3 1.48991e-06 0.000190431)
(3 1.86835e-06 0.00017609)
(2.99999 1.73191e-06 0.000161918)
(2.99998 2.0241e-06 0.000147908)
(2.99994 2.93734e-06 0.000134271)
(2.99987 1.04648e-05 0.000120841)
(2.99965 2.10837e-05 0.000109112)
(2.9993 7.30912e-05 9.75489e-05)
(2.99793 0.000253353 9.76621e-05)
(2.99615 0.000292157 9.68207e-05)
(2.98254 -0.000120797 0.000242643)
(2.97007 0.00481941 0.000254863)
(2.84578 0.00583077 0.00187452)
(2.57464 0.029853 0.00300219)
(1.96149 0.0800352 0.00796567)
(0.913107 0.242636 0.00567949)
(0.564429 0.223641 0.00159681)
(0.620123 0.223115 -0.000358976)
(0.66157 0.225974 -0.000328694)
(0.65753 0.233195 -0.000168729)
(0.633642 0.240504 -0.000130561)
(0.601002 0.249008 -0.000143954)
(0.574388 0.25817 -0.000217786)
(0.553302 0.267914 -0.000286903)
(0.533208 0.278339 -0.000337593)
(0.512339 0.289554 -0.000382267)
(0.490787 0.301605 -0.000426979)
(0.468796 0.314453 -0.000472993)
(0.446282 0.328045 -0.000518949)
(0.423117 0.342324 -0.000564848)
(0.39911 0.357219 -0.00061031)
(0.374 0.372648 -0.000655242)
(0.347814 0.38855 -0.000699836)
(0.320536 0.404839 -0.000744897)
(0.291931 0.421554 -0.000790598)
(0.262075 0.438636 -0.000837786)
(0.23079 0.45599 -0.00088423)
(0.198107 0.473368 -0.000929016)
(0.164483 0.4906 -0.000976613)
(0.129342 0.507494 -0.00102772)
(0.0930384 0.522989 -0.00107539)
(0.0544812 0.535461 -0.00111749)
(0.0220697 0.54496 -0.00117146)
(3 3.08649e-09 0.000245734)
(3 8.73187e-08 0.000232991)
(3 2.17249e-07 0.000220355)
(3 4.13784e-07 0.000207826)
(3 6.37436e-07 0.000195404)
(3 9.45744e-07 0.000183091)
(3 1.04211e-06 0.000170887)
(3 1.17405e-06 0.000158795)
(3 6.29051e-07 0.00014682)
(2.99999 -7.47276e-07 0.000134987)
(2.99998 -4.03875e-06 0.000123287)
(2.99994 -9.91801e-06 0.00011188)
(2.99988 -2.41663e-05 0.000100646)
(2.99968 -5.8919e-05 9.06943e-05)
(2.99937 -0.000137119 8.08512e-05)
(2.99814 -0.000361987 8.03353e-05)
(2.99644 -0.00073276 7.31825e-05)
(2.98542 -0.00164197 0.000176389)
(2.97633 0.0117537 0.000151027)
(2.8635 -0.0133579 0.00141515)
(2.63874 0.0875151 0.0021762)
(2.0901 0.0892622 0.00613631)
(0.974558 0.344272 0.00536135)
(0.535261 0.29537 0.00169538)
(0.599009 0.269779 -0.00031199)
(0.65034 0.251294 -0.000302669)
(0.652427 0.252263 -0.000163341)
(0.63053 0.257215 -0.000117109)
(0.599363 0.266967 -0.000125766)
(0.573357 0.276936 -0.000182916)
(0.553309 0.287308 -0.000241212)
(0.534683 0.298589 -0.000284582)
(0.51545 0.310919 -0.000322137)
(0.495546 0.324243 -0.000359226)
(0.475167 0.338513 -0.00039679)
(0.454242 0.3537 -0.000434267)
(0.432648 0.369776 -0.000471478)
(0.410185 0.386705 -0.00050881)
(0.386577 0.404401 -0.000545893)
(0.361741 0.422784 -0.000582446)
(0.335601 0.441771 -0.000618678)
(0.307949 0.4613 -0.000654745)
(0.278728 0.481374 -0.000691659)
(0.247597 0.50191 -0.000730419)
(0.214517 0.522518 -0.000767396)
(0.179888 0.542944 -0.00080391)
(0.142919 0.563075 -0.00084306)
(0.103802 0.581588 -0.000882404)
(0.0615623 0.596355 -0.000918558)
(0.0248965 0.60723 -0.000958925)
(3 3.32001e-09 0.000194968)
(3 6.6725e-08 0.000184835)
(3 1.74629e-07 0.000174789)
(3 3.27893e-07 0.00016483)
(3 5.10594e-07 0.00015496)
(3 7.39689e-07 0.000145179)
(3 8.67073e-07 0.000135486)
(3 9.04375e-07 0.000125886)
(3 4.76997e-07 0.000116383)
(2.99999 -1.13537e-07 0.000107)
(2.99997 -4.22873e-07 9.77297e-05)
(2.99992 -7.26301e-07 8.87428e-05)
(2.99983 1.90175e-06 7.99563e-05)
(2.99956 -1.2393e-06 7.24882e-05)
(2.99908 7.67552e-06 6.557e-05)
(2.99749 -6.86441e-05 6.69001e-05)
(2.99543 9.43915e-05 6.34625e-05)
(2.99498 0.000489488 4.70495e-05)
(2.96305 0.0103779 0.00032697)
(2.92078 -0.00766181 0.000421563)
(2.73733 0.0818718 0.00179821)
(2.18275 0.0694965 0.00354951)
(1.27873 0.305019 0.00490688)
(0.679616 0.314888 0.00189666)
(0.685823 0.302259 -0.000196687)
(0.714135 0.282072 -0.000266352)
(0.709686 0.278921 -0.000176954)
(0.678321 0.280639 -0.000112491)
(0.638217 0.289508 -0.000110232)
(0.602225 0.29895 -0.000143821)
(0.575262 0.308932 -0.000191885)
(0.552415 0.320211 -0.000228174)
(0.530652 0.332951 -0.000258308)
(0.50935 0.347033 -0.000287598)
(0.488466 0.362395 -0.000317334)
(0.467749 0.379034 -0.000346809)
(0.44691 0.396911 -0.000375868)
(0.42557 0.415926 -0.000404512)
(0.403318 0.436052 -0.000432784)
(0.379959 0.457205 -0.000461375)
(0.355228 0.47935 -0.000489832)
(0.328827 0.502291 -0.000517612)
(0.300705 0.526025 -0.00054494)
(0.270313 0.550659 -0.000573093)
(0.237146 0.575812 -0.000601026)
(0.201586 0.601086 -0.000629478)
(0.162828 0.626248 -0.000659434)
(0.120358 0.649782 -0.000687474)
(0.072747 0.669081 -0.000713446)
(0.0293924 0.682936 -0.000747806)
(3 9.97752e-09 0.000142059)
(3 4.15479e-08 0.000134658)
(3 1.43063e-07 0.000127322)
(3 2.34091e-07 0.000120053)
(3 3.94777e-07 0.00011285)
(3 4.77499e-07 0.000105713)
(3 7.89818e-07 9.86432e-05)
(3 8.27877e-07 9.16419e-05)
(3 1.34644e-06 8.47109e-05)
(2.99999 2.323e-06 7.78613e-05)
(2.99998 8.46413e-06 7.10893e-05)
(2.99995 1.7116e-05 6.44763e-05)
(2.99989 6.11417e-05 5.79775e-05)
(2.99972 8.91574e-05 5.21921e-05)
(2.99939 0.000345077 4.67412e-05)
(2.99839 0.000198811 4.4782e-05)
(2.99711 0.000510026 4.04508e-05)
(2.99645 0.00127224 3.41581e-05)
(2.97211 0.00055588 0.000185393)
(2.94855 0.0133421 0.000188451)
(2.78259 0.0281545 0.00124994)
(2.31376 0.0689226 0.00219101)
(1.48031 0.202585 0.00412427)
(0.724483 0.332985 0.00168443)
(0.702482 0.33776 -1.41442e-05)
(0.738225 0.32665 -0.000190424)
(0.746709 0.321993 -0.000148117)
(0.722226 0.320785 -9.41762e-05)
(0.684149 0.325261 -8.72617e-05)
(0.644164 0.332214 -0.000102831)
(0.6122 0.3399 -0.000137763)
(0.584995 0.349151 -0.000165519)
(0.559558 0.360445 -0.000187767)
(0.535296 0.373782 -0.000209489)
(0.512301 0.38904 -0.000231717)
(0.490336 0.406153 -0.000253928)
(0.468942 0.425059 -0.000275381)
(0.447743 0.445682 -0.000296133)
(0.426295 0.467978 -0.000316465)
(0.404238 0.491748 -0.000336218)
(0.381053 0.517124 -0.000355873)
(0.356246 0.544086 -0.000375733)
(0.329788 0.572469 -0.000395657)
(0.300961 0.602283 -0.000414922)
(0.268838 0.633397 -0.000433387)
(0.233318 0.665704 -0.000451821)
(0.193157 0.698856 -0.000471306)
(0.147108 0.731313 -0.000490695)
(0.0925404 0.759754 -0.000508373)
(0.03833 0.781409 -0.000529147)
(3 7.91757e-09 8.6904e-05)
(3 3.21895e-08 8.23652e-05)
(3 1.00666e-07 7.78681e-05)
(3 1.67429e-07 7.34125e-05)
(3 2.79985e-07 6.89987e-05)
(3 3.47479e-07 6.46267e-05)
(3 5.22102e-07 6.02968e-05)
(3 5.95729e-07 5.60096e-05)
(3 1.11948e-06 5.17665e-05)
(2.99999 2.17356e-06 4.75674e-05)
(2.99999 6.87306e-06 4.34239e-05)
(2.99997 1.43076e-05 3.93149e-05)
(2.99991 4.22002e-05 3.54358e-05)