/*--------------------------------*- C++ -*----------------------------------*\
| =========                 |                                                 |
| \\      /  F ield         | OpenFOAM: The Open Source CFD Toolbox           |
|  \\    /   O peration     | Version:  2112                                  |
|   \\  /    A nd           | Website:  www.openfoam.com                      |
|    \\/     M anipulation  |                                                 |
\*---------------------------------------------------------------------------*/
FoamFile
{
    version     2.0;
    format      ascii;
    arch        "LSB;label=32;scalar=64";
    class       volScalarField;
    location    "59.5";
    object      p;
}
// * * * * * * * * * * * * * * * * * * * * * * * * * * * * * * * * * * * * * //

dimensions      [0 2 -2 0 0 0 0];

internalField   nonuniform List<scalar> 
8800
(
0.768583
0.720797
0.682108
0.653115
0.632253
0.617426
0.606836
0.599364
0.594557
0.592518
0.593807
0.598014
0.604671
0.613996
0.626782
0.64452
0.6693
0.703243
0.745794
0.804496
0.599831
0.60751
0.614987
0.618296
0.616794
0.611719
0.605237
0.599167
0.594455
0.591627
0.591368
0.593894
0.598397
0.604354
0.611131
0.617415
0.621059
0.620325
0.614908
0.606219
0.578232
0.584392
0.58852
0.591466
0.593517
0.594125
0.593024
0.590929
0.588927
0.58804
0.589024
0.591424
0.594237
0.596427
0.59704
0.595846
0.593508
0.590117
0.585559
0.581799
0.57242
0.57507
0.577823
0.580227
0.581864
0.583029
0.583777
0.583904
0.583624
0.583596
0.584373
0.585563
0.586417
0.586492
0.58589
0.584803
0.582991
0.580423
0.578021
0.576517
0.567036
0.56846
0.57024
0.572273
0.574059
0.575404
0.576399
0.577208
0.577839
0.578428
0.579107
0.579624
0.57974
0.579463
0.578774
0.577531
0.57584
0.573994
0.572688
0.571857
0.561955
0.562875
0.564117
0.565684
0.567319
0.568847
0.570139
0.571218
0.572201
0.573123
0.573843
0.574195
0.574171
0.573744
0.572873
0.571679
0.570356
0.5691
0.568279
0.567727
0.557043
0.557713
0.558675
0.559978
0.561389
0.56285
0.564297
0.565632
0.566852
0.56799
0.568847
0.569243
0.569179
0.568685
0.567889
0.566949
0.565942
0.565022
0.564438
0.564032
0.552253
0.55277
0.553553
0.554684
0.555963
0.55734
0.558793
0.560279
0.56173
0.563101
0.564147
0.56465
0.564648
0.56428
0.563689
0.562972
0.562205
0.561525
0.561093
0.560775
0.547514
0.547925
0.548581
0.549587
0.550794
0.552124
0.553577
0.555147
0.556793
0.558429
0.559719
0.560413
0.560603
0.560453
0.560084
0.559577
0.559014
0.558526
0.558205
0.557947
0.54274
0.543074
0.543641
0.544568
0.545725
0.547041
0.548529
0.550197
0.55203
0.553954
0.555561
0.556548
0.557013
0.557114
0.556973
0.556689
0.556319
0.55599
0.555753
0.555537
0.537842
0.538119
0.538624
0.539505
0.540644
0.541984
0.543544
0.545351
0.547412
0.54967
0.551676
0.553041
0.553836
0.554224
0.554333
0.554272
0.554094
0.553906
0.553736
0.553549
0.532732
0.532965
0.533431
0.534295
0.535456
0.536863
0.538539
0.540539
0.542892
0.545564
0.548059
0.549877
0.551059
0.551775
0.552163
0.552333
0.552347
0.552287
0.552173
0.552007
0.527319
0.527517
0.527963
0.528841
0.530065
0.531583
0.533429
0.535688
0.538414
0.541606
0.544695
0.547052
0.548685
0.549776
0.550477
0.550891
0.551114
0.551175
0.551107
0.550955
0.521502
0.521672
0.522116
0.523036
0.524364
0.526044
0.528128
0.530726
0.533925
0.537761
0.54157
0.54457
0.546734
0.548256
0.549312
0.550021
0.55045
0.550626
0.550599
0.550455
0.515165
0.51531
0.515766
0.516759
0.518237
0.52014
0.522537
0.525569
0.529366
0.533993
0.538673
0.542442
0.545234
0.547264
0.548723
0.549751
0.550416
0.550713
0.550723
0.550584
0.508169
0.508289
0.508773
0.509869
0.51155
0.513744
0.516544
0.520127
0.524666
0.530261
0.535994
0.540683
0.54422
0.546847
0.548782
0.55018
0.551105
0.551527
0.551571
0.551432
0.500335
0.500434
0.500961
0.502197
0.504137
0.506702
0.510015
0.514294
0.519752
0.526531
0.533534
0.539319
0.543736
0.547066
0.549572
0.551398
0.552616
0.553169
0.553245
0.553102
0.491437
0.491538
0.492119
0.493512
0.495783
0.498831
0.502798
0.507948
0.514548
0.522774
0.531302
0.538389
0.543842
0.547998
0.551179
0.55351
0.555056
0.555747
0.555852
0.555703
0.481167
0.481249
0.48192
0.483539
0.486243
0.489909
0.494703
0.500951
0.50897
0.518963
0.529318
0.537938
0.544611
0.549738
0.553692
0.556614
0.558534
0.559372
0.559504
0.559344
0.469155
0.469222
0.469993
0.471923
0.475185
0.479646
0.485498
0.493135
0.502922
0.515066
0.527599
0.538019
0.54611
0.552369
0.557222
0.560833
0.563159
0.564146
0.564298
0.564124
0.454851
0.454907
0.45582
0.458165
0.462164
0.467671
0.474904
0.484325
0.496325
0.511086
0.526193
0.538703
0.548413
0.555976
0.56187
0.566253
0.569015
0.570145
0.57031
0.570118
0.437496
0.43754
0.438666
0.441594
0.446601
0.453524
0.462597
0.474339
0.489127
0.50706
0.525174
0.540068
0.551614
0.56064
0.567695
0.572938
0.576146
0.577401
0.577567
0.577355
0.415933
0.415976
0.417448
0.421257
0.427719
0.436634
0.44823
0.46304
0.481342
0.503083
0.524658
0.542212
0.55579
0.566436
0.574738
0.580909
0.584537
0.585879
0.586027
0.585793
0.388438
0.3885
0.390558
0.395784
0.404499
0.416341
0.431491
0.450373
0.473065
0.499307
0.524784
0.545241
0.561001
0.57338
0.583029
0.590108
0.594078
0.595443
0.595552
0.595298
0.351982
0.352142
0.355406
0.363245
0.375764
0.392074
0.412289
0.436521
0.464588
0.496016
0.525771
0.549292
0.567317
0.58148
0.592509
0.600386
0.604549
0.605844
0.605892
0.605619
0.300781
0.301754
0.308239
0.321444
0.340571
0.363788
0.390985
0.421977
0.456383
0.493577
0.527846
0.55449
0.574781
0.59068
0.60301
0.611475
0.615607
0.616729
0.616701
0.616418
0.225934
0.233177
0.248176
0.271423
0.300409
0.332879
0.368615
0.407396
0.448835
0.492288
0.531409
0.56142
0.584165
0.60197
0.615582
0.624465
0.62844
0.629373
0.6293
0.629052
0.145462
0.162611
0.186921
0.220865
0.260086
0.301944
0.346288
0.393055
0.44194
0.492361
0.53726
0.571478
0.597276
0.617393
0.63255
0.641653
0.645159
0.645819
0.645764
0.645608
0.0783996
0.0986017
0.13061
0.17364
0.221906
0.272612
0.325311
0.37992
0.436111
0.493297
0.543714
0.581874
0.610519
0.632635
0.648733
0.657686
0.660854
0.661441
0.66144
0.661333
0.0234785
0.0453337
0.0828465
0.132302
0.187719
0.245886
0.305976
0.367779
0.430836
0.494481
0.550155
0.59202
0.623255
0.647095
0.664132
0.673224
0.676344
0.676992
0.677021
0.676943
-0.0222432
0.00079114
0.0420864
0.0966436
0.157808
0.222135
0.288579
0.356791
0.426152
0.495846
0.556505
0.601887
0.635587
0.661136
0.679168
0.688737
0.6921
0.692642
0.692698
0.692648
-0.0610321
-0.0373311
0.00682547
0.0654272
0.131427
0.201001
0.272969
0.346879
0.421978
0.497304
0.562682
0.611435
0.647526
0.674764
0.69385
0.704083
0.707647
0.708234
0.708303
0.708281
-0.0949091
-0.0707712
-0.0243481
0.0375869
0.107672
0.181807
0.25867
0.337721
0.418107
0.498714
0.568577
0.620555
0.658942
0.687833
0.70791
0.718773
0.722665
0.723349
0.723443
0.723442
-0.125366
-0.100844
-0.0525749
0.0122089
0.0858175
0.163951
0.245209
0.328956
0.414249
0.499844
0.573988
0.629055
0.669618
0.700019
0.721097
0.732531
0.736742
0.737586
0.737681
0.737684
-0.153365
-0.128495
-0.078648
-0.0114094
0.0652998
0.146979
0.232188
0.320237
0.41012
0.500469
0.578749
0.636788
0.679413
0.711199
0.733153
0.745116
0.7496
0.750576
0.750663
0.750658
-0.179706
-0.154442
-0.103134
-0.0337865
0.0456876
0.130528
0.219308
0.311316
0.405511
0.500424
0.582749
0.64369
0.688288
0.721375
0.744046
0.756384
0.761069
0.762128
0.762209
0.762187
-0.204764
-0.179094
-0.126561
-0.055257
0.0266721
0.114348
0.206366
0.302023
0.400272
0.499593
0.585919
0.649764
0.696284
0.730564
0.753812
0.766423
0.771199
0.772297
0.772354
0.772309
-0.228961
-0.20277
-0.149207
-0.0760663
0.00804534
0.0982648
0.193222
0.292237
0.394293
0.49788
0.588216
0.655024
0.703489
0.738903
0.762651
0.775334
0.780129
0.781227
0.781255
0.781185
-0.252432
-0.22582
-0.171136
-0.0963858
-0.0103219
0.0821779
0.179791
0.281888
0.38751
0.495227
0.589612
0.659506
0.71001
0.746544
0.770656
0.783322
0.788053
0.789102
0.789119
0.789028
-0.27531
-0.248197
-0.192489
-0.116305
-0.0284924
0.0660432
0.166041
0.270944
0.379885
0.49158
0.590057
0.663234
0.715959
0.753671
0.778063
0.79057
0.795132
0.796096
0.796066
0.795953
-0.297727
-0.270056
-0.213357
-0.135858
-0.0464969
0.0498526
0.151982
0.259417
0.371413
0.486899
0.589504
0.66621
0.721442
0.760445
0.785027
0.797213
0.801466
0.802282
0.8022
0.802067
-0.319709
-0.291391
-0.233772
-0.155051
-0.0643099
0.0336298
0.13765
0.247341
0.362112
0.481157
0.587889
0.668396
0.726515
0.767046
0.791757
0.803376
0.807128
0.807724
0.807592
0.807448
-0.341103
-0.312173
-0.253675
-0.173864
-0.0819052
0.0174343
0.1231
0.234785
0.352035
0.474371
0.585142
0.669722
0.731177
0.773652
0.798555
0.809317
0.81225
0.812499
0.81231
0.812169
-0.361891
-0.332378
-0.273052
-0.192255
-0.0992298
0.00132021
0.108417
0.221821
0.341255
0.466561
0.581214
0.670066
0.735355
0.780378
0.805833
0.81556
0.817158
0.816704
0.816413
0.816328
-0.382141
-0.351973
-0.291883
-0.210197
-0.116225
-0.0146335
0.0936837
0.208548
0.329857
0.457786
0.576053
0.669277
0.738874
0.787161
0.813969
0.822992
0.82274
0.82075
0.820059
0.820264
-0.401686
-0.370938
-0.310114
-0.227631
-0.132836
-0.0303467
0.0789928
0.195073
0.317954
0.448136
0.569645
0.667176
0.741463
0.793664
0.822966
0.832625
0.83097
0.826563
0.823998
0.823631
-0.420619
-0.389264
-0.327764
-0.244589
-0.149094
-0.0458617
0.0642894
0.181342
0.305481
0.437539
0.561855
0.663489
0.74282
0.799374
0.832199
0.844759
0.844273
0.837691
0.829689
0.815726
-0.43887
-0.406937
-0.344948
-0.26127
-0.165281
-0.0615036
0.0491667
0.166885
0.291916
0.425378
0.552056
0.657458
0.742407
0.803595
0.839997
0.857286
0.858573
0.84588
0.825963
0.814526
-0.456263
-0.424095
-0.361476
-0.277477
-0.181047
-0.0769337
0.0338472
0.152018
0.277558
0.411901
0.540298
0.648586
0.739365
0.805149
0.842193
0.859322
0.863165
0.839604
0.771997
0.741694
-0.472136
-0.441989
-0.377022
-0.292723
-0.195603
-0.0916536
0.0186451
0.136971
0.262619
0.397226
0.526497
0.636546
0.732221
0.803332
0.833742
0.845573
0.833975
0.779361
0.71026
0.667766
-0.527484
-0.457772
-0.391114
-0.308137
-0.210573
-0.107126
0.00349223
0.121459
0.246728
0.380886
0.510029
0.620654
0.717031
0.794645
0.7986
0.800425
0.749675
0.678678
0.60179
0.559011
-0.488939
-0.472944
-0.412161
-0.328168
-0.232723
-0.129333
-0.0197496
0.0975501
0.221807
0.354518
0.481717
0.590709
0.679286
0.761839
0.747472
0.632752
0.526653
0.452855
0.379121
0.409288
-0.519707
-0.490438
-0.428748
-0.345583
-0.250149
-0.146887
-0.0370474
0.0796025
0.202775
0.333665
0.458037
0.562797
0.64173
0.68579
0.636414
0.486203
0.35751
0.26555
0.166525
0.216253
-0.543399
-0.511196
-0.448291
-0.364977
-0.269428
-0.166274
-0.0565274
0.0592746
0.181027
0.309491
0.430085
0.528611
0.598697
0.608087
0.500539
0.326822
0.173454
0.0541418
-0.0772409
-0.0445932
-0.566575
-0.532841
-0.468754
-0.384518
-0.28889
-0.185892
-0.0766795
0.038144
0.158281
0.283937
0.399797
0.490432
0.545256
0.522996
0.363644
0.166756
-0.0239485
-0.192114
-0.380749
-0.399389
-0.589156
-0.554969
-0.489989
-0.404975
-0.309205
-0.206434
-0.0978813
0.0158385
0.1341
0.256545
0.366967
0.449661
0.484844
0.426377
0.2334
0.0225332
-0.194907
-0.384248
-0.626185
-0.923638
-0.612029
-0.577832
-0.512308
-0.426806
-0.33085
-0.228252
-0.12029
-0.00771033
0.108566
0.227535
0.332212
0.406397
0.420462
0.310933
0.120095
-0.0900523
-0.294469
-0.466832
-0.536244
-0.615201
-0.636148
-0.601881
-0.536055
-0.450323
-0.354317
-0.251987
-0.144709
-0.0334441
0.0805273
0.195489
0.294021
0.357163
0.346223
0.203058
0.0194233
-0.17169
-0.334664
-0.427655
-0.451778
-0.467688
-0.661817
-0.627419
-0.5614
-0.475601
-0.379733
-0.277845
-0.171494
-0.0618489
0.0493976
0.159704
0.251618
0.300567
0.272012
0.102921
-0.0717993
-0.237833
-0.364481
-0.403617
-0.416494
-0.417819
-0.689237
-0.65462
-0.588404
-0.502635
-0.407047
-0.305829
-0.200661
-0.0929729
0.0151119
0.12019
0.204586
0.239141
0.19101
0.0104416
-0.155231
-0.303873
-0.380057
-0.397225
-0.398567
-0.398379
-0.718465
-0.683546
-0.617089
-0.531419
-0.43627
-0.335925
-0.232212
-0.126829
-0.0223195
0.0770168
0.152983
0.175943
0.0916855
-0.0740042
-0.231453
-0.353908
-0.390598
-0.38895
-0.388045
-0.387438
-0.749214
-0.714009
-0.647347
-0.561862
-0.467312
-0.368075
-0.266113
-0.163389
-0.062862
0.030294
0.0977316
0.103842
0.00117961
-0.152577
-0.292008
-0.367503
-0.377989
-0.380825
-0.381573
-0.381297
-0.780927
-0.745566
-0.678919
-0.593729
-0.499981
-0.402115
-0.302207
-0.202519
-0.106339
-0.0196318
0.0392188
0.030512
-0.0800717
-0.219335
-0.336274
-0.368119
-0.376174
-0.377533
-0.377342
-0.377078
-0.81313
-0.777652
-0.711353
-0.626615
-0.533925
-0.437718
-0.340209
-0.243929
-0.152477
-0.0720814
-0.0235331
-0.0388383
-0.15449
-0.273912
-0.367255
-0.382857
-0.375125
-0.374245
-0.37419
-0.373974
-0.84492
-0.80953
-0.743743
-0.659926
-0.568587
-0.474399
-0.37966
-0.28714
-0.200807
-0.126496
-0.087712
-0.10274
-0.21899
-0.317158
-0.369983
-0.380031
-0.376066
-0.373835
-0.372863
-0.37251
-0.874703
-0.84001
-0.775115
-0.692716
-0.603186
-0.511445
-0.419891
-0.331466
-0.250522
-0.182372
-0.146828
-0.174283
-0.269641
-0.354322
-0.363767
-0.376547
-0.376917
-0.373483
-0.372172
-0.371536
-0.900863
-0.86726
-0.804325
-0.723768
-0.636663
-0.547897
-0.460019
-0.376032
-0.300508
-0.238885
-0.203432
-0.243691
-0.31213
-0.363239
-0.39895
-0.38731
-0.380709
-0.378646
-0.378071
-0.377431
-0.921253
-0.889366
-0.829305
-0.751649
-0.667704
-0.582573
-0.498919
-0.419764
-0.349667
-0.294726
-0.262394
-0.304493
-0.346504
-0.365437
-0.401175
-0.401187
-0.402846
-0.405874
-0.405812
-0.404752
-0.933585
-0.904407
-0.848075
-0.774453
-0.694771
-0.61409
-0.535298
-0.461379
-0.396876
-0.34847
-0.320213
-0.365575
-0.393746
-0.367943
-0.375239
-0.424083
-0.451895
-0.458263
-0.455854
-0.455604
-0.935184
-0.910073
-0.858661
-0.790316
-0.716113
-0.641008
-0.567709
-0.499428
-0.440722
-0.398589
-0.370911
-0.430946
-0.518872
-0.545586
-0.520484
-0.50789
-0.49291
-0.482969
-0.478818
-0.478392
-0.92388
-0.90364
-0.858855
-0.797583
-0.730181
-0.661692
-0.594704
-0.53228
-0.479379
-0.442696
-0.417995
-0.484138
-0.621048
-0.880174
-0.771221
-0.58846
-0.497193
-0.469212
-0.459898
-0.456561
-0.897555
-0.882292
-0.846811
-0.794979
-0.735945
-0.675086
-0.614897
-0.558351
-0.510398
-0.477954
-0.444551
-0.449963
-0.459673
-0.569821
-0.528866
-0.424107
-0.37689
-0.364897
-0.360948
-0.357561
-0.85869
-0.848817
-0.823246
-0.782649
-0.733358
-0.680873
-0.627564
-0.576418
-0.531727
-0.500526
-0.46662
-0.323351
-0.0587031
0.202336
0.124455
-0.0780122
-0.214902
-0.268132
-0.279421
-0.28013
-0.81396
-0.808344
-0.793016
-0.763371
-0.724391
-0.679906
-0.63308
-0.586044
-0.543081
-0.509055
-0.470752
-0.333404
-0.0844403
0.206534
0.0865199
-0.152466
-0.310934
-0.364556
-0.394898
-0.4074
-0.773221
-0.769816
-0.762395
-0.742671
-0.712076
-0.674464
-0.632773
-0.588828
-0.545101
-0.510346
-0.487817
-0.539031
-0.840248
-1.31433
-1.57411
-1.67635
-1.60366
-1.392
-1.1853
-1.14439
-0.743586
-0.741406
-0.737615
-0.725361
-0.701005
-0.667919
-0.629014
-0.585356
-0.539687
-0.497644
-0.480336
-0.607078
-1.09194
-1.78924
-2.31377
-2.30536
-2.0665
-1.76248
-1.5077
-1.41605
-0.721352
-0.720515
-0.719265
-0.713099
-0.694074
-0.663205
-0.623978
-0.577988
-0.525867
-0.464305
-0.416448
-0.401416
-0.490085
-0.49619
-0.441504
-0.268798
-0.0623748
0.0928306
0.188699
0.225451
-0.708684
-0.708328
-0.707685
-0.704863
-0.690999
-0.661102
-0.619382
-0.569205
-0.508477
-0.438194
-0.362115
-0.280855
-0.128436
0.223118
0.627254
1.01216
1.29678
1.43994
1.49706
1.51103
-0.70079
-0.70041
-0.699453
-0.698363
-0.690306
-0.662053
-0.617208
-0.560879
-0.494262
-0.410301
-0.306101
-0.198522
0.0588213
0.524069
1.01511
1.4667
1.77355
1.91472
1.96502
1.97413
-0.698214
-0.697954
-0.697406
-0.697547
-0.693467
-0.667096
-0.61786
-0.556468
-0.481713
-0.386262
-0.275298
-0.155631
0.0761751
0.513461
0.959718
1.35428
1.62328
1.74993
1.78741
1.79286
-0.697309
-0.698167
-0.700502
-0.703892
-0.701868
-0.67386
-0.622015
-0.556908
-0.475819
-0.37806
-0.266302
-0.150635
0.027562
0.383001
0.720085
1.00857
1.20237
1.29113
1.32116
1.32769
-0.692555
-0.693343
-0.693701
-0.693394
-0.691314
-0.670934
-0.628405
-0.562764
-0.477644
-0.37697
-0.273457
-0.173369
-0.0405626
0.224084
0.469788
0.654894
0.773596
0.833002
0.862491
0.873028
-0.706869
-0.70387
-0.687758
-0.659671
-0.646348
-0.660167
-0.642341
-0.576036
-0.485497
-0.383065
-0.287781
-0.203141
-0.100804
0.0975968
0.279088
0.41027
0.499612
0.55064
0.57856
0.588554
-0.767385
-0.762248
-0.75102
-0.737232
-0.731383
-0.734978
-0.69057
-0.599754
-0.494097
-0.387708
-0.301926
-0.235433
-0.158939
0.00452772
0.153274
0.265648
0.348046
0.396979
0.420548
0.42706
-0.88673
-0.899403
-0.933552
-0.96296
-0.956471
-0.907337
-0.775673
-0.630323
-0.499421
-0.388856
-0.307168
-0.250291
-0.19169
-0.0619828
0.0609786
0.158043
0.231952
0.276056
0.295035
0.299214
-0.983884
-1.00674
-1.04746
-1.07469
-1.06414
-0.991652
-0.814872
-0.634953
-0.49087
-0.378737
-0.300438
-0.247647
-0.204143
-0.0978049
0.00271262
0.0785153
0.137427
0.171665
0.185919
0.18765
-0.908684
-0.931099
-0.966734
-0.995039
-0.986415
-0.90198
-0.736366
-0.580272
-0.452129
-0.352621
-0.281608
-0.232106
-0.181602
-0.109656
-0.0377793
0.018434
0.0614382
0.0863996
0.0962101
0.0969646
-0.631189
-0.649651
-0.681417
-0.71213
-0.714976
-0.658908
-0.5616
-0.46478
-0.381278
-0.309038
-0.251183
-0.204214
-0.160008
-0.111836
-0.063393
-0.0224078
0.0104386
0.0290841
0.0368036
0.0364717
-0.289752
-0.299187
-0.318798
-0.346546
-0.369403
-0.370424
-0.356603
-0.329662
-0.296283
-0.256885
-0.217285
-0.18138
-0.15117
-0.120761
-0.0866879
-0.0563789
-0.0328032
-0.0190552
-0.0155345
-0.0166933
-0.0461655
-0.0503074
-0.0636459
-0.0897589
-0.127113
-0.167363
-0.197274
-0.214682
-0.217211
-0.205709
-0.185062
-0.162758
-0.147702
-0.132672
-0.109723
-0.0881502
-0.0719594
-0.0642168
-0.0626817
-0.0645112
0.0628312
0.0605851
0.0510274
0.02798
-0.0105192
-0.0575158
-0.101557
-0.136272
-0.15749
-0.164042
-0.157714
-0.147439
-0.14145
-0.139867
-0.13014
-0.120305
-0.113745
-0.113491
-0.114069
-0.115381
0.0861458
0.0845495
0.0774595
0.0597208
0.0290287
-0.0104937
-0.0520477
-0.0894256
-0.117734
-0.133996
-0.137009
-0.133437
-0.133204
-0.137817
-0.141527
-0.145407
-0.150169
-0.155246
-0.158188
-0.158853
0.0731001
0.0719463
0.0669687
0.0544885
0.032474
0.00277648
-0.0311848
-0.0647692
-0.0942671
-0.115942
-0.124788
-0.123988
-0.121527
-0.134782
-0.150036
-0.162009
-0.172817
-0.180606
-0.183364
-0.183764
0.0499817
0.0491814
0.0457881
0.0372773
0.021937
0.000281464
-0.0263126
-0.0549792
-0.0832293
-0.108296
-0.123855
-0.127291
-0.127865
-0.146074
-0.163685
-0.176561
-0.185897
-0.191165
-0.192822
-0.193282
0.0274991
0.0269493
0.0246459
0.0188455
0.00814866
-0.00762526
-0.0282302
-0.0524857
-0.0795369
-0.108837
-0.136892
-0.158019
-0.16929
-0.181391
-0.188123
-0.1923
-0.195546
-0.197226
-0.19794
-0.198565
0.00946319
0.00905098
0.00746564
0.00345763
-0.00411056
-0.0157788
-0.0319483
-0.0526395
-0.0785473
-0.112288
-0.156175
-0.206864
-0.236065
-0.231819
-0.219243
-0.211438
-0.208119
-0.207497
-0.207537
-0.207946
-0.00309117
-0.00340601
-0.00453871
-0.00733578
-0.0127536
-0.0214458
-0.0341419
-0.0515746
-0.0756588
-0.111339
-0.16478
-0.235448
-0.273951
-0.253752
-0.230467
-0.219086
-0.215908
-0.215806
-0.215573
-0.215413
-0.0103573
-0.0105837
-0.0113866
-0.0132932
-0.0171367
-0.0235112
-0.0332831
-0.0474987
-0.0680656
-0.100746
-0.151912
-0.217956
-0.243911
-0.223417
-0.206726
-0.202882
-0.205228
-0.207129
-0.206915
-0.206396
-0.0129522
-0.0131115
-0.0136587
-0.0149317
-0.0174601
-0.0219339
-0.02905
-0.0397794
-0.0557995
-0.0806783
-0.117322
-0.159299
-0.168122
-0.158695
-0.156011
-0.162646
-0.170429
-0.174028
-0.174078
-0.173362
-0.0117385
-0.0118415
-0.0121738
-0.0129037
-0.0144342
-0.0172464
-0.021887
-0.0289846
-0.0394717
-0.0546569
-0.0724364
-0.0850955
-0.082304
-0.0821387
-0.0931588
-0.107251
-0.116629
-0.120121
-0.120317
-0.120149
-0.00769084
-0.00773422
-0.00787622
-0.00820087
-0.00893219
-0.0103621
-0.0127964
-0.0164973
-0.0217055
-0.0283355
-0.0314087
-0.0229409
-0.00333006
-0.0201522
-0.038238
-0.0524342
-0.0612219
-0.0627723
-0.0628832
-0.062836
-0.00180574
-0.00178132
-0.00180814
-0.00177851
-0.00172212
-0.00177133
-0.00204932
-0.00259936
-0.00347351
-0.0045262
-0.00456636
-0.00115231
0.00426464
0.000563718
-0.00250151
-0.00835236
-0.00983634
-0.00834709
-0.00944883
-0.0102114
-0.152875
0.0136833
0.208037
0.377674
0.513093
0.619589
0.707572
0.782512
0.81673
0.79347
0.148854
0.26927
0.398799
0.510686
0.604917
0.682834
0.745921
0.790733
0.813166
0.82529
0.367042
0.449624
0.538153
0.616289
0.683467
0.739668
0.784377
0.81706
0.840711
0.858726
0.527416
0.58654
0.647945
0.704888
0.75439
0.796441
0.830995
0.858579
0.881327
0.899647
0.652552
0.695544
0.741401
0.785093
0.823704
0.857439
0.886327
0.910384
0.930742
0.94859
0.756684
0.78949
0.827533
0.863007
0.895581
0.92479
0.950324
0.971795
0.98963
1.00698
0.849115
0.877769
0.911693
0.943789
0.973706
1.00086
1.02458
1.04429
1.05979
1.07687
0.937633
0.966812
1.00079
1.03281
1.0624
1.08897
1.11182
1.13031
1.14367
1.1607
1.0329
1.0661
1.10272
1.13629
1.16633
1.1925
1.21445
1.23172
1.24359
1.26098
1.14788
1.18569
1.22433
1.25857
1.28791
1.31265
1.33301
1.3489
1.36037
1.37843
1.2928
1.33134
1.36748
1.39816
1.42383
1.44592
1.46498
1.4805
1.49293
1.51092
1.46787
1.49949
1.52567
1.54811
1.56808
1.5868
1.60452
1.62099
1.63634
1.65441
1.65648
1.67368
1.68871
1.70494
1.72085
1.73538
1.74858
1.76251
1.78005
1.8002
1.83819
1.84773
1.85927
1.87008
1.87936
1.88895
1.89973
1.91109
1.92245
1.93781
2.04543
2.04909
2.03414
2.01933
2.01306
2.01873
2.03721
2.06752
2.0997
2.12635
2.35175
2.21688
2.14024
2.09786
2.08044
2.0844
2.1118
2.16821
2.27083
2.4952
0.659181
0.657053
0.65257
0.643946
0.631723
0.619596
0.60937
0.601479
0.595869
0.592624
0.592281
0.595031
0.600143
0.607371
0.616763
0.628305
0.640957
0.651992
0.658105
0.661159
0.583632
0.589479
0.595813
0.600306
0.602777
0.602454
0.59972
0.595914
0.592412
0.590162
0.590027
0.592236
0.595907
0.600202
0.604013
0.605898
0.604963
0.601483
0.59632
0.589699
0.575202
0.577498
0.580902
0.583899
0.585975
0.587473
0.588232
0.58792
0.586902
0.58603
0.586218
0.587657
0.589481
0.590792
0.590976
0.590088
0.58854
0.586205
0.582943
0.580023
0.569684
0.57077
0.572603
0.574982
0.577006
0.578436
0.57946
0.580217
0.580627
0.580862
0.581367
0.582186
0.582793
0.582865
0.582457
0.58161
0.580143
0.57806
0.575975
0.574592
0.564471
0.565134
0.566242
0.567947
0.56973
0.571363
0.572662
0.573684
0.574576
0.57538
0.576125
0.57669
0.576893
0.576732
0.576169
0.575117
0.573691
0.572149
0.570832
0.570053
0.559483
0.559943
0.560729
0.562028
0.563516
0.565034
0.566503
0.567807
0.568953
0.570023
0.570956
0.571539
0.571695
0.571428
0.570735
0.569748
0.568625
0.567494
0.56658
0.566063
0.554639
0.554984
0.555594
0.556663
0.557957
0.559333
0.560775
0.562227
0.563611
0.564907
0.566037
0.566746
0.566934
0.566667
0.566073
0.5653
0.564451
0.563587
0.562916
0.562538
0.549885
0.550153
0.550646
0.551555
0.552725
0.554023
0.55542
0.556915
0.558467
0.560004
0.561374
0.562262
0.562577
0.562466
0.562079
0.561524
0.560879
0.560242
0.559752
0.559464
0.54514
0.545353
0.545762
0.546561
0.54765
0.548899
0.550288
0.551829
0.553513
0.555287
0.556944
0.558093
0.558646
0.558775
0.558617
0.558281
0.557843
0.557398
0.557048
0.556822
0.540315
0.540486
0.540837
0.541562
0.542605
0.543833
0.545249
0.546874
0.548713
0.550741
0.55274
0.554245
0.555119
0.555534
0.555627
0.555519
0.555292
0.555019
0.554784
0.554605
0.535322
0.535461
0.53577
0.53645
0.537476
0.538728
0.54021
0.54196
0.544009
0.546347
0.548764
0.550711
0.551971
0.552717
0.553095
0.55323
0.553212
0.553106
0.552969
0.552825
0.530073
0.530184
0.530466
0.531127
0.53217
0.533491
0.535083
0.537013
0.539338
0.542069
0.545001
0.54748
0.549195
0.550323
0.551024
0.551424
0.551619
0.551682
0.551632
0.551515
0.524471
0.524559
0.524825
0.525491
0.526588
0.52802
0.529777
0.531954
0.534633
0.537861
0.541427
0.544545
0.546798
0.548369
0.549431
0.550141
0.550579
0.550797
0.550822
0.550726
0.51841
0.518477
0.518736
0.519429
0.520619
0.522208
0.524194
0.526697
0.529829
0.533679
0.538018
0.541903
0.544796
0.546887
0.548365
0.54942
0.550121
0.550511
0.550609
0.55053
0.51176
0.511807
0.512068
0.512811
0.514133
0.515936
0.518224
0.521145
0.524851
0.529469
0.534749
0.539558
0.54321
0.545917
0.547883
0.549321
0.550332
0.550905
0.551073
0.551007
0.504368
0.504398
0.504663
0.50548
0.506978
0.509061
0.511735
0.515188
0.519612
0.525174
0.531598
0.537517
0.542073
0.545503
0.548049
0.549945
0.551302
0.552073
0.552312
0.552257
0.496041
0.496057
0.496325
0.497239
0.498971
0.501399
0.504571
0.508698
0.514018
0.520744
0.528556
0.5358
0.541427
0.545708
0.548937
0.551385
0.553136
0.554122
0.554431
0.554384
0.48647
0.486456
0.486785
0.487839
0.489856
0.492739
0.496546
0.501522
0.507962
0.516123
0.525615
0.534436
0.541325
0.54661
0.550639
0.553731
0.555935
0.55716
0.557542
0.5575
0.475369
0.475331
0.475704
0.476953
0.479341
0.482812
0.487427
0.493481
0.501326
0.511254
0.522772
0.533464
0.54183
0.548289
0.553257
0.557088
0.559817
0.561298
0.561751
0.561709
0.462258
0.462193
0.462645
0.464146
0.467019
0.471256
0.476919
0.484355
0.493973
0.506082
0.520036
0.532926
0.543006
0.55082
0.556887
0.561566
0.564881
0.56663
0.567146
0.5671
0.44649
0.446395
0.446972
0.448824
0.452349
0.457611
0.464664
0.473907
0.485785
0.500587
0.517446
0.532893
0.544934
0.554288
0.561605
0.567247
0.571201
0.573218
0.573784
0.573727
0.42713
0.427008
0.427786
0.430154
0.434595
0.441281
0.450232
0.461884
0.476674
0.494803
0.515098
0.533462
0.547706
0.558777
0.567467
0.574184
0.578807
0.581068
0.581662
0.581586
0.402764
0.402626
0.403737
0.406903
0.41273
0.421501
0.433144
0.448073
0.466621
0.488816
0.513111
0.534745
0.551401
0.56435
0.574512
0.582388
0.587655
0.590104
0.590691
0.59059
0.371096
0.370979
0.3727
0.377247
0.385371
0.397384
0.412974
0.4324
0.455758
0.482843
0.511693
0.536896
0.556112
0.571039
0.582764
0.591798
0.597604
0.600139
0.600674
0.600539
0.327979
0.328024
0.331084
0.338509
0.350891
0.368194
0.389624
0.415108
0.444457
0.477246
0.511124
0.54009
0.561937
0.57887
0.592145
0.602259
0.608391
0.61085
0.611282
0.611112
0.265668
0.266865
0.274346
0.288189
0.308345
0.334056
0.363708
0.396909
0.433351
0.472505
0.511696
0.544483
0.568924
0.587789
0.602489
0.613405
0.619589
0.621731
0.621996
0.621803
0.191763
0.193513
0.207829
0.231595
0.262653
0.298297
0.336923
0.37835
0.422389
0.468554
0.513906
0.551424
0.579228
0.600547
0.616983
0.628715
0.634799
0.636704
0.636931
0.636834
0.115496
0.121657
0.142799
0.176778
0.218219
0.263501
0.311064
0.360776
0.412515
0.465824
0.517519
0.55992
0.591182
0.615085
0.633429
0.645769
0.651368
0.652816
0.652975
0.652945
0.0531096
0.0615675
0.0872702
0.128249
0.177824
0.231335
0.286961
0.344425
0.403503
0.463679
0.521459
0.568476
0.602952
0.629129
0.648791
0.661505
0.667029
0.668308
0.6685
0.668527
0.0023672
0.0114207
0.0406646
0.0868714
0.142588
0.202731
0.265175
0.329487
0.395274
0.461896
0.525453
0.57685
0.614328
0.642615
0.663694
0.676928
0.682337
0.683868
0.684148
0.684218
-0.0401074
-0.0307719
0.000918221
0.0511173
0.111877
0.177524
0.245756
0.316066
0.387894
0.460459
0.529444
0.585007
0.625361
0.655719
0.678165
0.692097
0.697945
0.69973
0.700034
0.700117
-0.076673
-0.0672255
-0.0336958
0.0197042
0.0846343
0.15498
0.228255
0.303872
0.381165
0.459225
0.533327
0.592862
0.635989
0.66834
0.692132
0.70701
0.713354
0.715301
0.715642
0.715722
-0.108997
-0.0995121
-0.0645699
-0.00846601
0.0599567
0.13435
0.212087
0.292485
0.374798
0.457985
0.536933
0.600262
0.646038
0.680279
0.705385
0.721057
0.727982
0.730108
0.730471
0.730538
-0.138358
-0.128832
-0.09273
-0.0342921
0.0371257
0.115065
0.196774
0.281511
0.368452
0.456464
0.540042
0.607016
0.655324
0.691331
0.717655
0.734069
0.74152
0.743791
0.74416
0.744196
-0.165628
-0.156054
-0.118931
-0.0584866
0.0156021
0.0966806
0.181938
0.27062
0.361858
0.454441
0.542493
0.613012
0.663746
0.701414
0.728792
0.745818
0.753692
0.756094
0.756472
0.756488
-0.191372
-0.181737
-0.143656
-0.0815165
-0.00502113
0.0788538
0.167307
0.259592
0.354825
0.451757
0.544167
0.618193
0.671302
0.710546
0.738857
0.756358
0.764448
0.766959
0.767341
0.767331
-0.216091
-0.206297
-0.167364
-0.10365
-0.0250164
0.0613535
0.152694
0.248267
0.347219
0.448291
0.544979
0.622538
0.678037
0.718797
0.747966
0.765807
0.77397
0.77648
0.776858
0.776827
-0.240031
-0.230018
-0.190339
-0.125094
-0.0445645
0.0440293
0.137973
0.236548
0.338946
0.443963
0.544878
0.626037
0.684013
0.726309
0.756214
0.774249
0.7824
0.78487
0.785223
0.785162
-0.263302
-0.253081
-0.212618
-0.146001
-0.0637825
0.0268089
0.123082
0.22438
0.329959
0.438713
0.543804
0.628691
0.689298
0.733218
0.763818
0.781933
0.789956
0.792326
0.792627
0.792543
-0.28607
-0.27555
-0.234337
-0.166449
-0.0827197
0.00964922
0.108003
0.211754
0.320246
0.432513
0.541703
0.630474
0.693959
0.739677
0.77096
0.789004
0.796782
0.798977
0.799202
0.799093
-0.308295
-0.297503
-0.255562
-0.186478
-0.101385
-0.00744104
0.0927612
0.198699
0.309824
0.425351
0.538531
0.631337
0.698032
0.745814
0.777823
0.795632
0.802956
0.804877
0.804996
0.804859
-0.330041
-0.318945
-0.276229
-0.206076
-0.119763
-0.0244336
0.0773937
0.185267
0.298741
0.417243
0.534243
0.631211
0.701493
0.751738
0.784641
0.802034
0.808603
0.810079
0.81007
0.809916
-0.351138
-0.339808
-0.296335
-0.225207
-0.137811
-0.0412612
0.0619629
0.171527
0.287065
0.408242
0.528815
0.63001
0.704262
0.757498
0.79169
0.808612
0.814033
0.814724
0.814493
0.814337
-0.371726
-0.360055
-0.315869
-0.243853
-0.1555
-0.0578874
0.0465577
0.157556
0.27488
0.398421
0.522253
0.627629
0.706192
0.763026
0.799186
0.815957
0.819911
0.819151
0.818348
0.818189
-0.391644
-0.37966
-0.334802
-0.26197
-0.172754
-0.0742298
0.0312571
0.143472
0.262294
0.387845
0.514593
0.623963
0.707081
0.768097
0.807088
0.824709
0.827558
0.824587
0.822128
0.821216
-0.410954
-0.398668
-0.353083
-0.279509
-0.189537
-0.0902203
0.0161436
0.129353
0.249417
0.376646
0.505903
0.618905
0.706692
0.772317
0.81488
0.834955
0.838521
0.834085
0.827598
0.819261
-0.429571
-0.417037
-0.370803
-0.296626
-0.206056
-0.106127
0.000889335
0.11481
0.235811
0.364336
0.495663
0.611914