/*--------------------------------*- C++ -*----------------------------------*\
| =========                 |                                                 |
| \\      /  F ield         | OpenFOAM: The Open Source CFD Toolbox           |
|  \\    /   O peration     | Version:  2112                                  |
|   \\  /    A nd           | Website:  www.openfoam.com                      |
|    \\/     M anipulation  |                                                 |
\*---------------------------------------------------------------------------*/
FoamFile
{
    version     2.0;
    format      ascii;
    arch        "LSB;label=32;scalar=64";
    class       volVectorField;
    location    "59.5";
    object      U;
}
// * * * * * * * * * * * * * * * * * * * * * * * * * * * * * * * * * * * * * //

dimensions      [0 1 -1 0 0 0 0];

internalField   nonuniform List<vector> 
8800
(
(0.980139 -0.0915208 0)
(1.00234 -0.0587302 0)
(0.99958 -0.0321298 0)
(0.999974 -0.0165239 0)
(1.00007 -0.00884398 0)
(1.00008 -0.00509886 0)
(1.00005 -0.00299451 0)
(1.00002 -0.00168309 0)
(0.999999 -0.000781348 0)
(1.00006 -8.24438e-05 0)
(0.999987 0.000626411 0)
(0.999994 0.00138193 0)
(1.00002 0.00240686 0)
(1.00004 0.00400753 0)
(1.00004 0.00675083 0)
(0.999996 0.0120514 0)
(0.999795 0.023095 0)
(0.99903 0.0431564 0)
(1.00724 0.0790255 0)
(0.775025 0.0478395 0)
(0.358991 -0.0147483 0)
(1.0465 -0.0724818 0)
(1.08847 -0.066019 0)
(1.04943 -0.0509127 0)
(1.02554 -0.0376922 0)
(1.01274 -0.0258868 0)
(1.00658 -0.0166903 0)
(1.00363 -0.0101984 0)
(1.00219 -0.00556456 0)
(1.00151 -0.00196766 0)
(1.00138 0.00124673 0)
(1.00173 0.00455677 0)
(1.0027 0.00844538 0)
(1.00475 0.0137555 0)
(1.00898 0.0214274 0)
(1.01795 0.0319142 0)
(1.03579 0.0446841 0)
(1.06741 0.058124 0)
(1.09469 0.069955 0)
(0.845615 0.0555084 0)
(0.217803 -0.00138028 0)
(1.07568 -0.0506426 0)
(1.09941 -0.0489235 0)
(1.06439 -0.0400052 0)
(1.0399 -0.0325447 0)
(1.02382 -0.0253296 0)
(1.01403 -0.0181054 0)
(1.00852 -0.0114776 0)
(1.00566 -0.00571454 0)
(1.00448 -0.000418984 0)
(1.00479 0.00469472 0)
(1.00663 0.00998274 0)
(1.01056 0.015948 0)
(1.01789 0.022695 0)
(1.03048 0.0297884 0)
(1.05047 0.036869 0)
(1.08002 0.0446405 0)
(1.10563 0.0519595 0)
(0.943229 0.0410201 0)
(0.217164 0.00140626 0)
(0.176669 -0.000628191 0)
(1.01943 -0.03545 0)
(1.10573 -0.0413891 0)
(1.07799 -0.0363691 0)
(1.05247 -0.0303214 0)
(1.03526 -0.0244414 0)
(1.02339 -0.0186386 0)
(1.01557 -0.0126311 0)
(1.01095 -0.00652582 0)
(1.00891 -0.000280516 0)
(1.00943 0.00588068 0)
(1.0125 0.0117948 0)
(1.01846 0.0175548 0)
(1.02805 0.0231171 0)
(1.04223 0.0286532 0)
(1.06304 0.034424 0)
(1.09382 0.040302 0)
(1.09437 0.0418164 0)
(0.8301 0.0227926 0)
(0.175578 0.000649027 0)
(0.154774 -0.000461943 0)
(0.958255 -0.0256738 0)
(1.10444 -0.0350868 0)
(1.08811 -0.0326317 0)
(1.06131 -0.0281207 0)
(1.04327 -0.0231528 0)
(1.03087 -0.017841 0)
(1.02226 -0.0122873 0)
(1.0167 -0.00636511 0)
(1.01403 9.80078e-05 0)
(1.01465 0.00656115 0)
(1.01842 0.0124327 0)
(1.02521 0.0177382 0)
(1.03534 0.0227274 0)
(1.05006 0.0275351 0)
(1.07198 0.0319627 0)
(1.10094 0.0358299 0)
(1.06959 0.0340223 0)
(0.742359 0.0144731 0)
(0.153138 0.000485336 0)
(0.140106 -0.000333779 0)
(0.901294 -0.0193064 0)
(1.09688 -0.0301867 0)
(1.09627 -0.0293009 0)
(1.06904 -0.0255135 0)
(1.05021 -0.0214214 0)
(1.03723 -0.0167101 0)
(1.02823 -0.011447 0)
(1.02227 -0.00571089 0)
(1.01926 0.0006559 0)
(1.01985 0.00703327 0)
(1.02383 0.012681 0)
(1.03085 0.0176479 0)
(1.04135 0.0220955 0)
(1.05669 0.0260238 0)
(1.07948 0.0295242 0)
(1.10321 0.0322259 0)
(1.03773 0.0281978 0)
(0.675449 0.0103314 0)
(0.1378 0.000361571 0)
(0.129387 -0.000252284 0)
(0.851477 -0.0149075 0)
(1.08456 -0.0260825 0)
(1.10198 -0.0264186 0)
(1.07589 -0.0230918 0)
(1.05655 -0.0194289 0)
(1.04314 -0.0152197 0)
(1.03377 -0.0103422 0)
(1.02752 -0.004828 0)
(1.02429 0.00135238 0)
(1.02476 0.00751204 0)
(1.02874 0.0128766 0)
(1.03592 0.0174215 0)
(1.0467 0.0212629 0)
(1.06241 0.0245894 0)
(1.08564 0.0276101 0)
(1.10239 0.0294085 0)
(1.00296 0.0236714 0)
(0.623289 0.00793413 0)
(0.126263 0.000286058 0)
(0.121221 -0.000193431 0)
(0.809043 -0.0117207 0)
(1.06929 -0.0224852 0)
(1.10553 -0.0237858 0)
(1.08216 -0.0209117 0)
(1.06236 -0.0174762 0)
(1.04868 -0.0135495 0)
(1.03904 -0.00899373 0)
(1.03253 -0.00375469 0)
(1.02905 0.00219222 0)
(1.02936 0.0080826 0)
(1.03328 0.0130928 0)
(1.04052 0.0171784 0)
(1.0514 0.0205451 0)
(1.06735 0.023476 0)
(1.09096 0.0261791 0)
(1.0987 0.0270683 0)
(0.967752 0.0201152 0)
(0.581389 0.00637271 0)
(0.117103 0.000234484 0)
(0.114894 -0.000148758 0)
(0.773272 -0.00933551 0)
(1.05247 -0.0193175 0)
(1.10789 -0.0213524 0)
(1.08804 -0.0188609 0)
(1.06783 -0.0155868 0)
(1.05389 -0.0118287 0)
(1.04407 -0.00747586 0)
(1.03732 -0.00247726 0)
(1.03359 0.00320633 0)
(1.03367 0.00878337 0)
(1.03747 0.0134137 0)
(1.04464 0.0170946 0)
(1.05553 0.0200817 0)
(1.07172 0.0226837 0)
(1.09502 0.0250433 0)
(1.09219 0.0251272 0)
(0.933463 0.0173637 0)
(0.546741 0.00530249 0)
(0.109568 0.000198602 0)
(0.109958 -0.000113484 0)
(0.743238 -0.00748763 0)
(1.03518 -0.0165086 0)
(1.1093 -0.0190657 0)
(1.09363 -0.0168885 0)
(1.07312 -0.0137151 0)
(1.0589 -0.0100575 0)
(1.04888 -0.00583137 0)
(1.04192 -0.00100617 0)
(1.0379 0.00442678 0)
(1.03771 0.00968085 0)
(1.04127 0.0139504 0)
(1.0483 0.0172724 0)
(1.0592 0.0199109 0)
(1.0756 0.0222202 0)
(1.09779 0.0242132 0)
(1.08323 0.023532 0)
(0.900682 0.0152678 0)
(0.517279 0.00455519 0)
(0.103164 0.000173883 0)
(0.106121 -8.43601e-05 0)
(0.71812 -0.00600017 0)
(1.01825 -0.0139869 0)
(1.10987 -0.0168557 0)
(1.0991 -0.0149645 0)
(1.07832 -0.0118104 0)
(1.06379 -0.00819108 0)
(1.05355 -0.00403563 0)
(1.04635 0.000672008 0)
(1.04201 0.00589302 0)
(1.04146 0.0108429 0)
(1.04473 0.0147685 0)
(1.05158 0.0177403 0)
(1.06244 0.0200416 0)
(1.07903 0.0220904 0)
(1.09922 0.0236935 0)
(1.07222 0.0222716 0)
(0.869542 0.0137117 0)
(0.491537 0.00403821 0)
(0.0975432 0.000157669 0)
(0.103191 -5.92081e-05 0)
(0.697273 -0.00475495 0)
(1.00229 -0.0116865 0)
(1.10975 -0.0146862 0)
(1.10441 -0.0130002 0)
(1.0835 -0.00981773 0)
(1.06866 -0.00618193 0)
(1.05815 -0.00203698 0)
(1.05064 0.00260272 0)
(1.04592 0.00765697 0)
(1.04494 0.012331 0)
(1.04784 0.0159309 0)
(1.05447 0.018568 0)
(1.06528 0.0205314 0)
(1.08202 0.0223211 0)
(1.09964 0.0235084 0)
(1.05944 0.0213601 0)
(0.839893 0.012607 0)
(0.468421 0.0036955 0)
(0.0924445 0.000148292 0)
(0.101047 -3.60832e-05 0)
(0.680221 -0.00366346 0)
(0.987766 -0.00953708 0)
(1.10914 -0.0124732 0)
(1.10952 -0.0109145 0)
(1.08876 -0.00768784 0)
(1.07356 -0.00397668 0)
(1.06274 0.000223805 0)
(1.05486 0.00484727 0)
(1.04966 0.00978642 0)
(1.04815 0.0142143 0)
(1.05062 0.017491 0)
(1.05699 0.0197914 0)
(1.06772 0.0214192 0)
(1.08452 0.0229339 0)
(1.09907 0.0237058 0)
(1.04507 0.0208172 0)
(0.811421 0.011884 0)
(0.447075 0.00348906 0)
(0.0876646 0.00014426 0)
(0.099624 -1.32606e-05 0)
(0.66666 -0.00265606 0)
(0.97503 -0.00746394 0)
(1.10835 -0.0101533 0)
(1.11456 -0.00863687 0)
(1.09416 -0.00532804 0)
(1.07857 -0.0014791 0)
(1.06738 0.00283177 0)
(1.05905 0.00749978 0)
(1.05327 0.0123664 0)
(1.05112 0.0165653 0)
(1.05307 0.0195246 0)
(1.05911 0.0214767 0)
(1.06974 0.0227411 0)
(1.08657 0.0239966 0)
(1.09727 0.0243161 0)
(1.02917 0.0206145 0)
(0.78372 0.0114814 0)
(0.426812 0.00339095 0)
(0.0830415 0.000144393 0)
(0.0989046 1.10781e-05 0)
(0.656429 -0.00167884 0)
(0.964399 -0.00539591 0)
(1.10772 -0.00766741 0)
(1.11968 -0.00610485 0)
(1.09979 -0.00266783 0)
(1.08378 0.00138212 0)
(1.07214 0.00587054 0)
(1.06326 0.0106516 0)
(1.05676 0.0154941 0)
(1.05385 0.0194839 0)
(1.05516 0.0221193 0)
(1.06083 0.0237102 0)
(1.07133 0.0245893 0)
(1.08809 0.0255509 0)
(1.0942 0.0253646 0)
(1.01173 0.0207936 0)
(0.756336 0.0113741 0)
(0.407057 0.00338832 0)
(0.0784424 0.000148383 0)
(0.0989091 3.34768e-05 0)
(0.649499 -0.000684432 0)
(0.956173 -0.00325938 0)
(1.10758 -0.00493829 0)
(1.12501 -0.00322571 0)
(1.10574 0.000398292 0)
(1.08927 0.00472185 0)
(1.07709 0.00946198 0)
(1.06753 0.0144224 0)
(1.06017 0.0192898 0)
(1.05634 0.0230854 0)
(1.0569 0.025382 0)
(1.06209 0.0265779 0)
(1.07244 0.027054 0)
(1.08885 0.027654 0)
(1.08962 0.0268853 0)
(0.992608 0.0213775 0)
(0.728757 0.0115432 0)
(0.387287 0.00347154 0)
(0.0737452 0.000155743 0)
(0.0996729 7.05498e-05 0)
(0.645946 0.000337707 0)
(0.950673 -0.000979317 0)
(1.10828 -0.00188275 0)
(1.13077 0.00010191 0)
(1.11213 0.00399673 0)
(1.09514 0.00867822 0)
(1.08232 0.0137503 0)
(1.07193 0.0189592 0)
(1.06352 0.0238902 0)
(1.05857 0.0274873 0)
(1.05825 0.0294163 0)
(1.06289 0.0302022 0)
(1.07304 0.0302479 0)
(1.08873 0.030429 0)
(1.08338 0.0289361 0)
(0.971568 0.0223966 0)
(0.700425 0.0119785 0)
(0.367013 0.00363334 0)
(0.0688417 0.000165963 0)
(0.101405 9.93148e-05 0)
(0.646155 0.00149796 0)
(0.948244 0.00152723 0)
(1.11026 0.00160549 0)
(1.13716 0.00396407 0)
(1.11908 0.0082525 0)
(1.1015 0.0133883 0)
(1.0879 0.0188903 0)
(1.07651 0.0244257 0)
(1.06681 0.0294656 0)
(1.06053 0.0328676 0)
(1.05915 0.0343814 0)
(1.06314 0.0347199 0)
(1.07303 0.0342985 0)
(1.08751 0.0339941 0)
(1.07516 0.0316146 0)
(0.948253 0.0238806 0)
(0.670742 0.0126768 0)
(0.345776 0.00386844 0)
(0.0636347 0.00017867 0)
(0.104162 0.000146635 0)
(0.650501 0.00293 0)
(0.949383 0.00441515 0)
(1.114 0.00563852 0)
(1.14439 0.00854276 0)
(1.12675 0.0133681 0)
(1.10849 0.019075 0)
(1.09394 0.0251113 0)
(1.0813 0.0310503 0)
(1.07005 0.0362264 0)
(1.06218 0.0393981 0)
(1.05957 0.0404303 0)
(1.06276 0.0402757 0)
(1.07236 0.0393239 0)
(1.08498 0.0384789 0)
(1.06466 0.0350111 0)
(0.922188 0.025878 0)
(0.639067 0.0136368 0)
(0.323132 0.00417143 0)
(0.0580392 0.000193119 0)
(0.108222 0.000208663 0)
(0.659526 0.00461044 0)
(0.95455 0.00783292 0)
(1.12001 0.0103974 0)
(1.15275 0.0140447 0)
(1.13536 0.0195847 0)
(1.11626 0.0260005 0)
(1.10052 0.0326863 0)
(1.08635 0.0390993 0)
(1.07323 0.0444093 0)
(1.06348 0.0472808 0)
(1.05945 0.0477643 0)
(1.06169 0.0470361 0)
(1.07092 0.0454876 0)
(1.08118 0.0440398 0)
(1.0514 0.039241 0)
(0.892754 0.0284151 0)
(0.604692 0.0148471 0)
(0.298653 0.00453168 0)
(0.0519849 0.000208377 0)
(0.11392 0.000292147 0)
(0.673941 0.00669648 0)
(0.964385 0.0119785 0)
(1.12885 0.0161176 0)
(1.1626 0.020718 0)
(1.14514 0.0271909 0)
(1.12499 0.0344801 0)
(1.10776 0.0419471 0)
(1.09168 0.0488888 0)
(1.07628 0.0542936 0)
(1.06433 0.056749 0)
(1.05862 0.0565469 0)
(1.05983 0.0551837 0)
(1.06859 0.052988 0)
(1.0759 0.0507913 0)
(1.03483 0.0443866 0)
(0.859212 0.0315049 0)
(0.566892 0.0162787 0)
(0.271966 0.00493023 0)
(0.0454319 0.00022279 0)
(0.121764 0.000412523 0)
(0.694699 0.00943001 0)
(0.979764 0.0171605 0)
(1.14117 0.0231568 0)
(1.17439 0.0289771 0)
(1.15641 0.0366705 0)
(1.13487 0.0450209 0)
(1.11573 0.0533729 0)
(1.09726 0.0608345 0)
(1.07912 0.0662079 0)
(1.06461 0.0680586 0)
(1.05697 0.0669986 0)
(1.05706 0.0648788 0)
(1.06535 0.0619428 0)
(1.06882 0.0588865 0)
(1.01423 0.0505183 0)
(0.820679 0.0351261 0)
(0.524943 0.0178746 0)
(0.242794 0.00533776 0)
(0.0383824 0.000234333 0)
(0.132467 0.000582337 0)
(0.72307 0.0131796 0)
(1.00186 0.0238518 0)
(1.15778 0.0320558 0)
(1.18873 0.0394291 0)
(1.1695 0.048712 0)
(1.14605 0.0583009 0)
(1.12439 0.0675745 0)
(1.10295 0.0754312 0)
(1.08155 0.0805102 0)
(1.06412 0.0814681 0)
(1.05439 0.0793487 0)
(1.05324 0.0762789 0)
(1.06091 0.0724587 0)
(1.05931 0.0683551 0)
(0.988635 0.0576485 0)
(0.776174 0.0391935 0)
(0.478208 0.0195338 0)
(0.211033 0.00571007 0)
(0.0309009 0.000240339 0)
(0.147301 0.000859079 0)
(0.761088 0.0185621 0)
(1.0323 0.0328469 0)
(1.17962 0.0437609 0)
(1.2064 0.0531443 0)
(1.18472 0.0643099 0)
(1.15858 0.0752383 0)
(1.13362 0.0853076 0)
(1.1085 0.0932268 0)
(1.0833 0.0975595 0)
(1.06265 0.0971997 0)
(1.0507 0.0937283 0)
(1.04827 0.0895527 0)
(1.05487 0.0847932 0)
(1.04668 0.0793389 0)
(0.956888 0.0656721 0)
(0.724709 0.0435279 0)
(0.426294 0.0210977 0)
(0.176867 0.00598674 0)
(0.0231365 0.000237591 0)
(0.168458 0.00133519 0)
(0.812007 0.0267394 0)
(1.07366 0.0456994 0)
(1.20777 0.0601037 0)
(1.22797 0.0722183 0)
(1.20217 0.0850878 0)
(1.17219 0.097165 0)
(1.14297 0.107522 0)
(1.11343 0.114833 0)
(1.08394 0.117704 0)
(1.05985 0.115432 0)
(1.04565 0.110237 0)
(1.04198 0.104779 0)
(1.04716 0.0990735 0)
(1.03002 0.091703 0)
(0.917531 0.0743105 0)
(0.665496 0.047822 0)
(0.369361 0.0223567 0)
(0.14095 0.0060979 0)
(0.0153484 0.000222493 0)
(0.199324 0.00239184 0)
(0.881547 0.0404157 0)
(1.12961 0.0662593 0)
(1.24272 0.0846708 0)
(1.25321 0.0993947 0)
(1.22124 0.113419 0)
(1.18609 0.12568 0)
(1.15164 0.135194 0)
(1.11704 0.140784 0)
(1.08296 0.14119 0)
(1.05539 0.136254 0)
(1.03904 0.128891 0)
(1.03424 0.121909 0)
(1.03747 0.115088 0)
(1.00801 0.105251 0)
(0.868881 0.0830246 0)
(0.598431 0.0516101 0)
(0.308835 0.0231319 0)
(0.10486 0.00601863 0)
(0.00802127 0.000193265 0)
(0.241393 0.00862094 3.31106e-20)
(0.973826 0.0676875 2.91618e-20)
(1.19794 0.100676 -1.03428e-20)
(1.2814 0.121079 0)
(1.27936 0.138213 -2.7966e-34)
(1.23979 0.151579 4.1286e-21)
(1.1987 0.162276 -7.6704e-21)
(1.15848 0.169555 0)
(1.11849 0.172349 1.62549e-34)
(1.07952 0.169479 -9.95452e-21)
(1.04826 0.161383 0)
(1.02958 0.151642 -1.20226e-20)
(1.02372 0.143199 -3.55979e-20)
(1.02448 0.136026 -1.68688e-20)
(0.977145 0.122613 -5.09734e-21)
(0.805358 0.093561 -3.03394e-21)
(0.518129 0.0554417 0)
(0.242902 0.0238009 2.1235e-21)
(0.0686957 0.00606825 2.50709e-21)
(0.00116943 0.000184239 4.51517e-20)
(0.270896 0.0240686 2.08043e-20)
(1.04998 0.110282 5.34142e-22)
(1.25432 0.149711 2.60322e-21)
(1.31586 0.170309 0)
(1.30225 0.187277 -1.37149e-20)
(1.25564 0.198445 -1.58866e-20)
(1.20864 0.206812 -7.62471e-21)
(1.16257 0.211576 -2.79014e-20)
(1.11691 0.211534 0)
(1.07256 0.205451 4.23355e-20)
(1.03699 0.194262 4.23733e-20)
(1.0156 0.182126 1.26756e-20)
(1.00767 0.171738 4.65999e-20)
(1.00093 0.16206 6.58691e-20)
(0.929283 0.143414 0)
(0.720597 0.105336 9.31596e-20)
(0.424423 0.0594165 1.33661e-19)
(0.174474 0.0239574 1.48444e-19)
(0.0329987 0.00498308 -1.69693e-19)
(-0.00570734 -0.000460597 -3.19399e-21)
(0.271952 0.0398456 0)
(1.09805 0.165501 2.86529e-21)
(1.29214 0.210045 0)
(1.34256 0.230104 -1.56025e-20)
(1.32012 0.244022 0)
(1.2676 0.251339 -3.03144e-20)
(1.21506 0.255985 1.53817e-20)
(1.16342 0.257152 -5.5346e-20)
(1.11233 0.253441 -1.57563e-21)
(1.06284 0.24354 2.17753e-20)
(1.02313 0.228899 9.36421e-20)
(0.999026 0.214157 -2.45908e-22)
(0.988693 0.201717 -3.3963e-20)
(0.974766 0.189341 -6.2297e-20)
(0.886183 0.164795 7.38539e-20)
(0.661171 0.117172 -1.30887e-19)
(0.371712 0.063557 -1.73098e-20)
(0.141357 0.0241968 0)
(0.0169165 0.00343077 -9.45174e-24)
(-0.00893791 -0.00127534 0)
(0.265605 0.0535087 1.61817e-20)
(1.12391 0.224024 -1.1141e-20)
(1.31535 0.274838 -1.28371e-20)
(1.36016 0.295081 6.81563e-21)
(1.33159 0.305122 -1.17787e-20)
(1.27462 0.307936 6.30721e-20)
(1.21751 0.308177 3.18819e-20)
(1.16107 0.305115 0)
(1.10514 0.297207 -1.07254e-19)
(1.05089 0.283077 0)
(1.00727 0.264667 -4.90172e-20)
(0.980496 0.247112 -6.1305e-20)
(0.967764 0.232475 -3.71059e-20)
(0.948113 0.217038 -4.53786e-20)
(0.850468 0.186832 0)
(0.62312 0.131097 0)
(0.345451 0.0706665 -1.1289e-19)
(0.127451 0.0260253 2.23304e-20)
(0.00971062 0.00217665 -1.3055e-20)
(-0.0109168 -0.0021733 -1.52725e-20)
(0.258051 0.0655916 9.38354e-21)
(1.13522 0.282397 0)
(1.32802 0.340558 1.80939e-20)
(1.36965 0.36147 1.72829e-20)
(1.33677 0.367715 2.86306e-20)
(1.27655 0.366001 0)
(1.21584 0.361731 3.03313e-20)
(1.15541 0.354268 6.07668e-20)
(1.09528 0.341967 5.44286e-20)
(1.03676 0.323396 1.03278e-19)
(0.989475 0.301046 0)
(0.960123 0.28058 -1.32488e-19)
(0.945024 0.263618 -8.03574e-20)
(0.921156 0.245305 -4.76439e-20)
(0.82041 0.209946 2.93807e-19)
(0.599019 0.14716 3.4993e-20)
(0.334612 0.0804692 1.64244e-19)
(0.126308 0.0297741 -7.78023e-19)
(0.00942387 0.00187314 4.60125e-19)
(-0.0115695 -0.00289702 -5.54438e-19)
(0.250798 0.0764997 2.43578e-20)
(1.13723 0.338772 -2.27852e-21)
(1.33303 0.405291 6.84464e-23)
(1.37261 0.427368 -1.10179e-20)
(1.33659 0.430049 -2.03788e-20)
(1.27395 0.423992 1.80189e-21)
(1.21038 0.415381 -3.30308e-20)
(1.14667 0.4036 6.23244e-20)
(1.08294 0.386936 -1.17395e-19)
(1.02063 0.363926 0)
(0.969989 0.337652 -5.96852e-20)
(0.938124 0.314234 -1.61391e-21)
(0.920699 0.294942 -8.82946e-20)
(0.893843 0.273827 0)
(0.793912 0.233948 -6.38461e-20)
(0.582621 0.165273 -1.51854e-19)
(0.332612 0.0926146 4.04596e-19)
(0.131772 0.0355654 -3.98851e-19)
(0.0141933 0.00312972 5.66448e-19)
(-0.0107763 -0.00323771 -5.88567e-19)
(0.244691 0.0865817 -4.12858e-22)
(1.13346 0.392497 6.83619e-21)
(1.33253 0.468048 1.07682e-20)
(1.37046 0.491568 1.37104e-21)
(1.33214 0.491076 -9.70521e-21)
(1.26765 0.480969 0)
(1.20179 0.468283 -2.91882e-20)
(1.13534 0.452389 -6.49137e-20)
(1.06849 0.43153 -6.06401e-20)
(1.00276 0.404203 0)
(0.949031 0.374032 -6.16973e-20)
(0.914757 0.347631 -7.74878e-20)
(0.895148 0.32607 9.60857e-20)
(0.866052 0.302326 -5.8695e-20)
(0.768983 0.258385 -2.8037e-19)
(0.569186 0.184816 1.66767e-19)
(0.333837 0.106208 4.95895e-20)
(0.140036 0.0430599 0)
(0.0216098 0.00585652 -5.50204e-19)
(-0.00905349 -0.00317017 -2.0204e-20)
(0.239834 0.0961492 6.70086e-21)
(1.12621 0.443389 -1.00819e-20)
(1.328 0.528359 -7.0794e-21)
(1.36444 0.553367 9.48622e-21)
(1.32434 0.55013 -3.00244e-20)
(1.25845 0.536351 5.10365e-20)
(1.19073 0.519898 6.31249e-20)
(1.12195 0.500161 -1.03671e-19)
(1.05234 0.475342 3.8677e-20)
(0.983532 0.443868 -2.54689e-19)
(0.926927 0.409871 -7.04735e-20)
(0.890411 0.38058 0)
(0.868824 0.356868 1.04561e-19)
(0.838011 0.330608 1.2598e-19)
(0.744241 0.282877 1.51334e-19)
(0.555815 0.205035 -1.81974e-19)
(0.334524 0.120647 -5.39197e-20)
(0.148155 0.0519349 6.32421e-20)
(0.0297184 0.00971658 0)
(-0.00687357 -0.00274924 -4.40384e-20)
(0.236141 0.105364 -9.42718e-20)
(1.11711 0.491552 5.46425e-20)
(1.32073 0.586132 9.23364e-21)
(1.35556 0.612443 1.52551e-21)
(1.31401 0.606822 -9.94553e-21)
(1.24705 0.589741 -4.07804e-21)
(1.1778 0.569871 -6.96701e-20)
(1.10701 0.546604 -3.76996e-20)
(1.03495 0.518094 -1.05824e-19)
(0.963299 0.482685 3.11711e-22)
(0.904001 0.445024 -2.20034e-19)
(0.865417 0.413017 1.88786e-19)
(0.842 0.387161 -1.15491e-19)
(0.809709 0.35843 1.39621e-19)
(0.718551 0.307181 0)
(0.541102 0.225288 -9.92267e-20)
(0.332539 0.135381 1.0545e-22)
(0.15423 0.0613928 -2.77203e-19)
(0.0370098 0.0141725 -4.06571e-20)
(-0.00461158 -0.00206982 0)
(0.233476 0.114374 0)
(1.10711 0.537211 6.18759e-20)
(1.31154 0.641481 3.12114e-20)
(1.34463 0.668657 3.08336e-21)
(1.30182 0.660943 -1.72618e-20)
(1.23404 0.640915 0)
(1.16353 0.617971 -2.93844e-20)
(1.091 0.591505 -1.05763e-21)
(1.0167 0.559606 2.27073e-19)
(0.942386 0.52051 -3.47434e-20)
(0.880548 0.479385 -1.59278e-19)
(0.840031 0.444698 9.77891e-20)
(0.814907 0.416596 -2.22341e-21)
(0.781248 0.385324 1.48485e-19)
(0.692196 0.330452 9.21878e-20)
(0.524549 0.244372 -2.14709e-19)
(0.327269 0.149531 2.54381e-19)
(0.156912 0.0704423 7.53831e-20)
(0.0421423 0.0185074 3.10557e-19)
(-0.00270669 -0.00134024 -8.29263e-19)
(0.231789 0.123306 -2.9371e-20)
(1.09687 0.580554 4.10531e-20)
(1.30115 0.693889 -2.88787e-20)
(1.33224 0.72197 -1.13906e-20)
(1.28834 0.712388 0)
(1.21991 0.689739 -1.84188e-20)
(1.14835 0.664061 1.01207e-19)
(1.07428 0.634731 8.17293e-20)
(0.997933 0.599758 0)
(0.921079 0.557255 -5.04188e-19)
(0.856794 0.512814 4.31949e-19)
(0.814406 0.475342 0)
(0.787726 0.444923 1.35512e-19)
(0.752794 0.410992 -2.23197e-21)
(0.665284 0.352185 -2.95029e-19)
(0.505825 0.261635 1.15436e-19)
(0.31882 0.162121 0)
(0.15578 0.078217 4.0712e-19)
(0.0445748 0.0220496 0)
(-0.00138333 -0.00073982 -3.933e-19)
(0.230899 0.132247 3.47052e-20)
(1.08684 0.621752 5.17728e-20)
(1.28991 0.743462 -2.90855e-20)
(1.31888 0.772379 0)
(1.27403 0.761135 -7.52096e-21)
(1.20508 0.736169 0)
(1.13264 0.708071 -9.59358e-20)
(1.05719 0.676206 -3.61904e-20)
(0.978932 0.638486 3.93182e-20)
(0.899629 0.59287 -2.49581e-19)
(0.832895 0.545198 4.43533e-20)
(0.788671 0.504862 0)
(0.760561 0.472092 -2.89418e-19)
(0.724265 0.435286 2.19553e-21)
(0.637655 0.37204 0)
(0.485072 0.276671 1.38481e-21)
(0.307165 0.172457 3.72886e-19)
(0.151389 0.083969 -3.52179e-19)
(0.044366 0.0243096 1.03836e-19)
(-0.000707874 -0.000385038 0)
(0.230495 0.141067 0)
(1.0773 0.660893 6.14683e-20)
(1.27812 0.790344 4.03241e-20)
(1.30499 0.819932 -2.50503e-21)
(1.25924 0.807207 3.16099e-21)
(1.18988 0.780199 -4.08982e-20)
(1.1167 0.749983 3.70018e-20)
(1.04001 0.715898 -4.42637e-20)
(0.959953 0.675752 1.7754e-19)
(0.878234 0.627331 -3.98928e-19)
(0.808982 0.576521 -3.92535e-21)
(0.762907 0.533354 -1.25651e-19)
(0.733411 0.498138 4.70469e-19)
(0.695635 0.45794 -2.58969e-21)
(0.60945 0.389691 -2.29539e-19)
(0.462411 0.288995 -4.0947e-19)
(0.292776 0.180176 0)
(0.144065 0.0875126 0)
(0.0421569 0.0251902 1.12123e-19)
(-0.000591525 -0.000339791 -6.58529e-20)
(0.23074 0.149895 4.76384e-20)
(1.06828 0.697847 -1.38841e-19)
(1.2661 0.834618 -4.32867e-20)
(1.29084 0.864735 0)
(1.24426 0.850663 -1.52149e-21)
(1.17459 0.821857 -3.02894e-20)
(1.10079 0.789804 8.46143e-20)
(1.02298 0.753797 1.69457e-19)
(0.94121 0.711553 2.29218e-19)
(0.857082 0.660637 -3.24855e-19)
(0.785197 0.606867 -3.71815e-19)
(0.737162 0.560963 3.36133e-19)
(0.706187 0.522997 0)
(0.666764 0.478687 -1.04226e-19)
(0.580569 0.404766 -2.48516e-19)
(0.437912 0.298375 -2.94451e-19)
(0.276055 0.184987 -3.48289e-19)
(0.134244 0.08865 1.02917e-19)
(0.0383121 0.0248206 -6.04171e-20)
(-0.000825456 -0.000503349 2.85826e-22)
(0.231108 0.158658 0)
(1.05994 0.733118 0)
(1.25406 0.876388 2.50535e-21)
(1.27666 0.906898 0)
(1.22933 0.891591 -2.49673e-20)
(1.15942 0.861204 1.44181e-20)
(1.08511 0.827564 0)
(1.00628 0.789914 1.9215e-20)
(0.922888 0.74589 3.80253e-19)
(0.836345 0.69281 -7.47593e-19)
(0.761676 0.636365 0)
(0.711474 0.587781 -2.16478e-19)
(0.678775 0.546546 -3.05495e-21)
(0.637556 0.497362 -2.3968e-21)
(0.551074 0.417069 2.65774e-19)
(0.412253 0.30469 -1.63704e-22)
(0.257444 0.186808 -7.50526e-19)
(0.122515 0.0874662 2.21463e-19)
(0.0332215 0.0232607 6.54556e-20)
(-0.0012794 -0.000828202 0)
(0.231568 0.167278 -1.87574e-19)
(1.05203 0.76673 -9.20972e-20)
(1.24208 0.915732 -1.2338e-19)
(1.2626 0.946538 1.31172e-19)
(1.21462 0.930065 -5.99271e-20)
(1.14455 0.898305 0)
(1.0698 0.863307 4.73609e-20)
(0.990068 0.824275 -4.35925e-20)
(0.905136 0.778781 3.89189e-21)
(0.816183 0.723892 5.5451e-20)
(0.73856 0.66513 4.80969e-19)
(0.685871 0.61385 -7.57793e-20)
(0.651095 0.568768 -2.90285e-19)
(0.607878 0.513908 -1.21645e-19)
(0.520961 0.426375 1.44558e-19)
(0.385907 0.307724 2.40954e-23)
(0.237532 0.185557 2.02233e-19)
(0.109706 0.0840919 -4.76602e-19)
(0.0276693 0.0207888 5.63365e-19)
(-0.00184665 -0.00126514 8.21258e-20)
(0.231929 0.175634 7.0937e-20)
(1.04453 0.798781 -5.16794e-20)
(1.23029 0.952752 6.22562e-21)
(1.24879 0.983785 8.18656e-20)
(1.20024 0.966201 1.95611e-20)
(1.13008 0.933234 -1.88592e-20)
(1.05501 0.897085 1.14716e-20)
(0.974459 0.856902 -1.79939e-19)
(0.888082 0.810226 -4.15357e-19)
(0.796732 0.753902 -4.43862e-19)
(0.715994 0.693238 0)
(0.660396 0.639223 -3.34061e-19)
(0.623085 0.589814 4.19009e-19)
(0.577493 0.52832 0)
(0.490138 0.432322 -3.09625e-19)
(0.359322 0.307036 1.84622e-19)
(0.217537 0.18102 -2.17461e-19)
(0.0971007 0.0788673 -2.56497e-19)
(0.0223432 0.0178088 -4.53786e-19)
(-0.00240238 -0.00172957 -3.53813e-19)
(0.23263 0.18386 -7.98752e-20)
(1.03732 0.829258 5.52881e-20)
(1.21875 0.987516 1.27152e-19)
(1.23533 1.01869 1.18183e-19)
(1.18631 1.00009 -3.76629e-20)
(1.11612 0.96608 -2.14915e-21)
(1.0408 0.928948 3.99739e-20)
(0.95954 0.887836 -1.81879e-19)
(0.87181 0.84025 -2.45089e-19)
(0.778118 0.782869 4.62776e-19)
(0.694103 0.720727 1.05545e-18)
(0.635129 0.664013 0)
(0.594694 0.609983 0)
(0.54604 0.540657 -1.40146e-19)
(0.458248 0.434525 0)
(0.332644 0.301829 3.96983e-19)
(0.198694 0.172423 4.67666e-19)
(0.0866602 0.0718008 0)
(0.0184886 0.014747 0)
(-0.00280892 -0.00211729 3.80207e-19)
(0.232989 0.191654 9.05236e-20)
(1.03041 0.85815 7.33115e-20)
(1.20753 1.02015 9.22842e-20)
(1.22227 1.05138 -1.12317e-19)
(1.17288 1.03184 -4.7478e-20)
(1.10273 0.99692 -9.20875e-21)
(1.02725 0.95896 -5.28948e-20)
(0.945375 0.917106 -3.91549e-22)
(0.8564 0.86886 -5.05509e-21)
(0.760433 0.810796 -4.82877e-21)
(0.673023 0.747607 5.43325e-19)
(0.6102 0.688393 0)
(0.56591 0.629644 4.24937e-19)
(0.513117 0.551083 2.98972e-19)
(0.424587 0.432878 7.23537e-19)
(0.305322 0.290944 2.13912e-19)
(0.18225 0.157327 -2.51783e-19)
(0.0823822 0.0602292 -1.47812e-19)
(0.0216984 0.0106435 0)
(-0.00116467 -0.00163075 4.08599e-19)
(0.233657 0.19946 -2.03523e-19)
(1.02376 0.885559 0)
(1.1966 1.0507 1.07851e-19)
(1.20966 1.08194 -9.47376e-20)
(1.16001 1.06156 6.19081e-20)
(1.08994 1.02584 3.0002e-20)
(1.0144 0.987175 9.17039e-20)
(0.932 0.944749 -1.56889e-20)
(0.841893 0.896067 0)
(0.743756 0.83766 -5.07142e-19)
(0.652887 0.773865 -1.1782e-18)
(0.585777 0.712568 4.90601e-20)
(0.5368 0.649144 5.86578e-19)
(0.478464 0.559954 0)
(0.388102 0.427985 4.88711e-19)
(0.275105 0.273508 0)
(0.166501 0.130399 0)
(0.0885525 0.03062 -1.59943e-19)
(0.0526673 -0.00539759 0)
(0.0280461 0.0113736 1.09486e-19)
(0.233956 0.206675 -2.27032e-19)
(1.01734 0.911806 0)
(1.18597 1.07938 1.78895e-19)
(1.19743 1.11063 0)
(1.14766 1.0895 -3.67708e-20)
(1.0777 1.05313 0)
(1.00218 1.01391 2.69703e-21)
(0.919318 0.971104 2.44625e-20)
(0.828169 0.922234 3.05965e-20)
(0.727919 0.863844 -5.53852e-19)
(0.633505 0.799927 3.50086e-20)
(0.561633 0.737243 3.96492e-19)
(0.506946 0.669252 5.72353e-19)
(0.441236 0.567866 7.76678e-20)
(0.34691 0.421476 3.8346e-19)
(0.237195 0.25053 0)
(0.139444 0.0876251 5.3152e-19)
(0.0751222 -0.0169081 -3.10687e-19)
(0.0430328 0.0447436 3.60445e-19)
(-0.0690187 0.43637 -4.24599e-19)
(0.234242 0.213698 1.87816e-19)
(1.01088 0.936673 2.90663e-19)
(1.17556 1.1065 0)
(1.18545 1.13787 5.00451e-21)
(1.13562 1.11625 1.06896e-19)
(1.06575 1.07947 -9.28679e-20)
(0.990275 1.03996 2.52415e-20)
(0.906919 0.997104 0)
(0.814693 0.948446 1.97625e-19)
(0.71225 0.890645 -2.83305e-20)
(0.613967 0.827285 0)
(0.536524 0.764174 0)
(0.474419 0.691447 5.12575e-19)
(0.399189 0.575457 -2.40708e-19)
(0.297851 0.415469 -3.88751e-19)
(0.186683 0.225577 0)
(0.0812969 0.0926874 2.68169e-19)
(0.0040986 0.439364 -3.09679e-19)
(0.0334948 1.88998 -1.68328e-19)
(0.0627975 2.81154 -2.16085e-19)
(0.234347 0.219893 -1.40812e-19)
(1.00458 0.960345 -3.72409e-19)
(1.16536 1.13205 1.05951e-19)
(1.17371 1.16354 9.01531e-20)
(1.12392 1.14156 0)
(1.05415 1.10457 -7.57666e-20)
(0.978886 1.06501 2.45949e-20)
(0.894994 1.02232 -1.1248e-20)
(0.801737 0.97419 2.96698e-20)
(0.697128 0.917447 5.23845e-19)
(0.594869 0.855316 5.91892e-19)
(0.511359 0.792998 4.42423e-19)
(0.440043 0.715603 5.15458e-19)
(0.354038 0.581785 -5.65492e-19)
(0.246526 0.413685 -5.87088e-19)
(0.125092 0.26584 0)
(0.0440596 0.828688 0)
(0.101315 2.55054 1.47109e-19)
(0.102397 3.20139 0)
(0.10556 3.38823 3.48358e-19)
(0.237006 0.225569 0)
(0.999038 0.983024 0)
(1.15517 1.15587 0)
(1.16199 1.18748 2.68522e-20)
(1.11223 1.1652 9.74619e-20)
(1.04268 1.1283 -6.85353e-20)
(0.967905 1.08896 1.19503e-20)
(0.883503 1.04665 -1.06195e-20)
(0.789269 0.999337 2.39899e-19)
(0.682585 0.944112 -9.20094e-21)
(0.576374 0.883971 1.16386e-18)
(0.486429 0.823536 -5.12392e-20)
(0.404006 0.742564 6.21187e-20)
(0.30855 0.584797 8.18683e-20)
(0.183493 0.426866 -4.91644e-21)
(0.100294 0.960769 1.84197e-21)
(0.140452 2.72039 -7.78456e-19)
(0.148625 3.2925 -2.90979e-19)
(0.137517 3.42593 1.48483e-19)
(0.124885 3.44818 -1.64147e-19)
(0.155337 0.182486 8.30373e-20)
(0.988227 1.00747 0)
(1.14462 1.17816 -2.11143e-19)
(1.15082 1.21018 -2.42272e-19)
(1.10141 1.18799 2.23582e-19)
(1.03229 1.15135 7.69718e-20)
(0.957296 1.11186 -6.87241e-21)
(0.872556 1.07023 1.01817e-19)
(0.777456 1.02406 -1.92619e-19)
(0.668911 0.970814 0)
(0.558897 0.913506 5.67784e-19)
(0.462279 0.855591 -3.59243e-19)
(0.367517 0.774875 0)
(0.256644 0.586436 7.60092e-20)
(0.145914 0.752411 1.82588e-19)
(0.156143 2.49207 -2.12279e-19)
(0.213281 3.32279 2.37414e-19)
(0.193221 3.43889 1.26192e-19)
(0.160726 3.46056 1.41203e-19)
(0.138912 3.47091 2.20138e-19)
(0.280194 0.264069 -1.52013e-19)
(0.973164 1.01751 0)
(1.12667 1.20367 2.28572e-19)
(1.13628 1.24082 2.63227e-19)
(1.08425 1.22107 -2.44237e-19)
(1.01438 1.18484 -1.00211e-19)
(0.938464 1.14698 -2.04581e-20)
(0.853223 1.10659 8.21352e-21)
(0.756837 1.06262 1.7611e-19)
(0.645603 1.01328 4.38901e-19)
(0.530492 0.962508 3.142e-20)
(0.423603 0.910444 3.16769e-19)
(0.30093 0.813896 5.76816e-20)
(0.213762 0.929389 -7.43033e-20)
(0.230248 2.34076 -1.68665e-19)
(0.291748 3.32527 1.57534e-19)
(0.274753 3.46803 -1.71679e-19)
(0.239221 3.49 -9.86348e-20)
(0.20201 3.51777 -7.76362e-20)
(0.150475 3.5119 -9.25004e-21)
(0.268141 0.261001 0)
(0.970944 1.0403 6.52139e-20)
(1.11848 1.22722 -4.68874e-20)
(1.12581 1.26451 -3.10628e-20)
(1.07358 1.24431 -1.67401e-19)
(1.00368 1.2083 1.02049e-19)
(0.927444 1.17059 2.13404e-20)
(0.842017 1.13103 6.85918e-21)
(0.745129 1.08854 -1.7892e-19)
(0.632645 1.04204 -1.38663e-20)
(0.514871 0.996297 -1.01134e-18)
(0.40308 0.948548 4.52732e-20)
(0.284054 0.879176 -5.40301e-20)
(0.25567 1.47851 -6.80216e-20)
(0.331227 3.09776 1.80697e-20)
(0.350881 3.46565 4.10695e-22)
(0.31043 3.52216 2.30454e-19)
(0.272976 3.5489 1.06077e-19)
(0.224196 3.57251 -1.38513e-20)
(0.16514 3.56863 -3.74936e-20)
(0.251925 0.25949 1.64591e-19)
(0.967153 1.06578 4.44441e-19)
(1.10988 1.25287 -1.34513e-19)
(1.11476 1.2896 -1.17518e-19)
(1.06228 1.26889 0)
(0.992543 1.23295 1.73005e-19)
(0.916297 1.19548 4.59918e-20)
(0.830962 1.15671 5.3927e-21)
(0.733889 1.11581 -2.0202e-20)
(0.620675 1.07238 -3.83074e-19)
(0.501057 1.0321 -4.59961e-19)
(0.385913 0.987789 -3.65366e-19)
(0.286352 1.00683 -4.06039e-19)
(0.325366 2.19437 4.21085e-19)
(0.418311 3.37445 3.4257e-19)
(0.395411 3.52345 0)
(0.34972 3.56873 0)
(0.31155 3.60984 -8.64109e-21)
(0.260497 3.6703 0)
(0.177543 3.64654 6.45544e-21)
(0.241235 0.261426 -2.45962e-19)
(0.961408 1.09237 -3.76615e-19)
(1.09985 1.27973 0)
(1.10235 1.31542 5.99259e-21)
(1.04973 1.29409 -1.77456e-19)
(0.980287 1.25808 2.74014e-19)
(0.904366 1.2209 3.84095e-20)
(0.819326 1.18283 5.47689e-22)