/*--------------------------------*- C++ -*----------------------------------*\
| =========                 |                                                 |
| \\      /  F ield         | OpenFOAM: The Open Source CFD Toolbox           |
|  \\    /   O peration     | Version:  2112                                  |
|   \\  /    A nd           | Website:  www.openfoam.com                      |
|    \\/     M anipulation  |                                                 |
\*---------------------------------------------------------------------------*/
FoamFile
{
    version     2.0;
    format      ascii;
    arch        "LSB;label=32;scalar=64";
    class       volScalarField;
    location    "7.5";
    object      Ma;
}
// * * * * * * * * * * * * * * * * * * * * * * * * * * * * * * * * * * * * * //

dimensions      [0 0 0 0 0 0 0];

internalField   nonuniform List<scalar> 
5250
(
2.99999
2.99996
2.99984
2.99968
2.99901
2.99806
2.99441
2.98836
2.96847
2.92416
2.81536
2.51545
1.95909
0.940672
0.413833
0.330314
0.341727
0.334236
0.299656
0.246469
0.197796
0.157348
0.11664
0.0722989
0.0394509
2.99999
2.99996
2.99984
2.99968
2.99903
2.99809
2.9945
2.98852
2.96895
2.92522
2.81776
2.52066
1.9707
0.951577
0.421632
0.330616
0.342313
0.3354
0.301317
0.249197
0.201962
0.163139
0.124902
0.0858656
0.0620694
2.99999
2.99996
2.99985
2.99969
2.99906
2.99815
2.99469
2.98887
2.96995
2.92742
2.82286
2.53182
1.99588
0.977102
0.440418
0.333051
0.345885
0.340901
0.308403
0.258944
0.21481
0.179469
0.146156
0.115198
0.0990511
2.99999
2.99996
2.99985
2.99971
2.9991
2.99823
2.99494
2.98937
2.97137
2.93067
2.83087
2.55099
2.03737
1.02229
0.472451
0.338868
0.353703
0.35187
0.321415
0.27546
0.234948
0.203726
0.175795
0.15147
0.139576
2.99999
2.99996
2.99986
2.99972
2.99915
2.99834
2.99523
2.98999
2.97303
2.93478
2.84065
2.57653
2.08824
1.08907
0.515439
0.346128
0.364401
0.367071
0.339159
0.297105
0.260674
0.23368
0.210747
0.191646
0.182619
2.99999
2.99997
2.99987
2.99974
2.99922
2.99846
2.99558
2.99075
2.97501
2.93981
2.85235
2.60857
2.15086
1.18159
0.570485
0.356289
0.379297
0.387369
0.361986
0.323947
0.291489
0.26885
0.250796
0.236711
0.230836
2.99999
2.99997
2.99988
2.99977
2.99928
2.99859
2.99591
2.9916
2.97708
2.94608
2.86621
2.64798
2.22854
1.30513
0.638989
0.373314
0.400968
0.414097
0.390623
0.357016
0.328056
0.30975
0.297014
0.288746
0.287929
2.99999
2.99997
2.9999
2.99979
2.99935
2.99873
2.99628
2.99253
2.97934
2.95309
2.88161
2.6924
2.31817
1.45617
0.720998
0.404861
0.434116
0.449041
0.426803
0.396966
0.371551
0.357299
0.350236
0.349999
0.359382
2.99999
2.99998
2.99991
2.99981
2.99943
2.99889
2.9967
2.9935
2.9817
2.9604
2.8972
2.74011
2.41564
1.66178
0.819558
0.455543
0.482421
0.493618
0.473371
0.445307
0.422695
0.412723
0.412686
0.425238
0.457536
3
2.99998
2.99992
2.99984
2.99951
2.99903
2.99715
2.99432
2.98407
2.96556
2.90972
2.77508
2.48058
1.80113
0.898161
0.494124
0.517157
0.529499
0.520714
0.497338
0.479408
0.474288
0.486331
0.525003
0.620991
3
2.99998
2.99995
2.99984
2.99967
2.99906
2.99804
2.99473
2.98777
2.96906
2.9215
2.81523
2.50551
1.93697
0.976863
0.55411
0.535724
0.551659
0.555879
0.544462
0.53584
0.54021
0.56999
0.645109
0.80712
3
2.99999
2.99994
2.99988
2.99963
2.99926
2.99784
2.99566
2.98788
2.97374
2.93104
2.82893
2.60323
2.01481
1.15999
0.636923
0.551515
0.569196
0.583065
0.584551
0.587316
0.604257
0.649363
0.740418
0.900809
3
2.99999
2.99995
2.9999
2.99968
2.99937
2.99811
2.99631
2.98944
2.97792
2.94079
2.85603
2.66045
2.14161
1.33162
0.72763
0.567413
0.586165
0.607966
0.620568
0.634055
0.661237
0.713669
0.800866
0.931557
3
2.99999
2.99996
2.99991
2.99972
2.99945
2.99836
2.99683
2.99068
2.98144
2.94845
2.88384
2.71458
2.29492
1.53902
0.836575
0.598422
0.61374
0.635901
0.656212
0.676483
0.710396
0.763238
0.840201
0.947084
3
3
2.99997
2.99993
2.99977
2.99955
2.99866
2.9974
2.99237
2.98488
2.95757
2.90862
2.76553
2.45053
1.77184
0.960173
0.652472
0.656296
0.673362
0.693951
0.715917
0.749758
0.803255
0.870827
0.960571
3
3
2.99998
2.99994
2.99982
2.99964
2.99893
2.99792
2.99392
2.98794
2.96643
2.92614
2.81564
2.53847
1.98762
1.07426
0.712266
0.692498
0.710149
0.730361
0.752602
0.784458
0.83329
0.897415
0.973799
3
3
2.99998
2.99996
2.99986
2.99972
2.99917
2.99839
2.99538
2.99054
2.97441
2.94034
2.85289
2.61786
2.17305
1.26739
0.815274
0.720512
0.735882
0.756246
0.783776
0.815276
0.858944
0.917249
0.986303
3
3
2.99999
2.99997
2.99989
2.99978
2.99934
2.99872
2.99625
2.99257
2.9794
2.95437
2.88414
2.70316
2.34291
1.5185
0.953882
0.76161
0.762253
0.780377
0.809478
0.843466
0.883646
0.935444
0.996827
3.00001
3
2.99999
2.99998
2.99992
2.99983
2.9995
2.99902
2.99714
2.99437
2.98408
2.96657
2.91237
2.78873
2.50817
1.89278
1.12124
0.831235
0.805676
0.815514
0.838962
0.870474
0.907899
0.953984
1.00874
3.00001
3
3
2.99998
2.99995
2.99985
2.9997
2.99912
2.99826
2.99509
2.98975
2.97265
2.93552
2.84302
2.60016
2.12215
1.27494
0.903432
0.839531
0.849703
0.869848
0.899292
0.93181
0.971925
1.01987
3.00001
3
3
2.99999
2.99997
2.99989
2.99977
2.99932
2.99868
2.99614
2.99232
2.97876
2.95336
2.88136
2.70084
2.33021
1.55834
1.03569
0.881825
0.880353
0.896635
0.924831
0.95835
0.993349
1.03324
3.00001
3.00001
3
3
2.99997
2.99994
2.9998
2.9996
2.99883
2.99766
2.99337
2.98633
2.96302
2.91781
2.7915
2.51855
1.88104
1.21083
0.949368
0.918054
0.926678
0.949689
0.981372
1.01553
1.05102
3.00001
3.00001
3
3
2.99999
2.99995
2.99989
2.99966
2.99933
2.99809
2.9961
2.98949
2.9763
2.94019
2.84983
2.65969
2.14527
1.39867
1.02821
0.958698
0.961272
0.977491
1.00324
1.03374
1.06723
3.00001
3.00001
3
3
2.99999
2.99997
2.9999
2.9998
2.99942
2.99885
2.9968
2.99323
2.98217
2.9576
2.89657
2.73362
2.41283
1.68204
1.16385
1.00419
0.994404
1.00732
1.02768
1.05345
1.0832
3.00001
3.00001
3.00001
3
2.99999
2.99998
2.99993
2.99986
2.99957
2.99916
2.99753
2.99523
2.98619
2.97233
2.92561
2.83025
2.59648
2.07062
1.3695
1.07939
1.03195
1.03551
1.05293
1.07676
1.10289
3.00001
3.00001
3.00001
3
3
2.99999
2.99995
2.9999
2.99971
2.99943
2.99834
2.99674
2.99079
2.98106
2.94959
2.88106
2.71993
2.30859
1.6224
1.1942
1.07499
1.06565
1.07395
1.09449
1.12142
3.00001
3.00001
3.00001
3
3
2.99999
2.99998
2.99992
2.99984
2.99954
2.99908
2.99738
2.99479
2.98558
2.96967
2.92142
2.81529
2.56629
2.04039
1.38092
1.13891
1.10336
1.10311
1.11735
1.1397
3.00001
3.00001
3.00001
3.00001
3
3
2.99999
2.99995
2.9999
2.99969
2.99939
2.99822
2.99654
2.99027
2.97995
2.9472
2.87475
2.71024
2.27465
1.61155
1.22739
1.13498
1.12957
1.13789
1.15662
3.00001
3.00001
3.00001
3.00001
3.00001
3
2.99999
2.99997
2.99993
2.99979
2.99959
2.99881
2.99768
2.99334
2.98676
2.96361
2.92191
2.8029
2.54646
1.96945
1.39753
1.18725
1.15734
1.15918
1.17326
3.00001
3.00001
3.00001
3.00001
3.00001
3
3
2.99999
2.99995
2.99989
2.99969
2.99938
2.99823
2.99648
2.99038
2.97947
2.94732
2.87232
2.7091
2.27275
1.61981
1.27352
1.19314
1.18464
1.1907
3.00001
3.00001
3.00001
3.00001
3.00001
3.00001
3
2.99999
2.99997
2.99993
2.99979
2.99959
2.99879
2.99767
2.99329
2.9868
2.96365
2.92258
2.80608
2.55212
1.99686
1.43278
1.23862
1.21054
1.20921
3.00001
3.00001
3.00001
3.00001
3.00001
3.00001
3
3
2.99998
2.99996
2.99987
2.99974
2.99924
2.99851
2.99574
2.99161
2.97677
2.95114
2.87592
2.70983
2.32883
1.68194
1.33079
1.23878
1.22537
3.00001
3.00001
3.00001
3.00001
3.00001
3.00001
3.00001
3
2.99999
2.99997
2.99994
2.99981
2.99961
2.99889
2.9978
2.99388
2.9875
2.96676
2.92722
2.81891
2.58812
2.04989
1.50713
1.28857
1.24433
3.00001
3.00001
3.00001
3.00001
3.00001
3.00001
3.00001
3
3
2.99999
2.99995
2.9999
2.99971
2.99942
2.99836
2.99676
2.99114
2.98133
2.95204
2.88546
2.73817
2.34796
1.7377
1.37075
1.26033
3.00001
3.00001
3.00001
3.00001
3.00001
3.00001
3.00001
3.00001
3
3
2.99997
2.99994
2.99981
2.99963
2.99893
2.99792
2.99409
2.98832
2.96806
2.93292
2.82879
2.61908
2.10774
1.54354
1.29094
3.00001
3.00001
3.00001
3.00001
3.00001
3.00001
3.00001
3.00001
3
3
2.99999
2.99996
2.99988
2.99977
2.99932
2.99868
2.99622
2.99259
2.97932
2.95756
2.89006
2.74822
2.41572
1.80272
1.35506
3.00001
3.00001
3.00001
3.00001
3.00001
3.00001
3.00001
3.00001
3.00001
3
3
2.99997
2.99994
2.99981
2.99963
2.99893
2.99788
2.99404
2.988
2.96751
2.93008
2.82408
2.59787
2.08164
1.43101
3.00001
3.00001
3.00001
3.00001
3.00001
3.00001
3.00001
3.00001
3.00001
3
3
2.99998
2.99996
2.99986
2.99973
2.99919
2.99843
2.99549
2.99104
2.97582
2.94585
2.86907
2.66702
2.28001
1.49791
3.00001
3.00001
3.00001
3.00001
3.00001
3.00001
3.00001
3.00001
3.00001
3
3
2.99999
2.99996
2.99991
2.99971
2.99943
2.99833
2.99671
2.99051
2.98072
2.94738
2.88061
2.70563
2.29115
1.52069
3.00001
3.00001
3.00001
3.00001
3.00001
3.00001
3.00001
3.00001
3.00001
3
3
2.99999
2.99996
2.99992
2.99973
2.99948
2.99843
2.99695
2.991
2.98199
2.94946
2.8879
2.71487
2.31184
1.51724
3.00001
3.00001
3.00001
3.00001
3.00001
3.00001
3.00001
3.00001
3.00001
3
3
2.99999
2.99996
2.99992
2.99975
2.99951
2.99853
2.99711
2.99154
2.98272
2.95227
2.8897
2.72526
2.31892
1.53136
3.00001
3.00001
3.00001
3.00001
3.00001
3.00001
3.00001
3.00001
3.00001
3
3
2.99999
2.99997
2.99991
2.99982
2.99945
2.9989
2.99687
2.99341
2.98232
2.95766
2.89481
2.72209
2.37751
1.57357
3.00001
3.00001
3.00001
3.00001
3.00001
3.00001
3.00001
3.00001
3.00001
3
3
2.99999
2.99997
2.99991
2.99982
2.99943
2.9989
2.99671
2.99352
2.98153
2.96004
2.89559
2.73481
2.39297
1.61583
3.00001
3.00001
3.00001
3.00001
3.00001
3.00001
3.00001
3.00001
3.00001
3
3
2.99999
2.99998
2.99991
2.99982
2.99947
2.99895
2.99697
2.99372
2.98295
2.96012
2.89953
2.73718
2.40737
1.64335
3.00001
3.00001
3.00001
3.00001
3.00001
3.00001
3.00001
3.00001
3.00001
3.00001
3
2.99999
2.99997
2.99993
2.99977
2.99955
2.99864
2.99733
2.99218
2.98406
2.95586
2.89872
2.74748
2.37443
1.63321
3.00001
3.00001
3.00001
3.00001
3.00001
3.00001
3.00001
3.00001
3.00001
3.00001
3
2.99999
2.99997
2.99993
2.99977
2.99955
2.99864
2.99735
2.99215
2.98431
2.95571
2.90213
2.75028
2.391
1.65434
3.00001
3.00001
3.00001
3.00001
3.00001
3.00001
3.00001
3.00001
3.00001
3.00001
3
2.99999
2.99997
2.99993
2.99978
2.99956
2.99867
2.99738
2.99234
2.98442
2.95681
2.90143
2.75417
2.38984
1.66388
3.00001
3.00001
3.00001
3.00001
3.00001
3.00001
3.00001
3.00001
3.00001
3
3
2.99999
2.99998
2.99992
2.99984
2.99951
2.99901
2.99726
2.99398
2.98422
2.96121
2.90476
2.74819
2.43525
1.7033
3.00001
3.00001
3.00001
3.00001
3.00001
3.00001
3.00001
3.00001
3.00001
3.00001
3
2.99999
2.99997
2.99993
2.99978
2.99956
2.99869
2.99741
2.99244
2.98459
2.95745
2.90256
2.75775
2.39779
1.68192
3.00001
3.00001
3.00001
3.00001
3.00001
3.00001
3.00001
3.00001
3.00001
3.00001
3
2.99999
2.99997
2.99993
2.99977
2.99956
2.99866
2.99739
2.9923
2.98463
2.95669
2.90457
2.75729
2.40687
1.69111
0.973742
0.798951
0.356371
0.271546
0.254561
0.381965
0.42589
0.454984
0.488655
0.528705
0.56558
0.597811
0.62748
0.656864
0.685499
0.714444
0.736503
0.747603
0.7506
0.748916
0.738361
0.715156
0.681479
0.640503
0.596444
0.551369
0.507204
0.463899
0.422393
0.382649
0.344634
0.307959
0.272428
0.237945
0.203249
0.169559
0.137321
0.106049
0.0759208
0.0468685
0.0228409
0.0220367
0.0464677
0.0720515
0.0976345
0.122103
0.145794
0.167857
0.189382
0.211684
0.234086
0.255535
0.276242
0.296319
0.315998
0.335156
0.354001
0.372375
0.390485
0.408187
0.425641
0.442769
0.459662
0.476247
0.492666
0.508757
0.524729
0.540416
0.555976
0.571312
0.586525
0.601538
0.616438
0.63118
0.645761
0.660283
0.674532
0.688848
0.70279
0.716853
0.73053
0.744284
0.757705
0.771141
0.784271
0.797416
0.810221
0.823087
0.835546
0.848106
0.860181
0.872348
0.883944
0.89551
0.906348
0.916906
0.926295
0.934834
0.941004
0.945721
0.984096
0.869508
0.642749
0.409989
0.32022
0.184084
0.0677794
0.114985
0.197671
0.268188
0.3185
0.354142
0.387078
0.421147
0.454153
0.485567
0.512434
0.527106
0.530215
0.526829
0.513233
0.486845
0.449878
0.406484
0.361426
0.31662
0.273644
0.23177
0.19252
0.155664
0.120982
0.0887634
0.0602349
0.0418865
0.0431733
0.062932
0.0878525
0.11398
0.140094
0.165607
0.190278
0.213488
0.236226
0.25879
0.281083
0.302791
0.323976
0.343932
0.363204
0.382848
0.402901
0.422097
0.440659
0.458639
0.476288
0.493551
0.510461
0.527058
0.543302
0.559292
0.574951
0.590432
0.605553
0.620605
0.635276
0.649963
0.664244
0.678564
0.692483
0.706475
0.720038
0.733768
0.746974
0.760498
0.77337
0.786698
0.799288
0.812382
0.824745
0.837563
0.849713
0.862256
0.874169
0.886463
0.898103
0.910169
0.92152
0.933354
0.944428
0.955984
0.966759
0.977969
0.988386
0.999106
1.00899
1.01888
1.0275
1.03551
1.04112
1.04533
1.00295
0.980891
0.880988
0.769305
0.665164
0.555817
0.441423
0.335047
0.245864
0.166194
0.0967353
0.0599022
0.103337
0.153012
0.197569
0.236538
0.268076
0.28442
0.283063
0.270915
0.25624
0.229441
0.193403
0.155703
0.119429
0.0898161
0.0735126
0.0736695
0.0897779
0.112663
0.138675
0.165159
0.191577
0.217421
0.241981
0.266439
0.290503
0.31398
0.336905
0.359079
0.380502
0.400992
0.420996
0.440605
0.459875
0.478785
0.497144
0.514724
0.531379
0.548347
0.565565
0.582742
0.598955
0.614931
0.630387
0.64575
0.660722
0.675541
0.690009
0.704356
0.718388
0.732314
0.745983
0.759524
0.772863
0.786025
0.799071
0.811909
0.824687
0.837246
0.849771
0.862097
0.874387
0.886497
0.898574
0.910461
0.922359
0.934007
0.945733
0.957117
0.968635
0.979753
0.991029
1.0019
1.01292
1.02355
1.03429
1.04465
1.05512
1.06518
1.07543
1.08522
1.09528
1.10469
1.11425
1.12284
1.13123
1.13809
1.14372
1.14685
1.02351
1.04968
1.02164
0.966545
0.900577
0.819716
0.735989
0.645043
0.564321
0.486774
0.412287
0.340976
0.277068
0.220355
0.167731
0.117476
0.0718577
0.0293601
0.00051828
0.0223621
0.0463703
0.082901
0.129729
0.166866
0.200911
0.232074
0.260792
0.286941
0.312413
0.337355
0.361525
0.385103
0.407849
0.429819
0.450547
0.470825
0.490264
0.509405
0.527666
0.545598
0.562636
0.579308
0.595259
0.611096
0.626505
0.641817
0.656731
0.671051
0.684635
0.698134
0.712231
0.726406
0.740155
0.753338
0.766378
0.77909
0.791799
0.804196
0.816609
0.828699
0.840836
0.852656
0.86456
0.876166
0.887855
0.899315
0.910795
0.922179
0.933464
0.944813
0.955947
0.96725
0.978256
0.989462
1.00036
1.01142
1.02222
1.03312
1.04381
1.05452
1.06507
1.0756
1.08597
1.09633
1.10652
1.1167
1.12672
1.13679
1.14673
1.15668
1.16651
1.1762
1.18575
1.19502
1.20406
1.21261
1.22058
1.2276
1.23303
1.23645
1.03906
1.08319
1.09614
1.07715
1.04457
0.99726
0.940684
0.880082
0.816287
0.754054
0.686956
0.621595
0.560367
0.504717
0.453302
0.405663
0.363995
0.328636
0.310256
0.309065
0.326416
0.353014
0.385634
0.419473
0.45046
0.477577
0.501012
0.522236
0.542381
0.561688
0.5803
0.598247
0.615414
0.631737
0.647163
0.661933
0.676032
0.68986
0.703087
0.716069
0.728429
0.740566
0.752262
0.763894
0.775282
0.786782
0.798104
0.809151
0.819461
0.829773
0.840468
0.851854
0.862877
0.873778
0.884281
0.894908
0.905276
0.915856
0.926151
0.936679
0.946863
0.957328
0.967401
0.977816
0.987802
0.998182
1.00809
1.01842
1.02823
1.03848
1.04819
1.05836
1.06805
1.07815
1.08785
1.09785
1.10757
1.11748
1.12715
1.13695
1.14655
1.15621
1.1657
1.17529
1.18476
1.19434
1.2038
1.21326
1.22264
1.23195
1.24122
1.25031
1.25936
1.26812
1.27674
1.28492
1.29259
1.29946
1.30485
1.30825
1.04863
1.10247
1.13101
1.14031
1.13024
1.10864
1.0767
1.03927
0.997235
0.951712
0.903893
0.852936
0.802857
0.751164
0.700353
0.65164
0.608275
0.573553
0.553394
0.552481
0.56705
0.592045
0.62289
0.65571
0.685394
0.709429
0.727362
0.741464
0.75408
0.765602
0.776616
0.787123
0.796863
0.80615
0.814753
0.823037
0.830974
0.838821
0.846379
0.854077
0.861462
0.869112
0.876467
0.884176
0.891802
0.899797
0.907865
0.91594
0.923521
0.931094
0.939109
0.947888
0.956941
0.965862
0.974699
0.983466
0.992342
1.00119
1.01021
1.01917
1.02828
1.03732
1.04644
1.05557
1.06467
1.07393
1.08304
1.09242
1.10158
1.11105
1.12024
1.12974
1.13898
1.14847
1.15773
1.16718
1.17646
1.18584
1.19508
1.20439
1.21357
1.22288
1.23206
1.24137
1.25045
1.25969
1.26866
1.2778
1.28666
1.29568
1.3044
1.31325
1.32176
1.33035
1.33847
1.3466
1.35394
1.36095
1.36631
1.36997
1.05536
1.11312
1.15213
1.1741
1.18297
1.17838
1.16465
1.14484
1.11957
1.09073
1.05876
1.0236
0.984444
0.942953
0.897928
0.854261
0.811552
0.778772
0.756551
0.752929
0.765295
0.792724
0.827283
0.862133
0.891767
0.912909
0.924414
0.928906
0.930438
0.931131
0.932697
0.934661
0.936978
0.939499
0.942135
0.944861
0.947771
0.950842
0.954263
0.958007
0.962074
0.966419
0.97113
0.976051
0.981485
0.987062
0.993283
0.999481
1.00562
1.01163
1.01805
1.02524
1.03296
1.04083
1.04858
1.05647
1.06423
1.07224
1.08012
1.08832
1.09633
1.1047
1.11282
1.12136
1.12957
1.13827
1.14656
1.15539
1.16376
1.17267
1.18113
1.19007
1.19864
1.20757
1.21623
1.22514
1.23386
1.24275
1.25151
1.26042
1.26923
1.27812
1.28687
1.2957
1.30442
1.31319
1.32187
1.33054
1.33916
1.3477
1.35621
1.36458
1.37291
1.38103
1.38904
1.39676
1.40408
1.41081
1.41634
1.41978
1.06022
1.11731
1.16294
1.19341
1.21347
1.22163
1.22224
1.21458
1.20273
1.18624
1.16626
1.14226
1.11258
1.0786
1.03888
0.999344
0.96034
0.925542
0.899846
0.895474
0.909966
0.938417
0.974019
1.00889
1.03703
1.05693
1.06695
1.06859
1.06264
1.05496
1.04845
1.04391
1.04087
1.03921
1.03835
1.03815
1.03851
1.03919
1.04038
1.04204
1.04414
1.0468
1.04977
1.05342
1.05729
1.06176
1.06652
1.0717
1.07675
1.08174
1.08697
1.09285
1.09944
1.10623
1.11316
1.12003
1.12702
1.13401
1.14117
1.14842
1.15583
1.16339
1.17103
1.17885
1.18668
1.19472
1.20273
1.21091
1.21908
1.22736
1.23566
1.244
1.25241
1.26079
1.26929
1.27769
1.28629
1.29477
1.30345
1.31192
1.32059
1.32903
1.33767
1.34608
1.35468
1.36304
1.37157
1.37987
1.38832
1.39652
1.40485
1.41293
1.42107
1.429
1.43683
1.44447
1.4517
1.45852
1.46417
1.4678
1.06647
1.12041
1.16768
1.20414
1.23042
1.24832
1.25697
1.26077
1.25767
1.25059
1.2387
1.22236
1.19785
1.16761
1.13239
1.09518
1.05383
1.01279
0.98972
0.99058
1.00688
1.03544
1.07314
1.11017
1.13844
1.15675
1.17001
1.17492
1.17199
1.16258
1.15104
1.14076
1.13252
1.12651
1.12227
1.11937
1.11752
1.11609
1.11546
1.11502
1.11537
1.11619
1.11749
1.11932
1.12166
1.12444
1.12767
1.13145
1.13524
1.13906
1.14291
1.14745
1.15261
1.1584
1.16427
1.17043
1.17654
1.18297
1.18932
1.19605
1.20267
1.2097
1.21656
1.22386
1.23093
1.23846
1.24574
1.25347
1.26096
1.26884
1.27652
1.28454
1.29241
1.30057
1.30863
1.31695
1.32516
1.33353
1.34175
1.35017
1.3584
1.36685
1.37508
1.38353
1.39173
1.40015
1.40831
1.41666
1.42477
1.43302
1.44104
1.44918
1.45708
1.46509
1.47275
1.48051
1.48767
1.4947
1.50043
1.50436
1.07281
1.12375
1.17067
1.20994
1.24075
1.264
1.27988
1.28923
1.29384
1.2927
1.28595
1.27179
1.24951
1.22072
1.18806
1.14703
1.09644
1.05584
1.04182
1.04814
1.06614
1.09802
1.13781
1.17712
1.20623
1.22632
1.23866
1.24722
1.24914
1.24482
1.23508
1.22227
1.20883
1.19766
1.18867
1.18234
1.17735
1.17406
1.17138
1.16975
1.16858
1.1681
1.16802
1.16862
1.16968
1.17126
1.17335
1.1761
1.17915
1.18225
1.1854
1.18899
1.19327
1.19825
1.20351
1.20907
1.21472
1.22065
1.22658
1.23286
1.2391
1.24576
1.2523
1.25931
1.26613
1.27343
1.28049
1.28803
1.29532
1.30304
1.31056
1.31846
1.32618
1.33424
1.34215
1.35026
1.35824
1.36637
1.37441
1.38257
1.39066
1.39882
1.40694
1.41507
1.42319
1.43127
1.43937
1.44738
1.45544
1.46337
1.47135
1.47917
1.48701
1.49473
1.50232
1.50984
1.51697
1.52383
1.52963
1.53345
1.07989
1.12712
1.17199
1.21248
1.24578
1.27308
1.29338
1.30782
1.3161
1.31891
1.31344
1.298
1.2754
1.2481
1.21017
1.15734
1.1025
1.07352
1.06973
1.0792
1.10256
1.13812
1.18056
1.21804
1.24879
1.2711
1.28586
1.29556
1.30239
1.30378
1.3004
1.29266
1.28057
1.26628
1.25332
1.24238
1.23406
1.22775
1.22336
1.22013
1.21809
1.21651
1.21575
1.21529
1.2155
1.21622
1.21746
1.21936
1.22174
1.22438
1.22694
1.22982
1.23326
1.23751
1.24216
1.24719
1.25241
1.25789
1.26347
1.2693
1.27522
1.2814
1.28766
1.29416
1.30075
1.30756
1.31447
1.32156
1.32877
1.3361
1.34359
1.35114
1.35888
1.36655
1.37439
1.38211
1.39005
1.39783
1.40585
1.41369
1.42176
1.42966
1.43775
1.44567
1.45375
1.46166
1.46971
1.47756
1.48557
1.49337
1.50129
1.50903
1.51683
1.5245
1.53208
1.5396
1.54674
1.55369
1.55956
1.56355
1.09042
1.13256
1.17406
1.21346
1.24776
1.27686
1.30023
1.31764
1.32819
1.33163
1.32316
1.30586
1.28367
1.25085
1.20042
1.13828
1.09388
1.07988
1.08365
1.09851
1.12741
1.16744
1.20696
1.24224
1.27192
1.29634
1.31478
1.32806
1.3369
1.34295
1.3451
1.34368
1.33813
1.32753
1.31321
1.29872
1.28596
1.27556
1.26787
1.26213
1.25818
1.25521
1.25332
1.25188
1.25131
1.25106
1.2516
1.25262
1.25422
1.25635
1.25845
1.26082
1.26349
1.26707
1.27115
1.27583
1.2806
1.28582
1.291
1.29662
1.30215
1.30814
1.31404
1.32039
1.32666
1.33336
1.33998
1.34699
1.35396
1.36125
1.36855
1.37607
1.38355
1.39114
1.39874
1.40642
1.41413
1.42189
1.42969
1.43751
1.44535
1.45321
1.46108
1.46897
1.47683
1.48473
1.49258
1.50046
1.50827
1.51611
1.52385
1.53163
1.53926
1.54695
1.55438
1.56187
1.56889
1.57576
1.58157
1.58552
1.10317
1.14163
1.1787
1.21527
1.24871
1.27793
1.30183
1.3202
1.33044
1.32957
1.31777
1.29965
1.27174
1.22552
1.16139
1.10697
1.08288
1.0815
1.08984
1.11154
1.14588
1.18476
1.22095
1.25331
1.28203
1.30694
1.32823
1.34534
1.35872
1.3677
1.37373
1.37697
1.37728
1.37387
1.36537
1.35271
1.33833
1.32482
1.31317
1.30406
1.29714
1.29242
1.28909
1.28709
1.28578
1.28525
1.28523
1.28582
1.28694
1.28866
1.29064
1.29266
1.29487
1.29773
1.30129
1.30548
1.30993
1.31478
1.31976
1.32509
1.33048
1.33622
1.34202
1.34815
1.35434
1.36083
1.36738
1.37419
1.38106
1.38818
1.39533
1.40259
1.40992
1.41729
1.42477
1.43226
1.43989
1.44747
1.4552
1.46284
1.47062
1.47828
1.48606
1.49372
1.50148
1.50914
1.51688
1.52453
1.53222
1.53984
1.54745
1.55501
1.56246
1.56992
1.57715
1.58439
1.5912
1.59782
1.60346
1.60723
1.11539
1.15036
1.18529
1.21907
1.25021
1.27825
1.30044
1.3167
1.32172
1.31492
1.30013
1.27679
1.23526
1.1731
1.1126
1.08063
1.07416
1.0792
1.09538
1.12378
1.15944
1.19415
1.22619
1.25565
1.28294
1.30789
1.33065
1.35053
1.36776
1.38154
1.39198
1.39854
1.40272
1.40436
1.40331
1.39786
1.38787
1.37474
1.36122
1.34857
1.33815
1.32996
1.32434
1.32036
1.3181
1.31669
1.31616
1.31625
1.3169
1.31811
1.31974
1.32156
1.32337
1.32563
1.32849
1.33216
1.33619
1.34069
1.34539
1.35048
1.3557
1.36124
1.36689
1.37281
1.37885
1.38511
1.39152
1.39811
1.40493
1.41183
1.41886
1.42594
1.43316
1.44041
1.44779
1.45518
1.4627
1.47019
1.4778
1.48534
1.493
1.50054
1.50822
1.51575
1.52341
1.53092
1.53854
1.54604
1.55361
1.56109
1.56856
1.576
1.58331
1.59064
1.59771
1.6048
1.61143
1.61784
1.62324
1.6269
1.1305
1.16065
1.19187
1.22279
1.25127
1.27653
1.29577
1.30542
1.30271
1.2903
1.27062
1.23363
1.17469
1.11183
1.07451
1.06431
1.06726
1.07876
1.10238
1.13474
1.1667
1.19701
1.22529
1.25245
1.27828
1.3032
1.32657
1.34842
1.36813
1.38556
1.40022
1.4119
1.42009
1.42535
1.42849
1.42952
1.42714
1.42025
1.40937
1.3965
1.38353
1.37219
1.36293
1.35624
1.35158
1.34881
1.34723
1.34661
1.34672
1.34745
1.34869
1.35036
1.35195
1.35385
1.35612
1.35924
1.36285
1.36703
1.3714
1.37622
1.38117
1.38647
1.39189
1.39759
1.40343
1.40949
1.41575
1.42223
1.42887
1.43561
1.44249
1.44944
1.4565
1.46363
1.47085
1.47811
1.48547
1.49283
1.5003
1.5077
1.51523
1.52265
1.53017
1.53757
1.54506
1.55245
1.55989
1.56725
1.57463
1.58197
1.58925
1.5965
1.60362
1.61073
1.61757
1.62437
1.63069
1.63674
1.64175
1.64516
1.14677
1.1732
1.2003
1.22779
1.2525
1.27309
1.28554
1.28541
1.27435
1.25688
1.22317
1.16752
1.10414
1.06439
1.05194
1.05358
1.06205
1.0819
1.11078
1.14049
1.16811
1.19487
1.22038
1.24598
1.27092
1.29572
1.31942
1.34243
1.36372
1.38368
1.4013
1.41707
1.42994
1.44023
1.44702
1.45145
1.45441
1.45516
1.45159
1.44327
1.43197
1.4193
1.40736
1.3968
1.38881
1.38288
1.37931
1.37717
1.37639
1.37652
1.37732
1.37867
1.38013
1.38173
1.38343
1.38586
1.38883
1.39257
1.39653
1.40104
1.40568
1.41076
1.41593
1.42144
1.42707
1.43301
1.43911
1.44544
1.45185
1.45843
1.46509
1.4719
1.47879
1.48579
1.49286
1.49999
1.5072
1.51442
1.52172
1.529
1.53634
1.54364
1.55099
1.55828
1.56561
1.57288
1.58015
1.58739
1.5946
1.60178
1.60887
1.61594
1.62281
1.62967
1.63618
1.64261
1.64847
1.65399
1.65835
1.66134
1.16248
1.18544
1.20867
1.2316
1.25195
1.26518
1.26658
1.25638
1.24003
1.20813
1.15481
1.09277
1.05258
1.03894
1.03995
1.04717
1.06484
1.09104
1.11726
1.14246
1.16645
1.19031
1.21421
1.23854
1.2629
1.28729
1.31128
1.33475
1.35734
1.37876
1.39879
1.41717
1.43369
1.44829
1.45993
1.46906
1.47474
1.47957
1.48163
1.48149
1.4763
1.46704
1.45514
1.44297
1.43138
1.42217
1.41494
1.41046
1.40751
1.40649
1.40615
1.407
1.4082
1.40965
1.41105
1.41297
1.41532
1.41863
1.42216
1.42635
1.43064
1.43547
1.44037
1.4457
1.45115
1.45696
1.46289
1.46906
1.47529
1.48171
1.48817
1.49481
1.50146
1.50827
1.51511
1.52208
1.52908
1.53616
1.5433
1.55045
1.55766
1.56483
1.57205
1.57918
1.58635
1.59342
1.60052
1.60752
1.61452
1.62143
1.6283
1.63506
1.64168
1.64814
1.65429
1.66018
1.66543
1.6702
1.67368
1.67617
1.18038
1.20097
1.21918
1.23536
1.24695
1.24833
1.23799
1.22182
1.19048
1.13825
1.0779
1.0391
1.02562
1.02658
1.03373
1.05087
1.0752
1.09903
1.12141
1.14273
1.16431
1.18619
1.20918
1.23235
1.25638
1.28018
1.30436
1.32787
1.35112
1.37336
1.39478
1.41501
1.43394
1.45119
1.46661
1.47971
1.49002
1.49781
1.50349
1.50779
1.50934
1.50816
1.5017
1.49139
1.47963
1.46761
1.45718
1.44862
1.44283
1.43886
1.43716
1.4365
1.43724
1.43852
1.43977
1.44135
1.44317
1.44586
1.44888
1.45262
1.4565
1.46097
1.46557
1.47065
1.47587
1.48152
1.48723
1.4932
1.49919
1.50542
1.51167
1.51812
1.5246
1.53123
1.53792
1.54468
1.55156
1.5584
1.56541
1.5723
1.57937
1.58627
1.59333
1.6002
1.6072
1.61401
1.62089
1.62762
1.63435
1.64096
1.64747
1.65386
1.66
1.66599
1.67149
1.67668
1.68098
1.68479
1.68729
1.68935
1.19414
1.21327
1.22851
1.23697
1.23503
1.22249
1.20476
1.17157
1.11873
1.05982
1.02314
1.01113
1.0128
1.0213
1.03895
1.06252
1.08469
1.10477
1.1238
1.14268
1.16257
1.18318
1.20518
1.22752
1.25099
1.27422
1.29821
1.32142
1.34507
1.36748
1.3901
1.41107
1.4319
1.45082
1.46908
1.48513
1.49988
1.51163
1.52129
1.52863
1.53464
1.53804
1.5391
1.53658
1.52906
1.51818
1.5063
1.49475
1.48486
1.47737
1.47228
1.46957
1.46843
1.46891
1.46999
1.47135
1.47272
1.47477
1.47727
1.48053
1.48401
1.48801
1.49229
1.497
1.50206
1.50735
1.51287
1.51853
1.52438
1.53033
1.53645
1.54265
1.549
1.55539
1.56191
1.56844
1.5751
1.58172
1.5885
1.59517
1.602
1.60866
1.61548
1.62208
1.62882
1.63532
1.64194
1.64831
1.65474
1.66094
1.66706
1.67296
1.67853
1.68386
1.68845
1.69263
1.69568
1.69842
1.69955
1.70083
1.20431
1.22112
1.23115
1.22736
1.21363
1.19302
1.15621
1.0996
1.04072
1.00574
0.995025
0.997588
1.00839
1.02785
1.05103
1.07222
1.09098
1.1081
1.12521
1.14281
1.16171
1.1816
1.20268
1.22445
1.24699
1.26995
1.2932
1.31658
1.3398
1.36289
1.38551
1.40768
1.42923
1.44997
1.46985
1.48844
1.50581
1.52126
1.53499
1.54577
1.55498
1.56218
1.56766
1.56994
1.5702
1.56608
1.55734
1.54603
1.53391
1.52296
1.51384
1.50741
1.5033
1.50158
1.50126
1.50224
1.50328
1.50471
1.5065
1.5091
1.51215
1.51564
1.51956
1.52382
1.5286
1.53354
1.53886
1.54425
1.54995
1.55568
1.56168
1.56767
1.57389
1.58005
1.58643
1.59271
1.59922
1.60556
1.61218
1.61855
1.6252
1.63158
1.63818
1.64449
1.65099
1.65719
1.66351
1.66957
1.67558
1.68141
1.68694
1.69231
1.69707
1.70149
1.7049
1.70775
1.70957
1.71053
1.70987
1.71035
1.21686
1.22571
1.22349
1.20734
1.1836
1.14313
1.08179
1.02274
0.990034
0.980985
0.98449
0.998015
1.01995
1.04292
1.0636
1.08123
1.09717
1.11243
1.12834
1.14513
1.16327
1.18248
1.20281
1.22396
1.24582
1.26829
1.29101
1.31414
1.3371
1.36027
1.38297
1.40568
1.42767
1.44946
1.47028
1.49064
1.50965
1.52774
1.54418
1.55885
1.57138
1.58152
1.59037
1.5971
1.60171
1.60307
1.60211
1.59616
1.58623
1.57466
1.56276
1.55223
1.544
1.5383
1.53522
1.53401
1.53442
1.53535
1.53648
1.53816
1.54064
1.54368
1.54731
1.55124
1.55573
1.56028
1.56538
1.57043
1.576
1.58142
1.5873
1.59297
1.59904
1.60488
1.6111
1.61708
1.6234
1.62951
1.63589
1.64208
1.64847
1.65466
1.66099
1.66711
1.67329
1.67927
1.68522
1.69093
1.69652
1.70174
1.70675
1.71107
1.71505
1.7178
1.72005
1.72121
1.72114
1.71964
1.71707
1.71706
1.22364
1.22039
1.20538
1.17658
1.1301
1.06386
1.00271
0.971856
0.965161
0.970002
0.987059
1.01226
1.03635
1.05681
1.07409
1.08904
1.1033
1.11774
1.1331
1.14961
1.16724
1.18598
1.20558
1.22612
1.24724
1.26912
1.29125
1.31393
1.33651
1.35946
1.38208
1.40488
1.42714
1.44943
1.47095
1.49225
1.51242
1.53228
1.55044
1.56798
1.58325
1.59719
1.60837
1.61845
1.62668
1.63263
1.63538
1.63615
1.63362
1.6262
1.61513
1.60304
1.59119
1.58119
1.57365
1.56888
1.56656
1.56612
1.5669
1.56777
1.56934
1.57159
1.57499
1.57852
1.58272
1.58682
1.59158
1.59626
1.60154
1.6067
1.61235
1.61784
1.6237
1.62941
1.63541
1.64127
1.64739
1.65335
1.65952
1.66554
1.67167
1.67766
1.68367
1.68953
1.69534
1.70099
1.7065
1.71173
1.71682
1.72127
1.72552
1.72872
1.73121
1.7327
1.73313
1.73224
1.7298
1.72635
1.71979
1.71727
1.22585
1.20704
1.17245
1.11634
1.04374
0.98353
0.955581
0.951357
0.957787
0.977913
1.00605
1.03092
1.05151
1.06833
1.08296
1.09651
1.11008
1.12431
1.13947
1.15575
1.17297
1.1912
1.21022
1.23012
1.2506
1.27183
1.29337
1.31547
1.33768
1.36023
1.38274
1.40535
1.42785
1.45018
1.4723
1.49393
1.51531
1.53591
1.55588
1.57469
1.59229
1.60861
1.62294
1.63558
1.64605
1.65574
1.66284
1.66764
1.66888
1.66836
1.66356
1.65438
1.64248
1.62971
1.61819
1.60862
1.6021
1.59822
1.59694
1.59714
1.59795
1.59917
1.60158
1.6047
1.60859
1.61244
1.61692
1.62133
1.62629
1.63116
1.63646
1.64167
1.64724
1.65271
1.65848
1.66417
1.67006
1.67595
1.68189
1.6879
1.69377
1.69978
1.70546
1.71132
1.71669
1.7222
1.72711
1.73203
1.73619
1.74004
1.74279
1.74479
1.74555
1.74535
1.74336
1.74071
1.73572
1.72788
1.71431
1.70719
1.21638
1.16974
1.09759
1.01833
0.961226
0.937579
0.937141
0.948105
0.971773
1.00098
1.02708
1.04813
1.06506
1.07965
1.09297
1.10617
1.11955
1.13377
1.1488
1.16476
1.1816
1.19915
1.21762
1.23672
1.25664
1.27707
1.29816
1.31953
1.34147
1.36339
1.38577
1.40802
1.43056
1.45278
1.47513
1.49708
1.51878
1.5397
1.56021
1.57951
1.59855
1.61579
1.63265
1.64727
1.66083
1.67188
1.68232
1.69041
1.69646
1.69865
1.69894
1.69661
1.68966
1.67881
1.66634
1.65356
1.64268
1.6342
1.62895
1.62627
1.62594
1.62649
1.62764
1.62955
1.63267
1.63621
1.64028
1.64449
1.64902
1.65367
1.65862
1.66366
1.66899
1.67432
1.67993
1.68547
1.69123
1.69691
1.7027
1.70845