/*--------------------------------*- C++ -*----------------------------------*\
| =========                 |                                                 |
| \\      /  F ield         | OpenFOAM: The Open Source CFD Toolbox           |
|  \\    /   O peration     | Version:  2112                                  |
|   \\  /    A nd           | Website:  www.openfoam.com                      |
|    \\/     M anipulation  |                                                 |
\*---------------------------------------------------------------------------*/
FoamFile
{
    version     2.0;
    format      ascii;
    arch        "LSB;label=32;scalar=64";
    class       volScalarField;
    location    "7.5";
    object      p;
}
// * * * * * * * * * * * * * * * * * * * * * * * * * * * * * * * * * * * * * //

dimensions      [1 -1 -2 0 0 0 0];

internalField   nonuniform List<scalar> 
5250
(
1.00001
1.00005
1.00011
1.00032
1.00067
1.00192
1.00378
1.01169
1.02069
1.07581
1.12633
1.49366
2.07011
4.44432
9.9667
11.0914
10.9757
10.9559
11.0458
11.2663
11.4734
11.6029
11.7038
11.7829
11.8422
1.00001
1.00004
1.00011
1.00032
1.00066
1.00189
1.00372
1.01152
1.02035
1.0748
1.12419
1.48817
2.05142
4.40258
9.87107
11.0881
10.9724
10.9492
11.0391
11.2593
11.4653
11.5951
11.6972
11.7777
11.8383
1.00001
1.00004
1.0001
1.00031
1.00064
1.00183
1.0036
1.01118
1.01966
1.07271
1.11973
1.47648
2.01193
4.31121
9.65492
11.0822
10.9621
10.9248
11.0121
11.2279
11.4303
11.5581
11.6595
11.7392
11.8003
1.00001
1.00004
1.0001
1.00029
1.00061
1.00175
1.00343
1.01068
1.01872
1.06946
1.11378
1.4554
1.95418
4.16482
9.30672
11.0854
10.952
10.8842
10.9656
11.1723
11.3696
11.4932
11.5915
11.6692
11.7312
1.00001
1.00004
1.00009
1.00028
1.00057
1.00165
1.00323
1.01005
1.01762
1.06534
1.10678
1.4268
1.8882
3.95604
8.81928
11.1027
10.9448
10.8287
10.9019
11.0957
11.2859
11.4027
11.4955
11.5696
11.6334
1.00001
1.00004
1.00009
1.00026
1.00053
1.00153
1.003
1.0093
1.01632
1.06035
1.09844
1.39158
1.8106
3.68974
8.17966
11.1452
10.9434
10.7576
10.8205
10.9967
11.1766
11.2829
11.3657
11.4326
11.4971
1
1.00003
1.00008
1.00024
1.00049
1.0014
1.00277
1.00842
1.01513
1.05408
1.08938
1.34961
1.71836
3.37544
7.37777
11.2132
10.9465
10.6715
10.7209
10.8726
11.0372
11.1266
11.1908
11.2407
11.2999
1
1.00003
1.00007
1.00021
1.00044
1.00126
1.00252
1.00744
1.01387
1.04704
1.07964
1.30342
1.61777
3.03349
6.45602
11.2762
10.9504
10.5785
10.6076
10.7208
10.8641
10.9275
10.961
10.9753
11.0093
1
1.00003
1.00006
1.00019
1.00039
1.0011
1.00224
1.00644
1.01247
1.03979
1.06941
1.25639
1.50827
2.68365
5.42566
11.2181
10.916
10.4874
10.4769
10.539
10.6511
10.6741
10.6579
10.5967
10.5431
1
1.00002
1.00006
1.00016
1.00034
1.00096
1.00194
1.0056
1.01091
1.03441
1.06086
1.22205
1.42829
2.47991
4.79439
10.7899
10.7115
10.4124
10.3003
10.3302
10.3875
10.3652
10.2704
10.0511
9.72271
1
1.00002
1.00005
1.00011
1.00033
1.00065
1.00195
1.00356
1.01216
1.02027
1.07688
1.12948
1.50163
2.10975
4.44143
9.8334
10.4221
10.2707
10.1018
10.0975
10.084
10.001
9.75867
9.19369
7.77468
1
1.00002
1.00004
1.00012
1.00026
1.00073
1.00148
1.00428
1.00834
1.02617
1.04633
1.16926
1.30352
2.14915
3.72963
8.7524
10.2613
10.152
9.92889
9.85855
9.78424
9.61254
9.23674
8.4821
7.04468
1
1.00002
1.00004
1.00011
1.00022
1.00063
1.00128
1.00365
1.00718
1.02212
1.0395
1.14325
1.25181
1.96392
3.22874
7.51971
10.1625
10.0503
9.78115
9.62165
9.49185
9.24324
8.78388
8.02851
6.89984
1
1.00001
1.00003
1.00009
1.00019
1.00054
1.00111
1.00313
1.00632
1.01837
1.03543
1.11504
1.21313
1.76327
2.77121
6.20858
10.0749
9.96
9.65041
9.39596
9.20715
8.92161
8.45164
7.76476
6.8747
1
1.00001
1.00003
1.00008
1.00016
1.00045
1.00092
1.00257
1.0052
1.01491
1.0295
1.0898
1.17701
1.57716
2.34483
4.87547
9.81486
9.78927
9.54229
9.19634
8.95354
8.65157
8.20734
7.59423
6.8466
1
1.00001
1.00002
1.00006
1.00013
1.00036
1.00073
1.00206
1.00415
1.01192
1.02324
1.07312
1.1343
1.46821
2.05769
4.17979
9.00724
9.50981
9.35268
9.01805
8.73613
8.42678
8.01224
7.4641
6.81543
1
1.00001
1.00002
1.00005
1.0001
1.00028
1.00057
1.0016
1.00317
1.00948
1.01712
1.05998
1.09971
1.38415
1.78548
3.5569
7.51336
9.21391
9.13299
8.89026
8.56305
8.24182
7.84879
7.35457
6.78029
1
1.00001
1.00001
1.00004
1.00008
1.00022
1.00045
1.00127
1.00255
1.00738
1.01406
1.04582
1.07884
1.29338
1.59069
2.92257
5.94648
9.02333
8.99813
8.81152
8.43628
8.09093
7.71427
7.26281
6.74801
1
1
1.00001
1.00003
1.00006
1.00017
1.00035
1.00097
1.00196
1.00555
1.01097
1.03323
1.06097
1.20728
1.41572
2.32054
4.27026
8.62847
8.89906
8.73672
8.36906
7.97513
7.60043
7.18364
6.71833
1
1
1.00001
1.00002
1.00005
1.00011
1.0003
1.00061
1.00172
1.0034
1.01022
1.01849
1.06403
1.1098
1.40182
1.85939
3.61337
7.51082
8.67849
8.57885
8.29391
7.87969
7.50156
7.1103
6.68696
1
1
1.00001
1.00001
1.00004
1.00008
1.00023
1.00047
1.00131
1.00265
1.00759
1.01466
1.04662
1.08195
1.29645
1.60215
2.91244
5.83118
8.40188
8.3857
8.21164
7.82921
7.42512
7.04894
6.65674
1
1
1
1.00001
1.00003
1.00007
1.00014
1.0004
1.00082
1.0023
1.00463
1.01334
1.02631
1.07978
1.15887
1.49854
2.15034
4.12599
7.9085
8.26753
8.1327
7.80048
7.37115
6.99716
6.6326
1
1
1
1.00001
1.00002
1.00004
1.00012
1.00024
1.00067
1.00134
1.00387
1.00726
1.0236
1.04052
1.14739
1.26125
1.96021
3.17069
6.78539
8.05744
7.98829
7.76216
7.34385
6.96153
6.6115
1
1
1
1.00001
1.00001
1.00004
1.00007
1.0002
1.00041
1.00114
1.00223
1.00677
1.01199
1.04236
1.06975
1.26141
1.51492
2.63947
5.04524
7.68708
7.80809
7.68097
7.35692
6.95944
6.60473
1
1
1
1
1.00001
1.00003
1.00005
1.00015
1.0003
1.00083
1.00169
1.00472
1.00949
1.02744
1.0526
1.16742
1.32932
2.05479
3.4593
6.93405
7.66477
7.58453
7.35069
6.97003
6.60943
1
1
1
1
1.00001
1.00002
1.00004
1.0001
1.00021
1.00057
1.00115
1.00322
1.00637
1.01892
1.03446
1.11829
1.20894
1.74522
2.6382
5.41307
7.39126
7.42494
7.31456
7.01901
6.62766
1
1
1
1
1.00001
1.00001
1.00003
1.00006
1.00016
1.00033
1.00091
1.00183
1.00513
1.01016
1.02998
1.05606
1.18066
1.36424
2.09295
3.56251
6.82613
7.33612
7.26241
7.05249
6.6724
1
1
1
1
1
1.00001
1.00002
1.00004
1.00011
1.00022
1.00061
1.00124
1.00344
1.00677
1.02013
1.0363
1.12505
1.21797
1.78648
2.70781
5.50968
7.11684
7.1428
7.03801
6.77013
1
1
1
1
1
1
1.00001
1.00003
1.00007
1.00015
1.00041
1.00083
1.0023
1.00464
1.01305
1.02586
1.07644
1.15194
1.46507
2.04307
3.71954
6.60237
7.04784
6.9915
6.81615
1
1
1
1
1
1
1.00001
1.00002
1.00004
1.00011
1.00023
1.00062
1.00125
1.00348
1.00679
1.02051
1.03652
1.12615
1.22252
1.78598
2.71542
5.43781
6.83049
6.88557
6.8035
1
1
1
1
1
1
1
1.00001
1.00003
1.00007
1.00015
1.00041
1.00084
1.00231
1.00467
1.01306
1.02588
1.07594
1.15053
1.45689
2.02136
3.62062
6.31592
6.79834
6.76878
1
1
1
1
1
1
1
1.00001
1.00002
1.00005
1.0001
1.00026
1.00054
1.00147
1.00298
1.00829
1.01648
1.04796
1.0933
1.28598
1.62846
2.72854
5.12777
6.57382
6.74015
1
1
1
1
1
1
1
1
1.00001
1.00003
1.00007
1.00014
1.00039
1.00079
1.00217
1.00437
1.01224
1.02419
1.07071
1.14133
1.41901
1.93533
3.36903
6.04229
6.6742
1
1
1
1
1
1
1
1
1.00001
1.00002
1.00004
1.0001
1.00021
1.00057
1.00116
1.00321
1.00629
1.01867
1.03351
1.11359
1.199
1.69338
2.48117
4.82439
6.45385
1
1
1
1
1
1
1
1
1
1.00001
1.00002
1.00007
1.00014
1.00037
1.00075
1.00206
1.00416
1.01151
1.02312
1.06538
1.13502
1.38569
1.86677
3.20765
5.8637
1
1
1
1
1
1
1
1
1
1.00001
1.00002
1.00004
1.00009
1.00024
1.00048
1.00132
1.00267
1.00735
1.01473
1.04197
1.08256
1.2483
1.53561
2.49817
4.5804
1
1
1
1
1
1
1
1
1
1
1.00001
1.00002
1.00007
1.00014
1.00038
1.00076
1.0021
1.00424
1.01186
1.02351
1.06881
1.13657
1.4138
1.93328
3.51915
1
1
1
1
1
1
1
1
1
1
1.00001
1.00002
1.00005
1.0001
1.00028
1.00057
1.00157
1.00317
1.00892
1.01704
1.05423
1.09315
1.3401
1.68323
3.19914
1
1
1
1
1
1
1
1
1
1
1.00001
1.00002
1.00004
1.0001
1.00021
1.00057
1.00117
1.00328
1.0066
1.01921
1.03713
1.11924
1.22673
1.79164
2.87978
1
1
1
1
1
1
1
1
1
1
1.00001
1.00002
1.00003
1.00009
1.00019
1.00053
1.00108
1.00306
1.00616
1.01799
1.03532
1.11208
1.2169
1.76019
2.8308
1
1
1
1
1
1
1
1
1
1
1.00001
1.00001
1.00003
1.00009
1.00017
1.0005
1.00101
1.00289
1.00581
1.01724
1.03296
1.10983
1.20563
1.74547
2.78701
1
1
1
1
1
1
1
1
1
1
1.00001
1.00001
1.00003
1.00007
1.00019
1.00038
1.0011
1.00216
1.00663
1.01179
1.04271
1.07027
1.2753
1.55869
2.86077
1
1
1
1
1
1
1
1
1
1
1.00001
1.00001
1.00003
1.00007
1.00019
1.00039
1.00111
1.00224
1.00649
1.01262
1.04041
1.07152
1.26355
1.53988
2.78929
1
1
1
1
1
1
1
1
1
1
1.00001
1.00001
1.00003
1.00006
1.00018
1.00037
1.00105
1.00208
1.00629
1.01144
1.04021
1.06697
1.25986
1.52042
2.74475
1
1
1
1
1
1
1
1
1
1
1
1.00001
1.00003
1.00008
1.00016
1.00046
1.00093
1.00266
1.00535
1.01584
1.03041
1.10035
1.1873
1.67041
2.5818
1
1
1
1
1
1
1
1
1
1
1
1.00001
1.00003
1.00008
1.00016
1.00045
1.00093
1.00264
1.00533
1.01559
1.03064
1.0972
1.18611
1.65057
2.5416
1
1
1
1
1
1
1
1
1
1
1
1.00001
1.00003
1.00008
1.00016
1.00045
1.00091
1.0026
1.00524
1.01546
1.02978
1.09757
1.18191
1.64997
2.52914
1
1
1
1
1
1
1
1
1
1
1.00001
1.00001
1.00003
1.00006
1.00017
1.00034
1.00099
1.00191
1.00605
1.01043
1.03884
1.06295
1.24753
1.48732
2.65106
1
1
1
1
1
1
1
1
1
1
1
1.00001
1.00003
1.00008
1.00016
1.00044
1.0009
1.00257
1.00518
1.01527
1.02931
1.09641
1.17896
1.63976
2.50144
1
1
1
1
1
1
1
1
1
1
1
1.00001
1.00003
1.00008
1.00016
1.00045
1.00091
1.00259
1.00523
1.01525
1.02998
1.09469
1.18062
1.63014
2.48598
3.80241
3.02019
3.92907
4.26883
3.94511
3.82659
3.75782
3.69403
3.59894
3.49886
3.41005
3.33023
3.25001
3.17088
3.09111
3.01137
2.9664
2.94774
2.94281
2.95022
2.99314
3.073
3.18316
3.31244
3.4496
3.58748
3.7219
3.85165
3.97355
4.08752
4.19375
4.29292
4.38535
4.4714
4.55322
4.62732
4.69309
4.75154
4.80298
4.84788
4.88503
4.9215
4.95027
4.97127
4.98546
4.99437
4.99794
4.99732
4.99351
4.98448
4.96994
4.95262
4.93261
4.90994
4.88457
4.8569
4.82698
4.79513
4.76141
4.72608
4.68922
4.65101
4.61156
4.571
4.5294
4.48691
4.44356
4.39947
4.35467
4.30924
4.26322
4.21667
4.16964
4.12216
4.07429
4.02606
3.97754
3.92874
3.87976
3.83062
3.78141
3.73217
3.68299
3.63391
3.58501
3.53635
3.48798
3.43998
3.39241
3.34539
3.29897
3.25332
3.20854
3.16495
3.12277
3.0825
3.04487
3.01101
2.98239
2.96197
4.63874
3.97819
4.22307
4.15761
3.93516
3.8316
3.80018
3.72825
3.60439
3.48696
3.39347
3.32121
3.24333
3.16399
3.08885
3.01977
2.96812
2.94381
2.93631
2.94159
2.98356
3.06257
3.17307
3.30366
3.44215
3.5809
3.71521
3.84499
3.96688
4.08061
4.18623
4.28469
4.37644
4.46003
4.54329
4.61746
4.68402
4.74299
4.79473
4.83989
4.87875
4.91353
4.94222
4.96382
4.97866
4.98785
4.99167
4.99127
4.98839
4.98056
4.96527
4.94757
4.92775
4.90544
4.88043
4.85296
4.82324
4.79152
4.75799
4.72279
4.68609
4.648
4.60869
4.56823
4.52676
4.48434
4.4411
4.39707
4.35235
4.30698
4.26103
4.21453
4.16755
4.12012
4.07228
4.02409
3.97559
3.92684
3.87788
3.82878
3.7796
3.73041
3.68127
3.63226
3.5834
3.53481
3.48649
3.43857
3.39103
3.34405
3.29766
3.25201
3.20717
3.16356
3.12135
3.08105
3.04322
3.00902
2.97987
2.95871
5.40815
4.56885
4.36844
4.17893
3.96244
3.83905
3.76518
3.68698
3.58635
3.48155
3.39731
3.3288
3.24424
3.15738
3.07718
3.00948
2.95922
2.9342
2.92584
2.9339
2.97199
3.04536
3.15378
3.2856
3.42468
3.56371
3.69572
3.83019
3.95181
4.06612
4.17251
4.27187
4.36455
4.45073
4.53331
4.60774
4.67435
4.73363
4.7858
4.83133
4.87059
4.90478
4.93312
4.95487
4.97009
4.97943
4.98339
4.98304
4.98076
4.9742
4.96025
4.94136
4.9211
4.89893
4.87432
4.84713
4.81767
4.78613
4.75278
4.71775
4.68121
4.64328
4.60411
4.56377
4.52242
4.48012
4.43697
4.39302
4.34837
4.30305
4.25715
4.21069
4.16374
4.11633
4.06853
4.02035
3.97188
3.92313
3.87421
3.82513
3.776
3.72685
3.67779
3.62883
3.58008
3.53155
3.48334
3.43551
3.3881
3.34119
3.29498
3.24949
3.20492
3.1612
3.11885
3.07823
3.04005
3.00522
2.97526
2.9531
5.76927
4.93148
4.49801
4.23735
4.02598
3.87069
3.77477
3.68628
3.58035
3.47317
3.38549
3.31024
3.22984
3.1458
3.06905
3.00513
2.96108
2.93467
2.91804
2.91902
2.95726
3.03179
3.13915
3.26902
3.40732
3.54675
3.68185
3.81317
3.93579
4.05036
4.15732
4.25707
4.35006
4.43626
4.51733
4.5914
4.65824
4.71757
4.77
4.81561
4.85513
4.88888
4.91698
4.93883
4.95453
4.96426
4.96849
4.96823
4.96647
4.96127
4.94966
4.93031
4.90941
4.88719
4.86297
4.83633
4.80738
4.77628
4.74332
4.70864
4.67245
4.63482
4.59595
4.55588
4.51479
4.4727
4.42975
4.38599
4.34151
4.29637
4.25059
4.20426
4.15741
4.11011
4.06237
4.01427
3.96585
3.91718
3.86831
3.81932
3.77028
3.72128
3.67235
3.62358
3.57502
3.52666
3.47864
3.43102
3.3839
3.33728
3.29116
3.2457
3.20107
3.15739
3.11495
3.07411
3.03548
2.99996
2.96898
2.94528
5.95626
5.18583
4.67387
4.35238
4.1205
3.93934
3.80761
3.70087
3.59033
3.48339
3.39263
3.31181
3.22876
3.14669
3.07301
3.0125
2.96939
2.94246
2.93242
2.93933
2.97072
3.04131
3.1427
3.26207
3.38986
3.52412
3.65743
3.78734
3.9105
4.026
4.13386
4.23447
4.32816
4.41503
4.49577
4.5698
4.63676
4.6963
4.74898
4.79484
4.83458
4.8683
4.89639
4.91852
4.93474
4.94506
4.94991
4.94976
4.94849
4.94454
4.93538
4.91709
4.8958
4.87321
4.84908
4.82294
4.79455
4.76404
4.73154
4.69732
4.66147
4.62424
4.58566
4.54592
4.50506
4.46324
4.42049
4.37696
4.33262
4.28763
4.24199
4.19581
4.14906
4.10186
4.0542
4.00619
3.95784
3.90926
3.86048
3.81162
3.76271
3.71391
3.66517
3.6166
3.56826
3.5203
3.47263
3.42532
3.37842
3.33199
3.28607
3.24077
3.19624
3.15261
3.11012
3.06909
3.03003
2.9938
2.96181
2.93646
6.06935
5.37937
4.85422
4.48678
4.22583
4.0245
3.86931
3.73934
3.62116
3.51184
3.41302
3.32435
3.24089
3.16474
3.09983
3.04895
3.01458
2.99855
2.99942
3.00809
3.03555
3.09462
3.1771
3.27162
3.37822
3.49188
3.61676
3.74703
3.87341
3.99216
4.10194
4.20369
4.29788
4.38486
4.46526
4.53909
4.60621
4.66635
4.71948
4.76579
4.8058
4.83983
4.86825
4.89088
4.90784
4.91904
4.92478
4.92483
4.92397
4.92097
4.91372
4.89868
4.87767
4.85488
4.83082
4.80509
4.77735
4.74754
4.71573
4.6821
4.64682
4.61005
4.57192
4.53257
4.49208
4.4506
4.40816
4.3649
4.32083
4.27609
4.23065
4.18465
4.13805
4.09099
4.04344
3.99553
3.94729
3.8988
3.85018
3.80151
3.7528
3.70425
3.65592
3.60785
3.55997
3.51237
3.46502
3.41801
3.37134
3.32513
3.27942
3.23432
3.18992
3.14638
3.10385
3.06268
3.02327
2.98641
2.95353
2.92664
6.1412
5.5262
5.01519
4.62618
4.3351
4.11546
3.93926
3.79651
3.67167
3.55758
3.45352
3.35778
3.27569
3.20923
3.15817
3.12477
3.10756
3.10885
3.11761
3.14008
3.17775
3.21483
3.25809
3.31138
3.37677
3.45356
3.55321
3.67871
3.81136
3.93939
4.05642
4.16233
4.25808
4.34552
4.42585
4.49963
4.56708
4.62801
4.68218
4.72963
4.77075
4.80566
4.83488
4.85826
4.87621
4.8885
4.8954
4.89645
4.89581
4.89352
4.88788
4.87599
4.85661
4.83437
4.81048
4.78501
4.75777
4.72861
4.69749
4.66452
4.62983
4.5936
4.55594
4.51703
4.47693
4.43581
4.3937
4.35075
4.30695
4.26246
4.21724
4.17144
4.12501
4.07809
4.03066
3.98286
3.93475
3.88638
3.83798
3.78968
3.74156
3.69354
3.64566
3.59796
3.55043
3.50312
3.45606
3.40932
3.36294
3.31701
3.27158
3.22673
3.18255
3.13916
3.09672
3.0555
3.01588
2.97852
2.94494
2.91675
6.18766
5.6369
5.15297
4.75845
4.44978
4.20837
4.01656
3.86055
3.72717
3.60862
3.5025
3.41035
3.3355
3.28306
3.25258
3.24669
3.25214
3.27321
3.32093
3.36681
3.38896
3.39586
3.39604
3.39702
3.40612
3.43611
3.5008
3.58494
3.70986
3.84904
3.98207
4.10093
4.20538
4.29743
4.37966
4.4537
4.52118
4.58257
4.63765
4.68653
4.72886
4.76524
4.79556
4.82009
4.83911
4.85269
4.86093
4.86338
4.86294
4.86122
4.8569
4.8477
4.83079
4.8099
4.78659
4.76147
4.73465
4.70607
4.67564
4.64338
4.60936
4.57375
4.53666
4.49825
4.45862
4.41792
4.37621
4.33361
4.29015
4.24595
4.201
4.15541
4.10918
4.06239
4.01514
3.96749
3.91959
3.87171
3.82384
3.77601
3.72833
3.68071
3.63322
3.58585
3.53866
3.49169
3.445
3.39862
3.35263
3.30706
3.26199
3.21746
3.17358
3.13044
3.08818
3.04702
3.00732
2.96964
2.93557
2.90637
6.21962
5.72229
5.26755
4.8789
4.5611
4.30558
4.09935
3.92995
3.78966
3.66785
3.56164
3.47625
3.41479
3.38666
3.3886
3.40188
3.44064
3.52544
3.61974
3.65072
3.64686
3.62898
3.58434
3.50863
3.46556
3.46882
3.48878
3.53939
3.61859
3.73437
3.87219
4.00521
4.12617
4.23143
4.32196
4.40029
4.4694
4.53128
4.58689
4.63653
4.67978
4.71756
4.74956
4.77558
4.79609
4.81127
4.82112
4.82549
4.8253
4.8242
4.82114
4.81433
4.80059
4.78153
4.75933
4.73492
4.70867
4.68066
4.65086
4.61931
4.58601
4.5511
4.51464
4.47683
4.43773
4.39752
4.35624
4.31405
4.27094
4.22706
4.18238
4.13701
4.09095
4.04432
3.99723
3.94996
3.90261
3.8553
3.80797
3.76065
3.71336
3.66615
3.61902
3.57206
3.52527
3.47873
3.43246
3.38654
3.34097
3.29584
3.25117
3.20705
3.16353
3.12073
3.07872
3.03775
2.99811
2.9603
2.92595
2.89599
6.23785
5.78579
5.36129
4.98531
4.66608
4.40207
4.18515
4.00649
3.85789
3.73514
3.63442
3.56077
3.52799
3.5315
3.55037
3.60255
3.71763
3.88354
3.97363
3.97125
3.95156
3.89664
3.78064
3.65133
3.56029
3.51964
3.52218
3.53786
3.5798
3.65312
3.7498
3.87286
4.00394
4.12735
4.23566
4.32759
4.40532
4.4717
4.52936
4.57995
4.62434
4.66323
4.69656
4.72426
4.74674
4.76404
4.77591
4.78262
4.78364
4.78304
4.78099
4.77611
4.76595
4.74912
4.72857
4.70532
4.67986
4.6525
4.62333
4.59247
4.55989
4.52573
4.48997
4.45283
4.41432
4.37467
4.33387
4.29212
4.2494
4.20586
4.16143
4.11629
4.07032
4.02404
3.97747
3.93079
3.88401
3.83719
3.79032
3.74344
3.69657
3.64977
3.60308
3.55655
3.51023
3.46416
3.41838
3.37292
3.32785
3.28319
3.23901
3.19535
3.15228
3.10988
3.06826
3.0276
2.98819
2.95044
2.91605
2.88567
6.24675
5.8341
5.43852
5.07893
4.76404
4.49666
4.27294
4.08771
3.93544
3.81316
3.7238
3.67977
3.68288
3.70258
3.75905
3.88543
4.12114
4.29776
4.33074
4.31607
4.26565
4.15059
3.97089
3.81153
3.69231
3.61594
3.58084
3.58202
3.59248
3.62298
3.68454
3.75956
3.86076
3.98522
4.10841
4.21998
4.31569
4.39553
4.46163
4.51682
4.56356
4.60371
4.63829
4.66758
4.69165
4.71102
4.72519
4.73441
4.73816
4.73792
4.73672
4.7335
4.72649
4.71252
4.69409
4.67233
4.64795
4.6214
4.59297
4.56278
4.53093
4.49747
4.46245
4.42598
4.38813
4.34905
4.3088
4.26751
4.2252
4.18195
4.13778
4.09282
4.04745
4.00167
3.95569
3.90954
3.86327
3.81688
3.77047
3.72404
3.67766
3.63133
3.58516
3.53913
3.49334
3.44779
3.40255
3.35763
3.31312
3.269
3.22537
3.18224
3.1397
3.09781
3.05668
3.01646
2.97744
2.93996
2.90577
2.87535
6.25604
5.87306
5.50271
5.16067
4.85458
4.58856
4.36257
4.17487
4.02372
3.90973
3.84568
3.84722
3.86511
3.92127
4.05145
4.31638
4.5913
4.7045
4.69579
4.65598
4.55763
4.36029
4.15844
3.98699
3.85166
3.75209
3.68524
3.64807
3.64064
3.6456
3.66484
3.70771
3.76209
3.84194
3.95298
4.07118
4.18425
4.28438
4.36832
4.43659
4.49174
4.53673
4.57394
4.60505
4.63094
4.65216
4.66834
4.68022
4.68707
4.68844
4.68787
4.68591
4.68122
4.67143
4.65534
4.63539
4.61247
4.5871
4.55961
4.53027
4.49919
4.46651
4.43225
4.39653
4.35939
4.32098
4.28132
4.24054
4.19864
4.15568
4.11183
4.06742
4.02262
3.97747
3.93207
3.88646
3.84069
3.79481
3.7489
3.70298
3.65712
3.61135
3.56572
3.52027
3.47505
3.43008
3.38543
3.34111
3.29718
3.25368
3.21064
3.16813
3.12619
3.08491
3.04437
3.00473
2.96627
2.92931
2.89556
2.86545
6.26026
5.90696
5.56093
5.23451
4.93847
4.67789
4.45459
4.27066
4.12848
4.03675
4.02769
4.04336
4.09792
4.22894
4.5009
4.84426
5.05172
5.06164
5.03614
4.95578
4.78227
4.55204
4.34527
4.17185
4.02949
3.9145
3.82454
3.75771
3.71386
3.68909
3.68999
3.6984
3.72208
3.76109
3.8206
3.91152
4.02049
4.13225
4.23526
4.3239
4.39669
4.45463
4.5002
4.53623
4.5651
4.5885
4.60696
4.62093
4.63045
4.63502
4.63491
4.63396
4.63117
4.62492
4.61227
4.59455
4.57344
4.54955
4.52326
4.49492
4.4647
4.43281
4.39933
4.36436
4.32796
4.29022
4.25119
4.21092
4.1694
4.12688
4.08365
4.03989
3.99571
3.95116
3.90632
3.86126
3.81604
3.77071
3.72535
3.67999
3.63471
3.58951
3.54449
3.49964
3.45504
3.4107
3.3667
3.32303
3.27976
3.23692
3.19457
3.15274
3.1115
3.07093
3.03112
2.99223
2.95454
2.91837
2.88534
2.85604
6.26568
5.93429
5.61001
5.30249
5.01924
4.76829
4.55374
4.38264
4.2626
4.22861
4.24218
4.29327
4.42028
4.68858
5.08188
5.35771
5.42254
5.40248
5.33434
5.18154
4.95032
4.72784
4.53292
4.36483
4.21942
4.09347
3.98558
3.89523
3.82294
3.76863
3.73338
3.71755
3.71988
3.73101
3.75522
3.79783
3.86571
3.96261
4.06664
4.16976
4.26321
4.3419
4.40463
4.45306
4.48999
4.51829
4.54017
4.55653
4.5683
4.57572
4.57784
4.57742
4.57586
4.57197
4.56371
4.54901
4.53017
4.50812
4.48334
4.45623
4.42706
4.39608
4.36345
4.32928
4.29366
4.25665
4.21827
4.17849
4.13753
4.09574
4.05326
4.01021
3.96668
3.92277
3.87856
3.8341
3.7895
3.74477
3.70003
3.65529
3.61064
3.56608
3.52171
3.47752
3.4336
3.38994
3.34664
3.30368
3.26114
3.21904
3.17744
3.1364
3.09596
3.05623
3.0173
2.97936
2.94268
2.90764
2.87569
2.84781
6.27671
5.96139
5.65682
5.36729
5.09972
4.86301
4.66673
4.52057
4.45802
4.46798
4.51333
4.63316
4.89178
5.31705
5.64651
5.75829
5.7444
5.68865
5.55793
5.33131
5.10547
4.90274
4.7223
4.56017
4.41273
4.2785
4.15709
4.04915
3.95543
3.87673
3.81365
3.76779
3.73789
3.72987
3.73341
3.7453
3.7723
3.82205
3.89646
3.99149
4.09216
4.18815
4.27238
4.34136
4.39499
4.43517
4.46468
4.48618
4.501
4.51095
4.51619
4.51646
4.51584
4.51374
4.5088
4.49857
4.48239
4.46254
4.43961
4.41404
4.38615
4.35627
4.32459
4.29132
4.25652
4.22027
4.18249
4.14337
4.10325
4.06228
4.0206
3.9783
3.9355
3.89229
3.84876
3.80497
3.76103
3.71698
3.6729
3.62883
3.58485
3.54097
3.4973
3.45382
3.41062
3.36771
3.32516
3.28298
3.24124
3.19996
3.15921
3.11906
3.07955
3.04082
3.00297
2.96625
2.93091
2.89749
2.86708
2.84145
6.29529
5.99389
5.70697
5.43563
5.18713
4.97268
4.8053
4.71623
4.7225
4.76209
4.87411
5.12171
5.5627
5.92746
6.07464
6.06594
6.02102
5.90999
5.69108
5.46669
5.26257
5.07957
4.91128
4.75356
4.60423
4.46347
4.33183
4.21069
4.1009
4.00357
3.91927
3.84883
3.7932
3.75401
3.72995
3.72998
3.73245
3.74405
3.77271
3.8304
3.91103
4.0046
4.10008
4.18897
4.26507
4.32554
4.37085
4.40322
4.42559
4.43981
4.44839
4.45177
4.45156
4.4505
4.44767
4.44149
4.42909
4.41205
4.39143
4.36779
4.34151
4.31299
4.28247
4.25022
4.21634
4.18083
4.1438
4.1056
4.0664
4.02634
3.98553
3.94408
3.90209
3.85966
3.81688
3.77385
3.73064
3.68732
3.64397
3.60064
3.55739
3.51427
3.47135
3.42865
3.38624
3.34414
3.30241
3.26109
3.22023
3.17988
3.14009
3.10096
3.06256
3.02504
2.98855
2.95341
2.91986
2.88872
2.86053
2.83835
6.33277
6.0354
5.7627
5.51089
5.2882
5.10823
4.99889
5.00193
5.03722
5.14493
5.38796
5.83523
6.21483
6.38151
6.37519
6.33376
6.22759
6.01598
5.80254
5.60642
5.42727
5.25987
5.09904
4.94275
4.79087
4.64453
4.50513
4.37402
4.25232
4.1409
4.04047
3.95182
3.87488
3.81196
3.7627
3.72916
3.71636
3.71096
3.71394
3.72788
3.76097
3.82733
3.90952
4.00236
4.09396
4.17617
4.24415
4.296
4.33303
4.35782
4.37314
4.38117
4.38327
4.38285
4.38133
4.37766
4.3699
4.35614
4.33827
4.31703
4.29279
4.26599
4.23693
4.20591
4.17302
4.13839
4.10234
4.06515
4.02695
3.98788
3.94802
3.9075
3.86641
3.82485
3.78292
3.74072
3.69832
3.65581
3.61325
3.57072
3.52828
3.48596
3.44387
3.402
3.36046
3.31924
3.27844
3.23806
3.19819
3.15888
3.12021
3.08228
3.04521
3.0092
2.97446
2.94141
2.91034
2.8824
2.85755
2.83958
6.396
6.09095
5.83077
5.60336
5.41677
5.29763
5.29963
5.33403
5.44267
5.69046
6.14676
6.52714
6.69492
6.68773
6.64282
6.53034
6.31877
6.11131
5.92553
5.75628
5.59571
5.43786
5.28069
5.12407
4.96975
4.81906
4.67401
4.53552
4.40503
4.28301
4.17043
4.06759
3.97528
3.8938
3.8243
3.76729
3.72418
3.69991
3.68509
3.68001
3.68435
3.70187
3.74155
3.81408
3.89793
3.98876
4.07546
4.15054
4.21014
4.25378
4.28301
4.30089
4.30919
4.31081
4.3102
4.30819
4.30358
4.29414
4.27947
4.26103
4.2393
4.2147
4.18749
4.15801
4.12633
4.09284
4.05794
4.02188
3.98478
3.94678
3.90796
3.86846
3.82835
3.78776
3.74677
3.70548
3.66399
3.62235
3.58069
3.53903
3.49748
3.45606
3.41488
3.37394
3.33336
3.29312
3.25334
3.21403
3.17529
3.13719
3.09983
3.06336
3.02794
2.99389
2.96145
2.93128
2.90366
2.88042
2.8593
2.84579
6.46552
6.15968
5.9146
5.72467
5.60431
5.60613
5.64286
5.76064
6.02807
6.49874
6.877
7.03086
7.01943
6.96193
6.82612
6.61106
6.4041
6.22377
6.06334
5.91158
5.76115
5.60815
5.45262
5.29561
5.13965
4.98606
4.83704
4.69321
4.55624
4.42622
4.30446
4.19078
4.08622
3.99062
3.90512
3.82984
3.76605
3.7153
3.6793
3.65919
3.64093
3.64032
3.6469
3.66846
3.71549
3.79091
3.87631
3.96409
4.04536
4.11337
4.1649
4.20034
4.22188
4.23216
4.23386
4.23314
4.23078
4.22543
4.21464
4.19932
4.18044
4.15844
4.13357
4.10598
4.07591
4.04394
4.01041
3.97561
3.93972
3.90288
3.86522
3.82682
3.78781
3.74828
3.70834
3.66806
3.62758
3.58693
3.54625
3.50556
3.465
3.42457
3.38441
3.3445
3.30498
3.26584
3.22723
3.18914
3.15172
3.11505
3.07929
3.04464
3.01136
2.9799
2.95062
2.92448
2.90207
2.88345
2.86696
2.86066
6.58791
6.26601
6.03295
5.90638
5.91063
5.95649
6.09433
6.39867
6.89232
7.26772
7.39987
7.38086
7.30333
7.13128
6.90279
6.69148
6.5116
6.35523
6.21027
6.06678
5.92024
5.76903
5.61414
5.45711
5.30007
5.14475
4.99277
4.84537
4.7034
4.56768
4.43868
4.31686
4.2027
4.09639
3.99859
3.90946
3.8297
3.7602
3.70225
3.65712
3.62767
3.60451
3.58928
3.59105
3.60161
3.62868
3.68454
3.7602
3.84623
3.93063
4.00544
4.06534
4.10834
4.13523
4.14907
4.15226
4.15155
4.14905
4.14334
4.13181
4.11601
4.0968
4.07453
4.04926
4.02129
3.9912
3.95939
3.9261
3.89162
3.85607
3.81967
3.78248
3.74468
3.70632
3.66754
3.62839
3.58902
3.54947
3.50989
3.47029
3.43083
3.39151
3.35248
3.31374
3.27543
3.23756
3.20027
3.16362
3.12777
3.09286
3.0591
3.02683
2.99642
2.96855
2.9437
2.92379
2.90596
2.8939
2.88604
2.88683
6.65556
6.41426
6.22265
6.22651
6.27933
6.43956
6.79417
7.33194
7.70784
7.81052
7.78091
7.67633
7.45573
7.20524
6.98314
6.79846
6.64136
6.49855
6.35955
6.21793
6.07161
5.92029
5.76528
5.60821
5.45082
5.29472
5.14112
4.99131
4.84588
4.70585
4.57143
4.44337
4.32178
4.20718
4.09956
3.99962
3.9075
3.82397
3.74958
3.68559
3.6326
3.59473
3.56482
3.54186
3.53088
3.53458
3.54913
3.58251
3.64804
3.72429
3.80774
3.88736
3.95506
4.00642
4.04058
4.05961
4.06589
4.06538
4.06311
4.05752
4.04611
4.03001
4.0102
3.98729
3.96185
3.93413
3.90448
3.87307
3.84026
3.8062
3.77121
3.73537
3.6989
3.66183
3.62434
3.58644
3.54832
3.51
3.47164
3.43326
3.39503
3.35696
3.3192
3.28179
3.24485
3.20845
3.17274
3.13781
3.1039
3.0712
3.0401
3.01101
2.98469
2.96182
2.94396
2.92908
2.91829
2.91812
2.92006
2.92719
6.70344
6.60055
6.56619
6.62171
6.80667
7.21798
7.81476
8.19611
8.263
8.21945
8.08156
7.80155
7.52349
7.28615
7.09227
6.92993
6.78503
6.64642
6.50719
6.36415
6.21597
6.06359
5.90815
5.75108
5.59362
5.43715
5.28257
5.13106
4.98313
4.83977
4.70118
4.56816
4.44065
4.31933
4.2042
4.09577
3.99406
3.89973
3.81291
3.73462
3.66533
3.60647
3.55958
3.52483
3.49414
3.47142
3.47117
3.47686
3.49493
3.53455
3.60253
3.68065
3.76129
3.83508
3.89492
3.93758
3.963
3.97482
3.97465
3.97291
3.96812
3.95782
3.941
3.92042
3.89743
3.87228
3.84516
3.81608
3.78533
3.75311
3.71979
3.6855
3.6505
3.61485
3.57875
3.54224
3.50548
3.46852
3.43152
3.39452
3.35766
3.32102
3.28472
3.24884
3.21351
3.17887
3.14505
3.11228
3.08084
3.05108
3.0236
2.99901
2.97867
2.96283
2.95068
2.94499
2.94635
2.95219
2.96704
3.00031
6.79849
6.84284
6.95531
7.21628
7.75
8.36265
8.73576
8.75457
8.69139
8.51067
8.17229
7.86065
7.60428
7.3978
7.22673
7.0759
6.93391
6.79347
6.65071
6.50433
6.35388
6.20028
6.04434
5.88718
5.72969
5.57295
5.41768
5.26487
5.11504
4.969
4.82714
4.68998
4.55787
4.4311
4.30995
4.19464
4.08534
3.9824
3.88599
3.79683
3.7151
3.64166
3.57752
3.52319
3.48246
3.44499
3.4174
3.3996
3.40148
3.4109
3.43478
3.48396
3.55252
3.63061
3.7074
3.77435
3.82564
3.85938
3.87697
3.88027
3.87912
3.87518
3.86632
3.84908
3.82878
3.80605
3.78136
3.75472
3.72636
3.69639
3.66512
3.63269
3.5994
3.56536
3.53081
3.49582
3.46057
3.42512
3.38962
3.35417
3.31887
3.28386
3.24923
3.21517
3.18175
3.14925
3.11781
3.08783
3.05967
3.03401
3.01159
2.99391
2.981
2.97103
2.97123
2.97422
2.98364
3.00543
3.04539
3.12582
6.94055
7.19778
7.65231
8.34657
9.00254
9.3307
9.31414
9.20256
8.93859
8.56335
8.21789
7.93889
7.71751
7.53555
7.37648
7.22838
7.08358
6.9382
6.79057
6.64034
6.48736
6.33239
6.17582
6.01825
5.86054
5.7033
5.54733
5.39323
5.24178
5.09338
4.94875
4.80815
4.67213
4.54082
4.41473
4.29382
4.17855
4.06873
3.96504
3.86716
3.77604
3.69156
3.61469
3.54586
3.48611
3.43756
3.39641
3.36076
3.33425
3.32718
3.33056
3.34298
3.37157
3.42888
3.49836
3.57454
3.6464
3.7057
3.74804
3.7727
3.78212
3.78149
3.77849
3.77115
3.75611
3.73647
3.7139
3.68943
3.66342
3.63594
3.60705
3.57686
3.54558
3.51342
3.48063
3.44733
3.41374
3.37996
3.34615
3.31242
3.27893
3.2458
3.21317
3.18125
3.15022
3.1204
3.09207
3.06585
3.04228
3.02246
3.00786
2.99765
2.99261
2.99407
3.00033
3.01599
3.04845
3.11113
3.17369
3.28829
7.1241
7.91531
8.93935
9.74246
10.0203
9.96992
9.77581
9.37257
8.95868
8.5927
8.29258
8.0542
7.85931
7.68991
7.53331
7.38178
7.23129
7.08004
6.92757
6.77362
6.61857
6.46169
6.30417
6.14595
5.98752
5.82946
5.67239
5.51697
5.36373
5.21325
5.066
4.92235
4.78283
4.64769
4.51737
4.3919
4.27147
4.15617
4.04615
3.94157
3.84265
3.74968
3.66303
3.58314
3.51061
3.44636
3.39184
3.34634
3.30421
3.27202
3.24969
3.25027
3.25581
3.2722
3.30766
3.36904
3.44018
3.51326
3.57867
3.62943
3.66224
3.67939
3.68055
3.67896
3.67386
3.66251
3.64321
3.62102
3.59714
3.57198
3.54548
3.51773
3.48879
3.45886
3.42812
3.39679
3.36509
3.33319
3.30132
3.26956
3.23817
3.20724
3.17705
3.14778
3.11979
3.09348
3.06939
3.04855
3.0314
3.02113
3.01314
3.01353
3.01716
3.02794
3.05179
3.09979
3.16672
3.25982
3.34339
3.4673
7.12435
9.31482
10.5793
10.8319
10.728
10.4084
9.84195
9.3663
8.97643
8.65774
8.40674
8.20014
8.02004
7.85366
7.69312
7.53481
7.37728
7.21997
7.06272
6.90513
6.74734
6.58813
6.42947
6.27012
6.11047
5.95119
5.79273
5.63575
5.4807
5.32815
5.17855
5.03226
4.88979
4.75141
4.61728
4.4877
4.3629
4.24304
4.12804
4.01804
3.9131
3.81347
3.71923
3.63081
3.54843
3.47278
3.40444
3.34445
3.2944
3.24784
3.20785
3.17943
3.16799
3.16987
3.17839
3.19978
3.24392
3.30683
3.37811
3.44708
3.505
3.5467
3.57129
3.57949
3.57868
3.57513
3.56663
3.54947
3.52872
3.50555
3.48103
3.45552
3.42902
3.40158
3.37325
3.34424
3.31477
3.2851
3.25544
3.22603
3.19709
3.16886
3.14164
3.1158
3.09181
3.07035
3.05232
3.03936
3.03204
3.0293
3.03128
3.0389
3.05719
3.09466
3.15468
3.23553
3.32968
3.43791
3.52572
3.63197
6.96057
11.2387
11.8227
11.6223
11.0776
10.3713
9.8027
9.36973
9.02935
8.77023
8.55652
8.3676
8.19126
8.02088
7.85322
7.68731
7.52292
7.3599
7.19797
7.03663