/*--------------------------------*- C++ -*----------------------------------*\
| =========                 |                                                 |
| \\      /  F ield         | OpenFOAM: The Open Source CFD Toolbox           |
|  \\    /   O peration     | Version:  2112                                  |
|   \\  /    A nd           | Website:  www.openfoam.com                      |
|    \\/     M anipulation  |                                                 |
\*---------------------------------------------------------------------------*/
FoamFile
{
    version     2.0;
    format      ascii;
    arch        "LSB;label=32;scalar=64";
    class       surfaceScalarField;
    location    "7.5";
    object      phi;
}
// * * * * * * * * * * * * * * * * * * * * * * * * * * * * * * * * * * * * * //

dimensions      [1 0 -1 0 0 0 0];

oriented        oriented;

internalField   nonuniform List<scalar> 
10325
(
0.00840003
1.01809e-10
0.00840003
7.87454e-10
0.00840002
2.42871e-09
0.00840002
7.30555e-09
0.0084
1.73645e-08
0.00839994
4.57752e-08
0.00839984
1.04527e-07
0.00839952
2.67107e-07
0.00839892
5.97076e-07
0.00839701
1.6295e-06
0.00839304
3.85628e-06
0.00838109
1.09411e-05
0.00834409
3.59084e-05
0.00820778
0.000132617
0.007572
0.000624303
0.00691883
0.000654253
0.00628311
0.000636393
0.00563442
0.00064862
0.00496322
0.000671066
0.00425369
0.00070898
0.00349443
0.000758804
0.00268588
0.000807748
0.00183389
0.00085176
0.000938628
0.00089474
0.000937548
0.00840003
2.0283e-10
0.00840003
1.57243e-09
0.00840002
4.81802e-09
0.00840002
1.45427e-08
0.0084
3.44816e-08
0.00839995
9.13968e-08
0.00839984
2.08795e-07
0.00839952
5.36109e-07
0.0083989
1.20104e-06
0.00839696
3.31319e-06
0.00839284
7.82045e-06
0.00838018
2.25969e-05
0.00834117
7.37826e-05
0.00819846
0.000271587
0.00754487
0.00126608
0.00688287
0.00131754
0.00625806
0.00126197
0.00561742
0.0012892
0.00495133
0.00133705
0.0042377
0.00142216
0.0034756
0.00152055
0.00266592
0.00161677
0.00181035
0.00170733
0.000913252
0.00179147
0.0018498
0.00840003
2.8341e-10
0.00840003
2.19841e-09
0.00840003
6.74226e-09
0.00840002
2.03622e-08
0.0084
4.81856e-08
0.00839996
1.28768e-07
0.00839987
2.89208e-07
0.00839959
7.72224e-07
0.00839911
1.66492e-06
0.00839721
4.94588e-06
0.00839403
1.08479e-05
0.00837893
3.66443e-05
0.0083427
0.000108817
0.00819688
0.000413581
0.00753599
0.00191439
0.00686995
0.00198548
0.0062578
0.00187531
0.00563118
0.00191605
0.00497535
0.00199302
0.0042685
0.00212861
0.00350961
0.00227948
0.00269722
0.00242849
0.00183475
0.00256963
0.000926582
0.00269913
0.00277543
0.00840003
3.43716e-10
0.00840003
2.66651e-09
0.00840003
8.20148e-09
0.00840002
2.47514e-08
0.00840001
5.84726e-08
0.00839997
1.57343e-07
0.00839991
3.47066e-07
0.00839968
9.61667e-07
0.00839932
2.01109e-06
0.00839777
6.20192e-06
0.00839534
1.32218e-05
0.00838278
4.79774e-05
0.00835907
0.0001318
0.00821544
0.000553098
0.00758991
0.00252605
0.00692238
0.00265573
0.00631753
0.00248177
0.00570081
0.00253292
0.00505564
0.00263818
0.00435515
0.00282892
0.00360003
0.00303425
0.00278518
0.0032428
0.001906
0.00345002
0.000968683
0.00363642
0.00374338
0.00840003
3.99683e-10
0.00840003
3.10039e-09
0.00840003
9.4964e-09
0.00840002
2.87249e-08
0.00840001
6.76675e-08
0.00839998
1.83376e-07
0.00839992
4.01777e-07
0.0083997
1.13221e-06
0.00839935
2.35422e-06
0.00839791
7.37178e-06
0.00839531
1.57298e-05
0.00838423
5.78887e-05
0.00835905
0.000155924
0.00823858
0.000668453
0.00768782
0.00306135
0.00701363
0.00333372
0.00641782
0.00307965
0.00581301
0.0031377
0.00518135
0.00326992
0.00449894
0.00351087
0.00374876
0.00378464
0.00293007
0.00406156
0.00202919
0.00435133
0.00104357
0.00462227
0.00478642
0.00840003
4.24025e-10
0.00840003
3.28981e-09
0.00840003
1.01344e-08
0.00840002
3.06186e-08
0.00840002
7.18831e-08
0.0084
1.97962e-07
0.00839998
4.14659e-07
0.00839979
1.28307e-06
0.00839973
2.39641e-06
0.00839804
8.7946e-06
0.00839612
1.75408e-05
0.00838579
6.70105e-05
0.00836035
0.000180209
0.008271
0.00075289
0.00787296
0.00344197
0.00718535
0.00402642
0.00658324
0.00368413
0.00598556
0.00373554
0.00536706
0.00388846
0.00469754
0.00418031
0.00395802
0.0045239
0.00313254
0.00488611
0.00220613
0.00527747
0.00115776
0.00567079
0.00594385
0.00840003
4.64668e-10
0.00840003
3.6004e-09
0.00840003
1.10681e-08
0.00840002
3.34505e-08
0.00840002
7.85196e-08
0.00839999
2.16218e-07
0.00839995
4.52517e-07
0.00839979
1.40534e-06
0.00839961
2.56736e-06
0.00839843
9.70363e-06
0.00839692
1.9002e-05
0.00839031
7.23956e-05
0.00837545
0.000193756
0.00833797
0.000785987
0.00822187
0.00353866
0.00751678
0.00473734
0.00685624
0.00434777
0.0062532
0.00433928
0.00565248
0.00448931
0.00498628
0.00484678
0.00425351
0.0052575
0.00342657
0.00571415
0.0024722
0.00623188
0.00134185
0.00680131
0.00728559
0.00840003
5.03192e-10
0.00840003
3.89659e-09
0.00840003
1.19482e-08
0.00840002
3.60745e-08
0.00840002
8.48263e-08
0.0084
2.30692e-07
0.00839995
4.95006e-07
0.00839985
1.46316e-06
0.00839968
2.73781e-06
0.00839918
9.94777e-06
0.0083988
1.93189e-05
0.00839829
7.16695e-05
0.00839649
0.000194182
0.00842043
0.000757038
0.00879416
0.00314475
0.00808112
0.00545618
0.00728258
0.00514996
0.00665978
0.00496341
0.00605198
0.00509773
0.0053983
0.00550006
0.00466322
0.00599278
0.00382579
0.00655191
0.00285297
0.00720549
0.00163427
0.00802005
0.00891992
0.00840003
4.3329e-10
0.00840003
4.08907e-09
0.00840003
1.23139e-08
0.00840003
3.7486e-08
0.00840002
8.77086e-08
0.00840001
2.35624e-07
0.00839999
5.13125e-07
0.00840001
1.41635e-06
0.00839995
2.77037e-06
0.00840074
8.94894e-06
0.00840419
1.57079e-05
0.00841338
6.13738e-05
0.00845948
0.000145523
0.00868191
0.000537653
0.00976938
0.00202833
0.00899871
0.00623314
0.00793474
0.00621818
0.00730253
0.00559768
0.00659065
0.0058111
0.00593842
0.00615278
0.00521498
0.00671624
0.00441469
0.00735183
0.00346364
0.00815726
0.00216426
0.00932073
0.0110847
0.00840003
1.60621e-10
0.00840003
5.63107e-09
0.00840003
8.08814e-09
0.00840002
4.84104e-08
0.00840005
5.8663e-08
0.00839997
3.07248e-07
0.00840016
3.19947e-07
0.00839964
1.92208e-06
0.00840098
1.41492e-06
0.00839739
1.23919e-05
0.00840707
5.99924e-06
0.0083856
8.21424e-05
0.00846464
6.52336e-05
0.00846807
0.00053237
0.00904714
0.00143653
0.00902394
0.00624845
0.00862114
0.00661784
0.00784245
0.00637762
0.00718045
0.00647374
0.00654211
0.00679164
0.00589041
0.00736806
0.00518485
0.00805731
0.00429617
0.00904576
0.00303202
0.0105851
0.0141171
0.00840003
7.20188e-10
0.00840003
1.16078e-09
0.00840003
1.09108e-08
0.00840007
1.27017e-08
0.00840005
7.68606e-08
0.00840027
7.84943e-08
0.00840009
4.96196e-07
0.00840159
4.08126e-07
0.00839949
3.45403e-06
0.00840962
2.22624e-06
0.00839044
2.48306e-05
0.00845744
1.4877e-05
0.00833457
0.000186773
0.00863361
0.000231448
0.00859305
0.00147154
0.00873416
0.00609118
0.00849734
0.00685393
0.00805224
0.00682353
0.00760642
0.00691987
0.00710515
0.00729287
0.00662766
0.00784514
0.00610497
0.00857964
0.00563345
0.00951718
0.0055677
0.010651
0.0114071
0.00827786
0.00840003
3.94087e-10
0.00840003
2.19121e-09
0.00840003
7.4328e-09
0.00840002
2.08898e-08
0.00840005
5.27382e-08
0.00839999
1.32011e-07
0.00840016
3.2302e-07
0.00839977
7.76579e-07
0.00840123
1.98454e-06
0.00839843
4.90506e-06
0.00841026
1.29853e-05
0.00839013
3.42931e-05
0.00847797
9.87095e-05
0.00834454
0.000362522
0.00872067
0.00109066
0.00887092
0.00592534
0.0085574
0.00716785
0.00820416
0.00717737
0.00788243
0.00724178
0.00753773
0.00763678
0.00719533
0.00818651
0.00690193
0.00887188
0.00676925
0.00964894
0.00712914
0.0102905
0.0104642
0.00807144
0.00840003
2.98876e-10
0.00840003
2.32476e-09
0.00840003
7.19781e-09
0.00840003
2.17028e-08
0.00840003
5.1324e-08
0.00840002
1.36896e-07
0.00840004
3.05641e-07
0.00839997
8.26265e-07
0.00840025
1.69793e-06
0.00839956
5.49798e-06
0.00840289
9.61226e-06
0.00839655
4.00931e-05
0.00841497
7.98882e-05
0.00841598
0.000359639
0.0085112
0.000991989
0.0090757
0.0053453
0.00878713
0.00745798
0.00846413
0.00750119
0.00818
0.00752574
0.00794324
0.00787288
0.00772283
0.00840649
0.0076009
0.00899302
0.00771
0.00953861
0.00812576
0.00987332
0.00985001
0.00873872
0.00840003
3.21279e-10
0.00840003
2.49007e-09
0.00840003
7.61986e-09
0.00840003
2.30158e-08
0.00840002
5.44668e-08
0.00840001
1.45372e-07
0.00839999
3.27151e-07
0.00839994
8.59439e-07
0.00839974
1.89524e-06
0.00839993
5.22555e-06
0.00839872
1.08134e-05
0.00840173
3.65484e-05
0.00840874
7.2742e-05
0.00844807
0.000318463
0.00859093
0.000846733
0.0096688
0.00425097
0.00926735
0.00785952
0.00882383
0.0079446
0.00853349
0.00781593
0.00835376
0.00805215
0.00826117
0.00849868
0.00826592
0.00898809
0.00840133
0.0094023
0.00873412
0.0095387
0.00938601
0.00919606
0.00840003
3.02805e-10
0.00840003
2.35141e-09
0.00840003
7.21918e-09
0.00840003
2.17979e-08
0.00840003
5.16497e-08
0.00840004
1.37676e-07
0.00840005
3.10329e-07
0.00840009
8.09852e-07
0.00840017
1.80692e-06
0.00840061
4.72496e-06
0.00840064
1.07409e-05
0.00840891
2.79253e-05
0.00840924
7.21571e-05
0.00851245
0.000213938
0.00874259
0.00061384
0.0103988
0.00258775
0.00994088
0.00831153
0.00952632
0.00835559
0.00901515
0.0083269
0.00877454
0.00829266
0.00870793
0.00856486
0.00878286
0.00891303
0.00895539
0.00922999
0.00920441
0.00928971
0.00904226
0.00954684
0.00840003
2.67695e-10
0.00840003
2.07876e-09
0.00840003
6.36698e-09
0.00840003
1.92308e-08
0.00840004
4.55794e-08
0.00840005
1.21342e-07
0.00840009
2.74091e-07
0.00840018
7.06033e-07
0.00840036
1.621e-06
0.00840109
3.92906e-06
0.00840206
9.73802e-06
0.00840701
2.26711e-05
0.00842032
5.84751e-05
0.00846918
0.000163511
0.00856696
0.000516372
0.00922478
0.00192356
0.0100317
0.00749015
0.00979435
0.00859145
0.00941637
0.00870407
0.00918271
0.00852619
0.00910744
0.00864034
0.00917049
0.00884902
0.00936405
0.00903521
0.00958925
0.00906263
0.00880285
0.00982787
0.00840003
2.06509e-10
0.00840003
1.59909e-09
0.00840003
4.96737e-09
0.00840004
1.48686e-08
0.00840005
3.52859e-08
0.00840007
9.26791e-08
0.00840014
2.07985e-07
0.0084003
5.4011e-07
0.00840076
1.15617e-06
0.00840137
3.27067e-06
0.0084047
6.38128e-06
0.00840597
2.11096e-05
0.0084228
4.15166e-05
0.00843556
0.000149446
0.00855981
0.000390967
0.00888829
0.00159115
0.00989451
0.00646758
0.00985676
0.00862907
0.00971139
0.00884967
0.00952016
0.0087182
0.00946097
0.00869989
0.00950201
0.00881023
0.00965456
0.00888312
0.00986361
0.00885208
0.00860795
0.0100562
0.00840003
1.70797e-10
0.00840003
1.39475e-09
0.00840003
4.31377e-09
0.00840003
1.28501e-08
0.00840004
3.06575e-08
0.00840005
8.02401e-08
0.00840007
1.81564e-07
0.00840014
4.66729e-07
0.00840026
1.02895e-06
0.00840072
2.77306e-06
0.00840143
5.65515e-06
0.00840425
1.80549e-05
0.00841117
3.45192e-05
0.00842991
0.000129595
0.00849828
0.000321486
0.00875263
0.00133215
0.0104059
0.00479975
0.0102476
0.00878613
0.0100782
0.00901905
0.00984847
0.00894869
0.00979225
0.0087556
0.00983156
0.00876933
0.00993527
0.00877959
0.0100897
0.0086977
0.00846001
0.0102362
0.00840003
6.47525e-11
0.00840003
1.46319e-09
0.00840003
2.70986e-09
0.00840003
1.27852e-08
0.00840004
1.99498e-08
0.00840004
7.9359e-08
0.0084001
1.19337e-07
0.0084001
4.6236e-07
0.00840046
6.74019e-07
0.00840047
2.73987e-06
0.00840259
3.50943e-06
0.00840281
1.7679e-05
0.00841981
1.74231e-05
0.00842989
0.00011888
0.00858796
0.000161501
0.00907767
0.000841415
0.0111781
0.00268298
0.0110911
0.0088656
0.0107755
0.00933579
0.0104107
0.00931541
0.0101832
0.0089857
0.0101418
0.00880977
0.0102047
0.00871513
0.0103149
0.00858662
0.00834881
0.0104251
0.00840003
1.31136e-10
0.00840003
7.57972e-10
0.00840003
2.79918e-09
0.00840004
7.2283e-09
0.00840004
1.97787e-08
0.00840007
4.52748e-08
0.00840007
1.16953e-07
0.00840027
2.60574e-07
0.00840026
6.76006e-07
0.00840153
1.45669e-06
0.00840091
4.06987e-06
0.00841027
8.26458e-06
0.00840189
2.54868e-05
0.00846578
5.45387e-05
0.00844355
0.000182325
0.00878041
0.000502429
0.00942323
0.00203452
0.0109956
0.0072749
0.0110286
0.00930256
0.0108296
0.00951517
0.010564
0.0092536
0.0104566
0.00891814
0.0104432
0.00872742
0.0104945
0.00853455
0.0082686
0.0105735
0.00840003
1.62894e-10
0.00840003
4.74998e-10
0.00840003
2.77453e-09
0.00840003
4.85455e-09
0.00840003
1.92028e-08
0.00840005
3.08565e-08
0.00840005
1.135e-07
0.00840013
1.77896e-07
0.00840015
6.52682e-07
0.0084006
9.94497e-07
0.00840079
3.84619e-06
0.00840367
5.36751e-06
0.0084041
2.47772e-05
0.00842731
3.12718e-05
0.0084361
0.000172239
0.0086174
0.000319864
0.0092306
0.00141745
0.011066
0.0054188
0.0112163
0.00915141
0.0111859
0.00954596
0.01098
0.00946096
0.0108105
0.00909102
0.0107433
0.00879512
0.0107176
0.00855948
0.00825878
0.0107259
0.00840003
5.80912e-11
0.00840003
6.38985e-10
0.00840003
1.46285e-09
0.00840003
5.76435e-09
0.00840004
1.05891e-08
0.00840003
3.61305e-08
0.00840008
6.3662e-08
0.00840005
2.11157e-07
0.00840033
3.67306e-07
0.00840009
1.22606e-06
0.00840184
2.08336e-06
0.00839986
7.26855e-06
0.00841271
1.18732e-05
0.00839896
4.46016e-05
0.00849522
7.56798e-05
0.00848847
0.000325079
0.00918393
0.000718243
0.0117407
0.0028564
0.0118088
0.0090711
0.0116284
0.00972426
0.0113532
0.00973533
0.011107
0.00933953
0.0110098
0.00889469
0.0109755
0.00859514
0.00829476
0.0109388
0.00840003
8.09236e-11
0.00840003
2.82323e-10
0.00840003
1.48105e-09
0.00840003
2.8322e-09
0.00840003
1.03432e-08
0.00840005
1.80467e-08
0.00840005
6.13867e-08
0.00840016
1.04907e-07
0.00840017
3.5438e-07
0.0084008
5.89542e-07
0.00840074
2.11244e-06
0.00840482
3.15085e-06
0.00840312
1.34311e-05
0.00843028
1.72983e-05
0.00841686
8.82589e-05
0.00861583
0.000125385
0.00864558
0.000685524
0.00975794
0.00173699
0.0118318
0.00697728
0.0119319
0.00962294
0.0117466
0.00991807
0.0113967
0.00968978
0.0112422
0.00905066
0.0111737
0.00866542
0.00833229
0.0111372
0.00840003
3.98313e-11
0.00840003
2.62439e-10
0.00840003
8.34257e-10
0.00840003
2.46344e-09
0.00840004
5.91271e-09
0.00840004
1.53867e-08
0.00840006
3.48433e-08
0.00840008
8.83639e-08
0.00840024
1.97143e-07
0.00840031
5.06264e-07
0.00840132
1.09788e-06
0.00840136
3.05939e-06
0.00840857
6.22274e-06
0.0084058
1.97549e-05
0.00845354
4.0471e-05
0.0084411
0.000136412
0.00877637
0.000348569
0.00914984
0.00135943
0.0116776
0.0044277
0.0120941
0.00920204
0.0121544
0.00985938
0.0119773
0.00986754
0.0115779
0.00945054
0.0114097
0.00883435
0.0084219
0.0113214
0.00840003
2.68989e-11
0.00840003
2.13448e-10
0.00840003
6.60611e-10
0.00840003
1.97e-09
0.00840003
4.7019e-09
0.00840003
1.23233e-08
0.00840004
2.79507e-08
0.00840006
7.13858e-08
0.00840009
1.59968e-07
0.00840019
4.07455e-07
0.00840037
9.07455e-07
0.00840108
2.32675e-06
0.00840207
5.20096e-06
0.008408
1.36569e-05
0.00841705
3.12318e-05
0.00846551
8.71365e-05
0.00858689
0.000225907
0.00918064
0.000762325
0.0112612
0.00233755
0.0124216
0.00802705
0.0124118
0.00986893
0.0122536
0.0100258
0.0119144
0.00979089
0.0117303
0.00901725
0.00858138
0.0115704
0.00840003
1.19298e-11
0.00840003
1.89125e-10
0.00840003
4.04892e-10
0.00840003
1.67223e-09
0.00840003
2.9548e-09
0.00840003
1.0344e-08
0.00840004
1.7666e-08
0.00840006
5.95971e-08
0.00840011
1.01049e-07
0.00840018
3.38963e-07
0.00840052
5.70838e-07
0.00840089
1.94402e-06
0.00840292
3.15558e-06
0.00840468
1.17685e-05
0.00841925
1.67627e-05
0.00842687
7.85595e-05
0.00853971
0.000113286
0.00871567
0.000583701
0.00950422
0.00154437
0.0121219
0.00538871
0.0124801
0.00950526
0.0125356
0.00997101
0.0124387
0.00988858
0.0120382
0.00941832
0.00879211
0.0118258
0.00840003
1.62526e-11
0.00840003
9.80615e-11
0.00840003
3.59499e-10
0.00840003
9.31451e-10
0.00840003
2.54492e-09
0.00840004
5.84169e-09
0.00840004
1.50603e-08
0.00840006
3.36715e-08
0.00840008
8.57342e-08
0.00840023
1.90351e-07
0.00840031
4.84194e-07
0.00840118
1.07418e-06
0.00840155
2.74158e-06
0.00840711
6.15682e-06
0.00840779
1.58768e-05
0.0084479
3.7008e-05
0.00846293
9.93906e-05
0.00876912
0.000270505
0.0094727
0.0008483
0.0121697
0.00267324
0.0130056
0.00866135
0.0129328
0.0100414
0.0127284
0.0100921
0.0123773
0.00977045
0.00903982
0.0121285
0.00840003
1.26788e-11
0.00840003
6.85894e-11
0.00840003
2.52203e-10
0.00840003
6.53364e-10
0.00840003
1.76898e-09
0.00840003
4.08512e-09
0.00840004
1.03915e-08
0.00840005
2.33887e-08
0.00840007
5.86607e-08
0.00840013
1.30949e-07
0.00840028
3.28102e-07
0.00840063
7.27745e-07
0.00840149
1.85265e-06
0.00840365
3.96846e-06
0.00840833
1.10587e-05
0.00842362
2.15618e-05
0.00844935
7.28756e-05
0.00857421
0.000144661
0.00882417
0.000595166
0.00988841
0.00160206
0.0125458
0.00598317
0.0129499
0.00963212
0.0130946
0.00994522
0.0129168
0.00994747
0.00942112
0.0125357
0.00840003
1.16276e-11
0.00840003
3.87239e-11
0.00840003
2.01631e-10
0.00840003
3.91833e-10
0.00840003
1.39392e-09
0.00840003
2.48556e-09
0.00840003
8.1769e-09
0.00840004
1.43418e-08
0.00840006
4.6327e-08
0.0084001
8.09252e-08
0.00840017
2.6092e-07
0.00840044
4.53403e-07
0.00840079
1.4766e-06
0.00840223
2.50854e-06
0.00840455
8.62519e-06
0.00841248
1.35005e-05
0.00843097
5.36913e-05
0.00849237
8.26444e-05
0.00871634
0.00036803
0.00947157
0.000841833
0.0124043
0.00302474
0.013243
0.00878642
0.0132232
0.00996356
0.013134
0.0100353
0.00974427
0.0128093
0.00840003
4.9344e-12
0.00840003
3.33613e-11
0.00840003
1.05534e-10
0.00840003
3.1245e-10
0.00840003
7.47801e-10
0.00840003
1.94526e-09
0.00840004
4.40244e-09
0.00840004
1.11114e-08
0.00840006
2.48427e-08
0.00840008
6.22025e-08
0.0084002
1.38652e-07
0.0084003
3.46871e-07
0.008401
7.71742e-07
0.00840151
1.96415e-06
0.00840584
4.2616e-06
0.00840739
1.17595e-05
0.00843682
2.41048e-05
0.00844253
7.60381e-05
0.00864649
0.000162446
0.00886342
0.000622368
0.0101642
0.00171481
0.0129102
0.00602143
0.0133052
0.00956732
0.0134213
0.0099182
0.0098978
0.0132659
0.00840003
2.9871e-12
0.00840003
2.32825e-11
0.00840003
7.24817e-11
0.00840003
2.15023e-10
0.00840003
5.13701e-10
0.00840003
1.33378e-09
0.00840003
3.02272e-09
0.00840004
7.62205e-09
0.00840004
1.70664e-08
0.00840006
4.27519e-08
0.0084001
9.54011e-08
0.00840021
2.38808e-07
0.00840044
5.31711e-07
0.00840105
1.33671e-06
0.00840232
2.96397e-06
0.00840634
7.60444e-06
0.00841353
1.67632e-05
0.0084432
4.5609e-05
0.00849871
0.000106131
0.00878963
0.000328016
0.00956825
0.000930519
0.012372
0.00319107
0.0134827
0.00845115
0.0135033
0.00989667
0.00988788
0.013511
0.00840003
1.43875e-12
0.00840003
1.81946e-11
0.00840003
4.23928e-11
0.00840003
1.61973e-10
0.00840003
3.0581e-10
0.00840003
9.96807e-10
0.00840003
1.80882e-09
0.00840003
5.68332e-09
0.00840004
1.02331e-08
0.00840005
3.18629e-08
0.00840009
5.72521e-08
0.00840015
1.7812e-07
0.00840036
3.1901e-07
0.00840068
9.97783e-07
0.00840185
1.7739e-06
0.00840369
5.66447e-06
0.00841052
9.83948e-06
0.00842209
3.36414e-05
0.00846836
5.8164e-05
0.00857704
0.000217615
0.00899925
0.000506753
0.0103855
0.00180126
0.0130373
0.0057758
0.0135947
0.00933184
0.00983349
0.0136444
0.00840003
1.92455e-12
0.00840003
7.79325e-12
0.00840003
3.66248e-11
0.00840003
7.67451e-11
0.00840003
2.54706e-10
0.00840003
4.82945e-10
0.00840003
1.49066e-09
0.00840003
2.77046e-09
0.00840004
8.39866e-09
0.00840005
1.55508e-08
0.00840006
4.69226e-08
0.00840015
8.67907e-08
0.00840021
2.6197e-07
0.00840072
4.83608e-07
0.008401
1.46892e-06
0.00840395
2.68808e-06
0.00840522
8.42768e-06
0.00842378
1.49463e-05
0.00843014
5.09365e-05
0.00855603
9.11345e-05
0.00871195
0.000347139
0.00967898
0.000829019
0.0126538
0.00277286
0.0137764
0.0081971
0.00985236
0.0137507
0.00840003
8.91121e-13
0.00840003
6.0508e-12
0.00840003
1.9053e-11
0.00840003
5.65468e-11
0.00840003
1.3482e-10
0.00840003
3.5123e-10
0.00840003
7.91308e-10
0.00840003
1.99951e-09
0.00840004
4.44765e-09
0.00840004
1.11465e-08
0.00840006
2.47207e-08
0.00840009
6.17853e-08
0.00840021
1.36844e-07
0.00840035
3.4207e-07
0.00840105
7.56708e-07
0.00840179
1.91738e-06
0.00840603
4.15308e-06
0.00840945
1.13124e-05
0.00843717
2.30248e-05
0.00845479
7.24556e-05
0.00865162
0.000148635
0.00890819
0.00056905
0.0101632
0.00150788
0.0131856
0.00514992
0.00910334
0.0139146
0.00840003
5.04374e-13
0.00840003
3.92395e-12
0.00840003
1.22313e-11
0.00840003
3.62307e-11
0.00840003
8.65244e-11
0.00840003
2.23835e-10
0.00840003
5.06514e-10
0.00840003
1.27108e-09
0.00840003
2.84037e-09
0.00840004
7.07684e-09
0.00840005
1.57626e-08
0.00840007
3.9211e-08
0.00840012
8.72036e-08
0.00840024
2.17003e-07
0.00840051
4.81719e-07
0.0084012
1.20389e-06
0.00840266
2.66137e-06
0.00840708
6.75815e-06
0.00841489
1.50372e-05
0.00844704
3.94542e-05
0.00850024
9.48586e-05
0.00879248
0.000272773
0.00951608
0.000777005
0.0120618
0.00258726
0.00721339
0.0139246
0.00840003
1.9584e-13
0.00840003
2.83793e-12
0.00840003
6.35219e-12
0.00840003
2.51096e-11
0.00840003
4.58723e-11
0.00840003
1.53463e-10
0.00840003
2.69238e-10
0.00840003
8.66882e-10
0.00840003
1.50573e-09
0.00840003
4.80546e-09
0.00840004
8.31371e-09
0.00840005
2.65057e-08
0.00840009
4.56695e-08
0.00840016
1.46063e-07
0.00840039
2.49952e-07
0.00840074
8.06819e-07
0.008402
1.36564e-06
0.00840404
4.51375e-06
0.00841151
7.44165e-06
0.00842463
2.6423e-05
0.00847008
4.23719e-05
0.00857563
0.000168213
0.00897336
0.000350852
0.0102782
0.00131251
0.00399135
0.0134419
0.00840003
2.13286e-13
0.00840003
1.22974e-12
0.00840003
4.5324e-12
0.00840003
1.1687e-11
0.00840003
3.17305e-11
0.00840003
7.2328e-11
0.00840003
1.84199e-10
0.00840003
4.08226e-10
0.00840003
1.02255e-09
0.00840003
2.24944e-09
0.00840004
5.5977e-09
0.00840005
1.22738e-08
0.00840006
3.04186e-08
0.00840014
6.64948e-08
0.00840022
1.64718e-07
0.00840065
3.59282e-07
0.00840105
8.96106e-07
0.00840354
1.95634e-06
0.00840561
4.93909e-06
0.00842068
1.10945e-05
0.00843352
2.71346e-05
0.00852909
6.98689e-05
0.00869043
0.000177478
0.00944829
0.000560006
0.00183803
0.0115169
0.00840003
1.94329e-13
0.00840003
4.40478e-13
0.00840003
3.03219e-12
0.00840003
4.67576e-12
0.00840003
2.04956e-11
0.00840003
2.89674e-11
0.00840003
1.16631e-10
0.00840003
1.58666e-10
0.00840003
6.36264e-10
0.00840003
8.38763e-10
0.00840003
3.43544e-09
0.00840004
4.38403e-09
0.00840005
1.85167e-08
0.00840009
2.27539e-08
0.00840014
9.96848e-08
0.00840038
1.16267e-07
0.00840073
5.35484e-07
0.00840211
5.71297e-07
0.00840412
2.95264e-06
0.00841319
2.45068e-06
0.00841729
1.87907e-05
0.00849001
9.40431e-06
0.00852667
0.000124793
0.00898339
0.000105149
0.000703362
0.00998451
0.00840003
6.26911e-14
0.00840003
3.44407e-13
0.00840003
1.18737e-12
0.00840003
3.2665e-12
0.00840003
8.21428e-12
0.00840003
1.98321e-11
0.00840003
4.65838e-11
0.00840003
1.08153e-10
0.00840003
2.50284e-10
0.00840003
5.71165e-10
0.00840003
1.32285e-09
0.00840003
2.98148e-09
0.00840004
6.95845e-09
0.00840005
1.54672e-08
0.0084001
3.65145e-08
0.00840011
7.95918e-08
0.00840043
1.9062e-07
0.00840046
4.03272e-07
0.00840224
9.95123e-07
0.00840182
1.96745e-06
0.00841454
5.47738e-06
0.00840823
8.70523e-06
0.0084931
3.25573e-05
0.00849662
6.25596e-05
0.000183179
0.00892233
0.00840003
1.87053e-14
0.00840003
2.34708e-13
0.00840003
6.64857e-13
0.00840003
2.09129e-12
0.00840003
4.67594e-12
0.00840003
1.26167e-11
0.00840003
2.67133e-11
0.00840003
6.9869e-11
0.00840003
1.45033e-10
0.00840003
3.78947e-10
0.00840003
7.77552e-10
0.00840003
2.04978e-09
0.00840003
4.16625e-09
0.00840003
1.11304e-08
0.00840004
2.23732e-08
0.00840003
6.07867e-08
0.00840007
1.19078e-07
0.00839998
3.36625e-07
0.00840021
5.98097e-07
0.0083993
1.90352e-06
0.00840097
2.61788e-06
0.00839195
1.09293e-05
0.00840619
1.0324e-05
0.00836504
6.71064e-05
0.000121536
0.00833136
0.00840003
-3.39013e-14
0.00840003
2.81945e-13
0.00840003
4.4175e-14
0.00840003
2.23466e-12
0.00840003
4.97742e-13
0.00840003
1.3573e-11
0.00840003
2.98919e-12
0.00840003
7.84076e-11
0.00840003
1.98397e-11
0.00840003
4.50414e-10
0.00840003
9.33886e-11
0.00840003
2.60375e-09
0.00840003
5.94164e-10
0.00840002
1.52384e-08
0.00840004
3.31597e-09
0.00839998
9.06344e-08
0.00840006
1.66694e-08
0.00839968
5.65594e-07
0.00840013
-2.16386e-08
0.00839714
3.94504e-06
0.00840205
-2.93386e-06
0.0083781
2.80698e-05
0.00840873
-2.7449e-05
0.00828704
0.000154236
6.13112e-05
0.00826325
0.00840003
-4.64773e-15
0.00840003
7.39169e-14
0.00840003
1.07818e-13
0.00840003
6.34256e-13
0.00840003
8.29557e-13
0.00840003
3.83249e-12
0.00840003
4.63992e-12
0.00840003
2.15638e-11
0.00840003
2.40121e-11
0.00840003
1.19827e-10
0.00840003
1.21669e-10
0.00840003
6.67849e-10
0.00840003
6.12568e-10
0.00840004
3.75143e-09
0.00840003
3.04917e-09
0.0084001
2.1402e-08
0.00840006
1.84589e-08
0.00840044
1.20968e-07
0.00839995
1.56201e-07
0.00840308
7.73088e-07
0.00839722
6.01451e-07
0.00841716
6.71113e-06
0.00837667
1.69854e-06
0.00845594
4.84337e-05
0.000129271
0.00838657
0.00840003
1.75524e-14
0.00840003
4.20638e-15
0.00840003
2.04976e-13
0.00840003
1.11314e-13
0.00840003
1.34737e-12
0.00840003
6.85375e-13
0.00840003
7.73222e-12
0.00840003
3.21839e-12
0.00840003
4.33341e-11
0.00840003
1.36303e-11
0.00840003
2.44898e-10
0.00840003
5.49505e-11
0.00840003
1.41455e-09
0.00840003
2.16558e-10
0.00840001
8.40087e-09
0.00840003
7.34696e-10
0.00839994
4.79421e-08
0.00840001
1.62947e-09
0.0083996
2.46335e-07
0.00840006
-7.23601e-08
0.00839691
1.79407e-06
0.00840349
-2.01651e-06
0.00837934
1.49623e-05
0.0084056
5.01336e-07
9.19633e-05
0.008449
0.00840003
4.95594e-14
0.00840003
-1.44731e-13
0.00840003
3.88087e-13
0.00840003
-9.84656e-13
0.00840003
2.40871e-12
0.00840003
-5.94835e-12
0.00840003
1.35652e-11
0.00840003
-3.58126e-11
0.00840003
7.44424e-11
0.00840003
-2.16258e-10
0.00840003
4.03676e-10
0.00840003
-1.31147e-09
0.00840003
2.17133e-09
0.00840004
-8.03447e-09
0.00840003
1.1693e-08
0.00840007
-5.00425e-08
0.00840002
6.68617e-08
0.0084003
-3.28814e-07
0.00839978
5.08163e-07
0.00840214
-2.51665e-06
0.00839673
5.45396e-06
0.00841271
-1.94797e-05
0.00837341
4.56666e-05
0.00844399
-8.86586e-05
0.000124721
0.00840749
0.00840003
1.08981e-14
0.00840003
-2.99969e-14
0.00840003
7.44255e-14
0.00840003
-2.03905e-13
0.00840003
4.68023e-13
0.00840003
-1.19926e-12
0.00840003
2.67631e-12
0.00840003
-7.11456e-12
0.00840003
1.47807e-11
0.00840003
-4.26522e-11
0.00840003
8.02004e-11
0.00840003
-2.58043e-10
0.00840003
4.29043e-10
0.00840002
-1.58549e-09
0.00840003
2.27853e-09
0.00839997
-9.94213e-09
0.0084
1.30216e-08
0.00839963
-6.58579e-08
0.00839992
1.04873e-07
0.00839722
-4.78096e-07
0.00840086
1.08188e-06
0.00838082
-3.24375e-06
0.00841187
9.85573e-06
0.00831697
-1.20192e-05
4.57427e-05
0.00838481
0.00840003
-7.05005e-15
0.00840003
5.74983e-14
0.00840003
2.05398e-14
0.00840003
4.66248e-13
0.00840003
2.68999e-13
0.00840003
2.88727e-12
0.00840003
2.05488e-12
0.00840003
1.72888e-11
0.00840003
1.45279e-11
0.00840003
1.03742e-10
0.00840003
1.00958e-10
0.00840003
6.27686e-10
0.00840003
6.91195e-10
0.00840002
3.83701e-09
0.00840001
4.60748e-09
0.00839996
2.36882e-08
0.00839993
2.73053e-08
0.00839962
1.52156e-07
0.00839952
9.71833e-08
0.00839747
9.85469e-07
0.00839799
-1.17362e-07
0.00838521
6.07055e-06
0.00839394
-3.13038e-06
0.0083278
3.69657e-05
4.08256e-05
0.00832603
0.00840003
-2.71263e-14
0.00840003
1.4637e-13
0.00840003
-1.19549e-13
0.00840003
1.08781e-12
0.00840003
-5.91456e-13
0.00840003
6.70413e-12
0.00840003
-2.6487e-12
0.00840003
4.03921e-11
0.00840003
-1.10058e-11
0.00840003
2.43701e-10
0.00840003
-3.97579e-11
0.00840003
1.47903e-09
0.00840003
-8.0796e-11
0.00840002
9.0626e-09
0.00840002
3.36128e-10
0.00839998
5.6215e-08
0.00839999
1.01147e-09
0.00839968
3.70991e-07
0.00839979
-1.10669e-07
0.00839765
2.57776e-06
0.00839946
-2.53786e-06
0.00838529
1.6982e-05
0.00840028
-2.20209e-05
0.00833019
9.06761e-05
-1.31329e-06
0.00836652
0.00840003
2.66947e-14
0.00840003
-1.47735e-13
0.00840003
1.11648e-13
0.00840003
-1.09509e-12
0.00840003
5.66227e-13
0.00840003
-6.64076e-12
0.00840003
2.88869e-12
0.00840003
-3.91512e-11
0.00840003
1.40099e-11
0.00840003
-2.31002e-10
0.00840003
6.53301e-11
0.00840003
-1.37254e-09
0.00840003
2.88949e-10
0.00840005
-8.24882e-09
0.00840004
1.22927e-09
0.00840014
-5.02997e-08
0.00840011
1.02845e-08
0.00840077
-3.29098e-07
0.00840025
2.26905e-07
0.00840495
-2.28817e-06
0.00839795
3.34464e-06
0.00842851
-1.50364e-05
0.00837241
2.82255e-05
0.00851929
-6.98991e-05
7.00555e-05
0.00842433
0.00840003
6.62187e-15
0.00840003
-6.01709e-14
0.00840003
-3.36618e-14
0.00840003
-4.86647e-13
0.00840003
-3.52464e-13
0.00840003
-2.95379e-12
0.00840003
-2.27042e-12
0.00840003
-1.72401e-11
0.00840003
-1.41923e-11
0.00840003
-1.00647e-10
0.00840003
-8.99103e-11
0.00840003
-5.91679e-10
0.00840003
-5.73216e-10
0.00840002
-3.51206e-09
0.00840003
-3.59344e-09
0.00839998
-2.10521e-08
0.0084
-1.90243e-08
0.00839972
-1.31459e-07
0.00839989
-2.74392e-08
0.00839789
-8.05451e-07
0.00840029
4.39806e-07
0.00838651
-4.46909e-06
0.00840507
6.1243e-06
0.0083405
-2.11264e-05
1.64855e-05
0.00838879
0.00840003
0.00840003
0.00840003
0.00840003
0.00840003
0.00840003
0.00840003
0.00840003
0.00840003
0.00840003
0.00840003
0.00840003
0.00840003
0.00840002
0.00840002
0.00839998
0.00839995
0.00839974
0.00839963
0.00839832
0.00839819
0.0083907
0.00839309
0.00835636
0.00836609
0.0039254
0.00435036
0.00182331
0.00209369
-0.000173773
0.00198945
-0.0014527
0.00128403
-0.00206011
0.000606161
-0.00249104
0.000431352
-0.00266616
0.000175526
-0.00277347
0.000108344
-0.00292641
0.000154145
-0.00308073
0.000155402
-0.00320628
0.000126188
-0.00330217
9.61031e-05
-0.00338928
8.70794e-05
-0.00346571
7.59817e-05
-0.00352097
5.47684e-05
-0.00355429
3.24139e-05
-0.00359709
3.98087e-05
-0.00363737
3.70725e-05
-0.00366414
2.32347e-05
-0.00367431
3.78473e-06
-0.00366635
-1.58365e-05
-0.00363041
-4.54087e-05
-0.00355973
-8.05117e-05
-0.00345546
-0.000114482
-0.00332417
-0.000140948
-0.00317302
-0.000160246
-0.00300808
-0.000174069
-0.00282846
-0.000187955
-0.00264056
-0.000195794
-0.00244646
-0.000201289
-0.00224718
-0.000205881
-0.0020421
-0.00021071
-0.00183195
-0.00021576
-0.00161705
-0.000220028
-0.00138998
-0.000231651
-0.0011608
-0.000233614
-0.000932874
-0.000231845
-0.000704419
-0.000231851
-0.000475605
-0.000231881
-0.000245251
-0.000232931
-6.91548e-06
-0.000240399
0.000226641
-0.000236194
0.0004495
-0.000225079
0.000662927
-0.00021533
0.000869867
-0.000208753
0.0010691
-0.000201088
0.00126077
-0.000193324
0.00144432
-0.000184685
0.00162232
-0.000178769
0.00179776
-0.000176235
0.00196898
-0.000171796
0.00213404
-0.000165209
0.00229211