/*--------------------------------*- C++ -*----------------------------------*\
| =========                 |                                                 |
| \\      /  F ield         | OpenFOAM: The Open Source CFD Toolbox           |
|  \\    /   O peration     | Version:  2112                                  |
|   \\  /    A nd           | Website:  www.openfoam.com                      |
|    \\/     M anipulation  |                                                 |
\*---------------------------------------------------------------------------*/
FoamFile
{
    version     2.0;
    format      ascii;
    arch        "LSB;label=32;scalar=64";
    class       volScalarField;
    location    "7.5";
    object      T;
}
// * * * * * * * * * * * * * * * * * * * * * * * * * * * * * * * * * * * * * //

dimensions      [0 0 0 1 0 0 0];

internalField   nonuniform List<scalar> 
5250
(
1.00001
1.00002
1.00008
1.00014
1.00046
1.00085
1.00251
1.00524
1.01352
1.03582
1.08029
1.24688
1.59893
2.41016
2.70476
2.73044
2.72971
2.7339
2.74698
2.76038
2.77206
2.7802
2.78648
2.78976
2.7936
1.00001
1.00002
1.00008
1.00014
1.00045
1.00084
1.00246
1.00517
1.0133
1.03534
1.07911
1.2444
1.5889
2.40093
2.70171
2.73073
2.72986
2.73377
2.74665
2.75973
2.77108
2.77898
2.78489
2.78708
2.79075
1.00001
1.00002
1.00007
1.00014
1.00044
1.00081
1.00238
1.00502
1.01284
1.03433
1.07662
1.23907
1.56764
2.37944
2.69336
2.72988
2.72876
2.73186
2.74448
2.75748
2.7687
2.77606
2.78241
2.78455
2.78703
1.00001
1.00002
1.00007
1.00013
1.00042
1.00077
1.00226
1.0048
1.01221
1.03279
1.07288
1.22907
1.53267
2.34285
2.6788
2.7278
2.72636
2.72781
2.74087
2.75213
2.76412
2.77214
2.77784
2.78051
2.78291
1.00001
1.00002
1.00007
1.00012
1.00039
1.00073
1.00213
1.00451
1.0115
1.03081
1.06856
1.21486
1.49522
2.29236
2.65845
2.72547
2.7228
2.72286
2.73535
2.74665
2.75594
2.76394
2.76843
2.77083
2.77328
1.00001
1.00002
1.00006
1.00011
1.00036
1.00067
1.00198
1.00417
1.01066
1.02838
1.06355
1.19696
1.45293
2.2207
2.63023
2.72192
2.71788
2.71554
2.72695
2.73965
2.74895
2.7553
2.76074
2.76265
2.76447
1.00001
1.00002
1.00006
1.0001
1.00034
1.00062
1.00184
1.00376
1.00986
1.02525
1.05764
1.17525
1.40236
2.11924
2.5917
2.71597
2.71231
2.7047
2.71661
2.72426
2.73753
2.74306
2.74577
2.74561
2.74565
1.00001
1.00001
1.00005
1.00009
1.0003
1.00055
1.00169
1.00332
1.009
1.02175
1.05109
1.15125
1.34645
1.99895
2.53854
2.70295
2.70025
2.69296
2.70701
2.71184
2.7183
2.72623
2.73017
2.72768
2.72368
1.00001
1.00001
1.00005
1.00008
1.00027
1.00048
1.00152
1.00286
1.00811
1.01811
1.04461
1.12641
1.28925
1.80316
2.49167
2.67213
2.67028
2.66667
2.68631
2.69707
2.70161
2.70122
2.70174
2.69671
2.67641
1.00001
1.00001
1.00004
1.00007
1.00023
1.00042
1.0013
1.0025
1.00706
1.01569
1.03921
1.10879
1.25179
1.68819
2.50472
2.66137
2.64389
2.64447
2.65256
2.67005
2.68009
2.67858
2.67
2.648
2.60062
1
1.00001
1.00002
1.00008
1.00015
1.00042
1.00088
1.00227
1.00564
1.01306
1.03735
1.07939
1.25208
1.6216
2.39448
2.64335
2.64147
2.63598
2.63163
2.64013
2.64707
2.64531
2.62834
2.58059
2.4151
1
1.00001
1.00003
1.00006
1.00017
1.00032
1.00099
1.00191
1.00537
1.01193
1.0297
1.08274
1.18053
1.5595
2.33331
2.58443
2.63245
2.62525
2.61824
2.61803
2.61791
2.60853
2.58082
2.52258
2.35719
1
1.00001
1.00003
1.00005
1.00015
1.00028
1.00087
1.00161
1.00473
1.00996
1.02558
1.06907
1.1525
1.47452
2.21016
2.52834
2.62432
2.61561
2.60087
2.59507
2.58819
2.57543
2.54303
2.48977
2.36103
1
1.00001
1.00002
1.00004
1.00013
1.00024
1.00076
1.00137
1.00427
1.00819
1.02292
1.05423
1.12891
1.37011
2.01404
2.45004
2.60802
2.60009
2.59112
2.57236
2.55964
2.53396
2.50416
2.46351
2.37028
1
1.00001
1.00002
1.00003
1.00011
1.0002
1.00062
1.00113
1.0035
1.00662
1.01917
1.04144
1.10758
1.2727
1.81314
2.34362
2.566
2.56301
2.5642
2.55674
2.53991
2.51607
2.46511
2.43326
2.36763
1
1
1.00001
1.00003
1.00009
1.00016
1.0005
1.0009
1.00279
1.0053
1.01494
1.03396
1.08165
1.22882
1.58904
2.29368
2.53928
2.53822
2.53114
2.52516
2.5148
2.49669
2.4538
2.40207
2.35524
1
1
1.00001
1.00002
1.00007
1.00012
1.00038
1.0007
1.00208
1.00423
1.01104
1.02793
1.06366
1.1917
1.43996
2.12556
2.48214
2.53019
2.51239
2.50422
2.48492
2.47109
2.44305
2.39274
2.34126
1
1
1.00001
1.00002
1.00005
1.0001
1.00031
1.00055
1.00172
1.00328
1.00905
1.02102
1.05014
1.14554
1.33153
1.93888
2.36387
2.50717
2.50217
2.48957
2.46874
2.44094
2.41925
2.38002
2.3332
1
1
1.00001
1.00001
1.00004
1.00007
1.00023
1.00042
1.00131
1.00246
1.00715
1.01508
1.03854
1.10029
1.24023
1.61132
2.27248
2.45253
2.46716
2.46335
2.45157
2.42752
2.39988
2.36466
2.32035
1
1
1
1.00001
1.00002
1.00007
1.00013
1.00041
1.00076
1.0022
1.00459
1.0118
1.03014
1.06867
1.19855
1.48269
2.12988
2.4163
2.44631
2.43379
2.42407
2.40214
2.38407
2.35523
2.31649
1
1
1
1.00001
1.00002
1.00006
1.0001
1.00032
1.00058
1.00177
1.00338
1.00938
1.0214
1.05164
1.14608
1.34365
1.8652
2.31848
2.4291
2.42297
2.40578
2.38143
2.35241
2.33086
2.30713
1
1
1
1.00001
1.00002
1.00003
1.0001
1.00018
1.00054
1.00102
1.00301
1.00602
1.01649
1.03723
1.09539
1.23468
1.71228
2.1272
2.36284
2.39754
2.39222
2.37433
2.34394
2.30908
2.28424
1
1
1
1
1.00001
1.00003
1.00005
1.00016
1.00029
1.00086
1.00173
1.00458
1.01087
1.02557
1.07242
1.15162
1.47547
2.0964
2.2916
2.34101
2.34911
2.34801
2.33512
2.30574
2.27343
1
1
1
1
1.00001
1.00002
1.00005
1.00009
1.00027
1.00051
1.00142
1.00305
1.00762
1.01981
1.0446
1.1302
1.28992
1.81581
2.22461
2.3274
2.3246
2.30897
2.30395
2.29261
2.26719
1
1
1
1
1.00001
1.00001
1.00004
1.00006
1.0002
1.00036
1.00114
1.00206
1.00632
1.01228
1.03318
1.07937
1.19154
1.49892
2.07537
2.28064
2.30713
2.30056
2.28251
2.26569
2.24818
1
1
1
1
1
1.00001
1.00002
1.00004
1.00014
1.00025
1.00077
1.00142
1.00415
1.00848
1.02192
1.0563
1.1259
1.36542
1.91593
2.1759
2.27069
2.27777
2.271
2.25545
2.23325
1
1
1
1
1
1.00001
1.00001
1.00004
1.00007
1.00022
1.0004
1.0012
1.00228
1.00646
1.01362
1.03473
1.08652
1.20966
1.51767
2.05345
2.22665
2.24311
2.24596
2.23662
2.21907
1
1
1
1
1
1
1.00001
1.00003
1.00005
1.00015
1.00027
1.00082
1.00151
1.00437
1.009
1.02288
1.05957
1.12919
1.38957
1.90908
2.15791
2.22685
2.22525
2.21787
2.2027
1
1
1
1
1
1
1.00001
1.00002
1.00003
1.0001
1.00018
1.00055
1.00101
1.00305
1.00579
1.01641
1.03518
1.09003
1.21958
1.6358
2.00498
2.18682
2.20774
2.20636
2.19589
1
1
1
1
1
1
1
1.00001
1.00003
1.00005
1.00015
1.00027
1.00081
1.00154
1.00427
1.00928
1.02269
1.06084
1.12926
1.39204
1.89454
2.11375
2.1723
2.18009
2.17766
1
1
1
1
1
1
1
1.00001
1.00002
1.00003
1.0001
1.00018
1.00056
1.00101
1.00308
1.00577
1.01642
1.03486
1.08838
1.2166
1.60464
1.99567
2.14838
2.15957
2.15946
1
1
1
1
1
1
1
1
1.00001
1.00002
1.00006
1.00012
1.00035
1.00065
1.00195
1.00366
1.01048
1.0219
1.05556
1.13632
1.35388
1.78119
2.07831
2.14734
2.15158
1
1
1
1
1
1
1
1
1.00001
1.00002
1.00003
1.00009
1.00017
1.00051
1.00096
1.00278
1.00549
1.01485
1.03277
1.08248
1.1975
1.56155
1.91182
2.10572
2.13856
1
1
1
1
1
1
1
1
1
1.00001
1.00002
1.00005
1.00014
1.00025
1.00075
1.00142
1.00394
1.00841
1.0207
1.05428
1.11616
1.34458
1.7957
2.03605
2.12472
1
1
1
1
1
1
1
1
1
1.00001
1.00002
1.00003
1.00009
1.00016
1.0005
1.0009
1.00271
1.00509
1.01449
1.02972
1.07862
1.17927
1.52602
1.89544
2.1062
1
1
1
1
1
1
1
1
1
1
1.00001
1.00002
1.00006
1.0001
1.00031
1.00057
1.00174
1.00322
1.00938
1.01889
1.04943
1.11772
1.29864
1.69063
2.04958
1
1
1
1
1
1
1
1
1
1
1.00001
1.00002
1.00003
1.00009
1.00016
1.0005
1.00092
1.00272
1.00526
1.0146
1.03147
1.08015
1.1931
1.53473
1.99068
1
1
1
1
1
1
1
1
1
1
1
1.00001
1.00002
1.00007
1.00012
1.00037
1.00068
1.00207
1.00395
1.01066
1.02514
1.05662
1.16507
1.37095
1.95642
1
1
1
1
1
1
1
1
1
1
1
1.00001
1.00002
1.00004
1.00014
1.00025
1.00077
1.00143
1.00433
1.00855
1.02341
1.05565
1.1348
1.37248
2.05288
1
1
1
1
1
1
1
1
1
1
1
1.00001
1.00002
1.00004
1.00013
1.00023
1.00073
1.00133
1.00413
1.00794
1.02271
1.05178
1.13092
1.35743
2.06099
1
1
1
1
1
1
1
1
1
1
1
1.00001
1.00002
1.00004
1.00012
1.00022
1.00068
1.00126
1.00386
1.00769
1.02112
1.05161
1.12448
1.355
2.04119
1
1
1
1
1
1
1
1
1
1
1
1.00001
1.00001
1.00005
1.00008
1.00026
1.00048
1.0014
1.00297
1.00757
1.01987
1.04516
1.13652
1.3123
1.88383
1
1
1
1
1
1
1
1
1
1
1
1.00001
1.00001
1.00005
1.00008
1.00027
1.00048
1.00152
1.00285
1.00823
1.01829
1.04546
1.12874
1.30463
1.83208
1
1
1
1
1
1
1
1
1
1
1
1.00001
1.00001
1.00004
1.00008
1.00025
1.00046
1.00137
1.00282
1.00736
1.0186
1.0432
1.12868
1.29492
1.80233
1
1
1
1
1
1
1
1
1
1
1
1.00001
1.00002
1.00003
1.00011
1.0002
1.00063
1.00116
1.00357
1.00708
1.01954
1.04722
1.11391
1.32119
1.93535
1
1
1
1
1
1
1
1
1
1
1
1.00001
1.00002
1.00003
1.00011
1.0002
1.00063
1.00115
1.0036
1.0069
1.01987
1.04507
1.11343
1.30987
1.91448
1
1
1
1
1
1
1
1
1
1
1
1.00001
1.00002
1.00003
1.00011
1.0002
1.00061
1.00114
1.00349
1.00691
1.01914
1.04588
1.11064
1.31214
1.90202
1
1
1
1
1
1
1
1
1
1
1
1.00001
1.00001
1.00004
1.00007
1.00023
1.00044
1.00121
1.00274
1.00667
1.01825
1.0407
1.12349
1.27706
1.75754
1
1
1
1
1
1
1
1
1
1
1
1.00001
1.00002
1.00003
1.00011
1.00019
1.00061
1.00113
1.00345
1.00684
1.01881
1.04538
1.10887
1.30767
1.88225
1
1
1
1
1
1
1
1
1
1
1
1.00001
1.00002
1.00003
1.00011
1.00019
1.00062
1.00113
1.00354
1.00676
1.01943
1.04392
1.10994
1.30089
1.87393
2.43316
2.73066
2.86959
3.07513
3.11312
3.05595
3.03952
3.0238
3.00867
2.98549
2.96589
2.94431
2.92638
2.90504
2.886
2.86351
2.84902
2.8378
2.83497
2.83462
2.84043
2.85528
2.87544
2.90058
2.92387
2.94849
2.96783
2.98667
3.00143
3.01509
3.02553
3.03488
3.04231
3.04653
3.05116
3.05284
3.05342
3.05358
3.05163
3.04925
3.04639
3.04475
3.03893
3.0353
3.02777
3.02314
3.01603
3.00988
3.00051
2.9933
2.98448
2.97638
2.96698
2.9585
2.94836
2.93961
2.92931
2.92038
2.91005
2.9007
2.89046
2.88055
2.8701
2.86023
2.84938
2.83961
2.82873
2.81865
2.80787
2.79745
2.7865
2.77584
2.76475
2.75371
2.74279
2.73113
2.72056
2.70831
2.69788
2.68542
2.67477
2.66247
2.65148
2.63936
2.62831
2.61617
2.60528
2.59305
2.58242
2.57017
2.5598
2.54774
2.53764
2.52607
2.51652
2.50573
2.49745
2.48811
2.4827
2.47608
2.32351
2.50299
2.64205
2.92992
3.06789
3.17102
3.22133
3.20433
3.18774
3.17934
3.17064
3.16612
3.15831
3.15067
3.14101
3.12984
3.12136
3.1154
3.11607
3.12176
3.12839
3.14195
3.15388
3.16938
3.17638
3.18167
3.18331
3.18277
3.17544
3.1664
3.15406
3.13924
3.12535
3.11468
3.10241
3.08977
3.07129
3.05805
3.0426
3.02776
3.0106
2.99625
2.98131
2.96656
2.95109
2.93735
2.92236
2.90994
2.89666
2.88475
2.87075
2.85828
2.84534
2.83374
2.82177
2.8103
2.7991
2.78783
2.77711
2.76613
2.75581
2.74485
2.73509
2.72405
2.71457
2.70335
2.69399
2.68295
2.67382
2.66295
2.65423
2.64326
2.63512
2.62384
2.6162
2.60464
2.59715
2.58559
2.57788
2.56652
2.55845
2.54721
2.53889
2.52757
2.51921
2.50769
2.49938
2.48771
2.47936
2.4677
2.45927
2.44777
2.43922
2.42809
2.41965
2.4091
2.40156
2.39247
2.38753
2.38143
2.29267
2.32154
2.43013
2.52355
2.69294
2.8311
3.02559
3.12535
3.18086
3.23119
3.26202
3.27446
3.28498
3.29638
3.30093
3.30187
3.29897
3.29784
3.30679
3.30866
3.31682
3.32157
3.32371
3.3234
3.30865
3.2925
3.27313
3.25159
3.2268
3.20071
3.17115
3.14563
3.12047
3.09208
3.06342
3.03414
3.00471
2.97667
2.9493
2.92421
2.89941
2.87674
2.85429
2.83333
2.81341
2.79397
2.77622
2.75836
2.74298
2.72602
2.71133
2.69454
2.68094
2.66568
2.65256
2.63841
2.62571
2.61254
2.60053
2.58797
2.57639
2.56435
2.553
2.5415
2.53041
2.51964
2.50883
2.49859
2.48804
2.47819
2.46794
2.45829
2.44832
2.43885
2.42909
2.41988
2.41013
2.40123
2.39145
2.3829
2.3732
2.36496
2.35546
2.34739
2.33815
2.33022
2.32126
2.3136
2.30496
2.29766
2.2892
2.28227
2.27384
2.26734
2.25916
2.25339
2.24614
2.24173
2.23685
2.23539
2.29842
2.26123
2.29233
2.33838
2.40713
2.5117
2.60935
2.77095
2.90451
3.04024
3.13656
3.19108
3.23217
3.26929
3.29709
3.3151
3.33272
3.33735
3.32163
3.33748
3.35333
3.34957
3.33598
3.31123
3.27586
3.23983
3.20128
3.16097
3.12152
3.08011
3.0414
3.00185
2.96489
2.92733
2.89452
2.86115
2.83302
2.80406
2.78036
2.7558
2.73552
2.71442
2.69686
2.67856
2.66273
2.64661
2.63223
2.61824
2.60541
2.59319
2.58075
2.56889
2.55686
2.54619
2.535
2.52509
2.51445
2.50507
2.49486
2.48596
2.47611
2.46754
2.45791
2.44946
2.44005
2.43143
2.42227
2.41323
2.40431
2.39472
2.38588
2.3759
2.36706
2.35697
2.34808
2.33813
2.32911
2.31935
2.3102
2.30062
2.2914
2.28189
2.27269
2.26321
2.25409
2.24466
2.23565
2.2263
2.21731
2.20814
2.19917
2.19037
2.18162
2.17332
2.16508
2.1575
2.15033
2.14399
2.13919
2.13569
2.29802
2.25786
2.23258
2.24963
2.27251
2.32007
2.37786
2.44795
2.54487
2.63709
2.76289
2.88804
3.00815
3.10054
3.16588
3.21041
3.2405
3.26593
3.26957
3.27255
3.26047
3.23778
3.19851
3.15117
3.09638
3.03825
2.98394
2.93214
2.88257
2.83714
2.79514
2.75617
2.7209
2.68929
2.66154
2.63666
2.6155
2.59525
2.57823
2.56175
2.54829
2.53512
2.52403
2.51303
2.50364
2.49369
2.48501
2.47605
2.46869
2.46091
2.45402
2.44579
2.43867
2.43071
2.42395
2.41603
2.40927
2.40122
2.39448
2.38634
2.37975
2.37157
2.36514
2.35687
2.35049
2.34209
2.33576
2.32733
2.32113
2.3128
2.3067
2.29849
2.29221
2.28407
2.27743
2.26937
2.26234
2.25431
2.24699
2.23897
2.23146
2.22342
2.21579
2.20767
2.19985
2.19159
2.18356
2.17527
2.16707
2.15886
2.15054
2.14252
2.13426
2.12651
2.11862
2.11131
2.10436
2.09803
2.09326
2.08961
2.29576
2.25041
2.22556
2.20638
2.21287
2.22731
2.25411
2.287
2.33176
2.38683
2.4495
2.53086
2.61285
2.71084
2.80918
2.90426
2.98299
3.03799
3.07691
3.07781
3.05745
3.01276
2.95367
2.88093
2.81138
2.74594
2.68961
2.64339
2.60315
2.57117
2.54411
2.52104
2.5029
2.48722
2.47516
2.4647
2.45637
2.44899
2.44383
2.4383
2.43481
2.43002
2.42719
2.42293
2.41987
2.41567
2.41212
2.40794
2.40446
2.40065
2.39656
2.39162
2.38619
2.38065
2.37486
2.3691
2.3628
2.35673
2.34995
2.34358
2.33659
2.32996
2.32304
2.3161
2.30931
2.3019
2.2951
2.2872
2.28026
2.27204
2.26493
2.25662
2.24938
2.24113
2.23373
2.22561
2.21807
2.21004
2.20242
2.19442
2.18677
2.17864
2.17095
2.16269
2.15504
2.14671
2.13911
2.13076
2.12319
2.1149
2.10738
2.0992
2.09182
2.08383
2.07679
2.06909
2.0628
2.05587
2.05134
2.04699
2.29022
2.24228
2.21147
2.19191
2.17753
2.17912
2.18844
2.20086
2.22182
2.24809
2.28035
2.32055
2.37092
2.42544
2.49373
2.55648
2.62768
2.674
2.71561
2.71491
2.69523
2.65094
2.59273
2.5313
2.47832
2.43781
2.41171
2.39605
2.38644
2.38232
2.37846
2.37663
2.37579
2.3755
2.37569
2.37627
2.37682
2.37773
2.37822
2.37841
2.3782
2.37771
2.37649
2.37533
2.3728
2.37083
2.36719
2.364
2.36009
2.35645
2.35209
2.34702
2.34137
2.33515
2.32924
2.32265
2.31667
2.30982
2.30381
2.29674
2.29071
2.28341
2.27737
2.26979
2.26371
2.25584
2.24973
2.24165
2.23547
2.22734
2.22102
2.21303
2.20653
2.19876
2.19209
2.18452
2.17767
2.17017
2.16318
2.15566
2.14848
2.14092
2.13368
2.12608
2.11872
2.11109
2.10362
2.09603
2.08847
2.081
2.07345
2.06616
2.05873
2.05164
2.04452
2.03773
2.0313
2.02524
2.02047
2.01701
2.28622
2.24136
2.20275
2.18059
2.15996
2.15214
2.14674
2.15178
2.15796
2.1702
2.18576
2.20589
2.23537
2.26829
2.3133
2.35586
2.40438
2.44254
2.4735
2.47718
2.46079
2.42718
2.3859
2.34577
2.31604
2.29383
2.28494
2.28157
2.28734
2.29507
2.30249
2.30828
2.31336
2.31674
2.31967
2.32173
2.32269
2.32366
2.32388
2.32366
2.32304
2.32148
2.32
2.31703
2.31443
2.31061
2.30706
2.30276
2.29874
2.29461
2.29028
2.28548
2.2799
2.27432
2.26846
2.26291
2.25711
2.25152
2.24563
2.23971
2.23355
2.22713
2.2207
2.21383
2.20718
2.20001
2.19317
2.18588
2.17888
2.17163
2.16454
2.15746
2.15031
2.14341
2.13622
2.12945
2.12214
2.11536
2.10789
2.10107
2.09357
2.08672
2.07921
2.07233
2.06486
2.058
2.05057
2.04375
2.03637
2.02961
2.02234
2.01565
2.0086
2.00196
1.99528
1.98875
1.98268
1.97666
1.97198
1.96843
2.27617
2.23725
2.19906
2.17127
2.15078
2.13398
2.12746
2.11955
2.12088
2.12433
2.13247
2.14222
2.16326
2.18603
2.21785
2.25193
2.28978
2.32779
2.35002
2.35039
2.33597
2.30921
2.27609
2.24535
2.21946
2.20719
2.19564
2.19393
2.19689
2.20571
2.21695
2.22679
2.23487
2.24092
2.2456
2.24905
2.25109
2.25344
2.25426
2.25603
2.25632
2.25625
2.25587
2.25505
2.25368
2.25201
2.25013
2.24758
2.24531
2.24262
2.24028
2.2369
2.23339
2.2288
2.22457
2.21954
2.21501
2.20963
2.20486
2.19909
2.19412
2.188
2.18289
2.17653
2.1713
2.16473
2.15928
2.15254
2.14686
2.14006
2.13419
2.12739
2.1213
2.11442
2.10807
2.10103
2.09443
2.08727
2.08058
2.07331
2.06658
2.0592
2.05245
2.04499
2.03824
2.0308
2.02405
2.01669
2.00995
2.00271
1.99599
1.98883
1.98221
1.9751
1.9687
1.96168
1.95576
1.94919
1.9445
1.94032
2.271
2.23223
2.1943
2.16365
2.14049
2.12197
2.10942
2.10206
2.09607
2.09597
2.10033
2.11043
2.12586
2.14929
2.17457
2.2074
2.24971
2.28295
2.29717
2.29242
2.27856
2.2531
2.22342
2.19025
2.16931
2.15276
2.14603
2.14058
2.14108
2.14579
2.1557
2.16746
2.18071
2.19086
2.20001
2.20573
2.21156
2.2147
2.21828
2.21999
2.22175
2.2225
2.22341
2.22332
2.22306
2.22237
2.22138
2.2196
2.21766
2.21543
2.21328
2.21059
2.20744
2.2035
2.19944
2.19491
2.1905
2.1855
2.18083
2.17534
2.17041
2.16441
2.15921
2.15277
2.14732
2.14058
2.13493
2.12802
2.12218
2.1152
2.10918
2.1022
2.096
2.08901
2.08264
2.0757
2.06924
2.06233
2.05576
2.04884
2.04217
2.03529
2.02855
2.02176
2.01497
2.00828
2.00145
1.99485
1.98802
1.98148
1.97472
1.96825
1.96164
1.95519
1.94885
1.94242
1.93653
1.93048
1.92574
1.92202
2.2681
2.23017
2.19416
2.16019
2.13481
2.11262
2.09732
2.08594
2.08007
2.0769
2.08126
2.09356
2.11248
2.13357
2.16549
2.20635
2.25195
2.27693
2.28101
2.27347
2.25346
2.22856
2.19323
2.16354
2.13838
2.12162
2.1105
2.10428
2.09959
2.09938
2.10269
2.10995
2.11994
2.13231
2.14307
2.1527
2.15971
2.16553
2.16925
2.17234
2.17376
2.17545
2.17586
2.17682
2.17688
2.17659
2.17597
2.17465
2.17309
2.17107
2.16937
2.16719
2.16477
2.16144
2.15793
2.15392
2.14987
2.1454
2.14099
2.13617
2.13143
2.12626
2.1212
2.11572
2.11034
2.10458
2.09883
2.09281
2.08672
2.08054
2.07419
2.06795
2.0614
2.05522
2.04858
2.04244
2.03572
2.02955
2.02275
2.01652
2.00968
2.00336
1.99652
1.99017
1.98336
1.97702
1.97026
1.96397
1.95724
1.95099
1.94433
1.93805
1.93153
1.92517
1.91889
1.91247
1.90662
1.90048
1.89572
1.89181
2.25733
2.22554
2.19339
2.16018
2.13282
2.10935
2.09057
2.07663
2.06936
2.06604
2.07361
2.08951
2.10785
2.13534
2.17561
2.2272
2.26515
2.27735
2.27456
2.2621
2.24143
2.20778
2.17525
2.14638
2.12283
2.10277
2.08857
2.07741
2.07105
2.0666
2.06516
2.06649
2.0716
2.08035
2.09305
2.10607
2.11733
2.12677
2.13343
2.13892
2.14252
2.14592
2.14792
2.15019
2.15103
2.1522
2.1521
2.15177
2.15108
2.14965
2.14848
2.14673
2.14503
2.14212
2.13916
2.13518
2.13163
2.12714
2.12328
2.11844
2.11426
2.10903
2.10447
2.09887
2.0939
2.08796
2.08257
2.07634
2.07059
2.06419
2.05813
2.05167
2.04549
2.03909
2.03281
2.02642
2.02004
2.01361
2.00716
2.00071
1.99424
1.98777
1.98132
1.97481
1.96836
1.96182
1.95537
1.94882
1.94238
1.93583
1.92943
1.92287
1.91658
1.91002
1.90392
1.89742
1.89171
1.88564
1.88096
1.87717
2.24416
2.21248
2.18712
2.15855
2.13202
2.1086
2.08991
2.07436
2.06695
2.0674
2.0784
2.09501
2.1185
2.15695
2.21231
2.25765
2.28048
2.28112
2.27436
2.25689
2.22941
2.19745
2.16719
2.14022
2.11594
2.09521
2.07723
2.0633
2.05216
2.04528
2.04036
2.03833
2.03849
2.04177
2.04953
2.06056
2.07314
2.08468
2.09502
2.10292
2.10942
2.1136
2.11702
2.11888
2.12052
2.12115
2.12152
2.12118
2.12048
2.11926
2.11784
2.11634
2.11481
2.11262
2.10997
2.10655
2.10311
2.09905
2.09517
2.09065
2.08638
2.08141
2.07669
2.07127
2.0661
2.06034
2.05481
2.04885
2.04308
2.037
2.03105
2.02499
2.01892
2.01286
2.00664
2.00054
1.99417
1.98802
1.98157
1.97544
1.96902
1.96294
1.95659
1.95056
1.94427
1.93826
1.932
1.92596
1.91972
1.91364
1.90751
1.90139
1.89543
1.88932
1.88361
1.87758
1.87223
1.86663
1.86221
1.85882
2.23975
2.20802
2.17938
2.15275
2.12914
2.10646
2.09039
2.07708
2.07399
2.08045
2.09506
2.11439
2.15061
2.20263
2.25498
2.28364
2.28883
2.28494
2.27125
2.24974
2.22016
2.19077
2.16357
2.13865
2.11539
2.09455
2.07525
2.05902
2.04438
2.0332
2.02434
2.01983
2.01667
2.01635
2.01735
2.02238
2.03072
2.04212
2.05389
2.06524
2.07434
2.08208
2.08704
2.09118
2.09322
2.09489
2.09558
2.09573
2.0954
2.09465
2.09364
2.09232
2.09123
2.08955
2.08762
2.08471
2.08171
2.078
2.07431
2.06999
2.06572
2.06091
2.05615
2.05098
2.04583
2.0404
2.03492
2.02928
2.02348
2.01767
2.01172
2.00583
1.99974
1.99375
1.98751
1.98142
1.97509
1.96897
1.96259
1.95652
1.95016
1.94419
1.93791
1.93203
1.92583
1.91998
1.91384
1.90797
1.90189
1.89595
1.88996
1.88396
1.87812
1.8721
1.8665
1.86059
1.85537
1.84995
1.8457
1.84243
2.22849
2.2031
2.17664
2.15069
2.12845
2.10785
2.0932
2.08678
2.0894
2.10256
2.11861
2.15181
2.19999
2.25408
2.28745
2.2967
2.2945
2.28532
2.26754
2.23986
2.2129
2.18678
2.16335
2.14037
2.11913
2.09811
2.0788
2.06041
2.04406
2.0295
2.01743
2.00798
2.00164
1.99778
1.99576
1.9952
1.99733
2.00345
2.013
2.02406
2.03565
2.04556
2.05404
2.05991
2.06431
2.06681
2.0685
2.06939
2.06966
2.06931
2.06873
2.06753
2.06658
2.06508
2.06354
2.061
2.05834
2.05483
2.05145
2.04734
2.04337
2.0388
2.03431
2.02941
2.02446
2.01927
2.01392
2.0084
2.00272
1.99702
1.99118
1.98535
1.97939
1.97345
1.9674
1.96141
1.95527
1.94927
1.94307
1.93712
1.93093
1.92507
1.91898
1.91322
1.90725
1.90152
1.89563
1.88989
1.88405
1.87826
1.87248
1.86667
1.86103
1.85526
1.84985
1.84425
1.83928
1.8342
1.83028
1.82724
2.21397
2.19227
2.17028
2.14618
2.12659
2.11019
2.10133
2.10175
2.11436
2.12927
2.16073
2.20557
2.26151
2.2963
2.30798
2.30697
2.30066
2.28541
2.26075
2.23475
2.21223
2.189
2.16821
2.14611
2.12548
2.10416
2.08469
2.06501
2.04758
2.03059
2.01648
2.00313
1.99286
1.98439
1.97903
1.97561
1.97383
1.97314
1.9763
1.98376
1.99356
2.00514
2.01561
2.02551
2.03262
2.03855
2.0418
2.04427
2.0453
2.04552
2.04518
2.04435
2.04359
2.04245
2.04154
2.03971
2.03777
2.03467
2.03174
2.02787
2.02422
2.01982
2.0156
2.0108
2.00609
2.00094
1.9958
1.99034
1.98496
1.97934
1.97377
1.968
1.96224
1.95634
1.95043
1.94449
1.9385
1.93259
1.92658
1.92072
1.91475
1.90896
1.90306
1.89733
1.89153
1.88583
1.88009
1.87439
1.8687
1.86297
1.85737
1.85166
1.84624
1.84064
1.83552
1.83022
1.82564
1.82105
1.81765
1.81505
2.20248
2.18491
2.16634
2.14644
2.12788
2.11754
2.11539
2.12674
2.14096
2.1714
2.21414
2.26895
2.30429
2.31824
2.31797
2.3127
2.29958
2.27654
2.25498
2.2337
2.21395
2.19359
2.1735
2.15263
2.1322
2.11152
2.09134
2.07141
2.0523
2.03428
2.01753
2.00237
1.98878
1.97628
1.96733
1.95911
1.9556
1.95167
1.95152
1.95178
1.95692
1.96522
1.97635
1.98707
1.99804
2.00609
2.01322
2.01714
2.02057
2.0215
2.02273
2.02228
2.02181
2.02086
2.02019
2.01869
2.01726
2.01439
2.01183
2.00814
2.00479
2.00054
1.99656
1.99186
1.98729
1.98217
1.97715
1.97178
1.96654
1.96102
1.95565
1.95003
1.94457
1.93887
1.9333
1.92752
1.9218
1.91598
1.91014
1.90433
1.89845
1.89271
1.8869
1.8813
1.87561
1.87012
1.86454
1.85911
1.85359
1.84817
1.84272
1.83734
1.83206
1.82684
1.82195
1.81713
1.81299
1.80902
1.80633
1.80417
2.18322
2.16756
2.15581
2.14475
2.13567
2.13189
2.14294
2.15616
2.18481
2.22579
2.27901
2.31281
2.32711
2.32717
2.32224
2.30946
2.28865
2.26855
2.24983
2.23247
2.21388
2.19576
2.17564
2.15658
2.13571
2.11611
2.09507
2.0755
2.05562
2.03728
2.01942
2.00277
1.98724
1.97337
1.96103
1.95098
1.94319
1.93753
1.93412
1.9312
1.93136
1.93264
1.93884
1.94824
1.95868
1.96962
1.97879
1.98691
1.99199
1.9963
1.99783
1.99928
1.99887
1.99797
1.99736
1.99611
1.99501
1.9927
1.9906
1.98729
1.98434
1.98039
1.97667
1.97217
1.96781
1.96283
1.95804
1.95284
1.94783
1.94247
1.93731
1.93183
1.9265
1.92097
1.91546
1.90993
1.90425
1.89876
1.89298
1.88755
1.88176
1.87641
1.87071
1.86545
1.8599
1.85472
1.84933
1.8442
1.83897
1.83386
1.82881
1.82378
1.81901
1.81418
1.80992
1.80563
1.8023
1.79907
1.79718
1.7953
2.1762
2.15854
2.14507
2.14042
2.14319
2.15828
2.17302
2.20346
2.24436
2.29494
2.32643
2.33796
2.33712
2.33116
2.31848
2.29817
2.27942
2.2627
2.24686
2.23155
2.21447
2.19763
2.17848
2.16033
2.13978
2.12093
2.09987
2.08122
2.06059
2.04288
2.02329
2.00703
1.98936
1.97492
1.9598
1.94775
1.93568
1.92724
1.91954
1.91479
1.9104
1.90869
1.90879
1.91115
1.91791
1.92753
1.93803
1.94837
1.9573
1.96412
1.96901
1.9715
1.97309
1.9728
1.97216
1.97103
1.97021
1.96847
1.96667
1.9638
1.96106
1.95761
1.95406
1.95002
1.94569
1.94118
1.93644
1.93166
1.92666
1.92166
1.91648
1.91132
1.90601
1.90078
1.89541
1.89017
1.88474
1.87951
1.87403
1.86886
1.86337
1.85832
1.85291
1.84801
1.84274
1.83796
1.83286
1.82817
1.82323
1.81861
1.81393
1.80939
1.80518
1.80092
1.79754
1.79405
1.79189
1.78952
1.78877
1.78755
2.1709
2.15727
2.14624
2.14948
2.16252
2.18041
2.21429
2.26195
2.31287
2.34388
2.35434
2.3528
2.34543
2.33069
2.31113
2.29338
2.27724
2.26306
2.24831
2.23364
2.21718
2.20049
2.18241
2.16431
2.14524
2.12592
2.10628
2.08645
2.06703
2.04762
2.02893
2.01063
1.99292
1.97606
1.95986
1.94511
1.93115
1.91929
1.90836
1.90062
1.89354
1.88894
1.88478
1.88426
1.88448
1.8883
1.89628
1.90608
1.91686
1.92632
1.9345
1.94005
1.94395
1.94538
1.94615
1.94526
1.94465
1.94343
1.94224
1.94006
1.9376
1.93469
1.93138
1.92784
1.9237
1.91957
1.91492
1.91041
1.9054
1.9006
1.89537
1.8904
1.88509
1.88009
1.87475
1.86982
1.86445
1.85962
1.85423
1.84948
1.84415
1.83948
1.83429
1.82972
1.8247
1.82025
1.81545
1.81105
1.80658
1.80225
1.79823
1.79411
1.7907
1.78724
1.78481
1.78256
1.78133
1.78051
1.78121
1.78073
2.15518
2.15168
2.15334
2.16916
2.18966
2.22359
2.27618
2.32513
2.35376
2.36215
2.36006
2.35153
2.33493
2.31761
2.30039
2.28602
2.27253
2.26014
2.24666
2.23273
2.21719
2.20103
2.18368
2.16577
2.14718
2.12789
2.10869
2.08873
2.0696
2.04981
2.0312
2.01208
1.9943
1.97622
1.95967
1.94295
1.9281
1.9136
1.90084
1.88961
1.87994
1.87277
1.86629
1.86186
1.8585
1.85859
1.85951
1.86479
1.87347
1.88339
1.89363
1.90271
1.90985
1.91506
1.91779
1.9193
1.91904
1.91836
1.91756
1.91628
1.91421
1.91169
1.90845
1.90517
1.90108
1.89732
1.89265
1.88849
1.88342
1.87899
1.87376
1.86923
1.86395
1.85943
1.85418
1.84965
1.84446
1.83987
1.83475
1.83014
1.82512
1.82055
1.81568
1.81121
1.80654
1.80222
1.7978
1.79369
1.78959
1.78591
1.7822
1.77933
1.77631
1.77467
1.77297
1.77249
1.77254
1.77385
1.77629
1.77611
2.1517
2.15501
2.16973
2.19847
2.23613
2.2916
2.34424
2.3736
2.37868
2.37538
2.3635
2.34317
2.32343
2.30695
2.29244
2.28055
2.26882
2.257
2.24394
2.22971
2.21458
2.19839
2.18176
2.16403
2.14616
2.12716
2.10849
2.08887
2.07014
2.05055
2.03203
2.01288
1.99492
1.97637
1.95921
1.94171
1.92602
1.90973
1.896
1.88175
1.87057
1.85955
1.85169
1.84399
1.8386
1.83405
1.83275
1.83283
1.83506
1.84142
1.85086
1.86104
1.87126
1.87984
1.88653
1.89084
1.893
1.89369
1.89297
1.89232
1.89082
1.88906
1.88581
1.88296
1.87898
1.87567
1.87125
1.86745
1.86263
1.85842
1.85337
1.84894
1.84386
1.83934
1.83432
1.82978
1.82481
1.82027
1.8154
1.81088
1.80617
1.80176
1.79727
1.79304
1.78881
1.78478
1.78082
1.77718
1.77345
1.77054
1.76737
1.76542
1.76372
1.76294
1.76296
1.76384
1.76624
1.76892
1.77444
1.77648
2.15241
2.16671
2.19715
2.24226
2.30752
2.35983
2.38652
2.3892
2.38491
2.37123
2.34854
2.32879
2.31221
2.29907
2.28722
2.2764
2.26524
2.25325
2.24025
2.22596
2.21104
2.19513
2.1788
2.16149
2.14401
2.12551
2.1073
2.08828
2.06972
2.05059
2.03196
2.01312
1.99456
1.97623
1.95807
1.94066
1.92312
1.90663
1.89054
1.87584
1.86235
1.84977
1.83935
1.82965
1.8225
1.81512
1.81046
1.80674
1.80683
1.80745
1.81179
1.81975
1.8298
1.84088
1.85059
1.85908
1.86462
1.86816
1.86928
1.86906
1.86817
1.8671
1.86479
1.86222
1.85841
1.85518
1.85092
1.84723
1.84272
1.83875
1.83416
1.83003
1.82537
1.82111
1.81639
1.81199
1.80728
1.80269
1.79807
1.79334
1.78892
1.7842
1.78011
1.77555
1.77187
1.76766
1.7644
1.76073
1.75805
1.75526
1.75367
1.75231
1.75239
1.7527
1.75492
1.75721
1.76166
1.76783
1.77849
1.78496
2.16132
2.19915
2.25961
2.32608
2.37456
2.39812
2.39905
2.39125
2.37293
2.35123
2.33074
2.31366
2.3
2.28758
2.27647
2.26512
2.25428
2.24219
2.22948
2.21579
2.20124
2.18639
2.17049
2.15435
2.13715
2.11983
2.10168
2.08375
2.06496
2.0469
2.028
2.00978
1.99086
1.97281
1.95421
1.93634
1.91866
1.90231
1.88616
1.87188
1.85696
1.84471
1.83154
1.82129
1.81073
1.80322
1.79513
1.78998
1.78519
1.78462
1.78503
1.78723
1.79328
1.80242
1.81267
1.82338
1.83215
1.83927
1.8434
1.84568
1.84566
1.84506
1.8438
1.84217
1.83927
1.83627
1.83262
1.82904
1.8251
1.82125
1.81709
1.81306
1.80868
1.80452
1.79998
1.79575
1.79117
1.78688
1.7824
1.77803
1.77372
1.76935
1.76534
1.76108
1.75759
1.7537
1.75087
1.74783
1.74584
1.74422
1.7436
1.74372
1.74454
1.74676
1.74966
1.75495
1.76321
1.77504
1.78983
1.79823
2.18481
2.26736
2.35085
2.40025
2.41827
2.41513
2.404
2.38066
2.35534
2.33439
2.31785
2.3052
2.29489
2.28422
2.27356
2.26244
2.25094
2.23909
2.22594
2.21266
2.19787
2.18306
2.16703
2.15076
2.13389
2.11659
2.09903
2.08097
2.06276
2.04438
2.02555
2.00688
1.988
1.96952
1.95134
1.93383
1.91697
1.9005
1.88487
1.86925
1.85462
1.84012
1.82669
1.81398
1.80258
1.7924
1.78401
1.77684
1.77035
1.7658
1.76356
1.76379
1.7648
1.76837
1.77565
1.7853
1.79595
1.80561
1.81405
1.81948
1.82303
1.82365
1.82327
1.8224
1.82058
1.81815
1.81493
1.81115
1.80759
1.80341
1.79968
1.79535
1.79142
1.78711
1.78295
1.77881
1.77446
1.77062
1.76618
1.76263
1.75829
1.75491
1.75085
1.74765
1.74408
1.74138
1.73859
1.73701
1.73575
1.73593
1.73639
1.73835
1.74069
1.7452
1.75145
1.76181
1.77532
1.79013
1.80698
1.81522
2.23649
2.38608
2.44724
2.45553
2.44234
2.42324
2.38935
2.36057
2.3376
2.31937
2.30551
2.29298
2.28223
2.27182
2.26108
2.2501
2.23844
2.22706
2.21457
2.20216
2.18824
2.17421
2.15917
2.14343
2.12723
2.10992
2.09256
2.07425
2.05603
2.03743
2.01911
2.00099
1.98295
1.96534
1.948
1.9309
1.91436
1.89798
1.88225
1.8666
1.85177
1.8372
1.82362
1.81046
1.79856
1.78722
1.77754
1.76859
1.76165
1.75471
1.74982
1.74623
1.74629
1.74697
1.74932
1.75456
1.76307
1.77313
1.7839
1.79294
1.80008
1.80442
1.80617
1.80596
1.80482
1.80335
1.80075
1.79746
1.79364
1.78959
1.78574
1.78146
1.7776
1.77316
1.76922
1.76478
1.76075
1.75646
1.75251
1.74851
1.74477
1.74117
1.73774
1.73475
1.73186
1.7299
1.72811
1.72788
1.72828
1.7292
1.73142
1.73521
1.74062
1.74942
1.76204
1.77681
1.79344
1.80892
1.82417
1.8304
2.3378
2.5032
2.5148
2.48502
2.45323
2.41351
2.38038
2.35419
2.3331
2.31704
2.30453
2.29304
2.282
2.27073
2.25934
2.24759
2.23534
2.22301
2.21009
2.19672
2.18275
2.16788
2.15269
2.13661
2.12045
2.10347
2.08649
2.06903
2.05158
2.03395
2.01624
1.99879
1.98135
1.96426
1.94722
1.93057
1.91414
1.89807