/*--------------------------------*- C++ -*----------------------------------*\
| =========                 |                                                 |
| \\      /  F ield         | OpenFOAM: The Open Source CFD Toolbox           |
|  \\    /   O peration     | Version:  2112                                  |
|   \\  /    A nd           | Website:  www.openfoam.com                      |
|    \\/     M anipulation  |                                                 |
\*---------------------------------------------------------------------------*/
FoamFile
{
    version     2.0;
    format      ascii;
    arch        "LSB;label=32;scalar=64";
    class       volVectorField;
    location    "7.5";
    object      U;
}
// * * * * * * * * * * * * * * * * * * * * * * * * * * * * * * * * * * * * * //

dimensions      [0 1 -1 0 0 0 0];

internalField   nonuniform List<vector> 
5250
(
(2.99999 1.51502e-08 0)
(2.99998 1.17185e-07 0)
(2.99995 3.61216e-07 0)
(2.99988 1.08652e-06 0)
(2.99969 2.58031e-06 0)
(2.99932 6.79561e-06 0)
(2.99815 1.54895e-05 0)
(2.99617 3.93915e-05 0)
(2.98845 8.75286e-05 0)
(2.97607 0.000233465 0)
(2.92619 0.000533806 0)
(2.80884 0.00136856 0)
(2.47724 0.00389542 0)
(1.46033 0.01031 0)
(0.680172 0.0239924 0)
(0.545257 0.0245852 0)
(0.564032 0.0251997 0)
(0.552004 0.0265401 0)
(0.495858 0.0280244 0)
(0.408407 0.0297898 0)
(0.327752 0.0320891 0)
(0.260052 0.0347225 0)
(0.191074 0.0374236 0)
(0.113812 0.0403635 0)
(0.0490634 0.0440528 0)
(2.99999 4.5402e-08 0)
(2.99998 3.52436e-07 0)
(2.99995 1.08526e-06 0)
(2.99988 3.27254e-06 0)
(2.9997 7.77464e-06 0)
(2.99933 2.05422e-05 0)
(2.99818 4.69223e-05 0)
(2.99623 0.000119736 0)
(2.98861 0.0002666 0)
(2.97644 0.000717347 0)
(2.92709 0.00164128 0)
(2.81185 0.00424827 0)
(2.48406 0.0120822 0)
(1.47411 0.0322397 0)
(0.689156 0.0731754 0)
(0.54173 0.0708215 0)
(0.561324 0.0692456 0)
(0.550023 0.0707407 0)
(0.494051 0.0727079 0)
(0.407024 0.0755428 0)
(0.326724 0.0792409 0)
(0.258921 0.0831889 0)
(0.189528 0.0867458 0)
(0.111551 0.0900283 0)
(0.0465711 0.0926432 0)
(2.99999 7.24734e-08 0)
(2.99998 5.63473e-07 0)
(2.99995 1.73383e-06 0)
(2.99989 5.23612e-06 0)
(2.9997 1.2423e-05 0)
(2.99936 3.30403e-05 0)
(2.99823 7.47936e-05 0)
(2.99635 0.000195609 0)
(2.98894 0.000426752 0)
(2.97723 0.00120464 0)
(2.92899 0.00265068 0)
(2.81823 0.00764594 0)
(2.49885 0.0206555 0)
(1.50615 0.0567743 0)
(0.711217 0.128814 0)
(0.536843 0.120852 0)
(0.559461 0.11602 0)
(0.550796 0.118745 0)
(0.495967 0.122677 0)
(0.410323 0.128562 0)
(0.330805 0.135368 0)
(0.262875 0.142517 0)
(0.192792 0.149223 0)
(0.113526 0.155127 0)
(0.0467062 0.158626 0)
(2.99999 9.33707e-08 0)
(2.99998 7.25132e-07 0)
(2.99995 2.23072e-06 0)
(2.99989 6.73438e-06 0)
(2.99972 1.59294e-05 0)
(2.99939 4.26844e-05 0)
(2.99831 9.49114e-05 0)
(2.99652 0.000257496 0)
(2.98945 0.000544131 0)
(2.97832 0.00161793 0)
(2.93219 0.00340635 0)
(2.82808 0.010986 0)
(2.52213 0.027415 0)
(1.56261 0.0817903 0)
(0.750423 0.186544 0)
(0.533016 0.170675 0)
(0.561236 0.161544 0)
(0.557015 0.165737 0)
(0.503594 0.171881 0)
(0.419519 0.181188 0)
(0.340466 0.191477 0)
(0.272175 0.202424 0)
(0.20099 0.213187 0)
(0.119264 0.222642 0)
(0.0487865 0.227672 0)
(2.99999 1.10716e-07 0)
(2.99998 8.60203e-07 0)
(2.99996 2.6455e-06 0)
(2.9999 7.99474e-06 0)
(2.99973 1.88778e-05 0)
(2.99942 5.09334e-05 0)
(2.99841 0.00011201 0)
(2.99673 0.00031191 0)
(2.99007 0.000647746 0)
(2.97964 0.00197773 0)
(2.93641 0.00409668 0)
(2.83983 0.0138176 0)
(2.55326 0.0328841 0)
(1.64549 0.105972 0)
(0.803619 0.245932 0)
(0.527397 0.21994 0)
(0.564935 0.205914 0)
(0.56751 0.211686 0)
(0.515979 0.220017 0)
(0.433942 0.232689 0)
(0.355477 0.246787 0)
(0.286793 0.262063 0)
(0.214145 0.277666 0)
(0.128895 0.29181 0)
(0.0528957 0.299483 0)
(3 1.22639e-07 0)
(2.99999 9.51946e-07 0)
(2.99996 2.92665e-06 0)
(2.99991 8.84704e-06 0)
(2.99975 2.08126e-05 0)
(2.99946 5.68232e-05 0)
(2.99853 0.000121708 0)
(2.99697 0.000358584 0)
(2.99082 0.000704481 0)
(2.98123 0.00235506 0)
(2.94158 0.00474024 0)
(2.85387 0.016484 0)
(2.5923 0.0391106 0)
(1.75611 0.128421 0)
(0.87282 0.306915 0)
(0.522393 0.2695 0)
(0.572978 0.250413 0)
(0.584104 0.257489 0)
(0.534388 0.26786 0)
(0.454679 0.284199 0)
(0.376758 0.302687 0)
(0.307656 0.323267 0)
(0.233299 0.34528 0)
(0.143438 0.366363 0)
(0.0596938 0.379132 0)
(3 1.3222e-07 0)
(2.99999 1.02451e-06 0)
(2.99996 3.1496e-06 0)
(2.99991 9.51512e-06 0)
(2.99977 2.23226e-05 0)
(2.99951 6.14396e-05 0)
(2.99866 0.0001286 0)
(2.99722 0.000397179 0)
(2.99172 0.000734451 0)
(2.98304 0.00268997 0)
(2.94764 0.00524296 0)
(2.87058 0.0186095 0)
(2.63869 0.0443894 0)
(1.89439 0.145357 0)
(0.963291 0.360935 0)
(0.526388 0.318465 0)
(0.59043 0.29574 0)
(0.609982 0.30284 0)
(0.561611 0.314816 0)
(0.484351 0.335615 0)
(0.406734 0.359417 0)
(0.337158 0.386661 0)
(0.261199 0.417131 0)
(0.165902 0.448763 0)
(0.0711873 0.471757 0)
(3 1.44077e-07 0)
(2.99999 1.11737e-06 0)
(2.99997 3.43681e-06 0)
(2.99992 1.03845e-05 0)
(2.9998 2.44301e-05 0)
(2.99955 6.67978e-05 0)
(2.99881 0.000141902 0)
(2.99748 0.000427965 0)
(2.99272 0.000794772 0)
(2.98502 0.00289005 0)
(2.95429 0.00560247 0)
(2.88878 0.0196481 0)
(2.68949 0.047917 0)
(2.053 0.154247 0)
(1.07593 0.402491 0)
(0.551633 0.372486 0)
(0.622153 0.349003 0)
(0.64787 0.351093 0)
(0.601094 0.363033 0)
(0.526273 0.387776 0)
(0.448393 0.417377 0)
(0.378177 0.452789 0)
(0.30119 0.494146 0)
(0.20106 0.541952 0)
(0.09127 0.586042 0)
(3 1.51633e-07 0)
(2.99999 1.16639e-06 0)
(2.99997 3.59126e-06 0)
(2.99993 1.07731e-05 0)
(2.99982 2.54453e-05 0)
(2.9996 6.79726e-05 0)
(2.99897 0.00014912 0)
(2.99776 0.0004144 0)
(2.99376 0.000827311 0)
(2.98708 0.00266471 0)
(2.96111 0.00523944 0)
(2.90809 0.0174085 0)
(2.7425 0.0431741 0)
(2.22767 0.130043 0)
(1.24239 0.36062 0)
(0.626312 0.402801 0)
(0.676991 0.403899 0)
(0.700238 0.399277 0)
(0.655913 0.414396 0)
(0.583163 0.441298 0)
(0.504735 0.477429 0)
(0.43417 0.521172 0)
(0.358704 0.575726 0)
(0.258833 0.64857 0)
(0.128955 0.737324 0)
(3 4.99538e-08 0)
(2.99999 1.59366e-06 0)
(2.99997 3.1022e-06 0)
(2.99994 1.40275e-05 0)
(2.99985 2.25249e-05 0)
(2.99966 8.89265e-05 0)
(2.9991 0.000125027 0)
(2.99804 0.000549467 0)
(2.99459 0.000555569 0)
(2.98872 0.00345963 0)
(2.9662 0.00207801 0)
(2.92206 0.0215177 0)
(2.77528 0.020625 0)
(2.33744 0.113814 0)
(1.3975 0.259877 0)
(0.680583 0.431971 0)
(0.704161 0.459637 0)
(0.731371 0.454446 0)
(0.705507 0.470615 0)
(0.642924 0.49706 0)
(0.570775 0.538688 0)
(0.504233 0.590162 0)
(0.439139 0.662313 0)
(0.356183 0.776526 0)
(0.20118 0.981019 0)
(3 1.15392e-07 0)
(2.99999 8.97818e-07 0)
(2.99998 2.76433e-06 0)
(2.99995 8.33143e-06 0)
(2.99988 1.97329e-05 0)
(2.99969 5.23958e-05 0)
(2.99935 0.000117622 0)
(2.99812 0.000308246 0)
(2.99617 0.000673547 0)
(2.98837 0.00185927 0)
(2.97555 0.00392064 0)
(2.92483 0.0115367 0)
(2.80341 0.029995 0)
(2.46539 0.0764051 0)
(1.4926 0.238915 0)
(0.761941 0.480675 0)
(0.70792 0.506901 0)
(0.739323 0.505566 0)
(0.736161 0.520806 0)
(0.693627 0.549101 0)
(0.638098 0.594026 0)
(0.587161 0.653614 0)
(0.552361 0.740819 0)
(0.546878 0.880267 0)
(0.572986 1.11579 0)
(3 1.90654e-07 0)
(2.99999 2.71636e-07 0)
(2.99998 2.63928e-06 0)
(2.99995 3.26669e-06 0)
(2.99988 1.84177e-05 0)
(2.99974 1.99238e-05 0)
(2.99931 0.000118954 0)
(2.99851 9.47466e-05 0)
(2.99588 0.000835212 0)
(2.99142 0.000484494 0)
(2.97424 0.00603686 0)
(2.94363 0.00338859 0)
(2.82818 0.0396851 0)
(2.51539 0.0591955 0)
(1.75771 0.223785 0)
(0.879485 0.524335 0)
(0.71597 0.536743 0)
(0.747574 0.540061 0)
(0.761678 0.556732 0)
(0.738592 0.590814 0)
(0.703532 0.638797 0)
(0.675204 0.704655 0)
(0.673092 0.796994 0)
(0.721981 0.928259 0)
(0.837844 1.10035 0)
(3 9.27131e-08 0)
(2.99999 7.24185e-07 0)
(2.99998 2.22407e-06 0)
(2.99996 6.75044e-06 0)
(2.9999 1.59223e-05 0)
(2.99977 4.28699e-05 0)
(2.99941 9.55894e-05 0)
(2.99872 0.000259749 0)
(2.9965 0.000543383 0)
(2.99271 0.00167345 0)
(2.97815 0.003174 0)
(2.95298 0.0111825 0)
(2.85601 0.0235749 0)
(2.59922 0.0832491 0)
(1.96863 0.208607 0)
(1.01152 0.56163 0)
(0.725501 0.564414 0)
(0.759053 0.567916 0)
(0.787524 0.584072 0)
(0.782226 0.622485 0)
(0.765846 0.673791 0)
(0.760209 0.740367 0)
(0.782094 0.82677 0)
(0.852615 0.932709 0)
(0.9855 1.03811 0)
(3 9.21957e-08 0)
(2.99999 7.15109e-07 0)
(2.99999 2.19883e-06 0)
(2.99997 6.6314e-06 0)
(2.99991 1.56711e-05 0)
(2.9998 4.17772e-05 0)
(2.99949 9.35107e-05 0)
(2.99888 0.00024885 0)
(2.99706 0.0005277 0)
(2.99362 0.00157122 0)
(2.98204 0.00295189 0)
(2.96097 0.0108289 0)
(2.88416 0.0209113 0)
(2.68501 0.080748 0)
(2.17527 0.196515 0)
(1.17604 0.575848 0)
(0.761353 0.595223 0)
(0.785604 0.601842 0)
(0.821025 0.6113 0)
(0.82947 0.647818 0)
(0.825925 0.699434 0)
(0.835565 0.761985 0)
(0.872048 0.835632 0)
(0.948045 0.916673 0)
(1.07552 0.984534 0)
(3 9.30808e-08 0)
(3 7.2416e-07 0)
(2.99999 2.22863e-06 0)
(2.99997 6.73344e-06 0)
(2.99993 1.59788e-05 0)
(2.99984 4.25902e-05 0)
(2.99958 9.60897e-05 0)
(2.99908 0.000251036 0)
(2.9976 0.000557788 0)
(2.99473 0.00148753 0)
(2.98577 0.00320562 0)
(2.96825 0.00930381 0)
(2.91041 0.0202327 0)
(2.76377 0.0650631 0)
(2.38034 0.161839 0)
(1.38453 0.493688 0)
(0.85075 0.607135 0)
(0.837036 0.635073 0)
(0.863979 0.645123 0)
(0.882195 0.673028 0)
(0.88609 0.718772 0)
(0.902667 0.774312 0)
(0.945094 0.835058 0)
(1.02037 0.896707 0)
(1.13655 0.944905 0)
(3 8.50161e-08 0)
(3 6.61794e-07 0)
(2.99999 2.0365e-06 0)
(2.99998 6.15213e-06 0)
(2.99994 1.46061e-05 0)
(2.99987 3.88905e-05 0)
(2.99967 8.78953e-05 0)
(2.99926 0.000227594 0)
(2.99808 0.000515792 0)
(2.99583 0.00129498 0)
(2.9885 0.00305341 0)
(2.97539 0.00734569 0)
(2.92827 0.0182827 0)
(2.81354 0.0473443 0)
(2.50242 0.124843 0)
(1.58657 0.360237 0)
(0.942614 0.632224 0)
(0.875759 0.671009 0)
(0.897455 0.686332 0)
(0.925043 0.700913 0)
(0.939561 0.73595 0)
(0.961528 0.782214 0)
(1.00569 0.832123 0)
(1.0773 0.879728 0)
(1.18111 0.915642 0)
(3 7.04399e-08 0)
(3 5.45993e-07 0)
(2.99999 1.68157e-06 0)
(2.99998 5.05796e-06 0)
(2.99995 1.1989e-05 0)
(2.9999 3.17225e-05 0)
(2.99974 7.1403e-05 0)
(2.99944 0.000184486 0)
(2.99849 0.000410143 0)
(2.99685 0.00106238 0)
(2.99078 0.00235935 0)
(2.9811 0.00631072 0)
(2.94226 0.0140813 0)
(2.85749 0.0404596 0)
(2.60552 0.104422 0)
(1.82179 0.308686 0)
(1.09493 0.671506 0)
(0.90533 0.702772 0)
(0.919188 0.718054 0)
(0.953107 0.723713 0)
(0.982341 0.749332 0)
(1.01132 0.787206 0)
(1.05651 0.828383 0)
(1.12378 0.866152 0)
(1.21599 0.893819 0)
(3 5.76839e-08 0)
(3 4.44006e-07 0)
(2.99999 1.36859e-06 0)
(2.99999 4.09503e-06 0)
(2.99996 9.68588e-06 0)
(2.99992 2.54795e-05 0)
(2.99979 5.70325e-05 0)
(2.99955 0.000147967 0)
(2.99882 0.00031825 0)
(2.99746 0.000884225 0)
(2.99285 0.00174193 0)
(2.98525 0.00564341 0)
(2.95554 0.0109551 0)
(2.89294 0.037559 0)
(2.7021 0.0879194 0)
(2.09539 0.282905 0)
(1.29363 0.690932 0)
(0.957694 0.732872 0)
(0.951275 0.740883 0)
(0.982005 0.742814 0)
(1.02099 0.758436 0)
(1.05529 0.789262 0)
(1.1002 0.82375 0)
(1.16285 0.85464 0)
(1.24496 0.876634 0)
(3 3.05826e-08 0)
(3 4.32251e-07 0)
(3 1.04152e-06 0)
(2.99999 3.87079e-06 0)
(2.99997 7.55021e-06 0)
(2.99994 2.41191e-05 0)
(2.99984 4.50214e-05 0)
(2.99965 0.000140602 0)
(2.9991 0.000255007 0)
(2.99804 0.000834855 0)
(2.99472 0.00135159 0)
(2.98884 0.00536446 0)
(2.96794 0.00717954 0)
(2.92502 0.0348408 0)
(2.79258 0.0599975 0)
(2.39159 0.230321 0)
(1.5896 0.574511 0)
(1.07182 0.738773 0)
(1.01278 0.758765 0)
(1.02561 0.76577 0)
(1.06322 0.771431 0)
(1.10017 0.793106 0)
(1.1421 0.820831 0)
(1.19842 0.846066 0)
(1.27086 0.86372 0)
(3 2.34963e-08 0)
(3 3.31078e-07 0)
(3 7.98488e-07 0)
(2.99999 2.96673e-06 0)
(2.99998 5.78784e-06 0)
(2.99995 1.84505e-05 0)
(2.99989 3.44564e-05 0)
(2.99972 0.000106985 0)
(2.99939 0.000196321 0)
(2.99838 0.000619471 0)
(2.99661 0.00108241 0)
(2.99014 0.00378831 0)
(2.97942 0.0056851 0)
(2.93891 0.0240264 0)
(2.84631 0.0408351 0)
(2.57983 0.147487 0)
(1.81708 0.400328 0)
(1.19162 0.743088 0)
(1.05677 0.779367 0)
(1.06153 0.793933 0)
(1.09757 0.793388 0)
(1.13969 0.802359 0)
(1.18099 0.821749 0)
(1.23175 0.841211 0)
(1.29548 0.855084 0)
(3 4.7801e-08 0)
(3 1.73234e-07 0)
(3 8.24851e-07 0)
(2.99999 1.72898e-06 0)
(2.99999 5.72751e-06 0)
(2.99996 1.09024e-05 0)
(2.99992 3.37682e-05 0)
(2.99979 6.24891e-05 0)
(2.99953 0.000194227 0)
(2.99878 0.000344451 0)
(2.99736 0.00115921 0)
(2.99268 0.00184433 0)
(2.98477 0.00739111 0)
(2.95479 0.0113054 0)
(2.89098 0.0479748 0)
(2.6993 0.0978123 0)
(2.10145 0.336711 0)
(1.38803 0.748527 0)
(1.11159 0.808244 0)
(1.0981 0.819762 0)
(1.12514 0.817423 0)
(1.17122 0.815534 0)
(1.21559 0.826351 0)
(1.26269 0.839973 0)
(1.31932 0.849966 0)
(3 3.08052e-08 0)
(3 1.6782e-07 0)
(3 6.24553e-07 0)
(3 1.60295e-06 0)
(2.99999 4.414e-06 0)
(2.99997 1.01252e-05 0)
(2.99993 2.63176e-05 0)
(2.99986 5.89166e-05 0)
(2.99963 0.000151529 0)
(2.99918 0.00033757 0)
(2.99786 0.000872222 0)
(2.9953 0.00192192 0)
(2.98734 0.0052301 0)
(2.9716 0.0111014 0)
(2.92142 0.0326331 0)
(2.79728 0.0827617 0)
(2.45097 0.226496 0)
(1.64222 0.649488 0)
(1.21317 0.811068 0)
(1.15138 0.83368 0)
(1.16186 0.839247 0)
(1.2033 0.832755 0)
(1.24915 0.834884 0)
(1.29289 0.842485 0)
(1.34286 0.848506 0)
(3 1.76495e-08 0)
(3 1.37723e-07 0)
(3 4.23732e-07 0)
(3 1.2806e-06 0)
(2.99999 3.03684e-06 0)
(2.99998 8.07477e-06 0)
(2.99996 1.8211e-05 0)
(2.99989 4.72322e-05 0)
(2.99976 0.000105387 0)
(2.99938 0.00027186 0)
(2.99868 0.000611067 0)
(2.99631 0.00155289 0)
(2.99242 0.00359209 0)
(2.97753 0.0089395 0)
(2.95113 0.0219174 0)
(2.85366 0.0558919 0)
(2.60101 0.158372 0)
(1.98136 0.418745 0)
(1.33409 0.801812 0)
(1.19642 0.848636 0)
(1.19446 0.862518 0)
(1.22895 0.856256 0)
(1.2773 0.847802 0)
(1.32104 0.847813 0)
(1.36645 0.849833 0)
(3 1.94893e-08 0)
(3 7.33469e-08 0)
(3 3.40134e-07 0)
(3 7.32034e-07 0)
(2.99999 2.36841e-06 0)
(2.99999 4.63295e-06 0)
(2.99997 1.39661e-05 0)
(2.99993 2.66662e-05 0)
(2.99982 7.97982e-05 0)
(2.9996 0.000149081 0)
(2.99893 0.000465132 0)
(2.99778 0.000811209 0)
(2.9935 0.0028687 0)
(2.98675 0.00461974 0)
(2.9604 0.0184426 0)
(2.90596 0.0316733 0)
(2.7376 0.122933 0)
(2.24548 0.308473 0)
(1.56226 0.756748 0)
(1.2674 0.86059 0)
(1.23512 0.879273 0)
(1.25315 0.878928 0)
(1.29793 0.865226 0)
(1.34507 0.857328 0)
(1.38934 0.854327 0)
(3 9.08854e-09 0)
(3 7.03293e-08 0)
(3 2.16833e-07 0)
(3 6.50612e-07 0)
(3 1.5413e-06 0)
(2.99999 4.05636e-06 0)
(2.99998 9.10224e-06 0)
(2.99995 2.33504e-05 0)
(2.99986 5.15803e-05 0)
(2.9997 0.000133706 0)
(2.99924 0.000285719 0)
(2.99832 0.000797432 0)
(2.9956 0.00158022 0)
(2.99051 0.00498555 0)
(2.97373 0.00986966 0)
(2.94025 0.0309951 0)
(2.83326 0.0744819 0)
(2.52527 0.222542 0)
(1.88237 0.590829 0)
(1.3908 0.850178 0)
(1.29315 0.885823 0)
(1.2895 0.896666 0)
(1.32155 0.885437 0)
(1.36739 0.870121 0)
(1.41108 0.862234 0)
(3 5.34355e-09 0)
(3 6.02899e-08 0)
(3 1.57822e-07 0)
(3 5.44503e-07 0)
(3 1.13771e-06 0)
(2.99999 3.38806e-06 0)
(2.99998 6.79052e-06 0)
(2.99996 1.95954e-05 0)
(2.99991 3.89367e-05 0)
(2.9998 0.000111782 0)
(2.99948 0.000221039 0)
(2.99886 0.00063893 0)
(2.99698 0.0012448 0)
(2.99367 0.00375354 0)
(2.98173 0.0068644 0)
(2.96096 0.023346 0)
(2.88573 0.0440034 0)
(2.69311 0.155854 0)
(2.21288 0.382374 0)
(1.54748 0.841664 0)
(1.34234 0.906723 0)
(1.32218 0.915672 0)
(1.34017 0.90731 0)
(1.38372 0.887219 0)
(1.43033 0.87329 0)
(3 3.8077e-09 0)
(3 4.21363e-08 0)
(3 1.11104e-07 0)
(3 3.81144e-07 0)
(3 8.00451e-07 0)
(3 2.36726e-06 0)
(2.99999 4.76292e-06 0)
(2.99997 1.36341e-05 0)
(2.99994 2.71649e-05 0)
(2.99985 7.73252e-05 0)
(2.99967 0.000153208 0)
(2.99917 0.000440634 0)
(2.99819 0.000850669 0)
(2.99521 0.00261337 0)
(2.98982 0.00459083 0)
(2.97166 0.0165326 0)
(2.93441 0.0281787 0)
(2.82053 0.105845 0)
(2.50106 0.25099 0)
(1.86214 0.669484 0)
(1.45396 0.879892 0)
(1.37813 0.911883 0)
(1.3741 0.919151 0)
(1.4049 0.904764 0)
(1.44956 0.883811 0)
(3 4.46317e-09 0)
(3 2.4043e-08 0)
(3 8.95018e-08 0)
(3 2.29449e-07 0)
(3 6.28632e-07 0)
(3 1.43799e-06 0)
(2.99999 3.70453e-06 0)
(2.99998 8.26296e-06 0)
(2.99996 2.09978e-05 0)
(2.9999 4.64853e-05 0)
(2.99978 0.000117987 0)
(2.99944 0.000260034 0)
(2.99879 0.000666705 0)
(2.99679 0.00144736 0)
(2.99332 0.00389355 0)
(2.98071 0.00813322 0)
(2.95903 0.0235102 0)
(2.87948 0.0540259 0)
(2.67662 0.15917 0)
(2.18603 0.423435 0)
(1.58989 0.850336 0)
(1.42389 0.917133 0)
(1.40545 0.929481 0)
(1.42156 0.922405 0)
(1.4624 0.898929 0)
(3 3.66659e-09 0)
(3 1.56756e-08 0)
(3 6.71432e-08 0)
(3 1.53276e-07 0)
(3 4.66753e-07 0)
(3 9.63894e-07 0)
(3 2.73752e-06 0)
(2.99999 5.53491e-06 0)
(2.99997 1.54682e-05 0)
(2.99993 3.10807e-05 0)
(2.99985 8.67205e-05 0)
(2.99963 0.000173215 0)
(2.99918 0.000489605 0)
(2.99789 0.000947483 0)
(2.99539 0.00288347 0)
(2.98781 0.00504702 0)
(2.9728 0.0180695 0)
(2.92619 0.0305935 0)
(2.8097 0.117677 0)
(2.50502 0.264009 0)
(1.8434 0.719551 0)
(1.50955 0.896482 0)
(1.4483 0.927112 0)
(1.44699 0.93321 0)
(1.47686 0.917378 0)
(3 2.44503e-09 0)
(3 1.04109e-08 0)
(3 4.46888e-08 0)
(3 1.01996e-07 0)
(3 3.11108e-07 0)
(3 6.42337e-07 0)
(3 1.82754e-06 0)
(2.99999 3.69458e-06 0)
(2.99998 1.03457e-05 0)
(2.99996 2.08084e-05 0)
(2.9999 5.81333e-05 0)
(2.99978 0.000116544 0)
(2.99944 0.000327093 0)
(2.99878 0.000651823 0)
(2.99675 0.00186334 0)
(2.99326 0.00364865 0)
(2.98055 0.0109725 0)
(2.95833 0.0217303 0)
(2.87805 0.0680214 0)
(2.67643 0.164605 0)
(2.18082 0.463565 0)
(1.63787 0.863447 0)
(1.49254 0.929913 0)
(1.47416 0.941447 0)
(1.48829 0.934009 0)
(3 1.071e-09 0)
(3 8.27774e-09 0)
(3 2.55256e-08 0)
(3 7.63725e-08 0)
(3 1.80897e-07 0)
(3 4.73381e-07 0)
(3 1.06345e-06 0)
(3 2.70016e-06 0)
(2.99999 5.98976e-06 0)
(2.99997 1.51023e-05 0)
(2.99993 3.33435e-05 0)
(2.99985 8.40961e-05 0)
(2.99962 0.000184788 0)
(2.99917 0.000472997 0)
(2.99789 0.00101108 0)
(2.99539 0.00277262 0)
(2.98787 0.00558211 0)
(2.97303 0.0170029 0)
(2.92725 0.0353293 0)
(2.81271 0.112979 0)
(2.51317 0.287057 0)
(1.88908 0.726744 0)
(1.57178 0.908577 0)
(1.51128 0.938449 0)
(1.50793 0.940034 0)
(3 6.03488e-10 0)
(3 6.15823e-09 0)
(3 1.6781e-08 0)
(3 5.56653e-08 0)
(3 1.1986e-07 0)
(3 3.43576e-07 0)
(3 7.06852e-07 0)
(3 1.96116e-06 0)
(2.99999 3.9959e-06 0)
(2.99998 1.10026e-05 0)
(2.99996 2.23596e-05 0)
(2.99991 6.15227e-05 0)
(2.99976 0.000124672 0)
(2.99947 0.000344442 0)
(2.99866 0.000693629 0)
(2.99707 0.0019491 0)
(2.99232 0.00384868 0)
(2.98324 0.0113766 0)
(2.95465 0.0225149 0)
(2.88778 0.0704217 0)
(2.7048 0.163446 0)
(2.19157 0.485657 0)
(1.71636 0.857211 0)
(1.55784 0.931849 0)
(1.53179 0.940355 0)
(3 4.81968e-10 0)
(3 3.72018e-09 0)
(3 1.14731e-08 0)
(3 3.43073e-08 0)
(3 8.12914e-08 0)
(3 2.12802e-07 0)
(3 4.78474e-07 0)
(3 1.21625e-06 0)
(3 2.70236e-06 0)
(2.99999 6.82384e-06 0)
(2.99997 1.51127e-05 0)
(2.99994 3.81347e-05 0)
(2.99986 8.42923e-05 0)
(2.99965 0.000213205 0)
(2.99923 0.000470288 0)
(2.99802 0.0011982 0)
(2.99569 0.00263921 0)
(2.98869 0.00685048 0)
(2.97474 0.0153515 0)
(2.93258 0.0404599 0)
(2.83021 0.105666 0)
(2.54604 0.281746 0)
(1.95874 0.711263 0)
(1.63914 0.89978 0)
(1.56307 0.931685 0)
(3 4.42378e-10 0)
(3 1.90504e-09 0)
(3 8.08719e-09 0)
(3 1.8659e-08 0)
(3 5.62434e-08 0)
(3 1.17208e-07 0)
(3 3.29107e-07 0)
(3 6.70922e-07 0)
(3 1.8518e-06 0)
(2.99999 3.75578e-06 0)
(2.99998 1.03235e-05 0)
(2.99996 2.08934e-05 0)
(2.99991 5.74512e-05 0)
(2.99979 0.000115963 0)
(2.99948 0.000320551 0)
(2.99888 0.000642938 0)
(2.99703 0.00181026 0)
(2.99383 0.00358413 0)
(2.98242 0.010466 0)
(2.96266 0.0213472 0)
(2.89215 0.0630408 0)
(2.71812 0.15613 0)
(2.28834 0.430981 0)
(1.76807 0.836407 0)
(1.59008 0.920118 0)
(3 1.89198e-10 0)
(3 1.45949e-09 0)
(3 4.50405e-09 0)
(3 1.34541e-08 0)
(3 3.18633e-08 0)
(3 8.31594e-08 0)
(3 1.86672e-07 0)
(3 4.72379e-07 0)
(3 1.04717e-06 0)
(3 2.62948e-06 0)
(2.99999 5.8085e-06 0)
(2.99998 1.45576e-05 0)
(2.99994 3.20765e-05 0)
(2.99987 8.04718e-05 0)
(2.99967 0.000176672 0)
(2.99926 0.000448674 0)
(2.99814 0.000961399 0)
(2.9959 0.00259462 0)
(2.98947 0.0052426 0)
(2.97614 0.0156811 0)
(2.93769 0.0323067 0)
(2.84238 0.100965 0)
(2.59132 0.253919 0)
(2.0211 0.656515 0)
(1.65653 0.87519 0)
(3 9.60575e-11 0)
(3 9.9544e-10 0)
(3 2.69163e-09 0)
(3 8.97056e-09 0)
(3 1.91646e-08 0)
(3 5.50599e-08 0)
(3 1.12227e-07 0)
(3 3.11796e-07 0)
(3 6.28542e-07 0)
(3 1.73262e-06 0)
(2.99999 3.48128e-06 0)
(2.99998 9.58351e-06 0)
(2.99996 1.92107e-05 0)
(2.99992 5.29654e-05 0)
(2.99979 0.000105767 0)
(2.99953 0.000293237 0)
(2.99881 0.000581311 0)
(2.9974 0.00163568 0)
(2.99326 0.00321213 0)
(2.98534 0.0093217 0)
(2.96056 0.0186676 0)
(2.90493 0.0566199 0)
(2.7499 0.128465 0)
(2.31145 0.389046 0)
(1.79169 0.743802 0)
(3 5.28803e-11 0)
(3 5.89757e-10 0)
(3 1.54898e-09 0)
(3 5.29779e-09 0)
(3 1.10477e-08 0)
(3 3.24447e-08 0)
(3 6.45417e-08 0)
(3 1.83181e-07 0)
(3 3.59828e-07 0)
(3 1.01376e-06 0)
(3 1.97947e-06 0)
(2.99999 5.57341e-06 0)
(2.99998 1.08195e-05 0)
(2.99994 3.05368e-05 0)
(2.99987 5.88663e-05 0)
(2.99966 0.000167306 0)
(2.99925 0.000319961 0)
(2.9981 0.000926169 0)
(2.99585 0.00172956 0)
(2.98908 0.00533546 0)
(2.97581 0.00926393 0)
(2.93489 0.0319831 0)
(2.83693 0.0623544 0)
(2.57111 0.199212 0)
(1.95789 0.493084 0)
(3 6.34615e-11 0)
(3 2.28164e-10 0)
(3 1.08702e-09 0)
(3 2.26821e-09 0)
(3 7.44288e-09 0)
(3 1.40444e-08 0)
(3 4.27509e-08 0)
(3 7.82966e-08 0)
(3 2.35201e-07 0)
(3 4.24044e-07 0)
(3 1.27781e-06 0)
(2.99999 2.27121e-06 0)
(2.99998 6.90545e-06 0)
(2.99996 1.20696e-05 0)
(2.9999 3.7215e-05 0)
(2.99975 6.36296e-05 0)
(2.99945 0.000200864 0)
(2.99858 0.000331784 0)
(2.99693 0.00110247 0)
(2.99163 0.0016818 0)
(2.98264 0.00634811 0)
(2.94915 0.0087025 0)
(2.87849 0.0375531 0)
(2.66884 0.0635529 0)
(2.08332 0.222327 0)
(3 3.71878e-11 0)
(3 1.01393e-10 0)
(3 5.86887e-10 0)
(3 1.04633e-09 0)
(3 3.9629e-09 0)
(3 6.39874e-09 0)
(3 2.24099e-08 0)
(3 3.45092e-08 0)
(3 1.20924e-07 0)
(3 1.78671e-07 0)
(3 6.43887e-07 0)
(2.99999 9.10913e-07 0)
(2.99998 3.41853e-06 0)
(2.99996 4.60662e-06 0)
(2.99991 1.81297e-05 0)
(2.9998 2.28864e-05 0)
(2.99948 9.58112e-05 0)
(2.99885 0.000107527 0)
(2.99697 0.00051505 0)
(2.99343 0.000393441 0)
(2.98167 0.00312332 0)
(2.95967 0.000450894 0)
(2.88216 0.018481 0)
(2.68413 0.00751785 0)
(2.17772 0.0693089 0)
(3 1.07889e-11 0)
(3 8.23529e-11 0)
(3 2.54851e-10 0)
(3 7.50935e-10 0)
(3 1.77231e-09 0)
(3 4.52083e-09 0)
(3 1.0053e-08 0)
(3 2.4695e-08 0)
(3 5.40171e-08 0)
(3 1.31205e-07 0)
(3 2.85512e-07 0)
(2.99999 6.90837e-07 0)
(2.99999 1.50096e-06 0)
(2.99997 3.6209e-06 0)
(2.99992 7.86111e-06 0)
(2.99981 1.8862e-05 0)
(2.99952 4.08659e-05 0)
(2.99893 9.72581e-05 0)
(2.99717 0.000209895 0)
(2.99379 0.000491379 0)
(2.98276 0.00108644 0)
(2.96171 0.00244436 0)
(2.8871 0.00546119 0)
(2.69346 0.0125171 0)
(2.17801 0.0255491 0)
(3 -4.09442e-12 0)
(3 7.95022e-11 0)
(3 7.79331e-11 0)
(3 6.59289e-10 0)
(3 6.1038e-10 0)
(3 3.99621e-09 0)
(3 3.57576e-09 0)
(3 2.27848e-08 0)
(3 1.97595e-08 0)
(3 1.28733e-07 0)
(3 1.08966e-07 0)
(2.99999 7.31006e-07 0)
(2.99999 6.09347e-07 0)
(2.99997 4.19879e-06 0)
(2.99992 3.4481e-06 0)
(2.99982 2.44652e-05 0)
(2.99954 1.84675e-05 0)
(2.99899 0.000148319 0)
(2.9973 6.42589e-05 0)
(2.99416 0.000965035 0)
(2.98328 -0.000207139 0)
(2.96332 0.0060416 0)
(2.88991 -0.00312186 0)
(2.69917 0.0286196 0)
(2.18777 0.0187351 0)
(3 -7.56779e-12 0)
(3 5.01342e-11 0)
(3 -9.81721e-12 0)
(3 3.96127e-10 0)
(3 -4.66002e-12 0)
(3 2.39523e-09 0)
(3 -2.38614e-12 0)
(3 1.37936e-08 0)
(3 -2.6226e-10 0)
(3 7.90061e-08 0)
(3 -2.54989e-09 0)
(2.99999 4.55203e-07 0)
(2.99999 -1.52131e-08 0)
(2.99997 2.6514e-06 0)
(2.99993 -7.38372e-08 0)
(2.99983 1.56978e-05 0)
(2.99962 -5.03722e-07 0)
(2.99896 9.57765e-05 0)
(2.99785 -1.61439e-05 0)
(2.99357 0.00066443 0)
(2.98689 -0.000496033 0)
(2.95945 0.0051254 0)
(2.90196 -0.00437092 0)
(2.72345 0.0251977 0)
(2.15969 0.0173188 0)
(3 2.49305e-12 0)
(3 1.34649e-11 0)
(3 4.95257e-11 0)
(3 1.26968e-10 0)
(3 3.39379e-10 0)
(3 7.69236e-10 0)
(3 1.92207e-09 0)
(3 4.22667e-09 0)
(3 1.04291e-08 0)
(3 2.27555e-08 0)
(3 5.63829e-08 0)
(2.99999 1.22787e-07 0)
(2.99999 3.07961e-07 0)
(2.99997 6.69095e-07 0)
(2.99993 1.70901e-06 0)
(2.99982 3.7002e-06 0)
(2.99961 9.95123e-06 0)
(2.99898 1.9745e-05 0)
(2.99777 6.49601e-05 0)
(2.99377 0.000109427 0)
(2.98699 0.000450256 0)
(2.96068 0.000854317 0)
(2.90552 0.00297037 0)
(2.73324 0.0077378 0)
(2.18697 0.0228233 0)
(3 1.13542e-11 0)
(3 -2.11297e-11 0)
(3 9.9526e-11 0)
(3 -1.30644e-10 0)
(3 6.29789e-10 0)
(3 -7.86839e-10 0)
(3 3.57231e-09 0)
(3 -4.87281e-09 0)
(3 1.97962e-08 0)
(3 -3.0196e-08 0)
(3 1.09353e-07 0)
(2.99999 -1.85998e-07 0)
(2.99999 6.06081e-07 0)
(2.99997 -1.14532e-06 0)
(2.99994 3.39241e-06 0)
(2.99983 -7.14445e-06 0)
(2.99963 1.94128e-05 0)
(2.99901 -4.63732e-05 0)
(2.99792 0.000124923 0)
(2.99389 -0.000369538 0)
(2.98751 0.00113173 0)
(2.96149 -0.00326075 0)
(2.90794 0.0086404 0)
(2.73942 -0.0118173 0)
(2.2061 0.0218361 0)
(3 9.59443e-12 0)
(3 -3.18741e-11 0)
(3 6.13757e-11 0)
(3 -2.27714e-10 0)
(3 3.69261e-10 0)
(3 -1.37398e-09 0)
(3 2.06063e-09 0)
(3 -8.19757e-09 0)
(3 1.11474e-08 0)
(3 -4.91414e-08 0)
(3 5.89224e-08 0)
(3 -2.96941e-07 0)
(2.99999 3.0397e-07 0)
(2.99997 -1.81942e-06 0)
(2.99993 1.54068e-06 0)
(2.99984 -1.13504e-05 0)
(2.99958 8.57212e-06 0)
(2.99906 -7.44856e-05 0)
(2.9975 7.60702e-05 0)
(2.9946 -0.000543744 0)
(2.98459 0.000913422 0)
(2.96636 -0.00373947 0)
(2.89972 0.0074144 0)
(2.7292 -0.0146368 0)
(2.27201 0.0150642 0)
(3 4.81962e-13 0)
(3 3.95009e-12 0)
(3 1.1888e-11 0)
(3 3.68609e-11 0)
(3 8.65549e-11 0)
(3 2.3654e-10 0)
(3 5.29696e-10 0)
(3 1.41407e-09 0)
(3 3.14046e-09 0)
(3 8.39397e-09 0)
(3 1.8694e-08 0)
(3 5.02684e-08 0)
(2.99999 1.12662e-07 0)
(2.99997 3.04322e-07 0)
(2.99993 6.85475e-07 0)
(2.99984 1.8585e-06 0)
(2.99958 4.18413e-06 0)
(2.99907 1.15064e-05 0)
(2.99753 2.54136e-05 0)
(2.99459 7.52736e-05 0)
(2.98493 0.000150427 0)
(2.9668 0.000523157 0)
(2.90207 0.00118131 0)
(2.73648 0.00401858 0)
(2.289 0.0103454 0)
(3 -7.58158e-12 0)
(3 4.37757e-11 0)
(3 -1.7537e-11 0)
(3 3.40208e-10 0)
(3 -5.37395e-11 0)
(3 2.10151e-09 0)
(3 -1.0927e-10 0)
(3 1.26245e-08 0)
(3 6.75636e-10 0)
(3 7.59901e-08 0)
(3 1.2779e-08 0)
(3 4.60689e-07 0)
(2.99999 1.31264e-07 0)
(2.99997 2.82148e-06 0)
(2.99993 1.08199e-06 0)
(2.99984 1.74766e-05 0)
(2.99959 6.10962e-06 0)
(2.99908 0.000114044 0)
(2.99756 -5.18012e-06 0)
(2.9947 0.000763121 0)
(2.98496 -0.00053184 0)
(2.96723 0.00467123 0)
(2.90252 -0.00491891 0)
(2.73744 0.0214241 0)
(2.29471 0.00231386 0)
(3 -6.16251e-14 0)
(3 -1.87253e-13 0)
(3 -9.04759e-13 0)
(3 -1.08187e-12 0)
(3 -2.36435e-12 0)
(3 9.01419e-12 0)
(3 2.97678e-11 0)
(3 1.80042e-10 0)
(3 4.72265e-10 0)
(3 1.83346e-09 0)
(3 4.50952e-09 0)
(3 1.51916e-08 0)
(2.99999 3.62382e-08 0)
(2.99997 1.14317e-07 0)
(2.99994 2.68107e-07 0)
(2.99984 8.16994e-07 0)
(2.99966 1.90257e-06 0)
(2.99906 5.65077e-06 0)
(2.99807 1.32226e-05 0)
(2.99415 3.70739e-05 0)
(2.98811 9.6588e-05 0)
(2.96327 0.000246786 0)
(2.91293 0.000647856 0)
(2.75199 0.00199606 0)
(2.25808 0.00581873 0)
(3 7.5055e-12 0)
(3 -4.40314e-11 0)
(3 1.6383e-11 0)
(3 -3.41437e-10 0)
(3 5.05832e-11 0)
(3 -2.08965e-09 0)
(3 1.42855e-10 0)
(3 -1.23985e-08 0)
(3 -1.09687e-10 0)
(3 -7.364e-08 0)
(3 -7.10504e-09 0)
(3 -4.40427e-07 0)
(2.99999 -8.31842e-08 0)
(2.99997 -2.66181e-06 0)
(2.99993 -7.07207e-07 0)
(2.99984 -1.62817e-05 0)
(2.99959 -3.32337e-06 0)
(2.99909 -0.000105327 0)
(2.99758 2.51662e-05 0)
(2.99477 -0.000699411 0)
(2.98514 0.000675479 0)
(2.96769 -0.00419781 0)
(2.90398 0.0060727 0)
(2.74189 -0.0174736 0)
(2.30749 0.00836628 0)
(3 -7.41365e-13 0)
(3 -5.7405e-12 0)
(3 -1.74013e-11 0)
(3 -5.03511e-11 0)
(3 -1.16147e-10 0)
(3 -2.94436e-10 0)
(3 -6.44352e-10 0)
(3 -1.59242e-09 0)
(3 -3.4519e-09 0)
(3 -8.47619e-09 0)
(3 -1.83865e-08 0)
(3 -4.48264e-08 0)
(2.99999 -9.77942e-08 0)
(2.99997 -2.34797e-07 0)
(2.99993 -5.16985e-07 0)
(2.99984 -1.20398e-06 0)
(2.99959 -2.65733e-06 0)
(2.99908 -5.69776e-06 0)
(2.99758 -1.34391e-05 0)
(2.99469 -1.01836e-05 0)
(2.98527 -0.000107784 0)
(2.96766 0.000150703 0)
(2.9049 -0.000143251 0)
(2.74519 0.00132762 0)
(2.31498 0.00312874 0)
(1.1479 0.994671 0)
(1.11825 0.701823 0)
(0.373696 0.474118 0)
(-0.468319 0.0861817 0)
(-0.44897 -0.0126245 0)
(-0.667465 -0.0185114 0)
(-0.742321 -0.0165166 0)
(-0.791167 0.00274534 0)
(-0.847409 0.0178061 0)
(-0.913302 0.0201685 0)
(-0.973902 0.0155229 0)
(-1.02574 0.00920876 0)
(-1.07339 0.0058201 0)
(-1.11956 0.00337501 0)
(-1.16454 0.000902816 0)
(-1.20897 7.19956e-05 0)
(-1.24314 0.0029269 0)
(-1.25939 0.00351979 0)
(-1.26381 0.00215556 0)
(-1.2609 -0.000148735 0)
(-1.2444 -0.0032649 0)
(-1.20842 -0.0066929 0)
(-1.15554 -0.0103143 0)
(-1.09076 -0.0135575 0)
(-1.01975 -0.0159108 0)
(-0.946604 -0.0173403 0)
(-0.873592 -0.0180379 0)
(-0.801495 -0.018458 0)
(-0.731543 -0.0185153 0)
(-0.664177 -0.0183475 0)
(-0.599183 -0.0181153 0)
(-0.536188 -0.0180316 0)
(-0.474828 -0.018156 0)
(-0.414901 -0.0185623 0)
(-0.354411 -0.0208606 0)
(-0.29544 -0.0220267 0)
(-0.238836 -0.0231471 0)
(-0.183777 -0.023821 0)
(-0.130365 -0.0243796 0)
(-0.0778532 -0.0252394 0)
(-0.0289165 -0.0274436 0)
(0.02679 -0.0275838 0)
(0.0769691 -0.0252494 0)
(0.12332 -0.0234424 0)
(0.16839 -0.0225183 0)
(0.21121 -0.0215162 0)
(0.252362 -0.0205294 0)
(0.290566 -0.0194261 0)
(0.327507 -0.0188102 0)
(0.365752 -0.0188558 0)
(0.403974 -0.0184962 0)
(0.440496 -0.0177376 0)
(0.475523 -0.0168971 0)
(0.509421 -0.0161441 0)
(0.54237 -0.0154989 0)
(0.574441 -0.0148896 0)
(0.60571 -0.0143237 0)
(0.636206 -0.0137651 0)
(0.66599 -0.0132405 0)
(0.695084 -0.0127223 0)
(0.723542 -0.0122289 0)
(0.751383 -0.0117444 0)
(0.778647 -0.011279 0)
(0.805363 -0.0108208 0)
(0.831558 -0.0103809 0)
(0.857253 -0.00994567 0)
(0.882479 -0.00953203 0)
(0.907248 -0.00912679 0)
(0.931589 -0.00873864 0)
(0.955513 -0.00836093 0)
(0.979039 -0.00799676 0)
(1.00218 -0.0076431 0)
(1.02496 -0.00730117 0)
(1.04737 -0.00696955 0)
(1.06944 -0.00664668 0)
(1.09117 -0.0063343 0)
(1.11256 -0.00602695 0)
(1.13362 -0.00573016 0)
(1.15433 -0.00543606 0)
(1.17471 -0.00515195 0)
(1.19475 -0.00487022 0)
(1.21444 -0.00459782 0)
(1.23379 -0.00432823 0)
(1.25279 -0.00406731 0)
(1.27146 -0.00380871 0)
(1.28978 -0.00355801 0)
(1.30776 -0.00330845 0)