/*--------------------------------*- C++ -*----------------------------------*\
| =========                 |                                                 |
| \\      /  F ield         | OpenFOAM: The Open Source CFD Toolbox           |
|  \\    /   O peration     | Version:  2112                                  |
|   \\  /    A nd           | Website:  www.openfoam.com                      |
|    \\/     M anipulation  |                                                 |
\*---------------------------------------------------------------------------*/
FoamFile
{
    version     2.0;
    format      ascii;
    arch        "LSB;label=32;scalar=64";
    class       volScalarField;
    location    "20.5";
    object      p;
}
// * * * * * * * * * * * * * * * * * * * * * * * * * * * * * * * * * * * * * //

dimensions      [0 2 -2 0 0 0 0];

internalField   nonuniform List<scalar> 
8800
(
0.409426
0.361642
0.322959
0.293968
0.273106
0.258274
0.247669
0.240168
0.235299
0.233136
0.234247
0.238267
0.244758
0.253948
0.266635
0.284303
0.309032
0.342938
0.385455
0.444153
0.240668
0.248347
0.255832
0.259145
0.257647
0.252575
0.246094
0.240009
0.235249
0.232326
0.231906
0.234229
0.238548
0.24435
0.251
0.25719
0.260768
0.259996
0.254525
0.245806
0.219064
0.225232
0.229377
0.232342
0.234409
0.235025
0.233917
0.231797
0.229728
0.228696
0.229483
0.231671
0.23429
0.236322
0.236807
0.235509
0.233083
0.229625
0.225033
0.221264
0.213252
0.215911
0.218693
0.221131
0.222801
0.223987
0.224739
0.224842
0.224481
0.224295
0.224848
0.225806
0.226441
0.226321
0.225555
0.22433
0.222403
0.219741
0.217283
0.215777
0.207873
0.209306
0.211142
0.213242
0.215089
0.216479
0.217488
0.218268
0.218826
0.219253
0.219664
0.219889
0.21974
0.219232
0.218332
0.216899
0.21504
0.213054
0.211672
0.210846
0.202838
0.203764
0.205093
0.20678
0.208532
0.210159
0.21151
0.212578
0.213463
0.214183
0.214597
0.214618
0.214275
0.213533
0.212359
0.210887
0.209315
0.207854
0.206939
0.206402
0.198039
0.198706
0.199782
0.201244
0.202815
0.204424
0.205988
0.207379
0.208532
0.209436
0.209932
0.209906
0.209393
0.20846
0.207261
0.205955
0.20462
0.203439
0.202748
0.202368
0.193489
0.19398
0.194912
0.196289
0.197795
0.199346
0.200926
0.202463
0.203834
0.204936
0.20555
0.205546
0.205012
0.204123
0.203048
0.201866
0.200646
0.199611
0.199062
0.198792
0.189272
0.189636
0.190436
0.191703
0.193144
0.194622
0.196113
0.19763
0.199136
0.200469
0.20123
0.201321
0.20096
0.200305
0.19943
0.198397
0.197315
0.196435
0.196006
0.195812
0.18536
0.185607
0.186337
0.187582
0.189016
0.190531
0.192135
0.193747
0.195323
0.196783
0.197813
0.198197
0.198041
0.197469
0.196662
0.195729
0.194728
0.193927
0.193587
0.193468
0.182026
0.182165
0.182753
0.183847
0.185127
0.186487
0.187955
0.189587
0.191333
0.193068
0.194374
0.19501
0.195121
0.194905
0.194432
0.193775
0.193004
0.192399
0.192182
0.192124
0.17914
0.179216
0.179617
0.18046
0.18154
0.182785
0.184217
0.185853
0.187684
0.189662
0.191365
0.192445
0.192962
0.193076
0.192929
0.192607
0.19219
0.191883
0.191787
0.191752
0.176108
0.176173
0.176451
0.177065
0.177955
0.179074
0.180491
0.182238
0.184341
0.186728
0.188895
0.19038
0.191291
0.191748
0.191964
0.192012
0.191955
0.19191
0.191885
0.191848
0.172346
0.172406
0.172653
0.173154
0.173918
0.174969
0.176459
0.178348
0.180736
0.1836
0.186358
0.188424
0.189825
0.190738
0.191315
0.191697
0.191936
0.192053
0.192062
0.19202
0.167677
0.167737
0.168008
0.168542
0.169359
0.170558
0.17225
0.174501
0.177384
0.180895
0.184366
0.187023
0.188856
0.19016
0.191071
0.191698
0.192109
0.192288
0.192319
0.192278
0.162122
0.162165
0.162477
0.163176
0.164124
0.165573
0.167589
0.170281
0.17378
0.178122
0.18248
0.185901
0.188351
0.19008
0.191286
0.192141
0.192641
0.192867
0.192929
0.192893
0.155776
0.155814
0.156163
0.157031
0.158298
0.160014
0.162496
0.165799
0.170112
0.175481
0.180937
0.18527
0.188414
0.190642
0.192183
0.19322
0.193821
0.194118
0.194224
0.194191
0.14854
0.14857
0.148976
0.149969
0.151603
0.153751
0.156788
0.160866
0.166199
0.172869
0.179669
0.185109
0.189088
0.191912
0.19389
0.195163
0.19594
0.19635
0.196496
0.196459
0.140162
0.14019
0.140695
0.141834
0.143751
0.146507
0.150255
0.155329
0.16197
0.170275
0.178743
0.185537
0.19051
0.194057
0.19652
0.198154
0.199168
0.199717
0.199902
0.199856
0.13015
0.13019
0.130797
0.132214
0.134552
0.137937
0.142641
0.149015
0.157346
0.167713
0.178227
0.186629
0.192782
0.197203
0.20027
0.202338
0.20365
0.204357
0.204581
0.204522
0.117893
0.117951
0.118736
0.120516
0.123448
0.127728
0.1337
0.141786
0.152283
0.165218
0.178219
0.188558
0.196147
0.201553
0.205337
0.207913
0.209561
0.210437
0.210711
0.210635
0.102581
0.102659
0.1037
0.106046
0.109886
0.115429
0.123142
0.133491
0.146752
0.162861
0.178851
0.191477
0.200698
0.207293
0.211929
0.21511
0.217153
0.218221
0.218553
0.218457
0.0830713
0.0831891
0.0846358
0.0878592
0.0930539
0.100443
0.110592
0.123969
0.140766
0.160751
0.180261
0.19553
0.206658
0.214639
0.220282
0.224189
0.226721
0.228047
0.228434
0.22831
0.0575983
0.0577957
0.0599356
0.0646061
0.0719343
0.0821132
0.0957492
0.113192
0.134443
0.159059
0.182622
0.200886
0.214184
0.223772
0.230613
0.235398
0.238517
0.240137
0.240593
0.240435
0.0231153
0.0235114
0.0270468
0.0344386
0.0453748
0.059918
0.07854
0.101331
0.128047
0.15804
0.186128
0.207683
0.223386
0.234807
0.243069
0.248948
0.25282
0.254812
0.255337
0.255129
-0.026235
-0.0247961
-0.0176347
-0.00470638
0.0125204
0.0337925
0.0592844
0.088835
0.122001
0.157996
0.190947
0.215991
0.234269
0.24771
0.257627
0.264858
0.269729
0.272242
0.272858
0.272576
-0.0998431
-0.0913344
-0.0748414
-0.0518702
-0.0251893
0.0050501
0.0389586
0.0763176
0.116667
0.159249
0.197543
0.226513
0.247808
0.263732
0.275822
0.285018
0.291498
0.295049
0.296033
0.295912
-0.178587
-0.159293
-0.132878
-0.099533
-0.0631445
-0.0238021
0.0186105
0.0639834
0.111954
0.161901
0.206632
0.24066
0.266007
0.285345
0.300432
0.312296
0.321141
0.326604
0.328514
0.328561
-0.242063
-0.220137
-0.185618
-0.143923
-0.0990158
-0.0512231
-0.000687306
0.0524301
0.107765
0.164715
0.215392
0.253918
0.282733
0.304868
0.322237
0.335925
0.346324
0.352867
0.354443
0.354708
-0.293701
-0.269762
-0.230318
-0.182657
-0.131056
-0.0762998
-0.0187006
0.0413964
0.103508
0.166931
0.222957
0.265304
0.296832
0.320946
0.339787
0.35465
0.365857
0.372769
0.374702
0.375059
-0.336092
-0.311266
-0.268317
-0.216079
-0.159233
-0.0988136
-0.0352429
0.0309565
0.0991148
0.168361
0.229108
0.274648
0.308244
0.333712
0.353449
0.368913
0.380424
0.387561
0.389827
0.390178
-0.372253
-0.346916
-0.301434
-0.245516
-0.184351
-0.119172
-0.0504929
0.0210475
0.094613
0.16911
0.234087
0.282352
0.317596
0.344023
0.36426
0.379916
0.391483
0.398627
0.401035
0.401349
-0.404112
-0.378494
-0.331047
-0.272112
-0.207333
-0.13804
-0.0648615
0.0114468
0.0899292
0.169271
0.238165
0.28896
0.325681
0.35287
0.373416
0.389113
0.400629
0.407746
0.410271
0.41057
-0.433121
-0.407244
-0.358192
-0.296697
-0.228808
-0.155923
-0.0787561
0.00187667
0.0849004
0.168842
0.241536
0.294765
0.332868
0.36078
0.381641
0.397406
0.408891
0.415914
0.418545
0.418826
-0.460129
-0.434016
-0.383585
-0.319887
-0.249284
-0.173239
-0.0924924
-0.00790884
0.0793658
0.167704
0.244124
0.299846
0.339444
0.368199
0.389465
0.405373
0.416873
0.423749
0.426377
0.426746
-0.48583
-0.459425
-0.407725
-0.342125
-0.269105
-0.190241
-0.106279
-0.018092
0.0731509
0.165736
0.245978
0.304413
0.345709
0.375445
0.397236
0.413373
0.424925
0.431705
0.434255
0.434616
-0.510506
-0.483773
-0.430927
-0.363674
-0.288493
-0.207127
-0.120273
-0.0287837
0.0661898
0.162967
0.247144
0.308478
0.351711
0.382642
0.405123
0.421616
0.433289
0.440023
0.442432
0.442722
-0.534489
-0.507363
-0.45362
-0.38472
-0.307616
-0.224006
-0.134539
-0.0400238
0.0584624
0.159301
0.247491
0.311992
0.357449
0.389843
0.413212
0.430198
0.442061
0.448772
0.451015
0.45121
-0.557829
-0.530241
-0.475711
-0.405344
-0.326533
-0.24092
-0.149108
-0.0518401
0.0498877
0.154622
0.24692
0.314885
0.362906
0.397042
0.421514
0.439135
0.451257
0.457949
0.460055
0.460103
-0.580603
-0.552616
-0.497242
-0.425596
-0.345268
-0.25788
-0.163988
-0.0642625
0.0404338
0.148893
0.245326
0.317008
0.367967
0.404185
0.429998
0.448398
0.460825
0.467449
0.469399
0.469315
-0.602881
-0.574435
-0.518257
-0.445473
-0.363813
-0.274859
-0.17914
-0.0772397
0.0301428
0.142079
0.242584
0.318193
0.372461
0.411171
0.43862
0.457936
0.470687
0.477177
0.478908
0.478709
-0.624685
-0.595711
-0.538769
-0.464951
-0.382107
-0.291799
-0.194492
-0.0906964
0.0190575
0.134151
0.238594
0.318252
0.376182
0.41786
0.447343
0.467743
0.480767
0.487014
0.488456
0.488154
-0.645847
-0.616383
-0.558718
-0.483985
-0.400105
-0.308622
-0.209966
-0.104549
0.00724315
0.12515
0.233272
0.316988
0.378871
0.424053
0.456142
0.477895
0.491033
0.496765
0.497808
0.497408
-0.666316
-0.636399
-0.578071
-0.502518
-0.417741
-0.325262
-0.225467
-0.11871
-0.00519958
0.115125
0.226577
0.314221
0.380213
0.42942
0.46493
0.488647
0.501728
0.506322
0.506677
0.50621
-0.686172
-0.655717
-0.596793
-0.520508
-0.434948
-0.341632
-0.240903
-0.133062
-0.0181598
0.104166
0.218501
0.30982
0.379882
0.433468
0.473398
0.500367
0.513765
0.516177
0.514862
0.51437
-0.705232
-0.674324
-0.614829
-0.537888
-0.451667
-0.357653
-0.256175
-0.147487
-0.0315074
0.0923985
0.209094
0.303688
0.377583
0.435511
0.480742
0.512985
0.528847
0.529126
0.523824
0.522153
-0.723589
-0.692212
-0.632202
-0.554687
-0.467932
-0.373369
-0.27134
-0.162048
-0.0453113
0.0797557
0.198241
0.295587
0.373021
0.434733
0.485451
0.525132
0.547572
0.550935
0.540943
0.520737
-0.741185
-0.70939
-0.649035
-0.571089
-0.484026
-0.389106
-0.286808
-0.177226
-0.0601192
0.0655686
0.185236
0.28464
0.365415
0.429964
0.484381
0.531802
0.560953
0.5615
0.545815
0.522514
-0.757865
-0.726026
-0.665155
-0.586842
-0.499665
-0.404523
-0.302352
-0.192688
-0.0755986
0.0501597
0.170289
0.270655
0.354351
0.420668
0.472635
0.520987
0.549118
0.540291
0.469268
0.429901
-0.773026
-0.743174
-0.68021
-0.601381
-0.514158
-0.419161
-0.317688
-0.208216
-0.0915317
0.0336818
0.153428
0.253546
0.339092
0.407281
0.450042
0.480813
0.494516
0.448896
0.373951
0.325766
-0.827053
-0.757806
-0.693901
-0.616077
-0.528896
-0.434368
-0.332882
-0.224065
-0.10824
0.0157596
0.134192
0.232996
0.317069
0.391533
0.399979
0.41216
0.382185
0.316735
0.234403
0.187962
-0.787953
-0.772733
-0.713552
-0.636955
-0.55012
-0.456086
-0.355793
-0.248119
-0.134011
-0.0125478
0.10232
0.1975
0.273237
0.343586
0.347551
0.234627
0.123114
0.0455733
-0.0345255
0.00654252
-0.81722
-0.789154
-0.729638
-0.653064
-0.566682
-0.473072
-0.372775
-0.266041
-0.153441
-0.0344238
0.0768225
0.167456
0.235745
0.274038
0.225413
0.0694337
-0.0727988
-0.175095
-0.288888
-0.222629
-0.839604
-0.808394
-0.748128
-0.671194
-0.584957
-0.491581
-0.391612
-0.286002
-0.17521
-0.0591551
0.0478037
0.132621
0.19151
0.200838
0.0876859
-0.112265
-0.287027
-0.422913
-0.587692
-0.529679
-0.861159
-0.828486
-0.767276
-0.689636
-0.603327
-0.51018
-0.410913
-0.306539
-0.197723
-0.0849408
0.017012
0.0953469
0.141346
0.112437
-0.0618834
-0.294499
-0.518871
-0.720822
-0.952939
-0.949801
-0.881727
-0.848922
-0.787015
-0.708773
-0.622371
-0.529514
-0.431044
-0.328004
-0.221385
-0.112216
-0.0158414
0.0554593
0.0840232
0.0174793
-0.206321
-0.459959
-0.725914
-0.965089
-1.26527
-1.62677
-0.902378
-0.869825
-0.807564
-0.728962
-0.642465
-0.549856
-0.452108
-0.350415
-0.24607
-0.140693
-0.0500714
0.0134095
0.0255696
-0.0924938
-0.333668
-0.588585
-0.848819
-1.0705
-1.15792
-1.29283
-0.923811
-0.891528
-0.829192
-0.750488
-0.664009
-0.571731
-0.474786
-0.374594
-0.272813
-0.171683
-0.0873047
-0.0332505
-0.0448123
-0.212001
-0.445703
-0.681263
-0.89066
-1.01661
-1.04035
-1.06626
-0.94636
-0.914325
-0.852018
-0.77337
-0.687061
-0.595255
-0.499319
-0.400897
-0.302075
-0.205812
-0.128216
-0.0849017
-0.123718
-0.322001
-0.547035
-0.756404
-0.91908
-0.984194
-0.998676
-1.0026
-0.970201
-0.938254
-0.876067
-0.797533
-0.711506
-0.620353
-0.525624
-0.429259
-0.333796
-0.243012
-0.172674
-0.142576
-0.204678
-0.425891
-0.641663
-0.830413
-0.955846
-0.974073
-0.975911
-0.975943
-0.995247
-0.963238
-0.901276
-0.8229
-0.737271
-0.646907
-0.553582
-0.459545
-0.367823
-0.283051
-0.220711
-0.203776
-0.293227
-0.521967
-0.730061
-0.898094
-0.945593
-0.960677
-0.963663
-0.963604
-1.02121
-0.989157
-0.927471
-0.84931
-0.764169
-0.674739
-0.583009
-0.491539
-0.403949
-0.325563
-0.272098
-0.265686
-0.398236
-0.612239
-0.808734
-0.952321
-0.971999
-0.962195
-0.957414
-0.956265
-1.04749
-1.01571
-0.954229
-0.876469
-0.791914
-0.703552
-0.613576
-0.524882
-0.441738
-0.370084
-0.325596
-0.334108
-0.503281
-0.704093
-0.861942
-0.97138
-0.965513
-0.956008
-0.951765
-0.949601
-1.0737
-1.04233
-0.981192
-0.90393
-0.820076
-0.732883
-0.644794
-0.559039
-0.480481
-0.416036
-0.380009
-0.408852
-0.601415
-0.803557
-0.891598
-0.89875
-0.935779
-0.941132
-0.939085
-0.939465
-1.09894
-1.06812
-1.00776
-0.93109
-0.848026
-0.762113
-0.675974
-0.593245
-0.519182
-0.462382
-0.434696
-0.482685
-0.697701
-0.927322
-0.98715
-0.892439
-0.963368
-0.994616
-1.0032
-1.00098
-1.12225
-1.09216
-1.03318
-0.957113
-0.875034
-0.79041
-0.706201
-0.626408
-0.55664
-0.507311
-0.489468
-0.557418
-0.807876
-1.10034
-1.52726
-1.55016
-1.31921
-1.24743
-1.23103
-1.21675
-1.14234
-1.11359
-1.05596
-0.981174
-0.900108
-0.816788
-0.73434
-0.657093
-0.59139
-0.548286
-0.542975
-0.624089
-0.923489
-1.16627
-1.34463
-1.384
-1.41022
-1.46208
-1.43765
-1.42965
-1.15788
-1.13096
-1.07536
-1.00191
-0.922085
-0.840039
-0.759116
-0.683662
-0.62121
-0.582656
-0.591416
-0.677997
-0.954838
-0.928521
-0.538311
-0.668403
-1.17804
-1.40907
-1.43505
-1.4442
-1.16758
-1.14307
-1.09005
-1.0183
-0.939735
-0.858883
-0.778997
-0.704441
-0.642948
-0.608004
-0.625648
-0.74257
-1.0937
-1.45457
-1.7756
-2.24523
-2.36523
-2.03767
-1.74808
-1.71908
-1.1699
-1.14863
-1.0989
-1.02923
-0.95197
-0.872054
-0.792539
-0.717653
-0.654256
-0.617799
-0.636258
-0.799719
-1.34741
-2.28778
-3.24391
-3.78491
-3.77741
-3.39195
-2.92214
-2.67892
-1.16427
-1.14664
-1.10097
-1.03389
-0.957954
-0.878644
-0.798643
-0.721608
-0.653535
-0.605387
-0.609063
-0.724702
-1.23263
-1.88359
-2.63548
-3.01663
-2.94385
-2.62442
-2.29492
-2.10212
-1.14968
-1.13554
-1.09558
-1.03202
-0.957373
-0.878264
-0.797
-0.716188
-0.638791
-0.571763
-0.53005
-0.487102
-0.602277
-0.645318
-0.588047
-0.410191
-0.11795
0.159889
0.354484
0.44086
-1.12713
-1.11688
-1.08294
-1.02369
-0.950442
-0.871253
-0.788297
-0.702455
-0.614122
-0.521938
-0.419394
-0.313746
-0.0213035
0.434275
0.973909
1.52522
1.95866
2.22877
2.36273
2.40311
-1.09869
-1.09227
-1.06494
-1.01007
-0.937922
-0.858743
-0.774494
-0.685145
-0.588069
-0.474119
-0.34577
-0.191782
0.0726662
0.633403
1.30886
1.91247
2.35234
2.60552
2.72261
2.75918
-1.06638
-1.06307
-1.04296
-0.99162
-0.920586
-0.84215
-0.758403
-0.668379
-0.56777
-0.448171
-0.31613
-0.172331
-1.65359e-05
0.40843
0.964955
1.44167
1.79627
2.00349
2.10665
2.14268
-1.02963
-1.02851
-1.0141
-0.967263
-0.898132
-0.821189
-0.740839
-0.654826
-0.558376
-0.442927
-0.318995
-0.21392
-0.12347
0.0908425
0.4596
0.785653
1.03399
1.18679
1.2638
1.28856
-0.970128
-0.970792
-0.960722
-0.922042
-0.861076
-0.792363
-0.721215
-0.644825
-0.557082
-0.449438
-0.331304
-0.244222
-0.191264
-0.0620275
0.191898
0.411455
0.572116
0.67267
0.728364
0.742141
-0.88218
-0.88184
-0.87451
-0.848549
-0.805051
-0.753838
-0.698792
-0.637149
-0.561182
-0.46065
-0.346136
-0.255615
-0.204383
-0.119415
0.0529066
0.185606
0.280073
0.335517
0.360623
0.367018
-0.793859
-0.79252
-0.787129
-0.772885
-0.747476
-0.715089
-0.67799
-0.633563
-0.573319
-0.481115
-0.366128
-0.26189
-0.189903
-0.124753
-0.0456395
0.0330441
0.0861979
0.118257
0.133247
0.13538
-0.735795
-0.734029
-0.730539
-0.723547
-0.710501
-0.692661
-0.671469
-0.644863
-0.604057
-0.527785
-0.410588
-0.283494
-0.181491
-0.129325
-0.0963792
-0.0636067
-0.0328486
-0.0109407
0.000416913
0.000900456
-0.714785
-0.713616
-0.711735
-0.70857
-0.702875
-0.696002
-0.689851
-0.684595
-0.674366
-0.638058
-0.535932
-0.389996
-0.265125
-0.218785
-0.195133
-0.155839
-0.120331
-0.0934985
-0.079812
-0.0808328
-0.717027
-0.716772
-0.716761
-0.717091
-0.718421
-0.723365
-0.73635
-0.763421
-0.809229
-0.860989
-0.815136
-0.634621
-0.471438
-0.415791
-0.364335
-0.29378
-0.22712
-0.18024
-0.159805
-0.161887
-0.725811
-0.726663
-0.728951
-0.73347
-0.742965
-0.762425
-0.800978
-0.876605
-1.02031
-1.22995
-1.2962
-1.03903
-0.776683
-0.658347
-0.56073
-0.446048
-0.344521
-0.273783
-0.247865
-0.252429
-0.724166
-0.72624
-0.730954
-0.738738
-0.756841
-0.791362
-0.858048
-0.992258
-1.26703
-1.7174
-1.92412
-1.58968
-1.16735
-0.945584
-0.783656
-0.618853
-0.485742
-0.406157
-0.387821
-0.392144
-0.696041
-0.698857
-0.704793
-0.716445
-0.739782
-0.78471
-0.870345
-1.04941
-1.42208
-2.04492
-2.38488
-2.01394
-1.49027
-1.20396
-0.992909
-0.811811
-0.692217
-0.633384
-0.62061
-0.622575
-0.632771
-0.635664
-0.641677
-0.653628
-0.6773
-0.722865
-0.811605
-0.994784
-1.37431
-1.99271
-2.28477
-1.94222
-1.53299
-1.29102
-1.07726
-0.953749
-0.905065
-0.886134
-0.870261
-0.865325
-0.536862
-0.539145
-0.543908
-0.553372
-0.572595
-0.609587
-0.681476
-0.828722
-1.13416
-1.61618
-1.82306
-1.59654
-1.34961
-1.14217
-1.0076
-0.959882
-0.968442
-0.965371
-0.952192
-0.945271
-0.421528
-0.422817
-0.425597
-0.431295
-0.44332
-0.466695
-0.511954
-0.603594
-0.793253
-1.10213
-1.25238
-1.14536
-0.978551
-0.834054
-0.775397
-0.797698
-0.828415
-0.833816
-0.829016
-0.82543
-0.304406
-0.304732
-0.305648
-0.307805
-0.31293
-0.323246
-0.343306
-0.383443
-0.465714
-0.611256
-0.695945
-0.626392
-0.539651
-0.495295
-0.53593
-0.589407
-0.614609
-0.621152
-0.622182
-0.621113
-0.200509
-0.200186
-0.199891
-0.199725
-0.200189
-0.20161
-0.204723
-0.211297
-0.224291
-0.23784
-0.236978
-0.219452
-0.225609
-0.280656
-0.349211
-0.392412
-0.410176
-0.417165
-0.419913
-0.420272
-0.118138
-0.117538
-0.116747
-0.11562
-0.113942
-0.111136
-0.106389
-0.0983739
-0.084802
-0.0615408
-0.0334825
-0.0257121
-0.0839002
-0.154085
-0.206501
-0.236215
-0.250855
-0.257045
-0.260469
-0.261418
-0.0588295
-0.0582185
-0.057422
-0.0562638
-0.0542251
-0.0504617
-0.0439111
-0.033039
-0.0159541
0.00759086
0.0235879
0.014522
-0.0296189
-0.0788394
-0.114709
-0.135045
-0.144572
-0.149512
-0.152407
-0.153343
-0.019718
-0.0192284
-0.0186428
-0.0178499
-0.016298
-0.0131787
-0.00763391
0.00136182
0.0144726
0.0297148
0.0349241
0.0212245
-0.00836895
-0.0390009
-0.0614093
-0.0743813
-0.0809299
-0.0843209
-0.086284
-0.0869375
0.00382722
0.00416534
0.00451053
0.00485934
0.00572818
0.0077477
0.0114907
0.0174866
0.0256805
0.0336253
0.0329463
0.020276
0.000776441
-0.0179399
-0.0316198
-0.0398147
-0.0440834
-0.0462899
-0.0475176
-0.0479208
0.0163943
0.0166035
0.0167567
0.0167651
0.0170555
0.018088
0.0202128
0.0236381
0.0280064
0.031232
0.0281785
0.0181344
0.0053057
-0.00629982
-0.0147709
-0.0200215
-0.0228658
-0.0243217
-0.0250831
-0.0253251
0.021696
0.0218132
0.0218358
0.0216365
0.021557
0.0218862
0.0228432
0.0244782
0.0263917
0.0270172
0.0234036
0.0159011
0.00741489
5.20879e-05
-0.00532955
-0.00877534
-0.0107174
-0.0117032
-0.0121857
-0.0123336
0.022418
0.0224769
0.0224282
0.0221405
0.0218573
0.0217641
0.0219926
0.0225218
0.0230142
0.0223966
0.0190598
0.0136286
0.0079698
0.00319905
-0.000300175
-0.0026043
-0.00394707
-0.00462355
-0.00493248
-0.00502651
0.020364
0.0203895
0.0203132
0.0200156
0.0196568
0.0193618
0.0192082
0.0191558
0.0189504
0.0178852
0.015124
0.0112748
0.00749116
0.00436326
0.00205782
0.000504087
-0.000426149
-0.000892171
-0.00109342
-0.00114974
0.0166789
0.0166876
0.0166101
0.0163441
0.015994
0.0156441
0.0153421
0.0150502
0.0145932
0.013527
0.0114365
0.0088041
0.00631797
0.00428824
0.00278301
0.00174841
0.00111669
0.000804545
0.000677536
0.0006401
0.0120532
0.0120545
0.0119896
0.0117771
0.011485
0.0111778
0.0108826
0.0105715
0.010133
0.00930435
0.00789123
0.00622426
0.00469103
0.00344713
0.00251624
0.00186217
0.00145358
0.00125311
0.0011743
0.00115191
0.00688731
0.00688567
0.00684089
0.00669762
0.00650403
0.00630649
0.00611483
0.00591173
0.00563755
0.00516061
0.00439948
0.0035346
0.00275217
0.00211902
0.00163992
0.0012931
0.00106794
0.000956813
0.000911857
0.00089717
0.00143255
0.00143973
0.00147907
0.00151176
0.00148236
0.00142655
0.00136479
0.00130082
0.00122385
0.00111429
0.000948158
0.000741712
0.000546827
0.000382356
0.000253578
0.000160106
0.000111075
0.000121997
0.00015965
0.000178319
-0.679079
-0.466542
-0.224651
-0.024252
0.138269
0.268825
0.378637
0.471149
0.512953
0.4904
-0.297041
-0.149774
0.00445784
0.137528
0.250396
0.344784
0.421453
0.47609
0.50432
0.515797
-0.0330552
0.0653305
0.169056
0.261219
0.340687
0.407337
0.46031
0.499004
0.52638
0.54369
0.15365
0.22151
0.294232
0.360296
0.41773
0.466373
0.506106
0.537501
0.562496
0.580364
0.295463
0.344633
0.396977
0.44656
0.490243
0.528161
0.560353
0.586842
0.608596
0.626175
0.410064
0.446738
0.488677
0.528003
0.56382
0.595683
0.623317
0.646325
0.665078
0.68231
0.508942
0.539788
0.576454
0.610873
0.642823
0.671663
0.69673
0.717424
0.733548
0.750599
0.601436
0.631995
0.667658
0.701122
0.731968
0.759617
0.783335
0.802455
0.816263
0.833319
0.699191
0.733149
0.770825
0.805309
0.836141
0.863003
0.885506
0.903196
0.915377
0.932818
0.815776
0.853871
0.893185
0.928043
0.95788
0.983046
1.00376
1.01992
1.0316
1.04972
0.961731
1.00061
1.03692
1.06792
1.0939
1.11625
1.13551
1.15121
1.16377
1.18181
1.13704
1.16906
1.19545
1.21804
1.23819
1.25706
1.2749
1.29147
1.30691
1.32501
1.32598
1.34334
1.35857
1.37494
1.39094
1.40555
1.41883
1.43282
1.45042
1.4706
1.50812
1.51757
1.52917
1.54003
1.54935
1.55901
1.56989
1.58131
1.59271
1.60808
1.71531
1.71902
1.7041
1.68932
1.68311
1.68885
1.70734
1.73769
1.76989
1.79656
2.02166
1.8868
1.81022
1.76796
1.75055
1.75452
1.78196
1.83838
1.94101
2.16538
0.300021
0.297896
0.293411
0.28479
0.272572
0.260448
0.250219
0.24231
0.236654
0.23332
0.23282
0.235371
0.2403
0.247378
0.256653
0.268104
0.280689
0.291676
0.297767
0.300801
0.224459
0.230308
0.236654
0.24116
0.243641
0.243328
0.240598
0.236783
0.233235
0.230881
0.230576
0.232584
0.236064
0.24019
0.243865
0.245646
0.24463
0.241084
0.235871
0.229231
0.216034
0.218331
0.221751
0.224771
0.22687
0.228385
0.229151
0.228826
0.227759
0.22678
0.226784
0.227996
0.229606
0.23073
0.230755
0.229738
0.228085
0.225662
0.222338
0.219392
0.210514
0.211598
0.213461
0.21589
0.217966
0.219439
0.220486
0.221235
0.221599
0.221717
0.222015
0.222575
0.222927
0.222772
0.222167
0.221145
0.219524
0.21731
0.215126
0.213713
0.20532
0.205976
0.207127
0.208918
0.21079
0.212503
0.213855
0.21488
0.215714
0.21639
0.216901
0.217151
0.217054
0.216621
0.215803
0.214511
0.212868
0.211134
0.209682
0.208872
0.200417
0.200863
0.201705
0.203131
0.204763
0.206416
0.207996
0.209366
0.210491
0.211418
0.21207
0.212286
0.212058
0.211404
0.210343
0.20902
0.207588
0.206192
0.205103
0.204557
0.195719
0.196034
0.19671
0.197962
0.199464
0.201028
0.202631
0.204185
0.20556
0.20668
0.207473
0.207758
0.207478
0.206723
0.205653
0.20444
0.203184
0.201957
0.201064
0.200666
0.191348
0.19157
0.192123
0.193253
0.194681
0.196173
0.197682
0.199225
0.200763
0.202153
0.203141
0.203459
0.203181
0.202522
0.201648
0.200615
0.199476
0.198385
0.197644
0.197351
0.187261
0.187409
0.187868
0.188914
0.190292
0.191767
0.193294
0.194833
0.196344
0.197803
0.19898
0.199554
0.199557
0.199134
0.198394
0.197465
0.196434
0.195455
0.194832
0.194622
0.183611
0.183684
0.184056
0.185032
0.186358
0.187777
0.18929
0.190908
0.19261
0.194281
0.195703
0.196527
0.196693
0.196413
0.195839
0.19509
0.194212
0.193346
0.192833
0.192706
0.180559
0.180586
0.180838
0.181589
0.182692
0.183914
0.185263
0.186762
0.188433
0.190255
0.191985
0.193183
0.19377
0.193922
0.193751
0.193347
0.192799
0.192237
0.191937
0.191876
0.177688
0.1777
0.177873
0.178401
0.179275
0.180367
0.181672
0.183243
0.18509
0.187175
0.189291
0.190912
0.191863
0.192291
0.192427
0.192352
0.192162
0.191945
0.191843
0.191808
0.174338
0.174354
0.174503
0.174888
0.175554
0.176493
0.177726
0.179312
0.181321
0.18375
0.186359
0.188516
0.189954
0.190896
0.191396
0.191721
0.191889
0.191977
0.192
0.191975
0.170131
0.170144
0.170295
0.170658
0.171296
0.172227
0.173564
0.175357
0.177691
0.180597
0.183833
0.186622
0.188587
0.189921
0.190785
0.191382
0.191835
0.192108
0.19219
0.192175
0.165003
0.165002
0.165161
0.165606
0.16635
0.167442
0.169006
0.171114
0.173924
0.177471
0.181492
0.185028
0.187575
0.189355
0.190631
0.191521
0.192137
0.192462
0.192572
0.192572
0.159057
0.159041
0.159219
0.159759
0.160691
0.162005
0.163906
0.166495
0.169913
0.174274
0.179277
0.183745
0.187033
0.189379
0.191014
0.192173
0.192905
0.193305
0.193468
0.19349
0.152282
0.152248
0.152441
0.153085
0.154228
0.156027
0.158245
0.161434
0.16565
0.171044
0.177267
0.182885
0.187047
0.190032
0.192134
0.193579
0.194478
0.194991
0.195223
0.195261
0.144513
0.144465
0.144704
0.145463
0.146838
0.148951
0.151849
0.155742
0.160962
0.167665
0.175415
0.182425
0.187656
0.19142
0.194072
0.195878
0.19704
0.197726
0.198039
0.198088
0.135392
0.135338
0.135637
0.136571
0.138239
0.140757
0.144319
0.149222
0.155762
0.164132
0.173777
0.182489
0.188983
0.193665
0.196988
0.19926
0.200758
0.201664
0.202066
0.202123
0.124304
0.124235
0.124635
0.125796
0.127862
0.131002
0.135492
0.141691
0.149928
0.16041
0.172402
0.183169
0.191174
0.196986
0.201069
0.203893
0.205786
0.206942
0.207442
0.207511
0.110601
0.110521
0.111074
0.11259
0.115228
0.119236
0.124983
0.132896
0.143345
0.156501
0.171371
0.184603
0.19442
0.201502
0.206511
0.20999
0.212344
0.213784
0.214403
0.214482
0.0933134
0.0932246
0.0940142
0.0960593
0.0995491
0.104833
0.11236
0.122612
0.135953
0.152456
0.170797
0.186932
0.198835
0.20743
0.213528
0.217787
0.220685
0.222459
0.22322
0.223308
0.0709903
0.0709033
0.0720871
0.0749779
0.0798103
0.0870495
0.0971725
0.110651
0.127753
0.148391
0.170842
0.190323
0.204618
0.214957
0.222335
0.22753
0.231093
0.23327
0.234186
0.234288
0.0413263
0.0412898
0.0431909
0.047562
0.0546632
0.065004
0.0789839
0.0969149
0.118864
0.144514
0.171709
0.194944
0.211915
0.224233
0.233106
0.239429
0.243812
0.246485
0.247591
0.247701
0.000150851
0.00032549
0.00383071
0.0112597
0.0225277
0.0379808
0.0576782
0.0816261
0.109625
0.141139
0.173625
0.200937
0.220806
0.235312
0.245903
0.25359
0.259024
0.26233
0.263645
0.263752
-0.0603438
-0.0588514
-0.0503848
-0.0364195
-0.0174497
0.00616181
0.0338696
0.0654697
0.100612
0.138668
0.1768
0.208356
0.231242
0.248064
0.260543
0.269818
0.276513
0.280648
0.282249
0.282364
-0.132702
-0.130276
-0.114365
-0.09001
-0.0604592
-0.0273406
0.00914721
0.0489527
0.0918152
0.137181
0.181997
0.219001
0.246089
0.266354
0.281746
0.29353
0.302381
0.307716
0.30939
0.309757
-0.207154
-0.199353
-0.175896
-0.141526
-0.102307
-0.0599923
-0.0148045
0.0331873
0.0837736
0.136495
0.188105
0.230657
0.261977
0.285699
0.30408
0.318472
0.329516
0.33585
0.338728
0.339538
-0.265636
-0.256258
-0.22797
-0.186883
-0.140178
-0.0901487
-0.0372697
0.0182576
0.0760971
0.135736
0.193639
0.241136
0.276032
0.302457
0.322927
0.338957
0.351228
0.358958
0.362855
0.363863
-0.313079
-0.303157
-0.271422
-0.225559
-0.173206
-0.117077
-0.0577958
0.00426774
0.0686115
0.13455
0.198126
0.249897
0.287661
0.31606
0.337923
0.354996
0.368097
0.376717
0.380976
0.382045
-0.352534
-0.342484
-0.308622
-0.259012
-0.202145
-0.141046
-0.0764096
-0.00872686
0.0613377
0.13293
0.201584
0.257066
0.297141
0.32697
0.349713
0.367308
0.380717
0.389688
0.394047
0.395205
-0.386788
-0.376727
-0.341267
-0.288687
-0.228118
-0.162833
-0.0935834
-0.0209733
0.054201
0.130916
0.204216
0.263025
0.305109
0.336097
0.359437
0.377259
0.390703
0.399747
0.404079
0.405292
-0.417391
-0.407359
-0.370704
-0.315657
-0.251998
-0.183116
-0.109812
-0.0328111
0.0470122
0.12846
0.206144
0.268153
0.312132
0.344138
0.367951
0.385946
0.399406
0.408472
0.412824
0.413929
-0.445546
-0.435514
-0.397867
-0.340722
-0.274426
-0.202397
-0.125522
-0.0445568
0.0395419
0.125469
0.20738
0.272507
0.318369
0.351439
0.375792
0.394014
0.407535
0.416589
0.420972
0.421902
-0.472017
-0.461953
-0.423445
-0.364503
-0.295862
-0.221063
-0.141
-0.0564417
0.0316052
0.121764
0.207807
0.276147
0.324066
0.358368
0.383381
0.401908
0.415533
0.42458
0.428949
0.429785
-0.497267
-0.487168
-0.44789
-0.387354
-0.316623
-0.239351
-0.156442
-0.0686366
0.0230584
0.117249
0.207465
0.27922
0.329385
0.365094
0.390932
0.409898
0.423719
0.432782
0.437117
0.437928
-0.521699
-0.511477
-0.471381
-0.409545
-0.336915
-0.25745
-0.171983
-0.0812288
0.0138537
0.111927
0.206304
0.281643
0.334336
0.371704
0.398575
0.418136
0.43226
0.441395
0.445614
0.446415
-0.545476
-0.535059
-0.494303
-0.431171
-0.356864
-0.275443
-0.187677
-0.0942461
0.00396125
0.105704
0.204191
0.283317
0.338869
0.378212
0.406344
0.426666
0.441192
0.450432
0.454544
0.455304
-0.568633
-0.55802
-0.516679
-0.452316
-0.376519
-0.293354
-0.203548
-0.107718
-0.00667505
0.0984911
0.201046
0.284152
0.342873
0.384539
0.414209
0.435476
0.450505
0.459876
0.46386
0.464507
-0.591302
-0.58044
-0.538451
-0.473005
-0.395898
-0.311194
-0.219585
-0.121633
-0.0180422
0.0903056
0.196789
0.283996
0.346214
0.390577
0.422115
0.444527
0.460139
0.469626
0.473446
0.473955
-0.613396
-0.60229
-0.559695
-0.493252
-0.414971
-0.328913
-0.235727
-0.135924
-0.0300747
0.0811508
0.191349
0.282693
0.348697
0.396191
0.429995
0.453793
0.470042
0.479576
0.483166
0.483505
-0.634934
-0.623571
-0.580361
-0.51302
-0.433692
-0.346457
-0.25191
-0.150505
-0.0427042
0.0710537
0.184687
0.280098
0.35008
0.401149
0.437747
0.463289
0.480212
0.489605
0.492807
0.49296
-0.655771
-0.644212
-0.600398
-0.532255
-0.452006
-0.363747
-0.268055
-0.165296
-0.0558483
0.0600969
0.176796
0.276086
0.350133
0.405161
0.44521
0.473095
0.49079
0.499665
0.502155
0.502069
-0.675996
-0.664161
-0.619781
-0.550922
-0.469867
-0.380732
-0.284067
-0.180207
-0.0693974
0.0483825
0.167713
0.270565
0.348606
0.407835
0.45205
0.483293
0.502294
0.510106
0.511051
0.510539
-0.695482
-0.683377
-0.63848
-0.568966
-0.487194
-0.397326
-0.299859
-0.195107
-0.0832277
0.036
0.157517
0.263488
0.345302
0.4087
0.457644
0.493665
0.515587
0.522444
0.520162
0.518017
-0.714253
-0.701923
-0.656447