/*--------------------------------*- C++ -*----------------------------------*\
| =========                 |                                                 |
| \\      /  F ield         | OpenFOAM: The Open Source CFD Toolbox           |
|  \\    /   O peration     | Version:  2112                                  |
|   \\  /    A nd           | Website:  www.openfoam.com                      |
|    \\/     M anipulation  |                                                 |
\*---------------------------------------------------------------------------*/
FoamFile
{
    version     2.0;
    format      ascii;
    arch        "LSB;label=32;scalar=64";
    class       volScalarField;
    location    "6";
    object      p;
}
// * * * * * * * * * * * * * * * * * * * * * * * * * * * * * * * * * * * * * //

dimensions      [0 2 -2 0 0 0 0];

internalField   nonuniform List<scalar> 
400
(
-2.7841458e-09
-0.00061982999
-0.0012519749
-0.0017252375
-0.0019233446
-0.0017920234
-0.0013123585
-0.00048178904
0.00068362352
0.0021353098
0.0037779024
0.0054620456
0.0069957657
0.0081731242
0.0088231064
0.0088663907
0.0083579301
0.0074953317
0.0065814154
0.0060434019
0.00060602836
-3.5924585e-05
-0.00050219754
-0.00080511377
-0.00090494514
-0.00076536278
-0.00036939162
0.00029001706
0.0012061951
0.0023456267
0.0036354442
0.0049695335
0.0061911436
0.007138166
0.0076756952
0.0077412236
0.0073779687
0.0067409579
0.0060552057
0.0055079969
0.0012851629
0.00038762278
-0.00010398915
-0.00037440673
-0.00046286207
-0.00035472219
-3.84846e-05
0.00049811887
0.0012617085
0.0022376184
0.0033761025
0.0045815508
0.0057120338
0.0066076791
0.0071259875
0.0071894109
0.0068233461
0.0061658344
0.0053980506
0.0045864762
0.0017937101
0.00057868504
-1.0863671e-05
-0.00031382369
-0.00044169541
-0.00040002797
-0.0001812768
0.00023561614
0.0008758681
0.0017476773
0.0028209984
0.0040150761
0.0051855892
0.0061541381
0.0067440411
0.0068366882
0.0064250983
0.0056375872
0.0046387834
0.0034228867
0.0018994752
0.00037388853
-0.00033172733
-0.00069934148
-0.00090393673
-0.00096591815
-0.00087690889
-0.00060193701
-9.1394586e-05
0.00069177329
0.0017428275
0.0030042595
0.0043233282
0.0054923952
0.0062789432
0.0064937916
0.0060710227
0.0051211009
0.0038085477
0.0020723694
0.0014021228
-0.00040236505
-0.0012287374
-0.0016870341
-0.0020069815
-0.0022187493
-0.0023081405
-0.0022209006
-0.0018763687
-0.0011993361
-0.00015862386
0.0012341968
0.0028135988
0.0043417383
0.0055094606
0.0060178263
0.0056967911
0.0046109005
0.0029247234
0.00052508303
0.00013507995
-0.0019027801
-0.0028486678
-0.0034231183
-0.0039028225
-0.00432463
-0.0046652532
-0.004846837
-0.0047502865
-0.0042440382
-0.0032228939
-0.0017066535
0.00022415213
0.0022954379
0.0041006665
0.0051814122
0.0051916413
0.0040879001
0.0020027046
-0.0012497472
-0.0020356026
-0.0042525408
-0.0053138087
-0.0060310537
-0.0067217207
-0.0074294577
-0.0081219606
-0.0086958989
-0.0089872532
-0.0087990069
-0.007945024
-0.0063319719
-0.0039949628
-0.0011936889
0.0015736638
0.0036386345
0.0043775936
0.0035241191
0.0010878072
-0.0032552574
-0.0052030292
-0.0075402718
-0.0087092895
-0.0095929697
-0.010545954
-0.01162306
-0.012787567
-0.013913232
-0.014788241
-0.015137248
-0.014662405
-0.013121007
-0.010426225
-0.0067613011
-0.0026792821
0.00091179616
0.0029904473
0.0028847175
0.00029068001
-0.0054085342
-0.0094081704
-0.011808113
-0.013067097
-0.014123581
-0.015371485
-0.016886857
-0.018638507
-0.020485367
-0.022171168
-0.023335155
-0.023540721
-0.02235177
-0.019497443
-0.014968554
-0.0092808043
-0.0035537349
0.00069302619
0.0021404023
-0.00016535741
-0.0074517571
-0.014634671
-0.017049431
-0.018355915
-0.019547369
-0.021070943
-0.023041619
-0.02544882
-0.028149255
-0.030851224
-0.033110603
-0.03433983
-0.033866043
-0.031206016
-0.026004302
-0.018596168
-0.01018911
-0.0028090226
0.001332005
0.00013204406
-0.0088014193
-0.020819824
-0.023221556
-0.024482438
-0.025685816
-0.027369227
-0.029714069
-0.032748496
-0.036340202
-0.040172538
-0.043727014
-0.046286372
-0.04698673
-0.044863889
-0.03933515
-0.030339402
-0.018933008
-0.0074899427
0.00074430715
0.00191453
-0.0082968336
-0.027897256
-0.030281151
-0.031307163
-0.032258691
-0.033841529
-0.036340937
-0.039839354
-0.044221438
-0.049149929
-0.05404039
-0.058046953
-0.060088301
-0.058913787
-0.053474548
-0.043220655
-0.028797154
-0.012588511
0.0012169445
0.006456641
-0.0038184982
-0.035898338
-0.038247936
-0.038670843
-0.038897074
-0.039938002
-0.042221612
-0.045885753
-0.050820819
-0.056654524
-0.062732862
-0.068089163
-0.071451433
-0.071301041
-0.066157735
-0.054928585
-0.037635865
-0.016243032
0.0045188533
0.015941308
0.0082039741
-0.045175442
-0.047301058
-0.046415071
-0.045157723
-0.045031071
-0.046613745
-0.050062464
-0.055239336
-0.061682982
-0.068650409
-0.075042495
-0.079405424
-0.079978355
-0.074920488
-0.062623876
-0.042420687
-0.015495807
0.013594683
0.033899051
0.033147394
-0.056927341
-0.057928758
-0.054369011
-0.050524977
-0.048475539
-0.048850329
-0.051716593
-0.056864647
-0.063611426
-0.071110999
-0.078088723
-0.082896772
-0.083570423
-0.077856608
-0.063799608
-0.040055938
-0.006886236
0.032427284
0.065246536
0.077857282
-0.074541866
-0.071201513
-0.062388165
-0.05449073
-0.049741563
-0.048508784
-0.050589205
-0.05545993
-0.062295951
-0.069993524
-0.077076989
-0.081680493
-0.081594265
-0.074235745
-0.057163069
-0.028480584
0.012470392
0.064974954
0.11513052
0.15099978
-0.10684184
-0.088576599
-0.07060194
-0.05682761
-0.048626635
-0.045562371
-0.046810688
-0.051402651
-0.05820539
-0.065851384
-0.072642273
-0.076478067
-0.074895028
-0.065011655
-0.043778203
-0.0083258902
0.043507581
0.11201703
0.18744275
0.27087282
-0.17600582
-0.10764491
-0.075987413
-0.054663613
-0.042947192
-0.038607708
-0.039653987
-0.044450066
-0.051504166
-0.059250411
-0.065859701
-0.069097275
-0.06624494
-0.054038581
-0.029119473
0.012996527
0.077172322
0.16890181
0.28831291
0.47307492
-0.37124795
-0.12415082
-0.054838728
-0.032114776
-0.022207927
-0.020139463
-0.023694972
-0.030731223
-0.039548155
-0.048623233
-0.056239777
-0.060302807
-0.058309473
-0.047241612
-0.022501812
0.021057432
0.091975407
0.20908896
0.40177479
0.77531705
)
;

boundaryField
{
    movingWall
    {
        type            zeroGradient;
    }
    fixedWalls
    {
        type            zeroGradient;
    }
    frontAndBack
    {
        type            empty;
    }
}


// ************************************************************************* //
