/*--------------------------------*- C++ -*----------------------------------*\
| =========                 |                                                 |
| \\      /  F ield         | OpenFOAM: The Open Source CFD Toolbox           |
|  \\    /   O peration     | Version:  2112                                  |
|   \\  /    A nd           | Website:  www.openfoam.com                      |
|    \\/     M anipulation  |                                                 |
\*---------------------------------------------------------------------------*/
FoamFile
{
    version     2.0;
    format      ascii;
    arch        "LSB;label=32;scalar=64";
    class       surfaceScalarField;
    location    "6";
    object      phi;
}
// * * * * * * * * * * * * * * * * * * * * * * * * * * * * * * * * * * * * * //

dimensions      [0 3 -1 0 0 0 0];

oriented        oriented;

internalField   nonuniform List<scalar> 
760
(
1.0389851e-05
-1.0389817e-05
-2.9460379e-05
3.9850148e-05
-0.00011733718
8.7876826e-05
-0.00023679357
0.00011945644
-0.00037217853
0.00013538502
-0.00051069045
0.00013851188
-0.00064132333
0.00013063288
-0.00075338826
0.00011206489
-0.00083578042
8.2392255e-05
-0.0008775158
4.1735377e-05
-0.00086937015
-8.1456591e-06
-0.00080658691
-6.2783192e-05
-0.00069159642
-0.00011499052
-0.00053604888
-0.00015554761
-0.00036078097
-0.00017526782
-0.00019315412
-0.00016762664
-6.1379959e-05
-0.00013177397
1.3543523e-05
-7.492345e-05
2.7114359e-05
-1.3570883e-05
2.7114357e-05
-4.1178487e-05
3.0788711e-05
-0.00019177432
0.00019044587
-0.00043623716
0.00033233942
-0.00074358159
0.00042680071
-0.0010823744
0.00047417776
-0.0014236363
0.00047977373
-0.0017403531
0.0004473497
-0.0020062509
0.0003779626
-0.0021955864
0.00027172793
-0.0022848096
0.00013095859
-0.0022568129
-3.614241e-05
-0.0021034783
-0.00021611775
-0.0018331792
-0.00038528955
-0.0014720114
-0.00051671523
-0.0010636178
-0.00058366122
-0.00066369506
-0.00056754918
-0.00032919201
-0.00046627702
-0.00010394261
-0.00030017293
-4.5546806e-06
-0.00011295883
2.2559672e-05
-0.00010172654
0.00013251522
-0.00037151658
0.00046023596
-0.00076564323
0.00072646606
-0.0012390089
0.0009001663
-0.0017487661
0.00098393488
-0.0022552116
0.00098621927
-0.0027206927
0.00091283097
-0.0031085014
0.0007657712
-0.0033832433
0.00054646991
-0.0035134175
0.0002611327
-0.0034756062
-7.3953786e-05
-0.0032599219
-0.00043180202
-0.0028764496
-0.00076876176
-0.0023584701
-0.0010346946
-0.001762683
-0.0011794483
-0.0011634358
-0.0011667964
-0.00063986441
-0.00098984844
-0.00025744705
-0.00068259037
-4.877096e-05
-0.00032163494
-2.621133e-05
-0.00015852199
0.00029103717
-0.000542823
0.00084453708
-0.0010787876
0.0012624307
-0.00170457
0.0015259487
-0.0023672366
0.0016466015
-0.003019646
0.0016386287
-0.0036174607
0.0015106457
-0.0041173565
0.001265667
-0.004477287
0.00090640048
-0.0046590903
0.0004429359
-0.0046332701
-9.977406e-05
-0.0043842444
-0.00068082776
-0.0039186118
-0.0012343943
-0.0032699783
-0.001683328
-0.002501889
-0.0019475375
-0.0017042024
-0.001964483
-0.00098007053
-0.0017139804
-0.0004235795
-0.0012390814
-9.4321747e-05
-0.00065089269
-0.00012053312
-0.00020923283
0.00050026989
-0.00069866044
0.0013339648
-0.0013652138
0.0019289841
-0.0021307018
0.0022914367
-0.0029334266
0.0024493262
-0.0037212392
0.0024264413
-0.0044460974
0.0022355039
-0.0050608717
0.0018804412
-0.0055187349
0.0013642637
-0.0057750988
0.00069929967
-0.0057926886
-8.2184369e-05
-0.0055451729
-0.00092834336
-0.0050292931
-0.0017502741
-0.004271449
-0.0024411721
-0.0033358383
-0.0028831482
-0.0023259084
-0.0029744129
-0.0013735734
-0.0026663154
-0.00061270256
-0.0019999521
-0.00014297913
-0.001120616
-0.0002635122
-0.00025298541
0.00075325528
-0.00083478321
0.0019157627
-0.0016171639
0.0027113647
-0.0025076825
0.0031819553
-0.0034377698
0.0033794135
-0.0043525543
0.0033412258
-0.0052028841
0.0030858336
-0.0059402643
0.0026178212
-0.0065147304
0.0019387297
-0.0068751659
0.001059735
-0.0069750859
1.7735527e-05
-0.0067719684
-0.0011314607
-0.0062463235
-0.0022759189
-0.0054081653
-0.0032793302
-0.0043136884
-0.0039776252
-0.0030752233
-0.004212878
-0.0018570457
-0.0038844928
-0.00084651312
-0.0030104846
-0.00020212936
-0.0017649998
-0.00046564151
-0.00028863126
0.0010418865
-0.00094673003
0.0025738614
-0.0018258707
0.0035905052
-0.0028222948
0.0041783794
-0.0038628046
0.0044199232
-0.0048921163
0.0043705374
-0.005862538
0.0040562553
-0.006726811
0.0034820942
-0.0074340585
0.0026459772
-0.0079287368
0.0015544134
-0.0081492638
0.00023826261
-0.0080423347
-0.0012383898
-0.0075606392
-0.0027576142
-0.0066885884
-0.004151381
-0.0054618883
-0.0052043253
-0.0039906416
-0.0056841247
-0.0024690638
-0.0054060705
-0.0011512884
-0.0043282599
-0.00028125159
-0.0026350366
-0.00074689306
-0.00031458696
0.0013564735
-0.0010293553
0.0032886297
-0.0019810086
0.0045421584
-0.0030575096
0.0052548803
-0.0041832405
0.005545654
-0.0053047362
0.0054920331
-0.0063783787
0.0051298977
-0.0073611809
0.0044648964
-0.0082045692
0.0034893653
-0.0088507036
0.0022005478
-0.0092307734
0.00061833263
-0.0092714871
-0.001197676
-0.0088998697
-0.0031292315
-0.0080642407
-0.00498701
-0.0067634896
-0.0065050764
-0.0050854037
-0.0073622104
-0.0032397696
-0.0072517047
-0.0015538913
-0.0060141382
-0.00039115769
-0.0037977703
-0.0011380507
-0.00032939029
0.0016858637
-0.0010780356
0.0040372748
-0.002072562
0.0055366846
-0.0031950997
0.006377418
-0.0043694499
0.006720004
-0.0055460026
0.0066685858
-0.0066878821
0.0062717772
-0.0077599188
0.0055369331
-0.0087203809
0.0044498275
-0.0095148783
0.0029950452
-0.010072352
0.0011758069
-0.010305482
-0.00096454609
-0.01011625
-0.0033184639
-0.0094113416
-0.0056919184
-0.0081359309
-0.007780487
-0.0063268606
-0.0091712806
-0.0041777977
-0.0094007677
-0.0020777675
-0.0081141684
-0.00054427451
-0.0053312633
-0.0016823251
-0.00033281546
0.002018679
-0.001091294
0.0047957533
-0.0020948236
0.0065402141
-0.0032209744
0.0075035687
-0.0043943439
0.0078933735
-0.0055710497
0.0078452917
-0.0067236252
0.0074243526
-0.0078285751
0.006641883
-0.0088565049
0.0054777574
-0.0097640197
0.00390256
-0.010486712
0.0018984993
-0.010932927
-0.00051833144
-0.010990031
-0.00326136
-0.01052376
-0.0061581891
-0.0094138608
-0.0088903864
-0.0076142843
-0.010970857
-0.0052524027
-0.011762649
-0.0027363623
-0.010630209
-0.00075526771
-0.0073123577
-0.0024375929
-0.00032747966
0.0023461586
-0.0010745462
0.0055428198
-0.0020519754
0.0075176433
-0.0031324997
0.008584093
-0.0042428412
0.0090037151
-0.0053469857
0.0089494363
-0.0064296444
0.0085070112
-0.0074828075
0.007695046
-0.0084949804
0.0064899302
-0.0094418706
0.0048494503
-0.010277926
0.0027345552
-0.01091887
0.00012261226
-0.011257271
-0.0029229595
-0.011128314
-0.0062871461
-0.010347904
-0.0096707956
-0.0087624228
-0.012556339
-0.0063718866
-0.014153185
-0.0035210734
-0.013481022
-0.0010409475
-0.0097924834
-0.0034785403
-0.00032110407
0.0026672626
-0.0010448304
0.006266546
-0.0019644682
0.0084372811
-0.0029462818
0.0095659065
-0.0039216642
0.0099790974
-0.0048659423
0.0098937142
-0.0057793099
0.0094203789
-0.00667266
0.0085883959
-0.0075568735
0.0073741437
-0.0084334643
0.0057260411
-0.0092837477
0.0035848387
-0.010061992
0.00090085669
-0.010661846
-0.0023231058
-0.010928333
-0.0060206587
-0.010630449
-0.0099686794
-0.0095029516
-0.013683836
-0.0073650492
-0.016291088
-0.0043823169
-0.016463754
-0.0014175143
-0.012757286
-0.0048960547
-0.00033004263
0.0029973052
-0.001036608
0.0069731113
-0.0018750246
0.0092756978
-0.0027037999
0.010394682
-0.0034653538
0.010740651
-0.004152941
0.010581301
-0.0047869204
0.010054358
-0.0054001634
0.009201639
-0.006028376
0.0080023564
-0.006702457
0.0064001222
-0.0074394362
0.004321818
-0.0082314897
0.0016929102
-0.0090166344
-0.0015379611
-0.0096678969
-0.0053693963
-0.0099492753
-0.009687301
-0.0095131441
-0.014119967
-0.0079770875
-0.017827144
-0.0052064336
-0.019234408
-0.0018915302
-0.01607219
-0.0067875848
-0.00038543385
0.0033827391
-0.0011087364
0.0076964137
-0.0018518967
0.010018858
-0.0024701204
0.011012905
-0.0029314794
0.01120201
-0.0032590017
0.010908824
-0.0034999428
0.010295299
-0.0037118981
0.0094135943
-0.003955179
0.0082456373
-0.0042890671
0.0067340103
-0.0047658582
0.0047986091
-0.0054215859
0.0023486379
-0.0062524527
-0.00070709428
-0.0071918883
-0.0044299607
-0.0080516646
-0.0088275248
-0.008466566
-0.013705066
-0.0078866603
-0.01840705
-0.0057952264
-0.021325842
-0.0024393345
-0.019428081
-0.0092269195
-0.00054420812
0.0039269472
-0.0013507661
0.0085029715
-0.0019816888
0.010649781
-0.0023135919
0.011344808
-0.0023698336
0.011258252
-0.0022221029
0.010761093
-0.0019529114
0.010026108
-0.0016477642
0.0091084472
-0.0013879419
0.0079858152
-0.0012562233
0.0066022918
-0.0013335101
0.0048758958
-0.0016954348
0.0027105626
-0.002397689
-4.8401748e-06
-0.0034558189
-0.003371831
-0.004780372
-0.0075029717
-0.0060788955
-0.012406542
-0.006735155
-0.01775079
-0.0058519595
-0.022209037
-0.0029703104
-0.02230973
-0.01219723
-0.00090562007
0.0048325672
-0.0018738361
0.0094711874
-0.0023210904
0.011097035
-0.0022260237
0.011249742
-0.0017203138
0.010752542
-0.0009500907
0.0099908699
-4.3443866e-05
0.0091194609
0.00089505868
0.0081699445
0.0017622208
0.007118653
0.0024616548
0.0059028577
0.0028939983
0.0044435522
0.0029555593
0.0026490017
0.0025348077
0.00041591168
0.0015497425
-0.0023867657
-4.1242948e-05
-0.0059119861
-0.002108807
-0.010338978
-0.0041384686
-0.015721129
-0.0049658568
-0.021381649
-0.0032869684
-0.023988618
-0.015484198
-0.0016195666
0.0064521337
-0.0027038641
0.010555485
-0.0026886488
0.011081819
-0.0018521562
0.010413249
-0.00051422358
0.009414609
0.0010853765
0.0083912698
0.0027801561
0.0074246813
0.0044456475
0.0065044532
0.0059818049
0.0055824957
0.0072913262
0.0045933364
0.0082710607
0.0034638177
0.008804735
0.0021153274
0.0087517418
0.00046890466
0.0079693888
-0.001604413
0.0063054513
-0.0042480483
0.0036923348
-0.0077258615
0.00040405408
-0.012432848
-0.0025680867
-0.018409508
-0.0030648887
-0.023491817
-0.018549087
-0.0027288754
0.0091810091
-0.0031969572
0.011023567
-0.0019101307
0.0097949929
0.00028851485
0.0082146034
0.0028399372
0.0068631865
0.0054616202
0.0057695866
0.008002932
0.0048833694
0.010371348
0.0041360371
0.012495631
0.0034582128
0.014303405
0.002785562
0.015708151
0.0020590721
0.016601691
0.0012217873
0.016843895
0.00022670113
0.016261906
-0.001022424
0.014631841
-0.0026179837
0.011699868
-0.0047938885
0.0073218039
-0.0080547834
0.0021882234
-0.013275928
-0.0013067477
-0.019996845
-0.019855834
-0.0024037207
0.01158473
3.1767767e-05
0.008588078
0.0042319993
0.0055947613
0.0083471305
0.0040994723
0.012107348
0.0031029687
0.01547755
0.0023993854
0.018461831
0.0018990882
0.021072682
0.001525186
0.02331269
0.0012182049
0.025162337
0.00093591424
0.026573984
0.00064742504
0.027465618
0.00033015421
0.027722705
-3.038648e-05
0.027212963
-0.0005126821
0.025674971
-0.0010799907
0.022775052
-0.0018939704
0.018006543
-0.0032862735
0.011081618
-0.0063510034
0.0033751662
-0.012290393
-0.016480668
0.01158473
0.020172808
0.025767569
0.029867041
0.03297001
0.035369395
0.037268483
0.038793669
0.040011874
0.040947788
0.041595213
0.041925367
0.041894981
0.041382299
0.040302308
0.038408338
0.035122064
0.028771061
0.016480668
)
;

boundaryField
{
    movingWall
    {
        type            calculated;
        value           uniform 0;
    }
    fixedWalls
    {
        type            calculated;
        value           uniform 0;
    }
    frontAndBack
    {
        type            empty;
        value           nonuniform List<scalar> 0();
    }
}


// ************************************************************************* //
