/*--------------------------------*- C++ -*----------------------------------*\
| =========                 |                                                 |
| \\      /  F ield         | OpenFOAM: The Open Source CFD Toolbox           |
|  \\    /   O peration     | Version:  2112                                  |
|   \\  /    A nd           | Website:  www.openfoam.com                      |
|    \\/     M anipulation  |                                                 |
\*---------------------------------------------------------------------------*/
FoamFile
{
    version     2.0;
    format      ascii;
    arch        "LSB;label=32;scalar=64";
    class       surfaceScalarField;
    location    "6";
    object      phi_0;
}
// * * * * * * * * * * * * * * * * * * * * * * * * * * * * * * * * * * * * * //

dimensions      [0 3 -1 0 0 0 0];

oriented        oriented;

internalField   nonuniform List<scalar> 
760
(
1.0378136e-05
-1.0378122e-05
-2.9464394e-05
3.984246e-05
-0.00011731282
8.7848411e-05
-0.00023672552
0.00011941276
-0.00037205791
0.00013533241
-0.00051051393
0.00013845599
-0.00064109312
0.00013057919
-0.00075311252
0.0001120194
-0.00083547382
8.2361392e-05
-0.00087719885
4.1725028e-05
-0.00086906736
-8.1314824e-06
-0.00080632315
-6.2744187e-05
-0.00069139224
-0.00011493095
-0.00053591579
-0.00015547651
-0.00036071815
-0.00017519756
-0.00019314772
-0.00016757024
-6.1406302e-05
-0.00013174126
1.351086e-05
-7.4917122e-05
2.7096815e-05
-1.3585985e-05
2.7096833e-05
-4.1168778e-05
3.0790681e-05
-0.00019171111
0.00019038469
-0.00043607727
0.00033221431
-0.00074329484
0.00042663021
-0.0010819449
0.00047398239
-0.0014230622
0.00047957324
-0.0017396468
0.00044716382
-0.0020054392
0.00037781186
-0.0021947103
0.00027163258
-0.0022839206
0.0001309354
-0.002255968
-3.6084108e-05
-0.0021027326
-0.00021597962
-0.0018325764
-0.00038508703
-0.0014715762
-0.00051647657
-0.0010633502
-0.00058342332
-0.0006635701
-0.0005673502
-0.00032916474
-0.0004661466
-0.00010395949
-0.00030012243
-4.5712133e-06
-0.00011297425
2.2525642e-05
-0.00010168556
0.00013247621
-0.00037135987
0.00046005909
-0.00076531434
0.00072616875
-0.0012384721
0.00089978796
-0.0017480066
0.00098351679
-0.0022542347
0.00098580147
-0.0027195242
0.00091245344
-0.0031071865
0.00076547414
-0.0033818447
0.00054629081
-0.0035120097
0.00026110035
-0.0034742686
-7.3825271e-05
-0.0032587288
-0.00043151946
-0.0028754601
-0.00076835567
-0.0023577194
-0.0010342173
-0.0017621759
-0.0011789666
-0.0011631458
-0.0011663802
-0.00063973852
-0.00098955395
-0.00025741788
-0.00068244312
-4.8775538e-05
-0.00032161658
-2.6249925e-05
-0.00015844787
0.000290924
-0.00054257075
0.00084418207
-0.0010782904
0.0012618884
-0.0017037919
0.0015252895
-0.0023661684
0.0016458933
-0.0030183033
0.0016379363
-0.0036158824
0.0015100326
-0.0041156034
0.0012651952
-0.0044754377
0.00090612514
-0.0046572345
0.00044289709
-0.004631501
-9.9558854e-05
-0.0043826482
-0.0006803723
-0.003917259
-0.0012337448
-0.0032689151
-0.0016825612
-0.00250113
-0.0019467516
-0.0017037276
-0.0019637826
-0.00097982695
-0.0017134547
-0.00042349154
-0.0012387786
-9.4309293e-05
-0.00065079881
-0.00012055926
-0.00020912993
0.00050005386
-0.00069832635
0.0013333786
-0.001364575
0.0019281371
-0.002129725
0.0022904394
-0.00293211
0.0024482784
-0.0037196083
0.0024254346
-0.0044442022
0.0022346265
-0.0050587834
0.0018797763
-0.0055165412
0.001363883
-0.0057728962
0.00069925196
-0.0057905749
-8.1880248e-05
-0.0055432409
-0.00092770624
-0.0050276218
-0.0017493638
-0.0042700958
-0.0024400871
-0.0033348322
-0.0028820152
-0.0023252431
-0.0029733717
-0.0013732039
-0.0026654938
-0.00061255039
-0.001999432
-0.00014294818
-0.001120401
-0.00026350739
-0.00025286274
0.00075291658
-0.00083439401
0.00191491
-0.0016164319
0.002710175
-0.0025065785
0.003180586
-0.003436299
0.0033779989
-0.0043507502
0.0033398858
-0.0052008036
0.0030846798
-0.0059379833
0.0026169559
-0.0065123384
0.001938238
-0.0068727626
0.0010596761
-0.0069727486
1.8105616e-05
-0.0067698066
-0.0011306481
-0.0062444144
-0.0022747559
-0.0054065755
-0.003277926
-0.0043124633
-0.0039761275
-0.0030743769
-0.0042114581
-0.0018565499
-0.0038833206
-0.00084629413
-0.0030096877
-0.00020207887
-0.0017646162
-0.00046558622
-0.00028850136
0.0010414179
-0.00094632263
0.0025727312
-0.0018251112
0.0035889634
-0.0028211583
0.0041766331
-0.003861302
0.0044181425
-0.0048902857
0.0043688695
-0.0058604385
0.0040548326
-0.0067245169
0.0034810342
-0.0074316526
0.0026453737
-0.0079263016
0.0015543251
-0.0081468992
0.00023870324
-0.0080401057
-0.0012374415
-0.0075586255
-0.0027562359
-0.0066868611
-0.0041496903
-0.0054605078
-0.0052024808
-0.0039896461
-0.0056823198
-0.0024684518
-0.0054045148
-0.0011510029
-0.0043271365
-0.00028118035
-0.0026344387
-0.0007467666
-0.00031446486
0.0013558828
-0.0010289734
0.0032872397
-0.0019802983
0.0045402883
-0.0030564506
0.0052527852
-0.0041818472
0.005543539
-0.0053030485
0.0054900707
-0.006376454
0.0051282381
-0.0073590872
0.0044636674
-0.0082023777
0.0034886641
-0.0088484839
0.0022004313
-0.0092285936
0.00061881309
-0.0092694046
-0.0011966305
-0.0088979434
-0.003127697
-0.0080625332
-0.0049851005
-0.0067620669
-0.0065029471
-0.0050843264
-0.0073600602
-0.0032390706
-0.0072497705
-0.0015535459
-0.0060126612
-0.00039106507
-0.0037969195
-0.0011378317
-0.00032929187
0.0016851746
-0.0010777251
0.0040356728
-0.0020719815
0.0055345447
-0.0031942335
0.006375037
-0.0043683135
0.006717619
-0.0055446346
0.0066663918
-0.006686335
0.0062699385
-0.0077582506
0.0055355831
-0.0087186475
0.004449061
-0.0095131279
0.0029949117
-0.010070624
0.0011763094
-0.010303806
-0.00096344798
-0.010114656
-0.0033168474
-0.0094098686
-0.0056898881
-0.008134635
-0.0077781806
-0.0063258142
-0.0091688809
-0.0041770694
-0.0093985154
-0.0020773805
-0.0081123501
-0.00054416198
-0.0053301382
-0.0016819934
-0.00033275541
0.0020179299
-0.0010910977
0.004794015
-0.0020944482
0.006537895
-0.003220408
0.0075009968
-0.0043936013
0.0078908123
-0.0055701651
0.0078429557
-0.0067226429
0.0074224162
-0.0078275402
0.0066404804
-0.008855455
0.0054769759
-0.0097629788
0.0039024354
-0.010485689
0.0018990197
-0.010931922
-0.00051721547
-0.010989031
-0.0032597382
-0.010522767
-0.0061561524
-0.009412902
-0.0088880451
-0.0076134259
-0.010968357
-0.005251738
-0.011760203
-0.00273597
-0.010628118
-0.00075514069
-0.0073109675
-0.0024371343
-0.00032746944
0.0023453992
-0.0010744979
0.0055410434
-0.0020518649
0.007515262
-0.0031323186
0.0085814505
-0.0042426005
0.0090010943
-0.0053467114
0.0089470666
-0.0064293686
0.0085050734
-0.0074825591
0.0076936708
-0.0084947771
0.0064891938
-0.0094417124
0.0048493708
-0.010277788
0.0027350948
-0.01091874
0.0001237374
-0.011257074
-0.0029214045
-0.011128015
-0.0062852112
-0.010347491
-0.0096685693
-0.00876193
-0.012553918
-0.0063714082
-0.014150725
-0.0035207338
-0.013478792
-0.0010408181
-0.0097908828
-0.0034779524
-0.00032115014
0.0026665493
-0.0010449499
0.0062648431
-0.0019646584
0.0084349705
-0.002946537
0.0095633291
-0.003921988
0.0099765453
-0.0048663472
0.0098914257
-0.0057798106
0.0094185367
-0.0066732647
0.0085871247
-0.0075575789
0.007373508
-0.0084342498
0.0057260418
-0.0092845771
0.0035854221
-0.010062778
0.00090193821
-0.010662535
-0.0023216478
-0.010928843
-0.0060189025
-0.010630721
-0.0099666915
-0.0095029733
-0.013681666
-0.0073648844
-0.016288814
-0.004382105
-0.016461572
-0.0014174032
-0.012755585
-0.0048953556
-0.00033014539
0.0029966947
-0.0010368976
0.0069715951
-0.0018755207
0.0092735936
-0.0027044986
0.010392307
-0.0034662474
0.010738294
-0.0041540226
0.010579201
-0.0047881796
0.010052694
-0.0054015808
0.009200526
-0.0060299241
0.0080018513
-0.0067040955
0.0064002134
-0.0074411093
0.0043224359
-0.0082331176
0.0016939466
-0.009018129
-0.0015366363
-0.0096691704
-0.0053678611
-0.0099502386
-0.0096856233
-0.0095137386
-0.014118166
-0.0079773237
-0.017825229
-0.0052064234
-0.019232472
-0.0018914654
-0.016070543
-0.006786821
-0.00038558675
0.0033822815
-0.0011091776
0.0076951857
-0.0018526679
0.010017084
-0.0024712194
0.011010858
-0.0029328843
0.011199959
-0.0032606811
0.010906997
-0.0035018563
0.010293869
-0.0037139895
0.0094126591
-0.0039573949
0.0082452568
-0.0042913495
0.006734168
-0.0047681442
0.0047992307
-0.0054238054
0.0023496078
-0.0062545021
-0.00070593955
-0.0071937104
-0.0044286528
-0.008053165
-0.008826169
-0.0084676568
-0.013703674
-0.0078872969
-0.018405589
-0.0057954601
-0.021324309
-0.0024393455
-0.019426657
-0.0092261665
-0.00054439565
0.0039266771
-0.0013513146
0.0085021045
-0.0019826611
0.01064843
-0.0023149886
0.011343186
-0.0023716187
0.011256589
-0.0022242194
0.010759598
-0.0019553
0.010024949
-0.0016503078
0.009107667
-0.0013905744
0.0079855236
-0.0012588689
0.0066024625
-0.0013361046
0.0048764663
-0.0016979441
0.0027114471
-0.0023999423
-3.9411777e-06
-0.0034578745
-0.0033707207
-0.0047821321
-0.0075019115
-0.0060802797
-0.012405526
-0.0067360834
-0.017749785
-0.0058524155
-0.022207977
-0.0029704131
-0.022308659
-0.01219658
-0.00090581248
0.0048324896
-0.0018744119
0.0094707038
-0.0023221309
0.011096149
-0.0022275374
0.011248592
-0.0017222585
0.01075131
-0.00095238106
0.0099897207
-4.5951072e-05
0.0091185196
0.00089235066
0.0081693651
0.0017594522
0.007118422
0.0024589283
0.0059029864
0.002891396
0.0044439985
0.0029531622
0.0026496809
0.0025325336
0.00041668734
0.0015477341
-0.002385921
-4.2987083e-05
-0.0059111901
-0.002110223
-0.01033829
-0.0041395056
-0.015720502
-0.0049664368
-0.021381045
-0.0032871456
-0.023987951
-0.015483725
-0.0016197124
0.006452202
-0.0027043416
0.010555333
-0.002689554
0.011081362
-0.0018535168
0.010412555
-0.00051601185
0.0094138047
0.0010832276
0.0083904811
0.0027777299
0.0074240173
0.0044430882
0.0065040069
0.0059792094
0.0055823008
0.0072887957
0.0045934
0.0082686805
0.0034641139
0.0088025642
0.0021157973
0.0087497895
0.000469462
0.0079676886
-0.0016038205
0.0063040103
-0.0042475117
0.0036911578
-0.0077254374
0.00040319842
-0.012432543
-0.002568641
-0.018409206
-0.0030650964
-0.023491495
-0.018548821
-0.0027289262
0.0091811281
-0.0031971914
0.011023598
-0.0019106714
0.0097948416
0.00028760547
0.0082142781
0.0028386521
0.006862758
0.0054599946
0.0057691385
0.0080010369
0.0048829748
0.010369285
0.0041357583
0.012493507
0.0034580795
0.014301323
0.0027855833
0.015706202
0.0020592351
0.016599939
0.0012220602
0.016842378
0.00022702348
0.01626064
-0.0010220825
0.014630815
-0.0026176872
0.011699051
-0.0047936734
0.0073211683
-0.0080546599
0.0021878067
-0.013275844
-0.0013069387
-0.01999675
-0.01985576
-0.0024036684
0.011584796
3.1795478e-05
0.0085881341
0.0042318951
0.005594742
0.0083467938
0.0040993793
0.012106726
0.0031028259
0.015476638
0.0023992267
0.018460667
0.0018989452
0.021071341
0.001525085
0.023311261
0.001218159
0.025160918
0.00093592689
0.026572664
0.00064748831
0.027464475
0.00033025005
0.027721735
-3.0236493e-05
0.027212223
-0.000512571
0.025674434
-0.0010798975
0.022774671
-0.0018939113
0.01800627
-0.0032862588
0.011081438
-0.0063510115
0.0033750898
-0.012290402
-0.01648067
0.011584796
0.02017293
0.025767672
0.029867052
0.032969877
0.035369104
0.037268049
0.038793134
0.040011293
0.04094722
0.041594708
0.041924958
0.041894722
0.041382151
0.040302253
0.038408342
0.035122083
0.028771072
0.01648067
)
;

boundaryField
{
    movingWall
    {
        type            calculated;
        value           uniform 0;
    }
    fixedWalls
    {
        type            calculated;
        value           uniform 0;
    }
    frontAndBack
    {
        type            empty;
        value           nonuniform List<scalar> 0();
    }
}


// ************************************************************************* //
