/*--------------------------------*- C++ -*----------------------------------*\
| =========                 |                                                 |
| \\      /  F ield         | OpenFOAM: The Open Source CFD Toolbox           |
|  \\    /   O peration     | Version:  2112                                  |
|   \\  /    A nd           | Website:  www.openfoam.com                      |
|    \\/     M anipulation  |                                                 |
\*---------------------------------------------------------------------------*/
FoamFile
{
    version     2.0;
    format      ascii;
    arch        "LSB;label=32;scalar=64";
    class       volVectorField;
    location    "6";
    object      U;
}
// * * * * * * * * * * * * * * * * * * * * * * * * * * * * * * * * * * * * * //

dimensions      [0 1 -1 0 0 0 0];

internalField   nonuniform List<vector> 
400
(
(0.00025230898 -0.00024890203 0)
(6.1301576e-05 9.0454117e-05 0)
(-0.0013011588 0.00045831532 0)
(-0.0034457922 0.00069405161 0)
(-0.0060524536 0.00081239563 0)
(-0.0088440246 0.00084564797 0)
(-0.011584807 0.00081266638 0)
(-0.01406007 0.00071561582 0)
(-0.016051339 0.0005471227 0)
(-0.017332782 0.00030174349 0)
(-0.017694496 -1.3608592e-05 0)
(-0.016986445 -0.00037543056 0)
(-0.015176617 -0.00072987932 0)
(-0.012403749 -0.0010080385 0)
(-0.008999061 -0.001138155 0)
(-0.0054591029 -0.0010668922 0)
(-0.0023576761 -0.0007844539 0)
(-0.00021002731 -0.00034631327 0)
(0.00065867488 0.00011406494 0)
(0.00037389971 0.00035476962 0)
(-9.2876832e-05 -7.2806637e-05 0)
(-0.001769985 0.0017040706 0)
(-0.0058933288 0.0033948554 0)
(-0.011580599 0.004525126 0)
(-0.018185134 0.005102207 0)
(-0.025120326 0.0052080855 0)
(-0.031829416 0.0048981111 0)
(-0.037780444 0.0041839657 0)
(-0.042448671 0.0030570892 0)
(-0.045329526 0.0015301879 0)
(-0.045997145 -0.00032208942 0)
(-0.044178644 -0.0023342076 0)
(-0.039860553 -0.0042423966 0)
(-0.033383354 -0.0057208668 0)
(-0.025458261 -0.0064465038 0)
(-0.01711309 -0.0061939923 0)
(-0.0095281808 -0.0049393562 0)
(-0.0037679838 -0.0029372715 0)
(-0.00048581612 -0.00074724538 0)
(0.00024384455 0.00068139475 0)
(-0.00054767814 0.0013857026 0)
(-0.0039187018 0.0059563132 0)
(-0.010834198 0.0098701773 0)
(-0.019767306 0.012475225 0)
(-0.029802148 0.013772148 0)
(-0.040155585 0.013887382 0)
(-0.050060397 0.012913053 0)
(-0.058771295 0.010878275 0)
(-0.065559508 0.007795998 0)
(-0.069739196 0.0037451236 0)
(-0.070738128 -0.0010486986 0)
(-0.068198185 -0.0061591593 0)
(-0.062099753 -0.010962893 0)
(-0.052870004 -0.014707582 0)
(-0.041420596 -0.016655934 0)
(-0.029102397 -0.016293633 0)
(-0.017519555 -0.013556133 0)
(-0.0081835891 -0.0089916846 0)
(-0.0021541929 -0.0037883961 0)
(-3.14998e-05 0.00017038654 0)
(-0.00096178279 0.0040161864 0)
(-0.005957489 0.012550024 0)
(-0.015560698 0.019254773 0)
(-0.027522422 0.023578049 0)
(-0.040656917 0.025623663 0)
(-0.054037148 0.025601111 0)
(-0.066761642 0.023648708 0)
(-0.077952303 0.019816217 0)
(-0.08674691 0.014146845 0)
(-0.092325746 0.0068048647 0)
(-0.093987646 -0.0018035781 0)
(-0.0912536 -0.010960147 0)
(-0.084005654 -0.019616912 0)
(-0.072629391 -0.026509329 0)
(-0.058096122 -0.030370371 0)
(-0.041974981 -0.030263052 0)
(-0.026272163 -0.025969053 0)
(-0.013030826 -0.018290204 0)
(-0.0039086177 -0.0090961207 0)
(-0.0002772517 -0.0012423597 0)
(-0.0013208021 0.0077194347 0)
(-0.0077935191 0.021337644 0)
(-0.019878021 0.03134157 0)
(-0.034623561 0.037555638 0)
(-0.050591795 0.040337034 0)
(-0.066750356 0.040046099 0)
(-0.082120766 0.036888959 0)
(-0.095753757 0.030936041 0)
(-0.10670398 0.022251118 0)
(-0.11404233 0.011067537 0)
(-0.11692578 -0.0020470842 0)
(-0.1146869 -0.016088586 0)
(-0.10699133 -0.029571432 0)
(-0.094036433 -0.040653051 0)
(-0.076704313 -0.047395624 0)
(-0.056688172 -0.04822829 0)
(-0.036416498 -0.042550415 0)
(-0.018627221 -0.031269715 0)
(-0.0058432571 -0.016950374 0)
(-0.00049990936 -0.0035740212 0)
(-0.0016244212 0.012371951 0)
(-0.0093838931 0.032114515 0)
(-0.023661085 0.045908222 0)
(-0.040885277 0.054192081 0)
(-0.059403205 0.057729881 0)
(-0.078116246 0.057114078 0)
(-0.096019404 0.052648409 0)
(-0.11214582 0.044419917 0)
(-0.12551136 0.032483991 0)
(-0.13509737 0.017091645 0)
(-0.13990079 -0.0010914457 0)
(-0.13900096 -0.02080294 0)
(-0.13173006 -0.040179002 0)
(-0.1179315 -0.05674611 0)
(-0.098210233 -0.067724962 0)
(-0.074231878 -0.070608107 0)
(-0.048817164 -0.064033663 0)
(-0.025565951 -0.048716549 0)
(-0.0082251813 -0.02788382 0)
(-0.00075423103 -0.0069511649 0)
(-0.0018677184 0.017824029 0)
(-0.010681613 0.044593344 0)
(-0.026779799 0.062622168 0)
(-0.046086343 0.073162757 0)
(-0.066782431 0.077527552 0)
(-0.087744006 0.07662554 0)
(-0.10798872 0.070892637 0)
(-0.12658646 0.060426465 0)
(-0.14256737 0.04523315 0)
(-0.15485995 0.025510334 0)
(-0.16227807 0.0019223178 0)
(-0.16364142 -0.024153917 0)
(-0.15788218 -0.050525673 0)
(-0.14429201 -0.074093389 0)
(-0.12296857 -0.091086197 0)
(-0.095293222 -0.0976937 0)
(-0.064305465 -0.091235786 0)
(-0.034539098 -0.071685435 0)
(-0.011398995 -0.042744284 0)
(-0.0011130693 -0.011672797 0)
(-0.0020401201 0.023897644 0)
(-0.011629008 0.058416313 0)
(-0.029087089 0.081051181 0)
(-0.049959863 0.094023783 0)
(-0.072313213 0.099320922 0)
(-0.095036193 0.098252297 0)
(-0.11721706 0.091426101 0)
(-0.13801952 0.078948065 0)
(-0.15654965 0.060730882 0)
(-0.17174846 0.036833627 0)
(-0.18233784 0.0077889925 0)
(-0.18687111 -0.025096616 0)
(-0.18382719 -0.059424855 0)
(-0.17185954 -0.091572661 0)
(-0.15029826 -0.11671306 0)
(-0.11985763 -0.1293763 0)
(-0.083393785 -0.12484312 0)
(-0.04620307 -0.10142317 0)
(-0.015756126 -0.062725705 0)
(-0.0016663173 -0.018243726 0)
(-0.0021311614 0.030381964 0)
(-0.012175349 0.073155531 0)
(-0.030449184 0.10065554 0)
(-0.052237432 0.11618114 0)
(-0.075532243 0.12250337 0)
(-0.099268203 0.12141824 0)
(-0.12264982 0.11375609 0)
(-0.1449964 0.099640576 0)
(-0.16557071 0.078856316 0)
(-0.18342904 0.051237327 0)
(-0.1973168 0.017045488 0)
(-0.20563143 -0.022640426 0)
(-0.20647403 -0.065480323 0)
(-0.19783386 -0.10756098 0)
(-0.17806126 -0.1431049 0)
(-0.14675019 -0.1647684 0)
(-0.10591162 -0.16501529 0)
(-0.061012835 -0.13912376 0)
(-0.021728156 -0.089323138 0)
(-0.0025368621 -0.027404221 0)
(-0.0021413091 0.03704483 0)
(-0.012313808 0.088331933 0)
(-0.030811822 0.12079297 0)
(-0.052741738 0.13886928 0)
(-0.076049679 0.1462184 0)
(-0.09974299 0.14521481 0)
(-0.123186 0.13697592 0)
(-0.1459173 0.12167512 0)
(-0.16744869 0.098962331 0)
(-0.18708158 0.068392711 0)
(-0.2037494 0.029843291 0)
(-0.21588783 -0.016034954 0)
(-0.22143516 -0.067256788 0)
(-0.21784672 -0.11999537 0)
(-0.20241574 -0.16788523 0)
(-0.17321188 -0.20181314 0)
(-0.13055646 -0.21083091 0)
(-0.07895971 -0.18546763 0)
(-0.029773042 -0.12418166 0)
(-0.0039111622 -0.040171166 0)
(-0.0020977714 0.043671611 0)
(-0.012134633 0.10347235 0)
(-0.030293801 0.14075825 0)
(-0.051514394 0.16116329 0)
(-0.073713892 0.16934665 0)
(-0.096005726 0.16836652 0)
(-0.11796195 0.15970862 0)
(-0.1394038 0.14365324 0)
(-0.1601826 0.11974685 0)
(-0.17997916 0.087263425 0)
(-0.19811089 0.045640852 0)
(-0.21330787 -0.0050611753 0)
(-0.22366663 -0.06361271 0)
(-0.22641661 -0.12665816 0)
(-0.21797399 -0.18790466 0)
(-0.19471177 -0.23705626 0)
(-0.15445188 -0.25968873 0)
(-0.099169453 -0.23991649 0)
(-0.040304266 -0.16876247 0)
(-0.0060799726 -0.057888483 0)
(-0.0020788619 0.05014224 0)
(-0.011896844 0.11821423 0)
(-0.029299347 0.15986142 0)
(-0.048956057 0.18202714 0)
(-0.068782642 0.19053939 0)
(-0.088065655 0.18926328 0)
(-0.10665332 0.18014182 0)
(-0.1247141 0.16363492 0)
(-0.14251152 0.13924895 0)
(-0.16020483 0.10602387 0)
(-0.17766572 0.062961761 0)
(-0.19427643 0.0094492231 0)
(-0.20856636 -0.054210693 0)
(-0.21794612 -0.12572435 0)
(-0.2185368 -0.19971538 0)
(-0.20524401 -0.26580493 0)
(-0.17293935 -0.3069079 0)
(-0.11941561 -0.29984238 0)
(-0.053485954 -0.22371764 0)
(-0.009471261 -0.082257882 0)
(-0.0022578626 0.05656453 0)
(-0.012130467 0.13246072 0)
(-0.028640199 0.17753139 0)
(-0.045941754 0.2003807 0)
(-0.062034512 0.20828443 0)
(-0.076527572 0.20605261 0)
(-0.089660638 0.19615826 0)
(-0.10202326 0.17930338 0)
(-0.1143416 0.15502645 0)
(-0.12731082 0.12221989 0)
(-0.14144788 0.07952665 0)
(-0.15689289 0.025707435 0)
(-0.17301119 -0.039864687 0)
(-0.1879962 -0.11644721 0)
(-0.19832123 -0.20042996 0)
(-0.19820893 -0.28285888 0)
(-0.17984972 -0.34587852 0)
(-0.13574158 -0.35979463 0)
(-0.068796451 -0.28790433 0)
(-0.014617148 -0.11526146 0)
(-0.0029901805 0.063502495 0)
(-0.013794292 0.14657597 0)
(-0.029647434 0.19339845 0)
(-0.043840345 0.21513186 0)
(-0.054703475 0.22095308 0)
(-0.062469398 0.21674027 0)
(-0.067957508 0.20550631 0)
(-0.072267351 0.18820728 0)
(-0.076605969 0.16445078 0)
(-0.082184359 0.13308045 0)
(-0.090141523 0.092524344 0)
(-0.10140205 0.041081735 0)
(-0.11635223 -0.02275177 0)
(-0.13441518 -0.099779413 0)
(-0.15324755 -0.18876871 0)
(-0.16763307 -0.28377824 0)
(-0.16828141 -0.36901352 0)
(-0.14241738 -0.41138214 0)
(-0.084301544 -0.35712248 0)
(-0.021917984 -0.15875596 0)
(-0.0049823764 0.072388197 0)
(-0.018511393 0.16158356 0)
(-0.034179689 0.20724992 0)
(-0.044235522 0.22506454 0)
(-0.04795902 0.22672732 0)
(-0.046736402 0.21919898 0)
(-0.042232496 0.20590107 0)
(-0.036159386 0.18795506 0)
(-0.030188071 0.16498716 0)
(-0.02595109 0.1358577 0)
(-0.025090681 0.098918546 0)
(-0.02919637 0.052242507 0)
(-0.039627913 -0.0062250853 0)
(-0.057208752 -0.078545733 0)
(-0.081430389 -0.16584302 0)
(-0.10906958 -0.26630288 0)
(-0.13149631 -0.36937797 0)
(-0.13219843 -0.44407857 0)
(-0.095725903 -0.42296865 0)
(-0.030979544 -0.21353457 0)
(-0.0095572257 0.086265303 0)
(-0.028770169 0.17919282 0)
(-0.04406895 0.21865132 0)
(-0.047612724 0.22841192 0)
(-0.041049933 0.22327297 0)
(-0.027718958 0.21098025 0)
(-0.010415259 0.19497671 0)
(0.0084657956 0.17623791 0)
(0.026863904 0.1543546 0)
(0.042900791 0.12815661 0)
(0.054621651 0.096020769 0)
(0.060013842 0.056023302 0)
(0.05692393 0.0059678392 0)
(0.043363498 -0.056776541 0)
(0.017871363 -0.13506831 0)
(-0.019415381 -0.23122289 0)
(-0.063213733 -0.34242039 0)
(-0.096406172 -0.44670082 0)
(-0.095678293 -0.47253862 0)
(-0.039417457 -0.27843303 0)
(-0.018754466 0.11087641 0)
(-0.04712196 0.20054489 0)
(-0.057894044 0.22530931 0)
(-0.048395999 0.22143398 0)
(-0.025467041 0.20670018 0)
(0.0047789934 0.18863633 0)
(0.038330992 0.16988508 0)
(0.072384193 0.15078846 0)
(0.10477644 0.1306799 0)
(0.1336062 0.10829795 0)
(0.15692186 0.082109603 0)
(0.17258889 0.050371758 0)
(0.17804768 0.011100537 0)
(0.17055223 -0.038129578 0)
(0.14707527 -0.1007659 0)
(0.10473539 -0.18194828 0)
(0.043388264 -0.28701033 0)
(-0.024127034 -0.40905043 0)
(-0.07350208 -0.48938645 0)
(-0.041423542 -0.34924816 0)
(-0.03335614 0.15603376 0)
(-0.069063939 0.22021178 0)
(-0.056701047 0.21614074 0)
(-0.018923247 0.19336479 0)
(0.030234127 0.16855977 0)
(0.082870331 0.1461552 0)
(0.13500645 0.12665143 0)
(0.18441979 0.10923856 0)
(0.22959747 0.092721693 0)
(0.26918804 0.075782557 0)
(0.30166301 0.057086846 0)
(0.32515597 0.035257199 0)
(0.33715266 0.0087699489 0)
(0.33474285 -0.024159111 0)
(0.313982 -0.06621254 0)
(0.26996611 -0.12296856 0)
(0.19784342 -0.20514561 0)
(0.1002559 -0.32452771 0)
(-0.013359804 -0.45398308 0)
(-0.024004983 -0.40811821 0)
(-0.032953328 0.23948321 0)
(-0.042419703 0.21820419 0)
(0.042101878 0.16405944 0)
(0.12673335 0.12714862 0)
(0.20580829 0.10044795 0)
(0.27727162 0.08059739 0)
(0.34082602 0.065715979 0)
(0.39672859 0.054047473 0)
(0.44521262 0.044106993 0)
(0.48616602 0.034729973 0)
(0.51894887 0.024979619 0)
(0.54233603 0.01405368 0)
(0.5542784 0.0011733757 0)
(0.55256728 -0.014346808 0)
(0.53321042 -0.034282238 0)
(0.49082673 -0.062011819 0)
(0.41685448 -0.10671765 0)
(0.30332849 -0.19309649 0)
(0.12268725 -0.33686707 0)
(0.052226913 -0.39433171 0)
(0.24314259 0.15271439 0)
(0.30568744 0.11874145 0)
(0.455261 0.076191288 0)
(0.56023677 0.050787208 0)
(0.63199308 0.034967536 0)
(0.68570814 0.024605748 0)
(0.7280038 0.017765038 0)
(0.76189095 0.013119178 0)
(0.78909875 0.0097119822 0)
(0.81052216 0.0068981499 0)
(0.82634701 0.0042419253 0)
(0.83621671 0.0014498296 0)
(0.8392996 -0.0016999648 0)
(0.83422046 -0.0051711585 0)
(0.81852605 -0.0096878159 0)
(0.78937749 -0.01614444 0)
(0.73793416 -0.02690895 0)
(0.65326064 -0.051302701 0)
(0.45613537 -0.1137802 0)
(0.31789009 -0.17208955 0)
)
;

boundaryField
{
    movingWall
    {
        type            fixedValue;
        value           uniform (1 0 0);
    }
    fixedWalls
    {
        type            fixedValue;
        value           uniform (0 0 0);
    }
    frontAndBack
    {
        type            empty;
    }
}


// ************************************************************************* //
