/*--------------------------------*- C++ -*----------------------------------*\
| =========                 |                                                 |
| \\      /  F ield         | OpenFOAM: The Open Source CFD Toolbox           |
|  \\    /   O peration     | Version:  2112                                  |
|   \\  /    A nd           | Website:  www.openfoam.com                      |
|    \\/     M anipulation  |                                                 |
\*---------------------------------------------------------------------------*/
FoamFile
{
    version     2.0;
    format      ascii;
    arch        "LSB;label=32;scalar=64";
    class       volVectorField;
    location    "6";
    object      U_0;
}
// * * * * * * * * * * * * * * * * * * * * * * * * * * * * * * * * * * * * * //

dimensions      [0 1 -1 0 0 0 0];

internalField   nonuniform List<vector> 
400
(
(0.00025214818 -0.00024873987 0)
(6.1051074e-05 9.0507583e-05 0)
(-0.0013010374 0.0004582176 0)
(-0.0034449183 0.00069384068 0)
(-0.0060505893 0.00081211457 0)
(-0.008841049 0.00084533034 0)
(-0.011580708 0.00081234248 0)
(-0.014054952 0.00071532165 0)
(-0.016045431 0.00054690205 0)
(-0.017326444 0.00030164168 0)
(-0.017688191 -1.3555941e-05 0)
(-0.016980683 -0.00037521016 0)
(-0.015171871 -0.00072951433 0)
(-0.012400354 -0.0010075909 0)
(-0.0089971291 -0.0011377161 0)
(-0.0054584867 -0.0010665606 0)
(-0.0023579913 -0.00078430293 0)
(-0.00021070784 -0.00034635789 0)
(0.00065813617 0.0001138586 0)
(0.0003737121 0.00035458712 0)
(-9.291329e-05 -7.2549731e-05 0)
(-0.0017694999 0.001703662 0)
(-0.0058912808 0.0033937004 0)
(-0.011576242 0.0045234218 0)
(-0.018178009 0.0051001816 0)
(-0.025110255 0.0052059515 0)
(-0.031816504 0.0048960787 0)
(-0.037765087 0.004182261 0)
(-0.042431558 0.003055948 0)
(-0.045311605 0.001529821 0)
(-0.045979535 -0.00032154835 0)
(-0.044162503 -0.0023327567 0)
(-0.039846908 -0.0042402002 0)
(-0.033372916 -0.0057182524 0)
(-0.025451289 -0.0064439129 0)
(-0.017109326 -0.0061918853 0)
(-0.0095268913 -0.0049380838 0)
(-0.0037681172 -0.0029369464 0)
(-0.00048633427 -0.00074768764 0)
(0.00024360433 0.00068084815 0)
(-0.00054748128 0.001385476 0)
(-0.0039170982 0.0059542254 0)
(-0.010829592 0.0098663175 0)
(-0.019758774 0.012470118 0)
(-0.029789203 0.013766376 0)
(-0.040138133 0.013881514 0)
(-0.050038752 0.01290766 0)
(-0.058746176 0.010873943 0)
(-0.065532017 0.0077932951 0)
(-0.069710742 0.003744507 0)
(-0.070710294 -0.0010469892 0)
(-0.068172555 -0.0061552002 0)
(-0.062077704 -0.010957127 0)
(-0.052852507 -0.014700794 0)
(-0.041408067 -0.016649138 0)
(-0.029094615 -0.016287879 0)
(-0.017515689 -0.013552244 0)
(-0.0081823635 -0.0089899939 0)
(-0.0021542195 -0.0037885526 0)
(-3.1657961e-05 0.0001695956 0)
(-0.00096133259 0.0040147902 0)
(-0.0059547148 0.012544968 0)
(-0.015553496 0.019246685 0)
(-0.027509784 0.023567974 0)
(-0.040638432 0.025612665 0)
(-0.054012889 0.025590218 0)
(-0.066732161 0.023638946 0)
(-0.077918617 0.019808602 0)
(-0.086710444 0.014142309 0)
(-0.09228823 0.0068041046 0)
(-0.093950951 -0.0018002534 0)
(-0.091219567 -0.010952919 0)
(-0.08397589 -0.019606557 0)
(-0.07260509 -0.026497141 0)
(-0.058077912 -0.030358002 0)
(-0.041962814 -0.030252232 0)
(-0.026265289 -0.025961202 0)
(-0.013027905 -0.018286015 0)
(-0.0039080023 -0.0090952167 0)
(-0.00027730594 -0.0012430913 0)
(-0.0013201301 0.0077162373 0)
(-0.007789733 0.021328429 0)
(-0.019868607 0.031327901 0)
(-0.034607494 0.037539279 0)
(-0.050568791 0.040319642 0)
(-0.066720671 0.040029231 0)
(-0.08208517 0.036874128 0)
(-0.095713489 0.030924706 0)
(-0.10666068 0.022244556 0)
(-0.11399787 0.011066645 0)
(-0.11688215 -0.0020419752 0)
(-0.11464603 -0.016077714 0)
(-0.10695499 -0.029555915 0)
(-0.094005994 -0.040634669 0)
(-0.07668067 -0.047376645 0)
(-0.056671576 -0.048211161 0)
(-0.036406444 -0.042537273 0)
(-0.018622448 -0.031261804 0)
(-0.0058419367 -0.016947517 0)
(-0.00049985477 -0.003574323 0)
(-0.0016235948 0.012366454 0)
(-0.0093794177 0.032100228 0)
(-0.023650195 0.045887962 0)
(-0.040866977 0.054168501 0)
(-0.059377344 0.057705311 0)
(-0.078083242 0.057090637 0)
(-0.095980184 0.0526281 0)
(-0.11210175 0.044404612 0)
(-0.12546415 0.032475276 0)
(-0.13504891 0.017090619 0)
(-0.13985292 -0.0010843828 0)
(-0.13895557 -0.020788358 0)
(-0.13168902 -0.040158193 0)
(-0.11789627 -0.05672119 0)
(-0.098181952 -0.067698711 0)
(-0.074211192 -0.070583662 0)
(-0.048803974 -0.064013986 0)
(-0.025559263 -0.048703672 0)
(-0.0082231121 -0.027878066 0)
(-0.00075406018 -0.0069506547 0)
(-0.0018668325 0.017815952 0)
(-0.010676898 0.044573499 0)
(-0.026768442 0.062594819 0)
(-0.046067414 0.073131546 0)
(-0.066755893 0.077495528 0)
(-0.087710389 0.076595379 0)
(-0.10794903 0.070866796 0)
(-0.12654207 0.060407163 0)
(-0.14251989 0.045222203 0)
(-0.15481109 0.025508946 0)
(-0.16222967 0.0019308764 0)
(-0.16359511 -0.024136098 0)
(-0.15783944 -0.050500007 0)
(-0.14425433 -0.074062195 0)
(-0.12293729 -0.0910526 0)
(-0.095269378 -0.097661409 0)
(-0.064289512 -0.091208615 0)
(-0.034530546 -0.071666446 0)
(-0.011396138 -0.042734679 0)
(-0.0011127637 -0.011671068 0)
(-0.0020392887 0.023886987 0)
(-0.01162459 0.058390966 0)
(-0.029076455 0.081016877 0)
(-0.049942181 0.093985167 0)
(-0.072288525 0.099281761 0)
(-0.095005089 0.098215799 0)
(-0.11718055 0.091395114 0)
(-0.13797892 0.078925066 0)
(-0.15650639 0.060717804 0)
(-0.17170397 0.036831648 0)
(-0.18229353 0.0077983996 0)
(-0.18682822 -0.025076357 0)
(-0.18378685 -0.059395286 0)
(-0.17182296 -0.091536157 0)
(-0.15026671 -0.11667284 0)
(-0.11983243 -0.12933639 0)
(-0.083375978 -0.12480807 0)
(-0.046192928 -0.10139722 0)
(-0.015752478 -0.062711362 0)
(-0.0016658494 -0.018240348 0)
(-0.0021305053 0.030369042 0)
(-0.012171791 0.073125337 0)
(-0.030440524 0.10061511 0)
(-0.052222959 0.11613603 0)
(-0.075512042 0.12245803 0)
(-0.099242871 0.12137637 0)
(-0.12262032 0.11372085 0)
(-0.14496388 0.09961461 0)
(-0.16553636 0.078841571 0)
(-0.18339393 0.051234893 0)
(-0.19728183 0.017055543 0)
(-0.20559726 -0.022618557 0)
(-0.20644123 -0.065448203 0)
(-0.19780305 -0.10752083 0)
(-0.17803335 -0.14305974 0)
(-0.14672648 -0.16472216 0)
(-0.10589363 -0.1649729 0)
(-0.06100177 -0.13909059 0)
(-0.021723806 -0.089303391 0)
(-0.0025362036 -0.027398762 0)
(-0.0021409387 0.037030272 0)
(-0.012311633 0.088298144 0)
(-0.030806302 0.12074791 0)
(-0.052732307 0.13881928 0)
(-0.076036424 0.14616849 0)
(-0.099726451 0.14516911 0)
(-0.12316702 0.13693784 0)
(-0.14589683 0.12164735 0)
(-0.16742761 0.098946732 0)
(-0.18706052 0.068390165 0)
(-0.20372872 0.029853738 0)
(-0.2158676 -0.01601238 0)
(-0.2214152 -0.067223756 0)
(-0.21782681 -0.11995383 0)
(-0.20239611 -0.16783771 0)
(-0.17319342 -0.20176306 0)
(-0.13054083 -0.21078298 0)
(-0.078948939 -0.18542794 0)
(-0.029768257 -0.12415631 0)
(-0.0039102966 -0.040163255 0)
(-0.0020977691 0.043656313 0)
(-0.012134249 0.10343673 0)
(-0.030292347 0.14071068 0)
(-0.051511471 0.16111057 0)
(-0.073709537 0.1692943 0)
(-0.096000352 0.168319 0)
(-0.1179562 0.1596695 0)
(-0.13939834 0.14362517 0)
(-0.16017795 0.1197315 0)
(-0.17997551 0.087261332 0)
(-0.19810805 0.045651525 0)
(-0.21330544 -0.0050390007 0)
(-0.22366364 -0.06358046 0)
(-0.22641191 -0.12661769 0)
(-0.21796695 -0.18785796 0)
(-0.19470252 -0.23700584 0)
(-0.1544417 -0.25963843 0)
(-0.099160774 -0.2398723 0)
(-0.040299578 -0.16873207 0)
(-0.0060789234 -0.057877924 0)
(-0.0020792694 0.050127285 0)
(-0.011898484 0.11817892 0)
(-0.029302512 0.15981388 0)
(-0.048960526 0.18197432 0)
(-0.068788349 0.19048709 0)
(-0.08807279 0.18921621 0)
(-0.10666221 0.18010364 0)
(-0.12472502 0.16360818 0)
(-0.14252459 0.13923505 0)
(-0.16021985 0.10602299 0)
(-0.1776821 0.062972951 0)
(-0.19429297 0.0094708281 0)
(-0.20858157 -0.05418033 0)
(-0.21795854 -0.12568703 0)
(-0.21854491 -0.19967256 0)
(-0.20524694 -0.26575803 0)
(-0.17293752 -0.30685933 0)
(-0.11941114 -0.29979705 0)
(-0.053482204 -0.22368382 0)
(-0.0094701282 -0.082244805 0)
(-0.0022586744 0.056551074 0)
(-0.012134143 0.13242804 0)
(-0.028648059 0.17748663 0)
(-0.045953759 0.20033057 0)
(-0.062050437 0.20823478 0)
(-0.076547277 0.20600826 0)
(-0.089683996 0.19612286 0)
(-0.10205001 0.17927932 0)
(-0.11437132 0.15501493 0)
(-0.12734287 0.12222077 0)
(-0.14148134 0.079538646 0)
(-0.15692635 0.025728551 0)
(-0.17304295 -0.039836856 0)
(-0.18802445 -0.11641431 0)
(-0.19834407 -0.20039319 0)
(-0.19822471 -0.28281876 0)
(-0.17985781 -0.34583583 0)
(-0.13574311 -0.35975236 0)
(-0.068794697 -0.28786989 0)
(-0.014616144 -0.11524651 0)
(-0.0029913378 0.06349164 0)
(-0.013799767 0.14654812 0)
(-0.029659506 0.19335915 0)
(-0.043859165 0.2150871 0)
(-0.054728624 0.22090851 0)
(-0.062500327 0.21670062 0)
(-0.067993539 0.20547513 0)
(-0.072307528 0.18818667 0)
(-0.07664922 0.16444192 0)
(-0.082229611 0.13308298 0)
(-0.090187574 0.092536785 0)
(-0.10144755 0.04110176 0)
(-0.11639546 -0.022726997 0)
(-0.13445447 -0.099751303 0)
(-0.15328132 -0.18873878 0)
(-0.16765935 -0.28374658 0)
(-0.16829871 -0.36897968 0)
(-0.1424255 -0.41134691 0)
(-0.084302731 -0.35709096 0)
(-0.021917437 -0.15874041 0)
(-0.0049837481 0.072380841 0)
(-0.01851811 0.1615624 0)
(-0.034194805 0.20721835 0)
(-0.044259389 0.22502746 0)
(-0.047991049 0.22668982 0)
(-0.046775632 0.21916551 0)
(-0.042277816 0.205875 0)
(-0.036208995 0.18793789 0)
(-0.030240143 0.16498049 0)
(-0.026004263 0.13586111 0)
(-0.025143549 0.098930595 0)
(-0.029247857 0.052261104 0)
(-0.039676016 -0.0062021821 0)
(-0.057252342 -0.078521908 0)
(-0.081469022 -0.16581944 0)
(-0.10910144 -0.26627952 0)
(-0.13151966 -0.36935389 0)
(-0.13221193 -0.44405289 0)
(-0.09573029 -0.42294341 0)
(-0.030979787 -0.21352019 0)
(-0.0095585597 0.086261905 0)
(-0.028777108 0.17917938 0)
(-0.044084999 0.21862891 0)
(-0.047638475 0.22838404 0)
(-0.041084758 0.22324381 0)
(-0.027761619 0.21095363 0)
(-0.010464794 0.19495562 0)
(0.0084121204 0.17622426 0)
(0.026808848 0.15434941 0)
(0.042845544 0.12815972 0)
(0.054568053 0.096031081 0)
(0.059963554 0.056039057 0)
(0.056876938 0.0059870633 0)
(0.043320425 -0.056757133 0)
(0.01783384 -0.13505018 0)
(-0.019446957 -0.23120659 0)
(-0.063238542 -0.34240507 0)
(-0.096422219 -0.44668499 0)
(-0.095684935 -0.47252161 0)
(-0.039418553 -0.27842161 0)
(-0.01875535 0.11087658 0)
(-0.047127495 0.20053883 0)
(-0.057907745 0.22529607 0)
(-0.048418812 0.22141556 0)
(-0.025498744 0.20667969 0)
(0.0047394001 0.18861675 0)
(0.038284893 0.16986884 0)
(0.072333921 0.15077801 0)
(0.10472454 0.13067554 0)
(0.13355455 0.10829982 0)
(0.15687237 0.082117048 0)
(0.17254305 0.050383334 0)
(0.17800616 0.011114113 0)
(0.17051547 -0.038115205 0)
(0.1470437 -0.1007527 0)
(0.10470901 -0.18193757 0)
(0.043366782 -0.28700176 0)
(-0.024142016 -0.40904224 0)
(-0.073508987 -0.4893773 0)
(-0.041425063 -0.34924091 0)
(-0.03335613 0.15603602 0)
(-0.069066199 0.22021102 0)
(-0.056708639 0.21613508 0)
(-0.018937679 0.19335487 0)
(0.030212215 0.16854754 0)
(0.082841157 0.14614279 0)
(0.13497104 0.12664068 0)
(0.18437989 0.10923112 0)
(0.22955522 0.092718166 0)
(0.26914555 0.075783159 0)
(0.30162226 0.057091225 0)
(0.32511858 0.035264486 0)
(0.33711967 0.0087789515 0)
(0.33471478 -0.02414981 0)
(0.313959 -0.066204258 0)
(0.2699477 -0.12296235 0)
(0.19782888 -0.20514175 0)
(0.10024536 -0.32452464 0)
(-0.013365232 -0.45397974 0)
(-0.024006366 -0.40811525 0)
(-0.032952652 0.23948536 0)
(-0.042418426 0.21820578 0)
(0.042101571 0.16405855 0)
(0.1267292 0.12714523 0)
(0.20579893 0.10044292 0)
(0.2772564 0.08059185 0)
(0.34080523 0.065710964 0)
(0.39670334 0.054043859 0)
(0.4451846 0.044105237 0)
(0.48613713 0.034730223 0)
(0.51892103 0.024981687 0)
(0.54231101 0.014057064 0)
(0.55425694 0.0011773154 0)
(0.55255003 -0.014342661 0)
(0.5331976 -0.034278538 0)
(0.49081769 -0.06200921 0)
(0.41684818 -0.10671636 0)
(0.30332408 -0.193096 0)
(0.1226847 -0.33686674 0)
(0.052226081 -0.39433141 0)
(0.24314333 0.1527151 0)
(0.30568948 0.11874249 0)
(0.45526341 0.076191752 0)
(0.56023813 0.050786976 0)
(0.63199211 0.034966745 0)
(0.68570407 0.024604682 0)
(0.72799659 0.017763998 0)
(0.76188118 0.013118428 0)
(0.78908742 0.0097116737 0)
(0.81051045 0.0068983327 0)
(0.82633604 0.0042425306 0)
(0.83620742 0.0014507001 0)
(0.83929266 -0.001699281 0)
(0.83421629 -0.0051703793 0)
(0.81852409 -0.0096870659 0)
(0.7893771 -0.016143954 0)
(0.73793456 -0.026908791 0)
(0.65326108 -0.051302773 0)
(0.45613554 -0.11378037 0)
(0.31789008 -0.1720897 0)
)
;

boundaryField
{
    movingWall
    {
        type            fixedValue;
        value           uniform (1 0 0);
    }
    fixedWalls
    {
        type            fixedValue;
        value           uniform (0 0 0);
    }
    frontAndBack
    {
        type            empty;
    }
}


// ************************************************************************* //
