/*--------------------------------*- C++ -*----------------------------------*\
| =========                 |                                                 |
| \\      /  F ield         | OpenFOAM: The Open Source CFD Toolbox           |
|  \\    /   O peration     | Version:  2112                                  |
|   \\  /    A nd           | Website:  www.openfoam.com                      |
|    \\/     M anipulation  |                                                 |
\*---------------------------------------------------------------------------*/
FoamFile
{
    version     2.0;
    format      ascii;
    arch        "LSB;label=32;scalar=64";
    class       volScalarField;
    location    "36";
    object      p;
}
// * * * * * * * * * * * * * * * * * * * * * * * * * * * * * * * * * * * * * //

dimensions      [0 2 -2 0 0 0 0];

internalField   nonuniform List<scalar> 
400
(
1.8298076e-08
-0.00067285553
-0.0013853333
-0.0019426913
-0.0022199842
-0.002156481
-0.001727777
-0.00092618645
0.00023543496
0.0017074207
0.0033873012
0.0051122114
0.0066734952
0.007849122
0.0084584076
0.008423696
0.007813404
0.0068445252
0.00586131
0.0052989563
0.0006578592
-4.0507745e-05
-0.00056964184
-0.00094060793
-0.0011108454
-0.0010399027
-0.00070577214
-9.5528047e-05
0.00078911473
0.0019162012
0.0032096
0.0045547177
0.0057819759
0.0067162731
0.0072144437
0.007214547
0.006769969
0.0060527809
0.0053105386
0.0047384973
0.0014237166
0.00044066748
-0.00011658228
-0.000453226
-0.00061479165
-0.00058479391
-0.00034656241
0.00011975938
0.00082847161
0.0017699146
0.0028942984
0.0040981713
0.0052282479
0.0061109861
0.006593888
0.0065976874
0.0061557596
0.0054215273
0.0045937563
0.0037482409
0.002014211
0.00068170134
1.6785826e-05
-0.00035883652
-0.00057153348
-0.00062654474
-0.00051006737
-0.00019061514
0.00036851508
0.001184394
0.002229917
0.0034174308
0.0045913733
0.0055569522
0.0061235697
0.0061665814
0.0056836427
0.0048170678
0.0037473017
0.0024736042
0.0021672818
0.00049613025
-0.0002962457
-0.0007486905
-0.0010582382
-0.001245257
-0.0012927362
-0.0011512876
-0.0007550335
-5.3086474e-05
0.00095703071
0.002210285
0.003544713
0.0047326686
0.0055218498
0.0057098934
0.0052292997
0.0042016171
0.0028061923
0.00098396692
0.0016539731
-0.00031446794
-0.0012387767
-0.001799289
-0.0022526484
-0.0026278964
-0.0028986107
-0.0029910717
-0.002802521
-0.0022376591
-0.0012510851
0.00013089379
0.0017446442
0.0033271087
0.0045416437
0.0050657814
0.0047175019
0.0035662067
0.0017895997
-0.00072591681
0.00028703559
-0.001919559
-0.002972988
-0.0036713727
-0.0043202856
-0.0049531882
-0.0055301107
-0.0059479479
-0.0060589953
-0.0057073654
-0.0047756994
-0.0032586889
-0.001266511
0.00090717451
0.0028231267
0.0039868405
0.0040251011
0.0028877143
0.00071538331
-0.0026804969
-0.00207642
-0.0044511807
-0.005626792
-0.0064923128
-0.0073929122
-0.0083657535
-0.0093569119
-0.010231778
-0.01079097
-0.010804835
-0.010063345
-0.0084617455
-0.0060407598
-0.0030832177
-0.00012630795
0.002112626
0.0029638325
0.0021355861
-0.00036603164
-0.0048726087
-0.0055241592
-0.0079921051
-0.0092779082
-0.010333776
-0.011537989
-0.012935411
-0.014462703
-0.015956314
-0.017162466
-0.017766038
-0.017438077
-0.015919461
-0.013122948
-0.0092517577
-0.0048990111
-0.0010300168
0.0012694122
0.0012777668
-0.001333956
-0.0072016762
-0.010076905
-0.01256509
-0.013936656
-0.015183989
-0.016718364
-0.018602618
-0.020774203
-0.023048764
-0.025121687
-0.026586362
-0.026969363
-0.025812946
-0.022845675
-0.018074449
-0.012051095
-0.0059519562
-0.0013707394
0.00030059545
-0.0019472012
-0.0093822234
-0.015684978
-0.018132408
-0.019537557
-0.020926802
-0.022757719
-0.025129862
-0.027997017
-0.031166417
-0.034291475
-0.036876858
-0.038294191
-0.037844296
-0.035065866
-0.029601475
-0.021822501
-0.012985579
-0.0051849765
-0.0007157502
-0.0017641981
-0.010792254
-0.022243591
-0.024613028
-0.025945597
-0.027334967
-0.029324151
-0.032079202
-0.03558894
-0.039664672
-0.043927291
-0.047801312
-0.050530198
-0.051236494
-0.048956891
-0.043143558
-0.033769023
-0.021926347
-0.010036884
-0.001415444
-9.8659663e-06
-0.010225618
-0.029641216
-0.031923885
-0.032978742
-0.034079885
-0.035939528
-0.038831498
-0.042795592
-0.047651591
-0.052990559
-0.058163608
-0.062284258
-0.064265538
-0.062875166
-0.057112197
-0.046476751
-0.031649092
-0.015037864
-0.00086438925
0.0046467652
-0.0055215351
-0.037866014
-0.040048518
-0.040440124
-0.04075251
-0.042015084
-0.044653087
-0.048758177
-0.054144043
-0.060356041
-0.066665369
-0.072060707
-0.075268293
-0.074811369
-0.069269273
-0.057628314
-0.039961513
-0.018247972
0.0027890401
0.014445161
0.0069075518
-0.047230592
-0.049134388
-0.048140585
-0.046882256
-0.046905511
-0.048798741
-0.052668316
-0.058276011
-0.065076097
-0.072232005
-0.078595784
-0.082712334
-0.082880218
-0.077309397
-0.064523943
-0.043934957
-0.016747987
0.012502951
0.03293879
0.03240896
-0.058896774
-0.059639909
-0.055883966
-0.051941021
-0.049972279
-0.050629892
-0.053928686
-0.059495369
-0.066611872
-0.074285305
-0.081191179
-0.085679417
-0.085831807
-0.079522202
-0.064876104
-0.040689268
-0.0072409179
0.032139377
0.064981458
0.077749189
-0.076226493
-0.072613701
-0.063516251
-0.055435409
-0.050724989
-0.049781566
-0.052312338
-0.05766438
-0.064891837
-0.072774985
-0.079779378
-0.084036759
-0.083391665
-0.07534897
-0.057602679
-0.028375141
0.012933332
0.065396484
0.11555152
0.15150623
-0.10809227
-0.089556247
-0.071233838
-0.057233071
-0.049072169
-0.04633022
-0.04807726
-0.05320261
-0.060434633
-0.068295878
-0.075027407
-0.078526927
-0.076389019
-0.065809685
-0.043865486
-0.0078184496
0.044393673
0.11299816
0.18838043
0.27186078
-0.17684566
-0.10828964
-0.076202395
-0.054651222
-0.042992398
-0.038998048
-0.040570521
-0.045928051
-0.053441547
-0.06143837
-0.068027598
-0.070962571
-0.067551145
-0.054739845
-0.029148821
0.013563599
0.078146961
0.17006436
0.28949547
0.47421823
-0.37208377
-0.12470864
-0.054973101
-0.031962512
-0.022063557
-0.020300532
-0.02435947
-0.031958012
-0.041261571
-0.050640898
-0.058316914
-0.062187477
-0.059782566
-0.048056821
-0.022658536
0.021474205
0.092818723
0.21015277
0.40288843
0.77640929
)
;

boundaryField
{
    movingWall
    {
        type            zeroGradient;
    }
    fixedWalls
    {
        type            zeroGradient;
    }
    frontAndBack
    {
        type            empty;
    }
}


// ************************************************************************* //
