# Force coefficients
# liftDir      : (0.00000000e+00 1.00000000e+00 0.00000000e+00)
# dragDir      : (1.00000000e+00 0.00000000e+00 0.00000000e+00)
# pitchAxis    : (0.00000000e+00 0.00000000e+00 1.00000000e+00)
# magUInf      : 1.00000000e+00
# lRef         : 1.00000000e+00
# Aref         : 2.00000000e+00
# CofR         : (0.00000000e+00 0.00000000e+00 0.00000000e+00)
# Time         	Cm             	Cd             	Cl             	Cl(f)          	Cl(r)          
1              	6.76911875e-02	2.11762835e+01	7.04059877e-01	4.19721126e-01	2.84338751e-01
2              	5.45801711e-02	1.47976166e+01	-4.90908413e-02	3.00347505e-02	-7.91255918e-02
3              	4.23115415e-02	-8.22546039e-01	-1.00635813e+00	-4.60867524e-01	-5.45490607e-01
4              	3.25222168e-02	-9.01728565e+00	-1.23797675e+00	-5.86466160e-01	-6.51510593e-01
5              	2.77730957e-02	-5.70204931e+00	-7.53835947e-01	-3.49144878e-01	-4.04691069e-01
6              	2.69629383e-02	1.99178175e+00	-2.25307336e-01	-8.56907296e-02	-1.39616606e-01
7              	2.72614035e-02	6.08807298e+00	-1.34969242e-01	-4.02232175e-02	-9.47460245e-02
8              	2.46205607e-02	4.45795343e+00	-4.13930039e-01	-1.82344459e-01	-2.31585580e-01
9              	2.09852890e-02	5.23734891e-01	-6.94086509e-01	-3.26057966e-01	-3.68028544e-01
10             	1.75865543e-02	-1.69276753e+00	-7.10275469e-01	-3.37551180e-01	-3.72724289e-01
11             	1.46681075e-02	-1.01124360e+00	-5.22920556e-01	-2.46792171e-01	-2.76128386e-01
12             	1.19601435e-02	9.91261434e-01	-3.56181916e-01	-1.66130815e-01	-1.90051102e-01
13             	1.07435377e-02	2.26970283e+00	-3.40493990e-01	-1.59503457e-01	-1.80990533e-01
14             	9.95188887e-03	2.08668480e+00	-4.17221450e-01	-1.98658836e-01	-2.18562614e-01
15             	9.21472161e-03	1.10506924e+00	-4.64718480e-01	-2.23144519e-01	-2.41573962e-01
16             	8.17652090e-03	3.90560265e-01	-4.29083396e-01	-2.06365177e-01	-2.22718219e-01
17             	6.85100307e-03	4.41988673e-01	-3.48973494e-01	-1.67635744e-01	-1.81337750e-01
18             	5.59913323e-03	9.79989016e-01	-2.87414665e-01	-1.38108199e-01	-1.49306466e-01
19             	4.85449608e-03	1.42897844e+00	-2.65846265e-01	-1.28068637e-01	-1.37777629e-01
20             	4.55722090e-03	1.47245586e+00	-2.58080456e-01	-1.24483007e-01	-1.33597449e-01
21             	4.28278800e-03	1.21827210e+00	-2.32858084e-01	-1.12146254e-01	-1.20711830e-01
22             	3.77772857e-03	9.77998049e-01	-1.85822784e-01	-8.91336634e-02	-9.66891205e-02
23             	3.07998506e-03	9.50814670e-01	-1.33495962e-01	-6.36679959e-02	-6.98279660e-02
24             	2.39002503e-03	1.09659696e+00	-8.96261362e-02	-4.24230431e-02	-4.72030931e-02
25             	1.89696122e-03	1.24540596e+00	-5.29547847e-02	-2.45804311e-02	-2.83743536e-02
26             	1.60842322e-03	1.27810511e+00	-1.41467463e-02	-5.46494995e-03	-8.68179639e-03
27             	1.37693669e-03	1.20714674e+00	3.17954601e-02	1.72746667e-02	1.45207933e-02
28             	1.09799629e-03	1.12445561e+00	8.14858527e-02	4.18409227e-02	3.96449301e-02
29             	7.74153429e-04	1.10042306e+00	1.28420794e-01	6.49845506e-02	6.34362437e-02
30             	4.72024736e-04	1.13327522e+00	1.70222368e-01	8.55832089e-02	8.46391594e-02
31             	2.45169444e-04	1.17465724e+00	2.09432846e-01	1.04961592e-01	1.04471253e-01
32             	1.01223322e-04	1.18466945e+00	2.48919671e-01	1.24561059e-01	1.24358612e-01
33             	2.23225624e-05	1.16188184e+00	2.88623491e-01	1.44334068e-01	1.44289423e-01
34             	-8.35057732e-06	1.13167597e+00	3.25789322e-01	1.62886310e-01	1.62903011e-01
35             	6.95053211e-06	1.11663615e+00	3.58093731e-01	1.79053816e-01	1.79039915e-01
36             	7.41827545e-05	1.11905534e+00	3.85269878e-01	1.92709122e-01	1.92560756e-01
37             	1.93394529e-04	1.12628593e+00	4.08398917e-01	2.04392853e-01	2.04006064e-01
38             	3.63445768e-04	1.12623229e+00	4.28262073e-01	2.14494482e-01	2.13767591e-01
39             	5.80768666e-04	1.11675768e+00	4.44397277e-01	2.22779407e-01	2.21617870e-01
40             	8.40862459e-04	1.10389213e+00	4.55817511e-01	2.28749618e-01	2.27067893e-01
41             	1.13913486e-03	1.09408999e+00	4.61945611e-01	2.32111940e-01	2.29833671e-01
42             	1.46942230e-03	1.08921392e+00	4.62481700e-01	2.32710272e-01	2.29771428e-01
43             	1.82178977e-03	1.08674155e+00	4.57430062e-01	2.30536821e-01	2.26893241e-01
44             	2.18453344e-03	1.08318960e+00	4.46965473e-01	2.25667270e-01	2.21298203e-01
45             	2.54974178e-03	1.07711392e+00	4.31204167e-01	2.18151825e-01	2.13052341e-01
46             	2.90935816e-03	1.06954477e+00	4.10180084e-01	2.07999400e-01	2.02180684e-01
47             	3.25197495e-03	1.06226308e+00	3.83909913e-01	1.95206931e-01	1.88702981e-01
48             	3.56738519e-03	1.05623000e+00	3.52496820e-01	1.79815795e-01	1.72681025e-01
49             	3.84323318e-03	1.05110274e+00	3.16174291e-01	1.61930379e-01	1.54243912e-01
50             	4.06546454e-03	1.04592221e+00	2.75348126e-01	1.41739528e-01	1.33608599e-01
51             	4.22168087e-03	1.04021658e+00	2.30515118e-01	1.19479240e-01	1.11035878e-01
52             	4.30183178e-03	1.03417782e+00	1.82260814e-01	9.54322388e-02	8.68285753e-02
53             	4.29991384e-03	1.02836025e+00	1.31201670e-01	6.99007488e-02	6.13009211e-02
54             	4.20771354e-03	1.02305648e+00	7.80381449e-02	4.32267860e-02	3.48113589e-02
55             	4.01914535e-03	1.01829718e+00	2.35502517e-02	1.57942712e-02	7.75598052e-03
56             	3.73202291e-03	1.01402406e+00	-3.11481058e-02	-1.18420300e-02	-1.93060758e-02
57             	3.34858495e-03	1.01042614e+00	-8.47353107e-02	-3.90190704e-02	-4.57162403e-02
58             	2.87737943e-03	1.00738383e+00	-1.35450652e-01	-6.48479465e-02	-7.06027053e-02
59             	2.33163307e-03	1.00444240e+00	-1.81480522e-01	-8.84086280e-02	-9.30718942e-02
60             	1.72634015e-03	1.00284688e+00	-2.21623250e-01	-1.09085285e-01	-1.12537965e-01
61             	1.07471972e-03	1.00456462e+00	-2.55294607e-01	-1.26572584e-01	-1.28722023e-01
62             	3.90672353e-04	1.00905032e+00	-2.81313557e-01	-1.40266106e-01	-1.41047451e-01
63             	-3.11062328e-04	1.01371858e+00	-2.97287255e-01	-1.48954690e-01	-1.48332565e-01
64             	-1.01548876e-03	1.02001263e+00	-3.02055655e-01	-1.52043317e-01	-1.50012339e-01
65             	-1.70028876e-03	1.02867561e+00	-2.96093062e-01	-1.49746820e-01	-1.46346242e-01
66             	-2.33953171e-03	1.03731944e+00	-2.79025524e-01	-1.41852294e-01	-1.37173230e-01
67             	-2.90794691e-03	1.04665530e+00	-2.51415203e-01	-1.28615548e-01	-1.22799654e-01
68             	-3.37865811e-03	1.05625652e+00	-2.14794550e-01	-1.10775933e-01	-1.04018617e-01
69             	-3.72436479e-03	1.06581554e+00	-1.68979568e-01	-8.82141488e-02	-8.07654193e-02
70             	-3.91330620e-03	1.07450395e+00	-1.16208645e-01	-6.20176286e-02	-5.41910162e-02
71             	-3.91195259e-03	1.08214401e+00	-5.77523228e-02	-3.27881140e-02	-2.49642088e-02
72             	-3.69054660e-03	1.08845366e+00	4.61551630e-03	-1.38278845e-03	5.99830475e-03
73             	-3.22410273e-03	1.08974273e+00	6.80548529e-02	3.08033237e-02	3.72515292e-02
74             	-2.50609928e-03	1.08813035e+00	1.30388439e-01	6.26881202e-02	6.77003187e-02
75             	-1.56191997e-03	1.08538003e+00	1.88828348e-01	9.28522543e-02	9.59760942e-02
76             	-4.52012284e-04	1.08249205e+00	2.40246808e-01	1.19671392e-01	1.20575416e-01
77             	7.34846998e-04	1.08317670e+00	2.83340104e-01	1.42404899e-01	1.40935205e-01
78             	1.91187860e-03	1.08698305e+00	3.16660505e-01	1.60242131e-01	1.56418374e-01
79             	3.00844490e-03	1.09231508e+00	3.38205840e-01	1.72111365e-01	1.66094475e-01
80             	3.98138443e-03	1.10030242e+00	3.47121593e-01	1.77542181e-01	1.69579412e-01
81             	4.80205220e-03	1.10991599e+00	3.41651705e-01	1.75627905e-01	1.66023801e-01
82             	5.45659766e-03	1.12013606e+00	3.21105876e-01	1.66009536e-01	1.55096340e-01
83             	5.93009821e-03	1.12954468e+00	2.85524032e-01	1.48692114e-01	1.36831918e-01
84             	6.20421290e-03	1.13511445e+00	2.35977638e-01	1.24193032e-01	1.11784606e-01
85             	6.25772863e-03	1.13715532e+00	1.75251198e-01	9.38833276e-02	8.13678703e-02
86             	6.06428459e-03	1.13468809e+00	1.06803169e-01	5.94658690e-02	4.73372998e-02
87             	5.61451763e-03	1.13035397e+00	3.67817413e-02	2.40053883e-02	1.27763530e-02
88             	4.92041350e-03	1.12338496e+00	-2.96129670e-02	-9.88606999e-03	-1.97268970e-02
89             	4.02114473e-03	1.11489560e+00	-8.90060757e-02	-4.04818931e-02	-4.85241826e-02
90             	2.96945130e-03	1.10741934e+00	-1.40017739e-01	-6.70394180e-02	-7.29783206e-02
91             	1.83140435e-03	1.10267729e+00	-1.80217435e-01	-8.82773133e-02	-9.19401220e-02
92             	6.81647129e-04	1.10171400e+00	-2.07068399e-01	-1.02852552e-01	-1.04215847e-01
93             	-3.94430452e-04	1.10553132e+00	-2.19460658e-01	-1.10124759e-01	-1.09335898e-01
94             	-1.32418735e-03	1.11108053e+00	-2.17561478e-01	-1.10104926e-01	-1.07456551e-01
95             	-2.05769594e-03	1.11665317e+00	-2.03121014e-01	-1.03618203e-01	-9.95028110e-02
96             	-2.57133969e-03	1.12033570e+00	-1.77769608e-01	-9.14561437e-02	-8.63134643e-02
97             	-2.86155060e-03	1.12202274e+00	-1.43120580e-01	-7.44218405e-02	-6.86987393e-02
98             	-2.92957069e-03	1.12093246e+00	-1.01179099e-01	-5.35191201e-02	-4.76599787e-02
99             	-2.78304501e-03	1.11624552e+00	-5.53284342e-02	-3.04472621e-02	-2.48811721e-02
100            	-2.43894837e-03	1.10811228e+00	-9.95647209e-03	-7.41718442e-03	-2.53928767e-03
101            	-1.92565103e-03	1.09903476e+00	3.25582844e-02	1.43534912e-02	1.82047932e-02
102            	-1.28476457e-03	1.09146578e+00	7.09593637e-02	3.41949173e-02	3.67644464e-02
103            	-5.61908219e-04	1.08628432e+00	1.04102521e-01	5.14893521e-02	5.26131685e-02
104            	1.93759588e-04	1.08381608e+00	1.30618923e-01	6.55032210e-02	6.51157019e-02
105            	9.31170150e-04	1.08269326e+00	1.48277183e-01	7.50697619e-02	7.32074216e-02
106            	1.60024882e-03	1.08265835e+00	1.55584845e-01	7.93926713e-02	7.61921737e-02
107            	2.15837601e-03	1.08496652e+00	1.52845875e-01	7.85813135e-02	7.42645614e-02
108            	2.57284262e-03	1.08776029e+00	1.40152609e-01	7.26491471e-02	6.75034619e-02
109            	2.82528584e-03	1.09067128e+00	1.18760605e-01	6.22055884e-02	5.65550167e-02
110            	2.90368677e-03	1.09217508e+00	8.99500783e-02	4.78787259e-02	4.20713524e-02
111            	2.80010914e-03	1.09196433e+00	5.54962192e-02	3.05482187e-02	2.49480005e-02
112            	2.51857885e-03	1.09075729e+00	1.84373853e-02	1.17372715e-02	6.70011380e-03
113            	2.07323677e-03	1.08712621e+00	-1.88792250e-02	-7.36637574e-03	-1.15128493e-02
114            	1.48788044e-03	1.08243174e+00	-5.43895638e-02	-2.57069015e-02	-2.86826623e-02
115            	7.97107325e-04	1.07726325e+00	-8.61729247e-02	-4.22893550e-02	-4.38835697e-02
116            	4.47703982e-05	1.07259469e+00	-1.12590495e-01	-5.62504770e-02	-5.63400178e-02
117            	-7.20128950e-04	1.06968416e+00	-1.32180286e-01	-6.68102720e-02	-6.53700141e-02
118            	-1.44592870e-03	1.06802441e+00	-1.43082751e-01	-7.29873042e-02	-7.00954468e-02
119            	-2.08589689e-03	1.06877133e+00	-1.44565352e-01	-7.43685727e-02	-7.01967789e-02
120            	-2.60206608e-03	1.07239552e+00	-1.36778508e-01	-7.09913201e-02	-6.57871880e-02
121            	-2.96724380e-03	1.07638514e+00	-1.19487176e-01	-6.27108320e-02	-5.67763444e-02
122            	-3.16293756e-03	1.08060392e+00	-9.37896967e-02	-5.00577859e-02	-4.37319108e-02
123            	-3.17352019e-03	1.08284460e+00	-6.05923151e-02	-3.34696777e-02	-2.71226374e-02
124            	-2.99104441e-03	1.08395918e+00	-2.23870272e-02	-1.41845580e-02	-8.20246921e-03
125            	-2.61845444e-03	1.08402264e+00	1.74423261e-02	6.10270859e-03	1.13396175e-02
126            	-2.07369178e-03	1.08240557e+00	5.61530180e-02	2.60028172e-02	3.01502008e-02
127            	-1.39050333e-03	1.07843658e+00	9.08651587e-02	4.40420760e-02	4.68230827e-02
128            	-6.17209387e-04	1.07286393e+00	1.19512779e-01	5.91391802e-02	6.03735990e-02
129            	1.88823981e-04	1.06876134e+00	1.40655972e-01	7.05168100e-02	7.01391620e-02
130            	9.67949404e-04	1.06723905e+00	1.52634213e-01	7.72850561e-02	7.53491573e-02
131            	1.66425856e-03	1.06805586e+00	1.54422728e-01	7.88756223e-02	7.55471052e-02
132            	2.23593610e-03	1.07202171e+00	1.46532536e-01	7.55022040e-02	7.10303318e-02
133            	2.65231432e-03	1.07643016e+00	1.29024716e-01	6.71646722e-02	6.18600435e-02
134            	2.89552960e-03	1.08095672e+00	1.02796119e-01	5.42935891e-02	4.85025299e-02
135            	2.94967954e-03	1.08421307e+00	6.87944521e-02	3.73469056e-02	3.14475465e-02
136            	2.80591519e-03	1.08613021e+00	2.90982897e-02	1.73550601e-02	1.17432297e-02
137            	2.46563779e-03	1.08667661e+00	-1.24764432e-02	-3.77258382e-03	-8.70385939e-03
138            	1.94659550e-03	1.08469571e+00	-5.27484586e-02	-2.44276338e-02	-2.83208248e-02
139            	1.28479456e-03	1.08002759e+00	-8.85464586e-02	-4.29884347e-02	-4.55580239e-02
140            	5.33462370e-04	1.07399603e+00	-1.17845123e-01	-5.83890990e-02	-5.94560237e-02
141            	-2.48253033e-04	1.06991704e+00	-1.39432658e-01	-6.99645818e-02	-6.94680757e-02
142            	-1.00122844e-03	1.06869400e+00	-1.51811968e-01	-7.69072123e-02	-7.49047555e-02
143            	-1.67142949e-03	1.06988656e+00	-1.54140022e-01	-7.87414407e-02	-7.53985817e-02
144            	-2.21871263e-03	1.07384409e+00	-1.46871794e-01	-7.56546098e-02	-7.12171845e-02
145            	-2.61424750e-03	1.07793573e+00	-1.30085202e-01	-6.76568483e-02	-6.24283533e-02
146            	-2.84036875e-03	1.08223095e+00	-1.04767934e-01	-5.52243358e-02	-4.95435983e-02
147            	-2.88094489e-03	1.08494904e+00	-7.17239511e-02	-3.87429204e-02	-3.29810306e-02
148            	-2.72887724e-03	1.08653163e+00	-3.32502258e-02	-1.93539902e-02	-1.38962357e-02
149            	-2.38659275e-03	1.08632458e+00	6.99461083e-03	1.11071267e-03	5.88389817e-03
150            	-1.87304922e-03	1.08398859e+00	4.58706959e-02	2.10622987e-02	2.48083972e-02
151            	-1.22430649e-03	1.07900516e+00	8.03157711e-02	3.89335791e-02	4.13821921e-02
152            	-4.92064745e-04	1.07287620e+00	1.08454406e-01	5.37351385e-02	5.47192680e-02
153            	2.65482103e-04	1.06892856e+00	1.29112850e-01	6.48219071e-02	6.42909429e-02
154            	9.92340181e-04	1.06779310e+00	1.40847294e-01	7.14159872e-02	6.94313068e-02
155            	1.63699705e-03	1.06885372e+00	1.42917914e-01	7.30959540e-02	6.98219599e-02
156            	2.16074724e-03	1.07252887e+00	1.35728202e-01	7.00248483e-02	6.57033538e-02
157            	2.53539323e-03	1.07634827e+00	1.19403008e-01	6.22368973e-02	5.71661109e-02
158            	2.74364765e-03	1.08021893e+00	9.49303827e-02	5.02088390e-02	4.47215437e-02
159            	2.77037573e-03	1.08269217e+00	6.31262544e-02	3.43335029e-02	2.87927515e-02
160            	2.60931668e-03	1.08403972e+00	2.62805281e-02	1.57495807e-02	1.05309474e-02
161            	2.26490457e-03	1.08368060e+00	-1.20357753e-02	-3.75298308e-03	-8.28279222e-03
162            	1.75708016e-03	1.08102955e+00	-4.88605385e-02	-2.26731891e-02	-2.61873494e-02
163            	1.12256572e-03	1.07602269e+00	-8.13608597e-02	-3.95578641e-02	-4.18029956e-02
164            	4.10915206e-04	1.07015169e+00	-1.07772119e-01	-5.34751445e-02	-5.42969749e-02
165            	-3.22221372e-04	1.06632681e+00	-1.26962590e-01	-6.38035164e-02	-6.31590737e-02
166            	-1.02263925e-03	1.06501759e+00	-1.37417231e-01	-6.97312550e-02	-6.76859765e-02
167            	-1.64072962e-03	1.06592104e+00	-1.38389734e-01	-7.08355967e-02	-6.75541375e-02
168            	-2.13875899e-03	1.06938626e+00	-1.30318554e-01	-6.72980359e-02	-6.30205179e-02
169            	-2.48883886e-03	1.07301966e+00	-1.13374030e-01	-5.91758539e-02	-5.41981762e-02
170            	-2.67401174e-03	1.07683330e+00	-8.85417688e-02	-4.69448962e-02	-4.15968727e-02
171            	-2.68035999e-03	1.07919628e+00	-5.67249483e-02	-3.10428342e-02	-2.56821142e-02
172            	-2.50264851e-03	1.08061153e+00	-2.03589876e-02	-1.26821423e-02	-7.67684528e-03
173            	-2.14665628e-03	1.08062215e+00	1.72047583e-02	6.45572285e-03	1.07490354e-02
174            	-1.63272698e-03	1.07822877e+00	5.31564269e-02	2.49454865e-02	2.82109404e-02
175            	-9.97772924e-04	1.07361452e+00	8.47610533e-02	4.13827537e-02	4.33782995e-02
176            	-2.91135492e-04	1.06829169e+00	1.10197971e-01	5.48078500e-02	5.53901210e-02
177            	4.32001555e-04	1.06483993e+00	1.28260091e-01	6.45620469e-02	6.36980438e-02
178            	1.11680129e-03	1.06347914e+00	1.37508884e-01	6.98712433e-02	6.76376407e-02
179            	1.71552580e-03	1.06467822e+00	1.37398233e-01	7.04146421e-02	6.69835905e-02
180            	2.19200875e-03	1.06809126e+00	1.28425728e-01	6.64048725e-02	6.20208550e-02
181            	2.52003222e-03	1.07165667e+00	1.10664819e-01	5.78524416e-02	5.28123772e-02
182            	2.68296616e-03	1.07549992e+00	8.51731203e-02	4.52695263e-02	3.99035940e-02
183            	2.66705271e-03	1.07771829e+00	5.27683014e-02	2.90512034e-02	2.37170980e-02
184            	2.46789076e-03	1.07927713e+00	1.62398618e-02	1.05878217e-02	5.65204015e-03
185            	2.09256893e-03	1.07906316e+00	-2.11070029e-02	-8.46093250e-03	-1.26460704e-02
186            	1.56332594e-03	1.07682780e+00	-5.65710091e-02	-2.67221786e-02	-2.98488305e-02
187            	9.18621496e-04	1.07230251e+00	-8.73823915e-02	-4.27725742e-02	-4.46098172e-02
188            	2.08764572e-04	1.06712086e+00	-1.11878324e-01	-5.57303976e-02	-5.61479268e-02
189            	-5.10856521e-04	1.06389839e+00	-1.28780705e-01	-6.49012089e-02	-6.38794959e-02
190            	-1.18476650e-03	1.06279775e+00	-1.36650280e-01	-6.95099064e-02	-6.71403734e-02
191            	-1.76692783e-03	1.06439080e+00	-1.35232886e-01	-6.93833707e-02	-6.58495151e-02
192            	-2.22241622e-03	1.06805762e+00	-1.24963585e-01	-6.47042086e-02	-6.02593761e-02
193            	-2.52701377e-03	1.07162494e+00	-1.06175767e-01	-5.56148971e-02	-5.05608695e-02
194            	-2.66525702e-03	1.07533623e+00	-7.98901640e-02	-4.26103390e-02	-3.72798250e-02
195            	-2.62421832e-03	1.07740381e+00	-4.68635806e-02	-2.60560086e-02	-2.08075720e-02
196            	-2.40070274e-03	1.07888967e+00	-1.02291558e-02	-7.51528065e-03	-2.71387518e-03
197            	-2.00381989e-03	1.07834467e+00	2.68293480e-02	1.14108541e-02	1.54184939e-02
198            	-1.45817548e-03	1.07574343e+00	6.15119724e-02	2.92978107e-02	3.22141617e-02
199            	-8.04740999e-04	1.07098569e+00	9.12068154e-02	4.47986667e-02	4.64081487e-02
200            	-9.50797391e-05	1.06598794e+00	1.14371110e-01	5.70904753e-02	5.72806348e-02
201            	6.14651485e-04	1.06300510e+00	1.29773166e-01	6.55012346e-02	6.42719316e-02
202            	1.27138987e-03	1.06224380e+00	1.36100203e-01	6.93214914e-02	6.67787117e-02
203            	1.83074635e-03	1.06435649e+00	1.33171604e-01	6.84165483e-02	6.47550556e-02
204            	2.25904261e-03	1.06802237e+00	1.21470903e-01	6.29944941e-02	5.84764089e-02
205            	2.53431716e-03	1.07165342e+00	1.01412660e-01	5.32406472e-02	4.81720128e-02
206            	2.64131426e-03	1.07521477e+00	7.40942429e-02	3.96884357e-02	3.44058072e-02
207            	2.56922829e-03	1.07708101e+00	4.05257640e-02	2.28321103e-02	1.76936537e-02
208            	2.31659204e-03	1.07840443e+00	3.84362495e-03	4.23840451e-03	-3.94779562e-04
209            	1.89471686e-03	1.07739983e+00	-3.27818183e-02	-1.44961923e-02	-1.82856260e-02
210            	1.33089562e-03	1.07439260e+00	-6.65315877e-02	-3.19348982e-02	-3.45966895e-02
211            	6.68062479e-04	1.06950424e+00	-9.49832702e-02	-4.68235726e-02	-4.81596976e-02
212            	-4.05713484e-05	1.06495695e+00	-1.16789421e-01	-5.84352820e-02	-5.83541393e-02
213            	-7.39317358e-04	1.06235279e+00	-1.30542423e-01	-6.60105291e-02	-6.45318944e-02
214            	-1.37689051e-03	1.06199363e+00	-1.35124874e-01	-6.89393277e-02	-6.61855467e-02
215            	-1.91086834e-03	1.06448674e+00	-1.30696214e-01	-6.72589753e-02	-6.34372386e-02
216            	-2.30952641e-03	1.06809174e+00	-1.17490520e-01	-6.10547863e-02	-5.64357334e-02
217            	-2.55304411e-03	1.07174296e+00	-9.61610556e-02	-5.06335719e-02	-4.55274837e-02
218            	-2.62661181e-03	1.07488851e+00	-6.78037809e-02	-3.65285022e-02	-3.12752786e-02
219            	-2.52116956e-03	1.07667885e+00	-3.36672252e-02	-1.93547822e-02	-1.43124431e-02
220            	-2.23736055e-03	1.07795950e+00	2.94467195e-03	-7.65024577e-04	3.70969652e-03
221            	-1.78890273e-03	1.07663854e+00	3.90420992e-02	1.77321469e-02	2.13099523e-02
222            	-1.20620418e-03	1.07308511e+00	7.17417149e-02	3.46646532e-02	3.70770616e-02
223            	-5.34064642e-04	1.06802541e+00	9.89151950e-02	4.89235329e-02	4.99916621e-02
224            	1.73392526e-04	1.06387136e+00	1.19214728e-01	5.97807565e-02	5.94339714e-02
225            	8.61496183e-04	1.06181792e+00	1.31215356e-01	6.64691742e-02	6.47461819e-02
226            	1.47984954e-03	1.06188275e+00	1.34033189e-01	6.84964438e-02	6.55367448e-02
227            	1.98846173e-03	1.06470382e+00	1.27986157e-01	6.59815402e-02	6.20046168e-02
228            	2.35746147e-03	1.06813498e+00	1.13227186e-01	5.89710546e-02	5.42561316e-02
229            	2.56887778e-03	1.07180384e+00	9.05590774e-02	4.78484165e-02	4.27106609e-02
230            	2.60816515e-03	1.07478255e+00	6.09794195e-02	3.30978749e-02	2.78815446e-02
231            	2.46825267e-03	1.07654730e+00	2.62909211e-02	1.56137132e-02	1.06772079e-02
232            	2.15244677e-03	1.07742858e+00	-1.02286691e-02	-2.96188779e-03	-7.26678134e-03
233            	1.67731244e-03	1.07572347e+00	-4.57244799e-02	-2.11849275e-02	-2.45395524e-02
234            	1.07614081e-03	1.07180749e+00	-7.73959484e-02	-3.76218334e-02	-3.97741150e-02
235            	3.95576375e-04	1.06674258e+00	-1.03235314e-01	-5.12220805e-02	-5.20132333e-02
236            	-3.10238549e-04	1.06304803e+00	-1.21998594e-01	-6.13095354e-02	-6.06890583e-02
237            	-9.86611941e-04	1.06132290e+00	-1.32188662e-01	-6.70809428e-02	-6.51077190e-02
238            	-1.58404462e-03	1.06190556e+00	-1.33104951e-01	-6.81365200e-02	-6.49684307e-02
239            	-2.06507413e-03	1.06502747e+00	-1.25317021e-01	-6.47235846e-02	-6.05934363e-02
240            	-2.40280003e-03	1.06845072e+00	-1.08953659e-01	-5.68796297e-02	-5.20740297e-02
241            	-2.58044444e-03	1.07213126e+00	-8.49606494e-02	-4.50607692e-02	-3.98998803e-02
242            	-2.58442392e-03	1.07463594e+00	-5.42002298e-02	-2.96845388e-02	-2.45156910e-02
243            	-2.40921875e-03	1.07638658e+00	-1.89442560e-02	-1.18813468e-02	-7.06290928e-03
244            	-2.06043392e-03	1.07684599e+00	1.75066208e-02	6.69287645e-03	1.08137443e-02
245            	-1.55783098e-03	1.07490626e+00	5.24192466e-02	2.46517923e-02	2.77674543e-02
246            	-9.37907603e-04	1.07065414e+00	8.29741297e-02	4.05491572e-02	4.24249724e-02
247            	-2.49417942e-04	1.06557842e+00	1.07401025e-01	5.34510945e-02	5.39499304e-02
248            	4.53035678e-04	1.06222307e+00	1.24428021e-01	6.26670460e-02	6.17609747e-02
249            	1.11457731e-03	1.06089089e+00	1.32677539e-01	6.74533467e-02	6.52241920e-02
250            	1.68905261e-03	1.06209551e+00	1.31830621e-01	6.76043630e-02	6.42262578e-02
251            	2.14118641e-03	1.06553438e+00	1.22275554e-01	6.32789633e-02	5.89965905e-02
252            	2.44652988e-03	1.06894489e+00	1.04331603e-01	5.46123314e-02	4.97192716e-02
253            	2.58926833e-03	1.07259049e+00	7.89921313e-02	4.20853340e-02	3.69067973e-02
254            	2.55657242e-03	1.07475750e+00	4.70459673e-02	2.60795561e-02	2.09664112e-02
255            	2.34494828e-03	1.07631923e+00	1.13877843e-02	8.03884046e-03	3.34894389e-03
256            	1.96300169e-03	1.07615475e+00	-2.48588834e-02	-1.04664400e-02	-1.43924434e-02
257            	1.43375919e-03	1.07392953e+00	-5.89812851e-02	-2.80568834e-02	-3.09244018e-02
258            	7.96778561e-04	1.06951753e+00	-8.83121093e-02	-4.33592761e-02	-4.49528332e-02
259            	1.02413804e-04	1.06466815e+00	-1.11243052e-01	-5.55191124e-02	-5.57239400e-02
260            	-5.93983227e-04	1.06156211e+00	-1.26517491e-01	-6.38527286e-02	-6.26647621e-02
261            	-1.23946637e-03	1.06059725e+00	-1.32882295e-01	-6.76806137e-02	-6.52016810e-02
262            	-1.79011893e-03	1.06245839e+00	-1.30176069e-01	-6.68781534e-02	-6.32979155e-02
263            	-2.21233729e-03	1.06600333e+00	-1.18816986e-01	-6.16208305e-02	-5.71961560e-02
264            	-2.48411787e-03	1.06958479e+00	-9.92090790e-02	-5.20886574e-02	-4.71204216e-02
265            	-2.59022417e-03	1.07310560e+00	-7.24783750e-02	-3.88294116e-02	-3.36489633e-02
266            	-2.52002352e-03	1.07498866e+00	-3.96040805e-02	-2.23220638e-02	-1.72820167e-02
267            	-2.27212733e-03	1.07635966e+00	-3.63968208e-03	-4.09196837e-03	4.52286285e-04
268            	-1.85766347e-03	1.07560482e+00	3.23129523e-02	1.42988127e-02	1.80141396e-02
269            	-1.30319382e-03	1.07290565e+00	6.55360207e-02	3.14648165e-02	3.40712042e-02
270            	-6.50663316e-04	1.06824746e+00	9.35677395e-02	4.61332064e-02	4.74345331e-02
271            	4.73379924e-05	1.06376872e+00	1.14981212e-01	5.75379442e-02	5.74432682e-02
272            	7.35659926e-04	1.06109939e+00	1.28398447e-01	6.49348832e-02	6.34635633e-02
273            	1.36320028e-03	1.06064338e+00	1.32753419e-01	6.77399096e-02	6.50135091e-02
274            	1.88795106e-03	1.06303182e+00	1.28214236e-01	6.59950693e-02	6.22191671e-02
275            	2.27848490e-03	1.06654831e+00	1.15003732e-01	5.97803507e-02	5.52233809e-02
276            	2.51534903e-03	1.07012580e+00	9.38002937e-02	4.94154959e-02	4.43847978e-02
277            	2.58381254e-03	1.07327909e+00	6.56703925e-02	3.54190088e-02	3.02513837e-02
278            	2.47505733e-03	1.07512912e+00	3.19005389e-02	1.84253268e-02	1.34752121e-02
279            	2.19016782e-03	1.07643794e+00	-4.23954700e-03	7.03943229e-05	-4.30994133e-03
280            	1.74308249e-03	1.07524462e+00	-3.98148390e-02	-1.81643370e-02	-2.16505020e-02
281            	1.16429736e-03	1.07183801e+00	-7.19998312e-02	-3.48356182e-02	-3.71642130e-02
282            	4.98384153e-04	1.06692771e+00	-9.86862841e-02	-4.88447579e-02	-4.98415262e-02
283            	-2.01205388e-04	1.06286732e+00	-1.18504469e-01	-5.94534401e-02	-5.90510293e-02
284            	-8.79912579e-04	1.06081722e+00	-1.29978333e-01	-6.58690793e-02	-6.41092541e-02
285            	-1.48752424e-03	1.06092265e+00	-1.32314123e-01	-6.76445858e-02	-6.46695374e-02
286            	-1.98474358e-03	1.06375734e+00	-1.25923065e-01	-6.49462763e-02	-6.09767891e-02
287            	-2.34288489e-03	1.06706627e+00	-1.10955680e-01	-5.78207251e-02	-5.31349553e-02
288            	-2.54414020e-03	1.07066263e+00	-8.81733309e-02	-4.66308056e-02	-4.15425252e-02
289            	-2.57412828e-03	1.07357236e+00	-5.85738893e-02	-3.18610729e-02	-2.67128163e-02
290            	-2.42623819e-03	1.07543328e+00	-2.40559848e-02	-1.44542306e-02	-9.60175419e-03
291            	-2.10444724e-03	1.07634913e+00	1.21240352e-02	3.95757035e-03	8.16646483e-03
292            	-1.62592528e-03	1.07462373e+00	4.71764163e-02	2.19622829e-02	2.52141334e-02
293            	-1.02450780e-03	1.07067803e+00	7.83114779e-02	3.81312312e-02	4.01802468e-02
294            	-3.47088595e-04	1.06571728e+00	1.03555382e-01	5.14306022e-02	5.21247794e-02
295            	3.52187495e-04	1.06217860e+00	1.21616631e-01	6.11605029e-02	6.04561279e-02
296            	1.01882645e-03	1.06056456e+00	1.31119469e-01	6.65785611e-02	6.45409082e-02
297            	1.60464225e-03	1.06129350e+00	1.31498298e-01	6.73537911e-02	6.41445066e-02
298            	2.07300109e-03	1.06446789e+00	1.23208818e-01	6.36774099e-02	5.95314077e-02
299            	2.39777102e-03	1.06787195e+00	1.06428350e-01	5.56119460e-02	5.08164040e-02
300            	2.56247996e-03	1.07143760e+00	8.21729330e-02	4.36489464e-02	3.85239865e-02
301            	2.55389553e-03	1.07379046e+00	5.12217550e-02	2.81647730e-02	2.30569819e-02
302            	2.36712819e-03	1.07551699e+00	1.60800590e-02	1.04071577e-02	5.67290129e-03
303            	2.00897725e-03	1.07589970e+00	-2.00432507e-02	-8.01264812e-03	-1.20306026e-02
304            	1.50020163e-03	1.07397979e+00	-5.44490115e-02	-2.57243041e-02	-2.87247074e-02
305            	8.78140608e-04	1.06973757e+00	-8.43803914e-02	-4.13120551e-02	-4.30683363e-02
306            	1.91843126e-04	1.06473902e+00	-1.08099832e-01	-5.38580730e-02	-5.42417593e-02
307            	-5.04356126e-04	1.06145810e+00	-1.24393665e-01	-6.27011889e-02	-6.16924766e-02
308            	-1.15605462e-03	1.06023219e+00	-1.31878351e-01	-6.70952300e-02	-6.47831207e-02
309            	-1.71813827e-03	1.06166303e+00	-1.30281450e-01	-6.68588631e-02	-6.34225866e-02
310            	-2.15591898e-03	1.06510638e+00	-1.20050761e-01	-6.21812995e-02	-5.78694615e-02
311            	-2.44611668e-03	1.06854975e+00	-1.01533216e-01	-5.32127247e-02	-4.83204914e-02
312            	-2.57324937e-03	1.07217164e+00	-7.57870843e-02	-4.04667915e-02	-3.53202928e-02
313            	-2.52547329e-03	1.07419779e+00	-4.36593509e-02	-2.43551487e-02	-1.93042021e-02
314            	-2.30009470e-03	1.07570863e+00	-8.06041840e-03	-6.33030390e-03	-1.73011450e-03
315            	-1.90666565e-03	1.07536840e+00	2.78840906e-02	1.20353797e-02	1.58487110e-02
316            	-1.36936026e-03	1.07304758e+00	6.14968754e-02	2.93790774e-02	3.21177979e-02
317            	-7.28687597e-04	1.06858175e+00	9.01569604e-02	4.43497926e-02	4.58071678e-02