/*--------------------------------*- C++ -*----------------------------------*\
| =========                 |                                                 |
| \\      /  F ield         | OpenFOAM: The Open Source CFD Toolbox           |
|  \\    /   O peration     | Version:  2112                                  |
|   \\  /    A nd           | Website:  www.openfoam.com                      |
|    \\/     M anipulation  |                                                 |
\*---------------------------------------------------------------------------*/
FoamFile
{
    version     2.0;
    format      ascii;
    arch        "LSB;label=32;scalar=64";
    class       volScalarField;
    location    "28";
    object      p;
}
// * * * * * * * * * * * * * * * * * * * * * * * * * * * * * * * * * * * * * //

dimensions      [0 2 -2 0 0 0 0];

internalField   nonuniform List<scalar> 
400
(
1.9652213e-07
-0.00067265459
-0.0013851296
-0.0019424863
-0.0022197785
-0.0021562744
-0.0017275689
-0.00092597793
0.00023564205
0.0017076258
0.0033875052
0.0051124132
0.0066736924
0.0078493147
0.0084586024
0.0084239014
0.0078136203
0.0068447454
0.0058615293
0.0052991749
0.00065805914
-4.0305156e-05
-0.00056943842
-0.00094040331
-0.0011106404
-0.0010396977
-0.00070556625
-9.532027e-05
0.00078932331
0.0019164083
0.0032098052
0.0045549229
0.0057821818
0.0067164766
0.0072146453
0.0072147518
0.0067701796
0.0060529949
0.0053107545
0.0047387146
0.0014239177
0.00044086928
-0.00011638004
-0.00045302229
-0.00061458669
-0.000584589
-0.00034635793
0.00011996554
0.00082868206
0.0017701287
0.0028945133
0.0040983875
0.0052284654
0.0061112006
0.0065940951
0.0065978872
0.0061559574
0.0054217299
0.0045939675
0.0037484573
0.0020144125
0.00068190357
1.6987818e-05
-0.00035863393
-0.00057132908
-0.00062633886
-0.00050986187
-0.00019041003
0.00036872325
0.0011846081
0.0022301362
0.0034176512
0.0045915914
0.0055571675
0.0061237799
0.0061667835
0.0056838398
0.0048172691
0.0037475133
0.0024738213
0.0021674829
0.00049633322
-0.00029604252
-0.0007484878
-0.0010580345
-0.0012450505
-0.0012925282
-0.0011510821
-0.00075483168
-5.2882759e-05
0.00095724229
0.002210501
0.0035449284
0.0047328849
0.0055220669
0.0057101065
0.0052295069
0.0042018245
0.0028064058
0.00098418487
0.0016541737
-0.00031426503
-0.0012385719
-0.001799084
-0.0022524439
-0.0026276898
-0.0028984001
-0.0029908615
-0.0028023189
-0.0022374631
-0.0012508832
0.00013110553
0.0017448626
0.0033273303
0.0045418665
0.0050660011
0.0047177162
0.0035664192
0.0017898153
-0.00072569802
0.00028723699
-0.0019193565
-0.002972783
-0.0036711648
-0.004320077
-0.0049529793
-0.0055298967
-0.0059477276
-0.0060587782
-0.0057071599
-0.0047754978
-0.0032584786
-0.0012662901
0.0009073995
0.00282335
0.0039870587
0.0040253151
0.0028879285
0.00071560095
-0.0026802765
-0.0020762155
-0.0044509768
-0.005626588
-0.0064921044
-0.0073926988
-0.0083655382
-0.0093566927
-0.010231549
-0.010790733
-0.010804607
-0.010063131
-0.0084615355
-0.0060405425
-0.0030829928
-0.00012608345
0.002112844
0.0029640459
0.0021358006
-0.00036581275
-0.0048723869
-0.0055239506
-0.0079918962
-0.0092777031
-0.01033357
-0.011537777
-0.01293519
-0.014462477
-0.015956083
-0.017162223
-0.017765791
-0.017437844
-0.015919243
-0.013122731
-0.0092515322
-0.0048987821
-0.0010297932
0.0012696296
0.001277983
-0.0013337368
-0.007201454
-0.010076693
-0.012564875
-0.013936443
-0.015183783
-0.01671816
-0.0186024
-0.020773971
-0.023048533
-0.025121451
-0.026586112
-0.026969111
-0.025812708
-0.022845447
-0.018074219
-0.012050862
-0.0059517269
-0.0013705161
0.00030081533
-0.001946981
-0.0093820011
-0.015684766
-0.018132191
-0.019537331
-0.020926583
-0.02275752
-0.025129659
-0.027996785
-0.031166179
-0.034291242
-0.036876616
-0.038293938
-0.037844044
-0.035065622
-0.029601236
-0.021822265
-0.012985347
-0.0051847496
-0.00071552701
-0.0017639764
-0.010792031
-0.022243377
-0.024612816
-0.025945365
-0.027334726
-0.029323935
-0.032079009
-0.035588723
-0.039664429
-0.043927046
-0.047801071
-0.050529954
-0.051236247
-0.048956644
-0.043143314
-0.033768784
-0.021926113
-0.010036656
-0.0014152195
-9.6436305e-06
-0.010225396
-0.029640996
-0.031923675
-0.032978521
-0.034079637
-0.035939274
-0.038831287
-0.042795392
-0.047651363
-0.052990307
-0.058163356
-0.062284015
-0.0642653
-0.062874928
-0.057111957
-0.046476513
-0.03164886
-0.015037636
-0.00086416574
0.0046469863
-0.0055213148
-0.037865788
-0.040048294
-0.040439918
-0.040752294
-0.042014811
-0.044652829
-0.048757965
-0.054143836
-0.060355806
-0.066665117
-0.072060457
-0.075268054
-0.074811136
-0.069269042
-0.057628084
-0.039961286
-0.018247749
0.00278926
0.014445379
0.0069077678
-0.047230377
-0.049134139
-0.048140362
-0.046882089
-0.046905278
-0.048798459
-0.052668062
-0.058275791
-0.065075878
-0.07223177
-0.078595541
-0.082712096
-0.082879987
-0.077309172
-0.064523723
-0.043934739
-0.016747772
0.012503165
0.032939002
0.03240917
-0.058896587
-0.059639668
-0.055883687
-0.05194085
-0.049972114
-0.05062966
-0.053928425
-0.05949512
-0.066611638
-0.074285073
-0.081190945
-0.085679184
-0.085831581
-0.079521982
-0.064875891
-0.040689059
-0.0072407115
0.032139583
0.064981664
0.077749394
-0.076226313
-0.072613543
-0.063515951
-0.055435161
-0.050724819
-0.049781395
-0.052312131
-0.05766415
-0.064891601
-0.072774751
-0.079779148
-0.084036532
-0.083391443
-0.075348755
-0.057602471
-0.028374939
0.012933531
0.065396682
0.11555172
0.15150643
-0.10809202
-0.089556192
-0.071233643
-0.057232786
-0.049071917
-0.04633001
-0.048077059
-0.053202396
-0.060434408
-0.068295648
-0.075027178
-0.078526702
-0.0763888
-0.065809473
-0.043865281
-0.007818251
0.044393868
0.11299835
0.18838063
0.27186097
-0.17684529
-0.10828954
-0.076202334
-0.054651059
-0.042992182
-0.038997827
-0.040570307
-0.045927836
-0.053441327
-0.061438145
-0.068027373
-0.070962349
-0.067550929
-0.054739635
-0.029148617
0.013563797
0.078147154
0.17006456
0.28949566
0.47421842
-0.37208328
-0.12470828
-0.054972881
-0.031962329
-0.022063363
-0.020300324
-0.024359255
-0.031957795
-0.041261352
-0.050640676
-0.05831669
-0.062187255
-0.059782349
-0.04805661
-0.022658331
0.021474404
0.092818918
0.21015297
0.40288862
0.77640949
)
;

boundaryField
{
    movingWall
    {
        type            zeroGradient;
    }
    fixedWalls
    {
        type            zeroGradient;
    }
    frontAndBack
    {
        type            empty;
    }
}


// ************************************************************************* //
