/*--------------------------------*- C++ -*----------------------------------*\
| =========                 |                                                 |
| \\      /  F ield         | OpenFOAM: The Open Source CFD Toolbox           |
|  \\    /   O peration     | Version:  2112                                  |
|   \\  /    A nd           | Website:  www.openfoam.com                      |
|    \\/     M anipulation  |                                                 |
\*---------------------------------------------------------------------------*/
FoamFile
{
    version     2.0;
    format      ascii;
    arch        "LSB;label=32;scalar=64";
    class       surfaceScalarField;
    location    "28";
    object      phi;
}
// * * * * * * * * * * * * * * * * * * * * * * * * * * * * * * * * * * * * * //

dimensions      [0 3 -1 0 0 0 0];

oriented        oriented;

internalField   nonuniform List<scalar> 
760
(
1.2702025e-05
-1.2704294e-05
-2.8723605e-05
4.1425634e-05
-0.0001222922
9.3568601e-05
-0.00025039692
0.00012810471
-0.00039607647
0.00014567956
-0.0005453935
0.00014931703
-0.00068627489
0.0001408814
-0.00080689623
0.00012062135
-0.00089495708
8.8060848e-05
-0.0009383953
4.3438228e-05
-0.00092727886
-1.111643e-05
-0.00085686548
-7.0413394e-05
-0.00073043172
-0.00012643381
-0.00056134313
-0.00016908868
-0.00037276095
-0.00018858228
-0.00019447419
-0.00017828683
-5.6521923e-05
-0.00013795227
1.9614474e-05
-7.6136377e-05
3.041132e-05
-1.0796821e-05
3.0411352e-05
-4.3183279e-05
3.0478988e-05
-0.00020456694
0.0002028093
-0.00046832592
0.00035732759
-0.00080070991
0.00046048871
-0.0011673535
0.00051232316
-0.0015364533
0.00051841686
-0.0018782322
0.00048266031
-0.0021636873
0.00040607641
-0.0023645496
0.00028892316
-0.0024553564
0.00013424504
-0.0024181491
-4.8323832e-05
-0.0022453639
-0.00024319862
-0.0019475609
-0.00042423688
-0.0015544721
-0.00056217749
-0.0011143229
-0.00062873149
-0.00068747543
-0.00060513431
-0.00033452575
-0.0004909019
-0.0001008967
-0.00030976538
-1.5519088e-06
-0.00011014159
2.8859462e-05
-0.00011002764
0.00014050663
-0.00040303345
0.00049581513
-0.00083139214
0.00078568628
-0.0013456237
0.00097472029
-0.0018986075
0.001065307
-0.0024465918
0.0010664012
-0.0029480451
0.00098411358
-0.0033626324
0.00082066369
-0.0036519046
0.00057819538
-0.0037823311
0.00026467156
-0.0037298356
-0.00010081924
-0.0034858219
-0.00048721222
-0.0030632811
-0.00084677752
-0.0024999976
-0.0011254609
-0.0018582366
-0.0012704924
-0.0012181452
-0.0012452257
-0.00066373702
-0.0010453101
-0.00026308973
-0.0007104127
-4.7956341e-05
-0.00032527498
-1.9096885e-05
-0.0001734405
0.00031394713
-0.00059329558
0.00091567022
-0.0011777018
0.0013700925
-0.0018583804
0.0016553989
-0.0025769228
0.0017838494
-0.0032813251
0.0017708034
-0.0039228126
0.0016256011
-0.0044541559
0.001352007
-0.0048302789
0.00095431837
-0.0050112514
0.00044564412
-0.004967268
-0.0001448025
-0.0046844429
-0.00077003719
-0.0041723561
-0.0013588642
-0.003469131
-0.0018286858
-0.0026440118
-0.0020956115
-0.0017932021
-0.0020960355
-0.0010258511
-0.0018126612
-0.00044021515
-0.0012960487
-9.6723907e-05
-0.00066876622
-0.0001158208
-0.00022979676
0.0005437439
-0.00076507881
0.0014509523
-0.0014914934
0.0020965071
-0.0023225598
0.0024864653
-0.0031901569
0.0026514465
-0.0040368422
0.0026174888
-0.0048100589
0.0023988178
-0.0054589882
0.0020009363
-0.0059342052
0.0014295354
-0.0061898355
0.00070127433
-0.006188415
-0.00014622306
-0.0059055841
-0.001052868
-0.0053404195
-0.0019240289
-0.0045231178
-0.0026459875
-0.0035229777
-0.0030957517
-0.0024498055
-0.0031692077
-0.0014425397
-0.0028199269
-0.00064123138
-0.0020973571
-0.00014883694
-0.0011611607
-0.00026465772
-0.00027729923
0.00082104313
-0.00091155156
0.0020852046
-0.0017607388
0.0029456944
-0.0027228214
0.0034485478
-0.0037222279
0.003650853
-0.0046987145
0.0035939754
-0.0055989133
0.0032990166
-0.0063712144
0.0027732374
-0.0069637521
0.002022073
-0.0073248595
0.0010623815
-0.0074074808
-6.3601818e-05
-0.0071717111
-0.0012886378
-0.0065988992
-0.0024968408
-0.0057016862
-0.0035432005
-0.0045400224
-0.0042574154
-0.0032318439
-0.0044773862
-0.0019490213
-0.0041027495
-0.00088728781
-0.0031590906
-0.00021159424
-0.0018368542
-0.00047625193
-0.00031411674
0.0011351599
-0.0010263415
0.0027974293
-0.0019735124
0.0038928653
-0.0030417608
0.0045167963
-0.0041507252
0.0047598174
-0.005239954
0.0046832041
-0.0062580845
0.0043171472
-0.0071555375
0.0036706904
-0.0078803793
0.0027469148
-0.0083768538
0.001558856
-0.0085854001
0.00014494433
-0.0084513291
-0.0014227089
-0.0079295069
-0.003018663
-0.0070049692
-0.0044677382
-0.0057150471
-0.0055473373
-0.004173583
-0.0060188503
-0.0025818453
-0.0056944871
-0.0012041049
-0.004536831
-0.00029450407
-0.002746455
-0.00077075597
-0.0003382487
0.0014734086
-0.0011031697
0.0035623504
-0.002117635
0.0049073306
-0.0032598909
0.0056590521
-0.0044474083
0.0059473349
-0.005621963
0.0058577588
-0.0067369496
0.0054321338
-0.0077479671
0.004681708
-0.008606374
0.0036053219
-0.0092552498
0.0022077319
-0.0096270132
0.00051670774
-0.0096492045
-0.0014005177
-0.0092489793
-0.0034188881
-0.0083739422
-0.0053427752
-0.0070220719
-0.0068992076
-0.0052818134
-0.0077591089
-0.0033676667
-0.0076086339
-0.0016173633
-0.0062871343
-0.00040826892
-0.0039555494
-0.0011790249
-0.00034815618
0.0018215648
-0.001137215
0.0043514092
-0.0021827884
0.0059529041
-0.0033586197
0.0068348834
-0.0045822421
0.0071709573
-0.0057998215
0.0070753383
-0.0069721938
0.0066045061
-0.0080636667
0.005773181
-0.0090334401
0.0045750954
-0.0098289919
0.0030032838
-0.010381273
0.0010689885
-0.010604524
-0.0011772663
-0.010400776
-0.003622636
-0.0096748944
-0.0060686571
-0.0083686742
-0.0082054278
-0.0065156851
-0.009612098
-0.0043098846
-0.0098144344
-0.0021483234
-0.0084486956
-0.00056492534
-0.0055389474
-0.0017439502
-0.0003439348
0.0021654996
-0.0011278596
0.005135334
-0.0021647098
0.0069897542
-0.003325902
0.0079960756
-0.0045308025
0.0083758577
-0.0057319442
0.00827648
-0.0069002211
0.007772783
-0.0080123809
0.0068853408
-0.0090408254
0.0056035398
-0.0099449659
0.0039074245
-0.010663394
0.0017874163
-0.011106744
-0.00073391552
-0.011163419
-0.0035659613
-0.010697127
-0.0065349493
-0.0095825985
-0.0093199562
-0.0077667767
-0.01142792
-0.005371501
-0.01220971
-0.0028071787
-0.011013018
-0.00077836898
-0.0075677572
-0.0025223192
-0.00032890792
0.0024944075
-0.0010824215
0.0058888476
-0.0020707771
0.00797811
-0.0031636129
0.0090889114
-0.004283902
0.0094961467
-0.0053928535
0.0093854314
-0.0064741405
0.00885407
-0.0075205481
0.0079317484
-0.008522918
0.0066059096
-0.0094603447
0.0048448511
-0.010291332
0.0026184036
-0.010933227
-9.202057e-05
-0.011283212
-0.0032159763
-0.011173633
-0.0066445281
-0.010415714
-0.010077876
-0.008846736
-0.012996897
-0.0064557538
-0.014600692
-0.0035815269
-0.013887245
-0.0010642229
-0.010085061
-0.003586542
-0.00031178416
0.0028061917
-0.0010206791
0.0065977424
-0.0019261003
0.0088835312
-0.0028949493
0.010057761
-0.0038568833
0.010458081
-0.0047855642
0.010314112
-0.0056807673
0.009749273
-0.0065544567
0.0088054378
-0.0074198904
0.0074713433
-0.008281826
0.0057067867
-0.0091251564
0.003461734
-0.0099086405
0.00069146354
-0.010527257
-0.0025973596
-0.010827014
-0.006344771
-0.010573628
-0.010331261
-0.0094932087
-0.014077317
-0.0073911389
-0.016702762
-0.0044189146
-0.016859469
-0.0014372116
-0.013066764
-0.0050237536
-0.00031004277
0.0031162345
-0.00098036477
0.0072680643
-0.0017790489
0.0096822154
-0.0025693662
0.010848078
-0.003294596
0.011183311
-0.0039478972
0.010967413
-0.004549971
0.010351347
-0.0051347864
0.0093902532
-0.005739921
0.008076478
-0.0063985253
0.006365391
-0.0071301278
0.0041933365
-0.0079302597
0.0014915954
-0.0087388063
-0.001788813
-0.0094303593
-0.0056532181
-0.0097685814
-0.0099930393
-0.0094003438
-0.014445555
-0.0079305795
-0.018172526
-0.0052061613
-0.019583887
-0.001902612
-0.016370314
-0.0069263656
-0.00035604013
0.0034722746
-0.0010239969
0.0079360211
-0.0017042299
0.010362448
-0.0022607982
0.011404646
-0.0026657212
0.011588234
-0.0029440091
0.011245701
-0.0031442483
0.010551586
-0.0033248662
0.009570871
-0.0035471917
0.0082988034
-0.0038710445
0.006689244
-0.0043491697
0.0046714618
-0.0050183793
0.0021608049
-0.0058766123
-0.00093058008
-0.0068578349
-0.0046719955
-0.0077762881
-0.0090745861
-0.0082658352
-0.013956007
-0.00776874
-0.018669622
-0.0057510994
-0.021601528
-0.0024366711
-0.019684742
-0.0093630367
-0.00050826105
0.0039805355
-0.001245631
0.0086733912
-0.001795883
0.0109127
-0.0020479985
0.011656761
-0.0020325052
0.011572741
-0.0018254249
0.011038621
-0.0015121914
0.010238352
-0.0011778593
0.0092365388
-0.00090471297
0.008025657
-0.00077372047
0.0065582515
-0.00086349083
0.0047612322
-0.0012473587
0.0025446728
-0.001982833
-0.00019510573
-0.0030818692
-0.0035729593
-0.0044600324
-0.0076964229
-0.0058274874
-0.012588552
-0.0065661639
-0.017930945
-0.0057684469
-0.022399245
-0.0029512249
-0.022501964
-0.012314262
-0.0008685533
0.0048490886
-0.0017629827
0.0095678209
-0.0021213533
0.011271071
-0.0019368421
0.01147225
-0.0013509171
0.010986815
-0.00051618641
0.010203891
0.00043704841
0.0092851178
0.0013996214
0.0082739659
0.0022723849
0.0071528935
0.0029609232
0.0058697132
0.0033691577
0.0043529977
0.0033968054
0.0025170251
0.0029385503
0.00026314938
0.0019096144
-0.0025440234
0.00026968722
-0.0060564958
-0.0018541618
-0.010464703
-0.0039515949
-0.015833512
-0.0048608338
-0.021490006
-0.0032547032
-0.024108094
-0.015568965
-0.0015910837
0.0064401722
-0.0026108523
0.010587589
-0.0025131341
0.011173354
-0.0015899021
0.010549018
-0.00017216454
0.0095690775
0.0014928084
0.0085389177
0.003232906
0.0075450201
0.0049232459
0.006583626
0.0064630047
0.0056131347
0.0077575087
0.0045752092
0.0087075136
0.0034029928
0.0092015007
0.002023038
0.0091033446
0.00036130552
0.0082750926
-0.0017157714
0.0065654617
-0.0043468648
0.0039042357
-0.0078034774
0.00055895462
-0.012488231
-0.0024680541
-0.018462997
-0.0030273166
-0.023548832
-0.018596281
-0.0027183589
0.0091585316
-0.0031498654
0.011019094
-0.0018029973
0.0098264859
0.00046670442
0.0082793169
0.0030894279
0.0069463543
0.0057738165
0.0058545291
0.0083629042
0.0049559323
0.010760402
0.0041861281
0.012893497
0.0034800395
0.014690665
0.0027780414
0.016068349
0.0020253087
0.016923287
0.0011681001
0.017119715
0.00016487805
0.01649083
-0.001086887
0.01481684
-0.0026728749
0.011846657
-0.0048332943
0.0074354924
-0.0080770661
0.0022629295
-0.013290434
-0.0012724664
-0.020013436
-0.019868748
-0.0024132785
0.011571811
2.8056972e-05
0.0085777577
0.0042551381
0.0055994036
0.0084161227
0.0041183321
0.012231485
0.0031309916
0.015656265
0.0024297499
0.018686548
0.0019256489
0.021329192
0.0015434848
0.023583492
0.0012257393
0.025429226
0.00093230682
0.026820169
0.00063436574
0.02767718
0.00031108918
0.027900204
-5.8145652e-05
0.027347224
-0.00053390742
0.025771632
-0.0010972821
0.022843047
-0.0019047095
0.01805477
-0.0032887893
0.011113587
-0.0063492511
0.0033886754
-0.012288525
-0.016480072
0.011571812
0.02014957
0.025748974
0.029867306
0.032998297
0.035428047
0.037353696
0.038897181
0.04012292
0.041055227
0.041689593
0.042000682
0.041942536
0.041408629
0.040311347
0.038406637
0.035117848
0.028768597
0.016480072
)
;

boundaryField
{
    movingWall
    {
        type            calculated;
        value           uniform 0;
    }
    fixedWalls
    {
        type            calculated;
        value           uniform 0;
    }
    frontAndBack
    {
        type            empty;
        value           nonuniform List<scalar> 0();
    }
}


// ************************************************************************* //
