/*--------------------------------*- C++ -*----------------------------------*\
| =========                 |                                                 |
| \\      /  F ield         | OpenFOAM: The Open Source CFD Toolbox           |
|  \\    /   O peration     | Version:  2112                                  |
|   \\  /    A nd           | Website:  www.openfoam.com                      |
|    \\/     M anipulation  |                                                 |
\*---------------------------------------------------------------------------*/
FoamFile
{
    version     2.0;
    format      ascii;
    arch        "LSB;label=32;scalar=64";
    class       volScalarField;
    location    "31";
    object      p;
}
// * * * * * * * * * * * * * * * * * * * * * * * * * * * * * * * * * * * * * //

dimensions      [0 2 -2 0 0 0 0];

internalField   nonuniform List<scalar> 
400
(
8.248779e-08
-0.00067278299
-0.0013852596
-0.0019426174
-0.0022199105
-0.0021564066
-0.0017277009
-0.00092610931
0.00023551107
0.0017074953
0.0033873758
0.0051122838
0.0066735602
0.007849177
0.0084584595
0.0084237566
0.0078134779
0.0068446081
0.0058613977
0.0052990468
0.00065793142
-4.0434694e-05
-0.00056956813
-0.00094053349
-0.0011107714
-0.0010398296
-0.00070569848
-9.5452228e-05
0.00078919146
0.0019162761
0.0032096729
0.0045547917
0.0057820507
0.0067163434
0.0072145084
0.0072146125
0.006770041
0.0060528594
0.0053106224
0.0047385848
0.0014237896
0.00044074015
-0.00011650964
-0.0004531523
-0.00061471752
-0.0005847213
-0.00034649197
0.0001198302
0.00082854608
0.0017699928
0.0028943787
0.0040982566
0.0052283401
0.0061110787
0.0065939708
0.006597756
0.0061558202
0.0054215918
0.0045938324
0.0037483235
0.0020142846
0.00068177479
1.6858385e-05
-0.00035876396
-0.00057145974
-0.00062647059
-0.00050999562
-0.00019054628
0.00036858528
0.00118447
0.0022299993
0.0034175182
0.0045914644
0.0055570452
0.006123656
0.0061666519
0.0056837008
0.0048171285
0.003747375
0.0024736836
0.0021673549
0.00049620459
-0.00029617152
-0.00074861749
-0.0010581647
-0.0012451807
-0.0012926588
-0.0011512149
-0.00075496866
-5.3023764e-05
0.00095709942
0.0022103587
0.0035447893
0.0047327507
0.0055219349
0.005709972
0.0052293685
0.0042016848
0.0028062661
0.0009840444
0.0016540452
-0.00031439423
-0.001238701
-0.0017992137
-0.0022525745
-0.0026278204
-0.0028985292
-0.002990991
-0.0028024538
-0.0022376062
-0.0012510318
0.00013095488
0.0017447147
0.0033271882
0.0045417295
0.005065866
0.0047175805
0.0035662818
0.0017896754
-0.00072583993
0.00028710755
-0.0019194872
-0.0029729138
-0.0036712962
-0.0043202105
-0.0049531143
-0.00553003
-0.0059478579
-0.0060589103
-0.0057072999
-0.0047756456
-0.0032586289
-0.0012664376
0.00090725678
0.0028232112
0.0039869223
0.0040251794
0.0028877914
0.00071546082
-0.0026804189
-0.0020763459
-0.004451109
-0.0056267215
-0.0064922391
-0.0073928366
-0.0083656795
-0.0093568341
-0.010231685
-0.010790865
-0.010804741
-0.010063274
-0.0084616832
-0.0060406903
-0.0030831379
-0.00012622587
0.0021127037
0.0029639069
0.0021356613
-0.00036595381
-0.0048725296
-0.0055240824
-0.0079920292
-0.0092778378
-0.010333708
-0.011537919
-0.012935336
-0.014462626
-0.015956231
-0.017162364
-0.017765927
-0.017437985
-0.015919393
-0.013122885
-0.0092516843
-0.0048989305
-0.0010299382
0.0012694867
0.001277841
-0.0013338793
-0.0072015976
-0.010076828
-0.012565009
-0.013936576
-0.015183921
-0.016718305
-0.018602549
-0.020774124
-0.023048692
-0.025121608
-0.026586262
-0.026969261
-0.025812863
-0.022845606
-0.018074377
-0.012051016
-0.0059518761
-0.001370662
0.00030067124
-0.0019471247
-0.0093821459
-0.015684906
-0.018132328
-0.019537462
-0.020926718
-0.022757664
-0.02512981
-0.027996939
-0.031166341
-0.034291409
-0.036876779
-0.038294096
-0.037844202
-0.035065782
-0.029601395
-0.021822422
-0.0129855
-0.0051848979
-0.0007156726
-0.001764121
-0.010792176
-0.022243524
-0.02461296
-0.0259455
-0.027334857
-0.029324074
-0.03207916
-0.035588878
-0.039664587
-0.04392721
-0.047801237
-0.050530117
-0.051236407
-0.048956802
-0.043143471
-0.033768939
-0.021926266
-0.010036806
-0.0014153659
-9.7882286e-06
-0.01022554
-0.029641146
-0.031923825
-0.032978667
-0.034079773
-0.035939405
-0.038831431
-0.042795548
-0.04765152
-0.052990464
-0.058163515
-0.062284177
-0.064265462
-0.062875086
-0.057112112
-0.046476666
-0.031649011
-0.015037785
-0.00086431143
0.0046468427
-0.0055214576
-0.037865936
-0.040048441
-0.040440076
-0.040752446
-0.04201494
-0.044652961
-0.048758118
-0.054143997
-0.060355965
-0.066665273
-0.072060616
-0.075268213
-0.074811293
-0.069269195
-0.057628233
-0.039961433
-0.018247894
0.002789117
0.014445237
0.0069076282
-0.047230523
-0.049134275
-0.048140516
-0.046882259
-0.046905423
-0.048798588
-0.052668204
-0.058275949
-0.06507604
-0.07223193
-0.078595699
-0.082712252
-0.08288014
-0.07730932
-0.064523867
-0.043934881
-0.016747911
0.012503027
0.032938865
0.032409035
-0.058896734
-0.059639801
-0.055883818
-0.051941013
-0.049972276
-0.050629803
-0.053928564
-0.059495266
-0.066611792
-0.07428523
-0.081191101
-0.085679336
-0.085831728
-0.079522124
-0.064876029
-0.040689194
-0.007240844
0.032139451
0.064981532
0.077749263
-0.076226456
-0.072613696
-0.063516065
-0.055435287
-0.050724969
-0.049781549
-0.052312279
-0.057664295
-0.064891748
-0.072774901
-0.079779298
-0.084036679
-0.083391586
-0.075348893
-0.057602603
-0.028375068
0.012933404
0.065396556
0.11555159
0.15150631
-0.10809214
-0.089556374
-0.071233776
-0.057232892
-0.049072034
-0.046330145
-0.048077202
-0.053202541
-0.060434553
-0.068295795
-0.075027325
-0.078526847
-0.076388941
-0.065809609
-0.043865411
-0.0078183767
0.044393745
0.11299823
0.18838051
0.27186085
-0.17684537
-0.10828971
-0.076202509
-0.0546512
-0.042992308
-0.038997957
-0.040570444
-0.045927979
-0.053441473
-0.061438293
-0.06802752
-0.070962494
-0.067551069
-0.05473977
-0.029148747
0.013563672
0.078147032
0.17006444
0.28949554
0.4742183
-0.37208334
-0.12470837
-0.054973009
-0.031962464
-0.022063495
-0.020300456
-0.024359391
-0.031957936
-0.041261497
-0.050640823
-0.058316837
-0.062187401
-0.059782491
-0.048056746
-0.022658462
0.021474277
0.092818795
0.21015285
0.4028885
0.77640937
)
;

boundaryField
{
    movingWall
    {
        type            zeroGradient;
    }
    fixedWalls
    {
        type            zeroGradient;
    }
    frontAndBack
    {
        type            empty;
    }
}


// ************************************************************************* //
