/*--------------------------------*- C++ -*----------------------------------*\
| =========                 |                                                 |
| \\      /  F ield         | OpenFOAM: The Open Source CFD Toolbox           |
|  \\    /   O peration     | Version:  2112                                  |
|   \\  /    A nd           | Website:  www.openfoam.com                      |
|    \\/     M anipulation  |                                                 |
\*---------------------------------------------------------------------------*/
FoamFile
{
    version     2.0;
    format      ascii;
    arch        "LSB;label=32;scalar=64";
    class       surfaceScalarField;
    location    "31";
    object      phi;
}
// * * * * * * * * * * * * * * * * * * * * * * * * * * * * * * * * * * * * * //

dimensions      [0 3 -1 0 0 0 0];

oriented        oriented;

internalField   nonuniform List<scalar> 
760
(
1.2702695e-05
-1.2703652e-05
-2.8723262e-05
4.1425959e-05
-0.00012229207
9.356881e-05
-0.00025039693
0.00012810486
-0.00039607661
0.00014567968
-0.00054539374
0.00014931713
-0.00068627523
0.00014088149
-0.00080689663
0.00012062142
-0.00089495753
8.8060896e-05
-0.00093839577
4.3438251e-05
-0.00092727931
-1.1116436e-05
-0.00085686586
-7.0413431e-05
-0.000730432
-0.00012643387
-0.00056134331
-0.00016908877
-0.00037276103
-0.00018858237
-0.00019447419
-0.0001782869
-5.6521892e-05
-0.00013795232
1.9614512e-05
-7.6136393e-05
3.0411344e-05
-1.0796806e-05
3.0411372e-05
-4.3182992e-05
3.047934e-05
-0.00020456675
0.00020280972
-0.00046832595
0.00035732801
-0.00080071019
0.00046048912
-0.001167354
0.00051232354
-0.0015364541
0.00051841721
-0.0018782332
0.00048266061
-0.0021636885
0.00040607665
-0.0023645509
0.00028892332
-0.0024553577
0.0001342451
-0.0024181503
-4.8323885e-05
-0.002245365
-0.00024319877
-0.0019475617
-0.00042423714
-0.0015544727
-0.00056217782
-0.0011143233
-0.00062873185
-0.0006874756
-0.00060513462
-0.0003345258
-0.0004909021
-0.00010089668
-0.00030976546
-1.5518913e-06
-0.00011014158
2.8859507e-05
-0.00011002754
0.00014050688
-0.00040303349
0.00049581566
-0.00083139246
0.00078568697
-0.0013456244
0.00097472104
-0.0018986085
0.0010653077
-0.0024465932
0.0010664019
-0.0029480468
0.00098411417
-0.0033626343
0.00082066414
-0.0036519066
0.00057819564
-0.0037823331
0.00026467159
-0.0037298375
-0.00010081945
-0.0034858236
-0.00048721264
-0.0030632825
-0.00084677811
-0.0024999987
-0.0011254616
-0.0018582373
-0.0012704931
-0.0012181456
-0.0012452263
-0.0006637372
-0.0010453105
-0.00026308978
-0.00071041292
-4.7956338e-05
-0.00032527501
-1.9096819e-05
-0.00017344053
0.00031394742
-0.00059329584
0.00091567097
-0.0011777024
0.0013700936
-0.0018583815
0.0016554001
-0.0025769243
0.0017838506
-0.003281327
0.0017708045
-0.0039228149
0.001625602
-0.0044541584
0.0013520077
-0.0048302815
0.00095431872
-0.005011254
0.0004456441
-0.0049672705
-0.00014480289
-0.0046844452
-0.00077003791
-0.004172358
-0.0013588652
-0.0034691326
-0.0018286869
-0.0026440129
-0.0020956126
-0.0017932028
-0.0020960365
-0.0010258514
-0.0018126619
-0.00044021527
-0.0012960491
-9.6723924e-05
-0.00066876635
-0.00011582074
-0.00022979688
0.00054374431
-0.00076507925
0.0014509534
-0.0014914943
0.0020965086
-0.0023225612
0.0024864669
-0.0031901588
0.0026514482
-0.0040368446
0.0026174904
-0.0048100616
0.0023988191
-0.0054589912
0.0020009372
-0.0059342084
0.0014295359
-0.0061898386
0.00070127431
-0.0061884179
-0.00014622359
-0.0059055868
-0.001052869
-0.0053404218
-0.0019240302
-0.0045231197
-0.0026459891
-0.0035229791
-0.0030957533
-0.0024498064
-0.0031692092
-0.0014425402
-0.0028199281
-0.00064123159
-0.0020973578
-0.00014883697
-0.001161161
-0.00026465771
-0.0002772994
0.0008210437
-0.00091155211
0.0020852061
-0.0017607399
0.0029456964
-0.002722823
0.0034485501
-0.00372223
0.0036508552
-0.0046987171
0.0035939775
-0.0055989163
0.0032990183
-0.0063712176
0.0027732387
-0.0069637555
0.0020220736
-0.0073248628
0.0010623815
-0.007407484
-6.3602441e-05
-0.0071717141
-0.0012886391
-0.0065989018
-0.0024968425
-0.0057016884
-0.0035432026
-0.0045400242
-0.0042574175
-0.0032318451
-0.0044773882
-0.001949022
-0.0041027511
-0.0008872881
-0.0031590917
-0.0002115943
-0.0018368548
-0.00047625202
-0.00031411693
0.0011351606
-0.001026342
0.0027974312
-0.0019735134
0.0038928678
-0.0030417624
0.004516799
-0.0041507274
0.0047598202
-0.0052399566
0.0046832066
-0.0062580875
0.0043171493
-0.0071555407
0.0036706919
-0.0078803826
0.0027469156
-0.0083768572
0.001558856
-0.0085854033
0.00014494364
-0.0084513321
-0.0014227103
-0.0079295096
-0.003018665
-0.0070049715
-0.0044677406
-0.0057150491
-0.0055473399
-0.0041735844
-0.0060188529
-0.0025818461
-0.0056944893
-0.0012041053
-0.0045368326
-0.00029450415
-0.0027464559
-0.00077075617
-0.00033824887
0.0014734095
-0.0011031703
0.0035623526
-0.0021176361
0.0049073336
-0.0032598924
0.0056590554
-0.0044474102
0.0059473381
-0.0056219653
0.0058577617
-0.0067369523
0.0054321362
-0.00774797
0.0046817097
-0.008606377
0.0036053228
-0.0092552528
0.0022077319
-0.0096270162
0.00051670697
-0.0096492073
-0.0014005192
-0.0092489819
-0.0034188903
-0.0083739445
-0.0053427779
-0.0070220739
-0.0068992106
-0.0052818149
-0.0077591119
-0.0033676676
-0.0076086366
-0.0016173638
-0.0062871364
-0.00040826904
-0.0039555506
-0.0011790252
-0.00034815632
0.0018215658
-0.0011372154
0.0043514117
-0.0021827893
0.0059529074
-0.0033586209
0.006834887
-0.0045822437
0.0071709608
-0.0057998234
0.0070753414
-0.0069721958
0.0066045086
-0.008063669
0.0057731828
-0.0090334424
0.0045750964
-0.0098289942
0.0030032839
-0.010381275
0.0010689877
-0.010604526
-0.0011772679
-0.010400778
-0.0036226383
-0.0096748963
-0.0060686599
-0.0083686759
-0.008205431
-0.0065156865
-0.0096121013
-0.0043098856
-0.0098144375
-0.0021483239
-0.0084486981
-0.00056492549
-0.005538949
-0.0017439507
-0.0003439349
0.0021655007
-0.0011278599
0.0051353367
-0.0021647103
0.0069897578
-0.0033259028
0.0079960795
-0.0045308035
0.0083758615
-0.0057319454
0.0082764833
-0.0069002223
0.0077727856
-0.0080123822
0.0068853426
-0.0090408267
0.0056035407
-0.0099449672
0.0039074245
-0.010663395
0.0017874155
-0.011106746
-0.00073391716
-0.01116342
-0.0035659637
-0.010697128
-0.0065349521
-0.0095825998
-0.0093199594
-0.0077667779
-0.011427923
-0.0053715019
-0.012209713
-0.0028071792
-0.011013021
-0.00077836915
-0.0075677591
-0.0025223198
-0.00032890795
0.0024944087
-0.0010824215
0.0058888503
-0.0020707772
0.0079781136
-0.0031636131
0.0090889153
-0.0042839023
0.0094961505
-0.0053928538
0.0093854348
-0.0064741407
0.0088540726
-0.0075205483
0.0079317501
-0.0085229182
0.0066059104
-0.0094603448
0.004844851
-0.010291332
0.0026184027
-0.010933227
-9.2022146e-05
-0.011283212
-0.0032159786
-0.011173633
-0.0066445308
-0.010415714
-0.010077879
-0.0088467366
-0.012996901
-0.0064557544
-0.014600696
-0.0035815274
-0.013887248
-0.001064223
-0.010085063
-0.0035865429
-0.0003117841
0.0028061927
-0.0010206789
0.006597745
-0.0019261
0.0088835348
-0.0028949489
0.010057765
-0.0038568827
0.010458084
-0.0047855636
0.010314115
-0.0056807665
0.0097492756
-0.0065544557
0.0088054394
-0.0074198893
0.007471344
-0.0082818248
0.0057067864
-0.0091251552
0.003461733
-0.0099086393
0.00069146196
-0.010527256
-0.0025973617
-0.010827013
-0.0063447735
-0.010573628
-0.010331264
-0.0094932086
-0.01407732
-0.0073911391
-0.016702765
-0.0044189149
-0.016859472
-0.0014372117
-0.013066767
-0.0050237546
-0.00031004259
0.0031162353
-0.0009803643
0.0072680666
-0.0017790482
0.0096822186
-0.0025693652
0.010848082
-0.0032945946
0.011183314
-0.0039478956
0.010967416
-0.0045499692
0.010351349
-0.0051347844
0.0093902547
-0.0057399187
0.0080764785
-0.0063985229
0.0063653907
-0.0071301255
0.0041933355
-0.0079302574
0.0014915939
-0.0087388042
-0.0017888149
-0.0094303574
-0.0056532202
-0.00976858
-0.0099930416
-0.0094003429
-0.014445557
-0.0079305792
-0.018172529
-0.0052061613
-0.01958389
-0.0019026121
-0.016370316
-0.0069263667
-0.00035603987
0.0034722752
-0.0010239961
0.0079360229
-0.0017042288
0.010362451
-0.0022607967
0.011404649
-0.0026657192
0.011588237
-0.0029440066
0.011245704
-0.0031442456
0.010551588
-0.0033248633
0.0095708722
-0.0035471886
0.0082988038
-0.0038710414
0.0066892437
-0.0043491666
0.0046714608
-0.0050183763
0.0021608035
-0.0058766095
-0.00093058177
-0.0068578324
-0.0046719973
-0.007776286
-0.009074588
-0.0082658337
-0.013956009
-0.0077687391
-0.018669624
-0.0057510991
-0.02160153
-0.0024366711
-0.019684744
-0.0093630378
-0.00050826078
0.003980536
-0.00124563
0.0086733926
-0.0017958815
0.010912702
-0.0020479965
0.011656764
-0.0020325026
0.011572743
-0.0018254218
0.011038624
-0.001512188
0.010238354
-0.0011778557
0.0092365397
-0.00090470933
0.0080256572
-0.00077371684
0.0065582511
-0.00086348731
0.0047612313
-0.0012473553
0.0025446715
-0.0019828299
-0.00019510719
-0.0030818664
-0.0035729609
-0.00446003
-0.0076964244
-0.0058274855
-0.012588554
-0.0065661626
-0.017930946
-0.0057684462
-0.022399246
-0.0029512247
-0.022501965
-0.012314262
-0.00086855306
0.0048490888
-0.0017629818
0.0095678217
-0.0021213516
0.011271073
-0.0019368398
0.011472251
-0.0013509143
0.010986817
-0.00051618312
0.010203893
0.00043705209
0.0092851191
0.0013996253
0.0082739667
0.0022723888
0.0071528938
0.002960927
0.0058697129
0.0033691613
0.004352997
0.0033968087
0.0025170241
0.0029385533
0.00026314821
0.0019096171
-0.0025440246
0.00026968957
-0.0060564969
-0.0018541599
-0.010464704
-0.0039515935
-0.015833513
-0.004860833
-0.021490007
-0.003254703
-0.024108095
-0.015568965
-0.0015910835
0.0064401722
-0.0026108518
0.010587589
-0.0025131326
0.011173355
-0.0015899
0.010549019
-0.00017216188
0.0095690785
0.0014928115
0.0085389188
0.0032329094
0.007545021
0.0049232496
0.0065836266
0.0064630085
0.005613135
0.0077575123
0.0045752091
0.0087075169
0.0034029924
0.0092015037
0.0020230373
0.0091033472
0.0003613047
0.0082750949
-0.0017157723
0.0065654637
-0.0043468656
0.0039042374
-0.007803478
0.00055895581
-0.012488231
-0.0024680533
-0.018462998
-0.0030273163
-0.023548832
-0.018596282
-0.0027183586
0.0091585313
-0.0031498653
0.011019094
-0.0018029965
0.0098264864
0.00046670592
0.0082793177
0.00308943
0.0069463551
0.0057738189
0.0058545298
0.0083629069
0.0049559329
0.010760405
0.0041861285
0.0128935
0.0034800397
0.014690668
0.0027780414
0.016068352
0.0020253084
0.01692329
0.0011680997
0.017119717
0.00016487758
0.016490832
-0.0010868874
0.014816842
-0.0026728753
0.011846658
-0.0048332946
0.0074354933
-0.0080770662
0.00226293
-0.013290435
-0.0012724661
-0.020013436
-0.019868748
-0.0024132783
0.011571811
2.8056889e-05
0.0085777573
0.0042551382
0.0055994034
0.0084161232
0.0041183322
0.012231486
0.0031309919
0.015656266
0.0024297502
0.01868655
0.0019256491
0.021329194
0.001543485
0.023583494
0.0012257394
0.025429228
0.0009323068
0.026820171
0.00063436564
0.027677182
0.00031108903
0.027900205
-5.8145858e-05
0.027347225
-0.00053390758
0.025771632
-0.0010972823
0.022843047
-0.0019047096
0.01805477
-0.0032887893
0.011113587
-0.0063492511
0.0033886755
-0.012288525
-0.016480072
0.011571812
0.02014957
0.025748974
0.029867306
0.032998298
0.035428048
0.037353697
0.038897182
0.040122921
0.041055228
0.041689594
0.042000683
0.041942537
0.041408629
0.040311347
0.038406637
0.035117848
0.028768597
0.016480072
)
;

boundaryField
{
    movingWall
    {
        type            calculated;
        value           uniform 0;
    }
    fixedWalls
    {
        type            calculated;
        value           uniform 0;
    }
    frontAndBack
    {
        type            empty;
        value           nonuniform List<scalar> 0();
    }
}


// ************************************************************************* //
