/*--------------------------------*- C++ -*----------------------------------*\
| =========                 |                                                 |
| \\      /  F ield         | OpenFOAM: The Open Source CFD Toolbox           |
|  \\    /   O peration     | Version:  2112                                  |
|   \\  /    A nd           | Website:  www.openfoam.com                      |
|    \\/     M anipulation  |                                                 |
\*---------------------------------------------------------------------------*/
FoamFile
{
    version     2.0;
    format      ascii;
    arch        "LSB;label=32;scalar=64";
    class       surfaceScalarField;
    location    "31";
    object      phi_0;
}
// * * * * * * * * * * * * * * * * * * * * * * * * * * * * * * * * * * * * * //

dimensions      [0 3 -1 0 0 0 0];

oriented        oriented;

internalField   nonuniform List<scalar> 
760
(
1.2702695e-05
-1.2703653e-05
-2.8723262e-05
4.1425958e-05
-0.00012229207
9.3568809e-05
-0.00025039693
0.00012810486
-0.00039607661
0.00014567968
-0.00054539374
0.00014931713
-0.00068627522
0.00014088148
-0.00080689663
0.00012062141
-0.00089495752
8.8060889e-05
-0.00093839577
4.343824e-05
-0.00092727933
-1.1116455e-05
-0.0008568659
-7.0413434e-05
-0.00073043206
-0.00012643384
-0.00056134335
-0.0001690887
-0.00037276103
-0.00018858229
-0.00019447415
-0.00017828683
-5.6521829e-05
-0.00013795227
1.9614572e-05
-7.6136372e-05
3.0411381e-05
-1.079681e-05
3.0411353e-05
-4.3182993e-05
3.047934e-05
-0.00020456675
0.00020280972
-0.00046832594
0.00035732801
-0.00080071019
0.00046048912
-0.0011673541
0.00051232354
-0.0015364541
0.0005184172
-0.0018782332
0.00048266059
-0.0021636885
0.00040607662
-0.0023645509
0.00028892329
-0.0024553577
0.00013424509
-0.0024181503
-4.832387e-05
-0.002245365
-0.00024319872
-0.0019475618
-0.00042423703
-0.0015544728
-0.00056217767
-0.0011143233
-0.0006287317
-0.00068747558
-0.00060513453
-0.00033452576
-0.00049090209
-0.00010089665
-0.0003097655
-1.5518777e-06
-0.00011014161
2.8859467e-05
-0.00011002754
0.00014050688
-0.00040303349
0.00049581567
-0.00083139245
0.00078568697
-0.0013456244
0.00097472104
-0.0018986085
0.0010653077
-0.0024465932
0.0010664019
-0.0029480468
0.00098411417
-0.0033626343
0.00082066413
-0.0036519066
0.00057819562
-0.0037823331
0.00026467158
-0.0037298375
-0.00010081945
-0.0034858236
-0.00048721264
-0.0030632825
-0.00084677812
-0.0024999987
-0.0011254616
-0.0018582374
-0.0012704931
-0.0012181456
-0.0012452263
-0.0006637372
-0.0010453105
-0.00026308974
-0.00071041294
-4.7956322e-05
-0.00032527503
-1.9096844e-05
-0.00017344053
0.00031394742
-0.00059329584
0.00091567098
-0.0011777024
0.0013700936
-0.0018583815
0.0016554001
-0.0025769243
0.0017838506
-0.003281327
0.0017708046
-0.0039228149
0.001625602
-0.0044541584
0.0013520077
-0.0048302815
0.00095431871
-0.005011254
0.00044564405
-0.0049672705
-0.00014480296
-0.0046844451
-0.00077003801
-0.004172358
-0.0013588653
-0.0034691326
-0.001828687
-0.002644013
-0.0020956127
-0.0017932029
-0.0020960365
-0.0010258514
-0.0018126619
-0.00044021524
-0.0012960491
-9.672391e-05
-0.00066876634
-0.00011582074
-0.00022979688
0.0005437443
-0.00076507925
0.0014509533
-0.0014914943
0.0020965086
-0.0023225612
0.002486467
-0.0031901588
0.0026514482
-0.0040368446
0.0026174904
-0.0048100617
0.0023988191
-0.0054589912
0.0020009373
-0.0059342084
0.0014295359
-0.0061898386
0.00070127429
-0.0061884179
-0.00014622365
-0.0059055868
-0.0010528691
-0.0053404218
-0.0019240303
-0.0045231197
-0.0026459891
-0.0035229791
-0.0030957533
-0.0024498064
-0.0031692091
-0.0014425403
-0.002819928
-0.00064123157
-0.0020973578
-0.00014883697
-0.0011611609
-0.00026465771
-0.0002772994
0.0008210437
-0.0009115521
0.0020852061
-0.0017607399
0.0029456964
-0.002722823
0.0034485501
-0.00372223
0.0036508552
-0.0046987171
0.0035939774
-0.0055989163
0.0032990183
-0.0063712177
0.0027732387
-0.0069637555
0.0020220737
-0.0073248628
0.0010623816
-0.007407484
-6.3602398e-05
-0.007171714
-0.001288639
-0.0065989018
-0.0024968425
-0.0057016883
-0.0035432025
-0.0045400241
-0.0042574175
-0.0032318451
-0.0044773882
-0.001949022
-0.0041027511
-0.00088728811
-0.0031590917
-0.0002115943
-0.0018368548
-0.00047625201
-0.00031411693
0.0011351606
-0.001026342
0.0027974312
-0.0019735134
0.0038928678
-0.0030417624
0.004516799
-0.0041507274
0.0047598201
-0.0052399565
0.0046832066
-0.0062580875
0.0043171492
-0.0071555407
0.0036706919
-0.0078803827
0.0027469157
-0.0083768572
0.0015588562
-0.0085854033
0.00014494376
-0.0084513321
-0.0014227103
-0.0079295096
-0.003018665
-0.0070049715
-0.0044677406
-0.005715049
-0.0055473399
-0.0041735844
-0.0060188529
-0.0025818462
-0.0056944893
-0.0012041053
-0.0045368326
-0.00029450416
-0.0027464559
-0.00077075617
-0.00033824888
0.0014734095
-0.0011031703
0.0035623526
-0.0021176361
0.0049073336
-0.0032598924
0.0056590553
-0.0044474102
0.005947338
-0.0056219653
0.0058577617
-0.0067369522
0.0054321361
-0.0077479699
0.0046817096
-0.0086063771
0.0036053228
-0.0092552529
0.002207732
-0.0096270162
0.00051670704
-0.0096492073
-0.0014005192
-0.0092489819
-0.0034188904
-0.0083739445
-0.0053427779
-0.0070220739
-0.0068992106
-0.0052818149
-0.0077591119
-0.0033676676
-0.0076086366
-0.0016173638
-0.0062871364
-0.00040826904
-0.0039555506
-0.0011790252
-0.00034815632
0.0018215658
-0.0011372154
0.0043514117
-0.0021827893
0.0059529074
-0.0033586209
0.006834887
-0.0045822437
0.0071709608
-0.0057998233
0.0070753414
-0.0069721958
0.0066045086
-0.0080636689
0.0057731827
-0.0090334424
0.0045750962
-0.0098289942
0.0030032838
-0.010381275
0.0010689877
-0.010604526
-0.0011772679
-0.010400778
-0.0036226383
-0.0096748963
-0.0060686599
-0.0083686759
-0.008205431
-0.0065156865
-0.0096121013
-0.0043098856
-0.0098144375
-0.0021483239
-0.0084486981
-0.00056492549
-0.005538949
-0.0017439507
-0.00034393488
0.0021655007
-0.0011278599
0.0051353367
-0.0021647103
0.0069897578
-0.0033259028
0.0079960795
-0.0045308035
0.0083758615
-0.0057319453
0.0082764833
-0.0069002224
0.0077727856
-0.0080123822
0.0068853425
-0.0090408266
0.0056035406
-0.0099449672
0.0039074244
-0.010663395
0.0017874154
-0.011106746
-0.00073391714
-0.01116342
-0.0035659636
-0.010697128
-0.0065349521
-0.0095825997
-0.0093199594
-0.0077667779
-0.011427923
-0.0053715019
-0.012209713
-0.0028071792
-0.011013021
-0.00077836915
-0.0075677591
-0.0025223198
-0.00032890793
0.0024944086
-0.0010824215
0.0058888503
-0.0020707773
0.0079781136
-0.0031636132
0.0090889154
-0.0042839023
0.0094961506
-0.0053928538
0.0093854348
-0.0064741408
0.0088540726
-0.0075205483
0.0079317502
-0.0085229181
0.0066059104
-0.0094603447
0.004844851
-0.010291332
0.0026184027
-0.010933227
-9.2022163e-05
-0.011283212
-0.0032159786
-0.011173633
-0.0066445308
-0.010415714
-0.010077879
-0.0088467366
-0.012996901
-0.0064557544
-0.014600696
-0.0035815274
-0.013887248
-0.001064223
-0.010085063
-0.0035865429
-0.00031178409
0.0028061927
-0.0010206788
0.006597745
-0.0019260999
0.0088835347
-0.002894949
0.010057764
-0.0038568829
0.010458084
-0.0047855636
0.010314116
-0.0056807665
0.0097492756
-0.0065544557
0.0088054394
-0.0074198893
0.007471344
-0.0082818248
0.0057067865
-0.0091251552
0.0034617331
-0.0099086393
0.00069146193
-0.010527256
-0.0025973617
-0.010827013
-0.0063447735
-0.010573628
-0.010331264
-0.0094932086
-0.01407732
-0.0073911391
-0.016702765
-0.0044189149
-0.016859472
-0.0014372117
-0.013066767
-0.0050237546
-0.00031004261
0.0031162354
-0.00098036424
0.0072680666
-0.0017790481
0.0096822185
-0.0025693651
0.010848082
-0.0032945948
0.011183314
-0.0039478957
0.010967416
-0.0045499691
0.010351349
-0.0051347843
0.0093902546
-0.0057399187
0.0080764785
-0.006398523
0.0063653907
-0.0071301255
0.0041933356
-0.0079302574
0.0014915939
-0.0087388042
-0.001788815
-0.0094303574
-0.0056532202
-0.00976858
-0.0099930416
-0.0094003429
-0.014445557
-0.0079305792
-0.018172529
-0.0052061613
-0.01958389
-0.0019026121
-0.016370316
-0.0069263667
-0.00035603986
0.0034722752
-0.0010239962
0.007936023
-0.0017042288
0.010362451
-0.0022607965
0.011404649
-0.0026657192
0.011588237
-0.0029440068
0.011245704
-0.0031442457
0.010551588
-0.0033248633
0.0095708722
-0.0035471886
0.0082988038
-0.0038710414
0.0066892436
-0.0043491666
0.0046714608
-0.0050183763
0.0021608035
-0.0058766094
-0.00093058177
-0.0068578323
-0.0046719973
-0.007776286
-0.009074588
-0.0082658337
-0.013956009
-0.0077687391
-0.018669624
-0.0057510991
-0.02160153
-0.0024366711
-0.019684744
-0.0093630378
-0.00050826066
0.0039805359
-0.0012456302
0.0086733926
-0.0017958817
0.010912703
-0.0020479962
0.011656764
-0.0020325024
0.011572743
-0.001825422
0.011038623
-0.0015121881
0.010238354
-0.0011778558
0.0092365398
-0.00090470929
0.0080256573
-0.00077371683
0.0065582511
-0.00086348732
0.0047612313
-0.0012473553
0.0025446716
-0.0019828299
-0.00019510717
-0.0030818664
-0.0035729608
-0.00446003
-0.0076964243
-0.0058274855
-0.012588554
-0.0065661626
-0.017930946
-0.0057684462
-0.022399246
-0.0029512247
-0.022501965
-0.012314262
-0.00086855289
0.0048490888
-0.0017629818
0.0095678214
-0.002121352
0.011271073
-0.0019368398
0.011472252
-0.0013509141
0.010986817
-0.00051618304
0.010203892
0.00043705203
0.009285119
0.0013996252
0.0082739666
0.0022723887
0.0071528938
0.002960927
0.0058697129
0.0033691613
0.004352997
0.0033968087
0.0025170241
0.0029385533
0.00026314822
0.0019096171
-0.0025440246
0.00026968956
-0.0060564969
-0.0018541599
-0.010464704
-0.0039515935
-0.015833513
-0.004860833
-0.021490007
-0.003254703
-0.024108095
-0.015568965
-0.0015910836
0.0064401724
-0.0026108514
0.010587589
-0.0025131328
0.011173354
-0.0015899002
0.010549019
-0.0001721619
0.0095690789
0.0014928116
0.0085389189
0.0032329095
0.007545021
0.0049232496
0.0065836266
0.0064630084
0.0056131349
0.0077575123
0.0045752091
0.0087075169
0.0034029924
0.0092015037
0.0020230373
0.0091033472
0.0003613047
0.0082750949
-0.0017157723
0.0065654637
-0.0043468656
0.0039042374
-0.007803478
0.00055895581
-0.012488231
-0.0024680533
-0.018462998
-0.0030273163
-0.023548832
-0.018596282
-0.0027183594
0.0091585318
-0.0031498648
0.011019094
-0.0018029962
0.0098264859
0.00046670579
0.0082793172
0.0030894298
0.0069463549
0.0057738189
0.0058545299
0.008362907
0.0049559329
0.010760405
0.0041861285
0.0128935
0.0034800397
0.014690668
0.0027780414
0.016068352
0.0020253084
0.01692329
0.0011680997
0.017119717
0.00016487757
0.016490832
-0.0010868875
0.014816842
-0.0026728753
0.011846658
-0.0048332946
0.0074354933
-0.0080770662
0.00226293
-0.013290435
-0.0012724661
-0.020013436
-0.019868748
-0.0024132793
0.011571811
2.8056655e-05
0.0085777583
0.0042551386
0.005599404
0.0084161234
0.0041183323
0.012231486
0.0031309918
0.015656266
0.0024297502
0.01868655
0.0019256491
0.021329194
0.001543485
0.023583494
0.0012257394
0.025429228
0.00093230678
0.026820171
0.00063436563
0.027677182
0.00031108902
0.027900205
-5.8145863e-05
0.027347225
-0.00053390759
0.025771632
-0.0010972823
0.022843047
-0.0019047096
0.01805477
-0.0032887893
0.011113587
-0.0063492511
0.0033886755
-0.012288525
-0.016480072
0.011571811
0.02014957
0.025748973
0.029867306
0.032998298
0.035428048
0.037353697
0.038897182
0.040122921
0.041055228
0.041689594
0.042000683
0.041942537
0.041408629
0.040311347
0.038406637
0.035117848
0.028768597
0.016480072
)
;

boundaryField
{
    movingWall
    {
        type            calculated;
        value           uniform 0;
    }
    fixedWalls
    {
        type            calculated;
        value           uniform 0;
    }
    frontAndBack
    {
        type            empty;
        value           nonuniform List<scalar> 0();
    }
}


// ************************************************************************* //
