/*--------------------------------*- C++ -*----------------------------------*\
| =========                 |                                                 |
| \\      /  F ield         | OpenFOAM: The Open Source CFD Toolbox           |
|  \\    /   O peration     | Version:  2112                                  |
|   \\  /    A nd           | Website:  www.openfoam.com                      |
|    \\/     M anipulation  |                                                 |
\*---------------------------------------------------------------------------*/
FoamFile
{
    version     2.0;
    format      ascii;
    arch        "LSB;label=32;scalar=64";
    class       volVectorField;
    location    "31";
    object      U;
}
// * * * * * * * * * * * * * * * * * * * * * * * * * * * * * * * * * * * * * //

dimensions      [0 1 -1 0 0 0 0];

internalField   nonuniform List<vector> 
400
(
(0.0002844461 -0.00028139433 0)
(0.00011069835 7.9967912e-05 0)
(-0.0013271941 0.00047803467 0)
(-0.0036219068 0.00073593423 0)
(-0.0064236756 0.00086752585 0)
(-0.0094315218 0.00090727517 0)
(-0.012388065 0.00087487276 0)
(-0.015056527 0.00077153623 0)
(-0.017194647 0.00058849328 0)
(-0.018552958 0.00032008563 0)
(-0.018902723 -2.4813093e-05 0)
(-0.018086233 -0.00041827032 0)
(-0.01607996 -0.00079972701 0)
(-0.013048984 -0.001093088 0)
(-0.0093664117 -0.0012212163 0)
(-0.0055776652 -0.0011294831 0)
(-0.0023003397 -0.00081287192 0)
(-8.2950951e-05 -0.00033798261 0)
(0.00076015186 0.00015229482 0)
(0.00040944186 0.00038933896 0)
(-8.6060342e-05 -0.00012358202 0)
(-0.0018692619 0.0017872646 0)
(-0.0063065469 0.0036260793 0)
(-0.012452746 0.0048625272 0)
(-0.01960076 0.005498565 0)
(-0.02710712 0.0056207077 0)
(-0.034359114 0.0052860639 0)
(-0.040769143 0.004504405 0)
(-0.045758466 0.0032662338 0)
(-0.04877621 0.001589654 0)
(-0.049366962 -0.00043547957 0)
(-0.047254129 -0.0026182113 0)
(-0.042452252 -0.0046645736 0)
(-0.035361684 -0.0062189582 0)
(-0.026778738 -0.0069376286 0)
(-0.017827328 -0.0065923016 0)
(-0.0097755603 -0.0051797997 0)
(-0.0037462996 -0.0029994431 0)
(-0.00038875117 -0.0006655357 0)
(0.00028989557 0.00078354985 0)
(-0.00058808044 0.0014336348 0)
(-0.0042428215 0.0063775521 0)
(-0.011758631 0.010640659 0)
(-0.021468836 0.013483706 0)
(-0.032366423 0.01489841 0)
(-0.043588325 0.015017486 0)
(-0.0542878 0.013936245 0)
(-0.063643002 0.011684298 0)
(-0.070856332 0.0082813901 0)
(-0.075188874 0.0038286523 0)
(-0.076040051 -0.0014059365 0)
(-0.073058216 -0.0069357093 0)
(-0.066267042 -0.012071834 0)
(-0.056169633 -0.016000358 0)
(-0.043781002 -0.017942849 0)
(-0.030569299 -0.01738004 0)
(-0.018250707 -0.014290032 0)
(-0.0084179894 -0.0093123264 0)
(-0.0021511235 -0.0037618387 0)
(-1.9700445e-06 0.00031696958 0)
(-0.001053069 0.0043004013 0)
(-0.006514893 0.013565817 0)
(-0.016999228 0.020864225 0)
(-0.030031094 0.025561405 0)
(-0.04430089 0.027761627 0)
(-0.058784703 0.027688114 0)
(-0.07248803 0.025487762 0)
(-0.084447475 0.021218505 0)
(-0.093729525 0.014945159 0)
(-0.099464807 0.0068783792 0)
(-0.10093071 -0.0025013228 0)
(-0.097663329 -0.012378524 0)
(-0.089593468 -0.021605536 0)
(-0.077182516 -0.028824941 0)
(-0.061505289 -0.032706224 0)
(-0.044253766 -0.032300059 0)
(-0.027562285 -0.027445995 0)
(-0.013581785 -0.019080754 0)
(-0.004026358 -0.0092707106 0)
(-0.00026772059 -0.0011081891 0)
(-0.0014558701 0.0083650629 0)
(-0.0085490969 0.023181331 0)
(-0.021746311 0.034051799 0)
(-0.037792609 0.040763239 0)
(-0.055097124 0.043701909 0)
(-0.072519849 0.043259168 0)
(-0.088984746 0.039661584 0)
(-0.10345881 0.03300143 0)
(-0.1149326 0.023384273 0)
(-0.12243728 0.011116751 0)
(-0.12511567 -0.0031289753 0)
(-0.1223202 -0.018219453 0)
(-0.11376179 -0.032541724 0)
(-0.099698469 -0.04413276 0)
(-0.081100659 -0.050966428 0)
(-0.059776436 -0.051441361 0)
(-0.038291247 -0.045013738 0)
(-0.019520484 -0.032755608 0)
(-0.006092349 -0.017491876 0)
(-0.00051102278 -0.0035220291 0)
(-0.0017889395 0.013475492 0)
(-0.010269747 0.034960966 0)
(-0.025805585 0.049908785 0)
(-0.044466895 0.058794969 0)
(-0.064427904 0.06245854 0)
(-0.084477792 0.061551054 0)
(-0.10351686 0.056416166 0)
(-0.12050384 0.047182292 0)
(-0.1344043 0.033970393 0)
(-0.14417427 0.01713237 0)
(-0.1488038 -0.002535954 0)
(-0.14739361 -0.0236365 0)
(-0.13931141 -0.04414276 0)
(-0.12443581 -0.061442309 0)
(-0.10343183 -0.072642515 0)
(-0.078056039 -0.075174105 0)
(-0.051261007 -0.067706902 0)
(-0.026809494 -0.051124276 0)
(-0.0086123135 -0.0289657 0)
(-0.00078707399 -0.0070521593 0)
(-0.0020420396 0.019436572 0)
(-0.011605678 0.048529047 0)
(-0.028995861 0.067998513 0)
(-0.049757838 0.079226216 0)
(-0.071891779 0.08365759 0)
(-0.094162264 0.082297905 0)
(-0.11550025 0.075649826 0)
(-0.13491524 0.063876998 0)
(-0.15140351 0.047076031 0)
(-0.163885 0.025567776 0)
(-0.17119261 0.00016300109 0)
(-0.17215479 -0.027610702 0)
(-0.16571588 -0.055396439 0)
(-0.15119217 -0.079945884 0)
(-0.12870076 -0.097351359 0)
(-0.099670136 -0.10369875 0)
(-0.067241923 -0.096286262 0)
(-0.036119171 -0.075220324 0)
(-0.011929748 -0.04453988 0)
(-0.0011708191 -0.012001498 0)
(-0.0022012914 0.026013423 0)
(-0.012484741 0.063419709 0)
(-0.03113997 0.08776463 0)
(-0.053354658 0.10149043 0)
(-0.077017846 0.1067773 0)
(-0.10091221 0.1050739 0)
(-0.12405024 0.097088302 0)
(-0.14555192 0.083021456 0)
(-0.16450979 0.062902232 0)
(-0.1798761 0.03693082 0)
(-0.19039938 0.0057954947 0)
(-0.19465583 -0.029033479 0)
(-0.19113644 -0.065018194 0)
(-0.1784899 -0.098391218 0)
(-0.15602504 -0.12417764 0)
(-0.12444502 -0.13676298 0)
(-0.086646703 -0.13132924 0)
(-0.048063801 -0.10623297 0)
(-0.016429382 -0.065393306 0)
(-0.0017537947 -0.018878435 0)
(-0.0022557106 0.032933306 0)
(-0.012853727 0.079088605 0)
(-0.032098959 0.10853516 0)
(-0.054981902 0.12486442 0)
(-0.079334947 0.13109303 0)
(-0.1039943 0.12919941 0)
(-0.12810043 0.12015144 0)
(-0.15094518 0.10420153 0)
(-0.17179741 0.081278376 0)
(-0.1897448 0.051375581 0)
(-0.20357631 0.014915382 0)
(-0.21172915 -0.026876164 0)
(-0.21232524 -0.071532429 0)
(-0.20333823 -0.11502618 0)
(-0.18306287 -0.15144722 0)
(-0.15101797 -0.17328522 0)
(-0.10916564 -0.17282202 0)
(-0.063026405 -0.14524396 0)
(-0.022524984 -0.092978139 0)
(-0.0026589642 -0.02842221 0)
(-0.0022086339 0.039904552 0)
(-0.012717085 0.094944315 0)
(-0.031841309 0.12954028 0)
(-0.054496841 0.14845864 0)
(-0.078500111 0.15563559 0)
(-0.10277103 0.15366653 0)
(-0.12662146 0.1438461 0)
(-0.14957662 0.12651341 0)
(-0.17117094 0.10149253 0)
(-0.19075577 0.068517124 0)
(-0.2073271 0.027627538 0)
(-0.21937772 -0.020394302 0)
(-0.2248878 -0.073462009 0)
(-0.22130658 -0.12768889 0)
(-0.2058548 -0.17662069 0)
(-0.17647627 -0.21099213 0)
(-0.13334658 -0.21961324 0)
(-0.080899181 -0.19275401 0)
(-0.030641903 -0.12885265 0)
(-0.0040700739 -0.04163706 0)
(-0.0020933494 0.046663318 0)
(-0.012189727 0.11041863 0)
(-0.030536214 0.14996589 0)
(-0.052017595 0.1712431 0)
(-0.074465009 0.17919261 0)
(-0.096919921 0.17712117 0)
(-0.11891406 0.16672985 0)
(-0.14026652 0.1485028 0)
(-0.16086208 0.12219248 0)
(-0.18044322 0.087272645 0)
(-0.19840292 0.043352581 0)
(-0.21353681 -0.0093897013 0)
(-0.2240146 -0.069676729 0)
(-0.22708288 -0.13413354 0)
(-0.21908959 -0.19645341 0)
(-0.19626649 -0.24625231 0)
(-0.15621929 -0.26886042 0)
(-0.10070625 -0.24798817 0)
(-0.04114602 -0.17433508 0)
(-0.0062706211 -0.059833955 0)
(-0.0019963288 0.053057494 0)
(-0.011565502 0.12508357 0)
(-0.028660955 0.16904526 0)
(-0.048056614 0.19210923 0)
(-0.067638435 0.20035675 0)
(-0.086643885 0.19791291 0)
(-0.10489589 0.18696731 0)
(-0.12256942 0.16821864 0)
(-0.13996398 0.14140913 0)
(-0.15729757 0.10579906 0)
(-0.17451557 0.060571792 0)
(-0.19108367 0.0052257184 0)
(-0.20560157 -0.059922481 0)
(-0.21550584 -0.13260798 0)
(-0.21690135 -0.20752798 0)
(-0.20457804 -0.27431825 0)
(-0.17317489 -0.31571792 0)
(-0.12017098 -0.30807991 0)
(-0.05414749 -0.22988383 0)
(-0.0096749054 -0.08465318 0)
(-0.0020996011 0.0591843 0)
(-0.011414857 0.13881594 0)
(-0.027115367 0.18617348 0)
(-0.043624835 0.20994721 0)
(-0.058981207 0.21760165 0)
(-0.072777794 0.21419785 0)
(-0.085249927 0.2024737 0)
(-0.097001122 0.18339421 0)
(-0.10878856 0.15675623 0)
(-0.12135025 0.1216863 0)
(-0.13525391 0.077015421 0)
(-0.15070271 0.021618194 0)
(-0.16712202 -0.045110794 0)
(-0.18274 -0.12251613 0)
(-0.19405353 -0.20712625 0)
(-0.19523503 -0.29011483 0)
(-0.17829425 -0.3535852 0)
(-0.13540546 -0.36743819 0)
(-0.069089022 -0.29415302 0)
(-0.014795029 -0.1179845 0)
(-0.0027676948 0.065619981 0)
(-0.012740981 0.15199862 0)
(-0.02732995 0.20099736 0)
(-0.040244474 0.22368378 0)
(-0.049928503 0.22933097 0)
(-0.056643286 0.22403761 0)
(-0.061232403 0.21108067 0)
(-0.064815793 0.19168182 0)
(-0.068620465 0.16572047 0)
(-0.073874751 0.13227355 0)
(-0.081727945 0.089960253 0)
(-0.093119859 0.037200116 0)
(-0.10846905 -0.02747912 0)
(-0.12721363 -0.10497644 0)
(-0.14705409 -0.19422081 0)
(-0.16280338 -0.2894865 0)
(-0.16509069 -0.37509945 0)
(-0.14090146 -0.41772703 0)
(-0.084061562 -0.36281407 0)
(-0.022011634 -0.1615741 0)
(-0.0047195829 0.073834781 0)
(-0.017222402 0.16572644 0)
(-0.031284267 0.21337841 0)
(-0.039683068 0.23217431 0)
(-0.041883275 0.23380258 0)
(-0.03935082 0.22539473 0)
(-0.033812239 0.2106126 0)
(-0.027000036 0.19081087 0)
(-0.020591675 0.16589803 0)
(-0.016215088 0.13493927 0)
(-0.015476039 0.09647089 0)
(-0.019925262 0.048689991 0)
(-0.030918361 -0.010412752 0)
(-0.049234044 -0.082920535 0)
(-0.07439891 -0.17014319 0)
(-0.1032765 -0.27050261 0)
(-0.12725448 -0.37369539 0)
(-0.12973493 -0.44868784 0)
(-0.094914798 -0.427507 0)
(-0.030930662 -0.21612807 0)
(-0.0092999999 0.086952164 0)
(-0.027432069 0.18185345 0)
(-0.040981531 0.22303366 0)
(-0.042679242 0.23378974 0)
(-0.034405078 0.22880247 0)
(-0.019622182 0.21592317 0)
(-0.001237897 0.19878019 0)
(0.01834612 0.17856486 0)
(0.037072118 0.15508364 0)
(0.053056324 0.12735939 0)
(0.064422192 0.093936248 0)
(0.069231514 0.053014505 0)
(0.065415575 0.0024625103 0)
(0.051047812 -0.060339445 0)
(0.024643262 -0.13837672 0)
(-0.013701755 -0.2341715 0)
(-0.058753691 -0.34517038 0)
(-0.093510872 -0.44954002 0)
(-0.094469898 -0.47558829 0)
(-0.039216114 -0.28048286 0)
(-0.018580313 0.11087147 0)
(-0.046039622 0.20177658 0)
(-0.055229926 0.22793174 0)
(-0.043984578 0.22501779 0)
(-0.019372066 0.21061311 0)
(0.012333928 0.19228021 0)
(0.046993727 0.17278511 0)
(0.081754865 0.15265409 0)
(0.11443861 0.13135289 0)
(0.14315392 0.10779554 0)
(0.16601743 0.080591565 0)
(0.18098168 0.048112072 0)
(0.18557648 0.0084491581 0)
(0.17716601 -0.040817647 0)
(0.15275968 -0.10317635 0)
(0.10948895 -0.18390633 0)
(0.047240626 -0.28855476 0)
(-0.021439224 -0.41051047 0)
(-0.072252926 -0.49101707 0)
(-0.041147482 -0.35054298 0)
(-0.033352239 0.15561542 0)
(-0.068601623 0.22040443 0)
(-0.055187265 0.21729229 0)
(-0.016078495 0.19532449 0)
(0.034511407 0.17092359 0)
(0.088508134 0.14849476 0)
(0.14176899 0.12861272 0)
(0.19196949 0.11057767 0)
(0.23754117 0.093297645 0)
(0.27712064 0.075575087 0)
(0.30921859 0.056181443 0)
(0.33204369 0.033823249 0)
(0.34317598 0.007027179 0)
(0.33982909 -0.025910571 0)
(0.31813266 -0.067741855 0)
(0.27327736 -0.12410803 0)
(0.20044732 -0.20584717 0)
(0.10213983 -0.32506916 0)
(-0.012387254 -0.45457171 0)
(-0.023756652 -0.40864073 0)
(-0.033081112 0.23907315 0)
(-0.04264715 0.21792009 0)
(0.042207222 0.16426629 0)
(0.12760462 0.12783581 0)
(0.20769806 0.10143554 0)
(0.28028173 0.081658206 0)
(0.34487328 0.066648173 0)
(0.40158323 0.054703078 0)
(0.45055086 0.044399496 0)
(0.49162063 0.034639937 0)
(0.52416206 0.024550587 0)
(0.54698624 0.013381691 0)
(0.5582225 0.00039972286 0)
(0.55570952 -0.015137353 0)
(0.53552629 -0.034969203 0)
(0.49244662 -0.062488208 0)
(0.41797274 -0.10694763 0)
(0.30410595 -0.19317544 0)
(0.12313783 -0.33691905 0)
(0.052374208 -0.39437913 0)
(0.24299926 0.15257479 0)
(0.30529618 0.11854286 0)
(0.45481215 0.076108135 0)
(0.56000885 0.050840197 0)
(0.63223324 0.035126093 0)
(0.6865492 0.024812316 0)
(0.72943834 0.017960106 0)
(0.76379642 0.013255931 0)
(0.7912794 0.0097622053 0)
(0.81275158 0.0068543621 0)
(0.82841147 0.0041185179 0)
(0.83794405 0.0012768541 0)
(0.84057079 -0.001844202 0)
(0.83497559 -0.0053262618 0)
(0.81886698 -0.0098289666 0)
(0.78942866 -0.01623275 0)
(0.73784287 -0.026935706 0)
(0.65316763 -0.05128655 0)
(0.45609767 -0.11374603 0)
(0.31788988 -0.17206002 0)
)
;

boundaryField
{
    movingWall
    {
        type            fixedValue;
        value           uniform (1 0 0);
    }
    fixedWalls
    {
        type            fixedValue;
        value           uniform (0 0 0);
    }
    frontAndBack
    {
        type            empty;
    }
}


// ************************************************************************* //
