/*--------------------------------*- C++ -*----------------------------------*\
| =========                 |                                                 |
| \\      /  F ield         | OpenFOAM: The Open Source CFD Toolbox           |
|  \\    /   O peration     | Version:  2112                                  |
|   \\  /    A nd           | Website:  www.openfoam.com                      |
|    \\/     M anipulation  |                                                 |
\*---------------------------------------------------------------------------*/
FoamFile
{
    version     2.0;
    format      ascii;
    arch        "LSB;label=32;scalar=64";
    class       volScalarField;
    location    "3";
    object      T;
}
// * * * * * * * * * * * * * * * * * * * * * * * * * * * * * * * * * * * * * //

dimensions      [0 0 0 1 0 0 0];

internalField   nonuniform List<scalar> 
1000
(
0.0413684
0.0413706
0.0413748
0.0413811
0.0413896
0.0414002
0.0414129
0.0414277
0.0414446
0.0414636
0.0414847
0.041508
0.0415333
0.0415608
0.0415904
0.0416221
0.0416559
0.0416918
0.0417298
0.0417699
0.0418122
0.0418565
0.0419029
0.0419515
0.0420021
0.0420548
0.0421097
0.0421666
0.0422256
0.0422867
0.0423499
0.0424152
0.0424826
0.0425521
0.0426236
0.0426973
0.042773
0.0428508
0.0429307
0.0430126
0.0430967
0.0431828
0.0432709
0.0433612
0.0434535
0.0435479
0.0436443
0.0437428
0.0438433
0.0439459
0.0440505
0.0441572
0.044266
0.0443767
0.0444896
0.0446044
0.0447213
0.0448402
0.0449611
0.0450841
0.0452091
0.0453361
0.0454651
0.0455962
0.0457292
0.0458642
0.0460013
0.0461403
0.0462814
0.0464244
0.0465694
0.0467164
0.0468654
0.0470163
0.0471692
0.0473241
0.0474809
0.0476397
0.0478005
0.0479632
0.0481279
0.0482944
0.048463
0.0486334
0.0488058
0.0489801
0.0491564
0.0493345
0.0495146
0.0496965
0.0498804
0.0500661
0.0502538
0.0504433
0.0506347
0.050828
0.0510231
0.0512201
0.051419
0.0516197
0.0518222
0.0520266
0.0522329
0.0524409
0.0526508
0.0528625
0.053076
0.0532913
0.0535085
0.0537274
0.0539481
0.0541705
0.0543948
0.0546208
0.0548486
0.0550781
0.0553094
0.0555425
0.0557772
0.0560137
0.0562519
0.0564919
0.0567335
0.0569768
0.0572219
0.0574686
0.057717
0.057967
0.0582188
0.0584722
0.0587272
0.0589839
0.0592422
0.0595022
0.0597637
0.0600269
0.0602917
0.060558
0.060826
0.0610955
0.0613667
0.0616393
0.0619136
0.0621893
0.0624666
0.0627455
0.0630258
0.0633077
0.0635911
0.063876
0.0641623
0.0644502
0.0647395
0.0650302
0.0653224
0.0656161
0.0659112
0.0662077
0.0665056
0.0668049
0.0671056
0.0674077
0.0677112
0.068016
0.0683222
0.0686297
0.0689386
0.0692488
0.0695603
0.0698731
0.0701872
0.0705026
0.0708193
0.0711372
0.0714564
0.0717769
0.0720985
0.0724214
0.0727455
0.0730708
0.0733973
0.0737249
0.0740538
0.0743837
0.0747149
0.0750471
0.0753805
0.075715
0.0760506
0.0763873
0.0767251
0.0770639
0.0774038
0.0777447
0.0780866
0.0784296
0.0787736
0.0791186
0.0794645
0.0798114
0.0801593
0.0805081
0.0808579
0.0812086
0.0815602
0.0819127
0.082266
0.0826203
0.0829754
0.0833313
0.0836881
0.0840457
0.0844041
0.0847633
0.0851233
0.085484
0.0858455
0.0862078
0.0865708
0.0869344
0.0872988
0.0876639
0.0880297
0.0883961
0.0887631
0.0891308
0.0894992
0.0898681
0.0902376
0.0906077
0.0909784
0.0913496
0.0917213
0.0920936
0.0924664
0.0928397
0.0932134
0.0935876
0.0939623
0.0943374
0.094713
0.0950889
0.0954652
0.095842
0.096219
0.0965965
0.0969742
0.0973523
0.0977307
0.0981094
0.0984884
0.0988676
0.0992471
0.0996268
0.100007
0.100387
0.100767
0.101148
0.101528
0.101909
0.10229
0.102671
0.103052
0.103433
0.103814
0.104196
0.104577
0.104958
0.10534
0.105721
0.106102
0.106484
0.106865
0.107246
0.107627
0.108008
0.108389
0.108769
0.10915
0.10953
0.10991
0.11029
0.11067
0.111049
0.111428
0.111807
0.112186
0.112564
0.112942
0.11332
0.113698
0.114075
0.114451
0.114827
0.115203
0.115579
0.115954
0.116328
0.116702
0.117076
0.117449
0.117821
0.118193
0.118564
0.118935
0.119306
0.119675
0.120044
0.120412
0.12078
0.121147
0.121514
0.121879
0.122244
0.122608
0.122972
0.123334
0.123696
0.124057
0.124418
0.124777
0.125136
0.125493
0.12585
0.126206
0.126561
0.126915
0.127268
0.12762
0.127972
0.128322
0.128671
0.129019
0.129366
0.129712
0.130057
0.130401
0.130744
0.131086
0.131426
0.131766
0.132104
0.132441
0.132777
0.133112
0.133445
0.133777
0.134108
0.134438
0.134766
0.135093
0.135419
0.135743
0.136066
0.136388
0.136708
0.137027
0.137344
0.13766
0.137975
0.138288
0.1386
0.13891
0.139218
0.139525
0.139831
0.140135
0.140438
0.140739
0.141038
0.141336
0.141632
0.141926
0.142219
0.14251
0.1428
0.143087
0.143373
0.143658
0.14394
0.144221
0.1445
0.144778
0.145053
0.145327
0.145599
0.145869
0.146137
0.146404
0.146668
0.146931
0.147192
0.147451
0.147708
0.147963
0.148216
0.148467
0.148716
0.148964
0.149209
0.149452
0.149693
0.149932
0.15017
0.150405
0.150638
0.150869
0.151097
0.151324
0.151549
0.151771
0.151992
0.15221
0.152426
0.15264
0.152852
0.153062
0.153269
0.153474
0.153677
0.153878
0.154076
0.154273
0.154467
0.154658
0.154848
0.155035
0.15522
0.155403
0.155583
0.155761
0.155936
0.15611
0.156281
0.156449
0.156615
0.156779
0.156941
0.1571
0.157256
0.157411
0.157562
0.157712
0.157859
0.158003
0.158146
0.158285
0.158422
0.158557
0.158689
0.158819
0.158946
0.159071
0.159194
0.159313
0.159431
0.159545
0.159658
0.159767
0.159874
0.159979
0.160081
0.160181
0.160278
0.160372
0.160464
0.160553
0.16064
0.160724
0.160806
0.160884
0.160961
0.161035
0.161106
0.161174
0.16124
0.161304
0.161364
0.161422
0.161478
0.161531
0.161581
0.161629
0.161674
0.161716
0.161756
0.161793
0.161827
0.161859
0.161888
0.161914
0.161938
0.16196
0.161978
0.161994
0.162007
0.162018
0.162026
0.162031
0.162034
0.162034
0.162031
0.162026
0.162018
0.162007
0.161994
0.161978
0.16196
0.161938
0.161914
0.161888
0.161859
0.161827
0.161793
0.161756
0.161716
0.161674
0.161629
0.161581
0.161531
0.161478
0.161422
0.161364
0.161304
0.16124
0.161174
0.161106
0.161035
0.160961
0.160884
0.160806
0.160724
0.16064
0.160553
0.160464
0.160372
0.160278
0.160181
0.160081
0.159979
0.159874
0.159767
0.159658
0.159545
0.159431
0.159313
0.159194
0.159071
0.158946
0.158819
0.158689
0.158557
0.158422
0.158285
0.158146
0.158003
0.157859
0.157712
0.157562
0.157411
0.157256
0.1571
0.156941
0.156779
0.156615
0.156449
0.156281
0.15611
0.155936
0.155761
0.155583
0.155403
0.15522
0.155035
0.154848
0.154658
0.154467
0.154273
0.154076
0.153878
0.153677
0.153474
0.153269
0.153062
0.152852
0.15264
0.152426
0.15221
0.151992
0.151771
0.151549
0.151324
0.151097
0.150869
0.150638
0.150405
0.15017
0.149932
0.149693
0.149452
0.149209
0.148964
0.148716
0.148467
0.148216
0.147963
0.147708
0.147451
0.147192
0.146931
0.146668
0.146404
0.146137
0.145869
0.145599
0.145327
0.145053
0.144778
0.1445
0.144221
0.14394
0.143658
0.143373
0.143087
0.1428
0.14251
0.142219
0.141926
0.141632
0.141336
0.141038
0.140739
0.140438
0.140135
0.139831
0.139525
0.139218
0.13891
0.1386
0.138288
0.137975
0.13766
0.137344
0.137027
0.136708
0.136388
0.136066
0.135743
0.135419
0.135093
0.134766
0.134438
0.134108
0.133777
0.133445
0.133112
0.132777
0.132441
0.132104
0.131766
0.131426
0.131086
0.130744
0.130401
0.130057
0.129712
0.129366
0.129019
0.128671
0.128322
0.127972
0.12762
0.127268
0.126915
0.126561
0.126206
0.12585
0.125493
0.125136
0.124777
0.124418
0.124057
0.123696
0.123334
0.122972
0.122608
0.122244
0.121879
0.121514
0.121147
0.12078
0.120412
0.120044
0.119675
0.119306
0.118935
0.118564
0.118193
0.117821
0.117449
0.117076
0.116702
0.116328
0.115954
0.115579
0.115203
0.114827
0.114451
0.114075
0.113698
0.11332
0.112942
0.112564
0.112186
0.111807
0.111428
0.111049
0.11067
0.11029
0.10991
0.10953
0.10915
0.108769
0.108389
0.108008
0.107627
0.107246
0.106865
0.106484
0.106102
0.105721
0.10534
0.104958
0.104577
0.104196
0.103814
0.103433
0.103052
0.102671
0.10229
0.101909
0.101528
0.101148
0.100767
0.100387
0.100007
0.0996268
0.0992471
0.0988676
0.0984884
0.0981094
0.0977307
0.0973523
0.0969742
0.0965965
0.096219
0.095842
0.0954652
0.0950889
0.094713
0.0943374
0.0939623
0.0935876
0.0932134
0.0928397
0.0924664
0.0920936
0.0917213
0.0913496
0.0909784
0.0906077
0.0902376
0.0898681
0.0894992
0.0891308
0.0887631
0.0883961
0.0880297
0.0876639
0.0872988
0.0869344
0.0865708
0.0862078
0.0858455
0.085484
0.0851233
0.0847633
0.0844041
0.0840457
0.0836881
0.0833313
0.0829754
0.0826203
0.082266
0.0819127
0.0815602
0.0812086
0.0808579
0.0805081
0.0801593
0.0798114
0.0794645
0.0791186
0.0787736
0.0784296
0.0780866
0.0777447
0.0774038
0.0770639
0.0767251
0.0763873
0.0760506
0.075715
0.0753805
0.0750471
0.0747149
0.0743837
0.0740538
0.0737249
0.0733973
0.0730708
0.0727455
0.0724214
0.0720985
0.0717769
0.0714564
0.0711372
0.0708193
0.0705026
0.0701872
0.0698731
0.0695603
0.0692488
0.0689386
0.0686297
0.0683222
0.068016
0.0677112
0.0674077
0.0671056
0.0668049
0.0665056
0.0662077
0.0659112
0.0656161
0.0653224
0.0650302
0.0647395
0.0644502
0.0641623
0.063876
0.0635911
0.0633077
0.0630258
0.0627455
0.0624666
0.0621893
0.0619136
0.0616393
0.0613667
0.0610955
0.060826
0.060558
0.0602917
0.0600269
0.0597637
0.0595022
0.0592422
0.0589839
0.0587272
0.0584722
0.0582188
0.057967
0.057717
0.0574686
0.0572219
0.0569768
0.0567335
0.0564919
0.0562519
0.0560137
0.0557772
0.0555425
0.0553094
0.0550781
0.0548486
0.0546208
0.0543948
0.0541705
0.0539481
0.0537274
0.0535085
0.0532913
0.053076
0.0528625
0.0526508
0.0524409
0.0522329
0.0520266
0.0518222
0.0516197
0.051419
0.0512201
0.0510231
0.050828
0.0506347
0.0504433
0.0502538
0.0500661
0.0498804
0.0496965
0.0495146
0.0493345
0.0491564
0.0489801
0.0488058
0.0486334
0.048463
0.0482944
0.0481279
0.0479632
0.0478005
0.0476397
0.0474809
0.0473241
0.0471692
0.0470163
0.0468654
0.0467164
0.0465694
0.0464244
0.0462814
0.0461403
0.0460013
0.0458642
0.0457292
0.0455962
0.0454651
0.0453361
0.0452091
0.0450841
0.0449611
0.0448402
0.0447213
0.0446044
0.0444896
0.0443767
0.044266
0.0441572
0.0440505
0.0439459
0.0438433
0.0437428
0.0436443
0.0435479
0.0434535
0.0433612
0.0432709
0.0431828
0.0430967
0.0430126
0.0429307
0.0428508
0.042773
0.0426973
0.0426236
0.0425521
0.0424826
0.0424152
0.0423499
0.0422867
0.0422256
0.0421666
0.0421097
0.0420548
0.0420021
0.0419515
0.0419029
0.0418565
0.0418122
0.0417699
0.0417298
0.0416918
0.0416559
0.0416221
0.0415904
0.0415608
0.0415333
0.041508
0.0414847
0.0414636
0.0414446
0.0414277
0.0414129
0.0414002
0.0413896
0.0413811
0.0413748
0.0413706
0.0413684
)
;

boundaryField
{
    sides
    {
        type            zeroGradient;
    }
    empty
    {
        type            empty;
    }
}


// ************************************************************************* //
