/*--------------------------------*- C++ -*----------------------------------*\
| =========                 |                                                 |
| \\      /  F ield         | OpenFOAM: The Open Source CFD Toolbox           |
|  \\    /   O peration     | Version:  2112                                  |
|   \\  /    A nd           | Website:  www.openfoam.com                      |
|    \\/     M anipulation  |                                                 |
\*---------------------------------------------------------------------------*/
FoamFile
{
    version     2.0;
    format      ascii;
    arch        "LSB;label=32;scalar=64";
    class       volScalarField;
    location    "1.5";
    object      Ma;
}
// * * * * * * * * * * * * * * * * * * * * * * * * * * * * * * * * * * * * * //

dimensions      [0 0 0 0 0 0 0];

internalField   nonuniform List<scalar> 
5250
(
3
2.99998
2.99993
2.99985
2.99953
2.99909
2.99729
2.99471
2.98466
2.96847
2.91476
2.79669
2.5171
1.86039
0.930778
0.364297
0.32101
0.332884
0.323121
0.285598
0.227942
0.174438
0.129014
0.0819304
0.0464959
3
2.99998
2.99993
2.99985
2.99954
2.9991
2.99731
2.99476
2.98481
2.9688
2.91557
2.79886
2.52177
1.86933
0.941819
0.372147
0.322935
0.335114
0.325872
0.288785
0.232247
0.180691
0.138157
0.09662
0.0703184
3
2.99998
2.99993
2.99985
2.99955
2.99912
2.99737
2.99487
2.9851
2.96948
2.91725
2.80339
2.53152
1.88863
0.966189
0.389895
0.328072
0.341304
0.333796
0.298335
0.244953
0.197865
0.161143
0.128269
0.110127
3
2.99998
2.99993
2.99986
2.99956
2.99915
2.99745
2.99504
2.98555
2.97049
2.91975
2.8102
2.54618
1.91803
1.00416
0.416699
0.335725
0.350908
0.346353
0.313516
0.264748
0.22338
0.193091
0.167576
0.154246
3
2.99999
2.99994
2.99987
2.99958
2.99919
2.99757
2.99526
2.98619
2.97187
2.92318
2.81888
2.5659
1.95579
1.05425
0.450011
0.343657
0.362133
0.361952
0.332696
0.289587
0.254494
0.230416
0.21089
0.201001
3
2.99999
2.99994
2.99988
2.99961
2.99924
2.99772
2.99556
2.98704
2.97359
2.92775
2.8287
2.59176
2.00094
1.11632
0.490193
0.352204
0.375306
0.380548
0.355623
0.319052
0.290386
0.272649
0.25925
0.252911
3
2.99999
2.99995
2.99989
2.99964
2.9993
2.99791
2.99592
2.98823
2.97561
2.93395
2.84017
2.62225
2.05536
1.19439
0.537417
0.361213
0.390136
0.401876
0.38179
0.35257
0.331356
0.320496
0.313845
0.313724
3
2.99999
2.99995
2.9999
2.99968
2.99937
2.99811
2.9963
2.98935
2.97784
2.94022
2.85481
2.65603
2.12689
1.29525
0.595957
0.375704
0.40994
0.42805
0.41254
0.390523
0.377285
0.374711
0.377758
0.388762
3
2.99999
2.99996
2.99991
2.99971
2.99943
2.99828
2.99667
2.99021
2.98023
2.94557
2.87295
2.69195
2.226
1.42832
0.669552
0.400956
0.437898
0.460647
0.449203
0.434912
0.429617
0.436572
0.454495
0.49129
3
2.99999
2.99996
2.99992
2.99975
2.99951
2.99852
2.9971
2.99153
2.9828
2.95241
2.89162
2.73022
2.33522
1.57544
0.759372
0.445022
0.480181
0.501521
0.493258
0.4854
0.487877
0.508656
0.557528
0.66089
3
2.99999
2.99998
2.99992
2.99984
2.99952
2.99904
2.99732
2.99423
2.98478
2.96316
2.90904
2.76197
2.4629
1.76969
0.872752
0.50268
0.531739
0.54788
0.544591
0.540537
0.552695
0.592185
0.68069
0.862482
3
3
2.99998
2.99995
2.99983
2.99965
2.99898
2.99795
2.99424
2.98766
2.96724
2.92002
2.80795
2.49839
1.91737
0.956856
0.566874
0.566446
0.583006
0.591435
0.596665
0.619081
0.673182
0.779991
0.972701
3
3
2.99998
2.99996
2.99985
2.99971
2.99912
2.99828
2.99499
2.98972
2.9719
2.93376
2.83633
2.57073
2.06911
1.10381
0.655346
0.590906
0.609639
0.62903
0.646869
0.679085
0.740444
0.844636
1.01011
3
3
2.99999
2.99996
2.99988
2.99975
2.99926
2.99855
2.99575
2.99142
2.97634
2.94568
2.86369
2.64379
2.21714
1.3083
0.769764
0.620784
0.636699
0.660759
0.689501
0.729966
0.792542
0.88607
1.02364
3.00001
3
2.99999
2.99997
2.9999
2.9998
2.99939
2.99882
2.9965
2.99305
2.98055
2.95722
2.89022
2.71783
2.36848
1.55151
0.913661
0.676329
0.677524
0.69672
0.729183
0.77197
0.835344
0.917896
1.03262
3.00001
3
2.99999
2.99998
2.99992
2.99984
2.99951
2.99905
2.99718
2.99451
2.9841
2.96741
2.91283
2.79293
2.5134
1.8848
1.07929
0.75625
0.733402
0.744082
0.770947
0.810391
0.868677
0.945255
1.04271
3.00001
3
3
2.99999
2.99994
2.99988
2.99962
2.99926
2.99781
2.99574
2.98761
2.97492
2.93154
2.83942
2.61932
2.07138
1.26684
0.842836
0.77738
0.787509
0.812143
0.849032
0.899115
0.967053
1.05169
3.00001
3
3
2.99999
2.99996
2.99991
2.99971
2.99944
2.99833
2.99675
2.99061
2.98086
2.94815
2.87755
2.70777
2.26408
1.52331
0.965856
0.818206
0.822163
0.844781
0.883541
0.929289
0.989241
1.06319
3.00001
3.00001
3
2.99999
2.99997
2.99993
2.99979
2.99958
2.99875
2.99756
2.99291
2.98579
2.9605
2.9139
2.78009
2.48327
1.83154
1.1298
0.881272
0.866095
0.882099
0.915029
0.959207
1.01117
1.07478
3.00001
3.00001
3
3
2.99999
2.99994
2.99988
2.99963
2.99928
2.9979
2.99581
2.9883
2.97506
2.93452
2.83979
2.63027
2.09263
1.32285
0.956509
0.90375
0.917274
0.945634
0.987299
1.0343
1.08955
3.00001
3.00001
3
3
2.99999
2.99996
2.99991
2.99972
2.99946
2.9984
2.99686
2.99088
2.98164
2.94949
2.88614
2.71962
2.31952
1.58215
1.08989
0.954213
0.952667
0.972703
1.00841
1.05312
1.10334
3.00001
3.00001
3.00001
3
2.99999
2.99998
2.99993
2.99985
2.99956
2.99911
2.99746
2.99488
2.98579
2.96965
2.92095
2.80993
2.55162
1.99486
1.27274
1.02367
0.99683
1.00847
1.03574
1.07498
1.11909
3.00001
3.00001
3.00001
3
3
2.99998
2.99996
2.99988
2.99975
2.99926
2.99852
2.99582
2.99136
2.97682
2.94653
2.86806
2.66731
2.25616
1.49871
1.11807
1.0359
1.0402
1.06231
1.09836
1.13857
3.00001
3.00001
3.00001
3.00001
3
2.99999
2.99997
2.99993
2.99979
2.99957
2.99875
2.99753
2.99295
2.98558
2.96092
2.91208
2.78323
2.47792
1.85406
1.27161
1.09071
1.07589
1.08913
1.11863
1.15922
3.00001
3.00001
3.00001
3.00001
3
3
2.99998
2.99996
2.99985
2.99971
2.99914
2.99833
2.99513
2.99041
2.97307
2.94298
2.85408
2.65479
2.20435
1.49279
1.17619
1.115
1.11861
1.14021
1.17391
3.00001
3.00001
3.00001
3.00001
3
3
2.99999
2.99997
2.99991
2.99981
2.99944
2.99891
2.99682
2.99374
2.98242
2.96308
2.90436
2.76975
2.47299
1.83639
1.33336
1.16997
1.1549
1.16581
1.19168
3.00001
3.00001
3.00001
3.00001
3.00001
3
3
2.99998
2.99995
2.99985
2.9997
2.99914
2.99829
2.99513
2.99014
2.97305
2.94209
2.84981
2.66282
2.17472
1.54782
1.25705
1.19609
1.19557
1.21314
3.00001
3.00001
3.00001
3.00001
3.00001
3
3
2.99999
2.99997
2.99991
2.99981
2.99944
2.99892
2.99686
2.99388
2.98269
2.96432
2.90672
2.77966
2.49673
1.87802
1.41495
1.25637
1.23256
1.23921
3.00001
3.00001
3.00001
3.00001
3.00001
3.00001
3
3
2.99999
2.99995
2.99989
2.99966
2.99934
2.99807
2.99624
2.98926
2.9784
2.94183
2.86668
2.68847
2.24856
1.62611
1.34066
1.27919
1.27344
3.00001
3.00001
3.00001
3.00001
3.00001
3.00001
3
3
2.99999
2.99998
2.99992
2.99983
2.99952
2.99904
2.99727
2.99455
2.98509
2.96816
2.91855
2.80283
2.55563
1.98542
1.50646
1.33279
1.30835
3.00001
3.00001
3.00001
3.00001
3.00001
3.00001
3.00001
3
3
2.99999
2.99995
2.9999
2.9997
2.99942
2.99829
2.99669
2.99061
2.98104
2.94949
2.88281
2.72962
2.33238
1.74325
1.42571
1.34591
3.00001
3.00001
3.00001
3.00001
3.00001
3.00001
3.00001
3.00001
3
3
2.99997
2.99994
2.99982
2.99965
2.99898
2.99801
2.99435
2.98872
2.96928
2.93453
2.83469
2.62586
2.12777
1.61826
1.40697
3.00001
3.00001
3.00001
3.00001
3.00001
3.00001
3.00001
3.00001
3
3
2.99999
2.99996
2.99992
2.99975
2.99951
2.9986
2.99723
2.9923
2.98417
2.95849
2.90394
2.77498
2.45152
1.88005
1.51816
3.00001
3.00001
3.00001
3.00001
3.00001
3.00001
3.00001
3.00001
3.00001
3
3
2.99999
2.99994
2.99988
2.99966
2.99933
2.99808
2.99621
2.98949
2.97834
2.94365
2.86954
2.69839
2.29257
1.7327
3.00001
3.00001
3.00001
3.00001
3.00001
3.00001
3.00001
3.00001
3.00001
3.00001
3
2.99999
2.99997
2.99994
2.9998
2.99962
2.99889
2.99784
2.99388
2.9879
2.96723
2.92961
2.82854
2.59716
2.11604
3.00001
3.00001
3.00001
3.00001
3.00001
3.00001
3.00001
3.00001
3.00001
3.00001
3
3
2.99999
2.99997
2.99989
2.99979
2.99938
2.99878
2.99655
2.99317
2.9813
2.96092
2.90014
2.77528
2.46226
3.00001
3.00001
3.00001
3.00001
3.00001
3.00001
3.00001
3.00001
3.00001
3.00001
3.00001
3
3
2.99998
2.99996
2.99986
2.99972
2.9992
2.99841
2.9956
2.99104
2.97619
2.94909
2.87089
2.71484
3.00001
3.00001
3.00001
3.00001
3.00001
3.00001
3.00001
3.00001
3.00001
3.00001
3.00001
3
3
2.99999
2.99998
2.99993
2.99985
2.99957
2.99915
2.99761
2.99527
2.98715
2.97336
2.93229
2.84807
3.00001
3.00001
3.00001
3.00001
3.00001
3.00001
3.00001
3.00001
3.00001
3.00001
3.00001
3.00001
3
3
2.99999
2.99997
2.99991
2.99981
2.99945
2.99892
2.99699
2.99396
2.98381
2.96559
2.91425
3.00001
3.00001
3.00001
3.00001
3.00001
3.00001
3.00001
3.00001
3.00001
3.00001
3.00001
3.00001
3.00001
3
3
2.99999
2.99995
2.9999
2.99971
2.99943
2.99836
2.99681
2.99109
2.98224
2.95311
3.00001
3.00001
3.00001
3.00001
3.00001
3.00001
3.00001
3.00001
3.00001
3.00001
3.00001
3.00001
3.00001
3.00001
3
3
2.99998
2.99995
2.99985
2.9997
2.99915
2.99833
2.99537
2.99076
2.97532
3.00001
3.00001
3.00001
3.00001
3.00001
3.00001
3.00001
3.00001
3.00001
3.00001
3.00001
3.00001
3.00001
3.00001
3.00001
3
3
2.99997
2.99994
2.99982
2.99964
2.999
2.99803
2.99461
2.9891
3.00001
3.00001
3.00001
3.00001
3.00001
3.00001
3.00001
3.00001
3.00001
3.00001
3.00001
3.00001
3.00001
3.00001
3.00001
3
3
2.99999
2.99997
2.99991
2.99982
2.99948
2.999
2.99718
2.99446
3.00001
3.00001
3.00001
3.00001
3.00001
3.00001
3.00001
3.00001
3.00001
3.00001
3.00001
3.00001
3.00001
3.00001
3.00001
3.00001
3
3
2.99999
2.99996
2.99991
2.99975
2.9995
2.99858
2.99725
3.00001
3.00001
3.00001
3.00001
3.00001
3.00001
3.00001
3.00001
3.00001
3.00001
3.00001
3.00001
3.00001
3.00001
3.00001
3.00001
3.00001
3
3
2.99999
2.99995
2.9999
2.99971
2.99942
2.99839
3.00001
3.00001
3.00001
3.00001
3.00001
3.00001
3.00001
3.00001
3.00001
3.00001
3.00001
3.00001
3.00001
3.00001
3.00001
3.00001
3.00001
3.00001
3
3
2.99998
2.99995
2.99986
2.99972
2.9992
3.00001
3.00001
3.00001
3.00001
3.00001
3.00001
3.00001
3.00001
3.00001
3.00001
3.00001
3.00001
3.00001
3.00001
3.00001
3.00001
3.00001
3.00001
3.00001
3
2.99999
2.99998
2.99994
2.99987
2.99962
3.00001
3.00001
3.00001
3.00001
3.00001
3.00001
3.00001
3.00001
3.00001
3.00001
3.00001
3.00001
3.00001
3.00001
3.00001
3.00001
3.00001
3.00001
3.00001
3
3
2.99999
2.99998
2.99993
2.99985
3.00001
3.00001
3.00001
3.00001
3.00001
3.00001
3.00001
3.00001
3.00001
3.00001
3.00001
3.00001
3.00001
3.00001
3.00001
3.00001
3.00001
3.00001
3.00001
3.00001
3
3
2.99999
2.99997
2.99992
3.00001
3.00001
3.00001
3.00001
3.00001
3.00001
3.00001
3.00001
3.00001
3.00001
3.00001
3.00001
3.00001
3.00001
3.00001
3.00001
3.00001
3.00001
3.00001
3.00001
3.00001
3
3
2.99999
2.99995
1.1015
1.29157
1.34773
1.31545
1.24495
1.17111
1.10036
1.06699
1.06324
1.06871
1.07494
1.07893
1.07923
1.07925
1.07936
1.08013
1.08173
1.08371
1.08713
1.09183
1.097
1.10239
1.10819
1.11462
1.1218
1.12971
1.13822
1.14716
1.15641
1.16587
1.17544
1.18506
1.19464
1.20412
1.21346
1.22262
1.23161
1.2404
1.24902
1.25745
1.26571
1.27385
1.28189
1.28973
1.29732
1.30478
1.31216
1.31947
1.32675
1.33393
1.34061
1.34544
1.34885
1.3508
1.34885
1.33949
1.31359
1.26085
1.17162
1.05996
0.957218
0.880921
0.841934
0.841852
0.864002
0.885296
0.910375
0.937407
0.958065
0.975219
0.992033
1.00854
1.02534
1.0431
1.06213
1.08324
1.10432
1.12437
1.14283
1.16079
1.17659
1.19221
1.20661
1.22079
1.23507
1.24923
1.26415
1.27889
1.29401
1.30829
1.32273
1.33612
1.34966
1.36227
1.37475
1.38637
1.39768
1.40748
1.41598
1.42011
1.14149
1.25789
1.32378
1.36695
1.41019
1.44802
1.46376
1.46401
1.45497
1.43812
1.42505
1.41953
1.4217
1.42463
1.42829
1.43142
1.43339
1.43481
1.43629
1.43832
1.44143
1.44514
1.44924
1.45368
1.4584
1.46347
1.46895
1.47486
1.48118
1.48783
1.49474
1.50185
1.5091
1.51648
1.52396
1.53152
1.53915
1.54683
1.55454
1.56226
1.56996
1.57762
1.58523
1.59276
1.60016
1.60741
1.6145
1.62136
1.62788
1.63407
1.63881
1.64137
1.64245
1.64008
1.63221
1.61021
1.56275
1.49281
1.42611
1.37902
1.34218
1.30337
1.25963
1.21779
1.18878
1.17631
1.18065
1.19469
1.21313
1.23899
1.26634
1.28941
1.30791
1.32226
1.33407
1.34346
1.35278
1.36342
1.37621
1.39158
1.40853
1.42588
1.44279
1.45917
1.47446
1.48864
1.50135
1.51305
1.52408
1.53486
1.5456
1.55623
1.56678
1.57728
1.58759
1.59778
1.60768
1.61623
1.62403
1.62633
1.1421
1.24955
1.34655
1.4393
1.52656
1.59492
1.63399
1.64133
1.63929
1.62922
1.6144
1.60123
1.59547
1.59407
1.59569
1.59754
1.60016
1.60271
1.6048
1.60681
1.60894
1.61155
1.61464
1.61796
1.62153
1.62542
1.62966
1.63424
1.63916
1.64438
1.64987
1.6556
1.66154
1.6677
1.67407
1.68065
1.68744
1.69444
1.70161
1.70893
1.71634
1.72379
1.73123
1.7386
1.74586
1.75289
1.75971
1.76613
1.77168
1.77593
1.77819
1.77876
1.77515
1.76455
1.73724
1.6804
1.60435
1.54253
1.51896
1.52261
1.52591
1.52351
1.50998
1.48489
1.45051
1.41014
1.37258
1.3496
1.34114
1.35213
1.36474
1.38263
1.40785
1.4343
1.45805
1.47756
1.49389
1.5075
1.51849
1.52801
1.53815
1.54975
1.56285
1.57666
1.59047
1.6041
1.61727
1.63012
1.64246
1.65448
1.66582
1.67702
1.68765
1.69831
1.7087
1.71874
1.7289
1.73748
1.74535
1.74781
1.14905
1.25822
1.35823
1.45018
1.53256
1.6017
1.65753
1.69811
1.72405
1.73294
1.73333
1.73033
1.72231
1.71532
1.71055
1.71048
1.71178
1.71387
1.71694
1.72029
1.7233
1.72616
1.72903
1.73205
1.73537
1.739
1.74291
1.7471
1.75154
1.7562
1.76108
1.76618
1.77152
1.77712
1.78297
1.78907
1.79543
1.80201
1.80881
1.81579
1.82291
1.83011
1.83733
1.8445
1.85162
1.85829
1.86492
1.87017
1.87371
1.87542
1.87466
1.87016
1.85413
1.81772
1.74725
1.66189
1.59897
1.58261
1.59611
1.61313
1.62969
1.64463
1.65215
1.6515
1.64169
1.62219
1.59347
1.56017
1.52087
1.48995
1.46863
1.462
1.47412
1.48822
1.5068
1.53265
1.55859
1.58235
1.60254
1.61933
1.63223
1.64264
1.65196
1.6612
1.6713
1.68274
1.69516
1.70813
1.72107
1.73419
1.74682
1.75941
1.77154
1.78315
1.79467
1.80519
1.81567
1.82451
1.83244
1.83483
1.14936
1.25629
1.35317
1.44108
1.52256
1.59484
1.66018
1.71484
1.75984
1.78994
1.80639
1.80926
1.80907
1.80591
1.79956
1.79456
1.79099
1.79034
1.7913
1.79258
1.79507
1.7982
1.80143
1.80462
1.80783
1.81113
1.81459
1.81824
1.82211
1.82625
1.83065
1.83535
1.84034
1.84561
1.8512
1.85704
1.86317
1.86952
1.87609
1.88281
1.88969
1.89656
1.90355
1.91031
1.91701
1.9232
1.9284
1.9313
1.93257
1.93093
1.92416
1.90354
1.85694
1.77561
1.68548
1.62545
1.61466
1.63047
1.64835
1.66937
1.69041
1.71227
1.72876
1.74113
1.74814
1.7494
1.74398
1.72975
1.7078
1.68045
1.6439
1.61036
1.57722
1.55605
1.5476
1.56009
1.5743
1.59242
1.61668
1.64208
1.66588
1.68586
1.70303
1.71731
1.72996
1.74081
1.7511
1.76148
1.77213
1.78365
1.79582
1.80805
1.82037
1.83234
1.84449
1.85577
1.86749
1.87697
1.88661
1.88973
1.14787
1.24757
1.34133
1.42703
1.50618
1.57848
1.64397
1.7015
1.75177
1.79274
1.8263
1.84833
1.86151
1.86489
1.86488
1.86323
1.85839
1.85509
1.85168
1.85219
1.85286
1.85462
1.85751
1.86141
1.86548
1.86936
1.87304
1.87656
1.88021
1.884
1.88818
1.89257
1.89738
1.90241
1.90779
1.91341
1.91929
1.92544
1.93176
1.93836
1.94497
1.95182
1.95847
1.96514
1.97111
1.97607
1.97832
1.979
1.97647
1.96643
1.93895
1.88149
1.78716
1.6936
1.64377
1.63841
1.65284
1.67105
1.68969
1.71226
1.73436
1.75626
1.77605
1.79352
1.80819
1.81995
1.82713
1.83042
1.82929
1.82103
1.80517
1.78417
1.75438
1.72398
1.68533
1.65566
1.6305
1.62189
1.63537
1.64997
1.66724
1.69053
1.71586
1.73811
1.75879
1.7744
1.78977
1.80183
1.81365
1.82374
1.83397
1.84359
1.85427
1.86473
1.87672
1.8874
1.89979
1.90942
1.92016
1.92411
1.14596
1.23803
1.32585
1.40785
1.48475
1.55551
1.62151
1.68077
1.73528
1.78246
1.8239
1.8575
1.88437
1.90132
1.91038
1.91247
1.91228
1.91141
1.90834
1.9064
1.90446
1.90535
1.90625
1.90801
1.91087
1.91468
1.9186
1.9224
1.92617
1.92998
1.93395
1.93814
1.94263
1.94745
1.95262
1.9581
1.96392
1.96993
1.97627
1.98258
1.98921
1.99555
2.00198
2.00761
2.01188
2.01372
2.01346
2.00988
1.99548
1.96094
1.89013
1.78586
1.69027
1.6546
1.65217
1.66587
1.68364
1.70307
1.72395
1.74571
1.76722
1.78858
1.80872
1.82789
1.84588
1.86163
1.87616
1.88757
1.89733
1.90237
1.90452
1.90231
1.89375
1.87776
1.85567
1.83114
1.79345
1.76218
1.72494
1.69943
1.68848
1.70169
1.71552
1.73168
1.7537
1.77597
1.80029
1.8181
1.83656
1.84979
1.86416
1.87523
1.88724
1.89697
1.90807
1.91746
1.92863
1.93809
1.94903
1.95382
1.14581
1.23021
1.31205
1.3897
1.46305
1.53172
1.5959
1.65531
1.71008
1.75968
1.80447
1.84308
1.87651
1.90306
1.92459
1.93816
1.94648
1.949
1.94925
1.94875
1.94732
1.94522
1.94428
1.94498
1.9458
1.94759
1.95065
1.95505
1.9597
1.96426
1.96872
1.9731
1.97763
1.98244
1.98759
1.99313
1.99897
2.00512
2.01136
2.01778
2.02399
2.03008
2.03551
2.03856
2.03996
2.03902
2.03295
2.01438
1.9705
1.88657
1.77592
1.6836
1.65992
1.66133
1.67374
1.69135
1.70987
1.73121
1.75122
1.77227
1.79274
1.81304
1.83246
1.85166
1.87017
1.88808
1.90535
1.9207
1.93586
1.9476
1.95941
1.96693
1.97147
1.97331
1.97115
1.96252
1.94697
1.92804
1.89763
1.87004
1.82907
1.79507
1.76439
1.75147
1.76472
1.77757
1.79335
1.81244
1.83635
1.85677
1.87952
1.89467
1.91222
1.92442
1.93898
1.94972
1.96254
1.97168
1.98198
1.98719
1.14787
1.22418
1.29996
1.37303
1.44272
1.50857
1.57066
1.62878
1.68307
1.7333
1.77953
1.82147
1.85917
1.8921
1.92057
1.94348
1.96122
1.97256
1.97938
1.98186
1.98237
1.9822
1.98163
1.9809
1.98119
1.98176
1.98313
1.98542
1.98891
1.99332
1.99801
2.00281
2.00769
2.01269
2.01783
2.02305
2.02846
2.03396
2.03961
2.04536
2.05051
2.05535
2.05735
2.05792
2.05598
2.0475
2.02323
1.97061
1.87013
1.7562
1.67426
1.65834
1.66517
1.6775
1.69376
1.71343
1.73451
1.75549
1.77567
1.79592
1.81579
1.83563
1.85512
1.87425
1.89322
1.91156
1.9297
1.94719
1.96434
1.98013
1.99569
2.00815
2.02142
2.03031
2.03909
2.04329
2.04514
2.0434
2.03644
2.02187
2.00137
1.97908
1.94265
1.91122
1.86744
1.83775
1.82014
1.83095
1.84433
1.85913
1.87795
1.89765
1.92172
1.94037
1.9615
1.975
1.99179
2.00273
2.01581
2.02157
1.15299
1.22148
1.29115
1.35957
1.42555
1.48856
1.54834
1.6049
1.65813
1.70813
1.7547
1.79799
1.83764
1.8738
1.90591
1.93412
1.9579
1.97743
1.99221
2.00224
2.00822
2.01111
2.01196
2.01221
2.01212
2.01215
2.01245
2.0134
2.01503
2.01765
2.02158
2.02633
2.03145
2.03662
2.04178
2.04696
2.05206
2.05716
2.06212
2.06648
2.07023
2.07168
2.07139
2.06828
2.05704
2.02709
1.96396
1.84976
1.7332
1.66995
1.65862
1.66834
1.6813
1.69763
1.71649
1.73796
1.759
1.78006
1.80028
1.82057
1.84062
1.86042
1.87992
1.89887
1.91771
1.93582
1.9544
1.97178
1.98978
2.00636
2.02317
2.03885
2.05433
2.06781
2.08222
2.09224
2.10404
2.11157
2.11715
2.11989
2.11973
2.11436
2.102
2.08588
2.05984
2.03507
1.99465
1.95866
1.91864
1.90104
1.90441
1.91668
1.93331
1.9481
1.96794
1.98728
2.00999
2.02549
2.04451
2.04899
1.16049
1.22132
1.28462
1.34803
1.41002
1.46994
1.52732
1.58203
1.63404
1.68324
1.72972
1.77329
1.81413
1.85187
1.88674
1.91828
1.94652
1.97115
1.99192
2.00891
2.0217
2.0305
2.03586
2.03879
2.03999
2.04059
2.04091
2.04148
2.04205
2.04329
2.04532
2.04841
2.05266
2.05747
2.06241
2.06747
2.07238
2.07716
2.08144
2.08395
2.08503
2.08427
2.07923
2.06463
2.02845
1.95293
1.82877
1.71136
1.6642
1.6558
1.66744
1.68271
1.69964
1.71949
1.74048
1.76223
1.78365
1.80463
1.82511
1.8454
1.86539
1.88508
1.90437
1.9231
1.94139
1.9593
1.97689
1.99415
2.01164
2.02813
2.04562
2.06122
2.07819
2.09362
2.10947
2.12461
2.13965
2.15276
2.16639
2.17651
2.18746
2.19351
2.19833
2.19947
2.19651
2.18702
2.1711
2.15267
2.12168
2.0929
2.04514
2.01199
1.98063
1.97691
1.99008
2.00274
2.01797
2.03191
2.05051
2.05815
1.16929
1.22407
1.28101
1.33917
1.39702
1.45374
1.50863
1.56142
1.61198
1.6602
1.70609
1.74958
1.79063
1.82925
1.86522
1.89871
1.92925
1.95712
1.98172
2.00325
2.02125
2.0359
2.04712
2.05491
2.05986
2.06263
2.06407
2.06494
2.06531
2.06609
2.06683
2.06841
2.0709
2.0743
2.07852
2.08295
2.08744
2.09157
2.09363
2.09421
2.0928
2.08666
2.06814
2.02673
1.9363
1.80548
1.69282
1.659
1.6548
1.66686
1.68292
1.70174
1.72294
1.7448
1.76651
1.78844
1.80961
1.83045
1.85091
1.87098
1.89092
1.91006
1.92895
1.94688
1.96496
1.98228
1.99999
2.01702
2.03427
2.05098
2.06805
2.08456
2.10208
2.11812
2.13611
2.15185
2.16945
2.1853
2.20177
2.21683
2.23189
2.24431
2.25702
2.26609
2.27479
2.27902
2.28108
2.27931
2.27226
2.25869
2.23785
2.2163
2.17942
2.14488
2.09291
2.06933
2.04264
2.05322
2.06242
2.06736
1.18072
1.22884
1.27967
1.3325
1.38594
1.43916
1.4915
1.54234
1.59154
1.63873
1.68396
1.7271
1.76811
1.80701
1.84368
1.87815
1.91029
1.94006
1.96733
1.99193
2.01383
2.03261
2.04859
2.06127
2.07127
2.07811
2.08284
2.08553
2.08719
2.08827
2.08877
2.08954
2.09053
2.09236
2.09497
2.09802
2.10099
2.10266
2.10262
2.10081
2.09312
2.07085
2.02312
1.91934
1.78327
1.67623
1.65192
1.65347
1.66554
1.68263
1.7031
1.72609
1.74914
1.77157
1.79355
1.81482
1.83572
1.85613
1.87635
1.89601
1.91547
1.93399
1.95253
1.97019
1.9881
2.00518
2.02259
2.0393
2.05664
2.07339
2.09086
2.10762
2.12511
2.14196
2.15972
2.17651
2.19466
2.21093
2.22893
2.24469
2.26175
2.27689
2.29269
2.30615
2.32043
2.33051
2.34187
2.34908
2.35442
2.35689
2.35654
2.35163
2.33905
2.32442
2.29862
2.27326
2.23049
2.18899
2.12946
2.13223
1.19811
1.23826
1.28301
1.3304
1.37902
1.42803
1.47695
1.5252
1.57236
1.61821
1.66244
1.70499
1.74572
1.78459
1.82156
1.85655
1.88955
1.9205
1.9493
1.97594
2.00024
2.02223
2.0416
2.05837
2.0725
2.08388
2.09284
2.09915
2.10373
2.10637
2.10813
2.10917
2.10986
2.11077
2.11165
2.11262
2.11301
2.11168
2.10932
2.09839
2.07441
2.01737
1.9046
1.76211
1.6636
1.64647
1.65311
1.66681
1.68436
1.70532
1.72917
1.75323
1.77669
1.79903
1.82037
1.84097
1.86126
1.88113
1.901
1.9202
1.93933
1.9575
1.97578
1.99296
2.0106
2.02724
2.0448
2.06151
2.07911
2.09584
2.1135
2.13038
2.14838
2.1654
2.1836
2.20058
2.21865
2.23537
2.25318
2.26935
2.28682
2.30223
2.31904
2.33369
2.34945
2.36281
2.37758
2.38855
2.40155
2.4094
2.41883
2.42396
2.4272
2.42807
2.42552
2.41806
2.40124
2.38393
2.34326
2.33893
1.21313
1.25157
1.29202
1.33317
1.37739
1.42259
1.46774
1.51279
1.55722
1.60084
1.64333
1.68455
1.72431
1.76256
1.79916
1.83419
1.86745
1.89907
1.92879
1.95677
1.98273
2.00678
2.02871
2.04853
2.06607
2.08142
2.09426
2.10486
2.11305
2.11916
2.12358
2.12632
2.12792
2.1284
2.12859
2.12738
2.12601
2.11998
2.10713
2.07608
2.01203
1.88596
1.74271
1.65604
1.64133
1.6514
1.66778
1.6863
1.70805
1.73192
1.75636
1.78
1.80279
1.82406
1.84456
1.86426
1.88404
1.90343
1.923
1.94184
1.96076
1.97866
1.99677
2.01383
2.03156
2.04836
2.06611
2.08289
2.10084
2.11782
2.13602
2.15315
2.17145
2.18856
2.20688
2.22372
2.24185
2.2582
2.27595
2.2918
2.30904
2.32434
2.3411
2.35573
2.37203
2.38597
2.40164
2.41473
2.42976
2.44131
2.45571
2.46512
2.47729
2.48444
2.49296
2.49659
2.49882
2.49808
2.48749
2.49103
1.22794
1.26506
1.30155
1.34095
1.37983
1.42101
1.4631
1.50497
1.5466
1.58766
1.62798
1.66734
1.70566
1.74273
1.77861
1.81305
1.84621
1.87779
1.90808
1.93662
1.96379
1.98914
2.01292
2.03486
2.05494
2.07321
2.08922
2.10342
2.11538
2.12482
2.13277
2.13825
2.14148
2.14221
2.14153
2.13963
2.13276
2.11654
2.08011
2.00764
1.87317
1.72945
1.6528
1.6389
1.65104
1.66807
1.68772
1.7102
1.73445
1.7585
1.78214
1.80443
1.82596
1.84615
1.86597
1.88521
1.90484
1.92408
1.94374
1.96254
1.98158
1.99946
2.0178
2.03518
2.05342
2.07082
2.08924
2.10666
2.12508
2.1423
2.16066
2.1778
2.19625
2.21323
2.23151
2.24802
2.26596
2.28188
2.29942
2.31474
2.33189
2.34672
2.3635
2.37797
2.39443
2.4085
2.4247
2.43831
2.45421
2.46733
2.4829
2.49519
2.51043
2.52132
2.53568
2.54473
2.55616
2.56282
2.56779
2.57287
1.24291
1.27912
1.31463
1.35002
1.38753
1.42405
1.46215
1.50135
1.54033
1.57895
1.61699
1.65438
1.69096
1.72672
1.76141
1.79512
1.82767
1.85902
1.88913
1.91801
1.94548
1.9717
1.9965
2.01983
2.04153
2.06197
2.08014
2.09688
2.11197
2.1242
2.13572
2.14409
2.14883
2.14942
2.14787
2.14063
2.12426
2.08359
2.00492
1.86436
1.72159
1.65154
1.63979
1.65223
1.67053
1.69014
1.71236
1.73606
1.76008
1.78312
1.80542
1.82641
1.84704
1.86676
1.88665
1.9061
1.92597
1.94536
1.96509
1.98386
2.00301
2.02114
2.0401
2.05814
2.07722
2.0952
2.1141
2.1317
2.15029
2.16757
2.18598
2.20296
2.22112
2.23767
2.25554
2.27161
2.28917
2.30469
2.32189
2.33694
2.35386
2.36858
2.38537
2.39982
2.41649
2.43071
2.44722
2.46117
2.47756
2.49117
2.50741
2.52062
2.53655
2.54918
2.56469
2.57634
2.59113
2.60127
2.61367
2.61959
1.26033
1.29209
1.32567
1.35964
1.39434
1.43052
1.46606
1.50136
1.53768
1.57396
1.60984
1.64511
1.67993
1.71397
1.74747
1.78005
1.81176
1.84275
1.87235
1.90124
1.92898
1.9553
1.98081
2.00508
2.02746
2.04945
2.06937
2.08737
2.10522
2.11963
2.13286
2.14459
2.14758
2.14696
2.14199
2.12531
2.08595
2.00072
1.8574
1.71541
1.65111
1.64251
1.65617
1.67412
1.69469
1.71724
1.74078
1.76369
1.78625
1.80804
1.82928
1.84952
1.86959
1.88912
1.90911
1.92887
1.9491
1.96874
1.98858
2.0075
2.0269
2.0454
2.06481
2.08329
2.10279
2.12108
2.14024
2.15802
2.17656
2.19366
2.21161
2.22814
2.24574
2.26186
2.27926
2.29493
2.31215
2.32736
2.34448
2.35938
2.37647
2.39117
2.40822
2.42274
2.4397
2.45401
2.47084
2.48494
2.50159
2.51545
2.53189
2.54543
2.56159
2.5747
2.59048
2.60305
2.61833
2.63002
2.64402
2.6515
1.28384
1.30604
1.33783
1.37013
1.4027
1.43627
1.47071
1.5052
1.53885
1.5726
1.60624
1.63974
1.67263
1.70525
1.73696
1.76851
1.79908
1.829
1.85841
1.88651
1.91407
1.94081
1.96584
1.99068
2.01414
2.03559
2.05756
2.07671
2.09471
2.11268
2.1261
2.13624
2.13676
2.13287
2.11656
2.07876
1.98732
1.84777
1.71186
1.64874
1.64279
1.659
1.67894
1.70005
1.7246
1.74867
1.77152
1.79289
1.81379
1.83441
1.85495
1.87491
1.89473
1.91418
1.93408
1.95378
1.97388
1.99338
2.01314
2.03205
2.05157
2.07028
2.08995
2.10862
2.1282
2.14641
2.16542
2.18286
2.20112
2.21785
2.23554
2.25178
2.26912
2.285
2.30214
2.31771
2.33479
2.35013
2.36727
2.38242
2.3996
2.41453
2.43168
2.44636
2.46343
2.47783
2.49477
2.50886
2.52561
2.53935
2.55583
2.56922
2.58536
2.59836
2.61414
2.62673
2.64214
2.6541
2.66848
2.67643
1.31087
1.32785
1.35304
1.38276
1.41277
1.44358
1.47546
1.50794
1.5407
1.57287
1.60509
1.63689
1.66846
1.69948
1.73035
1.7604
1.79013
1.81916
1.84758
1.87517
1.90249
1.92815
1.95415
1.97821
2.00168
2.02487
2.04548
2.06642
2.08588
2.10174
2.11651
2.11838
2.11525
2.10091
2.0622
1.9755
1.82465
1.69795
1.64344
1.63923
1.65685
1.68095
1.70469
1.73056
1.75584
1.77988
1.80228
1.82288
1.84302
1.86276
1.88263
1.90197
1.92158
1.94075
1.96046
1.97979
1.99965
2.0189
2.03868
2.05769
2.07749
2.0963
2.116
2.1344
2.15371
2.1715
2.19023
2.20735
2.22545
2.24201
2.25969
2.27585
2.29328
2.30913
2.32643
2.34205
2.35936
2.37477
2.39216
2.40733
2.42474
2.43967
2.45701
2.47167
2.48886
2.50321
2.52016
2.53415
2.55084
2.56444
2.58084
2.59408
2.61018
2.62309
2.63891
2.65148
2.66703
2.67907
2.69367
2.70175
1.33909
1.349
1.37078
1.39951
1.42719
1.45409
1.48258
1.51249
1.543
1.57402
1.60456
1.63519
1.66558
1.69561
1.7253
1.75445
1.78337
1.81147
1.83928
1.8666
1.89263
1.91904
1.94361
1.96792
1.99201
2.0136
2.03629
2.05657
2.07467
2.09171
2.09494
2.09181
2.0784
2.03992
1.95116
1.79614
1.67424
1.63213
1.63324
1.65065
1.67633
1.70492
1.73187
1.75709
1.7823
1.80648
1.82947
1.85084
1.87136
1.89082
1.91039
1.92973
1.94958
1.96886
1.9886
2.00765
2.02734
2.04639
2.06628
2.08531
2.10519
2.12379
2.14328
2.1612
2.18008
2.19725
2.21556
2.23225
2.25029
2.26676
2.28463
2.30081
2.31846
2.33431
2.35178
2.36736
2.38476
2.40014
2.41756
2.43275
2.45021
2.46516
2.48255
2.49716
2.51435
2.52854
2.54545
2.55921
2.57585
2.58922
2.60563
2.61866
2.63486
2.64758
2.66356
2.67596
2.69168
2.70353
2.71828
2.72616
1.37264
1.3726
1.38772
1.41172
1.44071
1.4677
1.49326
1.51958
1.5474
1.57611
1.60553
1.63454
1.66371
1.69281
1.72145
1.74988
1.77781
1.80516
1.83248
1.8586
1.88502
1.91033
1.93496
1.95976
1.98234
2.00574
2.02693
2.04652
2.06439
2.06871
2.06539
2.05106
2.0132
1.92086
1.76455
1.64389
1.61153
1.62097
1.64069
1.66509
1.69822
1.7281
1.75555
1.78046
1.80474
1.8283
1.85165
1.87404
1.89616
1.91724
1.93844
1.95865
1.97911
1.99857
2.01842
2.03731
2.05695
2.07578
2.09555
2.11423
2.1339
2.15198
2.17109
2.18831
2.20677
2.22341
2.24153
2.25796
2.27587
2.29211
2.30983
2.32587
2.34349
2.35932
2.37685
2.39241
2.40988
2.42519
2.44264
2.45773
2.47515
2.48998
2.50727
2.52176
2.53883
2.55295
2.56979
2.58353
2.60016
2.61353
2.62999
2.64303
2.65933
2.67204
2.68817
2.7005
2.7164
2.72812
2.74303
2.75074
1.41456
1.40037
1.40713
1.42541
1.4516
1.47922
1.50481
1.52962
1.55462
1.58044
1.60766
1.63552
1.66316
1.69107
1.71873
1.7465
1.77358
1.80063
1.82684
1.85283
1.87859
1.90297
1.92823
1.95135
1.97505
1.99716
2.01757
2.03557
2.04126
2.03657
2.0211
1.98272
1.87939
1.73119
1.60958
1.58554
1.60119
1.62598
1.65194
1.68459
1.71823
1.74877
1.77637
1.80084
1.82441
1.84757
1.87117
1.89453
1.91803
1.94067
1.96335
1.98483
2.00622
2.02627
2.0465
2.06566
2.08536
2.10412
2.12361
2.142
2.16118
2.17887
2.19754
2.21447
2.2327
2.24907
2.26694
2.28296
2.30062
2.31658
2.33422
2.35018
2.36778
2.38358
2.40109
2.41666
2.43407
2.44937
2.4667
2.48171
2.49896
2.51367
2.53082
2.54524
2.56224
2.57634
2.59316
2.60687
2.62351
2.63683
2.65333
2.66626
2.68263
2.69519
2.7114
2.72351
2.73948
2.7509
2.7659
2.77327
1.49606
1.44352
1.43569
1.44354
1.46201
1.48812
1.51368
1.5383
1.5627
1.58751
1.61223
1.63794
1.6645
1.69062
1.71736
1.74342
1.76994
1.79617
1.82173
1.8478
1.87211
1.89738
1.92084
1.94466
1.96719
1.98791
2.00615
2.01177
2.00635
1.98961
1.94764
1.83835
1.69129
1.57441
1.55682
1.57536
1.60549
1.63622
1.66915
1.70224
1.73493
1.76534
1.79313
1.8183
1.84237
1.86607
1.89005
1.91389
1.93771
1.96095
1.98427
2.00653
2.02885
2.04993
2.07107
2.09096
2.11116
2.1302
2.14977
2.16811
2.18718
2.20483
2.22345
2.24038
2.25854
2.27485
2.29267
2.30869
2.32637
2.3423
2.35988
2.37574
2.39327
2.40902
2.42651
2.44204
2.45939
2.47459
2.49178
2.50663
2.5237
2.53824
2.55523
2.56949
2.58638
2.60034
2.61712
2.63074
2.64743
2.66066
2.67726
2.69006
2.70655
2.71889
2.73522
2.74704
2.76311
2.77422
2.78932
2.79637
1.65655
1.49242
1.46699
1.46631
1.47785
1.49685
1.52178
1.5459
1.56955
1.59343
1.61756
1.64198
1.66685
1.69223
1.71741
1.74247
1.76801
1.79234
1.81808
1.84199
1.86695
1.89078
1.91434
1.93716
1.95801
1.97599
1.98136
1.97486
1.95582
1.91038
1.79479
1.6476
1.54006
1.52629
1.54675
1.5787
1.61601
1.65161
1.6845
1.7162
1.74791
1.77836
1.80688
1.83313
1.85824
1.88277
1.90741
1.93205
1.95657
1.98038
2.00384
2.02645
2.04918
2.07092
2.09284
2.11366
2.13461
2.15438
2.17451
2.19339
2.21279
2.23078
2.24955
2.26671
2.28502
2.30154
2.31952
2.3356