/*--------------------------------*- C++ -*----------------------------------*\
| =========                 |                                                 |
| \\      /  F ield         | OpenFOAM: The Open Source CFD Toolbox           |
|  \\    /   O peration     | Version:  2112                                  |
|   \\  /    A nd           | Website:  www.openfoam.com                      |
|    \\/     M anipulation  |                                                 |
\*---------------------------------------------------------------------------*/
FoamFile
{
    version     2.0;
    format      ascii;
    arch        "LSB;label=32;scalar=64";
    class       volScalarField;
    location    "1.5";
    object      p;
}
// * * * * * * * * * * * * * * * * * * * * * * * * * * * * * * * * * * * * * //

dimensions      [1 -1 -2 0 0 0 0];

internalField   nonuniform List<scalar> 
5250
(
1
1.00002
1.00005
1.00015
1.00032
1.0009
1.00184
1.00524
1.01045
1.03149
1.05831
1.20252
1.38791
2.39259
4.4957
10.8034
11.4691
11.3301
11.3282
11.4338
11.6788
11.8858
12.0164
12.1128
12.1844
1
1.00002
1.00005
1.00015
1.00032
1.0009
1.00182
1.00519
1.01034
1.03115
1.05774
1.20037
1.38313
2.37841
4.45189
10.7201
11.4616
11.322
11.3168
11.4227
11.6685
11.8756
12.0071
12.1049
12.1778
1
1.00002
1.00005
1.00015
1.00031
1.00088
1.00179
1.00508
1.01014
1.03047
1.0566
1.19589
1.37339
2.34828
4.35939
10.5342
11.4431
11.2992
11.2815
11.3847
11.6268
11.8305
11.9599
12.0564
12.1291
1
1.00002
1.00005
1.00014
1.0003
1.00085
1.00173
1.00492
1.00983
1.02944
1.0549
1.18916
1.35893
2.30299
4.22161
10.2438
11.4158
11.263
11.221
11.3185
11.5517
11.749
11.8736
11.9667
12.0395
1
1.00002
1.00005
1.00014
1.00029
1.00081
1.00165
1.00469
1.00939
1.02808
1.05246
1.1806
1.33953
2.24437
4.04537
9.84804
11.3802
11.2131
11.1363
11.2262
11.4467
11.6349
11.7523
11.8411
11.9137
1
1.00002
1.00004
1.00013
1.00027
1.00076
1.00155
1.00441
1.0088
1.02641
1.04903
1.17078
1.31506
2.17231
3.83866
9.3376
11.3383
11.1493
11.0264
11.106
11.3092
11.4836
11.5889
11.6687
11.7403
1
1.00002
1.00004
1.00012
1.00025
1.0007
1.00142
1.00405
1.00802
1.02448
1.04439
1.15952
1.28599
2.08928
3.59464
8.7084
11.2983
11.0747
10.8918
10.9584
11.1365
11.2888
11.3733
11.4346
11.4953
1
1.00002
1.00004
1.00011
1.00022
1.00063
1.00129
1.00367
1.00726
1.02224
1.04009
1.14487
1.25607
1.98783
3.31302
7.95243
11.2668
10.9959
10.7345
10.7846
10.9283
11.0466
11.0948
11.1168
11.1451
1
1.00001
1.00003
1.0001
1.0002
1.00057
1.00116
1.00331
1.00664
1.0197
1.03698
1.12639
1.22935
1.85418
3.00467
7.059
11.2335
10.9191
10.5613
10.5875
10.6831
10.7478
10.7376
10.6808
10.6004
1
1.00001
1.00003
1.00008
1.00017
1.00049
1.00101
1.00287
1.00579
1.01701
1.03288
1.10705
1.20136
1.71618
2.68652
6.06932
11.1446
10.828
10.3867
10.3666
10.401
10.3895
10.297
10.0667
9.67838
1
1.00001
1.00003
1.00006
1.00016
1.00033
1.00095
1.00186
1.00575
1.01014
1.03673
1.06026
1.23288
1.45636
2.53277
5.03008
10.8363
10.6412
10.2325
10.1153
10.0882
9.99343
9.72788
9.1063
7.52891
1
1.00001
1.00002
1.00006
1.00012
1.00035
1.00071
1.00203
1.00398
1.01235
1.02199
1.07934
1.13627
1.51276
2.15287
4.54245
9.98568
10.2704
10.0741
9.86531
9.76722
9.56908
9.15001
8.30587
6.67128
1
1.00001
1.00002
1.00005
1.00011
1.0003
1.0006
1.00172
1.00342
1.01034
1.01877
1.06654
1.11213
1.43519
1.92187
3.98955
8.74908
9.9935
9.87529
9.62437
9.44296
9.16888
8.65721
7.78477
6.45747
1
1.00001
1.00001
1.00004
1.00009
1.00025
1.00051
1.00145
1.00289
1.00859
1.01596
1.05466
1.09269
1.35683
1.73406
3.4206
7.35274
9.80622
9.70289
9.43323
9.15284
8.82026
8.2908
7.48592
6.41591
1
1
1.00001
1.00003
1.00007
1.00021
1.00042
1.00118
1.00239
1.00691
1.01337
1.04305
1.07519
1.27907
1.567
2.85347
5.85092
9.60747
9.54917
9.2941
8.91727
8.53578
8.02318
7.30459
6.40501
1
1
1.00001
1.00003
1.00006
1.00016
1.00034
1.00095
1.00193
1.00545
1.0109
1.03255
1.06093
1.20488
1.41095
2.3397
4.36908
9.12733
9.35869
9.16321
8.74495
8.31018
7.81464
7.17403
6.39936
1
1
1.00001
1.00002
1.00005
1.00013
1.00026
1.00074
1.0015
1.00424
1.00849
1.02515
1.04706
1.16042
1.29574
2.07248
3.52394
7.92131
9.076
8.94521
8.60478
8.13165
7.64595
7.06721
6.38676
1
1
1.00001
1.00002
1.00004
1.0001
1.0002
1.00056
1.00115
1.00323
1.00644
1.01918
1.03535
1.1223
1.21792
1.80504
2.84337
6.25801
8.81432
8.74998
8.49475
7.99691
7.51242
6.97904
6.37362
1
1
1
1.00001
1.00003
1.00007
1.00015
1.00042
1.00086
1.00242
1.00489
1.01405
1.02783
1.08479
1.16753
1.54201
2.25492
4.51867
8.4122
8.58528
8.39651
7.95131
7.42109
6.90926
6.36054
1
1
1
1.00001
1.00002
1.00005
1.00013
1.00026
1.00072
1.00147
1.00416
1.00818
1.025
1.0451
1.15888
1.28964
2.04116
3.42854
7.41175
8.34736
8.22417
7.88669
7.35466
6.85765
6.35413
1
1
1
1.00001
1.00002
1.00003
1.0001
1.00019
1.00054
1.00111
1.00311
1.00628
1.01822
1.03537
1.11284
1.21356
1.73849
2.69798
5.74914
8.05255
8.01699
7.80519
7.34635
6.83739
6.35444
1
1
1
1
1.00001
1.00003
1.00006
1.00015
1.00032
1.00088
1.00179
1.00506
1.01001
1.0302
1.05568
1.18748
1.37019
2.18131
3.77666
7.49417
7.88257
7.73458
7.3581
6.8425
6.36016
1
1
1
1
1.00001
1.00002
1.00005
1.00009
1.00026
1.00052
1.00147
1.00294
1.00862
1.0161
1.05333
1.09344
1.33268
1.69649
3.10346
6.13706
7.64341
7.58783
7.34893
6.86719
6.37927
1
1
1
1
1
1.00001
1.00003
1.00008
1.00015
1.00043
1.00088
1.00246
1.00495
1.01427
1.02784
1.08665
1.16581
1.54437
2.24306
4.3591
7.17798
7.41712
7.29136
6.94113
6.42295
1
1
1
1
1
1.00001
1.00002
1.00005
1.00011
1.00029
1.0006
1.00167
1.00338
1.00955
1.01903
1.05641
1.11011
1.34639
1.77416
3.15606
6.13343
7.21493
7.16202
6.94127
6.4887
1
1
1
1
1
1.00001
1.00001
1.00003
1.00007
1.00019
1.0004
1.0011
1.00222
1.00624
1.01236
1.03706
1.06818
1.22923
1.45978
2.41665
4.39999
6.79096
7.00911
6.8999
6.60305
1
1
1
1
1
1
1.00001
1.00002
1.00005
1.00011
1.0003
1.00061
1.00171
1.00345
1.00973
1.01957
1.05645
1.11684
1.34072
1.78247
3.07595
5.83885
6.80994
6.77982
6.60323
1
1
1
1
1
1
1.00001
1.00001
1.00003
1.00007
1.00019
1.00039
1.00108
1.0022
1.00613
1.0122
1.03592
1.06691
1.22016
1.43559
2.33705
4.14777
6.36284
6.64424
6.55876
1
1
1
1
1
1
1
1.00001
1.00002
1.00004
1.00012
1.00024
1.00067
1.00136
1.00377
1.00758
1.02178
1.04139
1.13293
1.24747
1.8123
2.78923
5.39675
6.4346
6.42874
1
1
1
1
1
1
1
1.00001
1.00001
1.00003
1.00006
1.00017
1.00035
1.00096
1.00195
1.00544
1.0107
1.03205
1.05822
1.19614
1.37562
2.15712
3.65958
5.92796
6.31536
1
1
1
1
1
1
1
1
1.00001
1.00002
1.00004
1.00011
1.00022
1.00059
1.00121
1.00332
1.00664
1.01921
1.03571
1.1175
1.21123
1.70671
2.5346
4.81189
6.06317
1
1
1
1
1
1
1
1
1
1.00001
1.00002
1.00006
1.00013
1.00036
1.00072
1.00199
1.00402
1.0112
1.0224
1.06423
1.13094
1.37849
1.83863
3.0844
5.46071
1
1
1
1
1
1
1
1
1
1.00001
1.00002
1.00003
1.00009
1.00018
1.00049
1.001
1.00276
1.00552
1.01582
1.02972
1.0955
1.17347
1.57362
2.22808
4.14571
1
1
1
1
1
1
1
1
1
1
1.00001
1.00002
1.00005
1.00012
1.00025
1.00068
1.00138
1.00379
1.00758
1.02168
1.04102
1.12912
1.24517
1.75052
2.64193
1
1
1
1
1
1
1
1
1
1
1
1.00001
1.00003
1.00007
1.00014
1.00039
1.0008
1.00217
1.00438
1.01212
1.02402
1.06986
1.13653
1.40723
1.88419
1
1
1
1
1
1
1
1
1
1
1
1.00001
1.00001
1.00004
1.00008
1.00022
1.00045
1.00123
1.00249
1.00682
1.0137
1.03853
1.07828
1.22258
1.48935
1
1
1
1
1
1
1
1
1
1
1
1
1.00001
1.00002
1.00005
1.00011
1.00029
1.00059
1.0016
1.00322
1.00886
1.01792
1.04969
1.10398
1.28545
1
1
1
1
1
1
1
1
1
1
1
1
1.00001
1.00001
1.00003
1.00006
1.00016
1.00032
1.00086
1.00174
1.00474
1.00948
1.02643
1.05238
1.15027
1
1
1
1
1
1
1
1
1
1
1
1
1
1.00001
1.00001
1.00004
1.00007
1.0002
1.0004
1.00109
1.00221
1.00603
1.0121
1.03383
1.06806
1
1
1
1
1
1
1
1
1
1
1
1
1
1
1.00001
1.00002
1.00004
1.00011
1.00022
1.00059
1.0012
1.00322
1.00649
1.01786
1.03516
1
1
1
1
1
1
1
1
1
1
1
1
1
1
1
1.00001
1.00002
1.00006
1.00011
1.00031
1.00063
1.00168
1.0034
1.00922
1.01868
1
1
1
1
1
1
1
1
1
1
1
1
1
1
1
1
1.00001
1.00003
1.00007
1.00014
1.00037
1.00074
1.00199
1.00401
1.01095
1
1
1
1
1
1
1
1
1
1
1
1
1
1
1
1
1.00001
1.00001
1.00003
1.00007
1.00019
1.00038
1.00103
1.00208
1.00562
1
1
1
1
1
1
1
1
1
1
1
1
1
1
1
1
1
1.00001
1.00002
1.00004
1.00009
1.00019
1.00052
1.00105
1.00281
1
1
1
1
1
1
1
1
1
1
1
1
1
1
1
1
1
1
1.00001
1.00002
1.00004
1.00011
1.00022
1.00059
1.00121
1
1
1
1
1
1
1
1
1
1
1
1
1
1
1
1
1
1
1
1.00001
1.00002
1.00005
1.00011
1.00029
1.0006
1
1
1
1
1
1
1
1
1
1
1
1
1
1
1
1
1
1
1
1
1.00001
1.00003
1.00005
1.00014
1.00029
1
1
1
1
1
1
1
1
1
1
1
1
1
1
1
1
1
1
1
1
1.00001
1.00001
1.00003
1.00006
1.00016
1
1
1
1
1
1
1
1
1
1
1
1
1
1
1
1
1
1
1
1
1
1.00001
1.00001
1.00003
1.00007
1
1
1
1
1
1
1
1
1
1
1
1
1
1
1
1
1
1
1
1
1
1
1.00001
1.00002
1.00004
3.06058
1.55545
1.04972
0.942065
0.965764
1.0388
1.1922
1.31486
1.35295
1.35083
1.3437
1.33194
1.33153
1.33248
1.33497
1.33801
1.33789
1.33704
1.33473
1.32985
1.32383
1.3184
1.31348
1.30863
1.30352
1.29806
1.29228
1.28627
1.28006
1.27369
1.26717
1.2605
1.25369
1.24674
1.23965
1.23245
1.22512
1.21769
1.21016
1.20251
1.19479
1.18704
1.17918
1.1712
1.16326
1.15532
1.14735
1.13942
1.13163
1.12421
1.11728
1.11436
1.11548
1.11979
1.13134
1.15858
1.21859
1.34231
1.59147
2.06711
2.73281
3.45382
4.02427
4.28564
4.26715
4.22043
4.14554
4.02306
3.94894
3.93393
3.91974
3.89122
3.85665
3.80918
3.7471
3.6645
3.57446
3.4955
3.42207
3.35693
3.30121
3.25223
3.20838
3.16649
3.12313
3.07652
3.0261
2.9731
2.91936
2.8665
2.81591
2.76712
2.72025
2.6753
2.63244
2.59152
2.55306
2.51662
2.48739
2.46168
3.73213
2.32512
1.72367
1.46992
1.34955
1.27227
1.24435
1.24952
1.26559
1.29913
1.33796
1.35372
1.3529
1.35007
1.34395
1.33792
1.33453
1.33307
1.33198
1.32994
1.32625
1.32139
1.31584
1.30998
1.30409
1.29824
1.29235
1.28635
1.28017
1.27379
1.26724
1.26053
1.25368
1.24671
1.23962
1.23241
1.22509
1.21767
1.21014
1.20251
1.1948
1.18703
1.17917
1.17125
1.1633
1.15537
1.14742
1.13954
1.13201
1.12504
1.11924
1.11981
1.12263
1.13052
1.15075
1.19702
1.29348
1.48637
1.78523
2.12417
2.45274
2.7667
3.11751
3.52889
3.92002
4.18987
4.28945
4.2633
4.18869
4.04714
3.88765
3.76673
3.68157
3.63408
3.60698
3.59304
3.57954
3.55519
3.51537
3.45407
3.37996
3.30195
3.22629
3.1541
3.08799
3.02927
2.97803
2.93234
2.88987
2.84845
2.80668
2.76489
2.72318
2.68157
2.64032
2.59941
2.56009
2.52069
2.49091
2.45874
4.56917
3.25458
2.43155
1.91067
1.57788
1.36891
1.24689
1.2191
1.22443
1.24095
1.27612
1.31277
1.33566
1.34328
1.34278
1.3409
1.33675
1.3315
1.32783
1.3247
1.32127
1.31731
1.31267
1.30762
1.30221
1.29656
1.29071
1.28469
1.27851
1.27219
1.26573
1.25914
1.25242
1.24556
1.23858
1.23146
1.22421
1.21685
1.20937
1.2018
1.19414
1.1864
1.17859
1.17073
1.16282
1.15495
1.14713
1.13955
1.13292
1.12739
1.12798
1.13097
1.13962
1.16162
1.21253
1.31698
1.52261
1.81797
2.09101
2.23688
2.34492
2.44953
2.57832
2.74942
2.97596
3.28853
3.65025
3.95916
4.168
4.1603
4.12466
4.05468
3.91157
3.75618
3.62611
3.53282
3.46402
3.41423
3.38155
3.36012
3.33328
3.29525
3.2441
3.18648
3.12694
3.06848
3.01226
2.95797
2.90609
2.85693
2.81029
2.76582
2.72286
2.68085
2.63965
2.59868
2.55963
2.51969
2.49054
2.45681
5.02713
3.83799
2.96079
2.35012
1.94122
1.66418
1.48786
1.37541
1.30781
1.27944
1.28084
1.28748
1.30257
1.32443
1.34011
1.34499
1.34438
1.34224
1.33749
1.33054
1.32494
1.31964
1.31462
1.30965
1.30437
1.29867
1.29259
1.28625
1.27977
1.2732
1.26658
1.2599
1.25312
1.24623
1.23922
1.23208
1.22482
1.21745
1.20997
1.2024
1.19473
1.187
1.17919
1.17135
1.16348
1.15574
1.14819
1.14189
1.13747
1.1384
1.14229
1.15403
1.18161
1.24378
1.36855
1.60457
1.93297
2.16084
2.25679
2.29442
2.31263
2.32452
2.34664
2.3909
2.47012
2.58462
2.74562
2.96149
3.25565
3.57363
3.84357
4.02166
4.00417
3.95353
3.87727
3.72859
3.57744
3.4481
3.34632
3.27104
3.22067
3.18882
3.16413
3.1396
3.10963
3.0703
3.02333
2.97236
2.91979
2.86736
2.81612
2.76627
2.71843
2.67269
2.62946
2.58771
2.54926
2.50983
2.48171
2.44859
5.29768
4.25823
3.41616
2.77737
2.31115
1.97063
1.7234
1.5441
1.41862
1.33509
1.28815
1.27669
1.27845
1.28446
1.29746
1.31273
1.32355
1.32825
1.32794
1.32655
1.32329
1.31701
1.31072
1.30466
1.29888
1.29323
1.28753
1.28172
1.27577
1.26967
1.26339
1.25695
1.25036
1.24363
1.23676
1.22978
1.22268
1.21546
1.20814
1.2007
1.19317
1.18556
1.17788
1.1702
1.1626
1.15529
1.14919
1.14661
1.14782
1.15279
1.16755
1.20196
1.27861
1.43156
1.69676
2.05369
2.23988
2.31407
2.33209
2.32498
2.30674
2.27597
2.2535
2.24675
2.25292
2.27277
2.31913
2.39897
2.51163
2.66598
2.88102
3.14979
3.44411
3.69931
3.87227
3.85346
3.80199
3.72483
3.58761
3.44375
3.31297
3.21093
3.1341
3.07483
3.0299
2.99387
2.96258
2.93193
2.89866
2.86035
2.81772
2.77322
2.72824
2.68351
2.63993
2.59674
2.5563
2.51496
2.48381
2.45035
5.48295
4.57977
3.79584
3.16078
2.66547
2.28423
1.99404
1.77341
1.60826
1.4858
1.3984
1.33772
1.30437
1.29089
1.29174
1.29533
1.30338
1.31466
1.32364
1.32565
1.32516
1.32337
1.31938
1.31169
1.30378
1.29626
1.28949
1.28335
1.27748
1.27156
1.26542
1.25901
1.25237
1.24553
1.23855
1.23147
1.22429
1.21702
1.20965
1.20219
1.19463
1.18701
1.17937
1.17187
1.16488
1.15891
1.15848
1.16023
1.1672
1.18548
1.22958
1.32338
1.51175
1.83056
2.17522
2.32236
2.37456
2.38009
2.36699
2.33565
2.29519
2.25427
2.2153
2.18362
2.15956
2.14316
2.14349
2.15132
2.17414
2.22288
2.30164
2.40754
2.55443
2.75214
3.00874
3.27773
3.53303
3.69844
3.67934
3.62394
3.55175
3.42354
3.28554
3.15778
3.05911
2.98232
2.92152
2.87232
2.83303
2.79977
2.76998
2.74007
2.70844
2.67317
2.63546
2.59553
2.55663
2.51629
2.48329
2.45044
5.60874
4.82227
4.10603
3.49409
2.99177
2.58694
2.2656
2.01049
1.80968
1.65179
1.52878
1.43585
1.3672
1.32037
1.29599
1.28723
1.28775
1.28999
1.29504
1.30233
1.30789
1.30789
1.3073
1.30544
1.30132
1.29385
1.28632
1.27932
1.27281
1.26659
1.2605
1.25439
1.24817
1.24176
1.23517
1.22839
1.22146
1.21438
1.20718
1.19986
1.1925
1.18512
1.17788
1.17137
1.16606
1.16671
1.16955
1.17972
1.20066
1.25854
1.3671
1.591
1.97203
2.26701
2.3952
2.4346
2.43131
2.41141
2.37318
2.33166
2.28629
2.24105
2.19738
2.15619
2.11917
2.08777
2.06253
2.04401
2.03289
2.03529
2.04503
2.06781
2.11455
2.18655
2.28651
2.41889
2.6081
2.84105
3.10406
3.35198
3.52147
3.50122
3.45781
3.38871
3.2778
3.15063
3.03046
2.93058
2.85367
2.79203
2.74168
2.69876
2.66236
2.62963
2.60023
2.57051
2.54073
2.50722
2.47633
2.44876
5.69923
5.00686
4.35494
3.77572
3.28082
2.86716
2.52678
2.24824
2.02176
1.83779
1.6896
1.57121
1.47767
1.40749
1.3538
1.31717
1.29683
1.28691
1.28705
1.28821
1.29116
1.29652
1.30068
1.30064
1.30008
1.29834
1.29449
1.28676
1.27828
1.27014
1.26274
1.25606
1.2497
1.24343
1.23708
1.23052
1.22371
1.21663
1.20936
1.20192
1.19458
1.18735
1.18106
1.17732
1.17817
1.18249
1.19374
1.22567
1.29078
1.43088
1.68923
2.12044
2.35636
2.45966
2.48793
2.48173
2.4577
2.4125
2.36822
2.32151
2.27423
2.228
2.18343
2.14082
2.10036
2.06247
2.02739
1.99702
1.97047
1.9494
1.93333
1.9238
1.92629
1.93535
1.95609
1.9977
2.06444
2.1528
2.27895
2.44444
2.67014
2.91557
3.16306
3.33711
3.32478
3.28994
3.22919
3.13522
3.02238
2.9067
2.80782
2.72978
2.66808
2.61612
2.57161
2.53202
2.49821
2.46762
2.44039
2.42466
5.76382
5.14943
4.55628
4.01309
3.53401
3.12142
2.77182
2.47822
2.23317
2.0292
1.86
1.72007
1.60495
1.51133
1.43611
1.37776
1.33433
1.30486
1.28837
1.28002
1.2792
1.27969
1.28109
1.284
1.28496
1.28468
1.2836
1.28112
1.276
1.26895
1.26137
1.25378
1.24661
1.23981
1.23322
1.22669
1.22012
1.21343
1.2066
1.19976
1.19314
1.18724
1.18531
1.1865
1.19228
1.20593
1.24563
1.32406
1.49471
1.80167
2.24749
2.44678
2.52
2.53741
2.52752
2.49972
2.45368
2.40431
2.35504
2.30644
2.25904
2.21332
2.16941
2.12728
2.08686
2.04794
2.01075
1.97518
1.94189
1.91063
1.88338
1.8591
1.84026
1.82513
1.81578
1.81748
1.82566
1.84276
1.87931
1.93825
2.01993
2.13007
2.28585
2.48279
2.72714
2.96552
3.14957
3.1605
3.13675
3.07729
3.00015
2.902
2.79806
2.69893
2.61907
2.55422
2.50246
2.45713
2.41988
2.39163
5.81652
5.26265
4.72037
4.21297
3.75418
3.34922
2.99764
2.6957
2.43814
2.21934
2.03393
1.8772
1.74502
1.63414
1.54192
1.466
1.40486
1.35711
1.32112
1.2963
1.28175
1.27401
1.27196
1.2722
1.27295
1.27457
1.27536
1.27507
1.27394
1.27128
1.26583
1.25861
1.25083
1.243
1.23539
1.22806
1.22106
1.21423
1.20763
1.20163
1.19619
1.19624
1.19802
1.20489
1.22343
1.26941
1.36611
1.56749
1.94294
2.35249
2.52711
2.57978
2.58493
2.57089
2.53801
2.49128
2.43915
2.3875
2.33726
2.28893
2.24244
2.19778
2.15489
2.11354
2.07362
2.03487
1.99739
1.96094
1.92584
1.89196
1.85973
1.82913
1.80062
1.775
1.75263
1.73464
1.72072
1.71066
1.71149
1.71745
1.73166
1.76102
1.81397
1.88352
1.98407
2.1153
2.2979
2.51587
2.75666
2.93933
3.00189
2.98118
2.92597
2.86694
2.78685
2.69297
2.60163
2.51638
2.45671
2.40225
5.85806
5.35404
4.85615
4.38305
3.9468
3.55373
3.20533
2.90011
2.6348
2.4053
2.20744
2.03716
1.89095
1.76562
1.65865
1.56779
1.49132
1.42794
1.37643
1.33595
1.30555
1.28446
1.27165
1.26483
1.26175
1.26147
1.26159
1.26184
1.2617
1.26108
1.25944
1.25593
1.24972
1.24246
1.23479
1.22706
1.21966
1.21252
1.2064
1.20155
1.20211
1.20498
1.21468
1.23596
1.29392
1.40367
1.63715
2.08489
2.43779
2.59423
2.63762
2.63437
2.61395
2.57403
2.52468
2.47107
2.41783
2.36644
2.31727
2.27018
2.22496
2.18142
2.13944
2.09879
2.05938
2.021
1.98369
1.94726
1.91193
1.87742
1.84415
1.81177
1.78084
1.75104
1.72302
1.6966
1.67244
1.6512
1.63384
1.62041
1.61033
1.60851
1.61247
1.62366
1.64691
1.68898
1.75022
1.83197
1.94762
2.09816
2.29989
2.51873
2.71167
2.82999
2.816
2.77891
2.73181
2.66535
2.60549
2.50541
5.89328
5.42869
4.9709
4.52978
4.11616
3.73693
3.39485
3.08996
2.82055
2.5838
2.37662
2.19573
2.03813
1.90103
1.78199
1.67897
1.59017
1.5142
1.44991
1.39638
1.35273
1.31847
1.29241
1.27382
1.26218
1.25567
1.25244
1.25127
1.25123
1.25113
1.25074
1.24967
1.24729
1.24249
1.23623
1.22924
1.22214
1.21553
1.21097
1.21172
1.21539
1.22636
1.25344
1.31884
1.44964
1.71682
2.22177
2.52619
2.65372
2.68962
2.68332
2.65924
2.61174
2.55754
2.50169
2.44709
2.39464
2.3446
2.29683
2.25097
2.20684
2.16415
2.12289
2.08275
2.04378
2.00571
1.96866
1.93243
1.89721
1.86277
1.82938
1.79673
1.76522
1.73442
1.70491
1.67621
1.64898
1.62283
1.59844
1.57555
1.55532
1.53793
1.52468
1.51475
1.50942
1.51184
1.51998
1.53612
1.5677
1.61709
1.68637
1.77794
1.9095
2.07077
2.28254
2.47085
2.62613
2.66266
2.64936
2.6205
5.9302
5.49613
5.07119
4.6585
4.26658
3.90182
3.5678
3.26558
2.99471
2.75343
2.53955
2.35053
2.18386
2.03715
1.90818
1.79502
1.69594
1.6095
1.53446
1.46986
1.41486
1.36885
1.33101
1.30136
1.27844
1.26208
1.25127
1.24488
1.24124
1.23952
1.23891
1.23849
1.23762
1.2358
1.23239
1.22755
1.2229
1.21893
1.21976
1.2238
1.23655
1.26781
1.34219
1.49318
1.79602
2.34249
2.61472
2.71417
2.74001
2.73007
2.7012
2.64945
2.59122
2.53254
2.47602
2.42233
2.37138
2.32281
2.2763
2.23141
2.18809
2.14599
2.10524
2.06546
2.02683
1.98902
1.95225
1.91625
1.88128
1.84705
1.81383
1.78131
1.74981
1.71897
1.68918
1.66
1.63196
1.60453
1.57832
1.55287
1.52878
1.50574
1.4844
1.46454
1.44745
1.43375
1.42353
1.41596
1.41636
1.42052
1.43142
1.45294
1.49224
1.54609
1.6209
1.72901
1.85429
2.05913
2.2199
2.4851
5.97926
5.56573
5.16062
4.77123
4.39947
4.04932
3.72446
3.42681
3.15666
2.91322
2.69495
2.5
2.32633
2.17193
2.03483
1.91326
1.80559
1.71039
1.62642
1.55268
1.48822
1.43244
1.38469
1.34459
1.31153
1.28521
1.26489
1.25021
1.24005
1.23382
1.23004
1.2282
1.22726
1.22657
1.22579
1.22444
1.22488
1.22665
1.23295
1.24778
1.28697
1.36795
1.54471
1.89597
2.46429
2.70264
2.7787
2.79118
2.77757
2.74258
2.68706
2.62616
2.56506
2.50629
2.45085
2.39857
2.34904
2.30161
2.25597
2.21171
2.16886
2.12711
2.08666
2.04712
2.00874
1.97114
1.93463
1.89885
1.86414
1.83013
1.79716
1.76485
1.73355
1.70285
1.67316
1.64402
1.61589
1.58827
1.56167
1.53557
1.51053
1.48602
1.46265
1.43995
1.4186
1.39817
1.37952
1.36237
1.34836
1.33728
1.32959
1.32567
1.32776
1.33505
1.34873
1.3761
1.41754
1.48349
1.56621
1.73745
6.03603
5.62899
5.24658
4.87561
4.51813
4.18066
3.86535
3.57356
3.30589
3.06223
2.84162
2.64276
2.46401
2.30369
2.1601
2.03164
1.91678
1.81419
1.72265
1.64115
1.56877
1.5048
1.4486
1.39969
1.35762
1.32208
1.29267
1.26907
1.2508
1.23748
1.22786
1.22203
1.21788
1.21778
1.21834
1.21993
1.22434
1.23313
1.25537
1.29989
1.40019
1.59963
2.00192
2.55946
2.78609
2.84615
2.84487
2.82556
2.7852
2.72572
2.66197
2.59865
2.53793
2.48061
2.42688
2.3761
2.32776
2.28113
2.23602
2.19205
2.14942
2.10783
2.06752
2.02811
1.9899
1.95246
1.91617
1.88058
1.84611
1.81229
1.77956
1.74744
1.71636
1.68584
1.65635
1.62735
1.59937
1.57184
1.5453
1.51917
1.49402
1.46925
1.44546
1.42204
1.39965
1.37768
1.35686
1.33658
1.31774
1.2997
1.28354
1.2688
1.25754
1.24877
1.2429
1.24317
1.24685
1.25728
1.27768
1.32569
6.12083
5.70049
5.32329
4.96678
4.62561
4.29934
3.993
3.70778
3.44385
3.20137
2.97994
2.77868
2.59636
2.43156
2.28283
2.14871
2.02787
1.91901
1.82104
1.7329
1.65377
1.58285
1.51953
1.46328
1.41362
1.37033
1.33283
1.30113
1.2747
1.25361
1.23675
1.22539
1.21588
1.21522
1.2164
1.22128
1.23046
1.25838
1.30859
1.42515
1.65053
2.09588
2.63
2.85244
2.9057
2.90045
2.87614
2.82654
2.76359
2.6965
2.63122
2.56911
2.51074
2.45583
2.40411
2.35474
2.3073
2.26112
2.21625
2.17236
2.12979
2.08822
2.04797
2.00863
1.97052
1.93319
1.89703
1.86157
1.82726
1.7936
1.76105
1.7291
1.69822
1.66787
1.63857
1.60975
1.58197
1.5546
1.52825
1.50226
1.47726
1.45256
1.42884
1.40538
1.38287
1.36062
1.33934
1.31833
1.29837
1.27872
1.26031
1.24232
1.22584
1.21005
1.19617
1.18378
1.17495
1.16787
1.16813
1.1724
6.22114
5.78236
5.40122
5.05335
4.72439
4.41173
4.11228
3.83189
3.57187
3.33162
3.1106
2.9082
2.72348
2.55532
2.40249
2.26374
2.13785
2.02367
1.92012
1.82629
1.74131
1.66444
1.59504
1.53258
1.47649
1.4266
1.3823
1.34362
1.30997
1.28166
1.2575
1.23978
1.22413
1.22447
1.22824
1.23636
1.26459
1.31794
1.44357
1.68901
2.16171
2.68143
2.899
2.95163
2.94449
2.91966
2.86748
2.79625
2.72514
2.65851
2.59662
2.53851
2.48371
2.43154
2.38168
2.33344
2.2866
2.24073
2.19602
2.15222
2.10974
2.06823
2.02806
1.98877
1.95074
1.91347
1.87741
1.84205
1.80785
1.77431
1.7419
1.71008
1.67936
1.64917
1.62005
1.5914
1.56382
1.53663
1.5105
1.48469
1.4599
1.43539
1.41185
1.38854
1.36618
1.34401
1.32278
1.30171
1.28162
1.26166
1.24277
1.22398
1.2064
1.18892
1.17283
1.15697
1.14264
1.12927
1.11761
1.11103
6.31684
5.8802
5.488
5.14064
4.8185
4.51246
4.22426
3.95056
3.69304
3.45438
3.23449
3.03194
2.84584
2.67525
2.51918
2.37659
2.24636
2.12758
2.01917
1.92033
1.83027
1.74819
1.67351
1.60572
1.54415
1.48862
1.43866
1.39387
1.35437
1.31949
1.28992
1.26482
1.24982
1.25149
1.26048
1.28169
1.34428
1.46279
1.72033
2.22506
2.73119
2.93786
2.99081
2.98111
2.95288
2.89472
2.81766
2.74397
2.67763
2.61725
2.56099
2.50738
2.45591
2.40606
2.35771
2.31042
2.26421
2.21878
2.17442
2.13093
2.08872
2.04742
2.00744
1.96828
1.93038
1.8932
1.85723
1.82195
1.78785
1.75442
1.72212
1.69044
1.65986
1.62983
1.60088
1.5724
1.545
1.518
1.49206
1.46644
1.44186
1.41754
1.39422
1.3711
1.34896
1.32696
1.30592
1.28498
1.26503
1.24513
1.22627
1.2074
1.18969
1.17182
1.15538
1.13847
1.12351
1.10764
1.09488
1.08214
6.31118
6.02222
5.59913
5.23359
4.91019
4.61016
4.32668
4.05974
3.80873
3.57311
3.35374
3.15076
2.96362
2.7913
2.63264
2.4869
2.35303
2.23024
2.11768
2.01442
1.9199
1.83329
1.75397
1.68149
1.61526
1.55479
1.49998
1.45012
1.40546
1.36532
1.33181
1.30176
1.29921
1.30529
1.3243
1.38629
1.50682
1.77268
2.28876
2.79927
2.99046
3.03647
3.02191
2.98469
2.91025
2.82932
2.75546
2.68977
2.63112
2.57651
2.52444
2.47396
2.42488
2.37687
2.32998
2.28386
2.23864
2.19408
2.15051
2.1077
2.06608
2.02526
1.98567
1.94681
1.90916
1.87218
1.8364
1.80129
1.76736
1.73407
1.70193
1.67039
1.63996
1.61007
1.58128
1.55296
1.52572
1.49889
1.47312
1.44768
1.42329
1.39915
1.37604
1.35311
1.33118
1.30937
1.28855
1.26781
1.24805
1.22832
1.20964
1.19089
1.17332
1.15547
1.13911
1.12204
1.10709
1.09063
1.07791
1.06351
6.26398
6.0867
5.72014
5.33537
5.00122
4.70277
4.42535
4.16375
3.91774
3.68601
3.46857
3.26603
3.07811
2.90401
2.74318
2.59466
2.45774
2.33149
2.21531
2.10823
2.00979
1.91911
1.83578
1.75909
1.68867
1.62405
1.56477
1.51089
1.46157
1.41879
1.38107
1.36523
1.36939
1.39506
1.44325
1.58822
1.85708
2.39169
2.89475
3.0724
3.10153
3.07965
3.02575
2.93052
2.84477
2.76903
2.70187
2.64183
2.58755
2.53531
2.48534
2.43672
2.38941
2.34304
2.29769
2.25298
2.2091
2.16577
2.12336
2.08158
2.04089
2.00084
1.96194
1.92363
1.88648
1.84991
1.81451
1.7797
1.74606
1.71302
1.68111
1.64977
1.61954
1.58982
1.56121
1.53304
1.50597
1.47929
1.45369
1.42841
1.4042
1.38023
1.35731
1.33456
1.31283
1.29123
1.27061
1.25007
1.23053
1.211
1.19253
1.17395
1.15658
1.13889
1.12271
1.10573
1.09094
1.07446
1.06189
1.04717
6.15023
6.06665
5.84715
5.45461
5.1057
4.80107
4.52278
4.26417
4.02141
3.79346
3.57903
3.37752
3.18925
3.01408
2.85142
2.70059
2.56101
2.43176
2.31234
2.20192
2.09985
2.00566
1.91855
1.83817
1.76402
1.69551
1.63271
1.57485
1.52357
1.47818
1.45269
1.45646
1.47969
1.53159
1.68598
1.97358
2.55243
3.02758
3.20219
3.19897
3.1649
3.08815
2.98683
2.89516
2.81328
2.73946
2.67194
2.60959
2.55136
2.49718
2.44733
2.39894
2.35227
2.30671
2.26234
2.21868
2.17597
2.13382
2.09265
2.05203
2.01246
1.97342
1.93546
1.89798
1.86161
1.82572
1.79095
1.75669
1.72355
1.69091
1.65939
1.62836
1.59843
1.56896
1.54058
1.51262
1.48576
1.45926
1.43384
1.40873
1.3847
1.3609
1.33816
1.3156
1.29407
1.27265
1.25225
1.2319
1.21258
1.19325
1.175
1.15662
1.13948
1.12196
1.106
1.08919
1.07462
1.05826
1.04589
1.03119
6.00671
5.98753
5.86347
5.58652
5.22092
4.90168
4.62198
4.36447
4.1231
3.89698
3.68467
3.48537
3.29748
3.12167
2.95765
2.80499
2.66307
2.53122
2.40894
2.29537
2.19018
2.09258
2.00211
1.91835
1.84066
1.769
1.70291
1.64321
1.59106
1.55747
1.56099
1.58533
1.64174
1.81278
2.13443
2.77054
3.21635
3.36429
3.35398
3.29634
3.18011
3.07254
2.97183
2.88203
2.80123
2.72726
2.65876
2.59444
2.533
2.47473
2.41962
2.36799
2.3196
2.2729
2.22795
2.18414
2.14167
2.10003
2.05958
2.01981
1.98119
1.9431
1.90613
1.8696
1.83417
1.79914
1.76522
1.7317
1.69926
1.66724
1.63629
1.60576
1.57628
1.5472
1.51919
1.49153
1.46495
1.4387
1.41352
1.38862
1.3648
1.3412
1.31866
1.29629
1.27496
1.25375
1.23355
1.21341
1.19431
1.17517
1.15715
1.13896
1.12204
1.10471
1.08898
1.07234
1.058
1.0418
1.02965
1.01505
5.64879
5.87255
5.82289
5.66497
5.34117
5.00964
4.72144
4.46419
4.22639
4.00124
3.78903
3.58993
3.40336
3.2274
3.06225
2.90791
2.76381
2.62975
2.50472
2.38839
2.28026
2.17956
2.08621
1.9992
1.91864
1.84419
1.77642
1.71776
1.67763
1.68152
1.7019
1.78771
1.94934
2.32797
3.04128
3.45328
3.55893
3.54165
3.46556
3.31809
3.18383
3.06973
2.96922
2.87958
2.79869
2.72428
2.65509
2.58928
2.52539
2.46444
2.40568
2.34949
2.29654
2.24661
2.19932
2.15383
2.11023
2.06791
2.02719
1.98745
1.94909
1.91146
1.8751
1.83928
1.80465
1.77045
1.73737
1.70468
1.67306
1.6418
1.61157
1.58168
1.55282
1.52428
1.49677
1.46956
1.44339
1.4175
1.39266
1.36806
1.34451
1.32117
1.29888
1.27675
1.25565
1.23465
1.21468
1.19475
1.17587
1.15694
1.13914
1.12115
1.10447
1.08732
1.07183
1.05536
1.04127
1.02523
1.01331
0.998833
4.84364
5.65956
5.71748
5.64918
5.47036
5.13618
4.83278
4.56802
4.32817
4.10522
3.89475
3.69524
3.50728
3.33084
3.16522
3.00929
2.86345
2.72693
2.59955
2.48084
2.36982
2.26676
2.17031
2.08076
1.99795
1.92233
1.85698
1.81234
1.81675
1.84036
1.93625
2.12096
2.5498
3.34757
3.71819
3.78471
3.75543
3.6543
3.48533
3.33064
3.19872
3.08509
2.98464
2.89353
2.80972
2.73156
2.65806
2.58862
2.52331
2.46084
2.39954
2.34064
2.28409
2.22994
2.17888
2.13069
2.0848
2.04073
1.99866
1.95794
1.91893
1.88096
1.8445
1.80882
1.77449
1.74074
1.70823
1.67617
1.64524
1.61468
1.58517
1.55599
1.52781
1.49992
1.47302
1.44638
1.42075
1.39534
1.37095
1.34677
1.32361
1.30062
1.27866
1.25683
1.23603
1.21531
1.19561
1.17592
1.15731
1.1386
1.12105
1.10326
1.08682
1.06987
1.05462
1.03833
1.02449
1.00861
0.996936
0.982571
3.16639
5.14391
5.59523
5.58527
5.49574
5.28621
4.96813
4.68377
4.43444
4.20826
3.99695
3.79775
3.60911
3.43185
3.26501
3.10854
2.9613
2.82286
2.69354
2.57232
2.45922
2.35339
2.25487
2.16356
2.08036
2.00812
1.96107
1.96653
1.99464
2.10426
2.31897
2.80714
3.67984
4.01844
4.03789
3.9895
3.85934
3.67338
3.5018
3.35526
3.229
3.11696
3.01515
2.92082
2.8327
2.74977
2.67153
2.59739
2.52719
2.46036
2.39763
2.33721
2.2784
2.22176
2.16752
2.11555
2.06652
2.02013
1.97595
1.93346
1.89302
1.85391
1.8166
1.78032
1.74564
1.71175
1.6793
1.64743
1.61684
1.5867
1.55772
1.52909
1.50153
1.47425
1.44799
1.42196
1.39694
1.37211
1.34829
1.32461
1.30196
1.27942
1.25791
1.23647
1.21606
1.19568
1.17633
1.15695
1.13864
1.1202
1.10294
1.08539
1.06922
1.05247
1.03749
1.02139
1.00781
0.992097
0.980675
0.966418
2.27831
3.95854
5.26389
5.49158
5.46337
5.35268
5.11301
4.81328
4.54789
4.31244
4.09743
3.89701
3.70815
3.5303
3.36248
3.20491
3.05669
2.91746
2.78625
2.66333
2.54813
2.44061
2.3406
2.25015
2.1709
2.12354
2.13073
2.16573
2.2934
2.54959
3.12429
4.01823
4.34582
4.33539
4.2537
4.07746
3.8793
3.69461
3.53474
3.39555
3.2719
3.15901
3.0542
2.95571
2.86286
2.77504
2.692
2.61325
2.53862
2.46769
2.40054
2.33663
2.27659
2.2185
2.16229
2.10801
2.05614
2.00654
1.95974
1.91513
1.87282
1.83205
1.79332
1.75583
1.72019
1.68554
1.65255
1.62032
1.58957
1.5594
1.53056
1.50215
1.47495
1.44808
1.42232
1.39679
1.37233
1.34804
1.3248
1.30167
1.27957
1.25755
1.23656
1.2156
1.19566
1.1757
1.15678
1.13777
1.11985
1.10174
1.08482
1.06755
1.05169
1.03519
1.02049
1.0046
0.991283
0.975754
0.964589
0.950435
1.63505
2.57366
4.46795
5.27436
5.38577
5.33815
5.20769
4.94176
4.66356
4.41774
4.19767
3.99519
3.80643
3.62776
3.45935
3.30047
3.15091
3.01052
2.87833
2.75395
2.63743
2.52889
2.43111
2.34568
2.30003
2.30966
2.35746
2.50227
2.83263
3.53132
4.41555
4.69015
4.66761
4.55201
4.32135
4.10452
3.90888
3.73653
3.58438
3.44761
3.32291
3.20705
3.09837
2.99556
2.89816
2.80577
2.7182
2.63508
2.55628
2.48138
2.41037
2.34279
2.27883
2.21788
2.16061
2.10488
2.05131
1.9995
1.95011
1.90296
1.85856
1.81583
1.77536
1.7363
1.6993
1.66343
1.62945
1.59637
1.56498
1.53431
1.50516
1.47656
1.44934
1.42252
1.39696
1.37169
1.34759
1.32369
1.3009
1.27825
1.25666
1.23515
1.21468
1.19423
1.1748
1.15534
1.1369
1.11836
1.10087
1.08317
1.06665
1.04974
1.03423
1.01804
1.00366
0.98803
0.975002
0.959682
0.948789
0.934754
1.30962
1.83709
2.86313
4.7378
5.23827
5.27291
5.21026
5.05937
4.78867
4.53149
4.30305