/*--------------------------------*- C++ -*----------------------------------*\
| =========                 |                                                 |
| \\      /  F ield         | OpenFOAM: The Open Source CFD Toolbox           |
|  \\    /   O peration     | Version:  2112                                  |
|   \\  /    A nd           | Website:  www.openfoam.com                      |
|    \\/     M anipulation  |                                                 |
\*---------------------------------------------------------------------------*/
FoamFile
{
    version     2.0;
    format      ascii;
    arch        "LSB;label=32;scalar=64";
    class       surfaceScalarField;
    location    "1.5";
    object      phi;
}
// * * * * * * * * * * * * * * * * * * * * * * * * * * * * * * * * * * * * * //

dimensions      [1 0 -1 0 0 0 0];

oriented        oriented;

internalField   nonuniform List<scalar> 
10325
(
0.00840003
3.13724e-11
0.00840003
2.41914e-10
0.00840003
7.48339e-10
0.00840002
2.24851e-09
0.00840002
5.33188e-09
0.00839999
1.41357e-08
0.00839995
3.17503e-08
0.00839981
8.34446e-08
0.00839956
1.81617e-07
0.00839868
5.13343e-07
0.00839731
1.07308e-06
0.00839188
3.4531e-06
0.0083803
8.923e-06
0.00834044
3.23355e-05
0.0082002
0.000113537
0.007538
0.000604152
0.00690532
0.000634499
0.00625974
0.000646319
0.00556771
0.000689141
0.00481537
0.000744926
0.0039683
0.00081169
0.00306024
0.000886921
0.0020947
0.000955839
0.00107115
0.00101058
0.0010414
0.00840003
6.39286e-11
0.00840003
4.94256e-10
0.00840003
1.52351e-09
0.00840002
4.57888e-09
0.00840002
1.08311e-08
0.00839999
2.87152e-08
0.00839995
6.43164e-08
0.0083998
1.69356e-07
0.00839955
3.65839e-07
0.00839865
1.04651e-06
0.00839726
2.15106e-06
0.00839168
7.07601e-06
0.00837995
1.79195e-05
0.00833902
6.5826e-05
0.0081995
0.000226628
0.00753783
0.00120701
0.00690163
0.00127278
0.00626232
0.00128652
0.0055707
0.00137795
0.00481554
0.0014928
0.00395609
0.00163591
0.00303812
0.00178388
0.0020668
0.00191723
0.00104446
0.00201971
0.00205589
0.00840003
9.74414e-11
0.00840003
7.52302e-10
0.00840003
2.32505e-09
0.00840002
6.97682e-09
0.00840002
1.65173e-08
0.00839999
4.36925e-08
0.00839995
9.79016e-08
0.0083998
2.57123e-07
0.00839954
5.549e-07
0.00839863
1.58474e-06
0.00839724
3.23719e-06
0.00839166
1.06661e-05
0.00838023
2.66341e-05
0.0083404
9.80287e-05
0.00821146
0.000329899
0.00757261
0.00178542
0.00693686
0.00191123
0.00630037
0.00192424
0.00560985
0.00206588
0.00485261
0.00224295
0.00398823
0.00246523
0.00306399
0.00268668
0.00208517
0.00288624
0.00105316
0.00303881
0.00307888
0.00840003
1.35683e-10
0.00840003
1.0474e-09
0.00840003
3.23033e-09
0.00840002
9.69754e-09
0.00840001
2.29797e-08
0.00839999
6.074e-08
0.00839994
1.36389e-07
0.00839978
3.54854e-07
0.00839949
7.79425e-07
0.00839857
2.13005e-06
0.00839697
4.54143e-06
0.00839176
1.38427e-05
0.00838043
3.54221e-05
0.00834378
0.000126764
0.00823412
0.000415095
0.00763804
0.0023183
0.00700595
0.00254686
0.00637037
0.00256121
0.00568198
0.00275172
0.00492655
0.00299134
0.00406433
0.00329187
0.00313656
0.00359374
0.00214591
0.00386777
0.00108942
0.00408141
0.00413817
0.00840003
1.73258e-10
0.00840003
1.34066e-09
0.00840003
4.13743e-09
0.00840002
1.24416e-08
0.00840001
2.9544e-08
0.00839999
7.82353e-08
0.00839993
1.76447e-07
0.00839977
4.568e-07
0.00839945
1.02405e-06
0.00839852
2.68123e-06
0.00839659
6.03413e-06
0.00839164
1.67665e-05
0.00838044
4.39292e-05
0.00834379
0.000154419
0.00825274
0.000484002
0.00769381
0.00280975
0.00706571
0.00317871
0.00643893
0.00318967
0.00576374
0.00342425
0.00502272
0.00372553
0.00417523
0.00410648
0.00325124
0.00449568
0.00224643
0.0048606
0.00115724
0.00515877
0.00526772
0.00840003
2.11576e-10
0.00840003
1.63584e-09
0.00840003
5.01453e-09
0.00840002
1.51244e-08
0.00840001
3.59482e-08
0.00839999
9.55973e-08
0.00839993
2.16746e-07
0.00839977
5.56773e-07
0.00839943
1.29007e-06
0.00839858
3.14494e-06
0.00839652
7.64169e-06
0.00839167
1.95421e-05
0.00838113
5.17394e-05
0.00834942
0.000177079
0.00825708
0.000555231
0.00775277
0.00324251
0.0071284
0.00380858
0.00651319
0.00380645
0.00586108
0.00407272
0.00514626
0.00443366
0.00431767
0.00489995
0.00340947
0.00538021
0.00240349
0.00585784
0.00125795
0.00629516
0.00649961
0.00840003
2.17989e-10
0.00840003
1.69049e-09
0.00840003
5.19818e-09
0.00840003
1.56774e-08
0.00840002
3.7159e-08
0.00840001
9.88592e-08
0.00839999
2.22685e-07
0.00839989
5.81703e-07
0.00839983
1.29237e-06
0.00839909
3.47061e-06
0.00839878
7.57078e-06
0.00839309
2.30267e-05
0.00838698
5.51136e-05
0.00834916
0.00020612
0.00825847
0.000622748
0.0078251
0.00359985
0.00719382
0.00444877
0.00659409
0.00440904
0.00597418
0.00468904
0.00530347
0.00509814
0.00452319
0.00564938
0.00363478
0.00624803
0.00262042
0.00686499
0.00142779
0.00747868
0.00790036
0.00840003
2.1979e-10
0.00840003
1.70183e-09
0.00840003
5.28927e-09
0.00840003
1.58418e-08
0.00840002
3.74681e-08
0.00840001
9.8799e-08
0.00840001
2.20234e-07
0.00839994
5.85027e-07
0.00839996
1.20399e-06
0.00839926
3.7807e-06
0.00839971
6.74582e-06
0.00839378
2.68361e-05
0.0083917
5.42397e-05
0.00834636
0.000243066
0.00828354
0.000667257
0.00801051
0.0037894
0.00735922
0.00511311
0.00675622
0.00501784
0.00616127
0.00528169
0.00553042
0.00572475
0.00479968
0.00635437
0.00395332
0.00707648
0.00295474
0.00786262
0.00169391
0.00873054
0.00956911
0.00840003
2.25966e-10
0.00840003
2.11707e-09
0.00840003
6.39082e-09
0.00840002
1.93667e-08
0.00840001
4.56069e-08
0.00839998
1.21066e-07
0.00839992
2.69991e-07
0.00839975
7.12065e-07
0.00839938
1.50197e-06
0.0083984
4.37614e-06
0.00839722
7.87433e-06
0.00839157
2.99469e-05
0.00838979
5.48603e-05
0.00837127
0.000252765
0.00835014
0.000671801
0.00840137
0.00365035
0.00770401
0.00582594
0.00704772
0.00568464
0.00647317
0.00585531
0.00588012
0.00631373
0.00520179
0.00701233
0.00442569
0.00783834
0.00350137
0.00878076
0.00219338
0.0100356
0.0117416
0.00840003
1.05921e-10
0.00840003
3.10031e-09
0.00840003
4.8147e-09
0.00840002
2.69066e-08
0.00840003
3.5926e-08
0.00839997
1.7008e-07
0.00840001
2.15154e-07
0.00839963
1.03417e-06
0.00839994
1.135e-06
0.00839742
6.52228e-06
0.00839984
5.17441e-06
0.00838483
4.27133e-05
0.00840558
3.19603e-05
0.00834935
0.000299542
0.00847249
0.000535212
0.00911148
0.00291794
0.00835129
0.00659312
0.00752251
0.00652038
0.00695169
0.00642885
0.00636722
0.00689808
0.00578469
0.00758072
0.00515376
0.0084527
0.00430777
0.00961651
0.00303838
0.0113032
0.0147643
0.00840003
4.23393e-10
0.00840003
8.99623e-10
0.00840003
6.84549e-09
0.00840005
9.5193e-09
0.00840003
4.7676e-08
0.00840014
6.05965e-08
0.00840006
2.90037e-07
0.00840074
3.31767e-07
0.0083999
1.87857e-06
0.0084049
1.58611e-06
0.00839607
1.32507e-05
0.0084303
8.48837e-06
0.00837072
8.86564e-05
0.00857202
8.95689e-05
0.00848229
0.000616001
0.00946677
0.00185944
0.00902603
0.00700632
0.00821407
0.00732899
0.00755093
0.00709964
0.00701503
0.00743868
0.00653177
0.00805582
0.00603538
0.00893586
0.00562805
0.0100137
0.00568818
0.0112417
0.0118393
0.00860537
0.00840003
2.13699e-10
0.00840003
1.24016e-09
0.00840003
4.11539e-09
0.00840003
1.18143e-08
0.00840005
2.91416e-08
0.00840002
7.48076e-08
0.00840013
1.74979e-07
0.00839997
4.39373e-07
0.00840076
1.03458e-06
0.00839944
2.60409e-06
0.00840585
6.51887e-06
0.00839643
1.63594e-05
0.00843719
4.52728e-05
0.00838857
0.000132104
0.00857775
0.000415623
0.00874132
0.0016611
0.00886195
0.00680229
0.00857668
0.00761112
0.00799302
0.0076919
0.00753541
0.00789902
0.00713033
0.00845305
0.00685324
0.00919784
0.00679663
0.0100539
0.00728555
0.0107456
0.0107558
0.00837326
0.00840003
1.56275e-10
0.00840003
1.21418e-09
0.00840003
3.7429e-09
0.00840003
1.12974e-08
0.00840003
2.67756e-08
0.00840003
7.13727e-08
0.00840003
1.60476e-07
0.0084
4.2484e-07
0.00840008
9.15951e-07
0.00839982
2.62524e-06
0.00840075
5.27923e-06
0.00839847
1.73728e-05
0.00840509
3.66273e-05
0.00840076
0.000130557
0.00843982
0.000367226
0.00857894
0.00149848
0.00883705
0.00645545
0.00856947
0.00788
0.00823642
0.00803474
0.00796184
0.00817889
0.00774711
0.0086603
0.00764179
0.00929014
0.00780196
0.00987498
0.00833674
0.0101942
0.0100247
0.00906618
0.00840003
1.50937e-10
0.00840003
1.16891e-09
0.00840003
3.58874e-09
0.00840003
1.08257e-08
0.00840003
2.56346e-08
0.00840003
6.8334e-08
0.00840003
1.53567e-07
0.00840001
4.05057e-07
0.00840001
8.77435e-07
0.00839994
2.49202e-06
0.00840015
4.90159e-06
0.00839972
1.65376e-05
0.00840201
3.33108e-05
0.00840456
0.000122369
0.00843848
0.000325218
0.00859076
0.00132388
0.00920751
0.00574136
0.00891038
0.00818522
0.00857888
0.00837768
0.00837296
0.0083945
0.00829372
0.00873683
0.00833648
0.00923713
0.00853572
0.00966968
0.00896416
0.00975891
0.00945625
0.00952869
0.00840003
1.36197e-10
0.00840003
1.05685e-09
0.00840003
3.25435e-09
0.00840003
9.81776e-09
0.00840003
2.32734e-08
0.00840003
6.20186e-08
0.00840004
1.39263e-07
0.00840005
3.65636e-07
0.00840009
8.04924e-07
0.00840019
2.20839e-06
0.00840036
4.52322e-06
0.00840091
1.48822e-05
0.00840505
2.80979e-05
0.0084123
0.000109693
0.00844863
0.000281068
0.00863883
0.00111356
0.0101297
0.00415491
0.00959362
0.00872669
0.00918437
0.00879334
0.00886491
0.00872551
0.00879901
0.00880263
0.00891311
0.00911104
0.00913621
0.00943327
0.00945229
0.00943383
0.0090494
0.00985529
0.00840003
1.21534e-10
0.00840003
9.42871e-10
0.00840003
2.89746e-09
0.00840003
8.74037e-09
0.00840003
2.07419e-08
0.00840004
5.5162e-08
0.00840005
1.24516e-07
0.00840007
3.23609e-07
0.00840012
7.21513e-07
0.00840032
1.88557e-06
0.0084005
4.17135e-06
0.00840322
1.14174e-05
0.00840522
2.50987e-05
0.00843705
7.46548e-05
0.00850189
0.000206021
0.00892332
0.000685045
0.0105866
0.00240966
0.01046
0.00881255
0.0100296
0.0092247
0.00953507
0.00922685
0.00931848
0.00902396
0.00936504
0.00905861
0.00958643
0.00919566
0.0098578
0.00914891
0.00876208
0.0101394
0.00840003
1.01687e-10
0.00840003
7.91069e-10
0.00840003
2.43925e-09
0.00840003
7.35603e-09
0.00840003
1.74776e-08
0.00840004
4.64014e-08
0.00840006
1.04867e-07
0.00840009
2.71746e-07
0.00840018
6.07201e-07
0.00840038
1.5745e-06
0.00840094
3.50372e-06
0.00840241
9.32724e-06
0.00840624
2.05454e-05
0.00841665
6.08487e-05
0.00847257
0.000145471
0.00859961
0.000543762
0.00930277
0.00166337
0.0105397
0.00746873
0.0103883
0.00936412
0.0101062
0.00950627
0.00984767
0.00928972
0.00978729
0.00912037
0.00992262
0.00905021
0.0101345
0.00892282
0.00854238
0.0103447
0.00840003
8.17968e-11
0.00840003
6.60111e-10
0.00840003
2.04947e-09
0.00840003
6.10181e-09
0.00840003
1.4624e-08
0.00840004
3.82339e-08
0.00840006
8.71191e-08
0.00840009
2.2213e-07
0.00840019
4.98979e-07
0.00840041
1.28187e-06
0.008401
2.80067e-06
0.00840197
7.8093e-06
0.00840703
1.52578e-05
0.00841033
5.40246e-05
0.00844827
0.000105261
0.00852379
0.000454864
0.00894021
0.00122651
0.010606
0.00568832
0.0106726
0.00929453
0.0104978
0.00968306
0.0102591
0.00954478
0.0101988
0.00919155
0.0102637
0.00899316
0.0104064
0.00877837
0.00839855
0.0105451
0.00840003
3.36094e-11
0.00840003
6.70811e-10
0.00840003
1.30466e-09
0.00840003
5.88918e-09
0.00840004
9.59938e-09
0.00840004
3.66551e-08
0.00840006
5.7755e-08
0.00840006
2.1379e-07
0.00840021
3.31921e-07
0.00840019
1.23865e-06
0.00840105
1.86251e-06
0.00840097
7.43298e-06
0.00840576
9.9212e-06
0.00840804
4.86089e-05
0.00844945
6.07725e-05
0.00853645
0.000352562
0.00901423
0.00071958
0.011438
0.00312818
0.0112951
0.0094336
0.0111883
0.00979743
0.010902
0.00983671
0.010653
0.00943878
0.0105938
0.00904923
0.0106448
0.00872171
0.00831646
0.0107215
0.00840003
5.9436e-11
0.00840003
3.45697e-10
0.00840003
1.269e-09
0.00840003
3.30767e-09
0.00840003
8.98671e-09
0.00840005
2.08076e-08
0.00840005
5.31725e-08
0.00840014
1.20225e-07
0.00840014
3.03216e-07
0.00840068
6.82598e-07
0.00840066
1.74922e-06
0.00840412
3.83592e-06
0.00840245
1.07953e-05
0.00842814
2.21439e-05
0.00841187
7.23495e-05
0.00859906
0.000160896
0.00867294
0.00062716
0.00991236
0.00184616
0.0114589
0.00781682
0.0114525
0.00979562
0.011271
0.0100149
0.01102
0.00968881
0.0109254
0.00914133
0.010916
0.00872329
0.00829394
0.0109301
0.00840003
7.13322e-11
0.00840003
2.24512e-10
0.00840003
1.237e-09
0.00840003
2.27742e-09
0.00840003
8.60132e-09
0.00840004
1.45761e-08
0.00840004
5.11869e-08
0.00840007
8.52125e-08
0.00840006
2.9578e-07
0.00840024
4.87375e-07
0.00840019
1.71269e-06
0.00840118
2.74569e-06
0.00840115
1.03148e-05
0.00840787
1.50057e-05
0.00840861
6.85817e-05
0.00846682
9.99496e-05
0.00855941
0.000523321
0.00903286
0.00134906
0.0114549
0.00529791
0.011681
0.00954534
0.0116323
0.0100487
0.0113992
0.00991582
0.0112158
0.00932717
0.011144
0.00879097
0.00830422
0.0111234
0.00840003
2.44956e-11
0.00840003
2.5861e-10
0.00840003
6.08727e-10
0.00840003
2.34108e-09
0.00840003
4.4032e-09
0.00840003
1.46506e-08
0.00840006
2.6407e-08
0.00840005
8.52279e-08
0.00840019
1.51981e-07
0.00840016
4.89478e-07
0.00840098
8.64845e-07
0.00840071
2.84814e-06
0.00840599
4.84207e-06
0.00840259
1.75255e-05
0.0084423
2.75793e-05
0.00842271
0.000115452
0.00872316
0.000214393
0.00913945
0.000916835
0.0115884
0.00278882
0.0122513
0.00883767
0.0122423
0.0100518
0.0119853
0.0101715
0.0115999
0.00971814
0.0114259
0.00896516
0.0084024
0.0113195
0.00840003
3.21557e-11
0.00840003
1.16045e-10
0.00840003
5.93948e-10
0.00840003
1.15865e-09
0.00840003
4.15e-09
0.00840004
7.36824e-09
0.00840004
2.45922e-08
0.00840008
4.27597e-08
0.00840008
1.40873e-07
0.00840032
2.42732e-07
0.00840032
8.06974e-07
0.00840174
1.36498e-06
0.00840151
4.77052e-06
0.00841094
7.62578e-06
0.00840677
3.02857e-05
0.00847235
4.65785e-05
0.00846536
0.000214404
0.00892512
0.000442988
0.00977742
0.00190584
0.0119988
0.00650871
0.0123669
0.0096694
0.0123748
0.0101531
0.0120103
0.0100872
0.0117897
0.00919423
0.008608
0.0115823
0.00840003
1.61802e-11
0.00840003
1.09329e-10
0.00840003
3.43725e-10
0.00840003
1.02712e-09
0.00840003
2.45264e-09
0.00840003
6.47587e-09
0.00840004
1.46406e-08
0.00840004
3.76823e-08
0.0084001
8.40992e-08
0.00840011
2.15762e-07
0.00840042
4.80289e-07
0.00840045
1.2365e-06
0.00840235
2.7663e-06
0.00840217
7.22765e-06
0.00841562
1.6326e-05
0.0084132
4.56372e-05
0.00851754
0.000106797
0.0085896
0.000356325
0.00945381
0.00101863
0.012009
0.00383058
0.0125661
0.00908224
0.0126946
0.0100284
0.0126243
0.0101566
0.0121952
0.00963166
0.00887608
0.0119311
0.00840003
1.03987e-11
0.00840003
8.1744e-11
0.00840003
2.5395e-10
0.00840003
7.56712e-10
0.00840003
1.81167e-09
0.00840003
4.74171e-09
0.00840004
1.0794e-08
0.00840004
2.74987e-08
0.00840006
6.18715e-08
0.00840011
1.56958e-07
0.00840023
3.51619e-07
0.0084005
8.9559e-07
0.00840118
2.00085e-06
0.00840284
5.16667e-06
0.00840712
1.1554e-05
0.00841969
3.08791e-05
0.00845035
7.28034e-05
0.00858301
0.000211752
0.00898614
0.000620464
0.0105133
0.00225655
0.0125219
0.00699278
0.0128085
0.0097317
0.0128752
0.0100842
0.0124981
0.0100125
0.00914744
0.0122406
0.00840003
4.61539e-12
0.00840003
6.71557e-11
0.00840003
1.49454e-10
0.00840003
5.97147e-10
0.00840003
1.08856e-09
0.00840003
3.70388e-09
0.00840004
6.50882e-09
0.00840004
2.13743e-08
0.00840006
3.72729e-08
0.00840009
1.21514e-07
0.00840022
2.10825e-07
0.00840039
6.89626e-07
0.00840115
1.1846e-06
0.00840214
3.95952e-06
0.00840674
6.57419e-06
0.00841194
2.40441e-05
0.00844611
3.7332e-05
0.00849187
0.000158379
0.00878625
0.000316525
0.00973258
0.00127752
0.0124156
0.00418903
0.0130367
0.00908061
0.0131896
0.00993172
0.0130526
0.0101514
0.00956708
0.0126369
0.00840003
5.76853e-12
0.00840003
3.44338e-11
0.00840003
1.26643e-10
0.00840003
3.27797e-10
0.00840003
8.98658e-10
0.00840003
2.06419e-09
0.00840003
5.34442e-09
0.00840004
1.19646e-08
0.00840005
3.06205e-08
0.0084001
6.8081e-08
0.00840012
1.74157e-07
0.00840041
3.8593e-07
0.00840053
9.91854e-07
0.0084022
2.19619e-06
0.00840272
5.6911e-06
0.00841313
1.28628e-05
0.00841538
3.3244e-05
0.00848591
8.29832e-05
0.00856718
0.000226358
0.00915423
0.000680628
0.0109791
0.00233411
0.0130253
0.00694939
0.0132254
0.00971864
0.013405
0.00996558
0.00994712
0.0130322
0.00840003
4.30265e-12
0.00840003
2.33127e-11
0.00840003
8.60046e-11
0.00840003
2.22536e-10
0.00840003
6.06506e-10
0.00840003
1.40137e-09
0.00840003
3.59558e-09
0.00840004
8.10931e-09
0.00840004
2.05276e-08
0.00840006
4.60275e-08
0.00840011
1.16192e-07
0.00840023
2.59785e-07
0.00840051
6.56879e-07
0.00840119
1.46369e-06
0.00840285
3.74337e-06
0.00840711
8.24375e-06
0.0084166
2.21983e-05
0.00844942
4.77975e-05
0.00852426
0.000144134
0.00882694
0.000365142
0.00980962
0.00132703
0.0127464
0.00388769
0.0135141
0.00891401
0.0136252
0.00985017
0.0101038
0.0134664
0.00840003
3.5594e-12
0.00840003
1.26763e-11
0.00840003
6.28819e-11
0.00840003
1.27448e-10
0.00840003
4.36938e-10
0.00840003
8.10187e-10
0.00840003
2.57421e-09
0.00840004
4.69427e-09
0.00840004
1.46337e-08
0.00840006
2.66129e-08
0.00840009
8.25335e-08
0.00840019
1.49839e-07
0.00840034
4.65218e-07
0.00840092
8.40179e-07
0.00840181
2.6416e-06
0.0084052
4.65465e-06
0.0084108
1.56629e-05
0.00843137
2.51416e-05
0.00846981
0.00010195
0.00865327
0.000170732
0.00919623
0.000766338
0.010956
0.00207833
0.0133819
0.00639372
0.0136648
0.00955681
0.00985006
0.0139106
0.00840003
1.47692e-12
0.00840003
1.0107e-11
0.00840003
3.18614e-11
0.00840003
9.47415e-11
0.00840003
2.26591e-10
0.00840003
5.92855e-10
0.00840003
1.34152e-09
0.00840003
3.41019e-09
0.00840004
7.62036e-09
0.00840005
1.92367e-08
0.00840008
4.28362e-08
0.00840012
1.07996e-07
0.00840033
2.39962e-07
0.00840051
6.06278e-07
0.00840174
1.34517e-06
0.00840267
3.4386e-06
0.00841039
7.59056e-06
0.0084136
2.02652e-05
0.00846903
4.47686e-05
0.00850088
0.0001305
0.00892821
0.000329256
0.00982318
0.00114908
0.0127739
0.00331747
0.0138791
0.00841817
0.00970779
0.0140129
0.00840003
8.35402e-13
0.00840003
6.50687e-12
0.00840003
2.02285e-11
0.00840003
6.02877e-11
0.00840003
1.43852e-10
0.00840003
3.75039e-10
0.00840003
8.49016e-10
0.00840003
2.14895e-09
0.00840003
4.80705e-09
0.00840004
1.20804e-08
0.00840006
2.69418e-08
0.00840009
6.75807e-08
0.00840017
1.50462e-07
0.00840037
3.77659e-07
0.00840083
8.38623e-07
0.00840197
2.1259e-06
0.00840471
4.63916e-06
0.00841155
1.24731e-05
0.00842971
2.5447e-05
0.00847488
8.04048e-05
0.00863007
0.000167547
0.00913016
0.00063114
0.0106729
0.0017299
0.0133929
0.00559457
0.00909447
0.013981
0.00840003
3.97863e-13
0.00840003
4.69325e-12
0.00840003
1.13826e-11
0.00840003
4.20061e-11
0.00840003
8.20338e-11
0.00840003
2.59131e-10
0.00840003
4.85514e-10
0.00840003
1.47962e-09
0.00840003
2.74881e-09
0.00840004
8.30044e-09
0.00840005
1.53934e-08
0.00840007
4.63716e-08
0.00840013
8.58798e-08
0.00840023
2.59013e-07
0.00840056
4.77971e-07
0.00840114
1.45261e-06
0.00840301
2.65199e-06
0.00840668
8.28655e-06
0.00841689
1.46888e-05
0.00844488
4.96432e-05
0.00851946
9.00077e-05
0.00881292
0.000327475
0.00969483
0.000830924
0.012644
0.0026014
0.00762402
0.0140436
0.00840003
4.65979e-13
0.00840003
1.99614e-12
0.00840003
9.01298e-12
0.00840003
1.95607e-11
0.00840003
6.29059e-11
0.00840003
1.23194e-10
0.00840003
3.69275e-10
0.00840003
7.08179e-10
0.00840003
2.08616e-09
0.00840004
3.98472e-09
0.00840004
1.16787e-08
0.00840006
2.22997e-08
0.00840008
6.52312e-08
0.00840021
1.24531e-07
0.0084003
3.6436e-07
0.00840103
6.94393e-07
0.00840152
2.04521e-06
0.00840577
3.86309e-06
0.00840781
1.18422e-05
0.00843578
2.1354e-05
0.00844654
7.442e-05
0.00863649
0.000135057
0.00891514
0.000536498
0.0100793
0.00140693
0.00429058
0.0132888
0.00840003
2.09952e-13
0.00840003
1.44512e-12
0.00840003
4.53882e-12
0.00840003
1.35164e-11
0.00840003
3.22382e-11
0.00840003
8.43574e-11
0.00840003
1.90274e-10
0.00840003
4.83428e-10
0.00840003
1.07648e-09
0.00840003
2.71539e-09
0.00840004
6.02741e-09
0.00840004
1.51744e-08
0.00840007
3.36451e-08
0.00840011
8.46624e-08
0.00840028
1.87499e-07
0.00840046
4.72231e-07
0.00840142
1.04479e-06
0.00840244
2.64796e-06
0.00840817
5.84964e-06
0.00841318
1.52851e-05
0.00845263
3.34157e-05
0.00848678
9.57859e-05
0.00879097
0.000222442
0.00943264
0.000747201
0.00208057
0.0115902
0.00840003
1.12471e-13
0.00840003
8.77367e-13
0.00840003
2.72399e-12
0.00840003
8.13345e-12
0.00840003
1.93742e-11
0.00840003
5.05162e-11
0.00840003
1.14111e-10
0.00840003
2.88513e-10
0.00840003
6.43746e-10
0.00840003
1.6146e-09
0.00840003
3.59136e-09
0.00840004
8.98249e-09
0.00840005
1.99554e-08
0.00840008
4.9846e-08
0.00840015
1.10583e-07
0.00840033
2.76249e-07
0.00840073
6.11402e-07
0.00840171
1.53337e-06
0.00840402
3.37988e-06
0.0084099
8.63862e-06
0.00842355
1.88146e-05
0.00846364
5.12332e-05
0.00856731
0.000113863
0.00894127
0.00035429
0.00099186
0.00999605
0.00840003
4.98803e-14
0.00840003
5.78627e-13
0.00840003
1.44518e-12
0.00840003
5.19653e-12
0.00840003
1.0419e-11
0.00840003
3.20179e-11
0.00840003
6.15466e-11
0.00840003
1.82194e-10
0.00840003
3.47262e-10
0.00840003
1.01736e-09
0.00840003
1.93675e-09
0.00840004
5.65288e-09
0.00840004
1.0763e-08
0.00840006
3.13611e-08
0.00840011
5.96758e-08
0.0084002
1.73905e-07
0.00840046
3.29897e-07
0.00840096
9.65187e-07
0.00840242
1.8191e-06
0.00840526
5.39676e-06
0.00841339
1.00776e-05
0.00843129
3.07585e-05
0.00848291
5.98579e-05
0.00863457
0.000188741
0.000470093
0.00915046
0.00840003
4.5777e-14
0.00840003
2.64683e-13
0.00840003
9.74127e-13
0.00840003
2.52525e-12
0.00840003
6.871e-12
0.00840003
1.57799e-11
0.00840003
4.03503e-11
0.00840003
9.01989e-11
0.00840003
2.27212e-10
0.00840003
5.04474e-10
0.00840003
1.26589e-09
0.00840003
2.80459e-09
0.00840004
7.03114e-09
0.00840005
1.55577e-08
0.00840007
3.9014e-08
0.00840015
8.61921e-08
0.00840025
2.16487e-07
0.00840071
4.7733e-07
0.00840123
1.20425e-06
0.00840385
2.64974e-06
0.00840668
6.74608e-06
0.00842163
1.50125e-05
0.00844014
3.87448e-05
0.00853313
9.10218e-05
0.000250254
0.00874168
0.00840003
3.33763e-14
0.00840003
1.32236e-13
0.00840003
6.04987e-13
0.00840003
1.31272e-12
0.00840003
4.19708e-12
0.00840003
8.27026e-12
0.00840003
2.44953e-11
0.00840003
4.73297e-11
0.00840003
1.37318e-10
0.00840003
2.64379e-10
0.00840003
7.6142e-10
0.00840003
1.4659e-09
0.00840003
4.20442e-09
0.00840004
8.09841e-09
0.00840006
2.31546e-08
0.00840009
4.45969e-08
0.00840017
1.27262e-07
0.00840039
2.44792e-07
0.00840084
6.99227e-07
0.00840208
1.34171e-06
0.00840462
3.86408e-06
0.00841193
7.38493e-06
0.00842662
2.17758e-05
0.00847547
4.24631e-05
0.00012976
0.00858228
0.00840003
1.29233e-14
0.00840003
8.88111e-14
0.00840003
2.81591e-13
0.00840003
8.31411e-13
0.00840003
1.99653e-12
0.00840003
5.17154e-12
0.00840003
1.17268e-11
0.00840003
2.94559e-11
0.00840003
6.58725e-11
0.00840003
1.64093e-10
0.00840003
3.65521e-10
0.00840003
9.08097e-10
0.00840003
2.01942e-09
0.00840004
5.01216e-09
0.00840005
1.1131e-08
0.00840006
2.7626e-08
0.00840012
6.12475e-08
0.0084002
1.52159e-07
0.00840055
3.36528e-07
0.00840098
8.38332e-07
0.0084029
1.85021e-06
0.00840527
4.64349e-06
0.00841621
1.02656e-05
0.0084292
2.62683e-05
6.00773e-05
0.00850011
0.00840003
6.32705e-15
0.00840003
4.95706e-14
0.00840003
1.53912e-13
0.00840003
4.6013e-13
0.00840003
1.09474e-12
0.00840003
2.85105e-12
0.00840003
6.42477e-12
0.00840003
1.62028e-11
0.00840003
3.60361e-11
0.00840003
9.01127e-11
0.00840003
1.99713e-10
0.00840003
4.98054e-10
0.00840003
1.1026e-09
0.00840003
2.74621e-09
0.00840004
6.07711e-09
0.00840005
1.51211e-08
0.00840007
3.34543e-08
0.00840014
8.31622e-08
0.00840028
1.83886e-07
0.00840062
4.56995e-07
0.0084014
1.00887e-06
0.0084033
2.51669e-06
0.00840773
5.53502e-06
0.00841862
1.41106e-05
3.06962e-05
0.00844651
0.00840003
2.66708e-15
0.00840003
2.97142e-14
0.00840003
7.71578e-14
0.00840003
2.68116e-13
0.00840003
5.55484e-13
0.00840003
1.65094e-12
0.00840003
3.27054e-12
0.00840003
9.35651e-12
0.00840003
1.83614e-11
0.00840003
5.19602e-11
0.00840003
1.01795e-10
0.00840003
2.86884e-10
0.00840003
5.62158e-10
0.00840003
1.58047e-09
0.00840003
3.09923e-09
0.00840004
8.69549e-09
0.00840006
1.70628e-08
0.00840009
4.77928e-08
0.00840017
9.37611e-08
0.00840034
2.62541e-07
0.0084008
5.13904e-07
0.00840176
1.44367e-06
0.00840431
2.8133e-06
0.00840985
7.98658e-06
1.55673e-05
0.00842397
0.00840003
2.17963e-15
0.00840003
1.28731e-14
0.00840003
4.70225e-14
0.00840003
1.23087e-13
0.00840003
3.3116e-13
0.00840003
7.65581e-13
0.00840003
1.93585e-12
0.00840003
4.35315e-12
0.00840003
1.0829e-11
0.00840003
2.41814e-11
0.00840003
5.98575e-11
0.00840003
1.33415e-10
0.00840003
3.29509e-10
0.00840003
7.34069e-10
0.00840003
1.80998e-09
0.00840004
4.03176e-09
0.00840004
9.9247e-09
0.00840007
2.21059e-08
0.0084001
5.433e-08
0.00840023
1.2098e-07
0.00840042
2.97005e-07
0.00840116
6.61113e-07
0.00840217
1.6251e-06
0.00840633
3.61279e-06
8.99913e-06
0.00841193
0.00840003
1.16357e-15
0.00840003
6.78342e-15
0.00840003
2.49329e-14
0.00840003
6.44112e-14
0.00840003
1.75446e-13
0.00840003
4.02381e-13
0.00840003
1.02331e-12
0.00840003
2.28249e-12
0.00840003
5.70877e-12
0.00840003
1.26465e-11
0.00840003
3.14746e-11
0.00840003
6.95836e-11
0.00840003
1.72834e-10
0.00840003
3.81797e-10
0.00840003
9.471e-10
0.00840003
2.09117e-09
0.00840004
5.18101e-09
0.00840005
1.14331e-08
0.00840007
2.82914e-08
0.00840012
6.23614e-08
0.00840025
1.54219e-07
0.00840055
3.39173e-07
0.00840123
8.40312e-07
0.00840286
1.8424e-06
4.60562e-06
0.00840664
0.00840003
7.49428e-16
0.00840003
3.05951e-15
0.00840003
1.39294e-14
0.00840003
3.14086e-14
0.00840003
9.64365e-14
0.00840003
1.96855e-13
0.00840003
5.59672e-13
0.00840003
1.11842e-12
0.00840003
3.11577e-12
0.00840003
6.1922e-12
0.00840003
1.7136e-11
0.00840003
3.40187e-11
0.00840003
9.38748e-11
0.00840003
1.86362e-10
0.00840003
5.13333e-10
0.00840003
1.01933e-09
0.00840003
2.80317e-09
0.00840004
5.5678e-09
0.00840005
1.52871e-08
0.00840008
3.03659e-08
0.00840014
8.32749e-08
0.0084003
1.6529e-07
0.00840063
4.5346e-07
0.0084015
8.97979e-07
2.47543e-06
0.00840332
0.00840003
2.12449e-16
0.00840003
1.98534e-15
0.00840003
5.93419e-15
0.00840003
1.78e-14
0.00840003
4.30985e-14
0.00840003
1.10341e-13
0.00840003
2.51838e-13
0.00840003
6.24654e-13
0.00840003
1.40198e-12
0.00840003
3.44842e-12
0.00840003
7.70587e-12
0.00840003
1.88948e-11
0.00840003
4.21696e-11
0.00840003
1.03265e-10
0.00840003
2.30385e-10
0.00840003
5.63793e-10
0.00840003
1.25762e-09
0.00840003
3.07622e-09
0.00840004
6.86046e-09
0.00840005
1.67751e-08
0.0084001
3.73939e-08
0.00840016
9.14267e-08
0.00840039
2.03624e-07
0.00840072
4.9829e-07
1.10879e-06
0.008402
0.00840003
1.64988e-16
0.00840003
9.26912e-16
0.00840003
3.24063e-15
0.00840003
9.28131e-15
0.00840003
2.18064e-14
0.00840003
5.66477e-14
0.00840003
1.26747e-13
0.00840003
3.18269e-13
0.00840003
7.05046e-13
0.00840003
1.75231e-12
0.00840003
3.86842e-12
0.00840003
9.5884e-12
0.00840003
2.11473e-11
0.00840003
5.23606e-11
0.00840003
1.15434e-10
0.00840003
2.85639e-10
0.00840003
6.29599e-10
0.00840003
1.55718e-09
0.00840004
3.43187e-09
0.00840004
8.48383e-09
0.00840006
1.86919e-08
0.0084001
4.61889e-08
0.00840019
1.01683e-07
0.00840041
2.51322e-07
5.52444e-07
0.00840092
0.00840003
1.04436e-16
0.00840003
4.5653e-16
0.00840003
1.26171e-15
0.00840003
4.51272e-15
0.00840003
9.95395e-15
0.00840003
2.92517e-14
0.00840003
5.99024e-14
0.00840003
1.66085e-13
0.00840003
3.33413e-13
0.00840003
9.13318e-13
0.00840003
1.82836e-12
0.00840003
4.99057e-12
0.00840003
9.99095e-12
0.00840003
2.72055e-11
0.00840003
5.45017e-11
0.00840003
1.48102e-10
0.00840003
2.96985e-10
0.00840003
8.05314e-10
0.00840003
1.61667e-09
0.00840004
4.374e-09
0.00840005
8.78996e-09
0.00840006
2.37302e-08
0.00840011
4.77115e-08
0.00840022
1.28618e-07
2.58405e-07
0.00840049
0.00840003
1.86754e-17
0.00840003
1.29698e-16
0.00840003
7.5268e-16
0.00840003
1.8252e-15
0.00840003
5.60757e-15
0.00840003
1.16618e-14
0.00840003
3.25863e-14
0.00840003
6.60753e-14
0.00840003
1.81384e-13
0.00840003
3.64136e-13
0.00840003
9.92911e-13
0.00840003
1.99097e-12
0.00840003
5.41367e-12
0.00840003
1.08598e-11
0.00840003
2.94608e-11
0.00840003
5.91423e-11
0.00840003
1.60078e-10
0.00840003
3.21633e-10
0.00840003
8.68448e-10
0.00840003
1.74652e-09
0.00840004
4.70381e-09
0.00840005
9.4677e-09
0.00840007
2.54377e-08
0.00840014
5.1222e-08
1.37408e-07
0.00840024
0.00840003
5.80861e-17
0.00840003
1.54797e-16
0.00840003
4.21402e-16
0.00840003
8.71211e-16
0.00840003
2.21326e-15
0.00840003
5.34888e-15
0.00840003
1.2216e-14
0.00840003
2.89847e-14
0.00840003
6.43422e-14
0.00840003
1.56792e-13
0.00840003
3.49328e-13
0.00840003
8.53668e-13
0.00840003
1.90269e-12
0.00840003
4.64579e-12
0.00840003
1.03508e-11
0.00840003
2.52404e-11
0.00840003
5.62225e-11
0.00840003
1.36899e-10
0.00840003
3.04866e-10
0.00840003
7.41044e-10
0.00840003
1.64982e-09
0.00840004
4.00193e-09
0.00840005
8.90654e-09
0.00840008
2.15537e-08
4.79427e-08
0.00840016
0.00840003
0.00840003
0.00840003
0.00840003
0.00840003
0.00840003
0.00840003
0.00840003
0.00840003
0.00840003
0.00840003
0.00840003
0.00840003
0.00840003
0.00840003
0.00840003
0.00840003
0.00840003
0.00840003
0.00840003
0.00840003
0.00840004
0.00840004
0.00840006
0.00840011
0.00456163
0.00404796
0.00297726
0.00158955
0.00231133
0.000670184
0.00204986
0.000264191
0.00203223
1.97965e-05
0.00219029
-0.000157244
0.00238078
-0.000192018
0.00249874
-0.000120351
0.00254551
-4.99187e-05
0.00254825
-6.36337e-06
0.0025263
1.7526e-05
0.00251143
9.65377e-06
0.00250656
-1.60655e-06
0.00251047
-1.04989e-05
0.00251872
-1.49933e-05
0.00252548
-1.45345e-05
0.00252976
-1.27858e-05
0.00253187
-1.01847e-05
0.00253234
-7.93834e-06
0.002532
-7.42331e-06
0.00253325
-8.52333e-06
0.00253695
-1.0184e-05
0.002543
-1.15775e-05
0.00255105
-1.24313e-05
0.00256076
-1.28873e-05
0.00257175
-1.31436e-05
0.00258359
-1.33261e-05
0.00259584
-1.34773e-05
0.00260814
-1.35892e-05
0.00262018
-1.36425e-05
0.00263167
-1.36278e-05
0.00264235
-1.35485e-05
0.00265199
-1.34156e-05
0.00266042
-1.32416e-05
0.00266756
-1.30368e-05
0.00267339
-1.28101e-05
0.00267793
-1.25694e-05
0.00268127
-1.23191e-05
0.0026834
-1.20681e-05
0.00268439
-1.18293e-05
0.0026845
-1.15909e-05
0.00268386
-1.13616e-05
0.00268222
-1.1189e-05
0.00267944
-1.10626e-05
0.00267581
-1.09164e-05
0.00267158
-1.08062e-05
0.00266694
-1.0732e-05
0.00266224
-1.07436e-05
0.00265787
-1.09907e-05
0.00265396
-1.1644e-05
0.00265223
-1.34402e-05
0.00264934
-1.82508e-05
0.00265151
-2.38774e-05
0.00266054
-3.32787e-05
0.00268022
-5.22965e-05
0.00272764