/*--------------------------------*- C++ -*----------------------------------*\
| =========                 |                                                 |
| \\      /  F ield         | OpenFOAM: The Open Source CFD Toolbox           |
|  \\    /   O peration     | Version:  2112                                  |
|   \\  /    A nd           | Website:  www.openfoam.com                      |
|    \\/     M anipulation  |                                                 |
\*---------------------------------------------------------------------------*/
FoamFile
{
    version     2.0;
    format      ascii;
    arch        "LSB;label=32;scalar=64";
    class       volScalarField;
    location    "1.5";
    object      T;
}
// * * * * * * * * * * * * * * * * * * * * * * * * * * * * * * * * * * * * * //

dimensions      [0 0 0 1 0 0 0];

internalField   nonuniform List<scalar> 
5250
(
1.00001
1.00001
1.00004
1.00007
1.00022
1.0004
1.00125
1.0023
1.00695
1.01415
1.03754
1.09739
1.2299
1.65345
2.53914
2.73366
2.73971
2.73826
2.74335
2.75334
2.78049
2.80936
2.82168
2.82753
2.90178
1
1.00001
1.00004
1.00007
1.00022
1.00039
1.00124
1.00228
1.00689
1.014
1.03719
1.09632
1.22728
1.64758
2.53218
2.73065
2.73912
2.73757
2.74245
2.75239
2.77943
2.80788
2.81985
2.8253
2.89938
1
1.00001
1.00004
1.00007
1.00021
1.00038
1.00122
1.00223
1.00676
1.01368
1.03647
1.09406
1.22187
1.63482
2.51632
2.72313
2.73706
2.73538
2.73966
2.74969
2.77658
2.8052
2.81691
2.82188
2.89562
1
1.00001
1.00003
1.00006
1.00021
1.00037
1.00118
1.00216
1.00657
1.01321
1.03539
1.09067
1.21383
1.61537
2.48992
2.71147
2.7337
2.73161
2.73457
2.74447
2.77101
2.79952
2.81097
2.81574
2.88989
1
1.00001
1.00003
1.00006
1.0002
1.00035
1.00113
1.00206
1.00628
1.01258
1.03388
1.08647
1.20295
1.59091
2.45224
2.69595
2.73015
2.7274
2.72817
2.73769
2.76313
2.79
2.80101
2.80718
2.87738
1
1.00001
1.00003
1.00006
1.00018
1.00033
1.00106
1.00193
1.00589
1.01182
1.03175
1.08199
1.18845
1.56286
2.40108
2.67596
2.72608
2.72135
2.72099
2.72896
2.75099
2.78153
2.79181
2.79107
2.86309
1
1.00001
1.00003
1.00005
1.00017
1.0003
1.00096
1.00178
1.00531
1.01097
1.0287
1.07683
1.17169
1.52984
2.3354
2.65099
2.72201
2.71551
2.71413
2.7218
2.7393
2.76452
2.77468
2.77546
2.83565
1
1.00001
1.00003
1.00005
1.00015
1.00028
1.00087
1.00161
1.00479
1.00998
1.02587
1.06966
1.15446
1.48429
2.24544
2.61736
2.71366
2.70399
2.70033
2.70754
2.72624
2.74763
2.75377
2.74811
2.8073
1
1.00001
1.00002
1.00004
1.00014
1.00025
1.0008
1.00145
1.00447
1.00881
1.02393
1.06007
1.13868
1.41569
2.11624
2.57579
2.70556
2.69532
2.68533
2.68991
2.6998
2.72237
2.72292
2.71703
2.74391
1
1.00001
1.00002
1.00004
1.00012
1.00022
1.00068
1.00126
1.00387
1.00761
1.02111
1.05043
1.12199
1.34431
1.99224
2.50081
2.67631
2.67231
2.66796
2.6754
2.67785
2.69106
2.68702
2.65539
2.65802
1
1.00001
1.00001
1.00004
1.00007
1.00022
1.00042
1.00119
1.00261
1.00647
1.01725
1.03894
1.11607
1.26142
1.71229
2.50248
2.65729
2.63679
2.63409
2.64032
2.6517
2.65157
2.6381
2.58127
2.42703
1
1
1.00001
1.00003
1.00008
1.00015
1.00047
1.0009
1.00256
1.00558
1.01402
1.03778
1.08385
1.25443
1.63944
2.41613
2.64408
2.63365
2.61634
2.60948
2.61507
2.60886
2.58412
2.51753
2.33737
1
1
1.00001
1.00002
1.00007
1.00013
1.00041
1.00075
1.00226
1.0046
1.01213
1.0311
1.07094
1.21694
1.51541
2.26943
2.60019
2.62646
2.61216
2.58956
2.58085
2.56871
2.53892
2.47682
2.3243
1
1
1.00001
1.00002
1.00006
1.00011
1.00035
1.00063
1.00194
1.00382
1.01029
1.0253
1.05886
1.17749
1.41089
2.09392
2.52001
2.6116
2.60121
2.57711
2.55417
2.5272
2.49649
2.44638
2.33042
1
1
1.00001
1.00002
1.00005
1.00009
1.00029
1.00051
1.00161
1.00306
1.00859
1.01965
1.0475
1.13776
1.31683
1.92184
2.3973
2.57406
2.57829
2.56537
2.53546
2.50201
2.44944
2.4096
2.32745
1
1
1.00001
1.00001
1.00004
1.00007
1.00023
1.00041
1.0013
1.00239
1.00722
1.01461
1.03859
1.09816
1.236
1.62193
2.32328
2.51074
2.52675
2.53039
2.51771
2.49057
2.43572
2.37734
2.31222
1
1
1.00001
1.00001
1.00003
1.00006
1.00018
1.00032
1.00102
1.00185
1.00564
1.01119
1.03017
1.07654
1.17509
1.51562
2.227
2.46397
2.49582
2.4897
2.47482
2.45959
2.42488
2.36821
2.30649
1
1
1
1.00001
1.00002
1.00004
1.00014
1.00025
1.00077
1.00141
1.00426
1.00856
1.02263
1.05807
1.13099
1.39326
2.01072
2.38504
2.48063
2.47475
2.4586
2.42559
2.39809
2.35014
2.29305
1
1
1
1.00001
1.00002
1.00003
1.0001
1.00018
1.00058
1.00106
1.00325
1.00623
1.01778
1.03908
1.10054
1.25514
1.75881
2.22365
2.42982
2.43627
2.42734
2.40524
2.37411
2.3361
2.28695
1
1
1
1.00001
1.00001
1.00003
1.00006
1.00017
1.00032
1.00096
1.00184
1.00522
1.01128
1.02837
1.07697
1.16825
1.50647
2.15319
2.37498
2.41369
2.40166
2.38473
2.3505
2.31368
2.27158
1
1
1
1
1.00001
1.00002
1.00004
1.00013
1.00024
1.00074
1.00136
1.00417
1.00811
1.02249
1.05292
1.12742
1.35451
1.97658
2.26076
2.36749
2.37559
2.36543
2.34117
2.30484
2.26451
1
1
1
1
1.00001
1.00001
1.00004
1.00007
1.00021
1.00039
1.00116
1.00224
1.00635
1.01371
1.03469
1.09009
1.21609
1.55528
2.17597
2.31845
2.32979
2.3226
2.31044
2.28583
2.25514
1
1
1
1
1
1.00001
1.00002
1.00006
1.00011
1.00034
1.00065
1.00189
1.00385
1.01009
1.02479
1.05767
1.16293
1.39345
1.93795
2.26542
2.31083
2.30452
2.28636
2.257
2.23093
1
1
1
1
1
1.00001
1.00002
1.00003
1.0001
1.00019
1.00058
1.00108
1.00321
1.00637
1.01737
1.04042
1.09792
1.26079
1.70644
2.13144
2.28065
2.27973
2.26721
2.24349
2.20686
1
1
1
1
1
1
1.00001
1.00002
1.00007
1.00013
1.0004
1.00072
1.00224
1.00419
1.01218
1.02567
1.06561
1.16438
1.43838
1.93785
2.21675
2.25395
2.24965
2.23153
2.20159
1
1
1
1
1
1
1.00001
1.00001
1.00005
1.00008
1.00026
1.00048
1.00146
1.00274
1.00791
1.0167
1.04214
1.10997
1.26013
1.65745
2.07327
2.21663
2.21956
2.20993
2.19004
1
1
1
1
1
1
1
1.00001
1.00002
1.00007
1.00013
1.0004
1.00075
1.00222
1.00432
1.01215
1.02574
1.06873
1.15746
1.47421
1.88701
2.14266
2.19177
2.19123
2.17575
1
1
1
1
1
1
1
1.00001
1.00001
1.00005
1.00008
1.00026
1.00047
1.00145
1.00267
1.00783
1.01605
1.04132
1.10498
1.24588
1.63497
1.99881
2.13386
2.15772
2.15462
1
1
1
1
1
1
1
1.00001
1.00001
1.00003
1.00005
1.00016
1.00029
1.00089
1.00164
1.00489
1.0096
1.02575
1.06271
1.14249
1.39498
1.87419
2.06936
2.11178
2.11853
1
1
1
1
1
1
1
1
1.00001
1.00001
1.00004
1.00007
1.00023
1.00042
1.00125
1.00239
1.00665
1.01443
1.03562
1.0944
1.21121
1.57118
1.93574
2.07956
2.09011
1
1
1
1
1
1
1
1
1
1.00001
1.00003
1.00005
1.00014
1.00026
1.00079
1.00144
1.00427
1.00846
1.02215
1.05526
1.12157
1.34768
1.7822
2.00709
2.06881
1
1
1
1
1
1
1
1
1
1
1.00002
1.00003
1.00008
1.00015
1.00047
1.00086
1.00259
1.00493
1.01388
1.0292
1.07546
1.17676
1.50938
1.83089
2.02025
1
1
1
1
1
1
1
1
1
1
1.00001
1.00002
1.00004
1.00012
1.00022
1.00064
1.00121
1.00348
1.00706
1.01819
1.04491
1.10059
1.28001
1.68611
1.92201
1
1
1
1
1
1
1
1
1
1
1.00001
1.00001
1.00003
1.00005
1.00016
1.0003
1.00088
1.00165
1.00475
1.00967
1.02484
1.06104
1.13874
1.36753
1.78431
1
1
1
1
1
1
1
1
1
1
1
1.00001
1.00002
1.00003
1.00009
1.00017
1.00051
1.00094
1.00281
1.0053
1.01475
1.03185
1.07731
1.19402
1.50446
1
1
1
1
1
1
1
1
1
1
1
1
1.00001
1.00002
1.00005
1.0001
1.00029
1.00053
1.00159
1.00298
1.00848
1.0173
1.04506
1.10301
1.27467
1
1
1
1
1
1
1
1
1
1
1
1
1
1.00001
1.00002
1.00007
1.00013
1.00037
1.0007
1.002
1.00392
1.01072
1.02248
1.05881
1.13135
1
1
1
1
1
1
1
1
1
1
1
1
1
1.00001
1.00001
1.00004
1.00007
1.0002
1.00037
1.0011
1.00206
1.00582
1.01178
1.03026
1.06944
1
1
1
1
1
1
1
1
1
1
1
1
1
1
1.00001
1.00002
1.00005
1.00009
1.00025
1.00047
1.00138
1.00264
1.0073
1.01527
1.03829
1
1
1
1
1
1
1
1
1
1
1
1
1
1
1
1.00001
1.00003
1.00005
1.00014
1.00025
1.00076
1.00138
1.00407
1.00782
1.02097
1
1
1
1
1
1
1
1
1
1
1
1
1
1
1
1
1.00001
1.00002
1.00007
1.00013
1.00039
1.00073
1.00212
1.00403
1.01117
1
1
1
1
1
1
1
1
1
1
1
1
1
1
1
1
1.00001
1.00002
1.00003
1.00008
1.00016
1.00046
1.00086
1.00245
1.0048
1
1
1
1
1
1
1
1
1
1
1
1
1
1
1
1
1
1.00001
1.00001
1.00004
1.00008
1.00024
1.00044
1.00129
1.00242
1
1
1
1
1
1
1
1
1
1
1
1
1
1
1
1
1
1
1.00001
1.00002
1.00004
1.00012
1.00022
1.00066
1.0012
1
1
1
1
1
1
1
1
1
1
1
1
1
1
1
1
1
1
1
1.00001
1.00003
1.00005
1.00014
1.00025
1.00074
1
1
1
1
1
1
1
1
1
1
1
1
1
1
1
1
1
1
1
1
1.00001
1.00002
1.00007
1.00013
1.00037
1
1
1
1
1
1
1
1
1
1
1
1
1
1
1
1
1
1
1
1
1.00001
1.00001
1.00003
1.00006
1.00018
1
1
1
1
1
1
1
1
1
1
1
1
1
1
1
1
1
1
1
1
1
1.00001
1.00001
1.00004
1.00007
1
1
1
1
1
1
1
1
1
1
1
1
1
1
1
1
1
1
1
1
1
1
1.00001
1.00001
1.00004
1
1
1
1
1
1
1
1
1
1
1
1
1
1
1
1
1
1
1
1
1
1
1
1.00001
1.00003
2.39748
2.30203
2.30309
2.34579
2.43345
2.48522
2.53812
2.55917
2.56385
2.55908
2.55805
2.559
2.5626
2.567
2.57015
2.5732
2.57608
2.57915
2.58006
2.57992
2.57934
2.57804
2.57575
2.57219
2.56716
2.56077
2.55342
2.54558
2.53764
2.52986
2.52245
2.51557
2.50939
2.50401
2.4995
2.49584
2.49297
2.49083
2.48935
2.48845
2.48807
2.48806
2.48827
2.48896
2.49042
2.49227
2.49426
2.4963
2.49825
2.50019
2.50213
2.50658
2.51219
2.51929
2.53104
2.54924
2.5884
2.65717
2.7655
2.9178
3.07018
3.19535
3.27414
3.30423
3.2816
3.2701
3.25731
3.23234
3.21871
3.21328
3.20629
3.19845
3.1899
3.17961
3.16746
3.15074
3.1341
3.11803
3.10647
3.09261
3.08553
3.07589
3.06994
3.06362
3.05642
3.05012
3.04097
3.03288
3.02247
3.01486
3.0051
2.99871
2.99026
2.98447
2.97782
2.97312
2.96792
2.96516
2.96324
2.97113
2.24458
2.17514
2.13748
2.11419
2.08374
2.05022
2.03434
2.03202
2.03888
2.05461
2.06529
2.07636
2.07613
2.07652
2.07674
2.07739
2.0791
2.08115
2.08335
2.08532
2.08576
2.08558
2.08507
2.08401
2.08237
2.08005
2.07697
2.07317
2.06879
2.06404
2.05911
2.05415
2.04927
2.04451
2.03991
2.03547
2.0312
2.02712
2.02325
2.01961
2.01625
2.01317
2.01037
2.0079
2.00581
2.00419
2.00296
2.00224
2.00223
2.00272
2.00459
2.0093
2.01577
2.02593
2.03927
2.06695
2.12221
2.20215
2.28742
2.35299
2.40408
2.45205
2.50545
2.56667
2.621
2.65483
2.665
2.66117
2.64894
2.62406
2.59806
2.57725
2.56227
2.55446
2.55009
2.55
2.55005
2.54849
2.54382
2.53502
2.5237
2.51156
2.50023
2.48947
2.48064
2.47338
2.46873
2.4657
2.46381
2.46235
2.46083
2.45939
2.45794
2.45634
2.45498
2.45333
2.45209
2.45235
2.45297
2.46443
2.22544
2.14969
2.0776
2.00668
1.93585
1.88454
1.85215
1.84806
1.84978
1.85868
1.87086
1.88372
1.88997
1.89446
1.89508
1.89637
1.8972
1.89814
1.89943
1.90082
1.90222
1.90298
1.90302
1.90287
1.90245
1.90156
1.90012
1.89816
1.89574
1.89293
1.88984
1.88653
1.88308
1.87949
1.87577
1.8719
1.86786
1.86369
1.85942
1.8551
1.85085
1.84675
1.84287
1.83934
1.83621
1.83368
1.83165
1.83032
1.83048
1.83173
1.83515
1.84046
1.85001
1.86433
1.89423
1.95439
2.03822
2.11927
2.16164
2.16307
2.16442
2.16864
2.18478
2.21414
2.25432
2.3064
2.36489
2.40525
2.43562
2.42562
2.42013
2.40936
2.38431
2.35746
2.33461
2.31804
2.30579
2.29723
2.29235
2.29025
2.28763
2.28327
2.27683
2.26944
2.26232
2.25542
2.24938
2.24377
2.23896
2.23442
2.23106
2.22755
2.22515
2.22233
2.21996
2.21801
2.21554
2.21501
2.21506
2.22451
2.2219
2.13324
2.05356
1.98052
1.91511
1.86181
1.81726
1.78732
1.76733
1.76223
1.76307
1.76606
1.77417
1.77975
1.78602
1.78759
1.78832
1.78863
1.78845
1.788
1.78779
1.7877
1.78754
1.78717
1.78645
1.78541
1.78405
1.78235
1.78034
1.77805
1.77552
1.77275
1.76975
1.7665
1.76301
1.75928
1.75533
1.75119
1.74689
1.74249
1.73808
1.73374
1.72958
1.72572
1.72211
1.71945
1.71672
1.71613
1.71723
1.71996
1.72551
1.73341
1.75215
1.78867
1.85856
1.94753
2.03227
2.06772
2.05854
2.04638
2.03434
2.0213
2.01694
2.01987
2.03209
2.05453
2.08816
2.12546
2.17902
2.22386
2.26098
2.28438
2.2728
2.26317
2.25026
2.22405
2.19851
2.17611
2.15879
2.1457
2.13815
2.13401
2.13147
2.12939
2.12638
2.12157
2.1155
2.10864
2.10204
2.09491
2.08873
2.08238
2.07672
2.0718
2.06673
2.06333
2.05978
2.0582
2.05763
2.06624
2.22946
2.13727
2.05708
1.98722
1.92087
1.8651
1.81341
1.77263
1.73812
1.71738
1.70485
1.70491
1.70591
1.70922
1.71589
1.72053
1.72532
1.72754
1.72826
1.72909
1.72897
1.72849
1.72779
1.72706
1.72626
1.7253
1.72416
1.72281
1.72123
1.71937
1.71721
1.71476
1.71197
1.7089
1.70546
1.70178
1.69779
1.69365
1.68932
1.68496
1.68053
1.67634
1.67212
1.66847
1.665
1.66229
1.66065
1.66158
1.6638
1.66873
1.67727
1.69795
1.74174
1.81912
1.90855
1.99212
2.0211
2.00733
1.99749
1.98179
1.96552
1.94603
1.93393
1.92485
1.92131
1.92321
1.93058
1.948
1.97354
2.00309
2.05014
2.09116
2.1419
2.17577
2.20125
2.1894
2.17968
2.16672
2.14322
2.11851
2.09603
2.07919
2.06568
2.05623
2.04841
2.04341
2.03903
2.03449
2.02991
2.02416
2.01748
2.01091
2.00416
1.99803
1.99141
1.98632
1.98018
1.97739
1.97318
1.97913
2.22993
2.14911
2.06865
1.99761
1.93281
1.8751
1.82375
1.78037
1.74235
1.71296
1.68804
1.67354
1.66406
1.66353
1.66458
1.6666
1.67229
1.67487
1.68005
1.68052
1.68162
1.6816
1.68108
1.67981
1.67825
1.6768
1.67543
1.6742
1.67276
1.67126
1.66927
1.66715
1.66451
1.66169
1.65843
1.65494
1.65119
1.64716
1.64306
1.63867
1.63448
1.63004
1.62611
1.62219
1.61927
1.61708
1.61807
1.62031
1.62491
1.63545
1.66095
1.71108
1.79952
1.89584
1.96677
1.98784
1.9771
1.96389
1.95291
1.93491
1.9178
1.89996
1.88481
1.87178
1.86155
1.85356
1.85074
1.85136
1.85495
1.86586
1.88542
1.90883
1.9448
1.9781
2.0321
2.07193
2.11299
2.13759
2.125
2.11461
2.10289
2.08112
2.05611
2.03685
2.01799
2.00792
1.99609
1.98986
1.98277
1.97861
1.97377
1.97029
1.96493
1.9605
1.95327
1.94882
1.94089
1.93771
1.93119
1.93467
2.23124
2.15839
2.08564
2.01773
1.95362
1.89647
1.84293
1.79736
1.7548
1.72023
1.68953
1.66597
1.64682
1.63595
1.63004
1.63016
1.63147
1.63278
1.63658
1.63831
1.64178
1.64185
1.64229
1.64212
1.64145
1.64001
1.63837
1.6368
1.63521
1.63356
1.63169
1.62961
1.6272
1.62445
1.6213
1.61784
1.61402
1.61009
1.60582
1.60176
1.59737
1.59356
1.58962
1.58681
1.58498
1.58571
1.58835
1.5933
1.60685
1.637
1.6978
1.7907
1.89893
1.94913
1.96526
1.95828
1.94604
1.93173
1.91643
1.89998
1.88382
1.86711
1.85209
1.83805
1.82489
1.81438
1.80415
1.7977
1.79147
1.79098
1.79262
1.79759
1.80876
1.82851
1.85477
1.88017
1.92952
1.96599
2.01945
2.05843
2.08633
2.07415
2.06527
2.05482
2.03425
2.01517
1.99075
1.97819
1.96161
1.9544
1.94338
1.9382
1.93028
1.92647
1.91963
1.91621
1.90947
1.90591
1.8984
1.89991
2.22963
2.16286
2.09686
2.03377
1.97372
1.91806
1.86652
1.8198
1.7774
1.74004
1.7065
1.67899
1.65476
1.6368
1.62173
1.61331
1.60779
1.60721
1.6078
1.60896
1.61071
1.6133
1.61529
1.61563
1.61619
1.61592
1.615
1.61301
1.61077
1.60851
1.60616
1.60382
1.60129
1.59839
1.5951
1.5914
1.58747
1.58326
1.57913
1.57485
1.57103
1.56736
1.56436
1.56385
1.56452
1.56729
1.57362
1.59042
1.62809
1.69856
1.79458
1.90931
1.94442
1.95142
1.94669
1.93472
1.92261
1.90518
1.89097
1.87513
1.86029
1.84518
1.83133
1.81741
1.80431
1.79168
1.77927
1.76932
1.75849
1.75227
1.74433
1.74161
1.74156
1.74361
1.74874
1.76033
1.77955
1.80009
1.83753
1.86588
1.92079
1.96408
2.01062
2.04003
2.02692
2.02012
2.00916
1.99317
1.96943
1.95342
1.9305
1.9209
1.90484
1.89839
1.88655
1.88146
1.87175
1.86847
1.86104
1.86148
2.22805
2.16722
2.10638
2.04759
1.99132
1.93849
1.88897
1.8433
1.80115
1.76287
1.72812
1.69724
1.66975
1.64635
1.62605
1.61029
1.59798
1.59072
1.5863
1.58547
1.58589
1.58691
1.58809
1.58966
1.59033
1.59103
1.59096
1.5904
1.58905
1.58688
1.58449
1.58189
1.57909
1.5761
1.57296
1.56981
1.56653
1.56328
1.55994
1.55658
1.55408
1.55148
1.55206
1.55347
1.55677
1.5647
1.58595
1.62872
1.71674
1.81566
1.92077
1.94857
1.94571
1.9399
1.93032
1.91603
1.89961
1.88304
1.86818
1.85322
1.83882
1.82411
1.80973
1.7958
1.78195
1.769
1.75611
1.74399
1.73198
1.72168
1.71095
1.70454
1.69547
1.69246
1.68765
1.68817
1.69036
1.69518
1.70429
1.72189
1.74549
1.76782
1.81245
1.84607
1.90478
1.94549
1.9797
1.9706
1.9628
1.9532
1.93623
1.92006
1.8962
1.88217
1.8615
1.85366
1.8386
1.83335
1.82255
1.82168
2.22285
2.16809
2.11182
2.05653
2.00339
1.95292
1.90551
1.86102
1.81974
1.78138
1.74625
1.71393
1.6849
1.65862
1.63582
1.61595
1.59956
1.58617
1.57638
1.56992
1.56636
1.56504
1.56525
1.56584
1.56673
1.56753
1.56839
1.56865
1.56842
1.56765
1.56594
1.56356
1.56088
1.55822
1.55558
1.55289
1.55034
1.54777
1.54539
1.54378
1.54227
1.54316
1.54556
1.54946
1.55946
1.58462
1.63432
1.73418
1.84373
1.92318
1.94745
1.94081
1.93299
1.92179
1.90871
1.89159
1.87534
1.85855
1.8433
1.82779
1.81259
1.79766
1.78315
1.76952
1.75599
1.74367
1.73036
1.71901
1.70639
1.69597
1.68486
1.67522
1.66536
1.65805
1.64841
1.64462
1.63697
1.63438
1.63287
1.63377
1.63652
1.64358
1.6578
1.67426
1.7031
1.72658
1.77481
1.81471
1.8702
1.89792
1.90081
1.89527
1.88118
1.87129
1.85401
1.83848
1.81702
1.80679
1.78844
1.78865
2.21712
2.16925
2.11801
2.06631
2.01607
1.96774
1.92196
1.87876
1.83809
1.80015
1.76467
1.73197
1.70155
1.674
1.6487
1.62625
1.60635
1.58924
1.57514
1.56366
1.55534
1.54984
1.54682
1.5456
1.54575
1.54622
1.54712
1.54775
1.54861
1.54882
1.54853
1.54769
1.54598
1.54384
1.5417
1.53944
1.53737
1.53533
1.5338
1.53376
1.53461
1.53695
1.54269
1.55491
1.58471
1.64459
1.7477
1.86931
1.92693
1.94736
1.93968
1.92868
1.91627
1.9006
1.88426
1.86671
1.84957
1.83296
1.81712
1.80149
1.78629
1.77156
1.75746
1.74434
1.73193
1.7201
1.7087
1.69775
1.6863
1.67637
1.66466
1.65583
1.6446
1.63554
1.62549
1.61611
1.60634
1.59878
1.58955
1.58453
1.57714
1.57521
1.57324
1.57459
1.57889
1.58925
1.60591
1.62311
1.65653
1.6841
1.74102
1.77866
1.82397
1.83606
1.82662
1.81934
1.80828
1.79882
1.78344
1.77755
2.21449
2.16892
2.12279
2.07516
2.02781
1.98146
1.93709
1.8949
1.85497
1.8174
1.78206
1.74903
1.71829
1.68971
1.66357
1.63943
1.61793
1.59839
1.58157
1.56698
1.55512
1.54565
1.5387
1.53427
1.53183
1.53106
1.53128
1.5318
1.53293
1.53357
1.53451
1.53469
1.53435
1.53355
1.53206
1.53052
1.52892
1.52758
1.52803
1.52931
1.53202
1.53816
1.55375
1.58628
1.66066
1.76541
1.88981
1.93061
1.94371
1.93571
1.92461
1.90986
1.89202
1.87353
1.85587
1.83786
1.82122
1.80497
1.78928
1.77415
1.75917
1.74559
1.7324
1.72083
1.70893
1.69823
1.68673
1.67627
1.66534
1.65517
1.64433
1.63427
1.62251
1.61291
1.60024
1.59081
1.57846
1.56845
1.55724
1.54765
1.53755
1.53037
1.52198
1.51764
1.5125
1.51179
1.51249
1.51614
1.52394
1.53772
1.55904
1.5786
1.61812
1.65155
1.71446
1.7402
1.78393
1.77463
1.77092
1.77061
2.20544
2.16705
2.127
2.0844
2.04082
1.99702
1.95384
1.91235
1.87251
1.83496
1.79942
1.76608
1.73485
1.70567
1.67861
1.65354
1.63054
1.60955
1.59063
1.57391
1.55923
1.54713
1.53693
1.52935
1.52353
1.52019
1.51813
1.51774
1.51802
1.51863
1.51991
1.52088
1.52187
1.5222
1.52208
1.52166
1.52144
1.52221
1.52412
1.52685
1.53406
1.55267
1.58917
1.67552
1.78238
1.90615
1.93666
1.93976
1.93212
1.91949
1.90289
1.88285
1.86275
1.84384
1.82582
1.80918
1.79316
1.77792
1.76287
1.74869
1.73479
1.72248
1.71007
1.69911
1.68759
1.67737
1.66648
1.65659
1.64557
1.63537
1.62396
1.61357
1.60198
1.59131
1.57922
1.56851
1.55581
1.54571
1.53313
1.52352
1.51199
1.50284
1.49251
1.48483
1.47554
1.47089
1.46393
1.4612
1.4596
1.46029
1.46291
1.46901
1.48224
1.49595
1.52146
1.54523
1.58786
1.63101
1.69737
1.70536
2.17978
2.15615
2.12364
2.08681
2.04854
2.00954
1.96993
1.93056
1.89213
1.85492
1.81948
1.78577
1.75403
1.72422
1.69632
1.67037
1.64633
1.6242
1.604
1.58566
1.56931
1.55476
1.54233
1.53186
1.52332
1.51684
1.51195
1.50913
1.50729
1.5071
1.5074
1.50824
1.50939
1.51027
1.51143
1.51239
1.51379
1.51683
1.51957
1.52942
1.5479
1.59276
1.68289
1.79784
1.91529
1.94004
1.93496
1.92382
1.91011
1.89347
1.87287
1.85191
1.83177
1.81348
1.79697
1.7818
1.76712
1.75307
1.73886
1.72571
1.71259
1.70104
1.68921
1.67915
1.66819
1.65872
1.64763
1.63775
1.62634
1.61618
1.60452
1.59397
1.58171
1.57084
1.55825
1.5474
1.53501
1.52449
1.51248
1.50266
1.49108
1.48212
1.47129
1.46306
1.45328
1.4462
1.4371
1.43217
1.42424
1.42177
1.41678
1.41588
1.41605
1.41793
1.42218
1.43005
1.44647
1.46134
1.49852
1.5114
2.16534
2.13704
2.1076
2.08108
2.04783
2.0128
1.97783
1.94224
1.90696
1.8721
1.83822
1.80555
1.77436
1.74469
1.71675
1.69034
1.66575
1.64266
1.62147
1.60178
1.58399
1.56776
1.55332
1.54053
1.5295
1.52001
1.51244
1.5064
1.50212
1.49933
1.49762
1.4973
1.49764
1.4988
1.50009
1.50277
1.50468
1.51054
1.52088
1.54531
1.59351
1.69848
1.81466
1.91429
1.93979
1.93213
1.91682
1.90103
1.88308
1.86319
1.84246
1.82295
1.80449
1.78857
1.77385
1.76051
1.7469
1.73387
1.72036
1.708
1.69535
1.68435
1.67287
1.66302
1.65193
1.6422
1.63079
1.62078
1.60885
1.5983
1.58585
1.57495
1.56231
1.55136
1.53872
1.52813
1.5158
1.50589
1.49414
1.48487
1.47382
1.4652
1.45473
1.44684
1.43683
1.42959
1.42015
1.41362
1.40463
1.39939
1.39062
1.38706
1.37988
1.37775
1.37336
1.37348
1.3741
1.37652
1.38699
1.38746
2.1584
2.12597
2.09942
2.06827
2.04246
2.01185
1.97944
1.94753
1.91549
1.88375
1.8524
1.82178
1.79201
1.76343
1.73593
1.70992
1.68506
1.66187
1.63979
1.61951
1.60034
1.58294
1.56678
1.55219
1.53908
1.5273
1.5174
1.50863
1.50154
1.49656
1.49212
1.48989
1.48904
1.48992
1.4919
1.49433
1.50018
1.51319
1.54105
1.59412
1.7055
1.82782
1.91079
1.93537
1.92593
1.91203
1.89546
1.87642
1.85571
1.83601
1.81686
1.79985
1.78373
1.7698
1.75639
1.74396
1.73072
1.71806
1.7045
1.69228
1.67953
1.6686
1.6568
1.64643
1.63453
1.62385
1.61143
1.60046
1.58789
1.57705
1.56448
1.55364
1.54094
1.53028
1.51783
1.50781
1.4959
1.48666
1.47534
1.46685
1.45606
1.44814
1.43781
1.43025
1.42027
1.41306
1.4033
1.39645
1.38692
1.38042
1.37108
1.36522
1.35598
1.35119
1.34246
1.33892
1.33241
1.33012
1.32851
1.32743
2.14964
2.11619
2.08557
2.05835
2.02834
2.00424
1.97726
1.94758
1.91822
1.88911
1.86039
1.832
1.8042
1.77693
1.75067
1.72522
1.70092
1.67778
1.65584
1.63503
1.61563
1.59726
1.58016
1.56432
1.54991
1.53628
1.52483
1.51424
1.50472
1.49801
1.49073
1.48661
1.48463
1.4853
1.48791
1.49437
1.50684
1.53834
1.59429
1.70941
1.83621
1.9097
1.92954
1.92011
1.90479
1.8899
1.87284
1.85385
1.83375
1.81521
1.79779
1.78255
1.76771
1.75445
1.74081
1.72796
1.71432
1.70142
1.68782
1.67572
1.66285
1.65155
1.63879
1.6274
1.61427
1.60274
1.58971
1.57857
1.5659
1.55508
1.54259
1.53211
1.51997
1.51002
1.4983
1.48896
1.47769
1.46904
1.45828
1.4502
1.4398
1.43209
1.42186
1.41438
1.40428
1.39699
1.38703
1.37992
1.37005
1.36319
1.35342
1.34686
1.33733
1.3312
1.32199
1.31664
1.30791
1.30364
1.29648
1.29473
2.14096
2.11268
2.08205
2.05244
2.02387
1.99398
1.96793
1.94379
1.91719
1.89024
1.86357
1.83752
1.81159
1.78635
1.76124
1.73703
1.71359
1.69058
1.66922
1.64822
1.62836
1.61002
1.59211
1.57532
1.56058
1.54548
1.53255
1.52141
1.50942
1.50122
1.49332
1.48566
1.48598
1.48731
1.49196
1.50464
1.53419
1.59887
1.70976
1.84061
1.91034
1.92453
1.91254
1.89927
1.88351
1.86681
1.84862
1.83052
1.81217
1.79495
1.77867
1.7642
1.75002
1.73684
1.72289
1.70938
1.69505
1.6817
1.66791
1.65558
1.64237
1.63053
1.61716
1.60517
1.59155
1.57968
1.56646
1.5552
1.54279
1.53237
1.52073
1.51101
1.49981
1.49056
1.4796
1.47088
1.46018
1.45199
1.44144
1.4336
1.4231
1.41546
1.40503
1.39755
1.38723
1.3799
1.36973
1.36254
1.35255
1.34552
1.33573
1.32896
1.31944
1.313
1.30385
1.29783
1.2891
1.28371
1.27583
1.2729
2.1136
2.10189
2.07673
2.04891
2.02111
1.99255
1.96367
1.93618
1.91169
1.8872
1.86281
1.83821
1.81432
1.79034
1.76752
1.74425
1.72213
1.70044
1.67893
1.65901
1.63927
1.62017
1.60317
1.5857
1.56967
1.55595
1.54061
1.52864
1.51745
1.50508
1.49804
1.49131
1.49261
1.49694
1.50984
1.53744
1.61097
1.71258
1.8354
1.91035
1.92332
1.90713
1.89122
1.87699
1.85788
1.83885
1.82083
1.80458
1.78864
1.77302
1.75751
1.74314
1.72909
1.7158
1.70178
1.68818
1.67392
1.66067
1.64696
1.63458
1.62119
1.60902
1.59534
1.58314
1.56954
1.55791
1.54508
1.53441
1.52257
1.51278
1.50165
1.49241
1.48169
1.47283
1.46235
1.45382
1.4434
1.43512
1.42464
1.41656
1.40607
1.39821
1.38778
1.38017
1.36986
1.3625
1.35235
1.34526
1.33531
1.3285
1.31882
1.31231
1.30298
1.29677
1.28779
1.28189
1.27326
1.26776
1.25981
1.25659
2.08862
2.0775
2.06277
2.04113
2.01716
1.99122
1.96397
1.93661
1.90975
1.88512
1.86068
1.83716
1.8139
1.79143
1.76879
1.74726
1.72575
1.70496
1.68464
1.66518
1.64554
1.62811
1.60944
1.5933
1.57743
1.56133
1.54847
1.53436
1.52147
1.51267
1.50205
1.50349
1.50588
1.51854
1.54707
1.6114
1.73599
1.8448
1.90825
1.92291
1.90721
1.88436
1.86847
1.84975
1.82958
1.81014
1.79265
1.77768
1.76304
1.74889
1.73437
1.72081
1.70682
1.69368
1.67971
1.66645
1.65235
1.63929
1.62539
1.61272
1.59883
1.58648
1.57279
1.56104
1.54793
1.53698
1.52467
1.51456
1.50305
1.49359
1.48259
1.47355
1.46284
1.45411
1.44355
1.43505
1.42447
1.41619
1.40556
1.39752
1.38691
1.37914
1.36865
1.36115
1.35087
1.34367
1.33366
1.32677
1.31706
1.31049
1.30107
1.29481
1.28568
1.27966
1.27081
1.26503
1.25644
1.25099
1.24303
1.23978
2.06812
2.05811
2.04192
2.02092
2.00173
1.98365
1.96149
1.93647
1.91102
1.8852
1.86125
1.83747
1.81436
1.79193
1.77002
1.74883
1.72771
1.70769
1.68771
1.66814
1.65029
1.63126
1.61478
1.59814
1.5813
1.56781
1.55195
1.53893
1.52801
1.51579
1.51656
1.51929
1.53102
1.55943
1.62635
1.75821
1.86694
1.91069
1.9193
1.91024
1.88619
1.86198
1.84296
1.8255
1.80605
1.78712
1.76938
1.7539
1.73927
1.72588
1.7119
1.69825
1.68368
1.67014
1.65589
1.64285
1.62883
1.61588
1.60165
1.58882
1.57476
1.56267
1.54931
1.53824
1.5258
1.51575
1.5041
1.49462
1.4833
1.47401
1.46288
1.45388
1.44302
1.43438
1.42374
1.41537
1.40484
1.39669
1.38616
1.3782
1.36768
1.35998
1.3496
1.34225
1.33213
1.32519
1.3154
1.30885
1.29934
1.29311
1.28383
1.27786
1.2688
1.26305
1.25422
1.24869
1.24011
1.23492
1.22699
1.22399
2.0453
2.04483
2.03059
2.01208
1.98895
1.96893
1.95148
1.93233
1.91005
1.88636
1.86177
1.8388
1.81591
1.79335
1.77177
1.75049
1.72999
1.71028
1.69032
1.67214
1.65298
1.63537
1.61843
1.60074
1.58617
1.5697
1.55601
1.54353
1.53105
1.531
1.53391
1.54663
1.57457
1.64458
1.77747
1.89664
1.92817
1.9212
1.91142
1.89717
1.86563
1.84048
1.82018
1.80333
1.78601
1.76876
1.75097
1.73445
1.71798
1.70291
1.68714
1.67264
1.65746
1.64388
1.62964
1.6169
1.603
1.59038
1.57634
1.564
1.55027
1.53889
1.52608
1.51595
1.50411
1.49475
1.48339
1.47425
1.46315
1.45418
1.44333
1.43455
1.42383
1.41527
1.40467
1.39639
1.3859
1.37789
1.36746
1.35969
1.34937
1.34188
1.33176
1.32461
1.31477
1.30799
1.29842
1.29197
1.28263
1.27647
1.26731
1.26141
1.25242
1.24676
1.23794
1.23256
1.22398
1.219
1.21108
1.20829
2.00886
2.02074
2.01538
2.00202
1.9807
1.95823
1.93912
1.92125
1.9033
1.88404
1.86203
1.83911
1.81727
1.79525
1.77395
1.75248
1.73229
1.712
1.6931
1.67431
1.65566
1.63904
1.62054
1.60525
1.58848
1.57366
1.56025
1.54796
1.5461
1.55148
1.56281
1.59313
1.68022
1.78774
1.92428
1.95149
1.93442
1.91485
1.90254
1.87789
1.84731
1.82126
1.8002
1.78407
1.76829
1.75217
1.7344
1.71671
1.69852
1.68163
1.66447
1.64905
1.6334
1.61963
1.60536
1.59264
1.57898
1.5667
1.5533
1.5415
1.52857
1.51775
1.50559
1.49582
1.48429
1.47523
1.46419
1.45552
1.44476
1.4361
1.42538
1.41669
1.40604
1.39751
1.38701
1.37874
1.3684
1.36044
1.35025
1.34263
1.3326
1.32529
1.31544
1.30843
1.29879
1.2921
1.28268
1.27632
1.26711
1.26108
1.25202
1.2463
1.23737
1.23194
1.22319
1.21808
1.20958
1.20493
1.19708
1.19463
1.94811
1.98556
1.99189
1.98635
1.97424
1.95321
1.93291
1.91394
1.89541
1.87633
1.85816
1.8383
1.81699
1.79695
1.77588
1.75638
1.73597
1.71607
1.69729
1.67743
1.66052
1.64163
1.62561
1.60852
1.59299
1.57908
1.56629
1.56428
1.57001
1.58226
1.61554
1.71018
1.80945
1.94828
1.97517
1.9565
1.92618
1.90646
1.88557
1.85994
1.83171
1.80631
1.78506
1.76794
1.75185
1.73549
1.71783
1.6998
1.68143
1.66397
1.6464
1.63047
1.61431
1.59985
1.585
1.57181
1.55798
1.54574
1.53262
1.52119
1.50868
1.49809
1.48615
1.47642
1.46507
1.45607
1.44513
1.43644
1.42568
1.41704
1.40642
1.39785
1.38731
1.37885
1.36843
1.36023
1.35003
1.34222
1.33227
1.32486
1.31512
1.30805
1.29848
1.2917
1.28229
1.2758
1.26656
1.26037
1.25125
1.24538
1.23637
1.23084
1.22196
1.21679
1.2081
1.20332
1.19488
1.19058
1.18278
1.18065
1.82192
1.95466
1.96727
1.96778
1.9582
1.94654
1.92791
1.90995
1.89195
1.87334
1.85467
1.83594
1.81665
1.79658
1.77722
1.75827
1.73851
1.7211
1.7009
1.68403
1.66504
1.64788
1.6308
1.61444
1.60004
1.58702
1.58465
1.59115
1.60523
1.64064
1.74485
1.83714
1.96582
1.99889
1.9818
1.94901
1.91602
1.89166
1.86973
1.84615
1.81981
1.79467
1.77252
1.75401
1.73678
1.71981
1.7019
1.68344
1.66477
1.64689
1.6294
1.6133
1.59704
1.58223
1.56703
1.55325
1.53903
1.52631
1.51296
1.50122
1.48869
1.47797
1.46614
1.45635
1.44502
1.4359
1.42492
1.41623
1.40554
1.39709
1.38659
1.37829
1.36795
1.35988
1.34975
1.34203
1.33209
1.32474
1.31499
1.308
1.29844
1.29175
1.28236
1.27591
1.26664
1.2604
1.25121
1.24522
1.23611
1.23044
1.22143
1.21613
1.20725
1.20235
1.19365
1.18914
1.18069
1.17664
1.16884
1.16691
1.59062
1.87001
1.94272
1.94801
1.9442
1.93192
1.91637
1.89869
1.88257
1.86685
1.85009
1.83262
1.81498
1.79598
1.77762
1.75821
1.74116
1.72213
1.70552
1.6875
1.67044
1.65389
1.63683
1.62296
1.60964
1.60737
1.61476
1.63202
1.66949
1.78303
1.88086
1.98062
2.01448
2.00422
1.98012
1.93732
1.90201
1.87722
1.85572
1.83404
1.80951
1.78511
1.76188
1.74132
1.72233
1.70439
1.68605
1.66763
1.64889
1.63096
1.61338
1.59727
1.58113
1.56632
1.55085
1.5368
1.52217
1.50925
1.49579
1.48414
1.4716
1.46087
1.44891
1.43895
1.42738
1.41808
1.40687
1.39812
1.38726
1.37898
1.36854
1.36069
1.35063
1.3431
1.33326
1.32598
1.31626
1.30925
1.29963
1.29292
1.28345
1.27702
1.26771
1.26152
1.25236
1.24637
1.23733
1.23157
1.22261
1.2171
1.20819
1.203
1.19416
1.18929
1.18059
1.17607
1.16762
1.16353
1.15575
1.15372
1.37915
1.67905
1.87985
1.92239
1.92895
1.92404
1.91135
1.89242
1.87357
1.85681
1.84121
1.82552
1.80986
1.79357
1.77641
1.75853
1.74114
1.72329
1.70705
1.68945
1.67439
1.65695
1.64441
1.63165
1.63133
1.63935
1.66079
1.70404
1.81929
1.94794
2.01546
2.02847
2.01658
2.00229
1.96663
1.92526
1.8909
1.86522
1.84293
1.82164
1.79809
1.77423
1.75057
1.72882
1.70866
1.68973
1.67122
1.65305
1.63486
1.61734
1.6
1.58393
1.56787
1.55323
1.53811
1.52422
1.50951
1.49628
1.48229
1.47011
1.45705
1.4459
1.43355
1.42326
1.41139
1.40181
1.39037
1.38151
1.3706
1.36242
1.35201
1.34435
1.33431
1.32701
1.31723
1.31019
1.30059
1.29379
1.28432
1.27776
1.26846
1.26219
1.25309
1.24711
1.23822
1.23251
1.22378
1.2183
1.20964
1.20439
1.19576
1.19076
1.18216
1.17743
1.16892
1.16449
1.15616
1.1521
1.14439
1.14233
1.169
1.40656
1.72993
1.88038
1.90149
1.90646
1.90039
1.88818
1.86946
1.85169
1.83418
1.81834
1.80191
1.78712
1.77192
1.75687
1.74016
1.72436
1.70684
1.69195
1.67545
1.66275
1.65222
1.65338
1.66277
1.68942
1.74896
1.84312
2.0131
2.06507
2.05647
2.03036
2.01262