/*--------------------------------*- C++ -*----------------------------------*\
| =========                 |                                                 |
| \\      /  F ield         | OpenFOAM: The Open Source CFD Toolbox           |
|  \\    /   O peration     | Version:  2112                                  |
|   \\  /    A nd           | Website:  www.openfoam.com                      |
|    \\/     M anipulation  |                                                 |
\*---------------------------------------------------------------------------*/
FoamFile
{
    version     2.0;
    format      ascii;
    arch        "LSB;label=32;scalar=64";
    class       volVectorField;
    location    "1.5";
    object      U;
}
// * * * * * * * * * * * * * * * * * * * * * * * * * * * * * * * * * * * * * //

dimensions      [0 1 -1 0 0 0 0];

internalField   nonuniform List<vector> 
5250
(
(3 4.66718e-09 0)
(2.99999 3.59407e-08 0)
(2.99998 1.10945e-07 0)
(2.99994 3.33362e-07 0)
(2.99985 7.89765e-07 0)
(2.99968 2.09426e-06 0)
(2.99916 4.70022e-06 0)
(2.99815 1.23366e-05 0)
(2.99501 2.67903e-05 0)
(2.98939 7.49713e-05 0)
(2.96896 0.000154626 0)
(2.92971 0.000472358 0)
(2.79148 0.00112863 0)
(2.39221 0.00334965 0)
(1.48313 0.00906362 0)
(0.60192 0.0219287 0)
(0.530829 0.0231959 0)
(0.550291 0.0247115 0)
(0.534497 0.0271292 0)
(0.472948 0.0299748 0)
(0.378631 0.0332514 0)
(0.290005 0.037166 0)
(0.212785 0.0410862 0)
(0.130319 0.0446882 0)
(0.0620999 0.0491613 0)
(3 1.41795e-08 0)
(2.99999 1.09446e-07 0)
(2.99998 3.37435e-07 0)
(2.99994 1.01393e-06 0)
(2.99986 2.39969e-06 0)
(2.99968 6.36168e-06 0)
(2.99917 1.42593e-05 0)
(2.99816 3.74636e-05 0)
(2.99506 8.10127e-05 0)
(2.9895 0.000228479 0)
(2.96928 0.000467039 0)
(2.93055 0.0014504 0)
(2.79367 0.00343494 0)
(2.39941 0.0103552 0)
(1.49844 0.0278722 0)
(0.611396 0.0661022 0)
(0.530269 0.0668453 0)
(0.550222 0.0684601 0)
(0.534698 0.072968 0)
(0.472694 0.0781006 0)
(0.377991 0.0839082 0)
(0.288984 0.0903514 0)
(0.211176 0.0960615 0)
(0.127818 0.100188 0)
(0.0594477 0.103934 0)
(3 2.40037e-08 0)
(2.99999 1.85199e-07 0)
(2.99998 5.70829e-07 0)
(2.99995 1.71341e-06 0)
(2.99986 4.05157e-06 0)
(2.99969 1.07249e-05 0)
(2.99918 2.40081e-05 0)
(2.9982 6.30243e-05 0)
(2.99517 0.00013583 0)
(2.98972 0.000384221 0)
(2.96996 0.000780438 0)
(2.93227 0.00244507 0)
(2.79828 0.00574515 0)
(2.41474 0.0175271 0)
(1.53194 0.0469504 0)
(0.633345 0.113304 0)
(0.530822 0.113229 0)
(0.552577 0.115315 0)
(0.538508 0.12353 0)
(0.476516 0.132906 0)
(0.381986 0.143827 0)
(0.292785 0.155246 0)
(0.214151 0.165184 0)
(0.129431 0.172267 0)
(0.0594445 0.177719 0)
(3 3.46829e-08 0)
(2.99999 2.67606e-07 0)
(2.99998 8.25376e-07 0)
(2.99995 2.47701e-06 0)
(2.99986 5.86425e-06 0)
(2.9997 1.55007e-05 0)
(2.99921 3.4751e-05 0)
(2.99826 9.06095e-05 0)
(2.99533 0.00019723 0)
(2.99004 0.000543393 0)
(2.97096 0.00112859 0)
(2.93483 0.00338511 0)
(2.8052 0.00803511 0)
(2.43764 0.0242229 0)
(1.58321 0.0641324 0)
(0.667386 0.159397 0)
(0.531946 0.158587 0)
(0.55701 0.161552 0)
(0.545668 0.174026 0)
(0.484157 0.188019 0)
(0.390431 0.204417 0)
(0.301221 0.221264 0)
(0.221532 0.236068 0)
(0.134584 0.246895 0)
(0.0614167 0.254919 0)
(3 4.59731e-08 0)
(2.99999 3.55329e-07 0)
(2.99998 1.09595e-06 0)
(2.99995 3.29279e-06 0)
(2.99987 7.80859e-06 0)
(2.99971 2.0649e-05 0)
(2.99925 4.64445e-05 0)
(2.99834 0.000120244 0)
(2.99554 0.000266731 0)
(2.9905 0.000703987 0)
(2.97228 0.00153614 0)
(2.93822 0.00423706 0)
(2.81423 0.010304 0)
(2.46667 0.0306358 0)
(1.649 0.0793077 0)
(0.709688 0.205664 0)
(0.52999 0.203814 0)
(0.560839 0.20768 0)
(0.554165 0.22431 0)
(0.49407 0.242731 0)
(0.402235 0.264433 0)
(0.313654 0.286915 0)
(0.232984 0.307291 0)
(0.143257 0.322994 0)
(0.0655075 0.334602 0)
(3 5.74286e-08 0)
(2.99999 4.45232e-07 0)
(2.99998 1.37347e-06 0)
(2.99995 4.13857e-06 0)
(2.99988 9.84932e-06 0)
(2.99973 2.61245e-05 0)
(2.99929 5.91666e-05 0)
(2.99844 0.000152085 0)
(2.99581 0.000347529 0)
(2.9911 0.000865496 0)
(2.97385 0.00201284 0)
(2.94236 0.00510027 0)
(2.82541 0.0125432 0)
(2.50119 0.0366302 0)
(1.72721 0.094304 0)
(0.760711 0.253609 0)
(0.525458 0.249112 0)
(0.56487 0.253445 0)
(0.564636 0.274277 0)
(0.506751 0.297199 0)
(0.417915 0.324624 0)
(0.330821 0.353703 0)
(0.24959 0.381104 0)
(0.156489 0.403856 0)
(0.0721104 0.421822 0)
(3 6.40895e-08 0)
(2.99999 4.97621e-07 0)
(2.99998 1.53399e-06 0)
(2.99996 4.62872e-06 0)
(2.99989 1.10133e-05 0)
(2.99975 2.9283e-05 0)
(2.99935 6.63305e-05 0)
(2.99858 0.000171444 0)
(2.99614 0.000389621 0)
(2.99189 0.000989285 0)
(2.97575 0.00225094 0)
(2.94724 0.00604324 0)
(2.8384 0.0141707 0)
(2.54183 0.0431175 0)
(1.8219 0.110714 0)
(0.820208 0.304804 0)
(0.51759 0.295386 0)
(0.569228 0.29882 0)
(0.577591 0.323621 0)
(0.52304 0.350952 0)
(0.43886 0.38459 0)
(0.354621 0.421638 0)
(0.273525 0.458466 0)
(0.176984 0.491991 0)
(0.083541 0.521644 0)
(3 6.47655e-08 0)
(2.99999 5.00512e-07 0)
(2.99998 1.54135e-06 0)
(2.99996 4.6299e-06 0)
(2.9999 1.09367e-05 0)
(2.99977 2.89715e-05 0)
(2.99941 6.47686e-05 0)
(2.99871 0.000170792 0)
(2.99649 0.000363119 0)
(2.99266 0.00105349 0)
(2.978 0.00206379 0)
(2.95256 0.00697059 0)
(2.85375 0.0146121 0)
(2.5907 0.0516557 0)
(1.93672 0.127344 0)
(0.895025 0.358492 0)
(0.514508 0.343979 0)
(0.579497 0.344366 0)
(0.597114 0.371786 0)
(0.546109 0.403183 0)
(0.46788 0.443688 0)
(0.387918 0.490536 0)
(0.308513 0.539881 0)
(0.209617 0.590099 0)
(0.103278 0.643129 0)
(3 7.31342e-08 0)
(2.99999 5.60101e-07 0)
(2.99998 1.72747e-06 0)
(2.99996 5.15522e-06 0)
(2.99991 1.21876e-05 0)
(2.9998 3.20211e-05 0)
(2.99947 7.1532e-05 0)
(2.99883 0.000186907 0)
(2.99687 0.000394268 0)
(2.99331 0.00115196 0)
(2.98059 0.0021486 0)
(2.95795 0.00774257 0)
(2.8725 0.015115 0)
(2.64793 0.0573326 0)
(2.07324 0.137754 0)
(0.995923 0.403559 0)
(0.528858 0.394041 0)
(0.602255 0.392588 0)
(0.627861 0.419052 0)
(0.580237 0.453984 0)
(0.509167 0.501409 0)
(0.434913 0.559749 0)
(0.359814 0.624105 0)
(0.264506 0.700913 0)
(0.140881 0.801521 0)
(3 3.04972e-08 0)
(3 8.44469e-07 0)
(2.99999 1.69992e-06 0)
(2.99997 7.46492e-06 0)
(2.99992 1.25878e-05 0)
(2.99982 4.71071e-05 0)
(2.99954 7.50715e-05 0)
(2.99898 0.00028482 0)
(2.9973 0.000396111 0)
(2.99413 0.00179165 0)
(2.98341 0.00170836 0)
(2.9636 0.0115475 0)
(2.89193 0.00999352 0)
(2.70661 0.0717997 0)
(2.21991 0.129477 0)
(1.12396 0.422818 0)
(0.57739 0.443448 0)
(0.643646 0.449312 0)
(0.672928 0.467137 0)
(0.629383 0.504786 0)
(0.566036 0.55726 0)
(0.499198 0.625567 0)
(0.435476 0.711036 0)
(0.360029 0.834128 0)
(0.213113 1.05619 0)
(3 7.28612e-08 0)
(3 5.68582e-07 0)
(2.99999 1.75187e-06 0)
(2.99997 5.30228e-06 0)
(2.99994 1.26317e-05 0)
(2.99985 3.36888e-05 0)
(2.99967 7.65235e-05 0)
(2.99909 0.000197392 0)
(2.99812 0.00045437 0)
(2.99441 0.00111917 0)
(2.9886 0.0026753 0)
(2.96512 0.00659042 0)
(2.91781 0.0160472 0)
(2.7658 0.044557 0)
(2.31235 0.124863 0)
(1.3366 0.345848 0)
(0.666706 0.476405 0)
(0.696622 0.510153 0)
(0.72219 0.518768 0)
(0.689152 0.555096 0)
(0.635222 0.609313 0)
(0.584056 0.684729 0)
(0.550727 0.788564 0)
(0.554412 0.94267 0)
(0.604426 1.20003 0)
(3 1.0819e-07 0)
(3 2.31334e-07 0)
(2.99999 1.61552e-06 0)
(2.99998 2.53204e-06 0)
(2.99994 1.11635e-05 0)
(2.99988 1.60249e-05 0)
(2.99968 6.74734e-05 0)
(2.99929 8.5584e-05 0)
(2.99806 0.000431518 0)
(2.99597 0.000380049 0)
(2.98796 0.0030404 0)
(2.97466 0.00185829 0)
(2.92323 0.0196701 0)
(2.79814 0.0210325 0)
(2.45265 0.107479 0)
(1.46223 0.272058 0)
(0.759559 0.522236 0)
(0.724453 0.565861 0)
(0.748604 0.573472 0)
(0.740214 0.604038 0)
(0.706242 0.657425 0)
(0.678236 0.734757 0)
(0.678822 0.842765 0)
(0.739823 0.992111 0)
(0.895942 1.18692 0)
(3 4.82574e-08 0)
(3 3.76097e-07 0)
(2.99999 1.15619e-06 0)
(2.99998 3.50202e-06 0)
(2.99995 8.27255e-06 0)
(2.99989 2.21671e-05 0)
(2.99972 4.96047e-05 0)
(2.9994 0.000132579 0)
(2.99837 0.000283621 0)
(2.99659 0.000822734 0)
(2.98987 0.00165105 0)
(2.97902 0.00523818 0)
(2.93518 0.0112141 0)
(2.83568 0.0346658 0)
(2.54549 0.0907905 0)
(1.64168 0.264442 0)
(0.884712 0.577934 0)
(0.74104 0.606576 0)
(0.766708 0.618858 0)
(0.780647 0.644374 0)
(0.771079 0.696679 0)
(0.768406 0.770794 0)
(0.797066 0.869862 0)
(0.883586 0.993105 0)
(1.05973 1.11737 0)
(3 4.57284e-08 0)
(3 3.54778e-07 0)
(2.99999 1.09164e-06 0)
(2.99998 3.29347e-06 0)
(2.99996 7.80113e-06 0)
(2.99991 2.07906e-05 0)
(2.99977 4.67205e-05 0)
(2.99949 0.000123393 0)
(2.99864 0.000266384 0)
(2.99711 0.000757681 0)
(2.99161 0.00150213 0)
(2.9827 0.00492417 0)
(2.94674 0.00996167 0)
(2.86863 0.0335183 0)
(2.63228 0.081212 0)
(1.87549 0.258082 0)
(1.05467 0.617136 0)
(0.772399 0.640183 0)
(0.791839 0.653818 0)
(0.819685 0.673265 0)
(0.831974 0.722561 0)
(0.848635 0.791477 0)
(0.895164 0.875656 0)
(0.990005 0.969836 0)
(1.15706 1.05029 0)
(3 4.27526e-08 0)
(3 3.31733e-07 0)
(2.99999 1.02137e-06 0)
(2.99999 3.0816e-06 0)
(2.99997 7.30597e-06 0)
(2.99993 1.94657e-05 0)
(2.99981 4.37531e-05 0)
(2.99958 0.000115038 0)
(2.9989 0.000251204 0)
(2.99762 0.000699748 0)
(2.99332 0.00140199 0)
(2.98613 0.00460324 0)
(2.95804 0.00891236 0)
(2.89882 0.0315649 0)
(2.71687 0.0749466 0)
(2.13723 0.241738 0)
(1.26844 0.626312 0)
(0.848107 0.676861 0)
(0.841081 0.690006 0)
(0.868092 0.701204 0)
(0.89471 0.740007 0)
(0.922082 0.800499 0)
(0.975576 0.870323 0)
(1.06971 0.941203 0)
(1.22032 0.996293 0)
(3 3.83623e-08 0)
(3 2.97828e-07 0)
(3 9.16971e-07 0)
(2.99999 2.76637e-06 0)
(2.99997 6.56359e-06 0)
(2.99994 1.74697e-05 0)
(2.99985 3.93357e-05 0)
(2.99966 0.000102707 0)
(2.99913 0.000227444 0)
(2.99807 0.000608805 0)
(2.99485 0.0012901 0)
(2.989 0.00386074 0)
(2.96849 0.00772014 0)
(2.92669 0.0251985 0)
(2.79358 0.0621222 0)
(2.39318 0.185693 0)
(1.56075 0.51999 0)
(0.973692 0.698457 0)
(0.912709 0.725289 0)
(0.925676 0.737623 0)
(0.958587 0.759952 0)
(0.992397 0.806708 0)
(1.04567 0.862879 0)
(1.1331 0.916655 0)
(1.26512 0.955726 0)
(3 3.32187e-08 0)
(3 2.58101e-07 0)
(3 7.94737e-07 0)
(2.99999 2.39726e-06 0)
(2.99998 5.69425e-06 0)
(2.99995 1.51324e-05 0)
(2.99988 3.41905e-05 0)
(2.99974 8.87299e-05 0)
(2.99932 0.000198044 0)
(2.9985 0.000515018 0)
(2.99602 0.00113987 0)
(2.99152 0.00305392 0)
(2.97541 0.00661451 0)
(2.94602 0.0187139 0)
(2.83901 0.0454193 0)
(2.54665 0.132045 0)
(1.85504 0.36451 0)
(1.1049 0.727681 0)
(0.964037 0.760853 0)
(0.970301 0.776238 0)
(1.00801 0.785015 0)
(1.05233 0.815846 0)
(1.10633 0.858091 0)
(1.18625 0.89862 0)
(1.30086 0.926749 0)
(3 2.79004e-08 0)
(3 2.15917e-07 0)
(3 6.65172e-07 0)
(2.99999 1.99993e-06 0)
(2.99998 4.74912e-06 0)
(2.99996 1.25664e-05 0)
(2.99991 2.83701e-05 0)
(2.9998 7.32233e-05 0)
(2.99948 0.000163188 0)
(2.99886 0.00042241 0)
(2.99696 0.000926491 0)
(2.99358 0.00251551 0)
(2.98131 0.00518524 0)
(2.95987 0.0162345 0)
(2.87945 0.0337414 0)
(2.6699 0.116318 0)
(2.14018 0.292196 0)
(1.28741 0.753331 0)
(1.01227 0.797486 0)
(1.00887 0.809308 0)
(1.04724 0.811087 0)
(1.1013 0.825013 0)
(1.15754 0.85501 0)
(1.23117 0.885468 0)
(1.33091 0.905889 0)
(3 1.53673e-08 0)
(3 2.007e-07 0)
(3 4.97448e-07 0)
(3 1.80419e-06 0)
(2.99999 3.60768e-06 0)
(2.99997 1.12656e-05 0)
(2.99993 2.16045e-05 0)
(2.99985 6.56083e-05 0)
(2.99961 0.000123959 0)
(2.99914 0.000379394 0)
(2.99776 0.000693651 0)
(2.99508 0.00228804 0)
(2.98669 0.00367633 0)
(2.97025 0.014984 0)
(2.91641 0.0225334 0)
(2.78025 0.100734 0)
(2.4197 0.212235 0)
(1.54906 0.662393 0)
(1.115 0.802403 0)
(1.06796 0.828821 0)
(1.09005 0.836951 0)
(1.14473 0.83871 0)
(1.20458 0.856362 0)
(1.27221 0.877542 0)
(1.35896 0.891632 0)
(3 1.16243e-08 0)
(3 1.50781e-07 0)
(3 3.74378e-07 0)
(3 1.35729e-06 0)
(2.99999 2.71343e-06 0)
(2.99998 8.46728e-06 0)
(2.99995 1.62158e-05 0)
(2.99988 4.91879e-05 0)
(2.99974 9.28763e-05 0)
(2.99934 0.000282609 0)
(2.99855 0.000526286 0)
(2.99608 0.00164663 0)
(2.99179 0.00295448 0)
(2.97584 0.010062 0)
(2.947 0.0175464 0)
(2.84221 0.0647356 0)
(2.56436 0.145017 0)
(1.88973 0.44368 0)
(1.24408 0.790654 0)
(1.12578 0.839063 0)
(1.13143 0.860577 0)
(1.18006 0.860192 0)
(1.24305 0.8637 0)
(1.3076 0.874819 0)
(1.38455 0.882972 0)
(3 2.11235e-08 0)
(3 8.1563e-08 0)
(3 3.72585e-07 0)
(3 8.09998e-07 0)
(2.99999 2.60039e-06 0)
(2.99998 5.13946e-06 0)
(2.99997 1.54183e-05 0)
(2.99991 2.97734e-05 0)
(2.99981 8.84782e-05 0)
(2.9995 0.000168775 0)
(2.9989 0.00051068 0)
(2.9971 0.000935572 0)
(2.9937 0.0031026 0)
(2.98246 0.00507478 0)
(2.96144 0.0202019 0)
(2.8875 0.0337264 0)
(2.69606 0.136759 0)
(2.20156 0.317603 0)
(1.42568 0.808019 0)
(1.18291 0.869692 0)
(1.1715 0.885216 0)
(1.20728 0.883475 0)
(1.2706 0.875369 0)
(1.33701 0.876709 0)
(1.40821 0.879572 0)
(3 1.33983e-08 0)
(3 7.29082e-08 0)
(3 2.71579e-07 0)
(3 6.97279e-07 0)
(3 1.92375e-06 0)
(2.99999 4.4192e-06 0)
(2.99998 1.15139e-05 0)
(2.99994 2.58454e-05 0)
(2.99986 6.6631e-05 0)
(2.99969 0.000148649 0)
(2.99919 0.00038354 0)
(2.99823 0.000854834 0)
(2.99524 0.00222382 0)
(2.98993 0.00494984 0)
(2.97115 0.0134322 0)
(2.9336 0.0306311 0)
(2.81242 0.0891516 0)
(2.47554 0.246753 0)
(1.76141 0.649794 0)
(1.29769 0.863427 0)
(1.23135 0.893764 0)
(1.24453 0.901792 0)
(1.29789 0.891074 0)
(1.36393 0.883835 0)
(1.43105 0.881106 0)
(3 7.04624e-09 0)
(3 5.47304e-08 0)
(3 1.68692e-07 0)
(3 5.07762e-07 0)
(3 1.20535e-06 0)
(2.99999 3.18493e-06 0)
(2.99998 7.18149e-06 0)
(2.99996 1.8469e-05 0)
(2.99991 4.11076e-05 0)
(2.99976 0.000105374 0)
(2.99948 0.000233239 0)
(2.99864 0.000604619 0)
(2.99711 0.00131498 0)
(2.99179 0.00359543 0)
(2.98281 0.00750298 0)
(2.94951 0.0220281 0)
(2.87593 0.0522524 0)
(2.65911 0.148632 0)
(2.03974 0.438562 0)
(1.46157 0.834123 0)
(1.29193 0.900363 0)
(1.28439 0.918612 0)
(1.32297 0.910976 0)
(1.38664 0.894465 0)
(1.45174 0.885726 0)
(3 7.80343e-09 0)
(3 3.09966e-08 0)
(3 1.38914e-07 0)
(3 3.07844e-07 0)
(3 9.72307e-07 0)
(3 1.95762e-06 0)
(2.99999 5.77021e-06 0)
(2.99997 1.13701e-05 0)
(2.99993 3.30787e-05 0)
(2.99985 6.46325e-05 0)
(2.99961 0.000189486 0)
(2.99913 0.000363208 0)
(2.99774 0.00111737 0)
(2.99507 0.00200387 0)
(2.9865 0.0069609 0)
(2.97033 0.0119546 0)
(2.91598 0.044074 0)
(2.78066 0.0959968 0)
(2.40326 0.300435 0)
(1.6989 0.748481 0)
(1.37948 0.900112 0)
(1.33329 0.928014 0)
(1.35023 0.930728 0)
(1.40557 0.911987 0)
(1.47113 0.89517 0)
(3 3.64829e-09 0)
(3 2.83309e-08 0)
(3 8.72995e-08 0)
(3 2.62896e-07 0)
(3 6.24207e-07 0)
(3 1.65154e-06 0)
(2.99999 3.72693e-06 0)
(2.99998 9.60349e-06 0)
(2.99995 2.14128e-05 0)
(2.9999 5.49966e-05 0)
(2.99973 0.000122092 0)
(2.99941 0.000315327 0)
(2.99848 0.000696596 0)
(2.99666 0.00183764 0)
(2.99111 0.00399695 0)
(2.98048 0.0110902 0)
(2.94611 0.0247351 0)
(2.86379 0.0714959 0)
(2.6371 0.186905 0)
(2.0064 0.541004 0)
(1.51805 0.873033 0)
(1.39149 0.930533 0)
(1.38598 0.94553 0)
(1.42446 0.933847 0)
(1.48631 0.908179 0)
(3 2.07329e-09 0)
(3 2.21288e-08 0)
(3 5.9184e-08 0)
(3 2.00431e-07 0)
(3 4.25827e-07 0)
(3 1.24831e-06 0)
(2.99999 2.53895e-06 0)
(2.99999 7.21723e-06 0)
(2.99997 1.45347e-05 0)
(2.99993 4.10864e-05 0)
(2.99982 8.23264e-05 0)
(2.99961 0.000233513 0)
(2.999 0.00046466 0)
(2.99782 0.0013386 0)
(2.99418 0.00261498 0)
(2.98769 0.00792748 0)
(2.96487 0.015238 0)
(2.91765 0.0493524 0)
(2.77382 0.111763 0)
(2.33676 0.359134 0)
(1.75578 0.776636 0)
(1.48013 0.91838 0)
(1.43565 0.948334 0)
(1.44899 0.950784 0)
(1.49981 0.92771 0)
(3 1.41285e-09 0)
(3 1.48225e-08 0)
(3 3.991e-08 0)
(3 1.34548e-07 0)
(3 2.87345e-07 0)
(3 8.38181e-07 0)
(3 1.71349e-06 0)
(2.99999 4.84268e-06 0)
(2.99998 9.81079e-06 0)
(2.99995 2.75312e-05 0)
(2.99989 5.55914e-05 0)
(2.99973 0.000156102 0)
(2.9994 0.00031365 0)
(2.99845 0.00089195 0)
(2.99658 0.00175238 0)
(2.99105 0.00530965 0)
(2.97968 0.00972692 0)
(2.94592 0.0331325 0)
(2.864 0.0675913 0)
(2.63136 0.219057 0)
(2.04531 0.58095 0)
(1.61104 0.889009 0)
(1.49544 0.948298 0)
(1.48501 0.962731 0)
(1.51582 0.950982 0)
(3 1.55104e-09 0)
(3 8.34382e-09 0)
(3 3.11088e-08 0)
(3 7.97824e-08 0)
(3 2.1943e-07 0)
(3 5.03013e-07 0)
(3 1.3031e-06 0)
(2.99999 2.91604e-06 0)
(2.99999 7.45884e-06 0)
(2.99997 1.65869e-05 0)
(2.99993 4.23725e-05 0)
(2.99983 9.39199e-05 0)
(2.99962 0.00024085 0)
(2.99902 0.000532204 0)
(2.99786 0.00137906 0)
(2.99434 0.00305295 0)
(2.98799 0.00800558 0)
(2.9661 0.0185853 0)
(2.92151 0.0489978 0)
(2.78388 0.127656 0)
(2.37309 0.36722 0)
(1.83965 0.785781 0)
(1.58205 0.930227 0)
(1.53399 0.9617 0)
(1.54105 0.96637 0)
(3 1.17819e-09 0)
(3 5.24529e-09 0)
(3 2.19243e-08 0)
(3 5.11048e-08 0)
(3 1.53215e-07 0)
(3 3.22854e-07 0)
(3 9.05053e-07 0)
(3 1.86844e-06 0)
(2.99999 5.15465e-06 0)
(2.99998 1.05953e-05 0)
(2.99996 2.91135e-05 0)
(2.99989 5.9696e-05 0)
(2.99976 0.000164191 0)
(2.9994 0.000335081 0)
(2.99868 0.0009316 0)
(2.99655 0.00186332 0)
(2.99265 0.00547787 0)
(2.97944 0.0102373 0)
(2.95499 0.0339751 0)
(2.87282 0.0679046 0)
(2.64571 0.230854 0)
(2.15459 0.559891 0)
(1.70693 0.897657 0)
(1.5907 0.96189 0)
(1.5755 0.976366 0)
(3 7.36445e-10 0)
(3 3.27299e-09 0)
(3 1.36813e-08 0)
(3 3.19188e-08 0)
(3 9.55798e-08 0)
(3 2.01503e-07 0)
(3 5.63721e-07 0)
(3 1.16382e-06 0)
(3 3.20266e-06 0)
(2.99999 6.58271e-06 0)
(2.99997 1.80353e-05 0)
(2.99994 3.70021e-05 0)
(2.99985 0.000101388 0)
(2.99966 0.000207372 0)
(2.99914 0.000572438 0)
(2.99812 0.00115502 0)
(2.99498 0.0033185 0)
(2.98949 0.00633314 0)
(2.97 0.0203681 0)
(2.93188 0.0386876 0)
(2.80958 0.130068 0)
(2.46587 0.33602 0)
(1.95498 0.755667 0)
(1.68239 0.929277 0)
(1.6254 0.967395 0)
(3 3.12284e-10 0)
(3 2.4191e-09 0)
(3 7.45357e-09 0)
(3 2.23499e-08 0)
(3 5.29889e-08 0)
(3 1.39145e-07 0)
(3 3.13164e-07 0)
(3 7.98334e-07 0)
(3 1.77542e-06 0)
(2.99999 4.4939e-06 0)
(2.99998 9.95948e-06 0)
(2.99996 2.51762e-05 0)
(2.99991 5.56525e-05 0)
(2.99979 0.000140967 0)
(2.99947 0.000310501 0)
(2.99884 0.000796638 0)
(2.99697 0.00172157 0)
(2.99361 0.0046771 0)
(2.98195 0.0096218 0)
(2.96125 0.0287092 0)
(2.89007 0.0637361 0)
(2.70053 0.196106 0)
(2.27205 0.503677 0)
(1.81995 0.876074 0)
(1.68196 0.958426 0)
(3 1.70447e-10 0)
(3 1.64936e-09 0)
(3 4.59341e-09 0)
(3 1.49589e-08 0)
(3 3.27861e-08 0)
(3 9.25136e-08 0)
(3 1.93532e-07 0)
(3 5.28792e-07 0)
(3 1.09507e-06 0)
(3 2.96819e-06 0)
(2.99999 6.13226e-06 0)
(2.99998 1.65866e-05 0)
(2.99994 3.42121e-05 0)
(2.99987 9.26112e-05 0)
(2.99968 0.000190375 0)
(2.9993 0.000519701 0)
(2.99821 0.0010512 0)
(2.99607 0.00299959 0)
(2.98981 0.00570758 0)
(2.977 0.0183818 0)
(2.93949 0.0342854 0)
(2.84608 0.117008 0)
(2.59899 0.280715 0)
(2.07244 0.706846 0)
(1.77769 0.915995 0)
(3 1.23546e-10 0)
(3 9.53585e-10 0)
(3 2.9402e-09 0)
(3 8.79354e-09 0)
(3 2.08509e-08 0)
(3 5.46116e-08 0)
(3 1.22909e-07 0)
(3 3.1255e-07 0)
(3 6.95137e-07 0)
(3 1.75532e-06 0)
(2.99999 3.8921e-06 0)
(2.99999 9.8132e-06 0)
(2.99997 2.17248e-05 0)
(2.99992 5.4811e-05 0)
(2.99983 0.000121094 0)
(2.99956 0.000306573 0)
(2.99903 0.000675214 0)
(2.99749 0.00172563 0)
(2.99468 0.00380089 0)
(2.98525 0.00985405 0)
(2.96834 0.0226601 0)
(2.91059 0.0591932 0)
(2.76914 0.157001 0)
(2.40697 0.407602 0)
(1.93579 0.826193 0)
(3 1.04763e-10 0)
(3 4.74142e-10 0)
(3 1.95241e-09 0)
(3 4.6178e-09 0)
(3 1.36282e-08 0)
(3 2.90654e-08 0)
(3 8.00857e-08 0)
(3 1.67086e-07 0)
(3 4.52693e-07 0)
(3 9.40237e-07 0)
(3 2.53519e-06 0)
(2.99999 5.26222e-06 0)
(2.99998 1.41638e-05 0)
(2.99996 2.93844e-05 0)
(2.99989 7.90963e-05 0)
(2.99976 0.000163724 0)
(2.9994 0.000443083 0)
(2.99868 0.000908537 0)
(2.99657 0.0025369 0)
(2.9927 0.00498393 0)
(2.97994 0.0152018 0)
(2.95566 0.0299116 0)
(2.87795 0.094302 0)
(2.67046 0.236974 0)
(2.23392 0.605415 0)
(3 4.36646e-11 0)
(3 3.37993e-10 0)
(3 1.04157e-09 0)
(3 3.11947e-09 0)
(3 7.39461e-09 0)
(3 1.9379e-08 0)
(3 4.3588e-08 0)
(3 1.10823e-07 0)
(3 2.46271e-07 0)
(3 6.21368e-07 0)
(3 1.37668e-06 0)
(3 3.46519e-06 0)
(2.99999 7.66856e-06 0)
(2.99997 1.92848e-05 0)
(2.99994 4.26155e-05 0)
(2.99986 0.000107231 0)
(2.99965 0.000236378 0)
(2.99924 0.000598297 0)
(2.99807 0.00130737 0)
(2.9958 0.00341319 0)
(2.98902 0.00720768 0)
(2.97581 0.020266 0)
(2.93551 0.0440434 0)
(2.83499 0.12919 0)
(2.57364 0.335808 0)
(3 2.28809e-11 0)
(3 2.12878e-10 0)
(3 6.02511e-10 0)
(3 1.93266e-09 0)
(3 4.29127e-09 0)
(3 1.19334e-08 0)
(3 2.52673e-08 0)
(3 6.79843e-08 0)
(3 1.42443e-07 0)
(3 3.7986e-07 0)
(3 7.94055e-07 0)
(3 2.1107e-06 0)
(2.99999 4.40913e-06 0)
(2.99999 1.1701e-05 0)
(2.99996 2.44157e-05 0)
(2.99992 6.47844e-05 0)
(2.9998 0.000134802 0)
(2.99957 0.000358813 0)
(2.99891 0.000742401 0)
(2.99762 0.00200382 0)
(2.9939 0.00408597 0)
(2.98638 0.0114881 0)
(2.96466 0.0235257 0)
(2.91389 0.0688757 0)
(2.77499 0.165364 0)
(3 1.31109e-11 0)
(3 1.21301e-10 0)
(3 3.44424e-10 0)
(3 1.10322e-09 0)
(3 2.45567e-09 0)
(3 6.81611e-09 0)
(3 1.44637e-08 0)
(3 3.88298e-08 0)
(3 8.15294e-08 0)
(3 2.16932e-07 0)
(3 4.54503e-07 0)
(3 1.20569e-06 0)
(3 2.52565e-06 0)
(2.99999 6.69023e-06 0)
(2.99998 1.40134e-05 0)
(2.99995 3.71029e-05 0)
(2.9999 7.76245e-05 0)
(2.99975 0.00020588 0)
(2.99944 0.000429538 0)
(2.99859 0.00114793 0)
(2.99689 0.00238332 0)
(2.99208 0.00649407 0)
(2.98201 0.013706 0)
(2.95385 0.0380374 0)
(2.88626 0.088968 0)
(3 1.20024e-11 0)
(3 5.62204e-11 0)
(3 2.26543e-10 0)
(3 5.4396e-10 0)
(3 1.57795e-09 0)
(3 3.4097e-09 0)
(3 9.23491e-09 0)
(3 1.95024e-08 0)
(3 5.1905e-08 0)
(3 1.09044e-07 0)
(3 2.88661e-07 0)
(3 6.0569e-07 0)
(3 1.59975e-06 0)
(3 3.35463e-06 0)
(2.99999 8.85101e-06 0)
(2.99997 1.8538e-05 0)
(2.99994 4.89316e-05 0)
(2.99986 0.00010226 0)
(2.9997 0.000270871 0)
(2.99925 0.000564041 0)
(2.99835 0.00150712 0)
(2.99582 0.0031494 0)
(2.99081 0.00850145 0)
(2.97627 0.0183287 0)
(2.94487 0.050213 0)
(3 6.67485e-12 0)
(3 3.15779e-11 0)
(3 1.26575e-10 0)
(3 3.04716e-10 0)
(3 8.80754e-10 0)
(3 1.90682e-09 0)
(3 5.14547e-09 0)
(3 1.08836e-08 0)
(3 2.88494e-08 0)
(3 6.06864e-08 0)
(3 1.59931e-07 0)
(3 3.35932e-07 0)
(3 8.82764e-07 0)
(3 1.85292e-06 0)
(2.99999 4.85947e-06 0)
(2.99999 1.01892e-05 0)
(2.99997 2.66942e-05 0)
(2.99993 5.58509e-05 0)
(2.99983 0.000146474 0)
(2.99962 0.000305433 0)
(2.99904 0.000806021 0)
(2.9979 0.00166924 0)
(2.99466 0.00448414 0)
(2.98813 0.0093077 0)
(2.96941 0.0256738 0)
(3 2.58066e-12 0)
(3 1.98999e-11 0)
(3 6.1249e-11 0)
(3 1.83179e-10 0)
(3 4.33819e-10 0)
(3 1.13367e-09 0)
(3 2.54586e-09 0)
(3 6.44603e-09 0)
(3 1.4292e-08 0)
(3 3.58772e-08 0)
(3 7.92731e-08 0)
(3 1.9843e-07 0)
(3 4.37923e-07 0)
(3 1.09483e-06 0)
(3 2.41459e-06 0)
(2.99999 6.03351e-06 0)
(2.99998 1.3297e-05 0)
(2.99996 3.32289e-05 0)
(2.99991 7.31411e-05 0)
(2.99979 0.000183009 0)
(2.99949 0.00040205 0)
(2.99888 0.00101127 0)
(2.99717 0.00221766 0)
(2.99387 0.00566079 0)
(2.98388 0.0125869 0)
(3 1.27349e-12 0)
(3 1.15156e-11 0)
(3 3.31019e-11 0)
(3 1.04671e-10 0)
(3 2.353e-10 0)
(3 6.44974e-10 0)
(3 1.38035e-09 0)
(3 3.65742e-09 0)
(3 7.73928e-09 0)
(3 2.03172e-08 0)
(3 4.2878e-08 0)
(3 1.12201e-07 0)
(3 2.36681e-07 0)
(3 6.18259e-07 0)
(3 1.30439e-06 0)
(3 3.40237e-06 0)
(2.99999 7.17988e-06 0)
(2.99998 1.87019e-05 0)
(2.99995 3.94496e-05 0)
(2.99989 0.000102689 0)
(2.99973 0.000216158 0)
(2.99941 0.000564148 0)
(2.99853 0.00118131 0)
(2.99677 0.00313261 0)
(2.99188 0.00645609 0)
(3 6.71792e-13 0)
(3 6.07697e-12 0)
(3 1.74895e-11 0)
(3 5.52961e-11 0)
(3 1.24382e-10 0)
(3 3.40669e-10 0)
(3 7.29813e-10 0)
(3 1.93189e-09 0)
(3 4.09193e-09 0)
(3 1.0729e-08 0)
(3 2.2665e-08 0)
(3 5.92256e-08 0)
(3 1.25054e-07 0)
(3 3.26162e-07 0)
(3 6.88715e-07 0)
(3 1.79352e-06 0)
(3 3.78709e-06 0)
(2.99999 9.84918e-06 0)
(2.99998 2.07845e-05 0)
(2.99994 5.40272e-05 0)
(2.99987 0.000113808 0)
(2.99968 0.000296342 0)
(2.99931 0.00062254 0)
(2.99827 0.00163 0)
(2.99625 0.003433 0)
(3 5.00766e-13 0)
(3 2.76033e-12 0)
(3 1.02151e-11 0)
(3 2.61921e-11 0)
(3 7.13558e-11 0)
(3 1.62943e-10 0)
(3 4.16012e-10 0)
(3 9.2528e-10 0)
(3 2.32334e-09 0)
(3 5.13311e-09 0)
(3 1.2825e-08 0)
(3 2.82799e-08 0)
(3 7.05061e-08 0)
(3 1.55351e-07 0)
(3 3.86753e-07 0)
(3 8.51715e-07 0)
(3 2.11759e-06 0)
(2.99999 4.66026e-06 0)
(2.99999 1.15728e-05 0)
(2.99997 2.54382e-05 0)
(2.99993 6.31329e-05 0)
(2.99984 0.000138486 0)
(2.99965 0.000344316 0)
(2.99912 0.000752116 0)
(2.99807 0.00189173 0)
(3 2.73508e-13 0)
(3 1.40375e-12 0)
(3 5.57481e-12 0)
(3 1.35874e-11 0)
(3 3.87483e-11 0)
(3 8.47195e-11 0)
(3 2.25086e-10 0)
(3 4.80161e-10 0)
(3 1.25335e-09 0)
(3 2.65753e-09 0)
(3 6.89892e-09 0)
(3 1.46048e-08 0)
(3 3.78275e-08 0)
(3 8.00438e-08 0)
(3 2.07012e-07 0)
(3 4.37972e-07 0)
(3 1.13114e-06 0)
(3 2.39261e-06 0)
(2.99999 6.17094e-06 0)
(2.99999 1.3044e-05 0)
(2.99997 3.36146e-05 0)
(2.99992 7.09228e-05 0)
(2.99982 0.000182985 0)
(2.99956 0.000384858 0)
(2.99903 0.000999318 0)
(3 1.40651e-13 0)
(3 7.1444e-13 0)
(3 2.80032e-12 0)
(3 6.85898e-12 0)
(3 1.95409e-11 0)
(3 4.26853e-11 0)
(3 1.13514e-10 0)
(3 2.42232e-10 0)
(3 6.31846e-10 0)
(3 1.33961e-09 0)
(3 3.47338e-09 0)
(3 7.35039e-09 0)
(3 1.90145e-08 0)
(3 4.02204e-08 0)
(3 1.03911e-07 0)
(3 2.19788e-07 0)
(3 5.67214e-07 0)
(3 1.19984e-06 0)
(3 3.09312e-06 0)
(2.99999 6.54297e-06 0)
(2.99998 1.68523e-05 0)
(2.99996 3.56323e-05 0)
(2.99991 9.17716e-05 0)
(2.9998 0.000193753 0)
(2.99949 0.00050039 0)
(3 5.45971e-14 0)
(3 4.23592e-13 0)
(3 1.28049e-12 0)
(3 3.8159e-12 0)
(3 8.9968e-12 0)
(3 2.33654e-11 0)
(3 5.23407e-11 0)
(3 1.31658e-10 0)
(3 2.91013e-10 0)
(3 7.25617e-10 0)
(3 1.59778e-09 0)
(3 3.9726e-09 0)
(3 8.73664e-09 0)
(3 2.1699e-08 0)
(3 4.76975e-08 0)
(3 1.18407e-07 0)
(3 2.60222e-07 0)
(3 6.45759e-07 0)
(3 1.41905e-06 0)
(3 3.52011e-06 0)
(2.99999 7.73352e-06 0)
(2.99998 1.91789e-05 0)
(2.99995 4.21024e-05 0)
(2.9999 0.000104471 0)
(2.99975 0.000228998 0)
(3 3.89137e-14 0)
(3 1.99896e-13 0)
(3 6.44761e-13 0)
(3 1.97917e-12 0)
(3 4.49529e-12 0)
(3 1.21937e-11 0)
(3 2.62393e-11 0)
(3 6.84542e-11 0)
(3 1.45604e-10 0)
(3 3.76175e-10 0)
(3 7.9804e-10 0)
(3 2.05645e-09 0)
(3 4.36103e-09 0)
(3 1.1222e-08 0)
(3 2.37989e-08 0)
(3 6.11726e-08 0)
(3 1.29761e-07 0)
(3 3.33183e-07 0)
(3 7.06962e-07 0)
(3 1.81318e-06 0)
(3 3.84776e-06 0)
(2.99999 9.85805e-06 0)
(2.99998 2.091e-05 0)
(2.99995 5.35496e-05 0)
(2.99988 0.000113414 0)
(3 1.71322e-14 0)
(3 7.67162e-14 0)
(3 2.63005e-13 0)
(3 8.50006e-13 0)
(3 2.09376e-12 0)
(3 5.59812e-12 0)
(3 1.26813e-11 0)
(3 3.20435e-11 0)
(3 7.09435e-11 0)
(3 1.76699e-10 0)
(3 3.89166e-10 0)
(3 9.65987e-10 0)
(3 2.12485e-09 0)
(3 5.2664e-09 0)
(3 1.15786e-08 0)
(3 2.86677e-08 0)
(3 6.30083e-08 0)
(3 1.55847e-07 0)
(3 3.42419e-07 0)
(3 8.46082e-07 0)
(3 1.85806e-06 0)
(3 4.58663e-06 0)
(2.99999 1.00638e-05 0)
(2.99998 2.4828e-05 0)
(2.99995 5.43915e-05 0)
(3 1.18205e-14 0)
(3 4.21651e-14 0)
(3 1.69166e-13 0)
(3 3.74131e-13 0)
(3 1.0991e-12 0)
(3 2.31462e-12 0)
(3 6.20223e-12 0)
(3 1.28286e-11 0)
(3 3.37919e-11 0)
(3 7.00982e-11 0)
(3 1.84312e-10 0)
(3 3.82632e-10 0)
(3 1.0043e-09 0)
(3 2.08575e-09 0)
(3 5.46342e-09 0)
(3 1.13514e-08 0)
(3 2.96746e-08 0)
(3 6.16816e-08 0)
(3 1.6091e-07 0)
(3 3.34581e-07 0)
(3 8.7095e-07 0)
(3 1.81112e-06 0)
(2.99999 4.70516e-06 0)
(2.99999 9.77932e-06 0)
(2.99997 2.53737e-05 0)
(3 9.29847e-15 0)
(3 2.86446e-14 0)
(3 8.08727e-14 0)
(3 1.63476e-13 0)
(3 3.73331e-13 0)
(3 8.26186e-13 0)
(3 1.79034e-12 0)
(3 4.13789e-12 0)
(3 8.90664e-12 0)
(3 2.18089e-11 0)
(3 4.77169e-11 0)
(3 1.1811e-10 0)
(3 2.5926e-10 0)
(3 6.42108e-10 0)
(3 1.40929e-09 0)
(3 3.48662e-09 0)
(3 7.64986e-09 0)
(3 1.88998e-08 0)
(3 4.14505e-08 0)
(3 1.02238e-07 0)
(3 2.24111e-07 0)
(3 5.51694e-07 0)
(3 1.20833e-06 0)
(2.99999 2.96831e-06 0)
(2.99998 6.49077e-06 0)
(1.2989 1.1053 0)
(1.73982 0.901741 0)
(1.94612 0.629224 0)
(1.9833 0.354489 0)
(1.93772 0.129587 0)
(1.84611 -0.0184377 0)
(1.75213 -0.0563193 0)
(1.70667 -0.0284329 0)
(1.70242 0.0115645 0)
(1.70925 0.0358188 0)
(1.71881 0.0386971 0)
(1.7257 0.0285769 0)
(1.72754 0.0184543 0)
(1.72912 0.0099514 0)
(1.73039 0.00554788 0)
(1.73264 0.00540747 0)
(1.73618 0.00677313 0)
(1.74039 0.00839777 0)
(1.74618 0.00937855 0)
(1.75368 0.00887915 0)
(1.7618 0.00718519 0)
(1.77001 0.00515884 0)
(1.77854 0.00343209 0)
(1.78762 0.0022138 0)
(1.79739 0.00139809 0)
(1.80781 0.000808696 0)
(1.8188 0.000318291 0)
(1.83028 -0.000128361 0)
(1.84216 -0.000536758 0)
(1.85437 -0.000893828 0)
(1.86686 -0.00118844 0)
(1.87956 -0.0014186 0)
(1.89243 -0.00159037 0)
(1.9054 -0.00171373 0)
(1.91845 -0.00179913 0)
(1.93152 -0.0018562 0)
(1.94459 -0.001893 0)
(1.95764 -0.00191521 0)
(1.97066 -0.00192999 0)
(1.9836 -0.00194439 0)
(1.99648 -0.00195408 0)
(2.00931 -0.00196858 0)
(2.02208 -0.00201092 0)
(2.03474 -0.00207248 0)
(2.0473 -0.00212538 0)
(2.05984 -0.00219204 0)
(2.07231 -0.00227167 0)
(2.08472 -0.00238607 0)
(2.09704 -0.00257561 0)
(2.1092 -0.00290625 0)
(2.12059 -0.00345372 0)
(2.13011 -0.00538261 0)
(2.1379 -0.00759763 0)
(2.14399 -0.010951 0)
(2.14585 -0.0172889 0)
(2.13846 -0.0302014 0)
(2.1126 -0.0570963 0)
(2.05218 -0.11291 0)
(1.93785 -0.202193 0)
(1.78936 -0.276348 0)
(1.65272 -0.285666 0)
(1.55869 -0.223886 0)
(1.51838 -0.124051 0)
(1.52994 -0.0318305 0)
(1.56508 0.0151211 0)
(1.6007 0.026287 0)
(1.64299 0.0125442 0)
(1.68529 -0.0121956 0)
(1.7184 -0.0389965 0)
(1.74725 -0.0558072 0)
(1.77547 -0.0557741 0)
(1.80314 -0.0448387 0)
(1.83106 -0.0279156 0)
(1.85997 -0.00985898 0)
(1.8903 0.00557484 0)
(1.92272 0.0149505 0)
(1.95494 0.0162307 0)
(1.98537 0.0116648 0)
(2.01426 0.00306781 0)
(2.04133 -0.0065079 0)
(2.0667 -0.0146664 0)
(2.09081 -0.0200365 0)
(2.11401 -0.0223045 0)
(2.13666 -0.021564 0)
(2.15914 -0.0184948 0)
(2.18168 -0.01407 0)
(2.20444 -0.0093719 0)
(2.22719 -0.00522903 0)
(2.24967 -0.00209396 0)
(2.27163 -5.42049e-05 0)
(2.29297 0.00111763 0)
(2.31371 0.0016004 0)
(2.33387 0.00156499 0)
(2.35341 0.00117123 0)
(2.37231 0.000586279 0)
(2.39047 -1.28514e-05 0)
(2.40786 -0.000587415 0)
(2.42362 -0.000745773 0)
(2.43746 -0.00104795 0)
(2.44783 -0.000246316 0)
(1.37741 1.0136 0)
(1.70453 0.732319 0)
(1.88979 0.417621 0)
(1.98221 0.145937 0)
(2.03507 -0.0476873 0)
(2.06785 -0.151074 0)
(2.08141 -0.162781 0)
(2.08309 -0.126319 0)
(2.07593 -0.0816222 0)
(2.0609 -0.0449554 0)
(2.04783 -0.0224452 0)
(2.04541 -0.0159127 0)
(2.04842 -0.0170606 0)
(2.0528 -0.0203501 0)
(2.05817 -0.0227063 0)
(2.06298 -0.0235678 0)
(2.06668 -0.0231869 0)
(2.06977 -0.0214487 0)
(2.07301 -0.0193569 0)
(2.07695 -0.017939 0)
(2.08166 -0.0174246 0)
(2.08694 -0.0174 0)
(2.0926 -0.0174674 0)
(2.09846 -0.0174549 0)