0.0005 	0.00348 	2.9640062e-21 	1
0.0015 	0.00348 	9.3329583e-12 	1
0.0025 	0.00348 	2.7505128e-12 	1
0.0035 	0.00348 	1.2046123e-11 	1
0.0045 	0.00348 	9.4759025e-13 	1
0.0055 	0.00348 	1.3365413e-11 	1
0.0065 	0.00348 	2.8670914e-11 	1
0.0075 	0.00348 	2.0633236e-11 	1
0.0085 	0.00348 	2.3636847e-11 	1
0.0095 	0.00348 	3.4316662e-12 	1
0.0105 	0.00348 	2.0934353e-11 	1
0.0115 	0.00348 	2.3455777e-12 	1
0.0125 	0.00348 	5.9056272e-12 	1
0.0135 	0.00348 	1.0987934e-11 	1
0.0145 	0.00348 	1.5653969e-11 	1
0.0155 	0.00348 	2.2826977e-11 	1
0.0165 	0.00348 	1.0468955e-11 	1
0.0175 	0.00348 	6.6778159e-12 	1
0.0185 	0.00348 	7.2381446e-12 	1
0.0195 	0.00348 	8.0519052e-12 	1
0.0205 	0.00348 	1.0072245e-11 	1
0.0215 	0.00348 	4.5852253e-12 	1
0.0225 	0.00348 	9.4651207e-12 	1
0.0235 	0.00348 	1.260145e-11 	1
0.0245 	0.00348 	3.3677525e-12 	1
0.0255 	0.00348 	6.1690628e-12 	1
0.0265 	0.00348 	4.4931896e-12 	1
0.0275 	0.00348 	2.3751447e-12 	1
0.0285 	0.00348 	7.724e-12 	1
0.0295 	0.00348 	1.3185121e-12 	1
0.0305 	0.00348 	1.6603671e-11 	1
0.0315 	0.00348 	1.4090473e-11 	1
0.0325 	0.00348 	8.0091108e-12 	1
0.0335 	0.00348 	2.9737105e-12 	1
0.0345 	0.00348 	4.5938954e-12 	1
0.0355 	0.00348 	1.2772628e-11 	1
0.0365 	0.00348 	2.4963029e-12 	1
0.0375 	0.00348 	4.7423975e-12 	1
0.0385 	0.00348 	1.1312616e-11 	1
0.0395 	0.00348 	1.2850213e-11 	1
0.0405 	0.00348 	1.2648024e-11 	1
0.0415 	0.00348 	1.9927407e-11 	1
0.0425 	0.00348 	5.9455315e-12 	1
0.0435 	0.00348 	1.6689038e-11 	1
0.0445 	0.00348 	2.1524916e-11 	1
0.0455 	0.00348 	3.2399806e-11 	1
0.0465 	0.00348 	1.0232752e-11 	1
0.0475 	0.00348 	7.1952391e-12 	1
0.0485 	0.00348 	6.7022699e-12 	1
0.0495 	0.00348 	1.3764457e-11 	1
0.0505 	0.00348 	1.1613733e-11 	1
0.0515 	0.00348 	1.7275043e-11 	1
0.0525 	0.00348 	1.6410819e-12 	1
0.0535 	0.00348 	2.666369e-12 	1
0.0545 	0.00348 	3.8416032e-12 	1
0.0555 	0.00348 	1.6578661e-12 	1
0.0565 	0.00348 	1.1866276e-11 	1
0.0575 	0.00348 	6.4615097e-12 	1
0.0585 	0.00348 	8.1140404e-12 	1
0.0595 	0.00348 	3.4703479e-12 	1
0.0605 	0.00348 	1.5422657e-12 	1
0.0615 	0.00348 	3.8004761e-12 	1
0.0625 	0.00348 	1.1784577e-12 	1
0.0635 	0.00348 	1.2324898e-11 	1
0.0645 	0.00348 	1.3230583e-11 	1
0.0655 	0.00348 	3.6088461e-12 	1
0.0665 	0.00348 	1.758383e-11 	1
0.0675 	0.00348 	1.4494518e-13 	1
0.0685 	0.00348 	1.2159945e-11 	1
0.0695 	0.00348 	1.0882004e-12 	1
0.0705 	0.00348 	1.4816533e-11 	1
0.0715 	0.00348 	8.6553618e-12 	1
0.0725 	0.00348 	1.9557374e-11 	1
0.0735 	0.00348 	2.2128373e-11 	1
0.0745 	0.00348 	3.168564e-12 	1
0.0755 	0.00348 	1.1052737e-11 	1
0.0765 	0.00348 	7.2584859e-12 	1
0.0775 	0.00348 	1.0890897e-12 	1
0.0785 	0.00348 	1.6109479e-11 	1
0.0795 	0.00348 	4.9710419e-12 	1
0.0805 	0.00348 	1.3393535e-11 	1
0.0815 	0.00348 	1.7507244e-11 	1
0.0825 	0.00348 	7.0728583e-12 	1
0.0835 	0.00348 	3.611725e-11 	1
0.0845 	0.00348 	7.3771987e-12 	1
0.0855 	0.00348 	1.8627457e-11 	1
0.0865 	0.00348 	2.3087856e-12 	1
0.0875 	0.00348 	2.7133872e-12 	1
0.0885 	0.00348 	4.2321994e-12 	1
0.0895 	0.00348 	2.7794684e-11 	1
0.0905 	0.00348 	6.4452812e-12 	1
0.0915 	0.00348 	2.5169665e-11 	1
0.0925 	0.00348 	8.9348037e-12 	1
0.0935 	0.00348 	1.2712715e-12 	1
0.0945 	0.00348 	1.5921295e-11 	1
0.0955 	0.00348 	1.0449725e-11 	1
0.0965 	0.00348 	6.3035594e-13 	1
0.0975 	0.00348 	1.2070577e-11 	1
0.0985 	0.00348 	1.1566381e-11 	1
0.0995 	0.00348 	3.5177663e-11 	1
0.1005 	0.00348 	1.4124486e-11 	1
0.1015 	0.00348 	4.1937956e-11 	1
0.1025 	0.00348 	1.7787131e-11 	1
0.1035 	0.00348 	4.9642726e-11 	1
0.1045 	0.00348 	2.4534752e-11 	1
0.1055 	0.00348 	3.7980641e-11 	1
0.1065 	0.00348 	3.7185554e-12 	1
0.1075 	0.00348 	2.2332341e-11 	1
0.1085 	0.00348 	4.5134197e-12 	1
0.1095 	0.00348 	2.1476786e-11 	1
0.1105 	0.00348 	1.8698596e-11 	1
0.1115 	0.00348 	1.5798803e-11 	1
0.1125 	0.00348 	3.1917953e-12 	1
0.1135 	0.00348 	1.737775e-11 	1
0.1145 	0.00348 	1.1408987e-11 	1
0.1155 	0.00348 	7.2948333e-12 	1
0.1165 	0.00348 	1.8829758e-11 	1
0.1175 	0.00348 	4.0927008e-12 	1
0.1185 	0.00348 	3.0558536e-11 	1
0.1195 	0.00348 	4.9908286e-14 	1
0.1205 	0.00348 	2.5212015e-11 	1
0.1215 	0.00348 	1.9438661e-11 	1
0.1225 	0.00348 	2.7429542e-12 	1
0.1235 	0.00348 	1.734985e-11 	1
0.1245 	0.00348 	1.2607119e-12 	1
0.1255 	0.00348 	1.4012776e-11 	1
0.1265 	0.00348 	2.0970145e-11 	1
0.1275 	0.00348 	3.2229629e-11 	1
0.1285 	0.00348 	2.7516688e-11 	1
0.1295 	0.00348 	3.1972752e-11 	1
0.1305 	0.00348 	3.8435373e-11 	1
0.1315 	0.00348 	1.5694985e-11 	1
0.1325 	0.00348 	2.1617841e-11 	1
0.1335 	0.00348 	3.5497899e-11 	1
0.1345 	0.00348 	2.7793128e-11 	1
0.1355 	0.00348 	3.0138373e-11 	1
0.1365 	0.00348 	1.1688318e-11 	1
0.1375 	0.00348 	4.4370122e-11 	1
0.1385 	0.00348 	3.9459771e-12 	1
0.1395 	0.00348 	2.8765617e-11 	1
0.1405 	0.00348 	5.9882147e-12 	1
0.1415 	0.00348 	1.1967093e-11 	1
0.1425 	0.00348 	1.1350186e-11 	1
0.1435 	0.00348 	2.7869714e-12 	1
0.1445 	0.00348 	3.1948409e-11 	1
0.1455 	0.00348 	1.1738559e-11 	1
0.1465 	0.00348 	3.4116584e-12 	1
0.1475 	0.00348 	1.1020503e-11 	1
0.1485 	0.00348 	1.8829537e-13 	1
0.1495 	0.00348 	1.7159998e-11 	1
0.1505 	0.00348 	2.3805913e-12 	1
0.1515 	0.00348 	8.3825892e-12 	1
0.1525 	0.00348 	7.3541897e-12 	1
0.1535 	0.00348 	1.4197737e-11 	1
0.1545 	0.00348 	6.3963733e-12 	1
0.1555 	0.00348 	1.9021833e-11 	1
0.1565 	0.00348 	1.0141939e-11 	1
0.1575 	0.00348 	3.5838587e-11 	1
0.1585 	0.00348 	1.2702378e-11 	1
0.1595 	0.00348 	6.4226057e-12 	1
0.1605 	0.00348 	1.1199794e-11 	1
0.1615 	0.00348 	1.5978428e-12 	1
0.1625 	0.00348 	1.847851e-11 	1
0.1635 	0.00348 	9.7903582e-12 	1
0.1645 	0.00348 	2.389328e-11 	1
0.1655 	0.00348 	1.1467788e-12 	1
0.1665 	0.00348 	1.2559545e-11 	1
0.1675 	0.00348 	8.4380551e-12 	1
0.1685 	0.00348 	5.9497553e-12 	1
0.1695 	0.00348 	8.2975561e-12 	1
0.1705 	0.00348 	1.7023279e-12 	1
0.1715 	0.00348 	6.496301e-12 	1
0.1725 	0.00348 	2.0455723e-12 	1
0.1735 	0.00348 	3.3916618e-11 	1
0.1745 	0.00348 	1.1009943e-11 	1
0.1755 	0.00348 	2.0572546e-11 	1
0.1765 	0.00348 	7.4501159e-12 	1
0.1775 	0.00348 	1.6909234e-11 	1
0.1785 	0.00348 	1.3017278e-12 	1
0.1795 	0.00348 	2.511242e-11 	1
0.1805 	0.00348 	1.2519307e-11 	1
0.1815 	0.00348 	1.3066964e-11 	1
0.1825 	0.00348 	9.6181802e-12 	1
0.1835 	0.00348 	2.9619282e-12 	1
0.1845 	0.00348 	8.4008185e-12 	1
0.1855 	0.00348 	6.7134964e-12 	1
0.1865 	0.00348 	6.4966344e-12 	1
0.1875 	0.00348 	3.0185057e-12 	1
0.1885 	0.00348 	9.5896135e-12 	1
0.1895 	0.00348 	5.3267356e-12 	1
0.1905 	0.00348 	2.0195844e-11 	1
0.1915 	0.00348 	5.2957235e-12 	1
0.1925 	0.00348 	1.6285881e-11 	1
0.1935 	0.00348 	4.8516622e-12 	1
0.1945 	0.00348 	1.6781518e-11 	1
0.1955 	0.00348 	4.7132751e-12 	1
0.1965 	0.00348 	1.7246921e-11 	1
0.1975 	0.00348 	3.1046836e-11 	1
0.1985 	0.00348 	3.3466221e-11 	1
0.1995 	0.00348 	4.5161096e-11 	1
0.2005 	0.00348 	2.7890166e-11 	1
0.2015 	0.00348 	4.8981358e-11 	1
0.2025 	0.00348 	1.9105087e-11 	1
0.2035 	0.00348 	3.9502787e-11 	1
0.2045 	0.00348 	4.4925449e-11 	1
0.2055 	0.00348 	1.3337403e-11 	1
0.2065 	0.00348 	2.8367462e-11 	1
0.2075 	0.00348 	3.8099576e-11 	1
0.2085 	0.00348 	3.391584e-11 	1
0.2095 	0.00348 	2.2406369e-11 	1
0.2105 	0.00348 	4.5648174e-11 	1
0.2115 	0.00348 	3.0683362e-11 	1
0.2125 	0.00348 	1.1119319e-11 	1
0.2135 	0.00348 	2.2178503e-11 	1
0.2145 	0.00348 	3.9817688e-11 	1
0.2155 	0.00348 	4.3980638e-11 	1
0.2165 	0.00348 	4.2083457e-11 	1
0.2175 	0.00348 	3.1904503e-11 	1
0.2185 	0.00348 	3.5951408e-11 	1
0.2195 	0.00348 	2.0441495e-11 	1
0.2205 	0.00348 	3.4121142e-11 	1
0.2215 	0.00348 	2.3310165e-11 	1
0.2225 	0.00348 	4.710474e-11 	1
0.2235 	0.00348 	6.8178703e-12 	1
0.2245 	0.00348 	1.8060793e-11 	1
0.2255 	0.00348 	4.0326774e-12 	1
0.2265 	0.00348 	2.5641959e-11 	1
0.2275 	0.00348 	9.9446403e-12 	1
0.2285 	0.00348 	1.5113203e-11 	1
0.2295 	0.00348 	3.1063176e-12 	1
0.2305 	0.00348 	1.5865162e-11 	1
0.2315 	0.00348 	2.2517079e-11 	1
0.2325 	0.00348 	1.3830149e-11 	1
0.2335 	0.00348 	1.5724997e-12 	1
0.2345 	0.00348 	1.6482735e-11 	1
0.2355 	0.00348 	6.9053487e-12 	1
0.2365 	0.00348 	2.8235633e-11 	1
0.2375 	0.00348 	5.6019536e-12 	1
0.2385 	0.00348 	9.9887685e-12 	1
0.2395 	0.00348 	1.6630682e-11 	1
0.2405 	0.00348 	1.2960591e-13 	1
0.2415 	0.00348 	3.5512682e-12 	1
0.2425 	0.00348 	1.0279659e-11 	1
0.2435 	0.00348 	1.9133098e-11 	1
0.2445 	0.00348 	1.8250644e-11 	1
0.2455 	0.00348 	2.2588773e-12 	1
0.2465 	0.00348 	2.7064401e-11 	1
0.2475 	0.00348 	1.0553543e-11 	1
0.2485 	0.00348 	1.6625013e-11 	1
0.2495 	0.00348 	2.5463223e-12 	1
0.2505 	0.00348 	1.8596112e-11 	1
0.2515 	0.00348 	4.1845142e-12 	1
0.2525 	0.00348 	1.1992991e-11 	1
0.2535 	0.00348 	2.5180225e-11 	1
0.2545 	0.00348 	1.9251144e-11 	1
0.2555 	0.00348 	7.6910983e-12 	1
0.2565 	0.00348 	2.1652188e-11 	1
0.2575 	0.00348 	2.3425098e-11 	1
0.2585 	0.00348 	6.2203049e-12 	1
0.2595 	0.00348 	9.2353648e-12 	1
0.2605 	0.00348 	5.592172e-12 	1
0.2615 	0.00348 	1.6659804e-11 	1
0.2625 	0.00348 	1.4916794e-11 	1
0.2635 	0.00348 	8.5797769e-12 	1
0.2645 	0.00348 	2.5034946e-11 	1
0.2655 	0.00348 	2.176701e-11 	1
0.2665 	0.00348 	1.3789356e-11 	1
0.2675 	0.00348 	1.8613452e-11 	1
0.2685 	0.00348 	6.2498719e-12 	1
0.2695 	0.00348 	3.7386743e-12 	1
0.2705 	0.00348 	1.1784355e-11 	1
0.2715 	0.00348 	5.3595261e-12 	1
0.2725 	0.00348 	1.5875055e-12 	1
0.2735 	0.00348 	2.5069737e-11 	1
0.2745 	0.00348 	1.8245976e-12 	1
0.2755 	0.00348 	1.5287716e-11 	1
0.2765 	0.00348 	1.2674923e-12 	1
0.2775 	0.00348 	1.5658749e-11 	1
0.2785 	0.00348 	4.4738488e-12 	1
0.2795 	0.00348 	1.0064131e-11 	1
0.2805 	0.00348 	2.1842484e-11 	1
0.2815 	0.00348 	1.1868499e-11 	1
0.2825 	0.00348 	3.7473221e-11 	1
0.2835 	0.00348 	5.8434918e-12 	1
0.2845 	0.00348 	1.7942524e-11 	1
0.2855 	0.00348 	5.2399241e-12 	1
0.2865 	0.00348 	2.1522137e-11 	1
0.2875 	0.00348 	2.8356569e-12 	1
0.2885 	0.00348 	1.2945806e-11 	1
0.2895 	0.00348 	7.3661946e-13 	1
0.2905 	0.00348 	2.1775121e-13 	1
0.2915 	0.00348 	2.5093969e-11 	1
0.2925 	0.00348 	2.5642182e-11 	1
0.2935 	0.00348 	5.9632939e-11 	1
0.2945 	0.00348 	9.0133341e-11 	1
0.2955 	0.00348 	1.6135389e-10 	1
0.2965 	0.00348 	2.3653087e-10 	1
0.2975 	0.00348 	3.4442833e-10 	1
0.2985 	0.00348 	5.2040302e-10 	1
0.2995 	0.00348 	7.5668623e-10 	1
0.3005 	0.00348 	1.0945064e-09 	1
0.3015 	0.00348 	1.5515373e-09 	1
0.3025 	0.00348 	2.1963396e-09 	1
0.3035 	0.00348 	3.1317283e-09 	1
0.3045 	0.00348 	4.3789956e-09 	0.99999999
0.3055 	0.00348 	6.1486076e-09 	0.99999999
0.3065 	0.00348 	8.5833479e-09 	0.99999999
0.3075 	0.00348 	1.19644e-08 	0.99999999
0.3085 	0.00348 	1.6609804e-08 	0.99999998
0.3095 	0.00348 	2.3053427e-08 	0.99999997
0.3105 	0.00348 	3.1830126e-08 	0.99999996
0.3115 	0.00348 	4.3877079e-08 	0.99999995
0.3125 	0.0034799999 	6.0203165e-08 	0.99999993
0.3135 	0.0034799999 	8.2486321e-08 	0.9999999
0.3145 	0.0034799999 	1.1266521e-07 	0.99999987
0.3155 	0.0034799998 	1.5346586e-07 	0.99999982
0.3165 	0.0034799998 	2.0842465e-07 	0.99999976
0.3175 	0.0034799997 	2.8222683e-07 	0.99999967
0.3185 	0.0034799996 	3.8105991e-07 	0.99999955
0.3195 	0.0034799994 	5.1301255e-07 	0.9999994
0.3205 	0.0034799992 	6.8860458e-07 	0.99999919
0.3215 	0.0034799989 	9.2150284e-07 	0.99999892
0.3225 	0.0034799986 	1.2294442e-06 	0.99999856
0.3235 	0.0034799981 	1.6352882e-06 	0.99999809
0.3245 	0.0034799975 	2.1683996e-06 	0.99999746
0.3255 	0.0034799967 	2.8662775e-06 	0.99999664
0.3265 	0.0034799956 	3.7768487e-06 	0.99999558
0.3275 	0.0034799942 	4.960847e-06 	0.99999419
0.3285 	0.0034799925 	6.4950875e-06 	0.99999239
0.3295 	0.0034799902 	8.4761234e-06 	0.99999006
0.3305 	0.0034799872 	1.1025082e-05 	0.99998707
0.3315 	0.0034799834 	1.4292922e-05 	0.99998324
0.3325 	0.0034799785 	1.8467174e-05 	0.99997834
0.3335 	0.0034799723 	2.3779574e-05 	0.9999721
0.3345 	0.0034799645 	3.0515209e-05 	0.99996418
0.3355 	0.0034799545 	3.9023052e-05 	0.99995419
0.3365 	0.0034799421 	4.9728285e-05 	0.9999416
0.3375 	0.0034799264 	6.3146081e-05 	0.99992583
0.3385 	0.0034799068 	7.9897671e-05 	0.99990613
0.3395 	0.0034798825 	0.00010072802 	0.99988163
0.3405 	0.0034798523 	0.00012652577 	0.99985127
0.3415 	0.0034798151 	0.00015834491 	0.99981383
0.3425 	0.0034797693 	0.0001974285 	0.99976783
0.3435 	0.0034797133 	0.00024523382 	0.99971155
0.3445 	0.0034796451 	0.00030345928 	0.99964299
0.3455 	0.0034795624 	0.00037407188 	0.99955983
0.3465 	0.0034794624 	0.00045933524 	0.9994594
0.3475 	0.0034793422 	0.00056183756 	0.99933864
0.3485 	0.0034791983 	0.00068451808 	0.9991941
0.3495 	0.0034790268 	0.00083069205 	0.99902186
0.3505 	0.0034788233 	0.0010040722 	0.99881755
0.3515 	0.0034785829 	0.0012087865 	0.99857632
0.3525 	0.0034783003 	0.0014493903 	0.99829279
0.3535 	0.0034779697 	0.0017308722 	0.99796111
0.3545 	0.0034775845 	0.0020586523 	0.99757492
0.3555 	0.003477138 	0.0024385723 	0.99712736
0.3565 	0.0034766228 	0.0028768758 	0.99661115
0.3575 	0.0034760311 	0.0033801792 	0.99601855
0.3585 	0.0034753548 	0.0039554328 	0.99534149
0.3595 	0.0034745853 	0.0046098717 	0.99457157
0.3605 	0.0034737139 	0.0053509572 	0.99370019
0.3615 	0.0034727317 	0.0061863106 	0.9927186
0.3625 	0.0034716296 	0.0071236385 	0.991618
0.3635 	0.0034703986 	0.0081706536 	0.99038967
0.3645 	0.0034690299 	0.0093349915 	0.98902504
0.3655 	0.0034675147 	0.010624125 	0.98751583
0.3665 	0.0034658447 	0.012045281 	0.98585415
0.3675 	0.0034640119 	0.013605355 	0.98403259
0.3685 	0.0034620088 	0.01531084 	0.98204432
0.3695 	0.0034598286 	0.01716775 	0.97988322
0.3705 	0.0034574651 	0.019181563 	0.97754389
0.3715 	0.0034549128 	0.021357164 	0.97502178
0.3725 	0.0034521669 	0.023698808 	0.97231319
0.3735 	0.0034492236 	0.026210085 	0.96941533
0.3745 	0.0034460798 	0.028893907 	0.96632632
0.3755 	0.0034427331 	0.031752493 	0.96304522
0.3765 	0.0034391823 	0.03478738 	0.95957201
0.3775 	0.0034354266 	0.037999428 	0.95590753
0.3785 	0.0034314662 	0.041388851 	0.9520535
0.3795 	0.0034273021 	0.044955238 	0.94801243
0.3805 	0.0034229358 	0.048697596 	0.9437876
0.3815 	0.0034183695 	0.052614388 	0.93938294
0.3825 	0.0034136062 	0.056703578 	0.93480304
0.3835 	0.0034086491 	0.060962683 	0.93005303
0.3845 	0.003403502 	0.065388817 	0.92513849
0.3855 	0.0033981693 	0.069978743 	0.92006546
0.3865 	0.0033926554 	0.074728923 	0.91484027
0.3875 	0.0033869654 	0.079635565 	0.90946955
0.3885 	0.0033811041 	0.084694668 	0.90396013
0.3895 	0.0033750771 	0.08990207 	0.89831897
0.3905 	0.0033688896 	0.095253481 	0.89255313
0.3915 	0.0033625472 	0.10074453 	0.88666972
0.3925 	0.0033560554 	0.10637077 	0.88067582
0.3935 	0.0033494198 	0.11212778 	0.87457849
0.3945 	0.003342646 	0.11801109 	0.86838468
0.3955 	0.0033357394 	0.12401628 	0.86210126
0.3965 	0.0033287056 	0.13013899 	0.85573491
0.3975 	0.0033215498 	0.13637492 	0.8492922
0.3985 	0.0033142772 	0.14271983 	0.8427795
0.3995 	0.0033068931 	0.1491696 	0.83620296
0.4005 	0.0032994022 	0.15572022 	0.82956857
0.4015 	0.0032918096 	0.16236776 	0.82288207
0.4025 	0.0032841198 	0.16910843 	0.81614901
0.4035 	0.0032763374 	0.17593856 	0.80937469
0.4045 	0.0032684667 	0.18285462 	0.8025642
0.4055 	0.003260512 	0.18985317 	0.79572242
0.4065 	0.0032524772 	0.19693094 	0.78885399
0.4075 	0.0032443663 	0.20408476 	0.78196333
0.4085 	0.003236183 	0.2113116 	0.77505467
0.4095 	0.0032279309 	0.21860854 	0.76813201
0.4105 	0.0032196133 	0.2259728 	0.76119915
0.4115 	0.0032112337 	0.23340171 	0.75425971
0.4125 	0.003202795 	0.24089272 	0.74731711
0.4135 	0.0031943003 	0.24844338 	0.74037457
0.4145 	0.0031857524 	0.25605136 	0.73343517
0.4155 	0.0031771541 	0.26371444 	0.7265018
0.4165 	0.003168508 	0.27143049 	0.71957718
0.4175 	0.0031598166 	0.27919747 	0.71266389
0.4185 	0.0031510822 	0.28701346 	0.70576437
0.4195 	0.0031423071 	0.2948766 	0.6988809
0.4205 	0.0031334935 	0.30278512 	0.69201565
0.4215 	0.0031246434 	0.31073734 	0.68517064
0.4225 	0.0031157589 	0.31873165 	0.67834779
0.4235 	0.0031068418 	0.32676651 	0.67154888
0.4245 	0.0030978939 	0.33484045 	0.66477562
0.4255 	0.0030889169 	0.34295207 	0.65802958
0.4265 	0.0030799125 	0.35110001 	0.65131227
0.4275 	0.0030708822 	0.35928299 	0.64462507
0.4285 	0.0030618277 	0.36749977 	0.63796931
0.4295 	0.0030527503 	0.37574917 	0.63134623
0.4305 	0.0030436514 	0.38403004 	0.62475697
0.4315 	0.0030345324 	0.39234128 	0.61820263
0.4325 	0.0030253947 	0.40068184 	0.61168423
0.4335 	0.0030162389 	0.4090507 	0.60520272
0.4345 	0.0030070681 	0.41744686 	0.59875901
0.4355 	0.0029978786 	0.42586937 	0.59235393
0.4365 	0.0029886836 	0.43431733 	0.58598827
0.4375 	0.0029794555 	0.44278987 	0.57966274
0.4385 	0.0029702601 	0.4512863 	0.57337795
0.4395 	0.0029609577 	0.45980599 	0.56713434
0.4405 	0.0029518391 	0.46834908 	0.56093205
0.4415 	0.0029423291 	0.47691568 	0.55477073
0.4425 	0.0029335116 	0.48550833 	0.54864926
0.4435 	0.0029234277 	0.49412819 	0.54256567
0.4445 	0.0029154339 	0.50277771 	0.53651767
0.4455 	0.0029040292 	0.51145706 	0.53050582
0.4465 	0.0028978072 	0.52012893 	0.52453887
0.4475 	0.0028838974 	0.52870413 	0.51864226
0.4485 	0.0028813762 	0.53745872 	0.51293462
0.4495 	0.002863657 	0.54569641 	0.50722681
0.4505 	0.0028623193 	0.55388735 	0.50170825
0.4515 	0.0028481909 	0.56171361 	0.49674667
0.4525 	0.0028476257 	0.5703083 	0.4914674
0.4535 	0.0028276906 	0.57884008 	0.4859135
0.4545 	0.0028291023 	0.58839631 	0.48012225
0.4555 	0.0028038925 	0.5996874 	0.47292991
0.4565 	0.0028053827 	0.61464584 	0.46412426
0.4575 	0.0027636806 	0.63299906 	0.45230871
0.4585 	0.0027663338 	0.65300355 	0.43880342
0.4595 	0.0027268722 	0.66843974 	0.42865009
0.4605 	0.0027320015 	0.67260683 	0.42492517
0.4615 	0.0027318833 	0.67187109 	0.42490095
0.4625 	0.0027292619 	0.67378822 	0.42487505
0.4635 	0.0027289471 	0.67461145 	0.42452987
0.4645 	0.0027229832 	0.68013213 	0.42288209
0.4655 	0.0027233276 	0.68891798 	0.41885525
0.4665 	0.0027035294 	0.69906228 	0.4118525
0.4675 	0.0026828212 	0.71024186 	0.40192974
0.4685 	0.0026832572 	0.72634787 	0.39558572
0.4695 	0.0026788736 	0.72348441 	0.39359652
0.4705 	0.0026748188 	0.72350901 	0.39352759
0.4715 	0.0026698469 	0.72400258 	0.39404745
0.4725 	0.0026686373 	0.72931793 	0.39283971
0.4735 	0.0026633315 	0.73820286 	0.38869501
0.4745 	0.0026614703 	0.73928349 	0.3859741
0.4755 	0.0026605854 	0.74211056 	0.38552408
0.4765 	0.002659114 	0.74537831 	0.38545973
0.4775 	0.0026567448 	0.74721972 	0.38503575
0.4785 	0.0026501412 	0.75008908 	0.38364667
0.4795 	0.0026487156 	0.75974998 	0.379388
0.4805 	0.0026308491 	0.77083627 	0.37242099
0.4815 	0.0026172985 	0.77855188 	0.36639025
0.4825 	0.0026203969 	0.78093807 	0.36482601
0.4835 	0.0026263574 	0.77979187 	0.36567046
0.4845 	0.0026234051 	0.78006009 	0.36506253
0.4855 	0.0026223379 	0.78150724 	0.36373349
0.4865 	0.0026226589 	0.78188001 	0.36342574
0.4875 	0.0026200806 	0.78078482 	0.36365742
0.4885 	0.0026124372 	0.78972435 	0.3616517
0.4895 	0.0026094774 	0.80253125 	0.35602838
0.4905 	0.0025937831 	0.81073706 	0.35187316
0.4915 	0.0025940386 	0.81642665 	0.34916377
0.4925 	0.0025841703 	0.82116291 	0.34714928
0.4935 	0.0025835987 	0.82579555 	0.34504464
0.4945 	0.0025741409 	0.83115008 	0.34280643
0.4955 	0.0025735909 	0.83771477 	0.33988549
0.4965 	0.002559246 	0.84467652 	0.33667483
0.4975 	0.0025597189 	0.85217798 	0.33318685
0.4985 	0.0025452214 	0.85965702 	0.32990264
0.4995 	0.0025460156 	0.86636392 	0.32697191
0.5005 	0.002533031 	0.87269061 	0.3244093
0.5015 	0.0025342016 	0.87912294 	0.32191531
0.5025 	0.0025211823 	0.8857938 	0.31912149
0.5035 	0.0025179887 	0.89319124 	0.31603295
0.5045 	0.0025097209 	0.90139898 	0.31277176
0.5055 	0.0025019338 	0.90847588 	0.30967917
0.5065 	0.0024949766 	0.91591374 	0.30693211
0.5075 	0.0024907368 	0.92256061 	0.30458546
0.5085 	0.0024829912 	0.92905685 	0.30229128
0.5095 	0.0024751653 	0.93537009 	0.2998043
0.5105 	0.0024737137 	0.94484613 	0.29670981
0.5115 	0.0024624641 	0.95172695 	0.29353321
0.5125 	0.0024544001 	0.96261748 	0.29056245
0.5135 	0.0024508483 	0.96689615 	0.2883311
0.5145 	0.0024482997 	0.97052233 	0.28690639
0.5155 	0.0024557597 	0.96835432 	0.28763275
0.5165 	0.0024535502 	0.96371894 	0.2893966
0.5175 	0.0024647315 	0.95353748 	0.29249152
0.5185 	0.0024700654 	0.94646765 	0.29533645
0.5195 	0.0024766259 	0.93869513 	0.29783722
0.5205 	0.0024830577 	0.93300715 	0.30010597
0.5215 	0.0024872406 	0.92707869 	0.30224175
0.5225 	0.0024925297 	0.92303702 	0.30413882
0.5235 	0.0024964099 	0.91664736 	0.30560349
0.5245 	0.002493369 	0.91744421 	0.3062827
0.5255 	0.0024981469 	0.91719413 	0.30622003
0.5265 	0.0024929002 	0.91974339 	0.30549147
0.5275 	0.0024930751 	0.92136019 	0.3048176
0.5285 	0.0024899809 	0.92451412 	0.30386788
0.5295 	0.002487882 	0.92669603 	0.30281525
0.5305 	0.0024855449 	0.92989174 	0.30196769
0.5315 	0.0024854732 	0.93016046 	0.30154967
0.5325 	0.0024851046 	0.93012549 	0.30151658
0.5335 	0.0024846025 	0.93004485 	0.30161066
0.5345 	0.0024848691 	0.92979559 	0.3017558
0.5355 	0.0024846847 	0.92964667 	0.30186338
0.5365 	0.0024849538 	0.92934676 	0.30200117
0.5375 	0.0024845846 	0.92917201 	0.30228264
0.5385 	0.0024864868 	0.92833142 	0.30259268
0.5395 	0.0024856479 	0.92825144 	0.30279895
0.5405 	0.0024855041 	0.92832679 	0.30277773
0.5415 	0.0024850188 	0.92894541 	0.30269182
0.5425 	0.0024854493 	0.928823 	0.30261152
0.5435 	0.0024852437 	0.9286215 	0.30264734
0.5445 	0.0024859062 	0.92814636 	0.30277593
0.5455 	0.0024859312 	0.92772128 	0.3029086
0.5465 	0.0024864049 	0.92714753 	0.30302219
0.5475 	0.0024864278 	0.92684216 	0.30309973
0.5485 	0.0024867439 	0.92646554 	0.3031681
0.5495 	0.0024868463 	0.92618261 	0.30323899
0.5505 	0.0024870033 	0.92590351 	0.30328986
0.5515 	0.0024870459 	0.92572693 	0.30330272
0.5525 	0.0024870843 	0.92561247 	0.30328781
0.5535 	0.0024871584 	0.925564 	0.3032582
0.5545 	0.0024871744 	0.92557124 	0.30323823
0.5555 	0.0024873395 	0.92559663 	0.30321192
0.5565 	0.0024873153 	0.92590674 	0.303152
0.5575 	0.0024878624 	0.92589498 	0.30308402
0.5585 	0.0024874139 	0.9258723 	0.30309948
0.5595 	0.002488521 	0.92548199 	0.3032023
0.5605 	0.002488814 	0.92527586 	0.30329633
0.5615 	0.0024898059 	0.92514624 	0.30335522
0.5625 	0.0024901229 	0.92517072 	0.30337974
0.5635 	0.0024910778 	0.92519455 	0.3034159
0.5645 	0.0024916908 	0.92517294 	0.30347336
0.5655 	0.0024929255 	0.92511427 	0.30354199
0.5665 	0.0024938366 	0.92507073 	0.30360764
0.5675 	0.0024954861 	0.92508099 	0.30366053
0.5685 	0.0024967922 	0.9251498 	0.3036902
0.5695 	0.0024991421 	0.92523651 	0.30372826
0.5705 	0.0025011928 	0.92531842 	0.30377303
0.5715 	0.002504817 	0.92532105 	0.30383166
0.5725 	0.0025088927 	0.92534056 	0.30388599
0.5735 	0.0025146175 	0.92546288 	0.30391391
0.5745 	0.0025215541 	0.92567932 	0.30390511
0.5755 	0.0025303259 	0.92587718 	0.30389
0.5765 	0.002541575 	0.92603413 	0.30387431
0.5775 	0.0025548218 	0.92630519 	0.30387439
0.5785 	0.0025717841 	0.92622569 	0.30391668
0.5795 	0.0025908564 	0.92618911 	0.30399185
0.5805 	0.0026147406 	0.9260881 	0.30406584
0.5815 	0.0026408081 	0.92611963 	0.30411357
0.5825 	0.0026720845 	0.92617353 	0.30413691
0.5835 	0.0027061846 	0.92629568 	0.30414826
0.5845 	0.0027450779 	0.92638431 	0.30414814
0.5855 	0.0027878428 	0.92644902 	0.30415866
0.5865 	0.0028342379 	0.92639186 	0.3042012
0.5875 	0.002885517 	0.92632513 	0.30426966
0.5885 	0.0029384177 	0.92625433 	0.30432949
0.5895 	0.002996736 	0.92626243 	0.30437319
0.5905 	0.0030546392 	0.92623303 	0.3044178
0.5915 	0.0031176417 	0.92622917 	0.30445075
0.5925 	0.0031785262 	0.92625492 	0.30446196
0.5935 	0.0032432941 	0.92623275 	0.30449284
0.5945 	0.0033047265 	0.92630611 	0.30451563
0.5955 	0.0033678156 	0.92630213 	0.3045078
0.5965 	0.0034272117 	0.92631903 	0.3045064
0.5975 	0.0034857143 	0.92629826 	0.30452708
0.5985 	0.0035402409 	0.92631528 	0.30452759
0.5995 	0.0035922087 	0.92630902 	0.30452232
0.6005 	0.003639654 	0.92627638 	0.30453428
0.6015 	0.0036838908 	0.92626638 	0.3045484
0.6025 	0.0037234 	0.92621553 	0.30454949
0.6035 	0.0037587624 	0.92630114 	0.30453201
0.6045 	0.0037902889 	0.92641228 	0.30449109
0.6055 	0.0038174039 	0.92647963 	0.3044439
0.6065 	0.0038413761 	0.92653698 	0.30439947
0.6075 	0.0038613353 	0.92665872 	0.30433494
0.6085 	0.0038786298 	0.92689599 	0.30425621
0.6095 	0.0038928769 	0.92705079 	0.30417472
0.6105 	0.0039043806 	0.92742487 	0.30410519
0.6115 	0.0039149924 	0.92732687 	0.30406705
0.6125 	0.003922101 	0.9273452 	0.30406532
0.6135 	0.0039301121 	0.9272198 	0.30407912
0.6145 	0.0039339102 	0.92721382 	0.30408819
0.6155 	0.0039392343 	0.92703998 	0.30411572
0.6165 	0.0039424061 	0.92694653 	0.30412888
0.6175 	0.0039447099 	0.92701832 	0.30412118
0.6185 	0.0039461968 	0.92741031 	0.30410635
0.6195 	0.003948889 	0.92757705 	0.30410794
0.6205 	0.0039495865 	0.92722499 	0.30416992
0.6215 	0.0039510888 	0.9266838 	0.30426054
0.6225 	0.0039512017 	0.92646418 	0.30430092
0.6235 	0.0039519777 	0.9263108 	0.3043025
0.6245 	0.003951951 	0.92630487 	0.30429705
0.6255 	0.0039516311 	0.92665255 	0.30425385
0.6265 	0.0039514677 	0.92756567 	0.3041275
0.6275 	0.0039516704 	0.92795025 	0.30403078
0.6285 	0.0039518275 	0.92775351 	0.30407877
0.6295 	0.0039521843 	0.92732948 	0.30418098
0.6305 	0.0039519377 	0.92723394 	0.30424968
0.6315 	0.0039527318 	0.92680679 	0.30436996
0.6325 	0.0039530126 	0.92634006 	0.30449048
0.6335 	0.0039531687 	0.92634952 	0.30457096
0.6345 	0.0039527036 	0.92671698 	0.30455889
0.6355 	0.0039525997 	0.92693975 	0.30450644
0.6365 	0.0039524235 	0.92722617 	0.30449369
0.6375 	0.0039526828 	0.92694944 	0.30453992
0.6385 	0.0039526708 	0.9269312 	0.30459026
0.6395 	0.0039526766 	0.92720149 	0.30454615
0.6405 	0.0039517158 	0.92852329 	0.30441106
0.6415 	0.0039520878 	0.93030914 	0.30422049
0.6425 	0.003952043 	0.93027955 	0.30416759
0.6435 	0.0039514462 	0.92985191 	0.30430644
0.6445 	0.003952402 	0.92960996 	0.30449885
0.6455 	0.0039525843 	0.92935124 	0.30470572
0.6465 	0.0039543211 	0.92847124 	0.30491666
0.6475 	0.0039543802 	0.92810666 	0.3050842
0.6485 	0.0039543054 	0.92809806 	0.30515988
0.6495 	0.0039525254 	0.92914492 	0.30509797
0.6505 	0.0039529448 	0.93069296 	0.30484719
0.6515 	0.0039530392 	0.93146786 	0.30472245
0.6525 	0.0039539944 	0.93042349 	0.30488291
0.6535 	0.0039541526 	0.93049376 	0.30518434
0.6545 	0.003953487 	0.93052707 	0.30517619
0.6555 	0.0039535255 	0.93109751 	0.30508162
0.6565 	0.0039536475 	0.93098899 	0.30500543
0.6575 	0.0039524357 	0.93069666 	0.30487849
0.6585 	0.0039515143 	0.93047184 	0.30462727
0.6595 	0.0039494762 	0.9297293 	0.30412925
0.6605 	0.0039467262 	0.92802123 	0.30337603
0.6615 	0.0039426601 	0.92532139 	0.30234913
0.6625 	0.003937331 	0.92149254 	0.3009863
0.6635 	0.0039302476 	0.91629255 	0.29917903
0.6645 	0.0039208489 	0.90932378 	0.29679634
0.6655 	0.0039084422 	0.90007065 	0.29367683
0.6665 	0.0038921585 	0.88787749 	0.28962532
0.6675 	0.003870893 	0.87192529 	0.28441134
0.6685 	0.0038432685 	0.85120664 	0.27777209
0.6695 	0.0038075684 	0.82450355 	0.26942332
0.6705 	0.0037617161 	0.79038292 	0.25908257
0.6715 	0.003703283 	0.747226 	0.24651125
0.6725 	0.0036296707 	0.69333741 	0.23158264
0.6735 	0.0035385876 	0.6272038 	0.21437982
0.6745 	0.003429235 	0.5481055 	0.19532686
0.6755 	0.00330472 	0.45723604 	0.17534169
0.6765 	0.003174635 	0.35909776 	0.15587308
0.6775 	0.0030538563 	0.26221379 	0.13859934
0.6785 	0.0029558518 	0.1771453 	0.12483067
0.6795 	0.0028860207 	0.11142655 	0.11499937
0.6805 	0.0028411868 	0.066168553 	0.10863741
0.6815 	0.0028143466 	0.037697689 	0.1048196
0.6825 	0.002798953 	0.020907893 	0.10264006
0.6835 	0.0027903481 	0.011417705 	0.10143183
0.6845 	0.0027856128 	0.0061818558 	0.10077261
0.6855 	0.002783032 	0.0033325675 	0.10041579
0.6865 	0.0027816338 	0.0017925853 	0.10022347
0.6875 	0.002780879 	0.00096317242 	0.10012003
0.6885 	0.0027804725 	0.00051724591 	0.10006445
0.6895 	0.0027802538 	0.00027770297 	0.1000346
0.6905 	0.0027801363 	0.00014907787 	0.10001857
0.6915 	0.0027800732 	8.0024386e-05 	0.10000997
0.6925 	0.0027800393 	4.2955751e-05 	0.10000535
0.6935 	0.0027800211 	2.3057529e-05 	0.10000287
0.6945 	0.0027800113 	1.2376637e-05 	0.10000154
0.6955 	0.0027800061 	6.6433276e-06 	0.10000083
0.6965 	0.0027800033 	3.5659077e-06 	0.10000044
0.6975 	0.0027800018 	1.9140184e-06 	0.10000024
0.6985 	0.0027800009 	1.0273475e-06 	0.10000013
0.6995 	0.0027800005 	5.5140358e-07 	0.10000007
0.7005 	0.0027800003 	2.9595236e-07 	0.10000004
0.7015 	0.0027800001 	1.5884068e-07 	0.10000002
0.7025 	0.0027800001 	8.5240279e-08 	0.10000001
0.7035 	0.00278 	4.5735953e-08 	0.10000001
0.7045 	0.00278 	2.4536113e-08 	0.1
0.7055 	0.00278 	1.3110006e-08 	0.1
0.7065 	0.00278 	7.0446593e-09 	0.1
0.7075 	0.00278 	3.7344034e-09 	0.1
0.7085 	0.00278 	2.0400243e-09 	0.1
0.7095 	0.00278 	1.0665481e-09 	0.1
0.7105 	0.00278 	5.4378742e-10 	0.1
0.7115 	0.00278 	2.7004349e-10 	0.1
0.7125 	0.00278 	1.5812854e-10 	0.1
0.7135 	0.00278 	7.4338287e-11 	0.1
0.7145 	0.00278 	3.3561209e-11 	0.1
0.7155 	0.00278 	2.8333919e-11 	0.1
0.7165 	0.00278 	8.868467e-13 	0.1
0.7175 	0.00278 	3.0858713e-12 	0.1
0.7185 	0.00278 	3.5963354e-12 	0.1
0.7195 	0.00278 	3.4917785e-12 	0.1
0.7205 	0.00278 	1.017121e-11 	0.1
0.7215 	0.00278 	2.2028983e-11 	0.1
0.7225 	0.00278 	4.0346086e-11 	0.1
0.7235 	0.00278 	1.7580209e-11 	0.1
0.7245 	0.00278 	4.2501933e-11 	0.1
0.7255 	0.00278 	1.4422969e-11 	0.1
0.7265 	0.00278 	1.8196895e-11 	0.1
0.7275 	0.00278 	4.8419165e-12 	0.1
0.7285 	0.00278 	1.6136947e-11 	0.1
0.7295 	0.00278 	1.9557134e-11 	0.1
0.7305 	0.00278 	1.3521138e-11 	0.1
0.7315 	0.00278 	2.5140272e-11 	0.1
0.7325 	0.00278 	2.0023977e-11 	0.1
0.7335 	0.00278 	3.3199034e-11 	0.1
0.7345 	0.00278 	4.6221473e-11 	0.1
0.7355 	0.00278 	6.582134e-11 	0.1
0.7365 	0.00278 	1.3640679e-11 	0.1
0.7375 	0.00278 	1.8451073e-11 	0.1
0.7385 	0.00278 	2.6909526e-12 	0.1
0.7395 	0.00278 	2.8481986e-11 	0.1
0.7405 	0.00278 	3.7241345e-11 	0.1
0.7415 	0.00278 	2.7911807e-11 	0.1
0.7425 	0.00278 	3.1812378e-11 	0.1
0.7435 	0.00278 	2.4314584e-11 	0.1
0.7445 	0.00278 	3.0230262e-11 	0.1
0.7455 	0.00278 	8.3786478e-12 	0.1
0.7465 	0.00278 	3.2504762e-12 	0.1
0.7475 	0.00278 	2.3156355e-11 	0.1