/*--------------------------------*- C++ -*----------------------------------*\
| =========                 |                                                 |
| \\      /  F ield         | OpenFOAM: The Open Source CFD Toolbox           |
|  \\    /   O peration     | Version:  2112                                  |
|   \\  /    A nd           | Website:  www.openfoam.com                      |
|    \\/     M anipulation  |                                                 |
\*---------------------------------------------------------------------------*/
FoamFile
{
    version     2.0;
    format      ascii;
    arch        "LSB;label=32;scalar=64";
    class       volScalarField;
    location    "16.5";
    object      p;
}
// * * * * * * * * * * * * * * * * * * * * * * * * * * * * * * * * * * * * * //

dimensions      [0 2 -2 0 0 0 0];

internalField   nonuniform List<scalar> 
8800
(
0.411483
0.363709
0.325045
0.296073
0.275234
0.260434
0.249866
0.2424
0.237562
0.235416
0.236481
0.240441
0.24687
0.256002
0.268637
0.286265
0.310968
0.344853
0.387345
0.446042
0.242681
0.250364
0.257885
0.261222
0.259755
0.254722
0.24828
0.242244
0.237532
0.234631
0.234193
0.236469
0.240716
0.246439
0.253028
0.259166
0.262698
0.261898
0.256384
0.247642
0.221047
0.227229
0.231399
0.234409
0.236523
0.237194
0.236149
0.234073
0.232023
0.230992
0.231742
0.233879
0.236433
0.238381
0.238787
0.237426
0.234944
0.231439
0.226826
0.223051
0.215141
0.217817
0.220659
0.223165
0.224899
0.226145
0.226953
0.227115
0.226811
0.226642
0.22715
0.228016
0.228554
0.228349
0.227503
0.226199
0.224194
0.221457
0.21895
0.217444
0.209697
0.211146
0.213077
0.215301
0.217271
0.21877
0.21986
0.220689
0.221268
0.221695
0.222064
0.22222
0.221994
0.221388
0.220363
0.218792
0.216791
0.214675
0.213225
0.212404
0.204626
0.205551
0.207007
0.208857
0.210767
0.212535
0.214005
0.215166
0.21611
0.216834
0.217198
0.217121
0.216646
0.21576
0.214425
0.212775
0.211017
0.209383
0.208386
0.207873
0.199975
0.200629
0.201865
0.203557
0.205341
0.207136
0.208873
0.210373
0.211538
0.212401
0.212861
0.21279
0.212156
0.211022
0.209594
0.208058
0.206466
0.205052
0.204271
0.203926
0.195744
0.196176
0.197264
0.198845
0.200477
0.202062
0.203601
0.205127
0.206546
0.207681
0.208208
0.208065
0.207443
0.206538
0.20543
0.204122
0.202695
0.201424
0.200801
0.200599
0.192578
0.192819
0.193712
0.195148
0.196696
0.198268
0.199846
0.201331
0.202713
0.203921
0.20466
0.204783
0.204422
0.203651
0.202624
0.201465
0.200201
0.199138
0.198697
0.198609
0.190463
0.1906
0.191149
0.192128
0.193271
0.194491
0.195793
0.197247
0.198751
0.200163
0.201117
0.20145
0.201313
0.200917
0.200338
0.19963
0.198869
0.198273
0.198038
0.197988
0.188219
0.188322
0.188634
0.189197
0.189966
0.190941
0.192127
0.193488
0.195011
0.196594
0.197857
0.198561
0.198835
0.198776
0.198499
0.198248
0.197993
0.197785
0.197677
0.197632
0.185152
0.18523
0.18547
0.185888
0.186536
0.187396
0.188555
0.190013
0.191741
0.193619
0.195236
0.196256
0.196758
0.196976
0.197127
0.197146
0.197121
0.197066
0.19701
0.19697
0.181342
0.181395
0.181633
0.182088
0.182676
0.183554
0.184753
0.186309
0.188236
0.190463
0.192538
0.194016
0.194954
0.195536
0.195895
0.196105
0.196193
0.196191
0.196176
0.196148
0.17703
0.177065
0.177309
0.177847
0.178621
0.179539
0.180909
0.1827
0.184959
0.187663
0.190294
0.192275
0.19363
0.194524
0.195084
0.195409
0.195531
0.195567
0.195591
0.195574
0.172312
0.172335
0.172574
0.173137
0.173974
0.175235
0.176764
0.178832
0.181518
0.184843
0.18817
0.190761
0.192552
0.193854
0.194656
0.195145
0.195374
0.195493
0.195554
0.195539
0.167104
0.167129
0.167386
0.168001
0.168972
0.170329
0.172183
0.174687
0.177976
0.182098
0.186292
0.189619
0.192036
0.193664
0.194762
0.195452
0.195848
0.19607
0.196162
0.196145
0.161142
0.16117
0.161484
0.162146
0.163252
0.164842
0.167086
0.17016
0.17423
0.17937
0.184638
0.188844
0.191887
0.194044
0.195498
0.196441
0.197022
0.19735
0.19747
0.197447
0.154116
0.154148
0.154522
0.155355
0.156635
0.15857
0.161335
0.165147
0.170225
0.176657
0.18326
0.188547
0.192426
0.195134
0.19699
0.198219
0.198997
0.199433
0.199585
0.199554
0.145737
0.145784
0.146251
0.147245
0.148887
0.151297
0.154741
0.159522
0.165902
0.173964
0.182218
0.188828
0.19365
0.197044
0.199376
0.200935
0.201929
0.202481
0.20267
0.20263
0.135608
0.135671
0.136271
0.137543
0.139623
0.142694
0.147079
0.153154
0.161204
0.171307
0.181587
0.189785
0.195744
0.199948
0.202847
0.204794
0.206036
0.206723
0.206958
0.206908
0.123184
0.123266
0.124052
0.125725
0.128444
0.132431
0.138099
0.145871
0.156063
0.168715
0.181459
0.191556
0.198882
0.204055
0.207628
0.210037
0.211579
0.212425
0.212713
0.212649
0.107697
0.107809
0.10887
0.111127
0.11476
0.120031
0.127443
0.137473
0.15043
0.166244
0.181953
0.194307
0.203255
0.209584
0.213972
0.216945
0.218855
0.21989
0.220238
0.220158
0.0880247
0.088192
0.0896704
0.0928105
0.0977921
0.104916
0.114772
0.127842
0.14433
0.164006
0.183222
0.19821
0.209058
0.216763
0.222141
0.225814
0.228193
0.229482
0.229899
0.229794
0.0623242
0.0625844
0.0647831
0.0694166
0.0765397
0.0864757
0.099829
0.116959
0.137888
0.162186
0.185452
0.203441
0.216474
0.225799
0.232381
0.236937
0.239917
0.241537
0.242046
0.241908
0.0275165
0.0280109
0.0316939
0.0390813
0.0498258
0.0641403
0.0824808
0.104961
0.131357
0.161028
0.188829
0.21014
0.22562
0.236821
0.244865
0.250554
0.254348
0.256411
0.257028
0.256842
-0.0223662
-0.0207341
-0.0132528
-0.000241224
0.016795
0.0378331
0.0630538
0.0923011
0.125142
0.160813
0.193497
0.218346
0.236473
0.24978
0.25957
0.266716
0.271657
0.27442
0.275222
0.274961
-0.0970313
-0.0878762
-0.0707696
-0.0475647
-0.0210614
0.00895063
0.0425715
0.0796059
0.119609
0.161852
0.199892
0.228723
0.249961
0.265878
0.277988
0.287302
0.294172
0.298348
0.299745
0.299726
-0.17683
-0.15626
-0.128845
-0.0952999
-0.059119
-0.020027
0.0220622
0.0670579
0.114635
0.1642
0.20865
0.242566
0.267938
0.287403
0.302687
0.314869
0.324426
0.331389
0.33412
0.334268
-0.240049
-0.217072
-0.181458
-0.139696
-0.0949847
-0.0475121
0.00263475
0.0552979
0.11015
0.166637
0.216971
0.255329
0.284132
0.306373
0.323953
0.338053
0.349109
0.357195
0.359619
0.360045
-0.291382
-0.266276
-0.225913
-0.178183
-0.126916
-0.0725724
-0.0154611
0.0440814
0.105588
0.168407
0.223947
0.265998
0.297375
0.321433
0.340286
0.355314
0.367037
0.375263
0.378115
0.378576
-0.333148
-0.307287
-0.263439
-0.211333
-0.154906
-0.0950331
-0.0320714
0.0334585
0.100892
0.169383
0.229485
0.274531
0.307759
0.332945
0.352467
0.367859
0.379732
0.387889
0.390953
0.391384
-0.368707
-0.342418
-0.296137
-0.240419
-0.179818
-0.115291
-0.0473375
0.0233986
0.0961147
0.169713
0.233878
0.281535
0.31631
0.342345
0.362241
0.377696
0.389497
0.397572
0.400782
0.401202
-0.399959
-0.373479
-0.325302
-0.266658
-0.202546
-0.13403
-0.0617099
0.0136857
0.0912011
0.169557
0.237574
0.287659
0.323792
0.350498
0.37065
0.386098
0.397824
0.405741
0.409044
0.409452
-0.428377
-0.401726
-0.352004
-0.29091
-0.223772
-0.151771
-0.075559
0.00405268
0.0860117
0.168856
0.240533
0.29297
0.330463
0.357886
0.378357
0.393885
0.405555
0.413327
0.416643
0.417072
-0.454799
-0.427976
-0.377002
-0.31371
-0.243962
-0.168909
-0.0892332
-0.00578709
0.080295
0.167402
0.242775
0.297716
0.33672
0.36498
0.385854
0.401526
0.413203
0.420818
0.424078
0.424584
-0.479914
-0.452865
-0.400691
-0.33555
-0.263499
-0.185732
-0.102953
-0.0160189
0.0739319
0.165253
0.244415
0.30203
0.342727
0.371995
0.393406
0.409319
0.421046
0.428581
0.431732
0.432246
-0.503974
-0.476672
-0.423385
-0.356692
-0.282566
-0.202387
-0.116823
-0.026686
0.0669186
0.162333
0.245357
0.305883
0.348532
0.379032
0.401162
0.417445
0.429308
0.436799
0.43981
0.440259
-0.527331
-0.499651
-0.445525
-0.377306
-0.30133
-0.219009
-0.130925
-0.0378604
0.0591281
0.158494
0.245508
0.30923
0.354147
0.386142
0.409199
0.426001
0.438084
0.445574
0.448423
0.448772
-0.550011
-0.521936
-0.467092
-0.397473
-0.319875
-0.235642
-0.145316
-0.0496216
0.0505007
0.153686
0.244755
0.311951
0.35951
0.393313
0.417522
0.435005
0.447404
0.454912
0.457631
0.457819
-0.572081
-0.543654
-0.488087
-0.41723
-0.338202
-0.252293
-0.159994
-0.061946
0.0410456
0.147841
0.242965
0.313877
0.364441
0.400437
0.426083
0.444424
0.457229
0.464758
0.467344
0.467369
-0.59361
-0.564804
-0.508519
-0.436591
-0.356318
-0.268933
-0.174904
-0.0747803
0.0307746
0.140914
0.240016
0.314828
0.368744
0.407361
0.4348
0.454218
0.46752
0.475053
0.477457
0.477329
-0.614653
-0.585388
-0.528399
-0.455527
-0.374157
-0.285502
-0.18998
-0.0880745
0.019727
0.132889
0.235798
0.314587
0.372198
0.413915
0.443597
0.464342
0.478181
0.485634
0.487758
0.487498
-0.635024
-0.605328
-0.547702
-0.473995
-0.39167
-0.301929
-0.205157
-0.101736
0.00798696
0.123808
0.230228
0.31295
0.374497
0.419826
0.452365
0.474824
0.48918
0.496335
0.498058
0.497659
-0.654693
-0.624603
-0.56639
-0.491941
-0.408802
-0.318151
-0.220333
-0.11567
-0.0043506
0.113723
0.223266
0.309734
0.375288
0.424684
0.460888
0.485818
0.500752
0.507065
0.508028
0.507503
-0.673719
-0.643161
-0.584432
-0.509328
-0.425487
-0.334082
-0.235415
-0.129765
-0.0171745
0.102729
0.214923
0.304813
0.374242
0.427932
0.468711
0.49748
0.513703
0.518293
0.517374
0.516694
-0.691948
-0.660995
-0.601777
-0.526093
-0.441668
-0.349642
-0.25031
-0.143906
-0.0303516
0.0909607
0.205256
0.298106
0.371082
0.428858
0.474873
0.509427
0.529394
0.532749
0.527536
0.525418
-0.709472
-0.678106
-0.61845
-0.542265
-0.45738
-0.364882
-0.265076
-0.158151
-0.0439474
0.0783517
0.194166
0.289387
0.36551
0.426655
0.477739
0.519905
0.547731
0.556121
0.54743
0.52578
-0.726233
-0.694506
-0.634574
-0.55802
-0.472901
-0.380115
-0.280109
-0.17297
-0.0584968
0.0642473
0.18095
0.277777
0.356697
0.420142
0.474058
0.523414
0.558647
0.566608
0.551136
0.525748
-0.742092
-0.710381
-0.649982
-0.573108
-0.487956
-0.395009
-0.295187
-0.188033
-0.0736673
0.0489778
0.165833
0.263161
0.344255
0.40895
0.459445
0.508639
0.540447
0.537952
0.468398
0.426221
-0.756471
-0.726686
-0.664309
-0.586973
-0.501867
-0.409116
-0.310032
-0.203128
-0.089241
0.0327086
0.148864
0.245511
0.327534
0.393782
0.434794
0.463962
0.481064
0.438164
0.362569
0.313238
-0.809533
-0.740303
-0.677305
-0.601064
-0.51601
-0.423765
-0.324712
-0.218498
-0.105526
0.0150898
0.129627
0.22456
0.304383
0.37608
0.386205
0.394021
0.365487
0.299634
0.214814
0.167163
-0.7694
-0.754707
-0.695712
-0.621076
-0.536278
-0.444596
-0.34677
-0.241736
-0.130542
-0.012627
0.0979088
0.188538
0.2602
0.322825
0.32731
0.209242
0.0942159
0.0151934
-0.0673511
-0.0237312
-0.797626
-0.770129
-0.711151
-0.636352
-0.552142
-0.460916
-0.363122
-0.259041
-0.149364
-0.0339493
0.0727995
0.158468
0.222955
0.255306
0.202563
0.0385932
-0.111432
-0.217571
-0.333787
-0.26459
-0.819014
-0.788188
-0.728792
-0.653603
-0.569608
-0.478654
-0.38122
-0.278268
-0.170394
-0.0579828
0.0443322
0.123728
0.178469
0.183028
0.0638239
-0.150542
-0.337165
-0.480998
-0.649149
-0.587545
-0.839423
-0.807211
-0.746924
-0.671111
-0.587096
-0.496405
-0.399692
-0.297966
-0.192047
-0.0829236
0.0142727
0.0868234
0.127987
0.094056
-0.0927544
-0.342489
-0.582958
-0.80046
-1.04558
-1.03438
-0.858691
-0.826458
-0.76556
-0.689223
-0.605178
-0.514811
-0.418901
-0.318484
-0.214707
-0.109157
-0.0176128
0.0476112
0.0717061
-0.0043161
-0.244238
-0.518665
-0.806408
-1.06551
-1.38686
-1.75999
-0.877945
-0.846006
-0.784895
-0.708287
-0.624212
-0.534133
-0.438946
-0.339835
-0.23825
-0.136424
-0.0506378
0.00675095
0.0142258
-0.112992
-0.378891
-0.656533
-0.94286
-1.18542
-1.28435
-1.439
-0.897779
-0.866258
-0.805173
-0.728555
-0.644562
-0.554851
-0.460462
-0.362786
-0.263649
-0.165926
-0.0863181
-0.0377666
-0.0531345
-0.236242
-0.497915
-0.757268
-0.988109
-1.13387
-1.16246
-1.19125
-0.918552
-0.887343
-0.826525
-0.750032
-0.666268
-0.577055
-0.483653
-0.387646
-0.291299
-0.198191
-0.125248
-0.0866865
-0.131484
-0.351704
-0.606327
-0.838796
-1.02061
-1.0998
-1.11899
-1.12229
-0.940422
-0.909362
-0.848904
-0.772631
-0.689201
-0.600652
-0.508416
-0.414322
-0.321097
-0.233123
-0.167284
-0.140823
-0.213725
-0.459998
-0.709793
-0.923906
-1.06135
-1.09245
-1.09401
-1.09428
-0.963288
-0.932368
-0.872232
-0.796248
-0.713265
-0.625515
-0.534609
-0.442655
-0.352828
-0.27047
-0.212115
-0.198007
-0.299321
-0.562602
-0.810099
-1.01426
-1.0643
-1.08223
-1.08629
-1.08672
-0.986866
-0.956182
-0.896273
-0.82073
-0.738271
-0.651442
-0.562027
-0.472404
-0.386207
-0.309759
-0.259238
-0.254993
-0.392722
-0.656828
-0.902576
-1.10091
-1.12626
-1.10057
-1.08848
-1.08503
-1.01063
-0.980364
-0.920862
-0.845755
-0.76394
-0.678129
-0.590319
-0.503195
-0.420772
-0.350348
-0.30784
-0.315492
-0.483244
-0.739163
-0.964859
-1.15175
-1.12828
-1.09518
-1.07823
-1.07228
-1.034
-1.00427
-0.94554
-0.870954
-0.789792
-0.705117
-0.618995
-0.534456
-0.455888
-0.391417
-0.356788
-0.381531
-0.569423
-0.78215
-0.968252
-1.01344
-1.08712
-1.07502
-1.06428
-1.06038
-1.05647
-1.02738
-0.969725
-0.895682
-0.815303
-0.731788
-0.647403
-0.565379
-0.490628
-0.431742
-0.405344
-0.444526
-0.675152
-0.81712
-0.894023
-1.07417
-1.1659
-1.20024
-1.19984
-1.18391
-1.07699
-1.04894
-0.992321
-0.919225
-0.839727
-0.757394
-0.674637
-0.594939
-0.523694
-0.469824
-0.452123
-0.500898
-0.825811
-0.979584
-0.798683
-0.761003
-1.27117
-1.66775
-1.64019
-1.61557
-1.09445
-1.06792
-1.01276
-0.940604
-0.862052
-0.780914
-0.69974
-0.621911
-0.553352
-0.503888
-0.494935
-0.560315
-1.02298
-1.44303
-1.46913
-1.588
-1.76213
-1.8113
-1.67433
-1.71153
-1.10779
-1.08318
-1.02989
-0.958801
-0.881189
-0.80123
-0.721393
-0.644959
-0.577643
-0.53117
-0.529582
-0.625746
-1.25228
-2.18537
-3.40712
-4.01151
-3.98892
-3.39777
-2.80267
-2.59726
-1.11561
-1.09352
-1.0425
-0.97263
-0.895989
-0.817102
-0.738292
-0.66249
-0.594776
-0.546502
-0.546039
-0.668662
-1.33895
-2.42387
-3.68649
-4.21546
-4.21489
-3.8538
-3.39174
-3.1278
-1.11727
-1.09809
-1.04955
-0.980926
-0.905212
-0.827362
-0.74938
-0.673627
-0.602661
-0.545815
-0.531018
-0.586811
-1.00759
-1.49289
-1.95987
-2.21244
-2.11016
-1.83602
-1.56728
-1.4103
-1.1105
-1.09411
-1.04916
-0.982307
-0.907543
-0.830976
-0.754186
-0.677878
-0.602161
-0.528144
-0.468273
-0.446996
-0.397843
-0.253928
0.023589
0.361853
0.678098
0.926727
1.09845
1.16857
-1.09409
-1.0807
-1.03949
-0.974831
-0.901675
-0.827231
-0.752338
-0.675908
-0.594443
-0.499313
-0.390218
-0.288927
-0.00634686
0.530636
1.13516
1.70737
2.16772
2.45257
2.58893
2.62943
-1.06604
-1.05574
-1.01868
-0.95685
-0.886592
-0.815741
-0.744955
-0.671703
-0.588925
-0.477987
-0.329137
-0.163677
0.0850512
0.640797
1.28547
1.84833
2.26897
2.52201
2.64308
2.67843
-1.02358
-1.01607
-0.983454
-0.926443
-0.861629
-0.797289
-0.734803
-0.671441
-0.595553
-0.479471
-0.304681
-0.0927224
0.116973
0.514258
1.04039
1.48929
1.82435
2.02548
2.12724
2.15887
-0.963177
-0.95767
-0.931495
-0.883051
-0.827268
-0.773553
-0.724817
-0.680823
-0.62963
-0.537174
-0.360682
-0.118517
0.114965
0.332725
0.677221
1.00268
1.25925
1.42134
1.51098
1.53938
-0.890466
-0.885766
-0.866356
-0.829706
-0.786949
-0.748055
-0.718982
-0.705556
-0.713181
-0.735348
-0.666275
-0.411746
-0.123414
0.0726975
0.294718
0.526963
0.715759
0.837759
0.898863
0.910795
-0.805631
-0.803151
-0.791754
-0.769495
-0.743735
-0.723632
-0.719496
-0.749667
-0.853498
-1.09164
-1.2708
-0.986852
-0.561941
-0.319513
-0.0821255
0.142268
0.309726
0.42042
0.47761
0.490006
-0.72482
-0.724116
-0.718781
-0.708212
-0.697606
-0.695235
-0.715228
-0.790348
-1.0059
-1.49346
-2.01903
-1.69839
-1.08221
-0.730656
-0.436966
-0.184072
-0.00353884
0.0994056
0.139208
0.143242
-0.643867
-0.644363
-0.642918
-0.639324
-0.638523
-0.648401
-0.684491
-0.78676
-1.06253
-1.68363
-2.37485
-2.02928
-1.388
-0.973404
-0.634616
-0.3824
-0.22875
-0.155491
-0.128389
-0.126823
-0.552913
-0.554185
-0.554088
-0.553675
-0.557201
-0.571055
-0.608962
-0.706436
-0.957799
-1.51353
-2.04081
-1.79616
-1.33978
-0.964321
-0.650307
-0.452978
-0.357717
-0.3227
-0.310377
-0.308463
-0.447467
-0.448798
-0.449552
-0.450505
-0.454345
-0.465515
-0.493273
-0.561411
-0.731253
-1.09743
-1.40397
-1.25705
-0.946786
-0.666254
-0.479452
-0.394681
-0.372096
-0.369156
-0.367169
-0.365509
-0.337041
-0.338076
-0.339102
-0.340091
-0.342417
-0.348049
-0.361536
-0.394163
-0.473234
-0.63864
-0.7665
-0.65416
-0.475565
-0.344607
-0.291647
-0.291583
-0.303319
-0.31263
-0.315294
-0.314913
-0.233154
-0.233818
-0.23492
-0.235732
-0.236484
-0.237317
-0.239309
-0.245294
-0.261265
-0.288943
-0.272214
-0.247428
-0.158037
-0.14112
-0.157245
-0.182571
-0.201735
-0.212855
-0.217052
-0.217667
-0.145441
-0.1458
-0.146795
-0.14743
-0.147175
-0.145331
-0.141251
-0.133943
-0.121837
-0.0996727
-0.0613789
-0.0436667
-0.0231275
-0.0394561
-0.0685172
-0.0930709
-0.109638
-0.118944
-0.123039
-0.124148
-0.0777055
-0.0778647
-0.0787119
-0.0793336
-0.0788118
-0.0761572
-0.0702538
-0.0592321
-0.0405129
-0.0112499
0.0202365
0.026689
0.0241406
0.0070946
-0.0151494
-0.0329324
-0.0447573
-0.051479
-0.0546721
-0.0556876
-0.0292022
-0.0292607
-0.0299775
-0.0306723
-0.0303934
-0.0280954
-0.0226618
-0.0125185
0.00407042
0.0275691
0.0479821
0.0506873
0.0429049
0.0295699
0.0149076
0.00311662
-0.00493251
-0.00961231
-0.0118874
-0.0126557
0.0032215
0.00319874
0.00259039
0.00182099
0.00175144
0.00322638
0.00720707
0.0148883
0.0271783
0.0434168
0.0556067
0.0563559
0.0496523
0.0402635
0.0307645
0.0229516
0.0174126
0.0141076
0.0125155
0.0119564
0.0234177
0.0233971
0.0228913
0.0221117
0.0217789
0.0225596
0.0251143
0.0302133
0.0383726
0.0487514
0.0557842
0.05565
0.0508857
0.0444646
0.0381345
0.0328205
0.0288913
0.0264827
0.0253567
0.0249732
0.0349695
0.0349355
0.0345139
0.0337775
0.033276
0.0335203
0.0350028
0.038184
0.0432559
0.0495216
0.0534047
0.0527695
0.0493375
0.0449127
0.0405855
0.0368579
0.0339967
0.0322059
0.0313991
0.0311352
0.0407333
0.0406834
0.0403163
0.0396224
0.0390376
0.0388984
0.0395431
0.0412936
0.0442501
0.0478203
0.0497473
0.0488914
0.0463959
0.0432916
0.040243
0.0375727
0.0354691
0.0341357
0.0335556
0.0333724
0.0427206
0.0426617
0.042333
0.0416911
0.0410738
0.0407114
0.0408296
0.0416092
0.0431041
0.0449421
0.0457455
0.0448278
0.0429053
0.0406298
0.0384169
0.0364619
0.0348973
0.0339016
0.0334822
0.0333532
0.0422458
0.0421851
0.0418887
0.0413031
0.0406858
0.0401976
0.0399939
0.0401939
0.0408101
0.041565
0.041638
0.0406803
0.0391491
0.037437
0.035791
0.0343345
0.0331608
0.0324152
0.0321098
0.0320176
0.0401581
0.0401013
0.0398386
0.0393148
0.0387248
0.0381834
0.0377913
0.037619
0.0376781
0.0377894
0.0374713
0.0365504
0.0353066
0.0339833
0.0327343
0.0316348
0.0307488
0.0301886
0.029964
0.0298973
0.0370225
0.0369731
0.0367494
0.0362956
0.0357592
0.0352243
0.034757
0.0343993
0.0341509
0.033891
0.0333574
0.0324868
0.031457
0.0304148
0.0294514
0.028611
0.0279363
0.0275118
0.0273444
0.0272957
0.0332198
0.0331788
0.0329946
0.0326118
0.0321421
0.0316461
0.0311658
0.030726
0.0303244
0.0298803
0.0292597
0.0284664
0.0276132
0.0267854
0.0260359
0.025389
0.0248724
0.024549
0.0244236
0.0243878
0.0290039
0.0289707
0.0288239
0.0285114
0.028115
0.0276803
0.0272316
0.0267825
0.0263291
0.0258178
0.0251933
0.0244925
0.0237884
0.023129
0.0225431
0.0220427
0.0216452
0.0213982
0.0213042
0.0212779
0.0245454
0.0245191
0.0244051
0.0241579
0.0238356
0.0234715
0.0230789
0.0226646
0.0222243
0.0217221
0.0211461
0.0205481
0.0199758
0.0194544
0.0189988
0.0186133
0.018309
0.0181216
0.0180514
0.0180321
0.0199555
0.0199351
0.0198488
0.0196592
0.0194065
0.0191145
0.0187902
0.0184365
0.0180494
0.0176048
0.0171117
0.0166235
0.0161716
0.0157684
0.01542
0.0151275
0.0148978
0.0147577
0.0147059
0.0146918
0.0152998
0.0152845
0.0152212
0.0150812
0.0148916
0.0146699
0.0144195
0.0141411
0.013831
0.0134735
0.013085
0.0127112
0.0123725
0.0120739
0.0118174
0.0116024
0.011434
0.0113319
0.0112945
0.0112842
0.0106134
0.0106025
0.0105583
0.0104602
0.0103276
0.0101735
0.00999932
0.00980447
0.00958576
0.00933343
0.0090622
0.00880528
0.00857522
0.00837325
0.00819921
0.00805194
0.00793538
0.00786441
0.00783856
0.00783118
0.00590855
0.00590132
0.00587466
0.00581552
0.00573821
0.00565162
0.00555524
0.00544773
0.00532696
0.00518793
0.00503889
0.0048985
0.00477335
0.00466338
0.00456776
0.00448474
0.0044166
0.00437428
0.00435857
0.00435311
0.00119858
0.00119987
0.00120752
0.00120619
0.00119134
0.00117104
0.00114764
0.00112181
0.00109252
0.00105815
0.00101967
0.000982292
0.000949467
0.000920861
0.000896202
0.000874841
0.000856948
0.00084734
0.000851279
0.000855944
-0.751284
-0.523113
-0.265784
-0.0549573
0.11615
0.254139
0.370833
0.469398
0.514734
0.49227
-0.342429
-0.186427
-0.0239598
0.115983
0.234859
0.334546
0.415767
0.473904
0.504162
0.515381
-0.062983
0.0403789
0.149073
0.245758
0.329228
0.399312
0.455055
0.495773
0.524323
0.541393
0.132413
0.203356
0.279478
0.348494
0.408482
0.459264
0.500683
0.533278
0.558959
0.576679
0.279805
0.331058
0.385456
0.436862
0.482129
0.521381
0.554605
0.581837
0.604003
0.621496
0.398006
0.43591
0.478985
0.519494
0.556298
0.588981
0.617256
0.640722
0.659739
0.676928
0.498932
0.53044
0.567905
0.603032
0.635602
0.664947
0.690412
0.711392
0.727691
0.744728
0.592644
0.623612
0.659778
0.693675
0.724893
0.752851
0.776817
0.79612
0.810049
0.827109
0.691144
0.725389
0.763342
0.798064
0.82912
0.85618
0.878843
0.896653
0.908922
0.926373
0.808155
0.846401
0.885897
0.920905
0.950885
0.97618
0.996999
1.01324
1.02498
1.04311
0.954347
0.993303
1.02975
1.06087
1.08693
1.10935
1.12869
1.14443
1.15704
1.17508
1.12986
1.16191
1.18836
1.21103
1.23124
1.25015
1.26803
1.28463
1.30009
1.3182
1.3189
1.33628
1.35154
1.36795
1.38398
1.39862
1.41192
1.42593
1.44355
1.46373
1.50104
1.51056
1.52217
1.53304
1.54237
1.55205
1.56296
1.57439
1.5858
1.60118
1.70835
1.71205
1.69712
1.68233
1.67616
1.6819
1.70041
1.73076
1.76297
1.78964
2.01466
1.87982
1.80327
1.76104
1.74362
1.74759
1.77504
1.83145
1.93408
2.15845
0.302075
0.29996
0.295476
0.286871
0.274681
0.262593
0.252407
0.244545
0.238924
0.235605
0.235092
0.237596
0.242464
0.249474
0.258681
0.270081
0.282623
0.29358
0.299665
0.302685
0.226463
0.232317
0.238685
0.243221
0.245734
0.245459
0.242772
0.238996
0.23549
0.233165
0.232848
0.234796
0.238202
0.242261
0.245875
0.247598
0.246539
0.242954
0.237708
0.231055
0.217966
0.220266
0.223722
0.226803
0.228969
0.230547
0.231368
0.231107
0.230094
0.229133
0.229116
0.230281
0.231812
0.232842
0.232787
0.231693
0.229961
0.227463
0.224082
0.221112
0.212375
0.213456
0.215367
0.217872
0.220029
0.221584
0.222706
0.223513
0.223918
0.224063
0.224346
0.224837
0.22511
0.224869
0.224169
0.223048
0.221327
0.21902
0.216759
0.215322
0.20711
0.207752
0.208975
0.210912
0.212934
0.21478
0.216244
0.217355
0.218254
0.218971
0.219463
0.21963
0.219427
0.218877
0.217924
0.216483
0.214677
0.212775
0.211196
0.21036
0.202256
0.202674
0.203595
0.205206
0.207036
0.208886
0.210648
0.212139
0.213301
0.214193
0.214803
0.214998
0.214707
0.213922
0.212663
0.211111
0.209454
0.207838
0.20659
0.206028
0.197776
0.198046
0.198799
0.200263
0.201966
0.203649
0.205321
0.206974
0.208468
0.209669
0.210441
0.210593
0.21014
0.209211
0.208023
0.206687
0.205228
0.203752
0.202681
0.202283
0.193993
0.194126
0.194723
0.196064
0.19767
0.199274
0.200832
0.202316
0.203727
0.205018
0.205949
0.206254
0.206013
0.205388
0.204452
0.203279
0.201958
0.200619
0.199711
0.199464
0.191451
0.191504
0.191904
0.192938
0.194289
0.195691
0.197169
0.198685
0.200195
0.201603
0.202714
0.203234
0.203159
0.202663
0.201881
0.200978
0.199956
0.198956
0.198349
0.198215
0.18943
0.189468
0.189702
0.190281
0.191129
0.192112
0.19322
0.194503
0.195934
0.197446
0.198785
0.199599
0.199885
0.199822
0.199564
0.199132
0.198653
0.198208
0.197943
0.197862
0.186788
0.186818
0.186982
0.187348
0.187924
0.188757
0.189796
0.191101
0.19263
0.194321
0.19595
0.197107
0.197697
0.197926
0.197836
0.197684
0.197614
0.197507
0.197411
0.197359
0.183324
0.183343
0.183485
0.183827
0.184329
0.184983
0.186016
0.187341
0.188998
0.190949
0.19295
0.194513
0.195466
0.196013
0.196335
0.196553
0.196641
0.196647
0.19661
0.19658
0.179238
0.179236
0.179365
0.179747
0.180357
0.181105
0.182177
0.183648
0.185514
0.187795
0.190268
0.192342
0.193748
0.194663
0.195236
0.19559
0.19578
0.195825
0.19583
0.195827
0.174724
0.174719
0.174825
0.17523
0.175899
0.176856
0.178136
0.179774
0.181952
0.184686
0.187765
0.190441
0.192337
0.193636
0.194522
0.195061
0.195325
0.195435
0.195493
0.195508
0.169794
0.169776
0.169905
0.170325
0.171072
0.17214
0.173594
0.175569
0.178181
0.181523
0.185359
0.188785
0.191301
0.193042
0.194176
0.194971
0.195409
0.195647
0.195772
0.195798
0.164252
0.164231
0.164389
0.164832
0.165651
0.166867
0.168591
0.170974
0.174175
0.17831
0.183111
0.187454
0.190625
0.192913
0.194472
0.195502
0.19615
0.196535
0.196725
0.196758
0.157806
0.157781
0.157965
0.158509
0.159429
0.160868
0.162948
0.16587
0.169836
0.174989
0.180998
0.186453
0.190485
0.193393
0.195393
0.196739
0.197618
0.198156
0.198409
0.198452
0.150139
0.150104
0.150334
0.150983
0.152153
0.153912
0.156477
0.160123
0.165086
0.171536
0.179056
0.185878
0.190963
0.194589
0.197111
0.198821
0.199956
0.200657
0.200981
0.201035
0.140916
0.140871
0.141175
0.142013
0.143465
0.145695
0.148954
0.153559
0.159806
0.167909
0.177315
0.185813
0.192131
0.196642
0.19978
0.201919
0.203345
0.204227
0.204631
0.204698
0.129692
0.129637
0.130048
0.131148
0.133024
0.135888
0.14007
0.145943
0.153877
0.164086
0.175823
0.186354
0.194144
0.199714
0.203596
0.206247
0.208021
0.209125
0.209625
0.209705
0.115825
0.115762
0.116333
0.117803
0.120272
0.124027
0.129473
0.13707
0.147213
0.160076
0.174668
0.187636
0.197187
0.204015
0.208785
0.212052
0.214245
0.215612
0.216234
0.21633
0.0983473
0.0982757
0.0990959
0.101121
0.104473
0.109527
0.116775
0.126719
0.139738
0.155929
0.173973
0.189823
0.201445
0.209762
0.215593
0.21961
0.222317
0.22401
0.224786
0.2249
0.0758187
0.0757575
0.076998
0.0798952
0.084609
0.0916127
0.101466
0.114639
0.131425
0.151749
0.173893
0.193082
0.2071
0.217162
0.224267
0.229202
0.232557
0.234662
0.235621
0.235759
0.0459089
0.045914
0.0479238
0.0523158
0.0593034
0.069405
0.0831193
0.100759
0.122399
0.147731
0.174618
0.197576
0.214297
0.22637
0.234999
0.241079
0.245271
0.24792
0.249116
0.24928
0.00430294
0.00454121
0.00827574
0.0158168
0.0269876
0.0422376
0.0616803
0.0853343
0.113013
0.144202
0.176383
0.203445
0.223113
0.237437
0.247853
0.255366
0.260673
0.264081
0.265585
0.265771
-0.0568573
-0.0551913
-0.0463116
-0.0321376
-0.0131526
0.0102659
0.0377198
0.0690159
0.103829
0.141552
0.179385
0.210728
0.233479
0.250211
0.262623
0.271863
0.278616
0.283057
0.285052
0.285302
-0.130046
-0.127333
-0.11078
-0.0858589
-0.0563208
-0.0233953
0.0128253
0.0523135
0.0948124
0.139808
0.184309
0.221126
0.248154
0.268459
0.283969
0.295952
0.30526
0.311246
0.313365
0.314061
-0.205415
-0.196818
-0.172361
-0.137353
-0.0981895
-0.0561003
-0.0112338
0.0363767
0.0865372
0.138814
0.190047
0.232387
0.263665
0.287471
0.306033
0.320731
0.332314
0.340017
0.343773
0.345035
-0.263441
-0.253553
-0.22417
-0.182509
-0.135975
-0.0862615
-0.0337763
0.0212821
0.0786114
0.137716
0.195128
0.242298
0.27705
0.303474
0.324046
0.340304
0.353089
0.362125
0.366931
0.368366
-0.310428
-0.299996
-0.267208
-0.220827
-0.168771
-0.113068
-0.0543062
0.00716743
0.0708674
0.136143
0.199082
0.250374
0.287817
0.315993
0.337705
0.354719
0.368016
0.377606
0.382717
0.38424
-0.349254
-0.338763
-0.303938
-0.253909
-0.197453
-0.136922
-0.0729123
-0.00592984
0.0633635
0.13415
0.202018
0.256827
0.29641
0.325861
0.348297
0.365667
0.379093
0.388697
0.393754
0.395375
-0.382914
-0.372465
-0.336085
-0.283174
-0.223119
-0.158518
-0.0900232
-0.018248
0.0560368
0.131807
0.204195
0.262263
0.303776
0.334285
0.357209
0.374725
0.388131
0.397718
0.402776
0.404328
-0.412921
-0.402541
-0.365021
-0.309769
-0.24671
-0.178616
-0.106186
-0.0301197
0.0487099
0.12913
0.20581
0.266947
0.310243
0.341712
0.365086
0.382761
0.396169
0.405724
0.410816
0.412206
-0.440494
-0.430141
-0.391708
-0.334457
-0.26881
-0.197679
-0.121779
-0.041861
0.0411335
0.125913
0.20668
0.270879
0.316047
0.348584
0.372507
0.390403
0.403863
0.413397
0.418494
0.419754
-0.466387
-0.45604
-0.4168
-0.357795
-0.289911
-0.216115
-0.13714
-0.0537466
0.0330734
0.12197
0.206852
0.274266
0.321478
0.355224
0.37981
0.398026
0.4116
0.421117
0.426212
0.427366
-0.491051
-0.480682
-0.440701
-0.380195
-0.310328
-0.234151
-0.152433
-0.0659025
0.0244665
0.117341
0.206325
0.277104
0.326589
0.361766
0.38719
0.405858
0.419636
0.429186
0.43425
0.435359
-0.514857
-0.504409
-0.463719
-0.401913
-0.330238
-0.251951
-0.167778
-0.0783961
0.0152715
0.111909
0.204957
0.279317
0.331373
0.368273
0.394752
0.414026
0.428116
0.437755
0.442724
0.443821
-0.53799
-0.52738
-0.486025
-0.423077
-0.349776
-0.26963
-0.183252
-0.0912947
0.00536996
0.105564
0.202673
0.280809
0.335743
0.374683
0.402486
0.422553
0.437075
0.446872
0.45175
0.452822
-0.560462
-0.54967
-0.507779
-0.443713
-0.368997
-0.287198
-0.198879
-0.104639
-0.00524573
0.0982823
0.199368
0.281452
0.339589
0.38091
0.410348
0.431438
0.446528
0.456529
0.46133
0.462301
-0.582403
-0.571396
-0.528978
-0.463866
-0.387912
-0.304665
-0.214644
-0.118382
-0.0165409
0.0900446
0.194945
0.281082
0.34275
0.386859
0.418285
0.440637
0.456436
0.466686
0.471388
0.47222
-0.603745
-0.592526
-0.549572
-0.48354
-0.406502
-0.321986
-0.230477
-0.132463
-0.0284817
0.0808483
0.189339
0.279527
0.34498
0.392325
0.426173
0.450098
0.46674
0.477245
0.481816
0.482452
-0.624513
-0.613053
-0.569558
-0.502711
-0.424712
-0.3391
-0.246322
-0.146812
-0.0409952
0.0707408
0.182513
0.276635
0.346016
0.397004
0.43383
0.459768
0.477404
0.488046
0.492321
0.492743
-0.644552
-0.632926
-0.588896
-0.521331
-0.442489
-0.355937
-0.262108
-0.161343
-0.053986
0.0597995
0.17446
0.272279
0.345614
0.400563
0.441011
0.469643
0.488551
0.499088
0.502742
0.502862
-0.663963
-0.652095
-0.607565
-0.539364
-0.459797
-0.372451
-0.277735
-0.17596
-0.0673505
0.048129
0.165224
0.266376
0.343521
0.402577
0.447277
0.479644
0.500587
0.510682
0.51287
0.512431
-0.68262
-0.670508
-0.625538
-0.556761
-0.476555
-0.388555
-0.293119
-0.190541
-0.0809654
0.0358238
0.154897
0.258888
0.339539
0.402553
0.451902
0.48933
0.514099
0.524292
0.523371
0.521026
-0.700559
-0.688243
-0.64277
-0.573475
-0.492727
-0.404187
-0.30818
-0.205003