/*--------------------------------*- C++ -*----------------------------------*\
| =========                 |                                                 |
| \\      /  F ield         | OpenFOAM: The Open Source CFD Toolbox           |
|  \\    /   O peration     | Version:  2112                                  |
|   \\  /    A nd           | Website:  www.openfoam.com                      |
|    \\/     M anipulation  |                                                 |
\*---------------------------------------------------------------------------*/
FoamFile
{
    version     2.0;
    format      ascii;
    arch        "LSB;label=32;scalar=64";
    class       volScalarField;
    location    "1";
    object      T;
}
// * * * * * * * * * * * * * * * * * * * * * * * * * * * * * * * * * * * * * //

dimensions      [0 0 0 1 0 0 0];

internalField   nonuniform List<scalar> 
1000
(
1.49519e-110
2.43173e-110
4.88986e-110
1.04041e-109
2.2414e-109
4.84033e-109
1.04551e-108
2.25773e-108
4.87378e-108
1.05172e-107
2.26868e-107
4.89196e-107
1.05446e-106
2.272e-106
4.89353e-106
1.05359e-105
2.26752e-105
4.87827e-105
1.04909e-104
2.25522e-104
4.84614e-104
1.04096e-103
2.23511e-103
4.79727e-103
1.02924e-102
2.20733e-102
4.73199e-102
1.01402e-101
2.17207e-101
4.65077e-101
9.95406e-101
2.1296e-100
4.55428e-100
9.73557e-100
2.08029e-99
4.44332e-99
9.48659e-99
2.02456e-98
4.31887e-98
9.2093e-98
1.9629e-97
4.18203e-97
8.90617e-97
1.89587e-96
4.03403e-96
8.57991e-96
1.82405e-95
3.87618e-95
8.23343e-95
1.7481e-94
3.7099e-94
7.86982e-94
1.66869e-93
3.53664e-93
7.49226e-93
1.5865e-92
3.35791e-92
7.104e-92
1.50224e-91
3.17523e-91
6.7083e-91
1.41661e-90
2.9901e-90
6.3084e-90
1.3303e-89
2.80399e-89
5.90744e-89
1.24399e-88
2.61835e-88
5.50846e-88
1.15831e-87
2.43451e-87
5.11431e-87
1.07387e-86
2.25374e-86
4.72765e-86
9.91223e-86
2.07722e-85
4.3509e-85
9.10875e-85
1.90599e-84
3.98625e-84
8.33276e-84
1.74097e-83
3.63559e-83
7.58813e-83
1.58296e-82
3.30053e-82
6.87812e-82
1.43262e-81
2.98238e-81
6.20536e-81
1.29045e-80
2.68217e-80
5.57184e-80
1.15685e-79
2.40063e-79
4.97893e-79
1.03207e-78
2.13821e-78
4.42741e-78
9.16244e-78
1.8951e-77
3.91752e-77
8.09372e-77
1.67125e-76
3.44897e-76
7.11365e-76
1.46638e-75
3.02103e-75
6.22031e-75
1.28003e-74
2.63254e-74
5.41099e-74
1.11154e-73
2.28201e-73
4.68223e-73
9.60132e-73
1.96766e-72
4.03003e-72
8.24908e-72
1.68748e-71
3.44992e-71
7.04877e-71
1.4393e-70
2.93711e-70
5.98991e-70
1.22082e-69
2.48661e-69
5.06164e-69
1.02968e-68
2.09331e-68
4.25295e-68
8.63509e-68
1.75212e-67
3.55287e-67
7.19965e-67
1.45801e-66
2.95067e-66
5.96754e-66
1.20609e-65
2.436e-65
4.91678e-65
9.91725e-65
1.99897e-64
4.02649e-64
8.10492e-64
1.63032e-63
3.27713e-63
6.58284e-63
1.32138e-62
2.65057e-62
5.31303e-62
1.06423e-61
2.1302e-61
4.26082e-61
8.51632e-61
1.70096e-60
3.39486e-60
6.77064e-60
1.34933e-59
2.6871e-59
5.34719e-59
1.06327e-58
2.11267e-58
4.19462e-58
8.32191e-58
1.64976e-57
3.26802e-57
6.46862e-57
1.27938e-56
2.52843e-56
4.99297e-56
9.85198e-56
1.94242e-55
3.82662e-55
7.53248e-55
1.48153e-54
2.91158e-54
5.71732e-54
1.12176e-53
2.19911e-53
4.30759e-53
8.4306e-53
1.64861e-52
3.22114e-52
6.28828e-52
1.22654e-51
2.39035e-51
4.65439e-51
9.05499e-51
1.76008e-50
3.41818e-50
6.63245e-50
1.28578e-49
2.4904e-49
4.81928e-49
9.31755e-49
1.79981e-48
3.47337e-48
6.69696e-48
1.29003e-47
2.48267e-47
4.77343e-47
9.16921e-47
1.75963e-46
3.37362e-46
6.46181e-46
1.2365e-45
2.36379e-45
4.5144e-45
8.6132e-45
1.64172e-44
3.12609e-44
5.9466e-44
1.13005e-43
2.1453e-43
4.0685e-43
7.70787e-43
1.45877e-42
2.75796e-42
5.20876e-42
9.82707e-42
1.85206e-41
3.48676e-41
6.55728e-41
1.23185e-40
2.31164e-40
4.33318e-40
8.11368e-40
1.51757e-39
2.83527e-39
5.2912e-39
9.86336e-39
1.83655e-38
3.41574e-38
6.34552e-38
1.17746e-37
2.18234e-37
4.04006e-37
7.47036e-37
1.37968e-36
2.54506e-36
4.68916e-36
8.6291e-36
1.58601e-35
2.91149e-35
5.33812e-35
9.77508e-35
1.78776e-34
3.26551e-34
5.9572e-34
1.08537e-33
1.97495e-33
3.589e-33
6.51363e-33
1.1806e-32
2.13703e-32
3.86314e-32
6.9741e-32
1.25733e-31
2.26372e-31
4.07008e-31
7.30776e-31
1.31028e-30
2.34605e-30
4.1947e-30
7.48945e-30
1.3353e-29
2.37732e-29
4.22636e-29
7.50262e-29
1.32991e-28
2.35393e-28
4.16022e-28
7.34159e-28
1.29363e-27
2.27598e-27
3.99818e-27
7.01273e-27
1.22811e-26
2.14739e-26
3.74886e-26
6.53429e-26
1.13711e-25
1.97565e-25
3.42699e-25
5.9348e-25
1.02609e-24
1.7711e-24
3.05194e-24
5.25024e-24
9.01667e-24
1.54586e-23
2.64575e-23
4.52037e-23
7.70977e-23
1.31263e-22
2.23088e-22
3.78472e-22
6.40927e-22
1.08342e-21
1.82806e-21
3.07882e-21
5.17575e-21
8.6846e-21
1.45448e-20
2.43132e-20
4.05643e-20
6.75475e-20
1.12261e-19
1.86209e-19
3.08258e-19
5.0929e-19
8.39738e-19
1.3818e-18
2.26915e-18
3.71869e-18
6.0816e-18
9.92523e-18
1.61641e-17
2.62688e-17
4.25995e-17
6.89339e-17
1.11306e-16
1.79332e-16
2.88296e-16
4.62439e-16
7.40113e-16
1.18185e-15
1.88294e-15
2.99307e-15
4.74671e-15
7.51029e-15
1.1855e-14
1.86688e-14
2.93288e-14
4.59651e-14
7.18634e-14
1.12079e-13
1.74371e-13
2.70608e-13
4.18911e-13
6.46852e-13
9.96282e-13
1.53054e-12
2.34522e-12
3.58419e-12
5.4633e-12
8.30555e-12
1.25928e-11
1.90416e-11
2.87149e-11
4.31839e-11
6.47647e-11
9.68604e-11
1.44456e-10
2.14832e-10
3.18584e-10
4.71088e-10
6.9458e-10
1.02112e-09
1.49676e-09
2.18746e-09
3.18735e-09
4.63033e-09
6.7062e-09
9.68304e-09
1.39382e-08
2.00012e-08
2.86116e-08
4.07999e-08
5.79956e-08
8.2175e-08
1.1606e-07
1.63385e-07
2.29255e-07
3.2062e-07
4.46909e-07
6.20858e-07
8.59607e-07
1.18613e-06
1.63108e-06
2.23522e-06
3.05252e-06
4.15411e-06
5.63336e-06
7.61233e-06
1.02499e-05
1.37517e-05
1.83834e-05
2.44858e-05
3.24945e-05
4.29641e-05
5.65965e-05
7.42768e-05
9.71149e-05
0.000126497
0.000164143
0.000212181
0.000273227
0.00035048
0.000447835
0.000570005
0.000722665
0.000912611
0.00114793
0.00143821
0.00179471
0.00223064
0.00276132
0.0034045
0.00418054
0.00511267
0.00622724
0.00755388
0.00912575
0.0109796
0.0131559
0.0156989
0.0186566
0.0220802
0.0260247
0.0305477
0.0357093
0.0415715
0.0481976
0.0556508
0.0639938
0.0732875
0.0835896
0.0949538
0.107428
0.121052
0.13586
0.151875
0.169107
0.187558
0.207215
0.228052
0.250029
0.273091
0.29717
0.322185
0.34804
0.374628
0.401832
0.429524
0.457571
0.485833
0.514167
0.542429
0.570476
0.598168
0.625372
0.65196
0.677815
0.70283
0.726909
0.749971
0.771948
0.792785
0.812442
0.830893
0.848125
0.86414
0.878948
0.892572
0.905046
0.91641
0.926712
0.936006
0.944349
0.951802
0.958428
0.964291
0.969452
0.973975
0.977919
0.981343
0.9843
0.986843
0.989019
0.990872
0.992443
0.993769
0.994882
0.995812
0.996585
0.997225
0.997751
0.998181
0.998529
0.998809
0.999031
0.999203
0.999333
0.999426
0.999485
0.999515
0.999515
0.999485
0.999426
0.999333
0.999203
0.999031
0.998809
0.998529
0.998181
0.997751
0.997225
0.996585
0.995812
0.994882
0.993769
0.992443
0.990872
0.989019
0.986843
0.9843
0.981343
0.977919
0.973975
0.969452
0.964291
0.958428
0.951802
0.944349
0.936006
0.926712
0.91641
0.905046
0.892572
0.878948
0.86414
0.848125
0.830893
0.812442
0.792785
0.771948
0.749971
0.726909
0.70283
0.677815
0.65196
0.625372
0.598168
0.570476
0.542429
0.514167
0.485833
0.457571
0.429524
0.401832
0.374628
0.34804
0.322185
0.29717
0.273091
0.250029
0.228052
0.207215
0.187558
0.169107
0.151875
0.13586
0.121052
0.107428
0.0949538
0.0835896
0.0732875
0.0639938
0.0556508
0.0481976
0.0415715
0.0357093
0.0305477
0.0260247
0.0220802
0.0186566
0.0156989
0.0131559
0.0109796
0.00912575
0.00755388
0.00622724
0.00511267
0.00418054
0.0034045
0.00276132
0.00223064
0.00179471
0.00143821
0.00114793
0.000912611
0.000722665
0.000570005
0.000447835
0.00035048
0.000273227
0.000212181
0.000164143
0.000126497
9.71149e-05
7.42768e-05
5.65965e-05
4.29641e-05
3.24945e-05
2.44858e-05
1.83834e-05
1.37517e-05
1.02499e-05
7.61233e-06
5.63336e-06
4.15411e-06
3.05252e-06
2.23522e-06
1.63108e-06
1.18613e-06
8.59607e-07
6.20858e-07
4.46909e-07
3.2062e-07
2.29255e-07
1.63385e-07
1.1606e-07
8.2175e-08
5.79956e-08
4.07999e-08
2.86116e-08
2.00012e-08
1.39382e-08
9.68304e-09
6.7062e-09
4.63033e-09
3.18735e-09
2.18746e-09
1.49676e-09
1.02112e-09
6.9458e-10
4.71088e-10
3.18584e-10
2.14832e-10
1.44456e-10
9.68604e-11
6.47647e-11
4.31839e-11
2.87149e-11
1.90416e-11
1.25928e-11
8.30555e-12
5.4633e-12
3.58419e-12
2.34522e-12
1.53054e-12
9.96282e-13
6.46852e-13
4.18911e-13
2.70608e-13
1.74371e-13
1.12079e-13
7.18634e-14
4.59651e-14
2.93288e-14
1.86688e-14
1.1855e-14
7.51029e-15
4.74671e-15
2.99307e-15
1.88294e-15
1.18185e-15
7.40113e-16
4.62439e-16
2.88296e-16
1.79332e-16
1.11306e-16
6.89339e-17
4.25995e-17
2.62688e-17
1.61641e-17
9.92523e-18
6.0816e-18
3.71869e-18
2.26915e-18
1.3818e-18
8.39738e-19
5.0929e-19
3.08258e-19
1.86209e-19
1.12261e-19
6.75475e-20
4.05643e-20
2.43132e-20
1.45448e-20
8.6846e-21
5.17575e-21
3.07882e-21
1.82806e-21
1.08342e-21
6.40927e-22
3.78472e-22
2.23088e-22
1.31263e-22
7.70977e-23
4.52037e-23
2.64575e-23
1.54586e-23
9.01667e-24
5.25024e-24
3.05194e-24
1.7711e-24
1.02609e-24
5.9348e-25
3.42699e-25
1.97565e-25
1.13711e-25
6.53429e-26
3.74886e-26
2.14739e-26
1.22811e-26
7.01273e-27
3.99818e-27
2.27598e-27
1.29363e-27
7.34159e-28
4.16022e-28
2.35393e-28
1.32991e-28
7.50262e-29
4.22636e-29
2.37732e-29
1.3353e-29
7.48945e-30
4.1947e-30
2.34605e-30
1.31028e-30
7.30776e-31
4.07008e-31
2.26372e-31
1.25733e-31
6.9741e-32
3.86314e-32
2.13703e-32
1.1806e-32
6.51363e-33
3.589e-33
1.97495e-33
1.08537e-33
5.9572e-34
3.26551e-34
1.78776e-34
9.77508e-35
5.33812e-35
2.91149e-35
1.58601e-35
8.6291e-36
4.68916e-36
2.54506e-36
1.37968e-36
7.47036e-37
4.04006e-37
2.18234e-37
1.17746e-37
6.34552e-38
3.41574e-38
1.83655e-38
9.86336e-39
5.2912e-39
2.83527e-39
1.51757e-39
8.11368e-40
4.33318e-40
2.31164e-40
1.23185e-40
6.55728e-41
3.48676e-41
1.85206e-41
9.82707e-42
5.20876e-42
2.75796e-42
1.45877e-42
7.70787e-43
4.0685e-43
2.1453e-43
1.13005e-43
5.9466e-44
3.12609e-44
1.64172e-44
8.6132e-45
4.5144e-45
2.36379e-45
1.2365e-45
6.46181e-46
3.37362e-46
1.75963e-46
9.16921e-47
4.77343e-47
2.48267e-47
1.29003e-47
6.69696e-48
3.47337e-48
1.79981e-48
9.31755e-49
4.81928e-49
2.4904e-49
1.28578e-49
6.63245e-50
3.41818e-50
1.76008e-50
9.05499e-51
4.65439e-51
2.39035e-51
1.22654e-51
6.28828e-52
3.22114e-52
1.64861e-52
8.4306e-53
4.30759e-53
2.19911e-53
1.12176e-53
5.71732e-54
2.91158e-54
1.48153e-54
7.53248e-55
3.82662e-55
1.94242e-55
9.85198e-56
4.99297e-56
2.52843e-56
1.27938e-56
6.46862e-57
3.26802e-57
1.64976e-57
8.32191e-58
4.19462e-58
2.11267e-58
1.06327e-58
5.34719e-59
2.6871e-59
1.34933e-59
6.77064e-60
3.39486e-60
1.70096e-60
8.51632e-61
4.26082e-61
2.1302e-61
1.06423e-61
5.31303e-62
2.65057e-62
1.32138e-62
6.58284e-63
3.27713e-63
1.63032e-63
8.10492e-64
4.02649e-64
1.99897e-64
9.91725e-65
4.91678e-65
2.436e-65
1.20609e-65
5.96754e-66
2.95067e-66
1.45801e-66
7.19965e-67
3.55287e-67
1.75212e-67
8.63509e-68
4.25295e-68
2.09331e-68
1.02968e-68
5.06164e-69
2.48661e-69
1.22082e-69
5.98991e-70
2.93711e-70
1.4393e-70
7.04877e-71
3.44992e-71
1.68748e-71
8.24908e-72
4.03003e-72
1.96766e-72
9.60132e-73
4.68223e-73
2.28201e-73
1.11154e-73
5.41099e-74
2.63254e-74
1.28003e-74
6.22031e-75
3.02103e-75
1.46638e-75
7.11365e-76
3.44897e-76
1.67125e-76
8.09372e-77
3.91752e-77
1.8951e-77
9.16244e-78
4.42741e-78
2.13821e-78
1.03207e-78
4.97893e-79
2.40063e-79
1.15685e-79
5.57184e-80
2.68217e-80
1.29045e-80
6.20536e-81
2.98238e-81
1.43262e-81
6.87812e-82
3.30053e-82
1.58296e-82
7.58813e-83
3.63559e-83
1.74097e-83
8.33276e-84
3.98625e-84
1.90599e-84
9.10875e-85
4.3509e-85
2.07722e-85
9.91223e-86
4.72765e-86
2.25374e-86
1.07387e-86
5.11431e-87
2.43451e-87
1.15831e-87
5.50846e-88
2.61835e-88
1.24399e-88
5.90744e-89
2.80399e-89
1.3303e-89
6.3084e-90
2.9901e-90
1.41661e-90
6.7083e-91
3.17523e-91
1.50224e-91
7.104e-92
3.35791e-92
1.5865e-92
7.49226e-93
3.53664e-93
1.66869e-93
7.86982e-94
3.7099e-94
1.7481e-94
8.23343e-95
3.87618e-95
1.82405e-95
8.57991e-96
4.03403e-96
1.89587e-96
8.90617e-97
4.18203e-97
1.9629e-97
9.2093e-98
4.31887e-98
2.02456e-98
9.48659e-99
4.44332e-99
2.08029e-99
9.73557e-100
4.55428e-100
2.1296e-100
9.95406e-101
4.65077e-101
2.17207e-101
1.01402e-101
4.73199e-102
2.20733e-102
1.02924e-102
4.79727e-103
2.23511e-103
1.04096e-103
4.84614e-104
2.25522e-104
1.04909e-104
4.87827e-105
2.26752e-105
1.05359e-105
4.89353e-106
2.272e-106
1.05446e-106
4.89196e-107
2.26868e-107
1.05172e-107
4.87378e-108
2.25773e-108
1.04551e-108
4.84033e-109
2.2414e-109
1.04041e-109
4.88986e-110
2.43173e-110
1.49519e-110
)
;

boundaryField
{
    sides
    {
        type            zeroGradient;
    }
    empty
    {
        type            empty;
    }
}


// ************************************************************************* //
