/*--------------------------------*- C++ -*----------------------------------*\
| =========                 |                                                 |
| \\      /  F ield         | OpenFOAM: The Open Source CFD Toolbox           |
|  \\    /   O peration     | Version:  2112                                  |
|   \\  /    A nd           | Website:  www.openfoam.com                      |
|    \\/     M anipulation  |                                                 |
\*---------------------------------------------------------------------------*/
FoamFile
{
    version     2.0;
    format      ascii;
    arch        "LSB;label=32;scalar=64";
    class       volScalarField;
    location    "2";
    object      p;
}
// * * * * * * * * * * * * * * * * * * * * * * * * * * * * * * * * * * * * * //

dimensions      [0 2 -2 0 0 0 0];

internalField   nonuniform List<scalar> 
400
(
-8.5284624e-09
-0.00044384792
-0.00078050411
-0.00094021184
-0.00084067507
-0.0004551457
0.00021041363
0.0011357571
0.0022901032
0.0036285664
0.0050868869
0.0065779519
0.0079928397
0.0092100443
0.010113272
0.010617415
0.010699301
0.01042363
0.0099474477
0.0094765327
0.0004337065
-2.0657486e-05
-0.00026332048
-0.00032453613
-0.00017925187
0.00019332664
0.00079306623
0.001607839
0.0026150097
0.0037776909
0.0050404889
0.0063324458
0.0075587023
0.0086185279
0.0094172066
0.009887399
0.010013405
0.0098494598
0.0094981783
0.0090221929
0.00079539832
0.00019626299
-6.3994588e-05
-0.0001086663
4.1617461e-05
0.00039768788
0.00095874896
0.0017165749
0.0026551281
0.0037451834
0.0049396445
0.0061714691
0.0073519791
0.0083818057
0.0091641654
0.0096264794
0.0097462089
0.0095696488
0.0091653577
0.0085134701
0.00098928214
0.00020115222
-0.00012084495
-0.0001842516
-4.8229066e-05
0.00028830694
0.00082259752
0.0015497694
0.0024607539
0.0035342789
0.0047295941
0.0059849943
0.0072083214
0.0082915894
0.0091222889
0.0096079606
0.0097089328
0.0094643176
0.0089278728
0.0080294206
0.00088748511
-8.5347104e-05
-0.0004785198
-0.00057298575
-0.00045923592
-0.0001432153
0.00037176853
0.0010853931
0.0019967528
0.003093387
0.0043404045
0.0056882515
0.0070310818
0.0082466849
0.0091961723
0.0097535255
0.0098501224
0.0095155114
0.0088014915
0.0076041667
0.00039956542
-0.0007511296
-0.001218639
-0.0013503214
-0.0012635188
-0.00096894664
-0.00046868264
0.00024325011
0.0011761926
0.0023310974
0.0036885595
0.0051846513
0.006728166
0.0081713622
0.009335581
0.010043055
0.010176892
0.0097469633
0.0088065631
0.0072210948
-0.00054487882
-0.0018733081
-0.0024178906
-0.0025913804
-0.0025371013
-0.0022696787
-0.0017886751
-0.0010798037
-0.00012040173
0.0011069272
0.0025988382
0.0043087451
0.0061417725
0.0079293083
0.0094431413
0.010428861
0.010688303
0.010185825
0.0089630873
0.0068372981
-0.0020137221
-0.0035282249
-0.004154268
-0.0043754223
-0.004363948
-0.0041393667
-0.0036984637
-0.0030169792
-0.0020552182
-0.00077249841
0.00085512515
0.0028081764
0.0050092632
0.0072776175
0.0093291964
0.010801144
0.011359904
0.010869161
0.0093143694
0.0064149518
-0.0040805234
-0.005797955
-0.0065117303
-0.006788518
-0.0068367905
-0.0066844199
-0.0063269528
-0.0057298983
-0.0048336671
-0.0035668654
-0.0018637133
0.0003062008
0.0029172852
0.0058052101
0.0086418692
0.010924852
0.012104484
0.01183904
0.0099515013
0.0059548287
-0.0068289026
-0.0087741821
-0.0095806466
-0.0099193674
-0.010048084
-0.01000981
-0.0098030918
-0.0093857639
-0.0086785409
-0.0075744089
-0.0059501437
-0.0036929532
-0.00071972121
0.0028788708
0.0067836049
0.010344822
0.012696346
0.013114217
0.011038838
0.0055500198
-0.010357688
-0.012563402
-0.01345724
-0.0138507
-0.014072609
-0.014192098
-0.014218155
-0.014107499
-0.013766814
-0.013054931
-0.011777366
-0.0096908552
-0.0065868065
-0.0023257691
0.0028872239
0.0083114789
0.01268382
0.014643954
0.012845478
0.0054931136
-0.014792898
-0.017297097
-0.01824289
-0.018645259
-0.018939908
-0.019237361
-0.019566683
-0.019893571
-0.020122419
-0.020088438
-0.019531017
-0.018066442
-0.015223399
-0.010574449
-0.0039920207
0.0038747316
0.011395326
0.016295848
0.015800136
0.00649598
-0.020318989
-0.023152854
-0.024043892
-0.024324815
-0.024595991
-0.025026351
-0.025672589
-0.026519068
-0.027482496
-0.028392218
-0.028935823
-0.02858057
-0.026540528
-0.022025521
-0.014306924
-0.0036333303
0.0082499882
0.018015224
0.02063121
0.010109283
-0.027256676
-0.030395242
-0.030970217
-0.030839793
-0.030856524
-0.031257703
-0.032123931
-0.033459021
-0.035200164
-0.037185058
-0.039067182
-0.040191764
-0.039489366
-0.035627735
-0.027215254
-0.01371932
0.0035069835
0.02031783
0.028732558
0.019396106
-0.036251195
-0.039445283
-0.039119188
-0.03801936
-0.037353376
-0.037406071
-0.038251455
-0.039892404
-0.042274359
-0.045237384
-0.048401555
-0.051014347
-0.051799918
-0.048794162
-0.040003653
-0.023870854
-0.00077242075
0.025121135
0.042869076
0.039618422
-0.048741454
-0.050988394
-0.048499386
-0.045471935
-0.043463795
-0.042699329
-0.0431672
-0.044815052
-0.047549279
-0.05117163
-0.055233692
-0.058854946
-0.060543651
-0.058005622
-0.048518641
-0.029588942
-0.00027569098
0.036512974
0.067864377
0.078126371
-0.06816901
-0.066118481
-0.058900588
-0.052468899
-0.04825972
-0.046147523
-0.045881761
-0.047255139
-0.050040446
-0.053926625
-0.0583272
-0.062175992
-0.063734034
-0.060414443
-0.048929408
-0.026041905
0.010541162
0.060372714
0.11019185
0.1444653
-0.10287362
-0.085828038
-0.069798911
-0.057947899
-0.050572396
-0.046702904
-0.045564417
-0.046591479
-0.049312655
-0.05319869
-0.057448975
-0.060756445
-0.061118861
-0.055623925
-0.040464205
-0.011481742
0.035146603
0.10091775
0.17609787
0.25848032
-0.17390177
-0.10645903
-0.076855416
-0.057802197
-0.047058424
-0.041979605
-0.040685649
-0.041977109
-0.045037075
-0.049120037
-0.053251149
-0.055935205
-0.054890591
-0.046781696
-0.027654803
0.0080720346
0.066810018
0.15513978
0.27350418
0.4584921
-0.36874928
-0.12283559
-0.055867353
-0.035589332
-0.026934152
-0.024455144
-0.025998088
-0.029817362
-0.034843095
-0.040325468
-0.045355604
-0.048540961
-0.04780143
-0.040146679
-0.020683553
0.017017803
0.082662089
0.19637201
0.38776663
0.7613372
)
;

boundaryField
{
    movingWall
    {
        type            zeroGradient;
    }
    fixedWalls
    {
        type            zeroGradient;
    }
    frontAndBack
    {
        type            empty;
    }
}


// ************************************************************************* //
