/*--------------------------------*- C++ -*----------------------------------*\
| =========                 |                                                 |
| \\      /  F ield         | OpenFOAM: The Open Source CFD Toolbox           |
|  \\    /   O peration     | Version:  2112                                  |
|   \\  /    A nd           | Website:  www.openfoam.com                      |
|    \\/     M anipulation  |                                                 |
\*---------------------------------------------------------------------------*/
FoamFile
{
    version     2.0;
    format      ascii;
    arch        "LSB;label=32;scalar=64";
    class       surfaceScalarField;
    location    "2";
    object      phi;
}
// * * * * * * * * * * * * * * * * * * * * * * * * * * * * * * * * * * * * * //

dimensions      [0 3 -1 0 0 0 0];

oriented        oriented;

internalField   nonuniform List<scalar> 
760
(
1.0442386e-06
-1.0441399e-06
-3.4301065e-05
3.5345278e-05
-0.00010282113
6.8520032e-05
-0.00019063895
8.7817792e-05
-0.00028573556
9.509657e-05
-0.0003790563
9.3320706e-05
-0.00046380182
8.4745527e-05
-0.00053443763
7.0635831e-05
-0.00058594429
5.1506662e-05
-0.00061357457
2.7630266e-05
-0.00061314949
-4.2513405e-07
-0.00058182015
-3.1329382e-05
-0.00051934812
-6.247204e-05
-0.00042933269
-9.0015412e-05
-0.00032015012
-0.00010918258
-0.0002050764
-0.00011507373
-0.00010105469
-0.00010402174
-2.5767402e-05
-7.5287292e-05
7.294699e-06
-3.3062096e-05
7.2947354e-06
-3.5545075e-05
3.450091e-05
-0.00015077539
0.00015057549
-0.00032699456
0.00024473908
-0.00054005464
0.0003008778
-0.00076685507
0.00032189697
-0.00098787975
0.00031434541
-0.0011871615
0.00028402723
-0.0013512786
0.00023475299
-0.0014684235
0.00016865154
-0.0015281303
8.7336962e-05
-0.0015222177
-6.3377666e-06
-0.0014454651
-0.00010808202
-0.0012989701
-0.00020896701
-0.0010916406
-0.00029734483
-0.00084188805
-0.00035893523
-0.0005773802
-0.00037958166
-0.00033207621
-0.00034932579
-0.0001402113
-0.0002671522
-2.7841336e-05
-0.000145432
-2.0546623e-05
-7.4359488e-05
0.00010886036
-0.00026314638
0.00033936235
-0.00053123463
0.00051282729
-0.00084465766
0.00061430082
-0.0011728507
0.00065008999
-0.0014898879
0.00063138268
-0.0017741669
0.00056830624
-0.0020072908
0.00046787693
-0.0021730813
0.00033444204
-0.0022573909
0.00017164644
-0.0022489342
-1.4794458e-05
-0.0021410097
-0.00021600657
-0.0019347371
-0.00041523956
-0.001641722
-0.00059035994
-0.0012862308
-0.00071442656
-0.00090512876
-0.00076068376
-0.00054426047
-0.00071019411
-0.00025079794
-0.00056061473
-6.2779733e-05
-0.00033345022
-8.3326386e-05
-0.00010636576
0.00021522607
-0.00036044769
0.00059344428
-0.00070953987
0.00086191947
-0.0011092973
0.0010140583
-0.0015227646
0.0010635574
-0.0019196849
0.001028303
-0.0022751073
0.00092372862
-0.0025676821
0.00076045173
-0.0027783333
0.00054509317
-0.0028898884
0.00028320156
-0.0028880705
-1.6612292e-05
-0.0027629941
-0.00034108305
-0.0025137533
-0.00066448041
-0.0021517185
-0.00095239485
-0.0017041634
-0.0011619816
-0.0012153811
-0.0012494661
-0.00074327987
-0.0011822954
-0.00035036904
-0.00095352558
-9.0939217e-05
-0.00059288007
-0.00017426558
-0.00013322311
0.00034844916
-0.00044573374
0.00090595494
-0.00086846118
0.001284647
-0.0013467686
0.0014923658
-0.0018379113
0.0015547001
-0.002308521
0.0014989128
-0.0027317903
0.0013469979
-0.0030847652
0.0011134267
-0.0033463006
0.00080662854
-0.0034960585
0.00043295946
-0.0035163141
3.6432439e-06
-0.003390848
-0.00046654916
-0.0031140612
-0.00094126728
-0.0026933131
-0.001373143
-0.0021560155
-0.0016992793
-0.0015532765
-0.0018522052
-0.0009578392
-0.0017777327
-0.00045342788
-0.0014579369
-0.00011693347
-0.00092937447
-0.00029119898
-0.00015746727
0.00050591646
-0.00052472125
0.001273209
-0.0010175504
0.0017774762
-0.001571458
0.0020462734
-0.0021385254
0.0021217676
-0.0026832891
0.0020436767
-0.0031783279
0.0018420367
-0.0036002133
0.001535312
-0.0039263904
0.0011328056
-0.0041335258
0.00064009496
-0.0041966764
6.6793783e-05
-0.0040940842
-0.0005691414
-0.0038087985
-0.0012265531
-0.0033395
-0.0018424415
-0.0027094484
-0.0023293309
-0.0019752137
-0.0025864398
-0.0012281236
-0.0025248228
-0.0005822332
-0.0021038272
-0.00014805219
-0.0013635554
-0.00043925112
-0.00018132148
0.00068723797
-0.00060298068
0.0016948682
-0.0011658621
0.0023403577
-0.0017958835
0.0026762948
-0.0024406373
0.0027665214
-0.0030636856
0.0026667249
-0.0036383551
0.0024167062
-0.0041420508
0.0020390078
-0.0045516824
0.0015424373
-0.0048405899
0.00092900241
-0.0049772606
0.00020346446
-0.0049280673
-0.00061833467
-0.0046613486
-0.0014932718
-0.0041597592
-0.0023440309
-0.0034352074
-0.0030538827
-0.0025454819
-0.0034761653
-0.0016032076
-0.0034670971
-0.00076492462
-0.0029421101
-0.0001931725
-0.0019353074
-0.00063242363
-0.00020651305
0.00089375105
-0.00068502985
0.0021733851
-0.0013203996
0.0029757274
-0.002028741
0.0033846362
-0.0027538548
0.0034916352
-0.0034596802
0.0033725503
-0.0041219981
0.0030790241
-0.0047208241
0.0026378337
-0.0052340642
0.0020556774
-0.0056326812
0.0013276195
-0.0058777281
0.00044851134
-0.0059216823
-0.00057438046
-0.0057121666
-0.0017027875
-0.0052072433
-0.0028489541
-0.0043965963
-0.0038645296
-0.0033296923
-0.0045430693
-0.0021386903
-0.0046580989
-0.0010357138
-0.0040450867
-0.00026334853
-0.0027076726
-0.00089577221
-0.00023439257
0.0011281436
-0.0007743037
0.0027132963
-0.0014857432
0.0036871669
-0.0022740886
0.0041729816
-0.0030799768
0.0042975235
-0.0038692985
0.0041618719
-0.0046223554
0.0038320809
-0.0053240893
0.0033395676
-0.0059557887
0.0026873768
-0.0064881651
0.0018599959
-0.0068759955
0.00083634175
-0.0070573881
-0.00039298781
-0.0069550108
-0.0018051647
-0.0064937654
-0.0033101995
-0.0056270523
-0.0047312427
-0.0043790493
-0.0057910723
-0.0028897002
-0.0061474481
-0.0014344297
-0.0055003571
-0.00037293274
-0.0037691697
-0.0012687049
-0.00026636283
0.0013945065
-0.00087388291
0.0033208164
-0.0016646751
0.004477959
-0.0025315071
0.0050398135
-0.0034123836
0.0051784
-0.0042768757
0.005026364
-0.0051120687
0.0046672738
-0.0059104924
0.0041379913
-0.0066599799
0.0034368643
-0.0073346923
0.0025347083
-0.0078869336
0.0013885831
-0.008243695
-3.6226465e-05
-0.0083028661
-0.0017459935
-0.0079515689
-0.0036614968
-0.0070926164
-0.0055901952
-0.0057003938
-0.0071832949
-0.0038944078
-0.0079534341
-0.0020031509
-0.007391614
-0.00054120125
-0.0052311194
-0.001809906
-0.00030470059
0.001699207
-0.00098800462
0.0040041205
-0.0018597046
0.005349659
-0.0027970954
0.0059772043
-0.0037361781
0.0061174827
-0.004652096
0.0059422819
-0.0055409234
0.0055561012
-0.0064053705
0.0050024383
-0.0072433518
0.0042748455
-0.0080376376
0.003328994
-0.0087457965
0.002096742
-0.0092890224
0.00050699954
-0.0095539628
-0.0014810531
-0.0093907994
-0.0038246602
-0.0086443204
-0.0063366741
-0.0072115622
-0.0086160529
-0.0051435434
-0.010021453
-0.0027762269
-0.0097589304
-0.00079426006
-0.0072130861
-0.0026041661
-0.00035408023
0.0020532873
-0.001124619
0.0047746593
-0.0020754616
0.0063005018
-0.00306502
0.0069667627
-0.0040288173
0.0070812799
-0.0049500091
0.0068634737
-0.0058357081
0.0064418001
-0.0067008626
0.0058675929
-0.0075567069
0.0051306897
-0.0084004584
0.0041727456
-0.0092041577
0.0029004413
-0.0099017241
0.001204566
-0.010379638
-0.0010031396
-0.01047458
-0.0037297174
-0.0099785148
-0.0068327397
-0.0086913249
-0.0099032428
-0.0065343315
-0.012178446
-0.0037569096
-0.012536352
-0.0011649174
-0.0098050783
-0.0037690836
-0.00042445672
0.002477744
-0.0012994096
0.0056496122
-0.0023215776
0.0073226699
-0.0033284939
0.007973679
-0.0042597776
0.0080125635
-0.0051108258
0.0077145219
-0.0059021772
0.0072331516
-0.0066624896
0.0066279053
-0.0074186031
0.0058868031
-0.008187399
0.0049415414
-0.0089661799
0.0036792222
-0.0097200358
0.0019584219
-0.010358403
-0.00036477287
-0.010741873
-0.0033462472
-0.010635641
-0.006938971
-0.0097476134
-0.010791271
-0.0078174221
-0.014108638
-0.0048732158
-0.015480559
-0.0016834946
-0.0129948
-0.0054525781
-0.00053656107
0.0030143052
-0.0015414592
0.0066545102
-0.0026141115
0.0083953221
-0.0035763544
0.008935922
-0.0043841069
0.008820316
-0.0050535608
0.0083839758
-0.0056227956
0.0078023863
-0.0061356093
0.007140719
-0.0066352598
0.0063864536
-0.0071608198
0.0054671014
-0.0077418772
0.0042602796
-0.0083890965
0.0026056412
-0.0090702123
0.00031634296
-0.0096966087
-0.0027198508
-0.010066417
-0.0065691625
-0.0098390489
-0.011018639
-0.0085645559
-0.015383131
-0.0059171288
-0.018127986
-0.0023478458
-0.016564082
-0.0078004241
-0.00073212347
0.0037464287
-0.0018988174
0.0078212041
-0.0029680872
0.009464592
-0.0037734419
0.0097412767
-0.0043150271
0.0093619012
-0.0046463366
0.0087152854
-0.004830653
0.0079867027
-0.0049291307
0.0072391966
-0.0050004944
0.0064578173
-0.005103861
0.005570468
-0.0053000711
0.0044564896
-0.0056477619
0.002953332
-0.006198282
0.00086686318
-0.0069353937
-0.001982739
-0.0077593993
-0.005745157
-0.0083689482
-0.01040909
-0.0081939857
-0.015558093
-0.0064931931
-0.019828778
-0.0030639273
-0.019993348
-0.010864351
-0.0010904052
0.0048368339
-0.0024316595
0.0091624585
-0.0033539469
0.010386879
-0.0037891063
0.010176436
-0.0038362412
0.0094090362
-0.0036126611
0.0084917054
-0.0032172705
0.0075913122
-0.002730158
0.006752084
-0.0022213158
0.0059489751
-0.0017618283
0.0051109805
-0.0014330328
0.0041276941
-0.0013315805
0.0028518796
-0.0015691033
0.0011043861
-0.0022378922
-0.0013139502
-0.0033711454
-0.0046119039
-0.0048222269
-0.0089580084
-0.006061631
-0.014318689
-0.0060144309
-0.019875978
-0.0035777634
-0.022430016
-0.014442115
-0.0017419374
0.0065787713
-0.0031218894
0.010542411
-0.003516255
0.010781245
-0.0031663896
0.0098265708
-0.0023569721
0.0085996186
-0.0012933747
0.007428108
-0.00011037091
0.0064083084
0.0011031237
0.0055385894
0.0022790759
0.004773023
0.0033513102
0.0040387461
0.0042386822
0.0032403222
0.0048318492
0.0022587125
0.0049826486
0.00095358669
0.0045149731
-0.00084627487
0.0032624371
-0.0033593677
0.0011498604
-0.0068454318
-0.0015355109
-0.011633318
-0.0037439275
-0.017667562
-0.0034846731
-0.02268927
-0.017926788
-0.0027435787
0.00932235
-0.0033428701
0.011141702
-0.0023038462
0.0097422212
-0.00045832054
0.0079810451
0.0016705708
0.0064707273
0.0038329673
0.0052657115
0.0059128401
0.0043284356
0.007854885
0.0035965445
0.0096264699
0.0030014382
0.011191771
0.002473445
0.012493001
0.0019390925
0.013435504
0.0013162093
0.013871139
0.00051795185
0.013593389
-0.00056852516
0.012341151
-0.0021071304
0.0098188374
-0.0043231179
0.0058836559
-0.0076981363
0.001232645
-0.013016551
-0.0017332683
-0.019723357
-0.019660056
-0.0023273979
0.011649748
0.0001545376
0.0086597665
0.0042744073
0.0056223515
0.0082043625
0.0040510898
0.011689292
0.0029857981
0.014721479
0.0022335243
0.017339758
0.0017101562
0.019595248
0.0013410546
0.021530483
0.001066203
0.023163865
0.00084006345
0.024478093
0.00062486416
0.025407929
0.00038637323
0.025830454
9.5426457e-05
0.025589245
-0.00032731597
0.024378429
-0.0008963138
0.021794552
-0.0017392411
0.017303058
-0.0032066424
0.010616661
-0.0063301543
0.0031827658
-0.012289461
-0.01647729
0.011649748
0.020309514
0.025931866
0.029982956
0.032968754
0.035202278
0.036912434
0.038253489
0.039319692
0.040159755
0.040784619
0.041170993
0.041266419
0.040939103
0.040042789
0.038303548
0.035096906
0.028766752
0.01647729
)
;

boundaryField
{
    movingWall
    {
        type            calculated;
        value           uniform 0;
    }
    fixedWalls
    {
        type            calculated;
        value           uniform 0;
    }
    frontAndBack
    {
        type            empty;
        value           nonuniform List<scalar> 0();
    }
}


// ************************************************************************* //
