/*--------------------------------*- C++ -*----------------------------------*\
| =========                 |                                                 |
| \\      /  F ield         | OpenFOAM: The Open Source CFD Toolbox           |
|  \\    /   O peration     | Version:  2112                                  |
|   \\  /    A nd           | Website:  www.openfoam.com                      |
|    \\/     M anipulation  |                                                 |
\*---------------------------------------------------------------------------*/
FoamFile
{
    version     2.0;
    format      ascii;
    arch        "LSB;label=32;scalar=64";
    class       surfaceScalarField;
    location    "2";
    object      phi_0;
}
// * * * * * * * * * * * * * * * * * * * * * * * * * * * * * * * * * * * * * //

dimensions      [0 3 -1 0 0 0 0];

oriented        oriented;

internalField   nonuniform List<scalar> 
760
(
9.9809846e-07
-9.9799873e-07
-3.4349936e-05
3.534801e-05
-0.00010283452
6.848455e-05
-0.00019057173
8.7737176e-05
-0.00028554712
9.497535e-05
-0.00037871781
9.3170664e-05
-0.00046330131
8.45835e-05
-0.00053378428
7.0483e-05
-0.00058517179
5.1387503e-05
-0.00061274163
2.7569826e-05
-0.00061233745
-4.0422926e-07
-0.00058111836
-3.1219136e-05
-0.00051883948
-6.2278881e-05
-0.0004290694
-8.9770069e-05
-0.00032013321
-0.00010893619
-0.00020524651
-0.00011488671
-0.00010130335
-0.00010394318
-2.5975005e-05
-7.5328355e-05
7.1963027e-06
-3.3171303e-05
7.1963383e-06
-3.5546195e-05
3.454817e-05
-0.0001507248
0.00015052651
-0.00032678554
0.00024454517
-0.00053958262
0.00030053418
-0.00076603172
0.00032142443
-0.00098664695
0.0003137859
-0.0011855035
0.00028344001
-0.0013492316
0.00023421113
-0.0014660809
0.00016823679
-0.0015256416
8.7130471e-05
-0.0015197734
-6.2724887e-06
-0.0014432777
-0.00010771484
-0.0012972303
-0.0002083263
-0.0010904744
-0.0002965259
-0.00084131701
-0.00035809366
-0.00057730376
-0.00037890005
-0.00033229178
-0.00034895523
-0.00014047806
-0.00026714208
-2.7971591e-05
-0.00014567771
-2.0775276e-05
-7.4307032e-05
0.00010885517
-0.00026290513
0.00033912458
-0.0005306532
0.0005122932
-0.00084359263
0.0006134736
-0.0011711853
0.00064901709
-0.00148755
0.0006301507
-0.0017711456
0.00056703559
-0.0020036492
0.00046671474
-0.0021689635
0.00033355106
-0.0022530191
0.00017118607
-0.0022445927
-1.4698938e-05
-0.0021370137
-0.00021529385
-0.0019313813
-0.00041395877
-0.001639221
-0.00058868623
-0.0012846628
-0.00071265189
-0.00090440317
-0.00075915975
-0.00054413129
-0.00070922714
-0.00025093632
-0.00056033705
-6.289762e-05
-0.00033371642
-8.3672925e-05
-0.00010623628
0.0002150914
-0.00035996283
0.00059285113
-0.00070849735
0.00086082771
-0.001107521
0.0010124973
-0.0015201166
0.0010616127
-0.0019160826
0.0010261168
-0.002270542
0.00092149498
-0.0025622345
0.00075840726
-0.0027721836
0.00054350014
-0.0028833175
0.00028232002
-0.0028814441
-1.6572397e-05
-0.0027567326
-0.00034000531
-0.0025082738
-0.0006624177
-0.0021473626
-0.00094959752
-0.0017011178
-0.0011588967
-0.0012136164
-0.0012466612
-0.00074254096
-0.0011803026
-0.00035024288
-0.00095263514
-9.1000414e-05
-0.00059295891
-0.00017467332
-0.00013300902
0.0003481004
-0.00044498812
0.00090483025
-0.00086693006
0.0012827697
-0.0013442433
0.0014898106
-0.0018342306
0.0015516
-0.0023035849
0.0014954712
-0.0027255783
0.0013434885
-0.0030773557
0.0011101847
-0.0033378866
0.00080403097
-0.0034869548
0.00043138824
-0.0035069668
3.4396385e-06
-0.0033817781
-0.00046519401
-0.0031058412
-0.00093835465
-0.0026864659
-0.0013689729
-0.0021509057
-0.001694457
-0.0015500038
-0.0018475632
-0.00095618144
-0.001774125
-0.00045288647
-0.0014559301
-0.00011689909
-0.00092894628
-0.00029157234
-0.00015717502
0.00050527545
-0.00052373599
0.0012713913
-0.0010155691
0.0017746029
-0.0015682367
0.0020424782
-0.002133871
0.0021172344
-0.0026770683
0.0020386686
-0.0031704853
0.0018369054
-0.0035907946
0.001530494
-0.0039155685
0.0011288048
-0.004121626
0.00063744576
-0.0041841789
6.5992501e-05
-0.0040816395
-0.00056773335
-0.0037971584
-0.0012228359
-0.0033294288
-0.0018367025
-0.0027015734
-0.0023223124
-0.0019698527
-0.0025792839
-0.001225152
-0.0025188256
-0.00058107835
-0.0021000037
-0.00014786984
-0.0013621547
-0.00043944213
-0.00018097014
0.00068624561
-0.00060181477
0.001692236
-0.0011635368
0.0023363249
-0.0017921166
0.0026710581
-0.0024351924
0.0027603102
-0.0030563759
0.0026598521
-0.0036290615
0.002409591
-0.0041307505
0.002032183
-0.0045384873
0.0015365416
-0.0048257907
0.00092474917
-0.0049613674
0.00020156916
-0.0049118244
-0.00061727635
-0.0046457097
-0.0014889505
-0.0041457798
-0.0023366324
-0.0034238585
-0.0030442336
-0.002537401
-0.0034657414
-0.0015984611
-0.0034577655
-0.00076290829
-0.0029355564
-0.00019277056
-0.0019322923
-0.0006322127
-0.00020613426
0.0008923799
-0.00068378056
0.0021698823
-0.0013179067
0.0029704511
-0.0020246847
0.0033778362
-0.0027479464
0.0034835719
-0.0034516627
0.0033635683
-0.0041116643
0.0030695926
-0.0047080509
0.0026285695
-0.0052188656
0.0020473564
-0.0056152762
0.0013211598
-0.005858612
0.00044490488
-0.0059016692
-0.00057421907
-0.005692392
-0.0016982277
-0.0051890561
-0.0028399683
-0.0043813466
-0.003851943
-0.0033184152
-0.0045286728
-0.0021317546
-0.004644426
-0.0010325806
-0.0040347305
-0.00026264377
-0.0027022291
-0.00089485652
-0.00023403113
0.001126411
-0.0007731076
0.0027089589
-0.0014833327
0.0036806762
-0.0022701147
0.0041646181
-0.0030740999
0.0042875572
-0.0038611884
0.0041506568
-0.0046117091
0.0038201132
-0.005310671
0.0033275314
-0.0059394958
0.0026761812
-0.0064691175
0.0018507815
-0.0068546329
0.00083042026
-0.0070345361
-0.00039431586
-0.0069319129
-0.0018008508
-0.0064719753
-0.0032999059
-0.0056082276
-0.0047156907
-0.0043646158
-0.0057722846
-0.0028804238
-0.006128618
-0.0014300041
-0.0054851502
-0.00037184724
-0.0037603861
-0.0012667037
-0.0002660766
0.0013924876
-0.00087291466
0.003315797
-0.0016626697
0.0044704312
-0.002528107
0.0050300553
-0.0034072177
0.0051666678
-0.0042695611
0.0050130002
-0.0051022289
0.0046527809
-0.0058977998
0.0041231023
-0.0066442295
0.0034226108
-0.0073159022
0.0025224542
-0.0078654581
0.0013799762
-0.008220268
-3.95059e-05
-0.0082787071
-0.0017424118
-0.0079282184
-0.0036503946
-0.0070718103
-0.0055720988
-0.0056837889
-0.007160306
-0.0038831822
-0.0079292247
-0.0019974549
-0.0073708775
-0.00053968112
-0.0052181598
-0.0018063847
-0.00030455773
0.0016970453
-0.00098746736
0.0039987067
-0.001858483
0.0053414468
-0.0027948593
0.0059664316
-0.0037325663
0.0061043747
-0.0046467225
0.0059271565
-0.0055333949
0.0055394533
-0.0063953261
0.0049850335
-0.0072305337
0.0042578184
-0.0080219843
0.0033139047
-0.0087275293
0.0020855212
-0.0092687573
0.00050172212
-0.0095325973
-0.0014785717
-0.0093695662
-0.0038134257
-0.0086246586
-0.0063170063
-0.0071950215
-0.0085899431
-0.0051315689
-0.0099926773
-0.0027696211
-0.0097328251
-0.00079229984
-0.007195481
-0.0025986846
-0.0003541505
0.0020511958
-0.001124718
0.0047692742
-0.0020754112
0.0062921401
-0.0030645673
0.0069555878
-0.0040276707
0.007067478
-0.0049478514
0.0068473371
-0.0058322091
0.0064238109
-0.0066957098
0.0058485342
-0.0075496584
0.005111767
-0.0083914088
0.004155655
-0.0091931903
0.0028873027
-0.0098891334
0.0011976653
-0.010365894
-0.0010018114
-0.010460245
-0.0037190746
-0.0099643145
-0.0068129364
-0.0086782522
-0.0098760054
-0.0065237485
-0.012147181
-0.0037502627
-0.012506311
-0.0011626187
-0.009783125
-0.0037613034
-0.00042479348
0.0024759894
-0.0013003007
0.0056447815
-0.002323002
0.0073148413
-0.0033303308
0.0079629167
-0.0042618693
0.0079990165
-0.0051129944
0.0076984622
-0.0059042292
0.0072150458
-0.0066642283
0.0066085334
-0.0074198528
0.0058673914
-0.0081880276
0.0049238298
-0.0089660995
0.0036653745
-0.0097191529
0.0019507186
-0.010356605
-0.00036435947
-0.010738893
-0.003336786
-0.010631245
-0.0069205845
-0.0097418544
-0.010765396
-0.0078110877
-0.014077948
-0.0048680196
-0.015449379
-0.0016811816
-0.012969963
-0.0054424848
-0.00053717101
0.0030131605
-0.0015431673
0.0066507777
-0.0026170863
0.0083887604
-0.0035806519
0.0089264823
-0.0043897481
0.0088081127
-0.0050605472
0.0083692613
-0.0056311017
0.0077856003
-0.006145173
0.0071226046
-0.0066459727
0.0063681911
-0.0071725056
0.0054503627
-0.0077542516
0.0042471205
-0.0084017051
0.002598172
-0.0090822903
0.00031622579
-0.0097072248
-0.0027118514
-0.010074423
-0.0065533865
-0.0098434599
-0.010996359
-0.0085651881
-0.015356219
-0.0059152914
-0.018099276
-0.0023461691
-0.016539085
-0.0077886541
-0.00073292571
0.0037460862
-0.001901133
0.007818985
-0.0029722807
0.009459908
-0.0037797621
0.0097339637
-0.0043236814
0.0093520321
-0.0046574995
0.0087030795
-0.0048444481
0.007972549
-0.0049455992
0.0072237557
-0.0050195572
0.006442149
-0.0051252619
0.0055560673
-0.0053233187
0.0044451774
-0.0056720772
0.0029469305
-0.0062225406
0.00086668929
-0.0069581737
-0.0019762182
-0.0077790444
-0.0057325159
-0.0083837501
-0.010391653
-0.008202753
-0.015537217
-0.0064962439
-0.019805785
-0.0030637557
-0.019971573
-0.01085241
-0.0010911945
0.0048372807
-0.0024340536
0.0091618442
-0.0033584725
0.010384327
-0.0037961869
0.010171678
-0.0038462459
0.0094020911
-0.0036259048
0.0084827385
-0.0032339969
0.0075806411
-0.0027504777
0.0067402364
-0.0022451637
0.005936835
-0.00178886
0.0050997636
-0.0014625639
0.0041188812
-0.0013625868
0.0028469534
-0.0016003097
0.0011044122
-0.0022677877
-0.0013087404
-0.0033980057
-0.004602298
-0.0048441962
-0.0089454627
-0.0060769202
-0.014304493
-0.006022353
-0.019860352
-0.0035796499
-0.022414277
-0.01443206
-0.0017424006
0.0065796813
-0.00312356
0.010543004
-0.0035197437
0.010780511
-0.0031722588
0.0098241934
-0.0023657284
0.0085955608
-0.0013054552
0.0074224653
-0.0001261222
0.006401308
0.0010834582
0.005530656
0.0022555155
0.0047647777
0.0033241942
0.004031085
0.0042087499
0.0032343255
0.0048002402
0.0022554631
0.0049508159
0.00095383653
0.0044844474
-0.00084237196
0.0032347184
-0.003352569
0.0011263947
-0.0068371391
-0.0015533689
-0.011624729
-0.0037545634
-0.017659157
-0.0034882866
-0.022680553
-0.017920346
-0.0027434867
0.009323168
-0.003343149
0.011142666
-0.0023050823
0.0097424439
-0.00046119655
0.0079803077
0.0016654409
0.0064689233
0.0038250225
0.0052628836
0.0059015932
0.0043247373
0.0078400071
0.0035922421
0.0096078604
0.0029969244
0.011169687
0.0024692587
0.012468136
0.0019358764
0.013408999
0.0013145993
0.013844458
0.0005183783
0.013568023
-0.0005659373
0.012318447
-0.0021029934
0.0097997446
-0.0043184365
0.0058689972
-0.0076939816
0.0012230886
-0.013013249
-0.0017374574
-0.019720007
-0.019657804
-0.0023269023
0.01165007
0.00015553149
0.0086602322
0.0042752791
0.0056226963
0.0082045399
0.0040510469
0.011688141
0.0029853223
0.014718384
0.0022326405
0.017334185
0.0017089362
0.019586812
0.0013396155
0.021519029
0.0010647075
0.023149565
0.00083872265
0.024461522
0.00062391936
0.025390073
0.0003860483
0.025812618
9.5832755e-05
0.02557274
-0.00032605882
0.024364382
-0.0008946359
0.021783492
-0.0017375466
0.017295027
-0.0032055168
0.010611385
-0.0063296069
0.0031806302
-0.012289252
-0.016477174
0.01165007
0.020310303
0.025932999
0.029984046
0.032969368
0.035202009
0.036910945
0.03825056
0.039315268
0.04015399
0.04077791
0.041163958
0.04125979
0.040933732
0.040039096
0.038301549
0.035096032
0.028766426
0.016477174
)
;

boundaryField
{
    movingWall
    {
        type            calculated;
        value           uniform 0;
    }
    fixedWalls
    {
        type            calculated;
        value           uniform 0;
    }
    frontAndBack
    {
        type            empty;
        value           nonuniform List<scalar> 0();
    }
}


// ************************************************************************* //
