/*--------------------------------*- C++ -*----------------------------------*\
| =========                 |                                                 |
| \\      /  F ield         | OpenFOAM: The Open Source CFD Toolbox           |
|  \\    /   O peration     | Version:  2112                                  |
|   \\  /    A nd           | Website:  www.openfoam.com                      |
|    \\/     M anipulation  |                                                 |
\*---------------------------------------------------------------------------*/
FoamFile
{
    version     2.0;
    format      ascii;
    arch        "LSB;label=32;scalar=64";
    class       volVectorField;
    location    "2";
    object      U;
}
// * * * * * * * * * * * * * * * * * * * * * * * * * * * * * * * * * * * * * //

dimensions      [0 1 -1 0 0 0 0];

internalField   nonuniform List<vector> 
400
(
(0.00014041164 -0.00013621956 0)
(-0.00013430067 0.00013182323 0)
(-0.001266767 0.00039609075 0)
(-0.0028843351 0.00054525758 0)
(-0.0047541445 0.0006012162 0)
(-0.0066720229 0.00059398755 0)
(-0.0084799425 0.0005436793 0)
(-0.010056723 0.00045970227 0)
(-0.011298566 0.00034398993 0)
(-0.01210768 0.00019587254 0)
(-0.012392919 1.6753963e-05 0)
(-0.012080162 -0.00018718941 0)
(-0.011133806 -0.00039781807 0)
(-0.0095836446 -0.000587644 0)
(-0.0075477913 -0.00072065605 0)
(-0.0052458243 -0.00075807074 0)
(-0.0029873229 -0.00066851492 0)
(-0.0011236482 -0.00044178763 0)
(2.4616849e-05 -0.00010843873 0)
(0.00019202269 0.0001761684 0)
(-0.00012603672 0.00012846494 0)
(-0.0014753934 0.0014547391 0)
(-0.0045363415 0.002603434 0)
(-0.0085585614 0.0032869372 0)
(-0.013056284 0.0035489185 0)
(-0.017617582 0.0034809209 0)
(-0.021889806 0.0031582906 0)
(-0.02558238 0.0026263509 0)
(-0.028445812 0.0019064739 0)
(-0.030256998 0.001012326 0)
(-0.030824596 -3.1446181e-05 0)
(-0.030006268 -0.0011719701 0)
(-0.027750823 -0.0023136725 0)
(-0.024149924 -0.0033181169 0)
(-0.019473835 -0.0040151911 0)
(-0.014190844 -0.0042334616 0)
(-0.0089361108 -0.0038488377 0)
(-0.0044064838 -0.0028436065 0)
(-0.0012365043 -0.0013717679 0)
(-3.2001162e-05 4.7302027e-05 0)
(-0.00042492834 0.001290095 0)
(-0.0028368124 0.0045705153 0)
(-0.0076168603 0.0071485296 0)
(-0.013619744 0.0086837297 0)
(-0.020173246 0.0092504095 0)
(-0.026740152 0.0090162878 0)
(-0.032850024 0.0081351316 0)
(-0.038106424 0.006711933 0)
(-0.04216687 0.0048094296 0)
(-0.044727143 0.0024785748 0)
(-0.045527135 -0.00020267181 0)
(-0.044375865 -0.0030919296 0)
(-0.041203629 -0.00595388 0)
(-0.036126395 -0.0084587721 0)
(-0.029497406 -0.01021087 0)
(-0.021936899 -0.010820165 0)
(-0.014295346 -0.010015001 0)
(-0.00751505 -0.0077718903 0)
(-0.0025025121 -0.0044314647 0)
(-0.00027408748 -0.00089980285 0)
(-0.00065606305 0.0031220026 0)
(-0.0039905054 0.0090510448 0)
(-0.010308009 0.013391349 0)
(-0.018037509 0.015901154 0)
(-0.026335159 0.016759127 0)
(-0.034573652 0.01624367 0)
(-0.042210483 0.01460444 0)
(-0.048787825 0.01201597 0)
(-0.053905903 0.0085888056 0)
(-0.057201947 0.004416988 0)
(-0.05835533 -0.00035991372 0)
(-0.057110933 -0.0054998641 0)
(-0.053342653 -0.010599349 0)
(-0.047138483 -0.015096012 0)
(-0.038873145 -0.018309503 0)
(-0.029268032 -0.019560239 0)
(-0.019369849 -0.018361634 0)
(-0.010392262 -0.014641776 0)
(-0.0035780301 -0.0089163599 0)
(-0.00043474741 -0.0024501284 0)
(-0.00083751649 0.0055298768 0)
(-0.0049779665 0.014739517 0)
(-0.012691157 0.021134818 0)
(-0.02199244 0.024706885 0)
(-0.031874831 0.025826784 0)
(-0.041639541 0.02493189 0)
(-0.05070082 0.022389654 0)
(-0.05856975 0.018449868 0)
(-0.064812533 0.013266151 0)
(-0.069017265 0.0069635055 0)
(-0.070794881 -0.00027054274 0)
(-0.069791882 -0.0080882524 0)
(-0.065767372 -0.015926379 0)
(-0.058710196 -0.022955786 0)
(-0.048944997 -0.028140878 0)
(-0.037252721 -0.030407488 0)
(-0.024895039 -0.028935566 0)
(-0.01344803 -0.023514516 0)
(-0.0046245958 -0.014811914 0)
(-0.00054648127 -0.0045127488 0)
(-0.00099456277 0.0084418556 0)
(-0.005878753 0.02154531 0)
(-0.014912998 0.030297666 0)
(-0.02571813 0.035033405 0)
(-0.037133845 0.036407333 0)
(-0.048405858 0.035073457 0)
(-0.05892906 0.031544351 0)
(-0.068209206 0.026148829 0)
(-0.075799143 0.019069614 0)
(-0.081243806 0.010436109 0)
(-0.08405669 0.00044928714 0)
(-0.083754526 -0.010479027 0)
(-0.079918303 -0.021632683 0)
(-0.072324667 -0.031890626 0)
(-0.061146919 -0.039773999 0)
(-0.047159065 -0.043653994 0)
(-0.031854158 -0.042174898 0)
(-0.017301011 -0.034820657 0)
(-0.0059056109 -0.022375936 0)
(-0.00066099203 -0.0071144834 0)
(-0.0011471943 0.011827673 0)
(-0.0067674053 0.029429591 0)
(-0.01711833 0.040849103 0)
(-0.02942971 0.046866011 0)
(-0.042396931 0.048514614 0)
(-0.0552288 0.046730737 0)
(-0.067327041 0.042203802 0)
(-0.078220373 0.03534363 0)
(-0.087471306 0.02633889 0)
(-0.094592696 0.015279651 0)
(-0.099001086 0.0023193386 0)
(-0.10003021 -0.012143771 0)
(-0.09698912 -0.027277256 0)
(-0.089325914 -0.041665607 0)
(-0.076910124 -0.053289062 0)
(-0.060377604 -0.059740825 0)
(-0.041418831 -0.058806113 0)
(-0.022732592 -0.049356956 0)
(-0.0077532287 -0.032193547 0)
(-0.00083666736 -0.01043696 0)
(-0.0013099605 0.015697896 0)
(-0.0077038213 0.038415744 0)
(-0.019424341 0.052817112 0)
(-0.033287775 0.060238977 0)
(-0.047850203 0.062203436 0)
(-0.062305972 0.060003641 0)
(-0.076095784 0.054543196 0)
(-0.088807716 0.046314628 0)
(-0.1000489 0.035481624 0)
(-0.10932658 0.022032455 0)
(-0.11596673 0.0059830364 0)
(-0.11909299 -0.012378688 0)
(-0.11766284 -0.03221433 0)
(-0.1106509 -0.051855768 0)
(-0.097419596 -0.068660691 0)
(-0.078243081 -0.079169442 0)
(-0.054861477 -0.079829658 0)
(-0.030675201 -0.068356523 0)
(-0.010584825 -0.045275628 0)
(-0.0011469678 -0.014859922 0)
(-0.0014942355 0.020093666 0)
(-0.0087355575 0.048576936 0)
(-0.021917087 0.066268621 0)
(-0.037386871 0.075202161 0)
(-0.053559948 0.077520033 0)
(-0.069641985 0.074964121 0)
(-0.085150909 0.068698069 0)
(-0.099779097 0.059301913 0)
(-0.11322669 0.046881245 0)
(-0.12504273 0.031250193 0)
(-0.13449933 0.012173088 0)
(-0.14052107 -0.010323753 0)
(-0.14167168 -0.03555727 0)
(-0.1363283 -0.061730714 0)
(-0.1231194 -0.085568431 0)
(-0.10163323 -0.10228551 0)
(-0.073323446 -0.10636383 0)
(-0.042156044 -0.093463683 0)
(-0.014932875 -0.063133613 0)
(-0.0016991576 -0.021015633 0)
(-0.0017132859 0.025081782 0)
(-0.0099109255 0.060022317 0)
(-0.024666635 0.081279382 0)
(-0.041764763 0.091770407 0)
(-0.059469634 0.094429712 0)
(-0.077027003 0.091561124 0)
(-0.094074027 0.084645033 0)
(-0.11045681 0.074360386 0)
(-0.12602679 0.060726377 0)
(-0.14044473 0.043311081 0)
(-0.15300747 0.02150116 0)
(-0.16251331 -0.0051235729 0)
(-0.16717554 -0.036245311 0)
(-0.16474195 -0.070185756 0)
(-0.15292901 -0.1031623 0)
(-0.13025853 -0.12890834 0)
(-0.097325919 -0.13926476 0)
(-0.058115106 -0.12652501 0)
(-0.021476132 -0.087799859 0)
(-0.0026701713 -0.029872672 0)
(-0.0019917055 0.030762442 0)
(-0.011304621 0.072894363 0)
(-0.02776008 0.097904857 0)
(-0.046429584 0.1098648 0)
(-0.065412586 0.11272936 0)
(-0.08402992 0.10950314 0)
(-0.10208123 0.1020498 0)
(-0.11961292 0.091167047 0)
(-0.1366868 0.076773356 0)
(-0.15316215 0.058138642 0)
(-0.1684847 0.034167632 0)
(-0.18146787 0.0038145744 0)
(-0.19016799 -0.033258708 0)
(-0.19186105 -0.075797035 0)
(-0.1833233 -0.11985991 0)
(-0.16169672 -0.15783644 0)
(-0.12596032 -0.17845783 0)
(-0.078987419 -0.16905785 0)
(-0.03104196 -0.12170711 0)
(-0.0043696825 -0.042861092 0)
(-0.0023840081 0.037299524 0)
(-0.013063334 0.087384234 0)
(-0.031354978 0.11615195 0)
(-0.051400939 0.12924257 0)
(-0.071133349 0.13194365 0)
(-0.090003181 0.12812327 0)
(-0.10801989 0.12009645 0)
(-0.1254678 0.10880524 0)
(-0.14266624 0.094075265 0)
(-0.15975652 0.0748682 0)
(-0.17648686 0.049559859 0)
(-0.19195505 0.016355698 0)
(-0.20436398 -0.025999531 0)
(-0.21089222 -0.077048235 0)
(-0.20769707 -0.13328415 0)
(-0.19047168 -0.18635554 0)
(-0.15584197 -0.22201316 0)
(-0.10392184 -0.22124865 0)
(-0.044468532 -0.16725409 0)
(-0.0073213225 -0.062031644 0)
(-0.0030129779 0.044993207 0)
(-0.015486029 0.10377068 0)
(-0.035754347 0.13594222 0)
(-0.056748764 0.14940436 0)
(-0.076289625 0.15120219 0)
(-0.09406947 0.14624012 0)
(-0.11037587 0.13733439 0)
(-0.12576375 0.12559124 0)
(-0.14083892 0.1107754 0)
(-0.15609014 0.091590761 0)
(-0.1717191 0.065934482 0)
(-0.18739028 0.03127305 0)
(-0.20187944 -0.014670665 0)
(-0.21289347 -0.072715939 0)
(-0.21663268 -0.14047402 0)
(-0.20775179 -0.21000882 0)
(-0.18020244 -0.26522407 0)
(-0.1296372 -0.28048293 0)
(-0.062076703 -0.22577754 0)
(-0.012285669 -0.090148657 0)
(-0.0041492637 0.054435125 0)
(-0.019162079 0.12247908 0)
(-0.041487255 0.15703137 0)
(-0.062570358 0.16944397 0)
(-0.080342226 0.16908069 0)
(-0.094976859 0.16202553 0)
(-0.10716696 0.15158972 0)
(-0.1177851 0.13903274 0)
(-0.12773644 0.12409961 0)
(-0.13787753 0.1053449 0)
(-0.14893955 0.080353432 0)
(-0.16136558 0.046038174 0)
(-0.17498453 -0.00081125195 0)
(-0.18866495 -0.062562955 0)
(-0.19953669 -0.13864087 0)
(-0.20231568 -0.2230973 0)
(-0.18882982 -0.30031462 0)
(-0.14933668 -0.33985841 0)
(-0.082468848 -0.2956544 0)
(-0.020016711 -0.13037236 0)
(-0.0063699405 0.066829627 0)
(-0.025189593 0.14412741 0)
(-0.049305596 0.17879133 0)
(-0.068707979 0.18775402 0)
(-0.082061534 0.18335009 0)
(-0.090500312 0.17285925 0)
(-0.09535596 0.15996014 0)
(-0.097904805 0.14597972 0)
(-0.099354276 0.13065235 0)
(-0.10088586 0.11250547 0)
(-0.10370594 0.089045872 0)
(-0.10904094 0.056951615 0)
(-0.11801674 0.012428664 0)
(-0.13109864 -0.04812273 0)
(-0.14727603 -0.126516 0)
(-0.16290008 -0.22029888 0)
(-0.16944451 -0.31757946 0)
(-0.15247176 -0.38769958 0)
(-0.10075006 -0.36977643 0)
(-0.030399111 -0.18504119 0)
(-0.010825816 0.084621346 0)
(-0.03539941 0.16939041 0)
(-0.059695997 0.19965899 0)
(-0.073554726 0.20144122 0)
(-0.077881808 0.19054513 0)
(-0.075583456 0.17513066 0)
(-0.068960468 0.15888451 0)
(-0.059787248 0.14297313 0)
(-0.04953356 0.12703704 0)
(-0.039574397 0.10964388 0)
(-0.031392789 0.088443089 0)
(-0.026737411 0.060255323 0)
(-0.027716098 0.021245363 0)
(-0.036470615 -0.032725129 0)
(-0.054437651 -0.10553726 0)
(-0.081019403 -0.19896191 0)
(-0.11021146 -0.30809882 0)
(-0.12579185 -0.40900823 0)
(-0.10720352 -0.43384514 0)
(-0.040792969 -0.25397533 0)
(-0.019414898 0.11250062 0)
(-0.05177639 0.19770707 0)
(-0.070069856 0.21547463 0)
(-0.069744158 0.20494141 0)
(-0.057004027 0.18507375 0)
(-0.037437692 0.16386551 0)
(-0.014428944 0.14422501 0)
(0.0098952504 0.12669638 0)
(0.034052263 0.11062058 0)
(0.056778189 0.094574351 0)
(0.076666026 0.07648638 0)
(0.091885525 0.053646519 0)
(0.099908795 0.022736799 0)
(0.09751757 -0.02012347 0)
(0.08121766 -0.079489256 0)
(0.047927446 -0.16052138 0)
(-0.0016932977 -0.26684237 0)
(-0.054895829 -0.38871154 0)
(-0.088005636 -0.46718882 0)
(-0.044311809 -0.33262484 0)
(-0.033033558 0.15912022 0)
(-0.070094737 0.22178718 0)
(-0.06186937 0.21318264 0)
(-0.030124923 0.18567202 0)
(0.011296889 0.15690446 0)
(0.055064584 0.1318082 0)
(0.097906375 0.11116104 0)
(0.13832175 0.094306703 0)
(0.17556002 0.08007602 0)
(0.20902882 0.067036249 0)
(0.23787154 0.053500261 0)
(0.26066014 0.037452753 0)
(0.27502048 0.016472409 0)
(0.27753536 -0.012334554 0)
(0.2636814 -0.052502488 0)
(0.22761476 -0.10998383 0)
(0.16416 -0.19468997 0)
(0.076222362 -0.31625322 0)
(-0.025735821 -0.44517548 0)
(-0.027058509 -0.40084528 0)
(-0.032062132 0.24176241 0)
(-0.040492666 0.22082848 0)
(0.043626678 0.16471957 0)
(0.12601343 0.12529759 0)
(0.2005668 0.096320148 0)
(0.26584977 0.074829476 0)
(0.32226803 0.059138336 0)
(0.37082218 0.04757296 0)
(0.41253985 0.038647779 0)
(0.44809886 0.031114237 0)
(0.4775618 0.023836785 0)
(0.50018769 0.015672146 0)
(0.51410867 0.0053822021 0)
(0.51669142 -0.0083174316 0)
(0.50346968 -0.027485334 0)
(0.46774974 -0.055888985 0)
(0.40003163 -0.10246775 0)
(0.29177489 -0.19100088 0)
(0.11620189 -0.33549663 0)
(0.050176518 -0.39338471 0)
(0.24384151 0.15329659 0)
(0.30776251 0.11978671 0)
(0.45829402 0.077002384 0)
(0.5632254 0.05096943 0)
(0.63340421 0.034486991 0)
(0.68427052 0.023611866 0)
(0.72295143 0.016490062 0)
(0.75301673 0.011827189 0)
(0.77675796 0.0086624491 0)
(0.79559087 0.0063164094 0)
(0.81012397 0.0042883712 0)
(0.82024472 0.0021807482 0)
(0.82512347 -0.00035731266 0)
(0.82312135 -0.0034665234 0)
(0.81125497 -0.0078436551 0)
(0.78567925 -0.014564704 0)
(0.73681771 -0.025859068 0)
(0.65325225 -0.050949908 0)
(0.45623372 -0.11391511 0)
(0.3178328 -0.17237088 0)
)
;

boundaryField
{
    movingWall
    {
        type            fixedValue;
        value           uniform (1 0 0);
    }
    fixedWalls
    {
        type            fixedValue;
        value           uniform (0 0 0);
    }
    frontAndBack
    {
        type            empty;
    }
}


// ************************************************************************* //
