/*--------------------------------*- C++ -*----------------------------------*\
| =========                 |                                                 |
| \\      /  F ield         | OpenFOAM: The Open Source CFD Toolbox           |
|  \\    /   O peration     | Version:  2112                                  |
|   \\  /    A nd           | Website:  www.openfoam.com                      |
|    \\/     M anipulation  |                                                 |
\*---------------------------------------------------------------------------*/
FoamFile
{
    version     2.0;
    format      ascii;
    arch        "LSB;label=32;scalar=64";
    class       volVectorField;
    location    "2";
    object      U_0;
}
// * * * * * * * * * * * * * * * * * * * * * * * * * * * * * * * * * * * * * //

dimensions      [0 1 -1 0 0 0 0];

internalField   nonuniform List<vector> 
400
(
(0.00014015064 -0.00013595312 0)
(-0.00013514839 0.00013199603 0)
(-0.0012675962 0.00039605774 0)
(-0.0028839948 0.00054493033 0)
(-0.0047517377 0.0006006094 0)
(-0.0066668359 0.00059316936 0)
(-0.0084715468 0.00054274847 0)
(-0.010045076 0.00045878704 0)
(-0.01128409 0.00034324694 0)
(-0.012091313 0.00019547135 0)
(-0.012376094 1.6846179e-05 0)
(-0.012064647 -0.00018649407 0)
(-0.011121409 -0.00039656412 0)
(-0.0095758005 -0.00058604613 0)
(-0.0075450869 -0.00071908788 0)
(-0.0052476731 -0.00075698332 0)
(-0.0029919894 -0.00066827237 0)
(-0.0011287223 -0.00044243599 0)
(2.1591901e-05 -0.00010948393 0)
(0.00019131524 0.00017546648 0)
(-0.00012620556 0.00012933949 0)
(-0.0014753051 0.0014547304 0)
(-0.0045342525 0.0026019161 0)
(-0.0085522285 0.0032837386 0)
(-0.013043693 0.0035442302 0)
(-0.017597199 0.003475188 0)
(-0.021860839 0.00315215 0)
(-0.025545001 0.0026205985 0)
(-0.028401313 0.0019020171 0)
(-0.030207842 0.0010100817 0)
(-0.030774276 -3.0723812e-05 0)
(-0.029958965 -0.0011679163 0)
(-0.027710764 -0.0023065998 0)
(-0.024120476 -0.0033091398 0)
(-0.019456609 -0.0040061408 0)
(-0.014185058 -0.0042264829 0)
(-0.0089385596 -0.0038456682 0)
(-0.0044123193 -0.0028446857 0)
(-0.0012409121 -0.0013755189 0)
(-3.3314863e-05 4.4241127e-05 0)
(-0.00042478013 0.0012908264 0)
(-0.0028346555 0.0045683471 0)
(-0.0076094051 0.0071422266 0)
(-0.013603948 0.0086731894 0)
(-0.020146429 0.0092362491 0)
(-0.026700333 0.0089997203 0)
(-0.032796296 0.0081178659 0)
(-0.038039265 0.0066960686 0)
(-0.042088346 0.0047972984 0)
(-0.044640969 0.0024724677 0)
(-0.045438498 -0.00020093727 0)
(-0.044290961 -0.00308158 0)
(-0.041128824 -0.0059356936 0)
(-0.036067062 -0.0084353979 0)
(-0.029456694 -0.01018663 0)
(-0.02191475 -0.010800149 0)
(-0.014288207 -0.010003476 0)
(-0.0075166707 -0.0077703995 0)
(-0.0025060835 -0.0044373532 0)
(-0.00027556175 -0.00090579369 0)
(-0.00065538314 0.003120955 0)
(-0.0039855367 0.0090435395 0)
(-0.010293753 0.013376161 0)
(-0.018010139 0.015878502 0)
(-0.026291493 0.016730279 0)
(-0.034511387 0.016210865 0)
(-0.04212862 0.01457077 0)
(-0.048687025 0.011985209 0)
(-0.053788755 0.0085651196 0)
(-0.057073098 0.0044044651 0)
(-0.058221377 -0.00035799529 0)
(-0.056979954 -0.0054820218 0)
(-0.053223327 -0.010566667 0)
(-0.04703877 -0.015052794 0)
(-0.038798674 -0.018263059 0)
(-0.029220572 -0.019519507 0)
(-0.019346446 -0.018334594 0)
(-0.010385726 -0.0146322 0)
(-0.0035792076 -0.0089211243 0)
(-0.00043609376 -0.0024580913 0)
(-0.00083623371 0.0055253784 0)
(-0.0049699469 0.014723128 0)
(-0.012669654 0.021106181 0)
(-0.021952842 0.024666943 0)
(-0.031813456 0.02577768 0)
(-0.041553685 0.024877058 0)
(-0.050589184 0.022333757 0)
(-0.058432831 0.018398585 0)
(-0.064652984 0.013225799 0)
(-0.068840178 0.0069403747 0)
(-0.070607936 -0.00027119494 0)
(-0.069604945 -0.00806348 0)
(-0.06559173 -0.015877044 0)
(-0.058557263 -0.022887568 0)
(-0.048824188 -0.0280643 0)
(-0.037169106 -0.030336283 0)
(-0.02484747 -0.028883047 0)
(-0.013428862 -0.023488554 0)
(-0.0046218309 -0.014810371 0)
(-0.0005475246 -0.0045211959 0)
(-0.00099271916 0.0084322384 0)
(-0.0058679282 0.021516551 0)
(-0.01488484 0.030251063 0)
(-0.025667242 0.034970986 0)
(-0.037055937 0.036332261 0)
(-0.048297589 0.034990416 0)
(-0.058788435 0.031459614 0)
(-0.068036015 0.026070105 0)
(-0.075595464 0.019005647 0)
(-0.081014524 0.010395911 0)
(-0.083809868 0.0004408902 0)
(-0.08350161 -0.010450272 0)
(-0.079673647 -0.021566301 0)
(-0.072104035 -0.031792813 0)
(-0.060965005 -0.039658344 0)
(-0.047026087 -0.043539997 0)
(-0.031772456 -0.042083388 0)
(-0.017263385 -0.034766471 0)
(-0.0058968255 -0.022360418 0)
(-0.00066148343 -0.0071210623 0)
(-0.0011449242 0.011811516 0)
(-0.0067544771 0.029385518 0)
(-0.017085154 0.040780657 0)
(-0.029370133 0.046776498 0)
(-0.042305903 0.048408209 0)
(-0.055102028 0.04661326 0)
(-0.067161346 0.042083023 0)
(-0.078014174 0.035229263 0)
(-0.087225296 0.026242316 0)
(-0.094310707 0.015213187 0)
(-0.098690989 0.0022948231 0)
(-0.099704579 -0.012117252 0)
(-0.096665274 -0.027196165 0)
(-0.089024646 -0.041535121 0)
(-0.076652751 -0.053125121 0)
(-0.060181391 -0.059569464 0)
(-0.041291709 -0.058658274 0)
(-0.022669396 -0.04925843 0)
(-0.0077356551 -0.03215309 0)
(-0.00083619897 -0.010438055 0)
(-0.0013074893 0.015674284 0)
(-0.0076899464 0.038354472 0)
(-0.019388843 0.052724201 0)
(-0.033223858 0.060118967 0)
(-0.04775195 0.062061317 0)
(-0.062167881 0.059846083 0)
(-0.075913079 0.054379172 0)
(-0.088576876 0.046155688 0)
(-0.09976853 0.035341882 0)
(-0.10899868 0.02192807 0)
(-0.11559815 0.0059307751 0)
(-0.11869675 -0.012364127 0)
(-0.11725873 -0.032124198 0)
(-0.11026457 -0.051692137 0)
(-0.097079302 -0.068440458 0)
(-0.077974211 -0.078925343 0)
(-0.054679516 -0.079605235 0)
(-0.030579438 -0.068193355 0)
(-0.010555324 -0.045195535 0)
(-0.0011449745 -0.0148503 0)
(-0.0014918866 0.020062447 0)
(-0.0087223606 0.04849815 0)
(-0.02188305 0.066150543 0)
(-0.037324816 0.075050242 0)
(-0.053463154 0.0773397 0)
(-0.069503716 0.074762474 0)
(-0.084964682 0.068484862 0)
(-0.099539252 0.059090227 0)
(-0.11292944 0.046687925 0)
(-0.12468776 0.031095716 0)
(-0.13409183 0.012080241 0)
(-0.14007351 -0.010332972 0)
(-0.14120508 -0.035466665 0)
(-0.13587151 -0.061536966 0)
(-0.12270584 -0.085287443 0)
(-0.10129534 -0.10195584 0)
(-0.073084963 -0.1060429 0)
(-0.042023659 -0.09321341 0)
(-0.014888642 -0.062996049 0)
(-0.0016949397 -0.020988334 0)
(-0.0017114846 0.025043838 0)
(-0.0099004869 0.059927804 0)
(-0.024638895 0.08113806 0)
(-0.041712622 0.091588066 0)
(-0.059385922 0.094211744 0)
(-0.076904138 0.091314593 0)
(-0.093904256 0.084380018 0)
(-0.11023278 0.074091138 0)
(-0.12574268 0.060472355 0)
(-0.14009811 0.043097354 0)
(-0.15260155 0.021357306 0)
(-0.16205886 -0.0051670457 0)
(-0.16669251 -0.036163856 0)
(-0.16425881 -0.06996884 0)
(-0.15247968 -0.10282278 0)
(-0.12987808 -0.12848834 0)
(-0.097044341 -0.13883413 0)
(-0.057948893 -0.12616799 0)
(-0.021415604 -0.087586118 0)
(-0.0026628515 -0.029819262 0)
(-0.0019909615 0.030719936 0)
(-0.011299364 0.072788475 0)
(-0.027744254 0.097745505 0)
(-0.046396871 0.10965738 0)
(-0.065356084 0.11247878 0)
(-0.083942106 0.10921607 0)
(-0.10195415 0.10173626 0)
(-0.1194387 0.090842134 0)
(-0.13645875 0.076458874 0)
(-0.15287648 0.057864078 0)
(-0.16814262 0.033969152 0)
(-0.18107776 0.0037308313 0)
(-0.18974557 -0.033194684 0)
(-0.19142856 -0.075567776 0)
(-0.18290811 -0.11947406 0)
(-0.16132887 -0.1573362 0)
(-0.12567034 -0.17792009 0)
(-0.078801441 -0.16858556 0)
(-0.030966069 -0.12140204 0)
(-0.0043581565 -0.042772314 0)
(-0.0023848499 0.03725605 0)
(-0.013065704 0.087274136 0)
(-0.031356744 0.11598349 0)
(-0.051397474 0.12901999 0)
(-0.071119063 0.1316711 0)
(-0.089971923 0.12780685 0)
(-0.10796504 0.11974596 0)
(-0.12538264 0.1084363 0)
(-0.14254478 0.093711537 0)
(-0.15959482 0.07454274 0)
(-0.17628444 0.049313935 0)
(-0.19171603 0.016233869 0)
(-0.20409685 -0.025957991 0)
(-0.21060814 -0.07682116 0)
(-0.20740905 -0.13287626 0)
(-0.19019573 -0.18580527 0)
(-0.15560044 -0.22139547 0)
(-0.10374537 -0.22067408 0)
(-0.044383159 -0.16685314 0)
(-0.00730461 -0.061898873 0)
(-0.0030158033 0.044953681 0)
(-0.015497856 0.10366611 0)
(-0.035778051 0.1357771 0)
(-0.056782385 0.14918113 0)
(-0.076330043 0.15092419 0)
(-0.094113261 0.14591296 0)
(-0.11041924 0.13696758 0)
(-0.12580256 0.12520058 0)
(-0.14086914 0.11038558 0)
(-0.15610842 0.091236793 0)
(-0.17172325 0.065660113 0)
(-0.18737914 0.031124972 0)
(-0.201852 -0.014652182 0)
(-0.21284668 -0.07250746 0)
(-0.21656126 -0.14007833 0)
(-0.20765151 -0.20945794 0)
(-0.18007856 -0.26458113 0)
(-0.12951467 -0.27984887 0)
(-0.061996523 -0.22529612 0)
(-0.012264244 -0.089967232 0)
(-0.0041540752 0.054405199 0)
(-0.019183541 0.12239124 0)
(-0.041533735 0.15688433 0)
(-0.062643358 0.16923794 0)
(-0.08044199 0.16881826 0)
(-0.095103554 0.16171193 0)
(-0.10732033 0.15123408 0)
(-0.11796416 0.13865051 0)
(-0.12793931 0.12371528 0)
(-0.13810133 0.10499324 0)
(-0.14917995 0.080077441 0)
(-0.1616159 0.045882556 0)
(-0.17523382 -0.00080995282 0)
(-0.18889707 -0.062385604 0)
(-0.19973034 -0.13829161 0)
(-0.20244649 -0.22260198 0)
(-0.18888128 -0.29971839 0)
(-0.14931695 -0.33923551 0)
(-0.082419147 -0.29513595 0)
(-0.019994706 -0.13014762 0)
(-0.0063759712 0.066814362 0)
(-0.025217871 0.14406662 0)
(-0.049369461 0.17867662 0)
(-0.068812679 0.18758317 0)
(-0.082210943 0.18312495 0)
(-0.09069819 0.17258461 0)
(-0.095605338 0.15964442 0)
(-0.098207336 0.1456372 0)
(-0.099709581 0.13030584 0)
(-0.10129069 0.11218718 0)
(-0.10415324 0.088795105 0)
(-0.10951884 0.056808043 0)
(-0.11850719 0.012422365 0)
(-0.13157702 -0.047980292 0)
(-0.14771149 -0.12623394 0)
(-0.16325596 -0.21990104 0)
(-0.16968571 -0.31709498 0)
(-0.15258453 -0.38716765 0)
(-0.10075936 -0.36928997 0)
(-0.030385424 -0.18479495 0)
(-0.010831211 0.084622953 0)
(-0.035427563 0.16936235 0)
(-0.059763379 0.19958596 0)
(-0.073669838 0.20131868 0)
(-0.078051772 0.19037401 0)
(-0.075815053 0.17491495 0)
(-0.069259398 0.15863143 0)
(-0.060157164 0.14269482 0)
(-0.049975102 0.12675325 0)
(-0.040083846 0.1093821 0)
(-0.031960627 0.08823665 0)
(-0.027347667 0.060137358 0)
(-0.028346019 0.021239614 0)
(-0.037091848 -0.03261332 0)
(-0.055017942 -0.10532339 0)
(-0.081521484 -0.19867315 0)
(-0.1105925 -0.30775783 0)
(-0.12602207 -0.40862553 0)
(-0.10728386 -0.43346368 0)
(-0.040797223 -0.25374611 0)
(-0.019416993 0.11251577 0)
(-0.051794061 0.19770863 0)
(-0.070119536 0.21544287 0)
(-0.06983646 0.2048702 0)
(-0.057148869 0.1849629 0)
(-0.037644537 0.16371776 0)
(-0.014706141 0.14404596 0)
(0.0095419363 0.12649568 0)
(0.033620617 0.11041345 0)
(0.056271051 0.094382064 0)
(0.076093729 0.076334753 0)
(0.091266394 0.053561353 0)
(0.099268545 0.022736516 0)
(0.096885881 -0.020036294 0)
(0.080624715 -0.07933242 0)
(0.047403134 -0.1603255 0)
(-0.0021121699 -0.26663253 0)
(-0.055178406 -0.38849017 0)
(-0.088133765 -0.4669542 0)
(-0.044334411 -0.33245722 0)
(-0.03303064 0.15913952 0)
(-0.070093891 0.22180548 0)
(-0.061883117 0.21318065 0)
(-0.030164446 0.18564392 0)
(0.011218979 0.15684865 0)
(0.054936167 0.13172602 0)
(0.097716723 0.11105631 0)
(0.13806247 0.094186269 0)
(0.17522647 0.079949909 0)
(0.20862202 0.0669186 0)
(0.23740044 0.053408175 0)
(0.26014255 0.037403419 0)
(0.27448242 0.016478261 0)
(0.27700641 -0.012271803 0)
(0.26319091 -0.052396231 0)
(0.22718641 -0.10986033 0)
(0.16381391 -0.19457521 0)
(0.075976171 -0.31615508 0)
(-0.025860185 -0.44507447 0)
(-0.027087669 -0.40076632 0)
(-0.032056998 0.24177462 0)
(-0.040479214 0.22084654 0)
(0.043643962 0.1647301 0)
(0.12602554 0.12529527 0)
(0.20055949 0.096303338 0)
(0.26580994 0.074798792 0)
(0.32218397 0.059095983 0)
(0.37068443 0.047522661 0)
(0.41234264 0.038594792 0)
(0.44784189 0.031065596 0)
(0.47725199 0.023800782 0)
(0.49984008 0.015656922 0)
(0.51374628 0.0053934698 0)
(0.51634037 -0.0082799226 0)
(0.50315623 -0.027427681 0)
(0.46749185 -0.055825289 0)
(0.39983734 -0.10241526 0)
(0.29164143 -0.1909706 0)
(0.11612896 -0.3354768 0)
(0.050154367 -0.39337234 0)
(0.24384477 0.15329901 0)
(0.30777346 0.11979252 0)
(0.45831294 0.077008089 0)
(0.5632484 0.050972251 0)
(0.63342269 0.034486023 0)
(0.68427562 0.02360716 0)
(0.72293547 0.016482246 0)
(0.75297396 0.011817355 0)
(0.77668546 0.0086520956 0)
(0.79548935 0.0063074246 0)
(0.80999866 0.004282886 0)
(0.82010552 0.0021807247 0)
(0.82498408 -0.00035053083 0)
(0.82299727 -0.0034538019 0)
(0.81116029 -0.0078263438 0)
(0.78561974 -0.014546364 0)
(0.7367893 -0.025843806 0)
(0.6532426 -0.050942278 0)
(0.4562317 -0.11391423 0)
(0.31783186 -0.17237311 0)
)
;

boundaryField
{
    movingWall
    {
        type            fixedValue;
        value           uniform (1 0 0);
    }
    fixedWalls
    {
        type            fixedValue;
        value           uniform (0 0 0);
    }
    frontAndBack
    {
        type            empty;
    }
}


// ************************************************************************* //
