/*--------------------------------*- C++ -*----------------------------------*\
| =========                 |                                                 |
| \\      /  F ield         | OpenFOAM: The Open Source CFD Toolbox           |
|  \\    /   O peration     | Version:  2112                                  |
|   \\  /    A nd           | Website:  www.openfoam.com                      |
|    \\/     M anipulation  |                                                 |
\*---------------------------------------------------------------------------*/
FoamFile
{
    version     2.0;
    format      ascii;
    arch        "LSB;label=32;scalar=64";
    class       volScalarField;
    location    "4";
    object      T;
}
// * * * * * * * * * * * * * * * * * * * * * * * * * * * * * * * * * * * * * //

dimensions      [0 0 0 1 0 0 0];

internalField   nonuniform List<scalar> 
1000
(
0
0
0
0
0
0
0
0
0
0
0
0
0
0
0
0
0
0
0
0
0
0
0
0
0
0
0
0
0
0
0
0
0
0
0
0
0
0
0
0
0
0
0
0
0
0
0
0
0
0
5.48908e-312
-5.11766e-309
2.3741e-306
-7.30639e-304
1.67811e-301
-3.06805e-299
4.65092e-297
-6.01267e-295
6.76678e-293
-6.73449e-291
6.00082e-289
-4.83553e-287
3.55296e-285
-2.39692e-283
1.49345e-281
-8.63773e-280
4.65796e-278
-2.351e-276
1.11444e-274
-4.97647e-273
2.09909e-271
-8.38389e-270
3.17779e-268
-1.14536e-266
3.93271e-265
-1.28855e-263
4.03492e-262
-1.20923e-260
3.47285e-259
-9.56959e-258
2.53287e-256
-6.4461e-255
1.57893e-253
-3.72562e-252
8.47556e-251
-1.86042e-249
3.94314e-248
-8.0753e-247
1.59895e-245
-3.0629e-244
5.67923e-243
-1.01985e-241
1.77451e-240
-2.99307e-239
4.89594e-238
-7.76975e-237
1.19671e-235
-1.78949e-234
2.59876e-233
-3.66628e-232
5.02601e-231
-6.69675e-230
8.67451e-229
-1.09257e-227
1.33831e-226
-1.59452e-225
1.84811e-224
-2.08399e-223
2.28649e-222
-2.44104e-221
2.53588e-220
-2.5635e-219
2.52164e-218
-2.41355e-217
2.2476e-216
-2.03622e-215
1.79436e-214
-1.53779e-213
1.2814e-212
-1.03789e-211
8.16884e-211
-6.24507e-210
4.63535e-209
-3.33856e-208
2.33178e-207
-1.5781e-206
1.03398e-205
-6.55156e-205
4.00928e-204
-2.36583e-203
1.34349e-202
-7.32375e-202
3.82003e-201
-1.89823e-200
8.93205e-200
-3.94453e-199
1.6118e-198
-5.94157e-198
1.87181e-197
-4.27816e-197
7.15716e-198
6.74022e-196
-5.16429e-195
2.68826e-194
-1.10579e-193
3.55929e-193
-7.40175e-193
-4.87615e-193
1.49334e-191
-9.34475e-191
3.94644e-190
-1.1813e-189
1.75676e-189
6.23968e-189
-6.50586e-188
3.14491e-187
-9.98978e-187
1.59555e-186
4.46309e-186
-4.84204e-185
2.20386e-184
-6.07592e-184
4.80803e-184
5.3901e-183
-3.60606e-182
1.26133e-181
-2.12888e-181
-4.8085e-181
5.2093e-180
-2.09159e-179
4.22051e-179
4.4006e-179
-7.32025e-178
3.06722e-177
-6.15324e-177
-6.74825e-177
1.03938e-175
-4.07497e-175
6.86974e-175
1.50581e-174
-1.45264e-173
4.77781e-173
-4.90354e-173
-3.11521e-172
1.8687e-171
-4.5553e-171
-9.09358e-172
5.20039e-170
-2.02798e-169
2.76875e-169
9.88968e-169
-6.72724e-168
1.6146e-167
5.57821e-168
-1.8221e-166
6.28868e-166
-5.45963e-166
-4.11474e-165
2.01716e-164
-3.28459e-164
-7.52012e-164
5.72035e-163
-1.27432e-162
-9.46314e-163
1.49001e-161
-4.10671e-161
6.35501e-163
3.66322e-160
-1.18503e-159
5.35743e-160
8.69885e-159
-3.16965e-158
2.23207e-158
2.03612e-157
-8.00704e-157
6.58074e-157
4.77171e-156
-1.92927e-155
1.59163e-155
1.1281e-154
-4.44894e-154
3.20808e-154
2.68358e-153
-9.79815e-153
4.99763e-153
6.35234e-152
-2.04533e-151
3.70753e-152
1.47257e-150
-3.99029e-150
-1.19089e-150
3.28542e-149
-7.10027e-149
-7.234e-149
6.93115e-148
-1.09906e-147
-2.46985e-147
1.35638e-146
-1.30835e-146
-6.69145e-146
2.40164e-145
-5.68099e-146
-1.54606e-144
3.69178e-144
2.81254e-144
-3.09982e-143
4.48026e-143
1.17112e-142
-5.34404e-142
2.84885e-142
2.96059e-141
-7.60277e-141
-4.68393e-141
5.79553e-140
-7.82602e-140
-2.2492e-139
9.05749e-139
-2.16308e-139
-5.27741e-138
1.06172e-137
1.41452e-137
-8.93559e-137
6.50557e-137
4.32326e-136
-1.10507e-135
-7.83824e-136
7.82772e-135
-7.81009e-135
-3.3681e-134
9.77125e-134
4.57994e-134
-6.31941e-133
6.79335e-133
2.59636e-132
-7.60976e-132
-3.6915e-132
4.77265e-131
-4.608e-131
-1.99956e-130
5.24324e-130
3.87694e-130
-3.35415e-129
2.28506e-129
1.5023e-128
-3.12226e-128
-4.04341e-128
2.14136e-127
-4.90831e-128
-1.05435e-126
1.50068e-126
3.66746e-126
-1.18806e-125
-5.16557e-126
6.57491e-125
-4.64094e-125
-2.77808e-124
5.26997e-124
8.15958e-124
-3.43059e-123
-4.77164e-124
1.71146e-122
-1.4642e-122
-6.7776e-122
1.34827e-121
1.9391e-121
-8.15697e-121
-1.62668e-121
3.94776e-120
-2.74133e-120
-1.58049e-119
2.60983e-119
5.0045e-119
-1.59705e-118
-9.55568e-119
7.92182e-118
-1.96732e-118
-3.35939e-117
3.41518e-117
1.21835e-116
-2.38003e-116
-3.57426e-116
1.27823e-115
6.49318e-116
-5.89307e-115
1.1649e-115
2.41079e-114
-2.03011e-114
-8.79187e-114
1.38254e-113
2.79974e-113
-7.327e-113
-7.21773e-113
3.3846e-112
1.05126e-112
-1.41761e-111
3.26726e-112
5.47167e-111
-4.04533e-111
-1.95534e-110
2.52123e-110
6.43819e-110
-1.27042e-109
-1.91748e-109
5.70107e-109
4.91361e-109
-2.36475e-108
-9.1289e-109
9.2343e-108
-6.03791e-110
-3.43002e-107
1.23542e-107
1.21945e-106
-8.5664e-107
-4.16515e-106
4.3943e-106
1.36955e-105
-1.97076e-105
-4.33772e-105
8.15405e-105
1.32224e-104
-3.19043e-104
-3.86882e-104
1.19685e-103
1.08092e-103
-4.34225e-103
-2.85604e-103
1.53277e-102
7.00612e-103
-5.28747e-102
-1.5335e-102
1.78861e-101
2.681e-102
-5.94956e-101
-1.94806e-102
1.95046e-100
-1.24206e-101
-6.31378e-100
8.87472e-101
2.02119e-99
-4.01055e-100
-6.40638e-99
1.52112e-99
2.01231e-98
-5.1842e-99
-6.26758e-98
1.6235e-98
1.93612e-97
-4.68207e-98
-5.9313e-97
1.22387e-97
1.80124e-96
-2.75639e-97
-5.41847e-96
4.46421e-97
1.61287e-95
8.33407e-98
-4.74395e-95
-5.1956e-96
1.37642e-94
3.18064e-95
-3.93111e-94
-1.45889e-94
1.10236e-93
5.86681e-94
-3.02546e-93
-2.17531e-93
8.09381e-93
7.60421e-93
-2.09911e-92
-2.53492e-92
5.2367e-92
8.1087e-92
-1.24158e-91
-2.49709e-91
2.73953e-91
7.41293e-91
-5.38822e-91
-2.12101e-90
8.38623e-91
5.83988e-90
-4.85484e-91
-1.54233e-89
-3.51668e-90
3.88597e-89
2.17258e-89
-9.25647e-89
-8.71192e-89
2.05198e-88
2.93871e-88
-4.10515e-88
-8.90437e-88
6.88204e-88
2.48182e-87
-7.25472e-88
-6.41145e-87
-8.45142e-88
1.5316e-86
8.55848e-87
-3.34001e-86
-3.53141e-86
6.44046e-86
1.13656e-85
-1.00796e-85
-3.16521e-85
8.70129e-86
7.85372e-85
1.82009e-85
-1.7376e-84
-1.29985e-84
3.34368e-84
4.72445e-84
-5.16029e-84
-1.3518e-83
4.388e-84
3.29356e-83
8.42751e-84
-6.90077e-83
-5.81025e-83
1.19702e-82
1.98337e-82
-1.46339e-82
-5.223e-82
3.53577e-84
1.13762e-81
6.96391e-82
-2.01678e-81
-2.77139e-81
2.53915e-81
7.54334e-81
-4.54126e-82
-1.62313e-80
-9.87817e-81
2.73413e-80
3.9235e-80
-2.98187e-80
-1.01926e-79
-1.00621e-80
2.02148e-79
1.65209e-79
-2.92456e-79
-5.48448e-79
1.87475e-79
1.24341e-78
5.55975e-79
-2.06352e-78
-2.68106e-78
2.02688e-78
6.86908e-78
1.3932e-78
-1.23633e-77
-1.25727e-77
1.39493e-77
3.5674e-77
2.21022e-78
-6.68215e-77
-5.97364e-77
7.76303e-77
1.79222e-76
5.23048e-78
-3.34232e-76
-2.98671e-76
3.67164e-76
8.80781e-76
9.45095e-77
-1.55179e-75
-1.5679e-75
1.44503e-75
4.19947e-75
1.20564e-75
-6.55668e-75
-8.30013e-75
4.11603e-75
1.89035e-74
1.05574e-74
-2.38718e-74
-4.19463e-74
1.91277e-75
7.65893e-74
7.20122e-74
-6.42309e-74
-1.91236e-73
-7.90548e-74
2.55728e-73
3.98706e-73
-3.78061e-74
-7.32987e-73
-6.95257e-73
5.42585e-73
1.77092e-72
9.39434e-73
-2.04152e-72
-3.79691e-72
-6.04679e-73
5.81691e-72
7.37746e-72
-1.76715e-72
-1.44394e-71
-1.30654e-71
9.7188e-72
3.28965e-71
2.09202e-71
-3.12518e-71
-7.0721e-71
-2.93426e-71
8.36592e-71
1.46159e-70
3.25966e-71
-2.03316e-70
-2.94678e-70
-1.60502e-71
4.65461e-70
5.87036e-70
-5.1963e-71
-1.02395e-69
-1.16881e-69
2.31576e-70
2.19034e-69
2.34844e-69
-6.20029e-70
-4.58814e-69
-4.79427e-69
1.33067e-69
9.44351e-69
9.97258e-69
-2.35421e-69
-1.91032e-68
-2.11032e-68
3.04984e-69
3.78694e-68
4.51818e-68
-6.07263e-70
-7.30874e-68
-9.70682e-68
-1.41127e-68
1.3577e-67
2.07212e-67
6.69156e-68
-2.37999e-67
-4.34753e-67
-2.24032e-67
3.78948e-67
8.85593e-67
6.42276e-67
-4.98835e-67
-1.72508e-66
-1.66408e-66
3.54673e-67
3.1441e-66
3.97008e-66
7.70917e-67
-5.15976e-66
-8.74947e-66
-4.66414e-66
6.96694e-66
1.76638e-65
1.51934e-65
-5.27817e-66
-3.18908e-65
-3.95328e-65
-9.20749e-66
4.84999e-65
8.81872e-65
5.78399e-65
-5.07523e-65
-1.69277e-64
-1.80796e-64
-1.24008e-65
2.66277e-64
4.34571e-64
2.59089e-64
-2.79861e-64
-8.50219e-64
-9.01741e-64
-8.65911e-65
1.2877e-63
2.19368e-63
1.47924e-63
-1.09141e-63
-4.10156e-63
-4.91248e-63
-1.48559e-63
5.35844e-63
1.11133e-62
9.73616e-63
-1.59564e-63
-1.80708e-62
-2.73899e-62
-1.68206e-62
1.5449e-62
5.2526e-62
6.35101e-62
2.33202e-62
-6.163e-62
-1.4133e-61
-1.41713e-61
-1.61762e-62
1.98044e-61
3.6469e-61
3.10285e-61
-4.74098e-62
-5.76771e-61
-9.22654e-61
-6.80567e-61
2.89286e-61
1.59251e-60
2.32438e-60
1.53122e-60
-1.02596e-60
-4.26184e-60
-5.89475e-60
-3.62288e-60
3.01165e-60
1.11819e-59
1.51502e-59
9.18604e-60
-7.84569e-60
-2.88995e-59
-3.95525e-59
-2.50665e-59
1.82211e-59
7.35311e-59
1.04681e-58
7.26935e-59
-3.57902e-59
-1.83115e-58
-2.79211e-58
-2.19076e-58
4.65428e-59
4.40848e-58
7.43607e-58
6.70243e-58
4.52061e-59
-1.00271e-57
-1.95303e-57
-2.04074e-57
-6.68815e-58
2.05601e-57
4.97615e-57
6.08395e-57
3.45019e-57
-3.348e-57
-1.20115e-56
-1.74957e-56
-1.39015e-56
1.89649e-57
2.63676e-56
4.77145e-56
4.89991e-56
1.6697e-56
-4.78937e-56
-1.20417e-55
-1.55863e-55
-1.06407e-55
4.79647e-56
2.68739e-55
4.48401e-55
4.39399e-55
1.27419e-55
-4.72142e-55
-1.14334e-54
-1.48617e-54
-1.06305e-54
3.39603e-55
2.43199e-54
4.29148e-54
4.55753e-54
2.02732e-54
-3.47681e-54
-1.03454e-53
-1.50672e-53
-1.32352e-53
-1.74359e-54
1.84419e-53
4.02871e-53
5.11743e-53
3.71216e-53
-9.49172e-54
-8.11749e-53
-1.50181e-52
-1.72327e-52
-1.03126e-52
7.55936e-53
3.27773e-52
5.49557e-52
5.87152e-52
2.95574e-52
-3.70009e-52
-1.26268e-51
-2.00477e-51
-2.05739e-51
-9.2811e-52
1.51368e-51
4.72415e-51
7.35411e-51
7.49047e-51
3.374e-51
-5.50145e-51
-1.72753e-50
-2.72008e-50
-2.83932e-50
-1.42525e-50
1.76783e-50
6.15973e-50
1.0114e-49
1.11322e-49
6.64428e-50
-4.63856e-50
-2.11668e-49
-3.74862e-49
-4.45513e-49
-3.21599e-49
6.3772e-50
6.83096e-49
1.36531e-48
1.78898e-48
1.54947e-48
3.14341e-49
-1.9543e-48
-4.77992e-48
-7.068e-48
-7.24882e-48
-3.75884e-48
4.15592e-48
1.55022e-47
2.68466e-47
3.2376e-47
2.51888e-47
4.14882e-51
-4.30861e-47
-9.496e-47
-1.35751e-46
-1.37223e-46
-7.08505e-47
7.84237e-47
2.95509e-46
5.21559e-46
6.52012e-46
5.55122e-46
1.16223e-46
-6.95572e-46
-1.75414e-45
-2.72634e-45
-3.08435e-45
-2.21739e-45
3.40322e-46
4.59043e-45
9.74311e-45
1.40253e-44
1.48046e-44
9.19209e-45
-4.81819e-45
-2.68102e-44
-5.24189e-44
-7.2503e-44
-7.38692e-44
-4.2308e-44
3.17818e-44
1.4584e-43
2.77606e-43
3.80876e-43
3.88703e-43
2.27869e-43
-1.5368e-43
-7.49041e-43
-1.45302e-42
-2.03681e-42
-2.1573e-42
-1.42139e-42
4.82613e-43
3.59406e-42
7.46655e-42
1.10044e-41
1.24519e-41
9.64712e-42
6.26888e-43
-1.54166e-41
-3.69624e-41
-5.90903e-41
-7.30177e-41
-6.68611e-41
-2.81953e-41
5.13189e-41
1.69589e-40
3.07289e-40
4.22946e-40
4.5319e-40
3.2177e-40
-3.98186e-41
-6.59712e-40
-1.48492e-39
-2.34218e-39
-2.91642e-39
-2.76785e-39
-1.40913e-39
1.5429e-39
6.14361e-39
1.18564e-38
1.73165e-38
2.02308e-38
1.7549e-38
6.04246e-39
-1.66256e-38
-5.03662e-38
-9.08871e-38
-1.28132e-37
-1.45658e-37
-1.21861e-37
-3.39698e-38
1.34578e-37
3.835e-37
6.83106e-37
9.62815e-37
1.10552e-36
9.54132e-37
3.36916e-37
-8.83037e-37
-2.73353e-36
-5.04104e-36
-7.33867e-36
-8.80564e-36
-8.2821e-36
-4.41013e-36
4.05213e-36
1.77193e-35
3.5893e-35
5.5798e-35
7.19334e-35
7.58356e-35
5.66413e-35
2.86203e-36
-9.42928e-35
-2.35955e-34
-4.09361e-34
-5.81369e-34
-6.93605e-34
-6.62e-34
-3.84161e-34
2.41828e-34
1.28445e-33
2.73116e-33
4.42994e-33
6.02966e-33
6.93673e-33
6.31365e-33
3.15144e-33
-3.54978e-33
-1.44647e-32
-2.94828e-32
-4.71334e-32
-6.39781e-32
-7.41266e-32
-6.91122e-32
-3.84378e-32
2.88571e-32
1.41283e-31
3.00461e-31
4.95259e-31
6.95118e-31
8.43826e-31
8.55882e-31
6.18439e-31
2.57068e-33
-1.11215e-30
-2.7964e-30
-5.0118e-30
-7.53621e-30
-9.88207e-30
-1.12252e-29
-1.03709e-29
-5.79668e-30
4.18307e-30
2.10782e-29
4.56674e-29
7.72063e-29
1.12426e-28
1.44428e-28
1.61671e-28
1.47417e-28
8.00954e-29
-6.47578e-29
-3.10289e-28
-6.71145e-28
-1.14285e-27
-1.68775e-27
-2.21846e-27
-2.58094e-27
-2.54125e-27
-1.78211e-27
8.22388e-29
3.46217e-27
8.70801e-27
1.59733e-26
2.50187e-26
3.49568e-26
4.39546e-26
4.89302e-26
4.5312e-26
2.69679e-26
-1.35472e-26
-8.42313e-26
-1.9214e-25
-3.40924e-25
-5.27204e-25
-7.35715e-25
-9.33351e-25
-1.0626e-24
-1.03542e-24
-7.2916e-25
1.26812e-26
1.37155e-24
3.53202e-24
6.64183e-24
1.07482e-23
1.57054e-23
2.10514e-23
2.58551e-23
2.85441e-23
2.67355e-23
1.71059e-23
-4.63857e-24
-4.36062e-23
-1.05264e-22
-1.9454e-22
-3.14307e-22
-4.63092e-22
-6.31841e-22
-7.99648e-22
-9.28522e-22
-9.57434e-22
-7.96307e-22
-3.21093e-22
6.28233e-22
2.24397e-21
4.73756e-21
8.31177e-21
1.31125e-20
1.91516e-20
2.61961e-20
3.36091e-20
4.01543e-20
4.37291e-20
4.1101e-20
2.75556e-20
-3.32647e-21
-5.9876e-20
-1.52473e-19
-2.92232e-19
-4.93001e-19
-7.60749e-19
-1.11254e-18
-1.51883e-18
-2.01134e-18
-2.44067e-18
-2.88111e-18
-2.98054e-18
-2.552e-18
-2.07886e-18
2.58677e-18
6.08813e-19
2.28667e-17
)
;

boundaryField
{
    sides
    {
        type            zeroGradient;
    }
    empty
    {
        type            empty;
    }
}


// ************************************************************************* //
