/*--------------------------------*- C++ -*----------------------------------*\
| =========                 |                                                 |
| \\      /  F ield         | OpenFOAM: The Open Source CFD Toolbox           |
|  \\    /   O peration     | Version:  2112                                  |
|   \\  /    A nd           | Website:  www.openfoam.com                      |
|    \\/     M anipulation  |                                                 |
\*---------------------------------------------------------------------------*/
FoamFile
{
    version     2.0;
    format      ascii;
    arch        "LSB;label=32;scalar=64";
    class       volScalarField;
    location    "68.5";
    object      p;
}
// * * * * * * * * * * * * * * * * * * * * * * * * * * * * * * * * * * * * * //

dimensions      [0 2 -2 0 0 0 0];

internalField   nonuniform List<scalar> 
8800
(
0.884883
0.837097
0.798411
0.769419
0.748562
0.73374
0.723158
0.715699
0.710908
0.708891
0.710202
0.714429
0.721101
0.730437
0.743231
0.760975
0.785758
0.819703
0.862257
0.920959
0.716125
0.723805
0.731285
0.734596
0.733097
0.728027
0.721552
0.715493
0.710795
0.707988
0.707753
0.710301
0.714823
0.720793
0.727579
0.73387
0.737519
0.736787
0.731373
0.722687
0.69452
0.70068
0.70481
0.70776
0.709816
0.710431
0.70934
0.707257
0.705274
0.704411
0.705421
0.707844
0.710673
0.712876
0.713499
0.712311
0.709978
0.706591
0.702035
0.698275
0.688694
0.691345
0.694101
0.696509
0.698152
0.699325
0.700084
0.700226
0.699967
0.699966
0.700772
0.701987
0.70286
0.70295
0.702359
0.701281
0.699475
0.696911
0.694512
0.693008
0.683292
0.684718
0.686501
0.688539
0.690332
0.691686
0.692694
0.69352
0.694176
0.694796
0.695508
0.696055
0.696193
0.695935
0.695259
0.694026
0.692342
0.690503
0.6892
0.688368
0.678189
0.67911
0.680355
0.681929
0.683571
0.685111
0.686418
0.687518
0.688529
0.689487
0.690247
0.690635
0.690638
0.690233
0.689378
0.688197
0.686884
0.685635
0.684817
0.684265
0.673248
0.673918
0.674885
0.676195
0.677616
0.679091
0.680555
0.681915
0.683168
0.68435
0.685254
0.685692
0.685662
0.685194
0.684419
0.683495
0.682501
0.68159
0.68101
0.680604
0.668423
0.66894
0.669728
0.670867
0.672158
0.673551
0.675025
0.67654
0.67803
0.679453
0.680557
0.681111
0.681151
0.680816
0.680251
0.679554
0.678804
0.678135
0.677706
0.677388
0.663641
0.664052
0.664712
0.665729
0.666949
0.668298
0.669776
0.67138
0.673072
0.67477
0.676131
0.676888
0.67713
0.677021
0.676684
0.676204
0.675661
0.675187
0.67487
0.674611
0.658814
0.659148
0.65972
0.660659
0.661833
0.66317
0.664687
0.666395
0.668284
0.670282
0.671974
0.673038
0.673567
0.67372
0.67362
0.673369
0.673026
0.672714
0.672482
0.672264
0.653852
0.654129
0.65464
0.655534
0.656692
0.658057
0.659653
0.661508
0.663635
0.665981
0.66809
0.669549
0.670423
0.670875
0.671036
0.671018
0.670872
0.670704
0.67054
0.670351
0.648665
0.648898
0.64937
0.650249
0.651432
0.652869
0.654585
0.656642
0.659073
0.661852
0.664472
0.666404
0.667682
0.668479
0.668932
0.669154
0.669212
0.669176
0.669068
0.668899
0.643159
0.643357
0.64381
0.644704
0.645953
0.647505
0.649399
0.651725
0.654542
0.657862
0.6611
0.663596
0.665347
0.66654
0.667322
0.667804
0.66808
0.66817
0.66811
0.667954
0.637231
0.6374
0.637851
0.63879
0.640145
0.641865
0.644002
0.646677
0.649984
0.653971
0.657958
0.661128
0.663438
0.665086
0.666244
0.667039
0.667535
0.667746
0.667726
0.667579
0.630759
0.630904
0.631368
0.63238
0.633889
0.635836
0.638294
0.641414
0.645336
0.65014
0.655033
0.659008
0.661981
0.664166
0.665755
0.666894
0.667639
0.667977
0.667995
0.66785
0.623602
0.623722
0.624214
0.62533
0.627045
0.629288
0.632157
0.635842
0.640526
0.646329
0.652315
0.65725
0.661006
0.663825
0.665923
0.667455
0.668482
0.668952
0.669004
0.668859
0.615568
0.615675
0.616209
0.617464
0.619443
0.62206
0.625453
0.629847
0.635473
0.642495
0.649796
0.655875
0.660555
0.664119
0.666827
0.668824
0.670164
0.670771
0.670854
0.670704
0.606437
0.606536
0.607128
0.608546
0.610855
0.613963
0.618019
0.623299
0.630091
0.638597
0.647474
0.654909
0.66068
0.66512
0.66855
0.671087
0.672783
0.673536
0.673647
0.673489
0.595886
0.595966
0.596646
0.598289
0.601036
0.604768
0.609658
0.61605
0.624286
0.634599
0.645359
0.654389
0.661441
0.666914
0.671165
0.674349
0.676442
0.677345
0.67748
0.67731
0.583532
0.583598
0.584379
0.586334
0.589638
0.59417
0.600129
0.607929
0.61796
0.630468
0.643465
0.654361
0.662896
0.66957
0.674783
0.678705
0.681229
0.682282
0.682433
0.682247
0.568811
0.568866
0.56979
0.572162
0.576207
0.581791
0.589141
0.598743
0.611017
0.626189
0.641822
0.654876
0.665105
0.67315
0.679475
0.684223
0.687201
0.688391
0.688548
0.688344
0.550947
0.550991
0.552129
0.555087
0.560147
0.567153
0.576355
0.5883
0.603392
0.621782
0.640486
0.655995
0.668137
0.677724
0.685269
0.690939
0.694367
0.695665
0.695813
0.695588
0.528763
0.528805
0.530292
0.534137
0.540657
0.549666
0.561407
0.576442
0.595081
0.617325
0.639552
0.657795
0.67204
0.683328
0.692201
0.698826
0.702657
0.704013
0.704131
0.703885
0.500489
0.500552
0.502635
0.507909
0.516706
0.528656
0.543979
0.563119
0.586187
0.612977
0.63916
0.660369
0.676861
0.689951
0.700242
0.707779
0.711904
0.713236
0.713303
0.71304
0.463056
0.463223
0.466529
0.474441
0.487077
0.503532
0.523959
0.548491
0.576975
0.608995
0.639497
0.66382
0.682638
0.697571
0.709286
0.717588
0.721817
0.723023
0.723018
0.722744
0.410576
0.411578
0.418157
0.4315
0.450813
0.474241
0.501713
0.533056
0.567918
0.605733
0.640771
0.668253
0.689387
0.706103
0.719121
0.727918
0.731995
0.732972
0.73289
0.732613
0.334023
0.341423
0.356652
0.380182
0.409437
0.442203
0.478282
0.517465
0.559389
0.603465
0.643332
0.674159
0.697757
0.71638
0.73059
0.739642
0.743404
0.744143
0.744011
0.74377
0.251786
0.269273
0.293943
0.32828
0.36788
0.410113
0.454844
0.502025
0.551363
0.602316
0.647829
0.682692
0.709196
0.729985
0.745472
0.754295
0.757334
0.757785
0.757682
0.757518
0.183215
0.203815
0.236277
0.279796
0.328514
0.379656
0.432776
0.487799
0.544397
0.60201
0.652862
0.691454
0.720546
0.743065
0.758984
0.76721
0.769739
0.77013
0.770087
0.769964
0.127055
0.149325
0.187347
0.237352
0.293276
0.35192
0.412463
0.474681
0.538103
0.602055
0.657966
0.700034
0.731451
0.755321
0.771688
0.779701
0.782009
0.782366
0.782358
0.782267
0.0803376
0.103788
0.145622
0.200773
0.262487
0.327328
0.394245
0.462865
0.532544
0.602442
0.663173
0.708552
0.742204
0.767524
0.784459
0.792374
0.794684
0.795034
0.795054
0.794988
0.0407848
0.0648853
0.109606
0.168822
0.235407
0.305526
0.377988
0.452311
0.527707
0.603175
0.668514
0.717123
0.752997
0.779739
0.79735
0.805624
0.80796
0.808295
0.808324
0.808275
0.00635108
0.0308647
0.0778522
0.14043
0.211135
0.285849
0.363236
0.44272
0.523404
0.604126
0.673892
0.725647
0.763713
0.791912
0.810419
0.819073
0.821533
0.82188
0.821911
0.821882
-0.0244783
0.000390072
0.0492229
0.114667
0.188933
0.267684
0.3495
0.433711
0.519323
0.605042
0.67909
0.733934
0.774186
0.803837
0.823189
0.832319
0.834983
0.835344
0.835374
0.835356
-0.0526916
-0.0275114
0.0228952
0.0908217
0.168216
0.250555
0.336365
0.424917
0.515161
0.605677
0.683907
0.741782
0.784145
0.815238
0.835413
0.844978
0.847862
0.848288
0.848295
0.848281
-0.0791093
-0.0535746
-0.00175519
0.0683432
0.148535
0.23408
0.323508
0.416073
0.510687
0.605832
0.688175
0.749036
0.793466
0.82592
0.846851
0.856843
0.8599
0.860374
0.860389
0.860351
-0.104122
-0.078236
-0.0251013
0.0468606
0.129559
0.217987
0.310705
0.40698
0.505715
0.605345
0.691772
0.755615
0.802067
0.835802
0.857385
0.867649
0.870833
0.87131
0.871273
0.871235
-0.128184
-0.101884
-0.0477187
0.0261327
0.111058
0.20208
0.297792
0.397486
0.500105
0.604095
0.694618
0.761492
0.809949
0.844846
0.866916
0.87737
0.880585
0.881048
0.880976
0.880921
-0.151436
-0.124641
-0.0695431
0.00597357
0.0928859
0.186236
0.284659
0.387502
0.493773
0.601994
0.696652
0.76666
0.817164
0.853139
0.875556
0.886015
0.889193
0.88964
0.889531
0.88946
-0.174031
-0.14682
-0.0906827
-0.0137319
0.0749649
0.170394
0.271258
0.376977
0.486657
0.598965
0.69781
0.771133
0.823811
0.860849
0.883445
0.893739
0.896795
0.897176
0.897049
0.896962
-0.196105
-0.168398
-0.111277
-0.033031
0.05725
0.154534
0.257582
0.365902
0.47873
0.594952
0.698033
0.774911
0.830011
0.868148
0.890761
0.900697
0.903502
0.903789
0.903637
0.903537
-0.217721
-0.189411
-0.131403
-0.0519383
0.0397532
0.138663
0.243652
0.354297
0.469998
0.589912
0.697253
0.777975
0.835856
0.875263
0.897739
0.907041
0.909417
0.909565
0.909388
0.909282
-0.238731
-0.209853
-0.150989
-0.0704452
0.022489
0.12283
0.229511
0.342218
0.460497
0.583843
0.695388
0.780265
0.841391
0.882425
0.904732
0.913041
0.91468
0.914591
0.914401
0.914303
-0.259126
-0.229701
-0.170035
-0.0885143
0.00550049
0.107082
0.215236
0.329726
0.450287
0.576754
0.692376
0.781662
0.846585
0.889829
0.912225
0.919256
0.919617
0.918993
0.918791
0.918754
-0.278976
-0.248932
-0.188531
-0.106126
-0.0111584
0.0914897
0.200903
0.316913
0.439445
0.568691
0.688147
0.782011
0.851291
0.897504
0.920718
0.926651
0.925087
0.923181
0.922778
0.923077
-0.298124
-0.267531
-0.206426
-0.123233
-0.0274369
0.0761299
0.186599
0.303881
0.428076
0.559733
0.682669
0.781115
0.855244
0.905192
0.930388
0.936395
0.933179
0.9289
0.926961
0.92698
-0.316664
-0.285495
-0.223744
-0.139869
-0.0433706
0.0609588
0.172268
0.290575
0.416117
0.549808
0.675807
0.778696
0.85816
0.912456
0.940801
0.949023
0.946274
0.939055
0.931617
0.91816
-0.33453
-0.302812
-0.240598
-0.156234
-0.0592371
0.0456563
0.15751
0.276534
0.40306
0.538319
0.666961
0.77404
0.859577
0.918757
0.950543
0.962785
0.960985
0.947329
0.926523
0.916266
-0.351556
-0.319638
-0.256806
-0.172137
-0.0746832
0.0305593
0.142544
0.262072
0.389191
0.525494
0.656139
0.766586
0.858533
0.92286
0.955576
0.967882
0.967709
0.942461
0.875287
0.845363
-0.367086
-0.337245
-0.272064
-0.187106
-0.0889075
0.0161684
0.127687
0.247414
0.374723
0.511443
0.643235
0.755949
0.853417
0.923932
0.9505
0.957754
0.942621
0.886114
0.816714
0.774227
-0.42169
-0.35276
-0.285848
-0.20227
-0.103578
0.000988648
0.112865
0.232268
0.35927
0.495677
0.627587
0.741354
0.840123
0.917614
0.918448
0.917106
0.862159
0.78879
0.711053
0.667815
-0.383383
-0.367469
-0.30641
-0.221726
-0.125292
-0.0207584
0.0900913
0.208879
0.334964
0.47011
0.600382
0.712984
0.804838
0.888153
0.870069
0.750671
0.64174
0.566002
0.491205
0.520005
-0.413587
-0.384592
-0.322661
-0.238827
-0.142438
-0.0380244
0.0731086
0.191272
0.316315
0.449717
0.577298
0.685739
0.767776
0.811922
0.759665
0.605155
0.473771
0.379997
0.280033
0.32846
-0.436836
-0.404926
-0.341883
-0.257929
-0.161424
-0.0571219
0.0539286
0.17126
0.294911
0.425928
0.549804
0.651955
0.724861
0.73398
0.622908
0.446197
0.290539
0.169508
0.0370938
0.0690488
-0.45953
-0.426143
-0.361985
-0.277134
-0.180563
-0.0764253
0.0340874
0.150447
0.272498
0.40072
0.519871
0.613939
0.67108
0.648354
0.485364
0.285878
0.0933495
-0.0761736
-0.265531
-0.285151
-0.481622
-0.447824
-0.382819
-0.297221
-0.200535
-0.0966395
0.0132018
0.128456
0.24863
0.373625
0.487277
0.573072
0.610259
0.5503
0.354292
0.141047
-0.0779649
-0.26838
-0.510861
-0.806859
-0.504004
-0.470222
-0.404716
-0.318668
-0.221826
-0.118127
-0.00889321
0.105208
0.223378
0.344847
0.452621
0.529788
0.545062
0.433393
0.24009
0.0276216
-0.178437
-0.351919
-0.422367
-0.500821
-0.527618
-0.493796
-0.428023
-0.341787
-0.244927
-0.141524
-0.0329967
0.0797678
0.195599
0.31298
0.414419
0.480231
0.469986
0.324504
0.138432
-0.0550006
-0.219821
-0.31399
-0.338368
-0.354179
-0.552767
-0.518841
-0.452907
-0.366651
-0.269965
-0.167037
-0.0594652
0.0516497
0.164708
0.277325
0.371919
0.42308
0.394843
0.223274
0.0462276
-0.122054
-0.250478
-0.290187
-0.303001
-0.3043
-0.579651
-0.545529
-0.479434
-0.393257
-0.296891
-0.194673
-0.0883182
0.0208031
0.130638
0.237897
0.324687
0.361029
0.312453
0.129796
-0.0381246
-0.188842
-0.266429
-0.283498
-0.284827
-0.284627
-0.608326
-0.573922
-0.507631
-0.421603
-0.325723
-0.22442
-0.11956
-0.0127859
0.0934032
0.194775
0.272843
0.297318
0.211974
0.0444596
-0.114979
-0.239176
-0.27646
-0.274858
-0.27396
-0.273366
-0.63851
-0.603847
-0.537397
-0.451607
-0.356375
-0.256227
-0.153161
-0.0490901
0.0530453
0.148073
0.217296
0.224444
0.120782
-0.0346472
-0.175754
-0.253043
-0.263513
-0.266212
-0.266907
-0.266639
-0.669657
-0.634849
-0.568477
-0.483044
-0.388666
-0.28994
-0.18897
-0.0879768
0.00975284
0.0981583
0.158562
0.150356
0.0390525
-0.101598
-0.220444
-0.252141
-0.260798
-0.262323
-0.262101
-0.261808
-0.701304
-0.666392
-0.600418
-0.515524
-0.422254
-0.325242
-0.226711
-0.129159
-0.0361819
0.0457365
0.0957158
0.0802157
-0.0359451
-0.15571
-0.250705
-0.268264
-0.259486
-0.25857
-0.258539
-0.258305
-0.732555
-0.697766
-0.632374
-0.54845
-0.456603
-0.361665
-0.265939
-0.172157
-0.0842842
-0.00854112
0.0315747
0.0160252
-0.101693
-0.19616
-0.251648
-0.261682
-0.258667
-0.257435
-0.256868
-0.256635
-0.761879
-0.727801
-0.663372
-0.580911
-0.490959
-0.398521
-0.306009
-0.216292
-0.133754
-0.0640601
-0.0274064
-0.0544027
-0.155084
-0.233414
-0.235021
-0.254284
-0.258745
-0.257191
-0.256599
-0.256197
-0.787666
-0.754653
-0.692295
-0.611747
-0.524296
-0.434887
-0.346069
-0.260728
-0.183466
-0.119929
-0.0832079
-0.121843
-0.202009
-0.256865
-0.273871
-0.267833
-0.26475
-0.263341
-0.262653
-0.2621
-0.807803
-0.776522
-0.717037
-0.639558
-0.555344
-0.469646
-0.385048
-0.304457
-0.232306
-0.174824
-0.140328
-0.175662
-0.238771
-0.307053
-0.327254
-0.297894
-0.281071
-0.276972
-0.274885
-0.273855
-0.820081
-0.791501
-0.735804
-0.662446
-0.582624
-0.501497
-0.421775
-0.346297
-0.279244
-0.227125
-0.194738
-0.217866
-0.251076
-0.316131
-0.302687
-0.287506
-0.283117
-0.280912
-0.279446
-0.279211
-0.821894
-0.79735
-0.746608
-0.678645
-0.60446
-0.529038
-0.454947
-0.385026
-0.32318
-0.275568
-0.239194
-0.247224
-0.227084
-0.234311
-0.242815
-0.255128
-0.262439
-0.26571
-0.267631
-0.268093
-0.811009
-0.791267
-0.747284
-0.686573
-0.619399
-0.550814
-0.483249
-0.419381
-0.362993
-0.319401
-0.276397
-0.265837
-0.208936
-0.136608
-0.187591
-0.238559
-0.261694
-0.271416
-0.27496
-0.27584
-0.785536
-0.770731
-0.736051
-0.684984
-0.62644
-0.565833
-0.505526
-0.448071
-0.397452
-0.358468
-0.312979
-0.305626
-0.282882
-0.226554
-0.26281
-0.29858
-0.312267
-0.316554
-0.317666
-0.318535
-0.74803
-0.738504
-0.713745
-0.674023
-0.625548
-0.573791
-0.521076
-0.470051
-0.424921
-0.391336
-0.3653
-0.378306
-0.458812
-0.607683
-0.609184
-0.487187
-0.406662
-0.374187
-0.364538
-0.361969
-0.705171
-0.699767
-0.685172
-0.656473
-0.618604
-0.575422
-0.529886
-0.484587
-0.44349
-0.413762
-0.392251
-0.412866
-0.457775
-0.54215
-0.513598
-0.407165
-0.339779
-0.311282
-0.30082
-0.297108
-0.666627
-0.663359
-0.65642
-0.637667
-0.608497
-0.572511
-0.532954
-0.491523
-0.451816
-0.418776
-0.398595
-0.343239
-0.209041
-0.0363313
0.125152
0.0958533
-0.0295412
-0.134936
-0.166116
-0.171859
-0.638803
-0.636774
-0.63321
-0.621819
-0.59904
-0.568096
-0.532058
-0.492343
-0.450368
-0.411142
-0.38637
-0.322795
-0.249586
-0.200468
-0.302121
-0.518162
-0.674689
-0.669062
-0.579268
-0.556193
-0.617636
-0.616858
-0.615669
-0.61005
-0.592914
-0.564947
-0.529616
-0.488921
-0.443922
-0.397976
-0.363883
-0.352537
-0.390057
-0.577153
-0.803714
-0.965792
-1.08388
-1.07283
-0.983754
-0.927574
-0.60543
-0.605169
-0.604623
-0.60212
-0.589935
-0.563279
-0.526912
-0.483318
-0.434085
-0.37644
-0.331341
-0.295126
-0.347714
-0.473074
-0.699654
-0.860053
-0.815257
-0.640941
-0.472575
-0.392966
-0.596833
-0.59677
-0.596484
-0.595817
-0.588113
-0.563053
-0.5248
-0.477694
-0.420756
-0.35288
-0.280893
-0.191881
-0.0834793
0.0295792
0.182815
0.321523
0.534366
0.745764
0.875992
0.927988
-0.590296
-0.590274
-0.590093
-0.590172
-0.585198
-0.564151
-0.524799
-0.472932
-0.409078
-0.330984
-0.230099
-0.123831
0.0841334
0.405461
0.784157
1.18292
1.50835
1.71821
1.816
1.84381
-0.585918
-0.585678
-0.584865
-0.583151
-0.58146
-0.567174
-0.5279
-0.471179
-0.401784
-0.312373
-0.203787
-0.0921026
0.122972
0.493208
0.932492
1.33384
1.64985
1.83547
1.91146
1.92909
-0.585636
-0.585965
-0.586712
-0.58722
-0.587495
-0.576535
-0.53428
-0.474876
-0.401206
-0.308127
-0.199621
-0.0861634
0.0697881
0.417971
0.789889
1.12211
1.36964
1.50677
1.5605
1.57209
-0.586587
-0.58795
-0.591824
-0.599863
-0.606586
-0.588699
-0.542692
-0.484426
-0.40918
-0.31406
-0.210076
-0.104844
0.0128005
0.279062
0.567217
0.809176
0.983891
1.07679
1.11129
1.11734
-0.601833
-0.602469
-0.598197
-0.583093
-0.567021
-0.56014
-0.545096
-0.500868
-0.424782
-0.328614
-0.228913
-0.133935
-0.0429461
0.14333
0.34384
0.506126
0.620641
0.677341
0.696685
0.699957
-0.647074
-0.644927
-0.626732
-0.577516
-0.530476
-0.537512
-0.564307
-0.528259
-0.445661
-0.344923
-0.251482
-0.16951
-0.0973083
0.0326091
0.161099
0.255497
0.31626
0.344051
0.356198
0.35855
-0.725018
-0.725306
-0.73752
-0.756846
-0.753605
-0.730705
-0.688783
-0.583333
-0.471214
-0.361631
-0.272695
-0.201895
-0.142799
-0.055544
0.0242309
0.0768187
0.10409
0.114933
0.121285
0.124281
-0.873946
-0.896463
-0.953124
-1.00789
-1.0178
-0.972372
-0.833821
-0.649753
-0.493531
-0.372129
-0.28743
-0.232194
-0.190971
-0.120639
-0.061741
-0.0247456
-0.00644079
0.00339274
0.00999327
0.0115576
-0.962458
-0.988374
-1.03368
-1.07167
-1.07808
-1.02548
-0.866814
-0.659607
-0.489602
-0.366272
-0.28957
-0.248049
-0.221313
-0.160072
-0.105732
-0.0679647
-0.0447114
-0.0317178
-0.0257175
-0.0245169
-0.861557
-0.883813
-0.919383
-0.95312
-0.960397
-0.907723
-0.751264
-0.581824
-0.439535
-0.334804
-0.272544
-0.245265
-0.224025
-0.170304
-0.120023
-0.081573
-0.0520991
-0.0364157
-0.0308743
-0.0314252
-0.576078
-0.594571
-0.628888
-0.666807
-0.683769
-0.645861
-0.548026
-0.442023
-0.350583
-0.280346
-0.236024
-0.215894
-0.198488
-0.152457
-0.110095
-0.0774046
-0.0535034
-0.0400451
-0.035471
-0.0359245
-0.220438
-0.231904
-0.255807
-0.288884
-0.31747
-0.325668
-0.31147
-0.281756
-0.247544
-0.21233
-0.184537
-0.165726
-0.147527
-0.118501
-0.0910614
-0.0690694
-0.0524501
-0.0430067
-0.0403281
-0.0413293
0.0502621
0.0445855
0.0285135
-0.00104011
-0.0425644
-0.0854806
-0.119274
-0.141519
-0.148802
-0.142283
-0.128376
-0.110774
-0.0922746
-0.0785637
-0.0666582
-0.0557313
-0.0466505
-0.0413753
-0.0402898
-0.0415821
0.182914
0.179664
0.168022
0.142251
0.100026
0.0469502
-0.00436967
-0.0451084
-0.0710984
-0.0813315
-0.0758224
-0.0612244
-0.0487029
-0.0471418
-0.0472201
-0.044966
-0.041968
-0.0405866
-0.0409176
-0.0423401
0.216572
0.21438
0.205829
0.185701
0.15111
0.106013
0.0578028
0.014324
-0.0180608
-0.0350654
-0.0351409
-0.0259278
-0.0194258
-0.0258125
-0.0332715
-0.0394916
-0.0436813
-0.0473592
-0.0494604
-0.0504888
0.202572
0.201167
0.195308
0.181111
0.156166
0.12233
0.0835504
0.0464234
0.0159329
-0.00263855
-0.00591145
-0.0011137
-0.000709907
-0.0121184
-0.025164
-0.0368708
-0.0467073
-0.0543044
-0.0572831
-0.0577453
0.17175
0.170945
0.167173
0.157753
0.140782
0.116919
0.0879984
0.0586968
0.0331678
0.0167521
0.0137879
0.018288
0.0167137
0.0018469
-0.0152361
-0.0301014
-0.0425004
-0.050879
-0.0535788
-0.053754
0.137391
0.137099
0.134805
0.128805
0.117644
0.101357
0.0807185
0.0588193
0.0385849
0.0248532
0.0229895
0.0302438
0.031543
0.0129808
-0.00584043
-0.0199556
-0.0304673
-0.0364037
-0.0381458
-0.0384169
0.104883
0.104654
0.103315
0.0996228
0.0924847
0.0816703
0.0674082
0.0515192
0.0358334
0.0235229
0.0197376
0.0247141
0.0262434
0.00941396
-0.00423015
-0.0128058
-0.0180834
-0.0202598
-0.0210156
-0.0214562
0.0753766
0.0753094
0.0745706
0.0724072
0.0680054
0.0610103
0.0514196
0.0401023
0.027857
0.015608
0.0048141
-0.00357283
-0.0082018
-0.0128949
-0.0138801
-0.0124411
-0.0113378
-0.0107105
-0.01085
-0.0114309
0.04905
0.0490622
0.0487267
0.0476085
0.0451582
0.0409849
0.0349735
0.027338
0.0179782
0.00589343
-0.0130932
-0.0419186
-0.055968
-0.042043
-0.0274034
-0.0177281
-0.0128529
-0.0108532
-0.0105467
-0.0109892
0.0256729
0.025727
0.0256412
0.0252263
0.0240891
0.0220721
0.0189772
0.0148335
0.00954684
-0.000168027
-0.0195045
-0.0542726
-0.0704227
-0.0496254
-0.0284144
-0.0187641
-0.0151511
-0.0141138
-0.0134601
-0.0134666
0.00459866
0.00466034
0.00462619
0.00472726
0.0049396
0.00487741
0.00446065
0.00377049
0.00268169
0.00130609
-0.00208479
-0.0111675
-0.0235134
-0.0175951
-0.013335
-0.0112545
-0.00978154
-0.00823804
-0.00667769
-0.00580855
-0.0401015
0.125612
0.31872
0.487165
0.62122
0.726115
0.812466
0.886051
0.9198
0.896585
0.258917
0.378601
0.507217
0.618119
0.711297
0.788147
0.850325
0.894525
0.916653
0.928859
0.475235
0.557205
0.645064
0.722473
0.788938
0.844513
0.888734
0.92109
0.944563
0.962633
0.634375
0.693114
0.753877
0.810396
0.859449
0.901131
0.935407
0.962799
0.985443
1.0038
0.758638
0.801294
0.846847
0.890224
0.928572
0.962087
0.990808
1.01475
1.03504
1.05291
0.862224
0.894833
0.932671
0.967949
1.00036
1.02944
1.05487
1.07626
1.09406
1.11142
0.954317
0.982857
1.01665
1.04862
1.07844
1.10551
1.12917
1.14884
1.1643
1.18139
1.04263
1.07174
1.10564
1.13759
1.16711
1.19363
1.21645
1.2349
1.24825
1.26528
1.13778
1.17093
1.20751
1.24103
1.27103
1.29717
1.31909
1.33635
1.3482
1.3656
1.25268
1.29047
1.32908
1.36329
1.3926
1.41733
1.43768
1.45355
1.46501
1.48307
1.39756
1.43608
1.4722
1.50287
1.52853
1.55061
1.56965
1.58517
1.59759
1.61558
1.5726
1.60422
1.63038
1.65281
1.67278
1.69149
1.7092
1.72567
1.74101
1.75908
1.76119
1.77839
1.79342
1.80964
1.82554
1.84007
1.85327
1.86719
1.88473
1.90488
1.9429
1.95244
1.96397
1.97478
1.98406
1.99364
2.00442
2.01578
2.02714
2.0425
2.15013
2.15379
2.13884
2.12403
2.11775
2.12342
2.1419
2.17221
2.20439
2.23104
2.45645
2.32158
2.24494
2.20255
2.18513
2.18909
2.21649
2.27291
2.37552
2.59989
0.775479
0.773352
0.768869
0.760248
0.748028
0.735906
0.725687
0.717807
0.71221
0.708985
0.708666
0.711437
0.716567
0.723809
0.733209
0.744757
0.757414
0.768453
0.774567
0.777623
0.699923
0.705771
0.712106
0.716602
0.719077
0.71876
0.716033
0.712239
0.708751
0.706521
0.706411
0.708644
0.712334
0.716643
0.720463
0.722356
0.721426
0.71795
0.712789
0.706169
0.691483
0.693779
0.697185
0.700185
0.702266
0.703771
0.704538
0.704238
0.703237
0.702387
0.702602
0.704067
0.705912
0.707239
0.707434
0.706555
0.705014
0.702684
0.699424
0.696506
0.68595
0.687036
0.688871
0.691254
0.693284
0.694721
0.695755
0.696526
0.696955
0.697215
0.697751
0.698601
0.699231
0.699322
0.698927
0.698092
0.696632
0.694555
0.692474
0.691092
0.680717
0.681379
0.68249
0.6842
0.685989
0.687632
0.688943
0.689981
0.690895
0.691728
0.69251
0.69311
0.693341
0.693203
0.692657
0.691618
0.690201
0.688667
0.687355
0.686576
0.675703
0.676163
0.676951
0.678255
0.679751
0.681281
0.682763
0.684087
0.685259
0.686364
0.68734
0.687965
0.688155
0.687915
0.687243
0.686273
0.685163
0.684041
0.683133
0.682617
0.670827
0.671171
0.671785
0.672859
0.674163
0.675552
0.677011
0.678485
0.6799
0.681238
0.682419
0.683178
0.683409
0.683175
0.682607
0.681855
0.681023
0.68017
0.679506
0.679129
0.666034
0.666301
0.666797
0.667713
0.668894
0.670207
0.671625
0.673146
0.674734
0.676321
0.677753
0.678703
0.67907
0.679
0.678646
0.678117
0.677492
0.67687
0.676388
0.676101
0.661241
0.661453
0.661866
0.662672
0.663774
0.665041
0.666453
0.668026
0.669753
0.671586
0.673317
0.674542
0.675159
0.675339
0.675223
0.674921
0.674507
0.674081
0.673741
0.673516
0.656358
0.656528
0.656882
0.657616
0.658674
0.659923
0.661366
0.663029
0.66492
0.667018
0.669107
0.670703
0.671656
0.672134
0.672279
0.672214
0.672019
0.67177
0.671546
0.671368
0.651295
0.651433
0.651745
0.652435
0.653479
0.654754
0.656268
0.658063
0.660174
0.662595
0.66512
0.667179
0.668535
0.669359
0.669802
0.669991
0.670013
0.669937
0.669814
0.669671
0.645961
0.646072
0.646357
0.647028
0.648092
0.64944
0.651069
0.653051
0.655448
0.658279
0.661341
0.663955
0.665787
0.667013
0.667794
0.668262
0.668513
0.668611
0.668575
0.668459
0.640258
0.640345
0.640614
0.641292
0.642411
0.643874
0.645673
0.647911
0.650675
0.654021
0.657741
0.661022
0.663419
0.665111
0.666274
0.667068
0.667575
0.667839
0.667882
0.667786
0.634074
0.63414
0.634403
0.635109
0.636322
0.637947
0.639981
0.642553
0.645783
0.649771
0.654293
0.658375
0.661444
0.663685
0.665289
0.66645
0.667241
0.667685
0.667802
0.667723
0.627278
0.627324
0.627587
0.628344
0.629692
0.631536
0.633877
0.636877
0.640696
0.645474
0.650971
0.656016
0.659883
0.662773
0.664898
0.666471
0.667588
0.668228
0.668419
0.668353
0.619714
0.619739
0.620006
0.620836
0.622362
0.62449
0.627224
0.630767
0.635322
0.641072
0.647751
0.653949
0.658762
0.662416
0.665158
0.667224
0.668713
0.669564
0.669827
0.669771
0.61116
0.611173
0.611452
0.612383
0.614145
0.616617
0.61986
0.624088
0.629557
0.6365
0.64461
0.652184
0.658117
0.66267
0.666141
0.6688
0.670711
0.671792
0.672129
0.67208
0.601335
0.601319
0.60165
0.602724
0.604774
0.607706
0.61159
0.616679
0.623287
0.631695
0.641531
0.65074
0.657995
0.663608
0.667932
0.67128
0.673683
0.675017
0.675426
0.675379
0.589923
0.589883
0.590262
0.591529
0.59395
0.597474
0.602171
0.60835
0.616383
0.626592
0.638505
0.649646
0.658443
0.665296
0.670622
0.674762
0.677729
0.679331
0.679809
0.67976
0.576434
0.576366
0.576825
0.578347
0.581254
0.585548
0.5913
0.598876
0.608704
0.62113
0.635532
0.648939
0.659518
0.667793
0.67429
0.679342
0.682929
0.684806
0.685342
0.685285
0.560204
0.560108
0.560694
0.56257
0.56613
0.571453
0.578604
0.588001
0.600116
0.615274
0.632637
0.648668
0.66128
0.671171
0.678985
0.685068
0.689328
0.691469
0.692044
0.691972
0.54028
0.540157
0.540948
0.543343
0.547823
0.554576
0.563637
0.575461
0.590512
0.609032
0.629886
0.648906
0.663796
0.675485
0.684736
0.691969
0.696914
0.699281
0.699865
0.69977
0.51522
0.515082
0.516211
0.519411
0.525284
0.534133
0.545903
0.561028
0.579869
0.602497
0.627403
0.649758
0.667127
0.680765
0.691582
0.700013
0.705593
0.708106
0.708658
0.708533
0.48268
0.482565
0.484313
0.488909
0.497101
0.50922
0.524965
0.544621
0.568311
0.59587
0.625377
0.651354
0.671345
0.687024
0.699465
0.709089
0.715162
0.717692
0.718162
0.718002
0.438448
0.438502
0.441613
0.449123
0.461617
0.479071
0.500709
0.526474
0.556199
0.589502
0.62407
0.653844
0.676517
0.694258
0.708305
0.718989
0.725286
0.727654
0.727994
0.727802
0.37464
0.375875
0.383485
0.397501
0.417872
0.443816
0.473754
0.507299
0.544164
0.583862
0.623762
0.65737
0.682668
0.702382
0.717859
0.729269
0.735475
0.737441
0.737608
0.737397
0.299045
0.300861
0.315431
0.33951
0.370905
0.40687
0.445846
0.48766
0.532138
0.578822
0.624813
0.663047
0.691614
0.713718
0.730779
0.742813
0.748664
0.750287
0.750406
0.750278
0.221102
0.227398
0.248912
0.283332
0.325199
0.370895
0.418865
0.468986
0.521143
0.574899
0.627101
0.670045
0.701854
0.726328
0.745137
0.7572
0.762208
0.763319
0.763382
0.763328
0.157319
0.165968
0.192074
0.233572
0.283647
0.337628
0.393701
0.451594
0.511073
0.571624
0.629756
0.677097
0.711889
0.738339
0.757992
0.769945
0.774586
0.7756
0.775709
0.775715
0.105453
0.114702
0.144386
0.191157
0.247422
0.308079
0.371005
0.435758
0.501923
0.568842
0.632595
0.684104
0.721662
0.749941
0.770576
0.782678
0.787075
0.78801
0.788175
0.788228
0.0620919
0.0716217
0.103767
0.154556
0.215902
0.282102
0.350842
0.421601
0.493789
0.566593
0.635664
0.691177
0.731432
0.761561
0.783238
0.795521
0.7999
0.80102
0.801212
0.801306
0.0248606
0.034493
0.0684753
0.122479
0.188034
0.258966
0.332779
0.408866
0.486523
0.564798
0.638921
0.698305
0.741213
0.773154
0.795901
0.808772
0.813442
0.814614
0.814803
0.814906
-0.00793112
0.00172285
0.0371088
0.0938238
0.162909
0.237925
0.316235
0.397132
0.479827
0.563232
0.642181
0.705323
0.750838
0.784616
0.808579
0.822085
0.827055
0.828323
0.828505
0.828587
-0.0375851
-0.0279094
0.00862274
0.0676777
0.13979
0.218389
0.300711
0.385985
0.473341
0.561598
0.645203
0.712024
0.7601
0.795677
0.820743
0.834959
0.840288
0.841626
0.841789
0.841852
-0.0650067
-0.0553021
-0.0177862
0.0433266
0.118117
0.199895
0.28581
0.375073
0.466775
0.559658
0.647794
0.718224
0.76881
0.806113
0.832289
0.847097
0.852827
0.85422
0.85434
0.854368
-0.0907787
-0.0810231
-0.0425995
0.0202508
0.0974583
0.182079
0.271237
0.364157
0.459915
0.557213
0.649781
0.723797
0.77685
0.815818
0.842999
0.858332
0.864338
0.865783
0.865891
0.865893
-0.115398
-0.105525
-0.0662123
-0.00187283
0.0775251
0.164688
0.256784
0.35305
0.452593
0.554108
0.651044
0.728672
0.784193
0.824759
0.852849
0.868535
0.874684
0.876149
0.876231
0.876199
-0.139157
-0.129081
-0.0890515
-0.0232221
0.0581188
0.147551
0.242302
0.341629
0.444689
0.550242
0.651499
0.732802
0.790841
0.832955
0.861785
0.8777
0.883876
0.885299
0.885372
0.88531
-0.162171
-0.151907
-0.111197
-0.0439489
0.0391052
0.130577
0.227707
0.329819
0.436139
0.545526
0.651061
0.736159
0.796836
0.840526
0.869977
0.885946
0.892008
0.893372
0.893398
0.893322
-0.18464
-0.174109
-0.132659
-0.0641627
0.0204208
0.113708
0.212967
0.317593
0.426907
0.539912
0.649661
0.738713
0.802246
0.847619
0.877587
0.893419
0.899245
0.900475
0.900451
0.900353
-0.20652
-0.195735
-0.153599
-0.0839224
0.00204452
0.0969402
0.198092
0.304964
0.416992
0.533369
0.64724
0.740413
0.807123
0.854392
0.884839
0.900307
0.905701
0.906723
0.906639
0.906521
-0.227882
-0.216819
-0.173959
-0.103227
-0.0160214
0.0802874
0.183106
0.29197
0.406429
0.525898
0.64374
0.741192
0.811474
0.861006
0.892007
0.906853
0.911496
0.912178
0.912023
0.911902
-0.248589
-0.237313
-0.193732
-0.122041
-0.0337443
0.0638075
0.168061
0.27867
0.395274
0.517536
0.639123
0.74096
0.815246
0.867569
0.899437
0.913494
0.916953
0.916984
0.916704
0.916606
-0.268776
-0.257179
-0.212922
-0.140357
-0.0511027
0.0475299
0.153038
0.265131
0.3836
0.508349
0.633378
0.739603
0.818306
0.874073
0.90745
0.920913
0.922758
0.921473
0.920806
0.920769
-0.288292
-0.276401
-0.231508
-0.158143
-0.0680254
0.0315324
0.138112
0.251466
0.371507
0.498386
0.626529
0.736996
0.820453
0.88034
0.916137
0.929893
0.930296
0.926866
0.924741
0.924139
-0.307203
-0.29503
-0.249443
-0.175355
-0.0844838
0.0158784
0.123359
0.237748
0.359099
0.487775
0.618625
0.733012
0.821428
0.885999
0.925096
0.940699
0.9412
0.935974
0.929731
0.921942
-0.325429
-0.313023
-0.266822
-0.192147
-0.100683
0.000304264
0.108459
0.223598
0.345955
0.476047
0.609178
0.727155
0.82081
0.890829
0.933857
0.952944
0.956176
0.950361
0.939206
0.934756
-0.342928
-0.330306
-0.283631
-0.208496