/*--------------------------------*- C++ -*----------------------------------*\
| =========                 |                                                 |
| \\      /  F ield         | OpenFOAM: The Open Source CFD Toolbox           |
|  \\    /   O peration     | Version:  2112                                  |
|   \\  /    A nd           | Website:  www.openfoam.com                      |
|    \\/     M anipulation  |                                                 |
\*---------------------------------------------------------------------------*/
FoamFile
{
    version     2.0;
    format      ascii;
    arch        "LSB;label=32;scalar=64";
    class       surfaceScalarField;
    location    "68.5";
    object      phi;
}
// * * * * * * * * * * * * * * * * * * * * * * * * * * * * * * * * * * * * * //

dimensions      [0 3 -1 0 0 0 0];

oriented        oriented;

internalField   nonuniform List<scalar> 
17370
(
-0.0916061
0.0960093
0.284608
-0.0775945
0.0594198
0.36495
-0.0430418
0.0316217
0.427588
-0.0223176
0.0162649
0.505304
-0.0116718
0.00879807
0.602276
-0.00658698
0.00510203
0.720542
-0.00386503
0.00298464
0.863787
-0.00221157
0.00163318
1.03603
-0.00110133
0.000679949
1.24292
-0.000268018
-0.0001269
1.49159
0.000515934
-0.000930589
1.49161
0.00133647
-0.00184175
1.2432
0.00239117
-0.00313164
1.03638
0.00398661
-0.00520388
0.864124
0.0066773
-0.00887861
0.721259
0.0117417
-0.0163191
0.603792
0.0223553
-0.0316412
0.508725
0.0430416
-0.0594079
0.432534
0.077587
-0.0960026
0.365191
0.0916214
0.197389
-0.127093
0.0880255
0.0390674
-0.364358
0.354033
-0.0714727
0.0817976
-0.446654
0.454258
-0.0791668
0.0715632
-0.521012
0.529113
-0.0637081
0.055607
-0.612992
0.620763
-0.0482184
0.0404474
-0.727165
0.733688
-0.0338341
0.0273116
-0.867582
0.872437
-0.022106
0.0172516
-1.03857
1.04191
-0.0135511
0.0102095
-1.24472
1.24713
-0.00765631
0.00524748
-1.49284
1.49486
-0.00328039
0.0012629
-1.49269
1.49452
0.00055887
-0.00238107
-1.2441
1.24602
0.00435691
-0.00627048
-1.03761
1.04008
0.00860636
-0.0110831
-0.866186
0.869809
0.0143366
-0.0179603
-0.724592
0.729744
0.0227428
-0.0278943
-0.609062
0.61563
0.0343651
-0.0409324
-0.515122
0.522455
0.04865
-0.0559833
-0.43988
0.447654
0.064002
-0.0717764
-0.374704
0.377355
0.0792653
-0.0819159
-0.256894
0.22443
0.0715653
-0.0391016
-0.0688157
0.0592062
0.00960946
-0.0520944
0.0589167
-0.374842
0.36802
-0.0580658
0.0542211
-0.453951
0.457795
-0.048732
0.0441704
-0.527623
0.532184
-0.0396177
0.0357189
-0.620808
0.624707
-0.0315021
0.0275028
-0.734667
0.738666
-0.0231411
0.019249
-0.873963
0.877855
-0.0151984
0.0117363
-1.04337
1.04683
-0.00821123
0.00517364
-1.24866
1.25169
-0.00196107
-0.00102409
-1.49695
1.49993
0.00398667
-0.00713753
-1.49742
1.50057
0.0100842
-0.0134841
-1.25006
1.25346
0.0168162
-0.020716
-1.04564
1.04954
0.0244752
-0.0287067
-0.877126
0.881358
0.0326011
-0.0367145
-0.738972
0.743085
0.0405276
-0.0449958
-0.625961
0.630429
0.0494867
-0.0549066
-0.535008
0.540428
0.0586707
-0.0594266
-0.458067
0.458823
0.0524717
-0.0320747
-0.33675
0.316353
0.00967667
-0.0686534
0.0589768
-0.0534197
0.0493111
0.00410857
-0.0332236
0.0436383
-0.35858
0.348166
-0.0473067
0.0467147
-0.459592
0.460184
-0.0437815
0.0405648
-0.536146
0.539362
-0.0368828
0.0335231
-0.628411
0.631771
-0.0298832
0.026636
-0.742052
0.745299
-0.0231758
0.0199714
-0.881356
0.884561
-0.0163704
0.0130113
-1.05026
1.05362
-0.00930415
0.00589262
-1.25496
1.25837
-0.00209527
-0.00152568
-1.50329
1.50691
0.00511419
-0.00881767
-1.50406
1.50776
0.012101
-0.0156311
-1.25701
1.26054
0.0188063
-0.0221929
-1.05325
1.05663
0.0252078
-0.028481
-0.884959
0.888232
0.0315773
-0.0350681
-0.74676
0.750251
0.0383013
-0.0418516
-0.634542
0.638092
0.0449541
-0.0477593
-0.544565
0.54737
0.0482184
-0.0443655
-0.456931
0.453078
0.0337245
-0.0163943
-0.297022
0.279692
0.00418305
-0.0531229
0.0489398
-0.046145
0.0435932
0.00255182
-0.0230211
0.033357
-0.337585
0.327249
-0.0390783
0.0400185
-0.459941
0.459001
-0.0387593
0.0364248
-0.542024
0.544358
-0.033775
0.031221
-0.634745
0.637299
-0.0282348
0.025378
-0.748392
0.751249
-0.0221304
0.0191073
-0.887625
0.890648
-0.0157461
0.0126025
-1.05681
1.05995
-0.00903536
0.00562656
-1.26177
1.26518
-0.00170827
-0.00209401
-1.51064
1.51444
0.00585429
-0.00964556
-1.51154
1.51533
0.0128839
-0.0162179
-1.26399
1.26732
0.0191195
-0.0222001
-1.05983
1.06292
0.0249727
-0.0279684
-0.891418
0.894413
0.0306182
-0.0333983
-0.753419
0.756199
0.035779
-0.0382531
-0.641036
0.64351
0.0404372
-0.041499
-0.549195
0.550257
0.0403529
-0.0343311
-0.447938
0.441917
0.0236649
-0.0103941
-0.264485
0.251214
0.0026442
-0.0456903
0.0430461
-0.041479
0.0396832
0.00179572
-0.0169113
0.0261778
-0.317397
0.308131
-0.032755
0.0348616
-0.457451
0.455345
-0.0344147
0.0327056
-0.546396
0.548105
-0.0304661
0.0283266
-0.63962
0.641759
-0.0258753
0.023484
-0.75386
0.756251
-0.0206548
0.0178952
-0.893517
0.896277
-0.0146966
0.0116493
-1.06301
1.06605
-0.008171
0.00484446
-1.26851
1.27184
-0.000995339
-0.00275723
-1.51822
1.52197
0.00645547
-0.0101438
-1.51907
1.52275
0.0132538
-0.0164371
-1.27059
1.27377
0.0191779
-0.0220174
-1.06594
1.06878
0.0244529
-0.0269552
-0.897184
0.899686
0.0290791
-0.031266
-0.758626
0.760812
0.0331845
-0.0351972
-0.645724
0.647737
0.0366876
-0.036865
-0.550824
0.551001
0.0344423
-0.0274253
-0.435302
0.428285
0.0177156
-0.00749917
-0.239612
0.229396
0.00190884
-0.0408296
0.0389208
-0.0381385
0.0367925
0.00134602
-0.0129052
0.02088
-0.299512
0.291537
-0.0276218
0.0305242
-0.452807
0.449904
-0.0307137
0.0295743
-0.549554
0.550694
-0.0275602
0.0256185
-0.643828
0.64577
-0.0233888
0.0212308
-0.758508
0.760666
-0.0187043
0.0162191
-0.898843
0.901328
-0.0132807
0.010409
-1.06897
1.07184
-0.00706277
0.00383296
-1.27509
1.27832
-8.82569e-05
-0.00354808
-1.52564
1.52928
0.00711724
-0.0106597
-1.52636
1.5299
0.0136189
-0.0165966
-1.27687
1.27985
0.0190845
-0.0215724
-1.07149
1.07398
0.0236523
-0.0257686
-0.901982
0.904098
0.0275887
-0.029482
-0.762837
0.76473
0.031144
-0.0328857
-0.649591
0.651333
0.0337061
-0.0331403
-0.550809
0.550243
0.0297859
-0.0224412
-0.421046
0.413701
0.013897
-0.00580348
-0.220341
0.212248
0.00148401
-0.0372512
0.0357672
-0.0356175
0.0345829
0.00103461
-0.010073
0.0168176
-0.284201
0.277456
-0.0233032
0.0266628
-0.446751
0.443391
-0.0274249
0.0267151
-0.551609
0.552318
-0.0249316
0.0231313
-0.647677
0.649478
-0.0210492
0.0190245
-0.762757
0.764781
-0.0166428
0.0143061
-0.903677
0.906014
-0.0115578
0.00886362
-1.07456
1.07725
-0.00569533
0.00260528
-1.28144
1.28453
0.000998975
-0.00450015
-1.53282
1.53632
0.00791713
-0.0112719
-1.53334
1.53669
0.0140257
-0.016737
-1.2827
1.28541
0.0189578
-0.0211506
-1.07636
1.07856
0.0229864
-0.02486
-0.906103
0.907976
0.0264661
-0.0281312
-0.766498
0.768163
0.0295849
-0.0309936
-0.652927
0.654336
0.0313061
-0.0300101
-0.549327
0.548031
0.0260276
-0.0187485
-0.406363
0.399084
0.0112885
-0.00468219
-0.204968
0.198361
0.00120246
-0.0344403
0.0332379
-0.0336747
0.0328706
0.000804046
-0.00797234
0.0136385
-0.271278
0.265612
-0.0196417
0.0232011
-0.439919
0.43636
-0.0244414
0.0239773
-0.552933
0.553397
-0.0224642
0.0207725
-0.65127
0.652962
-0.0187858
0.0168497
-0.76676
0.768696
-0.0145679
0.0123252
-0.908242
0.910485
-0.00968365
0.00710174
-1.07982
1.0824
-0.00407775
0.00112669
-1.2875
1.29045
0.00231448
-0.00565203
-1.53972
1.54305
0.0088878
-0.0120246
-1.53992
1.54305
0.0145624
-0.0170295
-1.288
1.29047
0.0190324
-0.0209916
-1.0807
1.08266
0.0226182
-0.0242752
-0.909756
0.911413
0.0256965
-0.0271693
-0.769723
0.771196
0.0284284
-0.0294562
-0.655536
0.656564
0.0293957
-0.0274269
-0.546403
0.544434
0.0230348
-0.0160132
-0.391929
0.384907
0.00945837
-0.00390831
-0.192334
0.186784
0.00100811
-0.0321451
0.031137
-0.0321643
0.0315384
0.000625842
-0.00635298
0.0110966
-0.260433
0.25569
-0.0165091
0.0200704
-0.432796
0.429234
-0.0216346
0.0213952
-0.55378
0.55402
-0.0201138
0.0184837
-0.654668
0.656298
-0.0165527
0.0146656
-0.770604
0.772491
-0.0124425
0.0102595
-0.912627
0.91481
-0.00769001
0.0051818
-1.08487
1.08738
-0.00225175
-0.00058554
-1.29329
1.29613
0.00388171
-0.00705273
-1.54627
1.54944
0.0100978
-0.0130185
-1.54606
1.54898
0.0153588
-0.0176113
-1.29284
1.29509
0.0194146
-0.0211517
-1.0846
1.08633
0.0225825
-0.0240424
-0.912986
0.914446
0.0252992
-0.0265982
-0.772574
0.773873
0.0277102
-0.0283175
-0.657375
0.657982
0.0278846
-0.0253483
-0.542196
0.53966
0.0207028
-0.0140059
-0.378058
0.371361
0.00816598
-0.00336965
-0.181649
0.176853
0.00087363
-0.0302064
0.0293328
-0.030992
0.0305104
0.000481581
-0.00504998
0.00899738
-0.251369
0.247421
-0.0137732
0.0171863
-0.425751
0.422338
-0.0189336
0.0188836
-0.554201
0.554251
-0.0177983
0.0162024
-0.657973
0.659569
-0.0142945
0.0124228
-0.774364
0.776236
-0.0102182
0.00805855
-0.916899
0.919059
-0.00552593
0.00306432
-1.08978
1.09224
-0.000204406
-0.00255913
-1.29886
1.30163
0.0057352
-0.00875776
-1.5525
1.55553
0.0116274
-0.0143478
-1.55177
1.55449
0.0165017
-0.0185474
-1.29724
1.29928
0.020157
-0.0216784
-1.08807
1.08959
0.0229234
-0.0242022
-0.915827
0.917106
0.02531
-0.0264488
-0.775082
0.776221
0.027368
-0.0275935
-0.658394
0.658619
0.0267603
-0.0237413
-0.536897
0.533878
0.0189399
-0.0125596
-0.364841
0.358461
0.00726297
-0.00300013
-0.172356
0.168093
0.000782953
-0.0285139
0.027731
-0.0300961
0.0297366
0.000359561
-0.00395837
0.00720593
-0.243845
0.240598
-0.0113324
0.0144866
-0.419065
0.415911
-0.0162904
0.0163919
-0.554269
0.554167
-0.0153901
0.013866
-0.661203
0.662727
-0.0119536
0.0100645
-0.778106
0.779995
-0.00784
0.00566834
-0.921131
0.923302
-0.00313509
0.000687317
-1.09461
1.09705
0.00214367
-0.00485168
-1.3043
1.307
0.00793659
-0.0108362
-1.55845
1.56134
0.0135507
-0.0160822
-1.55708
1.55961
0.0180533
-0.0198941
-1.30122
1.30306
0.0213132
-0.0226234
-1.09113
1.09244
0.0236882
-0.0247937
-0.918307
0.919412
0.0257582
-0.0267291
-0.777266
0.778237
0.0273886
-0.0273247
-0.658716
0.658652
0.0260452
-0.022596
-0.530656
0.527207
0.0176822
-0.0115627
-0.352236
0.346117
0.00665793
-0.00275926
-0.164042
0.160143
0.000725937
-0.0269859
0.02626
-0.0294369
0.0291862
0.000250725
-0.00300154
0.00561725
-0.237685
0.235069
-0.00909428
0.0119061
-0.412943
0.410131
-0.0136517
0.013833
-0.554074
0.553893
-0.0128717
0.0113908
-0.664312
0.665793
-0.00945073
0.00751526
-0.78189
0.783826
-0.00523554
0.00301802
-0.925389
0.927607
-0.000447405
-0.00202657
-1.09941
1.10188
0.00486146
-0.00754785
-1.30963
1.31231
0.0105726
-0.0133747
-1.56415
1.56695
0.0159531
-0.0183095
-1.56202
1.56438
0.020106
-0.0217471
-1.30479
1.30643
0.0229748
-0.024068
-1.09381
1.0949
0.0249471
-0.025876
-0.920437
0.921366
0.0266965
-0.0274956
-0.779101
0.7799
0.0278637
-0.0275101
-0.658442
0.658089
0.0257779
-0.0219084
-0.523568
0.519699
0.0168811
-0.0109384
-0.34012
0.334178
0.0062909
-0.00262021
-0.156387
0.152717
0.000695578
-0.025559
0.0248634
-0.0289919
0.0288445
0.000147411
-0.00211576
0.00413839
-0.232767
0.230745
-0.00696107
0.00936019
-0.407544
0.405145
-0.0109393
0.0111217
-0.553768
0.553586
-0.0101678
0.00869215
-0.667371
0.668846
-0.00669805
0.00468634
-0.785773
0.787785
-0.00231557
2.08675e-05
-0.929742
0.932036
0.00263584
-0.00516812
-1.10427
1.1068
0.00804515
-0.0107417
-1.31493
1.31762
0.0137366
-0.0164626
-1.56966
1.57239
0.0189186
-0.0211075
-1.5666
1.56879
0.0227335
-0.0241759
-1.30796
1.3094
0.0252071
-0.0260691
-1.09608
1.09694
0.0267486
-0.0274858
-0.922199
0.922936
0.0281536
-0.0288082
-0.780577
0.781231
0.0288594
-0.0281246
-0.657525
0.65679
0.0259361
-0.021651
-0.515667
0.511382
0.0164852
-0.010625
-0.328318
0.322458
0.00611705
-0.00256314
-0.149134
0.14558
0.000686694
-0.0241825
0.0234958
-0.0287532
0.0287103
4.28993e-05
-0.00125222
0.00269659
-0.229025
0.227581
-0.00485115
0.00677399
-0.403004
0.401081
-0.00808249
0.00818286
-0.553514
0.553414
-0.00718895
0.00568054
-0.67046
0.671968
-0.00359314
0.00147103
-0.789814
0.791936
0.00103202
-0.00344967
-0.934255
0.936672
0.00622451
-0.00885281
-1.10926
1.11188
0.0118127
-0.014554
-1.32025
1.32299
0.0175502
-0.0202201
-1.57503
1.5777
0.0225652
-0.0245911
-1.57085
1.57288
0.026046
-0.0272864
-1.31071
1.31195
0.0281144
-0.0287418
-1.09792
1.09855
0.0292147
-0.0297458
-0.923572
0.924103
0.0302462
-0.0306917
-0.781685
0.782131
0.0304521
-0.0292517
-0.655838
0.654638
0.0265722
-0.0218394
-0.506942
0.502209
0.0164779
-0.0105913
-0.316635
0.310748
0.00611205
-0.00257714
-0.142067
0.138532
0.000696468
-0.0228153
0.0221188
-0.0287236
0.0287901
-6.64771e-05
-0.000367721
0.00122776
-0.22644
0.225579
-0.00268653
0.00406788
-0.399449
0.398068
-0.00500233
0.00493527
-0.553484
0.553551
-0.00384369
0.00224981
-0.673667
0.675261
-3.45809e-05
-0.0022367
-0.79408
0.796351
0.00491808
-0.00749766
-0.939009
0.941589
0.0104423
-0.0132109
-1.11444
1.11721
0.0162986
-0.0191216
-1.32568
1.3285
0.0221539
-0.0247921
-1.58029
1.58293
0.0270397
-0.0289039
-1.57477
1.57663
0.0301808
-0.0312083
-1.31303
1.31406
0.031825
-0.0322088
-1.09932
1.09971
0.0324662
-0.0327772
-0.924528
0.924838
0.0330857
-0.0332428
-0.782268
0.782425
0.0327029
-0.0309514
-0.653236
0.651485
0.0277304
-0.0224936
-0.49732
0.492083
0.0168555
-0.0108224
-0.304848
0.298815
0.0062634
-0.00265624
-0.134994
0.131387
0.000723198
-0.0214208
0.0206976
-0.0289185
0.0291004
-0.000181902
0.000553711
-0.00031143
-0.225033
0.22479
-0.000398951
0.0011599
-0.397005
0.396244
-0.00160979
0.00129008
-0.553854
0.554173
-4.81186e-05
-0.0017077
-0.677104
0.67886
0.00411286
-0.00658478
-0.798655
0.801127
0.00949756
-0.0122883
-0.944091
0.946882
0.015456
-0.0184115
-1.11992
1.12287
0.0216738
-0.0246158
-1.33127
1.33421
0.0277162
-0.0303416
-1.5855
1.58812
0.0324974
-0.0341941
-1.57835
1.58005
0.0352865
-0.036083
-1.3149
1.31569
0.0364758
-0.0366031
-1.10024
1.10037
0.0366288
-0.0367041
-0.925026
0.925101
0.0368154
-0.0365999
-0.782211
0.781995
0.0356736
-0.0333014
-0.649567
0.647195
0.0294648
-0.0236343
-0.48667
0.48084
0.0176149
-0.0113044
-0.292709
0.286399
0.00655857
-0.00279378
-0.127737
0.123972
0.000764779
-0.0199662
0.0192014
-0.0293662
0.0296961
-0.000329907
0.00158464
-0.00198437
-0.224892
0.225292
0.0021249
-0.00209379
-0.395806
0.395774
0.00226063
-0.00294551
-0.554847
0.555532
0.00442665
-0.00637872
-0.680919
0.682871
0.0090241
-0.011748
-0.803628
0.806352
0.0149531
-0.0180112
-0.949599
0.952657
0.0214622
-0.0246561
-1.12577
1.12897
0.0281433
-0.0312411
-1.33711
1.34021
0.0344377
-0.0370619
-1.59067
1.59329
0.039123
-0.0406351
-1.58158
1.58309
0.0415232
-0.0420821
-1.31626
1.31682
0.0422387
-0.0420833
-1.10062
1.10046
0.0418511
-0.0416715
-0.925015
0.924835
0.0415766
-0.0408817
-0.781362
0.780667
0.0394847
-0.0363896
-0.644678
0.641583
0.0318319
-0.025284
-0.474799
0.468251
0.0187562
-0.0120272
-0.279954
0.273225
0.00698723
-0.00298364
-0.120125
0.116122
0.000819034
-0.0184226
0.0176036
-0.030096
0.0306052
-0.000509207
0.00288075
-0.00404692
-0.226092
0.227258
0.00505894
-0.00583299
-0.396067
0.396842
0.00672215
-0.00787324
-0.556691
0.557842
0.00967821
-0.0119069
-0.685214
0.687443
0.0148785
-0.0179279
-0.809113
0.812162
0.021502
-0.0248948
-0.955647
0.95904
0.0286987
-0.0321888
-1.13212
1.13561
0.0359546
-0.0392457
-1.34327
1.34656
0.0425639
-0.0451933
-1.59584
1.59847
0.0471497
-0.048459
-1.58443
1.58574
0.049106
-0.0494071
-1.31709
1.31739
0.0493035
-0.0488398
-1.1004
1.09994
0.0483305
-0.0478813
-0.924431
0.923982
0.047459
-0.0463027
-0.779575
0.778419
0.0442806
-0.0403212
-0.63835
0.634391
0.0349016
-0.0274734
-0.461443
0.454015
0.0202841
-0.012982
-0.266295
0.258993
0.00753905
-0.00321935
-0.112001
0.107681
0.000883701
-0.016766
0.0158823
-0.0311822
0.0319152
-0.000733079
0.00439484
-0.00645303
-0.228831
0.230889
0.00853244
-0.0102233
-0.398001
0.399692
0.0119434
-0.0136805
-0.559641
0.561378
0.0159446
-0.0185511
-0.690153
0.692759
0.0219578
-0.0254184
-0.815256
0.818717
0.0294522
-0.0332575
-0.962376
0.966181
0.0374906
-0.0413357
-1.13906
1.14291
0.0454287
-0.0489403
-1.34981
1.35332
0.0523871
-0.0550059
-1.601
1.60362
0.0568249
-0.0578879
-1.58685
1.58791
0.0582534
-0.058256
-1.31731
1.31732
0.0578674
-0.0570722
-1.09953
1.09874
0.05626
-0.0555053
-0.923231
0.922476
0.0546772
-0.0529935
-0.776897
0.775214
0.0502056
-0.0451962
-0.63029
0.62528
0.0387263
-0.0302107
-0.446264
0.437748
0.022182
-0.0141431
-0.251419
0.243381
0.00819159
-0.003488
-0.103212
0.098508
0.00095422
-0.0149776
0.0140233
-0.0327088
0.0337316
-0.00102283
0.00628635
-0.00940574
-0.233354
0.236473
0.0127665
-0.0155225
-0.401878
0.404633
0.0182189
-0.0206677
-0.56398
0.566429
0.0235354
-0.0266422
-0.695953
0.699059
0.0306168
-0.0345987
-0.822232
0.826214
0.0391981
-0.0435009
-0.96994
0.974243
0.0482424
-0.0524969
-1.14672
1.15098
0.0569523
-0.0606903
-1.35678
1.36052
0.0642437
-0.0668079
-1.60612
1.60868
0.068433
-0.0691845
-1.58874
1.58949
0.0692098
-0.0688446
-1.31681
1.31644
0.0681457
-0.0669794
-1.09794
1.09677
0.065826
-0.064774
-0.921357
0.920305
0.0634197
-0.0611162
-0.773169
0.770866
0.0573853
-0.0510769
-0.620115
0.613807
0.0433161
-0.0334634
-0.428836
0.418983
0.0243986
-0.0154591
-0.235001
0.226062
0.00890592
-0.00376932
-0.0936315
0.0884949
0.00102411
-0.0130485
0.0120244
-0.0348006
0.036225
-0.0014244
0.00876251
-0.0132386
-0.239988
0.244465
0.0180978
-0.0220967
-0.408062
0.412061
0.0259373
-0.029249
-0.570034
0.573346
0.0328953
-0.0366608
-0.702879
0.706645
0.0413658
-0.0459987
-0.830254
0.834886
0.0512826
-0.0561716
-0.978514
0.983403
0.061492
-0.0661898
-1.1552
1.1599
0.0710084
-0.0749408
-1.36417
1.36811
0.078531
-0.0809495
-1.61107
1.61349
0.0822797
-0.0826178
-1.58994
1.59028
0.082237
-0.0814117
-1.31546
1.31463
0.0803442
-0.0787878
-1.09551
1.09395
0.0773035
-0.0758358
-0.918778
0.917311
0.0739631
-0.0708217
-0.76816
0.765018
0.0659016
-0.0579761
-0.607311
0.599386
0.0486246
-0.0371406
-0.408654
0.39717
0.026831
-0.0168413
-0.216722
0.206732
0.00962007
-0.00403288
-0.0831773
0.0775901
0.001084
-0.0109845
0.00990045
-0.0376607
0.0396499
-0.00198925
0.0121972
-0.0184051
-0.249252
0.25546
0.0250678
-0.0305205
-0.417053
0.422506
0.0357168
-0.0400892
-0.578195
0.582568
0.0447224
-0.0493479
-0.711271
0.715896
0.054991
-0.0604237
-0.839572
0.845005
0.0665101
-0.0720514
-0.988269
0.99381
0.0779744
-0.083091
-1.16453
1.16965
0.0881968
-0.0922144
-1.37189
1.37591
0.095686
-0.0977943
-1.61564
1.61775
0.0986682
-0.0984439
-1.59024
1.59002
0.0975622
-0.0961728
-1.31311
1.31172
0.0946736
-0.0927014
-1.09218
1.0902
0.0908453
-0.0888354
-0.915208
0.913198
0.0864308
-0.0821877
-0.761376
0.757133
0.0757691
-0.0658167
-0.591217
0.581265
0.0545049
-0.0410587
-0.385136
0.37169
0.0293024
-0.0181521
-0.196309
0.185159
0.0102443
-0.00423752
-0.0718381
0.0658313
0.00112196
-0.00881101
0.00768905
-0.0416092
0.0444751
-0.00286591
0.0171856
-0.0256557
-0.26189
0.27036
0.0345604
-0.0417722
-0.429517
0.436729
0.0486125
-0.0542539
-0.588955
0.594596
0.0601875
-0.0659549
-0.72155
0.727317
0.0727336
-0.0790763
-0.850464
0.856807
0.0860166
-0.0921911
-0.999306
1.00548
0.098627
-0.104023
-1.17462
1.18002
0.109209
-0.113086
-1.37965
1.38352
0.116164
-0.117702
-1.61945
1.62098
0.117881
-0.116884
-1.58931
1.58831
0.115339
-0.113298
-1.30956
1.30752
0.111298
-0.108875
-1.08785
1.08542
0.106636
-0.103954
-0.910371
0.907689
0.100849
-0.0951594
-0.752235
0.746545
0.0868323
-0.0743466
-0.570971
0.558485
0.0606485
-0.0449008
-0.35766
0.341912
0.0315372
-0.0191961
-0.173597
0.161256
0.01066
-0.00433232
-0.059712
0.0533843
0.00112406
-0.00657802
0.00545396
-0.047229
0.0515793
-0.00435032
0.0249139
-0.0364661
-0.279059
0.290612
0.0482916
-0.0578382
-0.446491
0.456037
0.0667101
-0.0738192
-0.602916
0.610025
0.0812948
-0.0885848
-0.734083
0.741373
0.0965633
-0.103735
-0.863129
0.8703
0.111364
-0.117954
-1.01151
1.0181
0.124588
-0.129926
-1.1851
1.19043
0.134781
-0.138126
-1.38692
1.39026
0.140376
-0.140954
-1.62191
1.62249
0.140104
-0.13808
-1.58668
1.58466
0.135698
-0.132875
-1.30463
1.30181
0.130291
-0.127382
-1.0824
1.0795
0.124642
-0.121287
-0.904087
0.900733
0.117154
-0.109507
-0.739973
0.732326
0.0986864
-0.0830585
-0.54549
0.529863
0.066534
-0.0482078
-0.325633
0.307307
0.0331766
-0.0197443
-0.14863
0.135197
0.0107382
-0.0042658
-0.0470477
0.0405753
0.00107642
-0.00436169
0.00328527
-0.0556013
0.0630677
-0.0074664
0.0384982
-0.0545391
-0.302923
0.318964
0.0704479
-0.0832173
-0.469616
0.482385
0.0942726
-0.102751
-0.620515
0.628993
0.111727
-0.120295
-0.749265
0.757833
0.129203
-0.136792
-0.87726
0.884849
0.144526
-0.150925
-1.02426
1.03066
0.157072
-0.161704
-1.19514
1.19977
0.165546
-0.167734
-1.39281
1.395
0.168569
-0.167729
-1.62218
1.62134
0.165494
-0.162141
-1.58186
1.57851
0.1587
-0.154919
-1.29802
1.29424
0.151672
-0.148274
-1.07569
1.07229
0.14494
-0.140709
-0.896112
0.891881
0.135009
-0.124632
-0.723404
0.713027
0.110533
-0.0910599
-0.513425
0.493952
0.0714225
-0.0504643
-0.288655
0.267696
0.03391
-0.0196664
-0.121801
0.107557
0.0104361
-0.00403574
-0.0342745
0.0278741
0.000979664
-0.00226481
0.00128515
-0.0700191
0.0741998
-0.00418066
0.0294903
-0.0433873
-0.337506
0.351403
0.0574865
-0.0691689
-0.500347
0.51203
0.0796414
-0.0894043
-0.641346
0.651109
0.10032
-0.110318
-0.765978
0.775976
0.121438
-0.131374
-0.891563
0.901498
0.141985
-0.151446
-1.03612
1.04558
0.161343
-0.169845
-1.20332
1.21182
0.178314
-0.185102
-1.39603
1.40282
0.19119
-0.195233
-1.61931
1.62335
0.197207
-0.19771
-1.57417
1.57467
0.19708
-0.195838
-1.2894
1.28816
0.194868
-0.193474
-1.0675
1.06611
0.191742
-0.187492
-0.885716
0.881465
0.179468
-0.163683
-0.700806
0.685022
0.142071
-0.113456
-0.473393
0.444778
0.0862236
-0.0586413
-0.246768
0.219185
0.0381273
-0.0213947
-0.0940091
0.0772766
0.0110121
-0.00411683
-0.0219905
0.0150953
0.000962138
-0.000388966
-0.000573172
-0.0814369
0.0795832
0.00185369
0.0075923
-0.016772
-0.368134
0.377314
0.0274948
-0.0357852
-0.528427
0.536718
0.044206
-0.0524888
-0.663449
0.671732
0.0625354
-0.0718957
-0.785644
0.795004
0.0818737
-0.091006
-0.910883
0.920015
0.100723
-0.109043
-1.05475
1.06307
0.117931
-0.125197
-1.22013
1.2274
0.132376
-0.137841
-1.4093
1.41477
0.142186
-0.144679
-1.6266
1.62909
0.145135
-0.144133
-1.57451
1.57351
0.141994
-0.139121
-1.2861
1.28322
0.136575
-0.133813
-1.06218
1.05942
0.130809
-0.125468
-0.872767
0.867426
0.116748
-0.102372
-0.665081
0.650706
0.085282
-0.0647656
-0.414542
0.394026
0.0471063
-0.0309794
-0.192272
0.176146
0.0198061
-0.0110969
-0.0617029
0.0529937
0.00577766
-0.00219052
-0.00855525
0.00496811
0.000458021
0.0016109
-0.00206892
-0.0828983
0.0799605
0.00293783
-0.00173698
-0.00359712
-0.388829
0.394163
0.0109237
-0.0169183
-0.549221
0.555216
0.0231495
-0.0304021
-0.68216
0.689413
0.0390886
-0.0472125
-0.803485
0.811609
0.0560973
-0.0640599
-0.928393
0.936356
0.0722765
-0.0796656
-1.0712
1.07859
0.0873316
-0.0936644
-1.23419
1.24053
0.0994335
-0.103573
-1.41952
1.42366
0.106758
-0.10795
-1.63083
1.63202
0.107131
-0.104869
-1.57186
1.5696
0.10173
-0.0979648
-1.27994
1.27617
0.0941536
-0.0901612
-1.05432
1.05032
0.0860567
-0.0801512
-0.857867
0.851961
0.0721209
-0.0601869
-0.633234
0.6213
0.0477467
-0.0344021
-0.371961
0.358616
0.0243527
-0.0160334
-0.15986
0.15154
0.0105276
-0.00625054
-0.0445088
0.0402318
0.00346254
-0.00130779
-0.00152945
-0.000625297
0.000305017
0.0027395
-0.00304452
-0.0815869
0.0787929
0.00279397
-0.00548564
0.00293887
-0.402614
0.405161
0.00180096
-0.00633219
-0.564569
0.5691
0.0115714
-0.0176349
-0.69759
0.703653
0.0250269
-0.0319643
-0.819102
0.82604
0.0395414
-0.0463525
-0.943776
0.950587
0.0537524
-0.0599814
-1.08551
1.09174
0.0666122
-0.0715957
-1.2464
1.25138
0.0763895
-0.0796498
-1.42751
1.43077
0.0816989
-0.0816439
-1.63268
1.63262
0.0800097
-0.0769524
-1.56669
1.56363
0.0730972
-0.0681723
-1.27193
1.267
0.0635537
-0.0585295
-1.0445
1.03947
0.0534277
-0.047567
-0.841837
0.835976
0.0404075
-0.0313359
-0.606679
0.597607
0.0230429
-0.0155291
-0.344151
0.336637
0.0107395
-0.00728298
-0.142451
0.138995
0.00512178
-0.00339054
-0.0354976
0.0337664
0.0020222
-0.000845705
0.00276955
-0.00394604
0.000220882
0.00360059
-0.00382147
-0.079989
0.0774896
0.00249942
-0.0067332
0.00584795
-0.411742
0.412627
-0.00237546
-0.00086553
-0.576841
0.580082
0.00510097
-0.0105814
-0.710489
0.71597
0.0167605
-0.0228174
-0.832275
0.838332
0.0293409
-0.0352108
-0.956921
0.962791
0.0414993
-0.0469689
-1.0978
1.10327
0.0524955
-0.0569368
-1.25617
1.26061
0.060871
-0.0633706
-1.43359
1.43609
0.0646059
-0.0638069
-1.63228
1.63148
0.0614792
-0.057538
-1.55975
1.55581
0.0530903
-0.0476594
-1.26181
1.25638
0.0424049
-0.0364742
-1.03304
1.02711
0.0309304
-0.0249648
-0.82619
0.820225
0.0189875
-0.0122162
-0.586369
0.579598
0.00712705
-0.00360967
-0.327618
0.324101
0.00207597
-0.00150814
-0.134174
0.133607
0.00135995
-0.00118714
-0.0313623
0.0311895
0.000828423
-0.000404717
0.0052803
-0.005704
0.000125866
0.00427491
-0.00440078
-0.078459
0.0762947
0.00216428
-0.00671593
0.00639387
-0.417899
0.418221
-0.00435341
0.00175595
-0.586202
0.5888
0.00228737
-0.00694836
-0.721365
0.726026
0.0122237
-0.0174527
-0.843593
0.848822
0.0232093
-0.0284018
-0.968283
0.973476
0.0340765
-0.0387877
-1.10842
1.11313
0.0436427
-0.0475021
-1.26471
1.26857
0.0507734
-0.0526954
-1.43824
1.44016
0.0533031
-0.0523265
-1.63047
1.6295
0.0494652
-0.0451969
-1.55129
1.54702
0.0403294
-0.0344381
-1.25058
1.24469
0.0289869
-0.0224525
-1.0203
1.01377
0.0165107
-0.0105266
-0.811151
0.805166
0.00528481
-0.000209894
-0.570792
0.565717
-0.00284273
0.00408892
-0.318314
0.317068
-0.00363355
0.00262639
-0.131511
0.132518
-0.00169234
0.000772557
-0.0305785
0.0314983
-0.00029648
4.72416e-05
0.00620547
-0.00595623
1.32541e-05
0.00468927
-0.00470252
-0.0772338
0.075522
0.00171176
-0.00591854
0.00597873
-0.422341
0.422281
-0.00438619
0.00247798
-0.59429
0.596198
0.00125322
-0.00544378
-0.730702
0.734893
0.0104064
-0.0148716
-0.853639
0.858104
0.01988
-0.0244289
-0.97861
0.983158
0.0297328
-0.0339297
-1.11783
1.12203
0.0381318
-0.0416501
-1.27218
1.2757
0.04488
-0.0464315
-1.44203
1.44358
0.0468029
-0.0454459
-1.62802
1.62667
0.0426254
-0.0378641
-1.54242
1.53766
0.032969
-0.0270355
-1.2385
1.23257
0.0212617
-0.0147334
-1.00677
1.00024
0.00861698
-0.00234123
-0.796683
0.790407
-0.00198905
0.00604093
-0.558178
0.554126
-0.00828379
0.00839665
-0.313165
0.313052
-0.00721588
0.00554181
-0.132145
0.133819
-0.00392297
0.0022948
-0.0320152
0.0336434
-0.00120684
0.000443848
0.00573797
-0.00497498
-8.99075e-05
0.00479423
-0.00470432
-0.0764923
0.0751282
0.00136407
-0.004898
0.00512137
-0.425733
0.425509
-0.00377027
0.00197854
-0.601235
0.603027
0.00155836
-0.00525895
-0.739018
0.742718
0.00946844
-0.0137316
-0.862494
0.866757
0.0183038
-0.0229286
-0.987484
0.992109
0.0274201
-0.0313482
-1.12628
1.13021
0.0355698
-0.0387216
-1.27905
1.2822
0.041312
-0.0431069
-1.44497
1.44677
0.0434274
-0.0420947
-1.62528
1.62395
0.0391459
-0.0346451
-1.533
1.5285
0.0297824
-0.0238629
-1.22623
1.22031
0.0181954
-0.0116935
-0.993277
0.986775
0.00567563
0.0003327
-0.782671
0.776663
-0.00475558
0.00825156
-0.54739
0.543894
-0.0101002
0.0101381
-0.310156
0.310118
-0.00882192
0.00685501
-0.134098
0.136065
-0.00506686
0.00315872
-0.0347787
0.0366868
-0.00176087
0.000714207
0.00424588
-0.00319921
-0.000168819
0.00463138
-0.00446256
-0.0762706
0.0751227
0.0011479
-0.00365348
0.00366794
-0.428675
0.42866
-0.00263347
0.000896469
-0.607525
0.609262
0.00246296
-0.00599938
-0.746658
0.750194
0.00999665
-0.0138108
-0.870779
0.874593
0.0184476
-0.0222242
-0.996124
0.9999
0.0266157
-0.0302891
-1.13426
1.13793
0.0343032
-0.037554
-1.28529
1.28854
0.040306
-0.0417441
-1.44826
1.4497
0.0422301
-0.0411064
-1.62247
1.62135
0.0385915
-0.0341805
-1.52382
1.51941
0.0295656
-0.0238489
-1.21445
1.20874
0.0183971
-0.0120338
-0.979873
0.973509
0.00629716
-0.000269032
-0.76928
0.763252
-0.00413344
0.00747954
-0.537623
0.534276
-0.00937805
0.00969241
-0.307626
0.307311
-0.00883294
0.00717078
-0.136418
0.138081
-0.00550643
0.0035818
-0.0380123
0.0399369
-0.00208326
0.000913711
0.00220906
-0.00103951
-0.000244856
0.00429177
-0.00404692
-0.0763246
0.0755107
0.000813888
-0.00250945
0.00207357
-0.431644
0.43208
-0.00120158
-0.000613436
-0.613004
0.614819
0.00362159
-0.00698736
-0.753721
0.757087
0.0107807
-0.0146892
-0.878241
0.882149
0.0186612
-0.0225548
-1.00386
1.00775
0.0268541
-0.030262
-1.142
1.14541
0.0342957
-0.0374253
-1.29154
1.29467
0.0401418
-0.0420127
-1.4515
1.45337
0.0428606
-0.041885
-1.62022
1.61924
0.039478
-0.0356498
-1.51514
1.51131
0.03147
-0.0260256
-1.2029
1.19745
0.0207657
-0.0149205
-0.966999
0.961154
0.00908574
-0.00342644
-0.756172
0.750513
-0.00121408
0.00474228
-0.528302
0.524774
-0.00659041
0.00746243
-0.30467
0.303798
-0.00719813
0.0061886
-0.138191
0.1392
-0.00490131
0.00332249
-0.0410854
0.0426642
-0.00200812
0.000929658
-1.55037e-05
0.00109396
-0.000265808
0.00382458
-0.00355878
-0.0767987
0.0761525
0.000646246
-0.00153764
0.00118018
-0.434804
0.435161
0.000164459
-0.00198328
-0.618483
0.620302
0.0051109
-0.00831493
-0.760215
0.763419
0.0119288
-0.015405
-0.885697
0.889173
0.0194688
-0.0230122
-1.01162
1.01516
0.0272206
-0.0310255
-1.14924
1.15305
0.0346441
-0.0380516
-1.29781
1.30122
0.0411231
-0.0430133
-1.4551
1.45699
0.0441449
-0.043865
-1.61845
1.61817
0.0418134
-0.0385302
-1.50733
1.50405
0.0345159
-0.0295275
-1.19207
1.18708
0.0247169
-0.0190886
-0.954881
0.949252
0.0136874
-0.00813107
-0.7437
0.738144
0.00344489
0.000646938
-0.518805
0.514713
-0.00295287
0.00427459
-0.300874
0.299553
-0.00472389
0.00437273
-0.138808
0.139159
-0.00366084
0.0026243
-0.043414
0.0444505
-0.00166537
0.00079126
-0.00193721
0.00281132
-0.000241452
0.00333309
-0.00309164
-0.0775609
0.0770968
0.000464098
-0.000482359
2.98616e-05
-0.438141
0.438593
0.00140241
-0.00348238
-0.623672
0.625752
0.00649859
-0.00952565
-0.766426
0.769453
0.0132102
-0.0165133
-0.892604
0.895907
0.0203941
-0.0240377
-1.01917
1.02281
0.0281193
-0.0318599
-1.15667
1.16041
0.0356658
-0.0390618
-1.30451
1.3079
0.0422735
-0.0448662
-1.45913
1.46173
0.0463795
-0.0463293
-1.61779
1.61774
0.0449073
-0.0418968
-1.50064
1.49763
0.0384307
-0.0340235
-1.18208
1.17767
0.029343
-0.0240419
-0.943371
0.93807
0.0189019
-0.0133282
-0.731679
0.726106
0.00866652
-0.00413799