/*--------------------------------*- C++ -*----------------------------------*\
| =========                 |                                                 |
| \\      /  F ield         | OpenFOAM: The Open Source CFD Toolbox           |
|  \\    /   O peration     | Version:  2112                                  |
|   \\  /    A nd           | Website:  www.openfoam.com                      |
|    \\/     M anipulation  |                                                 |
\*---------------------------------------------------------------------------*/
FoamFile
{
    version     2.0;
    format      ascii;
    arch        "LSB;label=32;scalar=64";
    class       volVectorField;
    location    "68.5";
    object      U;
}
// * * * * * * * * * * * * * * * * * * * * * * * * * * * * * * * * * * * * * //

dimensions      [0 1 -1 0 0 0 0];

internalField   nonuniform List<vector> 
8800
(
(0.980136 -0.0915202 0)
(1.00234 -0.0587302 0)
(0.999584 -0.0321285 0)
(0.999986 -0.0165211 0)
(1.00009 -0.00884027 0)
(1.00011 -0.00509511 0)
(1.00007 -0.0029908 0)
(1.00002 -0.00167947 0)
(0.999999 -0.00077732 0)
(1.00007 -7.77061e-05 0)
(0.999978 0.000631924 0)
(0.999988 0.00139008 0)
(1.00003 0.00241274 0)
(1.00005 0.00400986 0)
(1.00004 0.00675263 0)
(1 0.0120528 0)
(0.999806 0.023095 0)
(0.999034 0.0431552 0)
(1.00724 0.0790247 0)
(0.775026 0.0478395 0)
(0.358998 -0.0147479 0)
(1.04651 -0.072477 0)
(1.08848 -0.066013 0)
(1.04944 -0.0509043 0)
(1.02556 -0.0376809 0)
(1.01277 -0.0258726 0)
(1.0066 -0.016673 0)
(1.00365 -0.010179 0)
(1.00219 -0.00554363 0)
(1.00151 -0.00194524 0)
(1.00137 0.0012693 0)
(1.00172 0.00458136 0)
(1.0027 0.0084696 0)
(1.00476 0.013772 0)
(1.00898 0.0214411 0)
(1.01794 0.0319267 0)
(1.03579 0.0446941 0)
(1.06742 0.058132 0)
(1.09468 0.0699498 0)
(0.845607 0.0555091 0)
(0.21782 -0.00137958 0)
(1.0757 -0.050631 0)
(1.09943 -0.0489091 0)
(1.06441 -0.0399873 0)
(1.03994 -0.032522 0)
(1.02386 -0.0253003 0)
(1.01406 -0.018071 0)
(1.00853 -0.0114395 0)
(1.00566 -0.00567347 0)
(1.00447 -0.00037567 0)
(1.00477 0.00473871 0)
(1.00661 0.0100273 0)
(1.01057 0.0159844 0)
(1.01789 0.0227223 0)
(1.03048 0.0298147 0)
(1.05046 0.0368921 0)
(1.08002 0.0446594 0)
(1.10563 0.051973 0)
(0.943209 0.0410259 0)
(0.217145 0.00140696 0)
(0.176699 -0.000627612 0)
(1.01948 -0.0354356 0)
(1.10576 -0.0413668 0)
(1.07803 -0.0363411 0)
(1.05252 -0.0302855 0)
(1.0353 -0.0243961 0)
(1.02342 -0.0185859 0)
(1.01559 -0.0125727 0)
(1.01096 -0.00646252 0)
(1.0089 -0.000214006 0)
(1.00941 0.00594767 0)
(1.01247 0.0118619 0)
(1.01845 0.017612 0)
(1.02805 0.0231611 0)
(1.04222 0.0286945 0)
(1.06303 0.0344604 0)
(1.09382 0.0403316 0)
(1.09436 0.0418378 0)
(0.830045 0.0228017 0)
(0.175546 0.000649618 0)
(0.154818 -0.000461301 0)
(0.958339 -0.0256554 0)
(1.10449 -0.0350552 0)
(1.08816 -0.0325914 0)
(1.06136 -0.0280704 0)
(1.04332 -0.0230907 0)
(1.03091 -0.017769 0)
(1.02229 -0.0122068 0)
(1.01671 -0.00627688 0)
(1.01402 0.000191361 0)
(1.01463 0.00665546 0)
(1.01839 0.0125253 0)
(1.0252 0.0178171 0)
(1.03533 0.02279 0)
(1.05003 0.0275941 0)
(1.07195 0.0320146 0)
(1.10092 0.0358722 0)
(1.06954 0.0340528 0)
(0.742253 0.0144854 0)
(0.153088 0.000485979 0)
(0.140168 -0.000333032 0)
(0.901436 -0.0192833 0)
(1.09696 -0.0301447 0)
(1.09634 -0.0292463 0)
(1.06911 -0.0254457 0)
(1.05028 -0.021339 0)
(1.03729 -0.0166151 0)
(1.02827 -0.0113405 0)
(1.02229 -0.00559369 0)
(1.01925 0.000780166 0)
(1.01982 0.00715795 0)
(1.02379 0.012804 0)
(1.03083 0.0177559 0)
(1.04132 0.0221831 0)
(1.05664 0.0261051 0)
(1.07943 0.0295958 0)
(1.10317 0.032285 0)
(1.03764 0.028239 0)
(0.675274 0.0103474 0)
(0.137729 0.000362348 0)
(0.129469 -0.000251385 0)
(0.851694 -0.0148791 0)
(1.08469 -0.0260285 0)
(1.10207 -0.026347 0)
(1.07598 -0.0230042 0)
(1.05664 -0.0193244 0)
(1.04322 -0.015099 0)
(1.03382 -0.0102058 0)
(1.02756 -0.00467743 0)
(1.02429 0.00151334 0)
(1.02473 0.00767468 0)
(1.02869 0.0130369 0)
(1.03589 0.0175633 0)
(1.04665 0.0213805 0)
(1.06234 0.0247005 0)
(1.08557 0.0277079 0)
(1.10233 0.0294894 0)
(1.00279 0.0237257 0)
(0.623026 0.00795446 0)
(0.126164 0.000287041 0)
(0.121329 -0.00019236 0)
(0.809354 -0.0116864 0)
(1.06949 -0.0224177 0)
(1.10566 -0.0236938 0)
(1.08227 -0.0207994 0)
(1.06247 -0.017343 0)
(1.04878 -0.0133963 0)
(1.03912 -0.00882081 0)
(1.03258 -0.00356248 0)
(1.02906 0.00239824 0)
(1.02932 0.00829116 0)
(1.03322 0.0132975 0)
(1.04047 0.0173607 0)
(1.05133 0.0206985 0)
(1.06725 0.0236212 0)
(1.09086 0.0263079 0)
(1.09859 0.027175 0)
(0.96748 0.0201847 0)
(0.581011 0.00639807 0)
(0.11697 0.000235664 0)
(0.115033 -0.000147507 0)
(0.773698 -0.00929466 0)
(1.05275 -0.0192353 0)
(1.10807 -0.0212379 0)
(1.08819 -0.0187214 0)
(1.06798 -0.0154224 0)
(1.05402 -0.0116402 0)
(1.04417 -0.00726194 0)
(1.03739 -0.00223834 0)
(1.0336 0.00346548 0)
(1.03363 0.00905098 0)
(1.03739 0.0136786 0)
(1.04457 0.0173349 0)
(1.05543 0.0202887 0)
(1.07158 0.0228777 0)
(1.09488 0.0252116 0)
(1.09201 0.0252667 0)
(0.933046 0.0174524 0)
(0.546217 0.00533415 0)
(0.109393 0.000200056 0)
(0.110132 -0.000112005 0)
(0.743803 -0.00743931 0)
(1.03558 -0.0164093 0)
(1.10953 -0.0189244 0)
(1.09381 -0.0167164 0)
(1.07331 -0.0135136 0)
(1.05907 -0.00982548 0)
(1.04902 -0.00556705 0)
(1.04201 -0.000709508 0)
(1.03793 0.00474937 0)
(1.03766 0.0100139 0)
(1.04119 0.0142798 0)
(1.04822 0.0175708 0)
(1.05906 0.0201737 0)
(1.07543 0.0224713 0)
(1.0976 0.0244276 0)
(1.08295 0.0237114 0)
(0.900072 0.0153803 0)
(0.516569 0.00459465 0)
(0.102936 0.000175646 0)
(0.106337 -8.26262e-05 0)
(0.718849 -0.00594353 0)
(1.01878 -0.0138689 0)
(1.11017 -0.0166848 0)
(1.09933 -0.0147546 0)
(1.07855 -0.0115665 0)
(1.06401 -0.00791061 0)
(1.05373 -0.00371346 0)
(1.04647 0.00103603 0)
(1.04206 0.00629083 0)
(1.04141 0.0112561 0)
(1.04463 0.0151835 0)
(1.05148 0.0181277 0)
(1.06227 0.0203893 0)
(1.07882 0.0224223 0)
(1.09896 0.0239707 0)
(1.0718 0.0225055 0)
(0.868677 0.0138555 0)
(0.490592 0.0040879 0)
(0.0972496 0.000159883 0)
(0.103457 -5.71698e-05 0)
(0.698194 -0.00468899 0)
(1.003 -0.0115476 0)
(1.11015 -0.014482 0)
(1.10471 -0.0127501 0)
(1.0838 -0.00952828 0)
(1.06893 -0.00584506 0)
(1.05838 -0.00164619 0)
(1.05081 0.00304649 0)
(1.04599 0.00814746 0)
(1.04489 0.0128453 0)
(1.04772 0.016445 0)
(1.05435 0.0190481 0)
(1.06506 0.0209755 0)
(1.08175 0.0227505 0)
(1.09928 0.0238967 0)
(1.05883 0.0216642 0)
(0.838697 0.0127894 0)
(0.46718 0.00375717 0)
(0.0920705 0.000150925 0)
(0.101369 -3.36964e-05 0)
(0.681365 -0.00358732 0)
(0.988676 -0.00937542 0)
(1.10966 -0.0122308 0)
(1.1099 -0.0106132 0)
(1.08913 -0.00733602 0)
(1.07391 -0.00356641 0)
(1.06304 0.00069844 0)
(1.05508 0.0053904 0)
(1.04977 0.0103896 0)
(1.04811 0.0148522 0)
(1.05049 0.0181367 0)
(1.05684 0.0203969 0)
(1.06745 0.0219842 0)
(1.0842 0.0234877 0)
(1.09858 0.0242063 0)
(1.04419 0.0211978 0)
(0.809801 0.0121102 0)
(0.445468 0.0035639 0)
(0.0871934 0.00014728 0)
(0.100012 -1.0507e-05 0)
(0.668058 -0.00256916 0)
(0.976182 -0.00727821 0)
(1.10903 -0.00987228 0)
(1.11505 -0.00828643 0)
(1.09463 -0.00491935 0)
(1.07901 -0.000997777 0)
(1.06776 0.0033956 0)
(1.05934 0.00815266 0)
(1.05342 0.0131007 0)
(1.05109 0.0173528 0)
(1.05293 0.0203284 0)
(1.05894 0.0222363 0)
(1.06942 0.0234659 0)
(1.08618 0.0247037 0)
(1.09664 0.0249614 0)
(1.02793 0.0210993 0)
(0.781552 0.0117651 0)
(0.424745 0.00348316 0)
(0.082452 0.000147983 0)
(0.0993684 1.4552e-05 0)
(0.658115 -0.00158028 0)
(0.965833 -0.0051842 0)
(1.10858 -0.00734181 0)
(1.12029 -0.00569376 0)
(1.10037 -0.00218532 0)
(1.08434 0.00195509 0)
(1.07263 0.00654559 0)
(1.06364 0.0114374 0)
(1.05697 0.0163839 0)
(1.05385 0.020445 0)
(1.05504 0.0231133 0)
(1.06064 0.0246536 0)
(1.07095 0.0255129 0)
(1.08762 0.0264447 0)
(1.09341 0.0261733 0)
(1.01 0.0214028 0)
(0.753464 0.0117244 0)
(0.404418 0.00349962 0)
(0.0777102 0.000152465 0)
(0.0994563 3.56165e-05 0)
(0.651506 -0.000575063 0)
(0.957932 -0.00302214 0)
(1.10867 -0.00456833 0)
(1.12578 -0.00275138 0)
(1.10646 0.000958531 0)
(1.08996 0.0053924 0)
(1.07771 0.0102608 0)
(1.06803 0.0153612 0)
(1.06047 0.0203632 0)
(1.05637 0.0242563 0)
(1.05678 0.0266061 0)
(1.06191 0.0277671 0)
(1.07201 0.0282341 0)
(1.0883 0.0287936 0)
(1.08864 0.0278854 0)
(0.990239 0.0221443 0)
(0.724989 0.0119744 0)
(0.383945 0.00360486 0)
(0.0728444 0.000160316 0)
(0.100325 7.12859e-05 0)
(0.648308 0.000460176 0)
(0.952797 -0.000719825 0)
(1.10964 -0.00146872 0)
(1.13174 0.000641158 0)
(1.11302 0.00463257 0)
(1.096 0.00945208 0)
(1.0831 0.0146865 0)
(1.07257 0.0200719 0)
(1.06392 0.0251816 0)
(1.05868 0.0289203 0)
(1.05815 0.0309327 0)
(1.06271 0.031697 0)
(1.07255 0.031745 0)
(1.08808 0.0318803 0)
(1.08205 0.0302003 0)
(0.968343 0.0233528 0)
(0.695522 0.0125045 0)
(0.362814 0.00379041 0)
(0.0677443 0.000170963 0)
(0.102172 0.000104371 0)
(0.648915 0.00163088 0)
(0.950792 0.00182137 0)
(1.11194 0.00207291 0)
(1.13836 0.0045705 0)
(1.12018 0.00899182 0)
(1.10258 0.0142967 0)
(1.08888 0.0199939 0)
(1.07732 0.025747 0)
(1.06736 0.0310098 0)
(1.06073 0.0345937 0)
(1.05911 0.0362321 0)
(1.06299 0.0365798 0)
(1.07251 0.0361724 0)
(1.08669 0.0358201 0)
(1.07337 0.0331984 0)
(0.943904 0.0250642 0)
(0.664417 0.0133081 0)
(0.34055 0.00404906 0)
(0.062315 0.000183673 0)
(0.105061 0.000152932 0)
(0.653776 0.00309495 0)
(0.952392 0.00474871 0)
(1.11606 0.00615639 0)
(1.14588 0.0092138 0)
(1.12812 0.0142068 0)
(1.10982 0.0201163 0)
(1.09517 0.0263921 0)
(1.08235 0.0326016 0)
(1.0708 0.0380612 0)
(1.06252 0.0414709 0)
(1.05963 0.0426854 0)
(1.06269 0.0425824 0)
(1.07182 0.0416672 0)
(1.08398 0.0408009 0)
(1.06221 0.0369953 0)
(0.916361 0.0273239 0)
(0.630966 0.0143807 0)
(0.316696 0.00437292 0)
(0.056476 0.000197776 0)
(0.109273 0.000216039 0)
(0.663284 0.00478866 0)
(0.958054 0.00820078 0)
(1.12248 0.0109606 0)
(1.15456 0.0147734 0)
(1.13703 0.0205192 0)
(1.1179 0.0271819 0)
(1.10206 0.0341619 0)
(1.08768 0.040908 0)
(1.07421 0.0465777 0)
(1.064 0.0497579 0)
(1.05964 0.0504781 0)
(1.06173 0.0498829 0)
(1.07038 0.0483941 0)
(1.08002 0.0469249 0)
(1.04808 0.0417002 0)
(0.885005 0.030155 0)
(0.594412 0.0156995 0)
(0.29083 0.00474572 0)
(0.0501703 0.000211807 0)
(0.115148 0.000300578 0)
(0.67822 0.00689093 0)
(0.96841 0.012378 0)
(1.13178 0.0167284 0)
(1.16479 0.0215176 0)
(1.14719 0.0282507 0)
(1.12701 0.0358367 0)
(1.10966 0.0436513 0)
(1.09336 0.0509933 0)
(1.07757 0.0568401 0)
(1.06509 0.0596962 0)
(1.05896 0.059803 0)
(1.06004 0.0586614 0)
(1.06819 0.0565543 0)
(1.07454 0.0543856 0)
(1.03029 0.0473866 0)
(0.84896 0.0335494 0)
(0.553977 0.0172157 0)
(0.262614 0.00514111 0)
(0.0433779 0.000223988 0)
(0.123191 0.000422937 0)
(0.699554 0.00964858 0)
(0.984337 0.0175935 0)
(1.14461 0.0238059 0)
(1.17706 0.0298388 0)
(1.1589 0.0378512 0)
(1.13733 0.0465524 0)
(1.11806 0.0553198 0)
(1.09934 0.0632629 0)
(1.08078 0.0691775 0)
(1.06569 0.0715384 0)
(1.05757 0.0708893 0)
(1.05752 0.0690724 0)
(1.06514 0.0662689 0)
(1.06719 0.0631887 0)
(1.00798 0.0541138 0)
(0.807205 0.0374461 0)
(0.508923 0.0188409 0)
(0.231854 0.00551909 0)
(0.0361348 0.000231867 0)
(0.134131 0.000596113 0)
(0.728508 0.0134306 0)
(1.007 0.0243204 0)
(1.16178 0.032747 0)
(1.19196 0.0403446 0)
(1.17252 0.0500094 0)
(1.14904 0.0600159 0)
(1.12725 0.0697816 0)
(1.10553 0.0782086 0)
(1.08368 0.0839401 0)
(1.06562 0.0855335 0)
(1.05534 0.0839432 0)
(1.05409 0.0813461 0)
(1.06089 0.0776714 0)
(1.05724 0.073517 0)
(0.980009 0.0618466 0)
(0.758607 0.0416997 0)
(0.458664 0.0204299 0)
(0.198595 0.00582395 0)
(0.0285513 0.000232599 0)
(0.14923 0.000874872 0)
(0.767122 0.0188501 0)
(1.03807 0.0333503 0)
(1.18421 0.0445007 0)
(1.21029 0.0542138 0)
(1.18837 0.0657684 0)
(1.16218 0.0771809 0)
(1.13708 0.0878121 0)
(1.11166 0.0963896 0)
(1.08598 0.101492 0)
(1.06466 0.101911 0)
(1.05212 0.0991055 0)
(1.04961 0.095589 0)
(1.05511 0.0911374 0)
(1.04385 0.0854344 0)
(0.944951 0.0704069 0)
(0.702049 0.046029 0)
(0.402967 0.0217699 0)
(0.163246 0.00598547 0)
(0.0208301 0.000223179 0)
(0.170707 0.0013573 0)
(0.818685 0.0270783 0)
(1.08016 0.0462636 0)
(1.21305 0.0609396 0)
(1.23259 0.0734215 0)
(1.20653 0.0867279 0)
(1.17649 0.0993479 0)
(1.14711 0.110337 0)
(1.11726 0.118396 0)
(1.08729 0.122162 0)
(1.06252 0.120829 0)
(1.04772 0.116469 0)
(1.04401 0.111857 0)
(1.04782 0.106554 0)
(1.02585 0.0988255 0)
(0.901015 0.0794013 0)
(0.636723 0.0500016 0)
(0.342319 0.0225989 0)
(0.126749 0.00593188 0)
(0.0132829 0.000200519 0)
(0.201994 0.00242909 0)
(0.888974 0.0408456 0)
(1.13687 0.0669313 0)
(1.24871 0.0856294 0)
(1.25863 0.100746 0)
(1.22639 0.115258 0)
(1.19116 0.128126 0)
(1.15653 0.138341 0)
(1.12164 0.144762 0)
(1.08708 0.146182 0)
(1.05886 0.142354 0)
(1.04194 0.136037 0)
(1.03714 0.130126 0)
(1.03849 0.123786 0)
(1.00161 0.113289 0)
(0.846126 0.0880887 0)
(0.562784 0.0530533 0)
(0.278661 0.0227329 0)
(0.0909321 0.00565387 0)
(0.00642069 0.000165288 0)
(0.244616 0.00873707 4.8972e-20)
(0.982099 0.0683278 4.27354e-20)
(1.20595 0.101569 -1.49145e-20)
(1.28814 0.122128 0)
(1.2856 0.139794 -3.78252e-34)
(1.2458 0.153696 5.52313e-21)
(1.20462 0.165027 -9.90201e-21)
(1.16423 0.173044 0)
(1.12395 0.176736 2.0251e-34)
(1.08457 0.175001 -1.2161e-20)
(1.05273 0.168201 0)
(1.03362 0.159774 -1.44135e-20)
(1.02803 0.152809 -4.25077e-20)
(1.02584 0.146173 -2.00754e-20)
(0.966882 0.131286 -6.0396e-21)
(0.773876 0.0978381 -3.58773e-21)
(0.475053 0.0554613 0)
(0.210489 0.0225436 2.50654e-21)
(0.0558136 0.00541827 2.95897e-21)
(0.000209408 0.000125065 5.33877e-20)
(0.274478 0.0243857 3.60288e-20)
(1.05899 0.11129 5.46224e-22)
(1.26292 0.150936 3.98513e-21)
(1.32344 0.171707 0)
(1.30929 0.189142 -1.9204e-20)
(1.26247 0.200864 -2.17803e-20)
(1.2154 0.209865 -9.99394e-21)
(1.1692 0.215394 -3.54336e-20)
(1.12337 0.216308 0)
(1.07878 0.211482 5.17004e-20)
(1.04291 0.201814 5.12019e-20)
(1.02142 0.191329 1.51853e-20)
(1.01371 0.182676 5.5352e-20)
(1.00279 0.173895 7.77713e-20)
(0.911763 0.152127 0)
(0.67563 0.107672 1.09503e-19)
(0.371695 0.0572307 1.56924e-19)
(0.139609 0.0215911 1.74188e-19)
(0.0204708 0.0039605 -1.99086e-19)
(-0.00614514 -0.000509196 -3.75233e-21)
(0.275499 0.0403666 0)
(1.10759 0.166946 6.38352e-21)
(1.30131 0.211665 0)
(1.35087 0.23186 -2.51309e-20)
(1.32789 0.246176 0)
(1.27519 0.254008 -4.27918e-20)
(1.22261 0.259261 2.03992e-20)
(1.17092 0.261184 -7.12982e-20)
(1.1198 0.258438 -1.58708e-21)
(1.0703 0.249852 2.67131e-20)
(1.03063 0.236855 1.12315e-19)
(1.00686 0.223944 -2.07345e-22)
(0.996767 0.213403 -4.01406e-20)
(0.976866 0.20152 -7.30226e-20)
(0.861799 0.171789 8.63543e-20)
(0.604701 0.116229 -1.52807e-19)
(0.310575 0.0587304 -2.01383e-20)
(0.102257 0.0203265 0)
(0.00213231 0.00169989 -1.37307e-23)
(-0.00973192 -0.00137288 0)
(0.268947 0.0541751 8.40022e-20)
(1.13375 0.225877 -4.0905e-20)
(1.32496 0.276852 -3.13092e-20)
(1.36907 0.297171 1.18736e-20)
(1.33999 0.307515 -1.99393e-20)
(1.28288 0.310792 8.95537e-20)
(1.22576 0.311604 4.25037e-20)
(1.16935 0.309254 0)
(1.11352 0.302273 -1.33961e-19)
(1.05951 0.289429 0)
(1.01631 0.272693 -5.88575e-20)
(0.990344 0.257049 -7.25745e-20)
(0.977895 0.244194 -4.36045e-20)
(0.950289 0.228519 -5.29067e-20)
(0.820936 0.190936 0)
(0.558491 0.125809 0)
(0.277698 0.0619906 -1.30823e-19)
(0.0824852 0.0195145 2.58121e-20)
(-0.00910745 -0.00089242 -1.51178e-20)
(-0.0125056 -0.00244148 -1.76854e-20)
(0.26109 0.0663447 -3.36924e-20)
(1.14511 0.284602 0)
(1.3379 0.342911 6.38131e-20)
(1.37899 0.36385 3.33507e-20)
(1.34567 0.37031 4.60443e-20)
(1.28536 0.368998 0)
(1.22469 0.365239 4.15764e-20)
(1.16437 0.358412 7.87374e-20)
(1.10448 0.346955 6.85867e-20)
(1.04644 0.329583 1.25425e-19)
(0.999962 0.308839 0)
(0.971844 0.290207 -1.56255e-19)
(0.957064 0.274771 -9.40073e-20)
(0.923526 0.255164 -5.55575e-20)
(0.787762 0.210528 3.39309e-19)
(0.529551 0.137231 4.02528e-20)
(0.261416 0.0671195 1.88989e-19)
(0.0736339 0.0195229 -8.93849e-19)
(-0.0151325 -0.00334552 5.28031e-19)
(-0.0145396 -0.00359066 -6.36422e-19)
(0.253461 0.077287 -1.62763e-20)
(1.14694 0.341241 6.1101e-21)
(1.34301 0.407918 -6.86268e-21)
(1.38226 0.43 -3.37228e-20)
(1.34589 0.432814 -3.88366e-20)
(1.28319 0.427087 1.80197e-21)
(1.21971 0.418902 -4.50178e-20)
(1.15619 0.407657 8.13756e-20)
(1.09283 0.391725 -1.47491e-19)
(1.0312 0.369773 0)
(0.981671 0.344917 -7.08125e-20)
(0.951388 0.323145 -1.58875e-21)
(0.934328 0.305032 -1.02774e-19)
(0.896721 0.281582 0)
(0.760187 0.230794 -7.34108e-20)
(0.511434 0.150521 -1.73879e-19)
(0.255536 0.0743356 4.62475e-19)
(0.0729636 0.0210122 -4.55709e-19)
(-0.0163913 -0.00500839 6.46036e-19)
(-0.0155525 -0.00462644 -6.71287e-19)
(0.246933 0.0873494 -4.2103e-22)
(1.14278 0.395123 -2.06187e-21)
(1.34247 0.470874 -1.87344e-20)
(1.3803 0.494411 1.34415e-20)
(1.34172 0.493976 -1.95327e-20)
(1.27721 0.484119 0)
(1.21147 0.47176 -4.19273e-20)
(1.14527 0.456291 -8.52161e-20)
(1.07889 0.436029 -7.66765e-20)
(1.01403 0.40958 0)
(0.961642 0.380608 -7.34774e-20)
(0.929241 0.355671 -9.08774e-20)
(0.910048 0.33485 1.11443e-19)
(0.869687 0.307735 -6.75066e-20)
(0.735663 0.251796 -3.2046e-19)
(0.498798 0.165393 1.89768e-19)
(0.255154 0.083127 5.61896e-20)
(0.0768584 0.024055 0)
(-0.0139123 -0.00546634 -6.24883e-19)
(-0.0154923 -0.00533713 -2.29337e-20)
(0.241632 0.0968459 9.40332e-22)
(1.13498 0.446063 -5.94547e-22)
(1.33779 0.531313 8.67466e-21)
(1.37436 0.556367 4.82065e-20)
(1.3341 0.553132 -7.19159e-20)
(1.26822 0.539515 8.49169e-20)
(1.20065 0.523287 9.0329e-20)
(1.13217 0.503858 -1.36196e-19)
(1.06312 0.479489 4.72535e-20)
(0.995306 0.448704 -3.08306e-19)
(0.940231 0.415711 -8.3049e-20)
(0.905749 0.387663 0)
(0.884488 0.364198 1.20956e-19)
(0.842155 0.33373 1.44898e-19)
(0.71256 0.272948 1.72819e-19)
(0.48804 0.18125 -2.06446e-19)
(0.25622 0.0931907 -6.09087e-20)
(0.0827659 0.0285983 7.16722e-20)
(-0.00909265 -0.00463093 0)
(-0.014583 -0.00569003 -4.98368e-20)
(0.237491 0.105944 -3.28742e-20)
(1.1252 0.494174 1.41444e-20)
(1.33022 0.589035 -7.61061e-21)
(1.36546 0.615563 2.90715e-20)
(1.32385 0.609892 -3.22904e-20)
(1.25693 0.592888 -4.10519e-21)
(1.18785 0.573142 -9.8782e-20)
(1.11741 0.550065 -4.92975e-20)
(1.04598 0.521854 -1.33292e-19)
(0.975419 0.486951 3.26393e-22)
(0.917782 0.450087 -2.60424e-19)
(0.881293 0.419006 2.19356e-19)
(0.858125 0.392961 -1.33033e-19)
(0.814352 0.359142 1.59778e-19)
(0.68952 0.293909 0)
(0.476899 0.197472 -1.12416e-19)
(0.256979 0.103785 2.86271e-22)
(0.0889823 0.0341352 -3.1325e-19)
(-0.00325192 -0.00284967 -4.59596e-20)
(-0.0131533 -0.00573351 0)
(0.234392 0.114792 0)
(1.11443 0.539684 1.85429e-20)
(1.32069 0.644446 -4.74683e-21)
(1.35443 0.67185 -2.63431e-20)
(1.31168 0.664054 -4.1223e-20)
(1.24394 0.644022 0)
(1.17363 0.621105 -4.49128e-20)
(1.10147 0.59471 -1.04109e-21)
(1.02786 0.562963 2.85893e-19)
(0.954711 0.524193 -4.24234e-20)
(0.89461 0.483615 -1.88122e-19)
(0.85619 0.449563 1.14185e-19)
(0.831218 0.420957 -2.23911e-21)
(0.786197 0.38388 1.7028e-19)
(0.665715 0.31424 1.04333e-19)
(0.464033 0.213446 -2.42797e-19)
(0.255384 0.114434 2.87209e-19)
(0.0937963 0.0401898 8.50814e-20)
(0.00244235 -0.000375045 3.50533e-19)
(-0.0114543 -0.00549438 -9.36125e-19)
(0.232265 0.123543 -1.53157e-20)
(1.1034 0.582778 1.79036e-20)
(1.30981 0.696871 -9.71153e-21)
(1.34189 0.725208 2.00741e-20)
(1.29814 0.715522 0)
(1.22976 0.692792 -3.90962e-20)
(1.15841 0.667048 1.51209e-19)
(1.08474 0.637673 1.08358e-19)
(1.00912 0.602709 0)
(0.93349 0.56035 -6.114e-19)
(0.87098 0.516208 5.0951e-19)
(0.83069 0.479231 0)
(0.804018 0.448072 1.55792e-19)
(0.757769 0.407645 -2.22955e-21)
(0.640619 0.333533 -3.35226e-19)
(0.449349 0.228197 1.3089e-19)
(0.251086 0.124451 0)
(0.096346 0.0460446 4.59785e-19)
(0.00703674 0.00222211 0)
(-0.00979827 -0.00510849 -4.4369e-19)
(0.230962 0.132265 1.96504e-20)
(1.0925 0.623709 2.69975e-20)
(1.29816 0.74638 -8.5539e-21)
(1.32832 0.775651 0)
(1.28371 0.764279 -3.49701e-20)
(1.21483 0.739161 0)
(1.14261 0.710908 -1.49436e-19)
(1.06758 0.678884 -5.04213e-20)
(0.990067 0.641038 5.0591e-20)
(0.912022 0.595384 -3.02642e-19)
(0.847089 0.547829 5.26819e-20)
(0.80496 0.507967 0)
(0.776672 0.474184 -3.33193e-19)
(0.729161 0.430229 2.14471e-21)
(0.614525 0.351372 0)
(0.432405 0.241372 1.03887e-21)
(0.243861 0.133134 4.20971e-19)
(0.0959728 0.0510099 -3.97174e-19)
(0.00984996 0.00442208 1.17247e-19)
(-0.00845019 -0.0047269 0)
(0.230166 0.140862 0)
(1.08204 0.662544 3.48971e-20)
(1.28595 0.793154 1.83852e-20)
(1.31416 0.823231 -2.54634e-21)
(1.26875 0.810354 -1.14735e-20)
(1.19948 0.783127 -8.85386e-20)
(1.12653 0.752667 5.61718e-20)
(1.05027 0.718316 -5.95784e-20)
(0.970971 0.677917 2.25964e-19)
(0.890525 0.629284 -4.84716e-19)
(0.823117 0.578492 -4.15582e-21)
(0.779134 0.535749 -1.4609e-19)
(0.749265 0.499147 5.41086e-19)
(0.700424 0.451299 -2.57858e-21)
(0.587718 0.367264 -2.60744e-19)
(0.413546 0.252421 -4.62658e-19)
(0.234117 0.13995 0)
(0.0931899 0.0545002 0)
(0.0109371 0.00583278 1.26545e-19)
(-0.00748204 -0.00446416 -7.42332e-20)
(0.230085 0.149463 3.03329e-20)
(1.0722 0.699199 -8.17388e-20)
(1.27345 0.837317 -1.97808e-20)
(1.29972 0.868013 0)
(1.25357 0.853804 -1.50533e-21)
(1.18401 0.824718 -8.13161e-20)
(1.11043 0.792338 1.35937e-19)
(1.03306 0.755965 2.35063e-19)
(0.952056 0.713347 2.94245e-19)
(0.869212 0.662065 -3.96657e-19)
(0.799224 0.608244 -4.39491e-19)
(0.753278 0.562573 3.91088e-19)
(0.721791 0.522862 0)
(0.671499 0.470588 -1.18824e-19)
(0.560242 0.380894 -2.81799e-19)
(0.393069 0.260956 -3.32827e-19)
(0.222102 0.144588 -3.92616e-19)
(0.0882989 0.0563177 1.15936e-19)
(0.0105641 0.0063554 -6.81438e-20)
(-0.00687191 -0.00435248 3.07114e-22)
(0.230137 0.157981 0)
(1.06309 0.734044 0)
(1.26093 0.87895 2.47164e-21)
(1.28523 0.91011 0)
(1.23841 0.894719 2.55356e-20)
(1.16862 0.863997 5.54446e-20)
(1.09453 0.829949 0)
(1.01615 0.791845 2.80075e-20)
(0.933521 0.747335 4.92158e-19)
(0.848267 0.693754 -9.12915e-19)
(0.775546 0.637147 0)
(0.727443 0.588474 -2.52149e-19)
(0.69419 0.545279 -3.02661e-21)
(0.642334 0.487891 -2.28742e-21)
(0.532195 0.391958 3.01929e-19)
(0.370992 0.266687 -4.20113e-23)
(0.208362 0.14672 -8.45918e-19)
(0.0817155 0.0564441 2.49426e-19)
(0.00913325 0.00609827 7.36897e-20)
(-0.00650639 -0.00434503 0)
(0.230328 0.166374 -1.28223e-19)
(1.05445 0.767242 -5.92968e-20)
(1.24849 0.918149 -6.9373e-20)
(1.27086 0.949665 4.27229e-20)
(1.22343 0.933175 3.0404e-20)
(1.15351 0.901028 0)
(1.07899 0.86555 8.28887e-20)
(0.999694 0.825983 -6.25169e-20)
(0.915522 0.779899 3.92214e-21)
(0.827859 0.72439 6.73256e-20)
(0.752214 0.665273 5.70732e-19)
(0.701653 0.613553 -8.85574e-20)
(0.66637 0.566438 -3.34256e-19)
(0.61277 0.503034 -1.38493e-19)
(0.503644 0.400088 1.63693e-19)
(0.348143 0.269325 1.247e-22)
(0.193424 0.146272 2.27801e-19)
(0.0740402 0.0549221 -5.36713e-19)
(0.0070281 0.00519025 6.34199e-19)
(-0.00629199 -0.00440692 9.24932e-20)
(0.230462 0.17451 4.9703e-20)
(1.04631 0.798873 -3.40715e-20)
(1.23626 0.955016 6.24408e-21)
(1.25675 0.986813 3.43783e-20)
(1.2088 0.969285 2.37364e-22)
(1.13879 0.935887 -9.74479e-20)
(1.06395 0.899191 2.41181e-20)
(0.983829 0.858403 -2.61133e-19)
(0.898196 0.811044 -5.44642e-19)
(0.808127 0.753988 -5.45773e-19)
(0.729366 0.692703 0)
(0.675939 0.637971 -3.8933e-19)
(0.638201 0.586451 4.82158e-19)
(0.58256 0.51586 0)
(0.474547 0.404856 -3.5086e-19)
(0.325179 0.268407 2.08232e-19)
(0.178507 0.143059 -2.44954e-19)
(0.0664906 0.0520275 -2.88715e-19)
(0.00484235 0.00389304 -5.1081e-19)
(-0.00618828 -0.0045245 -3.98134e-19)
(0.230959 0.182524 -5.71979e-20)
(1.03849 0.828933 3.64801e-20)
(1.2243 0.989623 8.06676e-20)
(1.24297 1.02164 5.46795e-20)
(1.19459 1.00315 3.79515e-21)
(1.12457 0.968662 -5.28133e-20)
(1.04948 0.930924 8.0686e-20)
(0.968642 0.889147 -2.69028e-19)
(0.881637 0.840795 -3.23367e-19)
(0.789199 0.78257 5.72766e-19)
(0.707126 0.719514 1.25709e-18)
(0.650363 0.661923 0)
(0.609563 0.605496 0)
(0.551332 0.526339 -1.59479e-19)
(0.444591 0.405809 0)
(0.30237 0.263004 4.47367e-19)
(0.165147 0.13624 5.26393e-19)
(0.0611159 0.0476484 0)
(0.00382017 0.00251496 0)
(-0.00612563 -0.00463773 4.2796e-19)
(0.231145 0.190117 6.61624e-20)
(1.03103 0.85742 5.3051e-20)
(1.21268 1.0221 5.91301e-20)
(1.2296 1.05427 -5.7766e-20)
(1.18089 1.03486 -3.03239e-21)
(1.11091 0.999432 5.40841e-20)
(1.03566 0.960814 -1.11167e-19)
(0.954203 0.918245 -6.4395e-22)
(0.865928 0.86916 -5.10658e-21)
(0.771173 0.810137 -4.46069e-21)
(0.685641 0.74577 6.48253e-19)
(0.625032 0.685591 0)
(0.580375 0.623827 4.89282e-19)
(0.518652 0.534644 3.40892e-19)
(0.413012 0.402703 8.18425e-19)
(0.279293 0.251729 2.41076e-19)
(0.154933 0.122993 -2.83114e-19)
(0.0625173 0.0383963 -1.6625e-19)
(0.0103354 -4.94215e-05 0)
(-0.00390825 -0.00398928 4.59813e-19)
(0.231663 0.197733 -1.51493e-19)
(1.02389 0.884428 0)
(1.20137 1.0525 7.22829e-20)
(1.21667 1.08478 -5.08896e-20)
(1.16775 1.06454 1.42111e-20)
(1.09786 1.02828 -5.7115e-20)
(1.02255 0.988916 2.16723e-19)
(0.940553 0.945731 -2.17505e-20)
(0.851118 0.896149 0)
(0.754132 0.836669 -6.3436e-19)
(0.665052 0.771503 -1.41241e-18)
(0.600095 0.70914 5.77239e-20)
(0.550672 0.641761 6.76583e-19)
(0.48419 0.541223 0)
(0.378558 0.395911 5.52705e-19)
(0.253616 0.233382 0)
(0.145618 0.0968817 0)
(0.0756522 0.00947716 -1.79651e-19)
(0.0463578 -0.0142959 0)
(0.0267872 0.0101499 1.23231e-19)
(0.231835 0.204774 -1.71257e-19)
(1.01702 0.910299 0)
(1.19039 1.08103 1.22683e-19)
(1.20415 1.11339 0)
(1.15513 1.09244 -1.18977e-20)
(1.08536 1.0555 0)
(1.01007 1.01554 1.06974e-20)
(0.927594 0.971943 3.72778e-20)
(0.837082 0.92212 4.07354e-20)
(0.737905 0.862546 -6.97054e-19)
(0.645164 0.797154 4.24905e-20)
(0.575304 0.733207 4.65041e-19)
(0.520002 0.660131 6.60726e-19)
(0.447005 0.546711 8.89088e-20)
(0.339162 0.38679 4.33607e-19)
(0.220093 0.208822 0)
(0.124786 0.0533623 5.95946e-19)
(0.0680518 -0.0332961 -3.47761e-19)
(0.0417062 0.0414239 4.0488e-19)
(-0.0690792 0.438122 -4.77367e-19)
(0.232011 0.211632 1.42981e-19)
(1.01016 0.934803 2.17044e-19)
(1.17963 1.108 0)
(1.19189 1.14056 4.90839e-21)
(1.14283 1.11914 4.15121e-20)
(1.07314 1.08177 6.45765e-20)
(0.997899 1.04149 7.54426e-20)
(0.91491 0.99781 0)
(0.823279 0.94815 2.70701e-19)
(0.721814 0.889063 -3.64729e-20)
(0.625053 0.824203 0)
(0.549374 0.759455 0)
(0.486336 0.680402 5.93143e-19)
(0.404638 0.551623 -2.74929e-19)
(0.291516 0.377128 -4.40177e-19)
(0.173707 0.181352 0)
(0.0729678 0.0643795 3.00582e-19)
(0.00293852 0.437062 -3.46882e-19)
(0.0326435 1.89432 -1.90142e-19)
(0.0618141 2.81369 -2.43075e-19)
(0.232033 0.217688 -1.08755e-19)
(1.00352 0.95813 -2.81093e-19)
(1.16912 1.1334 7.43328e-20)
(1.17989 1.16617 5.59498e-20)
(1.13087 1.1444 0)
(1.06128 1.1068 3.4029e-20)
(0.986247 1.06644 1.03021e-19)
(0.902695 1.0229 -1.81468e-20)
(0.809985 0.973731 4.0486e-20)
(0.706246 0.915617 6.66395e-19)
(0.605324 0.852027 7.17846e-19)
(0.523225 0.787513 5.23777e-19)
(0.450483 0.702767 5.98101e-19)
(0.358583 0.555011 -6.47975e-19)
(0.240862 0.370663 -6.66172e-19)
(0.117641 0.226436 0)
(0.041722 0.832019 0)
(0.099169 2.55322 1.66224e-19)
(0.100478 3.2033 0)
(0.103851 3.38885 3.9621e-19)
(0.234591 0.223295 0)
(0.997696 0.980486 0)
(1.15861 1.15709 0)
(1.16794 1.19004 1.78612e-20)
(1.1189 1.16799 3.97081e-20)
(1.04956 1.13046 1.19373e-20)
(0.975002 1.09029 6.62989e-20)
(0.89091 1.04712 -1.77614e-20)
(0.797168 0.998729 3.39748e-19)
(0.691239 0.942078 -8.83952e-21)
(0.586142 0.880544 1.42201e-18)
(0.497162 0.817238 -6.05111e-20)
(0.412617 0.728408 7.26672e-20)
(0.311398 0.554583 9.39415e-20)
(0.177473 0.382251 -5.68891e-21)
(0.0965421 0.960888 1.84179e-21)
(0.137632 2.72526 -8.8152e-19)
(0.145537 3.29314 -3.30023e-19)
(0.134994 3.42552 1.70677e-19)
(0.122915 3.44772 -1.90274e-19)
(0.15345 0.180729 6.54848e-20)
(0.986504 1.00461 0)
(1.14773 1.17924 -1.53022e-19)
(1.15655 1.21268 -1.57529e-19)
(1.10782 1.19072 1.09553e-19)
(1.03892 1.15345 -7.20226e-21)
(0.964107 1.11314 -6.8419e-20)
(0.879667 1.0706 1.98794e-19)
(0.785001 1.02332 -2.79061e-19)
(0.677089 0.96863 0)
(0.567934 0.909969 7.00672e-19)
(0.471752 0.848535 -4.29344e-19)
(0.374525 0.760098 0)
(0.257069 0.550847 8.80948e-20)
(0.140321 0.728894 2.10064e-19)
(0.153431 2.49924 -2.43252e-19)
(0.20978 3.32195 2.72619e-19)
(0.190333 3.43748 1.46702e-19)
(0.158564 3.45927 1.64231e-19)
(0.137125 3.46973 2.61605e-19)
(0.277333 0.261023 -1.1859e-19)
(0.97101 1.01418 0)
(1.12947 1.2045 1.6982e-19)
(1.14142 1.24307 1.78091e-19)
(1.09036 1.22371 -1.31103e-19)
(1.02068 1.18681 -1.63376e-20)
(0.944944 1.14814 6.43399e-20)
(0.859981 1.10682 1.56054e-20)
(0.763978 1.06174 2.67829e-19)
(0.653259 1.011 5.80544e-19)
(0.538698 0.958905 3.96689e-20)
(0.431302 0.902359 3.8361e-19)
(0.304291 0.795534 6.86514e-20)
(0.211295 0.908309 -8.6984e-20)
(0.228049 2.34687 -1.96473e-19)
(0.289734 3.32337 1.88215e-19)
(0.27261 3.46539 -2.0782e-19)
(0.237333 3.48774 -1.19643e-19)
(0.200429 3.51577 -1.01306e-19)
(0.148994 3.51029 -1.18019e-20)
(0.265147 0.257865 0)
(0.968517 1.03668 5.13478e-20)
(1.12103 1.2279 -3.57312e-20)
(1.13071 1.26668 -2.20593e-20)
(1.07946 1.24688 -9.50127e-20)
(1.00973 1.21021 2.13999e-20)
(0.933672 1.17167 -3.3427e-20)
(0.848497 1.13117 1.40581e-20)
(0.751947 1.08757 -2.79976e-19)
(0.63989 1.03975 -1.36217e-20)
(0.522414 0.992601 -1.27478e-18)
(0.409666 0.940466 5.48444e-20)
(0.285086 0.860158 -6.48932e-20)
(0.25424 1.47186 -8.06304e-20)
(0.330149 3.0984 1.81912e-20)
(0.349181 3.46229 1.52437e-22)
(0.308908 3.51899 3.03469e-19)
(0.271591 3.54637 1.48486e-19)
(0.222973 3.57027 -3.76122e-20)
(0.16401 3.56666 -5.60019e-20)
(0.248995 0.256373 1.32001e-19)
(0.964435 1.06186 3.52417e-19)
(1.11219 1.2534 -1.02619e-19)
(1.11941 1.2917 -8.30732e-20)
(1.06793 1.27139 0)
(0.998347 1.23478 6.20243e-20)
(0.922268 1.19648 -3.34448e-20)
(0.837162 1.15677 1.23929e-20)
(0.740386 1.11477 -3.12208e-20)
(0.627524 1.07012 -5.29272e-19)
(0.507979 1.0283 -5.90337e-19)
(0.391512 0.979861 -4.49802e-19)
(0.286574 0.989045 -4.9359e-19)
(0.324814 2.19665 5.08203e-19)
(0.418114 3.37132 4.25301e-19)
(0.394128 3.51956 0)
(0.348705 3.56549 0)
(0.310622 3.60708 -2.96177e-20)
(0.25978 3.66771 0)
(0.176758 3.64414 -3.22742e-20)
(0.238367 0.258271 -1.99764e-19)
(0.958428 1.08812 -3.01843e-19)
(1.10191 1.28007 0)
(1.10674 1.31743 5.88506e-21)
(1.05511 1.2965 -1.11206e-19)
(0.985827 1.25983 1.14087e-19)
(0.910069 1.22182 -1.27889e-20)