/*--------------------------------*- C++ -*----------------------------------*\
| =========                 |                                                 |
| \\      /  F ield         | OpenFOAM: The Open Source CFD Toolbox           |
|  \\    /   O peration     | Version:  2112                                  |
|   \\  /    A nd           | Website:  www.openfoam.com                      |
|    \\/     M anipulation  |                                                 |
\*---------------------------------------------------------------------------*/
FoamFile
{
    version     2.0;
    format      ascii;
    arch        "LSB;label=32;scalar=64";
    class       volVectorField;
    location    "0.002";
    object      U;
}
// * * * * * * * * * * * * * * * * * * * * * * * * * * * * * * * * * * * * * //

dimensions      [0 1 -1 0 0 0 0];

internalField   nonuniform List<vector> 
100
(
(5.20183e-12 0 0)
(4.3441e-12 0 0)
(2.64614e-12 0 0)
(2.9656e-12 0 0)
(-9.24835e-13 0 0)
(6.87062e-13 0 0)
(-2.31792e-12 0 0)
(-1.53167e-13 0 0)
(-1.05029e-13 0 0)
(-1.36975e-12 0 0)
(1.54625e-13 0 0)
(-1.49374e-12 0 0)
(-2.60036e-28 0 0)
(-2.91746e-13 0 0)
(0 0 0)
(2.91746e-13 0 0)
(2.61591e-28 0 0)
(0 0 0)
(0 0 0)
(0 0 0)
(0 0 0)
(1.85259e-13 0 0)
(1.8132e-12 0 0)
(1.37019e-11 0 0)
(1.02101e-10 0 0)
(7.57023e-10 0 0)
(5.31606e-09 0 0)
(3.63292e-08 0 0)
(2.33881e-07 0 0)
(1.45663e-06 0 0)
(8.51071e-06 0 0)
(4.77772e-05 0 0)
(0.000250304 0 0)
(0.00124865 0 0)
(0.00577367 0 0)
(0.0251111 0 0)
(0.100244 0 0)
(0.369655 0 0)
(1.22916 0 0)
(3.6459 0 0)
(9.20356 0 0)
(19.678 0 0)
(36.2921 0 0)
(59.0059 0 0)
(86.4544 0 0)
(115.83 0 0)
(146.203 0 0)
(175.68 0 0)
(203.44 0 0)
(228.528 0 0)
(250.187 0 0)
(268.83 0 0)
(284.944 0 0)
(295.611 0 0)
(297.918 0 0)
(295.821 0 0)
(292.462 0 0)
(286.674 0 0)
(279.342 0 0)
(270.41 0 0)
(251.892 0 0)
(188.418 0 0)
(68.7621 0 0)
(10.6677 0 0)
(1.43966 0 0)
(0.179226 0 0)
(0.021838 0 0)
(0.00263534 0 0)
(0.000316512 0 0)
(3.79556e-05 0 0)
(4.54766e-06 0 0)
(5.42888e-07 0 0)
(6.43423e-08 0 0)
(7.52801e-09 0 0)
(8.65841e-10 0 0)
(9.71093e-11 0 0)
(1.05e-11 0 0)
(9.0879e-13 0 0)
(-2.40691e-13 0 0)
(2.91746e-13 0 0)
(2.80186e-28 0 0)
(0 0 0)
(-2.55211e-28 0 0)
(-2.91746e-13 0 0)
(2.91746e-13 0 0)
(2.80186e-28 0 0)
(0 0 0)
(-2.56816e-28 0 0)
(-2.91746e-13 0 0)
(2.91746e-13 0 0)
(2.90288e-13 0 0)
(2.46571e-30 0 0)
(-2.90288e-13 0 0)
(0 0 0)
(0 0 0)
(2.90288e-13 0 0)
(-2.46571e-30 0 0)
(-2.90288e-13 0 0)
(-2.91746e-13 0 0)
(-2.90288e-13 0 0)
)
;

boundaryField
{
    sides
    {
        type            zeroGradient;
    }
    empty
    {
        type            empty;
    }
}


// ************************************************************************* //
