/*--------------------------------*- C++ -*----------------------------------*\
| =========                 |                                                 |
| \\      /  F ield         | OpenFOAM: The Open Source CFD Toolbox           |
|  \\    /   O peration     | Version:  2112                                  |
|   \\  /    A nd           | Website:  www.openfoam.com                      |
|    \\/     M anipulation  |                                                 |
\*---------------------------------------------------------------------------*/
FoamFile
{
    version     2.0;
    format      ascii;
    arch        "LSB;label=32;scalar=64";
    class       volScalarField;
    location    "5";
    object      T;
}
// * * * * * * * * * * * * * * * * * * * * * * * * * * * * * * * * * * * * * //

dimensions      [0 0 0 1 0 0 0];

internalField   nonuniform List<scalar> 
1000
(
0
0
0
0
0
0
0
0
0
0
0
0
0
0
0
0
0
0
9.88131e-324
-3.80431e-322
9.77756e-321
-2.50556e-319
6.30822e-318
-1.56089e-316
3.79651e-315
-9.07843e-314
2.13463e-312
-4.93613e-311
1.12271e-309
-2.51205e-308
5.53006e-307
-1.19793e-305
2.55383e-304
-5.35878e-303
1.1069e-301
-2.25097e-300
4.50715e-299
-8.88702e-298
1.72575e-296
-3.30077e-295
6.2189e-294
-1.15429e-292
2.11088e-291
-3.80363e-290
6.75401e-289
-1.18193e-287
2.03856e-286
-3.46575e-285
5.80827e-284
-9.59632e-283
1.56317e-281
-2.51062e-280
3.97614e-279
-6.20981e-278
9.56443e-277
-1.45289e-275
2.17683e-274
-3.21708e-273
4.68996e-272
-6.74485e-271
9.56957e-270
-1.33953e-268
1.85001e-267
-2.52104e-266
3.38989e-265
-4.49793e-264
5.88951e-263
-7.6103e-262
9.70503e-261
-1.22146e-259
1.51728e-258
-1.86023e-257
2.25112e-256
-2.68889e-255
3.1703e-254
-3.68969e-253
4.23891e-252
-4.80729e-251
5.38192e-250
-5.94801e-249
6.48949e-248
-6.9897e-247
7.43227e-246
-7.80193e-245
8.08544e-244
-8.27234e-243
8.3556e-242
-8.33203e-241
8.20254e-240
-7.97201e-239
7.64903e-238
-7.24538e-237
6.77528e-236
-6.25459e-235
5.69993e-234
-5.1278e-233
4.55381e-232
-3.992e-231
3.45435e-230
-2.95046e-229
2.48741e-228
-2.06978e-227
1.69983e-226
-1.37774e-225
1.10204e-224
-8.69898e-224
6.7758e-223
-5.20774e-222
3.94919e-221
-2.95467e-220
2.18082e-219
-1.58785e-218
1.14037e-217
-8.07769e-217
5.64282e-216
-3.88714e-215
2.64024e-214
-1.76803e-213
1.16711e-212
-7.59385e-212
4.8694e-211
-3.07673e-210
1.9153e-209
-1.17448e-208
7.09307e-208
-4.21813e-207
2.46951e-206
-1.42301e-205
8.06875e-205
-4.50079e-204
2.46905e-203
-1.33165e-202
7.05865e-202
-3.67585e-201
1.87982e-200
-9.43609e-200
4.64689e-199
-2.24375e-198
1.06155e-197
-4.91738e-197
2.22836e-196
-9.86871e-196
4.2663e-195
-1.79786e-194
7.37295e-194
-2.93637e-193
1.13273e-192
-4.21804e-192
1.50929e-191
-5.15574e-191
1.66503e-190
-5.00247e-190
1.35684e-189
-3.09913e-189
4.63638e-189
4.83499e-189
-8.01533e-188
4.39741e-187
-1.81701e-186
6.27916e-186
-1.83249e-185
4.26029e-185
-5.88249e-185
-1.00011e-184
1.18578e-183
-5.7658e-183
2.06385e-182
-5.76763e-182
1.13661e-181
-5.02126e-182
-8.59052e-181
5.17431e-180
-1.94459e-179
5.32727e-179
-9.28655e-179
-2.84709e-179
1.04477e-177
-5.13042e-177
1.63391e-176
-3.43876e-176
1.91489e-176
2.27086e-175
-1.30445e-174
4.30285e-174
-8.92334e-174
3.59842e-174
6.42769e-173
-3.38067e-172
1.01161e-171
-1.68611e-171
-1.23629e-171
2.06729e-170
-8.31905e-170
1.93652e-169
-1.38643e-169
-1.07089e-168
5.91366e-168
-1.65761e-167
2.10229e-167
5.11719e-167
-3.95988e-166
1.23801e-165
-1.85149e-165
-2.66586e-165
2.63438e-164
-8.53133e-164
1.27993e-163
1.85504e-163
-1.77898e-162
5.50199e-162
-7.1387e-162
-1.64996e-161
1.20282e-160
-3.26561e-160
2.81248e-160
1.51583e-159
-7.81904e-159
1.69332e-158
-1.12019e-159
-1.26478e-157
4.61404e-157
-6.72167e-157
-1.13986e-156
9.05621e-156
-2.27349e-155
1.01196e-155
1.34993e-154
-5.29589e-154
7.716e-154
1.33605e-153
-1.00202e-152
2.28516e-152
-1.08641e-153
-1.61163e-151
5.17835e-151
-4.7411e-151
-2.20431e-150
1.01432e-149
-1.54603e-149
-2.42566e-149
1.80517e-148
-3.68158e-148
-1.6251e-148
3.0052e-147
-7.57876e-147
1.24851e-147
4.78393e-146
-1.43026e-145
7.73404e-146
7.42851e-145
-2.54788e-144
1.98592e-144
1.14728e-143
-4.35761e-143
3.98959e-143
1.79377e-142
-7.22632e-142
6.95423e-142
2.87407e-141
-1.1674e-140
1.07941e-140
4.73238e-140
-1.83745e-139
1.47622e-139
7.94807e-139
-2.80594e-138
1.67248e-138
1.34172e-137
-4.12113e-137
1.20403e-137
2.23719e-136
-5.73813e-136
-7.86024e-137
3.6212e-135
-7.39699e-135
-5.66669e-135
5.59499e-134
-8.44537e-134
-1.52887e-133
8.10357e-133
-7.64823e-133
-3.15831e-132
1.07459e-131
-3.10861e-132
-5.55128e-131
1.25462e-130
7.46951e-131
-8.52126e-130
1.18058e-129
2.58799e-129
-1.13603e-128
6.26776e-129
5.16908e-128
-1.26638e-127
-6.11357e-128
7.99761e-127
-1.04428e-126
-2.56335e-126
9.96375e-126
-2.79074e-126
-4.88353e-125
9.43989e-125
1.07829e-124
-6.71539e-124
4.87007e-124
2.77133e-123
-6.80421e-123
-4.11591e-123
4.14864e-122
-4.01924e-122
-1.54748e-121
4.29862e-121
1.76255e-121
-2.43511e-120
2.50021e-120
8.84654e-120
-2.45854e-119
-1.12986e-119
1.37539e-118
-1.23722e-118
-5.2062e-118
1.27265e-117
9.55058e-118
-7.40501e-117
4.41205e-117
3.05834e-116
-5.77317e-116
-7.93447e-116
3.6859e-115
-4.21804e-116
-1.70528e-114
2.0927e-114
5.75669e-114
-1.60432e-113
-9.90702e-114
8.51948e-113
-4.18249e-113
-3.51805e-112
5.44699e-112
1.07926e-111
-3.53834e-111
-1.5422e-111
1.75127e-110
-9.20703e-111
-7.05361e-110
1.04389e-109
2.23623e-109
-6.58301e-109
-4.33058e-109
3.27193e-108
-7.76893e-109
-1.37305e-107
1.42622e-107
4.87136e-107
-9.90311e-107
-1.36447e-106
5.26642e-106
2.06173e-106
-2.39663e-105
7.80503e-106
9.63909e-105
-9.7015e-105
-3.42851e-104
6.25342e-104
1.04375e-103
-3.24064e-103
-2.40088e-103
1.47971e-102
1.47436e-103
-6.15551e-102
2.73374e-102
2.36369e-101
-2.32858e-101
-8.39195e-101
1.34921e-100
2.72773e-100
-6.66284e-100
-7.87553e-100
2.99166e-99
1.84727e-99
-1.25616e-98
-2.2463e-99
5.00649e-98
-9.95354e-99
-1.91087e-97
1.05229e-97
7.02407e-97
-6.32445e-97
-2.49583e-96
3.16332e-96
8.59324e-96
-1.43626e-95
-2.87107e-95
6.13015e-95
9.3149e-95
-2.50426e-94
-2.93481e-94
9.89796e-94
8.97495e-94
-3.81223e-93
-2.66164e-93
1.43811e-92
7.64787e-93
-5.33385e-92
-2.12918e-92
1.95073e-91
5.76178e-92
-7.05093e-91
-1.53303e-91
2.52316e-90
4.12938e-91
-8.95026e-90
-1.19138e-90
3.14973e-89
3.94394e-90
-1.10008e-88
-1.53596e-89
3.813e-88
6.71515e-89
-1.31098e-87
-3.07564e-88
4.46709e-87
1.40837e-87
-1.50648e-86
-6.3086e-87
5.01898e-86
2.74293e-86
-1.64795e-85
-1.15569e-85
5.31626e-85
4.72112e-85
-1.6782e-84
-1.87187e-84
5.15547e-84
7.20957e-84
-1.5292e-83
-2.69855e-83
4.32647e-83
9.81471e-83
-1.14315e-82
-3.46577e-82
2.7012e-82
1.18633e-81
-5.06485e-82
-3.92626e-81
3.52293e-82
1.25139e-80
3.1304e-81
-3.81765e-80
-2.34792e-80
1.10402e-79
1.14736e-79
-2.97642e-79
-4.72824e-79
7.24147e-79
1.75376e-78
-1.46852e-78
-5.99258e-78
1.79645e-78
1.89943e-77
3.39695e-78
-5.56526e-77
-3.71335e-77
1.48456e-76
1.85554e-76
-3.47205e-76
-7.32054e-76
6.39615e-76
2.50645e-75
-5.06232e-76
-7.63836e-75
-2.85405e-75
2.06387e-74
2.03942e-74
-4.77269e-74
-8.78117e-74
8.37839e-74
3.04613e-73
-4.79345e-74
-9.01504e-73
-4.4857e-73
2.26727e-72
2.78365e-72
-4.52659e-72
-1.09447e-71
5.13055e-72
3.4276e-71
1.00376e-71
-8.82958e-71
-9.22323e-71
1.76695e-70
3.86731e-70
-1.95129e-70
-1.21193e-69
-4.00703e-70
3.00022e-69
3.46e-69
-5.39731e-69
-1.37334e-68
3.4073e-69
3.98455e-68
2.39719e-68
-8.676e-68
-1.37759e-67
1.13495e-67
4.64883e-67
1.04816e-67
-1.13855e-66
-1.29041e-66
1.83983e-66
5.05902e-66
-1.92807e-67
-1.34035e-65
-1.19821e-65
2.36049e-65
5.34616e-65
-9.98607e-66
-1.4765e-64
-1.17824e-64
2.6382e-64
5.6269e-64
-1.13819e-64
-1.54937e-63
-1.27899e-63
2.62744e-63
5.9404e-63
-4.81137e-64
-1.54729e-62
-1.50698e-62
2.28373e-62
6.21005e-62
9.78515e-63
-1.44092e-61
-1.81582e-61
1.57713e-61
6.23843e-61
3.061e-61
-1.19299e-60
-2.10063e-60
5.35098e-61
5.75296e-60
5.32846e-60
-7.82957e-60
-2.21034e-59
-7.00534e-60
4.52124e-59
7.07896e-59
-2.41098e-59
-1.99377e-58
-1.84186e-58
2.52631e-58
7.50864e-58
3.25774e-58
-1.38262e-57
-2.50459e-57
1.25886e-58
6.08786e-57
7.45748e-57
-4.79951e-57
-2.37343e-56
-1.94854e-56
3.02466e-56
8.52372e-56
4.16933e-56
-1.43459e-55
-2.88181e-55
-5.28777e-56
5.96944e-55
9.30799e-55
-1.11868e-55
-2.29977e-54
-2.90663e-54
1.26546e-54
8.42792e-54
8.8782e-54
-6.80172e-54
-2.98675e-53
-2.68711e-53
2.96435e-53
1.03511e-52
8.18133e-53
-1.15999e-52
-3.53602e-52
-2.54754e-52
4.22936e-52
1.19701e-51
8.23512e-52
-1.45931e-51
-4.02734e-51
-2.78739e-51
4.78737e-51
1.34759e-50
9.86529e-51
-1.48743e-50
-4.47694e-50
-3.61252e-50
4.3136e-50
1.47075e-49
1.34766e-49
-1.12717e-49
-4.74701e-49
-5.04106e-49
2.40972e-49
1.49126e-48
1.8645e-48
-2.60471e-49
-4.49784e-48
-6.73755e-48
-1.17888e-48
1.27475e-47
2.35253e-47
1.1129e-47
-3.26299e-47
-7.8429e-47
-6.03292e-47
6.85399e-47
2.45792e-46
2.6739e-46
-7.65579e-47
-7.0654e-46
-1.04294e-45
-2.70118e-46
1.77534e-45
3.64861e-45
2.52378e-45
-3.42082e-45
-1.13798e-44
-1.26468e-44
2.04589e-45
3.06059e-44
4.99016e-44
2.35821e-44
-6.41187e-44
-1.65044e-43
-1.60492e-43
6.08883e-44
4.5075e-43
6.89765e-43
3.02459e-43
-9.06867e-43
-2.30395e-42
-2.3254e-42
5.70188e-43
5.96463e-42
9.88892e-42
5.87795e-42
-9.82593e-42
-3.08217e-41
-3.73922e-41
-5.87433e-42
6.74122e-41
1.4053e-40
1.2665e-40
-5.23066e-41
-3.6581e-40
-5.94806e-40
-3.83084e-40
5.02214e-40
1.77685e-39
2.41356e-39
1.00684e-39
-3.06446e-39
-8.12701e-39
-9.63768e-39
-2.12294e-39
1.58689e-38
3.59936e-38
3.87853e-38
2.71841e-39
-7.52111e-38
-1.57009e-37
-1.60569e-37
1.18993e-39
3.35823e-37
6.80952e-37
6.92828e-37
5.37482e-39
-1.42544e-36
-2.94391e-36
-3.11995e-36
-3.56275e-37
5.72109e-36
1.26351e-35
1.45069e-35
4.19042e-36
-2.12179e-35
-5.32534e-35
-6.83476e-35
-3.43355e-35
6.84791e-35
2.16309e-34
3.19037e-34
2.34275e-34
-1.57263e-34
-8.20684e-34
-1.44003e-33
-1.41097e-33
-7.8979e-35
2.73804e-33
6.1075e-33
7.64924e-33
4.10234e-33
-6.78875e-33
-2.33324e-32
-3.72851e-32
-3.40682e-32
1.56488e-33
7.36048e-32
1.6003e-31
2.04251e-31
1.25745e-31
-1.3951e-31
-5.71023e-31
-9.94013e-31
-1.06025e-30
-3.44461e-31
1.40297e-30
3.88427e-30
5.92634e-30
5.48562e-30
3.11817e-31
-1.05686e-29
-2.48274e-29
-3.52082e-29
-2.98712e-29
3.5909e-30
6.97056e-29
1.53849e-28
2.13293e-28
1.79119e-28
-2.16047e-29
-4.18657e-28
-9.3409e-28
-1.32694e-27
-1.19361e-27
-7.8642e-29
2.26889e-27
5.51889e-27
8.39171e-27
8.54494e-27
3.04036e-27
-1.03364e-26
-3.09023e-26
-5.25789e-26
-6.2317e-26
-4.1329e-26
2.88622e-26
1.54522e-25
3.13417e-25
4.3966e-25
4.1985e-25
1.13955e-25
-5.87041e-25
-1.66426e-24
-2.85245e-24
-3.5469e-24
-2.81394e-24
3.98932e-25
6.7751e-24
1.58623e-23
2.51775e-23
2.955e-23
2.12929e-23
-8.07196e-24
-6.39342e-23
-1.42506e-22
-2.23564e-22
-2.64674e-22
-2.01362e-22
4.10231e-23
5.18284e-22
1.21905e-21
2.00243e-21
2.53892e-21
2.28702e-21
5.5205e-22
-3.32039e-21
-9.57731e-21
-1.75219e-20
-2.48956e-20
-2.7388e-20
-1.86295e-20
8.85617e-21
6.12299e-20
1.391e-19
2.31585e-19
3.09653e-19
3.20962e-19
1.89933e-19
-1.71821e-19
-8.39018e-19
-1.82565e-18
-3.01693e-18
-4.08809e-18
-4.43055e-18
-3.12316e-18
9.95693e-19
9.08477e-18
2.1814e-17
3.85889e-17
5.65039e-17
6.91618e-17
6.56806e-17
3.04491e-17
-5.55438e-17
-2.10749e-16
-4.45339e-16
-7.48851e-16
-1.07307e-15
-1.31157e-15
-1.27994e-15
-7.04035e-16
7.71528e-16
3.5378e-15
7.91788e-15
1.39827e-14
2.12679e-14
2.83878e-14
3.25691e-14
2.91748e-14
1.136e-14
-2.99052e-14
-1.05092e-13
-2.24167e-13
-3.92852e-13
-6.06449e-13
-8.40639e-13
-1.03898e-12
-1.09746e-12
-8.47531e-13
-4.09565e-14
1.65761e-12
4.66077e-12
9.41695e-12
1.63175e-11
2.55263e-11
3.67e-11
4.85632e-11
5.83038e-11
6.07602e-11
4.73992e-11
5.11992e-12
-8.49984e-11
-2.48772e-10
-5.19393e-10
-9.36622e-10
-1.54364e-09
-2.37993e-09
-3.46792e-09
-4.79009e-09
-6.25207e-09
-7.6257e-09
-8.46389e-09
-7.97693e-09
-4.85658e-09
2.96916e-09
1.8672e-08
4.6977e-08
9.47653e-08
1.71867e-07
2.92089e-07
4.74534e-07
7.45275e-07
1.13946e-06
1.70393e-06
2.50045e-06
3.60967e-06
5.13586e-06
7.21275e-06
1.00103e-05
1.37427e-05
1.86783e-05
2.51501e-05
3.35689e-05
4.44379e-05
5.83692e-05
7.61029e-05
9.85279e-05
0.000126706
0.000161897
0.000205587
0.000259521
0.000325734
0.000406589
0.000504811
0.00062353
0.000766322
0.000937249
0.0011409
0.00138245
0.00166768
0.00200303
0.00239563
0.00285337
0.00338488
0.0039996
0.00470781
0.0055206
0.00644992
0.00750858
0.00871022
0.0100693
0.0116011
0.0133217
0.0152478
0.0173968
0.0197867
0.0224359
0.0253633
0.0285879
0.0321291
0.0360061
0.0402381
0.0448441
0.0498424
0.0552509
0.0610868
0.0673662
0.0741041
0.0813145
0.0890096
0.0972002
0.105895
0.115102
0.124826
0.135069
0.145833
0.157116
0.168914
0.18122
0.194026
0.207321
0.22109
0.235318
0.249986
0.265073
0.280557
0.296411
0.31261
0.329125
0.345925
0.362979
0.380253
0.397715
0.415328
0.433058
0.450869
0.468725
0.48659
0.504428
0.522205
0.539886
0.557438
0.574827
0.592023
0.608995
0.625715
0.642156
0.658293
0.674102
0.689563
0.704655
0.71936
0.733665
0.747554
0.761016
0.774042
0.786624
0.798756
0.810435
0.821658
0.832424
0.842735
0.852593
0.862002
0.870967
0.879495
0.887591
0.895265
0.902524
0.909379
0.915839
0.921913
0.927612
0.932946
0.937926
0.94256
0.946859
0.950831
0.954485
0.957828
0.960869
0.963611
0.966061
0.968224
0.970096
0.971702
0.972975
0.974076
0.974797
)
;

boundaryField
{
    sides
    {
        type            zeroGradient;
    }
    empty
    {
        type            empty;
    }
}


// ************************************************************************* //
