/*--------------------------------*- C++ -*----------------------------------*\
| =========                 |                                                 |
| \\      /  F ield         | OpenFOAM: The Open Source CFD Toolbox           |
|  \\    /   O peration     | Version:  2112                                  |
|   \\  /    A nd           | Website:  www.openfoam.com                      |
|    \\/     M anipulation  |                                                 |
\*---------------------------------------------------------------------------*/
FoamFile
{
    version     2.0;
    format      ascii;
    arch        "LSB;label=32;scalar=64";
    class       volScalarField;
    location    "44";
    object      p;
}
// * * * * * * * * * * * * * * * * * * * * * * * * * * * * * * * * * * * * * //

dimensions      [0 2 -2 0 0 0 0];

internalField   nonuniform List<scalar> 
400
(
1.4702499e-09
-0.00067287442
-0.0013853523
-0.0019427104
-0.0022200036
-0.0021565002
-0.0017277956
-0.00092620501
0.00023541516
0.0017073992
0.0033872786
0.0051121869
0.0066734678
0.0078490929
0.0084583828
0.0084236821
0.0078133994
0.0068445219
0.005861303
0.005298947
0.00065784026
-4.0526997e-05
-0.00056966083
-0.00094062667
-0.0011108644
-0.0010399221
-0.00070579137
-9.5546453e-05
0.00078909649
0.0019161818
0.0032095793
0.0045546967
0.0057819548
0.0067162502
0.0072144206
0.0072145275
0.0067699533
0.0060527661
0.0053105254
0.0047384856
0.0014236976
0.00044064815
-0.00011660171
-0.00045324494
-0.00061481023
-0.00058481289
-0.00034658195
0.00011974073
0.00082845574
0.0017699013
0.0028942857
0.0040981586
0.005228233
0.0061109654
0.0065938602
0.0065976544
0.0061557256
0.0054214986
0.0045937373
0.0037482287
0.0020141922
0.00068168239
1.6766314e-05
-0.00035885606
-0.00057155231
-0.00062656311
-0.00051008651
-0.000190635
0.00036849697
0.00118438
0.0022299069
0.0034174208
0.0045913589
0.0055569324
0.0061235444
0.0061665496
0.0056836076
0.004817038
0.0037472833
0.0024735918
0.0021672628
0.00049611171
-0.00029626453
-0.00074871012
-0.0010582579
-0.0012452758
-0.0012927553
-0.0011513097
-0.00075505898
-5.3110368e-05
0.00095701391
0.0022102731
0.0035447016
0.0047326575
0.0055218376
0.0057098754
0.0052292749
0.0042015926
0.0028061744
0.00098395257
0.0016539538
-0.00031448675
-0.0012387948
-0.0017993076
-0.0022526682
-0.0026279162
-0.0028986297
-0.0029910933
-0.00280255
-0.0022376922
-0.0012511119
0.00013087755
0.001744636
0.0033271044
0.004541639
0.00506577
0.0047174824
0.0035661849
0.0017895812
-0.0007259334
0.00028701609
-0.0019195788
-0.0029730066
-0.0036713901
-0.0043203035
-0.0049532071
-0.0055301281
-0.0059479641
-0.0060590174
-0.0057073979
-0.0047757342
-0.0032587153
-0.0012665268
0.00090716505
0.0028231171
0.0039868251
0.00402508
0.0028876927
0.00071536465
-0.0026805141
-0.0020764388
-0.0044512007
-0.0056268125
-0.0064923312
-0.0073929283
-0.0083657694
-0.0093569263
-0.010231789
-0.010790981
-0.010804858
-0.010063381
-0.008461784
-0.0060407901
-0.0030832372
-0.00012632352
0.0021126071
0.0029638101
0.0021355644
-0.00036605024
-0.004872626
-0.0055241772
-0.0079921238
-0.0092779301
-0.010333799
-0.011538009
-0.012935426
-0.014462715
-0.015956324
-0.017162473
-0.017766049
-0.017438103
-0.015919499
-0.013122984
-0.0092517821
-0.0048990281
-0.0010300347
0.0012693911
0.0012777455
-0.0013339752
-0.0072016943
-0.010076923
-0.012565107
-0.013936676
-0.015184015
-0.016718394
-0.01860264
-0.020774215
-0.023048776
-0.025121697
-0.026586367
-0.026969372
-0.025812969
-0.022845704
-0.018074473
-0.012051113
-0.0059519738
-0.0013707591
0.00030057495
-0.0019472208
-0.0093822425
-0.015684998
-0.018132426
-0.019537569
-0.020926822
-0.022757756
-0.025129899
-0.027997035
-0.031166429
-0.034291489
-0.036876868
-0.038294198
-0.037844309
-0.035065885
-0.029601496
-0.021822521
-0.012985598
-0.0051849963
-0.00071577009
-0.0017642177
-0.010792273
-0.022243613
-0.02461305
-0.025945606
-0.027334973
-0.02932418
-0.032079251
-0.035588975
-0.03966469
-0.043927307
-0.047801329
-0.050530214
-0.05123651
-0.048956909
-0.043143577
-0.033769042
-0.021926366
-0.010036904
-0.0014154637
-9.8853849e-06
-0.010225637
-0.029641237
-0.031923911
-0.032978757
-0.034079884
-0.035939531
-0.038831536
-0.042795641
-0.047651625
-0.052990577
-0.058163624
-0.062284278
-0.064265562
-0.062875189
-0.057112216
-0.046476769
-0.031649111
-0.015037883
-0.00086440889
0.0046467458
-0.0055215544
-0.037866034
-0.040048537
-0.040440149
-0.040752527
-0.042015069
-0.044653088
-0.048758215
-0.054144089
-0.06035607
-0.066665385
-0.072060723
-0.075268314
-0.074811392
-0.069269295
-0.057628333
-0.039961532
-0.018247992
0.0027890206
0.014445141
0.0069075325
-0.047230621
-0.049134392
-0.048140601
-0.046882304
-0.046905516
-0.048798717
-0.052668317
-0.058276041
-0.065076131
-0.072232028
-0.078595801
-0.082712352
-0.082880239
-0.077309418
-0.064523963
-0.043934977
-0.016748007
0.012502932
0.03293877
0.03240894
-0.058896822
-0.059639917
-0.055883948
-0.05194107
-0.049972327
-0.050629895
-0.053928677
-0.059495374
-0.066611891
-0.074285326
-0.081191198
-0.085679435
-0.085831827
-0.079522221
-0.064876124
-0.040689288
-0.0072409372
0.032139358
0.064981439
0.07774917
-0.076226545
-0.072613757
-0.06351622
-0.055435413
-0.050725038
-0.049781612
-0.052312363
-0.057664395
-0.064891852
-0.072775002
-0.079779397
-0.084036778
-0.083391685
-0.075348989
-0.057602698
-0.02837516
0.012933313
0.065396464
0.1155515
0.15150622
-0.10809227
-0.089556364
-0.071233871
-0.057233048
-0.049072165
-0.046330241
-0.048077289
-0.053202634
-0.060434653
-0.068295896
-0.075027425
-0.078526946
-0.076389038
-0.065809704
-0.043865505
-0.0078184684
0.044393654
0.11299814
0.18838042
0.27186076
-0.17684558
-0.10828972
-0.076202504
-0.054651266
-0.04299241
-0.038998059
-0.040570539
-0.045928073
-0.053441568
-0.06143839
-0.068027617
-0.07096259
-0.067551164
-0.054739864
-0.02914884
0.01356358
0.078146942
0.17006435
0.28949545
0.47421821
-0.37208361
-0.12470855
-0.054973108
-0.031962544
-0.022063583
-0.02030055
-0.024359486
-0.03195803
-0.041261591
-0.050640918
-0.058316933
-0.062187496
-0.059782586
-0.04805684
-0.022658555
0.021474186
0.092818704
0.21015276
0.40288841
0.77640928
)
;

boundaryField
{
    movingWall
    {
        type            zeroGradient;
    }
    fixedWalls
    {
        type            zeroGradient;
    }
    frontAndBack
    {
        type            empty;
    }
}


// ************************************************************************* //
