/*--------------------------------*- C++ -*----------------------------------*\
| =========                 |                                                 |
| \\      /  F ield         | OpenFOAM: The Open Source CFD Toolbox           |
|  \\    /   O peration     | Version:  2112                                  |
|   \\  /    A nd           | Website:  www.openfoam.com                      |
|    \\/     M anipulation  |                                                 |
\*---------------------------------------------------------------------------*/
FoamFile
{
    version     2.0;
    format      ascii;
    arch        "LSB;label=32;scalar=64";
    class       surfaceScalarField;
    location    "44";
    object      phi;
}
// * * * * * * * * * * * * * * * * * * * * * * * * * * * * * * * * * * * * * //

dimensions      [0 3 -1 0 0 0 0];

oriented        oriented;

internalField   nonuniform List<scalar> 
760
(
1.2703169e-05
-1.2703186e-05
-2.8723017e-05
4.1426186e-05
-0.00012229196
9.3568942e-05
-0.00025039691
0.00012810495
-0.00039607664
0.00014567973
-0.0005453938
0.00014931717
-0.00068627532
0.00014088152
-0.00080689676
0.00012062144
-0.00089495767
8.8060909e-05
-0.00093839591
4.3438246e-05
-0.00092727946
-1.1116467e-05
-0.00085686601
-7.0413467e-05
-0.00073043215
-0.00012643389
-0.00056134341
-0.00016908876
-0.00037276106
-0.00018858235
-0.00019447417
-0.00017828688
-5.6521831e-05
-0.00013795229
1.9614574e-05
-7.6136353e-05
3.0411376e-05
-1.0796781e-05
3.0411378e-05
-4.3182781e-05
3.0479595e-05
-0.00020456657
0.00020280997
-0.00046832586
0.00035732823
-0.00080071022
0.00046048931
-0.0011673542
0.0005123237
-0.0015364544
0.00051841734
-0.0018782335
0.0004826607
-0.0021636888
0.0004060767
-0.0023645513
0.00028892334
-0.0024553581
0.0001342451
-0.0024181507
-4.8323919e-05
-0.0022453653
-0.00024319883
-0.001947562
-0.00042423718
-0.001554473
-0.00056217783
-0.0011143234
-0.00062873184
-0.00068747564
-0.00060513462
-0.00033452577
-0.00049090212
-0.00010089666
-0.00030976548
-1.5518747e-06
-0.00011014158
2.8859496e-05
-0.00011002745
0.00014050704
-0.00040303342
0.00049581594
-0.00083139247
0.00078568729
-0.0013456245
0.00097472135
-0.0018986088
0.001065308
-0.0024465936
0.0010664021
-0.0029480473
0.00098411439
-0.0033626349
0.00082066429
-0.0036519072
0.00057819572
-0.0037823337
0.0002646716
-0.0037298381
-0.00010081951
-0.0034858241
-0.00048721279
-0.003063283
-0.00084677833
-0.002499999
-0.0011254618
-0.0018582376
-0.0012704933
-0.0012181457
-0.0012452265
-0.00066373725
-0.0010453107
-0.00026308978
-0.00071041301
-4.795634e-05
-0.00032527504
-1.9096823e-05
-0.00017344051
0.00031394756
-0.00059329587
0.0009156713
-0.0011777026
0.001370094
-0.0018583817
0.0016554005
-0.0025769248
0.001783851
-0.0032813276
0.001770805
-0.0039228156
0.0016256024
-0.0044541592
0.0013520079
-0.0048302823
0.00095431886
-0.0050112548
0.0004456441
-0.0049672713
-0.00014480302
-0.0046844459
-0.00077003818
-0.0041723586
-0.0013588656
-0.003469133
-0.0018286874
-0.0026440133
-0.0020956131
-0.001793203
-0.0020960369
-0.0010258516
-0.0018126622
-0.00044021531
-0.0012960493
-9.6723931e-05
-0.0006687664
-0.00011582073
-0.0002297969
0.00054374446
-0.00076507935
0.0014509537
-0.0014914945
0.0020965091
-0.0023225616
0.0024864676
-0.0031901593
0.0026514488
-0.0040368453
0.0026174909
-0.0048100625
0.0023988196
-0.0054589922
0.0020009376
-0.0059342094
0.0014295361
-0.0061898396
0.00070127433
-0.0061884189
-0.00014622376
-0.0059055877
-0.0010528694
-0.0053404226
-0.0019240307
-0.0045231203
-0.0026459896
-0.0035229795
-0.0030957538
-0.0024498067
-0.0031692097
-0.0014425404
-0.0028199285
-0.00064123166
-0.002097358
-0.00014883699
-0.0011611611
-0.00026465771
-0.00027729944
0.0008210439
-0.00091155226
0.0020852066
-0.0017607402
0.0029456971
-0.0027228235
0.0034485508
-0.0037222306
0.003650856
-0.0046987178
0.0035939782
-0.0055989172
0.0032990189
-0.0063712187
0.0027732391
-0.0069637566
0.0020220739
-0.0073248639
0.0010623816
-0.0074074851
-6.3602592e-05
-0.007171715
-0.0012886394
-0.0065989027
-0.002496843
-0.0057016891
-0.0035432032
-0.0045400247
-0.0042574182
-0.0032318454
-0.0044773889
-0.0019490222
-0.0041027517
-0.00088728822
-0.0031590921
-0.00021159433
-0.0018368549
-0.00047625204
-0.00031411698
0.0011351609
-0.0010263422
0.0027974318
-0.0019735138
0.0038928686
-0.0030417629
0.0045168
-0.004150728
0.0047598211
-0.0052399573
0.0046832075
-0.0062580884
0.0043171499
-0.0071555417
0.0036706924
-0.0078803837
0.0027469159
-0.0083768583
0.0015588561
-0.0085854044
0.00014494351
-0.0084513331
-0.0014227107
-0.0079295105
-0.0030186656
-0.0070049723
-0.0044677414
-0.0057150497
-0.0055473408
-0.0041735848
-0.0060188537
-0.0025818464
-0.0056944901
-0.0012041054
-0.0045368331
-0.00029450419
-0.0027464562
-0.00077075623
-0.00033824894
0.0014734098
-0.0011031704
0.0035623533
-0.0021176364
0.0049073346
-0.0032598928
0.0056590564
-0.0044474109
0.0059473391
-0.0056219661
0.0058577627
-0.0067369531
0.005432137
-0.0077479708
0.0046817102
-0.008606378
0.0036053231
-0.0092552538
0.002207732
-0.0096270171
0.00051670678
-0.0096492082
-0.0014005197
-0.0092489827
-0.0034188911
-0.0083739453
-0.0053427788
-0.0070220745
-0.0068992116
-0.0052818154
-0.0077591129
-0.0033676679
-0.0076086375
-0.0016173639
-0.0062871371
-0.00040826909
-0.003955551
-0.0011790253
-0.00034815636
0.0018215662
-0.0011372156
0.0043514125
-0.0021827895
0.0059529085
-0.0033586213
0.0068348882
-0.0045822442
0.007170962
-0.005799824
0.0070753425
-0.0069721965
0.0066045095
-0.0080636696
0.0057731834
-0.009033443
0.0045750966
-0.0098289949
0.0030032838
-0.010381276
0.0010689874
-0.010604527
-0.0011772685
-0.010400779
-0.0036226391
-0.0096748969
-0.0060686608
-0.0083686765
-0.008205432
-0.006515687
-0.0096121024
-0.0043098859
-0.0098144385
-0.0021483241
-0.008448699
-0.00056492554
-0.0055389496
-0.0017439508
-0.0003439349
0.0021655011
-0.00112786
0.0051353376
-0.0021647105
0.006989759
-0.003325903
0.0079960808
-0.0045308038
0.0083758627
-0.0057319457
0.0082764844
-0.0069002228
0.0077727866
-0.0080123826
0.0068853433
-0.009040827
0.005603541
-0.0099449676
0.0039074244
-0.010663395
0.0017874151
-0.011106746
-0.00073391767
-0.011163421
-0.0035659644
-0.010697129
-0.006534953
-0.0095826001
-0.0093199604
-0.0077667782
-0.011427924
-0.0053715022
-0.012209715
-0.0028071794
-0.011013022
-0.0007783692
-0.0075677598
-0.0025223201
-0.00032890792
0.002494409
-0.0010824215
0.0058888511
-0.0020707773
0.0079781148
-0.0031636132
0.0090889167
-0.0042839023
0.0094961519
-0.0053928539
0.0093854359
-0.0064741409
0.0088540735
-0.0075205485
0.0079317508
-0.0085229182
0.0066059108
-0.0094603447
0.004844851
-0.010291332
0.0026184024
-0.010933227
-9.202267e-05
-0.011283212
-0.0032159793
-0.011173633
-0.0066445316
-0.010415714
-0.01007788
-0.0088467368
-0.012996902
-0.0064557546
-0.014600697
-0.0035815275
-0.013887249
-0.0010642231
-0.010085064
-0.0035865431
-0.00031178407
0.0028061931
-0.0010206788
0.0065977458
-0.0019260998
0.0088835358
-0.0028949488
0.010057766
-0.0038568827
0.010458086
-0.0047855633
0.010314117
-0.0056807662
0.0097492764
-0.0065544554
0.00880544
-0.007419889
0.0074713443
-0.0082818244
0.0057067865
-0.0091251548
0.0034617328
-0.0099086389
0.00069146144
-0.010527256
-0.0025973624
-0.010827013
-0.0063447743
-0.010573628
-0.010331265
-0.0094932085
-0.014077321
-0.0073911391
-0.016702766
-0.0044189149
-0.016859473
-0.0014372118
-0.013066767
-0.0050237549
-0.0003100426
0.0031162357
-0.00098036416
0.0072680674
-0.0017790478
0.0096822195
-0.0025693647
0.010848083
-0.0032945944
0.011183315
-0.0039478951
0.010967417
-0.0045499685
0.01035135
-0.0051347836
0.0093902551
-0.0057399181
0.0080764787
-0.0063985222
0.0063653907
-0.0071301247
0.0041933353
-0.0079302567
0.0014915934
-0.0087388035
-0.0017888156
-0.0094303568
-0.0056532209
-0.0097685795
-0.0099930424
-0.0094003426
-0.014445558
-0.007930579
-0.01817253
-0.0052061613
-0.019583891
-0.0019026121
-0.016370317
-0.006926367
-0.00035603983
0.0034722755
-0.0010239961
0.0079360237
-0.0017042284
0.010362452
-0.0022607959
0.01140465
-0.0026657185
0.011588238
-0.002944006
0.011245705
-0.0031442448
0.010551589
-0.0033248623
0.0095708726
-0.0035471876
0.0082988039
-0.0038710404
0.0066892435
-0.0043491656
0.0046714605
-0.0050183753
0.0021608031
-0.0058766085
-0.00093058231
-0.0068578315
-0.0046719979
-0.0077762853
-0.0090745886
-0.0082658332
-0.01395601
-0.0077687388
-0.018669624
-0.005751099
-0.021601531
-0.0024366711
-0.019684744
-0.0093630381
-0.00050826057
0.003980536
-0.00124563
0.008673393
-0.0017958813
0.010912703
-0.0020479956
0.011656765
-0.0020325016
0.011572744
-0.001825421
0.011038624
-0.001512187
0.010238355
-0.0011778546
0.0092365402
-0.00090470807
0.0080256574
-0.00077371562
0.006558251
-0.00086348615
0.004761231
-0.0012473542
0.0025446711
-0.0019828289
-0.00019510765
-0.0030818655
-0.0035729613
-0.0044600292
-0.0076964248
-0.0058274849
-0.012588554
-0.0065661622
-0.017930947
-0.005768446
-0.022399247
-0.0029512247
-0.022501966
-0.012314263
-0.00086855277
0.0048490888
-0.0017629814
0.0095678216
-0.0021213517
0.011271073
-0.0019368392
0.011472252
-0.0013509131
0.010986818
-0.0005161819
0.010203893
0.00043705325
0.0092851194
0.0013996265
0.0082739669
0.00227239
0.0071528939
0.0029609282
0.0058697128
0.0033691625
0.0043529968
0.0033968098
0.0025170238
0.0029385543
0.00026314784
0.001909618
-0.002544025
0.00026969034
-0.0060564972
-0.0018541592
-0.010464705
-0.003951593
-0.015833513
-0.0048608327
-0.021490007
-0.0032547029
-0.024108096
-0.015568966
-0.0015910836
0.0064401724
-0.0026108509
0.010587589
-0.0025131324
0.011173355
-0.0015898998
0.010549019
-0.00017216108
0.0095690794
0.0014928126
0.0085389194
0.0032329107
0.0075450214
0.0049232508
0.0065836268
0.0064630096
0.005613135
0.0077575135
0.004575209
0.008707518
0.0034029922
0.0092015047
0.0020230371
0.0091033481
0.00036130443
0.0082750957
-0.0017157725
0.0065654643
-0.0043468658
0.0039042379
-0.0078034782
0.0005589562
-0.012488231
-0.0024680531
-0.018462998
-0.0030273162
-0.023548832
-0.018596282
-0.0027183596
0.0091585318
-0.0031498644
0.011019094
-0.0018029958
0.0098264857
0.00046670615
0.0082793171
0.0030894303
0.006946355
0.0057738196
0.0058545301
0.0083629079
0.0049559331
0.010760406
0.0041861287
0.012893501
0.0034800397
0.014690669
0.0027780414
0.016068353
0.0020253083
0.01692329
0.0011680995
0.017119717
0.00016487742
0.016490832
-0.0010868876
0.014816842
-0.0026728755
0.011846659
-0.0048332947
0.0074354936
-0.0080770663
0.0022629302
-0.013290435
-0.001272466
-0.020013436
-0.019868748
-0.0024132798
0.011571811
2.8056795e-05
0.0085777586
0.0042551388
0.0055994042
0.0084161236
0.0041183324
0.012231487
0.0031309919
0.015656267
0.0024297502
0.018686551
0.0019256492
0.021329194
0.001543485
0.023583495
0.0012257394
0.025429229
0.00093230678
0.026820172
0.0006343656
0.027677182
0.00031108898
0.027900206
-5.8145928e-05
0.027347226
-0.00053390764
0.025771633
-0.0010972823
0.022843048
-0.0019047096
0.018054771
-0.0032887893
0.011113587
-0.0063492511
0.0033886755
-0.012288525
-0.016480072
0.011571811
0.020149569
0.025748973
0.029867306
0.032998298
0.035428048
0.037353697
0.038897182
0.040122922
0.041055228
0.041689594
0.042000683
0.041942537
0.041408629
0.040311347
0.038406637
0.035117848
0.028768597
0.016480072
)
;

boundaryField
{
    movingWall
    {
        type            calculated;
        value           uniform 0;
    }
    fixedWalls
    {
        type            calculated;
        value           uniform 0;
    }
    frontAndBack
    {
        type            empty;
        value           nonuniform List<scalar> 0();
    }
}


// ************************************************************************* //
