/*--------------------------------*- C++ -*----------------------------------*\
| =========                 |                                                 |
| \\      /  F ield         | OpenFOAM: The Open Source CFD Toolbox           |
|  \\    /   O peration     | Version:  2112                                  |
|   \\  /    A nd           | Website:  www.openfoam.com                      |
|    \\/     M anipulation  |                                                 |
\*---------------------------------------------------------------------------*/
FoamFile
{
    version     2.0;
    format      ascii;
    arch        "LSB;label=32;scalar=64";
    class       volScalarField;
    location    "13";
    object      p;
}
// * * * * * * * * * * * * * * * * * * * * * * * * * * * * * * * * * * * * * //

dimensions      [0 2 -2 0 0 0 0];

internalField   nonuniform List<scalar> 
400
(
4.9054848e-07
-0.00067097606
-0.0013815188
-0.0019368478
-0.0022122014
-0.0021470135
-0.0017170077
-0.00091463904
0.00024713919
0.0017186841
0.0033977006
0.0051216486
0.0066822686
0.007857913
0.0084681303
0.0084352283
0.0078273033
0.0068608953
0.0058793001
0.0053175257
0.00065722512
-3.9773894e-05
-0.00056739514
-0.00093670551
-0.0011051973
-0.0010325261
-0.00069682017
-8.5316534e-05
0.00080013552
0.0019275438
0.0032208597
0.0045656993
0.0057927942
0.0067273536
0.0072264138
0.0072280282
0.0067853433
0.0060700222
0.0053290746
0.0047576752
0.0014210228
0.00044003107
-0.00011562849
-0.00045064598
-0.00061038033
-0.00057841072
-0.00033820999
0.00012987697
0.00083995237
0.0017822337
0.0029069377
0.0041108102
0.0052408481
0.0061238393
0.0066075255
0.0066126852
0.0061725098
0.0054400596
0.0046136799
0.0037689566
0.0020095838
0.00067990088
1.6815356e-05
-0.000357009
-0.00056757297
-0.00062014966
-0.0005011139
-0.00017925115
0.00038185883
0.0011990766
0.002245233
0.0034328417
0.0046066316
0.0055722131
0.0061393172
0.0061834374
0.0057021224
0.0048373625
0.0037692298
0.0024968677
0.0021615736
0.00049391566
-0.00029634466
-0.0007466783
-0.00105359
-0.0012374764
-0.0012815692
-0.001136853
-0.00073784332
-3.3972188e-05
0.00097707662
0.002230439
0.0035644093
0.004751832
0.0055408713
0.0057294643
0.0052501461
0.0042242127
0.002830669
0.0010104204
0.0016487233
-0.00031579318
-0.0012377066
-0.001795672
-0.0022456972
-0.00261688
-0.002883132
-0.0029712321
-0.0027789566
-0.0022114697
-0.0012236855
0.0001584513
0.0017712797
0.0033523546
0.0045656832
0.0050893422
0.0047415882
0.0035917158
0.0018171345
-0.00069572994
0.00028426497
-0.0019183057
-0.0029691025
-0.0036644026
-0.0043091114
-0.0049368075
-0.0055079652
-0.0059201159
-0.0060262483
-0.0056710365
-0.0047373687
-0.0032205057
-0.0012299096
0.00094123743
0.0028544624
0.0040160992
0.0040535644
0.0029168287
0.0007464205
-0.0026461901
-0.0020745085
-0.0044455226
-0.0056183378
-0.0064801783
-0.0073755925
-0.0083419462
-0.0093258853
-0.010193575
-0.010746479
-0.010755708
-0.010011758
-0.0084100653
-0.0059912197
-0.0030374822
-8.5143442e-05
0.0021495842
0.0029980191
0.002169036
-0.00033118473
-0.0048340547
-0.005515527
-0.007980385
-0.009263336
-0.010314949
-0.011512996
-0.012902636
-0.014421235
-0.015906161
-0.017104617
-0.017702418
-0.017371299
-0.015852411
-0.013058468
-0.0091922267
-0.0048459174
-0.00098352312
0.0013106306
0.0013161932
-0.0012952455
-0.0071591777
-0.01006003
-0.012546142
-0.013914955
-0.015157595
-0.016684988
-0.018560341
-0.020721939
-0.022986502
-0.02505054
-0.026508507
-0.026887732
-0.025730714
-0.022766394
-0.018000997
-0.011985566
-0.0058951587
-0.0013217896
0.0003442564
-0.0019049971
-0.0093367262
-0.015659151
-0.018105823
-0.019508541
-0.020892934
-0.022716409
-0.025078931
-0.027935212
-0.031093734
-0.03420919
-0.036787394
-0.038200627
-0.03774948
-0.034975048
-0.02951718
-0.021746937
-0.012920006
-0.0051291367
-0.00066751708
-0.0017195404
-0.010745565
-0.022209089
-0.024579301
-0.025910071
-0.027294861
-0.029276659
-0.032021944
-0.035520511
-0.039585083
-0.043838023
-0.047705081
-0.05043073
-0.051138444
-0.048861814
-0.043055091
-0.033689376
-0.021856745
-0.0099774972
-0.001364911
3.5236676e-05
-0.010180536
-0.029599344
-0.03188441
-0.032938488
-0.034035895
-0.035888808
-0.038771457
-0.042724662
-0.047569771
-0.05289955
-0.058066519
-0.062185053
-0.064168349
-0.062783344
-0.057028093
-0.046401534
-0.031583147
-0.014981058
-0.00081591294
0.00468907
-0.0054817342
-0.037819041
-0.040005473
-0.040397741
-0.04070789
-0.041964965
-0.044594504
-0.048689307
-0.05406484
-0.060268412
-0.066572882
-0.071967832
-0.075179474
-0.074730064
-0.069197387
-0.057566001
-0.039907783
-0.0182015
0.0028293351
0.014480209
0.006938055
-0.047181669
-0.049090637
-0.04809929
-0.046840812
-0.046860209
-0.048745921
-0.05260566
-0.058203415
-0.064995623
-0.07214765
-0.078512548
-0.082635218
-0.082813041
-0.077253988
-0.064479776
-0.043899656
-0.016718627
0.01252873
0.032961657
0.03242683
-0.058849871
-0.05959901
-0.055847518
-0.051906745
-0.049935812
-0.050586515
-0.05387525
-0.059431857
-0.066540311
-0.074210199
-0.081118181
-0.085614117
-0.08577847
-0.079482998
-0.064850402
-0.040673814
-0.007231751
0.03214701
0.064988648
0.077752863
-0.076186168
-0.072579781
-0.063488727
-0.055411962
-0.050700416
-0.049749783
-0.052269987
-0.057610842
-0.064829538
-0.072708804
-0.079715445
-0.083981155
-0.083349129
-0.075322227
-0.057591328
-0.028376198
0.012924274
0.065388052
0.11554329
0.15149613
-0.10806195
-0.089532483
-0.071217947
-0.057222104
-0.049059898
-0.046310127
-0.048045421
-0.053158418
-0.06038074
-0.068237379
-0.074970671
-0.078478261
-0.076353285
-0.065790005
-0.043862045
-0.0078285261
0.044375029
0.11297733
0.18836067
0.27183993
-0.17682485
-0.10827372
-0.076196447
-0.054650174
-0.042989543
-0.038986782
-0.04054682
-0.04589132
-0.053394381
-0.061385743
-0.067975791
-0.070918023
-0.067519555
-0.05472224
-0.029146605
0.013552245
0.078126384
0.17003958
0.2894703
0.47419398
-0.37206301
-0.12469458
-0.054968993
-0.031964856
-0.022065309
-0.020294766
-0.024341737
-0.031927161
-0.041219574
-0.050592132
-0.058267108
-0.062142451
-0.059747279
-0.048036474
-0.02265324
0.021466382
0.092801198
0.21013027
0.40286485
0.77638623
)
;

boundaryField
{
    movingWall
    {
        type            zeroGradient;
    }
    fixedWalls
    {
        type            zeroGradient;
    }
    frontAndBack
    {
        type            empty;
    }
}


// ************************************************************************* //
