/*--------------------------------*- C++ -*----------------------------------*\
| =========                 |                                                 |
| \\      /  F ield         | OpenFOAM: The Open Source CFD Toolbox           |
|  \\    /   O peration     | Version:  2112                                  |
|   \\  /    A nd           | Website:  www.openfoam.com                      |
|    \\/     M anipulation  |                                                 |
\*---------------------------------------------------------------------------*/
FoamFile
{
    version     2.0;
    format      ascii;
    arch        "LSB;label=32;scalar=64";
    class       surfaceScalarField;
    location    "13";
    object      phi;
}
// * * * * * * * * * * * * * * * * * * * * * * * * * * * * * * * * * * * * * //

dimensions      [0 3 -1 0 0 0 0];

oriented        oriented;

internalField   nonuniform List<scalar> 
760
(
1.2645057e-05
-1.2650594e-05
-2.8742459e-05
4.1387734e-05
-0.00012217566
9.3433156e-05
-0.00025007575
0.0001279
-0.00039551307
0.00014543723
-0.00054457723
0.00014906402
-0.00068522002
0.00014064267
-0.0008056433
0.00012042324
-0.0008935742
8.7930891e-05
-0.00093697523
4.3400995e-05
-0.00092593027
-1.104501e-05
-0.00085569605
-7.023427e-05
-0.0007295291
-0.00012616699
-0.00056075502
-0.00016877411
-0.00037248137
-0.00018827368
-0.00019444134
-0.00017804007
-5.6632118e-05
-0.00013780927
1.947565e-05
-7.6107796e-05
3.0334893e-05
-1.0859238e-05
3.0334923e-05
-4.3135612e-05
3.048522e-05
-0.0002042613
0.00020251328
-0.00046756101
0.00035673271
-0.00079935254
0.00045969136
-0.0011653415
0.00051142595
-0.0015337916
0.00051751394
-0.0018749902
0.00048184117
-0.0021599972
0.00040543014
-0.002360601
0.00028853462
-0.0024513812
0.00013418117
-0.0024143969
-4.8029353e-05
-0.00224207
-0.00024256122
-0.0019449088
-0.0004233283
-0.0015525611
-0.00056112187
-0.001113147
-0.00062768783
-0.00068692201
-0.00060426515
-0.00033439905
-0.00049033229
-0.00010096445
-0.00030954242
-1.6181192e-06
-0.00011020557
2.8716832e-05
-0.00010982824
0.00014031342
-0.00040227868
0.00049496358
-0.00082982305
0.00078427696
-0.0013430892
0.00097295729
-0.0018950597
0.0010633963
-0.002442079
0.0010645331
-0.0029427054
0.00098246753
-0.0033566865
0.00081941113
-0.0036456408
0.00057748887
-0.0037760809
0.00026462128
-0.0037239423
-0.00010016804
-0.0034805961
-0.00048590745
-0.0030589653
-0.00084495918
-0.0024967307
-0.0011233566
-0.0018560306
-0.0012683879
-0.0012168804
-0.0012434154
-0.00066318301
-0.0010440297
-0.0002629569
-0.00070976855
-4.7974762e-05
-0.0003251877
-1.9257986e-05
-0.00017308225
0.0003133956
-0.00059208797
0.00091396921
-0.0011753443
0.0013675331
-0.0018547299
0.0016523427
-0.0025719684
0.0017806347
-0.0032751703
0.001767735
-0.003915663
0.0016229602
-0.0044463039
0.001350052
-0.0048220819
0.00095326676
-0.0050031019
0.00044564127
-0.0049595604
-0.00014370955
-0.0046775301
-0.00076793788
-0.0041665211
-0.0013559682
-0.0034645543
-0.0018253235
-0.0026407452
-0.0020921971
-0.0017911544
-0.0020930063
-0.0010247954
-0.0018103887
-0.00043982981
-0.0012947342
-9.6667655e-05
-0.00066834992
-0.00011592573
-0.00022930429
0.00054269983
-0.00076349421
0.001448159
-0.0014884927
0.0020925315
-0.0023180212
0.0024818711
-0.0031841129
0.0026467263
-0.0040294493
0.0026130714
-0.0048015754
0.0023950863
-0.0054497522
0.0019982288
-0.0059246075
0.0014281221
-0.0061802896
0.00070132327
-0.0061793321
-0.00014466707
-0.0058973286
-0.0010499415
-0.005333301
-0.0019199958
-0.0045173616
-0.0026412629
-0.0035186956
-0.0030908632
-0.0024469672
-0.0031647346
-0.0014409567
-0.0028163992
-0.00064057443
-0.0020951165
-0.00014870119
-0.0011602233
-0.000264627
-0.00027671968
0.00081941943
-0.00090972811
0.0020811674
-0.0017573422
0.0029401455
-0.0027177553
0.0034422841
-0.0037155636
0.0036445346
-0.004690648
0.0035881558
-0.0055897339
0.0032941721
-0.0063612757
0.0027697706
-0.0069534427
0.0020202891
-0.0073145717
0.0010624522
-0.0073976187
-6.1620038e-05
-0.0071626087
-0.0012849515
-0.0065908774
-0.0024917272
-0.0056950077
-0.0035371326
-0.0045348684
-0.0042510024
-0.0032282721
-0.0044713309
-0.0019469193
-0.0040977519
-0.00088635322
-0.0031556826
-0.0002113762
-0.0018352004
-0.00047600323
-0.0003135132
0.0011329326
-0.0010244615
0.0027921156
-0.001970039
0.003885723
-0.0030366218
0.0045088669
-0.0041440192
0.0047519321
-0.0052318984
0.004676035
-0.0062489761
0.0043112498
-0.0071457178
0.0036665123
-0.0078702047
0.0027447761
-0.0083666783
0.0015589258
-0.00857552
0.0001472217
-0.0084420789
-0.0014183926
-0.0079211685
-0.0030126375
-0.006997814
-0.0044604871
-0.0057093143
-0.0055395019
-0.004169432
-0.0060112131
-0.0025792799
-0.0056879039
-0.0012028998
-0.0045320627
-0.00029420028
-0.0027438999
-0.00077020344
-0.00033769316
0.0014706257
-0.0011014395
0.003555862
-0.0021144428
0.0048987263
-0.0032551835
0.0056496076
-0.0044412973
0.0059380459
-0.0056146685
0.0058494062
-0.0067287546
0.005425336
-0.0077391783
0.0046769361
-0.0085972908
0.0036028885
-0.0092461418
0.0022077769
-0.0096181174
0.00051919734
-0.0096407349
-0.0013957751
-0.0092411523
-0.0034122201
-0.0083669917
-0.0053346477
-0.0070162569
-0.0068902365
-0.0052773844
-0.0077500854
-0.0033647734
-0.0076005149
-0.0016159223
-0.0062809138
-0.00040787858
-0.0039519436
-0.0011780819
-0.00034772092
0.0018183466
-0.0011358415
0.0043439826
-0.0021802354
0.0059431203
-0.0033548475
0.0068242198
-0.0045773601
0.0071605586
-0.0057940355
0.0070660816
-0.0069657565
0.0065970572
-0.0080568352
0.0057680149
-0.009026442
0.0045724953
-0.0098220058
0.0030033407
-0.010374425
0.0010716167
-0.010597903
-0.0011722976
-0.010394473
-0.00361565
-0.0096690435
-0.0060600769
-0.0083634902
-0.0081957897
-0.0065114621
-0.0096021134
-0.0043069173
-0.0098050596
-0.0021467311
-0.0084411
-0.00056445677
-0.0055342178
-0.0017425386
-0.00034368284
0.0021620295
-0.0011270253
0.0051273252
-0.0021631136
0.0069792087
-0.0033235119
0.0079846182
-0.0045277107
0.0083647575
-0.0057283255
0.0082666965
-0.0068962837
0.0077650154
-0.0080083217
0.0068800529
-0.0090367945
0.0056009682
-0.0099410465
0.0039075927
-0.010659595
0.001790165
-0.011102988
-0.00072890445
-0.011159665
-0.0035589732
-0.010693356
-0.0065263858
-0.0095789018
-0.0093102434
-0.0077634098
-0.011417605
-0.0053688518
-0.012199618
-0.0028055928
-0.011004359
-0.00077784815
-0.0075619624
-0.0025203867
-0.00032888432
0.0024909138
-0.0010822612
0.0058807021
-0.0020703761
0.0079673237
-0.0031629411
0.0090771833
-0.0042830184
0.009484835
-0.005391882
0.0093755602
-0.0064732272
0.0088463606
-0.0075198183
0.007926644
-0.0085224407
0.0066035906
-0.009460111
0.0048452631
-0.010291275
0.0026213293
-0.010933024
-8.715528e-05
-0.011282791
-0.0032092063
-0.011172768
-0.0066364092
-0.010414317
-0.010068694
-0.0088449327
-0.01298699
-0.0064539218
-0.014590629
-0.0035801886
-0.013878092
-0.0010637024
-0.010078449
-0.0035840893
-0.00031201029
0.0028029242
-0.0010212625
0.0065899543
-0.0019270231
0.0088730844
-0.0028961782
0.010046338
-0.0038584262
0.010447083
-0.004787469
0.010304603
-0.0056830917
0.0097419834
-0.006557233
0.0088007853
-0.0074230962
0.0074694539
-0.0082853628
0.0057075297
-0.0091288058
0.0034647723
-0.0099123078
0.00069634685
-0.010530447
-0.0025910665
-0.010829437
-0.0063374194
-0.010575032
-0.0103231
-0.0094935277
-0.014068493
-0.0073906195
-0.016693537
-0.0044181247
-0.016850587
-0.0014367765
-0.013059797
-0.005020866
-0.00031051427
0.0031134385
-0.00098168704
0.0072611271
-0.0017812964
0.0096726938
-0.0025724992
0.010837541
-0.003298555
0.011173139
-0.0039526269
0.010958675
-0.004555411
0.010344768
-0.0051408538
0.0093862281
-0.0057464935
0.0080750936
-0.006405431
0.0063664671
-0.0071371437
0.0041964851
-0.0079371123
0.0014963156
-0.008745137
-0.0017830417
-0.0094357838
-0.0056467726
-0.0097727267
-0.0099861567
-0.0094029563
-0.014438264
-0.0079316858
-0.018164807
-0.0052062039
-0.019576069
-0.0019023743
-0.016363627
-0.0069232404
-0.00035672616
0.0034701646
-0.001025973
0.0079303739
-0.0017076638
0.010354384
-0.0022656455
0.011395523
-0.0026718455
0.011579339
-0.0029512306
0.01123806
-0.003152362
0.010545899
-0.0033336516
0.0095675178
-0.0035564147
0.0082978567
-0.0038804632
0.0066905158
-0.0043585363
0.0046745582
-0.0050274334
0.0021652127
-0.0058850628
-0.00092541222
-0.0068653541
-0.0046664812
-0.0077824996
-0.0090690112
-0.0082703794
-0.013950384
-0.0077714261
-0.01866376
-0.0057521196
-0.021595375
-0.0024367427
-0.019679004
-0.0093599831
-0.00050909754
0.0039792622
-0.0012480781
0.0086693543
-0.0018001987
0.010906505
-0.0020541446
0.011649469
-0.0020402754
0.01156547
-0.0018345156
0.011032301
-0.0015222419
0.010233625
-0.0011885117
0.0092337876
-0.00091561253
0.0080249575
-0.00078455646
0.0065594597
-0.00087401258
0.0047640144
-0.001257361
0.0025485612
-0.0019921205
-0.00019065259
-0.0030902315
-0.0035683701
-0.0044672011
-0.0076920414
-0.0058331252
-0.01258446
-0.0065699649
-0.017926921
-0.0057703353
-0.022395005
-0.0029516618
-0.022497677
-0.012311645
-0.00086941849
0.0048486806
-0.0017655706
0.0095655063
-0.0021260076
0.011266942
-0.001943557
0.011467019
-0.0013594579
0.010981371
-0.00052615672
0.010198999
0.00042608047
0.0092813882
0.0013881461
0.0082717219
0.0022608349
0.0071522688
0.0029496681
0.0058706266
0.0033584838
0.0043551989
0.0033869071
0.002520138
0.0029295523
0.00026670238
0.0019015887
-0.0025404063
0.00026274611
-0.0060531986
-0.0018598495
-0.010461864
-0.0039557702
-0.015831
-0.0048631897
-0.021487586
-0.0032554307
-0.024105436
-0.015567076
-0.001591755
0.0064404355
-0.0026130421
0.010586793
-0.002517256
0.011171155
-0.0015960364
0.010545799
-0.00018011965
0.0095654546
0.0014833702
0.0085355099
0.0032224676
0.007542291
0.0049123008
0.0065818888
0.0064520347
0.0056125349
0.007746931
0.0045757304
0.008697651
0.0034044789
0.0091925677
0.0020252215
0.0090954599
0.00036381031
0.0082682537
-0.0017131999
0.006559655
-0.0043445998
0.003899502
-0.0078017109
0.00055547865
-0.012486977
-0.0024702927
-0.018461814
-0.0030281591
-0.02354757
-0.018595235
-0.0027186169
0.0091590522
-0.003150998
0.011019175
-0.0018055523
0.0098257095
0.00046248215
0.0082777648
0.0030835474
0.0069443896
0.0057665054
0.0058525521
0.0083545246
0.0049542721
0.0107514
0.0041850139
0.012884342
0.0034795924
0.0146818
0.0027782733
0.016060141
0.0020261373
0.01691599
0.0011693728
0.017113487
0.0001663135
0.016485681
-0.0010853939
0.014812695
-0.0026716136
0.011843379
-0.0048323952
0.0074329639
-0.0080765616
0.0022612653
-0.013290116
-0.001273231
-0.020013074
-0.019868466
-0.0024130634
0.011572115
2.8118644e-05
0.0085779932
0.0042545482
0.0055992804
0.0084144392
0.0041178742
0.012228505
0.0031303246
0.015652018
0.0024290389
0.018681253
0.0019250375
0.021323192
0.0015430752
0.0235772
0.0012255847
0.025423062
0.00093241093
0.026814513
0.00063468601
0.027672341
0.00031154448
0.027896171
-5.7516751e-05
0.02734419
-0.00053341244
0.02576946
-0.0010968843
0.022841531
-0.0019044654
0.018053703
-0.0032887334
0.011112881
-0.0063492941
0.0033883773
-0.01228857
-0.016480089
0.011572115
0.020150108
0.025749389
0.029867263
0.032997588
0.035426627
0.037351665
0.03889474
0.040120324
0.041052735
0.041687421
0.041998965
0.041941448
0.041408036
0.040311152
0.038406687
0.035117953
0.028768659
0.016480089
)
;

boundaryField
{
    movingWall
    {
        type            calculated;
        value           uniform 0;
    }
    fixedWalls
    {
        type            calculated;
        value           uniform 0;
    }
    frontAndBack
    {
        type            empty;
        value           nonuniform List<scalar> 0();
    }
}


// ************************************************************************* //
