/*--------------------------------*- C++ -*----------------------------------*\
| =========                 |                                                 |
| \\      /  F ield         | OpenFOAM: The Open Source CFD Toolbox           |
|  \\    /   O peration     | Version:  2112                                  |
|   \\  /    A nd           | Website:  www.openfoam.com                      |
|    \\/     M anipulation  |                                                 |
\*---------------------------------------------------------------------------*/
FoamFile
{
    version     2.0;
    format      ascii;
    arch        "LSB;label=32;scalar=64";
    class       surfaceScalarField;
    location    "13";
    object      phi_0;
}
// * * * * * * * * * * * * * * * * * * * * * * * * * * * * * * * * * * * * * //

dimensions      [0 3 -1 0 0 0 0];

oriented        oriented;

internalField   nonuniform List<scalar> 
760
(
1.2645389e-05
-1.264966e-05
-2.8742382e-05
4.1387654e-05
-0.00012217487
9.3432473e-05
-0.00025007376
0.00012789893
-0.00039550973
0.00014543597
-0.00054457248
0.00014906275
-0.00068521402
0.00014064149
-0.00080563634
0.00012042224
-0.00089356666
8.7930227e-05
-0.00093696756
4.3400814e-05
-0.00092592303
-1.1044611e-05
-0.00085568978
-7.0233292e-05
-0.00072952425
-0.00012616555
-0.00056075183
-0.00016877241
-0.0003724798
-0.00018827201
-0.00019444106
-0.00017803872
-5.6632582e-05
-0.00013780847
1.9475019e-05
-7.6107603e-05
3.0334547e-05
-1.0859555e-05
3.0334486e-05
-4.3135235e-05
3.0485497e-05
-0.00020425952
0.00020251187
-0.00046755667
0.00035672966
-0.00079934488
0.00045968722
-0.0011653302
0.00051142129
-0.0015337768
0.00051750923
-0.0018749723
0.00048183688
-0.002159977
0.00040542675
-0.0023605795
0.00028853259
-0.0024513597
0.00013418087
-0.0024143766
-4.8027731e-05
-0.0022420522
-0.00024255776
-0.0019448945
-0.00042332338
-0.0015525507
-0.00056111615
-0.0011131406
-0.00062768215
-0.00068691889
-0.00060426041
-0.00033439823
-0.00049032918
-0.00010096471
-0.00030954122
-1.6184574e-06
-0.00011020595
2.8715985e-05
-0.0001098271
0.00014031261
-0.00040227447
0.00049495926
-0.00082981437
0.00078426961
-0.0013430751
0.00097294803
-0.0018950401
0.0010633863
-0.0024420542
0.0010645232
-0.0029426762
0.00098245881
-0.0033566541
0.00081940449
-0.0036456068
0.00057748513
-0.0037760471
0.00026462107
-0.0037239104
-0.00010016446
-0.0034805678
-0.00048590034
-0.0030589419
-0.00084494927
-0.0024967129
-0.0011233451
-0.0018560186
-0.0012683764
-0.0012168734
-0.0012434055
-0.00066317989
-0.0010440227
-0.0002629561
-0.00070976505
-4.7974875e-05
-0.00032518727
-1.9258914e-05
-0.00017308023
0.00031339288
-0.00059208131
0.00091396033
-0.0011753313
0.0013675196
-0.0018547098
0.0016523265
-0.0025719412
0.0017806176
-0.0032751367
0.0017677186
-0.0039156241
0.0016229461
-0.0044462613
0.0013500416
-0.0048220374
0.00095326119
-0.0050030578
0.00044564137
-0.0049595187
-0.00014370351
-0.0046774926
-0.00076792638
-0.0041664894
-0.0013559524
-0.0034645294
-0.0018253051
-0.0026407274
-0.0020921784
-0.0017911432
-0.0020929897
-0.0010247896
-0.0018103763
-0.00043982769
-0.001294727
-9.6667372e-05
-0.00066834765
-0.00011592629
-0.00022930153
0.00054269449
-0.00076348548
0.0014481443
-0.0014884763
0.0020925104
-0.0023179963
0.0024818465
-0.0031840799
0.0026467011
-0.004029409
0.0026130477
-0.0048015293
0.0023950662
-0.0054497021
0.0019982143
-0.0059245555
0.0014281146
-0.0061802379
0.00070132369
-0.0061792829
-0.00014465847
-0.0058972838
-0.0010499254
-0.0053332624
-0.0019199737
-0.0045173304
-0.0026412371
-0.0035186723
-0.0030908364
-0.0024469518
-0.0031647101
-0.0014409481
-0.0028163799
-0.00064057091
-0.0020951042
-0.00014870047
-0.0011602181
-0.00026462674
-0.00027671643
0.00081941096
-0.00090971806
0.0020811459
-0.0017573236
0.0029401158
-0.0027177276
0.0034422505
-0.0037155273
0.0036445007
-0.0046906042
0.0035881245
-0.005589684
0.003294146
-0.0063612218
0.002769752
-0.0069533868
0.0020202796
-0.0073145159
0.0010624528
-0.0073975653
-6.1609078e-05
-0.0071625594
-0.0012849312
-0.0065908339
-0.0024916992
-0.0056949714
-0.0035370994
-0.0045348404
-0.0042509673
-0.0032282527
-0.0044712978
-0.001946908
-0.0040977246
-0.00088634824
-0.003155664
-0.00021137502
-0.0018351913
-0.00047600171
-0.00031350981
0.0011329208
-0.0010244512
0.0027920871
-0.00197002
0.0038856846
-0.0030365938
0.0045088241
-0.0041439827
0.0047518895
-0.0052318546
0.0046759963
-0.0062489267
0.004311218
-0.0071456645
0.0036664898
-0.0078701496
0.0027447646
-0.0083666231
0.0015589264
-0.0085754665
0.00014723427
-0.0084420287
-0.001418369
-0.0079211232
-0.0030126046
-0.0069977751
-0.0044604475
-0.0057092832
-0.0055394592
-0.0041694096
-0.0060111714
-0.0025792661
-0.0056878681
-0.0012028934
-0.0045320367
-0.00029419861
-0.0027438859
-0.00077020029
-0.00033769004
0.0014706108
-0.00110143
0.003555827
-0.0021144253
0.0048986799
-0.0032551579
0.0056495566
-0.004441264
0.0059379956
-0.0056146288
0.005849361
-0.0067287101
0.0054252992
-0.0077391306
0.0046769103
-0.0085972415
0.0036028754
-0.0092460924
0.0022077773
-0.0096180691
0.00051921105
-0.0096406889
-0.0013957492
-0.0092411098
-0.0034121837
-0.0083669539
-0.0053346034
-0.0070162254
-0.0068901877
-0.0052773605
-0.0077500363
-0.0033647579
-0.0076004708
-0.0016159146
-0.00628088
-0.00040787644
-0.003951924
-0.0011780767
-0.00034771848
0.0018183292
-0.0011358339
0.0043439424
-0.0021802214
0.0059430673
-0.0033548269
0.006824162
-0.0045773336
0.0071605022
-0.005794004
0.0070660315
-0.0069657216
0.0065970168
-0.0080567981
0.0057679869
-0.009026404
0.0045724813
-0.0098219678
0.0030033412
-0.010374388
0.0010716311
-0.010597867
-0.0011722705
-0.010394438
-0.0036156119
-0.0096690117
-0.0060600302
-0.0083634622
-0.0081957373
-0.0065114393
-0.0096020592
-0.0043069014
-0.0098050088
-0.0021467226
-0.0084410588
-0.00056445421
-0.0055341922
-0.001742531
-0.00034368142
0.0021620106
-0.0011270207
0.0051272817
-0.0021631048
0.0069791514
-0.0033234988
0.007984556
-0.0045276939
0.0083646973
-0.0057283058
0.0082666434
-0.0068962623
0.0077649733
-0.0080082996
0.0068800243
-0.0090367725
0.0056009543
-0.0099410251
0.0039075937
-0.010659574
0.0017901801
-0.011102967
-0.00072887712
-0.011159644
-0.0035589352
-0.010693335
-0.0065263392
-0.0095788819
-0.0093101906
-0.0077633917
-0.011417549
-0.0053688376
-0.012199563
-0.0028055843
-0.011004312
-0.00077784535
-0.0075619311
-0.0025203765
-0.00032888418
0.0024908947
-0.0010822602
0.0058806578
-0.0020703738
0.0079672651
-0.0031629373
0.0090771196
-0.0042830136
0.0094847736
-0.0053918767
0.0093755066
-0.0064732222
0.0088463188
-0.0075198142
0.0079266164
-0.008522438
0.0066035781
-0.0094601096
0.0048452654
-0.010291275
0.0026213452
-0.010933023
-8.7128852e-05
-0.011282789
-0.0032091695
-0.011172763
-0.0066363651
-0.010414309
-0.010068644
-0.0088449231
-0.012986936
-0.0064539121
-0.014590574
-0.0035801815
-0.013878043
-0.0010636997
-0.010078413
-0.0035840762
-0.00031201154
0.0028029063
-0.0010212655
0.0065899119
-0.0019270279
0.0088730276
-0.0028961848
0.010046276
-0.0038584345
0.010447023
-0.0047874793
0.010304552
-0.0056831042
0.0097419438
-0.0065572479
0.0088007601
-0.0074231134
0.0074694436
-0.0082853818
0.0057075337
-0.0091288254
0.0034647888
-0.0099123276
0.00069637336
-0.010530465
-0.0025910324
-0.01082945
-0.0063373796
-0.010575039
-0.010323055
-0.0094935297
-0.014068446
-0.007390617
-0.016693487
-0.0044181207
-0.016850539
-0.0014367743
-0.013059759
-0.0050208505
-0.00031051688
0.0031134232
-0.0009816941
0.0072610893
-0.0017813084
0.009672642
-0.002572516
0.010837484
-0.0032985764
0.011173084
-0.0039526525
0.010958628
-0.0045554404
0.010344732
-0.0051408865
0.0093862062
-0.0057465289
0.0080750861
-0.0064054682
0.0063664729
-0.0071371816
0.0041965021
-0.0079371494
0.0014963411
-0.0087451714
-0.0017830105
-0.0094358134
-0.0056467377
-0.0097727495
-0.0099861195
-0.0094029708
-0.014438224
-0.0079316921
-0.018164765
-0.0052062044
-0.019576027
-0.0019023731
-0.01636359
-0.0069232235
-0.00035672994
0.0034701531
-0.0010259836
0.0079303432
-0.0017076821
0.010354341
-0.0022656716
0.011395474
-0.0026718786
0.011579291
-0.0029512697
0.011238019
-0.0031524058
0.010545868
-0.0033336991
0.0095674996
-0.0035564645
0.0082978515
-0.0038805141
0.0066905226
-0.004358587
0.0046745749
-0.0050274824
0.0021652365
-0.0058851087
-0.00092538432
-0.0068653951
-0.0046664514
-0.0077825335
-0.0090689811
-0.0082704043
-0.013950354
-0.007771441
-0.018663729
-0.0057521254
-0.021595342
-0.0024367432
-0.019678973
-0.0093599666
-0.0005091021
0.0039792553
-0.0012480912
0.0086693326
-0.0018002219
0.010906472
-0.0020541777
0.01164943
-0.0020403174
0.011565431
-0.0018345649
0.011032266
-0.0015222963
0.0102336
-0.0011885693
0.0092337727
-0.00091567147
0.0080249537
-0.00078461507
0.0065594661
-0.00087406953
0.0047640293
-0.0012574152
0.0025485821
-0.001992171
-0.00019062864
-0.003090277
-0.0035683454
-0.0044672402
-0.0076920178
-0.005833156
-0.012584438
-0.0065699858
-0.017926899
-0.0057703458
-0.022394982
-0.0029516643
-0.022497654
-0.012311631
-0.00086942315
0.0048486786
-0.0017655844
0.009565494
-0.0021260326
0.01126692
-0.0019435931
0.011466991
-0.0013595041
0.010981342
-0.00052621077
0.010198973
0.00042602097
0.0092813682
0.0013880839
0.0082717099
0.0022607724
0.0071522654
0.0029496072
0.0058706314
0.003358426
0.0043552105
0.0033868535
0.0025201546
0.0029295035
0.00026672131
0.001901545
-0.002540387
0.00026270825
-0.006053181
-0.0018598806
-0.010461849
-0.0039557932
-0.015830986
-0.0048632026
-0.021487573
-0.0032554348
-0.024105422
-0.015567065
-0.0015917586
0.0064404372
-0.0026130536
0.010586789
-0.0025172781
0.011171144
-0.0015960695
0.010545782
-0.00018016272
0.0095654354
0.001483319
0.0085354917
0.0032224108
0.0075422764
0.0049122414
0.0065818794
0.0064519752
0.0056125316
0.0077468736
0.0045757331
0.0086975976
0.0034044866
0.0091925193
0.0020252329
0.0090954171
0.00036382347
0.0082682165
-0.0017131863
0.0065596234
-0.0043445879
0.0038994761
-0.0078017015
0.00055545962
-0.01248697
-0.0024703049
-0.018461808
-0.0030281637
-0.023547563
-0.018595229
-0.0027186182
0.0091590554
-0.0031510037
0.011019176
-0.0018055658
0.0098257055
0.00046245943
0.0082777566
0.0030835155
0.0069443792
0.0057664656
0.0058525416
0.008354479
0.0049542632
0.010751351
0.0041850078
0.012884293
0.0034795898
0.014681751
0.0027782743
0.016060097
0.0020261415
0.01691595
0.0011693793
0.017113453
0.00016632093
0.016485653
-0.0010853861
0.014812672
-0.002671607
0.011843361
-0.0048323905
0.00743295
-0.0080765589
0.0022612562
-0.013290114
-0.0012732352
-0.020013072
-0.019868464
-0.0024130622
0.011572117
2.8119408e-05
0.0085779949
0.0042545454
0.0055992801
0.0084144302
0.0041178718
0.012228488
0.003130321
0.015651995
0.0024290349
0.018681224
0.001925034
0.021323159
0.0015430728
0.023577165
0.0012255837
0.025423028
0.00093241136
0.026814482
0.00063468764
0.027672315
0.00031154688
0.027896149
-5.7513347e-05
0.027344173
-0.00053340976
0.025769449
-0.0010968821
0.022841522
-0.0019044641
0.018053697
-0.0032887331
0.011112877
-0.0063492943
0.0033883756
-0.012288571
-0.016480089
0.011572117
0.020150111
0.025749391
0.029867263
0.032997584
0.035426619
0.037351653
0.038894726
0.04012031
0.041052721
0.041687409
0.041998956
0.041941443
0.041408033
0.040311151
0.038406687
0.035117954
0.028768659
0.016480089
)
;

boundaryField
{
    movingWall
    {
        type            calculated;
        value           uniform 0;
    }
    fixedWalls
    {
        type            calculated;
        value           uniform 0;
    }
    frontAndBack
    {
        type            empty;
        value           nonuniform List<scalar> 0();
    }
}


// ************************************************************************* //
