/*--------------------------------*- C++ -*----------------------------------*\
| =========                 |                                                 |
| \\      /  F ield         | OpenFOAM: The Open Source CFD Toolbox           |
|  \\    /   O peration     | Version:  2112                                  |
|   \\  /    A nd           | Website:  www.openfoam.com                      |
|    \\/     M anipulation  |                                                 |
\*---------------------------------------------------------------------------*/
FoamFile
{
    version     2.0;
    format      ascii;
    arch        "LSB;label=32;scalar=64";
    class       volVectorField;
    location    "13";
    object      U;
}
// * * * * * * * * * * * * * * * * * * * * * * * * * * * * * * * * * * * * * //

dimensions      [0 1 -1 0 0 0 0];

internalField   nonuniform List<vector> 
400
(
(0.00028364966 -0.00028063736 0)
(0.00010947257 8.0215749e-05 0)
(-0.0013266057 0.00047756613 0)
(-0.0036177499 0.00073494333 0)
(-0.0064149104 0.00086622732 0)
(-0.0094176786 0.00090582841 0)
(-0.012369184 0.00087341597 0)
(-0.015033159 0.00077022959 0)
(-0.017167894 0.00058752917 0)
(-0.018524463 0.00031966026 0)
(-0.018874557 -2.4549804e-05 0)
(-0.018060634 -0.00041727142 0)
(-0.016058955 -0.00079810239 0)
(-0.013033986 -0.0010911134 0)
(-0.0093578597 -0.0012192908 0)
(-0.005574875 -0.0011280339 0)
(-0.0023016238 -0.00081221435 0)
(-8.5864464e-05 -0.00033816987 0)
(0.0007578011 0.00015142983 0)
(0.00040860939 0.00038853278 0)
(-8.6229599e-05 -0.00012239964 0)
(-0.0018668942 0.0017852659 0)
(-0.0062966795 0.0036205706 0)
(-0.012431975 0.0048545337 0)
(-0.019567162 0.0054892279 0)
(-0.027060135 0.0056110415 0)
(-0.034299503 0.0052770266 0)
(-0.040698953 0.0044969892 0)
(-0.045680979 0.0032614461 0)
(-0.048695749 0.0015883682 0)
(-0.049288492 -0.00043274914 0)
(-0.047182661 -0.0026115385 0)
(-0.04239212 -0.0046547266 0)
(-0.035315824 -0.0062073855 0)
(-0.026748126 -0.0069262443 0)
(-0.017810739 -0.0065830799 0)
(-0.0097697632 -0.005174231 0)
(-0.0037467338 -0.0029979863 0)
(-0.00039100543 -0.00066739104 0)
(0.00028879265 0.00078120987 0)
(-0.0005871059 0.0014324539 0)
(-0.0042350412 0.0063674566 0)
(-0.011736513 0.010622302 0)
(-0.021428276 0.013459824 0)
(-0.032305543 0.014871912 0)
(-0.043507165 0.014991083 0)
(-0.054188267 0.013912524 0)
(-0.063528758 0.011665796 0)
(-0.070732586 0.0082704585 0)
(-0.07506199 0.0038271024 0)
(-0.07591697 -0.0013972844 0)
(-0.072945664 -0.0069174201 0)
(-0.066170704 -0.012045961 0)
(-0.056093435 -0.015970343 0)
(-0.043726507 -0.017913054 0)
(-0.030535406 -0.01735492 0)
(-0.018233769 -0.014273059 0)
(-0.0084125122 -0.009304881 0)
(-0.0021511695 -0.0037624048 0)
(-2.6570073e-06 0.00031363811 0)
(-0.0010508668 0.0042935396 0)
(-0.0065015184 0.013541494 0)
(-0.016964845 0.020825911 0)
(-0.029971377 0.025514501 0)
(-0.044214533 0.027711441 0)
(-0.058672713 0.027639526 0)
(-0.072353581 0.025445352 0)
(-0.084295667 0.021186584 0)
(-0.093567017 0.014927471 0)
(-0.099299288 0.0068775559 0)
(-0.10077025 -0.0024843755 0)
(-0.097515566 -0.012345108 0)
(-0.089464878 -0.02155919 0)
(-0.077077839 -0.028771275 0)
(-0.061426926 -0.032652256 0)
(-0.04420135 -0.032253061 0)
(-0.027532557 -0.027411916 0)
(-0.013569043 -0.019062466 0)
(-0.0040236109 -0.009266602 0)
(-0.00026793311 -0.0011112214 0)
(-0.0014526216 0.0083495271 0)
(-0.0085310171 0.023137243 0)
(-0.021701784 0.033987378 0)
(-0.037717404 0.040687539 0)
(-0.054990716 0.043623151 0)
(-0.072384272 0.043184665 0)
(-0.088824277 0.039598007 0)
(-0.10327958 0.032954804 0)
(-0.11474206 0.023359552 0)
(-0.12224368 0.011117149 0)
(-0.12492743 -0.003102644 0)
(-0.12214518 -0.018169295 0)
(-0.11360679 -0.032472641 0)
(-0.099568936 -0.044052319 0)
(-0.081000069 -0.050884145 0)
(-0.059705712 -0.051367425 0)
(-0.03824824 -0.04495705 0)
(-0.019499934 -0.03272135 0)
(-0.0060865868 -0.017479303 0)
(-0.00051075367 -0.0035231443 0)
(-0.0017850042 0.013449008 0)
(-0.010248647 0.03489303 0)
(-0.025754696 0.049813891 0)
(-0.044382273 0.058686617 0)
(-0.064309781 0.062348225 0)
(-0.08432905 0.061448616 0)
(-0.10334252 0.056330263 0)
(-0.12031054 0.047120419 0)
(-0.13419962 0.033938389 0)
(-0.14396623 0.017133697 0)
(-0.14860043 -0.0025007789 0)
(-0.14720235 -0.023569923 0)
(-0.13913885 -0.044050813 0)
(-0.12428781 -0.061334067 0)
(-0.10331295 -0.07252954 0)
(-0.077968867 -0.075069344 0)
(-0.051205189 -0.067622612 0)
(-0.026781012 -0.051068938 0)
(-0.0086034055 -0.028940726 0)
(-0.00078630356 -0.0070497387 0)
(-0.0020379024 0.019397986 0)
(-0.011583806 0.048435339 0)
(-0.028943572 0.067871296 0)
(-0.049671571 0.079083882 0)
(-0.071772345 0.083515076 0)
(-0.094013088 0.082167516 0)
(-0.11532669 0.075541968 0)
(-0.1347239 0.063800275 0)
(-0.15120157 0.047036797 0)
(-0.16367965 0.025569514 0)
(-0.17099043 0.00020592743 0)
(-0.17196209 -0.027529618 0)
(-0.16553875 -0.055283768 0)
(-0.15103615 -0.079811424 0)
(-0.12857102 -0.097207898 0)
(-0.099570893 -0.10356141 0)
(-0.067175178 -0.096170721 0)
(-0.036083145 -0.07513933 0)
(-0.011917592 -0.044498599 0)
(-0.0011694785 -0.011993842 0)
(-0.0021975079 0.025962964 0)
(-0.012464653 0.063300899 0)
(-0.031091872 0.087606186 0)
(-0.05327542 0.10131566 0)
(-0.076908598 0.10660453 0)
(-0.10077657 0.10491776 0)
(-0.1238935 0.096960602 0)
(-0.14538021 0.082931502 0)
(-0.16432935 0.062856476 0)
(-0.17969275 0.036932463 0)
(-0.19021816 0.0058442939 0)
(-0.19448118 -0.028941292 0)
(-0.19097257 -0.064889184 0)
(-0.17834117 -0.098235095 0)
(-0.15589637 -0.12400732 0)
(-0.12434169 -0.13659463 0)
(-0.086573193 -0.13118135 0)
(-0.048021595 -0.10612311 0)
(-0.016414036 -0.065332196 0)
(-0.0017517784 -0.018863776 0)
(-0.0022528354 0.032872673 0)
(-0.012837985 0.078948106 0)
(-0.032060661 0.10834966 0)
(-0.05491837 0.12466171 0)
(-0.07924735 0.13089463 0)
(-0.10388611 0.12902198 0)
(-0.12797652 0.12000791 0)
(-0.15081088 0.10410147 0)
(-0.17165776 0.081227837 0)
(-0.18960399 0.051376992 0)
(-0.2034374 0.014967607 0)
(-0.2115941 -0.026777311 0)
(-0.21219565 -0.071393285 0)
(-0.20321618 -0.11485585 0)
(-0.18295165 -0.15125758 0)
(-0.15092269 -0.17309184 0)
(-0.10909266 -0.17264466 0)
(-0.062981021 -0.14510466 0)
(-0.02250692 -0.092894702 0)
(-0.0026561677 -0.028398823 0)
(-0.0022071384 0.039836829 0)
(-0.01270793 0.094788138 0)
(-0.031817777 0.12933483 0)
(-0.054456729 0.14823529 0)
(-0.078444338 0.15541866 0)
(-0.10270257 0.15347445 0)
(-0.12654444 0.1436926 0)
(-0.14949535 0.12640794 0)
(-0.17108911 0.10144036 0)
(-0.19067586 0.068519463 0)
(-0.20725004 0.027681961 0)
(-0.21930253 -0.020292875 0)
(-0.2248131 -0.073319624 0)
(-0.22123155 -0.12751383 0)
(-0.20577975 -0.17642281 0)
(-0.17640446 -0.21078452 0)
(-0.1332847 -0.2194145 0)
(-0.080855839 -0.19258879 0)
(-0.030622337 -0.12874641 0)
(-0.004066459 -0.041603535 0)
(-0.0020935488 0.046592697 0)
(-0.012188774 0.11025493 0)
(-0.030531155 0.14975002 0)
(-0.052006726 0.17100873 0)
(-0.074448708 0.17896624 0)
(-0.096900273 0.17692274 0)
(-0.11889406 0.16657359 0)
(-0.14024914 0.14839783 0)
(-0.16084951 0.122143 0)
(-0.1804363 0.087278393 0)
(-0.19840065 0.043409855 0)
(-0.21353527 -0.009286905 0)
(-0.22400977 -0.06953705 0)
(-0.22707108 -0.13396369 0)
(-0.21906736 -0.19626037 0)
(-0.19623376 -0.24604512 0)
(-0.15618099 -0.26865371 0)
(-0.10067238 -0.24780588 0)
(-0.041127232 -0.17420883 0)
(-0.0062663174 -0.059789658 0)
(-0.0019983414 0.052988853 0)
(-0.011573534 0.12492193 0)
(-0.028676344 0.16883017 0)
(-0.048078187 0.19187502 0)
(-0.067665742 0.20013128 0)
(-0.086677657 0.19771716 0)
(-0.10493746 0.18681586 0)
(-0.12261995 0.16812009 0)
(-0.14002376 0.1413665 0)
(-0.15736544 0.10581044 0)
(-0.17458865 0.060631611 0)
(-0.19115856 0.0053260718 0)
(-0.2056721 -0.059791004 0)
(-0.21556389 -0.1324518 0)
(-0.21694086 -0.20735203 0)
(-0.2045953 -0.27412713 0)
(-0.17317128 -0.31552016 0)
(-0.12015497 -0.30789464 0)
(-0.054132936 -0.22974469 0)
(-0.0096703498 -0.084598882 0)
(-0.0021033454 0.059122698 0)
(-0.011431734 0.13866647 0)
(-0.02715118 0.18597109 0)
(-0.043678981 0.20972495 0)
(-0.059052187 0.21738762 0)
(-0.072864516 0.21401355 0)
(-0.085351449 0.20233377 0)
(-0.097116228 0.18330672 0)
(-0.10891537 0.15672318 0)
(-0.12148591 0.12170436 0)
(-0.13539449 0.077077068 0)
(-0.15084337 0.021713601 0)
(-0.16725619 -0.044990349 0)
(-0.18285989 -0.12237847 0)
(-0.19415118 -0.2069756 0)
(-0.19530353 -0.28995233 0)
(-0.17833064 -0.35341279 0)
(-0.13541401 -0.36726694 0)
(-0.06908288 -0.2940126 0)
(-0.014791098 -0.11792304 0)
(-0.0027728937 0.06557015 0)
(-0.012765593 0.15187095 0)
(-0.027383974 0.20081918 0)
(-0.040327968 0.2234848 0)
(-0.050038845 0.22913823 0)
(-0.056777234 0.22387227 0)
(-0.06138624 0.2109571 0)
(-0.064985411 0.19160773 0)
(-0.068801431 0.1656973 0)
(-0.074062356 0.13229736 0)
(-0.08191731 0.09002292 0)
(-0.093305942 0.037291169 0)
(-0.10864625 -0.027370101 0)
(-0.12737568 -0.10485819 0)
(-0.14719366 -0.19409795 0)
(-0.16291252 -0.28935869 0)
(-0.16516314 -0.37496358 0)
(-0.14093622 -0.4175853 0)
(-0.084067374 -0.36268663 0)
(-0.022009625 -0.16151075 0)
(-0.0047256979 0.073800576 0)
(-0.017252441 0.16562857 0)
(-0.031351656 0.21323429 0)
(-0.03978868 0.2320084 0)
(-0.04202361 0.2336393 0)
(-0.039520571 0.2252539 0)
(-0.034004826 0.21050786 0)
(-0.02720841 0.19074981 0)
(-0.020808853 0.16588206 0)
(-0.016434487 0.13496484 0)
(-0.015691872 0.096530442 0)
(-0.02013266 0.048773388 0)
(-0.031113158 -0.010316373 0)
(-0.049412472 -0.082820733 0)
(-0.074556241 -0.17004592 0)
(-0.1034063 -0.27040832 0)
(-0.12734975 -0.373599 0)
(-0.12979048 -0.44858503 0)
(-0.094933287 -0.42740568 0)
(-0.030931851 -0.21606998 0)
(-0.0093060068 0.08693566 0)
(-0.027463344 0.18179012 0)
(-0.041053602 0.22293004 0)
(-0.04279407 0.23366367 0)
(-0.034559109 0.22867428 0)
(-0.019808954 0.21581013 0)
(-0.0014487074 0.19869503 0)
(0.018120425 0.17851477 0)
(0.03684038 0.15507068 0)
(0.052826818 0.12738123 0)
(0.064201552 0.093986878 0)
(0.069024557 0.053085268 0)
(0.065225582 0.0025434682 0)
(0.050876476 -0.060257763 0)
(0.024492245 -0.13830143 0)
(-0.01382927 -0.23410497 0)
(-0.058853298 -0.34510886 0)
(-0.09357567 -0.44947668 0)
(-0.094497122 -0.47552036 0)
(-0.039220692 -0.2804371 0)
(-0.018584443 0.11087119 0)
(-0.046065165 0.20174673 0)
(-0.055292608 0.22786916 0)
(-0.04408803 0.22493318 0)
(-0.019514508 0.21052175 0)
(0.012158266 0.19219625 0)
(0.04679343 0.17271952 0)
(0.08153938 0.15261345 0)
(0.11421769 0.13134008 0)
(0.1429367 0.10780967 0)
(0.16581142 0.080628582 0)
(0.18079229 0.048165512 0)
(0.18540727 0.0085110825 0)
(0.17701789 -0.040755591 0)
(0.15263261 -0.10312114 0)
(0.10938278 -0.18386187 0)
(0.047154815 -0.28852002 0)
(-0.021499104 -0.41047798 0)
(-0.072280944 -0.49098088 0)
(-0.041153697 -0.35051419 0)
(-0.033352424 0.15562498 0)
(-0.068612858 0.22039919 0)
(-0.055223501 0.21726429 0)
(-0.016146155 0.19527771 0)
(0.034410236 0.17086787 0)
(0.088375612 0.14844044 0)
(0.14161102 0.12856794 0)
(0.19179418 0.11054799 0)
(0.2373578 0.09328593 0)
(0.2769385 0.075581464 0)
(0.30904597 0.056203666 0)
(0.33188701 0.033857259 0)
(0.34303962 0.0070679043 0)
(0.33971445 -0.025870053 0)
(0.31803947 -0.067706736 0)
(0.27320329 -0.12408202 0)
(0.20038931 -0.20583122 0)
(0.10209795 -0.32505718 0)
(-0.012408917 -0.45455876 0)
(-0.023762193 -0.4086292 0)
(-0.033078166 0.23908274 0)
(-0.042642115 0.21792643 0)
(0.042204037 0.16426088 0)
(0.12758305 0.12781912 0)
(0.20765233 0.10141202 0)
(0.2802098 0.081633357 0)
(0.34477746 0.066626702 0)
(0.40146919 0.054688372 0)
(0.45042635 0.044393403 0)
(0.49149421 0.034642736 0)
(0.52404193 0.024561139 0)
(0.54687958 0.013397715 0)
(0.55813261 0.00041803571 0)
(0.55563828 -0.015118934 0)
(0.5354741 -0.034953407 0)
(0.49241039 -0.062477358 0)
(0.41794793 -0.10694244 0)
(0.30408881 -0.19317376 0)
(0.12312789 -0.336918 0)
(0.052370953 -0.39437816 0)
(0.24300265 0.15257812 0)
(0.30530533 0.1185475 0)
(0.45482243 0.076109996 0)
(0.56001364 0.050838824 0)
(0.63222678 0.035122267 0)
(0.68652853 0.024807439 0)
(0.72940387 0.017955586 0)
(0.76375121 0.013252852 0)
(0.79122816 0.0097611886 0)
(0.81269962 0.0068555381 0)
(0.82836375 0.0041215265 0)
(0.83790442 0.001280988 0)
(0.84054184 -0.0018406326 0)
(0.83495843 -0.0053225473 0)
(0.81885938 -0.0098256932 0)
(0.78942773 -0.016230746 0)
(0.73784516 -0.026935126 0)
(0.65316991 -0.051286955 0)
(0.45609861 -0.11374683 0)
(0.31788991 -0.17206071 0)
)
;

boundaryField
{
    movingWall
    {
        type            fixedValue;
        value           uniform (1 0 0);
    }
    fixedWalls
    {
        type            fixedValue;
        value           uniform (0 0 0);
    }
    frontAndBack
    {
        type            empty;
    }
}


// ************************************************************************* //
