/*--------------------------------*- C++ -*----------------------------------*\
| =========                 |                                                 |
| \\      /  F ield         | OpenFOAM: The Open Source CFD Toolbox           |
|  \\    /   O peration     | Version:  2112                                  |
|   \\  /    A nd           | Website:  www.openfoam.com                      |
|    \\/     M anipulation  |                                                 |
\*---------------------------------------------------------------------------*/
FoamFile
{
    version     2.0;
    format      ascii;
    arch        "LSB;label=32;scalar=64";
    class       volVectorField;
    location    "13";
    object      U_0;
}
// * * * * * * * * * * * * * * * * * * * * * * * * * * * * * * * * * * * * * //

dimensions      [0 1 -1 0 0 0 0];

internalField   nonuniform List<vector> 
400
(
(0.00028365482 -0.00028062371 0)
(0.00010947728 8.0220116e-05 0)
(-0.0013265992 0.00047756469 0)
(-0.0036177235 0.00073493862 0)
(-0.0064148577 0.00086622094 0)
(-0.0094175976 0.00090582159 0)
(-0.012369075 0.00087340915 0)
(-0.015033028 0.00077022326 0)
(-0.017167747 0.00058752433 0)
(-0.018524308 0.00031965815 0)
(-0.018874405 -2.4548264e-05 0)
(-0.018060496 -0.00041726594 0)
(-0.016058842 -0.00079809358 0)
(-0.013033905 -0.0010911028 0)
(-0.0093578128 -0.0012192804 0)
(-0.0055748583 -0.001128026 0)
(-0.0023016284 -0.00081221052 0)
(-8.587773e-05 -0.00033817056 0)
(0.00075779025 0.00015142527 0)
(0.00040860555 0.00038852817 0)
(-8.6227561e-05 -0.00012238126 0)
(-0.0018668771 0.00178526 0)
(-0.0062966228 0.0036205437 0)
(-0.012431858 0.0048544929 0)
(-0.019566973 0.00548918 0)
(-0.027059874 0.005610992 0)
(-0.034299173 0.0052769802 0)
(-0.040698568 0.0044969509 0)
(-0.045680557 0.0032614214 0)
(-0.048695313 0.0015883619 0)
(-0.049288067 -0.00043273395 0)
(-0.047182275 -0.0026115022 0)
(-0.042391795 -0.0046546732 0)
(-0.035315575 -0.0062073227 0)
(-0.026747959 -0.0069261824 0)
(-0.017810647 -0.0065830295 0)
(-0.0097697291 -0.0051742004 0)
(-0.0037467337 -0.0029979782 0)
(-0.00039101632 -0.00066740128 0)
(0.00028878696 0.0007811962 0)
(-0.00058709954 0.0014324522 0)
(-0.0042349968 0.0063674069 0)
(-0.01173639 0.010622207 0)
(-0.021428051 0.013459699 0)
(-0.032305207 0.014871773 0)
(-0.043506719 0.014990944 0)
(-0.054187722 0.013912399 0)
(-0.063528135 0.011665699 0)
(-0.070731914 0.0082704011 0)
(-0.075061302 0.0038270952 0)
(-0.075916305 -0.0013972368 0)
(-0.072945056 -0.0069173205 0)
(-0.066170183 -0.01204582 0)
(-0.056093022 -0.01597018 0)
(-0.043726211 -0.017912891 0)
(-0.03053522 -0.017354783 0)
(-0.018233675 -0.014272966 0)
(-0.0084124806 -0.0093048406 0)
(-0.0021511691 -0.0037624087 0)
(-2.6608401e-06 0.00031361876 0)
(-0.0010508539 0.0042935073 0)
(-0.0065014438 0.013541368 0)
(-0.016964655 0.020825709 0)
(-0.029971049 0.025514253 0)
(-0.044214059 0.027711175 0)
(-0.058672101 0.027639268 0)
(-0.072352848 0.025445127 0)
(-0.084294841 0.021186414 0)
(-0.093566135 0.014927377 0)
(-0.099298391 0.0068775533 0)
(-0.10076938 -0.002484282 0)
(-0.097514766 -0.012344925 0)
(-0.089464182 -0.021558937 0)
(-0.077077271 -0.028770982 0)
(-0.0614265 -0.032651961 0)
(-0.044201064 -0.032252804 0)
(-0.027532395 -0.027411729 0)
(-0.013568973 -0.019062366 0)
(-0.0040235959 -0.0092665801 0)
(-0.00026793445 -0.0011112382 0)
(-0.0014526031 0.0083494488 0)
(-0.0085309168 0.023137011 0)
(-0.021701539 0.033987036 0)
(-0.037716992 0.040687136 0)
(-0.054990135 0.043622731 0)
(-0.072383533 0.043184267 0)
(-0.088823404 0.039597667 0)
(-0.1032786 0.032954554 0)
(-0.11474103 0.023359421 0)
(-0.12224263 0.011117154 0)
(-0.12492641 -0.0031024985 0)
(-0.12214423 -0.01816902 0)
(-0.11360595 -0.032472263 0)
(-0.099568233 -0.044051879 0)
(-0.080999522 -0.050883695 0)
(-0.059705327 -0.05136702 0)
(-0.038248006 -0.04495674 0)
(-0.019499823 -0.032721162 0)
(-0.0060865561 -0.017479233 0)
(-0.00051075236 -0.0035231493 0)
(-0.0017849818 0.01344887 0)
(-0.01024853 0.03489267 0)
(-0.025754417 0.049813385 0)
(-0.04438181 0.058686037 0)
(-0.064309137 0.062347633 0)
(-0.08432824 0.061448066 0)
(-0.10334158 0.056329802 0)
(-0.12030949 0.047120087 0)
(-0.13419851 0.033938219 0)
(-0.14396511 0.017133707 0)
(-0.14859933 -0.0025005845 0)
(-0.14720132 -0.023569558 0)
(-0.13913792 -0.044050309 0)
(-0.12428701 -0.061333475 0)
(-0.10331231 -0.072528922 0)
(-0.077968394 -0.075068771 0)
(-0.051204887 -0.067622151 0)
(-0.026780859 -0.051068635 0)
(-0.0086033581 -0.028940588 0)
(-0.0007862994 -0.007049723 0)
(-0.0020378789 0.019397783 0)
(-0.011583684 0.048434838 0)
(-0.028943285 0.067870613 0)
(-0.0496711 0.079083116 0)
(-0.071771695 0.083514309 0)
(-0.094012277 0.082166814 0)
(-0.11532575 0.075541386 0)
(-0.13472286 0.063799862 0)
(-0.15120048 0.047036588 0)
(-0.16367854 0.025569527 0)
(-0.17098934 0.00020616436 0)
(-0.17196105 -0.027529174 0)
(-0.16553779 -0.055283152 0)
(-0.1510353 -0.079810689 0)
(-0.12857031 -0.097207115 0)
(-0.099570355 -0.10356066 0)
(-0.067174817 -0.09617009 0)
(-0.036082952 -0.075138888 0)
(-0.011917527 -0.044498372 0)
(-0.0011694711 -0.011993797 0)
(-0.0021974863 0.025962695 0)
(-0.012464542 0.06330026 0)
(-0.031091609 0.087605332 0)
(-0.053274988 0.10131472 0)
(-0.076908004 0.1066036 0)
(-0.10077584 0.10491691 0)
(-0.12389265 0.096959912 0)
(-0.14537928 0.082931017 0)
(-0.16432837 0.062856231 0)
(-0.17969175 0.036932476 0)
(-0.19021718 0.0058445627 0)
(-0.19448023 -0.028940787 0)
(-0.19097168 -0.06488848 0)
(-0.17834036 -0.098234243 0)
(-0.15589567 -0.12400639 0)
(-0.12434113 -0.13659371 0)
(-0.086572797 -0.13118054 0)
(-0.048021368 -0.10612252 0)
(-0.016413954 -0.065331862 0)
(-0.0017517672 -0.018863694 0)
(-0.002252819 0.032872347 0)
(-0.012837898 0.078947347 0)
(-0.032060451 0.10834866 0)
(-0.054918024 0.12466061 0)
(-0.079246873 0.13089356 0)
(-0.10388552 0.12902102 0)
(-0.12797584 0.12000713 0)
(-0.15081015 0.10410092 0)
(-0.17165701 0.081227565 0)
(-0.18960323 0.051377003 0)
(-0.20343664 0.014967894 0)
(-0.21159336 -0.026776771 0)
(-0.21219494 -0.071392526 0)
(-0.20321552 -0.11485492 0)
(-0.18295105 -0.15125655 0)
(-0.15092217 -0.17309079 0)
(-0.10909227 -0.17264369 0)
(-0.062980777 -0.1451039 0)
(-0.022506823 -0.09289425 0)
(-0.0026561525 -0.028398697 0)
(-0.0022071297 0.039836462 0)
(-0.012707879 0.094787292 0)
(-0.031817648 0.12933371 0)
(-0.05445651 0.14823408 0)
(-0.078444034 0.15541748 0)
(-0.1027022 0.15347341 0)
(-0.12654402 0.14369177 0)
(-0.14949491 0.12640737 0)
(-0.17108866 0.10144008 0)
(-0.19067542 0.068519478 0)
(-0.20724961 0.027682259 0)
(-0.21930213 -0.020292321 0)
(-0.2248127 -0.073318849 0)
(-0.22123115 -0.12751288 0)
(-0.20577934 -0.17642174 0)
(-0.17640407 -0.2107834 0)
(-0.13328437 -0.21941342 0)
(-0.080855607 -0.19258789 0)
(-0.030622232 -0.12874584 0)
(-0.0040664398 -0.041603357 0)
(-0.0020935497 0.046592312 0)
(-0.012188768 0.11025404 0)
(-0.030531126 0.14974884 0)
(-0.052006665 0.17100746 0)
(-0.074448618 0.17896501 0)
(-0.096900165 0.17692166 0)
(-0.11889395 0.16657274 0)
(-0.14024905 0.14839727 0)
(-0.16084944 0.12214273 0)
(-0.18043625 0.087278425 0)
(-0.19840064 0.043410168 0)
(-0.21353526 -0.0092863452 0)
(-0.22400975 -0.06953629 0)
(-0.22707102 -0.13396276 0)
(-0.21906724 -0.19625933 0)
(-0.19623358 -0.246044 0)
(-0.15618078 -0.26865259 0)
(-0.1006722 -0.24780489 0)
(-0.041127133 -0.17420814 0)
(-0.0062662949 -0.059789423 0)
(-0.0019983524 0.052988478 0)
(-0.011573577 0.12492106 0)
(-0.028676425 0.16882901 0)
(-0.048078301 0.19187375 0)
(-0.067665888 0.20013005 0)
(-0.086677838 0.1977161 0)
(-0.10493768 0.18681504 0)
(-0.12262022 0.16811956 0)
(-0.14002408 0.14136626 0)
(-0.1573658 0.10581051 0)
(-0.17458905 0.060631937 0)
(-0.19115896 0.005326617 0)
(-0.20567248 -0.059790291 0)
(-0.21556421 -0.13245096 0)
(-0.21694108 -0.20735108 0)
(-0.2045954 -0.2741261 0)
(-0.17317127 -0.31551909 0)
(-0.12015489 -0.30789364 0)
(-0.05413286 -0.22974394 0)
(-0.0096703261 -0.084598591 0)
(-0.002103366 0.05912236 0)
(-0.011431825 0.13866566 0)
(-0.027151371 0.18596999 0)
(-0.043679271 0.20972374 0)
(-0.059052569 0.21738646 0)
(-0.072864985 0.21401256 0)
(-0.085351997 0.20233301 0)
(-0.097116849 0.18330624 0)
(-0.10891605 0.156723 0)
(-0.12148664 0.12170445 0)
(-0.13539525 0.077077402 0)
(-0.15084413 0.021714118 0)
(-0.16725692 -0.044989697 0)
(-0.18286055 -0.12237772 0)
(-0.19415172 -0.20697479 0)
(-0.19530391 -0.28995145 0)
(-0.17833084 -0.35341186 0)
(-0.13541406 -0.36726601 0)
(-0.069082851 -0.29401184 0)
(-0.014791077 -0.11792271 0)
(-0.0027729223 0.065569877 0)
(-0.012765726 0.15187026 0)
(-0.027384263 0.20081822 0)
(-0.040328416 0.22348372 0)
(-0.050039439 0.22913718 0)
(-0.056777958 0.22387138 0)
(-0.061387072 0.21095643 0)
(-0.064986328 0.19160733 0)
(-0.068802408 0.16569717 0)
(-0.074063369 0.13229749 0)
(-0.081918333 0.090023258 0)
(-0.09330695 0.037291661 0)
(-0.10864721 -0.027369512 0)
(-0.12737656 -0.10485755 0)
(-0.14719442 -0.19409729 0)
(-0.16291311 -0.28935799 0)
(-0.16516354 -0.37496284 0)
(-0.14093641 -0.41758453 0)
(-0.084067409 -0.36268594 0)
(-0.022009615 -0.16151041 0)
(-0.0047257312 0.073800391 0)
(-0.017252602 0.16562804 0)
(-0.031352017 0.21323351 0)
(-0.039789248 0.23200751 0)
(-0.042024366 0.23363842 0)
(-0.039521489 0.22525314 0)
(-0.034005869 0.21050729 0)
(-0.027209538 0.19074948 0)
(-0.020810028 0.16588197 0)
(-0.016435673 0.13496497 0)
(-0.015693039 0.096530761 0)
(-0.020133783 0.048773837 0)
(-0.031114214 -0.010315854 0)
(-0.049413442 -0.082820195 0)
(-0.074557098 -0.1700454 0)
(-0.10340701 -0.27040781 0)
(-0.12735027 -0.37359848 0)
(-0.12979079 -0.44858448 0)
(-0.094933391 -0.42740513 0)
(-0.030931858 -0.21606966 0)
(-0.009306039 0.086935573 0)
(-0.027463511 0.18178978 0)
(-0.041053988 0.22292949 0)
(-0.042794687 0.23366299 0)
(-0.03455994 0.22867359 0)
(-0.019809965 0.21580952 0)
(-0.0014498502 0.19869458 0)
(0.018119201 0.1785145 0)
(0.036839125 0.15507061 0)
(0.052825576 0.12738134 0)
(0.064200357 0.093987148 0)
(0.069023436 0.053085646 0)
(0.065224552 0.0025439018 0)
(0.050875545 -0.060257326 0)
(0.024491423 -0.13830102 0)
(-0.013829966 -0.23410461 0)
(-0.058853843 -0.34510853 0)
(-0.093576026 -0.44947634 0)
(-0.094497273 -0.47552 0)
(-0.039220718 -0.28043685 0)
(-0.018584464 0.11087119 0)
(-0.046065299 0.20174657 0)
(-0.055292941 0.22786883 0)
(-0.044088586 0.22493273 0)
(-0.019515277 0.21052126 0)
(0.012157314 0.1921958 0)
(0.046792342 0.17271917 0)
(0.081538209 0.15261323 0)
(0.11421649 0.13134001 0)
(0.14293552 0.10780974 0)
(0.1658103 0.080628777 0)
(0.18079127 0.048165795 0)
(0.18540635 0.0085114107 0)
(0.17701708 -0.040755261 0)
(0.15263191 -0.10312085 0)
(0.1093822 -0.18386163 0)
(0.047154345 -0.28851984 0)
(-0.021499432 -0.41047781 0)
(-0.072281098 -0.49098068 0)
(-0.041153731 -0.35051404 0)
(-0.033352424 0.15562504 0)
(-0.068612915 0.22039917 0)
(-0.05522369 0.21726415 0)
(-0.016146516 0.19527746 0)
(0.03440969 0.17086757 0)
(0.088374891 0.14844015 0)
(0.14161016 0.1285677 0)
(0.19179323 0.11054783 0)
(0.2373568 0.093285865 0)
(0.27693751 0.075581495 0)
(0.30904503 0.056203781 0)
(0.33188616 0.033857436 0)
(0.34303888 0.0070681174 0)
(0.33971383 -0.025869841 0)
(0.31803897 -0.067706551 0)
(0.27320288 -0.12408189 0)
(0.20038899 -0.20583114 0)
(0.10209772 -0.32505712 0)
(-0.012409036 -0.45455869 0)
(-0.023762223 -0.40862914 0)
(-0.033078149 0.2390828 0)
(-0.042642084 0.21792648 0)
(0.042204026 0.16426086 0)
(0.12758294 0.12781903 0)
(0.20765209 0.10141189 0)
(0.28020941 0.081633223 0)
(0.34477693 0.066626586 0)
(0.40146856 0.054688291 0)
(0.45042566 0.044393367 0)
(0.49149352 0.034642748 0)
(0.52404127 0.024561192 0)
(0.546879 0.013397797 0)
(0.55813212 0.00041813078 0)
(0.55563789 -0.015118838 0)
(0.53547382 -0.034953323 0)
(0.49241019 -0.062477301 0)
(0.41794779 -0.10694242 0)
(0.30408872 -0.19317376 0)
(0.12312784 -0.33691799 0)
(0.052370935 -0.39437815 0)
(0.24300267 0.15257814 0)
(0.30530539 0.11854753 0)
(0.45482249 0.076110009 0)
(0.56001367 0.050838817 0)
(0.63222674 0.035122246 0)
(0.68652841 0.024807412 0)
(0.72940367 0.01795556 0)
(0.76375095 0.013252834 0)
(0.79122788 0.0097611817 0)
(0.81269934 0.0068555433 0)
(0.82836349 0.0041215419 0)
(0.83790421 0.0012810096 0)
(0.84054169 -0.0018406139 0)
(0.83495834 -0.0053225274 0)
(0.81885934 -0.0098256755 0)
(0.78942772 -0.016230735 0)
(0.73784517 -0.026935123 0)
(0.65316992 -0.051286957 0)
(0.45609862 -0.11374684 0)
(0.31788991 -0.17206071 0)
)
;

boundaryField
{
    movingWall
    {
        type            fixedValue;
        value           uniform (1 0 0);
    }
    fixedWalls
    {
        type            fixedValue;
        value           uniform (0 0 0);
    }
    frontAndBack
    {
        type            empty;
    }
}


// ************************************************************************* //
