/*--------------------------------*- C++ -*----------------------------------*\
| =========                 |                                                 |
| \\      /  F ield         | OpenFOAM: The Open Source CFD Toolbox           |
|  \\    /   O peration     | Version:  2112                                  |
|   \\  /    A nd           | Website:  www.openfoam.com                      |
|    \\/     M anipulation  |                                                 |
\*---------------------------------------------------------------------------*/
FoamFile
{
    version     2.0;
    format      ascii;
    arch        "LSB;label=32;scalar=64";
    class       volScalarField;
    location    "45";
    object      T;
}
// * * * * * * * * * * * * * * * * * * * * * * * * * * * * * * * * * * * * * //

dimensions      [0 0 0 1 0 0 0];

internalField   nonuniform List<scalar> 
10000
(
0.998128
1.00296
0.998195
0.998943
0.999079
0.998989
0.998945
0.998192
1.00291
0.99816
0.990581
0.99705
0.992634
0.993929
0.994205
0.99413
0.993929
0.992615
0.996857
0.99071
0.991779
0.996163
0.993164
0.993959
0.994188
0.994251
0.993982
0.993194
0.996057
0.991808
0.994611
0.997362
0.99549
0.995743
0.995826
0.995917
0.995791
0.995563
0.997474
0.994558
0.99588
0.997763
0.996805
0.996901
0.996922
0.996973
0.996943
0.99685
0.997937
0.995877
0.996438
0.997717
0.997262
0.997353
0.997371
0.997401
0.997385
0.997286
0.997826
0.996438
0.996936
0.99777
0.997532
0.997628
0.997651
0.997668
0.997646
0.997546
0.997803
0.996911
0.997323
0.997862
0.997751
0.99784
0.997871
0.997876
0.997846
0.997752
0.997872
0.997306
0.997565
0.997921
0.997879
0.997961
0.997995
0.997994
0.997961
0.997874
0.997925
0.997551
0.997706
0.997949
0.997945
0.998015
0.998047
0.998044
0.998011
0.997935
0.997952
0.997693
0.997783
0.997947
0.99795
0.998022
0.998038
0.998049
0.998022
0.997937
0.997972
0.997734
0.997814
0.997926
0.997922
0.998001
0.997997
0.998026
0.998003
0.997905
0.997972
0.997715
0.997799
0.997891
0.997897
0.997957
0.997962
0.997976
0.997952
0.997873
0.997907
0.997731
0.99773
0.997816
0.997829
0.997879
0.997891
0.997898
0.997871
0.997805
0.997803
0.997699
0.997574
0.997719
0.997728
0.997761
0.997792
0.997761
0.997724
0.997695
0.997661
0.9976
0.997299
0.99755
0.997539
0.997577
0.997624
0.99755
0.997504
0.997492
0.997456
0.99737
0.997011
0.997212
0.997222
0.997302
0.99734
0.997306
0.997263
0.997177
0.997124
0.997058
0.996657
0.996728
0.996816
0.996899
0.996927
0.996951
0.996903
0.996773
0.996624
0.996707
0.995965
0.996092
0.996238
0.996313
0.99635
0.996377
0.996312
0.996198
0.995965
0.996079
0.994918
0.995242
0.995443
0.995519
0.995625
0.995606
0.995523
0.995426
0.995055
0.995262
0.993649
0.994044
0.994329
0.994489
0.994646
0.994643
0.99455
0.994381
0.993887
0.994222
0.99185
0.992341
0.992737
0.99305
0.993255
0.993336
0.993236
0.992945
0.992337
0.992706
0.989113
0.989945
0.990494
0.990977
0.991324
0.991499
0.991425
0.991053
0.990177
0.990643
0.985164
0.986488
0.987282
0.988034
0.98863
0.988989
0.98902
0.988594
0.987271
0.98789
0.979416
0.981419
0.982611
0.983783
0.984782
0.985501
0.985801
0.985422
0.983408
0.984105
0.970867
0.973824
0.975631
0.977432
0.979076
0.980449
0.981359
0.981378
0.978447
0.978846
0.957893
0.962148
0.964861
0.96756
0.970187
0.972659
0.974777
0.976021
0.972104
0.970757
0.937978
0.943891
0.947798
0.951669
0.955671
0.959879
0.964282
0.96897
0.966952
0.961895
0.907412
0.915196
0.920424
0.925529
0.931103
0.937532
0.945088
0.955786
0.961831
0.952426
0.861376
0.870842
0.876962
0.882789
0.889608
0.89845
0.910855
0.933791
0.988307
1.02587
1.00288
1.0083
1.00333
1.00423
1.00442
1.00441
1.00423
1.00336
1.00821
1.0029
0.996785
1.00553
1.00108
1.00251
1.0029
1.00294
1.00251
1.0012
1.00547
0.99683
0.996163
1.00292
1.00037
1.00099
1.00123
1.0012
1.00098
1.00045
1.00303
0.996075
0.997489
1.00149
1.00004
1.00007
1.00009
0.999995
1.00002
0.999967
1.00142
0.997541
0.997934
1.00013
0.9993
0.999199
0.99916
0.999097
0.99916
0.999208
1
0.998014
0.997826
0.999139
0.998755
0.998667
0.998613
0.998585
0.998647
0.998703
0.999115
0.997886
0.997776
0.998587
0.99847
0.998413
0.998368
0.998358
0.998406
0.998449
0.998664
0.997842
0.997841
0.99837
0.998326
0.998296
0.998268
0.998265
0.998294
0.998321
0.998439
0.997897
0.997903
0.998267
0.998245
0.998233
0.998222
0.99822
0.998234
0.998248
0.998311
0.997943
0.997937
0.998197
0.998187
0.998187
0.99819
0.998187
0.998189
0.998192
0.998223
0.997969
0.997953
0.998142
0.998175
0.998156
0.998192
0.998162
0.998153
0.998176
0.998172
0.998003
0.997955
0.998094
0.998177
0.998122
0.998202
0.998129
0.998115
0.998176
0.99813
0.998024
0.997914
0.998018
0.998084
0.998055
0.998113
0.998065
0.998051
0.998077
0.998036
0.997962
0.997822
0.997915
0.997962
0.997963
0.997991
0.997968
0.997953
0.997944
0.997905
0.997859
0.997697
0.997784
0.997775
0.997819
0.99781
0.997854
0.997839
0.99775
0.997726
0.99771
0.997478
0.997622
0.997557
0.997625
0.997574
0.997712
0.997691
0.997523
0.9975
0.997518
0.997093
0.997376
0.99735
0.997356
0.997325
0.997387
0.99735
0.997281
0.99718
0.99723
0.996625
0.996873
0.996946
0.996961
0.996984
0.99692
0.996862
0.996835
0.996685
0.996761
0.996045
0.996252
0.996389
0.99646
0.996524
0.996435
0.996362
0.996246
0.996071
0.996186
0.995173
0.995516
0.995598
0.995758
0.995762
0.995776
0.995686
0.995419
0.995221
0.995393
0.993795
0.994307
0.994443
0.994642
0.994665
0.994721
0.994598
0.994254
0.993917
0.994277
0.991849
0.992618
0.992925
0.993111
0.993268
0.993285
0.993147
0.992798
0.992209
0.992846
0.989228
0.990382
0.990822
0.991108
0.991387
0.991475
0.991349
0.990906
0.990056
0.990982
0.985471
0.987189
0.98781
0.988291
0.988759
0.989021
0.988973
0.988421
0.987185
0.988472
0.979972
0.982484
0.983399
0.984191
0.98499
0.985583
0.985766
0.985185
0.983349
0.984982
0.971782
0.975383
0.976757
0.978034
0.979388
0.980586
0.98133
0.981028
0.978387
0.980073
0.959319
0.964388
0.966436
0.96842
0.970639
0.972865
0.974773
0.975533
0.971921
0.972247
0.940088
0.946996
0.949931
0.952834
0.956269
0.960119
0.964197
0.968149
0.966664
0.963854
0.91028
0.919241
0.923118
0.926949
0.931762
0.937682
0.944674
0.955057
0.95947
0.954015
0.864736
0.875503
0.879868
0.884065
0.889868
0.897953
0.909359
0.933147
0.989036
1.01815
0.998207
1.00337
0.998075
0.998867
0.999053
0.99907
0.998844
0.998073
1.00337
0.998191
0.992632
1.00115
0.996224
0.997543
0.997988
0.998061
0.997574
0.996349
1.00122
0.992603
0.993182
1.00039
0.997464
0.997966
0.998287
0.998321
0.998025
0.997609
1.00043
0.993201
0.995502
1.00002
0.998681
0.998685
0.998797
0.998798
0.998716
0.998707
0.999911
0.995614
0.996807
0.999261
0.998795
0.998768
0.998787
0.998782
0.998778
0.998774
0.999153
0.996921
0.997267
0.998728
0.998661
0.998667
0.99865
0.998644
0.998666
0.998627
0.998669
0.997356
0.997544
0.998459
0.998534
0.998562
0.998547
0.998541
0.998555
0.998498
0.998433
0.9976
0.997763
0.998326
0.998421
0.998461
0.998458
0.998454
0.998452
0.998394
0.998314
0.997791
0.997888
0.998247
0.998331
0.998374
0.998382
0.99838
0.998367
0.998314
0.998243
0.997907
0.997945
0.998187
0.998258
0.998299
0.998314
0.998313
0.998295
0.998249
0.998188
0.99796
0.997967
0.998135
0.998197
0.99823
0.998253
0.998249
0.998229
0.998191
0.998136
0.997978
0.997963
0.998081
0.998138
0.998162
0.998191
0.998183
0.998162
0.998131
0.99808
0.997975
0.997921
0.998013
0.998065
0.998086
0.998113
0.998106
0.998086
0.998055
0.998007
0.99794
0.997833
0.997923
0.997972
0.997994
0.998014
0.998005
0.997985
0.997954
0.997905
0.997873
0.997692
0.997792
0.997833
0.997864
0.997873
0.997868
0.997845
0.997804
0.997758
0.997756
0.997481
0.997608
0.997638
0.997677
0.99768
0.997684
0.997653
0.997596
0.997545
0.997575
0.997172
0.997331
0.997367
0.997403
0.997415
0.997419
0.997379
0.997311
0.997238
0.99731
0.996719
0.996911
0.996979
0.997015
0.997041
0.997037
0.996991
0.996906
0.9968
0.996929
0.996075
0.996342
0.996444
0.99649
0.996524
0.996515
0.996459
0.996347
0.996206
0.996414
0.995177
0.995565
0.995699
0.995775
0.995814
0.995813
0.995741
0.995583
0.995393
0.995717
0.993907
0.994471
0.99466
0.994774
0.994842
0.994856
0.994765
0.994549
0.994272
0.994775
0.992119
0.992943
0.993214
0.993379
0.993511
0.993553
0.993451
0.99317
0.992754
0.993517
0.989587
0.990788
0.991184
0.99144
0.991672
0.991786
0.991697
0.991335
0.990711
0.991823
0.985944
0.987713
0.988294
0.988708
0.989112
0.989376
0.989359
0.988922
0.987972
0.989512
0.980642
0.983235
0.984095
0.984769
0.985465
0.986025
0.986216
0.985773
0.984305
0.986251
0.972779
0.976511
0.977797
0.97888
0.980059
0.981163
0.981862
0.981688
0.979512
0.981579
0.960845
0.966103
0.967995
0.969672
0.971597
0.973626
0.975373
0.976195
0.973226
0.974024
0.942373
0.949543
0.95221
0.954643
0.957604
0.961059
0.964764
0.968589
0.967967
0.966337
0.913483
0.922813
0.926239
0.929368
0.933454
0.938659
0.944989
0.95486
0.960283
0.957094
0.868637
0.879925
0.883582
0.886771
0.891502
0.898436
0.908684
0.931062
0.98877
1.02305
0.998956
1.00425
0.998854
0.999669
0.999874
0.999876
0.999649
0.998835
1.00425
0.998936
0.993942
1.00252
0.997519
0.998789
0.999232
0.999258
0.998793
0.99758
1.00256
0.993878
0.993991
1.00098
0.997964
0.998334
0.998627
0.998651
0.998365
0.998063
1.00097
0.993979
0.995755
1.00006
0.998699
0.998594
0.998676
0.998688
0.998622
0.998734
0.999949
0.995867
0.99691
0.999192
0.998777
0.9987
0.998695
0.998698
0.998715
0.998774
0.999093
0.997041
0.997369
0.998657
0.998667
0.998677
0.998652
0.998653
0.998685
0.998651
0.998601
0.997476
0.997636
0.998405
0.99856
0.998623
0.998613
0.998613
0.998625
0.99854
0.99838
0.997716
0.997839
0.99829
0.998458
0.99854
0.998549
0.998548
0.998538
0.998443
0.998283
0.997895
0.997956
0.998232
0.998373
0.998453
0.998474
0.998473
0.99845
0.998363
0.998229
0.997999
0.998009
0.99819
0.998303
0.998373
0.998399
0.998399
0.998371
0.998296
0.998189
0.998046
0.998028
0.998148
0.998242
0.998299
0.998327
0.998325
0.998296
0.998235
0.998151
0.998058
0.998018
0.998101
0.998179
0.998224
0.998251
0.998247
0.998221
0.998173
0.998104
0.998046
0.997971
0.998037
0.998102
0.998139
0.998163
0.998159
0.998136
0.998093
0.998036
0.998007
0.99788
0.997948
0.998001
0.998034
0.998055
0.998051
0.998029
0.997989
0.997937
0.997933
0.997735
0.997819
0.997862
0.997895
0.997912
0.99791
0.997888
0.997845
0.997795
0.997814
0.997524
0.997631
0.997672
0.997705
0.99772
0.997722
0.997696
0.997646
0.997592
0.997638
0.997219
0.997355
0.997409
0.997441
0.997457
0.997458
0.997426
0.997369
0.997303
0.997386
0.996783
0.996959
0.997034
0.99707
0.997093
0.99709
0.997051
0.996979
0.996892
0.997029
0.996168
0.996413
0.996512
0.996558
0.99659
0.996587
0.996538
0.996441
0.996327
0.996541
0.995299
0.995656
0.995785
0.995851
0.995896
0.995899
0.995838
0.995706
0.995549
0.995878
0.994062
0.994595
0.994771
0.994871
0.994943
0.994962
0.994886
0.994706
0.994475
0.994977
0.992317
0.993119
0.993368
0.993517
0.99364
0.99369
0.993607
0.993367
0.993016
0.993768
0.989871
0.991042
0.991411
0.991641
0.991851
0.991969
0.991899
0.991588
0.991048
0.992134
0.986372
0.988085
0.988635
0.989
0.989364
0.989622
0.989618
0.989238
0.988396
0.989892
0.981284
0.983801
0.984601
0.985192
0.985817
0.986347
0.986533
0.986147
0.984815
0.9867
0.973742
0.97737
0.97855
0.979496
0.980547
0.981576
0.982228
0.982094
0.980089
0.982091
0.962269
0.967396
0.969113
0.970562
0.972265
0.974135
0.975749
0.976562
0.973895
0.974716
0.944418
0.951431
0.953817
0.955885
0.958479
0.96163
0.965071
0.968824
0.968521
0.967221
0.916217
0.925372
0.928371
0.930948
0.934448
0.939091
0.944887
0.954239
0.960227
0.958193
0.871769
0.882909
0.885952
0.888358
0.89223
0.898257
0.907578
0.929124
0.987691
1.0242
0.998948
1.00449
0.999069
0.999827
1.00004
1.00004
0.999813
0.999057
1.0045
0.998933
0.994057
1.00301
0.998052
0.999243
0.999664
0.999675
0.999246
0.998105
1.00306
0.994013
0.994331
1.00105
0.998283
0.998647
0.998934
0.998949
0.998672
0.998375
1.00106
0.994326
0.995938
0.999944
0.998775
0.998652
0.998726
0.998739
0.998679
0.998816
0.999865
0.996041
0.996972
0.999093
0.998768
0.998676
0.998657
0.998664
0.99869
0.99877
0.999011
0.997103
0.997396
0.998586
0.998636
0.998643
0.998609
0.998612
0.998652
0.998623
0.998534
0.997515
0.997661
0.998357
0.998537
0.998609
0.998595
0.998597
0.998613
0.998522
0.998332
0.997751
0.997865
0.998264
0.99845
0.998547
0.998557
0.998557
0.998548
0.998442
0.998255
0.997933
0.997982
0.998229
0.998376
0.998473
0.998497
0.998497
0.998473
0.998372
0.998218
0.998038
0.99804
0.998197
0.998317
0.9984
0.99843
0.99843
0.998399
0.998312
0.998189
0.998082
0.998061
0.998154
0.998263
0.998327
0.998357
0.998357
0.998325
0.998254
0.998158
0.998093
0.998046
0.998111
0.9982
0.998251
0.998278
0.998277
0.998247
0.99819
0.998114
0.99808
0.997995
0.998047
0.99812
0.998163
0.998187
0.998186
0.99816
0.998111
0.998049
0.998036
0.997901
0.997958
0.998014
0.998054
0.998076
0.998075
0.998051
0.998008
0.997953
0.99796
0.997754
0.997839
0.997873
0.997913
0.997934
0.997933
0.997909
0.997866
0.997814
0.997842
0.997545
0.997659
0.99769
0.997725
0.997744
0.997743
0.997717
0.997671
0.997616
0.997669
0.997252
0.997381
0.997437
0.997465
0.997482
0.997481
0.997451
0.997398
0.997335
0.997424
0.996829
0.996988
0.997072
0.9971
0.997122
0.99712
0.997083
0.997015
0.996936
0.997078
0.996222
0.996454
0.996557
0.996595
0.996625
0.996624
0.996578
0.996488
0.996383
0.996601
0.995367
0.99571
0.995837
0.995897
0.995941
0.995946
0.995889
0.995766
0.995619
0.995951
0.994142
0.994698
0.994843
0.994933
0.995002
0.99502
0.994951
0.994785
0.994568
0.995069
0.992418
0.993296
0.993471
0.993602
0.993717
0.993767
0.993689
0.993466
0.993136
0.993883
0.990052
0.991217
0.991549
0.991757
0.991953
0.992069
0.992004
0.99171
0.991196
0.992274
0.986648
0.988288
0.988828
0.989162
0.989501
0.989751
0.989746
0.989384
0.988568
0.990059
0.98166
0.984151
0.984879
0.98542
0.986002
0.986509
0.986684
0.986312
0.98501
0.986888
0.974298
0.977868
0.978954
0.97982
0.980796
0.981777
0.982395
0.982266
0.980299
0.982299
0.963078
0.968109
0.969701
0.971016
0.972594
0.974374
0.975913
0.976708
0.97411
0.974963
0.945571
0.952431
0.954642
0.956504
0.958892
0.961873
0.965163
0.968849
0.968656
0.967501
0.917733
0.926693
0.929444
0.931704
0.934881
0.939235
0.944774
0.953943
0.960033
0.958425
0.873442
0.884425
0.887093
0.889049
0.892452
0.898019
0.906909
0.927937
0.986559
1.02325
0.999089
1.00442
0.999042
0.999864
1.00008
1.00008
0.99985
0.99903
1.00443
0.999071
0.994204
1.00289
0.997967
0.999219
0.999661
0.999668
0.999221
0.998021
1.00295
0.99414
0.994174
1.00125
0.9983
0.998629
0.998914
0.998926
0.998652
0.998387
1.00126
0.994156
0.995816
1.00012
0.998815
0.998684
0.998754
0.998766
0.998707
0.99885
1.00003
0.995921
0.996926
0.999173
0.998791
0.998697
0.998677
0.998684
0.998709
0.99879
0.999086
0.99706
0.997377
0.998619
0.998648
0.998653
0.998616
0.99862
0.99866
0.998634
0.998562
0.997501
0.997651
0.998374
0.998542
0.998613
0.998598
0.9986
0.998616
0.998526
0.99834
0.997749
0.997843
0.998303
0.998453
0.998548
0.998558
0.998559
0.998549
0.998441
0.998256
0.997934
0.997945
0.998307
0.998383
0.998475
0.998499
0.998498
0.998473
0.998371
0.998218
0.998039
0.998038
0.998219
0.998321
0.998402
0.998431
0.99843
0.998399
0.998311
0.998189
0.998084
0.998087
0.998104
0.998261
0.998327
0.998357
0.998357
0.998325
0.998252
0.998158
0.998094
0.99806
0.998071
0.998196
0.99825
0.998277
0.998276
0.998247
0.998188
0.998114
0.998079
0.998002
0.998029
0.998115
0.998162
0.998186
0.998185
0.99816
0.998111
0.998049
0.998036
0.997892
0.997983
0.998013
0.998055
0.998076
0.998075
0.998051
0.998008
0.997953
0.99796
0.99771
0.997939
0.997884
0.997918
0.997936
0.997933
0.997909
0.997867
0.997816
0.997843
0.997506
0.997752
0.997702
0.99773
0.997746
0.997743
0.997717
0.997671
0.997618
0.997671
0.997265
0.997353
0.997438
0.997466
0.997484
0.997482
0.997452
0.997398
0.997336
0.997427
0.996869
0.996894
0.997065
0.997099
0.997123
0.997122
0.997086
0.997018
0.996939
0.997081
0.996249
0.996388
0.996546
0.996593
0.996625
0.996626
0.996581
0.996491
0.996385
0.996603
0.995376
0.995684
0.99583
0.995895
0.995941
0.995947
0.99589
0.995769
0.99562
0.995954
0.994156
0.994667
0.994841
0.994933
0.995003
0.995023
0.994954
0.994789
0.994572
0.995075
0.992454
0.99323
0.993471
0.993604
0.993721
0.993772
0.993695
0.993473
0.993144
0.99389
0.990067
0.991199
0.991557
0.991762
0.99196
0.992076
0.99201
0.991716
0.991204
0.99228
0.986649
0.988319
0.98884
0.989171
0.989509
0.989758
0.989754
0.989393
0.988578
0.990065
0.981683
0.984144
0.984895
0.985434
0.986013
0.98652
0.986694
0.986324
0.985022
0.986896
0.97432
0.977879
0.978979
0.979837
0.980813
0.981794
0.982411
0.982281
0.98032
0.982321
0.96311
0.968152
0.969739
0.971045
0.972622
0.9744
0.975939
0.976731
0.97412
0.974966
0.945614
0.952523
0.954708
0.956555
0.958937
0.961911
0.965181
0.968829
0.968708
0.967716
0.917807
0.926849
0.929552
0.931799
0.934972
0.939327
0.944884
0.954161
0.960096
0.958007
0.873588
0.884628
0.887272
0.889218
0.892617
0.898186
0.907089
0.928095
0.986961
1.02449
0.99893
1.00425
0.99886
0.999652
0.999853
0.99985
0.999636
0.998842
1.00425
0.998911
0.993891
1.00254
0.997556
0.998792
0.999227
0.99923
0.998789
0.997599
1.00259
0.993825
0.993947
1.00101
0.998004
0.998353
0.99864
0.99865
0.998371
0.998086
1.00101
0.993922
0.995777
1.00004
0.998702
0.998609
0.998691
0.998701
0.998628
0.998733
0.999946
0.995875
0.996936
0.999173
0.998766
0.998704
0.998699
0.998704
0.998713
0.998764
0.99908
0.997069
0.997378
0.998653
0.998659
0.998679
0.998655
0.998659
0.998684
0.998644
0.998594
0.997498
0.997635
0.998411
0.998552
0.998623
0.998615
0.998616
0.998624
0.998533
0.998375
0.99773
0.997826
0.998303
0.998448
0.998538
0.998549
0.998549
0.998537
0.998435
0.99828
0.997903
0.997943
0.998251
0.998365
0.998451
0.998473
0.998472
0.998448
0.998356
0.998229
0.998002
0.998005
0.998202
0.998302
0.998373
0.9984
0.998398
0.99837
0.998291
0.99819
0.998049
0.99803
0.99815
0.998245
0.998301
0.998327
0.998325
0.998296
0.998232
0.998152
0.998063
0.998024
0.998101
0.998182
0.998226
0.99825
0.998249
0.998222
0.99817
0.998105
0.998051
0.997976
0.998036
0.998102
0.998141
0.998162
0.998162
0.998137
0.998092
0.998037
0.99801
0.997875
0.997949
0.997996
0.998035
0.998054
0.998053
0.99803
0.997989
0.997939
0.997936
0.997721
0.997836
0.997858
0.997896
0.997915
0.997912
0.997889
0.997848
0.997798
0.997817
0.997512
0.997651
0.997675
0.997708
0.997725
0.997722
0.997696
0.99765
0.997595
0.997642
0.997226
0.997359
0.997417
0.997445
0.997463
0.997459
0.997428
0.997372
0.997305
0.997391
0.996807
0.996954
0.997045
0.997076
0.997099
0.997095
0.997056
0.996984
0.996899
0.997038
0.996171
0.99644
0.996522
0.996564
0.996595
0.996593
0.996544
0.996448
0.996335
0.996548
0.995269
0.995736
0.995797
0.995859
0.995904
0.995906
0.995843
0.995715
0.995555
0.995881
0.994061
0.994626
0.994787
0.994881
0.994953
0.99497
0.994895
0.99472
0.994486
0.994984
0.992362
0.993075
0.993387
0.99353
0.993653
0.993703
0.99362
0.993384
0.993036
0.99378
0.989919
0.991011
0.991432
0.991658
0.991869
0.991987
0.991917
0.991607
0.991073
0.992151
0.986418
0.988088
0.988661
0.989025
0.989387
0.989646
0.989641
0.989264
0.988423
0.989919
0.981338
0.983826
0.984639
0.985229
0.985851
0.986379
0.986564
0.986183
0.984849
0.986733
0.973814
0.977425
0.97861
0.979551
0.980598
0.981622
0.98227
0.982141
0.98014
0.982133
0.96238
0.967494
0.969208
0.97065
0.972346
0.974208
0.975815
0.976628
0.973955
0.974759
0.944594
0.951602
0.953977
0.956035
0.958616
0.961746
0.965151
0.968908
0.968606
0.967297
0.916506
0.925668
0.92865
0.931216
0.934699
0.939314
0.945056
0.954422
0.960318
0.958148
0.872238
0.883399
0.886433
0.888833
0.892689
0.89869
0.907947
0.929404
0.987905
1.02416
0.998197
1.00336
0.998081
0.998856
0.99905
0.999048
0.998842
0.998068
1.00337
0.998178
0.992608
1.00118
0.996332
0.997575
0.998009
0.998018
0.997591
0.996403
1.00127
0.992555
0.993175
1.00044
0.997588
0.998041
0.998352
0.998368
0.998079
0.997704
1.0005
0.993161
0.995539
0.999987
0.998691
0.99871
0.99882
0.998829
0.998727
0.998725
0.999883
0.99563
0.996823
0.999215
0.998761
0.998756
0.998774
0.998778
0.99876
0.998752
0.999101
0.996946
0.997265
0.998701
0.998619
0.998643
0.99863
0.998631
0.998642
0.998591
0.998622
0.997372
0.997534
0.998455
0.998493
0.998539
0.998527
0.998526
0.998533
0.998461
0.998398
0.997608
0.997732
0.998324
0.99839
0.998443
0.998443
0.998442
0.998436
0.998363
0.998292
0.997792
0.997856
0.998253
0.998316
0.998364
0.998374
0.998371
0.998357
0.998295
0.998232
0.997903
0.997933
0.998205
0.998257
0.998299
0.998314
0.998312
0.998292
0.99824
0.998186
0.997963
0.997967
0.998146
0.998202
0.998239
0.998255
0.998254
0.998233
0.998188
0.998142
0.997992
0.997969
0.998088
0.998148
0.998176
0.998192
0.99819
0.99817
0.998132
0.998089
0.997992
0.997929
0.998017
0.998073
0.998099
0.998115
0.998114
0.998094
0.998058
0.998015
0.997959
0.997839
0.997927
0.997968
0.997999
0.998015
0.998013
0.997992
0.997955
0.997911
0.997887
0.9977
0.997814
0.99783
0.997863
0.997878
0.997875
0.997851
0.997811
0.997761
0.997769
0.997484
0.997626
0.997642
0.997674
0.997689
0.997684
0.997655
0.997607
0.997549
0.997588
0.997172
0.997328
0.99738
0.997408
0.997424
0.997417
0.99738
0.99732
0.997245
0.997321
0.996734
0.996908
0.996998
0.99703
0.997052
0.997044
0.996999
0.996916
0.996816
0.996946
0.996097
0.996353
0.996456
0.996505
0.996537
0.996529
0.996471
0.996359
0.996222
0.996429
0.995189
0.995593
0.995707
0.99578
0.995829
0.995824
0.995749
0.995597
0.995404
0.995727
0.993916
0.994492
0.994674
0.994778
0.994856
0.994864
0.994773
0.994566
0.994287
0.994785
0.992137
0.992947
0.993236
0.993391
0.993522
0.993564
0.993463
0.993185
0.992776
0.993525
0.989618
0.990799
0.991214
0.991464
0.991693
0.991808
0.991718
0.991358
0.990742
0.991837
0.985991
0.98774
0.988338
0.988749
0.989148
0.989414
0.989396
0.988961
0.988014
0.989549
0.980712
0.983284
0.984158
0.984832
0.985522
0.98608
0.98627
0.985832
0.984361
0.986314
0.972885
0.976602
0.977893
0.978973
0.980145
0.981244
0.981938
0.981769
0.979595
0.981682
0.961011
0.966258
0.968148
0.969816
0.97173
0.97375
0.975488
0.976311
0.973335
0.97418
0.942637
0.949805
0.952464
0.954882
0.957825
0.961255
0.964923
0.968756
0.968151
0.966645
0.913918
0.923252
0.92667
0.929784
0.933846
0.93902
0.945312
0.955255
0.960549
0.957304
0.869344
0.880654
0.884309
0.887491
0.892201
0.899105
0.90925
0.931722
0.989498
1.02343
1.0029
1.0082
1.00335
1.00423
1.00441
1.00441
1.00424
1.00337
1.00823
1.00288
0.996835
1.00544
1.00118
1.00253
1.00292
1.00293
1.00256
1.00126
1.00556
0.996773
0.99603
1.00309
1.00042
1.00099
1.00128
1.00128
1.00101
1.0005
1.0031
0.995999
0.99742
1.00155
0.999923
0.999977
1.00006
1.00006
0.999953
0.999888
1.0013
0.99752
0.997924
1.00005
0.999152
0.999108
0.999109
0.999103
0.999084
0.999104
0.999882
0.998038
0.997854
0.999098
0.998662
0.998608
0.998575
0.998572
0.998594
0.998623
0.999053
0.997934
0.997792
0.998711
0.998434
0.998387
0.99835
0.998347
0.998377
0.998397
0.998641
0.997885
0.997891
0.998458
0.998316
0.998288
0.998261
0.998259
0.998281
0.998291
0.998433
0.997926
0.99799
0.99831
0.99825
0.998234
0.998221
0.99822
0.998229
0.998231
0.998312
0.997962
0.997942
0.998276
0.998202
0.998196
0.998193
0.998192
0.99819
0.998186
0.998228
0.99798
0.997927
0.998143
0.99815
0.998157
0.998162
0.99816
0.998153
0.998143
0.998161
0.997986
0.997961
0.998007
0.998099
0.998108
0.998117
0.998117
0.998107
0.998091
0.99809
0.99797
0.997925
0.997954
0.998029
0.998043
0.998054
0.998054
0.998041
0.998017
0.998001
0.997926
0.997838
0.997935
0.997933
0.997953
0.997965
0.997961
0.997944
0.997913
0.997881
0.997843
0.997674
0.997913
0.997804
0.997826
0.997835
0.997828
0.997804
0.997765
0.997717
0.997707
0.997409
0.997689
0.997608
0.997638
0.997648
0.997637
0.997605
0.997553
0.997485
0.9975
0.997107
0.997233
0.997328
0.997361
0.997376
0.997364
0.997323
0.997251
0.997157
0.997204
0.996705
0.996741
0.99693
0.996969
0.996993
0.99698
0.996927
0.996827
0.996697
0.996786
0.996058
0.996246
0.996378
0.996431
0.996465
0.99645
0.996379
0.996242
0.996058
0.996205
0.995115
0.995545
0.995611
0.995688
0.995739
0.995724
0.995629
0.99544
0.995177
0.995413
0.993787
0.99435
0.994529
0.994652
0.994736
0.994733
0.994615
0.994355
0.993976
0.994352
0.99194
0.992662
0.993022
0.993211
0.993359
0.993391
0.993257
0.992908
0.992354
0.992935
0.989336
0.990432
0.99091
0.991208
0.991468
0.991577
0.991454
0.990996
0.990176
0.991049
0.985587
0.987249
0.987896
0.988383
0.988836
0.989107
0.98906
0.988502
0.987274
0.988518
0.980107
0.982567
0.983498
0.984293
0.985079
0.985671
0.985851
0.985272
0.98342
0.985005
0.97195
0.975512
0.976892
0.978164
0.979505
0.980694
0.981429
0.981132
0.978458
0.980076
0.959566
0.964595
0.966641
0.96861
0.970812
0.973027
0.974905
0.975669
0.971981
0.972217
0.940465
0.947329
0.95026
0.953145
0.956557
0.96037
0.964379
0.968363
0.966776
0.963922
0.910883
0.919796
0.923664
0.927484
0.932266
0.938125
0.945069
0.955538
0.959424
0.953609
0.865679
0.876407
0.880774
0.884972
0.890732
0.898761
0.910013
0.934041
0.989148
1.01841
0.998171
1.0029
0.998205
0.998933
0.999073
0.999069
0.99892
0.998186
1.00289
0.998174
0.990751
0.996841
0.992608
0.993859
0.994128
0.994119
0.99383
0.992567
0.996778
0.990742
0.991771
0.996079
0.99317
0.993917
0.9941
0.994096
0.993901
0.993159
0.996
0.991783
0.994461
0.997566
0.995573
0.995827
0.995877
0.995885
0.995849
0.99562
0.997517
0.994573
0.995829
0.998044
0.996886
0.997021
0.997028
0.997039
0.997047
0.996937
0.998034
0.995924
0.996411
0.997895
0.997329
0.997457
0.997469
0.997478
0.997482
0.997365
0.99793
0.996478
0.996862
0.997861
0.997582
0.997699
0.997723
0.997728
0.997718
0.9976
0.997881
0.99694
0.997264
0.997923
0.997774
0.997881
0.997918
0.997921
0.997892
0.997785
0.997922
0.99733
0.99748
0.997971
0.997889
0.997987
0.998028
0.99803
0.99799
0.997898
0.997957
0.997579
0.997662
0.997976
0.997956
0.99804
0.998075
0.998074
0.998036
0.997957
0.997975
0.997722
0.997859
0.99794
0.997993
0.998056
0.998083
0.998083
0.998051
0.997982
0.997978
0.997804
0.997907
0.997916
0.997999
0.99804
0.998064
0.998064
0.998035
0.997976
0.99796
0.997839
0.997861
0.997891
0.997957
0.997993
0.998017
0.998016
0.997989
0.997937
0.99791
0.997828
0.997722
0.997855
0.997865
0.997911
0.997936
0.997934
0.997907
0.997859
0.99782
0.997768
0.997497
0.997788
0.99773
0.997787
0.997811
0.997806
0.997777
0.997727
0.997675
0.997646
0.997361
0.997561
0.99754
0.9976
0.997622
0.997614
0.997582
0.997524
0.997453
0.997441
0.997179
0.997173
0.997271
0.997321
0.997345
0.997337
0.9973
0.997229
0.997133
0.997135
0.996728
0.996719
0.996872
0.996924
0.996958
0.996951
0.996902
0.996811
0.996679
0.996699
0.995972
0.996149
0.996287
0.996368
0.996421
0.996416
0.996349
0.996231
0.996041
0.99609
0.994932
0.995349
0.995465
0.995599
0.995679
0.995681
0.995595
0.995436
0.995163
0.995257
0.993678
0.994097
0.994327
0.994531
0.99466
0.994679
0.99458
0.994363
0.993969
0.994134
0.991884
0.992326
0.992748
0.993049
0.993261
0.993326
0.993224
0.992938
0.992357
0.992629
0.98916
0.989937
0.990525
0.990989
0.991342
0.991503
0.991428
0.991065
0.990193
0.990614
0.985238
0.986517
0.987337
0.988081
0.988675
0.989027
0.989054
0.988631
0.987307
0.987901
0.979528
0.981492
0.982698
0.983869
0.984863
0.985575
0.985867
0.985492
0.983467
0.984147
0.971034
0.973953
0.975775
0.977571
0.979205
0.980567
0.981466
0.981493
0.978538
0.978929
0.958157
0.962375
0.965096
0.967784
0.970391
0.972848
0.974948
0.976204
0.972242
0.970892
0.938395
0.944271
0.948182
0.952035
0.956007
0.960187
0.964544
0.969283
0.967235
0.9622
0.908079
0.915835
0.921058
0.926147
0.931687
0.938066
0.945556
0.956343
0.962241
0.952729
0.862416
0.871866
0.877996
0.883824
0.890611
0.8994
0.9117
0.934766
0.989329
1.02602
0.794688
0.804793
0.810369
0.8152
0.821236
0.829399
0.840954
0.853395
0.906176
0.961571
0.703695
0.712387
0.714968
0.716135
0.718695
0.723921
0.73421
0.747828
0.785878
0.872422
0.589213
0.593897
0.590657
0.585353
0.581513
0.581025
0.586033
0.597586
0.618884
0.669431
0.458878
0.457584
0.44695
0.433893
0.422078
0.413327
0.408703
0.408597
0.412338
0.424609
0.326832
0.319707
0.303172
0.284703
0.267749
0.253468
0.24215
0.233623
0.227428
0.22491
0.209725
0.199292
0.1813
0.162749
0.146123
0.131955
0.120071
0.110052
0.101574
0.0951218
0.119778
0.10958
0.094557
0.0801736
0.0678653
0.057672
0.0492008
0.0419972
0.0357917
0.0308558
0.0603908
0.0527805
0.0428099
0.0339355
0.0267665
0.0211089
0.0165809
0.0128642
0.00977739
0.0074948
0.0267759
0.022258
0.0168807
0.0124213
0.0090406
0.00652379
0.00462608
0.00315669
0.00203753
0.00135295
0.0104619
0.00826785
0.00586226
0.00399468
0.00266917
0.00174703
0.00110331
0.000645319
0.000342466
0.000219232
0.797596
0.809052
0.812443
0.81523
0.819901
0.826963
0.837411
0.846833
0.904442
0.95797
0.704267
0.714324
0.714234
0.712815
0.713404
0.716679
0.725132
0.735475
0.771293
0.864693
0.585034
0.590952
0.584687
0.576314
0.569845
0.566602
0.568621
0.576554
0.592344
0.642458
0.448359
0.447993
0.434528
0.418531
0.404134
0.392575
0.384542
0.38013
0.377776
0.383883
0.311013
0.304543
0.286412
0.266555
0.248431
0.232813
0.219753
0.208819
0.199234
0.192786
0.19265
0.182915
0.165081
0.146869
0.130643
0.116726
0.104822
0.0943215
0.0848876
0.077352
0.105709
0.0963052
0.0825414
0.0694947
0.0583795
0.0491706
0.0414007
0.0345721
0.0285839
0.023977
0.0510818
0.0442959
0.035757
0.0282408
0.0221844
0.0174095
0.0135099
0.0102224
0.00749561
0.00571902
0.0217077
0.0178385
0.0134929
0.00993079
0.00723133
0.00521875
0.00366704
0.00242461
0.0015306
0.0010832
0.00815049
0.00634346
0.00449099
0.00307033
0.00206059
0.00135327
0.000851177
0.000476311
0.000255508
0.000189359
0.801077
0.813272
0.815635
0.817018
0.820193
0.825637
0.833967
0.840023
0.897706
0.954957
0.704961
0.715935
0.7145
0.71124
0.709801
0.710801
0.716279
0.723653
0.754023
0.84982
0.579644
0.58656
0.578841
0.568407
0.559532
0.553348
0.551597
0.554871
0.564145
0.607596
0.434612
0.435164
0.420689
0.403182
0.386861
0.37279
0.36143
0.352642
0.34437
0.343728
0.290433
0.284814
0.267197
0.247547
0.229168
0.212789
0.198433
0.185657
0.173665
0.164609
0.170963
0.162331
0.146372
0.129917
0.114972
0.101881
0.0904201
0.0801147
0.0707532
0.0633313
0.0883558
0.0803004
0.0689302
0.0581251
0.0487647
0.0408789
0.034106
0.0281205
0.0228919
0.0190347