/*--------------------------------*- C++ -*----------------------------------*\
| =========                 |                                                 |
| \\      /  F ield         | OpenFOAM: The Open Source CFD Toolbox           |
|  \\    /   O peration     | Version:  2112                                  |
|   \\  /    A nd           | Website:  www.openfoam.com                      |
|    \\/     M anipulation  |                                                 |
\*---------------------------------------------------------------------------*/
FoamFile
{
    version     2.0;
    format      ascii;
    arch        "LSB;label=32;scalar=64";
    class       volScalarField;
    location    "35";
    object      T;
}
// * * * * * * * * * * * * * * * * * * * * * * * * * * * * * * * * * * * * * //

dimensions      [0 0 0 1 0 0 0];

internalField   nonuniform List<scalar> 
10000
(
2.01829e-15
1.77194e-15
1.50361e-15
1.28157e-15
1.10548e-15
9.84694e-16
9.2305e-16
9.17812e-16
9.72964e-16
1.05609e-15
1.23808e-14
1.07905e-14
9.12356e-15
7.73629e-15
6.64835e-15
5.91116e-15
5.5426e-15
5.52792e-15
5.87582e-15
6.42052e-15
4.54078e-14
3.91728e-14
3.27934e-14
2.75279e-14
2.35006e-14
2.08296e-14
1.95429e-14
1.96129e-14
2.10177e-14
2.31753e-14
1.52152e-13
1.30431e-13
1.08032e-13
8.96833e-14
7.5971e-14
6.70743e-14
6.29794e-14
6.36037e-14
6.8723e-14
7.61758e-14
4.92808e-13
4.21086e-13
3.45712e-13
2.84161e-13
2.38909e-13
2.10059e-13
1.97277e-13
2.00141e-13
2.17488e-13
2.41597e-13
1.5664e-12
1.33606e-12
1.08967e-12
8.88409e-13
7.41934e-13
6.49663e-13
6.09659e-13
6.20009e-13
6.75761e-13
7.5084e-13
4.91002e-12
4.18387e-12
3.39673e-12
2.7521e-12
2.28527e-12
1.99288e-12
1.86658e-12
1.89863e-12
2.07049e-12
2.29814e-12
1.52071e-11
1.29523e-11
1.04845e-11
8.45585e-12
6.98834e-12
6.06909e-12
5.66694e-12
5.75331e-12
6.26469e-12
6.94008e-12
4.65935e-11
3.9683e-11
3.20641e-11
2.57756e-11
2.12189e-11
1.83504e-11
1.70632e-11
1.72589e-11
1.87331e-11
2.06983e-11
1.41353e-10
1.20417e-10
9.72039e-11
7.79628e-11
6.39683e-11
5.50821e-11
5.09559e-11
5.12692e-11
5.53927e-11
6.10066e-11
4.24859e-10
3.62097e-10
2.92201e-10
2.34002e-10
1.91453e-10
1.64119e-10
1.50917e-10
1.50842e-10
1.62025e-10
1.77766e-10
1.26566e-09
1.07939e-09
8.71177e-10
6.96961e-10
5.68808e-10
4.8532e-10
4.4326e-10
4.39585e-10
4.68861e-10
5.12173e-10
3.73789e-09
3.19031e-09
2.57623e-09
2.0598e-09
1.6773e-09
1.42415e-09
1.29097e-09
1.26881e-09
1.34219e-09
1.45901e-09
1.09455e-08
9.35036e-09
7.55615e-09
6.0401e-09
4.90835e-09
4.1468e-09
3.72813e-09
3.62684e-09
3.80063e-09
4.10813e-09
3.17799e-08
2.71757e-08
2.19819e-08
1.75737e-08
1.4254e-08
1.19811e-08
1.06752e-08
1.02662e-08
1.06436e-08
1.14303e-08
9.14818e-08
7.8313e-08
6.3425e-08
5.07326e-08
4.10795e-08
3.43502e-08
3.03102e-08
2.87744e-08
2.94715e-08
3.14148e-08
2.61027e-07
2.23714e-07
1.81505e-07
1.45325e-07
1.17503e-07
9.77333e-08
8.5339e-08
7.98563e-08
8.06572e-08
8.52458e-08
7.379e-07
6.33403e-07
5.15118e-07
4.13062e-07
3.33639e-07
2.75976e-07
2.38264e-07
2.19438e-07
2.18101e-07
2.28238e-07
2.06542e-06
1.77675e-06
1.44925e-06
1.16482e-06
9.40477e-07
7.73622e-07
6.59849e-07
5.97032e-07
5.82521e-07
6.02429e-07
5.72054e-06
4.93401e-06
4.03983e-06
3.25803e-06
2.63177e-06
2.15355e-06
1.81342e-06
1.60853e-06
1.53612e-06
1.56653e-06
1.56597e-05
1.35483e-05
1.11484e-05
9.03436e-06
7.30926e-06
5.95406e-06
4.94733e-06
4.29236e-06
3.99821e-06
4.00946e-06
4.22872e-05
3.67331e-05
3.04256e-05
2.48184e-05
2.01433e-05
1.63509e-05
1.34043e-05
1.13514e-05
1.027e-05
1.00904e-05
0.000112381
9.81532e-05
8.19984e-05
6.74761e-05
5.5062e-05
4.46084e-05
3.60967e-05
2.9783e-05
2.60416e-05
2.4952e-05
0.000293058
0.000257765
0.00021773
0.000181267
0.000149143
0.000120896
9.67057e-05
7.76518e-05
6.52578e-05
6.05954e-05
0.000746769
0.000662825
0.00056778
0.000479879
0.000399542
0.000325235
0.000257944
0.000201648
0.000161964
0.000144504
0.00184964
0.0016608
0.00144768
0.00124701
0.00105523
0.000866874
0.000685174
0.000523162
0.000399865
0.000338843
0.00442433
0.0040301
0.00358784
0.00316282
0.00273368
0.00228076
0.00181067
0.00136082
0.000989465
0.000784146
0.0101439
0.00940124
0.00857813
0.00776911
0.00689379
0.00588513
0.00474409
0.00356032
0.00249033
0.00181545
0.0221075
0.0209023
0.0196029
0.0182952
0.0167407
0.0147366
0.0122216
0.00935227
0.00648187
0.00432208
0.0454015
0.0438797
0.0423561
0.0407878
0.0385965
0.0352715
0.0305439
0.0245273
0.0181925
0.0121315
1.7993e-15
1.58643e-15
1.35191e-15
1.15608e-15
9.99504e-16
8.91721e-16
8.35676e-16
8.29534e-16
8.75942e-16
9.45509e-16
1.09559e-14
9.61849e-15
8.17676e-15
6.95788e-15
5.99414e-15
5.33846e-15
5.00457e-15
4.98296e-15
5.27054e-15
5.70843e-15
3.97704e-14
3.46596e-14
2.92269e-14
2.46284e-14
2.10804e-14
1.87137e-14
1.7561e-14
1.75907e-14
1.87264e-14
2.0408e-14
1.32363e-13
1.14813e-13
9.59444e-14
8.00244e-14
6.79895e-14
6.01237e-14
5.64637e-14
5.68637e-14
6.0917e-14
6.66739e-14
4.27178e-13
3.69588e-13
3.06602e-13
2.53497e-13
2.1387e-13
1.88387e-13
1.76889e-13
1.78753e-13
1.92274e-13
2.10776e-13
1.35524e-12
1.17093e-12
9.66344e-13
7.93413e-13
6.65294e-13
5.83703e-13
5.47408e-13
5.53893e-13
5.9679e-13
6.5409e-13
4.24464e-12
3.66443e-12
3.01331e-12
2.46111e-12
2.05315e-12
1.79419e-12
1.67862e-12
1.69714e-12
1.82792e-12
2.0013e-12
1.31449e-11
1.13438e-11
9.30559e-12
7.57152e-12
6.28997e-12
5.4745e-12
5.1041e-12
5.14664e-12
5.53171e-12
6.04581e-12
4.02865e-11
3.47635e-11
2.84764e-11
2.31084e-11
1.91305e-11
1.65822e-11
1.53916e-11
1.54542e-11
1.65518e-11
1.80464e-11
1.22284e-10
1.05537e-10
8.63885e-11
6.99758e-11
5.77602e-11
4.98559e-11
4.60323e-11
4.59622e-11
4.89916e-11
5.32543e-11
3.67807e-10
3.17555e-10
2.59894e-10
2.10254e-10
1.73111e-10
1.4877e-10
1.36534e-10
1.35413e-10
1.43487e-10
1.55413e-10
1.09664e-09
9.4732e-10
7.75468e-10
6.26846e-10
5.14934e-10
4.40539e-10
4.016e-10
3.95206e-10
4.15863e-10
4.48554e-10
3.24187e-09
2.80234e-09
2.29495e-09
1.85438e-09
1.52004e-09
1.29447e-09
1.1714e-09
1.1425e-09
1.19267e-09
1.28026e-09
9.50316e-09
8.22133e-09
6.73746e-09
5.44352e-09
4.45324e-09
3.7744e-09
3.38833e-09
3.27184e-09
3.38457e-09
3.61327e-09
2.7625e-08
2.39204e-08
1.96213e-08
1.58566e-08
1.29484e-08
1.09212e-08
9.71955e-09
9.28102e-09
9.5022e-09
1.00811e-08
7.9623e-08
6.90187e-08
5.66864e-08
4.58362e-08
3.73701e-08
3.13612e-08
2.76503e-08
2.60776e-08
2.6387e-08
2.77955e-08
2.2749e-07
1.97445e-07
1.62456e-07
1.31487e-07
1.07071e-07
8.93782e-08
7.80095e-08
7.25779e-08
7.24562e-08
7.56976e-08
6.441e-07
5.59841e-07
4.61708e-07
3.74308e-07
3.0457e-07
2.52894e-07
2.18346e-07
2.00061e-07
1.96677e-07
2.03511e-07
1.80626e-06
1.57305e-06
1.30117e-06
1.05744e-06
8.60243e-07
7.10672e-07
6.06561e-07
5.46314e-07
5.27654e-07
5.39858e-07
5.01303e-06
4.37726e-06
3.6344e-06
2.96394e-06
2.41249e-06
1.98374e-06
1.67271e-06
1.47813e-06
1.39867e-06
1.41199e-06
1.37545e-05
1.20489e-05
1.00555e-05
8.23983e-06
6.71893e-06
5.50192e-06
4.58132e-06
3.96448e-06
3.66242e-06
3.63868e-06
3.72576e-05
3.27741e-05
2.75363e-05
2.27115e-05
1.85845e-05
1.51703e-05
1.24737e-05
1.05502e-05
9.47659e-06
9.23347e-06
9.9432e-05
8.7943e-05
7.45235e-05
6.20117e-05
5.1029e-05
4.15979e-05
3.37954e-05
2.78884e-05
2.42447e-05
2.30577e-05
0.000260654
0.000232165
0.000198908
0.000167453
0.000138967
0.000113422
9.11951e-05
7.33567e-05
6.13981e-05
5.6638e-05
0.000668588
0.000600936
0.000522036
0.000446133
0.000374737
0.000307352
0.000245337
0.0001925
0.000154295
0.000136862
0.00166983
0.00151823
0.00134169
0.00116842
0.000997702
0.000826421
0.000658365
0.000505665
0.000386562
0.000325759
0.0040359
0.00372231
0.00335794
0.00299196
0.00261002
0.00219732
0.00176093
0.00133461
0.000972913
0.000766197
0.00937114
0.00879283
0.00812396
0.00743419
0.00665914
0.00574069
0.0046784
0.00355008
0.00249615
0.00180423
0.0207307
0.019841
0.0188239
0.0177421
0.0163911
0.0145813
0.0122411
0.00950291
0.00662031
0.00435872
0.0433018
0.0423527
0.0413093
0.0401472
0.0383579
0.0354452
0.0311004
0.0254153
0.0190621
0.0123224
1.5801e-15
1.39964e-15
1.19805e-15
1.02856e-15
8.91986e-16
7.97155e-16
7.46966e-16
7.3993e-16
7.786e-16
8.36849e-16
9.58675e-15
8.46477e-15
7.23407e-15
6.18299e-15
5.34433e-15
4.7682e-15
4.46963e-15
4.4394e-15
4.67503e-15
5.03639e-15
3.44543e-14
3.02549e-14
2.5686e-14
2.17598e-14
1.86972e-14
1.66323e-14
1.56042e-14
1.55815e-14
1.64848e-14
1.78378e-14
1.1349e-13
9.93257e-14
8.37555e-14
7.03339e-14
6.00365e-14
5.32204e-14
4.99497e-14
5.00827e-14
5.31983e-14
5.77005e-14
3.6321e-13
3.17478e-13
2.66341e-13
2.22087e-13
1.88428e-13
1.66427e-13
1.56097e-13
1.5681e-13
1.66879e-13
1.80989e-13
1.14529e-12
1.001e-12
8.36905e-13
6.94132e-13
5.85925e-13
5.1559e-13
4.82706e-13
4.84799e-13
5.1583e-13
5.5861e-13
3.57258e-12
3.12297e-12
2.60529e-12
2.15263e-12
1.80953e-12
1.58634e-12
1.48075e-12
1.48401e-12
1.57611e-12
1.70346e-12
1.10367e-11
9.64988e-12
8.03971e-12
6.62548e-12
5.55066e-12
4.84756e-12
4.50709e-12
4.5004e-12
4.76468e-12
5.13764e-12
3.3784e-11
2.95484e-11
2.46019e-11
2.02383e-11
1.69074e-11
1.47086e-11
1.36109e-11
1.35238e-11
1.42573e-11
1.53306e-11
1.02511e-10
8.96975e-11
7.46671e-11
6.13504e-11
5.11281e-11
4.43024e-11
4.07751e-11
4.02732e-11
4.22378e-11
4.52708e-11
3.08418e-10
2.70011e-10
2.24795e-10
1.84557e-10
1.5347e-10
1.32437e-10
1.21166e-10
1.18854e-10
1.23899e-10
1.32307e-10
9.2024e-10
8.06139e-10
6.71389e-10
5.50946e-10
4.57219e-10
3.92897e-10
3.57118e-10
3.47603e-10
3.59864e-10
3.82689e-10
2.72329e-09
2.38732e-09
1.98941e-09
1.63216e-09
1.35194e-09
1.1567e-09
1.04397e-09
1.00744e-09
1.03488e-09
1.09537e-09
7.99357e-09
7.01303e-09
5.84874e-09
4.79855e-09
3.96778e-09
3.37953e-09
3.02707e-09
2.89347e-09
2.94638e-09
3.10218e-09
2.3272e-08
2.04356e-08
1.70605e-08
1.40015e-08
1.15592e-08
9.80009e-09
8.70658e-09
8.23525e-09
8.30361e-09
8.69066e-09
6.7194e-08
5.9065e-08
4.93758e-08
4.05497e-08
3.34318e-08
2.82105e-08
2.48438e-08
2.32275e-08
2.31609e-08
2.40765e-08
1.92376e-07
1.69305e-07
1.4178e-07
1.16567e-07
9.60103e-08
8.06305e-08
7.03444e-08
6.49269e-08
6.39265e-08
6.59381e-08
5.45955e-07
4.81198e-07
4.03892e-07
3.32644e-07
2.73836e-07
2.28894e-07
1.97708e-07
1.79891e-07
1.74575e-07
1.78451e-07
1.5352e-06
1.35574e-06
1.14134e-06
9.42383e-07
7.75851e-07
6.45621e-07
5.51799e-07
4.94168e-07
4.71654e-07
4.77052e-07
4.27487e-06
3.78448e-06
3.19846e-06
2.65044e-06
2.18423e-06
1.81021e-06
1.53017e-06
1.34649e-06
1.26061e-06
1.25914e-06
1.17776e-05
1.04592e-05
8.88513e-06
7.39957e-06
6.11167e-06
5.04813e-06
4.21924e-06
3.64162e-06
3.33362e-06
3.27976e-06
3.20638e-05
2.85899e-05
2.44495e-05
2.05e-05
1.69986e-05
1.401e-05
1.15796e-05
9.78584e-06
8.72576e-06
8.42715e-06
8.60959e-05
7.71717e-05
6.65644e-05
5.63185e-05
4.69865e-05
3.87122e-05
3.16666e-05
2.61657e-05
2.26244e-05
2.13498e-05
0.000227412
0.000205239
0.000178978
0.000153228
0.000128995
0.000106525
8.63956e-05
6.97572e-05
5.81953e-05
5.33165e-05
0.000588842
0.000536143
0.000474019
0.000412002
0.000351233
0.000291812
0.000235435
0.000185941
0.000148907
0.000131261
0.00148783
0.00136999
0.00123192
0.00109107
0.000945945
0.000794615
0.000641196
0.000497252
0.00038081
0.000318949
0.00364724
0.00340564
0.00312502
0.00283107
0.00250804
0.00214338
0.00174351
0.00133872
0.000980774
0.000767238
0.00861319
0.00817923
0.00768203
0.00714352
0.00649728
0.00568922
0.00471453
0.00363642
0.00257944
0.00185151
0.0194341
0.0188172
0.0181296
0.0173465
0.0162623
0.0146945
0.0125582
0.00993578
0.0070158
0.00459113
0.04151
0.0410534
0.0406
0.0399907
0.0387243
0.0363195
0.0324411
0.0270431
0.0206633
0.0133681
1.4308e-15
1.27139e-15
1.09225e-15
9.41173e-16
8.18665e-16
7.32829e-16
6.86602e-16
6.78801e-16
7.12254e-16
7.63575e-16
8.63983e-15
7.65414e-15
6.56817e-15
5.63614e-15
4.88736e-15
4.36803e-15
4.0939e-15
4.05739e-15
4.25866e-15
4.57532e-15
3.07649e-14
2.71128e-14
2.31316e-14
1.96879e-14
1.69801e-14
1.51351e-14
1.41949e-14
1.41359e-14
1.4893e-14
1.6065e-14
1.00329e-13
8.81915e-14
7.48332e-14
6.32133e-14
5.42029e-14
4.81605e-14
4.51719e-14
4.51252e-14
4.76652e-14
5.1483e-14
3.18317e-13
2.79729e-13
2.36521e-13
1.98681e-13
1.69495e-13
1.50098e-13
1.40627e-13
1.40569e-13
1.48516e-13
1.60205e-13
9.96854e-13
8.76833e-13
7.40031e-13
6.19259e-13
5.26121e-13
4.64321e-13
4.34002e-13
4.33152e-13
4.56802e-13
4.91443e-13
3.09399e-12
2.72452e-12
2.29764e-12
1.91798e-12
1.62426e-12
1.42848e-12
1.3306e-12
1.32362e-12
1.39135e-12
1.49237e-12
9.5266e-12
8.39752e-12
7.08061e-12
5.90166e-12
4.98491e-12
4.36853e-12
4.05168e-12
4.01205e-12
4.19944e-12
4.4901e-12
2.91053e-11
2.56799e-11
2.16569e-11
1.80341e-11
1.51991e-11
1.32714e-11
1.22482e-11
1.20615e-11
1.25616e-11
1.33859e-11
8.82374e-11
7.79205e-11
6.57403e-11
5.4711e-11
4.60192e-11
4.00325e-11
3.67453e-11
3.59586e-11
3.72384e-11
3.95386e-11
2.6545e-10
2.34607e-10
1.9804e-10
1.64753e-10
1.38325e-10
1.19867e-10
1.09379e-10
1.06296e-10
1.09392e-10
1.15697e-10
7.92407e-10
7.00905e-10
5.92029e-10
4.92422e-10
4.1271e-10
3.56223e-10
3.23011e-10
3.1153e-10
3.18399e-10
3.35325e-10
2.34709e-09
2.07776e-09
1.7563e-09
1.46076e-09
1.22228e-09
1.05069e-09
9.46344e-10
9.05164e-10
9.18113e-10
9.62444e-10
6.89769e-09
6.11138e-09
5.17046e-09
4.30112e-09
3.59342e-09
3.07606e-09
2.75077e-09
2.60734e-09
2.62247e-09
2.73502e-09
2.01114e-08
1.7835e-08
1.51057e-08
1.25712e-08
1.04885e-08
8.9402e-09
7.93389e-09
7.44604e-09
7.41931e-09
7.69351e-09
5.81693e-08
5.16384e-08
4.37969e-08
3.6477e-08
3.03999e-08
2.58008e-08
2.27109e-08
2.10836e-08
2.0788e-08
2.14173e-08
1.66875e-07
1.4832e-07
1.26023e-07
1.0509e-07
8.75163e-08
7.39582e-08
6.45395e-08
5.92001e-08
5.76795e-08
5.89889e-08
4.74713e-07
4.22564e-07
3.59876e-07
3.00659e-07
2.50317e-07
2.1066e-07
1.82156e-07
1.64882e-07
1.58482e-07
1.60705e-07
1.33867e-06
1.19387e-06
1.01984e-06
8.54321e-07
7.11583e-07
5.96532e-07
5.10879e-07
4.55688e-07
4.31225e-07
4.32932e-07
3.74032e-06
3.34371e-06
2.86762e-06
2.4113e-06
2.01121e-06
1.68035e-06
1.42481e-06
1.25042e-06
1.1621e-06
1.15295e-06
1.0347e-05
9.27803e-06
7.99821e-06
6.76049e-06
5.6539e-06
4.7117e-06
3.95509e-06
3.4096e-06
3.10261e-06
3.03428e-06
2.83088e-05
2.54838e-05
2.21161e-05
1.88248e-05
1.58129e-05
1.31607e-05
1.09396e-05
9.24953e-06
8.21074e-06
7.88876e-06
7.64731e-05
6.91936e-05
6.05691e-05
5.20338e-05
4.39995e-05
3.6642e-05
3.01887e-05
2.50034e-05
2.15579e-05
2.02538e-05
0.000203492
0.000185353
0.000164035
0.000142616
0.000121745
0.000101723
8.32278e-05
6.74959e-05
5.62452e-05
5.13351e-05
0.000531679
0.000488479
0.000438244
0.000386843
0.000334544
0.000281493
0.000229497
0.000182454
0.000146213
0.000128445
0.00135815
0.00126155
0.00115088
0.00103505
0.000910512
0.000775257
0.000633204
0.000495476
0.000380443
0.000317552
0.00337296
0.00317623
0.00295556
0.00271779
0.00244266
0.00211703
0.00174563
0.00135566
0.000998078
0.000777947
0.00808789
0.00774274
0.00736921
0.00694977
0.00640915
0.00569158
0.00478583
0.00374188
0.00267428
0.00191298
0.01857
0.0181181
0.017669
0.0171218
0.0162561
0.0148866
0.0129115
0.0103686
0.00740174
0.0048368
0.0404374
0.0402723
0.0402443
0.0400668
0.0392198
0.0372236
0.0337107
0.0285321
0.0221107
0.0143583
1.34984e-15
1.20164e-15
1.03444e-15
8.93133e-16
7.78284e-16
6.97384e-16
6.53352e-16
6.45314e-16
6.7606e-16
7.23665e-16
8.13036e-15
7.21666e-15
6.20659e-15
5.3379e-15
4.63783e-15
4.14948e-15
3.88868e-15
3.84946e-15
4.03331e-15
4.32627e-15
2.88237e-14
2.54409e-14
2.17657e-14
1.85774e-14
1.60595e-14
1.43321e-14
1.34385e-14
1.3361e-14
1.40437e-14
1.51295e-14
9.34929e-14
8.23371e-14
7.00983e-14
5.94167e-14
5.10888e-14
4.54577e-14
4.26191e-14
4.2485e-14
4.4746e-14
4.8245e-14
2.95159e-13
2.59986e-13
2.20713e-13
1.86184e-13
1.59362e-13
1.41351e-13
1.32345e-13
1.31923e-13
1.38873e-13
1.49455e-13
9.20542e-13
8.11986e-13
6.88613e-13
5.79153e-13
4.93977e-13
4.36738e-13
4.07833e-13
4.05612e-13
4.25842e-13
4.56818e-13
2.84826e-12
2.51638e-12
2.13406e-12
1.79187e-12
1.52426e-12
1.3432e-12
1.24964e-12
1.23794e-12
1.29442e-12
1.38365e-12
8.75124e-12
7.74277e-12
6.56971e-12
5.51161e-12
4.67849e-12
4.1088e-12
3.80548e-12
3.75073e-12
3.90262e-12
4.15651e-12
2.67017e-11
2.36551e-11
2.00857e-11
1.68437e-11
1.42714e-11
1.249e-11
1.15099e-11
1.12779e-11
1.16704e-11
1.23832e-11
8.08979e-11
7.17493e-11
6.09718e-11
5.11192e-11
4.32391e-11
3.77066e-11
3.45589e-11
3.36446e-11
3.46089e-11
3.65807e-11
2.4333e-10
2.16038e-10
1.83736e-10
1.54028e-10
1.30072e-10
1.13011e-10
1.02977e-10
9.95569e-11
1.01758e-10
1.0712e-10
7.26525e-10
6.45676e-10
5.49577e-10
4.60702e-10
3.88437e-10
3.36206e-10
3.04479e-10
2.92167e-10
2.96574e-10
3.10865e-10
2.15306e-09
1.91523e-09
1.63156e-09
1.36783e-09
1.15154e-09
9.92818e-10
8.93299e-10
8.50274e-10
8.56662e-10
8.93799e-10
6.33237e-09
5.63787e-09
4.80738e-09
4.03137e-09
3.38917e-09
2.91041e-09
2.60069e-09
2.45386e-09
2.4521e-09
2.54552e-09
1.84813e-08
1.64692e-08
1.40591e-08
1.17956e-08
9.90447e-09
8.47109e-09
7.51453e-09
7.02302e-09
6.9546e-09
7.17937e-09
5.35167e-08
4.77378e-08
4.08101e-08
3.42688e-08
2.87469e-08
2.44874e-08
2.15546e-08
1.99359e-08
1.95426e-08
2.00483e-08
1.53729e-07
1.37296e-07
1.17588e-07
9.88702e-08
8.28894e-08
7.03262e-08
6.13981e-08
5.61402e-08
5.44074e-08
5.54194e-08
4.37976e-07
3.91765e-07
3.36325e-07
2.83337e-07
2.37522e-07
2.00754e-07
1.73759e-07
1.56883e-07
1.50076e-07
1.51618e-07
1.23728e-06
1.10887e-06
9.54873e-07
8.06679e-07
6.76677e-07
5.6993e-07
4.88859e-07
4.35255e-07
4.1019e-07
4.10441e-07
3.46452e-06
3.11234e-06
2.69081e-06
2.28209e-06
1.91743e-06
1.6102e-06
1.36836e-06
1.19966e-06
1.11113e-06
1.09915e-06
9.60925e-06
8.65849e-06
7.5246e-06
6.41569e-06
5.40645e-06
4.53071e-06
3.81437e-06
3.28787e-06
2.98404e-06
2.91105e-06
2.63738e-05
2.38561e-05
2.08712e-05
1.79226e-05
1.51741e-05
1.27064e-05
1.06014e-05
8.97116e-06
7.94968e-06
7.62231e-06
7.15195e-05
6.50107e-05
5.73724e-05
4.97306e-05
4.23968e-05
3.55428e-05
2.94174e-05
2.44105e-05
2.10285e-05
1.9724e-05
0.000191183
0.000174928
0.000156075
0.000136926
0.000117875
9.92005e-05
8.16083e-05
6.63799e-05
5.5317e-05
5.04211e-05
0.000502277
0.000463529
0.000419211
0.000373392
0.000325697
0.000276162
0.000226583
0.000180881
0.000145087
0.000127308
0.00129156
0.00120484
0.00110784
0.00100522
0.000891914
0.000765559
0.000629774
0.000495403
0.000381092
0.000317716
0.00323261
0.00305651
0.00286582
0.00265778
0.00240888
0.00210493
0.00174925
0.00136719
0.00100949
0.000785811
0.0078211
0.00751624
0.00720456
0.00684814
0.00636532
0.005698
0.00483031
0.00380448
0.00273022
0.00195061
0.0181394
0.0177613
0.0174309
0.0170075
0.0162602
0.0150002
0.0131142
0.0106143
0.00761872
0.00497684
0.0399356
0.0399004
0.0400791
0.0401225
0.0394973
0.0377223
0.0344093
0.029344
0.0228901
0.0148753
1.34552e-15
1.1979e-15
1.03146e-15
8.90714e-16
7.76132e-16
6.95382e-16
6.51397e-16
6.4319e-16
6.73621e-16
7.2097e-16
8.10349e-15
7.19401e-15
6.18847e-15
5.32262e-15
4.6242e-15
4.13682e-15
3.87637e-15
3.83653e-15
4.01858e-15
4.30952e-15
2.87227e-14
2.53689e-14
2.17039e-14
1.85229e-14
1.60105e-14
1.42868e-14
1.33948e-14
1.33165e-14
1.39958e-14
1.50671e-14
9.31831e-14
8.20982e-14
6.98955e-14
5.92422e-14
5.09332e-14
4.53142e-14
4.24798e-14
4.23405e-14
4.45879e-14
4.80526e-14
2.94221e-13
2.5921e-13
2.2006e-13
1.85626e-13
1.5887e-13
1.40899e-13
1.31904e-13
1.31464e-13
1.38366e-13
1.48869e-13
9.17665e-13
8.09531e-13
6.86535e-13
5.77377e-13
4.92417e-13
4.35309e-13
4.06444e-13
4.04167e-13
4.24249e-13
4.55022e-13
2.83943e-12
2.50869e-12
2.12745e-12
1.78622e-12
1.51932e-12
1.33869e-12
1.24528e-12
1.23342e-12
1.28948e-12
1.37817e-12
8.72419e-12
7.71898e-12
6.54883e-12
5.4937e-12
4.66289e-12
4.09466e-12
3.79187e-12
3.73672e-12
3.88746e-12
4.13989e-12
2.662e-11
2.35817e-11
2.00202e-11
1.67875e-11
1.42226e-11
1.24461e-11
1.14679e-11
1.1235e-11
1.16244e-11
1.23333e-11
8.06529e-11
7.1517e-11
6.07683e-11
5.0945e-11
4.30886e-11
3.75717e-11
3.44308e-11
3.35149e-11
3.44711e-11
3.64324e-11
2.42579e-10
2.15317e-10
1.83114e-10
1.53496e-10
1.29614e-10
1.12602e-10
1.02592e-10
9.91704e-11
1.0135e-10
1.06685e-10
7.24216e-10
6.43526e-10
5.47706e-10
4.59101e-10
3.8706e-10
3.34985e-10
3.03338e-10
2.91032e-10
2.95388e-10
3.09605e-10
2.14614e-09
1.90889e-09
1.62599e-09
1.36306e-09
1.14745e-09
9.89208e-10
8.89957e-10
8.46986e-10
8.53258e-10
8.90203e-10
6.31214e-09
5.61948e-09
4.79095e-09
4.01727e-09
3.37712e-09
2.89986e-09
2.59102e-09
2.44445e-09
2.44246e-09
2.5354e-09
1.84235e-08
1.64164e-08
1.40109e-08
1.17543e-08
9.86934e-09
8.44056e-09
7.48685e-09
6.99646e-09
6.92767e-09
7.15126e-09
5.33543e-08
4.75823e-08
4.06693e-08
3.41488e-08
2.86454e-08
2.43999e-08
2.14763e-08
1.98618e-08
1.94684e-08
1.99714e-08
1.53266e-07
1.3683e-07
1.17182e-07
9.85249e-08
8.2599e-08
7.00784e-08
6.11791e-08
5.59359e-08
5.42056e-08
5.52122e-08
4.3662e-07
3.90423e-07
3.35169e-07
2.82357e-07
2.367e-07
2.00058e-07
1.73153e-07
1.56327e-07
1.49535e-07
1.51068e-07
1.23334e-06
1.10513e-06
9.5162e-07
8.0392e-07
6.7437e-07
5.67993e-07
4.87195e-07
4.33758e-07
4.08759e-07
4.09001e-07
3.45336e-06
3.10193e-06
2.68171e-06
2.27438e-06
1.91101e-06
1.60485e-06
1.36383e-06
1.19567e-06
1.1074e-06
1.09544e-06
9.57801e-06
8.62931e-06
7.49933e-06
6.39429e-06
5.38866e-06
4.51603e-06
3.80214e-06
3.27734e-06
2.97442e-06
2.90163e-06
2.62863e-05
2.3775e-05
2.08018e-05
1.78637e-05
1.51252e-05
1.26663e-05
1.05686e-05
8.94355e-06
7.92513e-06
7.59869e-06
7.1276e-05
6.47946e-05
5.71847e-05
4.957e-05
4.2263e-05
3.54337e-05
2.93295e-05
2.43385e-05
2.09665e-05
1.96656e-05
0.000190531
0.000174356
0.000155572
0.000136492
0.000117512
9.8905e-05
8.13735e-05
6.61934e-05
5.51619e-05
5.02789e-05
0.000500582
0.00046201
0.000417883
0.000372236
0.000324718
0.000275365
0.000225958
0.000180399
0.000144703
0.000126968
0.00128725
0.001201
0.00110442
0.00100217
0.0008893
0.000763416
0.000628106
0.000494152
0.000380147
0.000316923
0.00322216
0.00304711
0.0028572
0.00264993
0.00240198
0.00209919
0.00174478
0.00136392
0.00100715
0.000783975
0.00779705
0.0074942
0.0071836
0.00682844
0.00634746
0.00568273
0.00481819
0.00379565
0.00272457
0.00194691
0.0180874
0.0177123
0.0173823
0.0169602
0.0162157
0.0149608
0.0130824
0.0105926
0.00760514
0.00496578
0.0398308
0.0397969
0.0399737
0.040016
0.0393926
0.0376249
0.0343262
0.0292806
0.0228625
0.0148893
1.41761e-15
1.26083e-15
1.08352e-15
9.33513e-16
8.11773e-16
7.26426e-16
6.80433e-16
6.72533e-16
7.0533e-16
7.55502e-16
8.55963e-15
7.59077e-15
6.51569e-15
5.59009e-15
4.84596e-15
4.32956e-15
4.05682e-15
4.01965e-15
4.217e-15
4.52623e-15
3.04808e-14
2.68879e-14
2.29454e-14
1.95258e-14
1.6835e-14
1.50007e-14
1.40648e-14
1.40025e-14
1.47449e-14
1.58903e-14
9.94213e-14
8.74505e-14
7.422e-14
6.26864e-14
5.37344e-14
4.77282e-14
4.47521e-14
4.469e-14
4.718e-14
5.0921e-14
3.15485e-13
2.77358e-13
2.34546e-13
1.96993e-13
1.68005e-13
1.48727e-13
1.39295e-13
1.39183e-13
1.46973e-13
1.58442e-13
9.88083e-13
8.69332e-13
7.33707e-13
6.13864e-13
5.21389e-13
4.59989e-13
4.29794e-13
4.28774e-13
4.51961e-13
4.85986e-13
3.06691e-12
2.70086e-12
2.27746e-12
1.90076e-12
1.60924e-12
1.41481e-12
1.31735e-12
1.30989e-12
1.3763e-12
1.47564e-12
9.44313e-12
8.3233e-12
7.01665e-12
5.84711e-12
4.93751e-12
4.32559e-12
4.01033e-12
3.96941e-12
4.15315e-12
4.43927e-12
2.88491e-11
2.54488e-11
2.14565e-11
1.78631e-11
1.50511e-11
1.3138e-11
1.21205e-11
1.19308e-11
1.2421e-11
1.3233e-11
8.74543e-11
7.72071e-11
6.51201e-11
5.41817e-11
4.55623e-11
3.96231e-11
3.63561e-11
3.55634e-11
3.6817e-11
3.90843e-11
2.63068e-10
2.32432e-10
1.96147e-10
1.63137e-10
1.36933e-10
1.18627e-10
1.08209e-10
1.05118e-10
1.08147e-10
1.14364e-10
7.85223e-10
6.9436e-10
5.86325e-10
4.87552e-10
4.08527e-10
3.52516e-10
3.19543e-10
3.08072e-10
3.14773e-10
3.31468e-10
2.32566e-09
2.05826e-09
1.73929e-09
1.44624e-09
1.20984e-09
1.03974e-09
9.36187e-10
8.95148e-10
9.07708e-10
9.51437e-10
6.83454e-09
6.05379e-09
5.12008e-09
4.25819e-09
3.55681e-09
3.04402e-09
2.72136e-09
2.57869e-09
2.593e-09
2.70403e-09
1.99274e-08
1.76662e-08
1.49577e-08
1.24454e-08
1.03818e-08
8.8475e-09
7.84973e-09
7.36506e-09
7.33695e-09
7.60748e-09
5.76378e-08
5.11471e-08
4.33668e-08
3.61118e-08
3.00916e-08
2.55353e-08
2.24728e-08
2.08576e-08
2.05609e-08
2.11819e-08
1.65347e-07
1.46906e-07
1.24788e-07
1.04042e-07
8.66346e-08
7.32058e-08
6.38736e-08
5.85774e-08
5.70627e-08
5.83547e-08
4.70357e-07
4.18553e-07
3.56371e-07
2.97685e-07
2.47822e-07
2.08548e-07
1.80312e-07
1.63187e-07
1.5683e-07
1.59022e-07
1.3264e-06
1.18264e-06
1.00998e-06
8.45956e-07
7.04589e-07
5.90659e-07
5.05823e-07
4.51131e-07
4.26861e-07
4.28535e-07
3.70626e-06
3.31247e-06
2.84007e-06
2.38796e-06
1.99176e-06
1.66415e-06
1.41108e-06
1.23831e-06
1.15074e-06
1.14163e-06
1.02535e-05
9.19086e-06
7.92184e-06
6.69582e-06
5.60017e-06
4.66734e-06
3.91809e-06
3.37768e-06
3.07337e-06
3.00558e-06
2.80512e-05
2.52435e-05
2.19069e-05
1.86472e-05
1.56654e-05
1.30398e-05
1.08404e-05
9.166e-06
8.13631e-06
7.81696e-06
7.57694e-05
6.85464e-05
6.00029e-05
5.15505e-05
4.35973e-05
3.63141e-05
2.99238e-05
2.47863e-05
2.13704e-05
2.00767e-05
0.000201616
0.000183638
0.000162524
0.000141317
0.000120658
0.000100839
8.2524e-05
6.69352e-05
5.57778e-05
5.09053e-05
0.000526816
0.000484022
0.00043428
0.000383394
0.000331629
0.000279119
0.000227631
0.00018101
0.000145058
0.000127418
0.00134595
0.00125028
0.00114071
0.00102604
0.000902777
0.000768911
0.000628251
0.000491751
0.000377604
0.000315135
0.00334356
0.00314865
0.00293012
0.00269471
0.0024224
0.00210016
0.00173245
0.00134597
0.00099107
0.000772316
0.00802033
0.00767801
0.00730781
0.00689237
0.00635723
0.00564715
0.0047505
0.00371627
0.00265667
0.00189989
0.0184236
0.0179742
0.017528
0.0169852
0.0161277
0.0147726
0.0128179
0.0103
0.00735559
0.00480488
0.0401414
0.0399734
0.0399411
0.0397616
0.0389206
0.0369453
0.0334703
0.0283443
0.0219787
0.0142693
1.55823e-15
1.38234e-15
1.18373e-15
1.01592e-15
8.80598e-16
7.8655e-16
7.36773e-16
7.29619e-16
7.67314e-16
8.23793e-16
9.45364e-15
8.36119e-15
7.1483e-15
6.10714e-15
5.27592e-15
4.70439e-15
4.40839e-15
4.37745e-15
4.60712e-15
4.95675e-15
3.39802e-14
2.98852e-14
2.53792e-14
2.14914e-14
1.84562e-14
1.64089e-14
1.53885e-14
1.53615e-14
1.62419e-14
1.75512e-14
1.11962e-13
9.80875e-14
8.27273e-14
6.94484e-14
5.92479e-14
5.24931e-14
4.92451e-14
4.9356e-14
5.23903e-14
5.67616e-14
3.58414e-13
3.13459e-13
2.62987e-13
2.19221e-13
1.85898e-13
1.64104e-13
1.53843e-13
1.5447e-13
1.64276e-13
1.78005e-13
1.13038e-12
9.88172e-13
8.26079e-13
6.84923e-13
5.77862e-13
5.08222e-13
4.75557e-13
4.77356e-13
5.07581e-13
5.49294e-13
3.52642e-12
3.08235e-12
2.57066e-12
2.12323e-12
1.78395e-12
1.56308e-12
1.45824e-12
1.46059e-12
1.55033e-12
1.67476e-12
1.08941e-11
9.52224e-12
7.93015e-12
6.53247e-12
5.47011e-12
4.77471e-12
4.43685e-12
4.42768e-12
4.68528e-12
5.05027e-12
3.3345e-11
2.91519e-11
2.42595e-11
1.99474e-11
1.66563e-11
1.44827e-11
1.33943e-11
1.3301e-11
1.40162e-11
1.50678e-11
1.0117e-10
8.84782e-11
7.36098e-11
6.04516e-11
5.03542e-11
4.36098e-11
4.01157e-11
3.96002e-11
4.15157e-11
4.44901e-11
3.04349e-10
2.66298e-10
2.21569e-10
1.81815e-10
1.51114e-10
1.30341e-10
1.19184e-10
1.16849e-10
1.21767e-10
1.30018e-10
9.07983e-10
7.94968e-10
6.61677e-10
5.42684e-10
4.50134e-10
3.86626e-10
3.51242e-10
3.41717e-10
3.53659e-10
3.76065e-10
2.68672e-09
2.35404e-09
1.96044e-09
1.60751e-09
1.33088e-09
1.13816e-09
1.02675e-09
9.90382e-10
1.01707e-09
1.07647e-09
7.88559e-09
6.9146e-09
5.76291e-09
4.72563e-09
3.90574e-09
3.32527e-09
2.97717e-09
2.84463e-09
2.89589e-09
3.04894e-09
2.29564e-08
2.01465e-08
1.68082e-08
1.37876e-08
1.13782e-08
9.64292e-09
8.56361e-09
8.09714e-09
8.16243e-09
8.54285e-09
6.62776e-08
5.82215e-08
4.86415e-08
3.99286e-08
3.29086e-08
2.77601e-08
2.44391e-08
2.28419e-08
2.27718e-08
2.36721e-08
1.89731e-07
1.66877e-07
1.39671e-07
1.14786e-07
9.4514e-08
7.9354e-08
6.92125e-08
6.38645e-08
6.28701e-08
6.48493e-08
5.38411e-07
4.74317e-07
3.97914e-07
3.27592e-07
2.69603e-07
2.25311e-07
1.94574e-07
1.77002e-07
1.7175e-07
1.75567e-07
1.51402e-06
1.33644e-06
1.12454e-06
9.28194e-07
7.64008e-07
6.35669e-07
5.43215e-07
4.86409e-07
4.64203e-07
4.6953e-07
4.21625e-06
3.73083e-06
3.15168e-06
2.61095e-06
2.1514e-06
1.78284e-06
1.50691e-06
1.32591e-06
1.24126e-06
1.23984e-06
1.16169e-05
1.03114e-05
8.75611e-06
7.29058e-06
6.02127e-06
4.97343e-06
4.15681e-06
3.5876e-06
3.28402e-06
3.23103e-06
3.16262e-05
2.81874e-05
2.40977e-05
2.0202e-05
1.67512e-05
1.38072e-05
1.14129e-05
9.64501e-06
8.59997e-06
8.30569e-06
8.49201e-05
7.60934e-05
6.56185e-05
5.55127e-05
4.63164e-05
3.81655e-05
3.1224e-05
2.58016e-05
2.23089e-05
2.10516e-05
0.00022432
0.000202402
0.000176475
0.000151079
0.000127198
0.000105062
8.52276e-05
6.88225e-05
5.74128e-05
5.25961e-05
0.000580927
0.000528847
0.00046752
0.000406353
0.000346464
0.000287922
0.000232364
0.00018355
0.000146982
0.000129547
0.00146822
0.00135174
0.00121542
0.00107648
0.000933437
0.000784337
0.000633131
0.000491129
0.000376092
0.000314928
0.00360049
0.00336153
0.00308429
0.0027942
0.00247574
0.00211643
0.00172233
0.00132295
0.000969161
0.000757919
0.0085069
0.00807703
0.00758519
0.00705322
0.00641579
0.00561948
0.00465887
0.00359539
0.00255041
0.00183004
0.0192062
0.0185929
0.0179105
0.017135
0.0160643
0.0145189
0.012414
0.00982908
0.00694083
0.0045394
0.0410552
0.0405943
0.040136
0.0395254
0.0382701
0.0358986
0.0320767
0.0267613
0.020459
0.0132279
1.76805e-15
1.56182e-15
1.33175e-15
1.1383e-15
9.83433e-16
8.76771e-16
8.21359e-16
8.15107e-16
8.60268e-16
9.27536e-16
1.07659e-14
9.47161e-15
8.05574e-15
6.85097e-15
5.89755e-15
5.24823e-15
4.9186e-15
4.89622e-15
5.17625e-15
5.59873e-15
3.90897e-14
3.41406e-14
2.87893e-14
2.42455e-14
2.07372e-14
1.83957e-14
1.72552e-14
1.72798e-14
1.83859e-14
2.00096e-14
1.30191e-13
1.13047e-13
9.44575e-14
7.87483e-14
6.68586e-14
5.90862e-14
5.54576e-14
5.58276e-14
5.9771e-14
6.53546e-14
4.20387e-13
3.63755e-13
3.01724e-13
2.49359e-13
2.10236e-13
1.85065e-13
1.73668e-13
1.75407e-13
1.88558e-13
2.06551e-13
1.33411e-12
1.15237e-12
9.50684e-13
7.80173e-13
6.53759e-13
5.73199e-13
5.3722e-13
5.43261e-13
5.84991e-13
6.4083e-13
4.17926e-12
3.6065e-12
2.96368e-12
2.41916e-12
2.01681e-12
1.76123e-12
1.64671e-12
1.66383e-12
1.79109e-12
1.96035e-12
1.29444e-11
1.11625e-11
9.14984e-12
7.43985e-12
6.17632e-12
5.37192e-12
5.00511e-12
5.04368e-12
5.41863e-12
5.92119e-12
3.96732e-11
3.42036e-11
2.79929e-11
2.2699e-11
1.8778e-11
1.62656e-11
1.50878e-11