/*--------------------------------*- C++ -*----------------------------------*\
| =========                 |                                                 |
| \\      /  F ield         | OpenFOAM: The Open Source CFD Toolbox           |
|  \\    /   O peration     | Version:  2112                                  |
|   \\  /    A nd           | Website:  www.openfoam.com                      |
|    \\/     M anipulation  |                                                 |
\*---------------------------------------------------------------------------*/
FoamFile
{
    version     2.0;
    format      ascii;
    arch        "LSB;label=32;scalar=64";
    class       volScalarField;
    location    "56.5";
    object      p;
}
// * * * * * * * * * * * * * * * * * * * * * * * * * * * * * * * * * * * * * //

dimensions      [0 2 -2 0 0 0 0];

internalField   nonuniform List<scalar> 
8800
(
0.889726
0.841938
0.803249
0.774254
0.753392
0.738562
0.727969
0.720494
0.715681
0.713633
0.714913
0.719112
0.725764
0.735084
0.747867
0.765603
0.790382
0.824324
0.866874
0.925576
0.720975
0.728654
0.736129
0.739438
0.737935
0.732858
0.726373
0.720299
0.715582
0.712747
0.712479
0.714996
0.719492
0.725443
0.732216
0.738499
0.742141
0.741405
0.735986
0.727297
0.699379
0.705539
0.709666
0.71261
0.71466
0.715265
0.714161
0.712061
0.710052
0.709156
0.71013
0.712521
0.715327
0.717512
0.718122
0.716925
0.714585
0.711193
0.706635
0.702874
0.693572
0.696222
0.698974
0.701376
0.703011
0.704173
0.704916
0.705038
0.704751
0.704713
0.705478
0.706658
0.707505
0.707574
0.706967
0.705878
0.704063
0.701493
0.69909
0.697587
0.688194
0.689619
0.691397
0.693428
0.695212
0.696553
0.697544
0.698346
0.698969
0.699546
0.700211
0.700718
0.700824
0.700541
0.699846
0.698599
0.696905
0.695057
0.69375
0.692918
0.683122
0.684042
0.685283
0.686848
0.688479
0.690004
0.69129
0.692361
0.693334
0.694241
0.694946
0.695286
0.695251
0.694816
0.693937
0.692739
0.691412
0.690152
0.68933
0.688779
0.678222
0.678891
0.679852
0.681152
0.682559
0.684016
0.685456
0.686782
0.68799
0.689112
0.68995
0.69033
0.690253
0.689748
0.688944
0.687997
0.686985
0.686062
0.685477
0.685071
0.673445
0.673962
0.674743
0.675871
0.677146
0.678517
0.679963
0.681438
0.682874
0.684226
0.68525
0.685733
0.685715
0.685333
0.684732
0.684007
0.683234
0.682549
0.682115
0.681798
0.668723
0.669133
0.669787
0.67079
0.671992
0.673316
0.67476
0.676318
0.677947
0.679559
0.680823
0.681492
0.681662
0.681495
0.681113
0.680596
0.680024
0.679531
0.679208
0.67895
0.663968
0.664303
0.664868
0.665791
0.666943
0.668251
0.669728
0.671381
0.673193
0.67509
0.676665
0.677622
0.678062
0.678142
0.677984
0.677687
0.677307
0.676972
0.676733
0.676517
0.659095
0.659372
0.659876
0.660752
0.661885
0.663216
0.664764
0.666554
0.66859
0.670814
0.672782
0.67411
0.674874
0.675236
0.675324
0.675247
0.675055
0.674858
0.674687
0.6745
0.654015
0.654248
0.654712
0.655571
0.656725
0.658122
0.659783
0.661762
0.664087
0.666718
0.669167
0.670941
0.672084
0.672769
0.673131
0.673279
0.673275
0.673206
0.67309
0.672924
0.648637
0.648835
0.64928
0.650152
0.651368
0.652874
0.654704
0.656939
0.659631
0.662775
0.665808
0.668112
0.669698
0.670749
0.671416
0.671804
0.672006
0.672053
0.671983
0.671832
0.642864
0.643034
0.643475
0.64439
0.645709
0.647376
0.649441
0.652012
0.655172
0.658952
0.662693
0.665628
0.667734
0.669207
0.670221
0.670896
0.671297
0.671459
0.671429
0.671286
0.636579
0.636724
0.637178
0.638165
0.639633
0.641521
0.643897
0.646899
0.650649
0.655211
0.65981
0.663499
0.666222
0.668191
0.669598
0.670583
0.671213
0.671493
0.6715
0.671362
0.629646
0.629766
0.630248
0.631338
0.633007
0.635186
0.637961
0.641508
0.645994
0.651513
0.657151
0.661745
0.665197
0.667749
0.669619
0.67096
0.671846
0.672248
0.672289
0.672153
0.621891
0.621988
0.622512
0.623741
0.625669
0.628217
0.631503
0.63574
0.641137
0.647826
0.654719
0.660393
0.664708
0.667946
0.670371
0.672131
0.673298
0.673827
0.6739
0.673761
0.613084
0.613185
0.613762
0.615148
0.617407
0.620435
0.624371
0.629476
0.636008
0.644132
0.652531
0.659487
0.664819
0.668861
0.671945
0.674189
0.675676
0.676343
0.676445
0.6763
0.602924
0.603006
0.603674
0.605285
0.607976
0.61162
0.616381
0.622577
0.630519
0.640396
0.650603
0.659071
0.6656
0.670592
0.674429
0.677247
0.679097
0.679908
0.680038
0.679883
0.591045
0.591111
0.591879
0.593801
0.597049
0.601485
0.607301
0.614882
0.624583
0.636599
0.648964
0.659207
0.667128
0.673231
0.67794
0.681428
0.683675
0.684634
0.684788
0.684619
0.576903
0.576958
0.577867
0.580203
0.584185
0.589664
0.596856
0.606213
0.618116
0.632734
0.647657
0.659969
0.669489
0.676864
0.682592
0.68683
0.689505
0.69061
0.690779
0.690594
0.559736
0.559779
0.560902
0.563821
0.56881
0.575702
0.58473
0.596405
0.611091
0.628869
0.646779
0.66145
0.672781
0.681593
0.688456
0.693533
0.696652
0.697888
0.698061
0.697856
0.538407
0.538448
0.539916
0.543711
0.550151
0.55903
0.570574
0.585306
0.603495
0.62507
0.646427
0.663743
0.677088
0.687498
0.695581
0.701574
0.705118
0.706453
0.706614
0.706386
0.511196
0.511256
0.513306
0.518513
0.527195
0.538994
0.554083
0.572881
0.595451
0.621517
0.646766
0.666975
0.682483
0.694606
0.704019
0.710916
0.714821
0.716196
0.716324
0.716074
0.475075
0.475232
0.478482
0.486296
0.498768
0.515021
0.535161
0.559295
0.587233
0.618483
0.648011
0.671278
0.689043
0.702947
0.713728
0.721445
0.725575
0.726902
0.726971
0.726701
0.424288
0.425253
0.431711
0.444873
0.463932
0.487074
0.514182
0.545066
0.579335
0.616348
0.650393
0.676793
0.696827
0.712478
0.724572
0.732922
0.73707
0.738244
0.738239
0.737955
0.349963
0.357166
0.372109
0.395274
0.424162
0.456526
0.492144
0.530797
0.572094
0.615378
0.654306
0.684106
0.706623
0.724208
0.737665
0.746533
0.750603
0.751611
0.751557
0.75131
0.27
0.287073
0.311297
0.34513
0.384221
0.425952
0.470176
0.516825
0.565591
0.615879
0.660636
0.694715
0.720366
0.740347
0.755491
0.764772
0.768487
0.769234
0.769197
0.769046
0.203366
0.223489
0.255395
0.298281
0.346397
0.396958
0.449517
0.503998
0.560074
0.617167
0.667511
0.705607
0.73419
0.756265
0.772523
0.781812
0.785256
0.785926
0.785934
0.785833
0.148788
0.170561
0.207966
0.25726
0.312505
0.370508
0.430453
0.492139
0.555109
0.618696
0.674348
0.71621
0.747448
0.771322
0.78863
0.798167
0.801706
0.802447
0.80248
0.802414
0.103326
0.126284
0.16747
0.221857
0.282838
0.346993
0.413286
0.481373
0.550645
0.620299
0.680972
0.726395
0.760143
0.785802
0.804185
0.814424
0.818224
0.818889
0.818958
0.818925
0.0647197
0.0883537
0.132397
0.190829
0.25663
0.326016
0.397818
0.471598
0.546618
0.621924
0.68734
0.73616
0.772336
0.799756
0.819258
0.830212
0.834313
0.83504
0.835134
0.835127
0.0309536
0.0550367
0.10135
0.163107
0.232981
0.306916
0.383608
0.462528
0.542831
0.623417
0.693317
0.745364
0.78384
0.812921
0.833486
0.845096
0.849571
0.850452
0.850593
0.850607
0.000541358
0.0250216
0.0731879
0.137792
0.211178
0.2891
0.370174
0.453778
0.538979
0.624543
0.698711
0.753827
0.794456
0.825018
0.846586
0.858791
0.863604
0.864695
0.864834
0.864845
-0.0274696
-0.00262737
0.0471096
0.114176
0.190657
0.27211
0.357123
0.44502
0.534804
0.625107
0.703392
0.761441
0.804087
0.836005
0.85843
0.871131
0.876221
0.877451
0.877592
0.877589
-0.053871
-0.0286211
0.0226278
0.0917503
0.170996
0.255599
0.344175
0.436022
0.530104
0.624955
0.707263
0.768186
0.81276
0.845945
0.869025
0.8821
0.887365
0.888691
0.88884
0.888841
-0.0790323
-0.0533565
-0.000913467
0.0702173
0.151898
0.239327
0.33113
0.426615
0.524737
0.623983
0.710275
0.774074
0.820542
0.854885
0.878546
0.891803
0.897145
0.898524
0.898638
0.898597
-0.103362
-0.0771255
-0.0236553
0.0493065
0.133159
0.223123
0.317856
0.416687
0.518605
0.622105
0.712388
0.779136
0.827537
0.862986
0.887112
0.900451
0.905821
0.907188
0.907283
0.907217
-0.126989
-0.100357
-0.0457085
0.0288594
0.114657
0.206894
0.304276
0.406179
0.51165
0.619263
0.713575
0.78341
0.833858
0.870447
0.894972
0.908293
0.913578
0.914881
0.914961
0.914874
-0.150046
-0.122886
-0.067215
0.00879584
0.0963353
0.190603
0.290363
0.395061
0.503838
0.615407
0.713798
0.786927
0.839613
0.877425
0.902281
0.915457
0.920572
0.921775
0.921793
0.921679
-0.172658
-0.14492
-0.0882514
-0.0109163
0.0781677
0.174245
0.27613
0.383351
0.495169
0.610508
0.713011
0.789678
0.844897
0.884076
0.909181
0.922058
0.926851
0.927885
0.927841
0.927706
-0.194844
-0.166443
-0.108845
-0.0302786
0.0601829
0.157849
0.26162
0.37109
0.485668
0.604542
0.711156
0.791623
0.849763
0.890568
0.915867
0.928211
0.932494
0.933282
0.933173
0.933016
-0.216446
-0.187418
-0.128929
-0.0492711
0.042412
0.141476
0.24689
0.358347
0.475392
0.597532
0.708165
0.792686
0.854201
0.897052
0.922631
0.934184
0.93763
0.938031
0.937851
0.937694
-0.237446
-0.207822
-0.148493
-0.0678452
0.0249097
0.125185
0.232028
0.345199
0.464414
0.589501
0.703986
0.792741
0.858125
0.90361
0.929863
0.940487
0.942579
0.942225
0.941917
0.941812
-0.25791
-0.227618
-0.167513
-0.0859699
0.00773728
0.109055
0.217119
0.331746
0.452825
0.580513
0.69857
0.79164
0.861345
0.910142
0.937908
0.947992
0.948245
0.946267
0.945511
0.945682
-0.277666
-0.246784
-0.185932
-0.103586
-0.00904742
0.0931691
0.202258
0.318099
0.440739
0.570657
0.691901
0.789211
0.863573
0.916283
0.946726
0.95768
0.956615
0.952184
0.949456
0.948974
-0.29681
-0.265309
-0.203767
-0.120723
-0.0254776
0.0774844
0.187388
0.304202
0.42809
0.559861
0.683845
0.785179
0.86449
0.921499
0.955654
0.969793
0.970071
0.963791
0.955463
0.941336
-0.315267
-0.283181
-0.221137
-0.137578
-0.0418363
0.0616728
0.172101
0.289578
0.41435
0.547498
0.673766
0.77877
0.863526
0.925049
0.962949
0.98207
0.984415
0.971991
0.952301
0.940472
-0.332861
-0.300532
-0.237847
-0.153948
-0.0577771
0.0460757
0.156621
0.27455
0.39982
0.533824
0.661724
0.769503
0.859848
0.925784
0.964365
0.983302
0.98846
0.965338
0.897582
0.867142
-0.348924
-0.318605
-0.253563
-0.169328
-0.0725208
0.0311937
0.14126
0.259346
0.384717
0.518955
0.647649
0.757058
0.852042
0.923046
0.954938
0.968371
0.958061
0.903994
0.834876
0.792342
-0.404643
-0.334553
-0.267844
-0.18483
-0.0876765
0.01557
0.125951
0.243682
0.368668
0.502429
0.630936
0.74078
0.836257
0.91382
0.918862
0.921785
0.872423
0.80219
0.725525
0.682848
-0.366045
-0.34997
-0.289183
-0.205303
-0.110051
-0.00687375
0.102489
0.219558
0.343525
0.475811
0.602312
0.710362
0.797855
0.879933
0.867009
0.753836
0.648609
0.575371
0.501919
0.532499
-0.397101
-0.36768
-0.305949
-0.222868
-0.127623
-0.0245902
0.0850359
0.201461
0.324344
0.454794
0.578451
0.68226
0.760566
0.804253
0.755881
0.607013
0.479105
0.38765
0.28883
0.338956
-0.42104
-0.388678
-0.32569
-0.242431
-0.147081
-0.0441455
0.0653999
0.180989
0.30246
0.430479
0.550398
0.648038
0.717474
0.726895
0.620461
0.447554
0.294799
0.175934
0.0447468
0.0775661
-0.444488
-0.410574
-0.346386
-0.2622
-0.166742
-0.0639442
0.0450872
0.159714
0.279585
0.404802
0.520057
0.609945
0.664081
0.642306
0.483889
0.287632
0.0973371
-0.070579
-0.259165
-0.2775
-0.467351
-0.432973
-0.367877
-0.282901
-0.187273
-0.0846781
0.0237179
0.137263
0.255281
0.377305
0.487188
0.569319
0.604262
0.546368
0.354028
0.143658
-0.0735193
-0.262737
-0.50472
-0.803038
-0.49052
-0.456128
-0.39047
-0.304986
-0.209147
-0.106699
0.00113712
0.113572
0.229633
0.34821
0.452404
0.526327
0.540475
0.431471
0.241111
0.0313931
-0.172764
-0.344979
-0.414097
-0.493367
-0.514958
-0.480489
-0.414516
-0.328778
-0.232862
-0.130649
-0.0234615
0.0876957
0.201488
0.316102
0.414259
0.4772
0.466523
0.32394
0.140844
-0.0498571
-0.212499
-0.305267
-0.329302
-0.34522
-0.540974
-0.50637
-0.440189
-0.35436
-0.258551
-0.15674
-0.0504354
0.0591495
0.170264
0.280282
0.371892
0.420828
0.392571
0.224195
0.050015
-0.11557
-0.241927
-0.280879
-0.29375
-0.295073
-0.568775
-0.533949
-0.467556
-0.381729
-0.286164
-0.184977
-0.0798021
0.0278866
0.135898
0.240758
0.324885
0.359443
0.312055
0.132139
-0.0329511
-0.18116
-0.257225
-0.274266
-0.275539
-0.275336
-0.598426
-0.563293
-0.496643
-0.410886
-0.315719
-0.215349
-0.111564
-0.00610487
0.0984086
0.197607
0.273361
0.296465
0.213079
0.0480628
-0.108648
-0.23073
-0.267266
-0.265584
-0.264563
-0.263927
-0.629647
-0.594223
-0.52735
-0.441744
-0.347129
-0.247801
-0.145689
-0.0427948
0.0578386
0.150939
0.218172
0.224377
0.122807
-0.0301703
-0.168617
-0.243694
-0.254064
-0.256812
-0.257549
-0.257235
-0.661889
-0.626306
-0.559426
-0.474078
-0.380211
-0.282179
-0.182022
-0.0820477
0.0143788
0.101101
0.159778
0.150612
0.0413307
-0.0961215
-0.211854
-0.243028
-0.251333
-0.252848
-0.252709
-0.252448
-0.69469
-0.658989
-0.592437
-0.507496
-0.414627
-0.318163
-0.220285
-0.123572
-0.0316838
0.0487864
0.0972193
0.0803221
-0.0345565
-0.149418
-0.241025
-0.257301
-0.249576
-0.248738
-0.248775
-0.248628
-0.727161
-0.69155
-0.625484
-0.541427
-0.449836
-0.355289
-0.260035
-0.166882
-0.0798789
-0.00535405
0.0333713
0.0152519
-0.103395
-0.190654
-0.238881
-0.251698
-0.249175
-0.247553
-0.246911
-0.24669
-0.757729
-0.722819
-0.657625
-0.574944
-0.485086
-0.392865
-0.300626
-0.211295
-0.129389
-0.0607181
-0.0253521
-0.056959
-0.164336
-0.234925
-0.227208
-0.246432
-0.250835
-0.248319
-0.247086
-0.246487
-0.78481
-0.750996
-0.687741
-0.606862
-0.519351
-0.429979
-0.341208
-0.255974
-0.179042
-0.116321
-0.081183
-0.125456
-0.222852
-0.287205
-0.286607
-0.275276
-0.263063
-0.255979
-0.253263
-0.252078
-0.806287
-0.774211
-0.713833
-0.635798
-0.551379
-0.465499
-0.380723
-0.299912
-0.227701
-0.170753
-0.137701
-0.1772
-0.266623
-0.394648
-0.404313
-0.33737
-0.292694
-0.276303
-0.269951
-0.267017
-0.819942
-0.790588
-0.733932
-0.659917
-0.579685
-0.498156
-0.417988
-0.341958
-0.27433
-0.221871
-0.189553
-0.207325
-0.254193
-0.392117
-0.376988
-0.320205
-0.30204
-0.292677
-0.286643
-0.284927
-0.823155
-0.797886
-0.746158
-0.677397
-0.602606
-0.526574
-0.451752
-0.380968
-0.317843
-0.268482
-0.229747
-0.201313
-0.133065
-0.148088
-0.179613
-0.221798
-0.250614
-0.258923
-0.262288
-0.263335
-0.813736
-0.793389
-0.748339
-0.686655
-0.61869
-0.54931
-0.480785
-0.415717
-0.357442
-0.311165
-0.261052
-0.193834
0.00145792
0.315096
0.11044
-0.113925
-0.215004
-0.251598
-0.266227
-0.270741
-0.789674
-0.774347
-0.738656
-0.686479
-0.626955
-0.565341
-0.503906
-0.445103
-0.392667
-0.350604
-0.297897
-0.278909
-0.210998
-0.114213
-0.237553
-0.350689
-0.388972
-0.401657
-0.409821
-0.415024
-0.753463
-0.743586
-0.71788
-0.676987
-0.627321
-0.57431
-0.520389
-0.46808
-0.422026
-0.388137
-0.370621
-0.523641
-0.941918
-1.49157
-1.50766
-1.09333
-0.798166
-0.674015
-0.642861
-0.636306
-0.711737
-0.706173
-0.690811
-0.6609
-0.621546
-0.576799
-0.529874
-0.483443
-0.441877
-0.415053
-0.40829
-0.605996
-0.847287
-1.06548
-0.98144
-0.745933
-0.639146
-0.616057
-0.595871
-0.586426
-0.674178
-0.670887
-0.66356
-0.643528
-0.612377
-0.574405
-0.533033
-0.489916
-0.449688
-0.417232
-0.41197
-0.38921
-0.286569
-0.104173
-0.0289223
-0.16064
-0.308169
-0.315854
-0.291886
-0.296304
-0.64731
-0.645314
-0.641724
-0.629099
-0.604079
-0.570218
-0.531382
-0.488854
-0.444861
-0.404815
-0.387868
-0.352011
-0.285446
-0.256622
-0.308775
-0.452222
-0.558102
-0.526766
-0.453871
-0.409772
-0.626721
-0.625963
-0.624874
-0.618647
-0.599079
-0.567344
-0.52789
-0.482953
-0.434206
-0.38764
-0.356476
-0.340483
-0.214479
-0.11148
-0.033281
-0.00672431
-0.0199047
-0.016862
0.00749742
0.0260173
-0.614904
-0.614536
-0.613986
-0.611434
-0.597169
-0.56603
-0.523414
-0.473508
-0.41873
-0.356116
-0.299926
-0.233992
-0.0894134
0.0839149
0.205018
0.273417
0.340532
0.425197
0.490427
0.517138
-0.607597
-0.607376
-0.606905
-0.606784
-0.597904
-0.566688
-0.519679
-0.463897
-0.397639
-0.321663
-0.240084
-0.133115
0.0773887
0.294106
0.492229
0.652935
0.811301
0.959962
1.05986
1.10042
-0.602989
-0.60325
-0.603929
-0.605487
-0.599526
-0.568736
-0.517798
-0.455109
-0.379698
-0.291559
-0.186081
-0.0783486
0.153059
0.457593
0.777699
1.08014
1.32369
1.49246
1.58337
1.6127
-0.595787
-0.596631
-0.598592
-0.600667
-0.595863
-0.567996
-0.517661
-0.450489
-0.367148
-0.266307
-0.156135
-0.0532099
0.174037
0.494174
0.85842
1.18419
1.44521
1.60737
1.68192
1.70238
-0.591458
-0.590178
-0.583954
-0.573688
-0.569432
-0.561537
-0.523155
-0.453244
-0.362062
-0.255
-0.142083
-0.0268705
0.131086
0.444929
0.762045
1.04845
1.27004
1.40019
1.45753
1.47188
-0.623529
-0.61768
-0.600439
-0.579029
-0.574796
-0.582922
-0.546562
-0.464528
-0.361643
-0.248594
-0.137889
-0.0269041
0.0945139
0.316612
0.587861
0.81563
0.990754
1.08739
1.1277
1.13652
-0.710557
-0.711699
-0.720164
-0.734501
-0.730127
-0.703197
-0.603564
-0.482543
-0.362025
-0.24469
-0.138493
-0.0444129
0.0392329
0.197318
0.402674
0.574545
0.705076
0.774017
0.801271
0.804624
-0.825342
-0.844866
-0.88281
-0.907805
-0.895927
-0.82088
-0.65281
-0.491961
-0.355041
-0.237353
-0.142243
-0.0657037
-0.00719645
0.10447
0.248245
0.368364
0.456924
0.501324
0.517803
0.519964
-0.824152
-0.844199
-0.879213
-0.903155
-0.887678
-0.794317
-0.620606
-0.459146
-0.328105
-0.221317
-0.139995
-0.0782106
-0.0327714
0.0398698
0.130642
0.210658
0.261273
0.286538
0.295594
0.295484
-0.61306
-0.6326
-0.66418
-0.690049
-0.680143
-0.600771
-0.482406
-0.369626
-0.273151
-0.191916
-0.129584
-0.0819006
-0.0444789
0.0025
0.0502798
0.0887506
0.112781
0.123042
0.12666
0.126418
-0.285821
-0.296699
-0.316835
-0.339736
-0.350167
-0.332236
-0.294599
-0.247899
-0.200649
-0.153383
-0.113057
-0.0802585
-0.0526062
-0.0239495
-0.000545395
0.0123794
0.0169034
0.0158662
0.015832
0.0157302
-0.0138182
-0.0184013
-0.0314054
-0.055164
-0.0858953
-0.114168
-0.131508
-0.136009
-0.128637
-0.113111
-0.0969301
-0.0814284
-0.0656304
-0.0530039
-0.0431618
-0.0380844
-0.0399869
-0.042247
-0.0424679
-0.042465
0.129022
0.126605
0.116807
0.0937415
0.0560542
0.0125654
-0.0256198
-0.0536425
-0.0702217
-0.0780271
-0.0837184
-0.0906518
-0.0927479
-0.0811339
-0.0691042
-0.0638379
-0.0623174
-0.0623138
-0.0619952
-0.0622758
0.174718
0.172934
0.165271
0.146333
0.114206
0.0744604
0.0344809
-3.55609e-05
-0.0267934
-0.0478517
-0.0713841
-0.107175
-0.12553
-0.104438
-0.0819533
-0.0694034
-0.0645626
-0.0634904
-0.0631094
-0.0633182
0.174422
0.173119
0.167655
0.154053
0.130523
0.0999603
0.0664611
0.0345005
0.00617618
-0.0197461
-0.0505389
-0.094467
-0.117704
-0.0894462
-0.0653187
-0.0539281
-0.0495333
-0.0482827
-0.04789
-0.0481002
0.158266
0.157415
0.153831
0.144768
0.128709
0.106956
0.0816042
0.0559766
0.0320502
0.00972756
-0.0142325
-0.0447262
-0.0531245
-0.0327376
-0.0195566
-0.0164667
-0.0181191
-0.0198209
-0.0202846
-0.0203995
0.138762
0.138285
0.136109
0.130419
0.120015
0.105428
0.0878523
0.0696481
0.0531256
0.0404504
0.03151
0.025736
0.0341721
0.0428262
0.0393639
0.0330536
0.0267069
0.0235668
0.0228698
0.0227843
0.119812
0.119646
0.118463
0.115143
0.108803
0.0996689
0.0885289
0.0772839
0.0685218
0.0660425
0.0755168
0.0953022
0.121836
0.116252
0.101279
0.0884761
0.0808499
0.0789587
0.077557
0.0771057
0.102259
0.102207
0.101674
0.0999422
0.0964241
0.0912516
0.0850948
0.0796696
0.0778573
0.0850085
0.108119
0.143995
0.176859
0.16823
0.148707
0.134718
0.128306
0.126287
0.125591
0.124701
0.0855161
0.0855856
0.0854711
0.0847797
0.0831219
0.0807033
0.078127
0.0769208
0.0800823
0.0933745
0.123612
0.164803
0.196698
0.188104
0.170977
0.161633
0.158341
0.15794
0.156643
0.155453
0.0690417
0.06917
0.069284
0.0692205
0.0687954
0.0681327
0.0678329
0.0692454
0.0751401
0.0907368
0.121443
0.159128
0.184553
0.176677
0.165748
0.162186
0.164398
0.165207
0.164011
0.162729
0.0525117
0.0526496
0.0528675
0.0531427
0.0533945
0.0537565
0.054652
0.0572428
0.0637401
0.0783618
0.104463
0.133537
0.149007
0.142234
0.139188
0.142346
0.146617
0.148288
0.147352
0.146286
0.0358973
0.0360028
0.0362182
0.0366088
0.0371563
0.0379067
0.0391758
0.0417327
0.0475277
0.0587693
0.0771544
0.0944502
0.102028
0.0964669
0.0989721
0.106271
0.113038
0.115121
0.114436
0.113373
0.0195106
0.0195692
0.0197116
0.020039
0.0205677
0.0212406
0.0222263
0.0238125
0.027229
0.033808
0.0433915
0.0491517
0.0447441
0.0409184
0.0493721
0.0585673
0.0659842
0.067868
0.0669815
0.0660846
0.00367197
0.00368438
0.0036901
0.00377135
0.00403052
0.004249
0.00446298
0.00472638
0.00505123
0.00572582
0.0068078
0.00650218
0.00713241
0.00861079
0.00783023
0.011319
0.0113941
0.00821707
0.0097297
0.0108485
-0.0305379
0.13633
0.331178
0.501218
0.637088
0.744087
0.832567
0.907885
0.942191
0.918919
0.272113
0.392796
0.52264
0.634851
0.729419
0.807665
0.871018
0.916002
0.938522
0.950626
0.490913
0.573701
0.662452
0.740825
0.808227
0.86462
0.909475
0.942258
0.965968
0.983969
0.651672
0.710927
0.772548
0.829623
0.879267
0.921433
0.956076
0.983723
1.00651
1.02482
0.777086
0.820192
0.866146
0.909942
0.948637
0.982444
1.01139
1.03548
1.05587
1.07371
0.881391
0.914264
0.952374
0.987915
1.02054
1.0498
1.07537
1.09686
1.11471
1.13206
0.973932
1.00262
1.0366
1.06873
1.09868
1.12586
1.14961
1.16934
1.18484
1.20192
1.06252
1.09172
1.12573
1.15778
1.18738
1.21397
1.23684
1.25533
1.26871
1.28574
1.15783
1.19104
1.22769
1.26127
1.29132
1.3175
1.33946
1.35674
1.36861
1.38601
1.27283
1.31066
1.3493
1.38355
1.4129
1.43765
1.45802
1.47391
1.48538
1.50345
1.41777
1.45632
1.49246
1.52314
1.54882
1.57092
1.58998
1.60551
1.61793
1.63593
1.59285
1.62447
1.65065
1.6731
1.69308
1.7118
1.72951
1.74599
1.76134
1.77941
1.78147
1.79867
1.8137
1.82993
1.84584
1.86037
1.87358
1.8875
1.90504
1.9252
1.96318
1.97272
1.98426
1.99507
2.00436
2.01394
2.02472
2.03609
2.04745
2.06281
2.17042
2.17408
2.15914
2.14433
2.13805
2.14373
2.16221
2.19252
2.22469
2.25135
2.47674
2.34188
2.26524
2.22285
2.20543
2.2094
2.23679
2.29321
2.39583
2.62019
0.780325
0.778196
0.773712
0.765088
0.752864
0.740735
0.730506
0.722611
0.716995
0.713744
0.713392
0.716133
0.721238
0.728461
0.737849
0.749388
0.762039
0.773074
0.779185
0.782239
0.704777
0.710624
0.716957
0.721449
0.723919
0.723594
0.720857
0.717048
0.713539
0.711282
0.711138
0.713338
0.717002
0.72129
0.725097
0.72698
0.726043
0.722561
0.717398
0.710777
0.696351
0.698647
0.702051
0.705046
0.707121
0.708616
0.709372
0.709055
0.708031
0.707151
0.707329
0.708757
0.710573
0.711878
0.712058
0.711166
0.709616
0.707279
0.704016
0.701095
0.690839
0.691925
0.693757
0.696135
0.698157
0.699584
0.700604
0.701356
0.701759
0.701984
0.702478
0.703286
0.703883
0.703948
0.703534
0.702684
0.701213
0.699128
0.697041
0.695658
0.685634
0.686296
0.687404
0.689107
0.690888
0.692518
0.693813
0.694828
0.695712
0.696505
0.697236
0.697788
0.697979
0.69781
0.697241
0.696184
0.694753
0.693209
0.69189
0.691109
0.680656
0.681116
0.681901
0.683198
0.684683
0.686198
0.687661
0.688958
0.690094
0.691152
0.692068
0.692635
0.692777
0.6925
0.691798
0.690806
0.689677
0.688543
0.687626
0.687109
0.675824
0.676168
0.676778
0.677845
0.679136
0.680507
0.681943
0.683387
0.684759
0.68604
0.687151
0.687839
0.688012
0.687731
0.687127
0.686346
0.685491
0.684622
0.683948
0.683569
0.671085
0.671353
0.671845
0.672751
0.673917
0.67521
0.676601
0.678086
0.679624
0.681143
0.68249
0.683354
0.683649
0.683521
0.683121
0.682555
0.681902
0.68126
0.680766
0.680477
0.666358
0.666571
0.66698
0.667775
0.66886
0.670104
0.671484
0.673014
0.674681
0.676434
0.678062
0.679183
0.679711
0.679819
0.679646
0.679296
0.678847
0.678394
0.67804
0.677814
0.661555
0.661727
0.662077
0.662799
0.663837
0.665057
0.666463
0.668075
0.669895
0.671898
0.673863
0.675332
0.676176
0.676565
0.676638
0.676513
0.676273
0.67599
0.675751
0.675571
0.656589
0.656728
0.657037
0.657713
0.658734
0.659977
0.661448
0.663182
0.665209
0.667516
0.669892
0.671797
0.67302
0.673733
0.674086
0.674198
0.674167
0.674047
0.673905
0.67376
0.651373
0.651484
0.651765
0.652422
0.653459
0.654771
0.65635
0.658261
0.660561
0.663254
0.666137
0.668565
0.670234
0.671324
0.671992
0.672366
0.672539
0.672586
0.67253
0.672412
0.64581
0.645899
0.646164
0.646825
0.647916
0.649337
0.651079
0.653235
0.655884
0.659069
0.662576
0.665631
0.667829
0.669353
0.670374
0.671049
0.671459
0.67166
0.671678
0.671581
0.639797
0.639865
0.640122
0.640811
0.641993
0.643571
0.64554
0.648019
0.651117
0.654916
0.659186
0.662996
0.66582
0.667853
0.669281
0.670292
0.670958
0.671325
0.671414
0.671335
0.633204
0.633252
0.633512
0.634251
0.635564
0.637355
0.639624
0.642517
0.646182
0.65074
0.65594
0.660659
0.66423
0.666864
0.668768
0.670152
0.671117
0.671663
0.671822
0.671757
0.625882
0.625912
0.626176
0.626989
0.628478
0.630547
0.6332
0.636621
0.640999
0.646492
0.652822
0.658634
0.663092
0.666435
0.668901
0.67073
0.672034
0.672772
0.673
0.672947
0.617641
0.617658
0.617924
0.618834
0.620554
0.622966
0.626115
0.630206
0.635473
0.64212
0.649822
0.656943
0.662452
0.666629
0.669761
0.672126
0.673811
0.674758
0.675057
0.675011
0.60817
0.608157
0.608484
0.609532
0.611539
0.614405
0.618187
0.623124
0.629506
0.637578
0.646944
0.655621
0.662371
0.667527
0.67144
0.674428
0.676554
0.677735
0.678106
0.678066
0.597191
0.597153
0.597525
0.598767
0.601144
0.604596
0.609184
0.615193
0.622971
0.632801
0.644177
0.654703
0.662907
0.669216
0.674046
0.677752
0.680388
0.681819
0.682261
0.682223
0.584227
0.584162
0.584611
0.586106
0.588967
0.593185
0.598816
0.606204
0.615747
0.627743
0.641537
0.654242
0.664138
0.671779
0.677676
0.682211
0.685416
0.687113
0.687621
0.68758
0.568636
0.568542
0.569115
0.570959
0.574469
0.579708
0.586725
0.595915
0.607713
0.622395
0.639081
0.654318
0.666151
0.675302
0.682428
0.687897
0.69173
0.693695
0.694259
0.694208
0.549483
0.549362
0.550135
0.552493
0.55692
0.563582
0.572495
0.584087
0.598789
0.616786
0.636892
0.655032
0.669043
0.679892
0.688364
0.694881
0.699375
0.701592
0.702191
0.702124
0.52538
0.525241
0.526344
0.529496
0.535301
0.544041
0.555637
0.570498
0.588949
0.611005
0.635101
0.656495
0.672904
0.685607
0.69553
0.70319
0.70833
0.710752
0.711354
0.711262
0.494018
0.493899
0.495611
0.500139
0.508236
0.520207
0.535739
0.555087
0.578336
0.605269
0.633915
0.658873
0.677837
0.692504
0.703972
0.712789
0.718485
0.721018
0.721579
0.721455
0.451272
0.451314
0.45436
0.461755
0.474093
0.491339
0.512696
0.538089
0.567325
0.599966
0.633638
0.662358
0.683944
0.700616
0.713642
0.723543
0.729608
0.732096
0.732565
0.732406
0.389434
0.39062
0.398071
0.411858
0.431941
0.457572
0.487127
0.520215
0.556523
0.595514
0.634508
0.667074
0.691276
0.70989
0.724362
0.735124
0.74131
0.743516
0.743816
0.743633
0.316032
0.317765
0.332027
0.355706
0.386653
0.422182
0.460689
0.501996
0.545912
0.591944
0.637137
0.674477
0.702099
0.723224
0.739511
0.751236
0.757459
0.759487
0.759751
0.759662
0.240245
0.246372
0.267441
0.301301
0.342608
0.387752
0.435185
0.484771
0.536388
0.589577
0.641161
0.68346
0.714624
0.738431
0.756733
0.769246
0.775122
0.776728
0.776925
0.776897
0.178247
0.186666
0.212292
0.253137
0.30255
0.3559
0.411375
0.468703
0.527668
0.58776
0.645484
0.692464
0.726914
0.753077
0.772845
0.785866
0.791713
0.793153
0.793415
0.79345
0.127808
0.136821
0.165985
0.21205
0.267592
0.327559
0.389846
0.454026
0.519711
0.586264
0.649794
0.701205
0.738703
0.76704
0.788304
0.801956
0.807844
0.809644
0.809993
0.810073
0.0855562
0.0948541
0.126468
0.176524
0.237098
0.302558
0.37062
0.440783
0.512501
0.585008
0.653995
0.709606
0.750024
0.780474
0.803166
0.817732
0.824106
0.82622
0.826607
0.826695
0.0491394
0.0585546
0.0920149
0.145271
0.21
0.280142
0.353235
0.4287
0.50589
0.5839
0.658014
0.717611
0.760813
0.793292
0.817401
0.832883
0.839926
0.842204
0.842645
0.842719
0.0168941
0.0263537
0.0612337
0.117194
0.185407
0.259585
0.337131
0.417371
0.499569
0.582699
0.661652
0.725031
0.770878
0.805233
0.830671
0.847029
0.854673
0.857153
0.857628
0.857695
-0.012451
-0.00294236
0.033103
0.0914109
0.162605
0.240318
0.32182
0.406386
0.493204
0.58115
0.66472
0.731722
0.78006
0.816137
0.842757
0.859826
0.868042
0.870711
0.871203
0.871252
-0.039757
-0.0301919
0.00689996
0.067186
0.141057
0.221899
0.306938
0.395441
0.486548
0.579052
0.667076
0.737596
0.788316
0.826028
0.853661
0.871311
0.8799
0.882711
0.883223
0.883239
-0.0655786
-0.0559482
-0.0178862
0.0440924
0.120375
0.203999
0.292226
0.384322
0.479411
0.576248
0.668615
0.742618
0.795681
0.834923
0.863481
0.881585
0.890311
0.893235
0.893768
0.893768
-0.0904185
-0.0806185
-0.0417048
0.0218818
0.100289
0.186396
0.2775
0.372874
0.471669
0.572634
0.669268
0.74678
0.802216
0.842949
0.872305
0.890704
0.899515
0.902443
0.902974
0.902955
-0.114505
-0.104476
-0.0648103
0.000329301
0.0806183
0.168945
0.262643
0.361009
0.463239
0.568137
0.668979
0.750077
0.807988
0.85025
0.880348
0.898956
0.90775
0.910627
0.911114
0.911057
-0.137945
-0.127703
-0.0872252
-0.0207155
0.0612584
0.151578
0.247599
0.34868
0.454079
0.562697
0.667694
0.752516
0.813072
0.856976
0.887818
0.906525
0.915188
0.917954
0.918382
0.918306
-0.160895
-0.150347
-0.109109
-0.0413181
0.0421656
0.134259
0.232355
0.33588
0.444181
0.556296
0.665369
0.754075
0.817525
0.863264
0.894858
0.91353
0.921961
0.924535
0.92487
0.924759
-0.183319
-0.17249
-0.130508
-0.0615142
0.0233325
0.116999
0.21694
0.322645
0.433569
0.548925
0.661964
0.754702
0.821374
0.869239
0.901646
0.920115
0.928101
0.930382
0.930594
0.930454
-0.205273
-0.194132
-0.151358
-0.081291
0.00477955
0.0998318
0.201395
0.309031
0.422293
0.540606
0.657441
0.754326
0.824592
0.874999
0.908393
0.926505
0.933762
0.935566
0.935627
0.935464
-0.226581
-0.215199
-0.171653
-0.100606
-0.0134472
0.0828271
0.185786
0.295108
0.410426
0.531394
0.651779
0.75286
0.827093
0.88057
0.915351
0.933095
0.939239
0.940213
0.94002
0.939848
-0.247384
-0.235651
-0.19138
-0.119437
-0.0313162
0.0660235
0.170204
0.280958
0.398055
0.521369
0.644985
0.750199
0.828726
0.885857
0.922698
0.940458
0.945194
0.944671
0.943848
0.943663
-0.267516
-0.255464
-0.210507
-0.137741
-0.0487479
0.0495057
0.15473
0.2667
0.385289
0.510596
0.637098
0.746239
0.829285
0.890605
0.930358
0.949205
0.952943
0.950169
0.947629
0.946637
-0.287037
-0.274679
-0.228981
-0.155465
-0.0657058
0.0333431
0.139448
0.252414
0.372239
0.499209
0.628183
0.740881
0.828533
0.8944
0.937795
0.959364
0.964023
0.959863
0.953331
0.944812
-0.305864
-0.293253
-0.246894
-0.172763
-0.0823971
0.0172636
0.124026
0.237705
0.358463
0.486713
0.617713
0.73357
0.825967
0.896857
0.944308
0.970161
0.978685
0.974931
0.964704
0.959166
-0.323948
-0.311108
-0.264232
-0.189605
-0.0988256
0.00127242
0.108479
0.222555
0.343913
0.47299
0.605489
0.72392
0.820801
0.897173
0.94788
0.977192
0.988122