/*--------------------------------*- C++ -*----------------------------------*\
| =========                 |                                                 |
| \\      /  F ield         | OpenFOAM: The Open Source CFD Toolbox           |
|  \\    /   O peration     | Version:  2112                                  |
|   \\  /    A nd           | Website:  www.openfoam.com                      |
|    \\/     M anipulation  |                                                 |
\*---------------------------------------------------------------------------*/
FoamFile
{
    version     2.0;
    format      ascii;
    arch        "LSB;label=32;scalar=64";
    class       surfaceScalarField;
    location    "56.5";
    object      phi;
}
// * * * * * * * * * * * * * * * * * * * * * * * * * * * * * * * * * * * * * //

dimensions      [0 3 -1 0 0 0 0];

oriented        oriented;

internalField   nonuniform List<scalar> 
17370
(
-0.0916068
0.0960096
0.284608
-0.0775952
0.0594208
0.36495
-0.0430437
0.0316248
0.427587
-0.0223222
0.0162706
0.505303
-0.0116783
0.00880463
0.602276
-0.00659314
0.00510779
0.720543
-0.00387054
0.00299004
0.863787
-0.00221702
0.0016389
1.03603
-0.00110754
0.000686604
1.24292
-0.000275417
-0.000118271
1.49158
0.000506469
-0.000919851
1.4916
0.00132396
-0.00182861
1.2432
0.00237946
-0.00312308
1.03638
0.00398091
-0.00520018
0.864126
0.00667467
-0.0088767
0.72126
0.0117402
-0.0163182
0.603793
0.022355
-0.0316418
0.508726
0.0430434
-0.0594101
0.432535
0.0775886
-0.0960036
0.365191
0.0916209
0.19739
-0.127091
0.0880219
0.0390688
-0.364355
0.354029
-0.0714762
0.0818023
-0.446654
0.454253
-0.0791716
0.071572
-0.521011
0.529108
-0.0637204
0.0556233
-0.612991
0.62076
-0.0482373
0.0404686
-0.727164
0.733685
-0.0338569
0.0273358
-0.867581
0.872434
-0.0221314
0.0172783
-1.03857
1.04191
-0.0135789
0.0102386
-1.24472
1.24713
-0.0076873
0.00528078
-1.49284
1.49486
-0.00331558
0.00129936
-1.49269
1.49451
0.000521578
-0.00234291
-1.24411
1.24602
0.00431696
-0.00622876
-1.03761
1.04009
0.00856523
-0.0110456
-0.866187
0.869815
0.0143049
-0.0179333
-0.724594
0.729747
0.0227189
-0.0278724
-0.609064
0.615633
0.0343456
-0.0409149
-0.515123
0.522459
0.0486346
-0.0559699
-0.43988
0.447658
0.0639918
-0.0717697
-0.374707
0.377355
0.0792648
-0.0819128
-0.256897
0.224435
0.0715627
-0.0391008
-0.0688104
0.0591984
0.00961195
-0.0521084
0.0589353
-0.374837
0.36801
-0.0580884
0.054247
-0.453946
0.457788
-0.048761
0.0442024
-0.527618
0.532176
-0.0396533
0.0357579
-0.620802
0.624698
-0.031545
0.0275492
-0.734661
0.738656
-0.023191
0.019302
-0.873957
0.877846
-0.0152546
0.0117956
-1.04336
1.04682
-0.00827393
0.00523927
-1.24865
1.25169
-0.00202933
-0.000953973
-1.49695
1.49993
0.00391539
-0.00706474
-1.49742
1.50057
0.0100105
-0.0134124
-1.25006
1.25347
0.0167501
-0.020659
-1.04565
1.04956
0.0244255
-0.0286616
-0.877134
0.88137
0.0325589
-0.0366755
-0.73898
0.743096
0.0404915
-0.0449627
-0.625968
0.630439
0.0494563
-0.0548789
-0.535014
0.540436
0.0586467
-0.0594062
-0.458073
0.458833
0.0524579
-0.0320673
-0.33676
0.316369
0.00967424
-0.0686603
0.0589861
-0.0534095
0.0492983
0.0041112
-0.0332415
0.0436644
-0.358565
0.348142
-0.0473398
0.0467529
-0.459581
0.460168
-0.0438246
0.0406124
-0.536135
0.539347
-0.0369358
0.0335816
-0.628398
0.631753
-0.0299481
0.0267066
-0.742038
0.745279
-0.0232524
0.0200529
-0.881341
0.88454
-0.0164573
0.0131031
-1.05025
1.0536
-0.00940101
0.00599361
-1.25495
1.25836
-0.00220002
-0.00141863
-1.50328
1.5069
0.00500604
-0.00870854
-1.50406
1.50777
0.0119913
-0.0155244
-1.25702
1.26056
0.0187076
-0.0221071
-1.05326
1.05666
0.0251324
-0.0284116
-0.884977
0.888256
0.031511
-0.0350054
-0.746778
0.750272
0.0382427
-0.0417979
-0.634557
0.638112
0.044905
-0.0477152
-0.544577
0.547387
0.0481799
-0.0443348
-0.456946
0.453101
0.0337034
-0.0163841
-0.297048
0.279729
0.00418004
-0.0531349
0.0489548
-0.0461294
0.0435744
0.00255503
-0.0230439
0.0333915
-0.337552
0.327205
-0.0391236
0.0400712
-0.45992
0.458972
-0.0388189
0.0364903
-0.542005
0.544333
-0.0338482
0.0313023
-0.634723
0.637269
-0.0283256
0.0254772
-0.748367
0.751215
-0.0222379
0.019222
-0.887597
0.890613
-0.0158681
0.0127309
-1.05678
1.05992
-0.00917055
0.00576757
-1.26175
1.26515
-0.00185463
-0.00194455
-1.51063
1.51443
0.00570365
-0.00949464
-1.51155
1.51534
0.0127335
-0.0160726
-1.26401
1.26735
0.0189847
-0.0220811
-1.05986
1.06296
0.0248654
-0.0278677
-0.89145
0.894452
0.030521
-0.0333061
-0.75345
0.756235
0.0356929
-0.0381742
-0.641062
0.643543
0.0403648
-0.0414348
-0.549219
0.550289
0.0402975
-0.0342887
-0.447971
0.441963
0.0236369
-0.0103811
-0.264534
0.251278
0.00264043
-0.0457091
0.0430687
-0.0414567
0.0396571
0.00179966
-0.0169396
0.0262218
-0.317339
0.308057
-0.0328145
0.0349322
-0.457414
0.455296
-0.0344953
0.0327947
-0.546365
0.548066
-0.0305657
0.0284368
-0.639584
0.641713
-0.0259978
0.0236174
-0.753819
0.756199
-0.0207994
0.0180493
-0.893472
0.896222
-0.0148607
0.011822
-1.06296
1.066
-0.00835255
0.00503345
-1.26848
1.2718
-0.00119088
-0.00255806
-1.5182
1.52194
0.0062556
-0.00994453
-1.51908
1.52277
0.0130555
-0.0162442
-1.27062
1.27381
0.0189967
-0.0218555
-1.06598
1.06884
0.0243065
-0.0268176
-0.897233
0.899744
0.0289463
-0.0311392
-0.758673
0.760866
0.0330653
-0.0350872
-0.645765
0.647787
0.036587
-0.0367756
-0.550864
0.551053
0.0343666
-0.027369
-0.435364
0.428366
0.0176795
-0.00748258
-0.239694
0.229497
0.00190409
-0.040857
0.0389529
-0.0381083
0.0367575
0.00135077
-0.0129397
0.0209345
-0.299421
0.291426
-0.0276974
0.0306156
-0.452746
0.449827
-0.0308192
0.029692
-0.549507
0.550635
-0.0276905
0.0257617
-0.643775
0.645704
-0.0235466
0.0214015
-0.758446
0.760592
-0.0188886
0.0164156
-0.898775
0.901248
-0.0134906
0.0106311
-1.0689
1.07176
-0.00729729
0.00407754
-1.27503
1.27825
-0.000342379
-0.00328952
-1.52561
1.52924
0.00685687
-0.0104
-1.52638
1.52992
0.013361
-0.0163455
-1.27692
1.27991
0.0188471
-0.0213578
-1.07155
1.07406
0.0234555
-0.0255824
-0.902054
0.904181
0.0274087
-0.0293099
-0.762906
0.764807
0.0309816
-0.0327354
-0.649649
0.651403
0.0335692
-0.0330196
-0.550873
0.550324
0.0296851
-0.0223681
-0.421151
0.413834
0.0138508
-0.00578249
-0.220466
0.212397
0.00147806
-0.0372894
0.0358113
-0.0355777
0.0345375
0.0010402
-0.0101142
0.0168833
-0.284068
0.277299
-0.0233963
0.0267776
-0.446657
0.443275
-0.0275594
0.0268653
-0.551539
0.552233
-0.0250978
0.0233129
-0.647603
0.649388
-0.0212483
0.0192395
-0.762669
0.764678
-0.016875
0.0145539
-0.90358
0.905901
-0.0118228
0.00914438
-1.07446
1.07714
-0.00599283
0.00291666
-1.28135
1.28443
0.000675614
-0.00416933
-1.53278
1.53627
0.00758331
-0.010938
-1.53336
1.53671
0.0136934
-0.0164119
-1.28277
1.28549
0.0186488
-0.0208686
-1.07645
1.07867
0.022725
-0.0246111
-0.906203
0.908089
0.0262254
-0.0279015
-0.766594
0.76827
0.0293683
-0.0307943
-0.653008
0.654434
0.0311223
-0.0298502
-0.549425
0.548153
0.025896
-0.0186549
-0.406529
0.399288
0.0112301
-0.00465587
-0.205147
0.198572
0.00119505
-0.034492
0.0332969
-0.0336236
0.032813
0.000810649
-0.00802106
0.0137169
-0.271095
0.265399
-0.0197545
0.0233426
-0.43978
0.436192
-0.0246093
0.0241656
-0.552835
0.553278
-0.0226733
0.0210005
-0.651169
0.652842
-0.0190346
0.0171173
-0.76664
0.768557
-0.014856
0.0126325
-0.908108
0.910332
-0.0100129
0.0074515
-1.07968
1.08224
-0.00444937
0.00151732
-1.28738
1.29031
0.0019074
-0.00523372
-1.53965
1.54298
0.00846416
-0.0115994
-1.53994
1.54308
0.0141388
-0.0166144
-1.2881
1.29057
0.0186372
-0.02063
-1.08082
1.08281
0.0222813
-0.0239517
-0.909891
0.911561
0.0253811
-0.026866
-0.769851
0.771336
0.0281415
-0.0291939
-0.655647
0.656699
0.029154
-0.0272178
-0.546553
0.544617
0.0228657
-0.0158947
-0.392178
0.385207
0.00938515
-0.00387552
-0.192582
0.187072
0.000998939
-0.0322134
0.0312145
-0.0321
0.0314664
0.000633589
-0.00641018
0.011189
-0.260189
0.25541
-0.0166438
0.0202413
-0.432598
0.429
-0.0218394
0.0216252
-0.553644
0.553858
-0.0203696
0.0187605
-0.654533
0.656142
-0.0168542
0.0149903
-0.770445
0.772308
-0.0127935
0.0106353
-0.912448
0.914606
-0.00809377
0.00561157
-1.08469
1.08717
-0.00271084
-0.000100447
-1.29313
1.29594
0.00337502
-0.00652962
-1.54618
1.54934
0.00956412
-0.0124798
-1.54608
1.549
0.0148206
-0.0170815
-1.29295
1.29521
0.0189073
-0.0206836
-1.08474
1.08652
0.0221418
-0.0236163
-0.913162
0.914637
0.0248835
-0.0261992
-0.772741
0.774056
0.0273307
-0.0279726
-0.657528
0.65817
0.0275677
-0.0250776
-0.542418
0.539928
0.0204862
-0.0138556
-0.378418
0.371787
0.00807365
-0.00332853
-0.181985
0.17724
0.000862182
-0.0302955
0.0294333
-0.0309121
0.0304216
0.000490583
-0.00511644
0.00910519
-0.251051
0.247063
-0.0139314
0.0173892
-0.42548
0.422022
-0.01918
0.0191631
-0.554017
0.554034
-0.018112
0.0165431
-0.6578
0.659369
-0.0146662
0.0128232
-0.774155
0.775998
-0.0106501
0.00852015
-0.916663
0.918793
-0.00602155
0.00359216
-1.08954
1.09197
-0.000764484
-0.00196448
-1.29865
1.30138
0.00510932
-0.00810981
-1.55237
1.55537
0.0109653
-0.0136781
-1.55179
1.5545
0.0158309
-0.0178831
-1.29738
1.29943
0.0195176
-0.0210853
-1.08826
1.08982
0.0223609
-0.0236547
-0.91605
0.917344
0.0247735
-0.0259306
-0.775293
0.77645
0.0268762
-0.0271439
-0.658605
0.658873
0.0263486
-0.0233922
-0.537218
0.534262
0.0186633
-0.0123697
-0.365346
0.359052
0.00714717
-0.00294893
-0.172803
0.168605
0.000768819
-0.0286288
0.02786
-0.0299982
0.0296282
0.000369989
-0.00403519
0.00733076
-0.243444
0.240148
-0.0115164
0.0147244
-0.418703
0.415495
-0.0165813
0.0167241
-0.554021
0.553878
-0.0157618
0.0142699
-0.660977
0.662469
-0.0123928
0.0105375
-0.777837
0.779692
-0.00835174
0.00621819
-0.920825
0.922959
-0.00372944
0.00132165
-1.09429
1.09669
0.00145978
-0.00412556
-1.30401
1.30667
0.00716954
-0.0100376
-1.55826
1.56113
0.0127301
-0.0152491
-1.55709
1.55961
0.0172166
-0.0190614
-1.30139
1.30323
0.0205073
-0.0218705
-1.09136
1.09273
0.0229658
-0.0240823
-0.918587
0.919704
0.0250566
-0.02605
-0.777529
0.778523
0.0267476
-0.0267173
-0.659006
0.658975
0.0255159
-0.0221494
-0.531116
0.527749
0.0173311
-0.0113238
-0.35293
0.346923
0.00651339
-0.0026959
-0.164629
0.160811
0.000708607
-0.0271325
0.0264239
-0.029318
0.0290552
0.00026277
-0.00308972
0.00576056
-0.237186
0.234515
-0.00930625
0.012182
-0.412472
0.409596
-0.013993
0.0142265
-0.553747
0.553513
-0.0133143
0.0118729
-0.664023
0.665464
-0.0099759
0.00808263
-0.781548
0.783441
-0.00585237
0.00368278
-0.924996
0.927166
-0.0011645
-0.00125414
-1.09899
1.10141
0.00402996
-0.00666362
-1.30924
1.31188
0.00963443
-0.0123937
-1.56389
1.56665
0.0149406
-0.0172768
-1.56201
1.56435
0.019065
-0.0207063
-1.30499
1.30663
0.0219641
-0.023119
-1.09408
1.09524
0.0240303
-0.0249679
-0.920777
0.921715
0.0257973
-0.0266162
-0.779427
0.780246
0.0270299
-0.0267411
-0.65881
0.658521
0.0250938
-0.0213401
-0.52421
0.520457
0.0164394
-0.0106409
-0.341057
0.335259
0.00611244
-0.00254278
-0.157149
0.15358
0.000674684
-0.0257442
0.0250695
-0.0288488
0.0286876
0.000161213
-0.00221603
0.00430128
-0.232156
0.230071
-0.00720229
0.00967532
-0.406944
0.404471
-0.0113322
0.0115782
-0.55334
0.553094
-0.0106843
0.00925692
-0.666999
0.668426
-0.0073142
0.00535343
-0.785339
0.7873
-0.00304279
0.000805002
-0.929242
0.93148
0.00177761
-0.00424095
-1.10374
1.1062
0.00704275
-0.00967235
-1.31442
1.31705
0.0125982
-0.0152686
-1.56931
1.57198
0.0176817
-0.01984
-1.56656
1.56872
0.0214487
-0.0228825
-1.30817
1.3096
0.0239455
-0.024877
-1.0964
1.09733
0.0255845
-0.0263248
-0.922606
0.923347
0.0269998
-0.0276733
-0.780965
0.781639
0.0277832
-0.0271351
-0.658006
0.657358
0.025064
-0.0209343
-0.516556
0.512426
0.0159329
-0.0102562
-0.329568
0.323892
0.00589753
-0.00246878
-0.150115
0.146686
0.000661507
-0.0244146
0.0237531
-0.0285822
0.0285235
5.87527e-05
-0.00136527
0.00288042
-0.228288
0.226773
-0.0051236
0.00713119
-0.402256
0.400248
-0.00853095
0.00870675
-0.552964
0.552788
-0.00778287
0.00633118
-0.669985
0.671437
-0.00430311
0.00224346
-0.789269
0.791329
0.000181656
-0.00252514
-0.933623
0.935966
0.00521117
-0.0077542
-1.10857
1.11112
0.0106179
-0.0132717
-1.3196
1.32225
0.0161755
-0.0187687
-1.57455
1.57714
0.0210512
-0.0230284
-1.57074
1.57272
0.024452
-0.0256705
-1.31093
1.31215
0.0265299
-0.0272286
-1.09829
1.09899
0.0277248
-0.0282519
-0.924053
0.92458
0.0287638
-0.0292417
-0.782147
0.782625
0.0290657
-0.0280028
-0.65646
0.655397
0.0254731
-0.0209413
-0.508164
0.503632
0.0157907
-0.0101366
-0.318286
0.312631
0.0058439
-0.00246322
-0.143319
0.139938
0.000666493
-0.023104
0.0224375
-0.0285207
0.0285708
-5.0171e-05
-0.000490952
0.00143054
-0.225562
0.224622
-0.0029879
0.00446517
-0.398531
0.397053
-0.00550583
0.0055303
-0.552786
0.552762
-0.00452664
0.0030042
-0.673067
0.674589
-0.000865216
-0.00132974
-0.793398
0.795593
0.00391766
-0.00640449
-0.938215
0.940702
0.00924016
-0.0119036
-1.11358
1.11624
0.0148711
-0.0175825
-1.32483
1.32754
0.0204952
-0.0230317
-1.57963
1.58217
0.0251941
-0.0269899
-1.57456
1.57636
0.0282215
-0.0292129
-1.31324
1.31423
0.0298544
-0.0303059
-1.09973
1.10018
0.0305751
-0.0308729
-0.925076
0.925374
0.0311952
-0.0314042
-0.782819
0.783028
0.0309544
-0.0293838
-0.654068
0.652497
0.0263483
-0.021371
-0.498982
0.494005
0.0160044
-0.0102656
-0.307007
0.301268
0.00593879
-0.0025203
-0.136581
0.133162
0.000688037
-0.0217766
0.0210885
-0.0286761
0.0288416
-0.000165516
0.000430536
-9.68944e-05
-0.224
0.223666
-0.000725232
0.00159049
-0.395896
0.395031
-0.00216503
0.00194773
-0.55298
0.553197
-0.000801886
-0.000860477
-0.67635
0.678012
0.00316794
-0.00554576
-0.797804
0.800181
0.00834457
-0.0110206
-0.943098
0.945774
0.0140519
-0.0168747
-1.11882
1.12165
0.019985
-0.0227851
-1.33018
1.33298
0.025731
-0.0282206
-1.58461
1.5871
0.0302594
-0.0318598
-1.57801
1.57961
0.0328824
-0.0336169
-1.31508
1.31581
0.0340193
-0.0342112
-1.10067
1.10086
0.03424
-0.0342863
-0.925638
0.925684
0.0344064
-0.0342873
-0.782858
0.782739
0.0334959
-0.0313249
-0.650702
0.648531
0.0277322
-0.0222412
-0.48891
0.483419
0.0165703
-0.0106305
-0.295511
0.289571
0.00617118
-0.00263438
-0.12973
0.126194
0.000724448
-0.0204001
0.0196757
-0.0290869
0.0293929
-0.000306063
0.00142451
-0.00173761
-0.223689
0.224002
0.00175608
-0.00160922
-0.39448
0.394334
0.00163131
-0.00219537
-0.553761
0.554325
0.00356675
-0.00542065
-0.679976
0.68183
0.00795532
-0.0105663
-0.802573
0.805184
0.0136308
-0.0165462
-0.948361
0.951276
0.0198282
-0.0228585
-1.1244
1.12743
0.0261582
-0.0290792
-1.33571
1.33863
0.0320799
-0.0345282
-1.58948
1.59193
0.0364351
-0.0378152
-1.58104
1.58242
0.0386058
-0.039056
-1.31637
1.31682
0.0391946
-0.0390975
-1.10105
1.10095
0.0388582
-0.0386286
-0.925674
0.925445
0.038541
-0.0379835
-0.782146
0.781589
0.0367523
-0.0339129
-0.646196
0.643357
0.0296774
-0.0235729
-0.477798
0.471693
0.0174901
-0.0112243
-0.283565
0.277299
0.00653383
-0.00280126
-0.12261
0.118877
0.00077423
-0.0189461
0.0181718
-0.0297702
0.0302523
-0.0004821
0.00270437
-0.00376173
-0.224699
0.225757
0.00464679
-0.0052937
-0.394508
0.395155
0.00603353
-0.00704822
-0.555366
0.556381
0.00872132
-0.0108322
-0.684049
0.68616
0.0136656
-0.0165742
-0.80781
0.810718
0.0199761
-0.0231972
-0.95411
0.957331
0.0267984
-0.0300908
-1.13039
1.13368
0.0336268
-0.0366995
-1.34148
1.34456
0.0397732
-0.04218
-1.59427
1.59667
0.0439358
-0.0450663
-1.5836
1.58473
0.0455696
-0.0457129
-1.31706
1.31721
0.0455576
-0.045136
-1.10079
1.10037
0.0445994
-0.0440689
-0.925112
0.924581
0.0436742
-0.0426634
-0.780532
0.779521
0.0408737
-0.0372461
-0.640387
0.63676
0.0322533
-0.0254022
-0.465434
0.458583
0.0187769
-0.0120467
-0.270914
0.264184
0.00702295
-0.0030179
-0.115065
0.11106
0.000836196
-0.0173882
0.016552
-0.030804
0.0315049
-0.000700813
0.00419298
-0.00613946
-0.227232
0.229178
0.00808515
-0.00963439
-0.396191
0.39774
0.0111979
-0.012791
-0.55804
0.559633
0.0149097
-0.0173732
-0.68872
0.691184
0.020609
-0.0238988
-0.81365
0.81694
0.0277246
-0.031322
-0.960481
0.964078
0.0353085
-0.0389119
-1.13692
1.14052
0.0427229
-0.0459635
-1.34755
1.3508
0.049102
-0.0514337
-1.59894
1.60127
0.0529885
-0.0538111
-1.58564
1.58647
0.0539753
-0.0537739
-1.31707
1.31687
0.0532921
-0.0525095
-1.09982
1.09904
0.0516431
-0.05077
-0.923879
0.923006
0.0499788
-0.0484658
-0.777994
0.776481
0.0459754
-0.0414136
-0.633032
0.62847
0.0355147
-0.0277485
-0.451545
0.443778
0.0204287
-0.0130863
-0.257278
0.249935
0.00762663
-0.00327677
-0.106946
0.102596
0.000907508
-0.0157035
0.014796
-0.0322696
0.0332574
-0.000987872
0.00606973
-0.00906806
-0.231543
0.234541
0.0122747
-0.0148811
-0.399795
0.402401
0.0174132
-0.0197124
-0.562073
0.564372
0.0224205
-0.0253666
-0.694196
0.697142
0.0291361
-0.0329088
-0.820268
0.824041
0.0372556
-0.0413066
-0.967612
0.971663
0.0457499
-0.049712
-1.14407
1.14803
0.0538256
-0.0572328
-1.35395
1.35735
0.060406
-0.0626108
-1.60343
1.60564
0.0638991
-0.0643349
-1.58703
1.58747
0.0641054
-0.0634659
-1.31628
1.31564
0.0625994
-0.0613979
-1.09803
1.09683
0.0601584
-0.058936
-0.921885
0.920663
0.0576218
-0.0555117
-0.774431
0.772321
0.0521871
-0.0464976
-0.623817
0.618127
0.0395013
-0.0306145
-0.435786
0.426899
0.0224286
-0.0143184
-0.242363
0.234252
0.00832333
-0.00356528
-0.0981114
0.0933533
0.00098371
-0.0138756
0.0128919
-0.0342957
0.0356759
-0.00138022
0.00850961
-0.0128639
-0.237947
0.242301
0.0175582
-0.0214015
-0.405689
0.409533
0.0250699
-0.0282198
-0.567792
0.570942
0.0316824
-0.0352561
-0.700749
0.704323
0.0397103
-0.044091
-0.827858
0.832238
0.0490775
-0.053673
-0.975665
0.980261
0.0586456
-0.0630004
-1.15193
1.15629
0.0674145
-0.0709527
-1.36064
1.36418
0.0740856
-0.0760665
-1.60761
1.60959
0.0769779
-0.0769138
-1.58757
1.58751
0.0762096
-0.0750118
-1.31449
1.31329
0.0736979
-0.0720237
-1.0953
1.09363
0.0703757
-0.0687277
-0.919088
0.91744
0.0668211
-0.0639843
-0.769633
0.766796
0.0596256
-0.0525583
-0.612344
0.605277
0.044226
-0.0339728
-0.417748
0.407495
0.0247298
-0.015695
-0.225863
0.216828
0.00907591
-0.00386348
-0.0884457
0.0832332
0.00105812
-0.0118982
0.01084
-0.0370758
0.0390134
-0.00193753
0.011924
-0.0179874
-0.246985
0.253048
0.0244838
-0.0297815
-0.414366
0.419664
0.0348027
-0.0389957
-0.575579
0.579772
0.0434245
-0.0478271
-0.708694
0.713096
0.0531677
-0.0583004
-0.836666
0.841799
0.0640389
-0.0692383
-0.984814
0.990014
0.0747546
-0.0794689
-1.16055
1.16526
0.0840988
-0.0876497
-1.36752
1.37107
0.0905747
-0.0921513
-1.61124
1.61282
0.0925068
-0.0917729
-1.58703
1.58629
0.0904551
-0.0886003
-1.3115
1.30965
0.086752
-0.0845856
-1.09149
1.08932
0.0825142
-0.0802641
-0.915296
0.913046
0.077801
-0.0739867
-0.763243
0.759429
0.0683458
-0.0595928
-0.598097
0.589344
0.049636
-0.0377342
-0.396952
0.38505
0.0272338
-0.0171305
-0.207485
0.197382
0.00982347
-0.00414089
-0.0778729
0.0721904
0.00112114
-0.00977912
0.00865798
-0.0409351
0.043741
-0.00280594
0.0168583
-0.0251771
-0.259367
0.267685
0.0339166
-0.0409696
-0.426497
0.43355
0.0476418
-0.0531085
-0.585928
0.591395
0.0587844
-0.0642745
-0.718459
0.723949
0.0707193
-0.0767232
-0.846961
0.852965
0.0832612
-0.089039
-0.995143
1.00092
0.0950056
-0.0999393
-1.1698
1.17474
0.104577
-0.107912
-1.3743
1.37764
0.110344
-0.111243
-1.61392
1.61482
0.110788
-0.109155
-1.58502
1.58339
0.10705
-0.104405
-1.30713
1.30449
0.101908
-0.099166
-1.08648
1.08374
0.0966385
-0.0937159
-0.91012
0.907198
0.0906149
-0.0855673
-0.754755
0.749708
0.078314
-0.0674921
-0.580417
0.569595
0.0555793
-0.041726
-0.37286
0.359007
0.0297742
-0.0184924
-0.186982
0.1757
0.0104771
-0.00435561
-0.0663903
0.0602688
0.00116029
-0.00754667
0.00638638
-0.0464482
0.0507181
-0.00426985
0.024518
-0.0359067
-0.276259
0.287648
0.0475532
-0.0569291
-0.443105
0.452481
0.0656127
-0.0725386
-0.599445
0.606371
0.0797327
-0.086695
-0.730434
0.737397
0.094291
-0.101082
-0.858934
0.865725
0.108261
-0.114409
-1.00653
1.01268
0.120521
-0.125344
-1.17932
1.18415
0.129585
-0.132318
-1.38045
1.38318
0.133835
-0.133679
-1.61504
1.61489
0.132082
-0.129276
-1.58107
1.57827
0.126198
-0.122599
-1.30109
1.29749
0.119355
-0.115943
-1.08012
1.07671
0.112885
-0.10921
-0.903376
0.899701
0.105219
-0.0985441
-0.743605
0.73693
0.0892893
-0.0759598
-0.558486
0.545156
0.0617439
-0.0456589
-0.344922
0.328837
0.0321018
-0.0195978
-0.164224
0.15172
0.0109192
-0.00445427
-0.0541106
0.0476456
0.00115947
-0.0052545
0.00409504
-0.0546777
0.062018
-0.00734035
0.0379773
-0.0538376
-0.299805
0.315665
0.0695515
-0.0821271
-0.465836
0.478412
0.0929766
-0.101245
-0.616555
0.624824
0.109931
-0.118134
-0.744974
0.753178
0.126607
-0.133779
-0.8723
0.879472
0.141031
-0.146959
-1.01839
1.02432
0.152547
-0.156624
-1.18831
1.19239
0.159796
-0.161304
-1.38507
1.38658
0.161301
-0.159603
-1.61376
1.61206
0.156488
-0.152214
-1.57462
1.57035
0.147934
-0.143199
-1.29304
1.2883
0.139098
-0.134975
-1.0722
1.06807
0.131256
-0.126732
-0.89487
0.890346
0.121425
-0.112608
-0.728902
0.720085
0.100802
-0.0844104
-0.531268
0.514876
0.067581
-0.0491257
-0.312638
0.294183
0.0339408
-0.0203039
-0.139301
0.125664
0.0110796
-0.00441378
-0.0413199
0.0346541
0.00110896
-0.00298895
0.00188
-0.0688668
0.0729849
-0.00411807
0.0291156
-0.0428565
-0.334006
0.347747
0.0567674
-0.0682758
-0.496139
0.507647
0.0785315
-0.0880568
-0.636821
0.646346
0.0986249
-0.108248
-0.760993
0.770616
0.118905
-0.128373
-0.885782
0.895249
0.138411
-0.147281
-1.02929
1.03816
0.156442
-0.164174
-1.19535
1.20308
0.171667
-0.177412
-1.38689
1.39264
0.182147
-0.184714
-1.60911
1.61167
0.185073
-0.18378
-1.56499
1.5637
0.181439
-0.17818
-1.28262
1.27936
0.175274
-0.171886
-1.06251
1.05912
0.168882
-0.1644
-0.884062
0.87958
0.157154
-0.14425
-0.709442
0.696538
0.126754
-0.1034
-0.497622
0.474268
0.0805834
-0.0565475
-0.275653
0.251617
0.0378372
-0.0218743
-0.112675
0.0967119
0.011567
-0.00447278
-0.0285421
0.0214478
0.00110236
-0.000860934
-0.000241431
-0.0801195
0.0782956
0.00182386
0.00748014
-0.0165258
-0.364302
0.373348
0.0270787
-0.0352086
-0.52385
0.53198
0.0434139
-0.0514718
-0.658349
0.666407
0.06121
-0.0702259
-0.779921
0.788937
0.0797716
-0.0884627
-0.904162
0.912853
0.0976389
-0.105404
-1.04672
1.05449
0.113596
-0.120128
-1.21059
1.21713
0.126365
-0.130807
-1.39802
1.40246
0.133801
-0.134784
-1.61332
1.61431
0.133543
-0.130613
-1.56155
1.55862
0.126638
-0.121628
-1.27536
1.27035
0.117009
-0.111925
-1.05367
1.04859
0.107185
-0.101199
-0.870262
0.864276
0.0936064
-0.0822974
-0.679685
0.668376
0.0691454
-0.0533366
-0.449425
0.433616
0.0393775
-0.0262624
-0.227963
0.214848
0.0169704
-0.00956921
-0.0817778
0.0743766
0.00502009
-0.0019526
-0.0148229
0.0117554
0.00042647
0.00133771
-0.00176418
-0.0815734
0.0786969
0.0028765
-0.00168592
-0.00356525
-0.384747
0.389998
0.0107563
-0.0166219
-0.544293
0.550159
0.0226986
-0.0297357
-0.676541
0.683578
0.0381416
-0.0459633
-0.797096
0.804918
0.0544734
-0.0620555
-0.920805
0.928387
0.0698051
-0.0767061
-1.06206
1.06896
0.0837539
-0.0894272
-1.22318
1.22886
0.0943438
-0.0975505
-1.40616
1.40937
0.0994859
-0.0992595
-1.61447
1.61424
0.0968218
-0.0926965
-1.55494
1.55081
0.0877696
-0.0819501
-1.26499
1.25917
0.0761758
-0.0699777
-1.04198
1.03578
0.0641618
-0.0573723
-0.854651
0.847862
0.0504584
-0.041133
-0.65364
0.644315
0.0317046
-0.0217662
-0.415996
0.406057
0.0145096
-0.00887733
-0.201157
0.195525
0.00553079
-0.00323344
-0.0669489
0.0646515
0.00183675
-0.000782257
-0.00872463
0.00767013
0.000143931
0.00235355
-0.00249748
-0.0803293
0.0776084
0.00272087
-0.00529972
0.00277287
-0.398372
0.400899
0.00187082
-0.0062979
-0.559377
0.563804
0.0114206
-0.0173093
-0.691543
0.697431
0.0244769
-0.0311676
-0.812127
0.818818
0.0384371
-0.0449375
-0.935443
0.941944
0.0519533
-0.0577821
-1.07542
1.08125
0.0639003
-0.0683383
-1.23409
1.23852
0.0724179
-0.0748909
-1.4123
1.41477
0.0758813
-0.0746235
-1.61349
1.61223
0.0716104
-0.0669564
-1.54606
1.5414
0.0615606
-0.0548615
-1.25295
1.24625
0.0485668
-0.0416948
-1.02841
1.02154
0.0351302
-0.0281974
-0.838193
0.83126
0.0216635
-0.0144252
-0.631965
0.624727
0.0081173
-0.00302883
-0.394933
0.389845
0.000485097
0.000655775
-0.188344
0.187203
-0.000820994
0.000470302
-0.0613356
0.0616863
-0.000197082
6.50045e-05
-0.00633392
0.006466
-6.35886e-05
0.00292432
-0.00286073
-0.0788337
0.0764214
0.00241239
-0.00643319
0.00550661
-0.40745
0.408377
-0.00209455
-0.00110744
-0.571447
0.574649
0.0052655
-0.0106032
-0.704105
0.709443
0.0166176
-0.022485
-0.824828
0.830696
0.0287745
-0.034409
-0.947991
0.953625
0.0404053
-0.0455666
-1.08693
1.09209
0.0506992
-0.0547173
-1.2428
1.24682
0.0581
-0.0599914
-1.41684
1.41873
0.0604084
-0.0586749
-1.61074
1.60901
0.0552577
-0.0500377
-1.536
1.53078
0.0443547
-0.0375254
-1.23941
1.23258
0.0309945
-0.0237007
-1.01385
1.00656
0.0170484
-0.0100182
-0.821978
0.814948
0.00416515
0.00159257
-0.614786
0.609028
-0.00567498
0.00782834
-0.382455
0.380301
-0.00784782
0.00663292
-0.183847
0.185062
-0.00503137
0.00319542
-0.0612118
0.0630478
-0.00178872
0.000722061
-0.00645907
0.00752572
-0.000228575
0.00305422
-0.00282564
-0.0774407
0.0753721
0.00206851
-0.00632159
0.00590452
-0.413668
0.414085
-0.00387655
0.00130536
-0.580729
0.5833
0.00274722
-0.00730991
-0.71474
0.719303
0.0124764
-0.0175689
-0.83579
0.840882
0.0231576
-0.0281822
-0.958906
0.963931
0.0336481
-0.038143
-1.09696
1.10145
0.0427235
-0.0462906
-1.25053
1.25409
0.0491827
-0.0506851
-1.42033
1.42183
0.0507209
-0.0490738
-1.60713
1.60549
0.0454274
-0.0402401
-1.52508
1.51989
0.0345019
-0.0276505
-1.22554
1.21868
0.0213388
-0.0139056
-0.998823
0.99139
0.00718423
-0.000346442
-0.80628
0.799442
-0.00495626
0.0096002
-0.600722
0.596078
-0.0125337
0.0135294
-0.375245
0.374249
-0.0122466
0.00992848
-0.184088
0.186406
-0.00760584
0.00495585
-0.0641349
0.0667849
-0.00284842
0.0011595
-0.00846833
0.0101573
-0.000352236
0.00274678
-0.00239454
-0.0763783
0.0747644
0.00161383
-0.0054544
0.00537155
-0.418275
0.418358
-0.00374835
0.00181966
-0.588813
0.590742
0.001975
-0.00609881
-0.723937
0.728061
0.0109988
-0.0153805
-0.845585
0.849967
0.0202835
-0.024728
-0.968917
0.973362
0.0299016
-0.033971
-1.10597
1.11004
0.0380156
-0.0413649
-1.25746
1.26081
0.0443719
-0.0456802
-1.42333
1.42464
0.0457145
-0.0439665
-1.60343
1.60168
0.0406957
-0.0354338
-1.51452
1.50926
0.030069
-0.0236231
-1.21172
1.20527
0.0174013
-0.0104082
-0.983861
0.976868
0.00387048
0.00282388
-0.79124
0.784546
-0.00777857
0.0118964
-0.588585
0.584467
-0.0143731
0.0149626
-0.370394
0.369804
-0.0137156
0.011279
-0.186516
0.188952
-0.00874103
0.00583319
-0.0686596
0.0715674
-0.00345636
0.00147732
-0.0115651
0.0135441
-0.000431875
0.00215607
-0.0017242
-0.0758154
0.0745472
0.0012682
-0.00439134
0.00443636
-0.421923
0.421878
-0.0030139
0.00117233
-0.595838
0.59768
0.00247022
-0.00614682
-0.732191
0.735868
0.0103437
-0.0145668
-0.854292
0.858515
0.0190876
-0.0236598
-0.977606
0.982178
0.0280983
-0.0319773
-1.1142
1.11807
0.0361394
-0.0392332
-1.26403
1.26712
0.0417494
-0.0434556
-1.42585
1.42755
0.0436589
-0.0421997
-1.59999
1.59853
0.0391152
-0.034454
-1.50425
1.49958
0.0294266
-0.023325
-1.19858
1.19248
0.0175141
-0.0108964
-0.969701
0.963084
0.00477642
0.00140212
-0.777059
0.770881
-0.00635691
0.0102445
-0.577427
0.57354
-0.0124485
0.0133998
-0.366621
0.36567
-0.0126651
0.0105611
-0.189059
0.191163
-0.00831878
0.00565374
-0.0734548
0.0761199
-0.00342842
0.00151543
-0.0150573
0.0169703
-0.000438513
0.00140094
-0.000962432
-0.0757767
0.0747221
0.00105457
-0.00312774
0.00294153
-0.425186
0.425373
-0.00177542
-6.81237e-06
-0.602294
0.604076
0.00350028
-0.00705623
-0.739857
0.743413
0.0110791
-0.0148927
-0.862515
0.866329
0.0195222
-0.0233025
-0.986168
0.989948
0.0277048
-0.0313993
-1.1221
1.12579
0.0354426
-0.0387267
-1.27019
1.27348
0.041524
-0.0430149
-1.42901
1.43051
0.0435702
-0.0425282
-1.59702
1.59598
0.0400883
-0.0357309
-1.49484
1.49048
0.0311358
-0.0254622
-1.18654
1.18086
0.0201185
-0.0139694
-0.956289
0.95014
0.00844419
-0.00255842
-0.763943
0.758057
-0.00226928
0.006249
-0.567077
0.563097
-0.00852907
0.00959064
-0.362509
0.361447
-0.00953714
0.008225
-0.190896
0.192208
-0.00663903
0.00460266
-0.0775923
0.0796287
-0.00283941
0.0012894
-0.0182476
0.0197976
-0.000371622
0.000637622
-0.000265999
-0.0760186
0.0752872
0.000731394
-0.00198131
0.00136134
-0.428537
0.429157
-0.000373184
-0.00170762
-0.607895
0.609976
0.0047634
-0.00815984
-0.746998
0.750394
0.0120096
-0.0159468
-0.869994
0.873931
0.0199569
-0.0238953
-0.993927
0.997866
0.0282605
-0.031749
-1.12991
1.13339
0.0358825
-0.0391229
-1.27656
1.2798
0.0419857
-0.0440159
-1.4324
1.43443
0.0450761
-0.0443291
-1.59498
1.59424
0.0421381
-0.0385071
-1.48633
1.4827
0.0345034
-0.0293179
-1.17517
1.16998
0.0243937
-0.0190049
-0.944021
0.938633
0.013576
-0.00819798
-0.75154
0.746162
0.00349631
0.000888233
-0.557288
0.552904
-0.00334381
0.00487347
-0.357774
0.356245
-0.00537685
0.00504159
-0.191509
0.191844
-0.00419438
0.0030087
-0.0803801
0.0815657
-0.00193136
0.000907168
-0.0206291
0.0216533
-0.000261821
-1.72896e-06
0.00026355
-0.076685
0.0761103
0.00057476
-0.00100833
0.000492641
-0.432114
0.43263
0.00115822
-0.0030894
-0.61372
0.615651
0.00628961
-0.00955291
-0.75361
0.756873
0.0132515
-0.0167854
-0.877526
0.88106
0.0209178
-0.0245438
-1.0018
1.00543
0.0288624
-0.032788
-1.13733
1.14125
0.0365673
-0.0401433
-1.28307
1.28665
0.0434378
-0.0455761
-1.43636
1.4385
0.0470274
-0.0470766
-1.59371
1.59376
0.0453567
-0.0424248
-1.47899
1.47606
0.0387576
-0.0342145
-1.16497
1.16043
0.0298793
-0.0248175
-0.932926
0.927864
0.0198833
-0.0146768
-0.739968
0.734761
0.0100574
-0.00545646
-0.547198
0.542597
0.00232274
-0.000143709
-0.352203
0.350023
-0.00112145
0.001639
-0.190466
0.189948
-0.00161848
0.00128748
-0.0814941
0.0818251
-0.000894709
0.00046536
-0.0219505
0.0223799
-0.000153865
-0.0004043
0.000558164
-0.0776247
0.0772346
0.000390115
6.2421e-06
-0.000794683
-0.435795
0.436583
0.00232746
-0.00457794
-0.619131
0.621382
0.00769368
-0.0107915
-0.759989
0.763086
0.0145774
-0.0179604
-0.884561
0.887944
0.0219382
-0.0256907
-1.00952
1.01328
0.0299171
-0.0338128
-1.14502
1.14892
0.0378203
-0.0414326
-1.29014
1.29375
0.0449286
-0.0478286
-1.44093
1.44383
0.0497412
-0.0501113
-1.59375
1.59412
0.0491379
-0.0466392
-1.47309
1.47059
0.0436576
-0.0397889
-1.15596
1.15209
0.0356141
-0.0308489
-0.92257
0.917804
0.0261457
-0.0209324
-0.728886
0.723672
0.0163762