/*--------------------------------*- C++ -*----------------------------------*\
| =========                 |                                                 |
| \\      /  F ield         | OpenFOAM: The Open Source CFD Toolbox           |
|  \\    /   O peration     | Version:  2112                                  |
|   \\  /    A nd           | Website:  www.openfoam.com                      |
|    \\/     M anipulation  |                                                 |
\*---------------------------------------------------------------------------*/
FoamFile
{
    version     2.0;
    format      ascii;
    arch        "LSB;label=32;scalar=64";
    class       volVectorField;
    location    "56.5";
    object      U;
}
// * * * * * * * * * * * * * * * * * * * * * * * * * * * * * * * * * * * * * //

dimensions      [0 1 -1 0 0 0 0];

internalField   nonuniform List<vector> 
8800
(
(0.98014 -0.0915211 0)
(1.00234 -0.0587307 0)
(0.999577 -0.0321307 0)
(0.99997 -0.0165257 0)
(1.00006 -0.00884611 0)
(1.00008 -0.00510029 0)
(1.00005 -0.00299557 0)
(1.00002 -0.00168429 0)
(0.999998 -0.00078301 0)
(1.00006 -8.45503e-05 0)
(0.999987 0.000623629 0)
(0.999995 0.00137828 0)
(1.00002 0.00240353 0)
(1.00004 0.00400602 0)
(1.00004 0.00675071 0)
(0.999995 0.0120516 0)
(0.999791 0.0230953 0)
(0.999029 0.043157 0)
(1.00723 0.0790258 0)
(0.775025 0.0478395 0)
(0.358987 -0.0147485 0)
(1.0465 -0.0724835 0)
(1.08847 -0.0660214 0)
(1.04943 -0.0509168 0)
(1.02553 -0.0376984 0)
(1.01273 -0.0258929 0)
(1.00657 -0.0166955 0)
(1.00363 -0.0102035 0)
(1.00219 -0.00557166 0)
(1.00151 -0.00197682 0)
(1.00138 0.00123691 0)
(1.00173 0.00454575 0)
(1.0027 0.00843487 0)
(1.00474 0.0137472 0)
(1.00897 0.0214212 0)
(1.01795 0.0319108 0)
(1.03578 0.0446819 0)
(1.0674 0.0581217 0)
(1.09469 0.0699574 0)
(0.845618 0.0555083 0)
(0.217797 -0.0013806 0)
(1.07567 -0.0506474 0)
(1.09941 -0.0489299 0)
(1.06438 -0.0400138 0)
(1.03989 -0.0325543 0)
(1.0238 -0.025339 0)
(1.01402 -0.0181154 0)
(1.00852 -0.0114893 0)
(1.00566 -0.00572888 0)
(1.00448 -0.000435517 0)
(1.00479 0.00467677 0)
(1.00663 0.00996343 0)
(1.01056 0.0159306 0)
(1.01789 0.0226822 0)
(1.03049 0.0297793 0)
(1.05047 0.0368619 0)
(1.08002 0.0446343 0)
(1.10563 0.0519548 0)
(0.943236 0.041018 0)
(0.217171 0.00140599 0)
(0.176658 -0.000628377 0)
(1.01942 -0.0354553 0)
(1.10572 -0.0413979 0)
(1.07798 -0.0363803 0)
(1.05245 -0.0303338 0)
(1.03523 -0.0244549 0)
(1.02338 -0.0186544 0)
(1.01556 -0.01265 0)
(1.01095 -0.00654789 0)
(1.00891 -0.00030552 0)
(1.00943 0.00585417 0)
(1.0125 0.0117672 0)
(1.01846 0.0175313 0)
(1.02805 0.0230998 0)
(1.04224 0.0286382 0)
(1.06305 0.0344115 0)
(1.09382 0.0402911 0)
(1.09438 0.041808 0)
(0.830122 0.0227889 0)
(0.17559 0.000648766 0)
(0.154758 -0.000462136 0)
(0.958224 -0.0256804 0)
(1.10442 -0.0350982 0)
(1.08809 -0.0326458 0)
(1.06127 -0.0281373 0)
(1.04324 -0.0231731 0)
(1.03085 -0.0178653 0)
(1.02225 -0.0123152 0)
(1.01669 -0.00639629 0)
(1.01403 6.34652e-05 0)
(1.01466 0.00652533 0)
(1.01843 0.0123961 0)
(1.02521 0.0177062 0)
(1.03535 0.0227015 0)
(1.05007 0.0275114 0)
(1.072 0.0319425 0)
(1.10095 0.0358136 0)
(1.06961 0.0340102 0)
(0.742402 0.0144681 0)
(0.153157 0.00048507 0)
(0.140084 -0.000334039 0)
(0.901243 -0.0193146 0)
(1.09685 -0.0302016 0)
(1.09624 -0.0293198 0)
(1.069 -0.0255366 0)
(1.05017 -0.0214502 0)
(1.03721 -0.0167446 0)
(1.02821 -0.0114862 0)
(1.02226 -0.00575416 0)
(1.01926 0.000609215 0)
(1.01986 0.00698552 0)
(1.02384 0.0126334 0)
(1.03086 0.0176057 0)
(1.04136 0.022062 0)
(1.05671 0.0259918 0)
(1.0795 0.0294956 0)
(1.10323 0.0322031 0)
(1.03777 0.0281814 0)
(0.675519 0.010325 0)
(0.137829 0.00036125 0)
(0.129356 -0.000252602 0)
(0.8514 -0.0149176 0)
(1.08452 -0.0261014 0)
(1.10194 -0.0264436 0)
(1.07584 -0.0231231 0)
(1.0565 -0.0194672 0)
(1.04311 -0.015264 0)
(1.03374 -0.0103929 0)
(1.02751 -0.00488506 0)
(1.02429 0.00129118 0)
(1.02477 0.00744982 0)
(1.02876 0.0128154 0)
(1.03593 0.0173656 0)
(1.04672 0.0212169 0)
(1.06244 0.0245467 0)
(1.08567 0.027571 0)
(1.10243 0.029378 0)
(1.00303 0.0236499 0)
(0.623396 0.00792605 0)
(0.126302 0.000285679 0)
(0.121181 -0.000193788 0)
(0.808932 -0.0117326 0)
(1.06922 -0.0225083 0)
(1.10547 -0.0238173 0)
(1.0821 -0.0209505 0)
(1.06231 -0.0175228 0)
(1.04864 -0.0136045 0)
(1.03901 -0.00905736 0)
(1.03251 -0.00382621 0)
(1.02905 0.00211414 0)
(1.02937 0.00800244 0)
(1.03331 0.0130116 0)
(1.04054 0.0171022 0)
(1.05143 0.0204798 0)
(1.06739 0.0234158 0)
(1.091 0.0261253 0)
(1.09875 0.0270243 0)
(0.967863 0.0200867 0)
(0.581542 0.00636234 0)
(0.117156 0.000233995 0)
(0.114844 -0.0001492 0)
(0.773121 -0.00934955 0)
(1.05237 -0.019346 0)
(1.10782 -0.021393 0)
(1.08797 -0.0189113 0)
(1.06777 -0.0156465 0)
(1.05384 -0.0118983 0)
(1.04403 -0.00755626 0)
(1.0373 -0.00256878 0)
(1.03358 0.00310745 0)
(1.03369 0.00868367 0)
(1.0375 0.0133143 0)
(1.04467 0.0170041 0)
(1.05557 0.0200052 0)
(1.07177 0.0226075 0)
(1.09507 0.0249703 0)
(1.09227 0.0250698 0)
(0.933631 0.0173273 0)
(0.546952 0.00528954 0)
(0.109638 0.000198011 0)
(0.109896 -0.000114005 0)
(0.743039 -0.00750388 0)
(1.03504 -0.0165424 0)
(1.10921 -0.0191141 0)
(1.09354 -0.0169476 0)
(1.07304 -0.0137853 0)
(1.05883 -0.0101404 0)
(1.04882 -0.00592845 0)
(1.04188 -0.00111684 0)
(1.03789 0.00430336 0)
(1.03772 0.00954976 0)
(1.04131 0.0138166 0)
(1.04834 0.0171449 0)
(1.05925 0.0198007 0)
(1.07566 0.0221146 0)
(1.09787 0.0241119 0)
(1.08335 0.0234561 0)
(0.900928 0.0152207 0)
(0.517565 0.00453862 0)
(0.103255 0.000173117 0)
(0.106045 -8.49617e-05 0)
(0.717866 -0.00601866 0)
(1.01806 -0.0140261 0)
(1.10975 -0.0169144 0)
(1.099 -0.0150391 0)
(1.07822 -0.0119017 0)
(1.0637 -0.0082976 0)
(1.05348 -0.00415708 0)
(1.04629 0.000533959 0)
(1.04199 0.00573836 0)
(1.04147 0.0106795 0)
(1.04477 0.0146051 0)
(1.05162 0.0175899 0)
(1.0625 0.0199105 0)
(1.07911 0.0219604 0)
(1.09931 0.0235655 0)
(1.07239 0.0221769 0)
(0.869891 0.0136527 0)
(0.491919 0.00401791 0)
(0.0976609 0.000156815 0)
(0.103099 -5.98943e-05 0)
(0.696956 -0.00477585 0)
(1.00204 -0.0117313 0)
(1.10959 -0.0147539 0)
(1.10428 -0.0130875 0)
(1.08338 -0.00992402 0)
(1.06854 -0.00630492 0)
(1.05806 -0.00218017 0)
(1.05057 0.00243613 0)
(1.04589 0.00746822 0)
(1.04495 0.0121284 0)
(1.04788 0.0157224 0)
(1.05452 0.0183683 0)
(1.06536 0.020355 0)
(1.08212 0.0221467 0)
(1.09978 0.0233511 0)
(1.05969 0.0212381 0)
(0.840379 0.0125325 0)
(0.468925 0.00367028 0)
(0.0925953 0.000147244 0)
(0.100936 -3.68756e-05 0)
(0.679835 -0.00368692 0)
(0.987449 -0.00958767 0)
(1.10894 -0.0125515 0)
(1.10937 -0.0110155 0)
(1.08861 -0.00780972 0)
(1.07341 -0.00412151 0)
(1.06262 5.18972e-05 0)
(1.05477 0.0046477 0)
(1.04961 0.00955719 0)
(1.04816 0.0139652 0)
(1.05067 0.0172361 0)
(1.05704 0.0195432 0)
(1.06782 0.0211923 0)
(1.08465 0.022713 0)
(1.09925 0.0235057 0)
(1.04543 0.0206561 0)
(0.812083 0.0117876 0)
(0.447734 0.00345719 0)
(0.0878555 0.000142985 0)
(0.0994916 -1.42043e-05 0)
(0.666195 -0.00268222 0)
(0.974633 -0.00752029 0)
(1.1081 -0.0102432 0)
(1.11437 -0.00875712 0)
(1.09397 -0.00547545 0)
(1.07839 -0.00165551 0)
(1.06722 0.00262225 0)
(1.05893 0.00725495 0)
(1.0532 0.0120892 0)
(1.05112 0.0162669 0)
(1.05312 0.0192136 0)
(1.05918 0.0211703 0)
(1.06986 0.0224532 0)
(1.08671 0.0237092 0)
(1.09752 0.0240526 0)
(1.02967 0.0204115 0)
(0.784611 0.0113626 0)
(0.427664 0.00335252 0)
(0.0832817 0.000142958 0)
(0.0987486 9.97241e-06 0)
(0.65588 -0.00170762 0)
(0.963914 -0.00545822 0)
(1.1074 -0.00776715 0)
(1.11944 -0.00623553 0)
(1.09955 -0.00282676 0)
(1.08355 0.00118759 0)
(1.07193 0.00563137 0)
(1.06309 0.0103635 0)
(1.05666 0.0151584 0)
(1.05383 0.0191115 0)
(1.05522 0.0217247 0)
(1.0609 0.0233137 0)
(1.07145 0.0242128 0)
(1.08826 0.025177 0)
(1.09452 0.0250243 0)
(1.01243 0.0205365 0)
(0.757521 0.0112253 0)
(0.408149 0.00334115 0)
(0.0787414 0.000146704 0)
(0.0987264 3.17975e-05 0)
(0.64886 -0.000715718 0)
(0.95559 -0.00332629 0)
(1.10718 -0.00504961 0)
(1.12471 -0.00337833 0)
(1.10545 0.000207888 0)
(1.08899 0.00448558 0)
(1.07683 0.00917422 0)
(1.06732 0.0140756 0)
(1.06003 0.0188801 0)
(1.05629 0.022626 0)
(1.05694 0.0248955 0)
(1.06217 0.0260902 0)
(1.07258 0.0265803 0)
(1.08906 0.0271775 0)
(1.09002 0.0264628 0)
(0.993579 0.0210537 0)
(0.730322 0.0113596 0)
(0.388677 0.00341503 0)
(0.0741146 0.000153856 0)
(0.0994615 6.98669e-05 0)
(0.645214 0.000305191 0)
(0.949981 -0.00105067 0)
(1.10779 -0.00200248 0)
(1.13038 -6.96999e-05 0)
(1.11176 0.00377645 0)
(1.09479 0.00840355 0)
(1.08199 0.0134126 0)
(1.07166 0.0185468 0)
(1.06333 0.0234012 0)
(1.0585 0.0269352 0)
(1.05827 0.0288259 0)
(1.06295 0.0295931 0)
(1.07319 0.0296489 0)
(1.08898 0.0298273 0)
(1.08391 0.0284049 0)
(0.972892 0.02199 0)
(0.70247 0.0117542 0)
(0.368767 0.00356672 0)
(0.0692923 0.000163984 0)
(0.101159 9.76603e-05 0)
(0.645323 0.00146507 0)
(0.947434 0.0014539 0)
(1.10966 0.00147296 0)
(1.13668 0.00378311 0)
(1.11863 0.00801975 0)
(1.10106 0.0130889 0)
(1.08749 0.018507 0)
(1.07615 0.0239498 0)
(1.06656 0.0288889 0)
(1.06041 0.0322061 0)
(1.05914 0.0336663 0)
(1.06316 0.033959 0)
(1.07318 0.0335403 0)
(1.0878 0.0332329 0)
(1.07588 0.0309436 0)
(0.950047 0.0233758 0)
(0.673396 0.0124059 0)
(0.34797 0.00379127 0)
(0.0641787 0.000176584 0)
(0.103879 0.000144733 0)
(0.649548 0.00288971 0)
(0.948442 0.00433257 0)
(1.11328 0.00549458 0)
(1.14381 0.00833705 0)
(1.1262 0.0130961 0)
(1.10794 0.0187197 0)
(1.09342 0.0246602 0)
(1.08085 0.030489 0)
(1.06971 0.035544 0)
(1.06199 0.038611 0)
(1.05952 0.0395687 0)
(1.06275 0.0393389 0)
(1.07249 0.0383809 0)
(1.08534 0.0375216 0)
(1.06562 0.0341746 0)
(0.924597 0.0252615 0)
(0.642477 0.0133176 0)
(0.325844 0.00408539 0)
(0.0586852 0.000191249 0)
(0.107898 0.000206374 0)
(0.658462 0.00456776 0)
(0.953472 0.00774466 0)
(1.11915 0.0102479 0)
(1.15204 0.0138247 0)
(1.13467 0.0192768 0)
(1.11559 0.0255948 0)
(1.09989 0.0321668 0)
(1.08578 0.0384458 0)
(1.07278 0.043604 0)
(1.0632 0.0463297 0)
(1.05932 0.0467031 0)
(1.06163 0.0458931 0)
(1.07102 0.0443197 0)
(1.08158 0.0428516 0)
(1.05271 0.0382073 0)
(0.895969 0.0276731 0)
(0.609036 0.0144805 0)
(0.301961 0.00443977 0)
(0.0527371 0.000206991 0)
(0.113551 0.00028988 0)
(0.672771 0.00665403 0)
(0.963176 0.0118842 0)
(1.12784 0.0159632 0)
(1.16173 0.0204987 0)
(1.14431 0.0268757 0)
(1.12417 0.034045 0)
(1.10698 0.0413654 0)
(1.09098 0.0481405 0)
(1.07572 0.0533559 0)
(1.06394 0.0556293 0)
(1.05841 0.055291 0)
(1.05966 0.0537893 0)
(1.06865 0.0515356 0)
(1.07635 0.0493302 0)
(1.03661 0.043122 0)
(0.863462 0.0306309 0)
(0.572364 0.0158736 0)
(0.275934 0.00483889 0)
(0.0462854 0.000222389 0)
(0.12134 0.000408628 0)
(0.69339 0.0093787 0)
(0.978424 0.0170564 0)
(1.14 0.0229853 0)
(1.17335 0.0287312 0)
(1.15539 0.0363037 0)
(1.13387 0.0445155 0)
(1.11476 0.0527056 0)
(1.09637 0.0599777 0)
(1.07838 0.065132 0)
(1.06406 0.0667668 0)
(1.05663 0.0655402 0)
(1.05674 0.0632138 0)
(1.0653 0.0601882 0)
(1.06932 0.0570893 0)
(1.01666 0.0490008 0)
(0.82626 0.0341309 0)
(0.531746 0.0174525 0)
(0.247455 0.00525731 0)
(0.0393202 0.000235474 0)
(0.131984 0.000578543 0)
(0.721658 0.013129 0)
(1.00038 0.0237472 0)
(1.15642 0.031883 0)
(1.18747 0.0391635 0)
(1.16827 0.0482937 0)
(1.14485 0.0577285 0)
(1.12324 0.066819 0)
(1.10187 0.0744551 0)
(1.08062 0.0792746 0)
(1.0634 0.0799671 0)
(1.05388 0.0776213 0)
(1.05276 0.0743266 0)
(1.06067 0.0703749 0)
(1.05995 0.0661887 0)
(0.991985 0.0558784 0)
(0.783442 0.0381088 0)
(0.486528 0.0191315 0)
(0.216362 0.00565493 0)
(0.0318877 0.000243635 0)
(0.146767 0.000854836 0)
(0.759577 0.0184965 0)
(1.03069 0.0327285 0)
(1.17805 0.0435776 0)
(1.20488 0.0528549 0)
(1.18326 0.0638773 0)
(1.15714 0.0746231 0)
(1.13223 0.0844751 0)
(1.10718 0.0921412 0)
(1.08213 0.0961627 0)
(1.06169 0.0954709 0)
(1.04994 0.0917063 0)
(1.04754 0.0872388 0)
(1.05443 0.0822768 0)
(1.04752 0.0768185 0)
(0.961501 0.0636722 0)
(0.734066 0.0424251 0)
(0.436259 0.0207735 0)
(0.182755 0.0059753 0)
(0.0241142 0.000243809 0)
(0.167857 0.00132936 0)
(0.810394 0.0266591 0)
(1.07189 0.0455601 0)
(1.20599 0.0598902 0)
(1.2262 0.071886 0)
(1.20044 0.0845979 0)
(1.17049 0.0964687 0)
(1.14133 0.10659 0)
(1.11187 0.113624 0)
(1.08252 0.11616 0)
(1.05863 0.113509 0)
(1.0446 0.107949 0)
(1.04092 0.102093 0)
(1.04643 0.0961311 0)
(1.03124 0.0888081 0)
(0.923885 0.0721539 0)
(0.677353 0.0468163 0)
(0.380981 0.0221839 0)
(0.147189 0.00614583 0)
(0.0162414 0.000231864 0)
(0.198632 0.00238306 0)
(0.879801 0.0403161 0)
(1.12764 0.0660832 0)
(1.24069 0.0843949 0)
(1.25116 0.0989806 0)
(1.21922 0.112828 0)
(1.1841 0.124892 0)
(1.1497 0.134172 0)
(1.11518 0.139467 0)
(1.08121 0.139496 0)
(1.05382 0.134129 0)
(1.03761 0.126344 0)
(1.03274 0.118883 0)
(1.0364 0.111803 0)
(1.0099 0.102034 0)
(0.877559 0.0808674 0)
(0.613073 0.0508565 0)
(0.321925 0.0231833 0)
(0.111171 0.00613093 0)
(0.00875541 0.000204135 0)
(0.240593 0.0085937 5.132e-20)
(0.971904 0.067552 4.47127e-20)
(1.19573 0.100444 -1.55666e-20)
(1.27906 0.120746 0)
(1.277 0.137747 -3.91177e-34)
(1.23749 0.150927 5.70337e-21)
(1.19645 0.161415 -1.01814e-20)
(1.15628 0.168438 0)
(1.11635 0.170919 2.06962e-34)
(1.07747 0.167649 -1.23927e-20)
(1.04631 0.159077 0)
(1.02769 0.148829 -1.46182e-20)
(1.02165 0.139809 -4.30554e-20)
(1.02297 0.132177 -2.03236e-20)
(0.980266 0.119267 -6.10359e-21)
(0.81722 0.0917521 -3.62426e-21)
(0.535732 0.0552375 0)
(0.257177 0.0241644 2.53434e-21)
(0.0749471 0.0062835 2.9923e-21)
(0.00175813 0.000210162 5.39273e-20)
(0.270039 0.0239929 3.86394e-20)
(1.04792 0.110075 5.30621e-22)
(1.2519 0.149392 4.20266e-21)
(1.31328 0.169885 0)
(1.29963 0.186743 -2.00346e-20)
(1.25306 0.197727 -2.26506e-20)
(1.20609 0.205876 -1.03199e-20)
(1.16004 0.210389 -3.64463e-20)
(1.11439 0.210035 0)
(1.07005 0.203531 5.28281e-20)
(1.03448 0.19183 5.2214e-20)
(1.01299 0.179125 1.54792e-20)
(1.0048 0.168104 5.62571e-20)
(0.999202 0.15798 7.89117e-20)
(0.934626 0.140411 0)
(0.737083 0.10451 1.11007e-19)
(0.445646 0.0602625 1.59201e-19)
(0.189763 0.0249109 1.76811e-19)
(0.0395394 0.00543966 -2.02124e-19)
(-0.00509643 -0.000400218 -3.80394e-21)
(0.271131 0.0397289 0)
(1.09591 0.165213 7.05693e-21)
(1.28957 0.209611 0)
(1.33978 0.22958 -2.67889e-20)
(1.31727 0.243396 0)
(1.26476 0.250539 -4.48266e-20)
(1.21224 0.254987 2.11632e-20)
(1.16063 0.255924 -7.36761e-20)
(1.10953 0.251911 -1.57271e-21)
(1.05997 0.241599 2.7408e-20)
(1.02012 0.226417 1.14767e-19)
(0.995768 0.211079 -2.57406e-22)
(0.985177 0.19805 -4.08717e-20)
(0.972938 0.185425 -7.43336e-20)
(0.893448 0.162631 8.78996e-20)
(0.681198 0.117707 -1.55602e-19)
(0.395566 0.0656686 -2.05518e-20)
(0.158162 0.0260018 0)
(0.0244027 0.00438625 -8.1046e-24)
(-0.00806705 -0.00116456 0)
(0.264871 0.0533681 9.82116e-20)
(1.12176 0.223674 -4.70327e-20)
(1.31269 0.274311 -3.49767e-20)
(1.35722 0.29445 1.28139e-20)
(1.32855 0.304393 -2.14826e-20)
(1.2716 0.307058 9.41738e-20)
(1.2145 0.307142 4.42833e-20)
(1.15803 0.30388 0)
(1.10203 0.295702 -1.38189e-19)
(1.04763 0.281188 0)
(1.00374 0.262309 -6.0359e-20)
(0.976578 0.244235 -7.42076e-20)
(0.963514 0.229037 -4.45296e-20)
(0.946215 0.213688 -5.39992e-20)
(0.859054 0.185682 0)
(0.645276 0.133176 0)
(0.371108 0.0741653 -1.3372e-19)
(0.146463 0.0289393 2.64492e-20)
(0.0188374 0.00373518 -1.5484e-20)
(-0.00970953 -0.0019466 -1.81136e-20)
(0.257432 0.0654448 -4.33469e-20)
(1.13314 0.282009 0)
(1.32532 0.339965 7.3482e-20)
(1.36657 0.360757 3.65793e-20)
(1.33357 0.36691 4.93987e-20)
(1.27337 0.365087 0)
(1.21265 0.360699 4.36282e-20)
(1.15218 0.353063 8.18257e-20)
(1.09194 0.340531 7.1008e-20)
(1.03322 0.321639 1.29191e-19)
(0.985594 0.298871 0)
(0.95571 0.277868 -1.60183e-19)
(0.940271 0.26047 -9.63005e-20)
(0.919138 0.242557 -5.68923e-20)
(0.829644 0.209955 3.47927e-19)
(0.622159 0.150805 4.13523e-20)
(0.361653 0.0856503 1.94072e-19)
(0.14759 0.0340891 -9.19505e-19)
(0.020631 0.00436073 5.44091e-19)
(-0.00978288 -0.00246392 -6.55748e-19)
(0.250317 0.0763646 -2.58295e-20)
(1.13529 0.338381 8.01511e-21)
(1.33034 0.404665 -8.41582e-21)
(1.36944 0.426607 -3.8607e-20)
(1.33329 0.429206 -4.26431e-20)
(1.27066 0.423075 1.79913e-21)
(1.20708 0.414366 -4.72632e-20)
(1.14331 0.402446 8.48897e-20)
(1.07944 0.385604 -1.52909e-19)
(1.01685 0.362319 0)
(0.965762 0.335607 -7.27018e-20)
(0.933286 0.311697 -1.61951e-21)
(0.915577 0.292139 -1.05382e-19)
(0.891578 0.271655 0)
(0.803186 0.234904 -7.54896e-20)
(0.605661 0.17044 -1.79118e-19)
(0.360283 0.0994409 4.76749e-19)
(0.154699 0.0414618 -4.70096e-19)
(0.027335 0.00675082 6.67889e-19)
(-0.00834423 -0.00253464 -6.93973e-19)
(0.244358 0.0864746 -4.11296e-22)
(1.13171 0.392136 -4.19113e-21)
(1.32991 0.467415 -2.55804e-20)
(1.36726 0.490777 1.61452e-20)
(1.32876 0.490213 -2.16202e-20)
(1.26429 0.480056 0)
(1.1984 0.467292 -4.44319e-20)
(1.13187 0.451305 -8.90629e-20)
(1.06484 0.430318 -7.96481e-20)
(0.998789 0.402758 0)
(0.94454 0.372262 -7.56429e-20)
(0.909624 0.345577 -9.33771e-20)
(0.889718 0.323874 1.1439e-19)
(0.863527 0.300927 -6.93421e-20)
(0.777773 0.260442 -3.30308e-19)
(0.591341 0.191508 1.96125e-19)
(0.361463 0.114507 5.83525e-20)
(0.16393 0.0504692 0)
(0.0361175 0.0105592 -6.46917e-19)
(-0.006134 -0.0021799 -2.37379e-20)
(0.23965 0.0960851 -4.81429e-22)
(1.12471 0.443083 1.72144e-21)
(1.3255 0.527737 1.2369e-20)
(1.36126 0.552544 5.6868e-20)
(1.32093 0.549248 -8.1019e-20)
(1.25505 0.535437 9.1935e-20)
(1.18729 0.518938 9.57309e-20)
(1.11842 0.499159 -1.42417e-19)
(1.04862 0.474261 4.88391e-20)
(0.979446 0.442634 -3.1823e-19)
(0.922309 0.408505 -8.53938e-20)
(0.885099 0.379027 0)
(0.863131 0.355143 1.24132e-19)
(0.835266 0.329985 1.48694e-19)
(0.751836 0.286232 1.77954e-19)
(0.576793 0.213155 -2.13366e-19)
(0.361108 0.130494 -6.3186e-20)
(0.172105 0.0608584 7.41948e-20)
(0.0449045 0.0154399 0)
(-0.00359252 -0.00147263 -5.15926e-20)
(0.236101 0.105355 -1.7502e-20)
(1.11588 0.491325 4.11711e-21)
(1.31841 0.585615 -1.15706e-20)
(1.35245 0.611583 3.52959e-20)
(1.3106 0.605915 -3.72203e-20)
(1.24363 0.588819 -4.0721e-21)
(1.17436 0.56895 -1.04522e-19)
(1.10347 0.545692 -5.15091e-20)
(1.03119 0.51715 -1.38439e-19)
(0.959171 0.48169 3.04239e-22)
(0.899339 0.443959 -2.67873e-19)
(0.860017 0.411629 2.25118e-19)
(0.836261 0.385661 -1.364e-19)
(0.806977 0.358437 1.63914e-19)
(0.725506 0.311391 0)
(0.560744 0.234555 -1.15975e-19)
(0.357803 0.146582 2.33628e-23)
(0.177438 0.0715119 -3.23951e-19)
(0.0520185 0.0206785 -4.75644e-20)
(-0.00123589 -0.000594222 0)
(0.233571 0.11443 0)
(1.10614 0.53709 7.88241e-21)
(1.30937 0.640958 -1.32929e-20)
(1.34161 0.667777 -3.3012e-20)
(1.29845 0.660006 -4.64024e-20)
(1.23064 0.639987 0)
(1.16011 0.617097 -4.80273e-20)
(1.08747 0.590685 -1.06892e-21)
(1.01295 0.558804 2.9678e-19)
(0.938263 0.519732 -4.38206e-20)
(0.875853 0.478442 -1.93373e-19)
(0.834581 0.443361 1.17206e-19)
(0.809275 0.41549 -2.21315e-21)
(0.778614 0.385969 1.74391e-19)
(0.698729 0.335457 1.07446e-19)
(0.542894 0.254479 -2.50631e-19)
(0.351095 0.161704 2.96633e-19)
(0.178807 0.0813623 8.78266e-20)
(0.056383 0.0254359 3.62128e-19)
(0.000533068 0.000222198 -9.67196e-19)
(0.232018 0.123433 -1.18267e-20)
(1.09616 0.58056 1.21984e-20)
(1.29918 0.693389 -5.10022e-21)
(1.32932 0.721071 2.71858e-20)
(1.28503 0.71142 0)
(1.21656 0.688813 -4.34098e-20)
(1.14498 0.663243 1.6093e-19)
(1.07078 0.634002 1.1326e-19)
(0.994208 0.599097 0)
(0.916973 0.556647 -6.3023e-19)
(0.852055 0.511959 5.22934e-19)
(0.808963 0.474321 0)
(0.782223 0.444446 1.5935e-19)
(0.750151 0.412281 -2.22443e-21)
(0.671279 0.357879 -3.43656e-19)
(0.522814 0.272292 1.34479e-19)
(0.34114 0.174962 0)
(0.176251 0.0895382 4.73523e-19)
(0.0576446 0.029062 0)
(0.00159441 0.000809581 -4.57668e-19)
(0.231251 0.132455 1.59666e-20)
(1.08639 0.621892 2.09224e-20)
(1.28809 0.743002 -3.67782e-21)
(1.31608 0.771471 0)
(1.2708 0.760142 -4.07832e-20)
(1.2018 0.735259 0)
(1.12933 0.707313 -1.59781e-19)
(1.05375 0.675566 -5.30489e-20)
(0.975261 0.637962 5.25812e-20)
(0.89554 0.592401 -3.1175e-19)
(0.828142 0.54457 5.40753e-20)
(0.783272 0.504426 0)
(0.755093 0.472148 -3.40308e-19)
(0.721607 0.436899 2.20031e-21)
(0.643295 0.378141 0)
(0.500782 0.287599 1.49668e-21)
(0.32798 0.185679 4.32966e-19)
(0.170297 0.0954229 -4.09008e-19)
(0.0562796 0.0311821 1.20612e-19)
(0.00195194 0.00108696 0)
(0.230964 0.141351 0)
(1.07713 0.661168 2.85048e-20)
(1.27645 0.789939 1.31973e-20)
(1.30229 0.819046 -2.48881e-21)
(1.2561 0.806203 -1.46298e-20)
(1.1867 0.779316 -9.78717e-20)
(1.11348 0.749283 5.97109e-20)
(1.03665 0.715343 -6.22543e-20)
(0.956352 0.675356 2.34189e-19)
(0.874181 0.627007 -4.9841e-19)
(0.804281 0.576281 -3.85111e-21)
(0.757567 0.533457 -1.49279e-19)
(0.727889 0.498329 5.51977e-19)
(0.692949 0.459683 -2.58714e-21)
(0.614643 0.396037 -2.66469e-19)
(0.476874 0.300186 -4.74828e-19)
(0.31215 0.193628 0)
(0.161323 0.098829 0)
(0.0528289 0.0318185 1.29955e-19)
(0.00174607 0.00103517 -7.63225e-20)
(0.231298 0.150266 2.62646e-20)
(1.06835 0.698248 -6.83564e-20)
(1.26457 0.834268 -1.43339e-20)
(1.28826 0.863883 0)
(1.24123 0.84966 -1.53175e-21)
(1.17152 0.821011 -9.113e-20)
(1.09766 0.78916 1.45283e-19)
(1.01971 0.753324 2.46352e-19)
(0.937692 0.711278 3.04829e-19)
(0.853095 0.660487 -4.07471e-19)
(0.780604 0.607057 -4.49308e-19)
(0.731872 0.561284 3.99225e-19)
(0.700622 0.523023 0)
(0.664132 0.480679 -1.21068e-19)
(0.585309 0.411418 -2.88042e-19)
(0.45138 0.309882 -3.40973e-19)
(0.293939 0.198557 -4.03283e-19)
(0.149718 0.099673 1.19138e-19)
(0.0476282 0.0310627 -7.00198e-20)
(0.00120165 0.000781392 2.81462e-22)
(0.23176 0.15911 0)
(1.06024 0.73368 0)
(1.25267 0.876097 2.52618e-21)
(1.27418 0.906088 0)
(1.2264 0.890601 3.58158e-20)
(1.15646 0.860398 6.31329e-20)
(1.08208 0.826972 0)
(1.00311 0.789523 2.94733e-20)
(0.919464 0.74573 5.09357e-19)
(0.832457 0.692862 -9.3666e-19)
(0.757216 0.63688 0)
(0.706227 0.587977 -2.56851e-19)
(0.673278 0.54647 -3.05825e-21)
(0.635018 0.499843 -2.42396e-21)
(0.55531 0.424007 3.07905e-19)
(0.424796 0.3165 -2.0022e-22)
(0.273707 0.200354 -8.68026e-19)
(0.136115 0.0979756 2.56145e-19)
(0.0411907 0.0289869 7.56894e-20)
(0.000434256 0.000336703 0)
(0.232295 0.167806 -1.14668e-19)
(1.05253 0.767445 -5.18689e-20)
(1.24082 0.915502 -5.74584e-20)
(1.26022 0.945778 2.41112e-20)
(1.21179 0.929098 4.81969e-20)
(1.14169 0.89754 0)
(1.06688 0.862764 8.87987e-20)
(0.986998 0.823964 -6.54907e-20)
(0.901813 0.77873 3.8859e-21)
(0.81242 0.724153 6.88966e-20)
(0.734225 0.665788 5.8187e-19)
(0.680678 0.613792 -9.01493e-20)
(0.645767 0.568943 -3.39932e-19)
(0.60535 0.516976 -1.40882e-19)
(0.524678 0.433468 1.67144e-19)
(0.397613 0.319846 -1.08464e-23)
(0.252186 0.198892 2.33655e-19)
(0.121427 0.0938871 -5.50754e-19)
(0.0343432 0.0259113 6.50904e-19)
(-0.000433283 -0.000244408 9.49178e-20)
(0.232717 0.176234 4.49967e-20)
(1.04522 0.79965 -3.02218e-20)
(1.22917 0.952581 6.23158e-21)
(1.24653 0.983044 2.47508e-20)
(1.19753 0.965261 -3.5174e-21)
(1.12734 0.932509 -1.11388e-19)
(1.05219 0.896588 2.62258e-20)
(0.971496 0.856668 -2.73455e-19)
(0.884866 0.810281 -5.62438e-19)
(0.793105 0.754353 -5.58737e-19)
(0.711762 0.693875 0)
(0.655284 0.639052 -3.95342e-19)
(0.617959 0.590632 4.89642e-19)
(0.574811 0.531832 0)
(0.493381 0.439544 -3.57837e-19)
(0.370186 0.319539 2.13059e-19)
(0.23049 0.193949 -2.51024e-19)
(0.106975 0.0877917 -2.96135e-19)
(0.0278331 0.0222762 -5.23955e-19)
(-0.00123393 -0.000854566 -4.08495e-19)
(0.23347 0.18453 -5.2297e-20)
(1.03818 0.830273 3.23661e-20)
(1.21776 0.987406 7.09476e-20)
(1.23318 1.01797 4.19774e-20)
(1.18371 0.999182 1.15336e-20)
(1.11348 0.965391 -6.13295e-20)
(1.03808 0.928496 8.72078e-20)
(0.956685 0.887677 -2.81662e-19)
(0.868706 0.840408 -3.33348e-19)
(0.774624 0.78347 5.85225e-19)
(0.689954 0.721261 1.27807e-18)
(0.630134 0.664051 0)
(0.589719 0.61164 0)
(0.543057 0.544349 -1.62125e-19)
(0.461127 0.44207 0)
(0.342566 0.314734 4.57866e-19)
(0.209809 0.18476 5.39482e-19)
(0.0947002 0.0797425 0)
(0.0228901 0.0185473 0)
(-0.00184884 -0.00136556 4.38669e-19)
(0.233873 0.192388 6.10771e-20)
(1.03141 0.859303 4.8923e-20)
(1.20666 1.0201 5.23264e-20)
(1.22025 1.05068 -4.73246e-20)
(1.17038 1.03097 5.01951e-21)
(1.10019 0.996264 6.44271e-20)
(1.02463 0.958552 -1.20062e-19)
(0.942626 0.91702 -3.04977e-22)
(0.853409 0.869114 -5.04553e-21)
(0.757065 0.811501 -4.93847e-21)
(0.668952 0.748057 6.58269e-19)
(0.605354 0.688982 0)
(0.560986 0.632053 4.95288e-19)
(0.509803 0.554765 3.45801e-19)
(0.427218 0.441123 8.33617e-19)
(0.314116 0.30422 2.46396e-19)
(0.191322 0.169003 -2.90231e-19)
(0.088512 0.0672493 -1.70471e-19)
(0.0248864 0.0137867 0)
(-0.000442222 -0.00103688 4.71079e-19)
(0.234577 0.200253 -1.41024e-19)
(1.0249 0.886843 0)
(1.19585 1.05071 6.52836e-20)
(1.20775 1.08127 -4.27893e-20)
(1.15762 1.06071 5.95156e-21)
(1.0875 1.02521 -7.09868e-20)
(1.01188 0.986812 2.34913e-19)
(0.929355 0.944731 -2.28633e-20)
(0.839016 0.89641 0)
(0.740504 0.838425 -6.46535e-19)
(0.648906 0.774328 -1.4315e-18)
(0.581102 0.713936 5.83551e-20)
(0.531847 0.651992 6.82834e-19)
(0.474925 0.563653 0)
(0.390555 0.437353 5.62075e-19)
(0.282591 0.287142 0)
(0.173396 0.141583 0)
(0.0924811 0.0371851 -1.84202e-19)
(0.054247 -0.0028846 0)
(0.0282734 0.0116318 1.26171e-19)
(0.234905 0.207521 -1.60437e-19)
(1.01859 0.913213 0)
(1.18534 1.07945 1.11781e-19)
(1.19564 1.10998 0)
(1.14537 1.08868 -7.75407e-21)
(1.07536 1.05253 0)
(0.999755 1.01359 1.18472e-20)
(0.916776 0.971149 3.88299e-20)
(0.825406 0.922658 4.17916e-20)
(0.724779 0.864637 -7.09613e-19)
(0.629641 0.800542 4.30531e-20)
(0.557153 0.739462 4.69148e-19)
(0.501939 0.672117 6.65976e-19)
(0.437673 0.571864 8.9709e-20)
(0.349204 0.432334 4.40136e-19)
(0.243244 0.264564 0)
(0.144361 0.0987522 6.10966e-19)
(0.0775388 -0.0119779 -3.57837e-19)
(0.0432813 0.045331 4.15048e-19)
(-0.0690403 0.435735 -4.89559e-19)
(0.235215 0.214593 1.34525e-19)
(1.01223 0.938196 2.03163e-19)
(1.17504 1.10663 0)
(1.18377 1.13725 5.0561e-21)
(1.13343 1.11546 3.08048e-20)
(1.0635 1.07889 8.81423e-20)
(0.98795 1.03968 8.2289e-20)
(0.90448 0.99721 0)
(0.812047 0.948944 2.78215e-19)
(0.709224 0.891451 -3.71778e-20)
(0.610254 0.828204 0)
(0.532264 0.767167 0)
(0.469418 0.693924 5.96266e-19)
(0.395901 0.580314 -2.77001e-19)
(0.299969 0.428162 -4.45493e-19)
(0.191242 0.240225 0)
(0.0841176 0.101536 3.07508e-19)
(0.00444316 0.439703 -3.55846e-19)
(0.033728 1.88852 -1.95463e-19)
(0.0631097 2.81078 -2.49573e-19)
(0.235337 0.220827 -1.03074e-19)
(1.00602 0.961976 -2.64384e-19)
(1.16495 1.13223 6.85429e-20)
(1.17214 1.16294 5.00755e-20)
(1.12184 1.14079 0)
(1.05199 1.10402 4.99907e-20)
(0.976658 1.06478 1.13298e-19)
(0.892657 1.02248 -1.89018e-20)
(0.799207 0.974752 4.14659e-20)
(0.694222 0.918267 6.77055e-19)
(0.591345 0.856662 7.24243e-19)
(0.507352 0.796464 5.25537e-19)
(0.435208 0.717424 5.99458e-19)
(0.351355 0.5882 -6.50022e-19)
(0.248461 0.428312 -6.72143e-19)
(0.127575 0.27863 0)
(0.0448681 0.828924 0)
(0.10201 2.54981 1.70286e-19)
(0.103036 3.20076 0)
(0.106139 3.38796 4.07363e-19)
(0.238019 0.22652 0)
(1.00055 0.984751 0)
(1.15486 1.15611 0)
(1.16053 1.18689 1.63341e-20)
(1.11027 1.16446 3.08622e-20)
(1.04062 1.12777 2.30001e-20)
(0.965774 1.08877 7.31345e-20)
(0.881266 1.04687 -1.85035e-20)
(0.786855 0.999951 3.48729e-19)
(0.679811 0.944964 -9.31547e-21)
(0.57307 0.885798 1.43175e-18)
(0.482723 0.827019 -6.05371e-20)
(0.399575 0.743776 7.26623e-20)
(0.306735 0.593408 9.39373e-20)
(0.185482 0.441786 -4.67486e-21)
(0.101494 0.960648 1.83218e-21)
(0.141403 2.71833 -8.95259e-19)
(0.149708 3.29213 -3.36645e-19)
(0.138408 3.42598 1.74904e-19)
(0.125585 3.44828 -1.95011e-19)
(0.15609 0.183211 6.25424e-20)
(0.989819 1.00929 0)
(1.14443 1.17847 -1.43689e-19)
(1.14946 1.20958 -1.4311e-19)
(1.09957 1.18727 9.26176e-20)
(1.03031 1.15085 -1.86129e-20)
(0.955261 1.11172 -7.57734e-20)
(0.870423 1.07048 2.08537e-19)
(0.775158 1.02471 -2.8626e-19)
(0.666283 0.971728 0)
(0.555828 0.915777 7.03898e-19)
(0.458914 0.858578 -4.29332e-19)
(0.363428 0.776057 0)
(0.256136 0.598035 8.75778e-20)
(0.147827 0.760099 2.10056e-19)
(0.15709 2.489 -2.45133e-19)
(0.214569 3.32289 2.75403e-19)
(0.194292 3.43926 1.48733e-19)
(0.161536 3.46092 1.67519e-19)
(0.139586 3.47125 2.67479e-19)
(0.281358 0.265277 -1.12855e-19)
(0.974845 1.01943 0)
(1.12651 1.20404 1.60316e-19)
(1.13502 1.24062 1.65082e-19)
(1.08249 1.22041 -1.15069e-19)
(1.01253 1.1844 -5.76868e-21)
(0.936572 1.14691 7.38634e-20)
(0.85123 1.10691 1.62845e-20)
(0.754696 1.06332 2.74656e-19)
(0.643169 1.01431 5.87793e-19)
(0.52776 0.96528 3.98772e-20)
(0.420172 0.911778 3.82108e-19)
(0.29926 0.816964 6.81015e-20)
(0.214491 0.935898 -8.61981e-20)
(0.231043 2.33786 -1.96272e-19)
(0.292586 3.32569 1.89228e-19)
(0.275664 3.46882 -2.09698e-19)
(0.24002 3.4907 -1.21245e-19)
(0.202684 3.51842 -1.03328e-19)
(0.151073 3.51241 -1.20876e-20)
(0.269337 0.262222 0)
(0.972684 1.04231 4.91574e-20)
(1.1184 1.22763 -3.396e-20)
(1.12464 1.26431 -2.06911e-20)
(1.07189 1.24367 -8.51683e-20)
(1.00192 1.20789 1.13915e-20)
(0.925648 1.17057 -3.92767e-20)
(0.840127 1.13138 1.46843e-20)
(0.743109 1.08927 -2.86968e-19)
(0.630401 1.0432 -1.39572e-20)
(0.512392 0.999102 -1.27734e-18)
(0.399992 0.948719 5.44737e-20)
(0.284464 0.882971 -6.4339e-20)
(0.256159 1.47969 -7.99473e-20)
(0.331748 3.09695 1.80128e-20)
(0.351711 3.46663 4.83935e-22)
(0.311168 3.5232 3.07171e-19)
(0.273645 3.54971 1.51121e-19)
(0.22479 3.57326 -3.94212e-20)
(0.165648 3.56929 -5.76447e-20)
(0.253072 0.260688 1.27108e-19)
(0.968951 1.06787 3.38312e-19)
(1.10987 1.25333 -9.7822e-20)
(1.11369 1.28941 -7.80957e-20)
(1.06069 1.26829 0)
(0.990885 1.23257 4.89346e-20)
(0.914599 1.1955 -4.16508e-20)
(0.829174 1.15709 1.29703e-20)
(0.731991 1.11655 -3.18892e-20)
(0.618625 1.07368 -5.34773e-19)
(0.498798 1.0346 -5.90856e-19)
(0.383466 0.987048 -4.47207e-19)
(0.283783 1.01094 -4.8818e-19)
(0.325499 2.19219 5.03593e-19)
(0.418669 3.37517 4.23422e-19)
(0.39617 3.52468 0)
(0.350331 3.56978 0)
(0.31213 3.61079 -3.09915e-20)
(0.260924 3.67126 0)
(0.17796 3.6474 -3.55837e-20)
(0.242337 0.26262 -1.93327e-19)
(0.96325 1.09454 -2.90915e-19)
(1.09992 1.28026 0)
(1.10139 1.31527 6.06476e-21)
(1.04823 1.29352 -1.02647e-19)
(0.978732 1.25775 9.58201e-20)
(0.902767 1.22097 -1.77957e-20)
(0.817642 1.18323 7.88186e-21)