/*--------------------------------*- C++ -*----------------------------------*\
| =========                 |                                                 |
| \\      /  F ield         | OpenFOAM: The Open Source CFD Toolbox           |
|  \\    /   O peration     | Version:  2112                                  |
|   \\  /    A nd           | Website:  www.openfoam.com                      |
|    \\/     M anipulation  |                                                 |
\*---------------------------------------------------------------------------*/
FoamFile
{
    version     2.0;
    format      ascii;
    arch        "LSB;label=32;scalar=64";
    class       volScalarField;
    location    "2";
    object      T;
}
// * * * * * * * * * * * * * * * * * * * * * * * * * * * * * * * * * * * * * //

dimensions      [0 0 0 1 0 0 0];

internalField   nonuniform List<scalar> 
1000
(
0
0
0
0
0
0
0
0
0
0
0
0
0
0
0
0
0
0
0
0
0
0
0
0
0
0
0
0
0
0
0
0
0
0
0
0
0
0
0
0
0
0
0
0
0
0
0
0
0
0
0
0
0
0
0
0
0
0
0
0
0
0
0
0
0
0
0
0
0
0
0
0
0
0
0
0
0
0
0
0
0
0
0
0
0
0
0
0
0
0
0
0
0
0
0
0
0
0
0
0
0
0
0
0
0
0
0
0
0
0
0
0
0
0
0
0
0
0
0
0
0
0
0
0
0
0
0
0
0
0
0
0
0
0
0
0
0
0
0
0
0
0
0
0
0
0
0
0
0
0
0
0
0
0
0
0
0
0
0
0
0
0
0
0
0
0
0
0
0
0
0
0
0
0
0
0
0
0
0
0
0
0
0
0
0
0
0
0
0
0
0
0
0
0
0
0
0
0
0
0
0
0
0
0
0
0
0
0
0
0
0
0
0
0
0
0
0
0
0
0
0
0
0
0
0
0
0
0
0
0
0
0
0
0
0
0
0
0
0
0
0
0
0
0
0
0
0
0
0
0
2.40992e-181
-2.16652e-178
9.67404e-176
-2.86058e-173
6.30126e-171
-1.10289e-168
1.5976e-166
-1.96991e-164
2.11053e-162
-1.9958e-160
1.6865e-158
-1.28629e-156
8.92786e-155
-5.67816e-153
3.32863e-151
-1.80763e-149
9.13363e-148
-4.31054e-146
1.90654e-144
-7.92675e-143
3.10631e-141
-1.15013e-139
4.03225e-138
-1.34124e-136
4.24041e-135
-1.27633e-133
3.66287e-132
-1.00366e-130
2.62912e-129
-6.59172e-128
1.58351e-126
-3.64846e-125
8.06991e-124
-1.71502e-122
3.50472e-121
-6.89198e-120
1.30508e-118
-2.38127e-117
4.18902e-116
-7.10863e-115
1.16426e-113
-1.8412e-112
2.81274e-111
-4.15248e-110
5.92639e-109
-8.17938e-108
1.09201e-106
-1.41068e-105
1.7637e-104
-2.13457e-103
2.50128e-102
-2.83822e-101
3.119e-100
-3.3198e-99
3.42266e-98
-3.4181e-97
3.30657e-96
-3.09835e-95
2.812e-94
-2.47165e-93
2.10373e-92
-1.73357e-91
1.38276e-90
-1.06731e-89
7.96933e-89
-5.75409e-88
4.01563e-87
-2.70718e-86
1.76196e-85
-1.10627e-84
6.69489e-84
-3.90114e-83
2.18614e-82
-1.17644e-81
6.0688e-81
-2.99457e-80
1.40959e-79
-6.30768e-79
2.67107e-78
-1.0637e-77
3.94767e-77
-1.34628e-76
4.11728e-76
-1.07401e-75
2.07412e-75
-9.44643e-76
-1.59704e-74
9.95573e-74
-3.8876e-73
1.11403e-72
-2.09662e-72
1.35587e-73
1.91947e-71
-9.64459e-71
2.91087e-70
-5.05445e-70
-2.62904e-70
5.67807e-69
-2.30226e-68
5.14873e-68
-2.38285e-68
-3.33529e-67
1.56394e-66
-3.53391e-66
1.19936e-66
2.36608e-65
-9.84064e-65
1.77341e-64
1.20166e-64
-1.77353e-63
5.20735e-63
-4.37301e-63
-2.38221e-62
1.08577e-61
-1.71681e-61
-2.39971e-61
1.9267e-60
-4.02054e-60
-1.59806e-60
3.17128e-59
-7.66421e-59
-3.55673e-60
5.10684e-58
-1.28838e-57
-3.55334e-59
8.23726e-57
-1.94694e-56
-5.54702e-57
1.31803e-55
-2.59184e-55
-2.27944e-55
2.01743e-54
-2.81853e-54
-6.04526e-54
2.79991e-53
-1.89969e-53
-1.22127e-52
3.26119e-52
9.94109e-53
-1.94644e-51
2.6971e-51
6.03418e-51
-2.37113e-50
4.5503e-51
1.16028e-49
-1.89659e-49
-3.25133e-49
1.39069e-48
-1.96487e-49
-6.60159e-48
9.01695e-48
2.12452e-47
-6.73304e-47
-2.66083e-47
3.44048e-46
-2.27626e-46
-1.35959e-45
2.32152e-45
4.03327e-45
-1.38905e-44
-6.29892e-45
6.59853e-44
-2.2815e-44
-2.67718e-43
2.82203e-43
9.47174e-43
-1.77119e-42
-2.89228e-42
8.89037e-42
7.1622e-42
-3.94211e-41
-1.07182e-41
1.61003e-40
-2.09285e-41
-6.20212e-40
2.85154e-40
2.29081e-39
-1.69709e-39
-8.21982e-39
8.04419e-39
2.89753e-38
-3.38335e-38
-1.01307e-37
1.31286e-37
3.5392e-37
-4.77876e-37
-1.24085e-36
1.64073e-36
4.36875e-36
-5.29876e-36
-1.5397e-35
1.58958e-35
5.39748e-35
-4.29839e-35
-1.86578e-34
9.69667e-35
6.29483e-34
-1.33266e-34
-2.0484e-33
-2.61111e-34
6.33702e-33
3.23666e-33
-1.82722e-32
-1.77985e-32
4.75348e-32
7.6509e-32
-1.04156e-31
-2.82414e-31
1.52905e-31
9.15611e-31
9.86627e-32
-2.58573e-30
-1.93559e-30
6.0876e-30
9.63734e-30
-1.0304e-29
-3.4383e-29
2.79681e-30
9.67763e-29
6.89989e-29
-2.06647e-28
-3.58512e-28
2.4706e-28
1.17084e-27
3.9662e-28
-2.71324e-27
-3.58053e-27
3.61096e-27
1.27687e-26
3.49176e-27
-2.89837e-26
-3.8939e-26
3.17979e-26
1.31768e-25
6.53953e-26
-2.53215e-25
-4.48601e-25
1.01946e-25
1.21227e-24
1.19917e-24
-1.4686e-24
-4.6825e-24
-2.3454e-24
8.14303e-24
1.6014e-23
1.74319e-24
-3.51718e-23
-5.12207e-23
1.19655e-23
1.34742e-22
1.60414e-22
-8.18988e-23
-4.82861e-22
-5.13053e-22
3.40476e-22
1.66079e-21
1.7266e-21
-1.09527e-21
-5.52834e-21
-6.14267e-21
2.60499e-21
1.76811e-20
2.25896e-20
-2.20976e-21
-5.29922e-20
-8.26894e-20
-2.27202e-20
1.40976e-19
2.88797e-19
1.91642e-19
-2.89263e-19
-9.16941e-19
-9.9811e-19
1.82632e-19
2.45576e-18
4.05852e-18
2.19761e-18
-4.55449e-18
-1.31069e-17
-1.49188e-17
-5.18467e-19
3.04215e-17
5.94114e-17
5.09201e-17
-2.54196e-17
-1.5646e-16
-2.5598e-16
-1.82674e-16
1.67879e-16
7.19652e-16
1.1135e-15
7.82328e-16
-7.02035e-16
-3.08151e-15
-4.97957e-15
-4.07852e-15
1.69033e-15
1.20482e-14
2.23207e-14
2.32015e-14
4.17131e-15
-3.88665e-14
-9.39719e-14
-1.27274e-13
-8.86704e-14
6.46996e-14
3.28507e-13
6.08901e-13
7.05717e-13
3.5583e-13
-6.39118e-13
-2.21083e-12
-3.81482e-12
-4.34152e-12
-2.31174e-12
3.5118e-12
1.30983e-11
2.39505e-11
3.02803e-11
2.33582e-11
-6.11803e-12
-6.31503e-11
-1.41458e-10
-2.16184e-10
-2.39747e-10
-1.45675e-10
1.34433e-10
6.37438e-10
1.31982e-09
2.00224e-09
2.32649e-09
1.75401e-09
-3.56841e-10
-4.5586e-09
-1.09845e-08
-1.88895e-08
-2.61262e-08
-2.86899e-08
-2.05591e-08
5.86383e-09
5.8344e-08
1.4207e-07
2.55303e-07
3.8338e-07
4.91445e-07
5.16892e-07
3.63336e-07
-1.01016e-07
-1.03654e-06
-2.61156e-06
-4.96121e-06
-8.11816e-06
-1.19064e-05
-1.57896e-05
-1.86647e-05
-1.85945e-05
-1.24724e-05
4.38196e-06
3.86963e-05
9.97811e-05
0.000200117
0.000355977
0.000588064
0.000922128
0.00138955
0.00202782
0.00288097
0.00399973
0.00544163
0.00727083
0.00955769
0.0123782
0.0158128
0.0199457
0.0248631
0.0306516
0.0373966
0.0451803
0.0540797
0.0641646
0.0754959
0.0881234
0.102084
0.117402
0.134084
0.152124
0.171495
0.192158
0.214055
0.237113
0.261244
0.286347
0.312308
0.339004
0.366303
0.394067
0.422155
0.450423
0.478729
0.506931
0.534896
0.562491
0.589597
0.6161
0.641898
0.6669
0.691025
0.714207
0.736391
0.757532
0.777599
0.796573
0.814443
0.831209
0.846882
0.861479
0.875024
0.88755
0.899091
0.909689
0.919388
0.928234
0.936276
0.943564
0.950146
0.956073
0.961394
0.966155
0.970403
0.974181
0.977533
0.980497
0.98311
0.985408
0.987424
0.989186
0.990723
0.99206
0.99322
0.994223
0.995089
0.995835
0.996475
0.997023
0.997491
0.99789
0.99823
0.998518
0.998763
0.99897
0.999146
0.999295
0.999421
0.999527
0.999615
0.999686
0.999739
0.999771
0.999778
0.99975
0.999677
0.999544
0.999331
0.999012
0.998557
0.997929
0.997084
0.995972
0.994536
0.992711
0.990428
0.98761
0.984178
0.980047
0.975131
0.969344
0.9626
0.954817
0.945918
0.935834
0.924503
0.911875
0.897915
0.882597
0.865915
0.847876
0.828505
0.807842
0.785945
0.762887
0.738755
0.713653
0.687692
0.660996
0.633697
0.605933
0.577845
0.549577
0.521271
0.493069
0.465104
0.437509
0.410403
0.3839
0.358102
0.3331
0.308975
0.285793
0.263609
0.242468
0.222401
0.203427
0.185557
0.168791
0.153118
0.138521
0.124976
0.11245
0.100909
0.0903113
0.0806125
0.0717662
0.0637239
0.0564364
0.0498538
0.0439266
0.0386062
0.0338451
0.0295972
0.0258186
0.0224672
0.0195034
0.0168898
0.0145916
0.0125762
0.0108138
0.00927678
0.00793986
0.00678009
0.00577662
0.00491062
0.00416517
0.00352509
0.00297685
0.00250844
0.0021092
0.00176973
0.00148177
0.00123807
0.00103231
0.000858981
0.000713301
0.000591134
0.000488912
0.000403567
0.000332465
0.000273358
0.000224326
0.000183737
0.000150207
0.000122565
9.98243e-05
8.11526e-05
6.58527e-05
5.33404e-05
4.31278e-05
3.48084e-05
2.80442e-05
2.25548e-05
1.81084e-05
1.45135e-05
1.16124e-05
9.27549e-06
7.39641e-06
5.88817e-06
4.67974e-06
3.71323e-06
2.94154e-06
2.32647e-06
1.83707e-06
1.44832e-06
1.14004e-06
8.95976e-07
7.03074e-07
5.50857e-07
4.30937e-07
3.36615e-07
2.62543e-07
2.04466e-07
1.59002e-07
1.23465e-07
9.57322e-08
7.41214e-08
5.73071e-08
4.42441e-08
3.41107e-08
2.62615e-08
2.01904e-08
1.55014e-08
1.18851e-08
9.10014e-09
6.95836e-09
5.31355e-09
4.05216e-09
3.08614e-09
2.34735e-09
1.7831e-09
1.35274e-09
1.02494e-09
7.75583e-10
5.86154e-10
4.42437e-10
3.33543e-10
2.5114e-10
1.88863e-10
1.41857e-10
1.06421e-10
7.97419e-11
5.96797e-11
4.46121e-11
3.33095e-11
2.48414e-11
1.85047e-11
1.37685e-11
1.02328e-11
7.59647e-12
5.63297e-12
4.17231e-12
3.08697e-12
2.28143e-12
1.68425e-12
1.24203e-12
9.14922e-13
6.73241e-13
4.94871e-13
3.63373e-13
2.66535e-13
1.95299e-13
1.42953e-13
1.04529e-13
7.63542e-14
5.57167e-14
4.06159e-14
2.9578e-14
2.15182e-14
1.5639e-14
1.13549e-14
8.23624e-15
5.96829e-15
4.32064e-15
3.12483e-15
2.25781e-15
1.6298e-15
1.17536e-15
8.46826e-16
6.09553e-16
4.38354e-16
3.14945e-16
2.26071e-16
1.62128e-16
1.16165e-16
8.31574e-17
5.94751e-17
4.24993e-17
3.03418e-17
2.1643e-17
1.54245e-17
1.09832e-17
7.81386e-18
5.55429e-18
3.94474e-18
2.79923e-18
1.98467e-18
1.40596e-18
9.95161e-19
7.03802e-19
4.97333e-19
3.51145e-19
2.47724e-19
1.74621e-19
1.2299e-19
8.65557e-20
6.08656e-20
4.27662e-20
3.00252e-20
2.10633e-20
1.47648e-20
1.03416e-20
7.23791e-21
5.06176e-21
3.53717e-21
2.46989e-21
1.72334e-21
1.20153e-21
8.37087e-22
5.8275e-22
4.05388e-22
2.81797e-22
1.95742e-22
1.35866e-22
9.42374e-23
6.5316e-23
4.52379e-23
3.13093e-23
2.16538e-23
1.49654e-23
1.03355e-23
7.133e-24
4.91935e-24
3.39032e-24
2.33492e-24
1.60696e-24
1.1052e-24
7.59589e-25
5.21701e-25
3.58073e-25
2.45601e-25
1.68343e-25
1.15312e-25
7.89339e-26
5.39967e-26
3.69135e-26
2.52186e-26
1.72176e-26
1.17475e-26
8.01007e-27
5.4582e-27
3.71695e-27
2.52958e-27
1.72042e-27
1.16936e-27
7.94311e-28
5.39215e-28
3.65817e-28
2.48027e-28
1.68061e-28
1.13807e-28
7.70207e-29
5.20934e-29
3.52125e-29
2.37875e-29
1.60599e-29
1.08362e-29
7.3073e-30
4.9247e-30
3.31701e-30
2.23292e-30
1.50161e-30
1.01576e-30
6.21925e-31
)
;

boundaryField
{
    sides
    {
        type            zeroGradient;
    }
    empty
    {
        type            empty;
    }
}


// ************************************************************************* //
