/*--------------------------------*- C++ -*----------------------------------*\
| =========                 |                                                 |
| \\      /  F ield         | OpenFOAM: The Open Source CFD Toolbox           |
|  \\    /   O peration     | Version:  2112                                  |
|   \\  /    A nd           | Website:  www.openfoam.com                      |
|    \\/     M anipulation  |                                                 |
\*---------------------------------------------------------------------------*/
FoamFile
{
    version     2.0;
    format      ascii;
    arch        "LSB;label=32;scalar=64";
    class       volScalarField;
    location    "4";
    object      T;
}
// * * * * * * * * * * * * * * * * * * * * * * * * * * * * * * * * * * * * * //

dimensions      [0 0 0 1 0 0 0];

internalField   nonuniform List<scalar> 
1000
(
0
0
0
0
0
0
0
0
0
0
0
0
0
0
0
0
0
0
0
0
0
0
0
0
0
0
0
0
0
0
0
0
0
0
0
0
0
0
0
0
0
0
0
0
0
0
0
0
0
0
0
0
0
0
0
0
0
0
0
0
0
0
0
0
0
0
0
-2.86558e-322
3.14078e-320
-3.11905e-318
2.897e-316
-2.52801e-314
2.08041e-312
-1.61987e-310
1.19678e-308
-8.41102e-307
5.63592e-305
-3.60781e-303
2.21045e-301
-1.29837e-299
7.32246e-298
-3.97065e-296
2.07286e-294
-1.04303e-292
5.06432e-291
-2.37511e-289
1.07696e-287
-4.72558e-286
2.00822e-284
-8.27198e-283
3.30497e-281
-1.2817e-279
4.82781e-278
-1.76737e-276
6.29175e-275
-2.17933e-273
7.34869e-272
-2.41351e-270
7.72409e-269
-2.4099e-267
7.33322e-266
-2.17725e-264
6.30978e-263
-1.78555e-261
4.93559e-260
-1.3331e-258
3.51956e-257
-9.08549e-256
2.29391e-254
-5.66625e-253
1.36971e-251
-3.24108e-250
7.50913e-249
-1.70386e-247
3.78729e-246
-8.24836e-245
1.76055e-243
-3.68349e-242
7.55597e-241
-1.51993e-239
2.99876e-238
-5.80392e-237
1.10214e-235
-2.05382e-234
3.75634e-233
-6.74391e-232
1.18869e-230
-2.05728e-229
3.49661e-228
-5.83697e-227
9.57123e-226
-1.54185e-224
2.44039e-223
-3.79548e-222
5.80113e-221
-8.71445e-220
1.28674e-218
-1.8677e-217
2.66517e-216
-3.73923e-215
5.15838e-214
-6.99765e-213
9.33534e-212
-1.22483e-210
1.58059e-209
-2.00625e-208
2.50494e-207
-3.07666e-206
3.71752e-205
-4.41916e-204
5.16838e-203
-5.94724e-202
6.73343e-201
-7.50121e-200
8.22264e-199
-8.86924e-198
9.41378e-197
-9.83221e-196
1.01054e-194
-1.02205e-193
1.0172e-192
-9.9623e-192
9.60124e-191
-9.10553e-190
8.49741e-189
-7.80303e-188
7.05057e-187
-6.2684e-186
5.48334e-185
-4.71925e-184
3.99595e-183
-3.32862e-182
2.72759e-181
-2.19856e-180
1.74305e-179
-1.35913e-178
1.04221e-177
-7.85866e-177
5.82637e-176
-4.24674e-175
3.04276e-174
-2.14278e-173
1.48293e-172
-1.0084e-171
6.73656e-171
-4.42035e-170
2.8484e-169
-1.80209e-168
1.11912e-167
-6.82018e-167
4.07761e-166
-2.39096e-165
1.3745e-164
-7.74396e-164
4.27409e-163
-2.30986e-162
1.2217e-161
-6.32022e-161
3.19595e-160
-1.57851e-159
7.60865e-159
-3.57563e-158
1.63638e-157
-7.28305e-157
3.14728e-156
-1.31791e-155
5.33445e-155
-2.08047e-154
7.78518e-154
-2.77893e-153
9.38168e-153
-2.95539e-152
8.48273e-152
-2.11001e-151
3.93036e-151
-1.44231e-151
-3.34605e-150
2.17994e-149
-9.51064e-149
3.34209e-148
-9.65935e-148
2.13708e-147
-2.31996e-147
-8.66967e-147
7.2239e-146
-3.14132e-145
1.00471e-144
-2.34612e-144
2.72044e-144
8.48513e-144
-7.11619e-143
2.8907e-142
-8.08768e-142
1.37514e-141
7.04109e-142
-1.64331e-140
7.4671e-140
-2.13001e-139
3.43767e-139
3.00569e-139
-4.54475e-138
1.85945e-137
-4.55382e-137
4.35374e-137
2.04808e-136
-1.30238e-135
4.00254e-135
-6.31682e-135
-6.97202e-135
8.40433e-134
-2.98725e-133
5.49289e-133
2.15751e-133
-5.46826e-132
2.05291e-131
-3.78871e-131
-1.65309e-131
3.73172e-130
-1.32541e-129
2.13192e-129
2.4113e-129
-2.60197e-128
7.84367e-128
-8.6896e-128
-2.91672e-127
1.72884e-126
-3.95738e-126
8.3319e-127
2.71109e-125
-1.00349e-124
1.41111e-124
2.68874e-124
-1.94795e-123
4.48802e-123
-4.80087e-124
-3.10949e-122
1.03342e-121
-1.04668e-121
-4.09874e-121
2.0168e-120
-3.29909e-120
-4.14364e-120
3.54763e-119
-7.65753e-119
-2.00144e-119
5.8348e-118
-1.53782e-117
4.05316e-118
9.23367e-117
-2.83174e-116
1.60461e-116
1.4425e-115
-4.92018e-115
3.56691e-115
2.27371e-114
-8.1895e-114
6.26928e-114
3.66556e-113
-1.31403e-112
9.16239e-113
6.04989e-112
-2.03024e-111
1.05624e-111
1.01043e-110
-2.99581e-110
6.71665e-111
1.67474e-109
-4.15247e-109
-9.30585e-110
2.69413e-108
-5.24775e-108
-4.82751e-108
4.11152e-107
-5.69075e-107
-1.23619e-106
5.80378e-106
-4.43449e-106
-2.46253e-105
7.32051e-105
-3.50735e-107
-4.1345e-104
7.74034e-104
8.88293e-104
-5.92484e-103
5.70302e-103
2.25632e-102
-7.06246e-102
-1.55445e-103
3.85818e-101
-6.36975e-101
-1.02135e-100
5.06342e-100
-2.6855e-100
-2.25337e-99
4.92013e-99
4.24902e-99
-3.20436e-98
2.56829e-98
1.27538e-97
-3.15911e-97
-2.0167e-97
1.88659e-96
-1.58151e-96
-7.33896e-96
1.77115e-95
1.3257e-95
-1.04864e-94
6.80298e-95
4.29169e-94
-8.59916e-94
-1.04402e-93
5.39662e-93
-1.28606e-93
-2.43468e-92
3.35919e-92
7.81468e-92
-2.43458e-91
-1.06592e-91
1.24882e-90
-7.90115e-91
-4.97833e-90
8.56923e-90
1.44813e-89
-5.28637e-89
-1.63582e-89
2.53698e-88
-1.53804e-88
-9.99915e-88
1.54366e-87
3.13321e-87
-9.38459e-87
-6.20683e-87
4.5881e-86
-8.25264e-87
-1.92396e-85
1.76496e-85
6.98846e-85
-1.24069e-84
-2.12548e-84
6.65508e-84
4.65232e-84
-3.08078e-83
-5.767e-85
1.28249e-82
-7.16545e-83
-4.87446e-82
5.58534e-82
1.69266e-81
-3.13115e-81
-5.29021e-81
1.5121e-80
1.41968e-80
-6.65917e-80
-2.77228e-80
2.74498e-79
-1.52341e-82
-1.07454e-78
3.94045e-79
4.0312e-78
-2.87243e-78
-1.45859e-77
1.54334e-77
5.11469e-77
-7.25644e-77
-1.74528e-76
3.15459e-76
5.81771e-76
-1.30062e-75
-1.90231e-75
5.15819e-75
6.13198e-75
-1.98535e-74
-1.96073e-74
7.46051e-74
6.2689e-74
-2.74856e-73
-2.02354e-73
9.95677e-73
6.66387e-73
-3.55348e-72
-2.2597e-72
1.25083e-71
7.93234e-72
-4.34414e-71
-2.88111e-71
1.48801e-70
1.07614e-70
-5.02118e-70
-4.09429e-70
1.66586e-69
1.57033e-69
-5.41767e-69
-6.01558e-69
1.71979e-68
2.28437e-68
-5.29613e-68
-8.54897e-68
1.56771e-67
3.13843e-67
-4.39475e-67
-1.12581e-66
1.13541e-66
3.93161e-66
-2.54414e-66
-1.33143e-65
4.04069e-66
4.35162e-65
1.59192e-66
-1.36409e-64
-5.3373e-65
4.06377e-64
3.20124e-64
-1.13388e-63
-1.44565e-63
2.88553e-63
5.66199e-63
-6.31511e-63
-2.00623e-62
9.82378e-63
6.51903e-62
2.23528e-63
-1.94063e-61
-1.05763e-61
5.21441e-61
5.91538e-61
-1.21535e-60
-2.41539e-60
2.18516e-60
8.31356e-60
-1.43443e-60
-2.49404e-59
-1.11773e-59
6.47146e-59
7.32204e-59
-1.37289e-58
-2.98735e-58
1.88904e-58
9.72358e-58
1.41529e-58
-2.62727e-57
-2.27205e-57
5.66877e-57
1.0478e-56
-7.8511e-57
-3.48276e-56
-5.202e-57
9.12813e-56
8.63037e-56
-1.79082e-55
-3.79155e-55
1.72018e-55
1.1638e-54
5.1961e-55
-2.66856e-54
-3.69054e-54
3.86229e-54
1.31902e-53
1.61319e-54
-3.32435e-53
-3.46763e-53
5.47975e-53
1.41681e-52
-8.2563e-54
-3.74842e-52
-3.41104e-52
6.31578e-52
1.49871e-51
-1.21386e-52
-3.94483e-51
-3.7037e-51
6.1975e-51
1.57893e-50
9.09915e-52
-3.87174e-50
-4.35774e-50
4.98269e-50
1.62691e-49
5.45254e-50
-3.42739e-49
-5.16998e-49
2.62643e-49
1.56812e-48
1.15106e-48
-2.50302e-48
-5.71712e-48
-6.23902e-49
1.31187e-47
1.71466e-47
-1.10268e-47
-5.45862e-47
-4.01671e-47
8.11993e-47
1.9647e-46
5.19911e-47
-4.01132e-46
-6.31394e-46
1.42011e-46
1.67089e-45
1.82936e-45
-1.53465e-45
-6.29668e-45
-4.74173e-45
8.35685e-45
2.22227e-44
1.06066e-44
-3.70147e-44
-7.51045e-44
-1.80995e-44
1.4758e-43
2.4729e-43
9.17939e-45
-5.51923e-43
-8.05187e-43
1.04326e-43
1.97812e-42
2.62675e-42
-6.48178e-43
-6.87787e-42
-8.67534e-42
2.60374e-42
2.33501e-41
2.91846e-41
-8.18795e-42
-7.75527e-41
-1.00061e-40
1.89724e-41
2.51399e-40
3.47881e-40
-1.36792e-41
-7.89828e-40
-1.21493e-39
-1.866e-40
2.37314e-39
4.21028e-39
1.57825e-39
-6.65732e-39
-1.42761e-38
-8.8171e-39
1.66078e-38
4.66011e-38
4.12633e-38
-3.22588e-38
-1.43433e-37
-1.71758e-37
1.9208e-38
4.03193e-37
6.47352e-37
2.43411e-37
-9.71574e-37
-2.20551e-36
-1.75503e-36
1.65501e-36
6.6604e-36
8.21279e-36
3.37044e-37
-1.69092e-35
-3.09437e-35
-1.95821e-35
3.04533e-35
9.6722e-35
1.1131e-34
-1.6584e-36
-2.38677e-34
-4.36062e-34
-3.02086e-34
3.59639e-34
1.30776e-33
1.69032e-33
4.23384e-34
-2.75752e-33
-6.11474e-33
-5.83835e-33
1.68671e-33
1.54799e-32
2.62548e-32
1.8296e-32
-1.94751e-32
-7.61786e-32
-1.08131e-31
-5.29217e-32
1.21573e-31
3.50601e-31
4.41687e-31
1.48335e-31
-6.23691e-31
-1.55889e-30
-1.83808e-30
-4.68636e-31
2.87104e-30
6.80963e-30
7.92847e-30
2.09438e-30
-1.21469e-29
-2.93747e-29
-3.55586e-29
-1.29052e-29
4.6787e-29
1.24427e-28
1.63867e-28
8.70223e-29
-1.55402e-28
-5.08697e-28
-7.58445e-28
-5.63693e-28
3.62777e-28
1.94136e-27
3.42338e-27
3.37314e-27
2.29898e-28
-6.46045e-27
-1.45299e-26
-1.83843e-26
-1.02808e-26
1.53288e-26
5.49393e-26
8.97297e-26
8.55253e-26
5.1095e-27
-1.64783e-25
-3.78628e-25
-5.08882e-25
-3.63628e-25
2.28493e-25
1.2648e-24
2.39501e-24
2.83742e-24
1.53411e-24
-2.33548e-24
-8.50625e-24
-1.47287e-23
-1.6411e-23
-7.58138e-24
1.62193e-23
5.32454e-23
9.05308e-23
1.01654e-22
5.14918e-23
-8.84275e-23
-3.13867e-22
-5.57836e-22
-6.72247e-22
-4.4444e-22
3.28145e-22
1.69604e-21
3.37232e-21
4.57661e-21
4.03311e-21
2.72863e-22
-7.64725e-21
-1.9035e-20
-3.0341e-20
-3.44332e-20
-2.12667e-20
1.90828e-20
9.04628e-20
1.82294e-19
2.61167e-19
2.6698e-19
1.20113e-19
-2.53559e-19
-8.75986e-19
-1.65239e-18
-2.30547e-18
-2.34132e-18
-1.0952e-18
2.08879e-18
7.50552e-18
1.45726e-17
2.12463e-17
2.35885e-17
1.58398e-17
-8.54732e-18
-5.44767e-17
-1.21161e-16
-1.9677e-16
-2.52952e-16
-2.4159e-16
-9.73754e-17
2.49292e-16
8.44775e-16
1.66777e-15
2.57062e-15
3.21727e-15
3.0406e-15
1.25501e-15
-3.0271e-15
-1.05221e-14
-2.13021e-14
-3.41141e-14
-4.55561e-14
-4.92838e-14
-3.55791e-14
8.21317e-15
9.57043e-14
2.37168e-13
4.32244e-13
6.59322e-13
8.62114e-13
9.35299e-13
7.13229e-13
-3.16207e-14
-1.57059e-12
-4.16816e-12
-7.98365e-12
-1.29104e-11
-1.83424e-11
-2.28702e-11
-2.39296e-11
-1.74611e-11
2.30831e-12
4.27847e-11
1.12363e-10
2.18859e-10
3.66566e-10
5.51413e-10
7.53673e-10
9.27803e-10
9.89237e-10
7.98524e-10
1.44191e-10
-1.27281e-09
-3.8479e-09
-8.06646e-09
-1.44694e-08
-2.35714e-08
-3.5706e-08
-5.07593e-08
-6.77444e-08
-8.4152e-08
-9.49947e-08
-9.14416e-08
-5.89169e-08
2.54936e-08
1.9651e-07
5.05217e-07
1.02496e-06
1.85887e-06
3.14932e-06
5.08962e-06
7.93848e-06
1.20374e-05
1.78314e-05
2.5894e-05
3.6956e-05
5.19389e-05
7.19936e-05
9.85439e-05
0.000133335
0.00017849
0.000236566
0.000310621
0.000404285
0.000521831
0.000668255
0.000849354
0.00107181
0.00134326
0.0016724
0.00206904
0.00254417
0.00311006
0.00378027
0.00456971
0.0054947
0.00657292
0.00782345
0.00926674
0.0109245
0.0128199
0.0149769
0.0174208
0.0201775
0.023274
0.0267374
0.0305954
0.0348756
0.0396054
0.0448118
0.0505209
0.0567578
0.0635463
0.0709084
0.0788641
0.0874312
0.0966249
0.106458
0.116938
0.128073
0.139865
0.152312
0.165409
0.179148
0.193516
0.208497
0.224069
0.240208
0.256887
0.274075
0.291736
0.309833
0.328326
0.347171
0.366323
0.385737
0.405363
0.425152
0.445055
0.465021
0.484999
0.504941
0.524797
0.544519
0.564062
0.583381
0.602433
0.621178
0.639579
0.6576
0.67521
0.69238
0.709082
0.725295
0.740998
0.756175
0.770812
0.784899
0.798427
0.811392
0.823792
0.835627
0.8469
0.857616
0.867783
0.87741
0.886508
0.895088
0.903166
0.910755
0.917871
0.924532
0.930754
0.936555
0.941953
0.946965
0.95161
0.955904
0.959866
0.963511
0.966855
0.969913
0.9727
0.975228
0.977509
0.979553
0.981369
0.982965
0.984346
0.985516
0.986477
0.98723
0.987774
0.988104
0.988214
0.988098
0.987746
0.987146
0.986285
0.985147
0.983716
0.981972
0.979895
0.977465
0.974657
0.97145
0.967819
0.963738
0.959185
0.954134
0.948561
0.942444
0.935761
0.92849
0.920615
0.912118
0.902986
0.893206
0.882772
0.871677
0.859921
0.847504
0.834433
0.820716
0.806368
0.791404
0.775847
0.75972
0.743051
0.725873
0.70822
0.690129
0.671642
0.652802
0.633654
0.614244
0.594621
0.574834
0.554933
0.53497
0.514993
0.495052
0.475197
0.455476
0.435934
0.416616
0.397564
0.37882
0.360419
0.342398
0.324788
0.307619
0.290917
0.274704
0.259001
0.243824
0.229187
0.215101
0.201573
0.188608
0.176208
0.164373
0.1531
0.142384
0.132216
0.122589
0.113492
0.104911
0.0968323
0.089242
0.0821235
0.0754599
0.0692338
0.063427
0.0580213
0.0529979
0.0483383
0.0440237
0.0400357
0.0363559
0.0329666
0.02985
0.0269891
0.0243675
0.0219692
0.0197787
0.0177816
0.0159626
0.0143147
0.0127932
0.0115488
0.00974306
)
;

boundaryField
{
    sides
    {
        type            zeroGradient;
    }
    empty
    {
        type            empty;
    }
}


// ************************************************************************* //
