/*--------------------------------*- C++ -*----------------------------------*\
| =========                 |                                                 |
| \\      /  F ield         | OpenFOAM: The Open Source CFD Toolbox           |
|  \\    /   O peration     | Version:  2112                                  |
|   \\  /    A nd           | Website:  www.openfoam.com                      |
|    \\/     M anipulation  |                                                 |
\*---------------------------------------------------------------------------*/
FoamFile
{
    version     2.0;
    format      ascii;
    arch        "LSB;label=32;scalar=64";
    class       surfaceScalarField;
    location    "0.006";
    object      phi;
}
// * * * * * * * * * * * * * * * * * * * * * * * * * * * * * * * * * * * * * //

dimensions      [1 0 -1 0 0 0 0];

oriented        oriented;

internalField   nonuniform List<scalar> 
99
(
7.35767e-11
2.70177e-10
1.11662e-09
4.70587e-09
1.95021e-08
7.88528e-08
3.10546e-07
1.18994e-06
4.4318e-06
1.60262e-05
5.62079e-05
0.000190963
0.000627641
0.00199271
0.00610163
0.0179854
0.0509298
0.138223
0.358553
0.886133
2.07854
4.60671
9.60145
18.7161
33.6455
54.1311
79.431
108.583
140.135
172.649
204.96
236.259
266.037
294.002
320.003
343.964
365.921
385.715
403.908
419.514
433.86
446.906
456.4
465.895
475.095
480.488
483.782
488.552
493.733
495.702
494.825
492.98
494.71
496.867
496.8
495.429
492.471
490.644
489.779
490.954
493.684
495.097
495.351
494.014
476.121
424.672
380.918
350.621
331.594
320.064
312.074
309.071
308.176
306.876
308.08
310.053
311.794
310.34
306.626
303.372
297.646
286.629
251.347
99.5522
24.5691
4.18644
0.632226
0.0935327
0.0138227
0.00204494
0.000302883
4.49173e-05
6.66712e-06
9.89941e-07
1.46908e-07
2.17661e-08
3.21565e-09
4.73018e-10
6.76841e-11
)
;

boundaryField
{
    sides
    {
        type            calculated;
        value           nonuniform List<scalar> 2(1.57386e-11 -3.53088e-11);
    }
    empty
    {
        type            empty;
        value           nonuniform List<scalar> 0();
    }
}


// ************************************************************************* //
