/*--------------------------------*- C++ -*----------------------------------*\
| =========                 |                                                 |
| \\      /  F ield         | OpenFOAM: The Open Source CFD Toolbox           |
|  \\    /   O peration     | Version:  2112                                  |
|   \\  /    A nd           | Website:  www.openfoam.com                      |
|    \\/     M anipulation  |                                                 |
\*---------------------------------------------------------------------------*/
FoamFile
{
    version     2.0;
    format      ascii;
    arch        "LSB;label=32;scalar=64";
    class       volScalarField;
    location    "4";
    object      T;
}
// * * * * * * * * * * * * * * * * * * * * * * * * * * * * * * * * * * * * * //

dimensions      [0 0 0 1 0 0 0];

internalField   nonuniform List<scalar> 
1000
(
0
0
0
0
0
0
0
0
0
0
0
0
0
0
0
0
0
0
0
0
0
0
0
0
0
0
0
0
0
0
0
0
0
0
0
0
0
0
0
0
0
0
0
0
0
0
0
0
0
0
0
0
0
0
0
0
0
0
0
0
0
0
0
0
0
0
1.97626e-323
-2.22824e-321
2.10383e-319
-1.87247e-317
1.57755e-315
-1.26124e-313
9.59031e-312
-6.94997e-310
4.80907e-308
-3.18284e-306
2.01805e-304
-1.22757e-302
7.17372e-301
-4.03251e-299
2.18297e-297
-1.13929e-295
5.73825e-294
-2.7919e-292
1.31336e-290
-5.97862e-289
2.6357e-287
-1.12614e-285
4.66665e-284
-1.87681e-282
7.33021e-281
-2.78198e-279
1.02656e-277
-3.68504e-276
1.28752e-274
-4.38058e-273
1.45205e-271
-4.69138e-270
1.47799e-268
-4.54229e-267
1.36232e-265
-3.98886e-264
1.14062e-262
-3.1864e-261
8.69912e-260
-2.32167e-258
6.05913e-257
-1.54678e-255
3.86349e-254
-9.44451e-253
2.26017e-251
-5.29627e-250
1.21555e-248
-2.73306e-247
6.02138e-246
-1.30018e-244
2.7521e-243
-5.71164e-242
1.16246e-240
-2.32057e-239
4.54453e-238
-8.73239e-237
1.64664e-235
-3.04757e-234
5.53687e-233
-9.87631e-232
1.72984e-230
-2.97547e-229
5.0269e-228
-8.34247e-227
1.36016e-225
-2.17891e-224
3.42996e-223
-5.3062e-222
8.06805e-221
-1.20583e-219
1.77164e-218
-2.55904e-217
3.63436e-216
-5.0753e-215
6.96967e-214
-9.41263e-213
1.25023e-211
-1.63333e-210
2.09889e-209
-2.65318e-208
3.29932e-207
-4.03633e-206
4.85817e-205
-5.75309e-204
6.70332e-203
-7.68518e-202
8.66975e-201
-9.62411e-200
1.0513e-198
-1.13009e-197
1.19544e-196
-1.24445e-195
1.27486e-194
-1.28525e-193
1.27512e-192
-1.24496e-191
1.19618e-190
-1.13101e-189
1.05234e-188
-9.63524e-188
8.68103e-187
-7.69606e-186
6.71335e-185
-5.7619e-184
4.86549e-183
-4.04203e-182
3.30338e-181
-2.65568e-180
2.1e-179
-1.63326e-178
1.24924e-177
-9.3961e-177
6.94892e-176
-5.05249e-175
3.61126e-174
-2.53699e-173
1.75155e-172
-1.18824e-171
7.91925e-171
-5.18424e-170
3.33287e-169
-2.10372e-168
1.30344e-167
-7.92527e-167
4.7275e-166
-2.76571e-165
1.58633e-164
-8.91705e-164
4.91034e-163
-2.64766e-162
1.39715e-161
-7.21118e-161
3.63799e-160
-1.79261e-159
8.61999e-159
-4.04104e-158
1.84477e-157
-8.18956e-157
3.52965e-156
-1.47394e-155
5.94859e-155
-2.31274e-154
8.62486e-154
-3.06688e-153
1.03076e-152
-3.22907e-152
9.19786e-152
-2.25942e-151
4.08193e-151
-7.66286e-152
-3.91759e-150
2.45126e-149
-1.05204e-148
3.65204e-148
-1.04145e-147
2.25249e-147
-2.20571e-147
-1.04818e-146
8.11778e-146
-3.45266e-145
1.08574e-144
-2.47644e-144
2.62345e-144
1.02625e-143
-7.95095e-143
3.15191e-142
-8.62958e-142
1.40264e-141
1.07464e-141
-1.85246e-140
8.14932e-140
-2.26866e-139
3.48034e-139
4.06001e-139
-5.07842e-138
2.0132e-137
-4.78669e-137
4.05643e-137
2.3861e-136
-1.42705e-135
4.25956e-135
-6.36585e-135
-8.95564e-135
9.29275e-134
-3.19526e-133
5.61796e-133
3.37164e-133
-6.06835e-132
2.19601e-131
-3.87169e-131
-2.48541e-131
4.12482e-130
-1.41114e-129
2.14776e-129
3.02949e-129
-2.84649e-128
8.26865e-128
-8.35176e-128
-3.36753e-127
1.86498e-126
-4.09777e-126
2.95318e-127
3.00397e-125
-1.06402e-124
1.39919e-124
3.17658e-124
-2.10164e-123
4.63765e-123
1.49095e-124
-3.42023e-122
1.08725e-121
-9.94506e-122
-4.64323e-121
2.14776e-120
-3.31627e-120
-5.00481e-120
3.81608e-119
-7.85481e-119
-3.26599e-119
6.33326e-118
-1.59408e-117
2.27993e-118
1.01036e-116
-2.95296e-116
1.35833e-116
1.58846e-115
-5.14671e-115
3.21179e-115
2.51244e-114
-8.5732e-114
5.71411e-114
4.04875e-113
-1.37373e-112
8.21106e-113
6.65336e-112
-2.1151e-111
8.82888e-112
1.10305e-110
-3.1029e-110
3.51221e-111
1.81154e-109
-4.26296e-109
-1.50796e-109
2.88488e-108
-5.31316e-108
-5.81361e-108
4.35528e-107
-5.61713e-107
-1.3925e-106
6.07462e-106
-4.07344e-106
-2.68762e-105
7.54935e-105
8.00848e-106
-4.41996e-104
7.80187e-104
1.03574e-103
-6.22466e-103
5.42501e-103
2.46917e-102
-7.27932e-102
-9.38344e-103
4.10674e-101
-6.36236e-101
-1.15512e-100
5.27514e-100
-2.31578e-100
-2.42246e-99
4.9879e-99
5.02501e-99
-3.35566e-98
2.39225e-98
1.37844e-97
-3.21697e-97
-2.45753e-97
1.97695e-96
-1.48377e-96
-7.92165e-96
1.79972e-95
1.57657e-95
-1.09483e-94
6.15724e-95
4.59676e-94
-8.65806e-94
-1.1841e-93
5.58993e-93
-8.40878e-94
-2.57721e-92
3.30794e-92
8.54175e-92
-2.48896e-91
-1.34724e-91
1.30328e-90
-7.15768e-91
-5.30288e-90
8.54774e-90
1.59788e-89
-5.41787e-89
-2.18914e-89
2.64607e-88
-1.3878e-88
-1.06143e-87
1.52953e-87
3.41572e-87
-9.5526e-87
-7.30485e-87
4.74641e-86
-4.71322e-87
-2.01829e-85
1.68185e-85
7.44895e-85
-1.23721e-84
-2.32213e-84
6.76928e-84
5.40164e-84
-3.17482e-83
-3.11286e-84
1.33615e-82
-6.43043e-83
-5.13441e-82
5.42596e-82
1.8062e-81
-3.12414e-81
-5.74919e-81
1.53094e-80
1.5936e-80
-6.81015e-80
-3.39368e-80
2.82952e-79
2.08047e-80
-1.11529e-78
3.27608e-79
4.21112e-78
-2.67678e-78
-1.53345e-77
1.49129e-77
5.41283e-77
-7.14019e-77
-1.8601e-76
3.13849e-76
6.24844e-76
-1.30363e-75
-2.06057e-75
5.19751e-75
6.70409e-75
-2.00822e-74
-2.165e-74
7.56767e-74
6.99151e-74
-2.79355e-73
-2.27749e-73
1.01325e-72
7.55223e-73
-3.61846e-72
-2.56946e-72
1.27373e-71
9.00959e-72
-4.42121e-71
-3.25472e-71
1.51268e-70
1.20525e-70
-5.09549e-70
-4.5381e-70
1.68644e-69
1.72177e-69
-5.46719e-69
-6.52711e-69
1.72834e-68
2.45483e-68
-5.29358e-68
-9.1072e-68
1.55538e-67
3.31723e-67
-4.31341e-67
-1.18148e-66
1.09497e-66
4.09882e-66
-2.36807e-66
-1.37931e-65
3.33696e-66
4.47988e-65
4.22509e-66
-1.39509e-64
-6.26729e-65
4.12556e-64
3.51192e-64
-1.14067e-63
-1.54359e-63
2.86537e-63
5.95108e-63
-6.12651e-63
-2.0849e-62
8.89119e-63
6.7101e-62
5.95024e-63
-1.97882e-61
-1.18715e-61
5.25925e-61
6.31992e-61
-1.20637e-60
-2.52836e-60
2.09473e-60
8.58805e-60
-1.01105e-60
-2.54737e-59
-1.27174e-59
6.52719e-59
7.79533e-59
-1.35799e-58
-3.11109e-58
1.76416e-58
9.98521e-58
1.94516e-58
-2.66279e-57
-2.44433e-57
5.64194e-57
1.09326e-56
-7.43795e-57
-3.57575e-56
-7.04228e-57
9.23726e-56
9.21458e-56
-1.7735e-55
-3.93454e-55
1.5563e-55
1.18834e-54
5.83897e-55
-2.67881e-54
-3.86934e-54
3.73308e-54
1.35455e-53
2.26929e-54
-3.35771e-53
-3.66882e-53
5.38013e-53
1.45949e-52
-1.6544e-54
-3.79493e-52
-3.62499e-52
6.22574e-52
1.54427e-51
-5.31712e-53
-3.99145e-51
-3.92305e-51
6.08971e-51
1.62274e-50
1.63726e-51
-3.90414e-50
-4.57294e-50
4.83167e-50
1.66368e-49
6.22681e-50
-3.43221e-49
-5.36495e-49
2.41921e-49
1.59212e-48
1.2288e-48
-2.4716e-48
-5.86837e-48
-8.76687e-49
1.31836e-47
1.78295e-47
-1.03631e-47
-5.54113e-47
-4.27498e-47
7.99857e-47
2.01077e-46
6.05931e-47
-4.01174e-46
-6.51636e-46
1.16329e-46
1.68522e-45
1.90771e-45
-1.46602e-45
-6.38844e-45
-5.02155e-45
8.19693e-45
2.26532e-44
1.15535e-44
-3.67179e-44
-7.68653e-44
-2.11948e-44
1.47311e-43
2.53949e-43
1.91107e-44
-5.52997e-43
-8.29131e-43
7.25931e-44
1.98641e-42
2.70993e-42
-5.45925e-43
-6.91433e-42
-8.95702e-42
2.26842e-42
2.34773e-41
3.01185e-41
-7.06447e-42
-7.79164e-41
-1.03092e-40
1.51351e-41
2.52157e-40
3.57473e-40
-4.20644e-43
-7.90066e-40
-1.24424e-39
-2.32416e-40
2.36412e-39
4.29538e-39
1.73446e-39
-6.58949e-39
-1.45038e-38
-9.33476e-39
1.62504e-38
4.71268e-38
4.29014e-38
-3.06629e-38
-1.44276e-37
-1.7659e-37
1.28576e-38
4.02741e-37
6.60121e-37
2.66223e-37
-9.59501e-37
-2.23311e-36
-1.82851e-36
1.58537e-36
6.69396e-36
8.41898e-36
6.30488e-37
-1.68233e-35
-3.14087e-35
-2.05952e-35
2.96093e-35
9.73256e-35
1.14175e-34
2.29292e-36
-2.37449e-34
-4.42071e-34
-3.15732e-34
3.46923e-34
1.31258e-33
1.72582e-33
4.79862e-34
-2.72512e-33
-6.17092e-33
-6.01219e-33
1.47238e-33
1.54308e-32
2.66046e-32
1.90714e-32
-1.87001e-32
-7.6278e-32
-1.09926e-31
-5.62252e-32
1.18795e-31
3.51942e-31
4.50062e-31
1.62186e-31
-6.13356e-31
-1.56674e-30
-1.87505e-30
-5.26906e-31
2.82933e-30
6.84472e-30
8.08538e-30
2.34251e-30
-1.19607e-29
-2.95004e-29
-3.61991e-29
-1.39721e-29
4.58842e-29
1.2473e-28
1.66345e-28
9.15941e-29
-1.50856e-28
-5.08448e-28
-7.67197e-28
-5.8277e-28
3.40029e-28
1.9317e-27
3.44906e-27
3.44799e-27
3.38864e-28
-6.3774e-27
-1.45717e-26
-1.86444e-26
-1.07627e-26
1.48039e-26
5.47682e-26
9.04208e-26
8.73982e-26
7.84883e-27
-1.62511e-25
-3.79139e-25
-5.1464e-25
-3.75475e-25
2.13602e-25
1.25534e-24
2.40392e-24
2.87677e-24
1.60532e-24
-2.25335e-24
-8.46343e-24
-1.47974e-23
-1.66555e-23
-8.00433e-24
1.57405e-23
5.29967e-23
9.09259e-23
1.03076e-22
5.40045e-23
-8.54451e-23
-3.11981e-22
-5.5946e-22
-6.79892e-22
-4.59183e-22
3.08787e-22
1.68006e-21
3.37359e-21
4.61208e-21
4.11522e-21
3.97463e-22
-7.51485e-21
-1.89693e-20
-3.04514e-20
-3.4833e-20
-2.20112e-20
1.80866e-20
8.95495e-20
1.82088e-19
2.62517e-19
2.70705e-19
1.2652e-19
-2.45352e-19
-8.68752e-19
-1.65117e-18
-2.31714e-18
-2.37276e-18
-1.14973e-18
2.01666e-18
7.43606e-18
1.45452e-17
2.13186e-17
2.3826e-17
1.62914e-17
-7.88951e-18
-5.37299e-17
-1.20605e-16
-1.96874e-16
-2.54349e-16
-2.44941e-16
-1.03102e-16
2.41437e-16
8.36265e-16
1.66187e-15
2.57271e-15
3.23471e-15
3.08143e-15
1.32536e-15
-2.92754e-15
-1.04063e-14
-2.1203e-14
-3.40911e-14
-4.56977e-14
-4.97021e-14
-3.63893e-14
6.93385e-15
9.3983e-14
2.3523e-13
4.30625e-13
6.58984e-13
8.64518e-13
9.42384e-13
7.27208e-13
-8.75793e-15
-1.53797e-12
-4.12743e-12
-7.94093e-12
-1.28787e-11
-1.83443e-11
-2.29401e-11
-2.41145e-11
-1.7819e-11
1.71575e-12
4.19065e-11
1.11185e-10
2.17443e-10
3.65112e-10
5.5033e-10
7.53683e-10
9.30046e-10
9.95378e-10
8.10839e-10
1.65568e-10
-1.239e-09
-3.79815e-09
-7.99791e-09
-1.43811e-08
-2.34665e-08
-3.5595e-08
-5.06647e-08
-6.7708e-08
-8.4244e-08
-9.53269e-08
-9.21846e-08
-6.03225e-08
2.30637e-08
1.92548e-07
4.99025e-07
1.0156e-06
1.84508e-06
3.12944e-06
5.06154e-06
7.89948e-06
1.1984e-05
1.77594e-05
2.57981e-05
3.68297e-05
5.17744e-05
7.17815e-05
9.82732e-05
0.000132993
0.000178061
0.000236031
0.000309962
0.000403478
0.00052085
0.000667071
0.000847935
0.00107012
0.00134126
0.00167005
0.00206629
0.00254099
0.00310638
0.00377604
0.00456489
0.00548922
0.00656673
0.0078165
0.00925898
0.0109159
0.0128103
0.0149664
0.0174092
0.020165
0.0232604
0.0267227
0.0305796
0.0348587
0.0395874
0.0447927
0.0505008
0.0567367
0.0635243
0.0708855
0.0788404
0.0874069
0.0966
0.106432
0.116913
0.128047
0.139839
0.152286
0.165383
0.179123
0.193491
0.208472
0.224045
0.240186
0.256866
0.274055
0.291717
0.309816
0.32831
0.347157
0.366311
0.385727
0.405355
0.425146
0.445051
0.465018
0.484999
0.504942
0.5248
0.544525
0.564069
0.58339
0.602443
0.62119
0.639592
0.657615
0.675227
0.692397
0.709101
0.725315
0.741019
0.756196
0.770834
0.784921
0.798449
0.811414
0.823814
0.835649
0.846922
0.857639
0.867805
0.877432
0.886529
0.895109
0.903186
0.910774
0.91789
0.92455
0.930772
0.936572
0.941969
0.946981
0.951624
0.955918
0.959879
0.963523
0.966867
0.969925
0.972711
0.975239
0.977519
0.979563
0.981378
0.982974
0.984354
0.985524
0.986486
0.987239
0.987782
0.988112
0.988223
0.988108
0.987756
0.987156
0.986296
0.985158
0.983727
0.981984
0.979909
0.977479
0.974673
0.971466
0.967836
0.963756
0.959204
0.954154
0.948582
0.942466
0.935783
0.928514
0.920639
0.912143
0.903011
0.893232
0.882798
0.871704
0.859947
0.84753
0.834459
0.820742
0.806393
0.791429
0.77587
0.759742
0.743073
0.725893
0.708239
0.690147
0.671658
0.652816
0.633666
0.614254
0.594629
0.57484
0.554938
0.534972
0.514993
0.495051
0.475194
0.455471
0.435927
0.416607
0.397554
0.378807
0.360406
0.342383
0.324772
0.307602
0.290898
0.274685
0.258981
0.243803
0.229166
0.215079
0.201551
0.188585
0.176186
0.164351
0.153078
0.142361
0.132195
0.122568
0.113471
0.10489
0.0968123
0.0892225
0.0821046
0.0754417
0.0692163
0.0634102
0.0580052
0.0529826
0.0483237
0.0440099
0.0400226
0.0363436
0.0329549
0.029839
0.0269789
0.0243579
0.0219602
0.0197704
0.0177738
0.0159555
0.014308
0.012787
0.0115432
0.00973793
)
;

boundaryField
{
    sides
    {
        type            zeroGradient;
    }
    empty
    {
        type            empty;
    }
}


// ************************************************************************* //
