/*--------------------------------*- C++ -*----------------------------------*\
| =========                 |                                                 |
| \\      /  F ield         | OpenFOAM: The Open Source CFD Toolbox           |
|  \\    /   O peration     | Version:  2112                                  |
|   \\  /    A nd           | Website:  www.openfoam.com                      |
|    \\/     M anipulation  |                                                 |
\*---------------------------------------------------------------------------*/
FoamFile
{
    version     2.0;
    format      ascii;
    arch        "LSB;label=32;scalar=64";
    class       volScalarField;
    location    "1";
    object      T;
}
// * * * * * * * * * * * * * * * * * * * * * * * * * * * * * * * * * * * * * //

dimensions      [0 0 0 1 0 0 0];

internalField   nonuniform List<scalar> 
1000
(
0
0
0
0
0
0
0
0
0
0
0
0
0
0
0
0
0
0
0
0
0
0
0
0
0
0
0
0
0
0
0
0
0
0
0
0
0
0
0
0
0
0
0
0
0
0
0
0
0
0
0
0
0
0
0
0
0
0
0
0
0
0
0
0
0
0
0
0
0
0
0
0
0
0
0
0
0
0
0
0
0
0
0
0
0
0
0
0
0
0
0
0
0
0
0
0
0
0
0
0
0
0
0
0
0
0
0
0
0
0
0
0
0
0
0
0
0
0
0
0
0
0
0
0
0
0
0
0
0
0
0
0
0
0
0
0
0
0
0
0
0
0
0
0
0
0
0
0
0
0
0
0
0
0
0
0
0
0
0
0
0
0
0
0
0
0
0
0
0
0
0
0
0
0
0
0
0
0
0
0
0
0
0
0
0
0
0
0
0
0
0
0
0
0
0
0
0
0
0
0
0
0
0
0
0
0
0
0
0
0
0
0
0
0
0
0
0
0
0
0
0
0
0
0
0
0
0
0
0
0
0
0
0
0
0
0
0
0
0
0
0
0
0
0
0
0
0
0
0
0
0
0
0
0
0
0
0
0
0
0
0
0
0
0
0
0
0
0
0
0
0
0
0
0
0
0
0
0
0
0
0
0
0
0
0
0
0
0
0
0
0
0
0
0
0
0
0
0
0
0
0
0
0
0
0
0
0
0
0
0
0
0
0
0
0
0
0
0
0
0
0
0
0
0
0
0
0
0
0
0
0
0
0
0
0
0
0
0
0
0
0
0
0
0
0
0
0
0
0
0
1.53065e-78
-3.5562e-76
4.05041e-74
-3.01348e-72
1.64641e-70
-7.04049e-69
2.45258e-67
-7.15207e-66
1.78048e-64
-3.83958e-63
7.25288e-62
-1.21048e-60
1.79684e-59
-2.38435e-58
2.83892e-57
-3.04047e-56
2.93285e-55
-2.548e-54
1.99077e-53
-1.39402e-52
8.69462e-52
-4.77924e-51
2.27224e-50
-9.00913e-50
2.72797e-49
-4.40511e-49
-1.23048e-48
1.36349e-47
-6.11075e-47
1.53365e-46
-2.40813e-47
-1.72928e-45
8.32423e-45
-1.75227e-44
-1.59337e-44
2.46691e-43
-7.84671e-43
4.63024e-43
5.78785e-42
-2.34791e-41
2.32654e-41
1.31149e-40
-5.73064e-40
5.20711e-40
3.13108e-39
-1.18486e-38
5.18448e-39
7.36904e-38
-1.97342e-37
-9.31436e-38
1.49941e-36
-2.23111e-36
-5.46439e-36
2.31215e-35
-4.84304e-36
-1.28096e-34
2.16215e-34
4.13592e-34
-1.72639e-33
-3.95002e-35
9.02726e-33
-9.89745e-33
-3.44004e-32
8.21964e-32
8.6672e-32
-4.57293e-31
-1.99845e-32
2.04651e-30
-1.36183e-30
-7.8124e-30
1.03943e-29
2.60752e-29
-5.47008e-29
-7.67782e-29
2.41185e-28
1.99004e-28
-9.50937e-28
-4.48218e-28
3.4635e-27
8.59622e-28
-1.18812e-26
-1.42957e-27
3.88484e-26
2.85222e-27
-1.21833e-25
-1.22815e-26
3.6684e-25
7.27196e-26
-1.05607e-24
-3.83652e-25
2.87876e-24
1.72338e-24
-7.30844e-24
-6.72777e-24
1.68059e-23
2.31965e-23
-3.31657e-23
-7.10306e-23
4.8555e-23
1.92173e-22
-1.65135e-23
-4.50679e-22
-2.15813e-22
8.74613e-22
1.01172e-21
-1.22889e-21
-2.96676e-21
4.85812e-22
6.43513e-21
3.86195e-21
-9.78581e-21
-1.54482e-20
6.03843e-21
3.45811e-20
1.9253e-20
-4.6494e-20
-7.87331e-20
8.07832e-21
1.48305e-19
1.3629e-19
-1.16403e-19
-3.5901e-19
-1.93885e-19
3.89422e-19
7.70415e-19
2.55743e-19
-9.62734e-19
-1.59534e-18
-4.27725e-19
2.03164e-18
3.32785e-18
1.16069e-18
-3.73386e-18
-6.97859e-18
-3.8607e-18
5.52249e-18
1.40908e-17
1.20611e-17
-4.11906e-18
-2.52328e-17
-3.24606e-17
-1.11293e-17
3.34263e-17
7.13509e-17
6.36827e-17
-7.45159e-18
-1.13203e-16
-1.79925e-16
-1.28641e-16
6.31823e-17
3.15738e-16
4.58393e-16
3.15132e-16
-1.65561e-16
-8.09017e-16
-1.22457e-15
-9.71479e-16
1.59179e-16
1.87866e-15
3.32997e-15
3.34993e-15
1.05989e-15
-3.41744e-15
-8.48366e-15
-1.12319e-14
-8.47797e-15
1.49833e-15
1.71133e-14
3.25011e-14
3.83669e-14
2.51706e-14
-1.17941e-14
-6.70196e-14
-1.21644e-13
-1.45295e-13
-1.04719e-13
2.12223e-14
2.23721e-13
4.49961e-13
6.01289e-13
5.51236e-13
1.86717e-13
-5.32082e-13
-1.50767e-12
-2.46108e-12
-2.93692e-12
-2.38407e-12
-3.24754e-13
3.40136e-12
8.36559e-12
1.33354e-11
1.62279e-11
1.4349e-11
5.0059e-12
-1.34917e-11
-4.05434e-11
-7.19323e-11
-9.88696e-11
-1.07938e-10
-8.25047e-11
-6.08744e-12
1.32133e-10
3.29916e-10
5.6364e-10
7.80803e-10
8.95931e-10
7.93149e-10
3.38942e-10
-5.91704e-10
-2.07388e-09
-4.07649e-09
-6.39524e-09
-8.58375e-09
-9.89743e-09
-9.27092e-09
-5.35564e-09
3.35162e-09
1.82571e-08
4.02669e-08
6.92126e-08
1.03107e-07
1.37255e-07
1.63293e-07
1.68267e-07
1.33954e-07
3.66703e-08
-1.52064e-07
-4.63557e-07
-9.28129e-07
-1.56877e-06
-2.39158e-06
-3.37205e-06
-4.43643e-06
-5.43715e-06
-6.12139e-06
-6.092e-06
-4.75975e-06
-1.28659e-06
5.48094e-06
1.7088e-05
3.55578e-05
6.3487e-05
0.00010415
0.000161611
0.00024084
0.000347838
0.000489754
0.000675012
0.000913424
0.0012163
0.00159656
0.00206877
0.00264928
0.00335619
0.00420943
0.0052307
0.00644344
0.00787277
0.00954537
0.0114893
0.0137339
0.0163095
0.0192471
0.0225783
0.0263348
0.0305482
0.0352495
0.040469
0.0462354
0.0525762
0.0595166
0.0670795
0.0752852
0.0841509
0.0936904
0.103914
0.114828
0.126435
0.138733
0.151716
0.165374
0.179692
0.194652
0.21023
0.226399
0.243129
0.260385
0.278129
0.296321
0.314917
0.333872
0.353137
0.372664
0.392402
0.412301
0.432308
0.452373
0.472444
0.492471
0.512406
0.5322
0.551809
0.571187
0.590295
0.609092
0.627542
0.645613
0.663273
0.680495
0.697254
0.713529
0.729302
0.744557
0.759282
0.773467
0.787105
0.800194
0.81273
0.824715
0.836153
0.847048
0.857407
0.867241
0.876558
0.88537
0.893692
0.901537
0.90892
0.915857
0.922365
0.92846
0.934159
0.939479
0.944439
0.949055
0.953344
0.957322
0.961006
0.96441
0.96755
0.970439
0.97309
0.975513
0.977718
0.979715
0.98151
0.983109
0.984513
0.985726
0.986745
0.987568
0.988189
0.988601
0.988794
0.988756
0.988472
0.987925
0.987096
0.985965
0.984508
0.982702
0.980519
0.977935
0.974919
0.971446
0.967485
0.963009
0.957991
0.952404
0.946223
0.939425
0.931988
0.923894
0.915127
0.905675
0.895529
0.884684
0.873137
0.860893
0.847956
0.83434
0.820058
0.80513
0.78958
0.773435
0.756727
0.73949
0.721762
0.703585
0.685001
0.666058
0.646802
0.627283
0.607552
0.58766
0.567658
0.547598
0.527531
0.507507
0.487575
0.467783
0.448177
0.428801
0.409695
0.3909
0.37245
0.354381
0.336722
0.3195
0.302742
0.286467
0.270695
0.25544
0.240716
0.226531
0.212893
0.199805
0.187269
0.175284
0.163846
0.152951
0.142592
0.132759
0.123442
0.114629
0.106308
0.0984628
0.0910801
0.0841435
0.0776367
0.0715427
0.0658446
0.0605249
0.0555662
0.0509511
0.0466623
0.0426826
0.0389954
0.035584
0.0324325
0.0295251
0.0268469
0.0243832
0.02212
0.0200437
0.0181417
0.0164015
0.0148116
0.0133608
0.0120388
0.0108357
0.00974209
0.00874937
0.00784934
0.00703435
0.00629728
0.00563149
0.00503082
0.00448954
0.00400236
0.00356438
0.00317111
0.00281837
0.00250235
0.00221955
0.00196677
0.00174106
0.00153975
0.0013604
0.00120078
0.00105888
0.00093286
0.000821066
0.000721993
0.000634286
0.000556719
0.00048819
0.000427708
0.000374381
0.000327409
0.000286075
0.000249738
0.000217826
0.000189825
0.000165281
0.000143787
0.000124981
0.000108542
9.41862e-05
8.16607e-05
7.0742e-05
6.12327e-05
5.29582e-05
4.57645e-05
3.9516e-05
3.40932e-05
2.93911e-05
2.53174e-05
2.17912e-05
1.87414e-05
1.61059e-05
1.38304e-05
1.18672e-05
1.0175e-05
8.71741e-06
7.46303e-06
6.38437e-06
5.45755e-06
4.66184e-06
3.97923e-06
3.39409e-06
2.8929e-06
2.46395e-06
2.0971e-06
1.7836e-06
1.51589e-06
1.28747e-06
1.0927e-06
9.26754e-07
7.85469e-07
6.65267e-07
5.63078e-07
4.76263e-07
4.02563e-07
3.40041e-07
2.87038e-07
2.42137e-07
2.04127e-07
1.71971e-07
1.44786e-07
1.21821e-07
1.02433e-07
8.60752e-08
7.22842e-08
6.06647e-08
5.08811e-08
4.26489e-08
3.57266e-08
2.99094e-08
2.50242e-08
2.09241e-08
1.74853e-08
1.46029e-08
1.21884e-08
1.01671e-08
8.47596e-09
7.062e-09
5.88049e-09
4.89382e-09
4.07035e-09
3.38351e-09
2.81096e-09
2.33398e-09
1.93684e-09
1.60638e-09
1.33156e-09
1.10314e-09
9.13406e-10
7.55889e-10
6.25196e-10
5.16819e-10
4.26999e-10
3.526e-10
2.91009e-10
2.4005e-10
1.97909e-10
1.63081e-10
1.34312e-10
1.1056e-10
9.09621e-11
7.47995e-11
6.14774e-11
5.05023e-11
4.14656e-11
3.40288e-11
2.79118e-11
2.2883e-11
1.87509e-11
1.53575e-11
1.2572e-11
1.02867e-11
8.41274e-12
6.87686e-12
5.61868e-12
4.58851e-12
3.74543e-12
3.05582e-12
2.49201e-12
2.03127e-12
1.65495e-12
1.34772e-12
1.09702e-12
8.92547e-13
7.25854e-13
5.90025e-13
4.79398e-13
3.89337e-13
3.16054e-13
2.56451e-13
2.07996e-13
1.68622e-13
1.36641e-13
1.10678e-13
8.96091e-14
7.25195e-14
5.86639e-14
4.74353e-14
3.83395e-14
3.09748e-14
2.50142e-14
2.01921e-14
1.62928e-14
1.31411e-14
1.05946e-14
8.53806e-15
6.87791e-15
5.53829e-15
4.45779e-15
3.58663e-15
2.88456e-15
2.31899e-15
1.86357e-15
1.49699e-15
1.20204e-15
9.6483e-16
7.74126e-16
6.20874e-16
4.97768e-16
3.98917e-16
3.19574e-16
2.55914e-16
2.04857e-16
1.63924e-16
1.3112e-16
1.04842e-16
8.37988e-17
6.69543e-17
5.34759e-17
4.2695e-17
3.40751e-17
2.71855e-17
2.1681e-17
1.72848e-17
1.3775e-17
1.0974e-17
8.73933e-18
6.95748e-18
5.5348e-18
4.42254e-18
3.33007e-18
)
;

boundaryField
{
    sides
    {
        type            zeroGradient;
    }
    empty
    {
        type            empty;
    }
}


// ************************************************************************* //
