/*--------------------------------*- C++ -*----------------------------------*\
| =========                 |                                                 |
| \\      /  F ield         | OpenFOAM: The Open Source CFD Toolbox           |
|  \\    /   O peration     | Version:  2112                                  |
|   \\  /    A nd           | Website:  www.openfoam.com                      |
|    \\/     M anipulation  |                                                 |
\*---------------------------------------------------------------------------*/
FoamFile
{
    version     2.0;
    format      ascii;
    arch        "LSB;label=32;scalar=64";
    class       volScalarField;
    location    "25";
    object      p;
}
// * * * * * * * * * * * * * * * * * * * * * * * * * * * * * * * * * * * * * //

dimensions      [0 2 -2 0 0 0 0];

internalField   nonuniform List<scalar> 
400
(
4.3880615e-07
-0.00067238034
-0.00138485
-0.0019422028
-0.0022194917
-0.0021559854
-0.0017272789
-0.00092568723
0.00023593337
0.0017079163
0.0033877928
0.0051126984
0.0066739792
0.007849607
0.0084588993
0.0084242003
0.0078139208
0.0068450488
0.0058618343
0.0052994796
0.00065833024
-4.0028943e-05
-0.00056916072
-0.0009401232
-0.0011103571
-0.0010394113
-0.00070527804
-9.5031491e-05
0.00078961298
0.0019166999
0.0032100977
0.0045552128
0.0057824689
0.0067167661
0.0072149405
0.0072150505
0.0067704786
0.0060532945
0.0053110569
0.0047390192
0.0014241887
0.00044114376
-0.00011610372
-0.00045274403
-0.00061430585
-0.0005843044
-0.00034606927
0.00012025631
0.00082897271
0.0017704197
0.002894806
0.0040986794
0.0052287522
0.0061114844
0.0065943826
0.0065981817
0.0061562564
0.0054220306
0.0045942705
0.003748763
0.0020146818
0.00068217666
1.7263584e-05
-0.00035835574
-0.00057104879
-0.00062605539
-0.00050957296
-0.00019011584
0.00036901893
0.0011849024
0.0022304305
0.003417947
0.0045918857
0.0055574573
0.0061240689
0.0061670778
0.0056841407
0.0048175736
0.0037478195
0.0024741292
0.0021677512
0.00049660564
-0.00029576693
-0.00074820841
-0.001057752
-0.0012447656
-0.0012922389
-0.0011507852
-0.00075452788
-5.2577528e-05
0.00095754547
0.0022108054
0.0035452353
0.0047331895
0.0055223669
0.0057104059
0.0052298105
0.0042021324
0.0028067157
0.00098449615
0.0016544431
-0.00031399109
-0.0012382952
-0.0017988028
-0.0022521569
-0.0026273984
-0.0028981057
-0.0029905612
-0.002802008
-0.0022371442
-0.0012505655
0.0001314206
0.0017451781
0.0033276459
0.004542178
0.0050663083
0.0047180234
0.0035667293
0.0017901281
-0.00072538248
0.00028750968
-0.001919078
-0.0029725018
-0.0036708803
-0.0043197852
-0.004952678
-0.00552959
-0.0059474192
-0.0060584632
-0.0057068327
-0.004775165
-0.0032581509
-0.0012659678
0.00090772037
0.0028236694
0.0039873751
0.0040256292
0.0028882425
0.00071591691
-0.0026799562
-0.0020759377
-0.0044506917
-0.0056262982
-0.0064918123
-0.0073924012
-0.0083652279
-0.0093563697
-0.010231223
-0.010790409
-0.010804274
-0.010062786
-0.008461189
-0.0060402038
-0.0030826619
-0.00012575604
0.00211317
0.0029643698
0.0021361221
-0.00036549144
-0.0048720608
-0.0055236648
-0.007991605
-0.0092774039
-0.010333265
-0.011537468
-0.012934873
-0.01446214
-0.015955731
-0.017161872
-0.017765442
-0.017437485
-0.015918874
-0.013122366
-0.0092511795
-0.0048984399
-0.0010294562
0.001269963
0.0012783128
-0.0013334086
-0.0072011214
-0.010076395
-0.012564577
-0.013936139
-0.015183466
-0.016717834
-0.018602071
-0.020773628
-0.023048161
-0.025121065
-0.026585732
-0.026968733
-0.025812323
-0.022845059
-0.018073841
-0.012050499
-0.0059513758
-0.0013701736
0.0003011517
-0.0019466472
-0.0093816633
-0.015684451
-0.018131881
-0.019537024
-0.020926263
-0.022757176
-0.025129307
-0.027996436
-0.031165805
-0.034290838
-0.036876206
-0.038293535
-0.037843644
-0.035065224
-0.029600845
-0.021821886
-0.012984982
-0.0051843977
-0.00071518526
-0.0017636395
-0.010791691
-0.022243049
-0.024612487
-0.025945048
-0.027334412
-0.029323594
-0.032078637
-0.035588356
-0.039664062
-0.043926655
-0.047800656
-0.050529534
-0.051235836
-0.048956242
-0.043142921
-0.033768401
-0.021925742
-0.010036299
-0.0014148745
-9.3062453e-06
-0.010225058
-0.029640664
-0.031923333
-0.03297818
-0.034079318
-0.035938958
-0.038830921
-0.042795002
-0.047650983
-0.052989929
-0.058162959
-0.062283601
-0.064264885
-0.062874524
-0.057111568
-0.046476137
-0.031648495
-0.015037282
-0.00086382318
0.0046473201
-0.0055209847
-0.03786546
-0.040047962
-0.040439558
-0.04075194
-0.042014507
-0.044652499
-0.048757579
-0.054143434
-0.060355416
-0.06666473
-0.072060063
-0.075267656
-0.074810745
-0.069268666
-0.057627723
-0.039960937
-0.01824741
0.0027895914
0.014445702
0.0069080852
-0.047230041
-0.049133835
-0.048140025
-0.046881695
-0.046904939
-0.048798153
-0.052667717
-0.058275402
-0.065075477
-0.072231376
-0.078595155
-0.082711716
-0.082879618
-0.077308818
-0.064523385
-0.043934414
-0.016747456
0.012503476
0.032939309
0.03240947
-0.058896226
-0.059639365
-0.055883425
-0.051940483
-0.04997173
-0.050629324
-0.053928104
-0.059494773
-0.066611264
-0.07428469
-0.081190568
-0.085678819
-0.085831232
-0.079521652
-0.064875579
-0.040688761
-0.0072404225
0.03213987
0.064981949
0.077749674
-0.076225947
-0.07261317
-0.063515737
-0.055434905
-0.050724475
-0.049781034
-0.052311786
-0.057663809
-0.064891249
-0.072774388
-0.079778784
-0.084036179
-0.083391109
-0.075348443
-0.057602179
-0.028374664
0.012933794
0.065396947
0.11555198
0.15150669
-0.10809172
-0.089555731
-0.07123335
-0.057232591
-0.049071681
-0.046329713
-0.048076731
-0.053202057
-0.060434062
-0.068295297
-0.075026827
-0.07852636
-0.076388475
-0.06580917
-0.043865
-0.0078179886
0.044394118
0.1129986
0.18838088
0.27186122
-0.17684512
-0.10828913
-0.076201907
-0.054650745
-0.042991917
-0.038997551
-0.040570002
-0.045927509
-0.053440986
-0.061437799
-0.068027027
-0.070962012
-0.067550609
-0.054739334
-0.029148338
0.013564058
0.078147402
0.1700648
0.2894959
0.47421866
-0.37208323
-0.12470811
-0.054972599
-0.031962029
-0.022063077
-0.020300041
-0.024358958
-0.031957478
-0.041261018
-0.050640333
-0.058316346
-0.062186917
-0.059782024
-0.048056305
-0.022658047
0.021474669
0.09281917
0.21015321
0.40288886
0.77640973
)
;

boundaryField
{
    movingWall
    {
        type            zeroGradient;
    }
    fixedWalls
    {
        type            zeroGradient;
    }
    frontAndBack
    {
        type            empty;
    }
}


// ************************************************************************* //
