/*--------------------------------*- C++ -*----------------------------------*\
| =========                 |                                                 |
| \\      /  F ield         | OpenFOAM: The Open Source CFD Toolbox           |
|  \\    /   O peration     | Version:  2112                                  |
|   \\  /    A nd           | Website:  www.openfoam.com                      |
|    \\/     M anipulation  |                                                 |
\*---------------------------------------------------------------------------*/
FoamFile
{
    version     2.0;
    format      ascii;
    arch        "LSB;label=32;scalar=64";
    class       surfaceScalarField;
    location    "25";
    object      phi_0;
}
// * * * * * * * * * * * * * * * * * * * * * * * * * * * * * * * * * * * * * //

dimensions      [0 3 -1 0 0 0 0];

oriented        oriented;

internalField   nonuniform List<scalar> 
760
(
1.2700534e-05
-1.270565e-05
-2.8724366e-05
4.1424907e-05
-0.00012229242
9.3568064e-05
-0.00025039667
0.00012810426
-0.00039607582
0.00014567915
-0.00054539245
0.00014931664
-0.0006862735
0.00014088106
-0.00080689456
0.00012062107
-0.00089495523
8.8060667e-05
-0.00093839341
4.343819e-05
-0.00092727707
-1.1116303e-05
-0.00085686392
-7.0413103e-05
-0.00073043051
-0.00012643338
-0.00056134232
-0.00016908817
-0.00037276053
-0.00018858178
-0.00019447408
-0.00017828643
-5.6522019e-05
-0.00013795207
1.9614315e-05
-7.6136369e-05
3.0411231e-05
-1.0796947e-05
3.0411213e-05
-4.318387e-05
3.0478226e-05
-0.00020456717
0.00020280822
-0.00046832538
0.00035732629
-0.00080070842
0.00046048731
-0.001167351
0.00051232175
-0.0015364499
0.00051841552
-0.001878228
0.00048265913
-0.0021636823
0.0004060755
-0.0023645443
0.00028892263
-0.0024553511
0.00013424499
-0.002418144
-4.8323354e-05
-0.0022453595
-0.00024319761
-0.0019475573
-0.00042423549
-0.0015544695
-0.00056217592
-0.0011143213
-0.00062873
-0.00068747466
-0.00060513312
-0.00033452557
-0.00049090116
-0.00010089677
-0.00030976514
-1.5519848e-06
-0.00011014173
2.8859218e-05
-0.00011002771
0.00014050595
-0.0004030329
0.00049581341
-0.00083139046
0.00078568387
-0.0013456206
0.00097471752
-0.001898603
0.0010653041
-0.0024465859
0.0010663985
-0.002948038
0.00098411123
-0.0033626244
0.00082066191
-0.0036518961
0.00057819437
-0.0037823226
0.00026467145
-0.0037298276
-0.00010081838
-0.0034858148
-0.00048721044
-0.0030632753
-0.00084677502
-0.0024999932
-0.001125458
-0.0018582337
-0.0012704895
-0.0012181435
-0.0012452233
-0.00066373626
-0.0010453083
-0.00026308952
-0.00071041183
-4.7956344e-05
-0.00032527487
-1.9097124e-05
-0.00017344019
0.00031394615
-0.00059329425
0.00091566749
-0.001177699
0.0013700886
-0.0018583758
0.0016553943
-0.0025769164
0.0017838447
-0.003281317
0.001770799
-0.0039228031
0.0016255973
-0.0044541454
0.0013520042
-0.0048302678
0.0009543168
-0.0050112403
0.00044564396
-0.0049672575
-0.00014480117
-0.0046844335
-0.00077003448
-0.0041723482
-0.0013588604
-0.0034691249
-0.0018286813
-0.0026440075
-0.0020956068
-0.0017931994
-0.0020960313
-0.0010258497
-0.001812658
-0.00044021459
-0.0012960469
-9.6723815e-05
-0.00066876563
-0.00011582093
-0.00022979618
0.00054374233
-0.00076507684
0.0014509482
-0.0014914896
0.0020965013
-0.0023225539
0.0024864587
-0.0031901489
0.0026514398
-0.0040368324
0.0026174826
-0.0048100476
0.0023988125
-0.0054589758
0.0020009324
-0.0059341923
0.0014295333
-0.0061898226
0.00070127424
-0.0061884026
-0.00014622111
-0.0059055729
-0.0010528642
-0.0053404098
-0.0019240235
-0.00452311
-0.0026459811
-0.0035229719
-0.0030957449
-0.0024498016
-0.0031692015
-0.0014425376
-0.002819922
-0.00064123047
-0.002097354
-0.00014883675
-0.0011611594
-0.00026465766
-0.00027729849
0.00082104083
-0.00091154919
0.0020851989
-0.0017607344
0.0029456866
-0.0027228147
0.003448539
-0.003722219
0.0036508441
-0.0046987037
0.0035939673
-0.005598901
0.0032990098
-0.0063712011
0.0027732326
-0.0069637382
0.0020220704
-0.0073248455
0.0010623816
-0.0074074674
-6.3599178e-05
-0.0071716987
-0.0012886329
-0.0065988882
-0.0024968339
-0.0057016771
-0.0035431923
-0.0045400155
-0.0042574066
-0.0032318391
-0.0044773779
-0.0019490185
-0.0041027426
-0.00088728653
-0.0031590859
-0.00021159394
-0.001836852
-0.0004762516
-0.00031411594
0.0011351568
-0.001026339
0.0027974219
-0.0019735077
0.0038928554
-0.0030417539
0.0045167852
-0.0041507162
0.0047598064
-0.0052399431
0.0046831941
-0.0062580723
0.004317139
-0.0071555243
0.0036706846
-0.0078803656
0.0027469118
-0.0083768401
0.001558856
-0.0085853867
0.00014494744
-0.0084513164
-0.0014227031
-0.0079294955
-0.0030186548
-0.0070049594
-0.0044677284
-0.0057150394
-0.0055473267
-0.0041735773
-0.00601884
-0.0025818418
-0.0056944781
-0.0012041032
-0.0045368245
-0.00029450364
-0.0027464515
-0.00077075523
-0.00033824795
0.0014734047
-0.0011031674
0.0035623414
-0.0021176308
0.0049073187
-0.0032598846
0.005659039
-0.0044474001
0.005947322
-0.0056219531
0.0058577472
-0.0067369385
0.0054321243
-0.0077479552
0.0046817013
-0.0086063618
0.0036053185
-0.0092552375
0.0022077318
-0.0096270012
0.00051671109
-0.009649193
-0.0014005113
-0.0092489686
-0.0034188791
-0.0083739328
-0.0053427642
-0.007022064
-0.0068991954
-0.0052818074
-0.0077590966
-0.0033676627
-0.0076086228
-0.0016173613
-0.0062871258
-0.00040826838
-0.0039555445
-0.0011790236
-0.00034815559
0.0018215604
-0.0011372131
0.004351399
-0.002182785
0.0059528906
-0.0033586147
0.0068348686
-0.0045822355
0.0071709429
-0.0057998136
0.0070753253
-0.006972185
0.0066044956
-0.0080636575
0.0057731737
-0.0090334307
0.0045750916
-0.0098289824
0.0030032837
-0.010381263
0.001068992
-0.010604515
-0.0011772596
-0.010400768
-0.0036226265
-0.0096748864
-0.0060686453
-0.0083686671
-0.0082054146
-0.0065156794
-0.0096120843
-0.0043098806
-0.0098144216
-0.0021483212
-0.0084486852
-0.0005649247
-0.005538941
-0.0017439483
-0.00034393447
0.0021654948
-0.0011278585
0.005135323
-0.0021647076
0.0069897398
-0.0033258988
0.0079960598
-0.0045307983
0.0083758424
-0.0057319393
0.0082764664
-0.0069002157
0.0077727721
-0.0080123754
0.0068853332
-0.0090408199
0.005603536
-0.0099449607
0.0039074245
-0.010663389
0.0017874199
-0.011106739
-0.00073390875
-0.011163414
-0.0035659518
-0.010697122
-0.0065349376
-0.0095825935
-0.0093199429
-0.0077667721
-0.011427906
-0.0053714974
-0.012209696
-0.0028071765
-0.011013006
-0.00077836826
-0.0075677492
-0.0025223165
-0.00032890791
0.0024944027
-0.0010824212
0.0058888364
-0.0020707766
0.0079780952
-0.003163612
0.0090888953
-0.0042839009
0.0094961311
-0.0053928523
0.0093854178
-0.0064741392
0.0088540593
-0.0075205471
0.0079317411
-0.0085229174
0.0066059062
-0.0094603444
0.0048448515
-0.010291332
0.0026184075
-0.010933227
-9.2013989e-05
-0.011283211
-0.0032159671
-0.011173632
-0.006644517
-0.010415712
-0.010077863
-0.0088467336
-0.012996884
-0.0064557513
-0.014600679
-0.0035815251
-0.013887232
-0.0010642221
-0.010085052
-0.0035865387
-0.00031178447
0.0028061872
-0.0010206799
0.0065977318
-0.0019261015
0.0088835169
-0.0028949511
0.010057745
-0.0038568854
0.010458065
-0.0047855669
0.010314099
-0.0056807705
0.009749263
-0.0065544604
0.0088054313
-0.0074198947
0.0074713405
-0.0082818308
0.0057067875
-0.0091251614
0.003461738
-0.0099086455
0.00069147014
-0.010527262
-0.002597351
-0.010827018
-0.006344761
-0.01057363
-0.01033125
-0.0094932091
-0.014077305
-0.0073911382
-0.016702749
-0.0044189135
-0.016859457
-0.001437211
-0.013066755
-0.0050237497
-0.00031004336
0.0031162306
-0.00098036649
0.0072680548
-0.001779052
0.0096822023
-0.0025693705
0.010848064
-0.0032946014
0.011183297
-0.0039479037
0.010967401
-0.0045499785
0.010351338
-0.0051347947
0.0093902477
-0.0057399299
0.008076476
-0.0063985347
0.0063653924
-0.0071301374
0.0041933407
-0.0079302691
0.0014916018
-0.0087388149
-0.0017888052
-0.0094303666
-0.0056532093
-0.009768587
-0.0099930299
-0.0094003474
-0.014445545
-0.007930581
-0.018172516
-0.0052061613
-0.019583877
-0.0019026117
-0.016370304
-0.0069263613
-0.00035604099
0.0034722717
-0.0010239994
0.0079360133
-0.0017042346
0.010362437
-0.0022608049
0.011404634
-0.0026657296
0.011588222
-0.0029440189
0.011245691
-0.0031442595
0.010551578
-0.0033248783
0.0095708663
-0.0035472043
0.0082988021
-0.0038710574
0.0066892457
-0.0043491826
0.0046714659
-0.0050183917
0.0021608109
-0.0058766238
-0.00093057303
-0.0068578452
-0.0046719879
-0.0077762966
-0.0090745784
-0.0082658414
-0.013956
-0.0077687437
-0.018669613
-0.0057511008
-0.021601519
-0.0024366712
-0.019684734
-0.0093630325
-0.00050826217
0.0039805339
-0.0012456342
0.0086733857
-0.0017958888
0.010912692
-0.0020480069
0.011656751
-0.0020325158
0.011572731
-0.0018254373
0.011038613
-0.0015122051
0.010238346
-0.0011778739
0.0092365348
-0.00090472793
0.0080256559
-0.00077373534
0.006558253
-0.00086350527
0.0047612359
-0.0012473724
0.0025446781
-0.0019828458
-0.00019509965
-0.0030818807
-0.0035729531
-0.0044600422
-0.0076964169
-0.0058274951
-0.012588547
-0.0065661691
-0.017930939
-0.0057684495
-0.022399239
-0.0029512255
-0.022501958
-0.012314258
-0.00086855453
0.0048490882
-0.0017629862
0.0095678178
-0.0021213595
0.011271066
-0.0019368512
0.011472242
-0.0013509289
0.010986808
-0.00051620011
0.010203884
0.00043703338
0.0092851126
0.0013996057
0.0082739627
0.002272369
0.0071528926
0.0029609077
0.0058697143
0.003369143
0.0043530006
0.0033967918
0.0025170293
0.0029385379
0.00026315422
0.0019096033
-0.0025440184
0.00026967768
-0.0060564912
-0.0018541696
-0.010464699
-0.0039516006
-0.015833508
-0.004860837
-0.021490003
-0.0032547042
-0.024108091
-0.015568962
-0.0015910847
0.0064401727
-0.0026108556
0.010587588
-0.0025131396
0.011173351
-0.0015899103
0.010549013
-0.0001721754
0.0095690723
0.0014927954
0.0085389129
0.0032328916
0.0075450163
0.0049232309
0.0065836236
0.0064629897
0.0056131338
0.0077574942
0.0045752099
0.0087075
0.0034029948
0.0092014884
0.002023041
0.0091033337
0.00036130893
0.0082750832
-0.0017157679
0.0065654537
-0.0043468617
0.0039042292
-0.007803475
0.00055894983
-0.012488229
-0.0024680572
-0.018462996
-0.0030273178
-0.02354883
-0.01859628
-0.0027183591
0.0091585322
-0.0031498673
0.011019094
-0.0018030008
0.0098264852
0.00046669879
0.0082793151
0.00308942
0.0069463517
0.0057738065
0.0058545264
0.0083628926
0.00495593
0.01076039
0.0041861266
0.012893485
0.0034800389
0.014690653
0.0027780417
0.016068338
0.0020253098
0.016923277
0.0011681018
0.017119706
0.00016488
0.016490823
-0.0010868849
0.014816834
-0.0026728732
0.011846653
-0.0048332931
0.0074354889
-0.0080770654
0.0022629272
-0.013290434
-0.0012724674
-0.020013435
-0.019868747
-0.002413278
0.011571811
2.8056983e-05
0.0085777577
0.0042551371
0.0055994032
0.0084161204
0.0041183315
0.012231481
0.0031309908
0.015656259
0.002429749
0.018686541
0.001925648
0.021329183
0.0015434843
0.023583483
0.0012257391
0.025429218
0.00093230695
0.026820161
0.00063436617
0.027677174
0.00031108979
0.027900198
-5.8144799e-05
0.02734722
-0.00053390674
0.025771629
-0.0010972816
0.022843045
-0.0019047091
0.018054769
-0.0032887892
0.011113586
-0.0063492512
0.003388675
-0.012288525
-0.016480072
0.011571812
0.020149571
0.025748974
0.029867306
0.032998296
0.035428045
0.037353693
0.038897178
0.040122917
0.041055224
0.04168959
0.04200068
0.041942535
0.041408628
0.040311347
0.038406637
0.035117848
0.028768597
0.016480072
)
;

boundaryField
{
    movingWall
    {
        type            calculated;
        value           uniform 0;
    }
    fixedWalls
    {
        type            calculated;
        value           uniform 0;
    }
    frontAndBack
    {
        type            empty;
        value           nonuniform List<scalar> 0();
    }
}


// ************************************************************************* //
