/*--------------------------------*- C++ -*----------------------------------*\
| =========                 |                                                 |
| \\      /  F ield         | OpenFOAM: The Open Source CFD Toolbox           |
|  \\    /   O peration     | Version:  2112                                  |
|   \\  /    A nd           | Website:  www.openfoam.com                      |
|    \\/     M anipulation  |                                                 |
\*---------------------------------------------------------------------------*/
FoamFile
{
    version     2.0;
    format      ascii;
    arch        "LSB;label=32;scalar=64";
    class       volVectorField;
    location    "25";
    object      U;
}
// * * * * * * * * * * * * * * * * * * * * * * * * * * * * * * * * * * * * * //

dimensions      [0 1 -1 0 0 0 0];

internalField   nonuniform List<vector> 
400
(
(0.00028441718 -0.00028142095 0)
(0.00011065813 7.9953794e-05 0)
(-0.0013272084 0.00047802711 0)
(-0.0036219072 0.00073592956 0)
(-0.0064236649 0.00086752243 0)
(-0.0094315008 0.00090727222 0)
(-0.012388035 0.00087487006 0)
(-0.015056489 0.00077153393 0)
(-0.017194603 0.00058849166 0)
(-0.018552911 0.00032008494 0)
(-0.018902676 -2.4812645e-05 0)
(-0.018086191 -0.00041826845 0)
(-0.016079925 -0.00079972375 0)
(-0.01304896 -0.0010930839 0)
(-0.0093663972 -0.0012212124 0)
(-0.0055776597 -0.0011294803 0)
(-0.0023003408 -0.00081287079 0)
(-8.2954966e-05 -0.00033798308 0)
(0.00076014846 0.00015229313 0)
(0.00040944064 0.00038933736 0)
(-8.607484e-05 -0.00012361871 0)
(-0.0018692819 0.0017872364 0)
(-0.006306547 0.0036260558 0)
(-0.012452723 0.004862506 0)
(-0.019600712 0.0054985453 0)
(-0.027107047 0.0056206894 0)
(-0.034359018 0.0052860475 0)
(-0.040769028 0.0045043918 0)
(-0.045758338 0.0032662254 0)
(-0.048776076 0.0015896519 0)
(-0.049366831 -0.00043547467 0)
(-0.04725401 -0.0026181993 0)
(-0.042452152 -0.0046645555 0)
(-0.035361607 -0.0062189368 0)
(-0.026778687 -0.0069376078 0)
(-0.0178273 -0.0065922853 0)
(-0.0097755502 -0.0051797906 0)
(-0.0037463 -0.0029994413 0)
(-0.00038875469 -0.0006655394 0)
(0.00028989383 0.00078354529 0)
(-0.00058808553 0.0014336166 0)
(-0.0042428223 0.0063775171 0)
(-0.011758608 0.010640614 0)
(-0.02146878 0.013483656 0)
(-0.032366331 0.014898358 0)
(-0.043588196 0.015017437 0)
(-0.054287639 0.013936203 0)
(-0.063642815 0.011684265 0)
(-0.070856127 0.0082813705 0)
(-0.075188663 0.0038286491 0)
(-0.076039845 -0.0014059219 0)
(-0.073058028 -0.006935678 0)
(-0.06626688 -0.01207179 0)
(-0.056169506 -0.016000306 0)
(-0.043780911 -0.017942797 0)
(-0.030569243 -0.017379997 0)
(-0.018250679 -0.014290004 0)
(-0.0084179799 -0.0093123144 0)
(-0.0021511231 -0.0037618401 0)
(-1.9710329e-06 0.00031696335 0)
(-0.0010530683 0.0043003812 0)
(-0.0065148783 0.013565763 0)
(-0.01699918 0.020864147 0)
(-0.030031004 0.025561315 0)
(-0.044300754 0.027761535 0)
(-0.058784522 0.027688027 0)
(-0.07248781 0.025487687 0)
(-0.084447224 0.021218448 0)
(-0.093729256 0.014945126 0)
(-0.09946453 0.0068783758 0)
(-0.10093044 -0.0025012958 0)
(-0.097663081 -0.012378469 0)
(-0.089593252 -0.021605458 0)
(-0.07718234 -0.028824851 0)
(-0.061505159 -0.032706133 0)
(-0.044253679 -0.032299979 0)
(-0.027562235 -0.027445937 0)
(-0.013581763 -0.019080723 0)
(-0.004026353 -0.0092707037 0)
(-0.00026772081 -0.0011081946 0)
(-0.0014558659 0.0083650316 0)
(-0.0085490707 0.023181247 0)
(-0.021746243 0.034051679 0)
(-0.037792491 0.040763101 0)
(-0.055096953 0.043701768 0)
(-0.072519628 0.043259036 0)
(-0.088984482 0.039661472 0)
(-0.10345852 0.033001348 0)
(-0.11493228 0.023384228 0)
(-0.12243696 0.011116749 0)
(-0.12511536 -0.0031289337 0)
(-0.12231991 -0.018219371 0)
(-0.11376153 -0.032541609 0)
(-0.099698251 -0.044132626 0)
(-0.08110049 -0.050966289 0)
(-0.059776318 -0.051441236 0)
(-0.038291176 -0.045013642 0)
(-0.019520449 -0.03275555 0)
(-0.0060923393 -0.017491854 0)
(-0.0005110223 -0.0035220312 0)
(-0.0017889334 0.013475444 0)
(-0.010269714 0.034960844 0)
(-0.025805504 0.049908616 0)
(-0.044466758 0.058794777 0)
(-0.064427712 0.062458346 0)
(-0.084477548 0.061550875 0)
(-0.10351657 0.056416016 0)
(-0.12050352 0.047182184 0)
(-0.13440396 0.033970336 0)
(-0.14417393 0.017132369 0)
(-0.14880346 -0.0025358974 0)
(-0.14739329 -0.02363639 0)
(-0.13931112 -0.044142606 0)
(-0.12443556 -0.061442127 0)
(-0.10343163 -0.072642324 0)
(-0.078055893 -0.075173928 0)
(-0.051260914 -0.067706759 0)
(-0.026809446 -0.051124182 0)
(-0.0086122987 -0.028965658 0)
(-0.00078707276 -0.0070521552 0)
(-0.0020420329 0.019436505 0)
(-0.011605642 0.048528884 0)
(-0.028995776 0.067998291 0)
(-0.049757697 0.079225968 0)
(-0.071891583 0.083657342 0)
(-0.094162018 0.082297678 0)
(-0.11549996 0.075649638 0)
(-0.13491492 0.063876864 0)
(-0.15140317 0.047075962 0)
(-0.16388465 0.025567777 0)
(-0.17119227 0.00016307176 0)
(-0.17215446 -0.027610567 0)
(-0.16571558 -0.05539625 0)
(-0.15119191 -0.079945658 0)
(-0.12870054 -0.097351117 0)
(-0.099669969 -0.10369851 0)
(-0.067241811 -0.096286067 0)
(-0.03611911 -0.075220187 0)
(-0.011929727 -0.04453981 0)
(-0.0011708169 -0.012001485 0)
(-0.0022012851 0.026013337 0)
(-0.012484708 0.063419505 0)
(-0.031139891 0.087764357 0)
(-0.053354528 0.10149013 0)
(-0.077017665 0.106777 0)
(-0.10091199 0.10507363 0)
(-0.12404998 0.09708808 0)
(-0.14555163 0.083021298 0)
(-0.16450948 0.062902151 0)
(-0.1798758 0.036930821 0)
(-0.19039908 0.0057955757 0)
(-0.19465553 -0.029033325 0)
(-0.19113617 -0.065017978 0)
(-0.17848964 -0.098390955 0)
(-0.15602482 -0.12417735 0)
(-0.12444484 -0.13676269 0)
(-0.086646579 -0.13132899 0)
(-0.04806373 -0.10623278 0)
(-0.016429356 -0.065393202 0)
(-0.0017537913 -0.018878411 0)
(-0.0022557058 0.032933203 0)
(-0.012853701 0.079088365 0)
(-0.032098896 0.10853484 0)
(-0.054981797 0.12486407 0)
(-0.079334802 0.13109269 0)
(-0.10399412 0.1291991 0)
(-0.12810023 0.12015119 0)
(-0.15094496 0.10420136 0)
(-0.17179717 0.081278284 0)
(-0.18974456 0.051375579 0)
(-0.20357608 0.014915468 0)
(-0.21172892 -0.026875999 0)
(-0.21232502 -0.071532196 0)
(-0.20333802 -0.1150259 0)
(-0.18306268 -0.1514469 0)
(-0.1510178 -0.1732849 0)
(-0.10916552 -0.17282172 0)
(-0.063026329 -0.14524372 0)
(-0.022524954 -0.092977998 0)
(-0.0026589594 -0.02842217 0)
(-0.0022086312 0.039904437 0)
(-0.01271707 0.09494405 0)
(-0.031841271 0.12953993 0)
(-0.054496775 0.14845826 0)
(-0.078500019 0.15563522 0)
(-0.10277092 0.1536662 0)
(-0.12662133 0.14384584 0)
(-0.14957648 0.12651322 0)
(-0.17117081 0.10149243 0)
(-0.19075564 0.068517122 0)
(-0.20732697 0.027627626 0)
(-0.2193776 -0.020394132 0)
(-0.22488767 -0.07346177 0)
(-0.22130646 -0.12768859 0)
(-0.20585467 -0.17662035 0)
(-0.17647615 -0.21099178 0)
(-0.13334648 -0.21961291 0)
(-0.080899108 -0.19275373 0)
(-0.03064187 -0.12885247 0)
(-0.0040700678 -0.041637003 0)
(-0.0020933494 0.046663198 0)
(-0.012189725 0.11041835 0)
(-0.030536206 0.14996553 0)
(-0.052017579 0.1712427 0)
(-0.074464984 0.17919222 0)
(-0.096919888 0.17712083 0)
(-0.11891403 0.16672957 0)
(-0.14026649 0.14850262 0)
(-0.16086206 0.12219239 0)
(-0.18044321 0.087272649 0)
(-0.19840291 0.043352673 0)
(-0.21353681 -0.00938953 0)
(-0.22401459 -0.069676493 0)
(-0.22708286 -0.13413325 0)
(-0.21908955 -0.19645308 0)
(-0.19626644 -0.24625195 0)
(-0.15621922 -0.26886007 0)
(-0.10070619 -0.24798786 0)
(-0.041145988 -0.17433486 0)
(-0.0062706138 -0.05983388 0)
(-0.0019963321 0.053057378 0)
(-0.011565514 0.1250833 0)
(-0.028660979 0.1690449 0)
(-0.048056652 0.19210883 0)
(-0.067638484 0.20035637 0)
(-0.086643943 0.19791257 0)
(-0.10489596 0.18696705 0)
(-0.12256951 0.16821847 0)
(-0.13996409 0.14140905 0)
(-0.15729769 0.10579907 0)
(-0.17451569 0.06057189 0)
(-0.1910838 0.0052258852 0)
(-0.20560169 -0.05992226 0)
(-0.21550594 -0.13260771 0)
(-0.21690142 -0.20752768 0)
(-0.20457807 -0.27431793 0)
(-0.17317488 -0.31571758 0)
(-0.12017095 -0.3080796 0)
(-0.054147466 -0.22988359 0)
(-0.0096748977 -0.084653087 0)
(-0.0020996078 0.059184197 0)
(-0.011414885 0.13881568 0)
(-0.027115426 0.18617313 0)
(-0.043624925 0.20994683 0)
(-0.058981328 0.21760128 0)
(-0.072777944 0.21419753 0)
(-0.085250099 0.20247346 0)
(-0.097001315 0.18339405 0)
(-0.10878877 0.15675617 0)
(-0.12135048 0.12168633 0)
(-0.13525415 0.077015523 0)
(-0.15070295 0.021618353 0)
(-0.16712224 -0.045110592 0)
(-0.1827402 -0.1225159 0)
(-0.1940537 -0.20712599 0)
(-0.19523515 -0.29011455 0)
(-0.17829431 -0.3535849 0)
(-0.13540547 -0.3674379 0)
(-0.069089012 -0.29415278 0)
(-0.014795022 -0.1179844 0)
(-0.0027677037 0.065619897 0)
(-0.012741024 0.15199841 0)
(-0.027330041 0.20099706 0)
(-0.040244612 0.22368343 0)
(-0.049928687 0.22933064 0)
(-0.056643515 0.22403733 0)
(-0.061232666 0.21108046 0)
(-0.06481608 0.19168169 0)
(-0.068620771 0.16572042 0)
(-0.073875068 0.13227358 0)
(-0.081728266 0.089960357 0)
(-0.093120174 0.037200269 0)
(-0.10846935 -0.027478936 0)
(-0.12721391 -0.10497624 0)
(-0.14705433 -0.1942206 0)
(-0.16280356 -0.28948629 0)
(-0.16509082 -0.37509922 0)
(-0.14090152 -0.41772679 0)
(-0.084061572 -0.36281385 0)
(-0.022011631 -0.16157399 0)
(-0.0047195921 0.073834722 0)
(-0.017222452 0.16572628 0)
(-0.031284384 0.21337817 0)
(-0.039683245 0.23217403 0)
(-0.041883507 0.2338023 0)
(-0.039351107 0.22539449 0)
(-0.033812568 0.21061242 0)
(-0.027000391 0.19081076 0)
(-0.020592043 0.165898 0)
(-0.01621546 0.13493931 0)
(-0.015476406 0.096470988 0)
(-0.019925615 0.04869013 0)
(-0.030918691 -0.01041259 0)
(-0.049234347 -0.082920366 0)
(-0.074399177 -0.17014303 0)
(-0.10327672 -0.27050245 0)
(-0.12725464 -0.37369523 0)
(-0.12973502 -0.44868766 0)
(-0.094914829 -0.42750683 0)
(-0.030930664 -0.21612797 0)
(-0.0093000082 0.086952136 0)
(-0.027432119 0.18185334 0)
(-0.040981655 0.22303349 0)
(-0.04267944 0.23378953 0)
(-0.034405337 0.22880225 0)
(-0.019622495 0.21592297 0)
(-0.0012382538 0.19878004 0)
(0.018345736 0.17856477 0)
(0.037071723 0.15508361 0)
(0.053055934 0.12735943 0)
(0.064421817 0.093936332 0)
(0.069231162 0.053014623 0)
(0.065415252 0.0024626466 0)
(0.05104752 -0.060339306 0)
(0.024643005 -0.13837659 0)
(-0.013701972 -0.23417139 0)
(-0.058753861 -0.34517028 0)
(-0.093510982 -0.44953992 0)
(-0.094469944 -0.47558818 0)
(-0.039216122 -0.28048278 0)
(-0.01858032 0.11087148 0)
(-0.046039661 0.20177652 0)
(-0.055230028 0.22793163 0)
(-0.043984758 0.22501765 0)
(-0.01937231 0.21061296 0)
(0.012333631 0.19228006 0)
(0.046993389 0.17278499 0)
(0.0817545 0.15265402 0)
(0.11443823 0.13135287 0)
(0.14315355 0.10779556 0)
(0.16601708 0.080591626 0)
(0.18098136 0.048112161 0)
(0.18557619 0.0084492621 0)
(0.17716576 -0.040817543 0)
(0.15275946 -0.10317626 0)
(0.10948877 -0.18390626 0)
(0.047240479 -0.2885547 0)
(-0.021439327 -0.41051042 0)
(-0.072252974 -0.49101701 0)
(-0.041147493 -0.35054294 0)
(-0.033352246 0.15561544 0)
(-0.068601643 0.22040442 0)
(-0.055187317 0.21729223 0)
(-0.016078607 0.19532441 0)
(0.034511233 0.1709235 0)
(0.088507907 0.14849467 0)
(0.14176872 0.12861264 0)
(0.19196919 0.11057762 0)
(0.23754086 0.093297623 0)
(0.27712033 0.075575097 0)
(0.3092183 0.056181479 0)
(0.33204342 0.033823306 0)
(0.34317575 0.0070272473 0)
(0.33982889 -0.025910503 0)
(0.3181325 -0.067741795 0)
(0.27327723 -0.12410799 0)
(0.20044722 -0.20584714 0)
(0.10213976 -0.32506914 0)
(-0.012387291 -0.45457169 0)
(-0.023756661 -0.40864071 0)
(-0.033081116 0.23907318 0)
(-0.042647152 0.21792011 0)
(0.04220722 0.16426628 0)
(0.12760459 0.12783578 0)
(0.20769798 0.1014355 0)
(0.28028161 0.081658163 0)
(0.34487311 0.066648137 0)
(0.40158303 0.054703053 0)
(0.45055065 0.044399485 0)
(0.49162042 0.034639941 0)
(0.52416185 0.024550604 0)
(0.54698605 0.013381717 0)
(0.55822234 0.00039975357 0)
(0.55570939 -0.015137322 0)
(0.5355262 -0.034969177 0)
(0.49244656 -0.06248819 0)
(0.41797269 -0.10694762 0)
(0.30410592 -0.19317544 0)
(0.12313781 -0.33691905 0)
(0.052374202 -0.39437913 0)
(0.24299927 0.1525748 0)
(0.30529619 0.11854287 0)
(0.45481216 0.076108144 0)
(0.56000886 0.050840196 0)
(0.63223323 0.035126086 0)
(0.68654916 0.024812307 0)
(0.72943829 0.017960099 0)
(0.76379635 0.013255926 0)
(0.79127932 0.0097622035 0)
(0.81275149 0.0068543639 0)
(0.82841139 0.0041185228 0)
(0.83794398 0.0012768609 0)
(0.84057074 -0.001844196 0)
(0.83497556 -0.0053262555 0)
(0.81886697 -0.009828961 0)
(0.78942866 -0.016232747 0)
(0.73784287 -0.026935705 0)
(0.65316764 -0.051286551 0)
(0.45609767 -0.11374603 0)
(0.31788988 -0.17206002 0)
)
;

boundaryField
{
    movingWall
    {
        type            fixedValue;
        value           uniform (1 0 0);
    }
    fixedWalls
    {
        type            fixedValue;
        value           uniform (0 0 0);
    }
    frontAndBack
    {
        type            empty;
    }
}


// ************************************************************************* //
