/*--------------------------------*- C++ -*----------------------------------*\
| =========                 |                                                 |
| \\      /  F ield         | OpenFOAM: The Open Source CFD Toolbox           |
|  \\    /   O peration     | Version:  2112                                  |
|   \\  /    A nd           | Website:  www.openfoam.com                      |
|    \\/     M anipulation  |                                                 |
\*---------------------------------------------------------------------------*/
FoamFile
{
    version     2.0;
    format      ascii;
    arch        "LSB;label=32;scalar=64";
    class       volVectorField;
    location    "25";
    object      U_0;
}
// * * * * * * * * * * * * * * * * * * * * * * * * * * * * * * * * * * * * * //

dimensions      [0 1 -1 0 0 0 0];

internalField   nonuniform List<vector> 
400
(
(0.00028441707 -0.00028142104 0)
(0.00011065798 7.9953754e-05 0)
(-0.0013272084 0.00047802708 0)
(-0.0036219072 0.00073592953 0)
(-0.0064236648 0.00086752241 0)
(-0.0094315007 0.00090727223 0)
(-0.012388035 0.00087487008 0)
(-0.015056488 0.00077153391 0)
(-0.017194603 0.00058849162 0)
(-0.018552911 0.00032008498 0)
(-0.018902676 -2.4812483e-05 0)
(-0.018086191 -0.00041826831 0)
(-0.016079925 -0.00079972377 0)
(-0.013048959 -0.0010930841 0)
(-0.009366397 -0.0012212124 0)
(-0.0055776597 -0.0011294803 0)
(-0.0023003408 -0.00081287086 0)
(-8.2954953e-05 -0.00033798326 0)
(0.0007601484 0.000152293 0)
(0.0004094406 0.00038933732 0)
(-8.6074884e-05 -0.00012361885 0)
(-0.001869282 0.0017872363 0)
(-0.006306547 0.0036260557 0)
(-0.012452723 0.0048625059 0)
(-0.019600712 0.0054985452 0)
(-0.027107046 0.0056206893 0)
(-0.034359018 0.0052860475 0)
(-0.040769027 0.0045043918 0)
(-0.045758337 0.0032662253 0)
(-0.048776075 0.0015896519 0)
(-0.049366831 -0.00043547449 0)
(-0.047254009 -0.0026181989 0)
(-0.042452152 -0.0046645554 0)
(-0.035361607 -0.006218937 0)
(-0.026778686 -0.006937608 0)
(-0.0178273 -0.0065922854 0)
(-0.0097755503 -0.0051797907 0)
(-0.0037463 -0.0029994415 0)
(-0.0003887546 -0.0006655396 0)
(0.00028989389 0.00078354518 0)
(-0.00058808553 0.0014336165 0)
(-0.0042428223 0.0063775169 0)
(-0.011758608 0.010640613 0)
(-0.02146878 0.013483655 0)
(-0.03236633 0.014898358 0)
(-0.043588195 0.015017437 0)
(-0.054287638 0.013936202 0)
(-0.063642814 0.011684265 0)
(-0.070856126 0.0082813705 0)
(-0.075188662 0.003828649 0)
(-0.076039844 -0.001405922 0)
(-0.073058027 -0.0069356777 0)
(-0.06626688 -0.012071789 0)
(-0.056169505 -0.016000306 0)
(-0.043780911 -0.017942797 0)
(-0.030569242 -0.017379997 0)
(-0.018250679 -0.014290004 0)
(-0.0084179799 -0.0093123143 0)
(-0.002151123 -0.0037618402 0)
(-1.9709563e-06 0.00031696319 0)
(-0.0010530683 0.0043003811 0)
(-0.0065148782 0.013565762 0)
(-0.01699918 0.020864146 0)
(-0.030031003 0.025561315 0)
(-0.044300753 0.027761534 0)
(-0.058784521 0.027688027 0)
(-0.072487809 0.025487686 0)
(-0.084447223 0.021218448 0)
(-0.093729254 0.014945126 0)
(-0.099464529 0.0068783759 0)
(-0.10093044 -0.0025012958 0)
(-0.09766308 -0.012378469 0)
(-0.089593251 -0.021605458 0)
(-0.07718234 -0.02882485 0)
(-0.061505158 -0.032706132 0)
(-0.044253678 -0.032299978 0)
(-0.027562235 -0.027445937 0)
(-0.013581763 -0.019080722 0)
(-0.0040263529 -0.0092707037 0)
(-0.0002677208 -0.0011081947 0)
(-0.0014558659 0.0083650314 0)
(-0.0085490706 0.023181246 0)
(-0.021746243 0.034051678 0)
(-0.03779249 0.0407631 0)
(-0.055096952 0.043701768 0)
(-0.072519627 0.043259035 0)
(-0.088984481 0.039661471 0)
(-0.10345851 0.033001347 0)
(-0.11493228 0.023384228 0)
(-0.12243696 0.011116749 0)
(-0.12511536 -0.0031289335 0)
(-0.12231991 -0.018219371 0)
(-0.11376153 -0.032541609 0)
(-0.09969825 -0.044132625 0)
(-0.081100489 -0.050966288 0)
(-0.059776318 -0.051441235 0)
(-0.038291175 -0.045013641 0)
(-0.019520449 -0.032755549 0)
(-0.0060923392 -0.017491854 0)
(-0.00051102232 -0.0035220312 0)
(-0.0017889334 0.013475444 0)
(-0.010269714 0.034960844 0)
(-0.025805503 0.049908615 0)
(-0.044466757 0.058794776 0)
(-0.064427711 0.062458345 0)
(-0.084477547 0.061550874 0)
(-0.10351657 0.056416015 0)
(-0.12050352 0.047182183 0)
(-0.13440396 0.033970335 0)
(-0.14417392 0.017132369 0)
(-0.14880346 -0.0025358969 0)
(-0.14739329 -0.023636389 0)
(-0.13931112 -0.044142605 0)
(-0.12443556 -0.061442126 0)
(-0.10343163 -0.072642323 0)
(-0.078055892 -0.075173927 0)
(-0.051260913 -0.067706758 0)
(-0.026809446 -0.051124181 0)
(-0.0086122986 -0.028965658 0)
(-0.00078707275 -0.0070521552 0)
(-0.0020420328 0.019436504 0)
(-0.011605642 0.048528883 0)
(-0.028995776 0.06799829 0)
(-0.049757696 0.079225966 0)
(-0.071891582 0.083657341 0)
(-0.094162016 0.082297677 0)
(-0.11549996 0.075649637 0)
(-0.13491492 0.063876863 0)
(-0.15140317 0.047075961 0)
(-0.16388465 0.025567777 0)
(-0.17119227 0.00016307218 0)
(-0.17215446 -0.027610566 0)
(-0.16571558 -0.055396249 0)
(-0.1511919 -0.079945657 0)
(-0.12870054 -0.097351116 0)
(-0.099669968 -0.10369851 0)
(-0.06724181 -0.096286066 0)
(-0.03611911 -0.075220186 0)
(-0.011929727 -0.04453981 0)
(-0.0011708168 -0.012001485 0)
(-0.002201285 0.026013337 0)
(-0.012484708 0.063419504 0)
(-0.031139891 0.087764356 0)
(-0.053354527 0.10149013 0)
(-0.077017664 0.106777 0)
(-0.10091198 0.10507363 0)
(-0.12404998 0.097088079 0)
(-0.14555163 0.083021298 0)
(-0.16450948 0.062902151 0)
(-0.17987579 0.03693082 0)
(-0.19039908 0.0057955757 0)
(-0.19465553 -0.029033324 0)
(-0.19113616 -0.065017977 0)
(-0.17848964 -0.098390954 0)
(-0.15602482 -0.12417735 0)
(-0.12444484 -0.13676269 0)
(-0.086646578 -0.13132899 0)
(-0.04806373 -0.10623278 0)
(-0.016429356 -0.065393202 0)
(-0.0017537912 -0.01887841 0)
(-0.0022557057 0.032933202 0)
(-0.0128537 0.079088364 0)
(-0.032098896 0.10853484 0)
(-0.054981797 0.12486407 0)
(-0.079334801 0.13109269 0)
(-0.10399412 0.1291991 0)
(-0.12810022 0.12015119 0)
(-0.15094495 0.10420136 0)
(-0.17179717 0.081278285 0)
(-0.18974456 0.051375579 0)
(-0.20357608 0.014915468 0)
(-0.21172892 -0.026875998 0)
(-0.21232502 -0.071532194 0)
(-0.20333802 -0.11502589 0)
(-0.18306268 -0.1514469 0)
(-0.1510178 -0.17328489 0)
(-0.10916552 -0.17282172 0)
(-0.063026328 -0.14524372 0)
(-0.022524954 -0.092977997 0)
(-0.0026589594 -0.02842217 0)
(-0.0022086313 0.039904437 0)
(-0.01271707 0.094944048 0)
(-0.03184127 0.12953993 0)
(-0.054496775 0.14845826 0)
(-0.078500019 0.15563522 0)
(-0.10277092 0.15366619 0)
(-0.12662133 0.14384583 0)
(-0.14957648 0.12651322 0)
(-0.1711708 0.10149243 0)
(-0.19075564 0.068517123 0)
(-0.20732697 0.027627627 0)
(-0.2193776 -0.020394131 0)
(-0.22488767 -0.073461768 0)
(-0.22130646 -0.12768859 0)
(-0.20585467 -0.17662035 0)
(-0.17647615 -0.21099177 0)
(-0.13334648 -0.2196129 0)
(-0.080899108 -0.19275373 0)
(-0.03064187 -0.12885247 0)
(-0.0040700678 -0.041637002 0)
(-0.0020933496 0.046663197 0)
(-0.012189725 0.11041835 0)
(-0.030536206 0.14996552 0)
(-0.052017578 0.1712427 0)
(-0.074464983 0.17919222 0)
(-0.096919889 0.17712083 0)
(-0.11891403 0.16672957 0)
(-0.14026649 0.14850262 0)
(-0.16086206 0.12219239 0)
(-0.18044321 0.087272649 0)
(-0.19840291 0.043352674 0)
(-0.21353681 -0.009389529 0)
(-0.22401459 -0.069676492 0)
(-0.22708286 -0.13413325 0)
(-0.21908955 -0.19645308 0)
(-0.19626644 -0.24625195 0)
(-0.15621922 -0.26886007 0)
(-0.10070619 -0.24798786 0)
(-0.041145988 -0.17433486 0)
(-0.0062706138 -0.059833879 0)
(-0.001996332 0.053057377 0)
(-0.011565515 0.1250833 0)
(-0.02866098 0.1690449 0)
(-0.048056652 0.19210883 0)
(-0.067638483 0.20035637 0)
(-0.086643944 0.19791257 0)
(-0.10489597 0.18696705 0)
(-0.12256951 0.16821847 0)
(-0.13996409 0.14140905 0)
(-0.15729769 0.10579907 0)
(-0.17451569 0.06057189 0)
(-0.1910838 0.0052258864 0)
(-0.20560169 -0.059922259 0)
(-0.21550594 -0.13260771 0)
(-0.21690142 -0.20752768 0)
(-0.20457807 -0.27431792 0)
(-0.17317488 -0.31571758 0)
(-0.12017095 -0.3080796 0)
(-0.054147466 -0.22988359 0)
(-0.0096748976 -0.084653087 0)
(-0.0020996072 0.059184195 0)
(-0.011414885 0.13881568 0)
(-0.027115427 0.18617313 0)
(-0.043624927 0.20994683 0)
(-0.058981328 0.21760128 0)
(-0.072777943 0.21419753 0)
(-0.085250101 0.20247346 0)
(-0.097001318 0.18339405 0)
(-0.10878877 0.15675617 0)
(-0.12135048 0.12168633 0)
(-0.13525415 0.077015523 0)
(-0.15070295 0.021618354 0)
(-0.16712224 -0.045110591 0)
(-0.1827402 -0.1225159 0)
(-0.1940537 -0.20712599 0)
(-0.19523515 -0.29011455 0)
(-0.17829431 -0.3535849 0)
(-0.13540547 -0.3674379 0)
(-0.069089012 -0.29415278 0)
(-0.014795022 -0.1179844 0)
(-0.0027677033 0.065619896 0)
(-0.012741022 0.1519984 0)
(-0.027330041 0.20099706 0)
(-0.040244615 0.22368343 0)
(-0.04992869 0.22933064 0)
(-0.056643514 0.22403733 0)
(-0.061232665 0.21108045 0)
(-0.064816082 0.19168169 0)
(-0.068620773 0.16572042 0)
(-0.07387507 0.13227358 0)
(-0.081728267 0.089960357 0)
(-0.093120176 0.037200269 0)
(-0.10846936 -0.027478935 0)
(-0.12721391 -0.10497624 0)
(-0.14705433 -0.1942206 0)
(-0.16280356 -0.28948629 0)
(-0.16509082 -0.37509922 0)
(-0.14090152 -0.41772679 0)
(-0.084061572 -0.36281385 0)
(-0.022011631 -0.16157399 0)
(-0.004719593 0.073834723 0)
(-0.017222452 0.16572628 0)
(-0.031284381 0.21337817 0)
(-0.039683246 0.23217403 0)
(-0.041883512 0.2338023 0)
(-0.039351109 0.22539449 0)
(-0.033812568 0.21061242 0)
(-0.027000392 0.19081076 0)
(-0.020592045 0.165898 0)
(-0.016215462 0.13493931 0)
(-0.015476408 0.096470989 0)
(-0.019925616 0.048690131 0)
(-0.030918693 -0.010412589 0)
(-0.049234349 -0.082920365 0)
(-0.074399178 -0.17014303 0)
(-0.10327672 -0.27050245 0)
(-0.12725464 -0.37369523 0)
(-0.12973502 -0.44868766 0)
(-0.094914829 -0.42750683 0)
(-0.030930664 -0.21612797 0)
(-0.0093000102 0.086952137 0)
(-0.027432122 0.18185335 0)
(-0.040981653 0.22303348 0)
(-0.042679436 0.23378953 0)
(-0.034405339 0.22880225 0)
(-0.0196225 0.21592297 0)
(-0.0012382563 0.19878004 0)
(0.018345735 0.17856477 0)
(0.037071722 0.15508361 0)
(0.053055932 0.12735943 0)
(0.064421815 0.093936332 0)
(0.06923116 0.053014624 0)
(0.06541525 0.0024626472 0)
(0.051047519 -0.060339306 0)
(0.024643004 -0.13837659 0)
(-0.013701973 -0.23417139 0)
(-0.058753861 -0.34517028 0)
(-0.093510983 -0.44953991 0)
(-0.094469944 -0.47558818 0)
(-0.039216122 -0.28048278 0)
(-0.01858032 0.11087147 0)
(-0.046039667 0.20177653 0)
(-0.055230033 0.22793163 0)
(-0.043984753 0.22501764 0)
(-0.019372307 0.21061295 0)
(0.012333629 0.19228006 0)
(0.046993385 0.17278499 0)
(0.081754497 0.15265402 0)
(0.11443823 0.13135287 0)
(0.14315354 0.10779556 0)
(0.16601708 0.080591626 0)
(0.18098135 0.048112161 0)
(0.18557619 0.0084492627 0)
(0.17716575 -0.040817542 0)
(0.15275946 -0.10317626 0)
(0.10948877 -0.18390626 0)
(0.047240478 -0.2885547 0)
(-0.021439327 -0.41051042 0)
(-0.072252974 -0.49101701 0)
(-0.041147493 -0.35054293 0)
(-0.03335224 0.15561544 0)
(-0.068601643 0.22040442 0)
(-0.055187327 0.21729224 0)
(-0.016078609 0.19532441 0)
(0.034511236 0.1709235 0)
(0.088507908 0.14849467 0)
(0.14176872 0.12861264 0)
(0.19196919 0.11057762 0)
(0.23754086 0.093297623 0)
(0.27712032 0.075575097 0)
(0.3092183 0.056181479 0)
(0.33204342 0.033823306 0)
(0.34317574 0.0070272477 0)
(0.33982889 -0.025910502 0)
(0.3181325 -0.067741795 0)
(0.27327723 -0.12410799 0)
(0.20044722 -0.20584714 0)
(0.10213976 -0.32506914 0)
(-0.012387291 -0.45457169 0)
(-0.023756661 -0.40864071 0)
(-0.033081108 0.23907317 0)
(-0.042647142 0.2179201 0)
(0.042207216 0.16426628 0)
(0.12760459 0.12783579 0)
(0.20769798 0.1014355 0)
(0.28028161 0.081658164 0)
(0.34487311 0.066648136 0)
(0.40158303 0.054703053 0)
(0.45055065 0.044399486 0)
(0.49162041 0.034639941 0)
(0.52416185 0.024550604 0)
(0.54698605 0.013381717 0)
(0.55822234 0.00039975372 0)
(0.55570939 -0.015137322 0)
(0.5355262 -0.034969176 0)
(0.49244656 -0.06248819 0)
(0.41797269 -0.10694762 0)
(0.30410592 -0.19317544 0)
(0.12313781 -0.33691905 0)
(0.052374202 -0.39437913 0)
(0.24299927 0.15257479 0)
(0.3052962 0.11854286 0)
(0.45481217 0.076108139 0)
(0.56000886 0.050840196 0)
(0.63223323 0.035126087 0)
(0.68654916 0.024812308 0)
(0.72943829 0.017960098 0)
(0.76379634 0.013255926 0)
(0.79127931 0.0097622035 0)
(0.81275149 0.006854364 0)
(0.82841139 0.0041185229 0)
(0.83794398 0.001276861 0)
(0.84057074 -0.001844196 0)
(0.83497556 -0.0053262555 0)
(0.81886697 -0.009828961 0)
(0.78942866 -0.016232747 0)
(0.73784287 -0.026935705 0)
(0.65316764 -0.051286551 0)
(0.45609767 -0.11374603 0)
(0.31788988 -0.17206002 0)
)
;

boundaryField
{
    movingWall
    {
        type            fixedValue;
        value           uniform (1 0 0);
    }
    fixedWalls
    {
        type            fixedValue;
        value           uniform (0 0 0);
    }
    frontAndBack
    {
        type            empty;
    }
}


// ************************************************************************* //
