/*--------------------------------*- C++ -*----------------------------------*\
| =========                 |                                                 |
| \\      /  F ield         | OpenFOAM: The Open Source CFD Toolbox           |
|  \\    /   O peration     | Version:  2112                                  |
|   \\  /    A nd           | Website:  www.openfoam.com                      |
|    \\/     M anipulation  |                                                 |
\*---------------------------------------------------------------------------*/
FoamFile
{
    version     2.0;
    format      ascii;
    arch        "LSB;label=32;scalar=64";
    class       volScalarField;
    location    "10";
    object      T;
}
// * * * * * * * * * * * * * * * * * * * * * * * * * * * * * * * * * * * * * //

dimensions      [0 0 0 1 0 0 0];

internalField   nonuniform List<scalar> 
10000
(
1.15808e-29
9.96133e-30
8.56689e-30
7.79687e-30
7.56431e-30
7.82524e-30
8.57973e-30
9.85808e-30
1.17583e-29
1.38009e-29
1.02219e-28
8.67793e-29
7.42494e-29
6.73008e-29
6.51644e-29
6.73464e-29
7.38284e-29
8.5028e-29
1.01811e-28
1.21002e-28
6.95564e-28
5.84359e-28
4.9578e-28
4.46549e-28
4.31104e-28
4.44839e-28
4.87431e-28
5.63414e-28
6.79139e-28
8.1495e-28
4.60607e-27
3.85508e-27
3.24829e-27
2.90967e-27
2.80103e-27
2.8849e-27
3.15902e-27
3.66085e-27
4.43469e-27
5.33766e-27
3.00146e-26
2.51157e-26
2.10763e-26
1.88108e-26
1.80683e-26
1.85723e-26
2.03083e-26
2.35466e-26
2.85776e-26
3.43772e-26
1.93238e-25
1.61903e-25
1.35671e-25
1.20897e-25
1.15969e-25
1.18964e-25
1.29764e-25
1.50206e-25
1.82122e-25
2.18555e-25
1.23146e-24
1.03385e-24
8.67098e-25
7.72989e-25
7.41212e-25
7.58785e-25
8.24721e-25
9.50987e-25
1.14914e-24
1.37421e-24
7.77487e-24
6.54417e-24
5.50324e-24
4.91651e-24
4.71712e-24
4.8188e-24
5.21326e-24
5.97659e-24
7.18265e-24
8.55271e-24
4.86587e-23
4.10827e-23
3.46874e-23
3.1101e-23
2.98817e-23
3.04607e-23
3.27704e-23
3.72864e-23
4.44895e-23
5.27124e-23
3.01978e-22
2.55861e-22
2.17149e-22
1.9563e-22
1.88359e-22
1.91593e-22
2.04806e-22
2.30938e-22
2.73151e-22
3.21806e-22
1.85868e-21
1.58105e-21
1.35009e-21
1.22332e-21
1.18106e-21
1.19872e-21
1.27235e-21
1.41997e-21
1.66251e-21
1.94612e-21
1.13462e-20
9.69359e-21
8.33568e-21
7.60281e-21
7.36403e-21
7.4578e-21
7.85552e-21
8.66697e-21
1.00302e-20
1.16572e-20
6.86852e-20
5.89621e-20
5.10966e-20
4.6947e-20
4.56405e-20
4.61233e-20
4.81887e-20
5.25017e-20
5.99733e-20
6.91425e-20
4.12243e-19
3.55726e-19
3.10883e-19
2.87951e-19
2.81073e-19
2.8348e-19
2.93648e-19
3.15575e-19
3.55325e-19
4.0592e-19
2.45237e-18
2.12811e-18
1.87697e-18
1.75385e-18
1.71952e-18
1.73104e-18
1.77718e-18
1.88184e-18
2.08539e-18
2.35783e-18
1.44535e-17
1.26194e-17
1.12424e-17
1.06052e-17
1.04472e-17
1.04992e-17
1.06799e-17
1.1131e-17
1.212e-17
1.3544e-17
8.43459e-17
7.41398e-17
6.67853e-17
6.36473e-17
6.30223e-17
6.32324e-17
6.37117e-17
6.52986e-17
6.97283e-17
7.68948e-17
4.87021e-16
4.31349e-16
3.93307e-16
3.78976e-16
3.77383e-16
3.78029e-16
3.77209e-16
3.79853e-16
3.9697e-16
4.31181e-16
2.78024e-15
2.48357e-15
2.29468e-15
2.23771e-15
2.24231e-15
2.24306e-15
2.21633e-15
2.19076e-15
2.23578e-15
2.38621e-15
1.56774e-14
1.41378e-14
1.32534e-14
1.30945e-14
1.32128e-14
1.32062e-14
1.29227e-14
1.25262e-14
1.24536e-14
1.30254e-14
8.72044e-14
7.94722e-14
7.57088e-14
7.58785e-14
7.71595e-14
7.71157e-14
7.47569e-14
7.10098e-14
6.85975e-14
7.00823e-14
4.77625e-13
4.40538e-13
4.27276e-13
4.3498e-13
4.46271e-13
4.46402e-13
4.29024e-13
3.99257e-13
3.73723e-13
3.71477e-13
2.57054e-12
2.4042e-12
2.379e-12
2.46397e-12
2.55425e-12
2.56067e-12
2.44294e-12
2.22821e-12
2.01539e-12
1.9397e-12
1.35599e-11
1.2888e-11
1.30415e-11
1.37687e-11
1.44483e-11
1.45466e-11
1.38051e-11
1.23571e-11
1.07761e-11
9.98197e-12
6.98758e-11
6.76641e-11
7.02028e-11
7.57191e-11
8.06175e-11
8.1747e-11
7.74266e-11
6.82106e-11
5.72971e-11
5.07063e-11
3.5031e-10
3.46645e-10
3.69795e-10
4.08451e-10
4.42493e-10
4.53644e-10
4.30915e-10
3.75618e-10
3.04488e-10
2.55248e-10
1.70035e-09
1.72505e-09
1.89755e-09
2.15166e-09
2.37972e-09
2.47879e-09
2.37775e-09
2.06888e-09
1.63034e-09
1.28342e-09
7.94693e-09
8.29414e-09
9.43189e-09
1.10046e-08
1.24695e-08
1.32752e-08
1.29785e-08
1.14256e-08
8.9131e-09
6.56778e-09
3.55506e-08
3.82911e-08
4.51025e-08
5.42377e-08
6.31727e-08
6.91761e-08
6.97018e-08
6.32126e-08
5.04503e-08
3.54266e-08
1.51295e-07
1.68591e-07
2.05845e-07
2.55292e-07
3.0637e-07
3.47102e-07
3.65029e-07
3.49119e-07
3.03301e-07
2.24596e-07
9.8516e-30
8.5663e-30
7.44829e-30
6.83755e-30
6.66791e-30
6.91056e-30
7.55854e-30
8.63288e-30
1.01954e-29
1.18335e-29
8.58107e-29
7.39007e-29
6.40481e-29
5.85886e-29
5.70387e-29
5.90629e-29
6.45915e-29
7.39267e-29
8.7502e-29
1.02449e-28
5.77642e-28
4.94129e-28
4.257e-28
3.87243e-28
3.75998e-28
3.88693e-28
4.24983e-28
4.87891e-28
5.8006e-28
6.83226e-28
3.80806e-27
3.25267e-27
2.78921e-27
2.52643e-27
2.44719e-27
2.52525e-27
2.75883e-27
3.17171e-27
3.78096e-27
4.46002e-27
2.47938e-26
2.1193e-26
1.81356e-26
1.63913e-26
1.58518e-26
1.63283e-26
1.78062e-26
2.04562e-26
2.43865e-26
2.87319e-26
1.59757e-25
1.36786e-25
1.17082e-25
1.05798e-25
1.02248e-25
1.05128e-25
1.14315e-25
1.30962e-25
1.55767e-25
1.83051e-25
1.01987e-24
8.75141e-25
7.50568e-25
6.79284e-25
6.56692e-25
6.73928e-25
7.29965e-25
8.32328e-25
9.8578e-25
1.15466e-24
6.45407e-24
5.55291e-24
4.77844e-24
4.33792e-24
4.19866e-24
4.30077e-24
4.63587e-24
5.25225e-24
6.18379e-24
7.2146e-24
4.05032e-23
3.49552e-23
3.0217e-23
2.75498e-23
2.67174e-23
2.73162e-23
2.92793e-23
3.29137e-23
3.84649e-23
4.46678e-23
2.52139e-22
2.18366e-22
1.89813e-22
1.73982e-22
1.6916e-22
1.72633e-22
1.83885e-22
2.04848e-22
2.37308e-22
2.74092e-22
1.55723e-21
1.35395e-21
1.18446e-21
1.09236e-21
1.06539e-21
1.0853e-21
1.14822e-21
1.26625e-21
1.45225e-21
1.66706e-21
9.54183e-21
8.33235e-21
7.3415e-21
6.81745e-21
6.67274e-21
6.78568e-21
7.12743e-21
7.77328e-21
8.8152e-21
1.00488e-20
5.80011e-20
5.08911e-20
4.51906e-20
4.22859e-20
4.15496e-20
4.21855e-20
4.39755e-20
4.73841e-20
5.30689e-20
6.00204e-20
3.49694e-19
3.08428e-19
2.76231e-19
2.60621e-19
2.57181e-19
2.60722e-19
2.69649e-19
2.86808e-19
3.16814e-19
3.5515e-19
2.0906e-18
1.85436e-18
1.6763e-18
1.59576e-18
1.58204e-18
1.6016e-18
1.64298e-18
1.72352e-18
1.8751e-18
2.08113e-18
1.23882e-17
1.10566e-17
1.0097e-17
9.70444e-18
9.6699e-18
9.77686e-18
9.94588e-18
1.02817e-17
1.10002e-17
1.20721e-17
7.27238e-17
6.5351e-17
6.03476e-17
5.86003e-17
5.87175e-17
5.92954e-17
5.98082e-17
6.08833e-17
6.39455e-17
6.9286e-17
4.22701e-16
3.82708e-16
3.57727e-16
3.51258e-16
3.54096e-16
3.57262e-16
3.57274e-16
3.5781e-16
3.68268e-16
3.93246e-16
2.43086e-15
2.21957e-15
2.10237e-15
2.0893e-15
2.12007e-15
2.13811e-15
2.12008e-15
2.08721e-15
2.10091e-15
2.2062e-15
1.38189e-14
1.27385e-14
1.22423e-14
1.23256e-14
1.25975e-14
1.27063e-14
1.24955e-14
1.20858e-14
1.18708e-14
1.22276e-14
7.75725e-14
7.22701e-14
7.05836e-14
7.20743e-14
7.42678e-14
7.49661e-14
7.31517e-14
6.94921e-14
6.64406e-14
6.69221e-14
4.29419e-13
4.04906e-13
4.02572e-13
4.17459e-13
4.34184e-13
4.39048e-13
4.25492e-13
3.9701e-13
3.68575e-13
3.61595e-13
2.33997e-12
2.23687e-12
2.26813e-12
2.39239e-12
2.5149e-12
2.5516e-12
2.45951e-12
2.25529e-12
2.0285e-12
1.9287e-12
1.25207e-11
1.21593e-11
1.2601e-11
1.35439e-11
1.44161e-11
1.47063e-11
1.41312e-11
1.27556e-11
1.1095e-11
1.01601e-11
6.55935e-11
6.48698e-11
6.88704e-11
7.5584e-11
8.16491e-11
8.39879e-11
8.07263e-11
7.19637e-11
6.05e-11
5.29384e-11
3.35211e-10
3.38546e-10
3.69124e-10
4.14573e-10
4.55788e-10
4.74576e-10
4.58545e-10
4.0598e-10
3.30597e-10
2.73771e-10
1.66369e-09
1.7212e-09
1.93196e-09
2.22559e-09
2.49842e-09
2.64616e-09
2.588e-09
2.29635e-09
1.82467e-09
1.41513e-09
7.97759e-09
8.48101e-09
9.82059e-09
1.16277e-08
1.33744e-08
1.44933e-08
1.44784e-08
1.30513e-08
1.03048e-08
7.44258e-09
3.6743e-08
4.02534e-08
4.81526e-08
5.86792e-08
6.93697e-08
7.73905e-08
7.98227e-08
7.44519e-08
6.02638e-08
4.11731e-08
1.61534e-07
1.82743e-07
2.25875e-07
2.83349e-07
3.44957e-07
3.98326e-07
4.29277e-07
4.23671e-07
3.76434e-07
2.67478e-07
8.2473e-30
7.2544e-30
6.40192e-30
5.95506e-30
5.85661e-30
6.08417e-30
6.6302e-30
7.50592e-30
8.76351e-30
1.00698e-29
7.14647e-29
6.23759e-29
5.49548e-29
5.09883e-29
5.00855e-29
5.19921e-29
5.66432e-29
6.42111e-29
7.50247e-29
8.68184e-29
4.76994e-28
4.14525e-28
3.63868e-28
3.36219e-28
3.29646e-28
3.41725e-28
3.72085e-28
4.22634e-28
4.94886e-28
5.74846e-28
3.12315e-27
2.71535e-27
2.37916e-27
2.19317e-27
2.14719e-27
2.22264e-27
2.41704e-27
2.74545e-27
3.21542e-27
3.73207e-27
2.02495e-26
1.76498e-26
1.54726e-26
1.42601e-26
1.39534e-26
1.44222e-26
1.56481e-26
1.77352e-26
2.07263e-26
2.39843e-26
1.30254e-25
1.13904e-25
1.00085e-25
9.23882e-26
9.04373e-26
9.33351e-26
1.00937e-25
1.13933e-25
1.32611e-25
1.52864e-25
8.31861e-25
7.29885e-25
6.43648e-25
5.95986e-25
5.84158e-25
6.01974e-25
6.48286e-25
7.27614e-25
8.42247e-25
9.66885e-25
5.27524e-24
4.64445e-24
4.11462e-24
3.82627e-24
3.75799e-24
3.86697e-24
4.1441e-24
4.61896e-24
5.31086e-24
6.06973e-24
3.32183e-23
2.93527e-23
2.61462e-23
2.4441e-23
2.40681e-23
2.47315e-23
2.636e-23
2.91466e-23
3.32523e-23
3.78169e-23
2.07717e-22
1.84263e-22
1.65147e-22
1.55301e-22
1.53409e-22
1.57429e-22
1.66815e-22
1.82822e-22
2.06747e-22
2.33841e-22
1.28977e-21
1.14897e-21
1.03679e-21
9.8144e-22
9.72915e-22
9.97184e-22
1.05013e-21
1.13985e-21
1.27648e-21
1.43497e-21
7.95163e-21
7.11579e-21
6.46871e-21
6.1677e-21
6.13803e-21
6.28409e-21
6.57523e-21
7.06345e-21
7.82559e-21
8.73763e-21
4.86668e-20
4.37653e-20
4.01057e-20
3.85382e-20
3.85165e-20
3.93935e-20
4.09453e-20
4.35025e-20
4.76318e-20
5.27828e-20
2.95633e-19
2.67269e-19
2.47053e-19
2.39388e-19
2.40362e-19
2.45622e-19
2.53561e-19
2.66262e-19
2.87803e-19
3.16251e-19
1.78199e-18
1.62024e-18
1.51178e-18
1.47804e-18
1.49149e-18
1.52306e-18
1.5614e-18
1.61945e-18
1.72599e-18
1.87881e-18
1.06548e-17
9.74769e-18
9.18766e-18
9.06899e-18
9.20121e-18
9.39134e-18
9.56033e-18
9.78754e-18
1.02718e-17
1.10635e-17
6.31678e-17
5.81798e-17
5.54414e-17
5.52887e-17
5.64246e-17
5.75785e-17
5.82042e-17
5.87783e-17
6.06536e-17
6.45514e-17
3.71137e-16
3.44371e-16
3.32087e-16
3.34826e-16
3.43883e-16
3.50971e-16
3.52337e-16
3.50768e-16
3.55321e-16
3.73039e-16
2.15976e-15
2.02051e-15
1.9738e-15
2.01367e-15
2.08249e-15
2.12671e-15
2.12074e-15
2.08035e-15
2.065e-15
2.13433e-15
1.24397e-14
1.17438e-14
1.16355e-14
1.20223e-14
1.25282e-14
1.28095e-14
1.26935e-14
1.2265e-14
1.19063e-14
1.20851e-14
7.08535e-14
6.75676e-14
6.79879e-14
7.12211e-14
7.48489e-14
7.6683e-14
7.55633e-14
7.19105e-14
6.81246e-14
6.76959e-14
3.98596e-13
3.84439e-13
3.93441e-13
4.18359e-13
4.43876e-13
4.56171e-13
4.47472e-13
4.19534e-13
3.87028e-13
3.75033e-13
2.21115e-12
2.16015e-12
2.25228e-12
2.43434e-12
2.61099e-12
2.69576e-12
2.63659e-12
2.43765e-12
2.18536e-12
2.05459e-12
1.20701e-11
1.19659e-11
1.27344e-11
1.40122e-11
1.52185e-11
1.58178e-11
1.54618e-11
1.41241e-11
1.22864e-11
1.11346e-11
6.46628e-11
6.51951e-11
7.09591e-11
7.96273e-11
8.77557e-11
9.20753e-11
9.02598e-11
8.17485e-11
6.89846e-11
5.97641e-11
3.38838e-10
3.48317e-10
3.88523e-10
4.45457e-10
4.99406e-10
5.3085e-10
5.24387e-10
4.73609e-10
3.88684e-10
3.18689e-10
1.72946e-09
1.8177e-09
2.08179e-09
2.44313e-09
2.79421e-09
3.02249e-09
3.02836e-09
2.7519e-09
2.21372e-09
1.69961e-09
8.55528e-09
9.21916e-09
1.0857e-08
1.30611e-08
1.5283e-08
1.69103e-08
1.73292e-08
1.60515e-08
1.28938e-08
9.22817e-09
4.07801e-08
4.51655e-08
5.47262e-08
6.75339e-08
8.10404e-08
9.22073e-08
9.75834e-08
9.37167e-08
7.75808e-08
5.27092e-08
1.86093e-07
2.12163e-07
2.64307e-07
3.34374e-07
4.11956e-07
4.84048e-07
5.34484e-07
5.43048e-07
4.95488e-07
3.53586e-07
7.21132e-30
6.39976e-30
5.72284e-30
5.3924e-30
5.34929e-30
5.57108e-30
6.0497e-30
6.79385e-30
7.85943e-30
8.97381e-30
6.22407e-29
5.48394e-29
4.90052e-29
4.60931e-29
4.56916e-29
4.75572e-29
5.16216e-29
5.80219e-29
6.71195e-29
7.71505e-29
4.12951e-28
3.62528e-28
3.23233e-28
3.03147e-28
3.00159e-28
3.12074e-28
3.38462e-28
3.80891e-28
4.41068e-28
5.0857e-28
2.68996e-27
2.36526e-27
2.10887e-27
1.97612e-27
1.9555e-27
2.03078e-27
2.19906e-27
2.47233e-27
2.8593e-27
3.29052e-27
1.7383e-26
1.53432e-26
1.37132e-26
1.28676e-26
1.2738e-26
1.32129e-26
1.42711e-26
1.59926e-26
1.84276e-26
2.11168e-26
1.11658e-25
9.90037e-26
8.88465e-26
8.36239e-26
8.28896e-26
8.58802e-26
9.24332e-26
1.03067e-25
1.1812e-25
1.34684e-25
7.13426e-25
6.35401e-25
5.73115e-25
5.41765e-25
5.38133e-25
5.56925e-25
5.96866e-25
6.61354e-25
7.52992e-25
8.54278e-25
4.5339e-24
4.05555e-24
3.67905e-24
3.49602e-24
3.48194e-24
3.59974e-24
3.83946e-24
4.22359e-24
4.77344e-24
5.38802e-24
2.86522e-23
2.57397e-23
2.34966e-23
2.24592e-23
2.24392e-23
2.31759e-23
2.45926e-23
2.68389e-23
3.00885e-23
3.37824e-23
1.80014e-22
1.62425e-22
1.49265e-22
1.4359e-22
1.43966e-22
1.48563e-22
1.568e-22
1.69671e-22
1.88555e-22
2.10512e-22
1.12413e-21
1.01888e-21
9.42999e-22
9.13395e-22
9.19297e-22
9.47939e-22
9.94964e-22
1.06695e-21
1.17455e-21
1.30338e-21
6.97547e-21
6.35223e-21
5.92371e-21
5.77985e-21
5.84133e-21
6.01959e-21
6.28246e-21
6.67305e-21
7.27142e-21
8.01591e-21
4.30001e-20
3.9353e-20
3.69944e-20
3.63777e-20
3.69289e-20
3.80381e-20
3.94706e-20
4.15054e-20
4.4731e-20
4.89556e-20
2.63263e-19
2.42205e-19
2.2965e-19
2.27696e-19
2.32257e-19
2.39163e-19
2.46723e-19
2.56718e-19
2.73379e-19
2.96819e-19
1.60033e-18
1.48061e-18
1.41681e-18
1.41715e-18
1.45301e-18
1.49609e-18
1.53433e-18
1.5789e-18
1.65964e-18
1.786e-18
9.65587e-18
8.98744e-18
8.68534e-18
8.76906e-18
9.04093e-18
9.3106e-18
9.49269e-18
9.6558e-18
1.00065e-17
1.06617e-17
5.78061e-17
5.41559e-17
5.28929e-17
5.39372e-17
5.59428e-17
5.76395e-17
5.8428e-17
5.87165e-17
5.9912e-17
6.31203e-17
3.43217e-16
3.23829e-16
3.19908e-16
3.2971e-16
3.44188e-16
3.5494e-16
3.57786e-16
3.55059e-16
3.56176e-16
3.70458e-16
2.02e-15
1.92069e-15
1.921e-15
2.0025e-15
2.10517e-15
2.17391e-15
2.1798e-15
2.13534e-15
2.10241e-15
2.15456e-15
1.17773e-14
1.12935e-14
1.14478e-14
1.20799e-14
1.27973e-14
1.32416e-14
1.3214e-14
1.27752e-14
1.23224e-14
1.24119e-14
6.79656e-14
6.57871e-14
6.76649e-14
7.23454e-14
7.72945e-14
8.02047e-14
7.97153e-14
7.6061e-14
7.173e-14
7.07922e-14
3.87805e-13
3.79316e-13
3.96395e-13
4.29867e-13
4.63638e-13
4.82981e-13
4.78637e-13
4.50917e-13
4.14901e-13
3.99604e-13
2.1846e-12
2.16215e-12
2.29907e-12
2.5318e-12
2.75997e-12
2.89058e-12
2.8609e-12
2.66389e-12
2.38684e-12
2.2318e-12
1.21262e-11
1.21643e-11
1.31823e-11
1.4761e-11
1.6288e-11
1.71836e-11
1.7025e-11
1.57e-11
1.36786e-11
1.2334e-11
6.6158e-11
6.74007e-11
7.4565e-11
8.50235e-11
9.51394e-11
1.01362e-10
1.00864e-10
9.24404e-11
7.8302e-11
6.7511e-11
3.53626e-10
3.66735e-10
4.14886e-10
4.82456e-10
5.48627e-10
5.92194e-10
5.94558e-10
5.44626e-10
4.49713e-10
3.67e-10
1.84435e-09
1.9521e-09
2.26164e-09
2.68576e-09
3.11107e-09
3.41581e-09
3.48116e-09
3.21492e-09
2.60883e-09
1.99425e-09
9.33973e-09
1.0115e-08
1.2013e-08
1.45822e-08
1.72462e-08
1.93476e-08
2.01686e-08
1.90146e-08
1.54484e-08
1.10222e-08
4.56552e-08
5.07027e-08
6.17306e-08
7.66058e-08
9.26651e-08
1.06691e-07
1.14744e-07
1.122e-07
9.42085e-08
6.40154e-08
2.13986e-07
2.43987e-07
3.04115e-07
3.8539e-07
4.7705e-07
5.65644e-07
6.33305e-07
6.54584e-07
6.06988e-07
4.35516e-07
6.68639e-30
5.96363e-30
5.37383e-30
5.10239e-30
5.08875e-30
5.30839e-30
5.75286e-30
6.43222e-30
7.40466e-30
8.42672e-30
5.76295e-29
5.10409e-29
4.59816e-29
4.36035e-29
4.34686e-29
4.53221e-29
4.90922e-29
5.49195e-29
6.3201e-29
7.24019e-29
3.81644e-28
3.36764e-28
3.02946e-28
2.86663e-28
2.8557e-28
2.9747e-28
3.219e-28
3.60382e-28
4.14905e-28
4.7687e-28
2.48142e-27
2.19417e-27
1.97531e-27
1.86889e-27
1.86151e-27
1.93718e-27
2.09278e-27
2.33974e-27
2.68888e-27
3.08309e-27
1.60174e-26
1.42252e-26
1.28481e-26
1.2182e-26
1.2144e-26
1.26254e-26
1.36031e-26
1.51523e-26
1.73389e-26
1.97872e-26
1.02866e-25
9.18188e-26
8.33389e-26
7.93201e-26
7.92129e-26
8.2274e-26
8.83289e-26
9.78605e-26
1.1131e-25
1.2634e-25
6.57741e-25
5.90029e-25
5.3867e-25
5.15242e-25
5.15836e-25
5.35287e-25
5.72241e-25
6.29845e-25
7.11377e-25
8.03051e-25
4.18698e-24
3.77386e-24
3.46725e-24
3.3354e-24
3.34934e-24
3.47278e-24
3.69521e-24
4.0375e-24
4.52516e-24
5.08073e-24
2.65251e-23
2.40191e-23
2.22152e-23
2.15033e-23
2.16663e-23
2.24484e-23
2.37692e-23
2.57678e-23
2.8644e-23
3.19837e-23
1.67172e-22
1.52079e-22
1.41638e-22
1.38003e-22
1.39561e-22
1.4451e-22
1.5224e-22
1.63683e-22
1.80377e-22
2.00257e-22
1.04776e-21
9.57646e-22
8.98375e-22
8.81392e-22
8.94873e-22
9.26148e-22
9.7067e-22
1.03465e-21
1.12969e-21
1.24664e-21
6.5285e-21
5.99577e-21
5.66736e-21
5.60091e-21
5.71063e-21
5.90815e-21
6.1599e-21
6.50683e-21
7.03494e-21
7.71304e-21
4.04283e-20
3.73138e-20
3.5552e-20
3.54066e-20
3.62636e-20
3.7511e-20
3.89036e-20
4.07081e-20
4.3549e-20
4.7412e-20
2.48739e-19
2.30766e-19
2.21733e-19
2.22631e-19
2.29124e-19
2.37007e-19
2.44507e-19
2.53329e-19
2.67931e-19
2.89454e-19
1.52001e-18
1.4179e-18
1.37469e-18
1.39221e-18
1.44025e-18
1.49015e-18
1.52918e-18
1.56803e-18
1.63799e-18
1.75447e-18
9.22233e-18
8.65316e-18
8.47046e-18
8.65716e-18
9.00582e-18
9.32247e-18
9.51656e-18
9.65335e-18
9.94871e-18
1.05543e-17
5.55335e-17
5.24372e-17
5.18614e-17
5.35212e-17
5.60104e-17
5.80276e-17
5.89326e-17
5.91093e-17
6.00239e-17
6.29885e-17
3.31755e-16
3.1542e-16
3.15424e-16
3.289e-16
3.46425e-16
3.59343e-16
3.63156e-16
3.6001e-16
3.59694e-16
3.72792e-16
1.9653e-15
1.88251e-15
1.90508e-15
2.00853e-15
2.13041e-15
2.21367e-15
2.22696e-15
2.18127e-15
2.14077e-15
2.187e-15
1.15381e-14
1.11417e-14
1.14215e-14
1.21849e-14
1.30234e-14
1.35644e-14
1.35907e-14
1.31503e-14
1.26546e-14
1.27116e-14
6.70792e-14
6.53518e-14
6.79348e-14
7.3401e-14
7.91139e-14
8.26628e-14
8.25516e-14
7.89117e-14
7.431e-14
7.31651e-14
3.8577e-13
3.79556e-13
4.00597e-13
4.38776e-13
4.77354e-13
5.00888e-13
4.99139e-13
4.71578e-13
4.33667e-13
4.16824e-13
2.1914e-12
2.18014e-12
2.3395e-12
2.60047e-12
2.85878e-12
3.0167e-12
3.00454e-12
2.80858e-12
2.51732e-12
2.34954e-12
1.22725e-11
1.23664e-11
1.35118e-11
1.52598e-11
1.69749e-11
1.8047e-11
1.80057e-11
1.66867e-11
1.4556e-11
1.31032e-11
6.75991e-11
6.91247e-11
7.70162e-11
8.84882e-11
9.97681e-11
1.07121e-10
1.07407e-10
9.90246e-11
8.40577e-11
7.23533e-11
3.65064e-10
3.7965e-10
4.32008e-10
5.05613e-10
5.78907e-10
6.29647e-10
6.37256e-10
5.87759e-10
4.86805e-10
3.9659e-10
1.92507e-09
2.04124e-09
2.37527e-09
2.83492e-09
3.3031e-09
3.65268e-09
3.75321e-09
3.49265e-09
2.84549e-09
2.17143e-09
9.86397e-09
1.06913e-08
1.27313e-08
1.55059e-08
1.84218e-08
2.07977e-08
2.18539e-08
2.07701e-08
1.69578e-08
1.20814e-08
4.88257e-08
5.42078e-08
6.6044e-08
8.2072e-08
9.95633e-08
1.15218e-07
1.24816e-07
1.23027e-07
1.0389e-07
7.05447e-08
2.31885e-07
2.63999e-07
3.28548e-07
4.16009e-07
5.15433e-07
6.13261e-07
6.90701e-07
7.19035e-07
6.70753e-07
4.81106e-07
6.64695e-30
5.92963e-30
5.34461e-30
5.07521e-30
5.06129e-30
5.2793e-30
5.72076e-30
6.39455e-30
7.35878e-30
8.37273e-30
5.72868e-29
5.07522e-29
4.57322e-29
4.33677e-29
4.32304e-29
4.50704e-29
4.88154e-29
5.46002e-29
6.28137e-29
7.19339e-29
3.7937e-28
3.34962e-28
3.01336e-28
2.85119e-28
2.84009e-28
2.95825e-28
3.201e-28
3.58339e-28
4.12498e-28
4.73789e-28
2.46735e-27
2.18247e-27
1.96489e-27
1.859e-27
1.85157e-27
1.92673e-27
2.08133e-27
2.32665e-27
2.67343e-27
3.06412e-27
1.59301e-26
1.41499e-26
1.27808e-26
1.21183e-26
1.20803e-26
1.25585e-26
1.353e-26
1.50689e-26
1.72404e-26
1.967e-26
1.02321e-25
9.13393e-26
8.2906e-26
7.89088e-26
7.88019e-26
8.18449e-26
8.78616e-26
9.733e-26
1.10688e-25
1.25611e-25
6.54347e-25
5.86991e-25
5.35888e-25
5.12588e-25
5.13186e-25
5.32531e-25
5.69255e-25
6.26482e-25
7.07472e-25
7.98535e-25
4.16596e-24
3.75472e-24
3.44944e-24
3.31834e-24
3.33231e-24
3.45512e-24
3.67621e-24
4.01628e-24
4.50077e-24
5.05284e-24
2.63959e-23
2.38986e-23
2.21019e-23
2.13942e-23
2.15575e-23
2.2336e-23
2.36489e-23
2.56348e-23
2.84927e-23
3.18123e-23
1.66378e-22
1.51316e-22
1.40923e-22
1.37311e-22
1.3887e-22
1.43798e-22
1.51484e-22
1.62855e-22
1.79445e-22
1.99211e-22
1.04282e-21
9.52884e-22
8.93906e-22
8.77041e-22
8.90516e-22
9.21673e-22
9.65955e-22
1.02954e-21
1.12401e-21
1.2403e-21
6.49786e-21
5.96666e-21
5.63963e-21
5.57371e-21
5.68333e-21
5.88018e-21
6.13068e-21
6.47551e-21
7.00047e-21
7.67493e-21
4.02421e-20
3.71368e-20
3.53807e-20
3.52375e-20
3.60934e-20
3.73371e-20
3.87236e-20
4.05175e-20
4.33418e-20
4.71848e-20
2.47628e-19
2.29697e-19
2.20679e-19
2.21584e-19
2.28069e-19
2.35933e-19
2.43404e-19
2.52177e-19
2.66696e-19
2.8811e-19
1.51349e-18
1.41146e-18
1.36823e-18
1.38576e-18
1.43373e-18
1.48354e-18
1.52245e-18
1.56111e-18
1.63068e-18
1.74658e-18
9.18405e-18
8.61385e-18
8.43112e-18
8.61761e-18
8.96575e-18
9.28197e-18
9.4758e-18
9.612e-18
9.90572e-18
1.05084e-17
5.53037e-17
5.21969e-17
5.16237e-17
5.32803e-17
5.57654e-17
5.77807e-17
5.86867e-17
5.88637e-17
5.97731e-17
6.27246e-17
3.30351e-16
3.13986e-16
3.13999e-16
3.27442e-16
3.44934e-16
3.57843e-16
3.61678e-16
3.5856e-16
3.58243e-16
3.71285e-16
1.95683e-15
1.87407e-15
1.89658e-15
1.99974e-15
2.12137e-15
2.20459e-15
2.2181e-15
2.17274e-15
2.13242e-15
2.17848e-15
1.14879e-14
1.1092e-14
1.1371e-14
1.21321e-14
1.29688e-14
1.35097e-14
1.35378e-14
1.31004e-14
1.26069e-14
1.26639e-14
6.67843e-14
6.50607e-14
6.76371e-14
7.30857e-14
7.8785e-14
8.23335e-14
8.22369e-14
7.86206e-14
7.40399e-14
7.29006e-14
3.84043e-13
3.77871e-13
3.98856e-13
4.36903e-13
4.75382e-13
4.98913e-13
4.97268e-13
4.69885e-13
4.32145e-13
4.15373e-13
2.18145e-12
2.1706e-12
2.3294e-12
2.58941e-12
2.84702e-12
3.00488e-12
2.99344e-12
2.79875e-12
2.50879e-12
2.34169e-12
1.2217e-11
1.23127e-11
1.34536e-11
1.5195e-11
1.69051e-11
1.79765e-11
1.794e-11
1.66297e-11
1.45086e-11
1.30614e-11
6.72954e-11
6.88239e-11
7.66859e-11
8.81122e-11
9.93566e-11
1.06703e-10
1.07018e-10
9.86939e-11
8.37948e-11
7.21347e-11
3.63436e-10
3.78019e-10
4.30159e-10
5.03457e-10
5.76503e-10
6.27172e-10
6.34949e-10
5.85831e-10
4.85357e-10
3.95484e-10
1.91667e-09
2.03258e-09
2.36509e-09
2.82276e-09
3.28924e-09
3.63814e-09
3.73953e-09
3.48133e-09
2.83752e-09
2.16605e-09
9.82224e-09
1.06465e-08
1.26767e-08
1.54389e-08
1.83435e-08
2.07134e-08
2.17726e-08
2.07024e-08
1.69151e-08
1.20594e-08
4.86268e-08
5.39846e-08
6.57618e-08
8.17157e-08
9.91345e-08
1.14742e-07
1.24343e-07
1.22639e-07
1.03666e-07
7.0443e-08
2.30973e-07
2.62927e-07
3.27157e-07
4.14205e-07
5.13195e-07
6.10676e-07
6.87986e-07
7.16536e-07
6.69586e-07
4.82081e-07
7.08946e-30
6.29824e-30
5.63375e-30
5.30698e-30
5.26289e-30
5.4796e-30
5.94914e-30
6.67921e-30
7.72252e-30
8.8087e-30
6.11944e-29
5.39775e-29
4.82471e-29
4.53672e-29
4.49586e-29
4.67821e-29
5.07702e-29
5.7051e-29
6.5961e-29
7.57366e-29
4.06131e-28
3.56888e-28
3.18273e-28
2.98426e-28
2.95407e-28
3.07063e-28
3.32958e-28
3.74599e-28
4.3355e-28
4.99391e-28
2.64668e-27
2.32873e-27
2.07669e-27
1.94567e-27
1.92497e-27
1.99869e-27
2.16385e-27
2.43199e-27
2.81114e-27
3.23246e-27
1.71101e-26
1.51084e-26
1.3505e-26
1.26709e-26
1.25414e-26
1.30069e-26
1.40457e-26
1.57348e-26
1.81215e-26
2.07524e-26
1.09945e-25
9.75019e-26
8.75018e-26
8.2352e-26
8.16218e-26
8.45567e-26
9.09895e-26
1.01424e-25
1.16184e-25
1.32409e-25
7.02693e-25
6.25834e-25
5.64459e-25
5.33556e-25
5.29963e-25
5.48427e-25
5.87642e-25
6.50922e-25
7.40821e-25
8.40154e-25
4.46687e-24
3.99493e-24
3.62368e-24
3.44331e-24
3.4295e-24
3.54537e-24
3.7808e-24
4.15777e-24
4.69741e-24
5.30076e-24
2.82354e-23
2.53582e-23
2.31451e-23
2.21232e-23
2.21046e-23
2.28301e-23
2.4222e-23
2.64268e-23
2.96173e-23
3.32468e-23
1.77432e-22
1.60041e-22
1.47053e-22
1.41464e-22
1.41846e-22
1.46379e-22
1.54476e-22
1.67111e-22
1.85658e-22
2.07247e-22
1.10821e-21
1.00411e-21
9.29195e-22
9.00042e-22
9.05959e-22
9.34238e-22
9.80496e-22
1.05119e-21
1.15689e-21
1.28365e-21
6.87802e-21
6.26148e-21
5.83816e-21
5.69656e-21
5.75796e-21
5.93421e-21
6.19303e-21
6.57673e-21
7.16477e-21
7.89764e-21
4.24082e-20
3.87985e-20
3.64672e-20
3.58612e-20
3.64109e-20
3.75091e-20
3.89212e-20
4.09212e-20
4.40921e-20
4.82528e-20
2.59697e-19
2.38836e-19
2.26418e-19
2.24511e-19
2.29054e-19
2.35904e-19
2.43368e-19
2.53198e-19
2.6958e-19
2.92677e-19
1.57902e-18
1.46026e-18
1.39712e-18
1.39761e-18
1.43331e-18
1.47611e-18
1.51396e-18
1.55783e-18
1.63723e-18
1.7618e-18
9.52921e-18
8.86545e-18
8.56623e-18
8.6499e-18
8.92039e-18
9.18877e-18
9.36975e-18
9.53042e-18
9.87538e-18
1.05216e-17
5.70564e-17
5.34305e-17
5.21778e-17
5.3215e-17
5.52091e-17
5.69001e-17
5.76894e-17
5.79754e-17
5.91508e-17
6.23166e-17
3.38808e-16
3.1955e-16
3.15641e-16
3.25358e-16
3.39745e-16
3.50472e-16
3.53369e-16
3.50705e-16
3.51791e-16
3.65892e-16
1.99432e-15
1.89561e-15
1.89566e-15
1.9764e-15
2.07839e-15
2.14704e-15
2.1535e-15
2.1099e-15
2.07735e-15
2.12886e-15
1.16292e-14
1.11473e-14
1.12981e-14
1.19242e-14
1.26366e-14
1.30806e-14
1.30581e-14
1.26272e-14
1.21803e-14
1.22686e-14
6.7117e-14
6.49376e-14
6.67879e-14
7.14211e-14
7.63338e-14
7.92432e-14
7.87939e-14
7.5204e-14
7.09286e-14
7.00017e-14
3.82946e-13
3.74441e-13
3.91301e-13
4.24414e-13
4.5792e-13
4.77257e-13
4.73205e-13
4.45968e-13
4.1041e-13
3.95284e-13
2.15711e-12
2.1346e-12
2.26974e-12
2.49988e-12
2.72614e-12
2.85664e-12
2.82896e-12
2.6354e-12
2.36183e-12
2.20845e-12
1.19739e-11
1.20105e-11
1.30151e-11
1.45756e-11
1.60891e-11
1.69832e-11
1.68376e-11
1.55363e-11
1.35398e-11
1.22093e-11
6.53335e-11
6.65546e-11
7.36242e-11
8.39583e-11
9.39787e-11
1.00183e-10
9.9765e-11
9.14987e-11
7.75336e-11
6.68504e-11
3.49274e-10
3.62174e-10
4.09673e-10
4.76413e-10
5.41918e-10
5.853e-10
5.88114e-10
5.39182e-10
4.45441e-10
3.63523e-10
1.82204e-09
1.92807e-09
2.23333e-09
2.65206e-09
3.0728e-09
3.37576e-09
3.44333e-09
3.18315e-09
2.58475e-09
1.97589e-09
9.22921e-09
9.99204e-09
1.18633e-08
1.43988e-08
1.70322e-08
1.91179e-08
1.99464e-08
1.88266e-08
1.53088e-08
1.09231e-08
4.51283e-08
5.00961e-08
6.09663e-08
7.56413e-08
9.15061e-08
1.05406e-07
1.13456e-07
1.11074e-07
9.33579e-08
6.34425e-08
2.11582e-07
2.41123e-07
3.00392e-07
3.80555e-07
4.71062e-07
5.58745e-07
6.26047e-07
6.47787e-07
6.01368e-07
4.31574e-07
8.03496e-30
7.07829e-30
6.24745e-30
5.80718e-30
5.7074e-30
5.92614e-30
6.45642e-30
7.30752e-30
8.52686e-30
9.7853e-30
6.96374e-29
6.08806e-29
5.36408e-29
4.97314e-29
4.88184e-29
5.06511e-29
5.51704e-29
6.25302e-29
7.30188e-29
8.43721e-29
4.65017e-28
4.04683e-28
3.55219e-28
3.28007e-28
3.21393e-28
3.33025e-28
3.62519e-28
4.11683e-28
4.81782e-28
5.588e-28
3.04665e-27
2.65092e-27
2.32255e-27
2.13983e-27
2.09382e-27
2.16656e-27
2.35542e-27
2.67468e-27
3.13064e-27
3.62938e-27
1.97648e-26
1.72324e-26
1.5104e-26
1.39139e-26
1.36085e-26
1.40611e-26
1.52521e-26
1.72803e-26
2.0183e-26
2.33344e-26
1.272e-25
1.11221e-25
9.76971e-26
9.01464e-26
8.82119e-26
9.10134e-26
9.83981e-26
1.11024e-25
1.29158e-25
1.48787e-25
8.12689e-25
7.12764e-25
6.28277e-25
5.81536e-25
5.6984e-25
5.87092e-25
6.32078e-25
7.09138e-25
8.20489e-25
9.41516e-25
5.1553e-24
4.53604e-24
4.01653e-24
3.73374e-24
3.66634e-24
3.77204e-24
4.04128e-24
4.50256e-24
5.17504e-24
5.91304e-24
3.2472e-23
2.86726e-23
2.55257e-23
2.38529e-23
2.34852e-23
2.41298e-23
2.57123e-23
2.84197e-23
3.24124e-23
3.68568e-23
2.03106e-22
1.80031e-22
1.61256e-22
1.51594e-22
1.49729e-22
1.53641e-22
1.62767e-22
1.78323e-22
2.01602e-22
2.28007e-22
1.26146e-21
1.12284e-21
1.01259e-21
9.58253e-22
9.4985e-22
9.7351e-22
1.02502e-21
1.11224e-21
1.24526e-21
1.39984e-21
7.77887e-21
6.95581e-21
6.31946e-21
6.02371e-21
5.99449e-21
6.13713e-21
6.42064e-21
6.89553e-21
7.6378e-21
8.52802e-21
4.76205e-20
4.27918e-20
3.91903e-20
3.76494e-20
3.76287e-20
3.84869e-20
3.99998e-20
4.24886e-20
4.65119e-20
5.15429e-20
2.89348e-19
2.6138e-19
2.41469e-19
2.33932e-19
2.34901e-19
2.40062e-19
2.47816e-19
2.60182e-19
2.81179e-19
3.08982e-19
1.74453e-18
1.58484e-18
1.47794e-18
1.44475e-18
1.45809e-18
1.48918e-18
1.52671e-18
1.58327e-18
1.68714e-18
1.83659e-18
1.0433e-17
9.53668e-18
8.9843e-18
8.86734e-18
8.99812e-18
9.18611e-18
9.35235e-18
9.57373e-18
1.0046e-17
1.08208e-17
6.18625e-17
5.69347e-17
5.42301e-17
5.40762e-17
5.51978e-17
5.63424e-17
5.69644e-17
5.75247e-17
5.93537e-17
6.31706e-17
3.6353e-16
3.37091e-16
3.24925e-16
3.27586e-16
3.36522e-16
3.43568e-16
3.44987e-16
3.4347e-16
3.47903e-16
3.65264e-16
2.11595e-15
1.97824e-15
1.9317e-15
1.9707e-15
2.03861e-15
2.08265e-15
2.07744e-15
2.03814e-15
2.02302e-15
2.09101e-15
1.21902e-14
1.15003e-14
1.13898e-14
1.17688e-14
1.22679e-14
1.25487e-14
1.24399e-14
1.20224e-14
1.16708e-14
1.18463e-14
6.94433e-14
6.6178e-14
6.65659e-14
6.97347e-14
7.33116e-14
7.51453e-14
7.40839e-14
7.05225e-14
6.68127e-14
6.63924e-14
3.90696e-13
3.76598e-13
3.8529e-13
4.09708e-13
4.3485e-13
4.47144e-13
4.38872e-13
4.11628e-13
3.79766e-13
3.67992e-13
2.16752e-12
2.1165e-12
2.20608e-12
2.38446e-12
2.55842e-12
2.64309e-12
2.58684e-12
2.39284e-12
2.14545e-12
2.01699e-12
1.18336e-11
1.17264e-11
1.24757e-11
1.37277e-11
1.49149e-11
1.55124e-11
1.51752e-11
1.38711e-11
1.20683e-11
1.09361e-11
6.34097e-11
6.39042e-11
6.95313e-11
7.80237e-11
8.60186e-11
9.03157e-11
8.8614e-11
8.03207e-11
6.77948e-11
5.8727e-11
3.32363e-10
3.41503e-10
3.80777e-10
4.36545e-10
4.89573e-10
5.20775e-10
5.14951e-10
4.65531e-10
3.82174e-10
3.13309e-10
1.69697e-09
1.78262e-09
2.04066e-09
2.3945e-09
2.73933e-09
2.9653e-09
2.97431e-09
2.70593e-09
2.17772e-09
1.67175e-09
8.39781e-09
9.04392e-09
1.06446e-08
1.28022e-08
1.49828e-08
1.65898e-08
1.70203e-08
1.57875e-08
1.26903e-08
9.08202e-09
4.00472e-08
4.43224e-08
5.36676e-08
6.62023e-08
7.9448e-08
9.04531e-08
9.58381e-08
9.21938e-08
7.63894e-08
5.18957e-08
1.8284e-07
2.0829e-07
2.59271e-07
3.27837e-07
4.0388e-07
4.74812e-07
5.24834e-07
5.34162e-07
4.88101e-07
3.48324e-07
9.53985e-30
8.30537e-30
7.22046e-30
6.62065e-30
6.44963e-30
6.67972e-30
7.30512e-30
8.34316e-30
9.84969e-30
1.14186e-29
8.31157e-29
7.16859e-29
6.2106e-29
5.67417e-29
5.51821e-29
5.70979e-29
6.24401e-29
7.1465e-29
8.45618e-29
9.88651e-29
5.59904e-28
4.79548e-28
4.12826e-28
3.75095e-28
3.63846e-28
3.75894e-28
4.10921e-28
4.71742e-28
5.6069e-28
6.59498e-28
3.69516e-27
3.15628e-27
2.70441e-27
2.4472e-27
2.36837e-27
2.44268e-27
2.6679e-27
3.06679e-27
3.65456e-27
4.30675e-27
2.40788e-26
2.0564e-26
1.75832e-26
1.58775e-26
1.53429e-26
1.57967e-26
1.72219e-26
1.97807e-26
2.35729e-26