# Field minima and maxima
# Time         	field          	min            	location(min)  	max            	location(max)  
5.00000000e-04	p              	0.00000000e+00	(-5.25000000e-04 0.00000000e+00 2.16000000e-01)	7.06271869e+02	(-1.45036143e-03 1.43951181e-04 1.50000000e-03)
5.00000000e-04	U              	(-2.36091242e-02 -3.33094984e-04 6.69845383e-01)	(1.37647026e-03 -1.35240568e-04 1.50000000e-03)	(1.12539398e-02 1.76620326e-02 9.68205186e-01)	(-6.70601028e-04 -8.23881783e-04 1.50000000e-03)
1.00000000e-03	p              	0.00000000e+00	(-5.25000000e-04 0.00000000e+00 2.16000000e-01)	2.91736834e+01	(9.21183619e-04 1.12275892e-03 1.50000000e-03)
1.00000000e-03	U              	(-1.05783045e-02 -4.17849354e-02 1.03933896e+00)	(3.38127829e-04 1.14544992e-03 1.50000000e-03)	(1.84541918e-02 1.25931709e-08 1.12126760e+00)	(-5.25000000e-04 -6.81731646e-21 1.50000000e-03)
1.50000000e-03	p              	0.00000000e+00	(-5.25000000e-04 0.00000000e+00 2.16000000e-01)	3.59060673e+01	(-1.45036143e-03 1.43951181e-04 1.50000000e-03)
1.50000000e-03	U              	(-1.33880851e-02 -4.95122087e-02 1.11848383e+00)	(3.38127829e-04 1.14544992e-03 1.50000000e-03)	(2.45122554e-02 5.89831995e-07 1.22122064e+00)	(-5.25000000e-04 -6.81731646e-21 1.50000000e-03)
2.00000000e-03	p              	0.00000000e+00	(-5.25000000e-04 0.00000000e+00 2.16000000e-01)	3.10198237e+01	(-1.43951181e-04 1.45036143e-03 1.50000000e-03)
2.00000000e-03	U              	(-1.52451138e-02 -5.46656709e-02 1.15666805e+00)	(3.38127829e-04 1.14544992e-03 1.50000000e-03)	(2.85348082e-02 9.03154083e-08 1.28834018e+00)	(-5.25000000e-04 -6.81731646e-21 1.50000000e-03)
2.50000000e-03	p              	0.00000000e+00	(-5.25000000e-04 0.00000000e+00 2.16000000e-01)	2.83728103e+01	(-1.45036143e-03 1.43951181e-04 1.50000000e-03)
2.50000000e-03	U              	(-6.52570599e-03 -6.08626561e-02 1.25102921e+00)	(1.04101843e-04 1.11232387e-03 1.50000000e-03)	(3.16282589e-02 1.97888133e-08 1.33174580e+00)	(-5.25000000e-04 -6.81731646e-21 1.50000000e-03)
3.00000000e-03	p              	0.00000000e+00	(-5.25000000e-04 0.00000000e+00 2.16000000e-01)	2.65560645e+01	(1.43951181e-04 -1.45036143e-03 1.50000000e-03)
3.00000000e-03	U              	(-2.87192276e-02 -5.63003246e-02 1.30203711e+00)	(4.95742714e-04 9.50868554e-04 1.50000000e-03)	(3.38906369e-02 -1.27910348e-08 1.36046192e+00)	(-5.25000000e-04 -6.81731646e-21 1.50000000e-03)
3.50000000e-03	p              	0.00000000e+00	(-5.25000000e-04 0.00000000e+00 2.16000000e-01)	2.52290573e+01	(1.45036143e-03 -1.43951181e-04 1.50000000e-03)
3.50000000e-03	U              	(-6.99580704e-03 -6.62118149e-02 1.28547199e+00)	(1.04101843e-04 1.11232387e-03 1.50000000e-03)	(4.05124670e-02 1.92270225e-02 1.38043589e+00)	(-6.16107392e-04 -3.04594284e-04 1.50000000e-03)
4.00000000e-03	p              	0.00000000e+00	(-5.25000000e-04 0.00000000e+00 2.16000000e-01)	2.42144979e+01	(1.45036143e-03 -1.43951181e-04 1.50000000e-03)
4.00000000e-03	U              	(-7.12114647e-03 -6.77509433e-02 1.29628370e+00)	(1.04101843e-04 1.11232387e-03 1.50000000e-03)	(4.27529472e-02 3.41483889e-02 1.39601994e+00)	(-6.31068897e-04 -5.08944124e-04 1.50000000e-03)
4.50000000e-03	p              	0.00000000e+00	(-5.25000000e-04 0.00000000e+00 2.16000000e-01)	2.34139287e+01	(1.45036143e-03 -1.43951181e-04 1.50000000e-03)
4.50000000e-03	U              	(-7.20476503e-03 -6.88144266e-02 1.30493565e+00)	(1.04101843e-04 1.11232387e-03 1.50000000e-03)	(4.37449955e-02 3.49374943e-02 1.40843014e+00)	(-6.31068897e-04 -5.08944124e-04 1.50000000e-03)
5.00000000e-03	p              	0.00000000e+00	(-5.25000000e-04 0.00000000e+00 2.16000000e-01)	2.27671155e+01	(1.45036143e-03 -1.43951181e-04 1.50000000e-03)
5.00000000e-03	U              	(-7.26059276e-03 -6.95418053e-02 1.31205957e+00)	(1.04101843e-04 1.11232387e-03 1.50000000e-03)	(4.44271814e-02 3.54784111e-02 1.41815413e+00)	(-6.31068897e-04 -5.08944124e-04 1.50000000e-03)
5.50000000e-03	p              	0.00000000e+00	(-5.25000000e-04 0.00000000e+00 2.16000000e-01)	2.22347871e+01	(1.45036143e-03 -1.43951181e-04 1.50000000e-03)
5.50000000e-03	U              	(-7.29795032e-03 -7.00339632e-02 1.31797547e+00)	(1.04101843e-04 1.11232387e-03 1.50000000e-03)	(4.48807663e-02 3.58373187e-02 1.42599659e+00)	(-6.31068897e-04 -5.08944124e-04 1.50000000e-03)
6.00000000e-03	p              	0.00000000e+00	(-5.25000000e-04 0.00000000e+00 2.16000000e-01)	2.17901587e+01	(1.45036143e-03 -1.43951181e-04 1.50000000e-03)
6.00000000e-03	U              	(-7.32314493e-03 -7.03634204e-02 1.32286133e+00)	(1.04101843e-04 1.11232387e-03 1.50000000e-03)	(4.51707899e-02 3.60666565e-02 1.43244962e+00)	(-6.31068897e-04 -5.08944124e-04 1.50000000e-03)
6.50000000e-03	p              	0.00000000e+00	(-5.25000000e-04 0.00000000e+00 2.16000000e-01)	2.14142797e+01	(1.45036143e-03 -1.43951181e-04 1.50000000e-03)
6.50000000e-03	U              	(-7.34030550e-03 -7.05821052e-02 1.32683813e+00)	(1.04101843e-04 1.11232387e-03 1.50000000e-03)	(4.53480914e-02 3.62070862e-02 1.43781746e+00)	(-6.31068897e-04 -5.08944124e-04 1.50000000e-03)
7.00000000e-03	p              	0.00000000e+00	(-5.25000000e-04 0.00000000e+00 2.16000000e-01)	2.10933450e+01	(1.45036143e-03 -1.43951181e-04 1.50000000e-03)
7.00000000e-03	U              	(-7.35225896e-03 -7.07267408e-02 1.33000914e+00)	(1.04101843e-04 1.11232387e-03 1.50000000e-03)	(4.54512307e-02 3.62892455e-02 1.44229578e+00)	(-6.31068897e-04 -5.08944124e-04 1.50000000e-03)
7.50000000e-03	p              	0.00000000e+00	(-5.25000000e-04 0.00000000e+00 2.16000000e-01)	2.08170398e+01	(-1.45036143e-03 1.43951181e-04 1.50000000e-03)
7.50000000e-03	U              	(-7.36085828e-03 -7.08229298e-02 1.33247545e+00)	(1.04101843e-04 1.11232387e-03 1.50000000e-03)	(4.55084332e-02 3.63355224e-02 1.44602098e+00)	(-6.31068897e-04 -5.08944124e-04 1.50000000e-03)
8.00000000e-03	p              	0.00000000e+00	(-5.25000000e-04 0.00000000e+00 2.16000000e-01)	2.05774915e+01	(-1.45036143e-03 -1.43951181e-04 1.50000000e-03)
8.00000000e-03	U              	(-7.36729324e-03 -7.08882310e-02 1.33433925e+00)	(1.04101843e-04 1.11232387e-03 1.50000000e-03)	(4.55396374e-02 3.63615766e-02 1.44909853e+00)	(-6.31068897e-04 -5.08944124e-04 1.50000000e-03)
8.50000000e-03	p              	0.00000000e+00	(-5.25000000e-04 0.00000000e+00 2.16000000e-01)	2.03685760e+01	(-1.45036143e-03 1.43951181e-04 1.50000000e-03)
8.50000000e-03	U              	(-7.37230317e-03 -7.09343874e-02 1.33570179e+00)	(1.04101843e-04 1.11232387e-03 1.50000000e-03)	(4.55581850e-02 3.63778520e-02 1.45161812e+00)	(-6.31068897e-04 -5.08944124e-04 1.50000000e-03)
9.00000000e-03	p              	0.00000000e+00	(-5.25000000e-04 0.00000000e+00 2.16000000e-01)	2.01854501e+01	(-1.45036143e-03 1.43951181e-04 1.50000000e-03)
9.00000000e-03	U              	(-7.37637216e-03 -7.09690557e-02 1.33665968e+00)	(1.04101843e-04 1.11232387e-03 1.50000000e-03)	(4.55724657e-02 3.63908758e-02 1.45366047e+00)	(-6.31068897e-04 -5.08944124e-04 1.50000000e-03)
9.50000000e-03	p              	0.00000000e+00	(-5.25000000e-04 0.00000000e+00 2.16000000e-01)	2.00242283e+01	(1.45036143e-03 1.43951181e-04 1.50000000e-03)
9.50000000e-03	U              	(-7.37978700e-03 -7.09970174e-02 1.33730143e+00)	(1.04101843e-04 1.11232387e-03 1.50000000e-03)	(4.55872532e-02 3.64043041e-02 1.45529986e+00)	(-6.31068897e-04 -5.08944124e-04 1.50000000e-03)
1.00000000e-02	p              	0.00000000e+00	(-5.25000000e-04 0.00000000e+00 2.16000000e-01)	1.98817527e+01	(-1.45036143e-03 1.43951181e-04 1.50000000e-03)
1.00000000e-02	U              	(-7.38272803e-03 -7.10211151e-02 1.33770481e+00)	(1.04101843e-04 1.11232387e-03 1.50000000e-03)	(4.56048222e-02 3.64198540e-02 1.45660440e+00)	(-6.31068897e-04 -5.08944124e-04 1.50000000e-03)
1.05000000e-02	p              	0.00000000e+00	(-5.25000000e-04 0.00000000e+00 2.16000000e-01)	1.97554248e+01	(-1.43951181e-04 1.45036143e-03 1.50000000e-03)
1.05000000e-02	U              	(-7.38530034e-03 -7.10428934e-02 1.33793559e+00)	(1.04101843e-04 1.11232387e-03 1.50000000e-03)	(4.56257388e-02 3.64379275e-02 1.45763529e+00)	(-6.31068897e-04 -5.08944124e-04 1.50000000e-03)
1.10000000e-02	p              	0.00000000e+00	(-5.25000000e-04 0.00000000e+00 2.16000000e-01)	1.96430892e+01	(1.45036143e-03 1.43951181e-04 1.50000000e-03)
1.10000000e-02	U              	(-7.38756523e-03 -7.10631132e-02 1.33804732e+00)	(1.04101843e-04 1.11232387e-03 1.50000000e-03)	(4.56496233e-02 3.64581778e-02 1.45844640e+00)	(-6.31068897e-04 -5.08944124e-04 1.50000000e-03)
1.15000000e-02	p              	0.00000000e+00	(-5.25000000e-04 0.00000000e+00 2.16000000e-01)	1.95429399e+01	(-1.45036143e-03 -1.43951181e-04 1.50000000e-03)
1.15000000e-02	U              	(-7.38956173e-03 -7.10820571e-02 1.33808190e+00)	(1.04101843e-04 1.11232387e-03 1.50000000e-03)	(4.56755654e-02 3.64798695e-02 1.45908390e+00)	(-6.31068897e-04 -5.08944124e-04 1.50000000e-03)
1.20000000e-02	p              	0.00000000e+00	(-5.25000000e-04 0.00000000e+00 2.16000000e-01)	1.94534522e+01	(1.45036143e-03 1.43951181e-04 1.50000000e-03)
1.20000000e-02	U              	(-7.39132006e-03 -7.10997552e-02 1.33807085e+00)	(1.04101843e-04 1.11232387e-03 1.50000000e-03)	(4.57024631e-02 3.65021359e-02 1.45958632e+00)	(-6.31068897e-04 -5.08944124e-04 1.50000000e-03)
1.25000000e-02	p              	0.00000000e+00	(-5.25000000e-04 0.00000000e+00 2.16000000e-01)	1.93733303e+01	(-1.45036143e-03 -1.43951181e-04 1.50000000e-03)
1.25000000e-02	U              	(-7.39284983e-03 -7.11161280e-02 1.33803674e+00)	(1.04101843e-04 1.11232387e-03 1.50000000e-03)	(4.57292527e-02 3.65241370e-02 1.45998500e+00)	(-6.31068897e-04 -5.08944124e-04 1.50000000e-03)
1.30000000e-02	p              	0.00000000e+00	(-5.25000000e-04 0.00000000e+00 2.16000000e-01)	1.93014653e+01	(-1.45036143e-03 -1.43951181e-04 1.50000000e-03)
1.30000000e-02	U              	(-7.39417068e-03 -7.11310672e-02 1.33799489e+00)	(1.04101843e-04 1.11232387e-03 1.50000000e-03)	(4.57550127e-02 3.65451605e-02 1.46030481e+00)	(-6.31068897e-04 -5.08944124e-04 1.50000000e-03)
1.35000000e-02	p              	0.00000000e+00	(-5.25000000e-04 0.00000000e+00 2.16000000e-01)	1.92369035e+01	(1.45036143e-03 -1.43951181e-04 1.50000000e-03)
1.35000000e-02	U              	(-7.39530612e-03 -7.11444873e-02 1.33795492e+00)	(1.04101843e-04 1.11232387e-03 1.50000000e-03)	(4.57790308e-02 3.65646665e-02 1.46056500e+00)	(-6.31068897e-04 -5.08944124e-04 1.50000000e-03)
1.40000000e-02	p              	0.00000000e+00	(-5.25000000e-04 0.00000000e+00 2.16000000e-01)	1.91788213e+01	(-1.45036143e-03 1.43951181e-04 1.50000000e-03)
1.40000000e-02	U              	(-7.39626333e-03 -7.11563632e-02 1.33792218e+00)	(1.04101843e-04 1.11232387e-03 1.50000000e-03)	(4.58008307e-02 3.65822987e-02 1.46078015e+00)	(-6.31068897e-04 -5.08944124e-04 1.50000000e-03)
1.45000000e-02	p              	0.00000000e+00	(-5.25000000e-04 0.00000000e+00 2.16000000e-01)	1.91265019e+01	(1.45036143e-03 1.43951181e-04 1.50000000e-03)
1.45000000e-02	U              	(-7.39706856e-03 -7.11667073e-02 1.33789894e+00)	(1.04101843e-04 1.11232387e-03 1.50000000e-03)	(4.58201381e-02 3.65978671e-02 1.46096098e+00)	(-6.31068897e-04 -5.08944124e-04 1.50000000e-03)
1.50000000e-02	p              	0.00000000e+00	(-5.25000000e-04 0.00000000e+00 2.16000000e-01)	1.90793216e+01	(-1.45036143e-03 1.43951181e-04 1.50000000e-03)
1.50000000e-02	U              	(-7.39773568e-03 -7.11755822e-02 1.33788546e+00)	(1.04101843e-04 1.11232387e-03 1.50000000e-03)	(4.58368676e-02 3.66113184e-02 1.46111527e+00)	(-6.31068897e-04 -5.08944124e-04 1.50000000e-03)
1.55000000e-02	p              	0.00000000e+00	(-5.25000000e-04 0.00000000e+00 2.16000000e-01)	1.90367328e+01	(-1.45036143e-03 1.43951181e-04 1.50000000e-03)
1.55000000e-02	U              	(-7.39828618e-03 -7.11830900e-02 1.33788073e+00)	(1.04101843e-04 1.11232387e-03 1.50000000e-03)	(4.58510748e-02 3.66227182e-02 1.46124855e+00)	(-6.31068897e-04 -5.08944124e-04 1.50000000e-03)
1.60000000e-02	p              	0.00000000e+00	(-5.25000000e-04 0.00000000e+00 2.16000000e-01)	1.89982571e+01	(-1.45036143e-03 1.43951181e-04 1.50000000e-03)
1.60000000e-02	U              	(-7.39874083e-03 -7.11893530e-02 1.33788313e+00)	(1.04101843e-04 1.11232387e-03 1.50000000e-03)	(4.58629186e-02 3.66322096e-02 1.46136469e+00)	(-6.31068897e-04 -5.08944124e-04 1.50000000e-03)
1.65000000e-02	p              	0.00000000e+00	(-5.25000000e-04 0.00000000e+00 2.16000000e-01)	1.89634680e+01	(-1.45036143e-03 1.43951181e-04 1.50000000e-03)
1.65000000e-02	U              	(-7.39910958e-03 -7.11945225e-02 1.33789080e+00)	(1.04101843e-04 1.11232387e-03 1.50000000e-03)	(4.58726359e-02 3.66399814e-02 1.46146642e+00)	(-6.31068897e-04 -5.08944124e-04 1.50000000e-03)
1.70000000e-02	p              	0.00000000e+00	(-5.25000000e-04 0.00000000e+00 2.16000000e-01)	1.89319919e+01	(1.45036143e-03 -1.43951181e-04 1.50000000e-03)
1.70000000e-02	U              	(-7.39940822e-03 -7.11987417e-02 1.33790191e+00)	(1.04101843e-04 1.11232387e-03 1.50000000e-03)	(4.58804893e-02 3.66462555e-02 1.46155568e+00)	(-6.31068897e-04 -5.08944124e-04 1.50000000e-03)
1.75000000e-02	p              	0.00000000e+00	(-5.25000000e-04 0.00000000e+00 2.16000000e-01)	1.89034966e+01	(-1.45036143e-03 1.43951181e-04 1.50000000e-03)
1.75000000e-02	U              	(-7.39964794e-03 -7.12021574e-02 1.33791486e+00)	(1.04101843e-04 1.11232387e-03 1.50000000e-03)	(4.58867578e-02 3.66512601e-02 1.46163391e+00)	(-6.31068897e-04 -5.08944124e-04 1.50000000e-03)
1.80000000e-02	p              	0.00000000e+00	(-5.25000000e-04 0.00000000e+00 2.16000000e-01)	1.88776862e+01	(1.45036143e-03 1.43951181e-04 1.50000000e-03)
1.80000000e-02	U              	(-7.39984567e-03 -7.12049038e-02 1.33792837e+00)	(1.04101843e-04 1.11232387e-03 1.50000000e-03)	(4.58917084e-02 3.66552171e-02 1.46170225e+00)	(-6.31068897e-04 -5.08944124e-04 1.50000000e-03)
1.85000000e-02	p              	0.00000000e+00	(-5.25000000e-04 0.00000000e+00 2.16000000e-01)	1.88542973e+01	(-1.45036143e-03 1.43951181e-04 1.50000000e-03)
1.85000000e-02	U              	(-7.40000304e-03 -7.12071041e-02 1.33794148e+00)	(1.04101843e-04 1.11232387e-03 1.50000000e-03)	(4.58955958e-02 3.66583220e-02 1.46176168e+00)	(-6.31068897e-04 -5.08944124e-04 1.50000000e-03)
1.90000000e-02	p              	0.00000000e+00	(-5.25000000e-04 0.00000000e+00 2.16000000e-01)	1.88330940e+01	(1.45036143e-03 -1.43951181e-04 1.50000000e-03)
1.90000000e-02	U              	(-7.40013457e-03 -7.12088661e-02 1.33795353e+00)	(1.04101843e-04 1.11232387e-03 1.50000000e-03)	(4.58986384e-02 3.66607567e-02 1.46181306e+00)	(-6.31068897e-04 -5.08944124e-04 1.50000000e-03)
1.95000000e-02	p              	0.00000000e+00	(-5.25000000e-04 0.00000000e+00 2.16000000e-01)	1.88138664e+01	(-1.45036143e-03 1.43951181e-04 1.50000000e-03)
1.95000000e-02	U              	(-7.40024256e-03 -7.12102786e-02 1.33796417e+00)	(1.04101843e-04 1.11232387e-03 1.50000000e-03)	(4.59010223e-02 3.66626675e-02 1.46185724e+00)	(-6.31068897e-04 -5.08944124e-04 1.50000000e-03)
2.00000000e-02	p              	0.00000000e+00	(-5.25000000e-04 0.00000000e+00 2.16000000e-01)	1.87964245e+01	(1.45036143e-03 -1.43951181e-04 1.50000000e-03)
2.00000000e-02	U              	(-7.40033448e-03 -7.12114193e-02 1.33797321e+00)	(1.04101843e-04 1.11232387e-03 1.50000000e-03)	(4.59029054e-02 3.66641818e-02 1.46189499e+00)	(-6.31068897e-04 -5.08944124e-04 1.50000000e-03)
2.05000000e-02	p              	0.00000000e+00	(-5.25000000e-04 0.00000000e+00 2.16000000e-01)	1.87805986e+01	(-1.43951181e-04 1.45036143e-03 1.50000000e-03)
2.05000000e-02	U              	(-7.40041076e-03 -7.12123494e-02 1.33798066e+00)	(1.04101843e-04 1.11232387e-03 1.50000000e-03)	(4.59044117e-02 3.66653966e-02 1.46192709e+00)	(-6.31068897e-04 -5.08944124e-04 1.50000000e-03)
2.10000000e-02	p              	0.00000000e+00	(-5.25000000e-04 0.00000000e+00 2.16000000e-01)	1.87662362e+01	(-1.45036143e-03 -1.43951181e-04 1.50000000e-03)
2.10000000e-02	U              	(-7.40047518e-03 -7.12131150e-02 1.33798663e+00)	(1.04101843e-04 1.11232387e-03 1.50000000e-03)	(4.59056387e-02 3.66663869e-02 1.46195425e+00)	(-6.31068897e-04 -5.08944124e-04 1.50000000e-03)
2.15000000e-02	p              	0.00000000e+00	(-5.25000000e-04 0.00000000e+00 2.16000000e-01)	1.87531988e+01	(1.43951181e-04 -1.45036143e-03 1.50000000e-03)
2.15000000e-02	U              	(-7.40053134e-03 -7.12137545e-02 1.33799129e+00)	(1.04101843e-04 1.11232387e-03 1.50000000e-03)	(4.59066574e-02 3.66672132e-02 1.46197716e+00)	(-6.31068897e-04 -5.08944124e-04 1.50000000e-03)
2.20000000e-02	p              	0.00000000e+00	(-5.25000000e-04 0.00000000e+00 2.16000000e-01)	1.87413631e+01	(-1.43951181e-04 1.45036143e-03 1.50000000e-03)
2.20000000e-02	U              	(-7.40057825e-03 -7.12142975e-02 1.33799487e+00)	(1.04101843e-04 1.11232387e-03 1.50000000e-03)	(4.59075223e-02 3.66679117e-02 1.46199644e+00)	(-6.31068897e-04 -5.08944124e-04 1.50000000e-03)
2.25000000e-02	p              	0.00000000e+00	(-5.25000000e-04 0.00000000e+00 2.16000000e-01)	1.87306172e+01	(1.43951181e-04 1.45036143e-03 1.50000000e-03)
2.25000000e-02	U              	(-7.40062156e-03 -7.12147620e-02 1.33799756e+00)	(1.04101843e-04 1.11232387e-03 1.50000000e-03)	(4.59082665e-02 3.66685171e-02 1.46201264e+00)	(-6.31068897e-04 -5.08944124e-04 1.50000000e-03)
2.30000000e-02	p              	0.00000000e+00	(-5.25000000e-04 0.00000000e+00 2.16000000e-01)	1.87208580e+01	(-1.43951181e-04 1.45036143e-03 1.50000000e-03)
2.30000000e-02	U              	(-7.40065706e-03 -7.12151639e-02 1.33799957e+00)	(1.04101843e-04 1.11232387e-03 1.50000000e-03)	(4.59089234e-02 3.66690495e-02 1.46202629e+00)	(-6.31068897e-04 -5.08944124e-04 1.50000000e-03)
2.35000000e-02	p              	0.00000000e+00	(-5.25000000e-04 0.00000000e+00 2.16000000e-01)	1.87119947e+01	(-1.45036143e-03 -1.43951181e-04 1.50000000e-03)
2.35000000e-02	U              	(-7.40068901e-03 -7.12155171e-02 1.33800108e+00)	(1.04101843e-04 1.11232387e-03 1.50000000e-03)	(4.59095068e-02 3.66695235e-02 1.46203781e+00)	(-6.31068897e-04 -5.08944124e-04 1.50000000e-03)
2.40000000e-02	p              	0.00000000e+00	(-5.25000000e-04 0.00000000e+00 2.16000000e-01)	1.87039446e+01	(-1.43951181e-04 -1.45036143e-03 1.50000000e-03)
2.40000000e-02	U              	(-7.40071519e-03 -7.12158233e-02 1.33800224e+00)	(1.04101843e-04 1.11232387e-03 1.50000000e-03)	(4.59100227e-02 3.66699414e-02 1.46204755e+00)	(-6.31068897e-04 -5.08944124e-04 1.50000000e-03)
2.45000000e-02	p              	0.00000000e+00	(-5.25000000e-04 0.00000000e+00 2.16000000e-01)	1.86966321e+01	(1.43951181e-04 -1.45036143e-03 1.50000000e-03)
2.45000000e-02	U              	(-7.40073983e-03 -7.12160938e-02 1.33800314e+00)	(1.04101843e-04 1.11232387e-03 1.50000000e-03)	(4.59104870e-02 3.66703170e-02 1.46205583e+00)	(-6.31068897e-04 -5.08944124e-04 1.50000000e-03)
2.50000000e-02	p              	0.00000000e+00	(-5.25000000e-04 0.00000000e+00 2.16000000e-01)	1.86899899e+01	(-1.45036143e-03 1.43951181e-04 1.50000000e-03)
2.50000000e-02	U              	(-7.40075674e-03 -7.12163312e-02 1.33800390e+00)	(1.04101843e-04 1.11232387e-03 1.50000000e-03)	(4.59109037e-02 3.66706495e-02 1.46206292e+00)	(-6.31068897e-04 -5.08944124e-04 1.50000000e-03)
2.55000000e-02	p              	0.00000000e+00	(-5.25000000e-04 0.00000000e+00 2.16000000e-01)	1.86839557e+01	(-1.43951181e-04 1.45036143e-03 1.50000000e-03)
2.55000000e-02	U              	(-7.40077513e-03 -7.12165405e-02 1.33800455e+00)	(1.04101843e-04 1.11232387e-03 1.50000000e-03)	(4.59112677e-02 3.66709445e-02 1.46206900e+00)	(-6.31068897e-04 -5.08944124e-04 1.50000000e-03)
2.60000000e-02	p              	0.00000000e+00	(-5.25000000e-04 0.00000000e+00 2.16000000e-01)	1.86784738e+01	(1.45036143e-03 -1.43951181e-04 1.50000000e-03)
2.60000000e-02	U              	(-7.40079340e-03 -7.12167221e-02 1.33800514e+00)	(1.04101843e-04 1.11232387e-03 1.50000000e-03)	(4.59115887e-02 3.66712021e-02 1.46207424e+00)	(-6.31068897e-04 -5.08944124e-04 1.50000000e-03)
2.65000000e-02	p              	0.00000000e+00	(-5.25000000e-04 0.00000000e+00 2.16000000e-01)	1.86734942e+01	(1.45036143e-03 1.43951181e-04 1.50000000e-03)
2.65000000e-02	U              	(-7.40080743e-03 -7.12168780e-02 1.33800570e+00)	(1.04101843e-04 1.11232387e-03 1.50000000e-03)	(4.59118679e-02 3.66714279e-02 1.46207882e+00)	(-6.31068897e-04 -5.08944124e-04 1.50000000e-03)
2.70000000e-02	p              	0.00000000e+00	(-5.25000000e-04 0.00000000e+00 2.16000000e-01)	1.86689694e+01	(-1.45036143e-03 -1.43951181e-04 1.50000000e-03)
2.70000000e-02	U              	(-7.40081641e-03 -7.12170151e-02 1.33800624e+00)	(1.04101843e-04 1.11232387e-03 1.50000000e-03)	(4.59121170e-02 3.66716252e-02 1.46208278e+00)	(-6.31068897e-04 -5.08944124e-04 1.50000000e-03)
2.75000000e-02	p              	0.00000000e+00	(-5.25000000e-04 0.00000000e+00 2.16000000e-01)	1.86648593e+01	(1.45036143e-03 1.43951181e-04 1.50000000e-03)
2.75000000e-02	U              	(-7.40082478e-03 -7.12171331e-02 1.33800675e+00)	(1.04101843e-04 1.11232387e-03 1.50000000e-03)	(4.59123257e-02 3.66717939e-02 1.46208625e+00)	(-6.31068897e-04 -5.08944124e-04 1.50000000e-03)
2.80000000e-02	p              	0.00000000e+00	(-5.25000000e-04 0.00000000e+00 2.16000000e-01)	1.86611246e+01	(1.43951181e-04 -1.45036143e-03 1.50000000e-03)
2.80000000e-02	U              	(-7.40083536e-03 -7.12172359e-02 1.33800722e+00)	(1.04101843e-04 1.11232387e-03 1.50000000e-03)	(4.59125045e-02 3.66719391e-02 1.46208926e+00)	(-6.31068897e-04 -5.08944124e-04 1.50000000e-03)
2.85000000e-02	p              	0.00000000e+00	(-5.25000000e-04 0.00000000e+00 2.16000000e-01)	1.86577323e+01	(1.45036143e-03 1.43951181e-04 1.50000000e-03)
2.85000000e-02	U              	(-7.40084358e-03 -7.12173232e-02 1.33800767e+00)	(1.04101843e-04 1.11232387e-03 1.50000000e-03)	(4.59126591e-02 3.66720601e-02 1.46209191e+00)	(-6.31068897e-04 -5.08944124e-04 1.50000000e-03)
2.90000000e-02	p              	0.00000000e+00	(-5.25000000e-04 0.00000000e+00 2.16000000e-01)	1.86546923e+01	(-1.45036143e-03 1.43951181e-04 1.50000000e-03)
2.90000000e-02	U              	(-7.40084367e-03 -7.12173968e-02 1.33800810e+00)	(1.04101843e-04 1.11232387e-03 1.50000000e-03)	(4.59127909e-02 3.66721620e-02 1.46209423e+00)	(-6.31068897e-04 -5.08944124e-04 1.50000000e-03)
2.95000000e-02	p              	0.00000000e+00	(-5.25000000e-04 0.00000000e+00 2.16000000e-01)	1.86518351e+01	(1.45036143e-03 1.43951181e-04 1.50000000e-03)
2.95000000e-02	U              	(-7.40085189e-03 -7.12174590e-02 1.33800847e+00)	(1.04101843e-04 1.11232387e-03 1.50000000e-03)	(4.59129004e-02 3.66722530e-02 1.46209624e+00)	(-6.31068897e-04 -5.08944124e-04 1.50000000e-03)
3.00000000e-02	p              	0.00000000e+00	(-5.25000000e-04 0.00000000e+00 2.16000000e-01)	1.86493069e+01	(1.45036143e-03 -1.43951181e-04 1.50000000e-03)
3.00000000e-02	U              	(-7.40085613e-03 -7.12175111e-02 1.33800881e+00)	(1.04101843e-04 1.11232387e-03 1.50000000e-03)	(4.59129955e-02 3.66723252e-02 1.46209800e+00)	(-6.31068897e-04 -5.08944124e-04 1.50000000e-03)
3.05000000e-02	p              	0.00000000e+00	(-5.25000000e-04 0.00000000e+00 2.16000000e-01)	1.86469964e+01	(-1.43951181e-04 -1.45036143e-03 1.50000000e-03)
3.05000000e-02	U              	(-7.40085851e-03 -7.12175574e-02 1.33800913e+00)	(1.04101843e-04 1.11232387e-03 1.50000000e-03)	(4.59130742e-02 3.66723937e-02 1.46209954e+00)	(-6.31068897e-04 -5.08944124e-04 1.50000000e-03)
3.10000000e-02	p              	0.00000000e+00	(-5.25000000e-04 0.00000000e+00 2.16000000e-01)	1.86448971e+01	(1.43951181e-04 1.45036143e-03 1.50000000e-03)
3.10000000e-02	U              	(-7.40086227e-03 -7.12175981e-02 1.33800940e+00)	(1.04101843e-04 1.11232387e-03 1.50000000e-03)	(4.59131400e-02 3.66724430e-02 1.46210087e+00)	(-6.31068897e-04 -5.08944124e-04 1.50000000e-03)
3.15000000e-02	p              	0.00000000e+00	(-5.25000000e-04 0.00000000e+00 2.16000000e-01)	1.86429902e+01	(1.43951181e-04 -1.45036143e-03 1.50000000e-03)
3.15000000e-02	U              	(-7.40086738e-03 -7.12176289e-02 1.33800963e+00)	(1.04101843e-04 1.11232387e-03 1.50000000e-03)	(4.59131961e-02 3.66724904e-02 1.46210202e+00)	(-6.31068897e-04 -5.08944124e-04 1.50000000e-03)
3.20000000e-02	p              	0.00000000e+00	(-5.25000000e-04 0.00000000e+00 2.16000000e-01)	1.86412582e+01	(-1.43951181e-04 1.45036143e-03 1.50000000e-03)
3.20000000e-02	U              	(-7.40086720e-03 -7.12176586e-02 1.33800983e+00)	(1.04101843e-04 1.11232387e-03 1.50000000e-03)	(4.59132464e-02 3.66725266e-02 1.46210303e+00)	(-6.31068897e-04 -5.08944124e-04 1.50000000e-03)
3.25000000e-02	p              	0.00000000e+00	(-5.25000000e-04 0.00000000e+00 2.16000000e-01)	1.86396848e+01	(1.45036143e-03 1.43951181e-04 1.50000000e-03)
3.25000000e-02	U              	(-7.40087136e-03 -7.12176825e-02 1.33801000e+00)	(1.04101843e-04 1.11232387e-03 1.50000000e-03)	(4.59132840e-02 3.66725629e-02 1.46210390e+00)	(-6.31068897e-04 -5.08944124e-04 1.50000000e-03)
3.30000000e-02	p              	0.00000000e+00	(-5.25000000e-04 0.00000000e+00 2.16000000e-01)	1.86382557e+01	(-1.45036143e-03 -1.43951181e-04 1.50000000e-03)
3.30000000e-02	U              	(-7.40087043e-03 -7.12177038e-02 1.33801014e+00)	(1.04101843e-04 1.11232387e-03 1.50000000e-03)	(4.59133224e-02 3.66725920e-02 1.46210465e+00)	(-6.31068897e-04 -5.08944124e-04 1.50000000e-03)
3.35000000e-02	p              	0.00000000e+00	(-5.25000000e-04 0.00000000e+00 2.16000000e-01)	1.86369584e+01	(-1.45036143e-03 1.43951181e-04 1.50000000e-03)
3.35000000e-02	U              	(-7.40087062e-03 -7.12177225e-02 1.33801026e+00)	(1.04101843e-04 1.11232387e-03 1.50000000e-03)	(4.59133531e-02 3.66726158e-02 1.46210530e+00)	(-6.31068897e-04 -5.08944124e-04 1.50000000e-03)
3.40000000e-02	p              	0.00000000e+00	(-5.25000000e-04 0.00000000e+00 2.16000000e-01)	1.86357785e+01	(1.45036143e-03 1.43951181e-04 1.50000000e-03)
3.40000000e-02	U              	(-7.40087462e-03 -7.12177367e-02 1.33801037e+00)	(1.04101843e-04 1.11232387e-03 1.50000000e-03)	(4.59133753e-02 3.66726384e-02 1.46210588e+00)	(-6.31068897e-04 -5.08944124e-04 1.50000000e-03)
3.45000000e-02	p              	0.00000000e+00	(-5.25000000e-04 0.00000000e+00 2.16000000e-01)	1.86347091e+01	(-1.43951181e-04 -1.45036143e-03 1.50000000e-03)
3.45000000e-02	U              	(-7.40087622e-03 -7.12177545e-02 1.33801045e+00)	(1.04101843e-04 1.11232387e-03 1.50000000e-03)	(4.59134033e-02 3.66726616e-02 1.46210635e+00)	(-6.31068897e-04 -5.08944124e-04 1.50000000e-03)
3.50000000e-02	p              	0.00000000e+00	(-5.25000000e-04 0.00000000e+00 2.16000000e-01)	1.86337386e+01	(1.45036143e-03 -1.43951181e-04 1.50000000e-03)
3.50000000e-02	U              	(-7.40087791e-03 -7.12177655e-02 1.33801052e+00)	(1.04101843e-04 1.11232387e-03 1.50000000e-03)	(4.59134198e-02 3.66726743e-02 1.46210678e+00)	(-6.31068897e-04 -5.08944124e-04 1.50000000e-03)
3.55000000e-02	p              	0.00000000e+00	(-5.25000000e-04 0.00000000e+00 2.16000000e-01)	1.86328555e+01	(-1.43951181e-04 -1.45036143e-03 1.50000000e-03)
3.55000000e-02	U              	(-7.40087738e-03 -7.12177745e-02 1.33801058e+00)	(1.04101843e-04 1.11232387e-03 1.50000000e-03)	(4.59134444e-02 3.66726917e-02 1.46210715e+00)	(-6.31068897e-04 -5.08944124e-04 1.50000000e-03)
3.60000000e-02	p              	0.00000000e+00	(-5.25000000e-04 0.00000000e+00 2.16000000e-01)	1.86320544e+01	(-1.43951181e-04 1.45036143e-03 1.50000000e-03)
3.60000000e-02	U              	(-7.40087553e-03 -7.12177835e-02 1.33801064e+00)	(1.04101843e-04 1.11232387e-03 1.50000000e-03)	(4.59134565e-02 3.66727000e-02 1.46210746e+00)	(-6.31068897e-04 -5.08944124e-04 1.50000000e-03)
3.65000000e-02	p              	0.00000000e+00	(-5.25000000e-04 0.00000000e+00 2.16000000e-01)	1.86313274e+01	(-1.45036143e-03 1.43951181e-04 1.50000000e-03)
3.65000000e-02	U              	(-7.40087493e-03 -7.12177932e-02 1.33801069e+00)	(1.04101843e-04 1.11232387e-03 1.50000000e-03)	(4.59134766e-02 3.66727106e-02 1.46210775e+00)	(-6.31068897e-04 -5.08944124e-04 1.50000000e-03)
3.70000000e-02	p              	0.00000000e+00	(-5.25000000e-04 0.00000000e+00 2.16000000e-01)	1.86306663e+01	(-1.45036143e-03 1.43951181e-04 1.50000000e-03)
3.70000000e-02	U              	(-7.40087555e-03 -7.12177993e-02 1.33801072e+00)	(1.04101843e-04 1.11232387e-03 1.50000000e-03)	(4.59134847e-02 3.66727228e-02 1.46210798e+00)	(-6.31068897e-04 -5.08944124e-04 1.50000000e-03)
3.75000000e-02	p              	0.00000000e+00	(-5.25000000e-04 0.00000000e+00 2.16000000e-01)	1.86300671e+01	(1.45036143e-03 1.43951181e-04 1.50000000e-03)
3.75000000e-02	U              	(-7.40088110e-03 -7.12178055e-02 1.33801076e+00)	(1.04101843e-04 1.11232387e-03 1.50000000e-03)	(4.59134938e-02 3.66727324e-02 1.46210821e+00)	(-6.31068897e-04 -5.08944124e-04 1.50000000e-03)
3.80000000e-02	p              	0.00000000e+00	(-5.25000000e-04 0.00000000e+00 2.16000000e-01)	1.86295221e+01	(1.45036143e-03 1.43951181e-04 1.50000000e-03)
3.80000000e-02	U              	(-7.40088002e-03 -7.12178098e-02 1.33801079e+00)	(1.04101843e-04 1.11232387e-03 1.50000000e-03)	(4.59135034e-02 3.66727394e-02 1.46210838e+00)	(-6.31068897e-04 -5.08944124e-04 1.50000000e-03)
3.85000000e-02	p              	0.00000000e+00	(-5.25000000e-04 0.00000000e+00 2.16000000e-01)	1.86290248e+01	(-1.43951181e-04 -1.45036143e-03 1.50000000e-03)
3.85000000e-02	U              	(-7.40088093e-03 -7.12178151e-02 1.33801081e+00)	(1.04101843e-04 1.11232387e-03 1.50000000e-03)	(4.59135127e-02 3.66727469e-02 1.46210854e+00)	(-6.31068897e-04 -5.08944124e-04 1.50000000e-03)
3.90000000e-02	p              	0.00000000e+00	(-5.25000000e-04 0.00000000e+00 2.16000000e-01)	1.86285801e+01	(-1.45036143e-03 1.43951181e-04 1.50000000e-03)
3.90000000e-02	U              	(-7.40087880e-03 -7.12178203e-02 1.33801085e+00)	(1.04101843e-04 1.11232387e-03 1.50000000e-03)	(4.59135195e-02 3.66727508e-02 1.46210870e+00)	(-6.31068897e-04 -5.08944124e-04 1.50000000e-03)
3.95000000e-02	p              	0.00000000e+00	(-5.25000000e-04 0.00000000e+00 2.16000000e-01)	1.86281735e+01	(1.43951181e-04 -1.45036143e-03 1.50000000e-03)