/*--------------------------------*- C++ -*----------------------------------*\
| =========                 |                                                 |
| \\      /  F ield         | OpenFOAM: The Open Source CFD Toolbox           |
|  \\    /   O peration     | Version:  2112                                  |
|   \\  /    A nd           | Website:  www.openfoam.com                      |
|    \\/     M anipulation  |                                                 |
\*---------------------------------------------------------------------------*/
FoamFile
{
    version     2.0;
    format      ascii;
    arch        "LSB;label=32;scalar=64";
    class       volScalarField;
    location    "0.4995";
    object      Ma;
}
// * * * * * * * * * * * * * * * * * * * * * * * * * * * * * * * * * * * * * //

dimensions      [0 0 0 0 0 0 0];

internalField   nonuniform List<scalar> 
7000
(
3.00001
3
3
3
3
3
3
3
3
3
3
3
3
3.00001
3
3
2.99995
2.99984
2.99941
2.99846
2.99662
2.98961
2.98051
2.93648
2.81219
2.45442
1.66681
0.825228
0.272616
0.270065
0.312391
0.328572
0.313085
0.287182
0.259773
0.240405
0.225611
0.210701
0.194704
0.177849
0.161189
0.145057
0.128806
0.112379
0.094145
0.0760624
0.052513
0.0453178
0.0260726
0.0290207
3.00001
3
3
3
3
3
3
3
3
3
3
3
3.00001
3
3.00001
3
2.99998
2.99978
2.99959
2.99832
2.99731
2.99071
2.98006
2.94624
2.81513
2.47406
1.6895
0.851709
0.285819
0.273031
0.316406
0.332539
0.316005
0.288376
0.259716
0.239508
0.22403
0.208434
0.192038
0.174647
0.157595
0.14118
0.125019
0.108939
0.0922621
0.0759169
0.058637
0.0546803
0.0270857
0.00836972
3.00001
3
3
3
3
3
3
3
3
3
3
3
3
3
3.00001
3
2.99998
2.99981
2.99961
2.99849
2.9974
2.99102
2.98114
2.93294
2.82897
2.4902
1.70923
0.87712
0.291721
0.261728
0.308887
0.328039
0.313729
0.28781
0.260328
0.240836
0.225569
0.210058
0.193604
0.175929
0.158778
0.142555
0.126642
0.110752
0.0948131
0.0797952
0.0666924
0.063359
0.0470951
0.0270308
3.00001
3
3
3
3
3
3
3
3
3
3
3
3
3
3.00001
3
2.99997
2.99984
2.99961
2.99863
2.99745
2.99183
2.98231
2.93747
2.83459
2.51176
1.73684
0.907649
0.305297
0.258398
0.308529
0.329466
0.315922
0.290331
0.262912
0.243389
0.228183
0.212686
0.196642
0.179321
0.162568
0.146788
0.131517
0.116044
0.100547
0.0862834
0.0747199
0.0706099
0.0586146
0.0404919
3.00001
3
3
3
3
3
3
3
3
3
3
3
3
3
3
3
2.99995
2.99987
2.99939
2.99891
2.9962
2.99296
2.97039
2.94896
2.84647
2.52046
1.77603
0.941557
0.323154
0.25535
0.308999
0.33207
0.319137
0.293825
0.266531
0.247146
0.232093
0.216975
0.201239
0.184444
0.168404
0.153189
0.13861
0.123868
0.108915
0.0951558
0.0839702
0.0790669
0.0708556
0.0595852
3.00001
3
3
3
3
3
3
3
3
3
3
3
3
3
3.00001
2.99999
2.99998
2.9998
2.99965
2.99851
2.99675
2.99267
2.96797
2.97152
2.85011
2.53598
1.80898
0.979796
0.347256
0.257149
0.314372
0.339175
0.326433
0.301058
0.273461
0.253879
0.238653
0.223738
0.208071
0.191741
0.176031
0.161502
0.147902
0.133806
0.119498
0.106413
0.0954628
0.0899924
0.0845542
0.0785087
3.00001
3
3
3
3
3
3
3
3
3
3
3
3
3
3
2.99999
2.99998
2.99981
2.99965
2.99872
2.99747
2.9939
2.97215
2.98985
2.83776
2.56634
1.87367
1.04937
0.379019
0.254171
0.316158
0.343969
0.33242
0.308044
0.280918
0.26158
0.246569
0.232138
0.216822
0.200925
0.185775
0.171721
0.159019
0.145695
0.13223
0.119771
0.109212
0.103275
0.0992939
0.0968335
3.00001
3
3
3
3
3
3
3
3
3
3
3
3
3
3
2.99999
2.99998
2.9998
2.99967
2.99872
2.99781
2.99482
2.97953
2.98453
2.85225
2.6138
1.92934
1.12306
0.415354
0.255553
0.320703
0.350267
0.33915
0.315386
0.288767
0.269793
0.255356
0.241927
0.227427
0.211904
0.197327
0.1839
0.172058
0.1595
0.146866
0.135222
0.125023
0.118705
0.115227
0.115249
3.00001
3
3
3
3
3
3
3
3
3
3
3
3
3
3
2.99999
2.99998
2.99981
2.99969
2.99872
2.99798
2.9939
2.9859
2.97985
2.86167
2.64236
2.02362
1.21876
0.462801
0.261543
0.327556
0.358021
0.347397
0.324415
0.298498
0.279603
0.265793
0.253395
0.239811
0.224875
0.210831
0.198007
0.186722
0.174803
0.163001
0.151957
0.142262
0.135863
0.132597
0.13424
3.00001
3.00001
3
3
3
3
3
3
3
3
3
3
3
3
3
2.99999
2.99998
2.99983
2.99972
2.99885
2.99814
2.99355
2.98782
2.95569
2.8889
2.68856
2.1271
1.33748
0.522828
0.271996
0.3361
0.366142
0.35737
0.336171
0.311592
0.292458
0.278992
0.267325
0.254443
0.239931
0.226519
0.214031
0.203481
0.192501
0.18114
0.170727
0.16136
0.154941
0.151578
0.154226
3.00001
3.00001
3
3
3
3
3
3
3
3
3
3
3
3
3
3
2.99994
2.99988
2.99941
2.99908
2.99619
2.99502
2.97538
2.98114
2.90814
2.7169
2.24976
1.46036
0.593552
0.288753
0.344367
0.370542
0.366957
0.349236
0.326629
0.307331
0.294302
0.283438
0.271092
0.256893
0.243736
0.23183
0.221791
0.211638
0.201265
0.191338
0.182226
0.175973
0.172413
0.175508
3.00001
3.00001
3
3
3
3
3
3
3
3
3
3
3
3
3
3
2.99999
2.99989
2.99981
2.9992
2.9987
2.99568
2.98941
2.9672
2.91772
2.7491
2.36329
1.59654
0.689804
0.331551
0.351097
0.371641
0.378209
0.364445
0.343606
0.324208
0.311783
0.301716
0.289798
0.275985
0.263488
0.252085
0.242608
0.23321
0.223147
0.213894
0.205357
0.19932
0.195109
0.19824
3.00001
3.00001
3.00001
3
3
3
3
3
3
3
3
3
3
3
3
3
2.99997
2.99994
2.99972
2.99954
2.99839
2.9976
2.99092
2.97225
2.93126
2.78023
2.44939
1.73834
0.805861
0.393865
0.347989
0.372612
0.390042
0.380107
0.360603
0.341516
0.330145
0.321171
0.31012
0.296879
0.284695
0.274126
0.265595
0.25737
0.248005
0.239009
0.230655
0.224989
0.220828
0.22326
3.00001
3.00001
3.00001
3.00001
3
3
3
3
3
3
3
3
3
3
3
3
3
2.99993
2.99989
2.99958
2.99916
2.99794
2.9929
2.9779
2.94161
2.81674
2.53045
1.87793
0.95436
0.471659
0.346648
0.38003
0.40589
0.397953
0.379216
0.36092
0.350812
0.342707
0.332069
0.319258
0.307869
0.29812
0.29048
0.283892
0.275925
0.267263
0.259513
0.254376
0.249463
0.251354
3.00001
3.00001
3.00001
3.00001
3.00001
3
3
3
3
3
3
3
3
3
3
3
3
2.99993
2.9999
2.99959
2.99917
2.99839
2.99242
2.99238
2.9483
2.8635
2.61339
2.0265
1.13719
0.563664
0.350725
0.392909
0.424346
0.416037
0.396685
0.379628
0.371087
0.364168
0.354975
0.343498
0.333216
0.324756
0.318478
0.312896
0.306824
0.299549
0.292057
0.287617
0.283082
0.283691
3.00001
3.00001
3.00001
3.00001
3.00001
3.00001
3.00001
3
3
3
3
3
3
3
3
3
2.99999
2.99993
2.99989
2.99955
2.99906
2.9985
2.99365
2.9997
2.97233
2.90904
2.71432
2.19927
1.32413
0.653569
0.3602
0.408265
0.440216
0.431643
0.413598
0.399047
0.392459
0.386988
0.379457
0.369636
0.360793
0.354183
0.349771
0.346326
0.341502
0.3364
0.330449
0.326887
0.321756
0.322593
3.00001
3.00001
3.00001
3.00001
3.00001
3.00001
3.00001
3.00001
3.00001
3.00001
3
3
3
3
3
3
2.99999
2.99998
2.99991
2.99983
2.9996
2.99814
2.99657
2.98038
2.97885
2.91394
2.74653
2.27404
1.52729
0.661316
0.351231
0.409581
0.43986
0.438961
0.429287
0.420841
0.41676
0.412574
0.406576
0.397998
0.391171
0.386487
0.38408
0.383226
0.382077
0.377978
0.374273
0.374036
0.370966
0.371008
3.00001
3.00001
3.00001
3.00001
3.00001
3.00001
3.00001
3.00001
3.00001
3.00001
3.00001
3.00001
3.00001
3.00001
3
3
2.99999
2.99998
2.99992
2.99978
2.99953
2.99848
2.99717
2.98688
2.99135
2.92172
2.7912
2.42962
1.73383
0.789218
0.436417
0.428689
0.444099
0.452927
0.450415
0.446197
0.443185
0.440747
0.436679
0.429633
0.424701
0.422247
0.422579
0.424852
0.427683
0.428809
0.427289
0.430847
0.432021
0.43652
3.00001
3.00001
3.00001
3.00001
3.00001
3.00001
3.00001
3.00001
3.00001
3.00001
3.00001
3.00001
3.00001
3.00001
3
3
3
2.99999
2.99997
2.99992
2.99983
2.99916
2.9986
2.99096
2.99346
2.9398
2.84665
2.56116
1.95762
1.01243
0.573313
0.458048
0.469884
0.481291
0.481226
0.477249
0.474382
0.472761
0.470047
0.464837
0.461772
0.462167
0.465563
0.471514
0.479503
0.48764
0.493793
0.506054
0.517551
0.532526
3.00001
3.00001
3.00001
3.00001
3.00001
3.00001
3.00001
3.00001
3.00001
3.00001
3.00001
3.00001
3.00001
3.00001
3
3
3
2.99998
2.99995
2.9998
2.99981
2.99936
2.99875
2.99465
2.99184
2.96428
2.9262
2.702
2.22009
1.35576
0.721967
0.477898
0.490383
0.507733
0.513182
0.510176
0.50742
0.506019
0.504451
0.502131
0.502465
0.506713
0.514217
0.525144
0.539638
0.557642
0.574227
0.602431
0.641863
0.727763
3.00001
3.00001
3.00001
3.00001
3.00001
3.00001
3.00001
3.00001
3.00001
3.00001
3.00001
3.00001
3.00001
3.00001
3.00001
3.00001
3
3
2.99998
2.99994
2.9997
2.99966
2.99878
2.9965
2.99055
2.97043
2.91907
2.77391
2.39476
1.69072
0.818611
0.513817
0.516651
0.538714
0.551038
0.552169
0.551311
0.552415
0.554134
0.557297
0.562351
0.570984
0.583851
0.601572
0.62509
0.657111
0.697792
0.753201
0.843844
0.972532
3.00001
3.00001
3.00001
3.00001
3.00001
3.00001
3.00001
3.00001
3.00001
3.00001
3.00001
3.00001
3.00001
3.00001
3.00001
3.00001
3
3
2.99998
2.99995
2.99976
2.99973
2.99937
2.99889
2.99442
2.99132
2.95354
2.87847
2.62139
2.02438
1.14588
0.691616
0.563152
0.571836
0.586938
0.59668
0.599939
0.603632
0.608524
0.614761
0.622866
0.634695
0.652138
0.676094
0.707586
0.750376
0.806861
0.882509
0.994907
1.12442
3.00001
3.00001
3.00001
3.00001
3.00001
3.00001
3.00001
3.00001
3.00001
3.00001
3.00001
3.00001
3.00001
3.00001
3.00001
3.00001
3.00001
3
2.99999
2.99998
2.9999
2.99985
2.9992
2.99952
2.99584
2.98773
2.97205
2.92444
2.7928
2.42075
1.66472
0.927984
0.582722
0.589702
0.617812
0.639589
0.646956
0.65172
0.661407
0.67304
0.68552
0.700834
0.720888
0.747851
0.783171
0.829118
0.888517
0.963766
1.06712
1.17546
3.00001
3.00001
3.00001
3.00001
3.00001
3.00001
3.00001
3.00001
3.00001
3.00001
3.00001
3.00001
3.00001
3.00001
3.00001
3.00001
3.00001
3.00001
3
2.99999
2.99993
2.99989
2.99942
2.99911
2.9967
2.99469
2.97815
2.97171
2.8561
2.61078
1.9782
1.22371
0.693124
0.625623
0.651503
0.676644
0.689897
0.698657
0.710187
0.724176
0.740224
0.758568
0.781127
0.809555
0.845288
0.890179
0.945839
1.01408
1.10013
1.19137
3.00001
3.00001
3.00001
3.00001
3.00001
3.00001
3.00001
3.00001
3.00001
3.00001
3.00001
3.00001
3.00001
3.00001
3.00001
3.00001
3.00001
3.00001
3
3
2.99999
2.99998
2.99987
2.99982
2.99861
2.99797
2.98605
2.98817
2.91632
2.77335
2.42774
1.72705
0.947517
0.71608
0.705469
0.721057
0.735136
0.744664
0.757039
0.772567
0.790175
0.81023
0.833993
0.862874
0.897331
0.939531
0.988892
1.04936
1.12266
1.19842
3.00001
3.00001
3.00001
3.00001
3.00001
3.00001
3.00001
3.00001
3.00001
3.00001
3.00001
3.00001
3.00001
3.00001
3.00001
3.00001
3.00001
3.00001
3.00001
3
2.99999
2.99995
2.99995
2.99977
2.99956
2.99742
2.99683
2.98124
2.9847
2.87884
2.70482
2.18152
1.44333
0.846122
0.764005
0.77127
0.783378
0.795694
0.806639
0.819842
0.837672
0.857819
0.88058
0.907312
0.938804
0.976535
1.02067
1.0724
1.13537
1.20007
3.00001
3.00001
3.00001
3.00001
3.00001
3.00001
3.00001
3.00001
3.00001
3.00001
3.00001
3.00001
3.00001
3.00001
3.00001
3.00001
3.00001
3.00001
3.00001
3
3
2.99999
2.99994
2.99992
2.99961
2.99927
2.99755
2.99529
2.9822
2.9502
2.86834
2.60949
2.03732
1.23583
0.901685
0.835378
0.829638
0.838805
0.852502
0.866379
0.882376
0.901242
0.923381
0.949384
0.977664
1.00989
1.04768
1.09189
1.14546
1.20148
3.00001
3.00001
3.00001
3.00001
3.00001
3.00001
3.00001
3.00001
3.00001
3.00001
3.00001
3.00001
3.00001
3.00001
3.00001
3.00001
3.00001
3.00001
3.00001
3.00001
3.00001
3
2.99999
2.99996
2.99987
2.99936
2.99914
2.99509
2.99451
2.96966
2.9503
2.84656
2.57893
1.91491
1.2569
0.912536
0.872252
0.874831
0.889419
0.907689
0.923558
0.940096
0.959484
0.982055
1.0094
1.0406
1.07458
1.11368
1.15996
1.20801
3.00001
3.00001
3.00001
3.00001
3.00001
3.00001
3.00001
3.00001
3.00001
3.00001
3.00001
3.00001
3.00001
3.00001
3.00001
3.00001
3.00001
3.00001
3.00001
3.00001
3.00001
3
3
2.99999
2.99992
2.99988
2.99951
2.99893
2.99689
2.99233
2.97427
2.93473
2.81817
2.52302
1.87459
1.20104
0.9679
0.931303
0.936238
0.949154
0.967481
0.985028
1.00281
1.02303
1.04765
1.07547
1.10604
1.14108
1.18251
1.2246
3.00001
3.00001
3.00001
3.00001
3.00001
3.00001
3.00001
3.00001
3.00001
3.00001
3.00001
3.00001
3.00001
3.00001
3.00001
3.00001
3.00001
3.00001
3.00001
3.00001
3.00001
3.00001
3
3
2.99998
2.99992
2.99989
2.99951
2.9989
2.99676
2.99235
2.97487
2.93228
2.81869
2.53796
1.8785
1.22279
1.03731
1.00408
0.999706
1.00921
1.02508
1.0443
1.06486
1.08648
1.11145
1.13728
1.16668
1.20158
1.23773
3.00001
3.00001
3.00001
3.00001
3.00001
3.00001
3.00001
3.00001
3.00001
3.00001
3.00001
3.00001
3.00001
3.00001
3.00001
3.00001
3.00001
3.00001
3.00001
3.00001
3.00001
3.00001
3.00001
3
3
2.99998
2.99996
2.99983
2.99972
2.99891
2.99697
2.99205
2.98627
2.9283
2.84429
2.5393
1.94728
1.33046
1.08353
1.05932
1.0533
1.06203
1.07851
1.0992
1.11932
1.14132
1.16592
1.19223
1.22487
1.25609
3.00001
3.00001
3.00001
3.00001
3.00001
3.00001
3.00001
3.00001
3.00001
3.00001
3.00001
3.00001
3.00001
3.00001
3.00001
3.00001
3.00001
3.00001
3.00001
3.00001
3.00001
3.00001
3.00001
3.00001
3
3
3
2.99994
2.99997
2.99959
2.99927
2.99651
2.99575
2.97394
2.96206
2.85992
2.63248
2.05806
1.445
1.13245
1.10793
1.10616
1.11654
1.13358
1.15233
1.17184
1.1943
1.21864
1.24832
1.27939
3.00001
3.00001
3.00001
3.00001
3.00001
3.00001
3.00001
3.00001
3.00001
3.00001
3.00001
3.00001
3.00001
3.00001
3.00001
3.00001
3.00001
3.00001
3.00001
3.00001
3.00001
3.00001
3.00001
3.00001
3.00001
3
3
2.99998
2.99997
2.99985
2.99965
2.99915
2.99642
2.99584
2.98027
2.98503
2.88054
2.71998
2.22067
1.61305
1.235
1.18276
1.17107
1.18232
1.19621
1.21384
1.23315
1.25581
1.27915
1.30756
3.00001
3.00001
3.00001
3.00001
3.00001
3.00001
3.00001
3.00001
3.00001
3.00001
3.00001
3.00001
3.00001
3.00001
3.00001
3.00001
3.00001
3.00001
3.00001
3.00001
3.00001
3.00001
3.00001
3.00001
3.00001
3.00001
3
3
2.99998
2.99998
2.99985
2.99981
2.99914
2.9986
2.99512
2.99083
2.96861
2.91671
2.81866
2.41217
1.89845
1.40628
1.27315
1.25909
1.25854
1.26461
1.27537
1.29116
1.31106
1.33496
3.00001
3.00001
3.00001
3.00001
3.00001
3.00001
3.00001
3.00001
3.00001
3.00001
3.00001
3.00001
3.00001
3.00001
3.00001
3.00001
3.00001
3.00001
3.00001
3.00001
3.00001
3.00001
3.00001
3.00001
3.00001
3.00001
3.00001
3.00001
3
3
2.99998
2.99995
2.99987
2.9995
2.99911
2.99822
2.99173
2.98135
2.94532
2.87122
2.63322
2.18953
1.70274
1.40779
1.33325
1.3188
1.32446
1.3335
1.35009
1.36987
3.00001
3.00001
3.00001
3.00001
3.00001
3.00001
3.00001
3.00001
3.00001
3.00001
3.00001
3.00001
3.00001
3.00001
3.00001
3.00001
3.00001
3.00001
3.00001
3.00001
3.00001
3.00001
3.00001
3.00001
3.00001
3.00001
3.00001
3.00001
3.00001
3.00001
3
3
2.99997
2.99994
2.99975
2.99963
2.99796
2.99703
2.98333
2.98253
2.92436
2.83938
2.48686
2.07347
1.64182
1.45477
1.40546
1.39557
1.40475
1.4179
3.00001
3.00001
3.00001
3.00001
3.00001
3.00001
3.00001
3.00001
3.00001
3.00001
3.00001
3.00001
3.00001
3.00001
3.00001
3.00001
3.00001
3.00001
3.00001
3.00001
3.00001
3.00001
3.00001
3.00001
3.00001
3.00001
3.00001
3.00001
3.00001
3.00001
3.00001
3
3
2.99999
2.99993
2.9999
2.99945
2.9994
2.99809
2.99697
2.98496
2.96111
2.91031
2.76558
2.44783
2.0739
1.71631
1.52703
1.4891
1.48868
3.00001
3.00001
3.00001
3.00001
3.00001
3.00001
3.00001
3.00001
3.00001
3.00001
3.00001
3.00001
3.00001
3.00001
3.00001
3.00001
3.00001
3.00001
3.00001
3.00001
3.00001
3.00001
3.00001
3.00001
3.00001
3.00001
3.00001
3.00001
3.00001
3.00001
3.00001
3.00001
3.00001
3
3
2.99997
2.99996
2.9998
2.99964
2.99865
2.99807
2.99147
2.98916
2.96338
2.9321
2.74629
2.51247
2.17677
1.86522
1.67065
3.00001
3.00001
3.00001
3.00001
3.00001
3.00001
3.00001
3.00001
3.00001
3.00001
3.00001
3.00001
3.00001
3.00001
3.00001
3.00001
3.00001
3.00001
3.00001
3.00001
3.00001
3.00001
3.00001
3.00001
3.00001
3.00001
3.00001
3.00001
3.00001
3.00001
3.00001
3.00001
3.00001
3.00001
3.00001
3
3
2.99996
2.99995
2.99971
2.99973
2.99878
2.99865
2.99261
2.98917
2.96372
2.90822
2.81947
2.60099
2.23256
3.00001
3.00001
3.00001
3.00001
3.00001
3.00001
3.00001
3.00001
3.00001
3.00001
3.00001
3.00001
3.00001
3.00001
3.00001
3.00001
3.00001
3.00001
3.00001
3.00001
3.00001
3.00001
3.00001
3.00001
3.00001
3.00001
3.00001
3.00001
3.00001
3.00001
3.00001
3.00001
3.00001
3.00001
3.00001
3.00001
3
3
2.99998
2.99998
2.99986
2.99982
2.99913
2.99887
2.99532
2.9937
2.97519
2.96964
2.90403
2.82153
3.00001
3.00001
3.00001
3.00001
3.00001
3.00001
3.00001
3.00001
3.00001
3.00001
3.00001
3.00001
3.00001
3.00001
3.00001
3.00001
3.00001
3.00001
3.00001
3.00001
3.00001
3.00001
3.00001
3.00001
3.00001
3.00001
3.00001
3.00001
3.00001
3.00001
3.00001
3.00001
3.00001
3.00001
3.00001
3.00001
3.00001
3.00001
3
3
2.99997
2.99995
2.99977
2.99968
2.9986
2.99829
2.99185
2.99203
2.97046
2.94914
3.00001
3.00001
3.00001
3.00001
3.00001
3.00001
3.00001
3.00001
3.00001
3.00001
3.00001
3.00001
3.00001
3.00001
3.00001
3.00001
3.00001
3.00001
3.00001
3.00001
3.00001
3.00001
3.00001
3.00001
3.00001
3.00001
3.00001
3.00001
3.00001
3.00001
3.00001
3.00001
3.00001
3.00001
3.00001
3.00001
3.00001
3.00001
3.00001
3.00001
3.00001
3.00001
3.00004
3.00001
3.00028
2.99932
3.0038
2.99703
2.99216
2.96398
3.00001
3.00001
3.00001
3.00001
3.00001
3.00001
3.00001
3.00001
3.00001
3.00001
3.00001
3.00001
3.00001
3.00001
3.00001
3.00001
3.00001
3.00001
3.00001
3.00001
3.00001
3.00001
3.00001
3.00001
3.00001
3.00001
3.00001
3.00001
3.00001
3.00001
3.00001
3.00001
3.00001
3.00001
3.00001
3.00001
3.00001
3.00001
3.00001
3.00001
3.00001
3.00001
3.00002
3.00002
3.00013
2.99981
3.00135
2.99902
2.9971
2.98746
3.00001
3.00001
3.00001
3.00001
3.00001
3.00001
3.00001
3.00001
3.00001
3.00001
3.00001
3.00001
3.00001
3.00001
3.00001
3.00001
3.00001
3.00001
3.00001
3.00001
3.00001
3.00001
3.00001
3.00001
3.00001
3.00001
3.00001
3.00001
3.00001
3.00001
3.00001
3.00001
3.00001
3.00001
3.00001
3.00001
3.00001
3.00001
3.00001
3.00001
3.00001
3.00001
3.00001
3.00001
3.00004
2.99994
3.00045
2.99966
2.99909
2.99578
3.00001
3.00001
3.00001
3.00001
3.00001
3.00001
3.00001
3.00001
3.00001
3.00001
3.00001
3.00001
3.00001
3.00001
3.00001
3.00001
3.00001
3.00001
3.00001
3.00001
3.00001
3.00001
3.00001
3.00001
3.00001
3.00001
3.00001
3.00001
3.00001
3.00001
3.00001
3.00001
3.00001
3.00001
3.00001
3.00001
3.00001
3.00001
3.00001
3.00001
3.00001
3.00001
3.00001
3.00001
3
2.99999
2.99992
2.99991
2.99962
2.99921
3.00001
3.00001
3.00001
3.00001
3.00001
3.00001
3.00001
3.00001
3.00001
3.00001
3.00001
3.00001
3.00001
3.00001
3.00001
3.00001
3.00001
3.00001
3.00001
3.00001
3.00001
3.00001
3.00001
3.00001
3.00001
3.00001
3.00001
3.00001
3.00001
3.00001
3.00001
3.00001
3.00001
3.00001
3.00001
3.00001
3.00001
3.00001
3.00001
3.00001
3.00001
3.00001
3.00001
3.00001
3
3
2.99998
2.99998
2.9999
2.99978
3.00001
3.00001
3.00001
3.00001
3.00001
3.00001
3.00001
3.00001
3.00001
3.00001
3.00001
3.00001
3.00001
3.00001
3.00001
3.00001
3.00001
3.00001
3.00001
3.00001
3.00001
3.00001
3.00001
3.00001
3.00001
3.00001
3.00001
3.00001
3.00001
3.00001
3.00001
3.00001
3.00001
3.00001
3.00001
3.00001
3.00001
3.00001
3.00001
3.00001
3.00001
3.00001
3.00001
3.00001
3.00001
3.00001
3
3
2.99998
2.99994
3.00001
3.00001
3.00001
3.00001
3.00001
3.00001
3.00001
3.00001
3.00001
3.00001
3.00001
3.00001
3.00001
3.00001
3.00001
3.00001
3.00001
3.00001
3.00001
3.00001
3.00001
3.00001
3.00001
3.00001
3.00001
3.00001
3.00001
3.00001
3.00001
3.00001
3.00001
3.00001
3.00001
3.00001
3.00001
3.00001
3.00001
3.00001
3.00001
3.00001
3.00001
3.00001
3.00001
3.00001
3.00001
3.00001
3.00001
3
3
2.99998
3.00001
3.00001
3.00001
3.00001
3.00001
3.00001
3.00001
3.00001
3.00001
3.00001
3.00001
3.00001
3.00001
3.00001
3.00001
3.00001
3.00001
3.00001
3.00001
3.00001
3.00001
3.00001
3.00001
3.00001
3.00001
3.00001
3.00001
3.00001
3.00001
3.00001
3.00001
3.00001
3.00001
3.00001
3.00001
3.00001
3.00001
3.00001
3.00001
3.00001
3.00001
3.00001
3.00001
3.00001
3.00001
3.00001
3.00001
3.00001
3.00001
3
3.00001
3.00001
3.00001
3.00001
3.00001
3.00001
3.00001
3.00001
3.00001
3.00001
3.00001
3.00001
3.00001
3.00001
3.00001
3.00001
3.00001
3.00001
3.00001
3.00001
3.00001
3.00001
3.00001
3.00001
3.00001
3.00001
3.00001
3.00001
3.00001
3.00001
3.00001
3.00001
3.00001
3.00001
3.00001
3.00001
3.00001
3.00001
3.00001
3.00001
3.00001
3.00001
3.00001
3.00001
3.00001
3.00001
3.00001
3.00001
3.00001
3.00001
3.00001
3.00001
3.00001
3.00001
3.00001
3.00001
3.00001
3.00001
3.00001
3.00001
3.00001
3.00001
3.00001
3.00001
3.00001
3.00001
3.00001
3.00001
3.00001
3.00001
3.00001
3.00001
3.00001
3.00001
3.00001
3.00001
3.00001
3.00001
3.00001
3.00001
3.00001
3.00001
3.00001
3.00001
3.00001
3.00001
3.00001
3.00001
3.00001
3.00001
3.00001
3.00001
3.00001
3.00001
3.00001
3.00001
3.00001
3.00001
3.00001
3.00001
3.00001
3.00001
3.00001
3.00001
3.00001
3.00001
3.00001
3.00001
3.00001
3.00001
3.00001
3.00001
3.00001
3.00001
3.00001
3.00001
3.00001
3.00001
3.00001
3.00001
3.00001
3.00001
3.00001
3.00001
3.00001
3.00001
3.00001
3.00001
3.00001
3.00001
3.00001
3.00001
3.00001
3.00001
3.00001
3.00001
3.00001
3.00001
3.00001
3.00001
3.00001
3.00001
3.00001
3.00001
3.00001
3.00001
3.00001
3.00001
3.00001
3.00001
3.00001
3.00001
3.00001
3.00001
3.00001
3.00001
3.00001
3.00001
3.00001
3.00001
3.00001
3.00001
3.00001
3.00001
3.00001
3.00001
3.00001
3.00001
3.00001
3.00001
3.00001
3.00001
3.00001
3.00001
3.00001
3.00001
3.00001
3.00001
3.00001
3.00001
3.00001
3.00001
3.00001
3.00001
3.00001
3.00001
3.00001
3.00001
3.00001
3.00001
3.00001
3.00001
3.00001
3.00001
3.00001
3.00001
3.00001
3.00001
3.00001
3.00001
3.00001
3.00001
3.00001
3.00001
3.00001
3.00001
3.00001
3.00001
3.00001
3.00001
3.00001
3.00001
3.00001
3.00001
3.00001
3.00001
3.00001
3.00001
3.00001
3.00001
3.00001
3.00001
3.00001
3.00001
3.00001
3.00001
3.00001
3.00001
3.00001
3.00001
3.00001
3.00001
3.00001
3.00001
3.00001
3.00001
3.00001
3.00001
3.00001
3.00001
3.00001
3.00001
3.00001
3.00001
3.00001
3.00001
3.00001
3.00001
3.00001
3.00001
3.00001
3.00001
3.00001
3.00001
3.00001
3.00001
3.00001
3.00001
3.00001
3.00001
3.00001
3.00001
3.00001
3.00001
3.00001
3.00001
3.00001
3.00001
3.00001
3.00001
3.00001
3.00001
3.00001
3.00001
3.00001
3.00001
3.00001
3.00001
3.00001
3.00001
3.00001
3.00001
3.00001
3.00001
3.00001
3.00001
3.00001
3.00001
3.00001
3.00001
3.00001
3.00001
3.00001
3.00001
3.00001
3.00001
3.00001
3.00001
3.00001
3.00001
3.00001
3.00001
3.00001
3.00001
3.00001
3.00001
3.00001
3.00001
3.00001
3.00001
3.00001
3.00001
3.00001
3.00001
3.00001
3.00001
3.00001
3.00001
3.00001
3.00001
3.00001
3.00001
3.00001
3.00001
3.00001
3.00001
3.00001
3.00001
3.00001
3.00001
3.00001
3.00001
3.00001
3.00001
3.00001
3.00001
3.00001
3.00001
3.00001
3.00001
3.00001
3.00001
3.00001
3.00001
3.00001
3.00001
3.00001
3.00001
3.00001
3.00001
3.00001
3.00001
3.00001
3.00001
3.00001
3.00001
3.00001
3.00001
3.00001
3.00001
3.00001
3.00001
3.00001
3.00001
3.00001
3.00001
3.00001
3.00001
3.00001
3.00001
3.00001
3.00001
3.00001
3.00001
3.00001
3.00001
3.00001
3.00001
3.00001
3.00001
3.00001
3.00001
3.00001
3.00001
3.00001
3.00001
3.00001
3.00001
3.00001
3.00001
3.00001
3.00001
3.00001
3.00001
3.00001
3.00001
3.00001
3.00001
3.00001
3.00001
3.00001
3.00001
3.00001
3.00001
3.00001
3.00001
3.00001
3.00001
3.00001
3.00001
3.00001
3.00001
3.00001
3.00001
3.00001
3.00001
3.00001
3.00001
3.00001
3.00001
3.00001
3.00001
3.00001
3.00001
3.00001
3.00001
3.00001
3.00001
3.00001
3.00001
3.00001
3.00001
3.00001
3.00001
3.00001
3.00001
3.00001
3.00001
3.00001
3.00001
3.00001
3.00001
3.00001
3.00001
3.00001
3.00001
3.00001
3.00001
3.00001
3.00001
3.00001
3.00001
3.00001
3.00001
3.00001
3.00001
3.00001
3.00001
3.00001
3.00001
3.00001
3.00001
3.00001
3.00001
3.00001
3.00001
3.00001
3.00001
3.00001
3.00001
3.00001
3.00001
3.00001
3.00001
3.00001
3.00001
3.00001
3.00001
3.00001
3.00001
3.00001
3.00001
3.00001
3.00001
3.00001
3.00001
3.00001
3.00001
3.00001
3.00001
3.00001
3.00001
3.00001
3.00001
3.00001
3.00001
3.00001
3.00001
3.00001
3.00001
3.00001
3.00001
3.00001
3.00001
3.00001
3.00001
3.00001
3.00001
3.00001
3.00001
3.00001
3.00001
3.00001
3.00001
3.00001
3.00001
3.00001
3.00001
3.00001
3.00001
3.00001
3.00001
3.00001
3.00001
3.00001
3.00001
3.00001
3.00001
3.00001
3.00001
3.00001
3.00001
3.00001
3.00001
3.00001
3.00001
3.00001
3.00001
3.00001
3.00001
3.00001
3.00001
3.00001
3.00001
3.00001
3.00001
3.00001
3.00001
3.00001
3.00001
1.45309
1.62877
1.67766
1.64757
1.56389
1.47887
1.39225
1.31119
1.27613
1.27356
1.2831
1.29365
1.30763
1.31871
1.32387
1.32893
1.33479
1.34236
1.35072
1.35985
1.37114
1.38508
1.39926
1.41286
1.4265
1.44074
1.45561
1.47088
1.48634
1.50165
1.5166
1.53118
1.54561
1.5601
1.57447
1.58834
1.60193
1.61552
1.62817
1.63884
1.64731
1.65394
1.6598
1.66633
1.67679
1.69651
1.7286
1.77214
1.82648
1.88999
1.96038
2.03513
2.11188
2.18864
2.26361
2.33528
2.40244
2.46422
2.52012
2.57001
2.61412
2.65298
2.68727
2.71766
2.74476
2.76908
2.79112
2.8113
2.83003
2.84758
2.86423
2.88009
2.89527
2.90985
2.92377
2.93696
2.94911
2.95982
2.96886
2.97628
2.98241
2.98761
2.99225
2.99654
2.99945
3.00202
3.00364
3.00412
3.0039
3.00334
3.00268
3.00207
3.00148
3.00097
3.00061
3.00037
3.00021
3.0001
3.00005
3.00001
1.41148
1.522
1.57261
1.59792
1.62217
1.66063
1.70512
1.72189
1.72205
1.71185
1.69121
1.66904
1.6566
1.66096
1.66662
1.675
1.68607
1.69616
1.70415
1.71111
1.71819
1.72575
1.73384
1.74245
1.75154
1.76133
1.77166
1.78208
1.79262
1.80343
1.81417
1.82463
1.83523
1.84651
1.85816
1.8694
1.88036
1.89163
1.90249
1.91163
1.91858
1.92353
1.92725
1.93036
1.93373
1.93939
1.95013
1.96882
1.99494
2.02846
2.0692
2.1168
2.17033
2.22848
2.28962
2.35209
2.41427
2.47478
2.53248
2.58649
2.63618
2.68117
2.72139
2.75698
2.78828
2.81572
2.83968
2.86053
2.87863
2.89439
2.90827
2.92077
2.9323
2.94314
2.95335
2.96284
2.97137
2.9787
2.98469
2.98946
2.99327
2.99643
2.99924
3.00175
3.00389
3.00586
3.00648
3.00621
3.00544
3.0045
3.00361
3.0027
3.00188
3.00126
3.00083
3.00052
3.00032
3.00018
3.00011
3.00005
1.37572
1.46707
1.54192
1.62092
1.70614
1.79206
1.85927
1.89404
1.89645
1.89534
1.88366
1.86597
1.84775
1.83778
1.83616
1.84108
1.84599
1.8532
1.86157
1.86944
1.87633
1.88312
1.89031
1.89771
1.90499
1.91244
1.92029
1.92848
1.93724
1.94677
1.95672
1.96666
1.9767
1.98718
1.99777
2.00764
2.01699
2.02656
2.03551
2.04267
2.04787
2.05146
2.0542
2.05681
2.06069
2.06864
2.08442
2.10732
2.13611
2.17003
2.20835
2.25052
2.29616
2.34492
2.39631
2.4495
2.50345
2.557
2.60899
2.65838
2.70426
2.74595
2.78303
2.81543
2.84333
2.8671
2.88716
2.90397
2.91796
2.92957
2.93929
2.94769
2.95534
2.96263
2.9697
2.97641
2.98249
2.98766
2.99179
2.99502
2.99758
2.99973
3.00168
3.00345
3.00566
3.00705
3.00724
3.00668
3.00574
3.00471
3.00374
3.00273
3.00189
3.00127
3.00083
3.00052
3.00032
3.00018
3.00011
3.00005
1.36928
1.45616
1.53721
1.61467
1.68943
1.76028
1.82396
1.88034
1.92591
1.95697
1.97198
1.97397
1.97302
1.96579
1.95542
1.94894
1.94543
1.94911
1.95283
1.95812
1.96527
1.97365
1.98163
1.98962
1.99727
2.00472
2.01261
2.02128
2.03073
2.041
2.05186
2.06275
2.0733
2.08368
2.09374
2.1025
2.11011
2.11778
2.12509
2.13105
2.1357
2.13989
2.14511
2.15331
2.16534
2.18159
2.20268
2.2287
2.25929
2.29374
2.33122
2.37095
2.41239
2.45522
2.49918
2.54392
2.58893
2.63353
2.67689
2.71821
2.75683
2.79233
2.82443
2.85294
2.87776
2.89894
2.91667
2.9313
2.94325
2.95299
2.96102
2.9678
2.97377
2.97929
2.98453
2.9895
2.99398
2.99766
3.00035
3.00219
3.00349
3.0045
3.00533
3.00691
3.00871
3.00926
3.00885
3.00786
3.00663
3.00542
3.00418
3.00299
3.00208
3.00141
3.00094
3.0006
3.00038
3.00022
3.00014
3.00007
1.35838
1.44923
1.52869
1.60294
1.67308
1.73977
1.80398
1.86503
1.92126
1.97208
2.00975
2.03146
2.04156
2.04417
2.04443
2.04138
2.0352
2.03246
2.02987
2.03191
2.03418
2.03775
2.0437
2.05223
2.06138
2.07087
2.08061
2.09063
2.10103
2.11175
2.12241
2.13248
2.14195
2.1514
2.16068
2.16867
2.17538
2.18171
2.18764
2.19331
2.1996
2.20787
2.21967
2.23553
2.25543
2.27949
2.30731
2.33814
2.37107
2.40534
2.44039
2.47593
2.51185
2.54821
2.58504
2.62233
2.65994
2.69754
2.73456
2.77025
2.80393
2.83507
2.86334
2.88853
2.91049
2.92916
2.94457
2.95693
2.96656
2.97396
2.9797
2.98433
2.98837
2.99204
2.99538
2.99858
3.00164
3.00399
3.00548
3.00627
3.00664
3.00674
3.00714
3.00855
3.0099
3.01006
3.00935
3.00815
3.0068
3.00549
3.00412
3.00293
3.00203
3.00137
3.0009
3.00058
3.00036
3.00021
3.00013
3.00007
1.34123
1.43017
1.50899
1.5829
1.65338
1.72058
1.78487
1.84425
1.8996
1.9486
1.99314
2.03507
2.068
2.08974
2.10372
2.10772
2.10854
2.10808
2.10464
2.10159
2.09963
2.10159
2.10502
2.11037
2.11802
2.1288
2.14055
2.15203
2.16281
2.1731
2.18317
2.19285
2.20191
2.21105
2.22026
2.22821
2.23498
2.2419
2.24962
2.25864
2.26969
2.2837
2.3014
2.32259
2.34691
2.37416
2.40375
2.4349
2.46684
2.49905
2.53138
2.56394
2.59669
2.62947
2.66202
2.69419
2.72596
2.75726
2.7879
2.8175
2.84553
2.87155
2.89527
2.91652
2.93521
2.95124
2.96453
2.97508
2.98306
2.98886
2.99305
2.9964
2.99938
3.00202
3.00445
3.00666
3.00878
3.01024
3.01087
3.01084
3.01049
3.01014
3.01013
3.01115
3.01186
3.0115
3.01039
3.00891
3.00739
3.00586
3.00429
3.00306
3.00213
3.00144
3.00096
3.00062
3.00039
3.00023
3.00015
3.00008
1.3265
1.41122
1.48948
1.56381
1.63405
1.70045
1.76276
1.82071
1.875
1.92615
1.97404
2.01882
2.05874
2.09541
2.12315
2.14132
2.15295
2.1578
2.15972
2.1612
2.16224
2.16218
2.1633
2.16687
2.1717
2.17749
2.18557
2.19603
2.20666
2.21718
2.22797
2.23875
2.249
2.25928
2.26996
2.27963
2.28808
2.29731
2.30882
2.32335
2.34052
2.36039
2.38324
2.40862
2.43609
2.46483
2.49416
2.52362
2.55293
2.58206
2.61111
2.64026
2.66949
2.69859
2.72721
2.75506
2.782
2.80815
2.83351
2.85803
2.88144
2.90328
2.92323
2.94112
2.95689
2.97045
2.98164
2.99048
2.99699
3.00138
3.00432
3.00672
3.00863
3.01027
3.01184
3.01315
3.0142
3.01462
3.01428
3.01372
3.01298
3.01225
3.01178
3.01237
3.0128
3.0121
3.01071
3.00906
3.00743
3.00574
3.00416
3.00295
3.00204
3.00138
3.00091
3.00058
3.00037
3.00022
3.00014
3.00007
1.31914
1.39954
1.47455
1.54562
1.61301
1.67658
1.73671
1.79369
1.84792
1.89945
1.94829
1.99381
2.03622
2.07427
2.10837
2.13985
2.1658
2.18391
2.19736
2.20596
2.21049
2.21392
2.21707
2.21915
2.22155
2.22569
2.23133
2.23764
2.24576
2.25556
2.26662
2.27854
2.29083
2.30308
2.31592
2.32906
2.34137
2.3548
2.37078
2.39037
2.41255
2.43598
2.461
2.48742
2.51474
2.54237
2.56987
2.59701
2.62401
2.65124
2.67881
2.70633
2.73335
2.75962
2.78505
2.80932
2.83224
2.85386
2.87433
2.89399
2.91288
2.93067
2.94696
2.96152
2.97434
2.98537
2.9945
3.00176
3.00713
3.01057
3.0127
3.01442
3.01562
3.01667
3.0177
3.01849
3.01884
3.01838
3.01771
3.01661
3.01546
3.01449
3.01396
3.01446
3.01419
3.01299
3.01128
3.00945
3.00766
3.00578
3.00418
3.00296
3.00206
3.00139
3.00092
3.00059