/*--------------------------------*- C++ -*----------------------------------*\
| =========                 |                                                 |
| \\      /  F ield         | OpenFOAM: The Open Source CFD Toolbox           |
|  \\    /   O peration     | Version:  2112                                  |
|   \\  /    A nd           | Website:  www.openfoam.com                      |
|    \\/     M anipulation  |                                                 |
\*---------------------------------------------------------------------------*/
FoamFile
{
    version     2.0;
    format      ascii;
    arch        "LSB;label=32;scalar=64";
    class       volScalarField;
    location    "0.4995";
    object      p;
}
// * * * * * * * * * * * * * * * * * * * * * * * * * * * * * * * * * * * * * //

dimensions      [1 -1 -2 0 0 0 0];

internalField   nonuniform List<scalar> 
7000
(
0.999999
1
1.00001
1.00001
1.00001
1.00001
1.00001
1.00001
1.00001
1.00001
1.00001
1.00001
1.00001
1.00001
1
1
1.00004
1.00012
1.00046
1.00089
1.00323
1.00493
1.02281
1.02907
1.18986
1.2128
2.79775
4.98697
11.9202
11.9061
11.4759
11.2126
11.2301
11.314
11.4239
11.5086
11.5831
11.6676
11.7647
11.8642
11.9547
12.0276
12.0791
12.112
12.1294
12.14
12.1432
12.1546
12.1337
12.1386
1
1.00001
1.00001
1.00001
1.00001
1.00001
1.00001
1.00001
1.00001
1.00001
1.00001
1.00001
1.00001
1
1
0.999998
1.00004
1.00011
1.00045
1.00083
1.00299
1.00433
1.02118
1.02664
1.18234
1.18094
2.75855
4.82955
11.7229
11.8865
11.4657
11.2005
11.2187
11.3027
11.4139
11.5
11.5759
11.6612
11.7592
11.8592
11.9506
12.0241
12.0763
12.1093
12.1272
12.1369
12.141
12.1463
12.1351
12.1395
1
1.00001
1.00001
1.00001
1.00001
1.00001
1.00001
1.00001
1.00001
1.00001
1.00001
1.00001
1.00001
1.00001
1
0.999999
1.00003
1.0001
1.00042
1.00076
1.00285
1.00405
1.02097
1.03557
1.16665
1.15275
2.74159
4.73253
11.6004
11.9119
11.4747
11.1994
11.2168
11.2993
11.4115
11.4986
11.5753
11.6605
11.7582
11.8576
11.9483
12.0213
12.0729
12.1051
12.1225
12.1306
12.1344
12.1367
12.1331
12.1361
1
1.00001
1.00001
1.00001
1.00001
1.00001
1.00001
1.00001
1.00001
1.00001
1.00001
1.00001
1.00001
1.00001
1
1
1.00003
1.0001
1.00038
1.00071
1.00261
1.00389
1.01973
1.0334
1.15699
1.12994
2.7026
4.59041
11.399
11.9077
11.4586
11.1757
11.1944
11.2794
11.3952
11.4857
11.5653
11.6518
11.7503
11.8496
11.9403
12.0131
12.0648
12.0967
12.1138
12.1214
12.125
12.1277
12.1282
12.1371
1
1
1.00001
1.00001
1.00001
1.00001
1.00001
1.00001
1.00001
1.00001
1.00001
1.00001
1.00001
1.00001
1.00001
1.00001
1.00003
1.00015
1.00032
1.00112
1.00187
1.00844
1.01478
1.06561
1.13261
1.13666
2.58466
4.44752
11.1427
11.9134
11.4492
11.1531
11.1726
11.26
11.3804
11.4745
11.5566
11.6437
11.7417
11.8403
11.9299
12.0019
12.0534
12.0849
12.1018
12.1096
12.1129
12.1163
12.1181
12.1269
1
1
1.00001
1.00001
1.00001
1.00001
1.00001
1.00001
1.00001
1.00001
1.00001
1.00001
1.00001
1.00001
1.00001
1
1.00004
1.00009
1.00041
1.00069
1.00295
1.00545
1.01969
1.04581
1.13992
1.16677
2.50558
4.23792
10.8259
11.9281
11.4434
11.1274
11.1463
11.235
11.361
11.4601
11.5451
11.6332
11.7305
11.8279
11.9161
11.987
12.038
12.0689
12.086
12.0939
12.0969
12.1005
12.102
12.1094
1
1
1.00001
1.00001
1.00001
1.00001
1.00001
1.00001
1.00001
1.00001
1.00001
1.00001
1.00001
1.00001
1.00001
1.00001
1.00004
1.00009
1.00036
1.00059
1.00237
1.0041
1.01903
1.03582
1.12161
1.11741
2.44472
4.03552
10.4405
11.9709
11.4469
11.1009
11.1175
11.2056
11.3382
11.4432
11.5315
11.6206
11.7164
11.8118
11.898
11.9674
12.018
12.048
12.0652
12.0735
12.0763
12.0798
12.0809
12.0871
1
1
1.00001
1.00001
1.00001
1.00001
1.00001
1.00001
1.00001
1.00001
1.00001
1.00001
1.00001
1.00001
1.00001
1.00001
1.00004
1.0001
1.00037
1.00064
1.00203
1.00388
1.01245
1.01532
1.12375
1.09081
2.42775
3.74999
9.95063
12.0205
11.4598
11.079
11.091
11.1744
11.3129
11.424
11.5152
11.605
11.6984
11.7909
11.8748
11.9422
11.9919
12.0209
12.0382
12.0465
12.0493
12.0532
12.0539
12.0594
1
1
1.00001
1.00001
1.00001
1.00001
1.00001
1.00001
1.00001
1.00001
1.00001
1.00001
1.00001
1.00001
1.00001
1.00001
1.00004
1.0001
1.00036
1.00066
1.00214
1.00331
1.0128
1.01416
1.11119
1.10553
2.27149
3.43937
9.3104
12.0917
11.499
11.0719
11.0737
11.1446
11.284
11.4018
11.4962
11.5855
11.6755
11.7643
11.8453
11.9106
11.9592
11.9879
12.0051
12.0136
12.0162
12.0201
12.0204
12.0255
1
1
1.00001
1.00001
1.00001
1.00001
1.00001
1.00001
1.00001
1.00001
1.00001
1.00001
1.00001
1.00001
1.00001
1.00001
1.00004
1.00009
1.00033
1.00061
1.00207
1.00341
1.01262
1.02681
1.09631
1.0996
2.12739
3.04181
8.46805
12.1524
11.5733
11.0863
11.0611
11.1213
11.2519
11.3764
11.4737
11.5602
11.6453
11.73
11.8077
11.8705
11.9176
11.9461
11.9631
11.9718
11.9744
11.9789
11.9785
11.9839
1
1
1
1.00001
1.00001
1.00001
1.00001
1.00001
1.00001
1.00001
1.00001
1.00001
1.00001
1.00001
1
1.00001
1.00004
1.00015
1.00031
1.00102
1.00198
1.00632
1.01089
1.03366
1.08531
1.08995
1.93275
2.68622
7.29991
12.129
11.6466
11.1352
11.059
11.1014
11.2148
11.3461
11.4454
11.5268
11.6069
11.6863
11.7608
11.8212
11.8669
11.8953
11.9115
11.9203
11.923
11.9278
11.9266
11.9327
1
1
1
1
1.00001
1.00001
1.00001
1.00001
1.00001
1.00001
1.00001
1.00001
1.00001
1.00001
1.00001
1.00001
1.00003
1.00006
1.00024
1.00043
1.00149
1.00206
1.01132
1.01782
1.082
1.06998
1.80225
2.37333
6.04467
11.9359
11.7105
11.2242
11.0584
11.0817
11.1733
11.3083
11.407
11.4821
11.5573
11.6301
11.7006
11.7585
11.8032
11.8323
11.8485
11.8573
11.8596
11.865
11.863
11.8703
1
1
1
1
1.00001
1.00001
1.00001
1.00001
1.00001
1.00001
1.00001
1.00001
1.00001
1.00001
1.00001
1.00001
1.00002
1.00008
1.00016
1.00043
1.00114
1.00149
1.00946
1.01639
1.06641
1.0719
1.67035
2.10711
5.34587
11.1683
11.6688
11.3277
11.0514
11.0533
11.1252
11.2604
11.3563
11.4237
11.4939
11.5588
11.6252
11.6809
11.7245
11.754
11.7704
11.7796
11.7821
11.7876
11.7846
11.7929
1
1
1
1
1
1
1.00001
1.00001
1.00001
1.00001
1.00001
1.00001
1.00001
1.00001
1.00001
1.00001
1.00002
1.00004
1.00013
1.00022
1.00077
1.00104
1.00738
1.01361
1.05235
1.05672
1.56401
1.90676
4.73036
10.1029
11.6953
11.3646
11.0174
11.0015
11.0693
11.1973
11.2904
11.3479
11.4116
11.4696
11.5319
11.5851
11.6278
11.6579
11.6736
11.683
11.6849
11.6905
11.6871
11.6963
1
1
1
1
1
1
1
1
1.00001
1.00001
1.00001
1.00001
1.00001
1
1.00001
1.00001
1.00002
1.00004
1.00012
1.0002
1.00072
1.00108
1.00474
1.00831
1.04079
1.04099
1.46751
1.69003
4.13653
8.85842
11.7849
11.4174
10.9718
10.9369
11.003
11.1224
11.2069
11.255
11.3104
11.3599
11.4166
11.4669
11.5082
11.5381
11.5544
11.5628
11.5636
11.5681
11.5632
11.5734
1
1
1
1
1
1
1
1
1
1
1
1
1
1
1.00001
1.00001
1.00002
1.00004
1.00014
1.00024
1.00071
1.0017
1.00235
1.00783
1.01581
1.01348
1.32857
1.47226
3.54356
7.4761
11.7923
11.4208
10.9174
10.8612
10.9214
11.0291
11.105
11.1444
11.1911
11.23
11.2792
11.3238
11.3614
11.3893
11.4032
11.409
11.4073
11.4102
11.4035
11.4142
1
1
1
1
1
1
1
1
1
1
1
1
1
1
1
1.00001
1.00001
1.00003
1.00006
1.00016
1.00022
1.00146
1.00176
1.01162
1.03307
1.07193
1.05064
1.91442
2.49269
6.45553
11.5501
11.2822
10.8186
10.7623
10.8134
10.912
10.9824
11.0173
11.0545
11.0819
11.1203
11.1546
11.1837
11.2043
11.2133
11.2117
11.2037
11.1996
11.1874
11.1975
1
1
1
1
1
1
1
1
1
1
1
1
1
1
1
1.00001
1.00001
1.00003
1.00007
1.00013
1.00051
1.00067
1.00333
1.00727
1.0097
1.06622
1.04241
1.70977
2.0726
5.31523
10.761
11.0396
10.8223
10.6839
10.7068
10.7739
10.8464
10.8772
10.9042
10.9153
10.9385
10.9566
10.9695
10.9746
10.9705
10.9547
10.9292
10.9103
10.8836
10.8877
1
1
1
1
1
1
1
1
1
1
1
1
1
1
1
1
1.00001
1.00002
1.00003
1.00008
1.00009
1.00068
1.00084
1.00554
1.00772
1.04761
1.04361
1.52888
1.77209
4.44043
9.27738
11.0241
10.8656
10.6334
10.6097
10.6409
10.7039
10.725
10.7357
10.7311
10.7322
10.7277
10.7156
10.6951
10.6629
10.6137
10.55
10.4888
10.4214
10.397
1
1
1
1
1
1
1
1
1
1
1
1
1
1
1
1
1.00001
1.00002
1.00006
1.00011
1.00036
1.0005
1.00061
1.004
1.00701
1.02495
1.01409
1.35812
1.44449
3.48848
7.17045
10.9767
10.8986
10.6229
10.492
10.4961
10.5186
10.5336
10.5317
10.515
10.4885
10.4547
10.4101
10.3509
10.2703
10.1643
10.0184
9.86098
9.66787
9.49656
1
1
1
1
1
1
1
1
1
1
1
1
1
1
1
1
1
1
1.00003
1.00005
1.00022
1.00063
1.00111
1.00116
1.00922
1.01982
1.06669
1.06913
1.74226
2.15108
5.38257
10.5431
10.803
10.5813
10.3477
10.2892
10.2864
10.288
10.2732
10.2351
10.1705
10.0955
10.0015
9.88077
9.71472
9.49042
9.16778
8.70266
7.9645
6.44087
1
1
1
1
1
1
1
1
1
1
1
1
1
1
1
1
1
1.00001
1.00002
1.00003
1.00019
1.00044
1.00056
1.00061
1.00349
1.00907
1.0297
1.02481
1.46821
1.63376
4.10751
8.55888
10.6485
10.559
10.2966
10.1165
10.043
10.0134
9.95768
9.88143
9.78039
9.66048
9.50987
9.31653
9.06125
8.72053
8.25683
7.61213
6.73878
5.32239
1
1
1
1
1
1
1
1
1
1
1
1
1
1
1
1
1
1
1.00001
1.00001
1.00007
1.0002
1.00039
1.00036
1.00443
1.00471
1.02776
1.03736
1.21908
1.24479
2.79422
4.82452
10.2429
10.4438
10.194
9.87056
9.72535
9.66829
9.60279
9.50227
9.37059
9.21234
9.01498
8.77123
8.46351
8.07277
7.57788
6.94927
6.19662
5.20093
1
1
1
1
1
1
1
1
1
1
1
1
1
1
1
1
1
1
1
1.00002
1.00003
1.00017
1.00027
1.00098
1.00185
1.00527
1.01239
1.02426
1.12404
1.13189
2.28924
3.39231
8.47012
10.0688
9.92373
9.60325
9.40527
9.32169
9.23986
9.12803
8.98012
8.80035
8.58036
8.31525
7.99501
7.60938
7.14861
6.60248
5.98412
5.22107
1
1
1
1
1
1
1
1
1
1
1
1
1
1
1
1
1
1
1
1
1.00001
1.00003
1.00009
1.00008
1.00112
1.00201
1.00733
1.01081
1.07479
1.07388
1.71733
2.08851
5.09737
9.26624
9.67904
9.50791
9.20625
9.03958
8.93345
8.80833
8.65216
8.46185
8.23541
7.96909
7.65838
7.29919
6.88626
6.41657
5.89934
5.2731
1
1
1
1
1
1
1
1
1
1
1
1
1
1
1
1
1
1
1
1
1.00002
1.00003
1.00011
1.00017
1.00022
1.00193
1.00412
1.01007
1.01482
1.09844
1.0938
2.06796
2.72875
7.06323
9.22058
9.30141
9.15234
8.87092
8.67768
8.52789
8.36762
8.17732
7.95486
7.69865
7.40763
7.08003
6.71391
6.30651
5.86505
5.34129
1
1
1
1
1
1
1
1
1
1
1
1
1
1
1
1
1
1
1
1
1
1.00002
1.00002
1.00012
1.00018
1.00075
1.00175
1.00332
1.01472
1.03899
1.03129
1.49357
1.64982
3.98586
7.64208
8.94983
8.9975
8.85535
8.57421
8.34028
8.14702
7.95224
7.73686
7.49345
7.22024
6.91891
6.58669
6.22458
5.83944
5.38501
1
1
1
1
1
1
1
1
1
1
1
1
1
1
1
1
1
1
1
1
1
1
1.00001
1.00002
1.00018
1.00021
1.00137
1.00216
1.008
1.0158
1.03882
1.15353
1.11256
2.45317
3.53241
7.70191
8.71609
8.68693
8.53152
8.22622
7.96368
7.74197
7.53062
7.3038
7.06217
6.79416
6.50307
6.18596
5.84425
5.4443
1
1
1
1
1
1
1
1
1
1
1
1
1
1
1
1
1
1
1
1
1
1
1
1.00003
1.00004
1.00013
1.00027
1.00105
1.00133
1.00788
1.01643
1.05908
1.05069
1.62114
1.78825
4.2301
7.53721
8.34567
8.32647
8.19043
7.93758
7.68417
7.45262
7.22556
6.9814
6.72307
6.44946
6.15693
5.84805
5.48788
1
1
1
1
1
1
1
1
1
1
1
1
1
1
1
1
1
1
1
1
1
1
1
1.00001
1.00003
1.00003
1.00017
1.00018
1.00122
1.00162
1.00713
1.01838
1.0565
1.05203
1.60955
1.77383
4.1572
7.25862
7.98016
8.01101
7.90324
7.66656
7.40083
7.15193
6.9117
6.66911
6.41545
6.1458
5.86002
5.53156
1
1
1
1
1
1
1
1
1
1
1
1
1
1
1
1
1
1
1
1
1
1
1
1
1.00001
1.00002
1.00005
1.00013
1.00015
1.00116
1.00186
1.00657
1.00637
1.06067
1.15937
1.16488
2.36496
3.34634
6.87643
7.66653
7.70537
7.60248
7.37083
7.09621
6.84022
6.60319
6.36908
6.12429
5.86704
5.56649
1
1
1
1
1
1
1
1
1
1
1
1
1
1
1
1
1
1
1
1
1
1
1
1
1
1.00001
1.00001
1.00004
1.00005
1.00032
1.00032
1.00264
1.00668
1.01211
1.03763
1.12705
1.08858
2.27747
2.77072
6.26681
7.19526
7.32648
7.25427
7.06082
6.81093
6.57342
6.35156
6.12507
5.88345
5.60611
1
1
1
1
1
1
1
1
1
1
1
1
1
1
1
1
1
1
1
1
1
1
1
1
1
1
1.00001
1.00001
1.00004
1.00011
1.00017
1.00113
1.0014
1.00659
1.00709
1.02503
1.09164
1.06795
2.06529
2.17826
5.23289
6.52086
6.91354
6.88907
6.77944
6.571
6.36259
6.14607
5.92202
5.65966
1
1
1
1
1
1
1
1
1
1
1
1
1
1
1
1
1
1
1
1
1
1
1
1
1
1
1
1.00001
1.00001
1.00005
1.00007
1.00028
1.00036
1.00173
1.00244
1.00866
1.02178
1.0622
1.03605
1.75995
1.79206
3.86129
5.85204
6.41244
6.55538
6.51619
6.39692
6.21189
6.01076
5.76322
1
1
1
1
1
1
1
1
1
1
1
1
1
1
1
1
1
1
1
1
1
1
1
1
1
1
1
1
1
1.00001
1.00002
1.00003
1.00018
1.00016
1.00089
1.00109
1.0065
1.00635
1.04951
1.14567
1.13989
1.98707
2.47215
4.57983
5.7418
6.19029
6.23395
6.18039
6.04668
5.82479
1
1
1
1
1
1
1
1
1
1
1
1
1
1
1
1
1
1
1
1
1
1
1
1
1
1
1
1
1
1
1
1.00001
1.00004
1.00003
1.00027
1.00025
1.00156
1.00196
1.01195
1.03342
1.05279
1.03396
1.63541
1.67547
3.14228
4.80838
5.53431
5.874
5.86937
5.78633
1
1
1
1
1
1
1
1
1
1
1
1
1
1
1
1
1
1
1
1
1
1
1
1
1
1
1
1
1
1
1
1
1.00001
1.00003
1.00004
1.00006
1.00045
1.00103
1.00141
1.00121
1.01578
1.02143
1.09704
1.07007
1.64194
1.83761
3.02065
4.56239
5.17177
5.41722
1
1
1
1
1
1
1
1
1
1
1
1
1
1
1
1
1
1
1
1
1
1
1
1
1
1
1
1
1
1
1
1
1
1
1.00001
1.00001
1.00007
1.00007
1.00049
1.0006
1.00288
1.00278
1.01724
1.02703
1.02201
1.28598
1.30918
1.94457
2.68015
3.89559
1
1
1
1
1
1
1
1
1
1
1
1
1
1
1
1
1
1
1
1
1
1
1
1
1
1
1
1
1
1
1
1
1
1
1
1
1.00002
1.00002
1.00009
1.00014
1.00056
1.00071
1.00069
1.00572
1.01283
1.02744
1.07496
1.22995
1.2147
1.83743
1
1
1
1
1
1
1
1
1
1
1
1
1
1
1
1
1
1
1
1
1
1
1
1
1
1
1
1
1
1
1
1
1
1
1
1
1
1.00001
1.00001
1.00005
1.00006
1.00029
1.00031
1.00166
1.00179
1.00895
1.01081
1.03364
1.09155
1.09871
1
1
1
1
1
1
1
1
1
1
1
1
1
1
1
1
1
1
1
1
1
1
1
1
1
1
1
1
1
1
1
1
1
1
1
1
1
1
1
1.00001
1.00001
1.00008
1.0001
1.00044
1.00063
1.00248
1.00329
1.01402
1.02177
1.02195
1
1
1
1
1
1
1
1
1
1
1
1
1
1
1
1
1
1
1
1
1
1
1
1
1
1
1
1
1
1
1
1
1
1
1
1
1
1
1
1
1
1
0.999979
0.999944
0.999951
0.999554
1.00003
1.00016
0.99707
1.03361
1
1
1
1
1
1
1
1
1
1
1
1
1
1
1
1
1
1
1
1
1
1
1
1
1
1
1
1
1
1
1
1
1
1
1
1
1
1
1
1
1
1
0.999987
0.999969
0.999969
0.999805
0.999961
1.00001
0.99901
1.01187
1
1
1
1
1
1
1
1
1
1
1
1
1
1
1
1
1
1
1
1
1
1
1
1
1
1
1
1
1
1
1
1
1
1
1
1
1
1
1
1
1
1
0.999997
0.999992
0.999994
0.999935
0.999982
0.999991
0.999623
1.00398
1
1
1
1
1
1
1
1
1
1
1
1
1
1
1
1
1
1
1
1
1
1
1
1
1
1
1
1
1
1
1
1
1
1
1
1
1
1
1
1
1
1
1
1
1
1.00003
1.00002
1.00017
1.00029
1.00035
1
1
1
1
1
1
1
1
1
1
1
1
1
1
1
1
1
1
1
1
1
1
1
1
1
1
1
1
1
1
1
1
1
1
1
1
1
1
1
1
1
1
1
1
1
1.00001
1.00001
1.00005
1.00009
1.00008
1
1
1
1
1
1
1
1
1
1
1
1
1
1
1
1
1
1
1
1
1
1
1
1
1
1
1
1
1
1
1
1
1
1
1
1
1
1
1
1
1
1
1
1
1
1
1
1.00002
1.00002
1.00002
1
1
1
1
1
1
1
1
1
1
1
1
1
1
1
1
1
1
1
1
1
1
1
1
1
1
1
1
1
1
1
1
1
1
1
1
1
1
1
1
1
1
1
1
1
1
1
1
1
1.00003
1
1
1
1
1
1
1
1
1
1
1
1
1
1
1
1
1
1
1
1
1
1
1
1
1
1
1
1
1
1
1
1
1
1
1
1
1
1
1
1
1
1
1
1
1
1
1
1
1
1.00001
1
1
1
1
1
1
1
1
1
1
1
1
1
1
1
1
1
1
1
1
1
1
1
1
1
1
1
1
1
1
1
1
1
1
1
1
1
1
1
1
1
1
1
1
1
1
1
1
1
1
1
1
1
1
1
1
1
1
1
1
1
1
1
1
1
1
1
1
1
1
1
1
1
1
1
1
1
1
1
1
1
1
1
1
1
1
1
1
1
1
1
1
1
1
1
1
1
1
1
1
1
1
1
1
1
1
1
1
1
1
1
1
1
1
1
1
1
1
1
1
1
1
1
1
1
1
1
1
1
1
1
1
1
1
1
1
1
1
1
1
1
1
1
1
1
1
1
1
1
1
1
1
1
1
1
1
1
1
1
1
1
1
1
1
1
1
1
1
1
1
1
1
1
1
1
1
1
1
1
1
1
1
1
1
1
1
1
1
1
1
1
1
1
1
1
1
1
1
1
1
1
1
1
1
1
1
1
1
1
1
1
1
1
1
1
1
1
1
1
1
1
1
1
1
1
1
1
1
1
1
1
1
1
1
1
1
1
1
1
1
1
1
1
1
1
1
1
1
1
1
1
1
1
1
1
1
1
1
1
1
1
1
1
1
1
1
1
1
1
1
1
1
1
1
1
1
1
1
1
1
1
1
1
1
1
1
1
1
1
1
1
1
1
1
1
1
1
1
1
1
1
1
1
1
1
1
1
1
1
1
1
1
1
1
1
1
1
1
1
1
1
1
1
1
1
1
1
1
1
1
1
1
1
1
1
1
1
1
1
1
1
1
1
1
1
1
1
1
1
1
1
1
1
1
1
1
1
1
1
1
1
1
1
1
1
1
1
1
1
1
1
1
1
1
1
1
1
1
1
1
1
1
1
1
1
1
1
1
1
1
1
1
1
1
1
1
1
1
1
1
1
1
1
1
1
1
1
1
1
1
1
1
1
1
1
1
1
1
1
1
1
1
1
1
1
1
1
1
1
1
1
1
1
1
1
1
1
1
1
1
1
1
1
1
1
1
1
1
1
1
1
1
1
1
1
1
1
1
1
1
1
1
1
1
1
1
1
1
1
1
1
1
1
1
1
1
1
1
1
1
1
1
1
1
1
1
1
1
1
1
1
1
1
1
1
1
1
1
1
1
1
1
1
1
1
1
1
1
1
1
1
1
1
1
1
1
1
1
1
1
1
1
1
1
1
1
1
1
1
1
1
1
1
1
1
1
1
1
1
1
1
1
1
1
1
1
1
1
1
1
2.10616
1.06354
0.710107
0.578216
0.585081
0.617092
0.693236
0.846971
0.959706
0.997587
0.995457
0.987743
0.971418
0.957521
0.954351
0.954924
0.956253
0.956203
0.955329
0.952669
0.946724
0.93626
0.926021
0.917014
0.909124
0.902151
0.895792
0.889707
0.883628
0.877459
0.871253
0.86517
0.859493
0.854496
0.850232
0.846873
0.844485
0.842618
0.841649
0.841577
0.841676
0.842068
0.843017
0.844935
0.847658
0.852128
0.856187
0.860826
0.866107
0.872034
0.87853
0.885499
0.89283
0.90038
0.908047
0.915741
0.923383
0.930899
0.938228
0.945332
0.952183
0.958734
0.964926
0.970711
0.976073
0.981018
0.985601
0.989926
0.994117
0.998271
1.00241
1.00643
1.01014
1.01329
1.01565
1.01712
1.01777
1.01791
1.01791
1.01785
1.01766
1.0172
1.01612
1.01369
1.01116
1.00847
1.00601
1.00412
1.00273
1.00173
1.00104
1.00055
1.00027
1.00013
1.00005
0.999997
0.999971
0.999961
0.999956
0.999948
2.79748
1.70282
1.24029
1.04271
0.963608
0.921802
0.870571
0.859592
0.864582
0.878824
0.908289
0.949482
0.982709
0.983492
0.981872
0.977175
0.967447
0.957141
0.949314
0.943579
0.938681
0.933088
0.926626
0.919427
0.911803
0.904155
0.896727
0.889628
0.882857
0.876401
0.870237
0.864366
0.85897
0.854228
0.850099
0.846795
0.844382
0.842419
0.841301
0.841183
0.841258
0.841574
0.842413
0.844213
0.84735
0.851132
0.855887
0.860619
0.865933
0.871804
0.878154
0.884897
0.891945
0.899246
0.906728
0.914304
0.921889
0.929403
0.936783
0.943975
0.950938
0.957621
0.963949
0.969866
0.975331
0.980352
0.985006
0.989404
0.993667
0.99789
1.00209
1.00617
1.00994
1.01314
1.01554
1.01703
1.01772
1.0179
1.01789
1.01785
1.01767
1.01722
1.0162
1.01392
1.01129
1.00833
1.00595
1.00412
1.00275
1.00175
1.00099
1.00052
1.00029
1.00014
1.00005
0.999997
0.999972
0.999961
0.999956
0.999946
3.61034
2.61835
1.98225
1.5533
1.26073
1.06089
0.925785
0.844886
0.839925
0.844663
0.858464
0.887834
0.92424
0.950965
0.967896
0.967845
0.966683
0.963376
0.956249
0.946335
0.937982
0.930662
0.923538
0.916353
0.909076
0.901762
0.894634
0.887804
0.881243
0.874947
0.868896
0.863089
0.857746
0.853045
0.84893
0.845671
0.843318
0.841385
0.840353
0.840282
0.840371
0.840708
0.841567
0.843452
0.846309
0.8508
0.855386
0.86017
0.865593
0.871563
0.878001
0.884821
0.891928
0.899242
0.906698
0.914234
0.921781
0.929268
0.936631
0.943818
0.950769
0.957437
0.963779
0.969732
0.975239
0.980312
0.985016
0.989463
0.993769
0.99803
1.00226
1.00638
1.01018
1.01338
1.01576
1.01723
1.0179
1.01806
1.01806
1.01801
1.01784
1.01739
1.01635
1.01415
1.01113
1.00824
1.0059
1.00409
1.00273
1.0017
1.00095
1.00053
1.00029
1.00014
1.00005
0.999997
0.999972
0.999962
0.999957
0.999947
4.03681
3.1585
2.4772
1.96737
1.60368
1.35042
1.17322
1.05348
0.964732
0.912699
0.884939
0.885498
0.889702
0.900052
0.921033
0.939732
0.956373
0.959839
0.959146
0.956535
0.950587
0.938805
0.927896
0.918013
0.909282
0.901487
0.894429
0.887882
0.881554
0.875353
0.86925
0.863305
0.8578
0.852929
0.848687
0.845377
0.843006
0.841086
0.840143
0.840098
0.840192
0.840581
0.841404
0.843411
0.846638
0.850603
0.855044
0.859979
0.865419
0.871343
0.877705
0.884443
0.891492
0.898767
0.906195
0.913713
0.921252
0.928742
0.93612
0.943332
0.950334
0.957079
0.963509
0.969558
0.975181
0.980372
0.985184
0.989734
0.994161
0.998539
1.00287
1.00704
1.01085
1.01404
1.01639
1.01779
1.01838
1.0185
1.01849
1.01843
1.01823
1.01772
1.01655
1.01409
1.01089
1.00812
1.00585
1.00407
1.00269
1.00162
1.00091
1.00054
1.00029
1.00014
1.00005
0.999998
0.999973
0.999963
0.999958
0.999947
4.30425
3.5349
2.8829
2.35427
1.94791
1.644
1.41527
1.24149
1.1118
1.01242
0.939
0.899739
0.884202
0.885115
0.888902
0.897775
0.913039
0.926194
0.937499
0.938659
0.938048
0.935754
0.930465
0.920219
0.910196
0.900851
0.892506
0.88505
0.878177
0.871802
0.865808
0.860095
0.854914
0.85037
0.846411
0.8434
0.841218
0.839441
0.838699
0.838694
0.83881
0.839217
0.84019
0.842225
0.845487
0.849417
0.853956
0.859053
0.864672
0.870769
0.877283
0.884149
0.891293
0.89864
0.906112
0.913639
0.921157
0.928606
0.935934
0.943091
0.950039
0.95675
0.963171
0.969236
0.9749
0.980163
0.985083
0.989758
0.994317
0.998846
1.00332
1.0076
1.01143
1.01459
1.01698
1.01841
1.01888
1.01895
1.01894
1.01885
1.01859
1.0179
1.01654
1.01394
1.01071
1.00796
1.00572
1.00396
1.00258
1.00152
1.00089
1.00052
1.00028
1.00013
1.00005
0.999998
0.999973
0.999964
0.999959
0.999948
4.51214
3.83577
3.23178
2.70854
2.27981
1.93977
1.67408
1.46659
1.30644
1.18127
1.08675
1.01029
0.951209
0.917122
0.896328
0.893655
0.894995
0.898752
0.906866
0.915786
0.923878
0.92498
0.924394
0.92233
0.917672
0.908306
0.898634
0.889287
0.880589
0.872758
0.865867
0.859715
0.854425
0.849962
0.846146
0.843349
0.841267
0.839623
0.838996
0.838995
0.839113
0.839519
0.840494
0.84255
0.84568
0.849475
0.853934
0.859009
0.864636
0.870743
0.877259
0.884113
0.891242
0.898561
0.905985
0.913446
0.920883
0.928243
0.935485
0.942565
0.949446
0.956114
0.962521
0.968602
0.974302
0.979629
0.984643
0.989448
0.994176
0.998909
1.00362
1.00804
1.01189
1.0151
1.01748
1.01895
1.01943
1.01948
1.01946
1.01935
1.01901
1.01828
1.01664
1.01368
1.01051
1.00781
1.0056
1.00385
1.00244
1.00143
1.00088
1.00052
1.00028
1.00013
1.00005
1
0.999976
0.999967
0.999961
0.99995
4.66144
4.06643
3.517
3.01498
2.58202
2.22265
1.93066
1.6949
1.50566
1.35297
1.23007
1.13048
1.05239
0.989417
0.940498
0.912144
0.895813
0.88965
0.890119
0.891662
0.894768
0.898656
0.902644
0.902895
0.90236
0.900685
0.896984
0.889924
0.881892
0.873687
0.865827
0.858683
0.852455
0.847319
0.843092
0.840108
0.838054
0.836569
0.836257
0.836302
0.836529
0.837142
0.838458
0.840976
0.844213
0.848192
0.852882
0.858206
0.864074
0.870402
0.877101
0.884098
0.891324
0.898701
0.90615
0.913636
0.92109
0.928465
0.935744
0.942874
0.949801
0.956509
0.962957
0.96908
0.974786
0.980107
0.985164
0.990026
0.994817
0.999696
1.00455
1.00891
1.01276
1.01593
1.01818
1.0195
1.01991
1.0199
1.01988
1.01979
1.01953
1.0188
1.01714
1.01388
1.01047
1.00769
1.00547
1.0037
1.0023
1.00138
1.00086
1.0005
1.00027
1.00013
1.00004
0.999999
0.999977
0.999968
0.999963
0.999953
4.79776
4.25587
3.74887
3.27403
2.85014
2.48463
2.17669
1.92036
1.70866
1.53433
1.39144
1.27396
1.1783
1.09959
1.03752
0.985265
0.9432
0.915498
0.897456
0.887281
0.88242
0.882219
0.882512
0.883379
0.8852
0.887142
0.886872
0.885871
0.883525
0.878771
0.87161
0.864041
0.856726
0.850314
0.844991
0.840855
0.838124
0.836185
0.835394
0.835408
0.835588
0.836129
0.837317
0.839729
0.843046
0.847191
0.852065
0.857556
0.863573
0.870044
0.876878
0.883983
0.891308
0.898799
0.906347
0.913924
0.921477
0.928919
0.93628
0.943496
0.950509
0.957288
0.963806
0.97
0.97586
0.981351
0.98659
0.991599
0.996474
1.00147
1.00638
1.0107
1.01448
1.01744
1.01936
1.02038
1.02075
1.02103
1.02103
1.0209
1.0205
1.01948
1.01725
1.01362
1.0103
1.00756
1.00535
1.00356
1.00218
1.00136
1.00084
1.00049
1.00027
1.00013
1.00005
1
0.99998
0.999971
0.999966
0.999956
4.90045
4.40452
3.9413
3.49655
3.08629
2.72185
2.40602
2.13627
1.90858
1.71725
1.55731
1.42346
1.31175
1.21791
1.13968
1.07325
1.01906
0.972455
0.933544
0.906875
0.888267
0.876647
0.870428
0.867699
0.867591
0.867794
0.868421
0.86972
0.869595
0.86893
0.867169
0.863433
0.857809
0.852067
0.846753
0.842116
0.83848
0.835929
0.833946
0.833431
0.833495
0.833813
0.83463
0.836359
0.839721
0.844023
0.849052
0.854671
0.860816
0.867403
0.874365
0.881654
0.889147
0.89677
0.904507
0.912329
0.920104
0.927738
0.935317
0.942778
0.950026
0.957078
0.963868
0.970274
0.976311
0.982072
0.9875
0.992761
0.997991
1.00324
1.00831
1.01267
1.01632
1.01903
1.02069
1.02159
1.02217
1.02224
1.02218
1.02193
1.0213
1.01982
1.01685
1.01319
1.00999
1.00731
1.00512
1.00333
1.00205
1.00132
1.00081
1.00047
1.00025
1.00012
1.00004
1
0.99998
0.999972
0.999968
0.999958
4.99224
4.53195
4.10052
3.68177
3.28927
2.93261
2.61595
2.33975
2.10156
1.89776
1.72447
1.57718
1.45229
1.34574
1.25497
1.17687
1.11015
1.05206
1.00366
0.96099
0.92487
0.89842
0.879636
0.867053
0.859935
0.856693
0.855138
0.855268
0.855681
0.85628
0.856215
0.855838
0.854849
0.852771
0.849423
0.845911
0.842628
0.839879
0.837564
0.836184
0.835977
0.836052
0.836398
0.837355
0.839466
0.843238
0.847892
0.853276
0.859294
0.865833
0.872734
0.879958
0.887466
0.895125
0.902745
0.910442
0.918399
0.926066
0.933649
0.941169
0.94849
0.955606
0.962542
0.969187
0.975377
0.981409
0.987461
0.993
0.99859
1.00422
1.00954
1.01409
1.01773
1.02033
1.0221
1.02324
1.02345
1.02344
1.0233
1.02291
1.02196
1.01982
1.01645
1.01279
1.00964
1.00701
1.00484
1.0031
1.00196
1.00127
1.00078
1.00045
1.00024
1.00011
1.00004
1
0.999982
0.999975
0.99997
0.999961
5.06994
4.63909
4.23722
3.84349
3.46838
3.12184
2.80835
2.53005
2.28585
2.07392
1.8905
1.73257
1.5964
1.47856
1.37638
1.287
1.20891
1.14013
1.08023
1.02736
0.98273
0.943886
0.911487
0.887144
0.869773
0.857775
0.850212
0.845721
0.843344
0.841733
0.841399
0.841463
0.841633
0.841809
0.841638
0.841212
0.840544
0.839741
0.838926
0.838442
0.838368
0.838449
0.838883
0.840155
0.842855
0.846326
0.850603
0.855724
0.861479
0.867756
0.874375
0.881302
0.88838
0.8955
0.903194
0.910881
0.918273
0.925675
0.933086
0.940437
0.947636
0.954673
0.961511
0.968117
0.974559
0.980796
0.986769
0.99285
0.999032
1.00471
1.01019
1.01496
1.01872
1.02154
1.02352
1.02422
1.02436
1.02433
1.02412
1.02359
1.02239
1.01977
1.01607
1.01237
1.00924
1.00665
1.0045
1.00286
1.00187
1.00119
1.00073
1.00042
1.00022
1.0001
1.00004
1
0.999982
0.999976
0.999972
0.999964
5.14745
4.747
4.36335
3.98598
3.62637
3.29148
2.98487
2.70844
2.46213
2.24497
2.0545
1.88789
1.74197
1.61401
1.50134
1.40182
1.31365
1.23538
1.1661
1.10487
1.05134
1.00465
0.965171
0.931192
0.902713
0.879987
0.862987
0.850325
0.841445
0.835451
0.832012
0.829854
0.828929
0.828987
0.829257
0.829898
0.831219
0.832672
0.834097
0.835491
0.837124
0.839094
0.841171
0.843641
0.846802
0.850566
0.854966
0.860095
0.86598
0.872404
0.879288
0.886282
0.893615
0.90168
0.909335
0.916835
0.924267
0.931532
0.938603
0.945504
0.952202
0.958703
0.965028
0.971219
0.977276
0.983194
0.98903
0.994885
1.00085
1.0068
1.01229
1.01701
1.02081
1.02336
1.02485
1.02547
1.02553
1.02546
1.02523
1.02463
1.02322
1.02013
1.01585
1.01206
1.00893
1.00635
1.00422
1.00272
1.0018
1.00114
1.00069
1.0004
1.00021
1.0001
1.00004
1
0.999986
0.99998
0.999976
0.999969
5.22399
4.83506
4.47119
4.11318
3.76682
3.44334
3.14535
2.87421
2.62953
2.41024
2.2148
2.04118
1.88701
1.74997
1.62791
1.51901
1.42171
1.33479
1.2573
1.1884
1.12753
1.07395
1.02724
0.986591
0.951536
0.921259
0.895165
0.872947
0.855833
0.842728
0.833009
0.826273
0.821906
0.819668
0.818353
0.81834
0.818505
0.819071
0.820331
0.822635
0.825439
0.829144
0.832945
0.837176
0.842263
0.847638
0.853356
0.860012
0.867386
0.874771
0.882053
0.889872
0.898549
0.906694
0.914657
0.922527
0.930244
0.937824
0.945231
0.952393
0.959261
0.965789
0.971999
0.977986
0.98369
0.98917
0.994598
1.00008
1.00566
1.01133
1.01668
1.02103
1.02402
1.02589
1.02704
1.02748
1.02745
1.02736
1.02699
1.0261
1.02403
1.01986
1.01537
1.01164
1.00856
1.00599
1.00394
1.00259
1.00171
1.00108
1.00065
1.00037
1.0002
1.00009
1.00003
1
0.999988
0.999983
0.99998
0.999973
5.32993
4.93509
4.57501
4.2307
3.90548
3.593
3.30131
3.03376
2.78989
2.5693
2.37021
2.19084
2.02952
1.88442
1.75395
1.6366
1.53118
1.43656
1.35193
1.27643
1.2093
1.14983
1.09737
1.05114
1.01036
0.974402
0.942607
0.914986
0.890357
0.868631
0.851685
0.838298
0.828064
0.820611
0.815517
0.812434
0.81102
0.811037
0.811234
0.811844
0.813172
0.815821
0.818978
0.822998
0.828675
0.834607
0.840864
0.848663
0.856974
0.864763
0.873349
0.883482
0.893199
0.90288
0.912584
0.922159
0.931448
0.940314
0.94869
0.956554
0.963903
0.970733
0.977158
0.983249
0.989245
0.995111
1.00089
1.00654
1.01211
1.0175
1.02248
1.02648
1.02871
1.02973
1.03027
1.03051
1.0304
1.03016
1.02944
1.02768
1.0239
1.01903
1.01481
1.01119
1.00815
1.00562
1.00369
1.00248
1.00162
1.00103
1.00062
1.00036
1.00019
1.00009
1.00004
1.00001
0.999992
0.999986
0.999983
0.999977
5.42015
5.03593
4.68373
4.34971
4.03122
3.73476
3.45584
3.19334
2.94877
2.72493
2.52103
2.33569
2.16755
2.01532
1.87764
1.75319
1.64091
1.53975
1.44899
1.36768
1.29533
1.23084
1.17337
1.12214
1.07645
1.03556
0.998814
0.965949
0.936503
0.91067
0.887571
0.866862
0.850472
0.837341
0.82698
0.819174
0.813349
0.809642
0.807227
0.807256
0.807531
0.808354
0.810187
0.813397
0.817053
0.821398
0.825989
0.832388
0.839707
0.846496
0.855445
0.865605
0.875642
0.88614
0.896988
0.908021
0.918995
0.929717
0.940045
0.949889
0.959174
0.967856
0.975956
0.9836
0.99083
0.997723
1.00427
1.01068
1.0169
1.02261
1.02754
1.03137
1.0332
1.03361
1.03363
1.03366
1.0334
1.03271
1.03095
1.0274
1.02284
1.0182
1.01408
1.01054
1.00759
1.00515
1.00343
1.00231
1.00151
1.00095
1.00057
1.00033
1.00018
1.00009
1.00003
1.00001
0.999993
0.999989
0.999986
0.99998
5.43699
5.12218
4.80355
4.4832
4.17359
3.87816
3.60157
3.34481
3.10673
2.88283
2.67473
2.48299
2.30744
2.1477
2.00261
1.87116
1.7523
1.64515
1.54879
1.46239
1.38503
1.31585
1.25403
1.19852
1.14854
1.10331
1.06231
1.0252
0.99169
0.96176
0.934816
0.911415
0.890293
0.870712
0.855018
0.842222
0.831798
0.823717
0.817427
0.813248
0.8103
0.80933
0.809493
0.810158
0.811663
0.814765
0.818618
0.823948
0.830296
0.835572
0.842439
0.850924
0.859405
0.868579
0.878561
0.889259
0.900433
0.911843
0.923311
0.93469
0.945823
0.956561
0.966842
0.976696
0.986137
0.995133
1.00362
1.01151
1.01875
1.02519
1.03052
1.03445
1.0362
1.03631
1.03625
1.03608
1.03545
1.03405
1.03092
1.02693
1.022
1.01731
1.01323
1.0098
1.00696
1.00468
1.00318
1.00214
1.00139
1.00088
1.00053
1.00031
1.00017
1.00008
1.00003
1.00001
0.999996
0.999991
0.999989
0.999983
5.35686
5.1658
4.9425
4.64892
4.3401
4.03984
3.75659
3.49326
3.24972
3.02469
2.81577
2.62188
2.44284
2.27794
2.12727
1.99024
1.86598
1.75368
1.65242
1.56142
1.4797
1.40633
1.34027
1.28061
1.22648
1.17721
1.13229
1.09138
1.05412
1.02057
0.99025
0.963418
0.938997
0.91812
0.898625
0.880607
0.865634
0.853276
0.843063
0.834902
0.828708
0.824116
0.821184
0.819464
0.819544
0.8199
0.820869
0.822933
0.827051
0.831292
0.836424
0.844057
0.851682
0.860088
0.869204
0.878913
0.889069
0.89962
0.910609
0.921968
0.933503
0.945106
0.956692
0.968122
0.979264
0.990012
1.00025
1.00966
1.01809
1.02542
1.03141
1.03566
1.03743
1.03748
1.03741
1.03712
1.03631
1.03456
1.03082
1.02636
1.02107
1.01633
1.01233
1.00904
1.00631
1.00427
1.00294
1.00196
1.00127
1.0008
1.00048
1.00028
1.00015
1.00008
1.00003
1.00001
0.999998
0.999993
0.999991
0.999987
4.93527
5.07501
4.99445
4.81204
4.51517
4.21051
3.91742
3.6462
3.39801
3.16968
2.95733
2.75933
2.57543
2.40612
2.25131
2.11021
1.98188
1.86543
1.76001
1.66483
1.57893
1.50138
1.4311
1.36727
1.30907
1.25592
1.20729
1.1629
1.12247
1.08584
1.05264
1.02279
0.995864
0.971861
0.950058
0.931158
0.913484
0.897869
0.883322
0.87173
0.862261