/*--------------------------------*- C++ -*----------------------------------*\
| =========                 |                                                 |
| \\      /  F ield         | OpenFOAM: The Open Source CFD Toolbox           |
|  \\    /   O peration     | Version:  2112                                  |
|   \\  /    A nd           | Website:  www.openfoam.com                      |
|    \\/     M anipulation  |                                                 |
\*---------------------------------------------------------------------------*/
FoamFile
{
    version     2.0;
    format      ascii;
    arch        "LSB;label=32;scalar=64";
    class       surfaceScalarField;
    location    "0.4995";
    object      phi;
}
// * * * * * * * * * * * * * * * * * * * * * * * * * * * * * * * * * * * * * //

dimensions      [1 0 -1 0 0 0 0];

oriented        oriented;

internalField   nonuniform List<scalar> 
13790
(
0.00290515
5.66891e-09
0.00290514
2.874e-09
0.00290514
1.05271e-09
0.00290514
2.20809e-10
0.00290514
4.23892e-10
0.00290514
8.00253e-10
0.00290514
1.09531e-09
0.00290514
1.30888e-09
0.00290514
1.42078e-09
0.00290514
1.43942e-09
0.00290514
1.37181e-09
0.00290513
1.26484e-09
0.00290513
1.16228e-09
0.00290513
1.2985e-09
0.00290513
1.74254e-09
0.00290513
5.02529e-09
0.0029051
3.22342e-10
0.00290521
1.62156e-08
0.00290486
5.76321e-09
0.00290537
7.15767e-08
0.00290322
1.09913e-07
0.00290719
3.24616e-07
0.00290658
1.11215e-06
0.00290731
2.00086e-07
0.00286548
4.05658e-06
0.0029095
4.32289e-06
0.00278614
-1.11262e-05
0.00270105
-1.36321e-05
0.00234534
0.000159397
0.00226873
0.000154133
0.00216312
0.000150288
0.00203103
0.000131099
0.00190981
0.000105816
0.00176887
9.03002e-05
0.00164399
8.25879e-05
0.00154316
8.3637e-05
0.00145152
8.8892e-05
0.00135291
9.54188e-05
0.00124796
0.000100432
0.00113917
0.000104961
0.00103018
0.000107932
0.000917097
0.000110732
0.000797925
0.000112488
0.000668003
0.000114931
0.000538727
0.000112738
0.000407823
0.00012177
0.000273125
0.000129486
5.86693e-05
0.000212491
5.42812e-06
5.31025e-05
4.04475e-06
0.00301309
6.48868e-09
0.00301309
4.74629e-09
0.00301309
3.3659e-09
0.00301309
2.44785e-09
0.00301308
2.2932e-09
0.00301308
2.36225e-09
0.00301308
2.458e-09
0.00301308
2.49763e-09
0.00301308
2.51631e-09
0.00301308
2.50967e-09
0.00301308
2.29632e-09
0.00301308
1.89509e-09
0.00301308
1.33026e-09
0.00301308
5.71144e-10
0.00301308
-1.08029e-10
0.00301309
-1.11977e-09
0.00301308
-5.21249e-10
0.00301312
5.72244e-09
0.003013
2.17832e-08
0.0030132
6.5719e-08
0.00301247
1.37353e-07
0.00301422
3.14025e-07
0.00301388
3.97291e-07
0.00302757
-1.27043e-06
0.00297881
5.07597e-06
0.00306867
5.0991e-06
0.00288985
-1.17235e-05
0.00277471
1.68783e-06
0.002454
0.000284225
0.00238091
0.000308897
0.00227019
0.000305953
0.00212927
0.000268458
0.00199231
0.000223122
0.00183486
0.000192324
0.00169901
0.000176791
0.00158918
0.000177449
0.00148847
0.000187217
0.00138168
0.000198805
0.00126798
0.000209422
0.00115089
0.000217543
0.00103397
0.000223726
0.00091464
0.000227529
0.000790919
0.000228429
0.000663488
0.000227755
0.000536395
0.000223845
0.000421876
0.000227482
0.000305727
0.00024229
0.000215858
0.000299264
6.29392e-05
0.000202482
6.71326e-05
0.00312505
6.8147e-09
0.00312504
6.04082e-09
0.00312504
5.32607e-09
0.00312504
4.58143e-09
0.00312504
4.2458e-09
0.00312504
4.06302e-09
0.00312503
3.91788e-09
0.00312503
3.77072e-09
0.00312503
3.59561e-09
0.00312503
3.36862e-09
0.00312503
3.0754e-09
0.00312503
2.69357e-09
0.00312503
2.1951e-09
0.00312503
1.46376e-09
0.00312503
4.14896e-10
0.00312504
-1.60128e-09
0.00312502
-8.10293e-10
0.00312508
-7.14546e-09
0.00312493
1.051e-08
0.00312523
-2.27812e-08
0.00312407
9.5362e-08
0.00312779
-2.33387e-07
0.00311938
5.18978e-07
0.00313829
-4.97734e-07
0.00309236
3.84715e-06
0.00322836
3.54286e-06
0.0030253
-3.9628e-06
0.00289671
2.42403e-05
0.00249374
0.000471242
0.00240998
0.000478186
0.00231113
0.000446841
0.00218478
0.000388989
0.0020562
0.000329727
0.0019018
0.000288622
0.00176765
0.000269784
0.00165659
0.00027352
0.00155263
0.000289922
0.00143997
0.000309
0.00131791
0.000325564
0.0011922
0.000336836
0.001069
0.000345681
0.000942953
0.000351523
0.00081212
0.000350808
0.000678992
0.000345364
0.000550139
0.00033595
0.00043841
0.000330721
0.000335765
0.000341863
0.000258392
0.000372404
0.000146799
0.000310475
0.00021071
0.00324116
6.63552e-09
0.00324116
6.43618e-09
0.00324116
6.27593e-09
0.00324115
6.15065e-09
0.00324115
5.87793e-09
0.00324115
5.62543e-09
0.00324115
5.36721e-09
0.00324115
5.10047e-09
0.00324115
4.81181e-09
0.00324115
4.49392e-09
0.00324114
4.13621e-09
0.00324114
3.73478e-09
0.00324114
3.28615e-09
0.00324114
2.79355e-09
0.00324114
2.19049e-09
0.00324115
7.61132e-11
0.00324112
5.85782e-10
0.0032412
-1.96978e-08
0.00324103
5.78108e-09
0.00324136
-1.45499e-07
0.00324015
9.69529e-08
0.00324397
-1.596e-06
0.00323703
1.05404e-06
0.00326003
-1.04941e-05
0.00322078
5.7892e-06
0.00338605
-4.75325e-06
0.00315023
2.0953e-05
0.0029982
5.9842e-05
0.00256554
0.000673805
0.00248346
0.000654074
0.00238778
0.000582954
0.00226657
0.000502579
0.00213993
0.000432123
0.00198072
0.000387021
0.00184136
0.000367565
0.00172533
0.000375408
0.0016154
0.00039893
0.00149854
0.000423908
0.00137165
0.000447777
0.00124036
0.000461814
0.00111161
0.000473326
0.00098134
0.000480222
0.000844089
0.00047936
0.000703155
0.000469574
0.000569
0.000452751
0.000452437
0.000438556
0.000350512
0.000440041
0.000261558
0.000457886
0.000147031
0.000422519
0.000355507
0.00336158
6.39979e-09
0.00336158
6.48961e-09
0.00336158
6.74026e-09
0.00336158
7.166e-09
0.00336158
7.10296e-09
0.00336158
6.94853e-09
0.00336158
6.70407e-09
0.00336158
6.40955e-09
0.00336157
6.06388e-09
0.00336157
5.67606e-09
0.00336157
5.2462e-09
0.00336157
4.78208e-09
0.00336157
4.27553e-09
0.00336157
3.79126e-09
0.00336157
3.1339e-09
0.00336156
3.99133e-09
0.00336157
-3.13058e-09
0.00336151
1.52091e-08
0.00336161
-3.24442e-08
0.00336104
1.17858e-07
0.00336177
-2.9266e-07
0.00335536
6.64316e-07
0.0033551
-1.75597e-06
0.00334131
6.78638e-07
0.00331131
-9.49369e-07
0.00314975
-1.37145e-05
0.0033133
3.36719e-05
0.00308162
0.000107285
0.0026388
0.000890817
0.00256545
0.000838293
0.00247799
0.00071373
0.00236051
0.000612198
0.00223427
0.000532727
0.00207019
0.000487318
0.00192608
0.000470143
0.00180506
0.000483783
0.00169014
0.000514692
0.00156698
0.00054667
0.00143448
0.000575629
0.00129839
0.000592839
0.00116345
0.000607009
0.00102686
0.000614086
0.000884157
0.000612883
0.00073554
0.000600642
0.000593051
0.000577386
0.000467196
0.000554633
0.000357448
0.000545625
0.000257652
0.00055516
0.000142737
0.000536005
0.000495747
0.00348648
6.11945e-09
0.00348648
6.24322e-09
0.00348648
6.76845e-09
0.00348648
7.36628e-09
0.00348648
7.83617e-09
0.00348648
7.81562e-09
0.00348648
7.68715e-09
0.00348648
7.45435e-09
0.00348648
7.14038e-09
0.00348648
6.75457e-09
0.00348647
6.3095e-09
0.00348647
5.80051e-09
0.00348647
5.22542e-09
0.00348647
4.57596e-09
0.00348647
3.26346e-09
0.00348648
2.21239e-09
0.00348646
-2.79427e-10
0.00348649
2.32884e-09
0.00348633
5.62905e-10
0.00348639
3.32812e-08
0.00348532
1.09329e-07
0.00348393
5.74638e-07
0.00347834
3.45436e-07
0.00353578
4.12168e-06
0.00345116
7.73562e-06
0.00323731
4.54219e-06
0.0033205
2.56833e-05
0.0031912
0.000131662
0.00274542
0.00107171
0.00269933
0.00101811
0.00260919
0.000852319
0.00248942
0.000724723
0.00235748
0.000637836
0.00218528
0.000592966
0.00203354
0.00058144
0.00190462
0.000602796
0.00178218
0.000641014
0.00165004
0.00067953
0.00150922
0.000711846
0.00136385
0.000731978
0.00122242
0.000744996
0.00108082
0.000753526
0.000930375
0.000753808
0.000773275
0.000737612
0.000623072
0.000709125
0.000486917
0.000679881
0.000366375
0.000662162
0.000256867
0.000662423
0.000138983
0.000651869
0.000631162
0.00361602
5.81658e-09
0.00361602
5.92691e-09
0.00361602
6.58851e-09
0.00361602
7.28859e-09
0.00361602
8.11036e-09
0.00361602
8.29288e-09
0.00361602
8.33932e-09
0.00361602
8.2473e-09
0.00361602
8.03401e-09
0.00361602
7.71625e-09
0.00361602
7.31082e-09
0.00361602
6.83643e-09
0.00361601
6.32394e-09
0.00361601
5.90458e-09
0.00361601
4.2734e-09
0.00361601
3.07838e-09
0.00361599
8.8689e-10
0.00361603
1.98008e-10
0.00361588
2.58216e-09
0.00361633
-1.7028e-08
0.003616
8.16116e-08
0.00361149
6.22708e-08
0.00362998
1.72423e-06
0.00356928
9.21845e-06
0.00355756
4.12315e-06
0.00341968
-2.90481e-06
0.00358816
3.55717e-05
0.00333183
0.000179248
0.00285146
0.00128821
0.00280293
0.0012172
0.00272013
0.000984517
0.00260699
0.000832369
0.00247685
0.000742574
0.0023018
0.000700647
0.00214512
0.000699203
0.0020108
0.000730194
0.00188205
0.000776591
0.00174221
0.000821625
0.00159261
0.000857001
0.00143958
0.00087803
0.00128881
0.000891303
0.00114028
0.000899037
0.00098272
0.000901162
0.000816998
0.000881718
0.000656845
0.000850872
0.00051098
0.00081467
0.000380289
0.000789227
0.000260883
0.00078003
0.000136711
0.000772697
0.000762742
0.00375038
5.47894e-09
0.00375038
5.58401e-09
0.00375038
6.25263e-09
0.00375038
6.98025e-09
0.00375038
7.9438e-09
0.00375038
8.35774e-09
0.00375038
8.5886e-09
0.00375038
8.65797e-09
0.00375038
8.57685e-09
0.00375038
8.36716e-09
0.00375037
8.04615e-09
0.00375037
7.64559e-09
0.00375037
7.20076e-09
0.00375037
6.73934e-09
0.00375037
6.1006e-09
0.00375036
4.99607e-09
0.00375035
4.83964e-09
0.00375034
6.89863e-09
0.00375033
1.38589e-08
0.00375042
1.84153e-08
0.00375163
2.10419e-08
0.00374403
1.04318e-07
0.00376975
2.11364e-07
0.00377401
7.31301e-07
0.00372922
5.10158e-06
0.00400947
-6.55456e-06
0.00367972
6.56287e-05
0.00345472
0.000211984
0.00297564
0.00146176
0.00294178
0.00141677
0.00285526
0.00112522
0.00273996
0.000948014
0.00260279
0.000857483
0.00241967
0.000816033
0.0022583
0.000825082
0.00212056
0.000865594
0.0019885
0.000919591
0.00184425
0.000972377
0.00168535
0.0010111
0.00152334
0.00103112
0.0013646
0.00104445
0.00120829
0.00105227
0.00104357
0.0010556
0.000868696
0.00103229
0.000700133
0.000999959
0.000542665
0.000959763
0.000400447
0.000927481
0.000268747
0.000909797
0.000136781
0.000899737
0.000894188
0.00388972
5.11118e-09
0.00388972
5.23808e-09
0.00388972
5.84144e-09
0.00388972
6.60539e-09
0.00388972
7.52861e-09
0.00388972
8.20669e-09
0.00388972
8.55354e-09
0.00388972
8.73872e-09
0.00388972
8.7724e-09
0.00388972
8.66617e-09
0.00388972
8.43875e-09
0.00388972
8.11433e-09
0.00388972
7.72422e-09
0.00388972
7.22597e-09
0.00388972
7.44291e-09
0.00388971
6.20573e-09
0.0038897
6.96305e-09
0.0038897
1.15376e-09
0.00388967
1.67248e-08
0.0038897
-1.27448e-08
0.00388993
3.58235e-08
0.0038898
-2.2854e-07
0.00390194
-5.59931e-08
0.00386776
-3.7319e-06
0.00389225
3.64702e-06
0.00374843
-2.07394e-06
0.00388887
8.45972e-05
0.00362068
0.000222423
0.00316549
0.00155471
0.00312496
0.00162126
0.00301636
0.00129357
0.00289471
0.00107834
0.00274385
0.000987163
0.00255094
0.00094274
0.00238352
0.000961134
0.0022422
0.00101051
0.0021064
0.00107214
0.00195749
0.0011315
0.00179054
0.0011737
0.00161862
0.00119326
0.00145047
0.00120672
0.00128322
0.00121431
0.00110834
0.00121737
0.000923552
0.00119296
0.000744682
0.00115708
0.000577987
0.00111144
0.000426181
0.00107412
0.000283236
0.00104988
0.000140732
0.00103603
0.00103475
0.00403424
4.72791e-09
0.00403424
4.87083e-09
0.00403424
5.39588e-09
0.00403425
6.16767e-09
0.00403425
6.98129e-09
0.00403425
7.87844e-09
0.00403425
8.26076e-09
0.00403425
8.5254e-09
0.00403425
8.65034e-09
0.00403425
8.64069e-09
0.00403425
8.52047e-09
0.00403425
8.31792e-09
0.00403425
8.08045e-09
0.00403425
7.75137e-09
0.00403424
8.71298e-09
0.00403424
4.35392e-09
0.00403423
5.81574e-09
0.00403424
-9.93942e-09
0.00403417
1.22386e-08
0.00403433
-9.08036e-08
0.00403391
4.04957e-08
0.00403521
-7.12164e-07
0.00403434
4.39493e-07
0.00402374
-1.90808e-06
0.00403977
4.11444e-06
0.00395658
-1.01185e-07
0.00395335
8.49981e-05
0.00383264
0.000197361
0.00344126
0.00146408
0.00333973
0.00181193
0.00319823
0.00149552
0.00307197
0.00122123
0.00291162
0.00112631
0.00270844
0.00108245
0.00253644
0.00110944
0.00238873
0.00116802
0.00224598
0.00123761
0.00208885
0.00130139
0.00191139
0.00134651
0.00172977
0.00136423
0.00154955
0.00137728
0.00137229
0.00138226
0.00118796
0.00138793
0.00098961
0.00136504
0.000798328
0.00132466
0.000619103
0.00127572
0.000456148
0.00123195
0.00030071
0.00120252
0.000147552
0.00118247
0.00118881
0.00418414
4.34077e-09
0.00418414
4.47056e-09
0.00418414
4.9457e-09
0.00418414
5.66158e-09
0.00418414
6.41164e-09
0.00418414
7.26945e-09
0.00418414
7.80111e-09
0.00418414
8.16043e-09
0.00418414
8.36957e-09
0.00418414
8.45291e-09
0.00418414
8.40997e-09
0.00418414
8.2497e-09
0.00418414
7.96477e-09
0.00418414
7.56659e-09
0.00418414
6.64819e-09
0.00418413
9.47221e-09
0.00418413
1.1242e-08
0.00418406
3.54895e-08
0.00418398
4.94554e-08
0.00418366
2.09546e-07
0.0041829
2.9947e-07
0.00418135
1.39356e-06
0.00417803
7.7501e-07
0.00421628
6.12972e-06
0.00417678
5.18788e-06
0.00409573
4.74408e-06
0.00408979
6.54794e-05
0.00398818
0.000153922
0.00379144
0.00109191
0.00354985
0.0020272
0.00337077
0.00173377
0.0032593
0.00135637
0.00308822
0.00126735
0.00287973
0.00122795
0.00270575
0.0012665
0.0025509
0.00133742
0.00240064
0.00141677
0.00223465
0.00148514
0.00204451
0.00152962
0.00184905
0.00154479
0.00165754
0.00155559
0.00146822
0.00156061
0.00127407
0.00156557
0.00106745
0.00154476
0.000862099
0.00150342
0.000668729
0.00145106
0.000492763
0.00140343
0.000323317
0.00137029
0.000157146
0.00134251
0.00135594
0.0043396
3.94605e-09
0.0043396
4.04056e-09
0.0043396
4.4919e-09
0.0043396
5.09881e-09
0.0043396
5.83905e-09
0.0043396
6.53331e-09
0.0043396
7.25416e-09
0.0043396
7.62148e-09
0.0043396
7.87264e-09
0.0043396
7.99237e-09
0.0043396
8.00177e-09
0.0043396
7.91216e-09
0.0043396
7.75026e-09
0.0043396
7.51983e-09
0.0043396
7.33099e-09
0.0043396
5.26106e-09
0.00433959
8.39839e-09
0.00433962
1.08448e-08
0.00433955
4.56599e-08
0.00433976
7.85416e-08
0.0043395
3.00961e-07
0.0043411
5.85181e-07
0.00433591
1.51509e-06
0.00435207
2.76955e-06
0.00432659
8.54892e-06
0.00447568
6.96246e-06
0.00428516
5.68594e-05
0.0042256
0.000125318
0.00427989
0.000706239
0.00378205
0.00223875
0.00358338
0.00188317
0.00346985
0.00152963
0.00328138
0.00141931
0.00307188
0.00138381
0.00289479
0.0014327
0.00273069
0.00151871
0.00257166
0.00160921
0.00239562
0.00168129
0.00219367
0.00172244
0.00198861
0.00173465
0.0017861
0.00174423
0.00158464
0.00174915
0.00137682
0.00175697
0.00115487
0.0017399
0.000936561
0.00169235
0.000729972
0.0016383
0.000537286
0.00158965
0.000348666
0.0015542
0.00016927
0.00151451
0.00153504
0.00450084
3.5269e-09
0.00450084
3.60765e-09
0.00450084
4.00005e-09
0.00450084
4.54571e-09
0.00450084
5.19261e-09
0.00450084
5.83196e-09
0.00450084
6.49303e-09
0.00450084
7.00703e-09
0.00450084
7.26895e-09
0.00450084
7.43746e-09
0.00450084
7.50261e-09
0.00450084
7.48842e-09
0.00450084
7.39891e-09
0.00450084
7.29893e-09
0.00450084
5.96466e-09
0.00450084
6.54036e-09
0.00450085
5.92777e-09
0.00450085
1.71794e-08
0.00450077
1.90698e-08
0.00450125
9.38241e-08
0.00449988
1.42272e-07
0.00450485
4.22372e-07
0.00449791
9.53733e-07
0.00449496
1.88438e-06
0.00450067
7.12518e-06
0.00438639
8.93542e-06
0.00445949
5.2504e-05
0.00445067
0.000103142
0.00429515
0.000600901
0.00388945
0.00219259
0.00380139
0.00195481
0.00366698
0.00165579
0.00348122
0.0015568
0.00326555
0.0015467
0.0030826
0.00161034
0.00290831
0.00171294
0.00274415
0.00181511
0.00256242
0.00188781
0.00235578
0.00192607
0.00213877
0.00192951
0.00192829
0.00193553
0.00171878
0.00194258
0.00150186
0.0019555
0.00126534
0.00194839
0.00102611
0.00190359
0.000800179
0.00184215
0.000591375
0.00178924
0.000387385
0.00175277
0.000185983
0.00171009
0.00172906
0.00466807
3.08879e-09
0.00466807
3.15584e-09
0.00466807
3.49184e-09
0.00466807
3.96867e-09
0.00466807
4.52638e-09
0.00466807
5.09215e-09
0.00466807
5.66966e-09
0.00466807
6.18105e-09
0.00466807
6.57976e-09
0.00466807
6.78338e-09
0.00466807
6.91582e-09
0.00466807
6.96787e-09
0.00466807
6.96889e-09
0.00466807
6.91464e-09
0.00466807
6.72458e-09
0.00466807
6.16657e-09
0.00466807
5.54884e-09
0.00466808
7.70894e-09
0.00466809
1.00059e-08
0.00466814
2.89157e-08
0.00466824
3.79699e-08
0.00466765
7.22317e-08
0.00466581
8.75131e-07
0.00466187
1.71423e-06
0.00466177
5.83533e-06
0.004568
7.95518e-06
0.00463367
5.098e-05
0.00459342
0.00011299
0.00444822
0.000555532
0.00410053
0.00208884
0.00403518
0.00200869
0.00390014
0.00175686
0.00370206
0.00169419
0.00348116
0.00172335
0.00329032
0.00180507
0.00310537
0.00192211
0.00293479
0.00203189
0.00274515
0.00210031
0.00252895
0.00212888
0.00230492
0.00212791
0.00208683
0.00213256
0.00186894
0.00214169
0.00164572
0.00216009
0.0014014
0.00216597
0.00114026
0.00213169
0.000892583
0.00206759
0.000660984
0.0020119
0.000430244
0.00197837
0.00020998
0.00192484
0.001944
0.00484151
2.63056e-09
0.00484151
2.68486e-09
0.00484151
2.96455e-09
0.00484151
3.37157e-09
0.00484151
3.83965e-09
0.00484151
4.33063e-09
0.00484151
4.81773e-09
0.00484151
5.28333e-09
0.00484151
5.69582e-09
0.00484151
6.02187e-09
0.00484151
6.17276e-09
0.00484152
6.27758e-09
0.00484152
6.31507e-09
0.00484152
6.26465e-09
0.00484152
6.61638e-09
0.00484152
6.39866e-09
0.00484151
5.83979e-09
0.00484152
5.5913e-09
0.00484151
7.91877e-09
0.00484154
6.33352e-09
0.00484151
3.41599e-08
0.00484198
-1.42404e-07
0.00484268
5.74967e-07
0.00484124
-5.7005e-08
0.00483065
6.83105e-06
0.00482702
4.27896e-06
0.00478167
5.75363e-05
0.00477625
8.8241e-05
0.0046812
0.000470689
0.00447683
0.00178867
0.00439995
0.00209905
0.00417617
0.00195933
0.00393113
0.00189236
0.00368768
0.00193062
0.00347683
0.00201782
0.00328201
0.00213729
0.00311225
0.00224352
0.00292796
0.00230431
0.00272009
0.00232996
0.00249441
0.00232538
0.00227394
0.00233202
0.00205021
0.00234938
0.00181502
0.00237913
0.00156134
0.00239348
0.0012851
0.00237469
0.00100879
0.00232189
0.000751108
0.00226206
0.000495919
0.00222896
0.000240845
0.00217341
0.0021869
0.00502139
2.15156e-09
0.00502139
2.19352e-09
0.00502139
2.41997e-09
0.0050214
2.75429e-09
0.0050214
3.13966e-09
0.0050214
3.54838e-09
0.0050214
3.95907e-09
0.0050214
4.35284e-09
0.0050214
4.73465e-09
0.0050214
5.05178e-09
0.0050214
5.34818e-09
0.0050214
5.47233e-09
0.0050214
5.55583e-09
0.0050214
5.55513e-09
0.0050214
6.21485e-09
0.0050214
6.17374e-09
0.0050214
9.53138e-09
0.00502138
9.86962e-09
0.00502138
3.28037e-08
0.00502128
4.11097e-08
0.00502162
1.79628e-07
0.00502022
1.57427e-07
0.00502379
4.63079e-07
0.00503936
-1.31838e-07
0.00499871
-1.30814e-06
0.0049316
-1.68391e-05
0.00495546
8.30203e-05
0.00497431
-7.28552e-05
0.00485529
0.000408358
0.00492253
0.00122682
0.00473685
0.00231141
0.00437657
0.00232534
0.00410516
0.00214767
0.00385542
0.00216597
0.00364469
0.00224412
0.00345879
0.00235473
0.00330593
0.00245349
0.0031371
0.00250253
0.00294034
0.00252446
0.00271743
0.002518
0.00249756
0.0025303
0.0022719
0.00255977
0.0020309
0.0026041
0.00176138
0.00264051
0.00146766
0.00263564
0.00116734
0.00259469
0.000873279
0.00254476
0.000576389
0.00252295
0.000288089
0.00245734
0.00247648
0.00520796
1.65106e-09
0.00520796
1.68419e-09
0.00520796
1.86251e-09
0.00520797
2.12953e-09
0.00520797
2.43916e-09
0.00520797
2.77414e-09
0.00520797
3.11339e-09
0.00520797
3.44804e-09
0.00520797
3.77696e-09
0.00520797
4.07511e-09
0.00520797
4.36712e-09
0.00520797
4.58974e-09
0.00520797
4.7969e-09
0.00520797
4.75859e-09
0.00520798
4.78567e-09
0.00520798
4.75578e-09
0.00520798
5.11383e-09
0.00520798
6.89296e-09
0.00520797
1.19371e-08
0.00520809
2.83314e-08
0.0052079
3.07565e-08
0.00520772
3.03013e-07
0.00520799
4.56565e-08
0.00520728
1.70247e-06
0.00516094
4.85913e-06
0.00517662
-1.7171e-07
0.00548986
1.24171e-05
0.00508801
3.22747e-05
0.00520622
0.000155203
0.00499019
0.00101446
0.00459512
0.00267138
0.00435247
0.00258754
0.00416264
0.00236175
0.00398352
0.00237329
0.00382975
0.00243555
0.00369764
0.0025467
0.00356743
0.00263606
0.00341395
0.002684
0.00321276
0.00270597
0.00298922
0.00270204
0.0027664
0.00272523
0.00253487
0.00276692
0.00228937
0.00282761
0.00201712
0.00288889
0.00169964
0.00292375
0.00136854
0.00289247
0.00104636
0.00284912
0.000706564
0.00285472
0.000352814
0.00281164
0.00283129
0.00540147
1.13065e-09
0.00540147
1.16218e-09
0.00540147
1.30141e-09
0.00540147
1.50689e-09
0.00540147
1.75063e-09
0.00540147
2.01891e-09
0.00540147
2.29749e-09
0.00540147
2.58318e-09
0.00540147
2.86705e-09
0.00540147
3.14413e-09
0.00540147
3.41672e-09
0.00540147
3.66914e-09
0.00540148
3.88855e-09
0.00540148
4.09428e-09
0.00540148
4.1122e-09
0.00540148
4.42732e-09
0.00540147
5.10393e-09
0.00540149
8.0256e-09
0.0054014
1.50359e-08
0.0054015
2.49954e-08
0.00540116
8.93349e-08
0.00540194
7.52802e-08
0.00540002
6.88306e-07
0.00540129
8.78013e-07
0.00542212
2.56103e-06
0.00539156
8.09555e-06
0.00561534
7.22342e-06
0.00532171
7.07368e-05
0.00528658
0.000144519
0.00527158
0.000806109
0.00481877
0.00283908
0.00460797
0.00282798
0.00439816
0.00260077
0.0042335
0.00254747
0.00410595
0.00258656
0.0040093
0.00267966
0.00390195
0.0027766
0.0037568
0.00283943
0.00355271
0.00287402
0.00331796
0.00287861
0.00308931
0.00291225
0.00285417
0.00296909
0.00260673
0.00304849
0.00233485
0.00313328
0.00201943
0.00320416
0.00164878
0.00322766
0.00128253
0.0031968
0.000894209
0.00323494
0.000473178
0.00323348
0.00330627
0.00560216
6.0179e-10
0.00560216
6.60413e-10
0.00560216
7.88949e-10
0.00560216
9.53464e-10
0.00560216
1.14969e-09
0.00560216
1.36044e-09
0.00560216
1.58832e-09
0.00560216
1.82586e-09
0.00560216
2.06635e-09
0.00560216
2.31965e-09
0.00560216
2.56021e-09
0.00560217
2.81419e-09
0.00560217
3.02127e-09
0.00560217
3.23982e-09
0.00560217
3.29698e-09
0.00560217
3.29362e-09
0.00560217
2.83881e-09
0.00560217
4.27828e-09
0.0056022
1.18015e-09
0.00560218
5.21934e-09
0.00560243
-1.9758e-08
0.00560235
5.81528e-08
0.00560216
2.02271e-07
0.00560475
6.05913e-07
0.0056034
6.95971e-07
0.00559519
6.36129e-06
0.00559604
7.06933e-06
0.00555902
6.61586e-05
0.00552311
0.000125658
0.00547118
0.000706411
0.00533622
0.00254686
0.00513025
0.00303745
0.00486082
0.00285669
0.00468572
0.00269848
0.00453808
0.00273428
0.00442247
0.00281163
0.00430314
0.00291979
0.00414698
0.00299485
0.00394299
0.00304077
0.00369711
0.00305803
0.00346685
0.00310112
0.00323241
0.00317562
0.00298828
0.0032701
0.0027244
0.00337672
0.00242299
0.00348365
0.00205567
0.00356144
0.00166305
0.00357675
0.00122362
0.00366748
0.000695648
0.00376051
0.00400405
0.00581031
1.14398e-10
0.00581031
2.00702e-10
0.00581031
3.21776e-10
0.00581031
4.64618e-10
0.00581031
6.30072e-10
0.00581031
8.11151e-10
0.00581031
1.00448e-09
0.00581031
1.21463e-09
0.00581031
1.42173e-09
0.00581031
1.65414e-09
0.00581031
1.86426e-09
0.00581031
2.11033e-09
0.00581031
2.32847e-09
0.00581031
2.59029e-09
0.00581031
2.897e-09
0.00581032
3.49566e-09
0.0058103
4.60662e-09
0.0058103
6.89374e-09
0.00581028
1.06735e-08
0.00581027
2.02315e-08
0.00581022
2.64345e-08
0.00580988
1.31524e-08
0.00581032
-3.01763e-08
0.00581211
7.38314e-07
0.00580503
4.28127e-07
0.00584399
2.95065e-06
0.00588709
-3.891e-06
0.00576697
7.22185e-05
0.00586089
1.71605e-05
0.0058003
0.0004709
0.00606129
0.00163154
0.00573309
0.00332675
0.005451
0.0031292
0.00519351
0.0029359
0.00499596
0.00291076
0.00482601
0.00297526
0.00469426
0.00305999
0.00453946
0.00314819
0.00435295
0.00320654
0.00412148
0.0032453
0.00390836
0.00329915
0.00369826
0.00338385
0.0034796
0.00348914
0.00324441
0.00360966
0.00297831
0.00373871
0.00264487
0.0038694
0.00224806
0.00394412
0.00181469
0.00409206
0.00127314
0.00430064
0.00527748
0.00840003
9.70664e-12
0.00840003
3.76684e-11
0.00840003
8.23942e-11
0.00840003
1.47183e-10
0.00840003
2.27801e-10
0.00840003
3.27971e-10
0.00840003
4.40427e-10
0.00840003
5.72055e-10
0.00840003
7.11213e-10
0.00840003
8.68895e-10
0.00840004
1.02749e-09
0.00840004
1.20858e-09
0.00840004
1.37318e-09
0.00840004
1.5925e-09
0.00840004
1.75522e-09
0.00840004
2.07747e-09
0.00840004
2.27802e-09
0.00840005
2.77561e-09
0.00840002
6.20481e-09
0.00840001
1.19672e-08
0.00839992
2.2959e-08
0.00839854
5.46704e-08
0.0083974
1.03622e-07
0.00840219
2.69831e-07
0.00839897
1.38305e-06
0.00838199
3.17958e-06
0.00836732
6.81312e-06
0.00836849
1.88825e-05
0.00828957
7.26915e-05
0.00851598
0.000176408
0.00888795
0.00104401
0.0083405
0.00359859
0.00808851
0.00333148
0.00771636
0.00323442
0.00744066
0.00312406
0.00723482
0.00316357
0.00707377
0.00325369
0.00692351
0.00335416
0.00672691
0.00343047
0.00648647
0.00348398
0.00625215
0.00353047
0.00603488
0.00359855
0.00582517
0.00368753
0.00561812
0.00379018
0.00542032
0.00389646
0.00524096
0.00400898
0.00505326
0.00408672
0.00500112
0.00411615
0.00526434
0.00403413
0.0035379
0.00700605
0.00840003
1.10212e-12
0.00840003
5.71833e-12
0.00840003
1.50595e-11
0.00840003
3.21276e-11
0.00840003
5.76975e-11
0.00840003
9.42668e-11
0.00840003
1.43483e-10
0.00840003
2.03704e-10
0.00840003
2.80307e-10
0.00840003
3.64766e-10
0.00840003
4.68499e-10
0.00840003
5.75771e-10
0.00840003
7.0727e-10
0.00840004
8.33245e-10
0.00840004
1.01485e-09
0.00840004
1.17981e-09
0.00840003
1.59905e-09
0.00840004
2.13416e-09
0.00840002
4.08126e-09
0.00840007
5.91511e-09
0.0084
2.88177e-08
0.00839999
6.93577e-08
0.00840006
9.18984e-08
0.00840067
1.1622e-07
0.00840153
2.91532e-07
0.0083973
1.30318e-06
0.00838438
2.86952e-06
0.00841239
3.4887e-06
0.00834111
5.99347e-05
0.00827158
0.000126336
0.00845788
0.000633302
0.00904658
0.00213006
0.00868682
0.00358335
0.00832937
0.00354687
0.00802328
0.00340545
0.00777716
0.00338665
0.00759853
0.0034544
0.00745568
0.00354219
0.00729054
0.00361923
0.00712217
0.00367218
0.00694773
0.00370356
0.00680636
0.00374091
0.00670258
0.00378781
0.00663179
0.00384246
0.00661004
0.00389289
0.00666022
0.00393406
0.00678945
0.00393572
0.00702004
0.00386518
0.00735255
0.00368777
0.00319265
0.0076894
0.00840003
1.40818e-13
0.00840003
8.74564e-13
0.00840003
2.73166e-12
0.00840003
6.79026e-12
0.00840003
1.37275e-11
0.00840003
2.50581e-11
0.00840003
4.24909e-11
0.00840003
6.52914e-11
0.00840003
9.81196e-11
0.00840003
1.36208e-10
0.00840003
1.88081e-10
0.00840003
2.42444e-10
0.00840003
3.21651e-10
0.00840003
3.78136e-10
0.00840003
5.04466e-10
0.00840003
5.27679e-10
0.00840004
8.8001e-10
0.00840003
9.31171e-10
0.00840004
2.9712e-09
0.00839998
2.09316e-09
0.00840013
1.75993e-08
0.00839983
3.27652e-08
0.00840052
7.97797e-08
0.00840137
3.81945e-08
0.00839621
5.51258e-07
0.00840409
4.71073e-07
0.00841247
3.54119e-06
0.00838877
5.25334e-06
0.00834829
2.62815e-05
0.00853073
5.20599e-05
0.00857773
0.000280054
0.00948795
0.000830969
0.00917581
0.00371413
0.00882238
0.00379868
0.00841375
0.00374628
0.0081313
0.00361772
0.00793146
0.00363245
0.00785048
0.00369343
0.00780773
0.00376373
0.00774139
0.00380751
0.00766159
0.00382411
0.00758414
0.00382609
0.00753811
0.00382496
0.0075409
0.00382453
0.00760018
0.00381545
0.00771955
0.00378919
0.00790056
0.00372832
0.00812735
0.0036137
0.00836482
0.00343194
0.00305594
0.00848276
0.00840003
2.40149e-14
0.00840003
1.62717e-13
0.00840003
5.16474e-13
0.00840003
1.32859e-12
0.00840003
2.87828e-12
0.00840003
5.78371e-12
0.00840003
1.04102e-11
0.00840003
1.7764e-11
0.00840003
2.83852e-11
0.00840003
4.27321e-11
0.00840003
6.23513e-11
0.00840003
8.79707e-11
0.00840003
1.16331e-10
0.00840003
1.64652e-10
0.00840003
2.0631e-10
0.00840003
3.24253e-10
0.00840003
4.30369e-10
0.00840003
9.02386e-10
0.00840003
1.14484e-09
0.00839999
4.48806e-09
0.00840005
7.00952e-09
0.00840001
3.61685e-08
0.00839964
5.85563e-08
0.00840001
1.94367e-07
0.00839849
3.20667e-07
0.00840193
9.8126e-07
0.00839562
2.07562e-06
0.00841683
4.6081e-06
0.00837276
1.57982e-05
0.00830004
2.56291e-05
0.00835526
0.00020114
0.00855574
0.000491472
0.00905346
0.0027265
0.00880103
0.00394291
0.00856639
0.00396815
0.008352
0.00387137
0.00823225
0.00380391
0.0082222
0.00380299
0.0082442
0.00383497
0.00826549
0.00385885
0.0082648
0.00385914
0.00825755
0.00383907
0.00826085
0.00380804
0.0082961
0.00377107
0.00837108
0.00372095
0.00849149
0.00365673
0.00865065
0.00355978
0.00882011
0.00343376
0.00898782
0.00325735
0.00296025
0.00908098
0.00840003
4.36135e-15
0.00840003
3.2519e-14
0.00840003
1.01542e-13
0.00840003
2.69962e-13
0.00840003
6.06049e-13
0.00840003
1.30484e-12
0.00840003
2.47747e-12
0.00840003
4.58472e-12
0.00840003
7.652e-12
0.00840003
1.26112e-11
0.00840003
1.90335e-11
0.00840003
2.91999e-11
0.00840003
4.06021e-11
0.00840003
5.96968e-11
0.00840003
7.82098e-11
0.00840003
1.26352e-10
0.00840003
1.7643e-10
0.00840003
3.23646e-10
0.00840003
5.31407e-10
0.00840003
1.28728e-09
0.00840006
2.09622e-09
0.00840002
8.0115e-09
0.00840022
1.54511e-08
0.00840016
4.30652e-08
0.00839971
2.43411e-07
0.00839726
3.23927e-07
0.00840124
1.13948e-06
0.00840654
1.56264e-06
0.00838538
1.32673e-05
0.0084046
7.83439e-06
0.00838817
0.000151516
0.00856756
0.00017985
0.00988466
0.00105931
0.00955842
0.00405226
0.00922468
0.00421605
0.00888981
0.00420912
0.00871487
0.00403861
0.00868729
0.00393678
0.00874562
0.00389757
0.00880836
0.00387569
0.00885106
0.00385569
0.00888007
0.00381832
0.00891376
0.0037654
0.00895966
0.00370197
0.00902704
0.00362474
0.0091174
0.00353733
0.00923287
0.003424
0.00936297
0.00329177
0.0094755
0.00312941
0.002887
0.00953059
0.00840003
8.51953e-16
0.00840003
6.51454e-15
0.00840003
2.14796e-14
0.00840003
5.52296e-14
0.00840003
1.30466e-13
0.00840003
2.76127e-13
0.00840003
5.65261e-13
0.00840003
1.064e-12
0.00840003
1.94991e-12
0.00840003
3.29352e-12
0.00840003
5.5752e-12
0.00840003
8.559e-12
0.00840003
1.42444e-11
0.00840003
2.07972e-11
0.00840003
3.98322e-11
0.00840003
5.81622e-11
0.00840003
1.42621e-10
0.00840003
2.0696e-10
0.00840003
6.61742e-10
0.00840003
9.51898e-10
0.00840001
3.73509e-09
0.00840001
4.92144e-09
0.00839992
2.08195e-08
0.0083999
2.00257e-08
0.00839985
4.81459e-08
0.00839877
2.57949e-07
0.00840311
7.11343e-07
0.00838871
1.54662e-06
0.0083684
3.02746e-06
0.00839098
1.3152e-05
0.00848604
3.35572e-05
0.00841843
0.000177376
0.00883056
0.000400365
0.00996031
0.00217023
0.00977995
0.00437054
0.00972446
0.00431528
0.00945542
0.00429268
0.00932666
0.00407199
0.00928975
0.00394563
0.00932955
0.00387167
0.009381
0.00382755
0.00941047
0.00377936
0.00942894
0.00371801
0.00945014
0.0036441
0.00948703
0.00355001