/*--------------------------------*- C++ -*----------------------------------*\
| =========                 |                                                 |
| \\      /  F ield         | OpenFOAM: The Open Source CFD Toolbox           |
|  \\    /   O peration     | Version:  2112                                  |
|   \\  /    A nd           | Website:  www.openfoam.com                      |
|    \\/     M anipulation  |                                                 |
\*---------------------------------------------------------------------------*/
FoamFile
{
    version     2.0;
    format      ascii;
    arch        "LSB;label=32;scalar=64";
    class       volScalarField;
    location    "0.4995";
    object      T;
}
// * * * * * * * * * * * * * * * * * * * * * * * * * * * * * * * * * * * * * //

dimensions      [0 0 0 1 0 0 0];

internalField   nonuniform List<scalar> 
7000
(
1
1
1
1
1
1
1
1
1
1
1
1
1
1
1
1
1.00003
1.00007
1.00029
1.00073
1.00166
1.00482
1.00884
1.02656
1.10856
1.27241
1.83719
2.66755
2.92459
2.86206
2.78845
2.75187
2.74697
2.78004
2.84988
2.88243
2.87859
2.88136
2.89269
2.91695
2.9396
2.96344
3.00609
3.0697
3.19644
3.29722
3.36229
3.43538
3.37114
3.22231
1
1
1
1
1
1
1
1
1
1
1
1
1
1
0.999999
1.00001
1.00001
1.00011
1.00018
1.00084
1.00126
1.00432
1.00935
1.02072
1.10947
1.2585
1.83067
2.65604
2.9147
2.85677
2.78375
2.74989
2.74886
2.78959
2.85718
2.88466
2.87865
2.88445
2.89419
2.92202
2.94397
2.96897
3.01206
3.08482
3.19693
3.31208
3.34734
3.40988
3.45529
3.28723
1
1
1
1
1
1
1
1
1
1
1
1
1
1
1
1
1.00001
1.00009
1.00018
1.00074
1.00124
1.00414
1.00852
1.03085
1.10084
1.24521
1.82018
2.63817
2.9143
2.85408
2.78016
2.74897
2.74923
2.79256
2.85883
2.88287
2.87673
2.8806
2.89007
2.92402
2.94843
2.97028
3.01302
3.09157
3.20297
3.31931
3.3458
3.3984
3.46718
3.4338
1
1
1
1
1
1
1
1
1
1
1
1
1
1
1
1
1.00001
1.00008
1.00018
1.00067
1.00124
1.00369
1.00799
1.02858
1.09865
1.22973
1.80551
2.62227
2.9092
2.84651
2.7739
2.74625
2.7481
2.7934
2.85951
2.88293
2.87618
2.88372
2.88929
2.92253
2.94738
2.97034
3.00857
3.09117
3.20699
3.32023
3.35659
3.38564
3.45826
3.4506
1
1
1
1
1
1
1
1
1
1
1
1
1
1
1
1
1.00002
1.00006
1.0003
1.0005
1.00183
1.00322
1.01517
1.02159
1.09279
1.22476
1.77097
2.60836
2.90569
2.84028
2.76796
2.74269
2.746
2.79367
2.85975
2.88226
2.87605
2.88186
2.88974
2.92131
2.94223
2.96694
3.00632
3.08863
3.2041
3.31793
3.36829
3.3794
3.43871
3.45091
1
1
1
1
1
1
1
1
1
1
1
1
1
1
1
1.00001
1.00001
1.0001
1.00016
1.00073
1.00162
1.00309
1.0166
1.00588
1.08898
1.21907
1.76251
2.59349
2.89756
2.82674
2.75804
2.73709
2.74268
2.79345
2.85994
2.88013
2.87396
2.87664
2.88838
2.91619
2.94324
2.96633
2.99724
3.08534
3.20233
3.31288
3.37282
3.37516
3.42043
3.45244
1
1
1
1
1
1
1
1
1
1
1
1
1
1
1
1.00001
1.00001
1.00009
1.00016
1.00063
1.00124
1.00248
1.01472
0.995338
1.10147
1.19933
1.7144
2.54699
2.8816
2.81302
2.75098
2.73387
2.7409
2.7935
2.86064
2.88025
2.87461
2.87515
2.88865
2.91549
2.94012
2.96567
2.99226
3.083
3.19493
3.31117
3.37854
3.37836
3.41222
3.45925
1
1
1
1
1
1
1
1
1
1
1
1
1
1
1
1.00001
1.00001
1.0001
1.00014
1.00064
1.00102
1.00214
1.01133
0.999174
1.08874
1.16552
1.69332
2.49674
2.86052
2.79508
2.74384
2.7302
2.7394
2.79592
2.86267
2.8803
2.87482
2.87179
2.88372
2.91518
2.9388
2.9631
2.98529
3.07301
3.1804
3.29125
3.36645
3.37031
3.40959
3.46794
1
1
1
1
1
1
1
1
1
1
1
1
1
1
1
1.00001
1.00001
1.0001
1.00014
1.00064
1.00093
1.00278
1.0068
1.00331
1.08352
1.15339
1.62093
2.42237
2.8202
2.77462
2.73931
2.72713
2.73902
2.80039
2.86513
2.88047
2.87336
2.86885
2.87912
2.91101
2.93494
2.95809
2.98321
3.07068
3.17486
3.28852
3.3656
3.36966
3.41124
3.46335
1
1
1
1
1
1
1
1
1
1
1
1
1
1
1
1.00001
1.00001
1.00009
1.00013
1.00058
1.00086
1.00309
1.00529
1.02077
1.06432
1.13054
1.5443
2.31289
2.74594
2.75611
2.73801
2.72603
2.74007
2.80642
2.86558
2.87751
2.86869
2.86379
2.872
2.90411
2.92415
2.95253
2.97357
3.04913
3.16275
3.27606
3.35788
3.36681
3.41574
3.43836
1
1
1
1
1
1
1
1
1
1
1
1
1
1
1
1
1.00003
1.00006
1.0003
1.00041
1.00194
1.00208
1.01313
1.00378
1.05258
1.12538
1.44459
2.22906
2.60101
2.74896
2.73981
2.72923
2.74437
2.81274
2.8657
2.8763
2.86613
2.85915
2.8666
2.89907
2.92391
2.95114
2.97361
3.04212
3.14496
3.25988
3.34722
3.35959
3.41368
3.39801
1
1
1
1
1
1
1
1
1
1
1
1
1
1
1
1.00001
1.00001
1.00006
1.00009
1.0004
1.00062
1.00192
1.00504
1.01475
1.04573
1.11247
1.36014
2.1061
2.41501
2.7537
2.74678
2.73832
2.75496
2.81945
2.86392
2.87097
2.85833
2.85041
2.85879
2.89129
2.91134
2.93889
2.96188
3.0257
3.13713
3.24813
3.32761
3.34628
3.41809
3.36591
1
1
1
1
1
1
1
1
1
1
1
1
1
1
1
1
1.00002
1.00003
1.00014
1.00021
1.00083
1.00079
1.00433
1.01255
1.03813
1.09857
1.30585
1.92563
2.32082
2.75309
2.74931
2.75147
2.76905
2.82728
2.8662
2.87146
2.85652
2.84515
2.85
2.88107
2.90535
2.92955
2.94792
3.00084
3.11207
3.23262
3.32179
3.34521
3.40833
3.34032
1
1
1
1
1
1
1
1
1
1
1
1
1
1
1
1
1
1.00004
1.00005
1.00021
1.00043
1.00077
1.00336
1.01018
1.03316
1.08058
1.25513
1.77049
2.21088
2.72138
2.7594
2.76556
2.78272
2.83295
2.85844
2.85705
2.83751
2.82659
2.8364
2.87245
2.89755
2.92315
2.94238
2.97994
3.07698
3.20908
3.30191
3.32925
3.40763
3.32257
1
1
1
1
1
1
1
1
1
1
1
1
1
1
1
1.00001
1
1.00004
1.00005
1.0002
1.00041
1.00063
1.00412
1.00152
1.02992
1.05472
1.20948
1.6292
2.08324
2.69526
2.78683
2.78912
2.79775
2.83323
2.85458
2.85244
2.83245
2.82036
2.826
2.85951
2.88466
2.90897
2.92646
2.96708
3.04695
3.17165
3.28283
3.31733
3.38745
3.31256
1
1
1
1
1
1
1
1
1
1
1
1
1
1
1
1
1.00001
1.00004
1.00005
1.00023
1.00045
1.00063
1.00317
0.998325
1.0172
1.03486
1.15497
1.47729
1.98572
2.66776
2.81979
2.81038
2.80813
2.82793
2.84247
2.83982
2.81773
2.8037
2.80933
2.84062
2.86809
2.88884
2.90272
2.93426
3.01725
3.12744
3.23848
3.28945
3.38457
3.29988
1
1
1
1
1
1
1
1
1
1
1
1
1
1
1
1
1.00001
1.00001
1.00005
1.00009
1.00014
1.00102
1.00123
1.00995
1.00644
1.05025
1.10469
1.43484
2.14294
2.50997
2.77713
2.79088
2.79503
2.80486
2.80736
2.79828
2.77486
2.76728
2.77999
2.82087
2.84839
2.87094
2.88658
2.90993
2.966
3.09386
3.20944
3.24917
3.3377
3.28648
1
1
1
1
1
1
1
1
1
1
1
1
1
1
1
1
1.00001
1.00001
1.00004
1.00011
1.00024
1.00071
1.00117
1.00727
0.999648
1.04555
1.08717
1.32483
1.92451
2.36521
2.68227
2.70499
2.73955
2.76648
2.77532
2.76952
2.75083
2.74395
2.75678
2.8027
2.83286
2.85666
2.86962
2.88577
2.92421
3.02134
3.16591
3.22347
3.3112
3.25177
1
1
1
1
1
1
1
1
1
1
1
1
1
1
1
1
1
1.00001
1.00002
1.00004
1.00006
1.00045
1.00046
1.005
1.00025
1.0352
1.06108
1.24219
1.68244
2.22056
2.62071
2.68117
2.70792
2.74865
2.7695
2.76796
2.75242
2.74377
2.75207
2.79223
2.82487
2.84392
2.85511
2.86735
2.89189
2.95896
3.08738
3.14838
3.23317
3.20761
1
1
1
1
1
1
1
1
1
1
1
1
1
1
1
1
1
1.00001
1.00002
1.0001
1.00007
1.00036
1.00046
1.00251
1.00263
1.02082
1.02071
1.16533
1.45936
1.96364
2.59856
2.73383
2.72681
2.74292
2.76383
2.77083
2.76221
2.74865
2.75073
2.77735
2.80085
2.80882
2.81315
2.81883
2.83241
2.87028
2.99498
3.07176
3.14835
3.02303
1
1
1
1
1
1
1
1
1
1
1
1
1
1
1
1
1
1
1.00002
1.00003
1.00015
1.00013
1.0007
1.00156
1.00427
1.01363
1.04683
1.09516
1.34752
1.97316
2.37213
2.66731
2.68431
2.71957
2.75271
2.76381
2.75704
2.73501
2.72661
2.73222
2.74556
2.74918
2.74909
2.75116
2.75855
2.77021
2.81428
2.87754
2.91757
2.84335
1
1
1
1
1
1
1
1
1
1
1
1
1
1
1
1
1
1
1.00001
1.00002
1.00012
1.00011
1.00034
1.0004
1.00278
1.00295
1.02804
1.04388
1.20729
1.64154
2.08024
2.56314
2.68719
2.70351
2.72348
2.73071
2.7263
2.70496
2.69135
2.69144
2.7
2.70522
2.703
2.6972
2.69177
2.67818
2.66764
2.65312
2.63092
2.58324
1
1
1
1
1
1
1
1
1
1
1
1
1
1
1
1
1
1
1.00001
1.00001
1.00005
1.00006
1.00048
0.999957
1.00213
1.00567
1.01382
1.03174
1.11705
1.30147
1.81502
2.52075
2.67104
2.68663
2.69886
2.70984
2.70988
2.69407
2.658
2.63239
2.62573
2.62754
2.63056
2.62767
2.61932
2.60229
2.57636
2.53939
2.48346
2.42531
1
1
1
1
1
1
1
1
1
1
1
1
1
1
1
1
1
1
1
1.00001
1.00004
1.00005
1.0003
1.0004
1.00165
1.00216
1.01217
1.00768
1.08451
1.17154
1.64326
2.37754
2.61365
2.68656
2.67697
2.66164
2.65493
2.6406
2.61163
2.58497
2.56892
2.56543
2.56533
2.56279
2.55512
2.53745
2.50986
2.46687
2.41529
2.35141
1
1
1
1
1
1
1
1
1
1
1
1
1
1
1
1
1
1
1
1
1.00001
1.00001
1.00008
1.00004
1.00074
1.00069
1.00814
1.00159
1.04784
1.09841
1.32337
1.95117
2.31286
2.52632
2.59126
2.61305
2.61243
2.60369
2.57748
2.54846
2.52838
2.5182
2.51225
2.50497
2.49623
2.47719
2.45561
2.41321
2.36425
2.31042
1
1
1
1
1
1
1
1
1
1
1
1
1
1
1
1
1
1
1
1
1.00001
1.00003
1.00002
1.00014
1.00015
1.00131
1.00118
1.01093
1.00176
1.07172
1.11875
1.50902
2.16979
2.50222
2.53552
2.51979
2.52853
2.53436
2.53265
2.52333
2.50367
2.49038
2.48383
2.47833
2.47079
2.4551
2.43309
2.39953
2.35303
2.30299
1
1
1
1
1
1
1
1
1
1
1
1
1
1
1
1
1
1
1
1
1
1.00001
1.00003
1.00004
1.00019
1.00033
1.00122
1.00184
1.0082
1.02931
1.05071
1.21693
1.62876
2.07339
2.47044
2.51446
2.525
2.52554
2.52451
2.51936
2.50543
2.48825
2.47145
2.45435
2.44544
2.43661
2.42036
2.39226
2.35241
2.30545
1
1
1
1
1
1
1
1
1
1
1
1
1
1
1
1
1
1
1
1
1
1
1.00001
1.00002
1.00007
1.00033
1.00037
1.00256
1.00214
1.01636
1.01917
1.09054
1.19274
1.67493
2.29344
2.49309
2.52226
2.51881
2.50967
2.50079
2.49396
2.48147
2.46394
2.44613
2.42343
2.40079
2.3823
2.35727
2.32553
2.28855
1
1
1
1
1
1
1
1
1
1
1
1
1
1
1
1
1
1
1
1
1
1
1
1.00001
1.00005
1.00005
1.00023
1.00056
1.0014
1.00345
1.01208
1.03769
1.07539
1.26796
1.80849
2.12384
2.41104
2.47347
2.47305
2.46128
2.43954
2.4228
2.40905
2.3948
2.37364
2.35116
2.33087
2.30541
2.27449
2.24402
1
1
1
1
1
1
1
1
1
1
1
1
1
1
1
1
1
1
1
1
1
1
1
1
1.00001
1.00005
1.00005
1.00022
1.00054
1.00151
1.00331
1.01164
1.03939
1.07512
1.25729
1.79409
2.09815
2.32421
2.38697
2.41529
2.41128
2.39924
2.37848
2.35625
2.33629
2.31161
2.29503
2.27611
2.25318
2.22849
1
1
1
1
1
1
1
1
1
1
1
1
1
1
1
1
1
1
1
1
1
1
1
1
1
1.00002
1.00002
1.00009
1.0001
1.00054
1.00141
1.00441
1.00435
1.03341
1.0904
1.2285
1.64096
2.22941
2.34009
2.35069
2.37272
2.36997
2.36073
2.34024
2.32151
2.29803
2.27209
2.25038
2.22155
2.20226
1
1
1
1
1
1
1
1
1
1
1
1
1
1
1
1
1
1
1
1
1
1
1
1
1
1
1
1.00004
0.999993
1.00023
1.00028
1.00165
1.00169
1.014
1.01408
1.08488
1.15618
1.59818
2.18366
2.31796
2.31309
2.31984
2.31574
2.30609
2.29295
2.27481
2.24933
2.22652
2.19853
2.16946
1
1
1
1
1
1
1
1
1
1
1
1
1
1
1
1
1
1
1
1
1
1
1
1
1
1
1
1.00001
1.00001
1.00009
1.00015
1.00042
1.00182
1.00183
1.01028
1.00151
1.07436
1.10571
1.49288
2.05301
2.19038
2.22511
2.24847
2.24236
2.23473
2.22023
2.20195
2.17786
2.16272
2.13472
1
1
1
1
1
1
1
1
1
1
1
1
1
1
1
1
1
1
1
1
1
1
1
1
1
1
1
1
1.00001
1.00001
1.00008
1.00008
1.00043
1.00065
1.00238
1.00394
1.01477
1.04968
1.05961
1.35477
1.7549
2.01445
2.15918
2.16879
2.17704
2.17641
2.17135
2.15871
2.14452
2.12464
1
1
1
1
1
1
1
1
1
1
1
1
1
1
1
1
1
1
1
1
1
1
1
1
1
1
1
1
1
1
1.00002
1.00002
1.00007
1.00025
1.00041
1.00059
1.00475
1.00826
1.02278
1.07143
1.18007
1.4727
1.87278
2.0721
2.13532
2.14535
2.13933
2.1338
2.12337
2.11096
1
1
1
1
1
1
1
1
1
1
1
1
1
1
1
1
1
1
1
1
1
1
1
1
1
1
1
1
1
1
1
1
1.00002
1.00002
1.00013
1.00012
1.00114
1.00103
1.00852
1.00642
1.04582
1.0545
1.29628
1.59638
1.83887
2.04148
2.08782
2.09865
2.0897
2.08193
1
1
1
1
1
1
1
1
1
1
1
1
1
1
1
1
1
1
1
1
1
1
1
1
1
1
1
1
1
1
1
1
1.00001
1.00001
1.00004
1.00004
1.00027
1.00024
1.0011
1.00085
1.00746
1.01779
1.05086
1.10672
1.30302
1.57466
1.77934
1.99322
2.03155
2.0313
1
1
1
1
1
1
1
1
1
1
1
1
1
1
1
1
1
1
1
1
1
1
1
1
1
1
1
1
1
1
1
1
1
1
1
1.00002
1.00002
1.0001
1.00017
1.00067
1.00093
1.00433
1.00436
1.02159
1.0211
1.13679
1.26381
1.45217
1.67964
1.87409
1
1
1
1
1
1
1
1
1
1
1
1
1
1
1
1
1
1
1
1
1
1
1
1
1
1
1
1
1
1
1
1
1
1
1
1
1
1.00003
1.00003
1.00015
1.0001
1.00074
1.00037
1.00348
1.00447
1.01744
1.04115
1.09605
1.20545
1.41526
1
1
1
1
1
1
1
1
1
1
1
1
1
1
1
1
1
1
1
1
1
1
1
1
1
1
1
1
1
1
1
1
1
1
1
1
1
1
1.00001
1.00001
1.00007
1.00008
1.00044
1.00052
1.00233
1.00289
1.01293
1.01099
1.05392
1.07968
1
1
1
1
1
1
1
1
1
1
1
1
1
1
1
1
1
1
1
1
1
1
1
1
1
1
1
1
1
1
1
1
1
1
1
1
1
1
1
1
1.00002
1.00002
1.00012
1.00015
1.00071
1.00077
1.00419
1.00277
1.01731
1.02048
1
1
1
1
1
1
1
1
1
1
1
1
1
1
1
1
1
1
1
1
1
1
1
1
1
1
1
1
1
1
1
1
1
1
1
1
1
1
1
1
0.999999
1
0.999984
1
0.999851
1.00048
0.997432
1.00221
1.0027
1.01728
1
1
1
1
1
1
1
1
1
1
1
1
1
1
1
1
1
1
1
1
1
1
1
1
1
1
1
1
1
1
1
1
1
1
1
1
1
1
1
1
1
1
0.999991
0.999996
0.999937
1.00015
0.999099
1.00075
1.00105
1.00598
1
1
1
1
1
1
1
1
1
1
1
1
1
1
1
1
1
1
1
1
1
1
1
1
1
1
1
1
1
1
1
1
1
1
1
1
1
1
1
1
1
1
0.999998
1
0.999982
1.00005
0.999704
1.00026
1.00032
1.00201
1
1
1
1
1
1
1
1
1
1
1
1
1
1
1
1
1
1
1
1
1
1
1
1
1
1
1
1
1
1
1
1
1
1
1
1
1
1
1
1
1
1
1
1
1.00001
1.00001
1.00005
1.00004
1.00023
1.00034
1
1
1
1
1
1
1
1
1
1
1
1
1
1
1
1
1
1
1
1
1
1
1
1
1
1
1
1
1
1
1
1
1
1
1
1
1
1
1
1
1
1
1
1
1
1
1.00001
1.00001
1.00007
1.0001
1
1
1
1
1
1
1
1
1
1
1
1
1
1
1
1
1
1
1
1
1
1
1
1
1
1
1
1
1
1
1
1
1
1
1
1
1
1
1
1
1
1
1
1
1
1
1
1
1.00002
1.00003
1
1
1
1
1
1
1
1
1
1
1
1
1
1
1
1
1
1
1
1
1
1
1
1
1
1
1
1
1
1
1
1
1
1
1
1
1
1
1
1
1
1
1
1
1
1
0.999999
1
1
1.00001
1
1
1
1
1
1
1
1
1
1
1
1
1
1
1
1
1
1
1
1
1
1
1
1
1
1
1
1
1
1
1
1
1
1
1
1
1
1
1
1
1
1
1
1
1
1
1
1
1
1
1
1
1
1
1
1
1
1
1
1
1
1
1
1
1
1
1
1
1
1
1
1
1
1
1
1
1
1
1
1
1
1
1
1
1
1
1
1
1
1
1
1
1
1
1
1
1
1
1
1
1
1
1
1
1
1
1
1
1
1
1
1
1
1
1
1
1
1
1
1
1
1
1
1
1
1
1
1
1
1
1
1
1
1
1
1
1
1
1
1
1
1
1
1
1
1
1
1
1
1
1
1
1
1
1
1
1
1
1
1
1
1
1
1
1
1
1
1
1
1
1
1
1
1
1
1
1
1
1
1
1
1
1
1
1
1
1
1
1
1
1
1
1
1
1
1
1
1
1
1
1
1
1
1
1
1
1
1
1
1
1
1
1
1
1
1
1
1
1
1
1
1
1
1
1
1
1
1
1
1
1
1
1
1
1
1
1
1
1
1
1
1
1
1
1
1
1
1
1
1
1
1
1
1
1
1
1
1
1
1
1
1
1
1
1
1
1
1
1
1
1
1
1
1
1
1
1
1
1
1
1
1
1
1
1
1
1
1
1
1
1
1
1
1
1
1
1
1
1
1
1
1
1
1
1
1
1
1
1
1
1
1
1
1
1
1
1
1
1
1
1
1
1
1
1
1
1
1
1
1
1
1
1
1
1
1
1
1
1
1
1
1
1
1
1
1
1
1
1
1
1
1
1
1
1
1
1
1
1
1
1
1
1
1
1
1
1
1
1
1
1
1
1
1
1
1
1
1
1
1
1
1
1
1
1
1
1
1
1
1
1
1
1
1
1
1
1
1
1
1
1
1
1
1
1
1
1
1
1
1
1
1
1
1
1
1
1
1
1
1
1
1
1
1
1
1
1
1
1
1
1
1
1
1
1
1
1
1
1
1
1
1
1
1
1
1
1
1
1
1
1
1
1
1
1
1
1
1
1
1
1
1
1
1
1
1
1
1
1
1
1
1
1
1
1
1
1
1
1
1
1
1
1
1
1
1
1
1
1
1
1
1
1
1
1
1
1
1
1
1
1
1
1
1
1
1
1
1
1
1
1
1
1
1
1
1
1
1
1
1
1
1
1
1
1
1
1
1
1
1
1
1
1
1
1
1
1
1
1
1
1
1
1
1
1
1
1
1
1
1
1
1
1
1
1
1
1
1
1
1
1
1
1
1
1
1
1
1
1
1
1
1
1
1
1
1
1
1
1
1
1
1
1
1
1
1
1
1
1
1
1
1
1
1
1
1
1
1
1
1
2.43555
2.30643
2.30876
2.35204
2.45623
2.55674
2.62174
2.68929
2.71475
2.71938
2.70932
2.70394
2.69085
2.67757
2.67593
2.67391
2.66994
2.66096
2.65186
2.64635
2.64009
2.62605
2.61022
2.59735
2.58614
2.57481
2.56308
2.55118
2.53907
2.5268
2.51433
2.50097
2.48576
2.46807
2.44852
2.42848
2.40757
2.38488
2.36358
2.34768
2.33775
2.33184
2.32665
2.31853
2.30035
2.2605
2.19311
2.10392
1.99892
1.88588
1.77225
1.6638
1.56414
1.47498
1.39696
1.32996
1.27345
1.2266
1.18841
1.1578
1.13363
1.11473
1.10003
1.08857
1.07962
1.07255
1.06686
1.06213
1.05803
1.05431
1.05077
1.04729
1.04374
1.03999
1.03599
1.03173
1.02739
1.02331
1.01973
1.01676
1.01423
1.01195
1.00964
1.00709
1.00502
1.00286
1.00113
1.0001
0.999566
0.999358
0.999324
0.999359
0.999485
0.99964
0.999757
0.999842
0.999898
0.999942
0.99996
0.999981
2.37252
2.29826
2.27303
2.25863
2.23811
2.20449
2.1512
2.12581
2.12215
2.13039
2.15128
2.17298
2.19305
2.1902
2.18744
2.18144
2.17167
2.16371
2.15842
2.15364
2.14788
2.14131
2.1345
2.12792
2.1218
2.11544
2.10893
2.10284
2.09649
2.08903
2.08084
2.07211
2.0619
2.04911
2.03456
2.0201
2.00563
1.9897
1.97393
1.96162
1.95371
1.94919
1.94599
1.94298
1.93929
1.93184
1.91583
1.88621
1.84483
1.79316
1.73308
1.66675
1.59691
1.52646
1.45804
1.39372
1.33487
1.28223
1.23605
1.19624
1.1625
1.13438
1.11127
1.09249
1.07736
1.06525
1.05561
1.04805
1.04222
1.03776
1.03432
1.0315
1.02896
1.02641
1.02372
1.02089
1.01803
1.01537
1.01308
1.0112
1.00963
1.00821
1.0067
1.00502
1.00318
1.00116
0.999873
0.999185
0.998904
0.998853
0.998899
0.999076
0.999321
0.999517
0.999666
0.999777
0.999851
0.99991
0.999937
0.999965
2.31567
2.27806
2.24127
2.18276
2.10758
2.02612
1.9672
1.93438
1.93449
1.93621
1.94989
1.96732
1.98785
1.99978
2.00484
2.00209
1.99953
1.99388
1.98827
1.9838
1.97961
1.97458
1.96856
1.96261
1.95782
1.9537
1.94959
1.9453
1.93995
1.93277
1.92418
1.91482
1.90444
1.89255
1.87988
1.86811
1.85702
1.84507
1.8338
1.82584
1.82141
1.81939
1.81804
1.81598
1.81125
1.80016
1.77684
1.74291
1.70134
1.65431
1.60377
1.55119
1.49757
1.44373
1.39053
1.33901
1.29017
1.24494
1.20397
1.16765
1.13618
1.10954
1.08752
1.06971
1.0556
1.04461
1.03625
1.03008
1.02571
1.02281
1.02101
1.01989
1.019
1.01798
1.01665
1.01501
1.01322
1.01151
1.01005
1.00885
1.00783
1.00684
1.00572
1.00437
1.00234
1.00058
0.999503
0.998953
0.998753
0.998739
0.998824
0.999064
0.999317
0.999516
0.999666
0.999777
0.999851
0.999911
0.999938
0.999965
2.23599
2.21783
2.18126
2.13783
2.08685
2.03184
1.97932
1.93282
1.8973
1.87326
1.8621
1.86389
1.86731
1.87632
1.88841
1.89491
1.90111
1.89869
1.89703
1.89336
1.88892
1.88352
1.87804
1.87203
1.86656
1.86172
1.85646
1.85015
1.84261
1.83357
1.82319
1.81228
1.80146
1.7905
1.77969
1.7708
1.76369
1.75613
1.74888
1.744
1.74138
1.7392
1.73459
1.7245
1.7083
1.68615
1.65762
1.62311
1.58376
1.54112
1.49681
1.45212
1.40791
1.36463
1.32258
1.28211
1.24361
1.20757
1.17448
1.14473
1.11848
1.09574
1.07637
1.06021
1.04705
1.03664
1.02869
1.02284
1.01874
1.01604
1.0144
1.01345
1.01284
1.01224
1.01142
1.0103
1.009
1.00776
1.0068
1.00613
1.0056
1.00508
1.00444
1.00296
1.00096
0.999584
0.998786
0.998431
0.998353
0.998402
0.998619
0.998956
0.999236
0.999456
0.999622
0.999745
0.999828
0.999894
0.999926
0.999956
2.19553
2.15845
2.12646
2.09133
2.05226
2.00997
1.96462
1.91848
1.87537
1.83668
1.81017
1.79595
1.78993
1.79092
1.79304
1.79691
1.80459
1.80705
1.8124
1.81229
1.8119
1.81035
1.8071
1.80099
1.79396
1.78649
1.77877
1.77077
1.7622
1.753
1.74366
1.73486
1.72665
1.71812
1.70958
1.70292
1.69822
1.69384
1.68994
1.68664
1.68251
1.67508
1.66176
1.64205
1.6168
1.58656
1.55241
1.51578
1.47812
1.44054
1.40373
1.36801
1.33345
1.29994
1.26742
1.23586
1.20535
1.17614
1.14864
1.12331
1.10052
1.08044
1.0631
1.04842
1.03632
1.02666
1.0193
1.01403
1.01056
1.00855
1.00762
1.00736
1.00735
1.00734
1.00722
1.00678
1.00598
1.00524
1.00475
1.00452
1.00439
1.00427
1.00374
1.00222
1.0004
0.999181
0.998517
0.998255
0.998228
0.998325
0.998628
0.998976
0.999256
0.999472
0.999635
0.999755
0.999835
0.999899
0.999929
0.999959
2.19407
2.1447
2.10586
2.06707
2.02531
1.98183
1.93731
1.89659
1.85799
1.8254
1.79577
1.76712
1.74564
1.73287
1.72404
1.72481
1.72785
1.73004
1.73484
1.73841
1.74174
1.74048
1.73767
1.73324
1.72758
1.71879
1.70915
1.7004
1.69287
1.68587
1.67878
1.67177
1.66522
1.6582
1.65078
1.64516
1.64125
1.63694
1.63146
1.62438
1.61457
1.60047
1.58094
1.55668
1.5288
1.49804
1.46546
1.43224
1.39935
1.36739
1.33641
1.30628
1.27696
1.24861
1.2214
1.19542
1.17063
1.14705
1.12476
1.104
1.08507
1.06819
1.05342
1.04074
1.03008
1.0214
1.01466
1.0098
1.00667
1.00503
1.00447
1.00445
1.00455
1.00467
1.00465
1.0044
1.0038
1.00327
1.00303
1.00304
1.00315
1.00311
1.00264
1.00114
0.999549
0.998542
0.998043
0.9979
0.997932
0.99814
0.998558
0.998924
0.999217
0.999445
0.999614
0.99974
0.999824
0.999891
0.999924
0.999954
2.19848
2.13973
2.09065
2.04439
2.00028
1.95806
1.91902
1.8839
1.85122
1.8198
1.78998
1.76087
1.73558
1.71182
1.69543
1.68561
1.6796
1.6786
1.67873
1.67808
1.67709
1.6773
1.67653
1.67354
1.6698
1.66607
1.66073
1.65347
1.64678
1.64053
1.63366
1.62634
1.61928
1.61176
1.60334
1.59619
1.5907
1.584
1.57429
1.56088
1.54424
1.52413
1.50027
1.47359
1.44505
1.41585
1.38691
1.35873
1.33157
1.30537
1.27991
1.25498
1.23056
1.20682
1.18402
1.16241
1.14202
1.12274
1.10452
1.08739
1.07149
1.05711
1.04441
1.03341
1.02406
1.01635
1.01032
1.00592
1.00313
1.00182
1.00154
1.00162
1.00193
1.00225
1.00235
1.00228
1.00203
1.00186
1.00197
1.0021
1.00226
1.00231
1.00199
1.00064
0.999098
0.998214
0.997833
0.997763
0.997846
0.998162
0.998599
0.998961
0.999247
0.999469
0.999633
0.999754
0.999835
0.999898
0.999929
0.999958
2.19046
2.12486
2.07192
2.02679
1.98623
1.94956
1.9156
1.88346
1.85218
1.8215
1.79152
1.76332
1.73665
1.71314
1.69235
1.67278
1.65654
1.64576
1.63669
1.63069
1.62755
1.62458
1.62209
1.62128
1.62031
1.61801
1.61487
1.61165
1.60701
1.60142
1.59486
1.5871
1.57855
1.56972
1.55986
1.54942
1.54007
1.5292
1.51511
1.49691
1.47608
1.45412
1.43044
1.40537
1.37973
1.35436
1.32974
1.30605
1.283
1.26016
1.2374
1.21502
1.19341
1.17276
1.1531
1.13465
1.11753
1.10169
1.08697
1.0731
1.06005
1.04805
1.03734
1.02802
1.02006
1.01342
1.00817
1.00428
1.00173
1.00058
1.0004
1.00051
1.0009
1.00121
1.00126
1.00114
1.00099
1.00114
1.00126
1.00154
1.00177
1.00176
1.00122
0.999682
0.998433
0.997771
0.997534
0.997535
0.997698
0.998138
0.998588
0.998954
0.999244
0.999466
0.99963
0.999752
0.999832
0.999896
0.999927
0.999956
2.16568
2.11274
2.0668
2.02509
1.98641
1.95011
1.91576
1.88294
1.8511
1.82071
1.79154
1.76398
1.73797
1.71406
1.69129
1.67063
1.6505
1.6315
1.61505
1.60219
1.5924
1.58543
1.58193
1.57916
1.57779
1.57667
1.57402
1.57091
1.56748
1.56322
1.55724
1.54969
1.54042
1.52979
1.51753
1.50382
1.48982
1.47492
1.45701
1.43676
1.41506
1.39322
1.3713
1.34847
1.32561
1.30345
1.2821
1.26131
1.24074
1.22014
1.19957
1.1795
1.16036
1.14248
1.12594
1.11087
1.09679
1.0839
1.07195
1.06046
1.0497
1.03985
1.03098
1.02313
1.01638
1.01076
1.0063
1.00298
1.00079
0.999749
0.999569
0.999666
0.999993
1.00026
1.00029
1.00028
1.00044
1.0004
1.00061
1.00111
1.00143
1.00136
1.00049
0.998973
0.997985
0.997496
0.997363
0.997416
0.997697
0.998204
0.998643
0.999
0.999279
0.999493
0.999651
0.999767
0.999844
0.999903
0.999932
0.999959
2.16209
2.11432
2.07066
2.02961
1.99074
1.9531
1.91758
1.88399
1.85212
1.82198
1.79328
1.76678
1.74142
1.71768
1.6943
1.67229
1.65086
1.63033
1.61082
1.59242
1.57625
1.5646
1.55571
1.54864
1.54394
1.54059
1.53689
1.53275
1.52801
1.52283
1.51597
1.50728
1.49733
1.48549
1.47089
1.45445
1.43745
1.42043
1.40223
1.38253
1.36273
1.34295
1.32305
1.30284
1.28221
1.26227
1.24294
1.22393
1.2049
1.18583
1.16701
1.14893
1.13216
1.117
1.10334
1.09104
1.0799
1.06914
1.05917
1.05
1.04131
1.03307
1.02551
1.01878
1.01309
1.00871
1.00531
1.00231
1.0004
0.999505
0.999306
0.999355
0.999526
0.999687
0.999915
1.00018
1
0.999959
1.00025
1.00083
1.00111
1.0009
0.999766
0.998374
0.997547
0.997198
0.997154
0.997282
0.997708
0.998237
0.998674
0.999025
0.999299
0.999508
0.999661
0.999773
0.999848
0.999905
0.999934
0.999959
2.15134
2.11521
2.07663
2.03731
1.99782
1.95885
1.92178
1.88682
1.85499
1.82496
1.79754
1.77157
1.7473
1.72393
1.70054
1.67819
1.65579
1.63397
1.6127
1.59326
1.57494
1.55778
1.54313
1.53089
1.52049
1.51141
1.50448
1.49671
1.48832
1.48044
1.47159
1.461
1.44926
1.43662
1.42203
1.40571
1.38907
1.37282
1.35609
1.33851
1.32048
1.30237
1.28405
1.2654
1.24673
1.22812
1.20981
1.1919
1.17415
1.15652
1.13937
1.12339
1.10899
1.09625
1.08548
1.07556
1.06599
1.05707
1.04879
1.04113
1.03403
1.02734
1.021
1.01527
1.01047
1.00663
1.00371
1.00182
1.00061
0.999582
0.999218
0.999149
0.999168
0.999334
0.999644
0.999557
0.999493
0.999635
1.00009
1.00059
1.0008
1.00045
0.999154
0.997887
0.997222
0.997003
0.997026
0.997263
0.997804
0.998318
0.998741
0.999079
0.999341
0.999539
0.999684
0.999789
0.999859
0.999913
0.999939
0.999963
2.12599
2.10095
2.07373
2.03842
2.00074
1.96285
1.92684
1.89268
1.86127
1.83197
1.80525
1.77986
1.75597
1.73228
1.70949
1.68632
1.66362
1.64107
1.61878
1.59706
1.5771
1.55765
1.53958
1.523
1.50729
1.49226
1.47804
1.46558
1.4533
1.44125
1.43043
1.41839
1.40459
1.39051
1.37614
1.3608
1.34519
1.33048
1.31584
1.30011
1.28371
1.26727
1.25046
1.23305
1.2152
1.19735
1.18012
1.16358
1.1474
1.13152
1.11642
1.10267
1.09109
1.08162
1.07253
1.06412
1.05643
1.04921
1.04228
1.03575
1.02962
1.02393
1.01865
1.01377
1.00944
1.00599
1.00351
1.00192
1.001
1.00048
1.00005
0.999714
0.999519
0.999276
0.999167
0.999184
0.999328
0.999753
1.00027
1.00064
1.00071
1.00013
0.998575
0.997462
0.996969
0.996867
0.996955
0.99733
0.997908
0.998404
0.99881
0.999132
0.99938
0.999567
0.999704
0.999803
0.999868
0.999918
0.999943
0.999965
2.09386
2.08161
2.0602
2.03316
1.99885
1.96237
1.92733
1.89495
1.8654
1.83792
1.81211
1.78751
1.76355
1.7399
1.71632
1.69263
1.669
1.64537
1.62234
1.59966
1.57776
1.55734
1.53771
1.51792
1.49896
1.4795
1.46002
1.44202
1.42641
1.41131
1.39602
1.38218
1.36708
1.35126
1.33648
1.32203
1.30638
1.29145
1.27726
1.26258
1.24689
1.23137
1.21576
1.1997
1.18321
1.16666
1.15108
1.13684
1.12302
1.1091
1.09607
1.08532
1.07683
1.06878
1.06153
1.05496
1.04879
1.04297
1.03741
1.03203
1.02689
1.0221
1.01769
1.01363
1.00993
1.00678
1.00446
1.00305
1.00233
1.002
1.00167
1.00101
1.00011
0.999369
0.999116
0.999156
0.999486
1.00018
1.00072
1.00095
1.00076
0.999524
0.997969
0.997143
0.996834
0.996817
0.996983
0.997478
0.998043
0.998515
0.998897
0.999199
0.99943
0.999604
0.99973
0.99982
0.999881
0.999926
0.999949
0.999968
2.08207
2.06895
2.04749
2.01532
1.98297
1.95293
1.92258
1.89331
1.86546
1.83957
1.81486
1.79079
1.7668
1.74289
1.71878
1.69468
1.6704
1.6465
1.62278
1.59992
1.57765
1.55605
1.53457
1.51231
1.48969
1.46785
1.4474
1.42748
1.40853
1.39067
1.37234
1.35426
1.33732
1.32002
1.30307
1.28815
1.27348
1.25753
1.24267
1.22811
1.21189
1.19593
1.18061
1.16551
1.15034
1.13475
1.12071
1.10894
1.09732
1.08522
1.07517
1.06798
1.06122
1.05538
1.05038
1.04582
1.04142
1.03705
1.03272
1.02848
1.02434
1.02034
1.01666
1.01339
1.01051
1.00799
1.00602
1.00477
1.00416
1.00389
1.00354
1.00273
1.00131
1.00004
0.999473
0.999503
1.00001
1.00092
1.00144
1.00142
1.00049
0.998686
0.997537
0.996958
0.996784
0.996821
0.997087
0.99766
0.998191
0.998633
0.998989
0.999268
0.999481
0.99964
0.999755
0.999837
0.999892
0.999932
0.999954
0.999971
2.07526
2.05516
2.0282
1.99388
1.95682
1.92584
1.90289
1.8826
1.85992
1.83642
1.81272
1.78895
1.76501
1.74087
1.71656
1.6922
1.66783
1.64383
1.62007
1.59703
1.57393
1.55075
1.52663
1.50307
1.48003
1.45807
1.4374
1.41713
1.39713
1.37661
1.3561
1.33506
1.31502
1.29678
1.27823
1.26091
1.24493
1.22864
1.21215
1.19736
1.18209
1.16519
1.14982
1.13586
1.12093
1.10594
1.09253
1.0822
1.07243
1.06175
1.05423
1.04871
1.04366
1.03972
1.03653
1.03371
1.03095
1.02812
1.02525
1.02242
1.01968
1.01701
1.01446
1.01213
1.01011
1.00839
1.00696
1.00601
1.00557
1.00539
1.00511
1.00436
1.00259
1.00079
0.999941
0.999958
1.00061
1.00157
1.00189
1.00133
0.999728
0.998214
0.99728
0.996852
0.996769
0.99687
0.997269
0.997852
0.99835
0.99876
0.999087
0.999342
0.999535
0.999678
0.999781
0.999855
0.999904
0.99994
0.99996
0.999974
2.05808
2.03771
2.00776
1.97371
1.94152
1.91076
1.88287
1.85927
1.83996
1.82014
1.79893
1.77625
1.75276
1.72893
1.70495
1.68074
1.65673
1.63295
1.60964
1.58658
1.56358
1.54068
1.51797
1.49582
1.47384
1.45265
1.43114
1.40986
1.38806
1.36593
1.34415
1.32241
1.30116
1.28018
1.26125
1.24212
1.22382
1.2069
1.18921
1.17226
1.15689
1.14083
1.12432
1.11014
1.0969
1.08263
1.06996
1.06135
1.0533
1.04402
1.03722
1.0326
1.02837
1.02525
1.02297
1.02113
1.01937
1.01761
1.01592
1.01436
1.01292
1.01156
1.0103
1.00919
1.00826
1.00752
1.00693
1.00649
1.00624
1.00613
1.00594
1.00533
1.00357
1.00139
1.00035
1.00031
1.00096
1.00182
1.00181
1.00103
0.999291
0.997893
0.997103
0.99681
0.996806
0.996995
0.997515
0.998063
0.998521
0.998893
0.999188
0.999417
0.999589
0.999716
0.999808
0.999873
0.999916
0.999947
0.999965
0.999977
2.02644
2.01642
1.99676
1.96642
1.93407
1.90358
1.87563
1.84869
1.82283
1.79841
1.77523
1.75287
1.73117
1.70931
1.68772
1.66613
1.64437
1.62233
1.6004
1.57852
1.55698
1.53551
1.51431
1.49297
1.47146
1.44938
1.42665
1.4035
1.37993
1.35705
1.33429
1.31257
1.29112
1.27027
1.24989
1.22962
1.21045
1.19147
1.17366
1.15578
1.13897
1.12327
1.10681
1.09183
1.07966
1.06674
1.0541
1.04531
1.03913
1.03126
1.02458
1.02103
1.01758
1.01518
1.01349
1.01212
1.01076
1.00942
1.00829
1.00747
1.00686
1.0064
1.0061
1.00597
1.00597
1.00606
1.00623
1.00629
1.00629
1.00626
1.00615
1.0056
1.0039
1.00168
1.00053
1.0004
1.00095
1.0018
1.00171
1.00077
0.998922
0.997636
0.997012
0.996853
0.996916
0.997238
0.997799
0.998291
0.9987
0.999031
0.999292
0.999493
0.999644
0.999755
0.999834
0.99989
0.999928
0.999955
0.99997
0.999981
1.96241
1.97892
1.97272
1.95842
1.93025
1.90206
1.87413
1.84707
1.82095
1.79544
1.77023
1.74553
1.72156
1.69864
1.67657
1.65506
1.63407
1.61351
1.5933
1.57313
1.55297
1.53255
1.51188
1.49046
1.46817
1.44474
1.42065
1.39633
1.37246
1.34923
1.32668
1.30478
1.28339
1.26244
1.24184
1.222
1.20214
1.18293
1.16415
1.14587
1.12899
1.11242
1.09663
1.08181
1.0691
1.05818
1.04714
1.03771
1.03215
1.02574
1.01808
1.01416
1.01118
1.00871
1.00708
1.00591
1.00479
1.00375
1.00308
1.00283
1.0028
1.00285
1.0031
1.00369
1.0044
1.0051
1.00571
1.00616
1.00639
1.00643
1.00629
1.00562
1.00384
1.00192
1.00087
1.00069
1.0011
1.00187
1.00177
1.00058
0.998648
0.997511
0.997074
0.99703
0.997172
0.997605
0.998111
0.998538
0.99889
0.999175
0.999399
0.999571
0.999699
0.999793
0.99986
0.999907
0.999939
0.999961
0.999975
0.999984
1.85776
1.93345
1.94196
1.93462
1.92008
1.8975
1.87222
1.84534
1.81874
1.79323
1.76848
1.74404
1.71976
1.69593
1.67265
1.6499
1.62791
1.60695
1.58691
1.56747
1.54807
1.52809
1.50727
1.4852
1.46192
1.43767
1.41315
1.38882
1.36521
1.3423
1.32014
1.29841
1.27714
1.25619
1.23574
1.21592
1.1966
1.1778
1.15981
1.14181
1.12436
1.1078
1.09245
1.07792
1.06591
1.05523
1.0455
1.03705
1.03067
1.02566
1.0192
1.01314
1.01036
1.00767
1.00573
1.0044
1.00314
1.00199
1.0014
1.00134
1.00144
1.00176
1.00254
1.0036
1.00466
1.00567
1.00652
1.00709
1.00734
1.00732
1.007
1.00589
1.00407
1.00251
1.00169
1.00157
1.00185
1.00233
1.0021
1.00039
0.998443
0.997562
0.997332
0.997364
0.997582
0.998029
0.998439
0.99879
0.999083
0.999319
0.999504
0.999646
0.999752
0.99983
0.999885
0.999924
0.99995
0.999968
0.99998
0.999987
1.44115
1.82746
1.88822
1.9011
1.89479
1.88313
1.86378
1.83913
1.8122
1.78628
1.76146
1.73694
1.71234
1.68792
1.66405
1.64169
1.62064
1.6002
1.57996
1.55975
1.53949
1.51888
1.49742
1.47499
1.45179
1.4281
1.40442
1.38109
1.35837
1.33617
1.31445
1.29298
1.27193
1.25124
1.23123
1.21185
1.19311
1.17481
1.15707
1.13977
1.12304
1.10773
1.09329
1.08014
1.06857
1.05861
1.0499
1.04162
1.03518
1.02979
1.02446
1.0192
1.01485
1.01142
1.00918
1.00789
1.00657
1.00521
1.00438
1.00426
1.00437
1.00475
1.0056
1.00668
1.00778
1.00873
1.00942
1.00981
1.00985