/*--------------------------------*- C++ -*----------------------------------*\
| =========                 |                                                 |
| \\      /  F ield         | OpenFOAM: The Open Source CFD Toolbox           |
|  \\    /   O peration     | Version:  2112                                  |
|   \\  /    A nd           | Website:  www.openfoam.com                      |
|    \\/     M anipulation  |                                                 |
\*---------------------------------------------------------------------------*/
FoamFile
{
    version     2.0;
    format      ascii;
    arch        "LSB;label=32;scalar=64";
    class       volVectorField;
    location    "0.4995";
    object      U;
}
// * * * * * * * * * * * * * * * * * * * * * * * * * * * * * * * * * * * * * //

dimensions      [0 1 -1 0 0 0 0];

internalField   nonuniform List<vector> 
7000
(
(3 -5.77896e-07 0.000805021)
(3 -1.36881e-06 0.000764326)
(3 -1.91308e-06 0.000723861)
(3 -2.10999e-06 0.000683629)
(3 -1.92125e-06 0.00064363)
(3 -1.61553e-06 0.00060387)
(3 -1.32235e-06 0.000564361)
(3 -1.05969e-06 0.000525103)
(3 -8.35211e-07 0.000486102)
(3 -6.44619e-07 0.000447359)
(3 -4.84453e-07 0.000408881)
(3 -3.34423e-07 0.00037067)
(3 -1.7202e-07 0.000332733)
(3 8.37883e-08 0.000295073)
(3 4.74283e-07 0.000257694)
(3 2.0585e-06 0.000220742)
(2.99998 5.83483e-07 0.000184348)
(2.99993 6.27003e-06 0.000149322)
(2.99984 -2.82608e-07 0.000114881)
(2.99954 1.99544e-05 8.92841e-05)
(2.9991 2.3276e-05 6.02754e-05)
(2.9968 5.09358e-05 0.000106793)
(2.99366 0.000390961 9.4232e-05)
(2.97521 -0.000331923 0.000820062)
(2.9609 0.00134376 0.000821403)
(2.76859 -0.00163532 0.00855565)
(2.25916 -0.011399 0.0150825)
(1.34733 -0.0217285 0.0287773)
(0.465933 -0.0119519 0.010773)
(0.456844 -0.00578711 -0.00171755)
(0.521638 -0.00251832 -0.0022272)
(0.54505 -0.00251296 -0.00161119)
(0.518889 -0.00392334 -0.00117313)
(0.47881 -0.0043033 -0.00117564)
(0.438519 -0.0037205 -0.00134521)
(0.408143 -0.00226803 -0.00155958)
(0.382775 -0.000518092 -0.00170301)
(0.357648 0.00125949 -0.00182035)
(0.331132 0.00282473 -0.00195916)
(0.303711 0.00429141 -0.00213943)
(0.276294 0.00564911 -0.00234581)
(0.249596 0.00707653 -0.00256709)
(0.223141 0.00860693 -0.00280473)
(0.196596 0.0103668 -0.00305821)
(0.167852 0.0120485 -0.00337075)
(0.137268 0.0148331 -0.00366)
(0.0942787 0.0191855 -0.00391278)
(0.0743514 0.0388523 -0.00419391)
(-0.0467455 -0.00936737 -0.00432803)
(0.0495161 0.015605 -0.00429556)
(3 -5.98167e-07 0.000777211)
(3 -1.40187e-06 0.00073787)
(3 -1.91348e-06 0.000698756)
(3 -2.04826e-06 0.000659873)
(3 -1.71836e-06 0.000621223)
(3 -1.27604e-06 0.00058281)
(3 -8.59831e-07 0.000544644)
(3 -5.02421e-07 0.000506725)
(3 -2.23286e-07 0.000469058)
(3 -2.98289e-08 0.000431646)
(3 8.13566e-08 0.000394494)
(3 1.20002e-07 0.000357604)
(3 1.02122e-07 0.000320981)
(3 6.57073e-08 0.000284629)
(3 6.77068e-08 0.00024854)
(3 8.37067e-07 0.000212931)
(2.99998 -5.26208e-08 0.000177766)
(2.99994 7.04765e-06 0.00014398)
(2.99985 9.34188e-06 0.000110545)
(2.99957 4.62989e-05 8.49503e-05)
(2.99918 9.02447e-05 5.53806e-05)
(2.99715 0.000217374 9.59729e-05)
(2.99395 0.000559477 8.18605e-05)
(2.97659 -0.000363723 0.000758172)
(2.9652 0.00361941 0.000649637)
(2.77545 0.00350131 0.00814676)
(2.28589 -0.00173543 0.014204)
(1.38777 0.00549841 0.0279243)
(0.485461 0.0481768 0.0107064)
(0.45877 0.0498786 -0.00135136)
(0.525621 0.049046 -0.00211985)
(0.549659 0.0442526 -0.00154576)
(0.522563 0.0377286 -0.00112471)
(0.480483 0.0334481 -0.00112983)
(0.437886 0.0312546 -0.00129069)
(0.405609 0.0308919 -0.00149464)
(0.378794 0.0314651 -0.00163216)
(0.352501 0.0324589 -0.00174728)
(0.324983 0.0333957 -0.00187986)
(0.296555 0.0343053 -0.00205548)
(0.268116 0.0350053 -0.00225315)
(0.240633 0.0355836 -0.00246683)
(0.213939 0.036059 -0.00269595)
(0.187747 0.036772 -0.00294715)
(0.160578 0.037648 -0.00323264)
(0.13204 0.0405194 -0.00352104)
(0.0973811 0.0448569 -0.00372732)
(0.0784649 0.0634261 -0.0039583)
(0.0367861 0.0341161 -0.00421828)
(-0.00507341 -0.0136704 -0.00420203)
(3 -3.68256e-08 0.000748287)
(3 -8.86324e-08 0.00071036)
(3 -1.25366e-07 0.000672656)
(3 -1.89072e-07 0.000635181)
(3 -9.26963e-08 0.000597935)
(3 2.10146e-08 0.000560924)
(3 1.3841e-07 0.000524156)
(3 2.42425e-07 0.00048763)
(3 3.20353e-07 0.000451352)
(3 3.58262e-07 0.000415325)
(3 3.5165e-07 0.000379552)
(3 2.84877e-07 0.000344038)
(3 1.4338e-07 0.000308785)
(3 -1.34134e-07 0.000273795)
(3 -5.82769e-07 0.000239065)
(3 -1.86351e-06 0.000204778)
(2.99998 -1.24644e-06 0.000170904)
(2.99994 -2.11527e-06 0.000138306)
(2.99987 9.17719e-06 0.000106009)
(2.9996 1.67185e-05 8.11899e-05)
(2.99926 7.92191e-05 5.22874e-05)
(2.9972 0.000117417 9.19623e-05)
(2.99381 0.000153974 0.000123639)
(2.97783 -0.000312681 0.000652019)
(2.96818 0.00310147 0.000451371)
(2.77877 0.00118278 0.00787107)
(2.30594 -0.00528935 0.0134081)
(1.4244 -0.000146253 0.0267713)
(0.494843 0.055021 0.010554)
(0.438538 0.0564899 -0.0010962)
(0.512018 0.0555865 -0.00206787)
(0.541601 0.0497906 -0.0014971)
(0.518505 0.0417846 -0.00108087)
(0.479551 0.0367464 -0.00108381)
(0.438753 0.0351961 -0.00123368)
(0.407253 0.0367946 -0.00142727)
(0.380474 0.0401108 -0.00155974)
(0.353788 0.0439927 -0.00166965)
(0.325664 0.0476067 -0.00179657)
(0.296503 0.0508273 -0.00196837)
(0.267314 0.0535676 -0.00215856)
(0.239238 0.0558658 -0.00236011)
(0.212115 0.057655 -0.00257893)
(0.185459 0.0593163 -0.00282408)
(0.158305 0.0610166 -0.00309641)
(0.130331 0.0643227 -0.00337251)
(0.100385 0.0692236 -0.0035581)
(0.0818732 0.0832162 -0.00376655)
(0.0566052 0.0668556 -0.00402101)
(0.0256241 0.0428355 -0.00417958)
(3 -4.79606e-09 0.000718202)
(3 5.01765e-08 0.00068175)
(3 9.31013e-08 0.000645518)
(3 9.97716e-08 0.00060951)
(3 1.57214e-07 0.000573727)
(3 2.26402e-07 0.000538176)
(3 3.02219e-07 0.000502863)
(3 3.8077e-07 0.000467788)
(3 4.56574e-07 0.000432956)
(3 5.23317e-07 0.000398369)
(3 5.72446e-07 0.000364032)
(3 5.95557e-07 0.000329947)
(3 5.83512e-07 0.000296118)
(3 5.14869e-07 0.000262549)
(3 3.56049e-07 0.000229233)
(3 -7.51701e-07 0.000196326)
(2.99998 2.15523e-07 0.000163834)
(2.99994 -9.71189e-06 0.000132441)
(2.99987 5.53796e-06 0.000101431)
(2.99963 -6.82056e-05 7.68681e-05)
(2.9993 6.83708e-05 4.96224e-05)
(2.99733 -0.000658908 8.34799e-05)
(2.9942 0.000716867 0.000109188)
(2.97914 -0.00284821 0.000585444)
(2.97111 0.00403989 0.000339956)
(2.78536 0.000975195 0.00742548)
(2.33374 0.00406959 0.0124812)
(1.46949 0.0149612 0.0256497)
(0.512398 0.0921639 0.0104351)
(0.426538 0.0901339 -0.000779274)
(0.50684 0.0845948 -0.00199907)
(0.540668 0.075985 -0.00143778)
(0.519501 0.0663049 -0.0010259)
(0.481467 0.0604023 -0.00102583)
(0.440718 0.0584967 -0.00116746)
(0.408851 0.0601556 -0.00135317)
(0.381672 0.0638641 -0.00148209)
(0.354654 0.0682934 -0.00159128)
(0.326277 0.0725415 -0.00171121)
(0.296923 0.0762185 -0.00187506)
(0.267572 0.0793409 -0.00205631)
(0.239356 0.0818815 -0.00224852)
(0.212175 0.0837474 -0.00245327)
(0.185273 0.0853985 -0.0026901)
(0.157686 0.0868807 -0.0029534)
(0.129524 0.0890599 -0.003214)
(0.100702 0.0926692 -0.00340013)
(0.0806147 0.101825 -0.00357666)
(0.0560136 0.0934307 -0.00381556)
(0.0256092 0.0706103 -0.0039876)
(3 1.98274e-08 0.000686908)
(3 2.04742e-07 0.000651993)
(3 4.18542e-07 0.000617296)
(3 6.86178e-07 0.000582818)
(3 8.2177e-07 0.000548561)
(3 9.43944e-07 0.000514531)
(3 1.04448e-06 0.000480733)
(3 1.12594e-06 0.000447169)
(3 1.18317e-06 0.000413842)
(3 1.21456e-06 0.000380755)
(3 1.21606e-06 0.000347911)
(3 1.18766e-06 0.000315313)
(3 1.12602e-06 0.000282965)
(3 1.05468e-06 0.000250871)
(3 9.2919e-07 0.000219037)
(3 9.95594e-07 0.000187545)
(2.99998 -7.04436e-07 0.000156707)
(2.99995 -9.39983e-08 0.000126275)
(2.99984 -7.82857e-06 9.83943e-05)
(2.99966 -3.21248e-06 7.04171e-05)
(2.99894 -7.29984e-05 6.57371e-05)
(2.99776 -0.000291467 6.04417e-05)
(2.99283 -0.000386871 0.000230131)
(2.98061 -0.00354764 0.000458264)
(2.9756 0.000410729 0.000218491)
(2.78934 -0.00692246 0.00705684)
(2.36344 0.0126432 0.0113414)
(1.52012 0.0316102 0.0246857)
(0.535112 0.13032 0.0103498)
(0.413671 0.118621 -0.000405758)
(0.503175 0.105338 -0.00193705)
(0.542033 0.0929267 -0.00138388)
(0.522541 0.081391 -0.000970471)
(0.485275 0.0754547 -0.000966046)
(0.444537 0.0744183 -0.00109906)
(0.41234 0.0776172 -0.00127794)
(0.384704 0.0832133 -0.00140434)
(0.3573 0.0894791 -0.00151032)
(0.328526 0.0953583 -0.00162667)
(0.298882 0.100236 -0.00178149)
(0.269361 0.104316 -0.00195052)
(0.240902 0.107639 -0.0021327)
(0.213621 0.110091 -0.00232696)
(0.186564 0.112145 -0.00255108)
(0.158403 0.113616 -0.00280014)
(0.129696 0.114944 -0.00304851)
(0.100094 0.117134 -0.00323911)
(0.0772404 0.123081 -0.00339121)
(0.0519567 0.12063 -0.00360031)
(0.0243729 0.107906 -0.00377641)
(3 2.27597e-08 0.00065435)
(3 2.16356e-07 0.000621041)
(3 4.89925e-07 0.000587944)
(3 8.23161e-07 0.000555062)
(3 1.06183e-06 0.000522396)
(3 1.2137e-06 0.000489951)
(3 1.33149e-06 0.000457732)
(3 1.41875e-06 0.000425741)
(3 1.47729e-06 0.000393981)
(3 1.50822e-06 0.000362454)
(3 1.51179e-06 0.000331164)
(3 1.48592e-06 0.000300114)
(3 1.42401e-06 0.000269305)
(3 1.32884e-06 0.000238742)
(3 1.03312e-06 0.00020842)
(3 1.25993e-06 0.00017849)
(2.99998 -1.162e-06 0.000148896)
(2.99994 5.79277e-06 0.000120449)
(2.99988 -8.47169e-06 9.20978e-05)
(2.99961 5.72042e-05 7.1127e-05)
(2.99918 -4.51846e-05 5.16438e-05)
(2.99728 0.000520753 7.40182e-05)
(2.9925 -0.000562785 0.000146253)
(2.98023 0.00127956 0.000445176)
(2.9742 0.00161192 0.000413191)
(2.79999 -0.00241239 0.00616676)
(2.40152 0.0140673 0.0103033)
(1.57706 0.0454816 0.0234761)
(0.566531 0.16835 0.0103708)
(0.406976 0.145908 1.2613e-05)
(0.506492 0.126636 -0.00187964)
(0.549911 0.111663 -0.00133506)
(0.531429 0.0991802 -0.0009166)
(0.494362 0.0937553 -0.000905114)
(0.452838 0.0938335 -0.00102649)
(0.419482 0.0983381 -0.00119836)
(0.390644 0.10527 -0.0013226)
(0.362316 0.112803 -0.00142547)
(0.33271 0.119787 -0.00153926)
(0.302408 0.125533 -0.0016839)
(0.272446 0.130276 -0.00184687)
(0.243605 0.134248 -0.00201676)
(0.216096 0.137338 -0.00219346)
(0.188754 0.14002 -0.00240855)
(0.160091 0.141746 -0.00264427)
(0.130949 0.142682 -0.00287671)
(0.100133 0.143878 -0.00306615)
(0.0746849 0.147465 -0.00320363)
(0.048467 0.148639 -0.00338574)
(0.0229581 0.144013 -0.00356554)
(3 2.80731e-08 0.000620474)
(3 2.16015e-07 0.000588841)
(3 5.52596e-07 0.000557413)
(3 9.33268e-07 0.000526196)
(3 1.3604e-06 0.000495189)
(3 1.60362e-06 0.000464396)
(3 1.80178e-06 0.000433823)
(3 1.95207e-06 0.000403471)
(3 2.05752e-06 0.000373343)
(3 2.11813e-06 0.000343441)
(3 2.13572e-06 0.000313768)
(3 2.1076e-06 0.000284327)
(3 2.03461e-06 0.00025512)
(3 1.93915e-06 0.000226153)
(3 1.31837e-06 0.000197416)
(2.99999 6.96086e-07 0.000169042)
(2.99998 -4.96574e-08 0.000140998)
(2.99994 -1.38436e-06 0.000113903)
(2.99988 1.35523e-06 8.6819e-05)
(2.99965 -9.47185e-06 6.52577e-05)
(2.99932 7.41927e-05 4.39922e-05)
(2.99761 0.000133403 6.98507e-05)
(2.99394 0.000896856 0.000103212)
(2.98286 0.00481711 0.000355336)
(2.97825 0.00463675 0.000241946)
(2.81049 0.00115522 0.00574374)
(2.45324 0.0127424 0.00911433)
(1.67355 0.0584346 0.0219129)
(0.608396 0.209047 0.0104094)
(0.389378 0.17353 0.000471706)
(0.503252 0.147342 -0.00185158)
(0.553705 0.129861 -0.00129804)
(0.537755 0.117024 -0.000866691)
(0.502398 0.112576 -0.000845259)
(0.461114 0.114539 -0.000951896)
(0.427173 0.120829 -0.00111762)
(0.397552 0.129286 -0.00124047)
(0.368598 0.13809 -0.00134117)
(0.338347 0.14601 -0.00145177)
(0.307347 0.152434 -0.00158755)
(0.276783 0.157664 -0.0017387)
(0.247304 0.162139 -0.0018983)
(0.219441 0.165851 -0.00206078)
(0.191762 0.169308 -0.002264)
(0.16249 0.171619 -0.00248064)
(0.132949 0.172673 -0.00270373)
(0.101149 0.17337 -0.00288888)
(0.0739057 0.174818 -0.00301764)
(0.0461747 0.177482 -0.00317811)
(0.0214971 0.178782 -0.00335741)
(3 2.80485e-08 0.000585223)
(3 2.01758e-07 0.000555339)
(3 5.41832e-07 0.000525654)
(3 9.24884e-07 0.000496173)
(3 1.40965e-06 0.000466897)
(3 1.70996e-06 0.000437827)
(3 1.96526e-06 0.000408968)
(3 2.17087e-06 0.000380324)
(3 2.32328e-06 0.000351895)
(3 2.42476e-06 0.000323685)
(3 2.47746e-06 0.000295695)
(3 2.48957e-06 0.000267928)
(3 2.47569e-06 0.000240385)
(3 2.48386e-06 0.000213083)
(3 2.11487e-06 0.000185995)
(2.99999 1.74546e-06 0.00015925)
(2.99998 1.37805e-06 0.000132827)
(2.99995 2.18422e-06 0.000107272)
(2.99988 4.21132e-06 8.19153e-05)
(2.99967 -7.23741e-08 6.02153e-05)
(2.99933 2.29562e-05 4.04369e-05)
(2.99802 4.35888e-06 4.21994e-05)
(2.99635 0.000525723 2.069e-05)
(2.98329 0.0022506 0.000373929)
(2.97611 0.00224868 0.000202626)
(2.82182 -0.00378335 0.00497248)
(2.51046 0.0247472 0.00793573)
(1.77265 0.0798201 0.0201823)
(0.653992 0.256269 0.0106042)
(0.375938 0.202998 0.00098938)
(0.503714 0.168738 -0.00181129)
(0.55944 0.148271 -0.00126155)
(0.544756 0.135397 -0.00082249)
(0.510551 0.132063 -0.000791092)
(0.469136 0.136445 -0.000878462)
(0.434391 0.144756 -0.0010367)
(0.404333 0.154821 -0.00115746)
(0.375319 0.164973 -0.00125515)
(0.344882 0.173804 -0.00136097)
(0.313381 0.180807 -0.00148966)
(0.282264 0.186425 -0.0016294)
(0.252165 0.19136 -0.00177654)
(0.223781 0.195689 -0.00192456)
(0.195634 0.199751 -0.00211151)
(0.165777 0.202761 -0.00230945)
(0.13582 0.204271 -0.00251355)
(0.10302 0.204938 -0.00269229)
(0.0746734 0.20471 -0.00281678)
(0.0449351 0.207946 -0.00297139)
(0.0203529 0.213631 -0.00314688)
(3 2.36063e-08 0.000548536)
(3 1.92286e-07 0.000520478)
(3 5.14807e-07 0.000492613)
(3 9.00435e-07 0.000464943)
(3 1.39573e-06 0.000437472)
(3 1.78394e-06 0.000410199)
(3 2.10473e-06 0.000383128)
(3 2.37636e-06 0.000356263)
(3 2.59125e-06 0.000329604)
(3 2.74906e-06 0.000303155)
(3 2.85086e-06 0.000276917)
(3 2.90377e-06 0.000250893)
(3 2.91805e-06 0.000225082)
(3 2.87944e-06 0.000199503)
(3 2.96414e-06 0.00017413)
(2.99999 2.6596e-06 0.000149076)
(2.99999 3.25581e-06 0.000124319)
(2.99995 4.61673e-06 0.000100382)
(2.99989 1.18817e-05 7.67641e-05)
(2.99968 1.96782e-05 5.67405e-05)
(2.99937 4.10959e-05 3.57647e-05)
(2.99806 7.01691e-05 4.03879e-05)
(2.99602 7.88009e-05 1.71488e-05)
(2.98477 -0.00131817 0.000305982)
(2.97877 0.00306744 0.000246416)
(2.83778 -0.00183722 0.00429667)
(2.57608 0.0389768 0.0064212)
(1.89446 0.0935726 0.0184064)
(0.717444 0.29866 0.0109173)
(0.36945 0.230867 0.00159474)
(0.506937 0.192146 -0.00176212)
(0.566584 0.168937 -0.00123442)
(0.553264 0.156378 -0.000789343)
(0.52067 0.15371 -0.0007492)
(0.479159 0.160282 -0.000809928)
(0.442945 0.170255 -0.000954357)
(0.412277 0.181704 -0.00107323)
(0.383261 0.19317 -0.00116925)
(0.352689 0.202939 -0.0012691)
(0.320734 0.210554 -0.00138794)
(0.289001 0.216641 -0.00151626)
(0.258165 0.222092 -0.00165074)
(0.228959 0.227121 -0.00178838)
(0.200187 0.231839 -0.00196102)
(0.169754 0.235654 -0.0021423)
(0.139323 0.237736 -0.00233343)
(0.105716 0.238605 -0.00250081)
(0.0769003 0.237232 -0.00261733)
(0.0446761 0.240775 -0.00276319)
(0.0197483 0.249023 -0.00291982)
(3 1.689e-08 0.000510349)
(3 1.82586e-07 0.000484198)
(3 4.72979e-07 0.000458233)
(3 8.56251e-07 0.000432455)
(3 1.30657e-06 0.000406866)
(3 1.77722e-06 0.000381467)
(3 2.11014e-06 0.00035626)
(3 2.39805e-06 0.000331249)
(3 2.63477e-06 0.000306436)
(3 2.81572e-06 0.000281821)
(3 2.94415e-06 0.000257407)
(3 3.02656e-06 0.000233196)
(3 3.07886e-06 0.000209188)
(3 3.06906e-06 0.000185395)
(3 3.64158e-06 0.000161804)
(3 2.27455e-06 0.000138503)
(2.99999 2.75155e-06 0.000115473)
(2.99996 -7.19074e-06 9.31702e-05)
(2.9999 2.34853e-06 7.11567e-05)
(2.99971 -5.86452e-05 5.2566e-05)
(2.99942 -1.55983e-05 3.37102e-05)
(2.99816 -0.000475627 3.71596e-05)
(2.9957 -9.83419e-05 5.72782e-05)
(2.98622 -0.00241459 0.000234969)
(2.98035 0.00171343 0.00016898)
(2.85865 -0.0016361 0.00347739)
(2.64296 0.0446401 0.00505521)
(2.0317 0.0965667 0.0161807)
(0.803765 0.323152 0.0114113)
(0.372729 0.254891 0.00230344)
(0.51119 0.219034 -0.0016646)
(0.573311 0.191741 -0.00122517)
(0.563647 0.179562 -0.000766288)
(0.53439 0.17771 -0.000711855)
(0.493486 0.186246 -0.000749251)
(0.455003 0.19771 -0.000870676)
(0.423071 0.21047 -0.000988256)
(0.393565 0.223067 -0.00108289)
(0.362399 0.233669 -0.00117475)
(0.329732 0.241773 -0.00128257)
(0.2973 0.248295 -0.00139752)
(0.265671 0.2543 -0.00152233)
(0.235499 0.260108 -0.00164512)
(0.205928 0.265669 -0.00179634)
(0.174805 0.270582 -0.00196801)
(0.143681 0.27357 -0.00214333)
(0.109036 0.274835 -0.0023004)
(0.0799078 0.272826 -0.00241152)
(0.0448263 0.27652 -0.00255171)
(0.0195043 0.2853 -0.00267304)
(3 1.22601e-08 0.000470595)
(3 1.69662e-07 0.000446438)
(3 4.3145e-07 0.000422457)
(3 7.98975e-07 0.000398653)
(3 1.20521e-06 0.000375028)
(3 1.70177e-06 0.000351584)
(3 2.05402e-06 0.000328321)
(3 2.3701e-06 0.000305243)
(3 2.64272e-06 0.000282352)
(3 2.86725e-06 0.000259648)
(3 3.04241e-06 0.000237133)
(3 3.1713e-06 0.000214809)
(3 3.25865e-06 0.000192677)
(3 3.29328e-06 0.000170738)
(3 3.51196e-06 0.000149023)
(2.99999 3.45927e-06 0.000127545)
(2.99998 4.37239e-06 0.000106488)
(2.99995 6.32937e-06 8.57202e-05)
(2.99986 1.63628e-05 6.65261e-05)
(2.99968 3.1247e-05 4.81616e-05)
(2.99909 8.93267e-05 3.85303e-05)
(2.99812 0.000191217 2.90168e-05)
(2.99484 0.000369497 6.53194e-05)
(2.98676 0.0011272 0.000183957)
(2.98361 0.00314122 0.000106858)
(2.88218 0.000909545 0.00261658)
(2.70371 0.0394245 0.00389307)
(2.17859 0.0855201 0.0134784)
(0.90927 0.299041 0.0119484)
(0.390766 0.276578 0.00315889)
(0.511575 0.251391 -0.00145561)
(0.573257 0.214708 -0.00118928)
(0.572831 0.203499 -0.000764244)
(0.549261 0.203391 -0.000683603)
(0.509771 0.214155 -0.000693981)
(0.468973 0.227455 -0.000787846)
(0.435677 0.24172 -0.000904691)
(0.405609 0.255295 -0.000995541)
(0.373728 0.266448 -0.00107879)
(0.340194 0.274932 -0.00117582)
(0.307009 0.281858 -0.00128048)
(0.274618 0.288428 -0.00139267)
(0.243452 0.294964 -0.00150407)
(0.213129 0.301381 -0.00163785)
(0.181357 0.307409 -0.00178838)
(0.149285 0.311536 -0.00194838)
(0.113357 0.313519 -0.00209453)
(0.0837091 0.311485 -0.00219837)
(0.0454916 0.315279 -0.00233018)
(0.0195693 0.322924 -0.00241421)
(3 1.15717e-08 0.000429205)
(3 1.50578e-07 0.000407131)
(3 3.94652e-07 0.000385222)
(3 7.2044e-07 0.00036348)
(3 1.10793e-06 0.000341905)
(3 1.53428e-06 0.0003205)
(3 1.94711e-06 0.000299266)
(3 2.27071e-06 0.000278203)
(3 2.55476e-06 0.000257315)
(3 2.7944e-06 0.000236602)
(3 2.98426e-06 0.000216065)
(3 3.12208e-06 0.000195707)
(3 3.20486e-06 0.000175527)
(3 3.22731e-06 0.000155531)
(3 3.15136e-06 0.000135714)
(3 3.82987e-06 0.000116131)
(2.99999 5.71888e-06 9.67662e-05)
(2.99997 1.502e-05 7.78956e-05)
(2.99993 3.19057e-05 5.92533e-05)
(2.9998 9.99315e-05 4.27637e-05)
(2.99962 0.000214179 2.50753e-05)
(2.99854 0.000717016 2.91638e-05)
(2.99693 0.000877944 2.69481e-05)
(2.98899 0.00327991 0.000161247)
(2.98367 0.00501207 8.6055e-05)
(2.89957 0.00303981 0.00195514)
(2.75599 0.0318908 0.00290106)
(2.31582 0.0715646 0.0101798)
(1.04733 0.228212 0.0122537)
(0.455704 0.308255 0.0039395)
(0.508961 0.282043 -0.00109628)
(0.566767 0.238709 -0.00112764)
(0.584618 0.228682 -0.000782978)
(0.566776 0.230743 -0.000652705)
(0.527894 0.243834 -0.000641041)
(0.484172 0.259508 -0.000708012)
(0.449337 0.275588 -0.000820035)
(0.418726 0.290081 -0.000904425)
(0.386363 0.301346 -0.00097948)
(0.35225 0.310066 -0.00106597)
(0.318484 0.317313 -0.00115571)
(0.285394 0.324506 -0.00125496)
(0.253194 0.331997 -0.00135376)
(0.22193 0.339563 -0.00147141)
(0.189487 0.346848 -0.00161128)
(0.156514 0.352283 -0.0017534)
(0.119058 0.355177 -0.00188068)
(0.0883083 0.35375 -0.00197793)
(0.0468894 0.357651 -0.00210765)
(0.0199366 0.363145 -0.00216099)
(3 1.06103e-08 0.000386103)
(3 1.32502e-07 0.000366207)
(3 3.54794e-07 0.000346464)
(3 6.41641e-07 0.000326875)
(3 1.00016e-06 0.000307442)
(3 1.37296e-06 0.000288165)
(3 1.79731e-06 0.000269046)
(3 2.14151e-06 0.000250085)
(3 2.41226e-06 0.000231285)
(3 2.64398e-06 0.000212646)
(3 2.83406e-06 0.00019417)
(3 2.98286e-06 0.000175857)
(3 3.09347e-06 0.000157709)
(3 3.18486e-06 0.000139727)
(3 2.95517e-06 0.00012192)
(3 2.58639e-06 0.0001043)
(2.99999 3.01885e-06 8.69368e-05)
(2.99997 4.44963e-06 6.97927e-05)
(2.99993 1.41066e-05 5.31743e-05)
(2.99984 3.05082e-05 3.77297e-05)
(2.99964 0.000105022 2.11595e-05)
(2.99877 0.000191272 2.24433e-05)
(2.99738 0.000634459 2.21296e-05)
(2.99083 0.000966497 0.0001107)
(2.98662 0.00460129 8.65802e-05)
(2.91402 0.00476275 0.00149101)
(2.79885 0.029775 0.00207429)
(2.41147 0.0602939 0.00808145)
(1.21422 0.180822 0.011344)
(0.553784 0.346973 0.00424897)
(0.491587 0.302112 -0.000366787)
(0.560361 0.26078 -0.000983119)
(0.597512 0.253457 -0.000799445)
(0.584153 0.259331 -0.000613694)
(0.544957 0.275182 -0.000585587)
(0.498559 0.293844 -0.000632437)
(0.462644 0.311939 -0.000736684)
(0.431842 0.327094 -0.000811943)
(0.399617 0.338232 -0.000877327)
(0.365596 0.346795 -0.000953008)
(0.331588 0.354301 -0.00103064)
(0.298198 0.362239 -0.00111595)
(0.265266 0.370917 -0.0012004)
(0.233099 0.380047 -0.00129952)
(0.199761 0.389237 -0.0014232)
(0.165605 0.396529 -0.00155353)
(0.1266 0.400865 -0.00167119)
(0.0942731 0.400554 -0.00176017)
(0.0497806 0.404629 -0.00187153)
(0.0207579 0.407508 -0.00191071)
(3 8.29958e-09 0.000341213)
(3 1.16921e-07 0.000323594)
(3 3.09888e-07 0.000306115)
(3 5.67222e-07 0.000288776)
(3 8.76938e-07 0.000271579)
(3 1.21635e-06 0.000254524)
(3 1.58411e-06 0.000237612)
(3 1.94199e-06 0.000220844)
(3 2.23891e-06 0.00020422)
(3 2.47642e-06 0.000187743)
(3 2.68318e-06 0.000171413)
(3 2.86069e-06 0.000155231)
(3 3.01037e-06 0.000139198)
(3 3.14347e-06 0.000123318)
(3 2.89342e-06 0.000107585)
(3 3.07384e-06 9.20229e-05)
(2.99999 2.95447e-06 7.66314e-05)
(2.99998 7.88031e-06 6.15146e-05)
(2.99996 9.63451e-06 4.65504e-05)
(2.99988 4.20651e-05 3.25507e-05)
(2.9998 6.08347e-05 1.81342e-05)
(2.99909 0.000179421 1.61132e-05)
(2.99791 0.000595798 1.45028e-05)
(2.99301 0.00122448 7.13739e-05)
(2.98997 0.00431808 5.05301e-05)
(2.92801 0.00443771 0.00110119)
(2.83479 0.0278287 0.0015168)
(2.49809 0.0575307 0.00621795)
(1.408 0.176343 0.00966643)
(0.679118 0.379711 0.00452095)
(0.48111 0.316408 0.000364934)
(0.566617 0.279914 -0.000904497)
(0.617065 0.278697 -0.000762383)
(0.603463 0.290644 -0.000552529)
(0.561333 0.309775 -0.000517943)
(0.512349 0.331156 -0.000556441)
(0.475606 0.350724 -0.000647526)
(0.445112 0.365857 -0.00071489)
(0.413547 0.376492 -0.000770984)
(0.380234 0.384963 -0.000836631)
(0.346713 0.392972 -0.000902141)
(0.313405 0.40196 -0.000975313)
(0.280013 0.412147 -0.0010478)
(0.247152 0.42318 -0.0011283)
(0.213011 0.434612 -0.00123051)
(0.177596 0.444611 -0.00134798)
(0.136755 0.451295 -0.00145192)
(0.101883 0.452817 -0.00153115)
(0.0542934 0.457286 -0.00163546)
(0.0221183 0.457628 -0.00166242)
(3 6.74789e-09 0.000294452)
(3 9.98511e-08 0.000279216)
(3 2.6578e-07 0.000264104)
(3 4.87504e-07 0.000249117)
(3 7.5413e-07 0.000234255)
(3 1.04849e-06 0.000219519)
(3 1.36652e-06 0.00020491)
(3 1.68861e-06 0.00019043)
(3 2.00056e-06 0.000176077)
(3 2.26305e-06 0.000161853)
(3 2.46951e-06 0.00014776)
(3 2.64953e-06 0.000133796)
(3 2.80674e-06 0.000119964)
(3 2.92614e-06 0.000106268)
(3 3.14344e-06 9.27017e-05)
(3 3.09637e-06 7.9285e-05)
(2.99999 2.86307e-06 6.60124e-05)
(2.99998 2.67295e-06 5.29797e-05)
(2.99996 1.88595e-06 4.00643e-05)
(2.99989 1.1271e-07 2.79632e-05)
(2.99979 -5.32872e-06 1.57169e-05)
(2.99933 -0.000100238 8.99405e-06)
(2.99858 0.000309834 2.52178e-06)
(2.99464 0.000228672 4.45889e-05)
(2.99208 0.00426955 2.4581e-05)
(2.94078 0.00606431 0.000772777)
(2.87393 0.0315895 0.00100498)
(2.58578 0.0657444 0.00463657)
(1.63218 0.173114 0.0077788)
(0.839882 0.388458 0.00481192)
(0.486587 0.325629 0.00100669)
(0.582847 0.301436 -0.000851515)
(0.639774 0.307371 -0.000721911)
(0.620463 0.324683 -0.00048407)
(0.573516 0.346803 -0.000447389)
(0.523374 0.370356 -0.000483306)
(0.487313 0.390599 -0.000561059)
(0.458155 0.405123 -0.000617711)
(0.428622 0.415186 -0.000663543)
(0.397161 0.423861 -0.000717215)
(0.364613 0.432836 -0.000770151)
(0.331805 0.443511 -0.000830039)
(0.298284 0.455906 -0.000889865)
(0.264712 0.469483 -0.000958163)
(0.229771 0.483782 -0.00103934)
(0.193206 0.497252 -0.00113659)
(0.150438 0.507328 -0.00123092)
(0.112326 0.511666 -0.00130077)
(0.0612649 0.517394 -0.00138666)
(0.0241273 0.515763 -0.00141436)
(3 5.01646e-09 0.000245734)
(3 8.27233e-08 0.000232991)
(3 2.20329e-07 0.000220355)
(3 4.06814e-07 0.000207826)
(3 6.29031e-07 0.000195404)
(3 8.7913e-07 0.000183092)
(3 1.1466e-06 0.000170888)
(3 1.42474e-06 0.000158793)
(3 1.70578e-06 0.000146809)
(3 1.97223e-06 0.000134934)
(3 2.20316e-06 0.000123171)
(3 2.38311e-06 0.000111519)
(3 2.53389e-06 9.99795e-05)
(3 2.64145e-06 8.85543e-05)
(3 3.05205e-06 7.72426e-05)
(3 3.15305e-06 6.60602e-05)
(2.99999 4.2456e-06 5.49987e-05)
(2.99998 4.44638e-06 4.41473e-05)
(2.99996 1.21745e-05 3.34126e-05)
(2.99988 1.35091e-05 2.32511e-05)
(2.99973 6.91121e-05 1.39987e-05)
(2.99943 1.02207e-05 3.76675e-06)
(2.99839 0.000345184 4.45939e-07)
(2.99718 -0.000247521 1.58993e-06)
(2.99778 0.000910619 -2.12318e-05)
(2.9593 -0.00505957 0.000465313)
(2.91677 0.0409341 0.000596919)
(2.67306 -0.000296537 0.00331705)
(1.85614 0.190516 0.00596118)
(1.00761 0.352474 0.00502546)
(0.503753 0.334782 0.00146193)
(0.592609 0.342413 -0.000736157)
(0.647539 0.353379 -0.000637363)
(0.624912 0.369282 -0.000412385)
(0.578354 0.389548 -0.000375997)
(0.531593 0.411843 -0.000406182)
(0.498644 0.430524 -0.000468306)
(0.472564 0.443354 -0.000514161)
(0.446263 0.453162 -0.000551852)
(0.417432 0.462455 -0.000594579)
(0.386551 0.473202 -0.000636155)
(0.354648 0.486432 -0.00068275)
(0.321221 0.501929 -0.000729387)
(0.287207 0.519086 -0.000782262)
(0.251524 0.53723 -0.000849059)
(0.213685 0.555205 -0.000924239)
(0.168898 0.570177 -0.00100075)
(0.126669 0.579178 -0.00106241)
(0.0713291 0.587625 -0.00114078)
(0.027386 0.585367 -0.00116125)
(3 3.7058e-09 0.000194969)
(3 6.53015e-08 0.000184835)
(3 1.75034e-07 0.000174789)
(3 3.24539e-07 0.00016483)
(3 5.03651e-07 0.00015496)
(3 7.06336e-07 0.000145178)
(3 9.25639e-07 0.000135485)
(3 1.15405e-06 0.000125882)
(3 1.39311e-06 0.000116367)
(3 1.62244e-06 0.000106943)
(3 1.86134e-06 9.76091e-05)
(3 2.05127e-06 8.83654e-05)
(3 2.22848e-06 7.92126e-05)
(3 2.32255e-06 7.0151e-05)
(3 2.60964e-06 6.11836e-05)
(3 2.70777e-06 5.2311e-05)
(3 3.90131e-06 4.35456e-05)
(2.99999 4.61978e-06 3.48851e-05)
(2.99997 1.28478e-05 2.63732e-05)
(2.99996 2.18186e-05 1.79063e-05)
(2.9998 5.59647e-05 1.08846e-05)
(2.99966 0.000161517 2.85201e-06)
(2.99841 9.81582e-05 5.37864e-06)
(2.99517 0.000471447 2.34697e-05)
(2.98842 0.000134666 5.02906e-05)
(2.98623 -0.00656651 -1.15676e-05)
(2.88662 0.0224873 0.00101947)
(2.72381 -0.0277573 0.00142038)
(2.23292 0.112559 0.00469132)
(1.01173 0.272159 0.00497592)
(0.462646 0.358539 0.00148246)
(0.560187 0.392908 -0.000529859)
(0.619938 0.395536 -0.000488005)
(0.611038 0.408765 -0.000325842)
(0.578749 0.427093 -0.000298469)
(0.542626 0.448497 -0.000319314)
(0.515076 0.465464 -0.000365697)
(0.492826 0.477661 -0.000402943)
(0.470046 0.488466 -0.000434788)
(0.44357 0.500076 -0.000469275)
(0.414387 0.513933 -0.000500703)
(0.383447 0.530853 -0.000536115)
(0.350369 0.550509 -0.000571404)
(0.315984 0.572286 -0.000609542)
(0.279863 0.595534 -0.00065525)
(0.241089 0.619585 -0.000716859)
(0.194582 0.641649 -0.000776551)
(0.147857 0.657802 -0.000821061)
(0.0868043 0.672147 -0.000879675)
(0.032886 0.67178 -0.000904485)
(3 2.75753e-09 0.000142059)
(3 4.90801e-08 0.000134658)
(3 1.32833e-07 0.000127322)
(3 2.49082e-07 0.000120053)
(3 3.90161e-07 0.00011285)
(3 5.53274e-07 0.000105713)
(3 7.31258e-07 9.86428e-05)
(3 9.21871e-07 9.16394e-05)
(3 1.12151e-06 8.47029e-05)
(3 1.32302e-06 7.78337e-05)
(3 1.5308e-06 7.1032e-05)
(3 1.72718e-06 6.42976e-05)
(3 1.92166e-06 5.76313e-05)
(3 2.05371e-06 5.10329e-05)
(3 2.12924e-06 4.4504e-05)
(3 2.25802e-06 3.80459e-05)
(3 2.55626e-06 3.16634e-05)
(2.99999 3.92373e-06 2.53703e-05)
(2.99998 6.67389e-06 1.91509e-05)
(2.99993 1.4343e-05 1.32623e-05)
(2.99988 2.42744e-05 7.24325e-06)
(2.99953 9.99299e-05 3.24233e-06)
(2.99891 0.000143144 6.48596e-07)
(2.99772 0.00083419 -5.50274e-06)
(2.99081 0.00282193 3.6124e-05)
(2.98751 0.00533778 5.22401e-06)
(2.91029 0.00404371 0.000558575)
(2.79622 0.0409195 0.000740936)
(2.40369 0.0873108 0.00286797)
(1.18564 0.259679 0.00393938)
(0.560788 0.443147 0.00135424)
(0.543454 0.44918 -0.000171314)
(0.594156 0.432757 -0.000302815)
(0.611483 0.440011 -0.000261473)
(0.595444 0.456598 -0.000228058)
(0.568581 0.477602 -0.000235077)
(0.543676 0.494685 -0.000261833)
(0.523597 0.508801 -0.000291068)
(0.502929 0.522252 -0.000316074)
(0.477905 0.53753 -0.000341878)
(0.44965 0.555678 -0.000364014)
(0.419667 0.577232 -0.000389009)
(0.387412 0.60195 -0.000413007)
(0.353386 0.629281 -0.000437954)
(0.317329 0.658919 -0.000466736)
(0.27869 0.691291 -0.000505344)
(0.231428 0.724194 -0.000551341)
(0.18019 0.752263 -0.000584476)
(0.112034 0.77811 -0.000624756)
(0.0437168 0.785945 -0.000640849)
(3 3.63652e-09 8.6904e-05)
(3 3.59672e-08 8.23652e-05)
(3 9.51081e-08 7.78681e-05)
(3 1.76387e-07 7.34125e-05)
(3 2.78626e-07 6.89987e-05)
(3 3.97759e-07 6.46267e-05)
(3 5.32632e-07 6.02966e-05)
(3 6.80974e-07 5.60085e-05)
(3 8.39205e-07 5.17625e-05)
(3 1.00796e-06 4.75587e-05)
(3 1.18116e-06 4.33973e-05)
(3 1.36034e-06 3.92781e-05)
(3 1.52562e-06 3.52015e-05)
(3 1.69656e-06 3.11675e-05)
(3 1.78021e-06 2.71764e-05)
(3 1.93066e-06 2.32287e-05)
(3 2.00553e-06 1.93265e-05)
(2.99999 3.21722e-06 1.54677e-05)
(2.99999 3.44625e-06 1.16706e-05)
(2.99998 7.14955e-06 7.89306e-06)
(2.99991 1.80592e-05 4.45016e-06)
(2.99983 3.25248e-05 8.40981e-07)
(2.99928 0.000330507 -5.3382e-07)
(2.99841 0.000443524 -3.06649e-06)
(2.99383 0.000726951 1.27969e-05)
(2.99109 0.00446988 5.2178e-06)
(2.93229 0.00485239 0.000251588)
(2.85421 0.0398194 0.000321055)
(2.5379 0.0814309 0.00143347)
(1.48679 0.255999 0.00230482)
(0.766477 0.523358 0.00108167)
(0.563677 0.494768 0.000134967)
(0.613368 0.470807 -0.000186288)
(0.646405 0.467823 -0.000179574)
(0.638511 0.483382 -0.000150284)