/*--------------------------------*- C++ -*----------------------------------*\
| =========                 |                                                 |
| \\      /  F ield         | OpenFOAM: The Open Source CFD Toolbox           |
|  \\    /   O peration     | Version:  2112                                  |
|   \\  /    A nd           | Website:  www.openfoam.com                      |
|    \\/     M anipulation  |                                                 |
\*---------------------------------------------------------------------------*/
FoamFile
{
    version     2.0;
    format      ascii;
    arch        "LSB;label=32;scalar=64";
    class       volScalarField;
    location    "2";
    object      T;
}
// * * * * * * * * * * * * * * * * * * * * * * * * * * * * * * * * * * * * * //

dimensions      [0 0 0 1 0 0 0];

internalField   nonuniform List<scalar> 
1000
(
0
0
0
0
0
0
0
0
0
0
0
0
0
0
0
0
0
0
0
0
0
0
0
0
0
0
0
0
0
0
0
0
0
0
0
0
0
0
0
0
0
0
0
0
0
0
0
0
0
0
0
0
0
0
0
0
0
0
0
0
0
0
0
0
0
0
0
0
0
0
0
0
0
0
0
0
0
0
0
0
0
0
0
0
0
0
0
0
0
0
0
0
0
0
0
0
0
0
0
0
0
0
0
0
0
0
0
0
0
0
0
0
0
0
0
0
0
0
0
0
0
0
0
0
0
0
0
0
0
0
0
0
0
0
0
0
0
0
0
0
0
0
0
0
0
0
0
0
0
0
0
0
0
0
0
0
0
0
0
0
0
0
0
0
0
0
0
0
0
0
0
0
0
0
0
0
0
0
0
0
0
0
0
0
0
0
0
0
0
0
0
0
0
0
0
0
0
0
0
0
0
0
0
0
0
0
0
0
0
0
0
0
0
0
0
0
0
0
0
0
0
0
0
0
0
0
0
0
0
0
0
0
0
0
0
0
0
0
0
0
0
0
0
0
0
0
0
0
0
0
2.34288e-156
-1.091e-153
2.51549e-151
-3.82838e-149
4.32594e-147
-3.87057e-145
2.85594e-143
-1.78713e-141
9.67983e-140
-4.60927e-138
1.95323e-136
-7.43875e-135
2.56668e-133
-8.07771e-132
2.33193e-130
-6.20515e-129
1.5283e-127
-3.49664e-126
7.4549e-125
-1.48516e-123
2.77132e-122
-4.85398e-121
7.99482e-120
-1.24027e-118
1.81481e-117
-2.50768e-116
3.27554e-115
-4.0479e-114
4.73593e-113
-5.24842e-112
5.5112e-111
-5.48435e-110
5.17187e-109
-4.6207e-108
3.90925e-107
-3.12947e-106
2.36788e-105
-1.6908e-104
1.13702e-103
-7.18062e-103
4.24218e-102
-2.33178e-101
1.18306e-100
-5.47279e-100
2.26068e-99
-8.00531e-99
2.19072e-98
-2.77503e-98
-1.55875e-97
1.50761e-96
-7.68449e-96
2.73254e-95
-5.99927e-95
-2.32717e-95
9.82474e-94
-5.40764e-93
1.74623e-92
-2.51804e-92
-9.0239e-92
7.93135e-91
-2.93697e-90
4.9803e-90
1.09114e-89
-1.10241e-88
3.84414e-88
-4.8819e-88
-2.12055e-87
1.44421e-86
-3.78498e-86
2.83705e-87
3.80539e-85
-1.51379e-84
1.95948e-84
7.60676e-84
-4.66e-83
9.29066e-83
1.14617e-82
-1.2444e-81
3.07388e-81
1.18816e-81
-3.07776e-80
8.45557e-80
7.89452e-81
-7.33376e-79
2.04175e-78
2.46984e-79
-1.7076e-77
4.37888e-77
1.86154e-77
-3.84304e-76
8.18615e-76
8.75317e-76
-8.11864e-75
1.25332e-74
2.97051e-74
-1.54553e-73
1.27857e-73
7.92809e-73
-2.50654e-72
-2.53716e-73
1.70706e-71
-3.11625e-71
-5.14671e-71
2.92332e-70
-1.99223e-70
-1.46407e-69
3.70739e-69
2.69833e-69
-2.64772e-68
2.58243e-68
1.144e-67
-3.19635e-67
-1.83418e-67
2.05317e-66
-1.82325e-66
-8.78522e-66
2.13747e-65
1.97053e-65
-1.37342e-64
6.27572e-65
6.35024e-64
-1.04332e-63
-2.04658e-63
7.39679e-63
2.36952e-63
-3.84154e-62
2.6262e-62
1.57905e-61
-2.68962e-61
-4.95236e-61
1.66486e-60
8.66154e-61
-8.19178e-60
2.51529e-60
3.41833e-59
-3.5685e-59
-1.22402e-58
2.34163e-58
3.65074e-58
-1.20269e-57
-7.92095e-58
5.36082e-57
2.80626e-58
-2.15723e-56
9.59655e-57
7.9888e-56
-7.30594e-56
-2.75035e-55
3.88074e-55
8.84607e-55
-1.75912e-54
-2.66063e-54
7.24092e-54
7.46041e-54
-2.78549e-53
-1.9338e-53
1.01806e-52
4.55251e-53
-3.57346e-52
-9.37673e-53
1.21381e-51
1.53798e-52
-4.01222e-51
-1.34599e-52
1.29578e-50
-2.62539e-52
-4.09958e-50
1.49018e-51
1.27232e-49
-2.01295e-51
-3.87369e-49
-1.56045e-50
1.15553e-48
1.51382e-49
-3.36867e-48
-8.62238e-49
9.55979e-48
3.97943e-48
-2.62634e-47
-1.61827e-47
6.93167e-47
6.00169e-47
-1.73833e-46
-2.06391e-46
4.0716e-46
6.6339e-46
-8.63696e-46
-1.99865e-45
1.54851e-45
5.6377e-45
-1.84081e-45
-1.48126e-44
-1.32019e-45
3.58678e-44
1.85404e-44
-7.84219e-44
-8.01994e-44
1.4827e-43
2.60685e-43
-2.15269e-43
-7.13408e-43
1.15846e-43
1.68389e-42
6.77908e-43
-3.37383e-42
-3.47774e-42
5.32462e-42
1.08428e-41
-4.69749e-42
-2.62429e-41
-7.2121e-42
5.0489e-41
4.95438e-41
-7.02234e-41
-1.51795e-40
3.35442e-41
3.32198e-40
1.81892e-40
-5.23629e-40
-7.67129e-40
4.22039e-40
1.83533e-39
6.83673e-40
-2.95872e-39
-3.80246e-39
2.34367e-39
9.19404e-39
3.75158e-39
-1.36918e-38
-1.93851e-38
7.15469e-39
4.19689e-38
2.69645e-38
-4.93938e-38
-9.64011e-38
-7.82495e-39
1.62205e-37
1.78667e-37
-9.8855e-38
-4.13053e-37
-2.65877e-37
4.24513e-37
9.13835e-37
2.80437e-37
-1.23447e-36
-1.85817e-36
-4.1687e-38
3.05344e-36
3.61858e-36
-8.01487e-37
-6.9212e-36
-7.00131e-36
2.82867e-36
1.49028e-35
1.38941e-35
-6.75344e-36
-3.10387e-35
-2.88381e-35
1.26724e-35
6.28657e-35
6.2604e-35
-1.71774e-35
-1.23036e-34
-1.39595e-34
4.57233e-36
2.28131e-34
3.10928e-34
7.5914e-35
-3.8459e-34
-6.70742e-34
-3.60541e-34
5.34665e-34
1.35419e-33
1.16038e-33
-4.05353e-34
-2.43973e-33
-3.05757e-33
-8.21132e-34
3.55851e-33
6.80962e-33
5.01659e-33
-2.85704e-33
-1.2441e-32
-1.53235e-32
-4.94573e-33
1.62239e-32
3.42114e-32
3.03458e-32
-4.15809e-33
-5.49706e-32
-8.51289e-32
-5.56941e-32
4.11157e-32
1.58366e-31
2.05228e-31
1.00603e-31
-1.53152e-31
-4.26673e-31
-5.01182e-31
-1.98761e-31
4.50693e-31
1.11872e-30
1.27452e-30
4.91372e-31
-1.16166e-30
-2.89563e-30
-3.40295e-30
-1.55948e-30
2.6245e-30
7.36808e-30
9.42929e-30
5.64792e-30
-4.71034e-30
-1.80286e-29
-2.64087e-29
-2.07802e-29
3.41707e-30
4.04288e-29
7.21134e-29
7.30615e-29
2.35284e-29
-7.39501e-29
-1.83016e-28
-2.37347e-28
-1.66166e-28
6.24818e-29
3.97794e-28
6.88656e-28
7.18499e-28
3.01433e-28
-5.83353e-28
-1.67771e-27
-2.43128e-27
-2.15551e-27
-3.52777e-28
2.86822e-27
6.4797e-27
8.56492e-27
6.87806e-27
-6.52316e-29
-1.1658e-26
-2.42257e-26
-3.11536e-26
-2.47152e-26
3.52444e-28
4.238e-26
8.92309e-26
1.18136e-25
1.01054e-25
1.61892e-26
-1.36452e-25
-3.20879e-25
-4.60337e-25
-4.50196e-25
-1.93139e-25
3.46674e-25
1.08504e-24
1.78029e-24
2.04853e-24
1.45742e-24
-2.95485e-25
-3.14988e-24
-6.46844e-24
-8.95201e-24
-8.80637e-24
-4.24694e-24
5.66665e-24
2.00248e-23
3.52244e-23
4.4763e-23
4.01773e-23
1.34701e-23
-3.90349e-23
-1.12106e-22
-1.87727e-22
-2.34028e-22
-2.09308e-22
-7.29016e-23
1.96978e-22
5.80963e-22
9.97749e-22
1.29406e-21
1.2565e-21
6.55473e-22
-6.74248e-22
-2.72228e-21
-5.1822e-21
-7.36112e-21
-8.17327e-21
-6.27741e-21
-4.06001e-22
1.01024e-20
2.46199e-20
4.05357e-20
5.27907e-20
5.39614e-20
3.52448e-20
-1.1374e-20
-8.96872e-20
-1.94851e-19
-3.08789e-19
-3.96821e-19
-4.07483e-19
-2.77837e-19
5.3602e-20
6.25109e-19
1.42188e-18
2.34173e-18
3.16401e-18
3.53352e-18
2.9752e-18
9.56735e-19
-2.98538e-18
-9.04904e-18
-1.69065e-17
-2.54121e-17
-3.23395e-17
-3.42455e-17
-2.65897e-17
-4.25967e-18
3.73503e-17
1.0061e-16
1.83272e-16
2.75624e-16
3.57579e-16
3.96467e-16
3.46587e-16
1.51935e-16
-2.46287e-16
-8.95806e-16
-1.81194e-15
-2.94867e-15
-4.16368e-15
-5.18163e-15
-5.56322e-15
-4.69174e-15
-1.79317e-15
3.99009e-15
1.34496e-14
2.70637e-14
4.46372e-14
6.48252e-14
8.45616e-14
9.84481e-14
9.82068e-14
7.23628e-14
6.39562e-15
-1.16324e-13
-3.12423e-13
-5.94792e-13
-9.66795e-13
-1.41403e-12
-1.89346e-12
-2.32011e-12
-2.55202e-12
-2.37512e-12
-1.49082e-12
4.8944e-13
4.03614e-12
9.67186e-12
1.79083e-11
2.91364e-11
4.34543e-11
6.04145e-11
7.8674e-11
9.55328e-11
1.06353e-10
1.03865e-10
7.73836e-11
1.19995e-11
-1.12155e-10
-3.20386e-10
-6.43409e-10
-1.11641e-09
-1.77669e-09
-2.65907e-09
-3.78814e-09
-5.16599e-09
-6.75361e-09
-8.444e-09
-1.00239e-08
-1.11208e-08
-1.11315e-08
-9.12555e-09
-3.71962e-09
7.08707e-09
2.61233e-08
5.73134e-08
1.06014e-07
1.79433e-07
2.87149e-07
4.4174e-07
6.59562e-07
9.6167e-07
1.37493e-06
1.93336e-06
2.67964e-06
3.66702e-06
4.96138e-06
6.64375e-06
8.81314e-06
1.15898e-05
1.5119e-05
1.9575e-05
2.51663e-05
3.21402e-05
4.07895e-05
5.14582e-05
6.45496e-05
8.05334e-05
9.99548e-05
0.000123443
0.000151724
0.000185626
0.000226096
0.000274211
0.000331186
0.000398396
0.000477382
0.000569868
0.000677778
0.000803249
0.000948643
0.00111657
0.00130989
0.00153176
0.00178558
0.00207509
0.00240433
0.00277766
0.00319979
0.00367575
0.00421094
0.00481111
0.00548237
0.00623119
0.00706441
0.00798919
0.00901309
0.010144
0.01139
0.0127597
0.0142618
0.0159054
0.0176998
0.0196545
0.0217791
0.0240834
0.0265774
0.029271
0.0321741
0.0352967
0.0386486
0.0422396
0.0460791
0.0501765
0.0545406
0.0591801
0.0641031
0.0693174
0.0748302
0.080648
0.0867769
0.0932221
0.0999882
0.107079
0.114497
0.122246
0.130325
0.138735
0.147476
0.156546
0.165942
0.175661
0.185699
0.196049
0.206705
0.217659
0.228904
0.240429
0.252224
0.264279
0.27658
0.289116
0.301872
0.314834
0.327987
0.341316
0.354805
0.368437
0.382195
0.396061
0.41002
0.424051
0.438139
0.452264
0.46641
0.480557
0.494688
0.508786
0.522834
0.536814
0.55071
0.564505
0.578184
0.591731
0.605132
0.618373
0.631439
0.644318
0.656997
0.669466
0.681712
0.693725
0.705495
0.717014
0.728273
0.739264
0.74998
0.760414
0.77056
0.780413
0.789967
0.799219
0.808163
0.816797
0.825116
0.833119
0.840801
0.848161
0.855196
0.861904
0.868283
0.874331
0.880045
0.885425
0.890467
0.89517
0.899533
0.903551
0.907224
0.910549
0.913523
0.916143
0.918407
0.920312
0.921854
0.92303
0.923837
0.924271
0.92433
0.924009
0.923305
0.922214
0.920734
0.918862
0.916593
0.913926
0.910858
0.907387
0.903511
0.899228
0.894539
0.889442
0.883937
0.878026
0.871711
0.864992
0.857874
0.850359
0.842452
0.834159
0.825485
0.816437
0.807024
0.797252
0.787133
0.776676
0.765892
0.754793
0.743392
0.731701
0.719736
0.707511
0.695041
0.682342
0.669432
0.656326
0.643042
0.629599
0.616014
0.602306
0.588494
0.574595
0.560629
0.546615
0.532572
0.518517
0.50447
0.490448
0.476469
0.462551
0.448711
0.434965
0.421329
0.40782
0.39445
0.381236
0.36819
0.355325
0.342653
0.330186
0.317935
0.305908
0.294115
0.282565
0.271264
0.260219
0.249437
0.238921
0.228677
0.218708
0.209016
0.199604
0.190472
0.181623
0.173054
0.164767
0.15676
0.14903
0.141576
0.134396
0.127484
0.120839
0.114455
0.108329
0.102455
0.0968281
0.0914435
0.0862951
0.0813773
0.0766838
0.0722087
0.0679453
0.0638882
0.0600271
0.0563736
0.0528304
0.0498446
0.0451604
)
;

boundaryField
{
    sides
    {
        type            zeroGradient;
    }
    empty
    {
        type            empty;
    }
}


// ************************************************************************* //
