/*--------------------------------*- C++ -*----------------------------------*\
| =========                 |                                                 |
| \\      /  F ield         | OpenFOAM: The Open Source CFD Toolbox           |
|  \\    /   O peration     | Version:  2112                                  |
|   \\  /    A nd           | Website:  www.openfoam.com                      |
|    \\/     M anipulation  |                                                 |
\*---------------------------------------------------------------------------*/
FoamFile
{
    version     2.0;
    format      ascii;
    arch        "LSB;label=32;scalar=64";
    class       surfaceScalarField;
    location    "0.1";
    object      phi;
}
// * * * * * * * * * * * * * * * * * * * * * * * * * * * * * * * * * * * * * //

dimensions      [1 0 -1 0 0 0 0];

oriented        oriented;

internalField   nonuniform List<scalar> 
13790
(
0.00290515
7.44221e-10
0.00290515
1.66693e-10
0.00290515
-1.9217e-10
0.00290515
-3.28194e-10
0.00290515
-2.69347e-10
0.00290515
-1.91961e-10
0.00290515
-1.29113e-10
0.00290515
-7.17075e-11
0.00290515
-2.51993e-11
0.00290515
8.54386e-12
0.00290515
3.09824e-11
0.00290515
4.5306e-11
0.00290515
5.45446e-11
0.00290515
6.0718e-11
0.00290515
6.46882e-11
0.00290515
6.65536e-11
0.00290515
7.54521e-11
0.00290515
8.16571e-11
0.00290515
7.86197e-11
0.00290515
7.07574e-11
0.00290515
1.24747e-11
0.00290515
6.16585e-11
0.00290515
4.14164e-10
0.00290515
1.22936e-09
0.00290514
2.61286e-09
0.00290513
4.62015e-09
0.00290512
7.24239e-09
0.00290508
1.04218e-08
0.00290497
1.40025e-08
0.00290509
1.76887e-08
0.00290434
2.07039e-08
0.00290396
2.20015e-08
0.00290309
1.93402e-08
0.00289926
5.33649e-09
0.00289356
-2.32187e-08
0.00287696
-8.77557e-08
0.00284294
-2.48244e-07
0.00277082
-7.26284e-07
0.00260757
-2.50714e-06
0.00234344
-9.68942e-06
-0.000264182
-1.45918e-05
-0.00044441
0.000100302
0.000757317
-8.92102e-06
-0.000135783
6.0104e-05
-9.93326e-05
6.69587e-05
0.000614053
3.94934e-05
-4.98773e-05
6.89745e-05
-0.000220584
6.86751e-05
0.000319932
7.02371e-05
4.89869e-05
0.00301309
7.59077e-10
0.00301309
2.82822e-10
0.00301309
-4.15765e-11
0.00301309
-2.10625e-10
0.00301309
-2.4368e-10
0.00301309
-1.96249e-10
0.00301309
-1.6486e-10
0.00301309
-1.30741e-10
0.00301309
-9.92426e-11
0.00301309
-7.18394e-11
0.00301309
-4.88265e-11
0.00301309
-2.96854e-11
0.00301309
-1.39526e-11
0.00301309
-1.31247e-12
0.00301309
8.23862e-12
0.00301309
1.46142e-11
0.00301309
1.78258e-11
0.00301309
1.80797e-11
0.00301309
1.58815e-11
0.00301309
1.50924e-11
0.00301309
-2.71939e-11
0.00301309
6.7861e-11
0.00301309
5.77551e-10
0.00301309
1.71766e-09
0.00301309
3.62877e-09
0.00301308
6.40396e-09
0.00301307
1.00618e-08
0.00301304
1.45634e-08
0.00301292
1.9745e-08
0.00301306
2.52721e-08
0.00301235
3.00797e-08
0.00301194
3.27343e-08
0.00301108
3.06984e-08
0.00300719
2.01656e-08
0.00300137
-8.07234e-09
0.00298471
-9.29178e-08
0.00294976
-2.99751e-07
0.0028759
-9.00529e-07
0.00271028
-2.99491e-06
0.00243749
-9.90695e-06
-0.000168493
3.92091e-06
-0.000492235
0.000230907
0.000770793
9.29672e-06
-0.000142991
8.27624e-05
-0.000126229
0.000150643
0.000626881
8.53016e-05
-5.48477e-05
0.000127177
-0.000242707
0.000147632
0.000325458
0.000135588
9.54047e-05
0.00312505
8.18921e-10
0.00312505
4.68166e-10
0.00312505
1.53656e-10
0.00312504
-6.70911e-11
0.00312504
-2.43947e-10
0.00312505
-2.44618e-10
0.00312505
-2.25315e-10
0.00312505
-2.07703e-10
0.00312505
-1.87899e-10
0.00312505
-1.65437e-10
0.00312505
-1.41088e-10
0.00312505
-1.16186e-10
0.00312505
-9.24379e-11
0.00312505
-7.10926e-11
0.00312505
-5.30794e-11
0.00312505
-3.89012e-11
0.00312505
-2.86354e-11
0.00312505
-2.20677e-11
0.00312505
-1.88087e-11
0.00312505
-1.549e-11
0.00312505
-4.73345e-11
0.00312505
6.27944e-11
0.00312504
5.83793e-10
0.00312504
1.72893e-09
0.00312504
3.65916e-09
0.00312503
6.48828e-09
0.00312502
1.02687e-08
0.003125
1.50174e-08
0.00312488
2.06425e-08
0.00312501
2.68942e-08
0.00312434
3.29001e-08
0.0031239
3.75287e-08
0.00312302
3.91672e-08
0.003119
3.29502e-08
0.00311306
6.6249e-09
0.00309626
-4.87313e-08
0.00305957
-1.80057e-07
0.00298352
-5.2746e-07
0.00281357
-1.57135e-06
0.00252499
-3.14008e-06
-0.000136057
4.29719e-05
-0.000564504
0.000363622
0.000797297
2.14624e-05
-0.000138726
9.30853e-05
-0.000149363
0.00024672
0.000657768
0.000131123
-5.01308e-05
0.000181002
-0.000254223
0.000233077
0.000339367
0.000202726
0.000153466
0.00324116
7.90781e-10
0.00324116
4.69384e-10
0.00324116
1.95658e-10
0.00324116
9.08308e-12
0.00324116
-1.43717e-10
0.00324116
-1.67915e-10
0.00324116
-1.59651e-10
0.00324116
-1.48893e-10
0.00324116
-1.37649e-10
0.00324116
-1.26353e-10
0.00324116
-1.15031e-10
0.00324116
-1.03292e-10
0.00324116
-9.09266e-11
0.00324116
-7.79535e-11
0.00324116
-6.48119e-11
0.00324116
-5.22874e-11
0.00324116
-4.12334e-11
0.00324116
-3.23104e-11
0.00324116
-2.07757e-11
0.00324116
-1.8893e-11
0.00324116
-5.06639e-11
0.00324116
5.38465e-11
0.00324116
5.60986e-10
0.00324115
1.68401e-09
0.00324115
3.57273e-09
0.00324114
6.34739e-09
0.00324114
1.00723e-08
0.00324112
1.47905e-08
0.00324098
2.0436e-08
0.0032411
2.67772e-08
0.00324047
3.30454e-08
0.00324001
3.81704e-08
0.00323916
4.05199e-08
0.00323508
3.64423e-08
0.00322902
2.03148e-08
0.00321243
-1.88194e-08
0.00317526
-1.16197e-07
0.00309879
-3.43227e-07
0.00292956
-8.4962e-07
0.00262675
1.76559e-06
4.29901e-05
6.4985e-05
-0.000576839
0.000543583
0.000847673
7.04482e-05
-0.00010556
0.000125388
-0.000164531
0.000356128
0.000688659
0.00018984
-3.88455e-05
0.000235199
-0.000272038
0.000327525
0.000351394
0.00027835
0.000215857
0.00336158
7.63698e-10
0.00336158
4.83955e-10
0.00336158
2.60003e-10
0.00336158
1.20439e-10
0.00336158
-1.52435e-11
0.00336158
-4.79995e-11
0.00336158
-6.90062e-11
0.00336158
-8.28783e-11
0.00336158
-9.33688e-11
0.00336158
-1.02327e-10
0.00336158
-1.09846e-10
0.00336158
-1.14941e-10
0.00336158
-1.1639e-10
0.00336158
-1.13655e-10
0.00336158
-1.07054e-10
0.00336158
-9.7572e-11
0.00336158
-8.67027e-11
0.00336158
-6.22457e-11
0.00336158
-5.44245e-11
0.00336158
-4.95934e-11
0.00336158
-7.85618e-11
0.00336158
3.06127e-11
0.00336158
5.27347e-10
0.00336158
1.60891e-09
0.00336158
3.4278e-09
0.00336157
6.1013e-09
0.00336156
9.69846e-09
0.00336155
1.42859e-08
0.0033614
1.9825e-08
0.0033615
2.61479e-08
0.00336091
3.27292e-08
0.00336041
3.89007e-08
0.00335964
4.36706e-08
0.00335549
4.58014e-08
0.00334926
4.38557e-08
0.00333285
3.741e-08
0.003295
3.32859e-08
0.00321801
9.66746e-08
0.00304895
7.07871e-07
0.00272487
9.32865e-06
0.00019594
0.000112417
-0.000630862
0.000748807
0.000883359
0.000122561
-5.79318e-05
0.000157847
-0.000187882
0.000468506
0.000725617
0.00025854
-7.51499e-06
0.000293208
-0.000281488
0.000429245
0.000367844
0.000364426
0.000287717
0.00348648
7.31159e-10
0.00348648
4.5849e-10
0.00348648
2.58294e-10
0.00348648
1.25778e-10
0.00348648
2.23747e-11
0.00348648
-1.3157e-11
0.00348648
-3.94925e-11
0.00348648
-6.1869e-11
0.00348648
-8.19692e-11
0.00348648
-9.99596e-11
0.00348648
-1.14903e-10
0.00348648
-1.25409e-10
0.00348648
-1.30483e-10
0.00348648
-1.29989e-10
0.00348648
-1.24618e-10
0.00348648
-1.15855e-10
0.00348648
-9.05064e-11
0.00348648
-7.76869e-11
0.00348648
-7.05457e-11
0.00348648
-6.79552e-11
0.00348648
-9.7972e-11
0.00348648
5.08512e-12
0.00348648
4.79757e-10
0.00348648
1.51535e-09
0.00348648
3.25418e-09
0.00348647
5.81122e-09
0.00348646
9.25775e-09
0.00348646
1.36796e-08
0.00348629
1.90656e-08
0.00348637
2.53193e-08
0.00348583
3.21838e-08
0.00348525
3.93893e-08
0.00348459
4.68491e-08
0.00348053
5.53427e-08
0.00347419
6.8915e-08
0.00345811
1.01794e-07
0.00342038
2.03629e-07
0.00334445
5.75931e-07
0.00318099
2.2576e-06
0.00283408
1.60771e-05
0.00043605
0.000143608
-0.000659442
0.0010057
0.000926667
0.000212608
1.09848e-05
0.00019979
-0.00021548
0.000590454
0.000763441
0.000341257
5.47305e-05
0.000355206
-0.000290509
0.000536466
0.000378448
0.000461785
0.000367031
0.00361602
6.97357e-10
0.00361602
4.33735e-10
0.00361602
2.58945e-10
0.00361602
1.39896e-10
0.00361602
7.29525e-11
0.00361602
3.94355e-11
0.00361602
1.01789e-11
0.00361602
-1.87945e-11
0.00361602
-4.78666e-11
0.00361602
-7.57939e-11
0.00361602
-1.00448e-10
0.00361602
-1.19657e-10
0.00361602
-1.32024e-10
0.00361602
-1.37395e-10
0.00361602
-1.05857e-10
0.00361602
-1.19072e-10
0.00361602
-1.0173e-10
0.00361602
-9.4293e-11
0.00361602
-9.03296e-11
0.00361602
-9.12316e-11
0.00361602
-1.22353e-10
0.00361602
-2.34273e-11
0.00361602
4.31153e-10
0.00361602
1.41797e-09
0.00361602
3.07437e-09
0.00361601
5.51216e-09
0.003616
8.80502e-09
0.00361601
1.30619e-08
0.00361582
1.83169e-08
0.00361589
2.45811e-08
0.0036154
3.19369e-08
0.00361473
4.06726e-08
0.00361414
5.20607e-08
0.00361026
6.98875e-08
0.00360394
1.05041e-07
0.00358834
1.89847e-07
0.00355101
4.21806e-07
0.00347684
1.16577e-06
0.00332148
4.10015e-06
0.00296187
2.36114e-05
0.000730884
0.0001688
-0.000706802
0.00130074
0.000960407
0.000343576
0.000136891
0.000241281
-0.000231352
0.000723119
0.000803573
0.000434616
0.000113666
0.000422188
-0.000297704
0.000649942
0.000381015
0.000570866
0.000455354
0.00375038
6.57239e-10
0.00375038
4.06739e-10
0.00375038
2.4479e-10
0.00375038
1.29943e-10
0.00375038
7.49885e-11
0.00375038
4.03475e-11
0.00375038
9.52142e-12
0.00375038
-1.93825e-11
0.00375038
-4.6559e-11
0.00375038
-7.09203e-11
0.00375038
-9.07574e-11
0.00375038
-1.04423e-10
0.00375038
-1.11135e-10
0.00375038
-1.06683e-10
0.00375038
-1.05987e-10
0.00375038
-7.53659e-11
0.00375038
-8.03577e-11
0.00375038
-6.41402e-11
0.00375038
-5.80979e-11
0.00375038
-5.67315e-11
0.00375038
-8.20748e-11
0.00375038
1.60855e-11
0.00375037
4.49726e-10
0.00375037
1.38441e-09
0.00375037
2.95216e-09
0.00375036
5.26223e-09
0.00375035
8.39295e-09
0.00375037
1.24813e-08
0.00375018
1.76215e-08
0.00375021
2.39552e-08
0.0037498
3.19716e-08
0.00374903
4.26662e-08
0.0037485
5.89124e-08
0.00374482
8.81991e-08
0.00373862
1.49669e-07
0.00372379
2.95248e-07
0.00368746
6.75327e-07
0.0036158
1.82272e-06
0.00346985
6.02637e-06
0.00310572
3.04659e-05
0.00127405
0.000183193
-0.000766025
0.00159358
0.000987025
0.000557164
0.000263412
0.000293853
-0.000246332
0.000858814
0.000844188
0.000541564
0.000167708
0.000494931
-0.000300182
0.000770236
0.000375862
0.00069373
0.000554297
0.00388972
6.15763e-10
0.00388972
3.77951e-10
0.00388972
2.31227e-10
0.00388972
1.19696e-10
0.00388972
8.09411e-11
0.00388972
4.14496e-11
0.00388972
8.34213e-12
0.00388972
-2.14024e-11
0.00388972
-4.75163e-11
0.00388972
-6.90397e-11
0.00388972
-8.47908e-11
0.00388972
-9.3809e-11
0.00388972
-9.59871e-11
0.00388972
-9.21834e-11
0.00388972
-8.40342e-11
0.00388972
-6.01433e-11
0.00388972
-6.30157e-11
0.00388972
-4.7475e-11
0.00388972
-3.96191e-11
0.00388972
-3.87045e-11
0.00388972
-6.34839e-11
0.00388972
2.96988e-11
0.00388972
4.33496e-10
0.00388972
1.32108e-09
0.00388972
2.80024e-09
0.00388971
4.98282e-09
0.0038897
7.96142e-09
0.00388973
1.18794e-08
0.00388953
1.69197e-08
0.00388954
2.33811e-08
0.0038892
3.22047e-08
0.00388835
4.52291e-08
0.00388786
6.71397e-08
0.00388443
1.09589e-07
0.00387838
2.01172e-07
0.00386445
4.15827e-07
0.00382972
9.59874e-07
0.00376141
2.53135e-06
0.00362478
7.988e-06
0.00326164
3.65573e-05
0.00180513
0.000192702
-0.000781049
0.00185751
0.000999612
0.00086198
0.000335442
0.000357659
-0.000262862
0.000989434
0.000880786
0.000678204
0.000237754
0.000572376
-0.000307079
0.000899297
0.00036214
0.000831181
0.000662894
0.00403424
5.69541e-10
0.00403424
3.51322e-10
0.00403424
2.11355e-10
0.00403424
1.11718e-10
0.00403424
7.02829e-11
0.00403424
4.38738e-11
0.00403424
1.6208e-11
0.00403424
-7.17482e-12
0.00403424
-2.59939e-11
0.00403424
-3.98858e-11
0.00403424
-4.83295e-11
0.00403424
-5.08795e-11
0.00403424
-4.77045e-11
0.00403424
-3.96953e-11
0.00403424
-2.83258e-11
0.00403424
-1.55638e-11
0.00403424
-3.38003e-12
0.00403424
6.52832e-12
0.00403424
1.41876e-11
0.00403424
2.13851e-11
0.00403424
-1.78338e-12
0.00403424
1.04965e-10
0.00403424
4.93219e-10
0.00403424
1.32051e-09
0.00403424
2.70583e-09
0.00403423
4.7614e-09
0.00403421
7.59962e-09
0.00403426
1.13821e-08
0.00403407
1.62705e-08
0.00403404
2.28438e-08
0.00403378
3.25616e-08
0.00403288
4.81161e-08
0.0040324
7.60263e-08
0.00402928
1.3227e-07
0.00402349
2.55155e-07
0.00401049
5.41021e-07
0.00397781
1.25119e-06
0.00391372
3.23403e-06
0.00378608
9.8304e-06
0.00343303
4.13741e-05
0.00232729
0.000199275
-0.000697851
0.00204309
0.00102937
0.00128922
0.000439122
0.000441094
-0.000275181
0.00110041
0.000915305
0.000851703
0.000327347
0.000656381
-0.000322789
0.00103636
0.000343367
0.000986688
0.000782505
0.00418414
5.21388e-10
0.00418414
3.23525e-10
0.00418414
1.91063e-10
0.00418414
1.03602e-10
0.00418414
6.05335e-11
0.00418414
4.64573e-11
0.00418414
2.45377e-11
0.00418414
8.77319e-12
0.00418414
-1.67123e-12
0.00418414
-7.11104e-12
0.00418414
-7.69355e-12
0.00418414
-3.44424e-12
0.00418414
5.28056e-12
0.00418414
1.76049e-11
0.00418414
3.20873e-11
0.00418414
5.13653e-11
0.00418414
7.98935e-11
0.00418414
9.5297e-11
0.00418414
1.01371e-10
0.00418414
9.96608e-11
0.00418414
7.43644e-11
0.00418414
1.5899e-10
0.00418414
5.17659e-10
0.00418413
1.29802e-09
0.00418413
2.59256e-09
0.00418413
4.52328e-09
0.0041841
7.21493e-09
0.00418415
1.08467e-08
0.00418399
1.56688e-08
0.00418394
2.23278e-08
0.00418375
3.27801e-08
0.00418282
5.06838e-08
0.00418231
8.42886e-08
0.00417958
1.53184e-07
0.00417423
3.03837e-07
0.00416227
6.51014e-07
0.00413214
1.49894e-06
0.00407328
3.79816e-06
0.00395449
1.1159e-05
0.00362483
4.3539e-05
0.00283177
0.000200715
-0.000476007
0.00204424
0.00116903
0.00190501
0.000567397
0.000545288
-0.000252134
0.00116873
0.0009461
0.00108824
0.000431063
0.000751423
-0.000322024
0.00117397
0.000302466
0.00116336
0.000912959
0.0043396
4.72092e-10
0.0043396
2.94273e-10
0.0043396
1.70047e-10
0.0043396
9.4695e-11
0.0043396
4.97472e-11
0.0043396
4.59539e-11
0.0043396
3.24736e-11
0.0043396
2.43199e-11
0.0043396
2.0532e-11
0.0043396
2.05349e-11
0.0043396
2.42261e-11
0.0043396
3.17478e-11
0.0043396
4.29195e-11
0.0043396
5.70102e-11
0.0043396
8.59485e-11
0.0043396
1.16315e-10
0.0043396
1.36723e-10
0.0043396
1.49108e-10
0.0043396
1.54336e-10
0.0043396
1.53366e-10
0.0043396
1.35284e-10
0.0043396
2.23843e-10
0.0043396
5.61346e-10
0.0043396
1.27435e-09
0.0043396
2.46873e-09
0.0043396
4.2607e-09
0.00433957
6.77995e-09
0.0043396
1.02238e-08
0.00433947
1.49598e-08
0.00433941
2.17703e-08
0.00433932
3.29682e-08
0.0043384
5.29572e-08
0.00433778
9.1705e-08
0.00433546
1.72237e-07
0.00433077
3.47613e-07
0.00432005
7.45278e-07
0.00429328
1.69304e-06
0.00424122
4.1689e-06
0.00413323
1.17128e-05
0.00384553
4.19409e-05
0.00329883
0.000190208
-9.31782e-05
0.00172918
0.00118446
0.00274362
0.000706834
0.000711996
-0.000196994
0.00119575
0.00103002
0.00142059
0.000541397
0.000862641
-0.000291149
0.00129579
0.000225484
0.00136386
0.00105574
0.00450084
4.21246e-10
0.00450084
2.62994e-10
0.00450084
1.49614e-10
0.00450084
8.44703e-11
0.00450084
4.0706e-11
0.00450084
4.33918e-11
0.00450084
3.79713e-11
0.00450084
3.83809e-11
0.00450084
4.20718e-11
0.00450084
4.82779e-11
0.00450084
5.69374e-11
0.00450084
6.83074e-11
0.00450084
8.2357e-11
0.00450084
1.21871e-10
0.00450084
1.52231e-10
0.00450084
1.75295e-10
0.00450084
1.91739e-10
0.00450084
2.01548e-10
0.00450084
2.04754e-10
0.00450084
2.01671e-10
0.00450084
1.82573e-10
0.00450084
2.56771e-10
0.00450084
5.6803e-10
0.00450083
1.22021e-09
0.00450083
2.30789e-09
0.00450084
3.94445e-09
0.0045008
6.26356e-09
0.00450083
9.47807e-09
0.00450073
1.40449e-08
0.00450066
2.08808e-08
0.00450064
3.26114e-08
0.00449983
5.42867e-08
0.00449907
9.72078e-08
0.00449708
1.87305e-07
0.00449301
3.83949e-07
0.00448345
8.26825e-07
0.00446017
1.86413e-06
0.00441589
4.48302e-06
0.00432359
1.20382e-05
0.00410023
3.91943e-05
0.00374602
0.000168299
0.000887181
0.00116662
0.00129068
0.00385494
0.000837735
0.00113727
5.3599e-05
0.00125112
0.00117979
0.00184348
0.000635554
0.0010054
-0.000207569
0.00139197
0.000117367
0.00159467
0.00121798
0.00466806
3.68977e-10
0.00466806
2.29414e-10
0.00466806
1.30276e-10
0.00466806
7.19792e-11
0.00466806
3.46655e-11
0.00466806
3.40824e-11
0.00466806
3.55967e-11
0.00466806
3.97375e-11
0.00466806
4.63853e-11
0.00466806
5.49321e-11
0.00466806
6.52797e-11
0.00466807
7.76311e-11
0.00466807
1.05874e-10
0.00466807
1.38708e-10
0.00466807
1.64477e-10
0.00466807
1.84561e-10
0.00466807
1.99086e-10
0.00466807
2.07924e-10
0.00466807
2.11115e-10
0.00466807
2.09114e-10
0.00466807
1.95293e-10
0.00466807
2.6917e-10
0.00466807
5.46849e-10
0.00466806
1.12694e-09
0.00466806
2.09747e-09
0.00466807
3.56459e-09
0.00466804
5.66353e-09
0.00466805
8.62015e-09
0.00466798
1.29777e-08
0.0046679
1.97833e-08
0.00466793
3.14585e-08
0.0046673
5.35571e-08
0.00466643
9.81074e-08
0.00466473
1.92265e-07
0.00466136
3.97958e-07
0.00465286
8.59587e-07
0.00463231
1.93065e-06
0.00459315
4.57713e-06
0.00450953
1.19168e-05
0.00433674
3.65411e-05
0.00411896
0.00015249
0.00222721
0.000793973
0.00138642
0.00522651
0.000960269
0.00174593
0.000436295
0.00143846
0.00125231
0.00230225
0.000688582
0.00122332
-4.0726e-05
0.00148928
1.93436e-05
0.00183987
0.00141668
0.00484151
3.14533e-10
0.00484151
1.94363e-10
0.00484151
1.1075e-10
0.00484151
5.94654e-11
0.00484151
2.95474e-11
0.00484151
2.58862e-11
0.00484151
3.47236e-11
0.00484151
4.22277e-11
0.00484151
5.16269e-11
0.00484151
6.22689e-11
0.00484151
7.40545e-11
0.00484151
9.38617e-11
0.00484151
1.27267e-10
0.00484151
1.53453e-10
0.00484151
1.74627e-10
0.00484151
1.91204e-10
0.00484151
2.03073e-10
0.00484151
2.10025e-10
0.00484151
2.12012e-10
0.00484151
2.09273e-10
0.00484151
1.96591e-10
0.00484151
2.58986e-10
0.00484151
5.03464e-10
0.00484151
1.00935e-09
0.0048415
1.85623e-09
0.00484151
3.1455e-09
0.00484148
5.01634e-09
0.00484149
7.70627e-09
0.00484146
1.18288e-08
0.00484132
1.84636e-08
0.00484139
3.00395e-08
0.00484105
5.20014e-08
0.00484016
9.61716e-08
0.00483868
1.88907e-07
0.00483613
3.89948e-07
0.00482909
8.3737e-07
0.00481196
1.86342e-06
0.00477856
4.34349e-06
0.00470522
1.09418e-05
0.00456405
3.17647e-05
0.00423404
0.000124054
0.00313162
0.000579247
0.00154923
0.00537212
0.00133442
0.00258247
0.000886399
0.00173583
0.00130226
0.00242275
0.000713222
0.00165133
0.000137305
0.00163263
-4.13548e-05
0.00207188
0.00168093
0.00502139
2.57821e-10
0.00502139
1.57924e-10
0.00502139
9.09628e-11
0.00502139
4.71426e-11
0.00502139
2.49895e-11
0.00502139
1.94027e-11
0.00502139
3.21176e-11
0.00502139
4.26634e-11
0.00502139
5.30911e-11
0.00502139
6.41193e-11
0.00502139
7.5373e-11
0.00502139
1.03626e-10
0.00502139
1.28341e-10
0.00502139
1.48451e-10
0.00502139
1.64993e-10
0.00502139
1.7809e-10
0.00502139
1.87552e-10
0.00502139
1.93145e-10
0.00502139
1.94802e-10
0.00502139
1.92754e-10
0.00502139
1.83721e-10
0.00502139
2.39522e-10
0.00502139
4.43399e-10
0.00502139
8.6671e-10
0.00502139
1.57998e-09
0.0050214
2.67167e-09
0.00502138
4.26677e-09
0.00502137
6.62181e-09
0.00502139
1.03324e-08
0.00502121
1.65371e-08
0.0050212
2.76699e-08
0.00502112
4.90714e-08
0.00502036
9.23629e-08
0.00501907
1.8276e-07
0.00501727
3.75784e-07
0.00501221
7.95959e-07
0.00499967
1.73237e-06
0.00497462
3.90895e-06
0.00491941
9.37404e-06
0.00480666
2.52196e-05
0.00452073
8.52835e-05
0.00389025
0.000384156
0.00188359
0.00259259
0.00171882
0.0038046
0.00145565
0.00225356
0.00145519
0.0025559
0.000817653
0.00218364
0.000315116
0.00192614
-5.27418e-05
0.00226447
0.00202197
0.00520796
1.98345e-10
0.00520796
1.2086e-10
0.00520796
7.03187e-11
0.00520796
3.73454e-11
0.00520796
2.13227e-11
0.00520796
1.80112e-11
0.00520796
3.06536e-11
0.00520796
4.5357e-11
0.00520796
5.87253e-11
0.00520796
7.18751e-11
0.00520796
1.00472e-10
0.00520796
1.21118e-10
0.00520796
1.3619e-10
0.00520796
1.47938e-10
0.00520796
1.57005e-10
0.00520796
1.63693e-10
0.00520796
1.68151e-10
0.00520796
1.70409e-10
0.00520796
1.70382e-10
0.00520796
1.67879e-10
0.00520796
1.60513e-10
0.00520796
2.04425e-10
0.00520796
3.66706e-10
0.00520796
7.01142e-10
0.00520796
1.26343e-09
0.00520797
2.12621e-09
0.00520795
3.4105e-09
0.00520795
5.34149e-09
0.00520797
8.40056e-09
0.00520786
1.36469e-08
0.00520773
2.33428e-08
0.00520769
4.24054e-08
0.00520722
8.16873e-08
0.00520596
1.64886e-07
0.00520421
3.43901e-07
0.00520037
7.33812e-07
0.00519074
1.59557e-06
0.00517196
3.5552e-06
0.00513351
8.25398e-06
0.00505785
2.07862e-05
0.00489574
6.16652e-05
0.00478538
0.000242009
0.00371359
0.00121767
0.00242799
0.00538566
0.00201169
0.00315385
0.00182123
0.00293163
0.00111001
0.00273242
0.000530425
0.00241112
-6.84175e-06
0.00246938
0.00246246
0.00540147
1.35862e-10
0.00540147
8.32333e-11
0.00540147
4.90361e-11
0.00540147
2.8509e-11
0.00540147
1.80909e-11
0.00540147
1.80771e-11
0.00540147
2.84284e-11
0.00540147
4.40855e-11
0.00540147
6.05305e-11
0.00540147
9.19311e-11
0.00540147
1.13121e-10
0.00540147
1.27111e-10
0.00540147
1.36005e-10
0.00540147
1.41968e-10
0.00540147
1.45612e-10
0.00540147
1.47511e-10
0.00540147
1.48164e-10
0.00540147
1.4789e-10
0.00540147
1.46557e-10
0.00540147
1.43814e-10
0.00540147
1.36988e-10
0.00540147
1.68981e-10
0.00540147
2.85592e-10
0.00540147
5.22756e-10
0.00540146
9.23662e-10
0.00540147
1.54661e-09
0.00540146
2.50189e-09
0.00540145
3.98007e-09
0.00540146
6.38004e-09
0.00540143
1.05518e-08
0.00540133
1.83043e-08
0.00540119
3.35233e-08
0.00540098
6.47672e-08
0.00540014
1.31019e-07
0.00539837
2.74239e-07
0.00539503
5.883e-07
0.00538705
1.28785e-06
0.00536985
2.88198e-06
0.00533444
6.66556e-06
0.00526244
1.64231e-05
0.00513734
4.61515e-05
0.00496633
0.000171635
0.00446385
0.00078936
0.00329034
0.00573159
0.00278501
0.00421333
0.00206799
0.00341086
0.00156276
0.00310013
0.00092779
0.00304453
0.000272973
0.00283933
0.0031789
0.00560216
7.09885e-11
0.00560216
4.71822e-11
0.00560216
3.34936e-11
0.00560216
2.67222e-11
0.00560216
2.4561e-11
0.00560216
2.70239e-11
0.00560216
3.44053e-11
0.00560216
5.20754e-11
0.00560216
7.15069e-11
0.00560216
8.57426e-11
0.00560216
9.70391e-11
0.00560216
1.06388e-10
0.00560216
1.14125e-10
0.00560216
1.20248e-10
0.00560216
1.24866e-10
0.00560216
1.2831e-10
0.00560216
1.30573e-10
0.00560216
1.31561e-10
0.00560216
1.30819e-10
0.00560216
1.29518e-10
0.00560216
1.24875e-10
0.00560216
1.42139e-10
0.00560216
2.0602e-10
0.00560216
3.41317e-10
0.00560216
5.74156e-10
0.00560216
9.48078e-10
0.00560215
1.54756e-09
0.00560215
2.53236e-09
0.00560215
4.23704e-09
0.00560212
7.37924e-09
0.00560208
1.34882e-08
0.00560198
2.58463e-08
0.00560176
5.15105e-08
0.00560136
1.0568e-07
0.00560039
2.21238e-07
0.00559816
4.7001e-07
0.00559343
1.01137e-06
0.00558277
2.20832e-06
0.00555836
4.9373e-06
0.00550272
1.15678e-05
0.0053835
2.99141e-05
0.00516044
9.47361e-05
0.00465527
0.000414686
0.00451415
0.00248308
0.00373443
0.00542984
0.00282662
0.00424605
0.00222892
0.00369571
0.00156552
0.0036266
0.000804184
0.00352223
0.00435929
0.00581031
6.98363e-12
0.00581031
6.90127e-12
0.00581031
1.26869e-11
0.00581031
2.17208e-11
0.00581031
3.01983e-11
0.00581031
3.81053e-11
0.00581031
4.59371e-11
0.00581031
5.34794e-11
0.00581031
6.0147e-11
0.00581031
6.66298e-11
0.00581031
7.3798e-11
0.00581031
8.23334e-11
0.00581031
9.17022e-11
0.00581031
1.00473e-10
0.00581031
1.08138e-10
0.00581031
1.14627e-10
0.00581031
1.19639e-10
0.00581031
1.22806e-10
0.00581031
1.24157e-10
0.00581031
1.23228e-10
0.00581031
1.22137e-10
0.00581031
1.25557e-10
0.00581031
1.47023e-10
0.00581031
1.97407e-10
0.00581031
2.93775e-10
0.00581031
4.65439e-10
0.00581031
7.70944e-10
0.0058103
1.33067e-09
0.0058103
2.3995e-09
0.00581028
4.52303e-09
0.00581025
8.87531e-09
0.00581018
1.79924e-08
0.00581002
3.73636e-08
0.00580966
7.88829e-08
0.00580892
1.68383e-07
0.00580735
3.61993e-07
0.00580396
7.82544e-07
0.00579673
1.70315e-06
0.00578132
3.75188e-06
0.00574881
8.48297e-06
0.00568253
2.03625e-05
0.00556417
5.59639e-05
0.00545354
0.000205796
0.00602073
0.00103733
0.00451472
0.0056416
0.00402904
0.00476324
0.00330425
0.00452216
0.00246272
0.00450482
0.00164631
0.00431565
0.00618477
0.00840003
1.07641e-12
0.00840003
3.82116e-12
0.00840003
7.65029e-12
0.00840003
1.1635e-11
0.00840003
1.55613e-11
0.00840003
1.94779e-11
0.00840003
2.35254e-11
0.00840003
2.79314e-11
0.00840003
3.29679e-11
0.00840003
3.88757e-11
0.00840003
4.57055e-11
0.00840003
5.34939e-11
0.00840003
6.21033e-11
0.00840003
7.0914e-11
0.00840003
7.92923e-11
0.00840003
8.67303e-11
0.00840003
9.28233e-11
0.00840003
9.74039e-11
0.00840003
1.00527e-10
0.00840003
1.02718e-10
0.00840003
1.04486e-10
0.00840003
1.07105e-10
0.00840003
1.13307e-10
0.00840003
1.27582e-10
0.00840003
1.58563e-10
0.00840003
2.2363e-10
0.00840003
3.58579e-10
0.00840003
6.39097e-10
0.00840002
1.22617e-09
0.00840001
2.46346e-09
0.00839999
5.0872e-09
0.00839993
1.06791e-08
0.00839981
2.2644e-08
0.00839954
4.83241e-08
0.00839896
1.03576e-07
0.0083977
2.22694e-07
0.00839501
4.80096e-07
0.00838927
1.03859e-06
0.00837705
2.26091e-06
0.00835132
4.98872e-06
0.00829831
1.13543e-05
0.00819634
2.77734e-05
0.00806976
7.95843e-05
0.00802613
0.000311109
0.00970432
0.00167086
0.00833052
0.00584239
0.00783282
0.00501503
0.00746894
0.00491465
0.00717803
0.00470216
0.00401158
0.00929647
0.00840003
1.08341e-13
0.00840003
3.94528e-13
0.00840003
9.1923e-13
0.00840003
1.7947e-12
0.00840003
3.11767e-12
0.00840003
5.01376e-12
0.00840003
7.61093e-12
0.00840003
1.09162e-11
0.00840003
1.487e-11
0.00840003
1.94999e-11
0.00840003
2.48023e-11
0.00840003
3.06327e-11
0.00840003
3.68791e-11
0.00840003
4.35553e-11
0.00840003
5.03771e-11
0.00840003
5.6618e-11
0.00840003
6.21882e-11
0.00840003
6.68754e-11
0.00840003
7.07098e-11
0.00840003
7.3453e-11
0.00840003
7.55518e-11
0.00840003
7.78234e-11
0.00840003
8.11672e-11
0.00840003
8.75905e-11
0.00840003
1.01206e-10
0.00840003
1.31036e-10
0.00840003
1.96062e-10
0.00840003
3.36522e-10
0.00840003
6.3843e-10
0.00840002
1.28602e-09
0.00840001
2.67435e-09
0.00839999
5.65138e-09
0.00839993
1.20387e-08
0.00839982
2.57529e-08
0.00839958
5.52252e-08
0.00839904
1.18631e-07
0.00839786
2.55236e-07
0.00839531
5.50175e-07
0.00838981
1.18938e-06
0.00837805
2.58573e-06
0.00835312
5.69371e-06
0.00830132
1.29349e-05
0.008205
3.17066e-05
0.0081297
9.18863e-05
0.00864461
0.000377442
0.0104582
0.00175314
0.0102636
0.00477724
0.0106589
0.00410427
0.0108401
0.00440443
0.00404193
0.0108918
0.00840003
1.49065e-14
0.00840003
8.81924e-14
0.00840003
2.73536e-13
0.00840003
6.3176e-13
0.00840003
1.2083e-12
0.00840003
2.04864e-12
0.00840003
3.20405e-12
0.00840003
4.70661e-12
0.00840003
6.57569e-12
0.00840003
8.85659e-12
0.00840003
1.15989e-11
0.00840003
1.48034e-11
0.00840003
1.84162e-11
0.00840003
2.23744e-11
0.00840003
2.65911e-11
0.00840003
3.08328e-11
0.00840003
3.47342e-11
0.00840003
3.82303e-11
0.00840003
4.12206e-11
0.00840003
4.36649e-11
0.00840003
4.53921e-11
0.00840003
4.67184e-11
0.00840003
4.82646e-11
0.00840003
5.0839e-11
0.00840003
5.61456e-11
0.00840003
6.77605e-11
0.00840003
9.328e-11
0.00840003
1.48918e-10
0.00840003
2.69461e-10
0.00840003
5.2975e-10
0.00840002
1.09097e-09
0.00840002
2.30035e-09
0.0084
4.90618e-09
0.00839996
1.05215e-08
0.00839988
2.26253e-08
0.00839971
4.87275e-08
0.00839933
1.05061e-07
0.00839848
2.26796e-07
0.00839659
4.90443e-07
0.00839236
1.06377e-06
0.00838297
2.32067e-06
0.00836258
5.12526e-06
0.00832066
1.16455e-05
0.00825208
2.83341e-05
0.00829316
8.02808e-05
0.00944055
0.000294226
0.0117917
0.00113308
0.0113968
0.00239482
0.0121618
0.00298956
0.00320565
0.0128465
0.00840003
1.9953e-15
0.00840003
1.18972e-14
0.00840003
3.70702e-14
0.00840003
9.1124e-14
0.00840003
1.9825e-13
0.00840003
3.87001e-13
0.00840003
6.92853e-13
0.00840003
1.15893e-12
0.00840003
1.81767e-12
0.00840003
2.70269e-12
0.00840003
3.85865e-12
0.00840003
5.30868e-12
0.00840003
7.01705e-12
0.00840003
8.96149e-12
0.00840003
1.11436e-11
0.00840003
1.34496e-11
0.00840003
1.56634e-11
0.00840003
1.77191e-11
0.00840003
1.95716e-11
0.00840003
2.11203e-11
0.00840003
2.23244e-11
0.00840003
2.31244e-11
0.00840003
2.37365e-11
0.00840003
2.4498e-11
0.00840003
2.59135e-11
0.00840003
2.90246e-11
0.00840003
3.60149e-11
0.00840003
5.15316e-11
0.00840003
8.55581e-11
0.00840003
1.59689e-10
0.00840003
3.20779e-10
0.00840003
6.70602e-10
0.00840002
1.43031e-09
0.00840001
3.08057e-09
0.00839999
6.66625e-09
0.00839995
1.44588e-08
0.00839985
3.13972e-08
0.00839965
6.82272e-08
0.00839922
1.48358e-07
0.00839831
3.22933e-07
0.00839636
7.04318e-07
0.00839221
1.54239e-06
0.00838372
3.40786e-06
0.00836841
7.68508e-06
0.00835399
1.82367e-05
0.00845104
4.82937e-05
0.00917088
0.000149224
0.0108185
0.000398914
0.0126434
0.000751642
0.00142874
0.0133111
0.00840003
5.19041e-16
0.00840003
3.25729e-15
0.00840003
1.01871e-14
0.00840003
2.51467e-14
0.00840003
5.52696e-14
0.00840003
1.11976e-13
0.00840003
2.0972e-13
0.00840003
3.65168e-13
0.00840003
5.9408e-13
0.00840003
9.13118e-13
0.00840003
1.34221e-12
0.00840003
1.89472e-12
0.00840003
2.57021e-12
0.00840003
3.36166e-12
0.00840003
4.26578e-12
0.00840003
5.25047e-12
0.00840003
6.24615e-12
0.00840003
7.186e-12
0.00840003
8.0452e-12
0.00840003
8.78923e-12
0.00840003
9.37796e-12
0.00840003
9.79553e-12
0.00840003
1.00552e-11
0.00840003
1.02634e-11
0.00840003
1.05609e-11
0.00840003
1.11727e-11
0.00840003
1.25562e-11
0.00840003
1.56838e-11
0.00840003
2.26382e-11
0.00840003
3.79048e-11
0.00840003
7.11997e-11
0.00840003
1.43643e-10
0.00840003
3.01216e-10
0.00840003
6.44107e-10
0.00840003
1.39077e-09
0.00840003
3.01772e-09
0.00840003
6.56462e-09
0.00840003
1.43003e-08
0.00840002
3.11772e-08
0.0084
6.80139e-08
0.00839996
1.48481e-07
0.00839988
3.24562e-07
0.00839971
7.11289e-07
0.00839954
1.56753e-06
0.00840052
3.49698e-06
0.00841073
8.02344e-06
0.00848188
1.93911e-05
0.00876376
4.94003e-05
0.00926248
0.000115735
0.000235704
0.0101435
0.00840003
9.72055e-17
0.00840003
6.05151e-16
0.00840003
1.84927e-15
0.00840003
4.43571e-15
0.00840003
9.64905e-15
0.00840003
1.96983e-14
0.00840003
3.85574e-14
0.00840003
7.15809e-14
0.00840003
1.25589e-13
0.00840003
2.07699e-13
0.00840003
3.27284e-13
0.00840003
4.91132e-13
0.00840003
7.04494e-13
0.00840003
9.67573e-13
0.00840003
1.27793e-12
0.00840003
1.63008e-12
0.00840003
2.00189e-12
0.00840003
2.36361e-12
0.00840003
2.70143e-12
0.00840003
3.0024e-12
0.00840003
3.24851e-12
0.00840003
3.42967e-12