/*--------------------------------*- C++ -*----------------------------------*\
| =========                 |                                                 |
| \\      /  F ield         | OpenFOAM: The Open Source CFD Toolbox           |
|  \\    /   O peration     | Version:  2112                                  |
|   \\  /    A nd           | Website:  www.openfoam.com                      |
|    \\/     M anipulation  |                                                 |
\*---------------------------------------------------------------------------*/
FoamFile
{
    version     2.0;
    format      ascii;
    arch        "LSB;label=32;scalar=64";
    class       volVectorField;
    location    "0.1";
    object      U;
}
// * * * * * * * * * * * * * * * * * * * * * * * * * * * * * * * * * * * * * //

dimensions      [0 1 -1 0 0 0 0];

internalField   nonuniform List<vector> 
7000
(
(3 -1.55695e-07 0.000130532)
(3 -3.30351e-07 0.000124287)
(3 -4.4141e-07 0.000118046)
(3 -4.6969e-07 0.000111811)
(3 -4.26602e-07 0.000105581)
(3 -3.6944e-07 9.93564e-05)
(3 -3.10536e-07 9.31378e-05)
(3 -2.55562e-07 8.69254e-05)
(3 -2.07213e-07 8.07194e-05)
(3 -1.66274e-07 7.45199e-05)
(3 -1.32115e-07 6.83272e-05)
(3 -1.03364e-07 6.21415e-05)
(3 -7.86919e-08 5.59631e-05)
(3 -5.72285e-08 4.97921e-05)
(3 -3.86316e-08 4.36288e-05)
(3 -2.2921e-08 3.74735e-05)
(3 -1.02379e-08 3.13263e-05)
(3 -5.60744e-10 2.51877e-05)
(3 6.5187e-09 1.90577e-05)
(3 1.16997e-08 1.29366e-05)
(3 -9.43728e-09 6.82932e-06)
(3 -1.75547e-08 7.36887e-07)
(2.99999 6.01641e-08 -5.3448e-06)
(2.99999 2.90272e-07 -1.1416e-05)
(2.99998 7.22399e-07 -1.74756e-05)
(2.99998 1.38642e-06 -2.35202e-05)
(2.99997 2.28071e-06 -2.95444e-05)
(2.99995 3.36833e-06 -3.55316e-05)
(2.99993 4.54296e-06 -4.14583e-05)
(2.99988 5.56791e-06 -4.72459e-05)
(2.99979 5.88534e-06 -5.27451e-05)
(2.9996 4.5001e-06 -5.76711e-05)
(2.99917 -6.38428e-07 -6.11832e-05)
(2.9982 -1.42495e-05 -6.17586e-05)
(2.99595 -4.65169e-05 -5.54937e-05)
(2.99057 -0.000120982 -3.2777e-05)
(2.97673 -0.000302265 3.43163e-05)
(2.93613 -0.000807941 0.000240927)
(2.78763 -0.00253886 0.000973588)
(2.1912 -0.00843217 0.00354042)
(0.38451 -0.0148157 0.00421075)
(-0.452466 -0.00133872 1.40555e-07)
(0.127957 -0.00700326 -0.00189885)
(0.249611 0.00219707 0.000214389)
(-0.281915 -0.00103006 -0.000531974)
(0.182673 0.0016077 -0.00113152)
(0.130139 0.00583328 -0.00034904)
(-0.13642 0.00331894 -0.000512431)
(0.000590934 0.00661833 -0.000735447)
(0.150725 0.00435763 -0.000601224)
(3 -2.08509e-07 0.000126059)
(3 -4.14063e-07 0.000120018)
(3 -5.22575e-07 0.000113983)
(3 -5.3813e-07 0.000107954)
(3 -4.61534e-07 0.000101931)
(3 -3.81181e-07 9.59143e-05)
(3 -3.18005e-07 8.99041e-05)
(3 -2.57487e-07 8.39009e-05)
(3 -2.0297e-07 7.79047e-05)
(3 -1.55977e-07 7.19158e-05)
(3 -1.16363e-07 6.59344e-05)
(3 -8.29277e-08 5.99607e-05)
(3 -5.43876e-08 5.39949e-05)
(3 -2.98297e-08 4.80372e-05)
(3 -8.87967e-09 4.20879e-05)
(3 8.45316e-09 3.61472e-05)
(3 2.20124e-08 3.02153e-05)
(3 3.17205e-08 2.42924e-05)
(3 3.78219e-08 1.83789e-05)
(3 4.09156e-08 1.24749e-05)
(3 1.80594e-08 6.58479e-06)
(3 7.69638e-08 7.09581e-07)
(2.99999 3.65235e-07 -5.15441e-06)
(2.99999 1.01472e-06 -1.10073e-05)
(2.99998 2.12879e-06 -1.68481e-05)
(2.99998 3.7806e-06 -2.26735e-05)
(2.99997 6.00151e-06 -2.84784e-05)
(2.99995 8.78839e-06 -3.42474e-05)
(2.99993 1.207e-05 -3.99581e-05)
(2.99988 1.56827e-05 -4.55352e-05)
(2.9998 1.90973e-05 -5.08373e-05)
(2.99961 2.16935e-05 -5.56034e-05)
(2.99919 2.2318e-05 -5.90378e-05)
(2.99823 1.77835e-05 -5.96993e-05)
(2.99604 1.79308e-06 -5.39369e-05)
(2.99078 -3.86607e-05 -3.27476e-05)
(2.9773 -0.000138595 2.98581e-05)
(2.93799 -0.000416695 0.00022195)
(2.79507 -0.00129834 0.000904365)
(2.22568 -0.00352204 0.00325336)
(0.417312 0.0027539 0.00422118)
(-0.445171 0.0278992 5.61152e-05)
(0.104965 0.0046591 -0.00183563)
(0.253691 0.0208146 0.00019365)
(-0.287458 0.0224234 -0.00050271)
(0.175838 0.0167631 -0.00108816)
(0.129285 0.0240629 -0.000338281)
(-0.138337 0.0200318 -0.000491071)
(-0.00429617 0.0208185 -0.000707002)
(0.152714 0.0136153 -0.000578176)
(3 -1.20893e-07 0.000121405)
(3 -2.15831e-07 0.000115577)
(3 -2.96205e-07 0.000109757)
(3 -3.46306e-07 0.000103943)
(3 -3.81165e-07 9.81354e-05)
(3 -3.50417e-07 9.23352e-05)
(3 -3.20151e-07 8.65423e-05)
(3 -2.90043e-07 8.0757e-05)
(3 -2.59456e-07 7.49794e-05)
(3 -2.28353e-07 6.92098e-05)
(3 -1.97348e-07 6.34484e-05)
(3 -1.67366e-07 5.76952e-05)
(3 -1.39465e-07 5.19506e-05)
(3 -1.1443e-07 4.62148e-05)
(3 -9.28041e-08 4.04879e-05)
(3 -7.48323e-08 3.47702e-05)
(3 -6.0507e-08 2.9062e-05)
(3 -4.97003e-08 2.33634e-05)
(3 -4.22532e-08 1.76746e-05)
(3 -3.78153e-08 1.19959e-05)
(3 -5.79606e-08 6.33116e-06)
(3 5.81335e-09 6.81345e-07)
(3 2.99245e-07 -4.95683e-06)
(2.99999 9.56383e-07 -1.05834e-05)
(2.99999 2.08816e-06 -1.61974e-05)
(2.99998 3.78173e-06 -2.17956e-05)
(2.99997 6.08796e-06 -2.73733e-05)
(2.99996 9.02867e-06 -3.29158e-05)
(2.99993 1.25505e-05 -3.84018e-05)
(2.99989 1.64772e-05 -4.37585e-05)
(2.9998 2.01552e-05 -4.88486e-05)
(2.99961 2.27008e-05 -5.34315e-05)
(2.9992 2.25028e-05 -5.67489e-05)
(2.99825 1.5257e-05 -5.74183e-05)
(2.99607 -8.07764e-06 -5.1983e-05)
(2.99086 -6.63848e-05 -3.18955e-05)
(2.97751 -0.000207582 2.74268e-05)
(2.93872 -0.000579245 0.000209006)
(2.7983 -0.00168398 0.000853865)
(2.24078 -0.00420375 0.00305496)
(0.43913 0.00121098 0.00409163)
(-0.450129 0.0327345 8.40125e-05)
(0.0853517 -0.00160642 -0.00175493)
(0.261645 0.0143454 0.000174539)
(-0.290889 0.0294586 -0.000470591)
(0.169975 0.0199464 -0.00104828)
(0.134215 0.0315548 -0.000327048)
(-0.137058 0.0314263 -0.000466939)
(-0.00649544 0.0319615 -0.000678048)
(0.154232 0.021872 -0.000554414)
(3 -1.2168e-07 0.000116561)
(3 -2.24154e-07 0.000110956)
(3 -3.21902e-07 0.000105359)
(3 -3.85056e-07 9.97697e-05)
(3 -4.32862e-07 9.41876e-05)
(3 -4.0481e-07 8.86132e-05)
(3 -3.59151e-07 8.30468e-05)
(3 -3.16249e-07 7.74887e-05)
(3 -2.75317e-07 7.19389e-05)
(3 -2.35834e-07 6.63977e-05)
(3 -1.97801e-07 6.08652e-05)
(3 -1.61514e-07 5.53417e-05)
(3 -1.2757e-07 4.98272e-05)
(3 -9.65257e-08 4.43221e-05)
(3 -6.89146e-08 3.88266e-05)
(3 -4.52009e-08 3.33407e-05)
(3 -2.56818e-08 2.78648e-05)
(3 -1.04694e-08 2.23991e-05)
(3 4.94559e-10 1.69437e-05)
(3 7.58941e-09 1.14989e-05)
(3 -9.00047e-09 6.06808e-06)
(3 5.86887e-08 6.52136e-07)
(3 3.53102e-07 -4.7518e-06)
(2.99999 1.00785e-06 -1.01437e-05)
(2.99999 2.13742e-06 -1.55227e-05)
(2.99998 3.83828e-06 -2.08857e-05)
(2.99997 6.17787e-06 -2.62283e-05)
(2.99996 9.20957e-06 -3.15369e-05)
(2.99994 1.29237e-05 -3.67906e-05)
(2.99989 1.7204e-05 -4.19217e-05)
(2.99981 2.15432e-05 -4.6798e-05)
(2.99962 2.52663e-05 -5.11965e-05)
(2.99921 2.73166e-05 -5.44118e-05)
(2.99829 2.51719e-05 -5.51411e-05)
(2.99614 1.34583e-05 -5.01606e-05)
(2.99103 -1.77803e-05 -3.15147e-05)
(2.97801 -8.97617e-05 2.34636e-05)
(2.94041 -0.000254449 0.000190727)
(2.80572 -0.000615145 0.000784228)
(2.27763 0.000250656 0.00275762)
(0.49194 0.0181369 0.00406399)
(-0.41996 0.0651803 0.00014158)
(0.0643605 0.0114779 -0.00167514)
(0.279352 0.025099 0.000148555)
(-0.287405 0.0521314 -0.000434167)
(0.161601 0.0354517 -0.00100786)
(0.141089 0.0470543 -0.000316499)
(-0.136113 0.0498542 -0.000440912)
(-0.0106944 0.0476867 -0.00064705)
(0.154577 0.0345182 -0.000529807)
(3 -1.09289e-07 0.000111518)
(3 -1.84171e-07 0.000106147)
(3 -2.37384e-07 0.000100784)
(3 -2.58663e-07 9.54283e-05)
(3 -2.77438e-07 9.00813e-05)
(3 -2.60069e-07 8.47425e-05)
(3 -2.38538e-07 7.94122e-05)
(3 -2.16242e-07 7.40909e-05)
(3 -1.95095e-07 6.87784e-05)
(3 -1.76059e-07 6.34751e-05)
(3 -1.59158e-07 5.81811e-05)
(3 -1.43714e-07 5.28965e-05)
(3 -1.2887e-07 4.76216e-05)
(3 -1.14042e-07 4.23565e-05)
(3 -9.91187e-08 3.71014e-05)
(3 -8.44322e-08 3.18566e-05)
(3 -7.06357e-08 2.66222e-05)
(3 -5.85499e-08 2.13983e-05)
(3 -4.89578e-08 1.61853e-05)
(3 -4.23502e-08 1.09832e-05)
(3 -5.76234e-08 5.79521e-06)
(3 9.39307e-09 6.21958e-07)
(3 2.95074e-07 -4.539e-06)
(2.99999 9.27532e-07 -9.68761e-06)
(2.99999 2.01712e-06 -1.48229e-05)
(2.99998 3.65814e-06 -1.99422e-05)
(2.99997 5.91869e-06 -2.50413e-05)
(2.99996 8.86175e-06 -3.01073e-05)
(2.99994 1.24857e-05 -3.51202e-05)
(2.9999 1.66872e-05 -4.00176e-05)
(2.99981 2.10392e-05 -4.46731e-05)
(2.99963 2.49531e-05 -4.88764e-05)
(2.99923 2.74051e-05 -5.19715e-05)
(2.99832 2.66153e-05 -5.27417e-05)
(2.99621 1.90247e-05 -4.81866e-05)
(2.99119 -1.39903e-06 -3.09013e-05)
(2.97843 -4.47238e-05 1.99935e-05)
(2.94187 -0.00012271 0.000173855)
(2.81221 -0.000176537 0.000717812)
(2.30897 0.00213325 0.00249271)
(0.547368 0.0234945 0.00396199)
(-0.40338 0.0827922 0.000195294)
(0.0304635 0.0160343 -0.00156938)
(0.301803 0.0288573 0.000112634)
(-0.282814 0.0675119 -0.000397716)
(0.150645 0.0462302 -0.000963569)
(0.152169 0.0573537 -0.000307387)
(-0.131682 0.0653295 -0.000412953)
(-0.0147334 0.0619638 -0.000614677)
(0.154632 0.0457076 -0.000504669)
(3 -1.05617e-07 0.000106269)
(3 -1.77798e-07 0.000101141)
(3 -2.33547e-07 9.60219e-05)
(3 -2.59637e-07 9.09113e-05)
(3 -2.898e-07 8.58094e-05)
(3 -2.75901e-07 8.07164e-05)
(3 -2.58232e-07 7.56325e-05)
(3 -2.39102e-07 7.0558e-05)
(3 -2.19816e-07 6.54929e-05)
(3 -2.01028e-07 6.04374e-05)
(3 -1.82756e-07 5.53917e-05)
(3 -1.64631e-07 5.03559e-05)
(3 -1.46218e-07 4.53303e-05)
(3 -1.27377e-07 4.03149e-05)
(3 -1.08334e-07 3.53099e-05)
(3 -8.96353e-08 3.03156e-05)
(3 -7.20686e-08 2.53321e-05)
(3 -5.64935e-08 2.03596e-05)
(3 -4.37202e-08 1.53983e-05)
(3 -3.42906e-08 1.04482e-05)
(3 -4.54036e-08 5.51218e-06)
(3 2.30316e-08 5.90767e-07)
(3 3.00923e-07 -4.31813e-06)
(2.99999 9.10345e-07 -9.2144e-06)
(2.99999 1.957e-06 -1.40971e-05)
(2.99998 3.53287e-06 -1.89638e-05)
(2.99998 5.70734e-06 -2.38107e-05)
(2.99996 8.55673e-06 -2.86257e-05)
(2.99994 1.20985e-05 -3.33896e-05)
(2.9999 1.62783e-05 -3.80459e-05)
(2.99982 2.08546e-05 -4.24755e-05)
(2.99964 2.55468e-05 -4.64829e-05)
(2.99925 2.99443e-05 -4.9461e-05)
(2.99836 3.39369e-05 -5.02867e-05)
(2.9963 3.85327e-05 -4.62202e-05)
(2.9914 4.90412e-05 -3.048e-05)
(2.97903 8.60684e-05 1.57976e-05)
(2.9439 0.000239564 0.00015435)
(2.82119 0.000968668 0.000639487)
(2.352 0.00662295 0.00219149)
(0.626342 0.0395316 0.00389652)
(-0.364664 0.119098 0.000263758)
(-0.00711289 0.0335865 -0.00145225)
(0.328374 0.0398139 6.42126e-05)
(-0.274251 0.0894983 -0.000358429)
(0.136008 0.0642042 -0.000912123)
(0.165913 0.0725948 -0.000300745)
(-0.124974 0.0855116 -0.000384054)
(-0.0203464 0.0812757 -0.000580412)
(0.153389 0.0612227 -0.000478859)
(3 -9.68763e-08 0.000100803)
(3 -1.69568e-07 9.593e-05)
(3 -2.08198e-07 9.10658e-05)
(3 -2.26111e-07 8.62107e-05)
(3 -2.22433e-07 8.13649e-05)
(3 -2.0702e-07 7.65284e-05)
(3 -1.92349e-07 7.17015e-05)
(3 -1.7988e-07 6.68844e-05)
(3 -1.69721e-07 6.20771e-05)
(3 -1.61275e-07 5.72799e-05)
(3 -1.53515e-07 5.24929e-05)
(3 -1.45327e-07 4.77161e-05)
(3 -1.35926e-07 4.29499e-05)
(3 -1.25079e-07 3.81943e-05)
(3 -1.13041e-07 3.34495e-05)
(3 -1.00551e-07 2.87157e-05)
(3 -8.86027e-08 2.39929e-05)
(3 -7.82551e-08 1.92815e-05)
(3 -7.04777e-08 1.45815e-05)
(3 -6.58885e-08 9.89314e-06)
(3 -8.00492e-08 5.21863e-06)
(3 -1.70768e-08 5.5855e-07)
(3 2.46243e-07 -4.08886e-06)
(2.99999 8.2566e-07 -8.72346e-06)
(2.99999 1.82182e-06 -1.33444e-05)
(2.99998 3.32368e-06 -1.79494e-05)
(2.99998 5.40033e-06 -2.2535e-05)
(2.99997 8.13935e-06 -2.70901e-05)
(2.99995 1.15785e-05 -3.15963e-05)
(2.99991 1.57183e-05 -3.60034e-05)
(2.99983 2.05135e-05 -4.01995e-05)
(2.99966 2.59989e-05 -4.40068e-05)
(2.99927 3.25111e-05 -4.68692e-05)
(2.9984 4.15988e-05 -4.77518e-05)
(2.9964 5.83863e-05 -4.41841e-05)
(2.99165 9.88626e-05 -3.00441e-05)
(2.97972 0.000212134 1.14768e-05)
(2.94621 0.000574835 0.000134429)
(2.83122 0.00195182 0.000558503)
(2.39885 0.0100506 0.00188248)
(0.726439 0.0496526 0.00382529)
(-0.317933 0.156501 0.00034249)
(-0.0555697 0.0524252 -0.00131723)
(0.360351 0.0481207 1.46815e-06)
(-0.26175 0.111219 -0.000318063)
(0.117817 0.0822564 -0.000853825)
(0.182358 0.0871499 -0.000296859)
(-0.115485 0.105092 -0.000354787)
(-0.0271732 0.100924 -0.000544171)
(0.15087 0.0768739 -0.000452331)
(3 -9.21213e-08 9.51115e-05)
(3 -1.61114e-07 9.05044e-05)
(3 -1.98701e-07 8.59068e-05)
(3 -2.16567e-07 8.13186e-05)
(3 -2.16534e-07 7.67402e-05)
(3 -2.0351e-07 7.21714e-05)
(3 -1.90591e-07 6.76127e-05)
(3 -1.7949e-07 6.3064e-05)
(3 -1.70479e-07 5.85256e-05)
(3 -1.62995e-07 5.39975e-05)
(3 -1.55967e-07 4.948e-05)
(3 -1.48217e-07 4.4973e-05)
(3 -1.38907e-07 4.04768e-05)
(3 -1.27794e-07 3.59916e-05)
(3 -1.15198e-07 3.15173e-05)
(3 -1.01873e-07 2.70543e-05)
(3 -8.88781e-08 2.26026e-05)
(3 -7.73816e-08 1.81625e-05)
(3 -6.84099e-08 1.37339e-05)
(3 -6.26486e-08 9.31718e-06)
(3 -7.40496e-08 4.91412e-06)
(3 -1.13847e-08 5.25261e-07)
(3 2.4153e-07 -3.85091e-06)
(2.99999 7.93984e-07 -8.21417e-06)
(2.99999 1.74159e-06 -1.25638e-05)
(2.99999 3.17063e-06 -1.68976e-05)
(2.99998 5.15113e-06 -2.12125e-05)
(2.99997 7.78591e-06 -2.54986e-05)
(2.99995 1.11461e-05 -2.97385e-05)
(2.99991 1.5313e-05 -3.3888e-05)
(2.99984 2.04965e-05 -3.78439e-05)
(2.99967 2.71814e-05 -4.14462e-05)
(2.9993 3.67743e-05 -4.41961e-05)
(2.99846 5.32537e-05 -4.51511e-05)
(2.99652 8.72805e-05 -4.2111e-05)
(2.99196 0.000168331 -2.96453e-05)
(2.98057 0.000381423 6.92329e-06)
(2.94897 0.00100959 0.000113912)
(2.84284 0.00317189 0.000476018)
(2.45058 0.0139642 0.00157478)
(0.859392 0.0601514 0.0037118)
(-0.253778 0.202288 0.000432818)
(-0.111015 0.085188 -0.00115295)
(0.395987 0.0597834 -7.78521e-05)
(-0.243969 0.136642 -0.000277951)
(0.0954603 0.104268 -0.000786764)
(0.201411 0.104544 -0.000295154)
(-0.102097 0.127595 -0.000325467)
(-0.0346722 0.124251 -0.000506246)
(0.147137 0.0958952 -0.000425058)
(3 -8.64845e-08 8.91834e-05)
(3 -1.53182e-07 8.48547e-05)
(3 -1.84811e-07 8.05357e-05)
(3 -2.03415e-07 7.62265e-05)
(3 -1.92581e-07 7.19273e-05)
(3 -1.82492e-07 6.76381e-05)
(3 -1.72233e-07 6.33592e-05)
(3 -1.62485e-07 5.90907e-05)
(3 -1.53091e-07 5.48326e-05)
(3 -1.43518e-07 5.05851e-05)
(3 -1.3307e-07 4.63483e-05)
(3 -1.2112e-07 4.21223e-05)
(3 -1.07446e-07 3.79073e-05)
(3 -9.23243e-08 3.37033e-05)
(3 -7.64732e-08 2.95106e-05)
(3 -6.08704e-08 2.53292e-05)
(3 -4.66076e-08 2.11593e-05)
(3 -3.47389e-08 1.70009e-05)
(3 -2.60664e-08 1.28543e-05)
(3 -2.10327e-08 8.71959e-06)
(3 -3.17233e-08 4.59829e-06)
(3 2.838e-08 4.90857e-07)
(3 2.68135e-07 -3.60392e-06)
(3 7.90068e-07 -7.68582e-06)
(2.99999 1.68446e-06 -1.17542e-05)
(2.99999 3.0351e-06 -1.5807e-05)
(2.99998 4.91612e-06 -1.98417e-05)
(2.99997 7.44047e-06 -2.38494e-05)
(2.99995 1.07271e-05 -2.78137e-05)
(2.99992 1.49526e-05 -3.16971e-05)
(2.99985 2.06177e-05 -3.54058e-05)
(2.99969 2.8749e-05 -3.87974e-05)
(2.99933 4.19732e-05 -4.14342e-05)
(2.99852 6.70856e-05 -4.24736e-05)
(2.99668 0.000121164 -3.99894e-05)
(2.99234 0.000248506 -2.92503e-05)
(2.98159 0.000571666 2.291e-06)
(2.9522 0.00148011 9.34159e-05)
(2.85587 0.00442604 0.000395136)
(2.50518 0.0176093 0.00129468)
(1.02712 0.0688368 0.00350778)
(-0.171584 0.250321 0.000532849)
(-0.167925 0.130394 -0.000959205)
(0.430216 0.0732042 -0.00017177)
(-0.220025 0.162937 -0.000238359)
(0.0685017 0.129288 -0.000711359)
(0.221892 0.123096 -0.000295556)
(-0.0855405 0.151826 -0.000296599)
(-0.0429945 0.149826 -0.000466767)
(0.141655 0.11669 -0.000396886)
(3 -8.11464e-08 8.30081e-05)
(3 -1.43818e-07 7.89705e-05)
(3 -1.73451e-07 7.49429e-05)
(3 -1.91455e-07 7.09254e-05)
(3 -1.81722e-07 6.6918e-05)
(3 -1.7419e-07 6.29208e-05)
(3 -1.66439e-07 5.8934e-05)
(3 -1.59094e-07 5.49577e-05)
(3 -1.51927e-07 5.0992e-05)
(3 -1.44409e-07 4.7037e-05)
(3 -1.35888e-07 4.30928e-05)
(3 -1.25788e-07 3.91595e-05)
(3 -1.1392e-07 3.52373e-05)
(3 -1.0056e-07 3.13261e-05)
(3 -8.63728e-08 2.74263e-05)
(3 -7.23376e-08 2.35377e-05)
(3 -5.9537e-08 1.96607e-05)
(3 -4.9037e-08 1.57952e-05)
(3 -4.16033e-08 1.19415e-05)
(3 -3.75424e-08 8.09952e-06)
(3 -4.72301e-08 4.27068e-06)
(3 1.07819e-08 4.55293e-07)
(3 2.37815e-07 -3.34759e-06)
(3 7.29569e-07 -7.13775e-06)
(2.99999 1.57128e-06 -1.09146e-05)
(2.99999 2.84635e-06 -1.46764e-05)
(2.99998 4.63824e-06 -1.84207e-05)
(2.99998 7.06692e-06 -2.21401e-05)
(2.99996 1.02732e-05 -2.58197e-05)
(2.99993 1.45791e-05 -2.94279e-05)
(2.99986 2.08161e-05 -3.28818e-05)
(2.9997 3.06078e-05 -3.60565e-05)
(2.99937 4.78989e-05 -3.85775e-05)
(2.99861 8.25533e-05 -3.97073e-05)
(2.99687 0.000158661 -3.77981e-05)
(2.9928 0.000336552 -2.88209e-05)
(2.98281 0.000777816 -2.30956e-06)
(2.95592 0.00197682 7.33539e-05)
(2.87025 0.00569911 0.000317582)
(2.56213 0.0210088 0.00104374)
(1.23442 0.0771284 0.00319179)
(-0.0680029 0.30125 0.000643616)
(-0.218223 0.190654 -0.000747071)
(0.457582 0.0899159 -0.00027035)
(-0.186318 0.1899 -0.000198507)
(0.0384303 0.160295 -0.000628872)
(0.243233 0.143756 -0.00029895)
(-0.0644884 0.1791 -0.000268483)
(-0.0520513 0.179008 -0.000425833)
(0.134566 0.140373 -0.00036792)
(3 -7.68757e-08 7.65742e-05)
(3 -1.32686e-07 7.28414e-05)
(3 -1.62497e-07 6.91186e-05)
(3 -1.75835e-07 6.54059e-05)
(3 -1.70209e-07 6.17034e-05)
(3 -1.53913e-07 5.80113e-05)
(3 -1.42086e-07 5.43295e-05)
(3 -1.29317e-07 5.06583e-05)
(3 -1.15605e-07 4.69976e-05)
(3 -1.00949e-07 4.33476e-05)
(3 -8.52888e-08 3.97085e-05)
(3 -6.85223e-08 3.60801e-05)
(3 -5.07342e-08 3.24627e-05)
(3 -3.22862e-08 2.88564e-05)
(3 -1.38144e-08 2.52612e-05)
(3 3.78367e-09 2.16773e-05)
(3 1.95486e-08 1.81048e-05)
(3 3.27086e-08 1.45436e-05)
(3 4.27206e-08 1.09941e-05)
(3 4.93822e-08 7.45612e-06)
(3 4.38219e-08 3.93087e-06)
(3 1.01998e-07 4.18544e-07)
(3 3.17376e-07 -3.08154e-06)
(3 7.78778e-07 -6.56921e-06)
(2.99999 1.56701e-06 -1.00439e-05)
(2.99999 2.76703e-06 -1.35043e-05)
(2.99999 4.47163e-06 -1.69482e-05)
(2.99998 6.81108e-06 -2.03687e-05)
(2.99996 9.94496e-06 -2.37531e-05)
(2.99993 1.43115e-05 -2.70769e-05)
(2.99987 2.10892e-05 -3.02683e-05)
(2.99973 3.25352e-05 -3.32182e-05)
(2.99941 5.38723e-05 -3.56169e-05)
(2.9987 9.78109e-05 -3.68369e-05)
(2.99709 0.000194937 -3.55056e-05)
(2.99334 0.000420343 -2.82936e-05)
(2.98423 0.000970522 -6.73944e-06)
(2.96014 0.00242733 5.40804e-05)
(2.88583 0.00679969 0.00024466)
(2.62153 0.0236038 0.000819774)
(1.4857 0.0843312 0.00274571)
(0.0611112 0.349023 0.00077989)
(-0.250712 0.268067 -0.000526667)
(0.470033 0.112294 -0.000376888)
(-0.138237 0.212821 -0.000157957)
(0.00846325 0.200664 -0.000536548)
(0.262349 0.167038 -0.000304185)
(-0.0389972 0.208893 -0.000242084)
(-0.0614691 0.212001 -0.000383406)
(0.12473 0.166606 -0.000338134)
(3 -7.1103e-08 6.98697e-05)
(3 -1.21721e-07 6.64558e-05)
(3 -1.50138e-07 6.3052e-05)
(3 -1.61431e-07 5.96582e-05)
(3 -1.57794e-07 5.62746e-05)
(3 -1.41663e-07 5.29011e-05)
(3 -1.31532e-07 4.95379e-05)
(3 -1.20269e-07 4.61851e-05)
(3 -1.08052e-07 4.28428e-05)
(3 -9.49547e-08 3.95109e-05)
(3 -8.09549e-08 3.61897e-05)
(3 -6.59523e-08 3.28791e-05)
(3 -4.99955e-08 2.95793e-05)
(3 -3.33935e-08 2.62904e-05)
(3 -1.68123e-08 2.30123e-05)
(3 -1.02173e-09 1.97452e-05)
(3 1.32702e-08 1.64892e-05)
(3 2.54744e-08 1.32444e-05)
(3 3.51062e-08 1.00108e-05)
(3 4.18625e-08 6.78852e-06)
(3 3.81513e-08 3.57837e-06)
(3 9.43677e-08 3.80559e-07)
(3 2.96052e-07 -2.80547e-06)
(3 7.25257e-07 -5.97949e-06)
(3 1.45851e-06 -9.14112e-06)
(2.99999 2.58115e-06 -1.22892e-05)
(2.99999 4.19057e-06 -1.54218e-05)
(2.99998 6.42795e-06 -1.85333e-05)
(2.99997 9.51724e-06 -2.16126e-05)
(2.99994 1.39657e-05 -2.46405e-05)
(2.99988 2.12469e-05 -2.75582e-05)
(2.99975 3.42192e-05 -3.02736e-05)
(2.99946 5.93458e-05 -3.25383e-05)
(2.99882 0.000111869 -3.38338e-05)
(2.99735 0.000227725 -3.3052e-05)
(2.99396 0.000493342 -2.75423e-05)
(2.98581 0.00112937 -1.07241e-05)
(2.96471 0.00276611 3.62023e-05)
(2.90202 0.00750073 0.000178036)
(2.68265 0.0245152 0.000616883)
(1.77617 0.0870041 0.00215756)
(0.215537 0.375077 0.00095652)
(-0.247189 0.363499 -0.000296985)
(0.44825 0.148652 -0.000469932)
(-0.068133 0.229617 -0.000127527)
(-0.0114736 0.254613 -0.000434244)
(0.272737 0.194371 -0.000309411)
(-0.00811217 0.239723 -0.000218678)
(-0.0709182 0.249567 -0.00033981)
(0.111406 0.195881 -0.000307411)
(3 -6.51784e-08 6.28818e-05)
(3 -1.09846e-07 5.9802e-05)
(3 -1.37422e-07 5.67321e-05)
(3 -1.45174e-07 5.36719e-05)
(3 -1.45113e-07 5.06216e-05)
(3 -1.24256e-07 4.75813e-05)
(3 -1.08962e-07 4.45509e-05)
(3 -9.23571e-08 4.15307e-05)
(3 -7.52732e-08 3.85206e-05)
(3 -5.79961e-08 3.55206e-05)
(3 -4.04706e-08 3.25309e-05)
(3 -2.24788e-08 2.95516e-05)
(3 -3.95581e-09 2.65826e-05)
(3 1.48386e-08 2.3624e-05)
(3 3.34271e-08 2.0676e-05)
(3 5.12202e-08 1.77385e-05)
(3 6.75636e-08 1.48117e-05)
(3 8.17389e-08 1.18956e-05)
(3 9.3164e-08 8.99027e-06)
(3 1.0152e-07 6.09578e-06)
(3 1.00596e-07 3.21274e-06)
(3 1.54826e-07 3.41278e-07)
(3 3.41583e-07 -2.51896e-06)
(3 7.35844e-07 -5.36781e-06)
(3 1.40897e-06 -8.20494e-06)
(2.99999 2.44359e-06 -1.10294e-05)
(2.99999 3.93829e-06 -1.38397e-05)
(2.99998 6.04333e-06 -1.66312e-05)
(2.99997 9.04992e-06 -1.9395e-05)
(2.99995 1.35536e-05 -2.21163e-05)
(2.99989 2.12643e-05 -2.47485e-05)
(2.99978 3.55341e-05 -2.72149e-05)
(2.99952 6.39387e-05 -2.93259e-05)
(2.99894 0.000124048 -3.06683e-05)
(2.99764 0.000256583 -3.03698e-05)
(2.99464 0.000557484 -2.63899e-05)
(2.9875 0.00126486 -1.37973e-05)
(2.9694 0.00303024 2.09791e-05)
(2.91766 0.00791454 0.000121652)
(2.74133 0.0240931 0.00043484)
(2.06946 0.0835683 0.00146597)
(0.404003 0.356014 0.00121598)
(-0.180933 0.47828 -6.82963e-05)
(0.372736 0.208183 -0.000527389)
(0.0258426 0.245341 -0.000116064)
(-0.00628605 0.321095 -0.000333463)
(0.264101 0.228852 -0.000311089)
(0.0290515 0.269192 -0.000196959)
(-0.0776743 0.293087 -0.000295569)
(0.0928435 0.228797 -0.000275382)
(3 -5.81721e-08 5.55971e-05)
(3 -9.80876e-08 5.28674e-05)
(3 -1.22568e-07 5.0147e-05)
(3 -1.29787e-07 4.74361e-05)
(3 -1.29578e-07 4.47345e-05)
(3 -1.11791e-07 4.20425e-05)
(3 -9.74233e-08 3.936e-05)
(3 -8.17249e-08 3.6687e-05)
(3 -6.55985e-08 3.40237e-05)
(3 -4.93458e-08 3.13701e-05)
(3 -3.29594e-08 2.87262e-05)
(3 -1.62732e-08 2.60921e-05)
(3 7.54137e-10 2.34677e-05)
(3 1.79283e-08 2.08533e-05)
(3 3.4967e-08 1.82488e-05)
(3 5.13707e-08 1.56543e-05)
(3 6.64931e-08 1.30698e-05)
(3 7.96912e-08 1.04954e-05)
(3 9.04458e-08 7.93106e-06)
(3 9.84604e-08 5.37695e-06)
(3 9.87775e-08 2.83345e-06)
(3 1.49543e-07 3.00655e-07)
(3 3.19523e-07 -2.22165e-06)
(3 6.75952e-07 -4.73336e-06)
(3 1.28395e-06 -7.2342e-06)
(2.99999 2.22135e-06 -9.72344e-06)
(2.99999 3.58613e-06 -1.21998e-05)
(2.99999 5.53497e-06 -1.46601e-05)
(2.99998 8.4124e-06 -1.7097e-05)
(2.99995 1.29004e-05 -1.95e-05)
(2.99991 2.0749e-05 -2.18344e-05)
(2.99981 3.56934e-05 -2.4038e-05)
(2.99958 6.60437e-05 -2.5973e-05)
(2.99908 0.000130864 -2.73262e-05)
(2.99795 0.000274126 -2.74411e-05)
(2.99537 0.000598429 -2.4806e-05)
(2.9893 0.00135353 -1.58437e-05)
(2.97419 0.0031993 8.98126e-06)
(2.93247 0.00812518 7.8898e-05)
(2.79426 0.0233154 0.000298369)
(2.30727 0.0786842 0.000916065)
(0.676866 0.303301 0.00144059)
(-0.0569323 0.60352 8.59317e-05)
(0.241947 0.308025 -0.000492992)
(0.140923 0.280028 -0.000123617)
(0.0386666 0.393155 -0.000255401)
(0.225892 0.275098 -0.000295579)
(0.073307 0.297005 -0.000177059)
(-0.0778678 0.343059 -0.000251865)
(0.0667292 0.267533 -0.000241366)
(3 -5.06623e-08 4.80015e-05)
(3 -8.56497e-08 4.56387e-05)
(3 -1.06616e-07 4.32845e-05)
(3 -1.13433e-07 4.09391e-05)
(3 -1.1254e-07 3.86025e-05)
(3 -9.87583e-08 3.62747e-05)
(3 -8.18658e-08 3.39558e-05)
(3 -6.56463e-08 3.16457e-05)
(3 -4.92753e-08 2.93446e-05)
(3 -3.29654e-08 2.70524e-05)
(3 -1.67178e-08 2.47692e-05)
(3 -3.99909e-10 2.2495e-05)
(3 1.6018e-08 2.02299e-05)
(3 3.24611e-08 1.79739e-05)
(3 4.86366e-08 1.5727e-05)
(3 6.40835e-08 1.34894e-05)
(3 7.82601e-08 1.12609e-05)
(3 9.0624e-08 9.04161e-06)
(3 1.00736e-07 6.83166e-06)
(3 1.08342e-07 4.63102e-06)
(3 1.09659e-07 2.43999e-06)
(3 1.55979e-07 2.58652e-07)
(3 3.07023e-07 -1.91317e-06)
(3 6.21878e-07 -4.07532e-06)
(3 1.15929e-06 -6.22766e-06)
(3 1.99245e-06 -8.36963e-06)
(2.99999 3.21994e-06 -1.05003e-05)
(2.99999 5.00513e-06 -1.26173e-05)
(2.99998 7.74466e-06 -1.47157e-05)
(2.99996 1.21767e-05 -1.6787e-05)
(2.99992 1.9977e-05 -1.88081e-05)
(2.99984 3.49951e-05 -2.07317e-05)
(2.99965 6.57134e-05 -2.24625e-05)
(2.99923 0.000131324 -2.37801e-05)
(2.99828 0.000275828 -2.42164e-05)
(2.99613 0.000601354 -2.27211e-05)
(2.99113 0.00135356 -1.68622e-05)
(2.97896 0.00316543 -3.76987e-07)
(2.94657 0.00787358 4.51736e-05)
(2.84446 0.0217572 0.000187321)
(2.4946 0.072176 0.00057027)
(1.10109 0.252869 0.00146571)
(0.136816 0.71738 0.000184803)
(0.0889474 0.440801 -0.00037535)
(0.259012 0.345712 -0.000145541)
(0.117203 0.454032 -0.000192634)
(0.163965 0.350524 -0.000256255)
(0.124555 0.330979 -0.000159814)
(-0.0647021 0.397357 -0.000211066)
(0.0344522 0.316097 -0.000205293)
(3 -4.25325e-08 4.00801e-05)
(3 -7.2491e-08 3.81019e-05)
(3 -8.9426e-08 3.61315e-05)
(3 -9.59913e-08 3.4169e-05)
(3 -9.40543e-08 3.22144e-05)
(3 -8.38388e-08 3.02677e-05)
(3 -6.67811e-08 2.83289e-05)
(3 -5.18099e-08 2.63981e-05)
(3 -3.6733e-08 2.44752e-05)
(3 -2.18104e-08 2.25603e-05)
(3 -7.06551e-09 2.06535e-05)
(3 7.57936e-09 1.87547e-05)
(3 2.21804e-08 1.6864e-05)
(3 3.66997e-08 1.49814e-05)
(3 5.09024e-08 1.31069e-05)
(3 6.44103e-08 1.12405e-05)
(3 7.67813e-08 9.3823e-06)
(3 8.75745e-08 7.53229e-06)
(3 9.64362e-08 5.69051e-06)
(3 1.03161e-07 3.85697e-06)
(3 1.05023e-07 2.03184e-06)
(3 1.45767e-07 2.15192e-07)
(3 2.75601e-07 -1.59309e-06)
(3 5.45264e-07 -3.3929e-06)
(3 1.00716e-06 -5.1841e-06)
(3 1.72816e-06 -6.96635e-06)
(3 2.80268e-06 -8.73892e-06)
(2.99999 4.40441e-06 -1.05005e-05)
(2.99998 6.95021e-06 -1.22475e-05)
(2.99997 1.12136e-05 -1.39737e-05)
(2.99994 1.88842e-05 -1.56649e-05)
(2.99987 3.37522e-05 -1.72875e-05)
(2.99971 6.41799e-05 -1.8778e-05)
(2.99937 0.000128747 -1.99941e-05)
(2.9986 0.000269264 -2.06251e-05)
(2.99687 0.000581125 -1.99968e-05)
(2.99288 0.00128852 -1.65887e-05)
(2.9834 0.00294955 -6.66506e-06)
(2.95916 0.00710306 2.01539e-05)
(2.88818 0.0187186 9.91288e-05)
(2.65033 0.0586499 0.0003276)
(1.71381 0.199051 0.00104965)
(0.412245 0.720892 0.000311698)
(-0.0136385 0.590278 -0.000146683)
(0.33458 0.450192 -0.000175779)
(0.224693 0.499827 -0.000150617)
(0.132391 0.448736 -0.000192129)
(0.163347 0.392522 -0.000144165)
(-0.0374681 0.453206 -0.00017472)
(0.00422416 0.379389 -0.000167434)
(3 -3.3825e-08 3.18171e-05)
(3 -5.83284e-08 3.02423e-05)
(3 -7.1187e-08 2.86743e-05)
(3 -7.7028e-08 2.71129e-05)
(3 -7.4663e-08 2.55583e-05)
(3 -6.73107e-08 2.40104e-05)
(3 -5.16994e-08 2.24692e-05)
(3 -3.6862e-08 2.09348e-05)
(3 -2.34985e-08 1.94072e-05)
(3 -1.04361e-08 1.78863e-05)
(3 1.96289e-09 1.63723e-05)
(3 1.38789e-08 1.4865e-05)
(3 2.55869e-08 1.33646e-05)
(3 3.71887e-08 1.1871e-05)
(3 4.85818e-08 1.03842e-05)
(3 5.9509e-08 8.90434e-06)
(3 6.96285e-08 7.43132e-06)
(3 7.85695e-08 5.9652e-06)
(3 8.60175e-08 4.50599e-06)
(3 9.17725e-08 3.05371e-06)
(3 9.3978e-08 1.60843e-06)
(3 1.28149e-07 1.70215e-07)
(3 2.34453e-07 -1.26103e-06)
(3 4.54556e-07 -2.6852e-06)
(3 8.3249e-07 -4.10223e-06)
(3 1.42435e-06 -5.51187e-06)
(3 2.3153e-06 -6.91369e-06)
(2.99999 3.67115e-06 -8.30696e-06)
(2.99999 5.86048e-06 -9.68952e-06)
(2.99998 9.64185e-06 -1.10572e-05)
(2.99995 1.66491e-05 -1.24014e-05)
(2.9999 3.04874e-05 -1.37018e-05)
(2.99978 5.91639e-05 -1.49166e-05)
(2.99951 0.000120345 -1.59596e-05)
(2.99891 0.000253232 -1.664e-05)
(2.99755 0.000545716 -1.65463e-05)
(2.99447 0.00119883 -1.47787e-05)
(2.98725 0.00269389 -9.23168e-06)
(2.96934 0.00627411 5.56151e-06)
(2.91997 0.0156294 4.59618e-05)
(2.76167 0.044319 0.000160795)
(2.21363 0.143094 0.000468917)
(0.779268 0.539922 0.000488477)
(0.0814531 0.725962 3.99421e-05)
(0.328222 0.592695 -0.00016375)
(0.329246 0.566635 -0.000120296)
(0.175378 0.545324 -0.000138546)
(0.19604 0.483639 -0.000121229)
(-0.00234005 0.509756 -0.000139208)
(-0.00982308 0.45876 -0.000129624)
(3 -2.46919e-08 2.31956e-05)
(3 -4.26883e-08 2.20443e-05)
(3 -5.19018e-08 2.08981e-05)
(3 -5.49394e-08 1.97572e-05)
(3 -5.29371e-08 1.86216e-05)
(3 -4.58708e-08 1.74912e-05)
(3 -3.34472e-08 1.63661e-05)
(3 -1.90718e-08 1.52462e-05)
(3 -4.95898e-09 1.41316e-05)
(3 8.32979e-09 1.30223e-05)
(3 2.02576e-08 1.19182e-05)
(3 3.05007e-08 1.08194e-05)
(3 3.92678e-08 9.72597e-06)
(3 4.71388e-08 8.63778e-06)
(3 5.41812e-08 7.55487e-06)
(3 6.05023e-08 6.47731e-06)
(3 6.62557e-08 5.40502e-06)
(3 7.15451e-08 4.33806e-06)
(3 7.63008e-08 3.27643e-06)
(3 8.01163e-08 2.22012e-06)
(3 8.15351e-08 1.16919e-06)
(3 1.08141e-07 1.2365e-07)
(3 1.89431e-07 -9.16555e-07)
(3 3.56069e-07 -1.95133e-06)
(3 6.42057e-07 -2.98066e-06)
(3 1.09199e-06 -4.00442e-06)
(3 1.7845e-06 -5.02238e-06)
(3 2.861e-06 -6.03412e-06)
(2.99999 4.61823e-06 -7.03854e-06)
(2.99998 7.70607e-06 -8.03344e-06)
(2.99996 1.35288e-05 -9.01412e-06)
(2.99992 2.51615e-05 -9.97042e-06)
(2.99983 4.94508e-05 -1.08797e-05)
(2.99964 0.000101628 -1.16944e-05)
(2.99919 0.000215636 -1.23132e-05)
(2.9982 0.000467733 -1.25133e-05)
(2.99595 0.00103183 -1.18123e-05)
(2.99073 0.00231862 -9.11261e-06)
(2.97809 0.00535185 -1.64869e-06)
(2.94461 0.0129926 1.85265e-05)
(2.84072 0.0346674 7.73913e-05)
(2.49009 0.106645 0.000223864)
(1.24475 0.356927 0.000470314)
(0.328337 0.866456 8.78302e-05)
(0.3024 0.729835 -0.000106047)
(0.389588 0.667299 -9.55526e-05)
(0.259656 0.646069 -9.27022e-05)
(0.247544 0.600796 -8.97599e-05)
(0.0526695 0.588943 -0.000100953)
(0.0026321 0.56529 -9.18846e-05)
(3 -1.49833e-08 1.41981e-05)
(3 -2.5769e-08 1.34912e-05)
(3 -3.13101e-08 1.27878e-05)
(3 -3.26004e-08 1.20878e-05)
(3 -3.10806e-08 1.13912e-05)
(3 -2.62138e-08 1.06981e-05)
(3 -1.78276e-08 1.00084e-05)
(3 -6.91928e-09 9.3221e-06)
(3 4.58191e-09 8.63927e-06)
(3 1.48595e-08 7.95988e-06)
(3 2.39881e-08 7.28394e-06)
(3 3.18046e-08 6.61141e-06)
(3 3.84392e-08 5.94234e-06)
(3 4.43238e-08 5.2767e-06)
(3 4.95637e-08 4.61447e-06)
(3 5.43249e-08 3.95573e-06)
(3 5.87127e-08 3.30039e-06)
(3 6.27931e-08 2.64851e-06)
(3 6.63254e-08 2.00005e-06)
(3 6.95027e-08 1.35506e-06)
(3 7.04452e-08 7.13506e-07)
(3 8.8122e-08 7.54144e-08)
(3 1.41073e-07 -5.59236e-07)
(3 2.4964e-07 -1.1904e-06)
(3 4.37606e-07 -1.81809e-06)
(3 7.39189e-07 -2.44223e-06)
(3 1.2206e-06 -3.06273e-06)
(3 2.00099e-06 -3.67942e-06)
(2.99999 3.32692e-06 -4.29179e-06)
(2.99999 5.73108e-06 -4.8989e-06)