/*--------------------------------*- C++ -*----------------------------------*\
| =========                 |                                                 |
| \\      /  F ield         | OpenFOAM: The Open Source CFD Toolbox           |
|  \\    /   O peration     | Version:  2112                                  |
|   \\  /    A nd           | Website:  www.openfoam.com                      |
|    \\/     M anipulation  |                                                 |
\*---------------------------------------------------------------------------*/
FoamFile
{
    version     2.0;
    format      ascii;
    arch        "LSB;label=32;scalar=64";
    class       volScalarField;
    location    "8.5";
    object      Ma;
}
// * * * * * * * * * * * * * * * * * * * * * * * * * * * * * * * * * * * * * //

dimensions      [0 0 0 0 0 0 0];

internalField   nonuniform List<scalar> 
5250
(
2.99998
2.99995
2.99982
2.99965
2.99893
2.99791
2.99393
2.98755
2.96604
2.91971
2.80453
2.49231
1.90545
0.892136
0.386117
0.340801
0.350271
0.340672
0.305952
0.252937
0.204321
0.163546
0.12225
0.0765544
0.0427951
2.99998
2.99995
2.99983
2.99965
2.99895
2.99794
2.99403
2.98771
2.96654
2.92058
2.8067
2.49682
1.91584
0.901203
0.39309
0.341599
0.351008
0.341716
0.307486
0.255417
0.208074
0.168759
0.129833
0.0896843
0.0661282
2.99998
2.99995
2.99983
2.99967
2.99898
2.998
2.99424
2.98806
2.9676
2.9224
2.81128
2.50644
1.93842
0.922148
0.409622
0.344479
0.354183
0.346187
0.313477
0.263951
0.219741
0.184057
0.150478
0.119344
0.104514
2.99999
2.99996
2.99984
2.99968
2.99903
2.99809
2.99451
2.98855
2.96904
2.92545
2.81838
2.52209
1.97399
0.956881
0.436016
0.348841
0.3597
0.354299
0.323888
0.278108
0.238007
0.2071
0.179605
0.156112
0.146288
2.99999
2.99996
2.99985
2.9997
2.99908
2.9982
2.99485
2.98919
2.97089
2.92959
2.82824
2.5447
2.02413
1.00987
0.474047
0.355506
0.36838
0.366694
0.338934
0.297489
0.261831
0.235704
0.213992
0.196632
0.190164
2.99999
2.99996
2.99986
2.99972
2.99915
2.99833
2.99521
2.98994
2.9729
2.93448
2.84
2.57499
2.08563
1.08688
0.524539
0.364865
0.380745
0.383756
0.358802
0.321848
0.290909
0.269796
0.253529
0.241701
0.238747
2.99999
2.99997
2.99987
2.99974
2.99922
2.99847
2.9956
2.9908
2.97514
2.94019
2.85325
2.61128
2.15648
1.19163
0.58751
0.377948
0.397669
0.406117
0.383882
0.351377
0.324899
0.308838
0.298691
0.293305
0.295726
2.99999
2.99997
2.99989
2.99977
2.99929
2.99861
2.99596
2.99174
2.9774
2.94717
2.86852
2.65485
2.24234
1.32938
0.663986
0.39916
0.422528
0.435431
0.415039
0.387199
0.365002
0.354039
0.350355
0.353543
0.366352
2.99999
2.99997
2.9999
2.99979
2.99937
2.99877
2.99636
2.99273
2.97983
2.95462
2.88495
2.70226
2.33879
1.49499
0.755376
0.437576
0.460632
0.473547
0.454568
0.429845
0.41148
0.405582
0.410046
0.427118
0.462792
3
2.99998
2.99992
2.99983
2.99947
2.99895
2.99694
2.99382
2.98303
2.96174
2.90259
2.75049
2.43902
1.7192
0.853246
0.486203
0.508255
0.518696
0.502958
0.480832
0.465683
0.464009
0.480537
0.523629
0.623026
3
2.99998
2.99994
2.99981
2.99962
2.99888
2.99775
2.99372
2.98647
2.9642
2.91268
2.79012
2.46872
1.83038
0.914295
0.528382
0.537455
0.549045
0.546254
0.53096
0.52235
0.528729
0.562024
0.64064
0.803916
3
2.99999
2.99994
2.99987
2.99959
2.99918
2.9976
2.99522
2.98653
2.97134
2.92384
2.81381
2.56568
1.95194
1.08078
0.606983
0.560877
0.574428
0.581195
0.576419
0.576392
0.593102
0.639902
0.732591
0.892693
3
2.99999
2.99995
2.99988
2.99964
2.9993
2.9979
2.99591
2.98816
2.97572
2.93402
2.84255
2.62786
2.0813
1.24614
0.692788
0.576435
0.592857
0.609696
0.616953
0.626608
0.651946
0.704259
0.791319
0.920638
3
2.99999
2.99995
2.9999
2.9997
2.99941
2.99824
2.99657
2.99018
2.97969
2.94527
2.86865
2.68798
2.2154
1.43587
0.790409
0.59736
0.614349
0.635887
0.653693
0.67151
0.702224
0.753726
0.829777
0.935684
3
2.99999
2.99996
2.99992
2.99975
2.9995
2.99851
2.99712
2.99155
2.98322
2.95309
2.89722
2.74173
2.37736
1.66203
0.908681
0.640364
0.649264
0.668361
0.689806
0.71177
0.743933
0.79458
0.860144
0.948699
3
3
2.99997
2.99994
2.9998
2.9996
2.9988
2.99767
2.99316
2.98647
2.96191
2.91849
2.79004
2.50641
1.87943
1.02932
0.696744
0.687109
0.704815
0.7264
0.748648
0.779527
0.826612
0.888237
0.961951
3
3
2.99998
2.99995
2.99984
2.99969
2.99907
2.99819
2.99474
2.98943
2.97108
2.93423
2.83702
2.58343
2.09532
1.18191
0.777337
0.716615
0.733878
0.755064
0.781124
0.811603
0.853368
0.909613
0.97614
3
3
2.99999
2.99996
2.99988
2.99976
2.99927
2.99858
2.99585
2.99171
2.97719
2.94876
2.87108
2.66863
2.27304
1.41469
0.898743
0.750204
0.758719
0.778491
0.806835
0.839825
0.87887
0.928557
0.988025
3.00001
3
2.99999
2.99997
2.99991
2.99981
2.99944
2.99891
2.99683
2.99369
2.98256
2.96184
2.90224
2.75283
2.4472
1.72823
1.06125
0.810898
0.797161
0.809748
0.834276
0.865449
0.901848
0.946373
0.999112
3.00001
3
3
2.99998
2.99994
2.99982
2.99965
2.99897
2.99796
2.99414
2.98813
2.96731
2.9284
2.81804
2.56894
2.00271
1.21199
0.880241
0.836512
0.845673
0.865742
0.893729
0.925246
0.963197
1.00913
3.00001
3
3
2.99998
2.99996
2.99987
2.99974
2.99923
2.9985
2.99565
2.99131
2.97619
2.94697
2.86686
2.66497
2.25164
1.45122
0.993409
0.874075
0.875385
0.891768
0.918612
0.948911
0.982448
1.02055
3.00001
3.00001
3
2.99999
2.99997
2.99992
2.99977
2.99954
2.99865
2.99731
2.99236
2.98429
2.95761
2.90386
2.76176
2.43452
1.74767
1.14502
0.932468
0.909958
0.918904
0.940126
0.968495
0.999618
1.0344
3.00001
3.00001
3
3
2.99998
2.99994
2.99987
2.99961
2.99922
2.99778
2.99552
2.98773
2.97341
2.93128
2.8313
2.61407
2.07253
1.32369
1.00411
0.950135
0.952634
0.966937
0.989001
1.01579
1.04636
3.00001
3.00001
3
3
2.99999
2.99997
2.99989
2.99978
2.99935
2.9987
2.99639
2.99233
2.97988
2.95189
2.88329
2.69939
2.34297
1.57079
1.11922
0.987556
0.981334
0.991321
1.01166
1.0349
1.05946
3.00001
3.00001
3
3
2.99999
2.99998
2.99992
2.99984
2.99951
2.99906
2.99723
2.99464
2.98454
2.96891
2.91695
2.81037
2.54954
1.989
1.30406
1.04951
1.01624
1.01841
1.03369
1.05559
1.07508
3.00001
3.00001
3.00001
3
3
2.99999
2.99995
2.99989
2.99967
2.99936
2.99814
2.99634
2.98978
2.97847
2.94376
2.8639
2.68634
2.21521
1.51389
1.12917
1.04707
1.0435
1.05309
1.06992
1.08629
3.00001
3.00001
3.00001
3
3
2.99999
2.99997
2.99991
2.99982
2.99947
2.99895
2.997
2.99397
2.98368
2.96398
2.90902
2.7736
2.49345
1.84473
1.29197
1.09474
1.07133
1.07305
1.08332
1.09203
3.00001
3.00001
3.00001
3.00001
3
3
2.99998
2.99994
2.99988
2.99962
2.99927
2.99786
2.99587
2.98811
2.97624
2.93596
2.85351
2.65766
2.17826
1.50087
1.17046
1.09911
1.0908
1.0902
1.0878
3.00001
3.00001
3.00001
3.00001
3
3
2.99999
2.99996
2.99992
2.99975
2.99951
2.99856
2.99719
2.99196
2.98395
2.95608
2.90403
2.76299
2.43849
1.79503
1.30421
1.13528
1.10391
1.08997
1.07224
3.00001
3.00001
3.00001
3.00001
3.00001
3
2.99999
2.99998
2.99994
2.99987
2.99961
2.99923
2.99779
2.99564
2.98786
2.97488
2.93414
2.8458
2.64203
2.16384
1.49594
1.1988
1.11865
1.07838
1.03865
3.00001
3.00001
3.00001
3.00001
3.00001
3
3
2.99999
2.99996
2.99991
2.99973
2.99948
2.99848
2.99706
2.99157
2.98333
2.95439
2.90064
2.75826
2.42212
1.79752
1.30134
1.11869
1.03968
0.977787
3.00001
3.00001
3.00001
3.00001
3.00001
3.00001
3
3
2.99997
2.99994
2.99983
2.99965
2.99899
2.99802
2.99437
2.98876
2.96913
2.93488
2.83061
2.62478
2.09916
1.46263
1.12463
0.968552
0.897887
3.00001
3.00001
3.00001
3.00001
3.00001
3.00001
3
3
2.99999
2.99996
2.9999
2.99972
2.99943
2.99838
2.99678
2.99094
2.98153
2.95075
2.88756
2.731
2.35717
1.68041
1.11065
0.86463
0.812328
3.00001
3.00001
3.00001
3.00001
3.00001
3.00001
3
3
2.99999
2.99998
2.99992
2.99983
2.99949
2.99899
2.99707
2.99419
2.98374
2.96562
2.91068
2.78543
2.50085
1.89208
1.09903
0.742015
0.706133
3.00001
3.00001
3.00001
3.00001
3.00001
3.00001
3.00001
3
2.99999
2.99998
2.99993
2.99986
2.99957
2.99917
2.99751
2.99518
2.9858
2.97138
2.92124
2.81786
2.55693
1.96307
1.10729
0.610485
0.573659
3.00001
3.00001
3.00001
3.00001
3.00001
3.00001
3.00001
3
3
2.99999
2.99995
2.99989
2.99965
2.99931
2.99797
2.9959
2.98847
2.97442
2.932
2.82844
2.59539
1.98992
1.12048
0.515879
0.442902
3.00001
3.00001
3.00001
3.00001
3.00001
3.00001
3.00001
3
3
2.99999
2.99996
2.99988
2.99975
2.99927
2.99849
2.99583
2.99041
2.97499
2.93629
2.8444
2.57767
2.06899
1.10075
0.485179
0.351994
3.00001
3.00001
3.00001
3.00001
3.00001
3.00001
3.00001
3
3
2.99999
2.99997
2.99989
2.99977
2.99932
2.9986
2.99613
2.99104
2.9766
2.94002
2.85261
2.59737
2.10429
1.13967
0.491014
0.312641
3.00001
3.00001
3.00001
3.00001
3.00001
3.00001
3.00001
3
3
2.99999
2.99996
2.99991
2.99972
2.99944
2.99836
2.99656
2.99065
2.97778
2.94309
2.851
2.65014
2.07897
1.24141
0.508094
0.292673
3.00001
3.00001
3.00001
3.00001
3.00001
3.00001
3.00001
3
3
2.99999
2.99996
2.99991
2.99972
2.99945
2.99832
2.99669
2.99043
2.97951
2.94477
2.86117
2.66911
2.13076
1.3013
0.522996
0.273391
3.00001
3.00001
3.00001
3.00001
3.00001
3.00001
3.00001
3
3
2.99999
2.99996
2.99992
2.99974
2.99948
2.99846
2.9969
2.99128
2.98064
2.94896
2.86948
2.6906
2.18031
1.36644
0.553643
0.265106
3.00001
3.00001
3.00001
3.00001
3.00001
3.00001
3.00001
3
3
2.99999
2.99997
2.99991
2.99981
2.99943
2.99885
2.99681
2.99289
2.9813
2.95296
2.88441
2.6855
2.29741
1.42657
0.614428
0.285918
3.00001
3.00001
3.00001
3.00001
3.00001
3.00001
3.00001
3
3
2.99999
2.99997
2.9999
2.99981
2.99941
2.99886
2.99658
2.99324
2.98076
2.95782
2.89019
2.71762
2.35379
1.53548
0.665288
0.293162
3.00001
3.00001
3.00001
3.00001
3.00001
3.00001
3.00001
3
3
2.99999
2.99998
2.99991
2.99982
2.99946
2.99893
2.99694
2.99361
2.98274
2.95913
2.89752
2.73036
2.39288
1.61791
0.690786
0.286122
3.00001
3.00001
3.00001
3.00001
3.00001
3.00001
3.00001
3.00001
3
2.99999
2.99997
2.99993
2.99977
2.99954
2.99864
2.99732
2.99216
2.98402
2.95585
2.89814
2.74702
2.37178
1.63429
0.674811
0.266186
3.00001
3.00001
3.00001
3.00001
3.00001
3.00001
3.00001
3.00001
3
2.99999
2.99997
2.99993
2.99977
2.99955
2.99864
2.99736
2.99219
2.9844
2.95595
2.90279
2.75193
2.39511
1.6625
0.692975
0.27085
3.00001
3.00001
3.00001
3.00001
3.00001
3.00001
3.00001
3.00001
3
2.99999
2.99997
2.99993
2.99978
2.99956
2.99869
2.99741
2.99244
2.98464
2.95746
2.90286
2.75784
2.39823
1.68053
0.70796
0.276975
3.00001
3.00001
3.00001
3.00001
3.00001
3.00001
3.00001
3
3
2.99999
2.99998
2.99992
2.99983
2.99951
2.99901
2.99725
2.99403
2.98432
2.96177
2.90576
2.75283
2.44336
1.7203
0.777009
0.325072
3.00001
3.00001
3.00001
3.00001
3.00001
3.00001
3.00001
3.00001
3
2.99999
2.99997
2.99993
2.99978
2.99957
2.99871
2.99745
2.99258
2.98489
2.95833
2.9046
2.76305
2.41022
1.70694
0.732463
0.296495
3.00001
3.00001
3.00001
3.00001
3.00001
3.00001
3.00001
3.00001
3
2.99999
2.99997
2.99993
2.99978
2.99956
2.99868
2.99744
2.99245
2.98494
2.95756
2.90671
2.76265
2.42034
1.71633
0.738961
0.29966
0.955886
0.748716
0.262714
0.235512
0.298359
0.391436
0.42768
0.457235
0.495226
0.533707
0.565205
0.591609
0.617477
0.6382
0.647387
0.64845
0.642775
0.627889
0.604826
0.575334
0.542554
0.507777
0.472919
0.438559
0.405074
0.37233
0.340191
0.30851
0.277215
0.246241
0.214578
0.183356
0.152737
0.122878
0.0937061
0.0656293
0.0383811
0.0171601
0.02598
0.050399
0.0759187
0.100622
0.124796
0.14786
0.169669
0.191327
0.213602
0.23587
0.257283
0.278234
0.298478
0.318502
0.337965
0.357276
0.376017
0.394734
0.412849
0.431008
0.448566
0.466215
0.483312
0.500427
0.517095
0.533766
0.550005
0.566304
0.582161
0.598097
0.613624
0.629217
0.644424
0.659704
0.674575
0.689562
0.70407
0.718755
0.732898
0.747237
0.761047
0.774986
0.788497
0.802021
0.815223
0.828356
0.841208
0.853969
0.866439
0.878833
0.890907
0.902884
0.914511
0.926027
0.937105
0.948002
0.958241
0.968161
0.976925
0.984933
0.990653
0.995115
0.962151
0.838854
0.578543
0.414789
0.285822
0.149273
0.0539116
0.143829
0.222794
0.281847
0.32123
0.34875
0.374857
0.39893
0.409964
0.40833
0.398426
0.38181
0.356654
0.326329
0.293682
0.259943
0.226757
0.194733
0.163693
0.133741
0.104895
0.0776276
0.0532014
0.0378226
0.0404483
0.0595342
0.0826979
0.107426
0.13208
0.156654
0.180609
0.203924
0.225847
0.247541
0.269119
0.290547
0.311434
0.331768
0.351074
0.370105
0.389571
0.409225
0.428096
0.446524
0.464423
0.482116
0.49943
0.51655
0.533373
0.549887
0.566291
0.582254
0.598267
0.613783
0.629411
0.644532
0.659818
0.674562
0.689546
0.703948
0.718646
0.732752
0.747156
0.761004
0.775093
0.788709
0.802464
0.815849
0.829281
0.842399
0.855543
0.868342
0.881229
0.893676
0.906313
0.918406
0.930766
0.942519
0.954558
0.965976
0.977671
0.988786
1.0001
1.0109
1.02183
1.03229
1.04273
1.05271
1.0624
1.07152
1.07982
1.08719
1.0926
1.09652
0.982377
0.953978
0.845489
0.743178
0.634124
0.517884
0.401329
0.298234
0.211288
0.133276
0.0695417
0.0551299
0.0898796
0.128752
0.149544
0.138844
0.119307
0.105346
0.0848113
0.0675144
0.0570883
0.0586493
0.0723445
0.0916662
0.113902
0.137443
0.161498
0.185705
0.209824
0.233555
0.256171
0.278775
0.300998
0.322968
0.344579
0.365577
0.386208
0.405947
0.42519
0.443758
0.462332
0.480437
0.498417
0.515706
0.532291
0.548357
0.564857
0.581676
0.59806
0.613843
0.629339
0.644468
0.659531
0.67426
0.688924
0.703333
0.717612
0.73172
0.745658
0.759458
0.773085
0.78657
0.799908
0.813101
0.826177
0.839129
0.851963
0.86472
0.877314
0.889901
0.902248
0.914663
0.926764
0.938975
0.950842
0.962796
0.974435
0.986101
0.997506
1.00889
1.02003
1.03113
1.04199
1.05283
1.06341
1.07405
1.0844
1.09481
1.10493
1.11508
1.12488
1.13469
1.14405
1.1534
1.16212
1.1707
1.17823
1.18522
1.1902
1.19384
1.00555
1.02749
0.99432
0.941946
0.870744
0.788634
0.699192
0.609178
0.527446
0.448964
0.378162
0.313324
0.260564
0.218551
0.18925
0.17754
0.193269
0.211574
0.232229
0.257535
0.281505
0.302641
0.322708
0.342493
0.362429
0.382545
0.402744
0.422895
0.442833
0.462242
0.48088
0.499258
0.516977
0.534604
0.551449
0.568222
0.584103
0.59988
0.614781
0.629688
0.643964
0.658417
0.672326
0.686176
0.699123
0.711836
0.724562
0.737992
0.751319
0.764312
0.776912
0.789413
0.801742
0.814067
0.826227
0.838373
0.850365
0.862351
0.874188
0.886022
0.897714
0.909403
0.920958
0.932506
0.943933
0.955355
0.966667
0.977983
0.989189
1.0004
1.0115
1.02259
1.03358
1.0445
1.05539
1.06611
1.07689
1.08739
1.09805
1.10832
1.11886
1.12898
1.13944
1.14942
1.15977
1.16953
1.17966
1.18915
1.19904
1.20826
1.21787
1.22677
1.23599
1.24444
1.25304
1.26074
1.26821
1.27441
1.27947
1.28239
1.02341
1.06395
1.07364
1.05416
1.01925
0.968397
0.909441
0.844812
0.780244
0.713564
0.646561
0.585101
0.534466
0.495955
0.47206
0.465894
0.476415
0.493297
0.510195
0.52872
0.547108
0.562898
0.577159
0.590933
0.604987
0.619246
0.633684
0.647949
0.66193
0.675416
0.68832
0.700766
0.712696
0.724349
0.735543
0.74655
0.757114
0.767548
0.777548
0.787501
0.797267
0.807152
0.817002
0.826825
0.836241
0.845321
0.854592
0.864512
0.874871
0.885048
0.895107
0.904987
0.914914
0.924744
0.934728
0.944621
0.95471
0.964679
0.974834
0.984861
0.995034
1.00512
1.01528
1.02544
1.03555
1.04578
1.05584
1.06612
1.07615
1.08644
1.09643
1.10668
1.11664
1.12678
1.13671
1.1467
1.15658
1.16646
1.17639
1.18625
1.19619
1.20592
1.21572
1.22528
1.23493
1.24434
1.2538
1.26304
1.27229
1.28133
1.2903
1.29911
1.30769
1.31617
1.32415
1.33203
1.33897
1.34558
1.35033
1.35387
1.03383
1.08614
1.11109
1.11924
1.10696
1.0818
1.04657
1.00441
0.957548
0.906324
0.853822
0.802797
0.75854
0.724757
0.704674
0.700687
0.711715
0.731588
0.753598
0.772263
0.788368
0.799303
0.806992
0.81319
0.819133
0.82519
0.831551
0.837941
0.844214
0.85025
0.855998
0.861574
0.866972
0.872443
0.877817
0.883416
0.888974
0.894717
0.900499
0.906471
0.912634
0.919066
0.925791
0.932738
0.939575
0.946205
0.952981
0.960492
0.968617
0.976984
0.985192
0.993532
1.00173
1.0102
1.01857
1.02728
1.03586
1.04476
1.0535
1.06257
1.07144
1.08066
1.08963
1.099
1.10805
1.11757
1.12669
1.13634
1.14555
1.15528
1.16458
1.17433
1.18369
1.19336
1.20275
1.21236
1.22185
1.23141
1.24084
1.25022
1.25954
1.26877
1.27796
1.28707
1.29612
1.30509
1.31398
1.32281
1.33151
1.34017
1.3486
1.35705
1.3651
1.37323
1.38071
1.38829
1.39482
1.40121
1.40576
1.40923
1.04141
1.0961
1.13414
1.15267
1.16034
1.15168
1.13341
1.10649
1.07322
1.03399
0.99218
0.950543
0.914641
0.887377
0.8733
0.874636
0.888005
0.909054
0.932182
0.952156
0.968466
0.97592
0.978723
0.976607
0.974672
0.973237
0.972842
0.973147
0.974011
0.975066
0.97627
0.977508
0.978952
0.98053
0.982407
0.984636
0.987211
0.990129
0.993458
0.997051
1.00113
1.00544
1.01032
1.01544
1.02081
1.02583
1.03116
1.0369
1.04362
1.05059
1.05783
1.06497
1.07232
1.07966
1.08724
1.09489
1.10275
1.11072
1.11883
1.12708
1.13539
1.1439
1.15235
1.16108
1.16965
1.17857
1.18725
1.19631
1.20512
1.21426
1.22319
1.23234
1.24133
1.25047
1.25961
1.26869
1.27781
1.28674
1.29582
1.30464
1.31367
1.32238
1.33133
1.33993
1.34878
1.35727
1.36598
1.37435
1.38287
1.3911
1.39935
1.40738
1.41524
1.42297
1.43027
1.43747
1.44384
1.44993
1.45442
1.45772
1.04832
1.10141
1.14366
1.17262
1.18758
1.19337
1.18567
1.16902
1.14465
1.11169
1.0776
1.04223
1.01177
0.990907
0.980436
0.985406
1.00363
1.03006
1.05517
1.07533
1.0895
1.09965
1.10241
1.09825
1.09186
1.08506
1.07986
1.07567
1.07305
1.07089
1.06958
1.06828
1.06752
1.06683
1.06664
1.06687
1.06763
1.06881
1.07047
1.07255
1.07512
1.07805
1.08152
1.08542
1.08963
1.09364
1.09781
1.10239
1.10782
1.11381
1.12008
1.12647
1.13299
1.13964
1.14643
1.15342
1.16056
1.1679
1.17538
1.18303
1.19078
1.19867
1.20664
1.21474
1.22292
1.23122
1.23961
1.24811
1.25669
1.26534
1.27406
1.28281
1.29174
1.30049
1.30942
1.31807
1.32701
1.33557
1.34449
1.35296
1.36183
1.3702
1.37899
1.38726
1.39593
1.4041
1.4126
1.42066
1.42895
1.43688
1.44489
1.45265
1.46027
1.46774
1.47479
1.48173
1.48787
1.49372
1.49805
1.50125
1.05457
1.10584
1.14815
1.18157
1.20248
1.21299
1.21264
1.19972
1.17806
1.14947
1.11927
1.08846
1.06241
1.04809
1.04287
1.0515
1.07497
1.10639
1.13521
1.15696
1.17088
1.18075
1.18617
1.18583
1.17939
1.17148
1.16281
1.15519
1.14916
1.14446
1.14093
1.13794
1.1356
1.1335
1.13205
1.13088
1.13036
1.13018
1.13056
1.13143
1.13272
1.1345
1.13674
1.13955
1.14271
1.14588
1.14911
1.15269
1.15701
1.16203
1.16744
1.17309
1.17893
1.18498
1.19116
1.19759
1.20414
1.21098
1.21788
1.2251
1.2323
1.23984
1.24729
1.2551
1.2628
1.27087
1.27885
1.28716
1.2954
1.3039
1.31241
1.32095
1.3295
1.338
1.34662
1.35509
1.36374
1.37218
1.38083
1.38922
1.39783
1.40616
1.41469
1.42296
1.43137
1.43956
1.44781
1.45592
1.46395
1.47193
1.47966
1.48745
1.49478
1.50223
1.50898
1.51585
1.52167
1.52746
1.53151
1.53481
1.05911
1.10765
1.15022
1.18415
1.20877
1.22072
1.22207
1.20823
1.18626
1.1612
1.13077
1.1019
1.082
1.07415
1.0751
1.09064
1.11924
1.15307
1.18353
1.20712
1.2238
1.23373
1.24103
1.24462
1.24332
1.23758
1.23021
1.22118
1.21239
1.20507
1.19919
1.19452
1.19079
1.18765
1.18513
1.18291
1.18129
1.17994
1.17926
1.17889
1.17919
1.17994
1.18123
1.18307
1.18549
1.188
1.19061
1.19342
1.19692
1.20111
1.2058
1.21083
1.21614
1.22172
1.22747
1.23351
1.23967
1.24615
1.25268
1.25956
1.2664
1.27362
1.28076
1.28828
1.29573
1.30356
1.31134
1.31943
1.32755
1.33579
1.34404
1.35229
1.36063
1.36887
1.37727
1.38549
1.39392
1.40212
1.41056
1.41874
1.42716
1.4353
1.44364
1.45172
1.45994
1.46792
1.47596
1.48382
1.49163
1.49933
1.5068
1.51426
1.52127
1.52832
1.53467
1.54103
1.5464
1.55164
1.55516
1.55803
1.06421
1.10814
1.14837
1.18074
1.20465
1.21551
1.21271
1.19765
1.17719
1.15166
1.12081
1.09776
1.08716
1.08423
1.09296
1.11666
1.14988
1.18287
1.21207
1.23644
1.25507
1.26864
1.27717
1.28326
1.28677
1.28634
1.28223
1.27591
1.26689
1.25758
1.24901
1.24216
1.23648
1.23211
1.2285
1.22561
1.22324
1.22134
1.21991
1.21898
1.2185
1.2186
1.21925
1.22044
1.22237
1.22453
1.22679
1.22913
1.23209
1.23571
1.24001
1.24464
1.24967
1.25495
1.26052
1.2663
1.27229
1.27849
1.28485
1.29142
1.29813
1.30503
1.3121
1.31935
1.3268
1.33438
1.3422
1.35007
1.35812
1.36607
1.37424
1.38223
1.39048
1.39849
1.40681
1.41482
1.4232
1.43121
1.43962
1.44762
1.45602
1.464
1.47233
1.48027
1.48848
1.49632
1.50434
1.51206
1.51982
1.52736
1.53475
1.54199
1.54885
1.55559
1.56168
1.5676
1.57261
1.57721
1.58004
1.58244
1.0716
1.10925
1.14514
1.17287
1.19231
1.19732
1.18903
1.17318
1.15172
1.1226
1.09735
1.08435
1.08075
1.08546
1.10375
1.13383
1.16655
1.19738
1.22514
1.24927
1.26976
1.28625
1.29902
1.30792
1.31385
1.31743
1.31816
1.31568
1.31015
1.30196
1.29246
1.28354
1.27589
1.26978
1.26491
1.26118
1.25812
1.25572
1.25377
1.2523
1.25135
1.25086
1.25101
1.25169
1.25303
1.2548
1.2567
1.25865
1.26102
1.26407
1.26781
1.27202
1.2766
1.28155
1.28675
1.29225
1.29792
1.30386
1.30991
1.31624
1.32267
1.32941
1.33623
1.34336
1.35059
1.35808
1.36567
1.37334
1.38113
1.38891
1.39684
1.40467
1.4127
1.42056
1.42867
1.43655
1.44473
1.45263
1.46085
1.46875
1.47697
1.48483
1.49298
1.50078
1.50879
1.5165
1.52429
1.53185
1.53934
1.54668
1.55374
1.56072
1.56717
1.57352
1.57912
1.58454
1.58881
1.59255
1.59436
1.59629
1.0796
1.11077
1.13963
1.16072
1.17043
1.16729
1.15502
1.13815
1.11233
1.08703
1.0729
1.06891
1.07156
1.0858
1.11194
1.14333
1.17387
1.20209
1.2282
1.25183
1.27339
1.29206
1.30817
1.32085
1.33047
1.33662
1.34031
1.34214
1.34132
1.33746
1.33102
1.32219
1.31348
1.30565
1.29919
1.29402
1.28999
1.2869
1.28453
1.28279
1.28152
1.28081
1.28056
1.28091
1.28188
1.28332
1.28511
1.28683
1.28892
1.29154
1.29495
1.2988
1.30311
1.30778
1.31279
1.3181
1.32365
1.32946
1.33543
1.34164
1.34798
1.35457
1.36131
1.36827
1.37544
1.38273
1.39016
1.39763
1.40528
1.41288
1.4207
1.42837
1.43631
1.44401
1.45203
1.45976
1.46783
1.47557
1.48366
1.49139
1.49947
1.50716
1.51516
1.52275
1.5306
1.53805
1.54566
1.55291
1.56016
1.56711
1.57384
1.58031
1.58625
1.59195
1.59692
1.60138
1.60463
1.60701
1.60766
1.60902
1.0861
1.11029
1.13002
1.14069
1.13972
1.12975
1.11508
1.09221
1.06852
1.05473
1.05095
1.05305
1.06535
1.0886
1.11754
1.14624
1.17346
1.19914
1.2237
1.2471
1.2693
1.2897
1.30816
1.32407
1.3375
1.34805
1.35518
1.35992
1.36222
1.36307
1.36129
1.35642
1.34905
1.34072
1.33302
1.32619
1.32083
1.31646
1.31333
1.31092
1.30932
1.30828
1.30781
1.30792
1.30861
1.30982
1.31151
1.31311
1.31495
1.31719
1.3202
1.32376
1.3278
1.33219
1.33697
1.34205
1.3474
1.35302
1.35881
1.36485
1.37103
1.37745
1.38404
1.39086
1.39785
1.4049
1.41217
1.41944
1.42695
1.43439
1.44209
1.44963
1.45744
1.46501
1.47291
1.48047
1.48845
1.49597
1.504
1.51147
1.51949
1.52691
1.53483
1.54218
1.54989
1.55712
1.56448
1.57152
1.57838
1.58505
1.59125
1.59722
1.60254
1.60751
1.61159
1.61476
1.61662
1.61724
1.61661
1.61813
1.09185
1.10596
1.11298
1.11099
1.10137
1.0871
1.06552
1.04374
1.03151
1.02863
1.03139
1.04391
1.06618
1.09272
1.11921
1.14439
1.16887
1.19287
1.2165
1.23981
1.26234
1.28393
1.30396
1.32228
1.33833
1.35214
1.36324
1.37183
1.37742
1.38079
1.3824
1.38238
1.37931
1.37364
1.36617
1.35877
1.35188
1.3462
1.34173
1.33841
1.33623
1.33475
1.33413
1.334
1.33448
1.33549
1.33702
1.33857
1.34024
1.34219
1.34478
1.34803
1.35173
1.35587
1.36037
1.36525
1.37042
1.37587
1.38154
1.38743
1.39352
1.39979
1.40631
1.41294
1.41974
1.42659
1.43368
1.44073
1.4481
1.45532
1.46291
1.47023
1.47798
1.48534
1.49318
1.50055
1.50841
1.51577
1.52363
1.53098
1.53876
1.54609
1.55373
1.56098
1.56836
1.57545
1.58244
1.58919
1.59565
1.60176
1.60747
1.61258
1.61731
1.62114
1.62394
1.62546
1.62557
1.62472
1.62294
1.62407
1.09494
1.09575
1.08925
1.07683
1.05902
1.03597
1.01511
1.0046
1.00279
1.00704
1.02119
1.04384
1.06881
1.09334
1.11674
1.13959
1.16215
1.18518
1.20813
1.23141
1.25407
1.27637
1.29731
1.31719
1.33514
1.35154
1.36546
1.37747
1.38649
1.39352
1.39769
1.40037
1.40156
1.4008
1.39705
1.39115
1.38445
1.37798
1.37223
1.36781
1.3644
1.36225
1.36096
1.36041
1.36061
1.36136
1.36267
1.36419
1.36581
1.36756
1.36992
1.37283
1.37633
1.38016
1.38447
1.38906
1.39403
1.39922
1.40473
1.41038
1.41637
1.42245
1.42888
1.43522
1.44193
1.44849
1.45545
1.46223
1.46941
1.47642
1.48376
1.49094
1.49838
1.50568
1.51316
1.52053
1.52801
1.53541
1.54283
1.55022
1.55754
1.56487
1.57203
1.57923
1.58612
1.59306
1.59952
1.60597
1.61176
1.61736
1.62221
1.62667
1.63023
1.63275
1.63368
1.63348
1.63228
1.63023
1.62599
1.62546
1.08935
1.07786
1.0611
1.037
1.00907
0.986719
0.97683
0.975784
0.982021
0.998663
1.02255
1.047
1.06986
1.09172
1.11279
1.13396
1.15536
1.17745
1.19988
1.22261
1.24521
1.26741
1.28891
1.30949
1.32885
1.34687
1.36317
1.37788
1.39049
1.40114
1.40954
1.41548
1.41931
1.42208
1.42338
1.42213
1.4181
1.41219
1.40621
1.40045
1.39588
1.39239
1.39017
1.38902
1.38868
1.3891
1.39025
1.39175
1.39335
1.39497
1.39697
1.39955
1.40262
1.40616
1.41002
1.41434
1.41894
1.42393
1.42917
1.4347
1.44048
1.44644
1.4526
1.45875
1.46518
1.4715
1.47817
1.48468
1.49159
1.4983
1.5054
1.51228
1.51948
1.52648
1.5337
1.54078
1.54798
1.55507
1.56223
1.56927
1.57635
1.58325
1.59019
1.59685
1.60352
1.60978
1.6159
1.62155
1.62671
1.63138
1.63541
1.63862
1.64072
1.64114
1.64046
1.63911
1.63647
1.63168
1.62315
1.61978
1.07485
1.05321
1.02244
0.988465
0.962267
0.951837
0.950302
0.958449
0.977069
1.00246
1.02691
1.04925
1.0697
1.08923
1.10872
1.12862
1.1492
1.17047
1.1924
1.2146
1.23701
1.2591
1.28101
1.30213
1.32269
1.34198
1.36048
1.37715
1.39288
1.40636
1.41855
1.4282
1.43578
1.44112
1.44537
1.44785
1.4489
1.44697
1.44245
1.43703
1.43134
1.42659
1.42279
1.42017
1.41881
1.41822
1.41869
1.41983
1.42137
1.42275
1.42445
1.42659
1.42934
1.43254
1.43611
1.44014
1.44445
1.44919
1.45413
1.45944
1.46494
1.4707
1.47651
1.48254
1.4886
1.49485
1.50115
1.50761
1.51415
1.5208
1.52757
1.53435
1.54129
1.54813
1.55513
1.56198
1.56895
1.57575
1.58261
1.58929
1.59599
1.60246
1.60896
1.61507
1.62122
1.62677
1.63221
1.63691
1.64117
1.64477
1.64755
1.64892
1.64897
1.6478
1.64601
1.64239
1.63626
1.62755
1.61606
1.61126
1.04631
1.01017
0.970534
0.942936
0.931768
0.930516
0.940264
0.960646
0.986838
1.0114
1.03322
1.05268
1.07099
1.08891
1.10734
1.12631
1.1462
1.16673
1.18808
1.20973
1.23184
1.25377
1.27581
1.29727
1.31841
1.33871
1.35828
1.3768
1.39427
1.41041
1.42511
1.43816
1.44927
1.4581
1.46509
1.47049
1.47448
1.47631
1.47646
1.47346
1.46886
1.46317
1.45816
1.45362
1.45052
1.44847
1.44758
1.44789
1.44889
1.45018
1.45165
1.4533
1.45567
1.45845
1.46183
1.4654
1.46951
1.47381
1.47859
1.4836
1.48895
1.49442
1.50011
1.50591
1.51184
1.51792
1.52405
1.53037
1.53668
1.54321
1.54969
1.55637
1.56296
1.56972
1.57634
1.58312
1.58967
1.5964
1.60276
1.60935
1.61546
1.62175
1.62755
1.63332
1.6386
1.64361
1.64787
1.65179
1.65479
1.65722
1.65786
1.65744
1.656
1.6535
1.64904
1.64152
1.63119
1.62007
1.60767
1.60273
0.992989
0.950778
0.921469
0.909605
0.909536
0.921845
0.945439
0.973458
0.998952
1.02101
1.04039
1.05791
1.07485
1.09175
1.10936
1.12761
1.14671
1.16657
1.18706
1.20812
1.22955
1.25123
1.27293
1.29453
1.31577
1.33665
1.35686
1.37643
1.39515
1.41292
1.4296
1.4449
1.45876
1.47068
1.48061
1.48849
1.49506
1.49977
1.50257
1.50366
1.50288
1.49935
1.49397
1.48891
1.48385
1.4803
1.47752
1.47645
1.47619
1.47718
1.47837
1.47979
1.48151
1.4839
1.4869
1.49024
1.49402
1.49803
1.50254
1.50726
1.51239
1.51759
1.52312
1.52872
1.53453
1.54042
1.54644
1.55257
1.55877
1.56505
1.5714
1.57776
1.58422
1.59061
1.59711
1.60347
1.60993
1.61619
1.62249
1.62855
1.63454
1.64021
1.64568
1.65071
1.65533
1.65927
1.6626
1.6653
1.66698
1.66718
1.66611
1.66451
1.66119
1.65553
1.64669
1.63569
1.62339
1.61183
1.60049
1.59659
0.930588
0.901437
0.891349
0.891835
0.907226
0.933524
0.961374
0.987078
1.00919
1.02826
1.04554
1.06186
1.07814
1.09472
1.11199
1.13002
1.14874
1.16818
1.18817
1.2087
1.22958
1.25072
1.27199
1.29332
1.31446
1.3355
1.35602
1.37626
1.39572
1.41459
1.43243
1.44935
1.46498
1.47933
1.49196
1.50279
1.5116
1.51907
1.52523
1.52931
1.5312
1.53172
1.52991
1.52583
1.52066
1.51541
1.51102
1.50759
1.5058
1.50505
1.50569
1.50687
1.50806
1.50985
1.51211
1.5153
1.51866
1.52254
1.52663
1.5311
1.53582
1.54073
1.54596
1.55124
1.5568
1.56238
1.56816
1.57399
1.57995
1.58597
1.5921
1.59824
1.6045
1.61065
1.61696
1.62303
1.6293
1.63516
1.64123
1.64677
1.65238
1.65743
1.66226
1.66638
1.67003
1.67273
1.6751
1.67592
1.67576
1.67439
1.67203
1.66803
1.66088
1.65113
1.63941
1.62718
1.61506
1.60508
1.59619
1.59393
0.869597
0.863339
0.868437
0.889991
0.922233
0.95218
0.978377
1.00048
1.01931
1.03595
1.05167
1.06714
1.08291
1.09924
1.11613
1.13375
1.15196
1.17087
1.19032
1.21032
1.23068
1.25143
1.27233
1.2934
1.31439
1.33531
1.35593
1.37631
1.39611
1.41553
1.43413
1.4521
1.46911
1.48504
1.4998
1.51306
1.52477
1.53458
1.543
1.55048
1.55547
1.55843
1.55935
1.55896
1.55604
1.55092
1.54584
1.54056
1.53665
1.53373
1.53255
1.53248
1.53335
1.53433
1.53581
1.53812
1.54115
1.54471
1.54854
1.55275
1.55715
1.56189
1.56682
1.57198
1.57731
1.5828
1.5884
1.59418
1.59995
1.60595
1.61179
1.61794
1.62376
1.62994
1.63568
1.64173
1.64739
1.65316
1.65857
1.66393
1.66876
1.67342
1.67723
1.68053
1.68293
1.68475
1.68511
1.68432
1.68268
1.67969
1.67407
1.66586
1.6548
1.64287
1.63026
1.61884
1.60871
1.60154
1.59562
1.59487
0.815635
0.829996
0.861869
0.901972
0.936442
0.96469
0.987695
1.00682
1.0237
1.03937
1.05479
1.07034
1.08628
1.10269
1.11957
1.13702
1.155
1.17356
1.19266
1.21223
1.23221
1.25251
1.27308
1.29377
1.31454
1.33527
1.35587
1.37627
1.39634
1.41609
1.43533
1.45404
1.47206
1.48925
1.50554
1.52058
1.53443
1.54654
1.55702
1.56582
1.57376
1.57971
1.58315
1.58428
1.58443
1.58275
1.57866
1.5731
1.56746
1.56257
1.55867
1.55665
1.5557
1.55623
1.55706
1.55838
1.56056
1.56369
1.56731
1.57129
1.57555
1.58008
1.58486
1.58983
1.59505
1.60037
1.60593
1.6115
1.61732
1.62306
1.62903
1.63487
1.64084
1.64667
1.65252
1.65819
1.66378
1.66911
1.67419
1.67894
1.68314
1.68685
1.6896
1.69178
1.69302
1.69308
1.69195
1.68993
1.68584
1.67913
1.66926
1.65782
1.64523
1.63297
1.62166
1.61257
1.60553
1.60143
1.59803
1.59858
0.747222
0.799504
0.857802
0.904134
0.939728
0.966804
0.987998
1.0059
1.0225
1.03865
1.05492
1.07125
1.0879
1.10474
1.12198
1.13954
1.15756
1.17594
1.19479
1.21405
1.23373
1.25368
1.27389
1.29429
1.31473
1.33524
1.35558
1.37588
1.39583
1.41563
1.43494
1.45391
1.47222
1.48992
1.50682
1.52278
1.53771
1.55139
1.56366
1.57428
1.58348
1.59156
1.598
1.60205
1.60335
1.60341
1.60238
1.59934
1.59396
1.58817
1.58229
1.57788
1.5747
1.57338
1.57326
1.57409
1.57534
1.57745
1.58046
1.58432
1.58848
1.59299
1.59769
1.60266
1.60789
1.61328
1.61893
1.62462
1.63055
1.63645
1.64251
1.64849
1.6545
1.66038
1.6662
1.67174
1.6772