/*--------------------------------*- C++ -*----------------------------------*\
| =========                 |                                                 |
| \\      /  F ield         | OpenFOAM: The Open Source CFD Toolbox           |
|  \\    /   O peration     | Version:  2112                                  |
|   \\  /    A nd           | Website:  www.openfoam.com                      |
|    \\/     M anipulation  |                                                 |
\*---------------------------------------------------------------------------*/
FoamFile
{
    version     2.0;
    format      ascii;
    arch        "LSB;label=32;scalar=64";
    class       volScalarField;
    location    "8.5";
    object      p;
}
// * * * * * * * * * * * * * * * * * * * * * * * * * * * * * * * * * * * * * //

dimensions      [1 -1 -2 0 0 0 0];

internalField   nonuniform List<scalar> 
5250
(
1.00001
1.00005
1.00012
1.00035
1.00072
1.00207
1.00411
1.01245
1.02256
1.0799
1.13698
1.5178
2.15948
4.63782
10.4045
11.0729
10.9597
10.9607
11.0551
11.2827
11.4967
11.6336
11.7422
11.8286
11.8957
1.00001
1.00005
1.00012
1.00034
1.00071
1.00204
1.00404
1.0123
1.02217
1.0791
1.13478
1.51302
2.14163
4.59977
10.3197
11.0637
10.9529
10.9534
11.0475
11.2746
11.4876
11.6247
11.7346
11.8222
11.8905
1.00001
1.00005
1.00011
1.00033
1.00069
1.00198
1.0039
1.01198
1.02133
1.07745
1.13016
1.50292
2.10379
4.51694
10.1289
11.0437
10.9349
10.9285
11.0197
11.2419
11.4508
11.5854
11.6941
11.7802
11.8477
1.00001
1.00004
1.00011
1.00032
1.00066
1.00189
1.00372
1.0115
1.0203
1.07458
1.12371
1.48659
2.04658
4.38763
9.82554
11.0223
10.9118
10.886
10.9718
11.1848
11.3868
11.5161
11.6208
11.7038
11.7709
1.00001
1.00004
1.0001
1.0003
1.00062
1.00178
1.00349
1.01086
1.01904
1.07055
1.11569
1.46237
1.97222
4.20761
9.39755
11.0092
10.8887
10.8284
10.9064
11.1061
11.2994
11.4212
11.5192
11.5971
11.6643
1.00001
1.00004
1.00009
1.00028
1.00058
1.00166
1.00325
1.01011
1.01771
1.06564
1.10729
1.42852
1.89164
3.96564
8.8272
11.014
10.8705
10.7561
10.8236
11.0048
11.1856
11.2953
11.3824
11.452
11.5187
1.00001
1.00004
1.00009
1.00026
1.00053
1.00152
1.00298
1.00925
1.01624
1.05997
1.09782
1.38864
1.80371
3.66474
8.10126
11.0402
10.8595
10.6687
10.7231
10.8803
11.0437
11.1347
11.2019
11.2526
11.3119
1
1.00003
1.00008
1.00023
1.00048
1.00138
1.00273
1.00827
1.01496
1.05299
1.08794
1.3424
1.70223
3.3197
7.21502
11.0955
10.8565
10.5687
10.606
10.7296
10.8689
10.932
10.9672
10.9809
11.0129
1
1.00003
1.00007
1.00021
1.00043
1.00122
1.00246
1.00723
1.0136
1.0455
1.07755
1.29332
1.59547
2.95618
6.21833
11.1143
10.8457
10.4656
10.4764
10.5536
10.6587
10.6796
10.6626
10.5992
10.5414
1
1.00002
1.00006
1.00018
1.00037
1.00104
1.00209
1.00613
1.01151
1.03831
1.06514
1.24505
1.48063
2.60394
5.20719
10.9822
10.7712
10.3695
10.3164
10.3536
10.4042
10.3787
10.2792
10.0556
9.7267
1
1.00002
1.00006
1.00013
1.00038
1.00077
1.00221
1.00433
1.01344
1.02392
1.08578
1.15012
1.54746
2.25329
4.75564
10.385
10.4999
10.2833
10.1254
10.1263
10.1138
10.0264
9.77807
9.21132
7.80356
1
1.00002
1.00005
1.00014
1.00029
1.00081
1.00164
1.0047
1.00925
1.02858
1.05129
1.185
1.33652
2.25002
4.00656
9.34697
10.2703
10.1436
9.93908
9.88649
9.81434
9.64221
9.26393
8.51181
7.09667
1
1.00002
1.00004
1.00012
1.00025
1.0007
1.00143
1.00405
1.00803
1.02431
1.04434
1.15671
1.28231
2.04949
3.47948
8.138
10.1341
10.0278
9.78382
9.64783
9.52279
9.27451
8.81687
8.07075
6.96467
1
1.00001
1.00003
1.0001
1.00021
1.00059
1.0012
1.00339
1.00669
1.02036
1.0366
1.13093
1.22951
1.86516
2.99106
6.8454
10.0508
9.93666
9.64605
9.41938
9.23877
8.9536
8.48805
7.81227
6.94293
1
1.00001
1.00003
1.00008
1.00018
1.0005
1.00101
1.00285
1.00575
1.01656
1.03256
1.10144
1.19429
1.66277
2.53996
5.47584
9.87462
9.80733
9.53614
9.21389
8.98236
8.68405
8.24456
7.63959
6.91106
1
1.00001
1.00002
1.00007
1.00014
1.0004
1.00082
1.00231
1.00466
1.01334
1.02644
1.08008
1.15722
1.51112
2.18185
4.45752
9.32426
9.57939
9.39856
9.03308
8.76185
8.45924
8.0491
7.50953
6.87558
1
1.00001
1.00002
1.00005
1.00011
1.00032
1.00064
1.0018
1.0036
1.01054
1.01967
1.06578
1.11363
1.42123
1.89283
3.81269
8.12672
9.29556
9.18364
8.89689
8.58178
8.27092
7.88445
7.39878
6.83708
1
1.00001
1.00001
1.00004
1.00009
1.00025
1.0005
1.00141
1.00283
1.00825
1.01549
1.05149
1.08771
1.33011
1.66718
3.17654
6.58316
9.07495
9.01923
8.80048
8.44044
8.11292
7.74709
7.30572
6.80341
1
1
1.00001
1.00003
1.00007
1.00019
1.00039
1.00108
1.00218
1.00624
1.01202
1.03829
1.06644
1.24324
1.47652
2.55966
4.90973
8.76937
8.89313
8.72831
8.36002
7.98934
7.63077
7.22732
6.77584
1
1
1.00001
1.00002
1.00006
1.00013
1.00035
1.00071
1.00201
1.00405
1.01163
1.02298
1.06988
1.13607
1.43875
2.00538
3.8728
7.97468
8.71171
8.59195
8.285
7.88986
7.5342
7.1606
6.75317
1
1
1.00001
1.00002
1.00005
1.00009
1.00026
1.00053
1.00148
1.00299
1.00859
1.01645
1.05279
1.09326
1.33334
1.69659
3.158
6.41889
8.43857
8.40239
8.21385
7.82611
7.46169
7.11171
6.73928
1
1
1
1.00001
1.00003
1.00008
1.00017
1.00046
1.00094
1.00264
1.00531
1.0154
1.02978
1.09391
1.17987
1.59561
2.36844
4.78704
8.06173
8.26673
8.134
7.81131
7.4215
7.07654
6.73436
1
1
1
1.00001
1.00002
1.00005
1.00014
1.00028
1.00077
1.00155
1.00441
1.00859
1.02645
1.04711
1.16608
1.30283
2.06046
3.44116
7.21276
8.12054
8.03604
7.79563
7.42006
7.06704
6.73701
1
1
1
1.00001
1.00001
1.00004
1.00008
1.00023
1.00046
1.00129
1.00252
1.00768
1.01349
1.04809
1.07893
1.29731
1.58875
2.87325
5.59579
7.85994
7.88392
7.75735
7.44209
7.0743
6.74874
1
1
1
1.00001
1.00001
1.00003
1.00006
1.00017
1.00034
1.00094
1.0019
1.00531
1.01067
1.03071
1.06003
1.18516
1.38477
2.15637
3.78868
7.33777
7.80433
7.71224
7.4726
7.10167
6.78194
1
1
1
1
1.00001
1.00002
1.00004
1.00011
1.00023
1.00064
1.00129
1.00363
1.0071
1.02154
1.03846
1.13497
1.23771
1.86291
2.91172
6.09385
7.61284
7.60026
7.47164
7.17225
6.85399
1
1
1
1
1.00001
1.00001
1.00003
1.00007
1.00019
1.00038
1.00104
1.0021
1.00595
1.01142
1.03597
1.06283
1.22296
1.42932
2.37251
4.27906
7.16468
7.52959
7.45826
7.26657
6.98793
1
1
1
1
1
1.00001
1.00002
1.00005
1.00013
1.00026
1.00073
1.00148
1.0041
1.00822
1.02367
1.04488
1.14519
1.27035
1.90617
3.05255
6.16412
7.37584
7.41342
7.3487
7.19625
1
1
1
1
1
1.00001
1.00002
1.00003
1.00009
1.00018
1.00049
1.001
1.00278
1.00559
1.01583
1.03114
1.09451
1.18176
1.58882
2.31585
4.5007
7.00463
7.41748
7.45796
7.4759
1
1
1
1
1
1
1.00001
1.00002
1.00005
1.00014
1.00028
1.00077
1.00155
1.0043
1.00855
1.02497
1.04642
1.15213
1.28616
1.92976
3.10679
6.17802
7.37152
7.68691
7.89756
1
1
1
1
1
1
1.00001
1.00002
1.00003
1.00009
1.00019
1.00052
1.00106
1.00291
1.00587
1.01651
1.03244
1.09837
1.18659
1.60817
2.34786
4.53613
7.1576
8.10704
8.63724
1
1
1
1
1
1
1
1.00001
1.00002
1.00006
1.00013
1.00035
1.00071
1.00196
1.00395
1.01105
1.02222
1.06351
1.13147
1.38332
1.87441
3.35718
6.51501
8.75945
9.70287
1
1
1
1
1
1
1
1.00001
1.00002
1.00004
1.0001
1.00021
1.00057
1.00115
1.00318
1.0064
1.01835
1.03497
1.11169
1.20744
1.70052
2.56861
5.23617
9.61879
10.869
1
1
1
1
1
1
1
1.00001
1.00001
1.00003
1.00006
1.00018
1.00036
1.00101
1.00205
1.00579
1.01144
1.03448
1.06341
1.21479
1.43073
2.38776
4.49607
9.89258
11.65
1
1
1
1
1
1
1
1
1.00001
1.00003
1.00005
1.00015
1.0003
1.00084
1.00171
1.00486
1.00977
1.02896
1.05521
1.18469
1.35937
2.27266
4.15387
9.84307
11.9447
1
1
1
1
1
1
1
1
1.00001
1.00002
1.00004
1.00012
1.00024
1.0007
1.00141
1.00414
1.00798
1.02608
1.04566
1.173
1.31307
2.21579
3.96197
9.69737
11.9383
1
1
1
1
1
1
1
1
1.00001
1.00002
1.00004
1.00009
1.00026
1.00051
1.00153
1.00284
1.00979
1.01636
1.06445
1.10642
1.43348
1.93762
4.07177
9.40291
11.858
1
1
1
1
1
1
1
1
1.00001
1.00001
1.00004
1.00008
1.00024
1.00047
1.00142
1.00262
1.00914
1.01519
1.06065
1.0996
1.41098
1.88507
3.93041
9.10155
11.8052
1
1
1
1
1
1
1
1
1.00001
1.00002
1.00003
1.0001
1.0002
1.00057
1.00113
1.00346
1.00627
1.02248
1.03738
1.14925
1.26381
2.0672
3.55493
8.79834
11.8264
1
1
1
1
1
1
1
1
1.00001
1.00002
1.00003
1.0001
1.0002
1.00056
1.00114
1.00332
1.00648
1.02079
1.03657
1.13994
1.24493
1.99518
3.37209
8.3965
11.8884
1
1
1
1
1
1
1
1
1.00001
1.00002
1.00003
1.00009
1.00018
1.00052
1.00105
1.00309
1.00597
1.01951
1.03384
1.13053
1.22815
1.92451
3.20365
7.90341
12.0321
1
1
1
1
1
1
1
1
1.00001
1.00001
1.00003
1.00007
1.0002
1.00039
1.00115
1.0022
1.00721
1.01228
1.04747
1.07733
1.31525
1.65196
3.20148
7.19628
12.2686
1
1
1
1
1
1
1
1
1.00001
1.00001
1.00003
1.00007
1.0002
1.0004
1.00115
1.00232
1.00679
1.01315
1.04279
1.0754
1.28285
1.5892
2.96534
6.50634
12.5177
1
1
1
1
1
1
1
1
1.00001
1.00001
1.00003
1.00007
1.00018
1.00037
1.00106
1.0021
1.00641
1.01152
1.04124
1.06817
1.26743
1.53746
2.8078
5.96455
12.5803
1
1
1
1
1
1
1
1
1
1.00001
1.00003
1.00008
1.00016
1.00046
1.00093
1.00266
1.00537
1.0159
1.03037
1.10102
1.18759
1.67463
2.59063
5.87973
12.4004
1
1
1
1
1
1
1
1
1
1.00001
1.00003
1.00008
1.00016
1.00045
1.00092
1.00263
1.0053
1.01549
1.03046
1.09653
1.18482
1.64572
2.52964
5.71393
12.1894
1
1
1
1
1
1
1
1
1
1.00001
1.00003
1.00008
1.00016
1.00044
1.0009
1.00257
1.00517
1.01524
1.02931
1.09616
1.17885
1.63923
2.50169
5.61641
12.0852
1
1
1
1
1
1
1
1
1.00001
1.00001
1.00003
1.00006
1.00017
1.00034
1.00098
1.00191
1.00598
1.01037
1.03828
1.06212
1.24336
1.47587
2.62582
5.33758
11.994
1
1
1
1
1
1
1
1
1
1.00001
1.00003
1.00008
1.00015
1.00044
1.00089
1.00252
1.00508
1.01497
1.02871
1.09436
1.1748
1.62397
2.46166
5.48472
11.9078
1
1
1
1
1
1
1
1
1
1.00001
1.00003
1.00008
1.00016
1.00044
1.0009
1.00254
1.00513
1.01493
1.02938
1.0925
1.17653
1.61343
2.4453
5.43979
11.8555
3.86209
3.27957
4.20662
4.27635
4.0217
3.91113
3.85368
3.7699
3.66659
3.57236
3.4968
3.42675
3.35118
3.30785
3.2909
3.28757
3.30776
3.35897
3.43489
3.52781
3.63007
3.7364
3.84167
3.94398
4.0424
4.13697
4.22779
4.31488
4.39815
4.47784
4.55451
4.62632
4.69193
4.75105
4.80411
4.8508
4.89166
4.92613
4.95831
4.98456
5.00282
5.01534
5.02238
5.02436
5.02284
5.01738
5.00598
4.98983
4.97099
4.94924
4.92503
4.89796
4.86866
4.83696
4.80343
4.76785
4.73075
4.6919
4.65178
4.61018
4.56752
4.52367
4.47891
4.43322
4.3868
4.33963
4.29192
4.24363
4.19495
4.14585
4.0965
4.04689
3.99716
3.94732
3.8975
3.84773
3.79812
3.74869
3.69954
3.65067
3.60215
3.55399
3.50624
3.45892
3.41207
3.36572
3.31991
3.2746
3.22988
3.18583
3.14247
3.09984
3.05801
3.01735
2.97805
2.94054
2.90539
2.87359
2.84636
2.82674
4.72234
4.18734
4.3318
4.22154
3.99686
3.9394
3.90042
3.79002
3.66225
3.55303
3.47569
3.41617
3.35595
3.30918
3.28784
3.28298
3.30096
3.35159
3.4284
3.52235
3.62495
3.73178
3.83714
3.9393
4.03732
4.13124
4.22124
4.30751
4.38999
4.46766
4.5449
4.61677
4.68264
4.74174
4.79501
4.84229
4.88355
4.9189
4.95051
4.97633
4.99531
5.00815
5.01558
5.01772
5.01666
5.01231
5.00201
4.98503
4.96595
4.94457
4.92071
4.89408
4.86499
4.83357
4.80014
4.76481
4.72776
4.68915
4.64905
4.60766
4.56504
4.52135
4.47664
4.43108
4.3847
4.33765
4.28997
4.24177
4.19311
4.14408
4.09474
4.04518
3.99545
3.94565
3.89584
3.8461
3.79651
3.74712
3.69799
3.64916
3.60067
3.55253
3.50482
3.4575
3.41071
3.3644
3.3186
3.27323
3.22855
3.1845
3.14117
3.09858
3.05695
3.01628
2.97694
2.93933
2.90403
2.87199
2.84436
2.82425
5.50063
4.74036
4.49182
4.25367
4.03285
3.93297
3.85236
3.75767
3.64972
3.55141
3.47975
3.4195
3.35438
3.30122
3.27097
3.26429
3.28938
3.34104
3.41547
3.50884
3.61036
3.71969
3.82491
3.9276
4.02607
4.12072
4.21158
4.29869
4.38192
4.4614
4.53812
4.60945
4.67499
4.7342
4.78735
4.83454
4.87588
4.91158
4.94243
4.96793
4.98707
5.00019
5.00763
5.00982
5.009
5.00555
4.99693
4.97989
4.96019
4.93866
4.91497
4.88875
4.85995
4.82879
4.7955
4.76032
4.72341
4.68492
4.64496
4.60367
4.56117
4.51758
4.47298
4.42751
4.38122
4.33425
4.28664
4.2385
4.18989
4.1409
4.09158
4.04204
3.99233
3.94254
3.89274
3.84303
3.79347
3.74413
3.69504
3.64624
3.59781
3.54976
3.50214
3.45483
3.40818
3.36204
3.31639
3.27135
3.22675
3.18269
3.13929
3.09669
3.05499
3.01436
2.975
2.93732
2.90182
2.86945
2.84126
2.82037
5.85646
5.06262
4.62106
4.32925
4.10416
3.95686
3.85881
3.75862
3.64993
3.54876
3.47316
3.4077
3.34839
3.30364
3.27895
3.27536
3.29017
3.33656
3.41387
3.50514
3.60524
3.71084
3.81573
3.91802
4.0166
4.11129
4.20208
4.28891
4.37164
4.45028
4.52578
4.5963
4.66129
4.72005
4.77291
4.81968
4.86094
4.89653
4.92706
4.95215
4.97151
4.98486
4.99266
4.99501
4.99441
4.99177
4.98487
4.97027
4.94987
4.92788
4.9043
4.87854
4.85029
4.81965
4.78682
4.75202
4.71541
4.67719
4.63749
4.59644
4.55416
4.51078
4.46639
4.4211
4.37499
4.32817
4.2807
4.23268
4.18417
4.13525
4.086
4.03651
3.98684
3.93711
3.88739
3.83778
3.78835
3.73913
3.69022
3.64155
3.59329
3.54541
3.49801
3.45115
3.40458
3.3584
3.31279
3.26769
3.22322
3.17928
3.13605
3.09355
3.05198
3.01141
2.97213
2.93442
2.8988
2.86612
2.83739
2.81572
6.03617
5.29075
4.78337
4.44831
4.20229
4.01864
3.8915
3.78089
3.67245
3.5767
3.50379
3.44124
3.38733
3.34564
3.32064
3.31632
3.32543
3.35741
3.42499
3.51014
3.60161
3.69971
3.80222
3.90429
4.00334
4.09848
4.1894
4.27608
4.35843
4.43653
4.51068
4.5801
4.64425
4.70251
4.75495
4.80137
4.84226
4.87776
4.90811
4.93303
4.95247
4.96612
4.97429
4.97691
4.97644
4.97436
4.96887
4.95699
4.93718
4.91501
4.89134
4.86579
4.83803
4.80794
4.77564
4.74128
4.70508
4.66722
4.62785
4.58711
4.54513
4.50202
4.45789
4.41284
4.36695
4.32033
4.27303
4.22517
4.17677
4.12797
4.07879
4.02939
3.97979
3.93017
3.88054
3.83111
3.78185
3.73279
3.68402
3.63566
3.5877
3.54008
3.49288
3.44609
3.39971
3.35372
3.30825
3.2633
3.21897
3.17524
3.1322
3.08991
3.04849
3.0081
2.96891
2.9313
2.89563
2.86279
2.83365
2.81113
6.14041
5.46985
4.95382
4.58357
4.31596
4.11255
3.96189
3.83851
3.73326
3.64647
3.57955
3.5264
3.48442
3.45246
3.43259
3.42758
3.43017
3.44132
3.47078
3.53003
3.60056
3.6837
3.78323
3.8878
3.98993
4.08692
4.17801
4.26344
4.34376
4.41954
4.49112
4.55832
4.62076
4.67798
4.72973
4.77593
4.81672
4.85212
4.88233
4.9073
4.92699
4.94127
4.95016
4.9536
4.95328
4.95175
4.94758
4.93835
4.92046
4.89882
4.87511
4.84964
4.82225
4.79274
4.76106
4.72731
4.69164
4.65426
4.61531
4.57496
4.53333
4.49057
4.44673
4.40198
4.35634
4.30996
4.26286
4.21518
4.16691
4.11824
4.06916
4.01986
3.97037
3.92095
3.87135
3.82219
3.77325
3.72464
3.67633
3.62832
3.58064
3.53325
3.48622
3.43957
3.39338
3.34762
3.30237
3.25764
3.21351
3.17003
3.12724
3.08524
3.04409
3.004
2.96508
2.92774
2.89226
2.85953
2.83029
2.80737
6.21005
5.60886
5.11037
4.72567
4.43559
4.2181
4.05519
3.92978
3.83344
3.76172
3.71264
3.67898
3.65497
3.63629
3.62036
3.60553
3.59075
3.57181
3.56957
3.57765
3.60483
3.66493
3.74739
3.85361
3.96102
4.06367
4.15811
4.24416
4.3233
4.39701
4.46632
4.53144
4.59238
4.64875
4.70011
4.74614
4.787
4.82249
4.85283
4.87796
4.89803
4.91299
4.92276
4.92726
4.92708
4.92597
4.92278
4.91552
4.90071
4.88002
4.85658
4.83125
4.80413
4.77506
4.74395
4.71081
4.67574
4.6389
4.60044
4.56054
4.51931
4.47692
4.43343
4.38899
4.34364
4.29752
4.25064
4.20314
4.15504
4.1065
4.05757
4.00841
3.9591
3.90995
3.8612
3.81237
3.76383
3.71552
3.6675
3.61969
3.57221
3.52501
3.47821
3.43177
3.38583
3.34032
3.29537
3.25093
3.20713
3.16397
3.12155
3.07994
3.03922
2.99958
2.96114
2.92429
2.88928
2.85699
2.82804
2.80537
6.2565
5.71891
5.24807
4.86464
4.56435
4.33382
4.16687
4.04353
3.96227
3.91684
3.89498
3.88775
3.88796
3.88546
3.87676
3.85612
3.81379
3.74648
3.68546
3.65468
3.65851
3.67749
3.72473
3.81058
3.91547
4.02464
4.12628
4.21748
4.29867
4.37196
4.43918
4.50184
4.56052
4.61533
4.66579
4.71138
4.75211
4.78787
4.81843
4.84387
4.86443
4.88012
4.89085
4.89664
4.89678
4.89608
4.89368
4.88798
4.8761
4.85712
4.83464
4.80982
4.78302
4.75431
4.72369
4.69114
4.65669
4.62046
4.58257
4.54318
4.50242
4.46045
4.41736
4.37328
4.32827
4.28243
4.2358
4.18851
4.14061
4.09225
4.04354
3.99475
3.94606
3.89737
3.84891
3.80053
3.75235
3.70431
3.65656
3.60899
3.56181
3.51489
3.46842
3.4223
3.37671
3.33154
3.28698
3.24294
3.19957
3.15687
3.11494
3.07386
3.03374
2.99475
2.95703
2.92097
2.8868
2.85543
2.82723
2.8056
6.29094
5.80981
5.36985
4.99751
4.69762
4.46555
4.30043
4.19136
4.13859
4.13227
4.13795
4.15598
4.19207
4.19134
4.1815
4.14978
4.07715
3.94713
3.83219
3.75561
3.7266
3.73043
3.74783
3.79112
3.87517
3.97024
4.07299
4.17089
4.25908
4.33672
4.40535
4.46734
4.52437
4.57745
4.62661
4.67162
4.71213
4.74798
4.77886
4.80497
4.82624
4.84284
4.85472
4.86179
4.8632
4.86269
4.86084
4.85634
4.84689
4.83021
4.80939
4.78555
4.7593
4.73101
4.70083
4.66881
4.63496
4.59936
4.56207
4.52326
4.48302
4.44154
4.39888
4.3552
4.31052
4.26498
4.21859
4.17152
4.12381
4.07575
4.02757
3.97938
3.93124
3.88307
3.83498
3.78696
3.73912
3.69141
3.64398
3.59677
3.54994
3.5034
3.45731
3.41159
3.36639
3.32167
3.27754
3.234
3.19114
3.14901
3.10769
3.06732
3.02796
2.98988
2.95316
2.91826
2.88536
2.85548
2.82839
2.8085
6.31925
5.88518
5.47919
5.1259
4.83703
4.61528
4.46461
4.38738
4.38494
4.3961
4.42975
4.50023
4.54387
4.53924
4.51624
4.45506
4.32517
4.15045
3.99991
3.89103
3.82687
3.80589
3.80924
3.82407
3.86101
3.93505
4.01185
4.10417
4.19787
4.28373
4.35915
4.42503
4.48341
4.53614
4.58426
4.62823
4.66805
4.70365
4.73482
4.76164
4.78365
4.8013
4.81457
4.823
4.82613
4.8258
4.82446
4.82104
4.81372
4.79949
4.78057
4.75808
4.73276
4.70512
4.67546
4.64396
4.61066
4.57566
4.53899
4.50079
4.46113
4.42018
4.37799
4.33474
4.29042
4.24518
4.19906
4.15224
4.10503
4.0576
4.01005
3.96241
3.91473
3.867
3.81932
3.77168
3.72423
3.67691
3.62989
3.58308
3.53666
3.49055
3.4449
3.39965
3.35494
3.31073
3.26715
3.2242
3.18199
3.14058
3.10005
3.06058
3.02224
2.98534
2.94998
2.91669
2.88557
2.8575
2.8323
2.81563
6.3452
5.95231
5.58306
5.25733
4.99185
4.79553
4.67955
4.66135
4.67411
4.71475
4.80336
4.89943
4.91484
4.90091
4.85211
4.73916
4.54224
4.34827
4.18361
4.05647
3.96693
3.91331
3.8895
3.89075
3.89985
3.92601
3.98149
4.04221
4.12202
4.20958
4.29285
4.36702
4.43171
4.48796
4.53737
4.58126
4.62053
4.65566
4.68679
4.71394
4.73699
4.75567
4.77022
4.78014
4.78535
4.78529
4.78451
4.7821
4.77657
4.76522
4.74802
4.72705
4.70298
4.67628
4.64732
4.61638
4.58364
4.5492
4.51312
4.47552
4.43646
4.39607
4.3544
4.31158
4.26765
4.2227
4.17695
4.1307
4.08415
4.03733
3.99035
3.94319
3.89598
3.84871
3.8015
3.75433
3.70735
3.66049
3.61395
3.56762
3.52171
3.47609
3.43098
3.38627
3.34215
3.29856
3.25565
3.21342
3.17201
3.13148
3.09196
3.05364
3.01664
2.9813
2.94778
2.91672
2.88768
2.8626
2.84046
2.82863
6.37681
6.01979
5.68784
5.39798
5.17061
5.02027
4.97315
4.98408
5.02377
5.11467
5.24474
5.30015
5.29107
5.25242
5.15616
4.9618
4.74447
4.54702
4.37942
4.24245
4.13474
4.05474
4.00056
3.96903
3.9608
3.96446
3.97922
4.01445
4.0636
4.1286
4.20867
4.28872
4.36214
4.42635
4.48141
4.5285
4.56915
4.60462
4.63578
4.66309
4.68666
4.70643
4.72204
4.73336
4.74047
4.74196
4.74148
4.73975
4.73558
4.72686
4.7117
4.69253
4.66996
4.64444
4.6164
4.58619
4.55407
4.52021
4.48474
4.44775
4.40929
4.36948
4.32834
4.28596
4.24237
4.19788
4.15279
4.10726
4.06137
4.01516
3.96874
3.92213
3.87546
3.82872
3.78206
3.73542
3.68899
3.64268
3.59669
3.55092
3.50558
3.46056
3.41606
3.372
3.32857
3.28571
3.2436
3.20225
3.16181
3.12239
3.08414
3.04728
3.01201
2.97871
2.94769
2.91894
2.89314
2.87242
2.85457
2.8487
6.40915
6.09272
5.80417
5.56455
5.39449
5.32006
5.32736
5.36166
5.44574
5.59311
5.67959
5.67563
5.64596
5.56242
5.3865
5.15681
4.94061
4.75021
4.58495
4.44206
4.32021
4.21874
4.13809
4.07784
4.03787
4.01464
4.01502
4.02104
4.03969
4.07772
4.12685
4.19834
4.27369
4.34531
4.40902
4.46363
4.50963
4.54833
4.5812
4.60938
4.63356
4.65398
4.67072
4.68315
4.69182
4.69544
4.6952
4.69406
4.69107
4.68462
4.67177
4.65446
4.63347
4.60932
4.58242
4.55314
4.52177
4.48858
4.45372
4.41732
4.37945
4.34019
4.29956
4.25759
4.21456
4.17079
4.12644
4.0816
4.03638
3.9908
3.945
3.89899
3.85293
3.80678
3.76072
3.71469
3.66887
3.62317
3.57781
3.53268
3.48799
3.44365
3.39987
3.35657
3.31395
3.27197
3.23082
3.19054
3.15131
3.11328
3.07663
3.04168
3.00866
2.97813
2.94973
2.92461
2.90357
2.88832
2.87667
2.87675
6.45162
6.18054
5.95039
5.7797
5.69373
5.69875
5.73014
5.81011
5.95981
6.06292
6.06134
6.03579
5.95797
5.7906
5.56238
5.3402
5.13888
4.95869
4.79542
4.64696
4.5131
4.39448
4.2923
4.20721
4.13988
4.09086
4.0604
4.04793
4.05011
4.06038
4.08375
4.12196
4.18014
4.24883
4.31733
4.38024
4.43488
4.48086
4.519
4.55059
4.57676
4.59843
4.61619
4.62978
4.63971
4.6453
4.64555
4.64496
4.64295
4.63819
4.62834
4.61263
4.59322
4.5706
4.54507
4.51694
4.48652
4.45412
4.41993
4.38416
4.34687
4.30815
4.26796
4.22656
4.18431
4.14134
4.09777
4.05366
4.00915
3.96427
3.91918
3.87386
3.82849
3.78302
3.73765
3.69229
3.64717
3.60217
3.55754
3.51313
3.46923
3.42568
3.38275
3.34034
3.29869
3.25777
3.2178
3.17884
3.14112
3.10484
3.07028
3.03778
3.00781
2.98017
2.95558
2.93577
2.92103
2.91277
2.91046
2.91182
6.52286
6.30874
6.15355
6.07653
6.083
6.11936
6.20918
6.35801
6.45981
6.45826
6.43087
6.34815
6.17306
5.94776
5.72755
5.52574
5.34009
5.16635
5.00285
4.84905
4.70553
4.57377
4.45518
4.35122
4.26277
4.19016
4.13412
4.09512
4.07104
4.06852
4.07251
4.08474
4.11134
4.15645
4.21632
4.2801
4.34107
4.39586
4.4428
4.48154
4.51283
4.53788
4.55773
4.57311
4.58418
4.59114
4.59312
4.59275
4.59131
4.58777
4.5803
4.56669
4.54917
4.52828
4.5043
4.4775
4.44821
4.41674
4.38334
4.34823
4.31154
4.27328
4.23368
4.19308
4.15167
4.10952
4.06677
4.02345
3.97975
3.93565
3.89134
3.84678
3.80218
3.75747
3.71286
3.66827
3.62393
3.57973
3.5359
3.49236
3.44932
3.40671
3.36475
3.32342
3.28291
3.24328
3.20473
3.16744
3.13162
3.09761
3.06574
3.03656
3.00981
2.98621
2.96737
2.95456
2.94785
2.94832
2.9508
2.95826
6.63676
6.49905
6.44965
6.46228
6.51401
6.63201
6.78834
6.88145
6.87726
6.84122
6.74197
6.5406
6.31566
6.09832
5.89849
5.71359
5.53818
5.36821
5.20353
5.04507
4.89408
4.75246
4.62161
4.50309
4.39771
4.30639
4.22932
4.16787
4.12107
4.0901
4.07403
4.0751
4.08019
4.09523
4.12737
4.17701
4.23354
4.29252
4.34777
4.39593
4.43581
4.46769
4.49236
4.51107
4.52428
4.53293
4.53696
4.5368
4.53587
4.53332
4.52775
4.51654
4.50107
4.48204
4.45975
4.43446
4.40648
4.37611
4.34365
4.30931
4.27323
4.23559
4.1968
4.15705
4.11652
4.07523
4.03337
3.99093
3.94811
3.90487
3.86142
3.81773
3.77398
3.73013
3.68637
3.64266
3.59918
3.55591
3.51299
3.47044
3.4284
3.38691
3.34609
3.30605
3.26693
3.22889
3.19212
3.15693
3.12357
3.09251
3.06429
3.03861
3.01619
2.99872
2.9875
2.98412
2.98523
2.98966
3.00091
3.02617
6.82485
6.80035
6.82406
6.90215
7.0687
7.24441
7.33107
7.32144
7.27018
7.14247
6.91056
6.675
6.45621
6.25738
6.07374
5.89896
5.72846
5.55995
5.39406
5.23215
5.07598
4.92737
4.78779
4.65851
4.54038
4.4343
4.34051
4.25968
4.19254
4.13918
4.10023
4.07555
4.06808
4.06858
4.07417
4.0912
4.12758
4.17901
4.23496
4.28971
4.33914
4.38088
4.41401
4.43911
4.45716
4.4689
4.47574
4.47672
4.47619
4.47443
4.47034
4.46192
4.44842
4.43131
4.41087
4.38731
4.36087
4.33184
4.30051
4.2671
4.23181
4.19505
4.15719
4.11838
4.07878
4.03845
3.99755
3.95609
3.91423
3.87196
3.82947
3.78674
3.74394
3.70106
3.65826
3.61555
3.57306
3.53083
3.48898
3.44757
3.40672
3.36651
3.32709
3.28857
3.25118
3.21509
3.18062
3.14811
3.11799
3.09094
3.0665
3.0454
3.02979
3.02007
3.01984
3.0216
3.02771
3.0421
3.06964
3.1248
7.14268
7.17718
7.28565
7.51116
7.72281
7.80773
7.79114
7.71935
7.55155
7.29169
7.03491
6.80648
6.60468
6.42103
6.24718
6.07743
5.90892
5.74075
5.57382
5.40977
5.25041
5.09716
4.9515
4.81429
4.68665
4.56887
4.46206
4.36622
4.28221
4.21018
4.15069
4.10429
4.07164
4.05634
4.04651
4.04783
4.05588
4.07631
4.11791
4.16814
4.22176
4.27195
4.31528
4.35029
4.37668
4.39513
4.40655
4.41148
4.41134
4.41036
4.4077
4.40195
4.39068
4.37559
4.35713
4.33549
4.31085
4.28343
4.25351
4.22126
4.18708
4.15147
4.1147
4.07696
4.03839
3.99912
3.95926
3.91887
3.87806
3.83689
3.79545
3.7538
3.71205
3.67026
3.62854
3.58695
3.5456
3.50456
3.46396
3.42387
3.38442
3.34575
3.30802
3.27139
3.23616
3.20256
3.17107
3.14208
3.11644
3.09342
3.07391
3.06023
3.05357
3.05417
3.0575
3.0665
3.08608
3.12533
3.16682
3.23903
7.53864
7.69135
7.98601
8.2289
8.31478
8.29037
8.19498
7.98169
7.6847
7.40241
7.15716
6.9458
6.75792
6.58312
6.41413
6.2466
6.07902
5.9113
5.74405
5.57913
5.41805
5.26194
5.11213
4.96937
4.83459
4.70824
4.59096
4.48307
4.3851
4.29751
4.22067
4.15526
4.10201
4.06205
4.03719
4.02017
4.01114
4.01393
4.02508
4.05042
4.09528
4.14401
4.19353
4.23856
4.27605
4.30468
4.32502
4.33641
4.34087
4.34052
4.33901
4.33531
4.32756
4.31471
4.29826
4.27862
4.25597
4.23046
4.20222
4.17152
4.13888
4.10469
4.06922
4.0327
3.99532
3.95722
3.91851
3.8793
3.83966
3.79967
3.7594
3.71895
3.67839
3.63782
3.59732
3.55701
3.51696
3.47731
3.43814
3.39963
3.36185
3.32505
3.28938
3.25513
3.22264
3.19233
3.16474
3.14068
3.11941
3.10171
3.09005
3.08701
3.08834
3.09344
3.10613
3.13269
3.1757
3.23263
3.28372
3.3593
8.18134
8.50478
8.76854
8.84839
8.81425
8.68977
8.4213
8.08789
7.77768
7.51255
7.28804
7.09232
6.91377
6.74343
6.57607
6.4091
6.24187
6.07465
5.9078
5.74304
5.58116
5.42328
5.27046
5.1235
4.98307
4.84983
4.72418
4.60664
4.49739
4.39693
4.30584
4.22441
4.15363
4.09393
4.04646
4.01284
3.98875
3.96958
3.96764
3.9719
3.98533
4.01475
4.0589
4.10636
4.15206
4.19192
4.22368
4.24598
4.25921
4.26382
4.26339
4.26157
4.2572
4.24816
4.23419
4.2166
4.196
4.17256
4.14637
4.11766
4.08695
4.05449
4.02061
3.98554
3.94954
3.91276
3.87535
3.83742
3.79906
3.76036
3.7214
3.68226
3.64304
3.60382
3.56474
3.52586
3.48735
3.44929
3.41185
3.37517
3.33945
3.30492
3.27186
3.24065
3.21177
3.18578
3.1637
3.1442
3.12912
3.11957
3.11982
3.12231
3.12986
3.14702
3.18159
3.23081
3.28848
3.3537
3.40612
3.47376
9.09165
9.37948
9.43147
9.38075
9.21389
8.87113
8.50038
8.16176
7.87551
7.63589
7.42972
7.24433
7.07025
6.90121
6.73395
6.56713
6.40034
6.23383
6.06792
5.90315
5.74076
5.58163
5.42648
5.2761
5.13109
4.99211
4.85948
4.73379
4.61527
4.5045
4.40166
4.30734
4.22171
4.14558
4.07979
4.02529
3.98362
3.95222
3.92716
3.91071
3.912
3.9187
3.9356
3.97014
4.01254
4.05762
4.09901
4.13318
4.15826
4.17391
4.17999
4.17968
4.17797
4.17355
4.1643
4.14942
4.13087
4.1095
4.08553
4.05924
4.03083
4.00051
3.96858
3.93528
3.90091
3.86567
3.82974
3.79326
3.75633
3.71907
3.68155
3.64388
3.60616
3.56849
3.531
3.4938
3.45706
3.42087
3.38548
3.35104
3.31785
3.28619
3.25648
3.22929
3.20516
3.18546
3.16789
3.15539
3.14998
3.15102
3.15547
3.16688
3.19105
3.23346
3.28724
3.34935
3.4127
3.47526
3.5197
3.5727
10.0731
10.0847
10.008
9.77882
9.33632
8.91569
8.55
8.24446
7.99084
7.77432
7.58114
7.40115
7.22814
7.05854
6.89053
6.72332
6.55655
6.39029
6.2248
6.06002
5.89717
5.73678
5.57951
5.42614
5.27719
5.13333
4.99492
4.86249
4.73626
4.61675
4.50413
4.39891
4.30129
4.21182
4.1311
4.05989
3.99917
3.94956
3.91258
3.87888
3.85433
3.84708
3.84942
3.8582
3.87839
3.91578
3.95645
3.99773
4.03408
4.06225
4.08077
4.08997
4.08995
4.08869
4.0848
4.07621
4.06069
4.04163
4.01996
3.99615
3.97028
3.94244
3.91283
3.8817
3.84932
3.81591
3.78169
3.74684
3.71152
3.67586
3.63995
3.60394
3.5679
3.53201
3.49635
3.46111
3.42643
3.39252
3.3596
3.32795
3.29792
3.26998
3.24474
3.22289
3.20558
3.19087
3.18024
3.17995
3.18199
3.18903
3.20543
3.23882
3.28718
3.34615
3.41082
3.4757
3.5345
3.58434
3.61515
3.6519
10.8511
10.7132
10.3729
9.83037
9.34732
8.94462
8.61826
8.35188
8.12675
7.92675
7.74086
7.56258
7.38862
7.21729
7.04769
6.87931
6.7118
6.54503
6.3791
6.21363
6.05004
5.88826
5.72901
5.57288
5.42047
5.27224
5.12876
4.99045
4.85764
4.73068
4.60984
4.49541
4.38775
4.28726
4.19447
4.10974
4.03397
3.96758
3.91159
3.86786
3.82736
3.79642
3.77651
3.77669
3.78012
3.79089
3.81442
3.85141
3.89092
3.92833
3.95934
3.98129
3.99367
3.9958
3.99487
3.99159
3.98406
3.96898
3.95023
3.92888
3.90547
3.88019
3.85318
3.82459
3.79458
3.76336
3.73119
3.69825
3.66479
3.63093
3.59686
3.5627
3.5286
3.49471
3.4612
3.42824
3.39605
3.36487
3.33503
3.3069
3.281
3.25796
3.2389
3.22393
3.21228
3.20608
3.20705
3.21157
3.22316
3.24763
3.29007
3.34413
3.40704
3.47365
3.53818
3.59547
3.64006
3.67373
3.69053
3.71289
11.5049
11.0806
10.3756
9.80367
9.35085
8.99489
8.71756
8.48774
8.28356
8.09252
7.90833
7.72841
7.55169
7.37747
7.20538
7.03492
6.86574
6.6975
6.53015
6.36399
6.19836
6.03484
5.87357
5.71491
5.55938
5.40756
5.25976
5.11651
4.97805
4.84482
4.71701
4.595
4.47902
4.36941
4.26648
4.17062
4.08234
4.00215
3.93079
3.8688
3.81839
3.77321
3.73451
3.70865
3.69756
3.69849
3.7036
3.71719
3.74498
3.78093
3.81847
3.85138
3.87629
3.89181
3.89776
3.89727
3.89484
3.88873
3.87604
3.85817
3.83725
3.8144
3.78997
3.76405
3.73666
3.70797
3.67818
3.64751
3.6162
3.58444
3.55246
3.52043
3.48856
3.45701
3.42601
3.39578
3.36662
3.33885
3.3129
3.28936
3.26889
3.25274
3.24106
3.23182
3.2314
3.23372
3.24132
3.25881
3.29404
3.34282
3.4028
3.46937
3.53715
3.60051
3.65471
3.69643
3.72454
3.74224
3.74816
3.75994
11.6942
11.0526
10.3133
9.75646
9.37072
9.0823
8.85166
8.64798
8.45487
8.26599
8.07988
7.89638
7.71582
7.53808
7.36284
7.18956
7.01777
6.84721
6.67762
6.50907
6.34142
6.17607
6.01265
5.85153
5.69313
5.53796
5.38633
5.23873
5.09537
4.95671
4.82291
4.69439
4.57131
4.45398
4.3427
4.23768
4.13941
4.04813
3.9645
3.88901
3.82231
3.76608
3.71551
3.67142
3.63822
3.61914
3.61421
3.61617
3.6236
3.64047
3.67244
3.70689
3.74034
3.76819
3.78705
3.7976
3.79761
3.79633
3.79215
3.78291
3.76603
3.74625
3.7244
3.70101
3.67621
3.6502
3.62307
3.595
3.56618
3.53685
3.50728
3.4777
3.44839
3.41959
3.39156
3.36466
3.33923
3.31581
3.29488
3.27747
3.26468
3.25604
3.25165
3.2529
3.25831
3.27155
3.29913
3.34288
3.39851
3.46309
3.53211
3.60004
3.6614
3.71217
3.74982
3.77449
3.78753
3.79348
3.79443
3.79722
11.6099
10.8723
10.1826
9.74186
9.43212
9.21081
9.01305
8.82026
8.62801
8.43639
8.24655
8.05943
7.87536
7.69431
7.51583
7.33951
7.16482
6.9915
6.81934
6.64851
6.47902
6.31062
6.14477
5.98133
5.82038
5.66223
5.5072
5.35574
5.2081
5.06471
4.92576
4.79165
4.66253
4.53873
4.42042
4.30784
4.2013
4.10102
4.00743
3.92091
3.84203
3.77134
3.71018
3.65534
3.60643
3.56737
3.54203
3.52764
3.528
3.53149
3.54166
3.5634
3.59608
3.63006
3.65968
3.6819
3.69527
3.69932
3.69862
3.69585
3.68902
3.67513
3.65693
3.6361
3.61379
3.59043
3.56608
3.54085
3.51486
3.48839
3.46166
3.43502
3.40876
3.38324
3.35886
3.33605
3.31536
3.29745
3.28294
3.2744
3.26899
3.26951
3.27296
3.28269
3.30363
3.34288
3.39354
3.45525
3.52397
3.59457
3.66157
3.72001