/*--------------------------------*- C++ -*----------------------------------*\
| =========                 |                                                 |
| \\      /  F ield         | OpenFOAM: The Open Source CFD Toolbox           |
|  \\    /   O peration     | Version:  2112                                  |
|   \\  /    A nd           | Website:  www.openfoam.com                      |
|    \\/     M anipulation  |                                                 |
\*---------------------------------------------------------------------------*/
FoamFile
{
    version     2.0;
    format      ascii;
    arch        "LSB;label=32;scalar=64";
    class       surfaceScalarField;
    location    "8.5";
    object      phi;
}
// * * * * * * * * * * * * * * * * * * * * * * * * * * * * * * * * * * * * * //

dimensions      [1 0 -1 0 0 0 0];

oriented        oriented;

internalField   nonuniform List<scalar> 
10325
(
0.00840003
1.08188e-10
0.00840003
8.37234e-10
0.00840002
2.58754e-09
0.00840002
7.767e-09
0.0084
1.85431e-08
0.00839994
4.80028e-08
0.00839983
1.13428e-07
0.00839952
2.65458e-07
0.00839886
6.54357e-07
0.00839715
1.4758e-06
0.00839323
3.79365e-06
0.00838235
1.00292e-05
0.00834749
3.3927e-05
0.00822021
0.000124089
0.0076292
0.000581869
0.00701039
0.000618808
0.00639023
0.00062019
0.00575559
0.000634556
0.00509379
0.000661316
0.00438935
0.000703804
0.00362969
0.00075907
0.00281251
0.000816401
0.00194039
0.00087145
0.00100781
0.000931622
0.00100667
0.00840003
2.1803e-10
0.00840003
1.69052e-09
0.00840002
5.1752e-09
0.00840002
1.56022e-08
0.0084
3.71532e-08
0.00839994
9.65585e-08
0.00839982
2.29802e-07
0.00839952
5.31769e-07
0.00839881
1.33814e-06
0.0083971
2.97485e-06
0.00839293
7.80936e-06
0.00838155
2.05557e-05
0.00834489
6.96389e-05
0.0082116
0.000254149
0.00760529
0.00117884
0.00697844
0.00124572
0.00636866
0.00123003
0.00573802
0.00126511
0.00507905
0.00131982
0.00436878
0.00141346
0.00360242
0.00152486
0.00277921
0.00163884
0.00189831
0.00175171
0.000964415
0.00186457
0.00196993
0.00840003
2.99045e-10
0.00840003
2.31996e-09
0.00840003
7.137e-09
0.00840002
2.15016e-08
0.0084
5.10851e-08
0.00839996
1.34647e-07
0.00839988
3.0905e-07
0.00839959
7.81093e-07
0.00839913
1.77354e-06
0.00839718
4.71053e-06
0.00839353
1.1278e-05
0.00838131
3.18985e-05
0.00834442
0.000105537
0.00820904
0.000386237
0.00759317
0.00178487
0.00695719
0.00188198
0.00635682
0.00183065
0.00573682
0.0018849
0.00508516
0.00197108
0.00438042
0.00211771
0.00361457
0.00229013
0.00278935
0.00246327
0.00190417
0.00263631
0.000964444
0.00280337
0.00293323
0.00840003
3.71946e-10
0.00840003
2.88444e-09
0.00840003
8.84431e-09
0.00840002
2.66947e-08
0.00840001
6.32264e-08
0.00839997
1.68139e-07
0.00839989
3.80813e-07
0.00839964
9.95718e-07
0.00839921
2.18919e-06
0.00839743
6.25004e-06
0.00839435
1.42477e-05
0.00838112
4.42043e-05
0.00834716
0.000138492
0.00821249
0.000517498
0.00759384
0.0023929
0.00695482
0.00252177
0.00636755
0.00241845
0.00576162
0.00249072
0.00512269
0.00260965
0.00442698
0.00281321
0.00367254
0.00304415
0.0028487
0.00328665
0.00195327
0.00353079
0.000994412
0.00376134
0.00392661
0.00840003
4.1612e-10
0.00840003
3.22677e-09
0.00840003
9.9305e-09
0.00840002
2.99467e-08
0.00840001
7.07891e-08
0.00839999
1.89962e-07
0.00839994
4.20202e-07
0.00839974
1.15522e-06
0.0083995
2.42413e-06
0.00839807
7.42935e-06
0.00839645
1.58453e-05
0.00838256
5.70018e-05
0.00836183
0.00015862
0.00822639
0.000649264
0.00763922
0.00296824
0.00699982
0.00316275
0.00642052
0.00299865
0.00582834
0.00308279
0.00520634
0.00323141
0.00452538
0.00349371
0.00377774
0.00379142
0.00295902
0.00410478
0.00205468
0.00443554
0.00105815
0.00475707
0.00498381
0.00840003
4.57898e-10
0.00840003
3.55061e-09
0.00840003
1.08835e-08
0.00840002
3.28951e-08
0.00840002
7.7504e-08
0.00839999
2.09676e-07
0.00839995
4.59452e-07
0.00839977
1.29103e-06
0.00839951
2.68516e-06
0.00839831
8.38341e-06
0.00839621
1.78937e-05
0.00838651
6.56526e-05
0.00836727
0.000176962
0.00825556
0.000756486
0.00775797
0.00345242
0.00710942
0.00381361
0.00652849
0.00358099
0.00594751
0.00366393
0.00534219
0.00383683
0.00468555
0.00415001
0.0039536
0.00452354
0.00313096
0.00492666
0.00220515
0.00536068
0.00115807
0.00580344
0.00614108
0.00840003
4.698e-10
0.00840003
3.6416e-09
0.00840003
1.12338e-08
0.00840003
3.38892e-08
0.00840002
7.95401e-08
0.00840001
2.18801e-07
0.00840001
4.55877e-07
0.00839984
1.42048e-06
0.00839991
2.61066e-06
0.0083983
9.75515e-06
0.0083969
1.9222e-05
0.00838785
7.3616e-05
0.00836618
0.000197634
0.00829565
0.000822734
0.00798768
0.00374514
0.0073117
0.00449298
0.00671677
0.00417779
0.0061412
0.00423987
0.00555083
0.00442754
0.00490967
0.00479091
0.00419635
0.00523687
0.00338763
0.00573546
0.00244586
0.00630294
0.00132782
0.00692112
0.00746825
0.00840003
5.1189e-10
0.00840003
3.97465e-09
0.00840003
1.22898e-08
0.00840002
3.70638e-08
0.00840001
8.72754e-08
0.00839999
2.38596e-07
0.00839994
5.03557e-07
0.00839979
1.53751e-06
0.00839956
2.83727e-06
0.00839856
1.05107e-05
0.00839732
2.04397e-05
0.0083925
7.73513e-05
0.00838322
0.000205827
0.0083729
0.000829255
0.008405
0.00369668
0.00770236
0.00520015
0.00702895
0.00485346
0.00644542
0.00482406
0.00587317
0.00500005
0.00524699
0.00541764
0.00454722
0.00593634
0.00374172
0.00654045
0.0027949
0.00724933
0.00160077
0.00811529
0.00906876
0.00840003
4.59621e-10
0.00840003
4.59516e-09
0.00840003
1.34556e-08
0.00840002
4.18269e-08
0.00840001
9.59615e-08
0.00839998
2.64005e-07
0.00839991
5.6763e-07
0.00839982
1.60078e-06
0.00839951
3.14111e-06
0.00839932
1.04746e-05
0.00840071
1.90064e-05
0.00840163
7.53949e-05
0.00841647
0.000189882
0.00848368
0.000758869
0.00911106
0.00305242
0.00836207
0.00595173
0.00752083
0.00569747
0.00692135
0.00542508
0.00630156
0.00562039
0.00569664
0.00602269
0.00502028
0.00661361
0.00427533
0.00728615
0.00337194
0.00815305
0.00210694
0.00938001
0.0111755
0.00840003
1.04313e-10
0.00840003
5.47108e-09
0.00840004
6.93297e-09
0.00840003
4.66398e-08
0.00840007
5.09367e-08
0.00840004
2.91334e-07
0.00840032
2.84304e-07
0.00840006
1.84034e-06
0.00840194
1.24742e-06
0.00839921
1.3069e-05
0.00841211
6.49853e-06
0.00839808
8.89829e-05
0.00850107
8.59078e-05
0.00867829
0.000579992
0.00977677
0.00194417
0.00915833
0.00656652
0.00818266
0.00667249
0.00755715
0.00605272
0.00691765
0.00626056
0.00630686
0.00663339
0.00568385
0.00723588
0.00500898
0.00796109
0.00415941
0.00900287
0.00294538
0.0105944
0.0141209
0.00840003
8.83235e-10
0.00840003
1.46461e-09
0.00840003
1.36028e-08
0.00840006
1.59909e-08
0.00840001
9.44494e-08
0.0084002
1.0253e-07
0.00839989
5.78131e-07
0.00840115
5.75359e-07
0.00839858
3.77364e-06
0.00840856
3.01225e-06
0.00838647
2.77882e-05
0.00845563
1.94392e-05
0.00833231
0.000207981
0.00862742
0.000284197
0.00884485
0.00171879
0.00893639
0.00646433
0.00870162
0.00690585
0.008007
0.00674761
0.00746806
0.00680011
0.00695087
0.00715122
0.00646098
0.00772601
0.00593904
0.00848285
0.00547971
0.009462
0.00543067
0.0106436
0.0114241
0.00812783
0.00840003
4.67504e-10
0.00840003
2.63244e-09
0.00840003
8.8693e-09
0.00840002
2.52645e-08
0.00840005
6.31514e-08
0.00839999
1.61476e-07
0.00840019
3.84095e-07
0.00839978
9.59878e-07
0.00840122
2.33188e-06
0.00839831
5.79856e-06
0.00841104
1.50648e-05
0.00839006
3.97713e-05
0.00848785
0.000110002
0.00836216
0.000407837
0.0088519
0.00122381
0.00900924
0.0062949
0.00868113
0.00723264
0.00824444
0.00718392
0.00783691
0.00720714
0.00742468
0.00756348
0.0070613
0.00808952
0.00676315
0.00878112
0.00663624
0.00958843
0.00701172
0.0102677
0.0104897
0.00794619
0.00840003
3.70555e-10
0.00840003
2.87978e-09
0.00840003
8.78954e-09
0.00840003
2.66408e-08
0.00840003
6.3001e-08
0.00840002
1.68983e-07
0.00840002
3.80519e-07
0.00839995
1.00304e-06
0.00840004
2.23383e-06
0.00839973
6.01933e-06
0.00840142
1.3263e-05
0.00840059
4.01645e-05
0.00841291
9.69971e-05
0.00845554
0.000363394
0.00858912
0.00108609
0.00908518
0.00578563
0.00883313
0.00748401
0.00851026
0.00750621
0.00818757
0.00752913
0.00789312
0.00785743
0.00762475
0.00835771
0.0074889
0.00891732
0.0075998
0.00947785
0.00801723
0.0098501
0.00988075
0.00862585
0.00840003
3.26343e-10
0.00840003
2.52423e-09
0.00840003
7.82069e-09
0.00840003
2.34528e-08
0.00840004
5.55617e-08
0.00840006
1.46771e-07
0.00840011
3.28511e-07
0.00840023
8.69804e-07
0.00840064
1.8131e-06
0.00840094
5.64182e-06
0.00840441
9.75853e-06
0.00840301
4.10999e-05
0.00842389
7.58169e-05
0.00843296
0.000352717
0.00857692
0.000939257
0.00943284
0.00491715
0.00917266
0.00774463
0.00878998
0.00788896
0.00852187
0.00779675
0.00832766
0.00805041
0.0081906
0.00849375
0.00816058
0.00894681
0.00829148
0.00934738
0.00863241
0.00950968
0.00941233
0.00910085
0.00840003
3.17531e-10
0.00840003
2.46173e-09
0.00840003
7.56158e-09
0.00840003
2.27943e-08
0.00840003
5.39874e-08
0.00840003
1.43501e-07
0.00840004
3.2293e-07
0.00840005
8.42238e-07
0.00839999
1.86578e-06
0.00840058
4.98765e-06
0.00839942
1.08642e-05
0.00840751
3.26015e-05
0.00841196
7.11068e-05
0.00849492
0.000268102
0.00870153
0.00073072
0.0102448
0.00335892
0.0097452
0.00824534
0.00933724
0.00829841
0.00894202
0.00819321
0.00874033
0.00825166
0.00866902
0.00856424
0.00870881
0.00890616
0.00885147
0.00920422
0.00909469
0.00926617
0.00905257
0.00945415
0.00840003
2.9369e-10
0.00840003
2.2819e-09
0.00840003
6.97999e-09
0.00840003
2.11119e-08
0.00840004
4.99577e-08
0.00840004
1.33467e-07
0.00840007
3.00798e-07
0.00840012
7.82844e-07
0.0084002
1.77209e-06
0.00840069
4.44208e-06
0.00840073
1.079e-05
0.00840795
2.51006e-05
0.00840937
6.93381e-05
0.00849135
0.0001848
0.00864813
0.000574169
0.00978099
0.00222012
0.0100799
0.00794014
0.00980843
0.008568
0.00935911
0.00864138
0.00914431
0.00846687
0.00907858
0.0086292
0.00912719
0.00885687
0.00929478
0.00903606
0.00949523
0.00906519
0.00881715
0.00973004
0.00840003
2.36453e-10
0.00840003
1.83382e-09
0.00840003
5.67717e-09
0.00840004
1.70411e-08
0.00840004
4.04751e-08
0.00840007
1.06705e-07
0.00840013
2.40453e-07
0.00840028
6.20716e-07
0.00840068
1.37023e-06
0.00840144
3.63597e-06
0.00840443
7.76291e-06
0.00840675
2.25392e-05
0.00842709
4.87374e-05
0.008451
0.00015982
0.00857721
0.000446553
0.0090365
0.00175718
0.00999917
0.00696534
0.00990812
0.00865632
0.00971165
0.00883589
0.00950182
0.00867611
0.0094417
0.00868913
0.00947207
0.00882485
0.00960563
0.00890126
0.00979799
0.00887188
0.0086405
0.00997394
0.00840003
1.87526e-10
0.00840003
1.54172e-09
0.00840003
4.75708e-09
0.00840003
1.41841e-08
0.00840004
3.3781e-08
0.00840006
8.84967e-08
0.0084001
1.99928e-07
0.0084002
5.14677e-07
0.00840043
1.13066e-06
0.00840099
3.04425e-06
0.00840246
6.27784e-06
0.00840551
1.92678e-05
0.00841516
3.90288e-05
0.00843679
0.000137158
0.00852439
0.000357998
0.00884236
0.001435
0.0101842
0.00561076
0.0101606
0.00867943
0.00998943
0.00900625
0.00978188
0.00888346
0.00974473
0.00872653
0.00979319
0.00877596
0.00989232
0.00880058
0.0100407
0.00872151
0.00849536
0.010184
0.00840003
6.3139e-11
0.00840003
1.55889e-09
0.00840003
2.78561e-09
0.00840003
1.35836e-08
0.00840005
2.04702e-08
0.00840005
8.38128e-08
0.00840013
1.2117e-07
0.00840015
4.84751e-07
0.0084006
6.77433e-07
0.00840076
2.85985e-06
0.00840347
3.5425e-06
0.00840378
1.87595e-05
0.00842389
1.88358e-05
0.00842779
0.00013226
0.0085887
0.00019602
0.00902194
0.000998266
0.0111186
0.00349851
0.0108411
0.0089559
0.0106238
0.0092246
0.0102921
0.00921567
0.0100888
0.00892981
0.0100704
0.00879398
0.0101413
0.00872889
0.0102559
0.00860524
0.00837506
0.0103742
0.00840003
1.5572e-10
0.00840003
8.84634e-10
0.00840003
3.30821e-09
0.00840004
8.42062e-09
0.00840003
2.34212e-08
0.00840006
5.30918e-08
0.00840004
1.39777e-07
0.00840022
3.0922e-07
0.00840007
8.07713e-07
0.00840114
1.78538e-06
0.00839998
4.64012e-06
0.00840796
1.07315e-05
0.00839907
2.7389e-05
0.00846132
6.95989e-05
0.00845498
0.000200618
0.00885165
0.000603524
0.0100303
0.00231279
0.0111238
0.00785399
0.0109884
0.00935927
0.0107258
0.00947852
0.010474
0.00918116
0.0103767
0.00889042
0.0103795
0.00872464
0.0104387
0.00854404
0.00828624
0.0105249
0.00840003
1.8456e-10
0.00840003
5.3613e-10
0.00840003
3.13893e-09
0.00840003
5.49126e-09
0.00840003
2.17341e-08
0.00840005
3.49472e-08
0.00840006
1.28447e-07
0.00840017
2.01878e-07
0.00840023
7.38204e-07
0.00840087
1.13484e-06
0.00840112
4.3501e-06
0.00840567
6.14105e-06
0.00840473
2.81076e-05
0.00843827
3.57776e-05
0.0084431
0.000194744
0.00868037
0.000364837
0.00938698
0.00160293
0.0110477
0.00618054
0.011131
0.00927465
0.0110452
0.00956383
0.0108101
0.00941619
0.0106877
0.00901257
0.0106594
0.00875164
0.0106655
0.00853538
0.0082575
0.0106911
0.00840003
6.57372e-11
0.00840003
7.28527e-10
0.00840003
1.66008e-09
0.00840003
6.56611e-09
0.00840004
1.20097e-08
0.00840003
4.11049e-08
0.00840009
7.21038e-08
0.00840005
2.39755e-07
0.00840037
4.15999e-07
0.00840011
1.38447e-06
0.00840207
2.38004e-06
0.00839995
8.17613e-06
0.00841447
1.35548e-05
0.0083977
5.20541e-05
0.00850526
8.69261e-05
0.0084741
0.000394093
0.00915927
0.00091522
0.0116267
0.00369771
0.0116209
0.00927674
0.0114655
0.00971849
0.0112191
0.00966195
0.0109737
0.00925714
0.0108967
0.00882691
0.0108966
0.0085327
0.00824559
0.0109037
0.00840003
9.45291e-11
0.00840003
3.33272e-10
0.00840003
1.73599e-09
0.00840003
3.34088e-09
0.00840003
1.21375e-08
0.00840005
2.1335e-08
0.00840005
7.22033e-08
0.00840017
1.24481e-07
0.00840016
4.16876e-07
0.00840084
7.05745e-07
0.00840074
2.45755e-06
0.00840506
3.83844e-06
0.00840312
1.53588e-05
0.00843421
2.09172e-05
0.00841893
0.000101474
0.00865833
0.000154192
0.00878058
0.000790913
0.0103621
0.00211025
0.0119237
0.00770592
0.0118856
0.00975463
0.0116435
0.0099023
0.0113097
0.00958901
0.0111708
0.00896264
0.0111057
0.0085935
0.00825406
0.0110927
0.00840003
4.61766e-11
0.00840003
3.04205e-10
0.00840003
9.68617e-10
0.00840003
2.85804e-09
0.00840004
6.87195e-09
0.00840004
1.7864e-08
0.00840007
4.05507e-08
0.00840009
1.0267e-07
0.00840028
2.29536e-07
0.00840039
5.89619e-07
0.00840157
1.27128e-06
0.00840179
3.58076e-06
0.00840997
7.15473e-06
0.00840768
2.30026e-05
0.00846276
4.62715e-05
0.00845453
0.000161356
0.00884417
0.000401197
0.00927735
0.00167143
0.0116324
0.00534256
0.0119954
0.00938714
0.0120496
0.00984546
0.0118771
0.00976001
0.011527
0.00930959
0.0113636
0.00875214
0.00832908
0.0112831
0.00840003
3.0623e-11
0.00840003
2.42987e-10
0.00840003
7.51576e-10
0.00840003
2.23991e-09
0.00840003
5.34249e-09
0.00840004
1.39878e-08
0.00840005
3.16987e-08
0.00840007
8.08471e-08
0.00840011
1.81042e-07
0.00840023
4.60292e-07
0.00840047
1.02497e-06
0.00840139
2.61576e-06
0.00840263
5.88555e-06
0.00841064
1.51966e-05
0.00841861
3.57328e-05
0.00848486
9.63937e-05
0.00860659
0.000266611
0.00945067
0.000852294
0.0120349
0.00273069
0.0125564
0.00885931
0.0124324
0.00996622
0.0121764
0.0100121
0.0118971
0.00958422
0.0117004
0.00894183
0.00847898
0.0115434
0.00840003
1.28607e-11
0.00840003
2.09257e-10
0.00840003
4.43195e-10
0.00840003
1.84725e-09
0.00840003
3.23208e-09
0.00840004
1.13981e-08
0.00840005
1.92485e-08
0.00840006
6.54507e-08
0.00840013
1.09436e-07
0.00840022
3.7102e-07
0.00840063
6.13557e-07
0.00840109
2.13383e-06
0.00840363
3.32004e-06
0.00840554
1.31873e-05
0.00842389
1.7265e-05
0.00843147
8.83115e-05
0.0085772
0.000120021
0.00875866
0.000669713
0.00978281
0.00169746
0.0122193
0.00640586
0.0124857
0.00969388
0.0125731
0.0099185
0.0123391
0.0098121
0.0120278
0.00924561
0.00865708
0.0118364
0.00840003
1.75747e-11
0.00840003
1.06928e-10
0.00840003
3.90207e-10
0.00840003
1.01444e-09
0.00840003
2.75711e-09
0.00840004
6.34254e-09
0.00840004
1.62471e-08
0.00840007
3.63815e-08
0.00840008
9.20031e-08
0.00840025
2.04456e-07
0.00840034
5.1784e-07
0.00840132
1.14634e-06
0.00840162
2.97734e-06
0.00840835
6.44296e-06
0.00840715
1.81873e-05
0.00845627
3.91126e-05
0.00845342
0.000121624
0.00881166
0.000309966
0.009374
0.0011319
0.0122012
0.00356116
0.0128254
0.00906082
0.0128087
0.00992785
0.0126344
0.00997786
0.0123696
0.00950082
0.0088441
0.0121636
0.00840003
1.43273e-11
0.00840003
7.73368e-11
0.00840003
2.8427e-10
0.00840003
7.36073e-10
0.00840003
1.99547e-09
0.00840003
4.61025e-09
0.00840004
1.17527e-08
0.00840005
2.64909e-08
0.00840007
6.65983e-08
0.00840013
1.49186e-07
0.00840026
3.74291e-07
0.00840057
8.35641e-07
0.00840141
2.11508e-06
0.00840315
4.66761e-06
0.00840875
1.24408e-05
0.00842144
2.62381e-05
0.00846163
8.06696e-05
0.00858957
0.000180876
0.00904789
0.00067052
0.0106691
0.00193145
0.0127192
0.00699387
0.0128365
0.00980177
0.0129023
0.00989445
0.0127259
0.00965897
0.00903984
0.0125089
0.00840003
1.35453e-11
0.00840003
4.37466e-11
0.00840003
2.3303e-10
0.00840003
4.44549e-10
0.00840003
1.61131e-09
0.00840003
2.82568e-09
0.00840003
9.46678e-09
0.00840004
1.63415e-08
0.00840006
5.37494e-08
0.00840011
9.2452e-08
0.00840018
3.03435e-07
0.00840049
5.19571e-07
0.00840087
1.7204e-06
0.00840261
2.89876e-06
0.00840489
1.00494e-05
0.00841515
1.5851e-05
0.00843107
6.40699e-05
0.00851293
9.83734e-05
0.0087178
0.000462791
0.00949871
0.00114626
0.0124445
0.00402733
0.0130874
0.00914496
0.0128781
0.0100848
0.0128152
0.00968769
0.00913909
0.0126835
0.00840003
5.77255e-12
0.00840003
3.89415e-11
0.00840003
1.23045e-10
0.00840003
3.64915e-10
0.00840003
8.72537e-10
0.00840003
2.27685e-09
0.00840004
5.14812e-09
0.00840004
1.305e-08
0.00840006
2.91432e-08
0.00840008
7.33661e-08
0.00840022
1.63319e-07
0.00840032
4.10878e-07
0.00840112
9.13881e-07
0.00840166
2.3197e-06
0.00840655
5.11584e-06
0.00840853
1.36383e-05
0.00844299
2.9361e-05
0.00845316
8.69795e-05
0.00870911
0.000205145
0.00913752
0.000712741
0.0110611
0.00209149
0.0131377
0.00704044
0.0132336
0.00996824
0.0131478
0.00972877
0.00902859
0.0131711
0.00840003
3.45273e-12
0.00840003
2.70482e-11
0.00840003
8.42494e-11
0.00840003
2.49633e-10
0.00840003
5.96909e-10
0.00840003
1.54728e-09
0.00840003
3.51054e-09
0.00840004
8.83303e-09
0.00840005
1.98053e-08
0.00840007
4.94658e-08
0.00840012
1.10562e-07
0.00840025
2.75664e-07
0.00840054
6.14742e-07
0.00840129
1.5384e-06
0.00840296
3.41299e-06
0.00840761
8.78491e-06
0.0084178
1.89489e-05
0.00844862
5.49801e-05
0.00853758
0.000115067
0.00882619
0.000418756
0.0097792
0.00113225
0.0126186
0.00416066
0.0134274
0.00912265
0.0135389
0.00952603
0.00874088
0.0137012
0.00840003
1.52097e-12
0.00840003
2.12525e-11
0.00840003
4.68062e-11
0.00840003
1.87977e-10
0.00840003
3.37678e-10
0.00840003
1.15332e-09
0.00840003
1.98969e-09
0.00840003
6.55586e-09
0.00840004
1.11924e-08
0.00840005
3.66284e-08
0.0084001
6.2182e-08
0.00840017
2.04002e-07
0.00840043
3.43753e-07
0.0084008
1.13984e-06
0.00840228
1.89396e-06
0.0084044
6.4734e-06
0.00841267
1.04277e-05
0.00842766
3.88593e-05
0.00847843
6.25873e-05
0.00863107
0.000260374
0.00917543
0.000576205
0.0112129
0.00209767
0.0134166
0.00683227
0.0139508
0.0088204
0.00825393
0.0142595
0.00840003
2.24927e-12
0.00840003
7.84249e-12
0.00840003
4.09866e-11
0.00840003
7.81567e-11
0.00840003
2.83283e-10
0.00840003
4.89054e-10
0.00840003
1.6466e-09
0.00840004
2.77139e-09
0.00840004
9.19796e-09
0.00840006
1.53121e-08
0.00840007
5.08718e-08
0.00840018
8.38843e-08
0.00840023
2.80888e-07
0.00840089
4.5738e-07
0.00840114
1.55927e-06
0.00840503
2.46895e-06
0.0084058
9.03233e-06
0.00843148
1.2789e-05
0.00843158
5.83899e-05
0.00860994
7.85673e-05
0.00875689
0.000410559
0.00986874
0.000951125
0.0131424
0.00343119
0.0141137
0.00757802
0.00758853
0.0146676
0.00840003
9.68572e-13
0.00840003
6.10515e-12
0.00840003
1.97345e-11
0.00840003
5.72822e-11
0.00840003
1.38668e-10
0.00840003
3.53205e-10
0.00840003
8.05671e-10
0.00840003
1.98308e-09
0.00840004
4.46543e-09
0.00840004
1.08482e-08
0.00840006
2.43849e-08
0.00840008
5.87062e-08
0.00840022
1.32085e-07
0.00840032
3.15351e-07
0.00840112
7.12216e-07
0.00840162
1.69757e-06
0.00840639
3.86071e-06
0.00840766
9.3875e-06
0.00844297
2.19097e-05
0.00845627
5.48003e-05
0.00869465
0.000153592
0.00916238
0.000441905
0.0109168
0.0015145
0.0130631
0.00507381
0.00615352
0.0145026
0.00840003
4.83606e-13
0.00840003
4.13504e-12
0.00840003
1.2701e-11
0.00840003
3.78381e-11
0.00840003
8.98165e-11
0.00840003
2.33258e-10
0.00840003
5.25358e-10
0.00840003
1.32487e-09
0.00840003
2.94643e-09
0.00840003
7.38739e-09
0.00840004
1.638e-08
0.00840005
4.09902e-08
0.00840008
9.06386e-08
0.00840011
2.25569e-07
0.00840025
4.95744e-07
0.00840038
1.20196e-06
0.00840114
2.67307e-06
0.00840214
6.18523e-06
0.0084085
1.29618e-05
0.00841737
3.43543e-05
0.00847582
7.36544e-05
0.00864221
0.00023316
0.00931389
0.000690374
0.0110678
0.00294183
0.00448205
0.0128355
0.00840003
3.63991e-15
0.00840003
3.74906e-12
0.00840003
4.47507e-12
0.00840003
3.16645e-11
0.00840003
3.36588e-11
0.00840003
1.93296e-10
0.00840003
1.97639e-10
0.00840003
1.10517e-09
0.00840003
1.09586e-09
0.00840003
6.25103e-09
0.00840004
5.97385e-09
0.00840004
3.55038e-08
0.00840008
3.16677e-08
0.00840003
2.06978e-07
0.0084003
1.4457e-07
0.00839976
1.3068e-06
0.00840137
3.78517e-07
0.0083967
8.55794e-06
0.0084089
-2.34873e-06
0.00837397
5.72052e-05
0.00846391
-2.98988e-05
0.00834926
0.000293087
0.00863881
0.000261055
0.00919021
0.00199037
0.00325805
0.0105927
0.00840003
1.97861e-13
0.00840003
1.12401e-12
0.00840003
4.17863e-12
0.00840003
1.06278e-11
0.00840003
2.91758e-11
0.00840003
6.58438e-11
0.00840003
1.69791e-10
0.00840003
3.72957e-10
0.00840003
9.48389e-10
0.00840003
2.07073e-09
0.00840003
5.25448e-09
0.00840005
1.14696e-08
0.00840003
2.91508e-08
0.00840014
6.37144e-08
0.00839997
1.63396e-07
0.00840076
3.53032e-07
0.00839916
9.38134e-07
0.00840483
1.95307e-06
0.00839043
5.46974e-06
0.008427
1.18123e-05
0.00833466
3.78303e-05
0.00848735
9.9355e-05
0.00825225
0.000394329
0.00805434
0.00173931
0.00255939
0.00895396
0.00840003
4.19043e-13
0.00840003
-5.89439e-13
0.00840003
4.14049e-12
0.00840003
-2.60737e-12
0.00840003
2.69766e-11
0.00840003
-1.49839e-11
0.00840003
1.54769e-10
0.00840003
-1.04981e-10
0.00840003
8.6131e-10
0.00840003
-7.53078e-10
0.00840003
4.79717e-09
0.00840004
-5.28928e-09
0.00840002
2.80851e-08
0.0084001
-3.97131e-08
0.00839992
2.01476e-07
0.00840052
-3.78826e-07
0.00839864
1.85527e-06
0.00840309
-3.31933e-06
0.00838627
1.58893e-05
0.00841233
-2.2293e-05
0.00831098
0.00011505
0.00839573
-2.39415e-05
0.00815731
0.000533379
0.00769748
0.00173904
0.00225187
0.00822707
0.00840003
1.17878e-13
0.00840003
7.2157e-14
0.00840003
1.4138e-12
0.00840003
1.56949e-12
0.00840003
9.45875e-12
0.00840003
9.79112e-12
0.00840003
5.38853e-11
0.00840003
4.78078e-11
0.00840003
2.93302e-10
0.00840003
2.02136e-10
0.00840003
1.58099e-09
0.00840002
7.07745e-10
0.00840003
8.84169e-09
0.00839996
2.58639e-09
0.00840005
5.50102e-08
0.00839935
2.58589e-08
0.00840071
4.22077e-07
0.00839462
3.36296e-07
0.00840513
4.47367e-06
0.00836639
2.55778e-06
0.00842398
3.93859e-05
0.00827132
9.34389e-05
0.00833391
0.000355298
0.00768237
0.00196996
0.00225487
0.0079228
0.00840003
-1.52969e-14
0.00840003
6.72774e-13
0.00840003
1.34434e-12
0.00840003
5.89203e-12
0.00840003
1.04913e-11
0.00840003
3.7911e-11
0.00840003
6.78518e-11
0.00840003
2.33574e-10
0.00840003
4.2903e-10
0.00840003
1.439e-09
0.00840003
2.71538e-09
0.00840001
8.90267e-09
0.0084
1.70392e-08
0.00839992
5.51379e-08
0.00839984
1.01585e-07
0.00839931
3.52142e-07
0.00839887
5.06979e-07
0.00839495
2.39789e-06
0.0083957
2.24451e-06
0.00837101
1.74358e-05
0.00837419
1.98152e-05
0.00827908
0.000150238
0.00814135
0.000395972
0.00752149
0.00217477
0.00234819
0.00767524
0.00840003
-2.3275e-13
0.00840003
1.48852e-12
0.00840003
-4.44234e-13
0.00840003
1.16436e-11
0.00840003
-4.45661e-13
0.00840003
7.34121e-11
0.00840003
6.19931e-12
0.00840003
4.49935e-10
0.00840003
8.21746e-11
0.00840003
2.75538e-09
0.00840003
6.84941e-10
0.00840002
1.69121e-08
0.00840003
4.96025e-09
0.00839995
1.04616e-07
0.00839999
2.59276e-08
0.00839946
6.99711e-07
0.00839977
-6.47405e-08
0.00839515
5.32228e-06
0.00839984
-3.84554e-06
0.00836838
4.02036e-05
0.00839368
-2.178e-05
0.00823826
0.000266475
0.00822532
0.000303414
0.00757663
0.00241708
0.00243871
0.00772769
0.00840003
-3.85891e-14
0.00840003
3.80514e-13
0.00840003
3.42203e-13
0.00840003
3.28118e-12
0.00840003
3.32371e-12
0.00840003
2.08789e-11
0.00840003
2.18307e-11
0.00840003
1.25735e-10
0.00840003
1.28623e-10
0.00840003
7.44289e-10
0.00840003
6.86875e-10
0.00840004
4.36009e-09
0.00840003
4.00487e-09
0.0084001
2.55261e-08
0.0084
3.41362e-08
0.00840049
1.48802e-07
0.00839937
3.54142e-07
0.008403
1.1625e-06
0.00839239
2.43273e-06
0.00841577
1.16317e-05
0.00834562
2.38009e-05
0.0084669
0.000111396
0.00819422
0.000442985
0.00818802
0.00200417
0.00231234
0.00853459
0.00840003
1.10219e-13
0.00840003
4.30764e-14
0.00840003
1.34318e-12
0.00840003
8.91178e-13
0.00840003
9.14501e-12
0.00840003
7.05061e-12
0.00840003
5.6157e-11
0.00840003
4.46679e-11
0.00840003
3.43447e-10
0.00840003
2.71952e-10
0.00840003
2.13872e-09
0.00840003
1.63851e-09
0.00840001
1.32377e-08
0.00840001
9.63561e-09
0.0083999
7.96112e-08
0.00839992
5.32605e-08
0.00839936
4.35435e-07
0.00839962
3.19049e-07
0.0083952
3.24205e-06
0.00840126
1.48532e-06
0.00837266
2.8713e-05
0.0083863
5.51791e-05
0.00847437
0.000277877
0.00876902
0.00123168
0.00208604
0.009077
0.00840003
2.96899e-13
0.00840003
-8.19105e-13
0.00840003
2.39087e-12
0.00840003
-5.39235e-12
0.00840003
1.50158e-11
0.00840003
-3.18034e-11
0.00840003
8.58645e-11
0.00840003
-1.87925e-10
0.00840003
4.79801e-10
0.00840003
-1.12276e-09
0.00840003
2.66032e-09
0.00840004
-6.81657e-09
0.00840003
1.48059e-08
0.00840007
-4.22589e-08
0.00840003
8.7496e-08
0.00840031
-2.81548e-07
0.00839976
6.62712e-07
0.00840218
-2.23106e-06
0.00839625
6.73428e-06
0.00841311
-1.72324e-05
0.00837188
5.60986e-05
0.00846028
-5.95262e-05
0.00849253
0.000217364
0.00891585
0.000502729
0.00176497
0.00911635
0.00840003
7.36304e-14
0.00840003
-1.19876e-13
0.00840003
6.21083e-13
0.00840003
-6.82966e-13
0.00840003
4.00629e-12
0.00840003
-3.87752e-12
0.00840003
2.30316e-11
0.00840003
-2.35302e-11
0.00840003
1.27822e-10
0.00840003
-1.47643e-10
0.00840003
6.99993e-10
0.00840002
-9.48464e-10
0.00840003
3.83473e-09
0.00839997
-6.20281e-09
0.00840002
2.24132e-08
0.00839966
-4.38052e-08
0.00840003
1.65883e-07
0.00839738
-3.36471e-07
0.00840172
1.47688e-06
0.00838203
-2.03757e-06
0.00841846
1.30992e-05
0.00833259
1.61667e-06
0.00843724
8.36358e-05
0.00832047
0.000421489
0.00138565
0.00849354
0.00840003
-3.65367e-14
0.00840003
3.88637e-13
0.00840003
3.63242e-13
0.00840003
3.1911e-12
0.00840003
3.29433e-12
0.00840003
1.97021e-11
0.00840003
2.15999e-11
0.00840003
1.17037e-10
0.00840003
1.37383e-10
0.00840003
6.97268e-10
0.00840003
8.7854e-10
0.00840002
4.20416e-09
0.00840002
5.62033e-09
0.00839997
2.5684e-08
0.00839994
3.36841e-08
0.00839964
1.63227e-07
0.00839956
1.48336e-07
0.00839758
1.06549e-06
0.00839819
1.60058e-07
0.0083857
6.7336e-06
0.00839494
-8.72134e-07
0.0083326
4.42638e-05
0.0083372
6.58557e-05
0.0082337
0.00036023
0.00114297
0.00828404
0.00840003
-1.51569e-13
0.00840003
8.9111e-13
0.00840003
-5.07401e-13
0.00840003
6.67427e-12
0.00840003
-2.26076e-12
0.00840003
4.08313e-11
0.00840003
-1.03216e-11
0.00840003
2.435e-10
0.00840003
-4.09988e-11
0.00840003
1.46e-09
0.00840003
-1.10262e-10
0.00840002
8.87525e-09
0.00840003
1.21974e-10
0.00839998
5.48296e-08
0.0084
7.60684e-10
0.00839972
3.60904e-07
0.00839987
-9.81368e-08
0.00839785
2.54699e-06
0.00839973
-2.36329e-06
0.00838619
1.71379e-05
0.00840118
-2.0203e-05
0.00833344
9.49695e-05
0.00837854
1.01481e-05
0.0081906
0.000408064
0.000937965
0.00821686
0.00840003
1.70678e-13
0.00840003
-7.44156e-13
0.00840003
1.03309e-12
0.00840003
-5.32043e-12
0.00840003
5.97111e-12
0.00840003
-3.22034e-11
0.00840003
3.20298e-11
0.00840003
-1.91724e-10
0.00840003
1.65e-10
0.00840003
-1.14949e-09
0.00840003
8.18285e-10
0.00840005
-6.99085e-09
0.00840004
3.96831e-09
0.00840014
-4.32194e-08
0.0084001
2.46137e-08
0.00840072
-2.87859e-07
0.00840019
2.86032e-07
0.00840479
-2.07279e-06
0.00839785
3.58661e-06
0.00842795
-1.38858e-05
0.00837307
2.94402e-05
0.00851732
-6.38337e-05
0.00841488
8.99933e-05
0.00866701
2.36536e-05
0.000439709
0.00900463
0.00840003
4.59008e-14
0.00840003
-3.03647e-13
0.00840003
-5.63484e-15
0.00840003
-2.37783e-12
0.00840003
-4.69952e-13
0.00840003
-1.4392e-11
0.00840003
-3.75983e-12
0.00840003
-8.4613e-11
0.00840003
-2.84455e-11
0.00840003
-5.00192e-10
0.00840003
-2.37788e-10
0.00840002
-2.9929e-09
0.00840003
-1.84553e-09
0.00839999
-1.81167e-08
0.00840001
-9.86558e-09
0.00839977
-1.1462e-07
0.00839998
2.59573e-09
0.00839816
-7.21543e-07
0.00840075
5.62232e-07
0.00838799
-4.04567e-06
0.00840763
6.4973e-06
0.00834764
-1.89297e-05
0.00840522
2.23424e-05
0.00829049
1.73817e-05
0.000210683
0.00836133
0.00840003
0.00840003
0.00840003
0.00840003
0.00840003
0.00840003
0.00840003
0.00840003
0.00840003
0.00840003
0.00840003
0.00840002
0.00840002
0.00839999
0.00839997
0.00839978
0.00839971
0.00839855
0.00839858
0.00839175
0.00839498
0.00836153
0.00837204
0.00827212
0.00832751
0.00377232
0.00435649
0.00149956
0.00227342
-0.00063057
0.00213456
-0.00158756
0.000961325
-0.00222709
0.000642156
-0.00257025
0.000346283
-0.00268997
0.000122443
-0.00282498
0.000137214
-0.00298728
0.000163889
-0.00313114
0.000144907
-0.00323375
0.000103103
-0.00329601
6.19335e-05
-0.00333653
3.88204e-05
-0.00338684
4.55468e-05
-0.00343123
3.91647e-05
-0.00344927
1.23707e-05
-0.00343766
-1.88637e-05
-0.0033976
-4.8395e-05
-0.00333021
-7.6348e-05
-0.00323764
-0.000101658
-0.00312505
-0.00012167
-0.00299505
-0.000138199
-0.00285426
-0.000148609
-0.00270524
-0.00015593
-0.00254966
-0.000161864
-0.00238752
-0.000167644
-0.00221862
-0.000173907
-0.00204261
-0.000180771
-0.00185922
-0.000188064
-0.0016697
-0.000194452
-0.00146601
-0.000207061
-0.00125812
-0.000211391
-0.00104673
-0.000214696
-0.000834063
-0.000215972
-0.000619177
-0.000218008
-0.000403333
-0.000218649
-0.000184164
-0.00022142
4.45202e-05
-0.000231107
0.000269054
-0.000227222
0.000482999
-0.00021679
0.000690934
-0.000210573
0.000892005
-0.000203732
0.00108749
-0.000197926
0.00127552
-0.00019069
0.00145678
-0.000183482
0.00163374
-0.000178953
0.00180926
-0.000177101
0.00198012
-0.000172504
0.00214539
-0.000166236
0.00230492
-0.00015996
0.00245797
-0.000153176
0.0026054
-0.000147106
0.00274724
-0.000140853
0.00288366