/*--------------------------------*- C++ -*----------------------------------*\
| =========                 |                                                 |
| \\      /  F ield         | OpenFOAM: The Open Source CFD Toolbox           |
|  \\    /   O peration     | Version:  2112                                  |
|   \\  /    A nd           | Website:  www.openfoam.com                      |
|    \\/     M anipulation  |                                                 |
\*---------------------------------------------------------------------------*/
FoamFile
{
    version     2.0;
    format      ascii;
    arch        "LSB;label=32;scalar=64";
    class       volScalarField;
    location    "8.5";
    object      T;
}
// * * * * * * * * * * * * * * * * * * * * * * * * * * * * * * * * * * * * * //

dimensions      [0 0 0 1 0 0 0];

internalField   nonuniform List<scalar> 
5250
(
1.00001
1.00002
1.00008
1.00015
1.0005
1.00091
1.00274
1.00557
1.01469
1.03775
1.0856
1.25747
1.64679
2.45083
2.71678
2.72705
2.7268
2.73201
2.74531
2.75873
2.77088
2.77913
2.78589
2.79052
2.79492
1.00001
1.00002
1.00008
1.00015
1.00049
1.0009
1.00269
1.00551
1.01444
1.03738
1.08453
1.25542
1.63734
2.44325
2.71408
2.72707
2.72673
2.73182
2.74494
2.75808
2.76994
2.77802
2.78439
2.78833
2.79233
1.00001
1.00002
1.00008
1.00015
1.00047
1.00087
1.00258
1.00537
1.01392
1.03661
1.08228
1.25106
1.61719
2.42583
2.70689
2.72611
2.72565
2.73027
2.74319
2.75623
2.76744
2.77553
2.78204
2.78537
2.78831
1.00001
1.00002
1.00008
1.00014
1.00045
1.00083
1.00246
1.00516
1.01325
1.03523
1.07881
1.24367
1.58627
2.3969
2.69507
2.72434
2.72348
2.72689
2.73963
2.75176
2.76394
2.77023
2.77634
2.78095
2.78392
1.00001
1.00002
1.00007
1.00013
1.00042
1.00079
1.0023
1.00488
1.01242
1.0333
1.07409
1.23238
1.54399
2.35298
2.67745
2.72167
2.72032
2.72165
2.73435
2.74436
2.75634
2.76476
2.7699
2.77169
2.7738
1.00001
1.00002
1.00007
1.00012
1.0004
1.00073
1.00214
1.00454
1.01156
1.03095
1.06885
1.21572
1.49699
2.29379
2.65273
2.7187
2.71634
2.71588
2.72814
2.73783
2.74619
2.75199
2.75894
2.76313
2.76478
1.00001
1.00002
1.00006
1.00011
1.00036
1.00067
1.00197
1.00415
1.01061
1.02819
1.06317
1.19545
1.4492
2.21212
2.61976
2.71363
2.70995
2.70662
2.71728
2.72895
2.73815
2.74318
2.74463
2.7457
2.7452
1.00001
1.00002
1.00006
1.0001
1.00033
1.00061
1.00182
1.0037
1.00975
1.0247
1.05666
1.1715
1.39359
2.09839
2.57542
2.70623
2.70275
2.69464
2.70529
2.71144
2.71947
2.7251
2.7279
2.72722
2.72352
1.00001
1.00001
1.00005
1.00009
1.0003
1.00054
1.00166
1.00322
1.00882
1.02098
1.04968
1.14601
1.33394
1.96831
2.51312
2.68796
2.68593
2.68027
2.69358
2.69909
2.7055
2.70508
2.70238
2.69429
2.67484
1.00001
1.00001
1.00004
1.00008
1.00025
1.00046
1.00139
1.00274
1.0074
1.01765
1.04202
1.12151
1.27544
1.74242
2.48193
2.66176
2.65809
2.65026
2.66604
2.67226
2.67931
2.67996
2.6719
2.65052
2.6012
1
1.00001
1.00003
1.00009
1.00017
1.00051
1.00099
1.00278
1.00612
1.01537
1.04117
1.09305
1.26832
1.73744
2.41672
2.64536
2.63692
2.64069
2.64406
2.65354
2.65202
2.64693
2.62793
2.5804
2.42259
1
1.00001
1.00003
1.00006
1.00019
1.00036
1.0011
1.00209
1.00601
1.01297
1.03307
1.09004
1.20188
1.59913
2.395
2.59553
2.61596
2.61606
2.61806
2.62781
2.62769
2.61554
2.58404
2.5253
2.36572
1
1.00001
1.00003
1.00005
1.00017
1.00031
1.00097
1.00178
1.00535
1.01089
1.02881
1.07537
1.17009
1.51011
2.28193
2.55623
2.61379
2.60572
2.59433
2.59583
2.59471
2.58244
2.54603
2.49192
2.36868
1
1.00001
1.00002
1.00004
1.00014
1.00026
1.00081
1.00149
1.00442
1.00913
1.02371
1.06266
1.14025
1.42428
2.10688
2.48936
2.60684
2.59537
2.58505
2.56926
2.56069
2.54537
2.51357
2.46981
2.37548
1
1.00001
1.00002
1.00004
1.00012
1.00022
1.00069
1.00125
1.00388
1.00737
1.02106
1.04723
1.11749
1.31746
1.90511
2.38961
2.57965
2.57111
2.5664
2.55366
2.53461
2.51594
2.47449
2.4443
2.37633
1
1
1.00002
1.00003
1.0001
1.00018
1.00056
1.00101
1.00315
1.00591
1.01722
1.03687
1.09579
1.24211
1.70778
2.31003
2.54651
2.54469
2.53878
2.52928
2.5126
2.49494
2.45551
2.40815
2.36704
1
1
1.00001
1.00002
1.00008
1.00014
1.00043
1.00079
1.0024
1.00469
1.01264
1.03058
1.07119
1.20845
1.49953
2.20211
2.50108
2.52974
2.51577
2.50712
2.48626
2.46945
2.4441
2.39534
2.34804
1
1
1.00001
1.00002
1.00006
1.00011
1.00034
1.00062
1.00189
1.00367
1.00998
1.02372
1.05582
1.16401
1.37477
2.00624
2.41587
2.51332
2.50281
2.49343
2.47305
2.44304
2.41966
2.38235
2.33592
1
1
1.00001
1.00001
1.00005
1.00008
1.00026
1.00047
1.00145
1.00278
1.00768
1.01748
1.04231
1.12008
1.27041
1.7549
2.2781
2.4727
2.4741
2.46879
2.45759
2.4322
2.40455
2.36963
2.32641
1
1
1
1.00001
1.00003
1.00008
1.00015
1.00048
1.00089
1.00267
1.00521
1.01463
1.03246
1.08222
1.20888
1.59637
2.16624
2.43077
2.44759
2.43905
2.4282
2.40869
2.38761
2.36123
2.32334
1
1
1
1.00001
1.00002
1.00006
1.00011
1.00036
1.00065
1.00199
1.00383
1.01048
1.0244
1.05818
1.16395
1.39583
1.95782
2.34323
2.42955
2.42597
2.41301
2.38989
2.36349
2.33919
2.3153
1
1
1
1.00001
1.00002
1.00004
1.00011
1.0002
1.00062
1.00117
1.00347
1.00696
1.01878
1.04428
1.10837
1.28426
1.82104
2.18432
2.36644
2.39744
2.39496
2.38266
2.35746
2.32799
2.29873
1
1
1
1.00001
1.00001
1.00003
1.00006
1.00018
1.00034
1.00101
1.00197
1.00543
1.01207
1.02972
1.08111
1.1774
1.51708
2.14938
2.31225
2.34492
2.35083
2.35067
2.34367
2.32348
2.2962
1
1
1
1
1.00001
1.00002
1.00005
1.0001
1.0003
1.00057
1.0016
1.00346
1.00858
1.02255
1.0504
1.14818
1.33049
1.90388
2.25989
2.33647
2.33297
2.32402
2.31184
2.30369
2.28936
1
1
1
1
1.00001
1.00001
1.00004
1.00007
1.00023
1.00041
1.00128
1.00232
1.00707
1.01377
1.0372
1.08798
1.21895
1.54285
2.10749
2.30124
2.31215
2.30952
2.29694
2.28006
2.26996
1
1
1
1
1
1.00001
1.00003
1.00005
1.00015
1.00028
1.00086
1.0016
1.00456
1.00972
1.02427
1.06504
1.1403
1.42637
1.99068
2.23859
2.29245
2.29127
2.28217
2.27049
2.25795
1
1
1
1
1
1.00001
1.00001
1.00004
1.00008
1.00025
1.00046
1.00137
1.00266
1.00716
1.01649
1.03946
1.10943
1.24401
1.67676
2.1052
2.26806
2.27183
2.26966
2.25982
2.25347
1
1
1
1
1
1.00001
1.00001
1.00003
1.00006
1.00018
1.00032
1.00099
1.00179
1.00543
1.01055
1.02837
1.06901
1.15736
1.43961
1.97553
2.20874
2.2614
2.26071
2.26066
2.26027
1
1
1
1
1
1
1.00001
1.00002
1.00004
1.00012
1.00022
1.00067
1.00122
1.00368
1.00704
1.01968
1.04394
1.10773
1.28206
1.7771
2.07819
2.22883
2.2538
2.26352
2.27801
1
1
1
1
1
1
1.00001
1.00001
1.00003
1.00006
1.00018
1.00034
1.00101
1.0019
1.00547
1.01125
1.02895
1.07281
1.16629
1.45013
1.98189
2.1758
2.2382
2.27285
2.30754
1
1
1
1
1
1
1
1.00001
1.00002
1.00004
1.00013
1.00023
1.0007
1.00127
1.00386
1.00731
1.02045
1.04567
1.10943
1.29299
1.76091
2.09758
2.24494
2.30575
2.35956
1
1
1
1
1
1
1
1
1.00002
1.00003
1.00008
1.00015
1.00047
1.00086
1.00258
1.0049
1.01399
1.02886
1.07802
1.17654
1.5391
1.95167
2.23808
2.37227
2.42967
1
1
1
1
1
1
1
1
1.00001
1.00002
1.00004
1.00013
1.00025
1.00075
1.0014
1.00411
1.00821
1.02175
1.05254
1.12207
1.33469
1.87145
2.23333
2.45134
2.49993
1
1
1
1
1
1
1
1
1.00001
1.00001
1.00004
1.00008
1.00024
1.00044
1.00134
1.00254
1.0073
1.01556
1.03938
1.10235
1.24463
1.62864
2.33418
2.54735
2.56933
1
1
1
1
1
1
1
1
1.00001
1.00001
1.00004
1.00006
1.0002
1.00036
1.00115
1.0021
1.00651
1.01278
1.03514
1.08644
1.21094
1.58654
2.39049
2.66703
2.66722
1
1
1
1
1
1
1
1
1
1.00001
1.00003
1.00005
1.00016
1.0003
1.00093
1.00182
1.00509
1.01173
1.02931
1.08353
1.18515
1.57836
2.38785
2.74475
2.73922
1
1
1
1
1
1
1
1
1
1.00001
1.00002
1.00006
1.00011
1.00033
1.00068
1.00181
1.00443
1.01055
1.03042
1.06676
1.21442
1.5224
2.25573
2.78022
2.78026
1
1
1
1
1
1
1
1
1
1.00001
1.00002
1.00006
1.0001
1.00031
1.00063
1.00168
1.00415
1.00985
1.02865
1.06306
1.20368
1.49694
2.20825
2.77894
2.78119
1
1
1
1
1
1
1
1
1
1.00001
1.00002
1.00004
1.00013
1.00025
1.00074
1.00155
1.00402
1.01036
1.02411
1.07268
1.15509
1.5261
2.25152
2.77318
2.7716
1
1
1
1
1
1
1
1
1
1.00001
1.00002
1.00004
1.00013
1.00024
1.00078
1.00145
1.00428
1.00934
1.0237
1.06721
1.14689
1.4877
2.20612
2.76808
2.7665
1
1
1
1
1
1
1
1
1
1.00001
1.00002
1.00004
1.00012
1.00023
1.00071
1.00137
1.00385
1.00888
1.02173
1.06316
1.13638
1.45385
2.15033
2.75023
2.76057
1
1
1
1
1
1
1
1
1
1.00001
1.00001
1.00005
1.00009
1.00026
1.00051
1.0014
1.00326
1.00789
1.02232
1.04931
1.15654
1.36161
2.00296
2.71306
2.76592
1
1
1
1
1
1
1
1
1
1.00001
1.00001
1.00005
1.00009
1.00028
1.0005
1.00158
1.00298
1.00855
1.0194
1.04775
1.13784
1.3289
1.90743
2.64333
2.77118
1
1
1
1
1
1
1
1
1
1.00001
1.00001
1.00004
1.00008
1.00025
1.00047
1.00137
1.00287
1.00742
1.01913
1.04403
1.13238
1.30364
1.82491
2.61964
2.78142
1
1
1
1
1
1
1
1
1
1.00001
1.00002
1.00003
1.00011
1.0002
1.00063
1.00117
1.00357
1.00711
1.0195
1.04759
1.11402
1.32335
1.93192
2.56015
2.77393
1
1
1
1
1
1
1
1
1
1.00001
1.00002
1.00003
1.00011
1.0002
1.00063
1.00115
1.00359
1.00686
1.01977
1.04475
1.11266
1.30751
1.90637
2.55072
2.76869
1
1
1
1
1
1
1
1
1
1.00001
1.00002
1.00003
1.00011
1.00019
1.00061
1.00113
1.00345
1.00681
1.01883
1.04521
1.10888
1.30731
1.88511
2.54813
2.76636
1
1
1
1
1
1
1
1
1
1.00001
1.00001
1.00004
1.00007
1.00023
1.00044
1.00122
1.00271
1.00664
1.01796
1.04036
1.1211
1.27235
1.74727
2.59926
2.76687
1
1
1
1
1
1
1
1
1
1.00001
1.00002
1.00003
1.0001
1.00019
1.0006
1.00111
1.00338
1.0067
1.01842
1.04441
1.10633
1.30048
1.85641
2.53908
2.76357
1
1
1
1
1
1
1
1
1
1.00001
1.00002
1.00003
1.00011
1.00019
1.00061
1.00111
1.00347
1.00662
1.01905
1.04288
1.10744
1.29299
1.84873
2.53731
2.76158
2.4449
2.76101
2.93556
3.17204
3.16187
3.11978
3.10599
3.09192
3.07472
3.05335
3.03658
3.01966
3.00376
2.989
2.98134
2.97997
2.98086
2.98973
2.99999
3.01595
3.02933
3.04515
3.05808
3.07071
3.08111
3.09092
3.0993
3.10624
3.11185
3.11586
3.11837
3.11924
3.11941
3.11681
3.11274
3.10694
3.10249
3.09623
3.09155
3.08659
3.07807
3.07191
3.0637
3.05509
3.04724
3.03664
3.02802
3.01633
3.00823
2.9956
2.98673
2.97448
2.96537
2.95277
2.94389
2.93052
2.92145
2.90791
2.89872
2.88519
2.87536
2.8627
2.85255
2.8401
2.83007
2.81748
2.80743
2.79494
2.78467
2.77231
2.76192
2.74954
2.73922
2.72668
2.71664
2.70398
2.69416
2.68167
2.67179
2.65982
2.64966
2.63828
2.62794
2.61695
2.60665
2.59584
2.58573
2.57503
2.5651
2.55458
2.54487
2.53455
2.52519
2.51513
2.5065
2.49689
2.48964
2.48122
2.47664
2.4709
2.34144
2.51774
2.69768
2.9911
3.14527
3.24656
3.32394
3.33127
3.33234
3.32968
3.32825
3.32452
3.3199
3.31243
3.30926
3.31356
3.31446
3.31735
3.31824
3.31866
3.31702
3.31186
3.30386
3.29483
3.28343
3.27014
3.25392
3.24249
3.23254
3.21856
3.20763
3.18956
3.17534
3.15755
3.14256
3.12391
3.10862
3.09058
3.07527
3.05805
3.04221
3.0239
3.00826
2.99049
2.9747
2.95822
2.94308
2.92589
2.91045
2.89374
2.87888
2.86317
2.84884
2.83387
2.81941
2.80574
2.79088
2.77828
2.76327
2.75106
2.73621
2.72425
2.70952
2.69796
2.68331
2.67211
2.65768
2.64669
2.63269
2.62178
2.60841
2.59746
2.58481
2.57379
2.56169
2.55076
2.53889
2.52829
2.51641
2.50629
2.49437
2.48471
2.4729
2.46359
2.45206
2.443
2.43186
2.42289
2.41221
2.40329
2.39304
2.38417
2.37446
2.36573
2.35685
2.34851
2.3411
2.33392
2.32925
2.32481
2.30679
2.34303
2.44706
2.56846
2.74414
2.92015
3.12611
3.25149
3.331
3.37809
3.40141
3.44188
3.4563
3.462
3.46718
3.47457
3.47464
3.47384
3.46447
3.44661
3.42453
3.40066
3.37187
3.34332
3.31311
3.28212
3.2528
3.22231
3.19134
3.15792
3.12798
3.09574
3.06516
3.03467
3.00437
2.97726
2.94843
2.92382
2.89722
2.87479
2.85053
2.82977
2.8079
2.78842
2.76897
2.75125
2.73339
2.71568
2.69839
2.68269
2.66687
2.65255
2.63758
2.62417
2.61017
2.59705
2.5839
2.57108
2.5586
2.54627
2.53436
2.52268
2.5113
2.5002
2.48925
2.47851
2.46796
2.45738
2.44727
2.43676
2.42713
2.41669
2.40749
2.39725
2.38831
2.37844
2.36965
2.36023
2.35157
2.34253
2.33409
2.32532
2.31718
2.30859
2.30073
2.29226
2.28456
2.27621
2.26861
2.26035
2.25294
2.2448
2.23766
2.22966
2.22297
2.2153
2.20951
2.20285
2.19905
2.19498
2.30945
2.2757
2.31068
2.35392
2.44228
2.54536
2.67831
2.85096
3.0165
3.17833
3.27011
3.34092
3.39081
3.42392
3.4439
3.44958
3.44133
3.4209
3.40027
3.36614
3.32588
3.28442
3.24005
3.19479
3.14931
3.10367
3.05843
3.01396
2.97071
2.92934
2.89172
2.85445
2.82241
2.7896
2.76272
2.73429
2.71165
2.68724
2.6678
2.64662
2.63002
2.61166
2.59719
2.58136
2.56846
2.55491
2.54308
2.53013
2.5181
2.50611
2.4951
2.48393
2.47344
2.46264
2.45256
2.44225
2.43255
2.42259
2.41318
2.40351
2.39435
2.38495
2.376
2.36685
2.35809
2.34913
2.34051
2.33166
2.32313
2.31435
2.3059
2.29724
2.28878
2.28034
2.27174
2.26355
2.25475
2.24681
2.23786
2.23015
2.22112
2.21357
2.2045
2.19712
2.18807
2.18092
2.17203
2.16513
2.15644
2.1498
2.14134
2.13493
2.12686
2.12077
2.11336
2.10783
2.10153
2.0972
2.09305
2.0914
2.30757
2.27078
2.24745
2.26373
2.29148
2.34593
2.40783
2.49797
2.59894
2.71947
2.85558
2.98864
3.09397
3.17685
3.22526
3.2442
3.23084
3.19737
3.1515
3.09972
3.04355
2.98957
2.93785
2.88956
2.84255
2.79824
2.75598
2.71744
2.68213
2.65034
2.62208
2.59668
2.57489
2.55515
2.53866
2.52342
2.51083
2.49868
2.48899
2.47959
2.47174
2.46377
2.45672
2.44969
2.44316
2.43705
2.43076
2.4242
2.41706
2.41015
2.40301
2.39641
2.38947
2.38309
2.37603
2.36952
2.3621
2.35532
2.34765
2.34063
2.33292
2.32561
2.31799
2.31034
2.3029
2.29493
2.28768
2.27947
2.27231
2.26399
2.25681
2.24853
2.24125
2.23311
2.22561
2.21762
2.20985
2.20194
2.19381
2.18585
2.17747
2.16955
2.16111
2.15324
2.14483
2.13698
2.12865
2.12082
2.11266
2.10486
2.09695
2.08915
2.08164
2.07388
2.067
2.05949
2.05364
2.04698
2.04309
2.0388
2.30863
2.25866
2.23921
2.21821
2.22709
2.24659
2.27605
2.31806
2.37053
2.43656
2.51005
2.59204
2.66805
2.73207
2.77311
2.7894
2.7757
2.74587
2.701
2.65939
2.61781
2.58478
2.55526
2.5307
2.50985
2.49222
2.47648
2.46317
2.45202
2.44278
2.43531
2.42895
2.42399
2.41929
2.41596
2.41222
2.40949
2.40654
2.40411
2.40149
2.39884
2.3959
2.39269
2.38918
2.38552
2.38187
2.37799
2.37334
2.36832
2.36253
2.35732
2.35134
2.34609
2.33981
2.3343
2.32763
2.32184
2.3149
2.30893
2.30174
2.29561
2.28814
2.28189
2.27412
2.26781
2.25972
2.25332
2.24493
2.23834
2.22979
2.22295
2.21441
2.20728
2.19893
2.1915
2.18335
2.1757
2.16774
2.16002
2.15231
2.14465
2.13709
2.12949
2.122
2.11448
2.10701
2.09957
2.09207
2.08476
2.07723
2.07013
2.06257
2.05583
2.04831
2.04212
2.03485
2.02954
2.02306
2.01944
2.01526
2.30394
2.25872
2.22259
2.20855
2.19063
2.19657
2.20811
2.22975
2.25786
2.29611
2.33906
2.38789
2.43088
2.46964
2.4926
2.49506
2.48335
2.45929
2.42872
2.40575
2.37872
2.36843
2.35577
2.35498
2.35338
2.35307
2.35245
2.35233
2.35206
2.35227
2.35259
2.35337
2.35384
2.35463
2.3552
2.35535
2.35515
2.35465
2.35349
2.35235
2.3502
2.34832
2.34527
2.34253
2.33875
2.33583
2.33189
2.32818
2.32298
2.31808
2.31233
2.3071
2.3012
2.29563
2.28951
2.28356
2.27718
2.2708
2.26422
2.25739
2.25069
2.24347
2.23674
2.22919
2.22248
2.21468
2.20796
2.20005
2.19322
2.18532
2.17831
2.17057
2.16342
2.15589
2.14847
2.14121
2.13367
2.12665
2.11905
2.11221
2.10457
2.09783
2.09019
2.0835
2.07589
2.06919
2.06164
2.05489
2.04747
2.04065
2.03348
2.02663
2.01986
2.01302
2.00685
2.00025
1.99498
1.98914
1.98551
1.98187
2.29353
2.25585
2.22102
2.1953
2.18329
2.16965
2.17423
2.1851
2.19983
2.2286
2.2538
2.28746
2.31622
2.33571
2.35194
2.3491
2.33452
2.31072
2.2891
2.269
2.25754
2.24832
2.24599
2.25006
2.25567
2.26337
2.26866
2.27456
2.27778
2.28179
2.28387
2.2869
2.2885
2.29072
2.29203
2.29286
2.29285
2.29256
2.29179
2.29065
2.28881
2.28691
2.28422
2.28148
2.27807
2.27509
2.27169
2.26817
2.26377
2.25905
2.25393
2.24881
2.24351
2.23811
2.23259
2.22684
2.22101
2.21488
2.20872
2.20232
2.19595
2.18941
2.18291
2.17625
2.16959
2.16275
2.15587
2.14882
2.14172
2.13453
2.12722
2.12004
2.11245
2.1054
2.09776
2.09095
2.08322
2.07664
2.0689
2.06251
2.05482
2.04855
2.04095
2.03477
2.02732
2.02117
2.01389
2.0077
2.00064
1.99435
1.98759
1.98121
1.97487
1.96848
1.96272
1.95658
1.95166
1.94629
1.94287
1.93962
2.28309
2.24549
2.21679
2.18917
2.17467
2.1646
2.16166
2.17259
2.18505
2.20716
2.23012
2.25216
2.27486
2.2846
2.29121
2.28467
2.26637
2.24201
2.21905
2.20195
2.19239
2.18538
2.18427
2.18519
2.19307
2.20129
2.21068
2.21873
2.22498
2.23024
2.23398
2.23767
2.24011
2.24269
2.24388
2.24519
2.2454
2.24573
2.24542
2.24471
2.24378
2.24242
2.24074
2.23858
2.23616
2.2337
2.23123
2.22846
2.2251
2.22119
2.21691
2.21246
2.20784
2.20298
2.19807
2.19277
2.18757
2.18183
2.17636
2.17022
2.16457
2.15817
2.15242
2.14581
2.13985
2.13299
2.12667
2.11955
2.11285
2.1056
2.09853
2.09137
2.08418
2.0772
2.06988
2.06303
2.05562
2.04887
2.04143
2.03477
2.02739
2.02077
2.01351
2.00691
1.99979
1.99316
1.98623
1.97953
1.97284
1.96607
1.95969
1.95289
1.94693
1.94022
1.9348
1.92842
1.92381
1.91822
1.91506
1.91145
2.28161
2.24258
2.20994
2.1848
2.16475
2.1583
2.15496
2.16774
2.18602
2.20532
2.23087
2.25166
2.27002
2.27359
2.27466
2.26207
2.24017
2.21313
2.18809
2.17016
2.15679
2.15106
2.14596
2.14571
2.14723
2.15362
2.16061
2.1687
2.17676
2.18318
2.18846
2.19265
2.1958
2.19851
2.2004
2.20246
2.20366
2.20528
2.20579
2.2067
2.20659
2.20623
2.20535
2.20418
2.20226
2.20044
2.19837
2.19632
2.19366
2.19059
2.18703
2.18325
2.17919
2.1748
2.1703
2.16532
2.16044
2.15495
2.14982
2.14398
2.13871
2.1326
2.12718
2.12084
2.11511
2.10847
2.1023
2.09543
2.08879
2.08185
2.07496
2.06816
2.06112
2.05449
2.0474
2.0409
2.03377
2.02735
2.0202
2.0138
2.00668
2.00029
1.99326
1.9869
1.98003
1.9737
1.96706
1.96074
1.95438
1.94805
1.94207
1.9358
1.93029
1.92422
1.91934
1.91372
1.90966
1.90491
1.90227
1.8994
2.28019
2.24428
2.21125
2.18744
2.16753
2.16162
2.16369
2.17757
2.19604
2.2152
2.24127
2.26038
2.2672
2.27077
2.26397
2.24539
2.21864
2.192
2.16884
2.14928
2.13524
2.12465
2.11918
2.11467
2.11304
2.11337
2.11769
2.12293
2.1309
2.13871
2.14658
2.1522
2.15725
2.16063
2.16362
2.16583
2.16774
2.16935
2.17062
2.17147
2.17215
2.17215
2.17164
2.17078
2.16904
2.16727
2.16517
2.16334
2.1608
2.15804
2.15453
2.15089
2.14675
2.14244
2.13778
2.13294
2.12793
2.12275
2.1175
2.11209
2.10664
2.10104
2.09528
2.08938
2.0832
2.07696
2.07033
2.06384
2.05691
2.05041
2.04338
2.03697
2.02989
2.02359
2.01645
2.01025
2.00304
1.99688
1.98964
1.98348
1.97625
1.97008
1.96294
1.95677
1.94979
1.94366
1.93692
1.93081
1.92439
1.91832
1.91231
1.90634
1.90088
1.89521
1.89047
1.88541
1.88158
1.87758
1.87548
1.8733
2.27178
2.24407
2.21336
2.19428
2.1776
2.17533
2.18355
2.1994
2.21811
2.24419
2.26489
2.27646
2.27889
2.27552
2.26135
2.23653
2.20951
2.18437
2.16159
2.1421
2.12541
2.11232
2.10201
2.09492
2.09032
2.08808
2.0878
2.09024
2.09542
2.10269
2.1109
2.11851
2.12495
2.12982
2.13377
2.13652
2.13909
2.14112
2.14297
2.14448
2.14547
2.14619
2.14616
2.14569
2.14463
2.14329
2.14175
2.14038
2.13863
2.13645
2.13367
2.13047
2.12695
2.12303
2.11896
2.11448
2.11003
2.10517
2.10046
2.09529
2.0903
2.08478
2.0794
2.07352
2.0677
2.0615
2.05525
2.04891
2.04238
2.03601
2.02932
2.02302
2.01625
2.01003
2.00318
1.99701
1.99006
1.9839
1.97686
1.9707
1.96364
1.9575
1.95053
1.94441
1.93765
1.93156
1.92511
1.91905
1.91297
1.90697
1.90133
1.89551
1.89044
1.885
1.88068
1.87595
1.87269
1.86935
1.86804
1.86626
2.2655
2.24289
2.21848
2.20248
2.19669
2.19995
2.21346
2.22786
2.25143
2.27229
2.28658
2.29024
2.28866
2.27702
2.25614
2.23042
2.20492
2.18169
2.1598
2.14076
2.12274
2.10785
2.09419
2.08404
2.07644
2.07187
2.06922
2.06827
2.06896
2.07274
2.07772
2.08505
2.092
2.09837
2.10358
2.10784
2.11128
2.11396
2.11612
2.11765
2.11894
2.11959
2.12002
2.11978
2.11893
2.118
2.11642
2.11525
2.11355
2.1117
2.10907
2.1062
2.10284
2.09919
2.09517
2.09082
2.08629
2.08145
2.0766
2.07144
2.06635
2.06091
2.0555
2.04978
2.04396
2.03798
2.03182
2.02572
2.01926
2.01309
2.00642
2.00029
1.9935
1.98745
1.9806
1.97461
1.96774
1.96177
1.95487
1.94892
1.94204
1.93613
1.92935
1.92354
1.91698
1.91128
1.90504
1.89947
1.89365
1.88822
1.88296
1.87779
1.87324
1.8686
1.86486
1.86118
1.85874
1.85681
1.85635
1.85527
2.265
2.24499
2.22757
2.21924
2.22026
2.23104
2.24446
2.26547
2.28536
2.29995
2.30368
2.30274
2.29361
2.2762
2.25268
2.2291
2.20664
2.18556
2.16528
2.14607
2.1275
2.11066
2.0951
2.08199
2.07043
2.06122
2.05563
2.05144
2.0502
2.04915
2.05064
2.05465
2.06062
2.06773
2.07402
2.08014
2.08467
2.08889
2.09165
2.09414
2.09572
2.09684
2.09743
2.0974
2.09677
2.09597
2.09451
2.09338
2.09192
2.09034
2.08806
2.08549
2.08235
2.07896
2.07512
2.071
2.06667
2.06206
2.0574
2.05245
2.0475
2.04229
2.03699
2.03152
2.02582
2.02017
2.0141
2.00821
2.0018
1.99574
1.9891
1.983
1.97625
1.97023
1.96341
1.95755
1.95063
1.94493
1.93791
1.93233
1.92531
1.91977
1.9129
1.90738
1.90085
1.89533
1.88931
1.88382
1.87843
1.87312
1.86843
1.86364
1.85967
1.85574
1.8527
1.85023
1.84896
1.84858
1.84955
1.84823
2.26156
2.25067
2.2456
2.24712
2.25623
2.26738
2.2862
2.30453
2.31729
2.32023
2.31864
2.30921
2.29199
2.27121
2.24945
2.2291
2.209
2.18947
2.17015
2.15066
2.13187
2.11346
2.09665
2.08106
2.06781
2.05623
2.0472
2.04011
2.03557
2.03279
2.0323
2.03234
2.03538
2.04011
2.04699
2.05351
2.06003
2.06522
2.06939
2.07261
2.07455
2.07614
2.07657
2.07681
2.07638
2.07569
2.07439
2.07332
2.07209
2.07078
2.06898
2.06665
2.0639
2.06067
2.05712
2.05314
2.04892
2.04441
2.03976
2.03492
2.02996
2.02487
2.01959
2.01428
2.00872
2.00326
1.99732
1.99166
1.98531
1.97949
1.97279
1.96693
1.96003
1.95424
1.94726
1.94158
1.93462
1.92899
1.92211
1.91648
1.90973
1.90407
1.89755
1.89187
1.88574
1.88012
1.87452
1.86915
1.86409
1.85934
1.85486
1.85106
1.84736
1.84458
1.84252
1.84154
1.84171
1.8426
1.84464
1.84371
2.25442
2.25658
2.2647
2.27801
2.29347
2.31276
2.33012
2.33985
2.34238
2.33958
2.32915
2.31077
2.29065
2.27073
2.25163
2.23251
2.21412
2.19468
2.17586
2.15571
2.13688
2.11759
2.10041
2.08359
2.06922
2.0556
2.04491
2.03509
2.02909
2.0236
2.02104
2.01913
2.01891
2.01963
2.02302
2.02838
2.0344
2.03995
2.04516
2.04886
2.05214
2.05397
2.05524
2.05596
2.05588
2.05539
2.05444
2.05342
2.05215
2.051
2.04918
2.04712
2.04432
2.04139
2.03786
2.03422
2.03011
2.02595
2.02139
2.0169
2.01191
2.00715
2.00173
1.99684
1.99114
1.9861
1.98013
1.97482
1.96862
1.96299
1.95663
1.95077
1.94435
1.93835
1.93196
1.9259
1.9196
1.91351
1.90736
1.90125
1.89527
1.88919
1.88341
1.87742
1.87197
1.86616
1.86119
1.85581
1.85147
1.84688
1.84328
1.83978
1.83715
1.83524
1.83483
1.83511
1.83647
1.83826
1.84202
1.84277
2.2573
2.26933
2.28698
2.30999
2.33463
2.35565
2.36409
2.36631
2.36173
2.34954
2.33027
2.30906
2.2909
2.27278
2.25556
2.23779
2.22029
2.20179
2.18328
2.16421
2.14545
2.12711
2.10952
2.09277
2.07722
2.06272
2.05001
2.03814
2.02832
2.01975
2.01303
2.00811
2.00509
2.00291
2.00185
2.00283
2.00609
2.01134
2.01627
2.02153
2.0253
2.02841
2.03025
2.03114
2.03152
2.03119
2.03017
2.02906
2.02778
2.02669
2.02527
2.02341
2.02123
2.01853
2.01569
2.01226
2.0087
2.00465
2.00044
1.99596
1.99123
1.98647
1.9814
1.97663
1.97133
1.96653
1.96096
1.95599
1.95012
1.9449
1.93881
1.93336
1.92721
1.92162
1.91553
1.90985
1.90386
1.89817
1.89228
1.88665
1.88084
1.87535
1.86963
1.86439
1.85888
1.854
1.84903
1.8446
1.84058
1.83693
1.83393
1.83153
1.83001
1.82999
1.83077
1.83213
1.83456
1.83868
1.84542
1.84901
2.27005
2.29006
2.31689
2.34518
2.37361
2.38231
2.38844
2.38275
2.37019
2.34944
2.32943
2.31064
2.29391
2.27816
2.26224
2.24595
2.22899
2.21145
2.19309
2.17469
2.1558
2.13764
2.11914
2.10183
2.08446
2.06881
2.05296
2.03971
2.02597
2.01526
2.00443
1.9967
1.98981
1.98553
1.98172
1.97988
1.97872
1.98029
1.98431
1.98875
1.99385
1.99781
2.00124
2.00367
2.00481
2.00576
2.00548
2.00478
2.00358
2.00289
2.00174
2.00036
1.9984
1.99603
1.99338
1.99018
1.98686
1.98301
1.97918
1.97488
1.97062
1.96597
1.96145
1.95659
1.95187
1.94682
1.94184
1.93659
1.93126
1.92583
1.92016
1.9146
1.90872
1.90315
1.89724
1.89173
1.88595
1.88057
1.875
1.86979
1.86444
1.85948
1.85427
1.84971
1.84471
1.84065
1.83629
1.83283
1.8296
1.82703
1.82499
1.82432
1.82455
1.82599
1.82768
1.83115
1.83602
1.84378
1.85319
1.85807
2.29713
2.32423
2.35716
2.38138
2.38877
2.39358
2.38744
2.37532
2.35589
2.33798
2.32132
2.30648
2.292
2.27805
2.26306
2.24796
2.23155
2.21487
2.19696
2.17908
2.16014
2.1419
2.1229
2.10495
2.08688
2.06992
2.05335
2.03784
2.02299
2.00934
1.99684
1.98568
1.97619
1.96865
1.96268
1.95847
1.95511
1.95421
1.95421
1.95736
1.9611
1.96687
1.97122
1.97587
1.97876
1.981
1.9823
1.98229
1.98185
1.98121
1.98024
1.97937
1.97759
1.97574
1.973
1.97042
1.96707
1.96384
1.95992
1.95605
1.95168
1.94735
1.94273
1.93804
1.93325
1.92824
1.9233
1.918
1.91289
1.90735
1.90206
1.89636
1.89096
1.88522
1.87985
1.87412
1.86894
1.86329
1.85843
1.85297
1.84846
1.84337
1.8391
1.83459
1.8307
1.82684
1.82384
1.82082
1.81899
1.81713
1.8172
1.81782
1.81954
1.82206
1.82598
1.8325
1.84118
1.85099
1.86133
1.86647
2.34928
2.38228
2.40974
2.41783
2.4175
2.40767
2.38832
2.36344
2.34276
2.32525
2.30945
2.29578
2.2824
2.26971
2.25595
2.24191
2.22689
2.21102
2.19449
2.17716
2.15942
2.14121
2.12296
2.10469
2.08692
2.06929
2.05248
2.03611
2.02053
2.0057
1.99173
1.9791
1.96753
1.95798
1.94999
1.94403
1.93925
1.93604
1.93441
1.9346
1.93557
1.939
1.94445
1.94871
1.95388
1.95676
1.95986
1.96072
1.96162
1.96087
1.96025
1.95925
1.95819
1.95644
1.95409
1.95157
1.94853
1.94551
1.94179
1.93814
1.93386
1.92976
1.92514
1.92061
1.91574
1.91085
1.9058
1.90065
1.89542
1.89016
1.8848
1.87953
1.87409
1.86886
1.8634
1.85827
1.85286
1.84787
1.84268
1.8379
1.8331
1.82872
1.82444
1.82067
1.81717
1.81432
1.81199
1.81014
1.80924
1.80947
1.81082
1.81242
1.81583
1.82075
1.82839
1.83786
1.84842
1.85858
1.86814
1.87228
2.39387
2.42253
2.42586
2.42818
2.41845
2.3979
2.37659
2.35571
2.33762
2.32209
2.30759
2.29419
2.28079
2.26756
2.25357
2.23883
2.22356
2.20748
2.19108
2.17412
2.15696
2.13956
2.12212
2.10447
2.08714
2.0696
2.05284
2.03592
2.02006
2.0044
1.98999
1.97625
1.96385
1.95235
1.94254
1.93405
1.92749
1.92192
1.91742
1.91439
1.91336
1.91329
1.91492
1.91854
1.92319
1.928
1.93192
1.93538
1.9369
1.93809
1.93765
1.9367
1.93601
1.93453
1.93309
1.93039
1.92796
1.92479
1.92169
1.91814
1.91439
1.91056
1.90631
1.90219
1.89764
1.89323
1.88851
1.88381
1.87892
1.87397
1.86888
1.86382
1.85856
1.85356
1.8482
1.84338
1.83802
1.83349
1.82833
1.82414
1.81953
1.81576
1.81195
1.80904
1.80622
1.80464
1.80287
1.80287
1.80325
1.8049
1.80735
1.81083
1.81709
1.82523
1.83543
1.84588
1.85641
1.86509
1.87278
1.87521
2.45677
2.45611
2.45084
2.43597
2.40661
2.38085
2.35875
2.34053
2.32522
2.31234
2.30005
2.28813
2.27582
2.26291
2.24965
2.23551
2.22097
2.20554
2.18971
2.17325
2.1566
2.13947
2.12238
2.10501
2.08787
2.07073
2.05406
2.03739
2.02153
2.00566
1.99085
1.97626
1.96262
1.94987
1.93799
1.92743
1.91792
1.90994
1.90318
1.89699
1.89314
1.89056
1.89046
1.89083
1.89327
1.89816
1.90227
1.90733
1.91058
1.91358
1.9146
1.91513
1.91455
1.91404
1.91306
1.91143
1.90931
1.90654
1.9037
1.90033
1.89693
1.89315
1.88927
1.88514
1.8809
1.87646
1.87196
1.86722
1.86258
1.85754
1.85293
1.84767
1.84321
1.83792
1.83357
1.82849
1.82414
1.81939
1.8152
1.8108
1.80715
1.8033
1.80056
1.79794
1.79637
1.79519
1.79532
1.79631
1.79816
1.80105
1.80621
1.81297
1.82282
1.83277
1.84389
1.85355
1.8626
1.86887
1.87412
1.87512
2.49926
2.48875
2.46671
2.43232
2.40218
2.37784
2.35793
2.34154
2.32701
2.31419
2.30164
2.28926
2.27659
2.26354
2.25025
2.23631
2.22193
2.20688
2.19127
2.17522
2.15867
2.14194
2.12492
2.10791
2.09082
2.07382
2.05693
2.04013
2.02366
2.00729
1.99136
1.97574
1.96069
1.94628
1.9325
1.91998
1.90824
1.89836
1.88951
1.88272
1.87624
1.87167
1.86887
1.86838
1.86859
1.8702
1.8739
1.87889
1.88399
1.88833
1.89227
1.89403
1.8957
1.89542
1.89504
1.89429
1.89286
1.89058
1.88784
1.88476
1.88144
1.87788
1.87411
1.87022
1.86607
1.86193
1.85744
1.85312
1.84833
1.84383
1.8389
1.83426
1.82934
1.82468
1.81991
1.81542
1.81092
1.80673
1.80272
1.79896
1.79579
1.79284
1.7909
1.78925
1.78855
1.78874
1.79008
1.79198
1.79581
1.80137
1.81011
1.8199
1.831
1.84157
1.8516
1.85948
1.86593
1.86945
1.87284
1.87252
2.53364
2.50253
2.45856
2.4215
2.39249
2.37049
2.35334
2.33936
2.32619
2.31355
2.30048
2.28786
2.27476
2.26189
2.24838
2.23471
2.2204
2.20589
2.19077
2.1753
2.15919
2.14277
2.12601
2.10899
2.09204
2.07489
2.05809
2.04106
2.02452
2.00778
1.99164
1.97549
1.96007
1.9451
1.93085
1.91749
1.90504
1.89372
1.88368
1.87499
1.8676
1.8613
1.85639
1.85334
1.85311
1.85356
1.85473
1.8575
1.86279
1.86775
1.87343
1.87736
1.88071
1.8821
1.88274
1.88229
1.88157
1.88011
1.87802
1.87494
1.87176
1.86814
1.86443
1.86046
1.85622
1.85192
1.84728
1.84273
1.83779
1.83303
1.82796
1.82308
1.81809
1.8133
1.8085
1.80409
1.79959
1.79582
1.79191
1.78905
1.78623
1.78475
1.78333
1.78337
1.7839
1.78527
1.78809
1.79261
1.79978
1.80889
1.81935
1.83021
1.84093
1.85006
1.85802
1.86322
1.86735
1.86866
1.87072
1.86968
2.60303
2.54241
2.48255
2.43974
2.40968
2.3874
2.36914
2.35289
2.33745
2.32275
2.30797
2.29364
2.27904
2.26474
2.25033
2.23581
2.22109
2.20585
2.19028
2.17433
2.15818
2.14183
2.12543
2.10877
2.09229
2.07545
2.059
2.04217
2.02575
2.00912
1.993
1.97694
1.96153
1.94662
1.93221
1.91901
1.90599
1.89473
1.88363
1.87462
1.86596
1.85953
1.8529
1.84849
1.84474
1.84425
1.84501
1.8468
1.84967
1.8545
1.85971
1.86588
1.87007
1.87431
1.87587
1.87721
1.87649
1.87581
1.87445
1.87222
1.86924
1.86562
1.86203
1.85775
1.8537
1.84902
1.8444
1.83948
1.83433
1.82927
1.82387
1.81869
1.8134
1.8083
1.80339
1.79869
1.79447
1.79046
1.78739
1.78449
1.78308
1.78178
1.78185
1.78235
1.78387
1.78714
1.7929
1.80069
1.81048
1.82079
1.83171
1.8414
1.85037
1.85694
1.86222
1.86487
1.86686
1.86721
1.86819
1.86649
2.6638
2.59185
2.5242
2.47732
2.44481
2.42162
2.40193
2.38319
2.36505
2.34761
2.33079
2.31418
2.29809
2.28197
2.26656
2.25026
2.23442
2.21803
2.20216
2.18594
2.16958
2.15306
2.13636
2.11965
2.1029
2.08606
2.06944
2.05268
2.03624
2.01976
2.00379
1.98795
1.97291
1.95825
1.94439
1.93125
1.91871
1.90706
1.89599
1.8859
1.87662
1.86864
1.86148
1.85551
1.85022
1.84693
1.84488
1.84505
1.84621
1.84807
1.85099
1.85585
1.86149
1.86672
1.87125
1.87343
1.87528
1.87486
1.87402
1.87258
1.87055
1.86743
1.86373
1.8595
1.85524
1.85052
1.84576
1.84061
1.83541
1.83001
1.82461
1.81919
1.81384
1.80867
1.80362
1.79907
1.79472
1.79125
1.78822
1.78644
1.78512
1.78505
1.78542
1.78726
1.79148
1.79831
1.8067
1.81651
1.82683
1.8371
1.84637
1.8541
1.86014
1.86422
1.86654
1.86804
1.86793
1.86787
1.86792
1.86644
2.71821
2.64021
2.57704
2.5275
2.48969
2.45892
2.43302
2.40992
2.38885
2.36897
2.3505