/*--------------------------------*- C++ -*----------------------------------*\
| =========                 |                                                 |
| \\      /  F ield         | OpenFOAM: The Open Source CFD Toolbox           |
|  \\    /   O peration     | Version:  2112                                  |
|   \\  /    A nd           | Website:  www.openfoam.com                      |
|    \\/     M anipulation  |                                                 |
\*---------------------------------------------------------------------------*/
FoamFile
{
    version     2.0;
    format      ascii;
    arch        "LSB;label=32;scalar=64";
    class       volVectorField;
    location    "8.5";
    object      U;
}
// * * * * * * * * * * * * * * * * * * * * * * * * * * * * * * * * * * * * * //

dimensions      [0 1 -1 0 0 0 0];

internalField   nonuniform List<vector> 
5250
(
(2.99999 1.60973e-08 0)
(2.99998 1.24444e-07 0)
(2.99994 3.83848e-07 0)
(2.99987 1.15184e-06 0)
(2.99967 2.74516e-06 0)
(2.99927 7.0979e-06 0)
(2.99802 1.67342e-05 0)
(2.99586 3.89155e-05 0)
(2.98774 9.55272e-05 0)
(2.9743 0.000209745 0)
(2.9221 0.000521932 0)
(2.79479 0.00124172 0)
(2.4452 0.00365421 0)
(1.39662 0.00940562 0)
(0.636055 0.021606 0)
(0.562316 0.0230747 0)
(0.577892 0.0242686 0)
(0.562503 0.0256632 0)
(0.506196 0.0272717 0)
(0.419098 0.0291934 0)
(0.338633 0.031674 0)
(0.270436 0.0346123 0)
(0.200515 0.0378 0)
(0.120913 0.0416407 0)
(0.0536569 0.0473244 0)
(2.99999 4.86715e-08 0)
(2.99998 3.78078e-07 0)
(2.99994 1.16496e-06 0)
(2.99987 3.50805e-06 0)
(2.99967 8.37396e-06 0)
(2.99928 2.17023e-05 0)
(2.99805 5.15553e-05 0)
(2.99592 0.000119246 0)
(2.98788 0.000295916 0)
(2.97465 0.000645798 0)
(2.92292 0.00161508 0)
(2.79757 0.00384932 0)
(2.45145 0.0113492 0)
(1.40835 0.0293692 0)
(0.644231 0.0659093 0)
(0.560113 0.0670373 0)
(0.575666 0.0675187 0)
(0.560524 0.0693179 0)
(0.504371 0.0716645 0)
(0.417509 0.0749477 0)
(0.337109 0.079254 0)
(0.268435 0.0840225 0)
(0.197673 0.0886598 0)
(0.117003 0.0934753 0)
(0.0496946 0.0986968 0)
(2.99999 7.70794e-08 0)
(2.99998 5.99109e-07 0)
(2.99995 1.84459e-06 0)
(2.99988 5.5598e-06 0)
(2.99968 1.32392e-05 0)
(2.9993 3.46406e-05 0)
(2.9981 8.07817e-05 0)
(2.99606 0.000195883 0)
(2.98818 0.000462024 0)
(2.97541 0.00111528 0)
(2.92464 0.00267603 0)
(2.80346 0.00666422 0)
(2.46498 0.0194454 0)
(1.43534 0.0511382 0)
(0.664047 0.115016 0)
(0.55722 0.114018 0)
(0.57369 0.113134 0)
(0.56002 0.116565 0)
(0.504876 0.121101 0)
(0.419212 0.127619 0)
(0.339486 0.135565 0)
(0.270634 0.144163 0)
(0.199256 0.152618 0)
(0.11761 0.160748 0)
(0.0488624 0.167539 0)
(2.99999 9.99314e-08 0)
(2.99998 7.76367e-07 0)
(2.99995 2.38945e-06 0)
(2.99988 7.20677e-06 0)
(2.9997 1.71098e-05 0)
(2.99934 4.52679e-05 0)
(2.99818 0.000103163 0)
(2.99624 0.00026448 0)
(2.98864 0.000587797 0)
(2.97652 0.00159127 0)
(2.92732 0.00360968 0)
(2.8126 0.00976975 0)
(2.48603 0.0274111 0)
(1.47958 0.0740047 0)
(0.696012 0.167106 0)
(0.55278 0.161112 0)
(0.57233 0.157523 0)
(0.561954 0.162811 0)
(0.508488 0.169809 0)
(0.424789 0.179962 0)
(0.346101 0.19179 0)
(0.277375 0.204642 0)
(0.205358 0.217685 0)
(0.121968 0.229995 0)
(0.0501972 0.238865 0)
(2.99999 1.17349e-07 0)
(2.99998 9.1109e-07 0)
(2.99995 2.80348e-06 0)
(2.99989 8.4582e-06 0)
(2.99971 2.0025e-05 0)
(2.99938 5.34517e-05 0)
(2.99829 0.000119568 0)
(2.99646 0.000319637 0)
(2.98927 0.000683352 0)
(2.97796 0.00198586 0)
(2.93113 0.00426127 0)
(2.8249 0.0131073 0)
(2.51489 0.0337428 0)
(1.54598 0.0980533 0)
(0.742945 0.222953 0)
(0.548046 0.208855 0)
(0.573346 0.201072 0)
(0.568072 0.207984 0)
(0.516608 0.217319 0)
(0.435247 0.231157 0)
(0.357607 0.247141 0)
(0.289002 0.264721 0)
(0.216244 0.282982 0)
(0.130234 0.300339 0)
(0.053634 0.312137 0)
(2.99999 1.30135e-07 0)
(2.99998 1.01032e-06 0)
(2.99996 3.10793e-06 0)
(2.9999 9.38432e-06 0)
(2.99973 2.21633e-05 0)
(2.99942 5.96692e-05 0)
(2.9984 0.000131397 0)
(2.99671 0.000363999 0)
(2.99002 0.000757391 0)
(2.97954 0.00230155 0)
(2.93613 0.00477112 0)
(2.83913 0.0159993 0)
(2.55151 0.038393 0)
(1.6416 0.121757 0)
(0.806437 0.282011 0)
(0.543599 0.257739 0)
(0.577894 0.244571 0)
(0.579656 0.252905 0)
(0.530378 0.264414 0)
(0.451777 0.281954 0)
(0.375341 0.302526 0)
(0.306878 0.325794 0)
(0.232982 0.350793 0)
(0.143188 0.375388 0)
(0.0596349 0.392475 0)
(3 1.38057e-07 0)
(2.99999 1.07038e-06 0)
(2.99996 3.29185e-06 0)
(2.99991 9.93906e-06 0)
(2.99976 2.3373e-05 0)
(2.99947 6.37327e-05 0)
(2.99854 0.000136141 0)
(2.99699 0.000401892 0)
(2.99088 0.000784139 0)
(2.98134 0.00263944 0)
(2.94198 0.00528929 0)
(2.85503 0.0183906 0)
(2.59566 0.043644 0)
(1.76656 0.142998 0)
(0.887275 0.342044 0)
(0.541784 0.30675 0)
(0.587878 0.28801 0)
(0.598301 0.297386 0)
(0.551139 0.310932 0)
(0.475715 0.332603 0)
(0.400694 0.358442 0)
(0.332739 0.388498 0)
(0.258165 0.422156 0)
(0.163974 0.457512 0)
(0.0702461 0.484915 0)
(3 1.4577e-07 0)
(2.99999 1.12774e-06 0)
(2.99996 3.46911e-06 0)
(2.99992 1.04599e-05 0)
(2.99978 2.45331e-05 0)
(2.99951 6.73054e-05 0)
(2.99869 0.000140696 0)
(2.99725 0.000433334 0)
(2.99187 0.000796924 0)
(2.98333 0.00292409 0)
(2.94865 0.00567641 0)
(2.87342 0.0201203 0)
(2.64665 0.0479975 0)
(1.91929 0.157127 0)
(0.990496 0.392886 0)
(0.551518 0.356377 0)
(0.609021 0.334085 0)
(0.627593 0.342096 0)
(0.582018 0.356733 0)
(0.509926 0.382728 0)
(0.436285 0.41468 0)
(0.369117 0.453128 0)
(0.294727 0.497976 0)
(0.196961 0.549624 0)
(0.0891181 0.597988 0)
(3 1.6779e-07 0)
(2.99999 1.29778e-06 0)
(2.99997 3.98916e-06 0)
(2.99992 1.20334e-05 0)
(2.9998 2.83981e-05 0)
(2.99956 7.68105e-05 0)
(2.99884 0.000167632 0)
(2.99753 0.000476098 0)
(2.99294 0.00095755 0)
(2.98545 0.00309552 0)
(2.95573 0.00622565 0)
(2.89274 0.0208267 0)
(2.70074 0.0506667 0)
(2.09125 0.160743 0)
(1.12162 0.419429 0)
(0.59159 0.405819 0)
(0.647768 0.387684 0)
(0.670364 0.389425 0)
(0.626513 0.405043 0)
(0.557584 0.433357 0)
(0.485239 0.471831 0)
(0.419472 0.518669 0)
(0.348155 0.577198 0)
(0.252015 0.654221 0)
(0.12507 0.746487 0)
(3 2.54458e-08 0)
(2.99999 1.60654e-06 0)
(2.99997 2.83664e-06 0)
(2.99994 1.39703e-05 0)
(2.99983 2.08044e-05 0)
(2.99963 8.75091e-05 0)
(2.99902 0.000118057 0)
(2.99791 0.000545173 0)
(2.99404 0.000529338 0)
(2.98776 0.0037405 0)
(2.96293 0.00221989 0)
(2.91271 0.0242395 0)
(2.75435 0.0290682 0)
(2.26493 0.141702 0)
(1.29771 0.350505 0)
(0.667247 0.428951 0)
(0.701382 0.441255 0)
(0.722568 0.43696 0)
(0.683262 0.455598 0)
(0.618475 0.485089 0)
(0.548755 0.529058 0)
(0.486082 0.583721 0)
(0.42542 0.660303 0)
(0.346246 0.779006 0)
(0.194581 0.985809 0)
(3 1.18889e-07 0)
(2.99999 9.1905e-07 0)
(2.99998 2.83348e-06 0)
(2.99994 8.50053e-06 0)
(2.99986 2.00748e-05 0)
(2.99964 5.33797e-05 0)
(2.99923 0.000117066 0)
(2.99788 0.000322586 0)
(2.99558 0.000640907 0)
(2.98688 0.00205293 0)
(2.97203 0.00398175 0)
(2.91701 0.0127064 0)
(2.78005 0.0340729 0)
(2.41116 0.0847258 0)
(1.39368 0.279061 0)
(0.721304 0.467193 0)
(0.718919 0.494821 0)
(0.745783 0.489735 0)
(0.729501 0.50675 0)
(0.678379 0.536543 0)
(0.619631 0.582802 0)
(0.569479 0.644709 0)
(0.537446 0.735687 0)
(0.534409 0.879459 0)
(0.562633 1.11764 0)
(3 2.38214e-07 0)
(2.99999 4.38116e-07 0)
(2.99998 3.45439e-06 0)
(2.99995 5.00114e-06 0)
(2.99987 2.40449e-05 0)
(2.99971 3.24334e-05 0)
(2.99924 0.000148389 0)
(2.99835 0.000178444 0)
(2.99548 0.000976606 0)
(2.99054 0.000841969 0)
(2.97177 0.00696494 0)
(2.93775 0.00533428 0)
(2.81241 0.0436583 0)
(2.4673 0.0722319 0)
(1.65424 0.247049 0)
(0.826555 0.522561 0)
(0.730155 0.538335 0)
(0.758166 0.537023 0)
(0.762283 0.550698 0)
(0.730696 0.5824 0)
(0.690386 0.629567 0)
(0.660038 0.695997 0)
(0.65841 0.79031 0)
(0.707591 0.924453 0)
(0.823387 1.09876 0)
(3 1.08343e-07 0)
(2.99999 8.48234e-07 0)
(2.99998 2.60642e-06 0)
(2.99996 7.92189e-06 0)
(2.99989 1.87546e-05 0)
(2.99975 5.04497e-05 0)
(2.99935 0.00011342 0)
(2.99857 0.000302065 0)
(2.99614 0.000662521 0)
(2.99187 0.00184898 0)
(2.97598 0.00390902 0)
(2.94769 0.0118428 0)
(2.84245 0.026677 0)
(2.55618 0.0863109 0)
(1.86949 0.220203 0)
(0.955596 0.560095 0)
(0.739933 0.566566 0)
(0.769627 0.568795 0)
(0.790338 0.582881 0)
(0.778301 0.618301 0)
(0.757272 0.667319 0)
(0.748413 0.733142 0)
(0.768528 0.819844 0)
(0.837306 0.926991 0)
(0.968378 1.03435 0)
(3 1.03866e-07 0)
(2.99999 8.05857e-07 0)
(2.99998 2.47914e-06 0)
(2.99996 7.47479e-06 0)
(2.9999 1.76937e-05 0)
(2.99979 4.7083e-05 0)
(2.99945 0.000105695 0)
(2.9988 0.000278639 0)
(2.99677 0.000600673 0)
(2.99326 0.00171956 0)
(2.97997 0.00335289 0)
(2.95712 0.0115107 0)
(2.87019 0.0234671 0)
(2.64258 0.0839177 0)
(2.07383 0.207399 0)
(1.10163 0.584486 0)
(0.759111 0.594953 0)
(0.787853 0.599033 0)
(0.820637 0.609773 0)
(0.825214 0.645674 0)
(0.819169 0.69544 0)
(0.826279 0.756589 0)
(0.860079 0.829592 0)
(0.933006 0.911057 0)
(1.05763 0.980384 0)
(3 9.57044e-08 0)
(3 7.40022e-07 0)
(2.99999 2.27903e-06 0)
(2.99997 6.8484e-06 0)
(2.99992 1.61965e-05 0)
(2.99982 4.28837e-05 0)
(2.99954 9.60166e-05 0)
(2.99898 0.00025216 0)
(2.99734 0.000538348 0)
(2.99418 0.00155292 0)
(2.98402 0.00296367 0)
(2.96482 0.0104369 0)
(2.89825 0.0202406 0)
(2.72772 0.0746642 0)
(2.28677 0.182371 0)
(1.29316 0.548474 0)
(0.822936 0.616925 0)
(0.826421 0.633136 0)
(0.858485 0.639864 0)
(0.875396 0.669916 0)
(0.878516 0.715737 0)
(0.893967 0.770214 0)
(0.934381 0.83019 0)
(1.00641 0.891925 0)
(1.11921 0.941345 0)
(3 9.11112e-08 0)
(3 7.09029e-07 0)
(2.99999 2.18191e-06 0)
(2.99997 6.59119e-06 0)
(2.99993 1.56405e-05 0)
(2.99985 4.16644e-05 0)
(2.99963 9.4048e-05 0)
(2.99917 0.000244695 0)
(2.99785 0.000549096 0)
(2.99528 0.0014155 0)
(2.98729 0.00324124 0)
(2.97178 0.00839157 0)
(2.92054 0.0197065 0)
(2.79282 0.0561481 0)
(2.45179 0.145057 0)
(1.5035 0.432349 0)
(0.915278 0.631243 0)
(0.870972 0.665431 0)
(0.895717 0.67739 0)
(0.922392 0.695542 0)
(0.933649 0.732489 0)
(0.95372 0.778778 0)
(0.995923 0.82822 0)
(1.0645 0.875654 0)
(1.16514 0.912567 0)
(3 7.89357e-08 0)
(3 6.13237e-07 0)
(2.99999 1.88759e-06 0)
(2.99998 5.69068e-06 0)
(2.99995 1.34955e-05 0)
(2.99989 3.5836e-05 0)
(2.99971 8.07962e-05 0)
(2.99936 0.000209318 0)
(2.99831 0.000468803 0)
(2.99642 0.0011998 0)
(2.98979 0.00274986 0)
(2.97874 0.00687818 0)
(2.93621 0.0166854 0)
(2.83961 0.0439012 0)
(2.56325 0.115047 0)
(1.72168 0.334559 0)
(1.0366 0.660857 0)
(0.902949 0.695553 0)
(0.921099 0.711693 0)
(0.954774 0.719559 0)
(0.979273 0.747006 0)
(1.00509 0.785123 0)
(1.04783 0.825786 0)
(1.11214 0.863152 0)
(1.20123 0.891274 0)
(3 6.52278e-08 0)
(3 5.03228e-07 0)
(2.99999 1.55069e-06 0)
(2.99998 4.64925e-06 0)
(2.99996 1.10123e-05 0)
(2.99991 2.90373e-05 0)
(2.99977 6.52228e-05 0)
(2.9995 0.000168634 0)
(2.99868 0.000369547 0)
(2.99719 0.000988227 0)
(2.99199 0.00206334 0)
(2.98352 0.00606212 0)
(2.9501 0.0126214 0)
(2.87889 0.0394319 0)
(2.6634 0.0963619 0)
(1.98166 0.296925 0)
(1.2144 0.690368 0)
(0.941838 0.726258 0)
(0.946739 0.737855 0)
(0.981459 0.740182 0)
(1.01768 0.757785 0)
(1.0491 0.788973 0)
(1.09177 0.822806 0)
(1.15181 0.852893 0)
(1.23097 0.874647 0)
(3 3.06534e-08 0)
(3 4.63653e-07 0)
(2.99999 1.09046e-06 0)
(2.99999 4.13153e-06 0)
(2.99997 7.87571e-06 0)
(2.99993 2.55875e-05 0)
(2.99983 4.65307e-05 0)
(2.99961 0.000148178 0)
(2.999 0.000260602 0)
(2.99784 0.000873517 0)
(2.99399 0.00138919 0)
(2.98761 0.00558204 0)
(2.96298 0.00782548 0)
(2.91318 0.0371978 0)
(2.75745 0.0678628 0)
(2.27512 0.255533 0)
(1.47325 0.628691 0)
(1.03942 0.738607 0)
(0.999713 0.756819 0)
(1.01881 0.76209 0)
(1.05723 0.76992 0)
(1.09221 0.79297 0)
(1.1325 0.820441 0)
(1.18689 0.844727 0)
(1.25696 0.861579 0)
(3 2.51999e-08 0)
(3 3.63939e-07 0)
(3 8.70558e-07 0)
(2.99999 3.2564e-06 0)
(2.99998 6.31089e-06 0)
(2.99994 2.023e-05 0)
(2.99987 3.75151e-05 0)
(2.99968 0.000117275 0)
(2.99928 0.000212858 0)
(2.99813 0.000685835 0)
(2.9959 0.00115079 0)
(2.98892 0.0043384 0)
(2.97554 0.006074 0)
(2.93146 0.0280387 0)
(2.82412 0.0479736 0)
(2.52429 0.175097 0)
(1.71784 0.480667 0)
(1.15009 0.748801 0)
(1.05153 0.779095 0)
(1.05785 0.790741 0)
(1.09337 0.790249 0)
(1.13192 0.801678 0)
(1.1705 0.82091 0)
(1.21924 0.839085 0)
(1.28094 0.851542 0)
(3 5.56827e-08 0)
(3 2.02782e-07 0)
(3 9.63896e-07 0)
(2.99999 2.028e-06 0)
(2.99998 6.72268e-06 0)
(2.99996 1.28831e-05 0)
(2.99991 3.99343e-05 0)
(2.99976 7.47473e-05 0)
(2.99947 0.000230447 0)
(2.99862 0.000424535 0)
(2.99703 0.00134481 0)
(2.99173 0.00237989 0)
(2.98269 0.00824994 0)
(2.94903 0.0139512 0)
(2.87465 0.0529652 0)
(2.65788 0.110845 0)
(1.99682 0.368717 0)
(1.32083 0.753556 0)
(1.10007 0.803756 0)
(1.09174 0.816764 0)
(1.12105 0.813752 0)
(1.16425 0.813146 0)
(1.20404 0.823676 0)
(1.24863 0.835896 0)
(1.30343 0.844098 0)
(3 3.44271e-08 0)
(3 1.87745e-07 0)
(3 6.97832e-07 0)
(2.99999 1.79087e-06 0)
(2.99999 4.92162e-06 0)
(2.99997 1.12792e-05 0)
(2.99993 2.9241e-05 0)
(2.99983 6.53447e-05 0)
(2.99957 0.000167907 0)
(2.99906 0.000371283 0)
(2.99753 0.000972486 0)
(2.99465 0.00208302 0)
(2.98523 0.00587794 0)
(2.96742 0.0124028 0)
(2.90733 0.0365588 0)
(2.75727 0.0951306 0)
(2.3441 0.259357 0)
(1.53912 0.703496 0)
(1.17845 0.81784 0)
(1.13594 0.833525 0)
(1.15116 0.834914 0)
(1.19237 0.827123 0)
(1.23501 0.828256 0)
(1.27661 0.834547 0)
(1.32499 0.839028 0)
(3 2.04916e-08 0)
(3 1.59954e-07 0)
(3 4.92142e-07 0)
(3 1.48795e-06 0)
(2.99999 3.52998e-06 0)
(2.99998 9.39046e-06 0)
(2.99995 2.11949e-05 0)
(2.99988 5.49809e-05 0)
(2.99972 0.000122791 0)
(2.99929 0.000316637 0)
(2.99846 0.000712088 0)
(2.99582 0.00181975 0)
(2.99129 0.00413599 0)
(2.97449 0.0106876 0)
(2.94377 0.0253381 0)
(2.83566 0.0680848 0)
(2.54544 0.192816 0)
(1.8726 0.509333 0)
(1.29175 0.814056 0)
(1.18421 0.845289 0)
(1.18446 0.854666 0)
(1.2176 0.845719 0)
(1.26166 0.837015 0)
(1.30309 0.836304 0)
(1.34675 0.836838 0)
(3 2.27613e-08 0)
(3 8.68476e-08 0)
(3 3.99326e-07 0)
(3 8.66169e-07 0)
(2.99999 2.78592e-06 0)
(2.99999 5.49616e-06 0)
(2.99996 1.64754e-05 0)
(2.99992 3.17781e-05 0)
(2.99979 9.42078e-05 0)
(2.99955 0.000179606 0)
(2.99878 0.000542986 0)
(2.9975 0.000995686 0)
(2.99263 0.00329252 0)
(2.98497 0.00552062 0)
(2.95498 0.0210058 0)
(2.89223 0.0378505 0)
(2.69907 0.136921 0)
(2.13693 0.362112 0)
(1.48168 0.797155 0)
(1.23893 0.862397 0)
(1.21929 0.871781 0)
(1.23916 0.865053 0)
(1.28187 0.850209 0)
(1.32571 0.84248 0)
(1.36671 0.837726 0)
(3 1.04319e-08 0)
(3 8.06868e-08 0)
(3 2.48827e-07 0)
(3 7.46241e-07 0)
(3 1.76798e-06 0)
(2.99999 4.64877e-06 0)
(2.99997 1.04326e-05 0)
(2.99994 2.67264e-05 0)
(2.99985 5.90441e-05 0)
(2.99966 0.000152888 0)
(2.99914 0.00032597 0)
(2.99811 0.000910573 0)
(2.99506 0.00180366 0)
(2.98926 0.00566771 0)
(2.97069 0.0112915 0)
(2.93117 0.0353125 0)
(2.81354 0.0853559 0)
(2.45729 0.255762 0)
(1.77585 0.655964 0)
(1.34793 0.847244 0)
(1.27509 0.872914 0)
(1.2744 0.878214 0)
(1.30633 0.864753 0)
(1.34836 0.850007 0)
(1.38543 0.839149 0)
(3 5.94906e-09 0)
(3 6.76335e-08 0)
(3 1.76497e-07 0)
(3 6.10045e-07 0)
(3 1.27079e-06 0)
(2.99999 3.78801e-06 0)
(2.99998 7.56363e-06 0)
(2.99996 2.18483e-05 0)
(2.9999 4.32071e-05 0)
(2.99977 0.000124283 0)
(2.99941 0.000244246 0)
(2.99873 0.000709443 0)
(2.99658 0.00136248 0)
(2.9929 0.00417795 0)
(2.97925 0.00743878 0)
(2.95545 0.0256917 0)
(2.86819 0.048358 0)
(2.64021 0.169383 0)
(2.09477 0.417487 0)
(1.47039 0.831982 0)
(1.31532 0.88501 0)
(1.30352 0.892054 0)
(1.32437 0.881451 0)
(1.36394 0.859494 0)
(1.39967 0.83984 0)
(3 4.03667e-09 0)
(3 4.61082e-08 0)
(3 1.19987e-07 0)
(3 4.15829e-07 0)
(3 8.62911e-07 0)
(2.99999 2.57345e-06 0)
(2.99999 5.10912e-06 0)
(2.99997 1.475e-05 0)
(2.99993 2.89327e-05 0)
(2.99983 8.31976e-05 0)
(2.99963 0.000161931 0)
(2.99904 0.000473423 0)
(2.99794 0.000890385 0)
(2.99434 0.00282566 0)
(2.9883 0.00484905 0)
(2.9658 0.0179951 0)
(2.92124 0.0309303 0)
(2.77857 0.118011 0)
(2.37106 0.290089 0)
(1.72798 0.726663 0)
(1.39723 0.875149 0)
(1.34415 0.894825 0)
(1.34774 0.892721 0)
(1.37676 0.869825 0)
(1.40828 0.839079 0)
(3 4.91943e-09 0)
(3 2.65094e-08 0)
(3 9.86299e-08 0)
(3 2.52878e-07 0)
(3 6.92179e-07 0)
(3 1.58311e-06 0)
(2.99999 4.07385e-06 0)
(2.99998 9.0821e-06 0)
(2.99995 2.30618e-05 0)
(2.99988 5.10089e-05 0)
(2.99974 0.000129647 0)
(2.99934 0.000284556 0)
(2.99854 0.000741626 0)
(2.9962 0.00156293 0)
(2.99188 0.00447466 0)
(2.9773 0.00890988 0)
(2.95019 0.0278523 0)
(2.85842 0.0633902 0)
(2.60627 0.194863 0)
(2.04534 0.516384 0)
(1.51733 0.850655 0)
(1.38731 0.89845 0)
(1.37187 0.898815 0)
(1.38454 0.877443 0)
(1.40542 0.836292 0)
(3 4.22231e-09 0)
(3 1.77158e-08 0)
(3 7.68393e-08 0)
(3 1.7374e-07 0)
(3 5.34788e-07 0)
(3 1.09554e-06 0)
(2.99999 3.1459e-06 0)
(2.99999 6.31583e-06 0)
(2.99997 1.78513e-05 0)
(2.99992 3.56643e-05 0)
(2.99982 0.000100591 0)
(2.99955 0.000200127 0)
(2.99901 0.000568605 0)
(2.99745 0.00111424 0)
(2.99443 0.00330807 0)
(2.98501 0.00605612 0)
(2.96707 0.0205958 0)
(2.90777 0.0369574 0)
(2.75775 0.135007 0)
(2.37141 0.319997 0)
(1.7105 0.780436 0)
(1.43827 0.896662 0)
(1.39113 0.900689 0)
(1.38725 0.874464 0)
(1.39326 0.823317 0)
(3 2.8609e-09 0)
(3 1.19428e-08 0)
(3 5.1932e-08 0)
(3 1.17366e-07 0)
(3 3.61716e-07 0)
(3 7.40607e-07 0)
(3 2.12839e-06 0)
(2.99999 4.26967e-06 0)
(2.99998 1.20755e-05 0)
(2.99995 2.41075e-05 0)
(2.99988 6.80191e-05 0)
(2.99973 0.000135353 0)
(2.9993 0.00038386 0)
(2.99848 0.000758403 0)
(2.99601 0.0022005 0)
(2.99155 0.00424103 0)
(2.97628 0.0132485 0)
(2.94748 0.0250436 0)
(2.852 0.0843285 0)
(2.59776 0.203481 0)
(2.02965 0.561824 0)
(1.54159 0.866228 0)
(1.41352 0.895984 0)
(1.38217 0.855986 0)
(1.36826 0.785634 0)
(3 1.25047e-09 0)
(3 9.66951e-09 0)
(3 2.98145e-08 0)
(3 8.92651e-08 0)
(3 2.11464e-07 0)
(3 5.54014e-07 0)
(3 1.24516e-06 0)
(2.99999 3.16622e-06 0)
(2.99998 7.02955e-06 0)
(2.99997 1.77501e-05 0)
(2.99992 3.92488e-05 0)
(2.99981 9.90474e-05 0)
(2.99953 0.000218313 0)
(2.99896 0.000555356 0)
(2.99734 0.00120601 0)
(2.99421 0.00321362 0)
(2.98442 0.00662718 0)
(2.96607 0.0196125 0)
(2.90495 0.0417831 0)
(2.75112 0.129879 0)
(2.36114 0.338519 0)
(1.7194 0.771934 0)
(1.43007 0.874267 0)
(1.35119 0.816481 0)
(1.31998 0.716612 0)
(3 6.5953e-10 0)
(3 7.19646e-09 0)
(3 1.90782e-08 0)
(3 6.47823e-08 0)
(3 1.36327e-07 0)
(3 3.98997e-07 0)
(3 8.02328e-07 0)
(3 2.27245e-06 0)
(2.99999 4.52118e-06 0)
(2.99998 1.27135e-05 0)
(2.99994 2.51912e-05 0)
(2.99987 7.08441e-05 0)
(2.99968 0.000139693 0)
(2.9993 0.000395331 0)
(2.99822 0.000771359 0)
(2.99607 0.00224152 0)
(2.98982 0.00420802 0)
(2.97689 0.0134932 0)
(2.93885 0.023931 0)
(2.84577 0.085412 0)
(2.59736 0.189004 0)
(1.96523 0.559466 0)
(1.47268 0.81359 0)
(1.29221 0.745371 0)
(1.25165 0.626227 0)
(3 5.33658e-10 0)
(3 4.10782e-09 0)
(3 1.26823e-08 0)
(3 3.78188e-08 0)
(3 8.95861e-08 0)
(3 2.33499e-07 0)
(3 5.24295e-07 0)
(3 1.32545e-06 0)
(2.99999 2.93862e-06 0)
(2.99998 7.37533e-06 0)
(2.99996 1.62867e-05 0)
(2.99991 4.08414e-05 0)
(2.9998 8.99683e-05 0)
(2.99949 0.000226283 0)
(2.99887 0.000497171 0)
(2.99708 0.0012587 0)
(2.99374 0.00279511 0)
(2.98266 0.0070151 0)
(2.96238 0.0168767 0)
(2.89258 0.041877 0)
(2.72081 0.114 0)
(2.27944 0.297792 0)
(1.51833 0.670488 0)
(1.18591 0.652835 0)
(1.16147 0.548298 0)
(3 5.12821e-10 0)
(3 1.82011e-09 0)
(3 8.75463e-09 0)
(3 1.8221e-08 0)
(3 6.03183e-08 0)
(3 1.13762e-07 0)
(3 3.49531e-07 0)
(3 6.4068e-07 0)
(2.99999 1.94225e-06 0)
(2.99999 3.50695e-06 0)
(2.99997 1.06625e-05 0)
(2.99994 1.89689e-05 0)
(2.99984 5.82697e-05 0)
(2.99964 0.000101606 0)
(2.99908 0.000318897 0)
(2.99799 0.000535119 0)
(2.99461 0.00179959 0)
(2.98859 0.00264362 0)
(2.96741 0.0109796 0)
(2.92446 0.0142514 0)
(2.78925 0.0654393 0)
(2.41121 0.128508 0)
(1.6369 0.374054 0)
(1.07755 0.491348 0)
(1.0353 0.457469 0)
(3 1.94627e-10 0)
(3 1.49603e-09 0)
(3 4.62011e-09 0)
(3 1.37551e-08 0)
(3 3.25594e-08 0)
(3 8.45482e-08 0)
(3 1.89502e-07 0)
(3 4.76328e-07 0)
(3 1.05384e-06 0)
(2.99999 2.62348e-06 0)
(2.99998 5.78549e-06 0)
(2.99995 1.43269e-05 0)
(2.99987 3.15339e-05 0)
(2.9997 7.7523e-05 0)
(2.99923 0.000170816 0)
(2.99831 0.000410838 0)
(2.99549 0.000923647 0)
(2.99029 0.00214403 0)
(2.97211 0.00477799 0)
(2.9371 0.0110076 0)
(2.81357 0.0281666 0)
(2.47192 0.0593839 0)
(1.70428 0.162422 0)
(0.94729 0.310837 0)
(0.870295 0.346878 0)
(3 4.40536e-11 0)
(3 1.17837e-09 0)
(3 2.37077e-09 0)
(3 1.02991e-08 0)
(3 1.72072e-08 0)
(3 6.3121e-08 0)
(3 1.00917e-07 0)
(3 3.60214e-07 0)
(3 5.64761e-07 0)
(2.99999 2.0286e-06 0)
(2.99998 3.12674e-06 0)
(2.99996 1.14327e-05 0)
(2.99989 1.70769e-05 0)
(2.99976 6.51195e-05 0)
(2.99936 8.69656e-05 0)
(2.99861 0.000381724 0)
(2.99605 0.000358149 0)
(2.99181 0.00222539 0)
(2.97465 0.000758175 0)
(2.94416 0.0127933 0)
(2.82544 0.0012199 0)
(2.4993 0.0585097 0)
(1.72998 0.0708522 0)
(0.832505 0.193376 0)
(0.688842 0.250651 0)
(3 -4.61331e-12 0)
(3 7.3402e-10 0)
(3 1.10786e-09 0)
(3 6.27967e-09 0)
(3 8.27244e-09 0)
(3 3.8375e-08 0)
(3 4.84706e-08 0)
(3 2.19159e-07 0)
(3 2.68575e-07 0)
(2.99999 1.23717e-06 0)
(2.99998 1.46282e-06 0)
(2.99996 7.00951e-06 0)
(2.99991 7.74069e-06 0)
(2.99976 4.07368e-05 0)
(2.9995 3.47732e-05 0)
(2.99854 0.000256792 0)
(2.99702 5.99313e-05 0)
(2.99063 0.00167564 0)
(2.98061 -0.00069516 0)
(2.93778 0.0103025 0)
(2.84059 -0.00600062 0)
(2.55247 0.0435305 0)
(1.65263 0.0441071 0)
(0.795387 0.147705 0)
(0.555938 0.188164 0)
(3 1.0747e-10 0)
(3 -1.30148e-11 0)
(3 1.21976e-09 0)
(3 3.93073e-10 0)
(3 8.0722e-09 0)
(3 2.68252e-09 0)
(3 4.653e-08 0)
(3 1.22449e-08 0)
(3 2.59889e-07 0)
(2.99999 4.1204e-08 0)
(2.99999 1.45056e-06 0)
(2.99996 4.25014e-08 0)
(2.99992 8.37392e-06 0)
(2.99978 -1.71272e-06 0)
(2.99954 5.59657e-05 0)
(2.99864 -4.29746e-05 0)
(2.99723 0.000461558 0)
(2.99121 -0.000494158 0)
(2.98183 0.00353468 0)
(2.94116 -0.00321911 0)
(2.84954 0.0234882 0)
(2.57458 0.00156954 0)
(1.69145 0.0845882 0)
(0.80267 0.160325 0)
(0.494477 0.165339 0)
(3 8.21594e-11 0)
(3 -1.372e-10 0)
(3 7.36349e-10 0)
(3 -7.97671e-10 0)
(3 4.69122e-09 0)
(3 -4.8822e-09 0)
(3 2.63323e-08 0)
(3 -3.24142e-08 0)
(3 1.41911e-07 0)
(2.99999 -2.19852e-07 0)
(2.99998 7.58028e-07 0)
(2.99997 -1.47918e-06 0)
(2.99991 4.29673e-06 0)
(2.9998 -1.01943e-05 0)
(2.99946 3.11084e-05 0)
(2.99887 -7.89517e-05 0)
(2.99665 0.000302131 0)
(2.99316 -0.00058038 0)
(2.97835 0.00291231 0)
(2.95277 -0.00367268 0)
(2.84817 0.0205182 0)
(2.56825 -0.00127747 0)
(1.8612 0.0758076 0)
(0.828729 0.170665 0)
(0.462611 0.152964 0)
(3 1.72499e-11 0)
(3 1.3424e-10 0)
(3 4.12289e-10 0)
(3 1.24373e-09 0)
(3 2.9513e-09 0)
(3 7.84143e-09 0)
(3 1.76864e-08 0)
(3 4.5964e-08 0)
(3 1.02325e-07 0)
(2.99999 2.67342e-07 0)
(2.99998 5.90882e-07 0)
(2.99997 1.57094e-06 0)
(2.99991 3.44172e-06 0)
(2.9998 9.63438e-06 0)
(2.99948 1.94053e-05 0)
(2.99886 6.85274e-05 0)
(2.99682 0.000103646 0)
(2.99339 0.000512654 0)
(2.97945 0.000918557 0)
(2.95575 0.00352265 0)
(2.85842 0.00788452 0)
(2.59873 0.0295601 0)
(1.93145 0.0729016 0)
(0.846678 0.20068 0)
(0.426344 0.158131 0)
(3 -4.01998e-11 0)
(3 3.60351e-10 0)
(3 1.08255e-10 0)
(3 2.95085e-09 0)
(3 1.39409e-09 0)
(3 1.88407e-08 0)
(3 1.11575e-08 0)
(3 1.16668e-07 0)
(3 8.33398e-08 0)
(2.99999 7.23742e-07 0)
(2.99999 5.98822e-07 0)
(2.99997 4.50818e-06 0)
(2.99992 4.05095e-06 0)
(2.99982 2.81654e-05 0)
(2.99951 2.3359e-05 0)
(2.99894 0.00018513 0)
(2.99702 6.83906e-05 0)
(2.99384 0.00131222 0)
(2.98082 -0.000373083 0)
(2.95869 0.00904524 0)
(2.8682 -0.00198146 0)
(2.6284 0.0523441 0)
(2.00258 0.0683861 0)
(0.885179 0.243832 0)
(0.406118 0.170539 0)
(3 -4.97223e-11 0)
(3 2.7351e-10 0)
(3 -1.46838e-10 0)
(3 2.15813e-09 0)
(3 -4.89894e-10 0)
(3 1.35836e-08 0)
(3 -1.13516e-09 0)
(3 8.27182e-08 0)
(3 2.65047e-09 0)
(2.99999 5.00096e-07 0)
(2.99999 6.05406e-08 0)
(2.99997 3.01014e-06 0)
(2.99993 4.99894e-07 0)
(2.99982 1.81995e-05 0)
(2.99961 2.78227e-06 0)
(2.9989 0.00011683 0)
(2.99775 -9.86282e-06 0)
(2.99302 0.000915987 0)
(2.98572 -0.000479607 0)
(2.95465 0.00756263 0)
(2.88806 -0.00173714 0)
(2.6804 0.0454318 0)
(2.01765 0.0728329 0)
(0.979626 0.254097 0)
(0.44458 0.168701 0)
(3 1.35084e-11 0)
(3 7.14683e-11 0)
(3 2.70153e-10 0)
(3 6.9088e-10 0)
(3 1.93766e-09 0)
(3 4.45584e-09 0)
(3 1.1799e-08 0)
(3 2.65054e-08 0)
(3 6.93395e-08 0)
(2.99999 1.5391e-07 0)
(2.99999 4.04714e-07 0)
(2.99997 8.84662e-07 0)
(2.99993 2.40879e-06 0)
(2.99982 5.07049e-06 0)
(2.9996 1.62281e-05 0)
(2.99893 2.72116e-05 0)
(2.99768 0.000131295 0)
(2.99346 0.000202322 0)
(2.98636 0.00103148 0)
(2.95838 0.00206265 0)
(2.89885 0.00830959 0)
(2.71331 0.0218577 0)
(2.11944 0.0717238 0)
(1.0618 0.20624 0)
(0.464474 0.149765 0)
(3 6.93509e-11 0)
(3 -1.14468e-10 0)
(3 6.28746e-10 0)
(3 -6.53947e-10 0)
(3 4.06479e-09 0)
(3 -3.63758e-09 0)
(3 2.38578e-08 0)
(3 -2.08554e-08 0)
(3 1.37811e-07 0)
(2.99999 -1.20832e-07 0)
(2.99999 7.97061e-07 0)
(2.99997 -7.07597e-07 0)
(2.99993 4.65032e-06 0)
(2.99983 -4.26723e-06 0)
(2.99963 2.7657e-05 0)
(2.99899 -2.79123e-05 0)
(2.9979 0.000180828 0)
(2.99377 -0.000256073 0)
(2.98728 0.00155621 0)
(2.9606 -0.00248581 0)
(2.90544 0.0117772 0)
(2.73211 -0.00378078 0)
(2.18507 0.0487251 0)
(1.11309 0.10524 0)
(0.462259 0.118403 0)
(3 5.8602e-11 0)
(3 -1.74096e-10 0)
(3 4.03198e-10 0)
(3 -1.20675e-09 0)
(3 2.45411e-09 0)
(3 -7.21543e-09 0)
(3 1.37514e-08 0)
(3 -4.30633e-08 0)
(3 7.46108e-08 0)
(3 -2.60393e-07 0)
(2.99999 3.96625e-07 0)
(2.99997 -1.60269e-06 0)
(2.99993 2.09236e-06 0)
(2.99984 -1.00482e-05 0)
(2.99958 1.21138e-05 0)
(2.99906 -6.70229e-05 0)
(2.99749 0.000102313 0)
(2.9946 -0.000496241 0)
(2.98452 0.00111736 0)
(2.96628 -0.00331108 0)
(2.89938 0.00893904 0)
(2.7284 -0.0104078 0)
(2.27139 0.0276168 0)
(1.07856 0.0501024 0)
(0.432585 0.0970398 0)
(3 6.3193e-12 0)
(3 5.00905e-11 0)
(3 1.53237e-10 0)
(3 4.63606e-10 0)
(3 1.09421e-09 0)
(3 2.91555e-09 0)
(3 6.54948e-09 0)
(3 1.70641e-08 0)
(3 3.79696e-08 0)
(3 9.90377e-08 0)
(2.99999 2.20221e-07 0)
(2.99997 5.79056e-07 0)
(2.99993 1.28918e-06 0)
(2.99984 3.4287e-06 0)
(2.99958 7.64729e-06 0)
(2.99907 2.07563e-05 0)
(2.99754 4.55005e-05 0)
(2.99461 0.000133707 0)
(2.98502 0.000264177 0)
(2.96702 0.000918726 0)
(2.9028 0.00199174 0)
(2.73871 0.00680644 0)
(2.29537 0.0171257 0)
(1.10563 0.0496692 0)
(0.443063 0.0824926 0)
(3 -4.35966e-11 0)
(3 2.61614e-10 0)
(3 -8.25372e-11 0)
(3 2.02828e-09 0)
(3 -1.71377e-10 0)
(3 1.24631e-08 0)
(3 1.66713e-10 0)
(3 7.44918e-08 0)
(3 8.36586e-09 0)
(3 4.47794e-07 0)
(2.99999 9.92417e-08 0)
(2.99997 2.7289e-06 0)
(2.99993 8.88579e-07 0)
(2.99984 1.68773e-05 0)
(2.99959 5.42898e-06 0)
(2.99909 0.000110152 0)
(2.99759 -3.17556e-06 0)
(2.99478 0.000751218 0)
(2.98517 -0.00049235 0)
(2.96774 0.00470814 0)
(2.90408 -0.00449799 0)
(2.74198 0.0227139 0)
(2.30735 0.00513898 0)
(1.12842 0.0617227 0)
(0.453725 0.0797153 0)
(3 2.35742e-12 0)
(3 1.8203e-11 0)
(3 5.6192e-11 0)
(3 1.70238e-10 0)
(3 4.03021e-10 0)
(3 1.08286e-09 0)
(3 2.43974e-09 0)
(3 6.46539e-09 0)
(3 1.44481e-08 0)
(3 3.85689e-08 0)
(2.99999 8.62211e-08 0)
(2.99997 2.32813e-07 0)
(2.99994 5.22074e-07 0)
(2.99984 1.42614e-06 0)
(2.99966 3.21549e-06 0)
(2.99906 8.87535e-06 0)
(2.99808 2.01301e-05 0)
(2.99421 5.61095e-05 0)
(2.98824 0.000131447 0)
(2.96381 0.000376263 0)
(2.91475 0.000909349 0)
(2.75606 0.0029576 0)
(2.27395 0.00847712 0)
(1.25245 0.0255401 0)
(0.538492 0.049035 0)
(3 4.77921e-11 0)
(3 -2.28223e-10 0)
(3 1.84316e-10 0)
(3 -1.71736e-09 0)
(3 9.05958e-10 0)
(3 -1.04681e-08 0)
(3 4.34127e-09 0)
(3 -6.24259e-08 0)
(3 1.87166e-08 0)
(3 -3.74832e-07 0)
(2.99999 6.46741e-08 0)
(2.99997 -2.28234e-06 0)
(2.99993 1.1679e-07 0)
(2.99984 -1.4104e-05 0)
(2.9996 8.28951e-07 0)
(2.99911 -9.25906e-05 0)
(2.99763 4.25875e-05 0)
(2.99487 -0.000636013 0)
(2.98544 0.000747053 0)
(2.96839 -0.00390297 0)
(2.90622 0.00634065 0)
(2.74852 -0.0163478 0)
(2.32567 0.0114853 0)
(1.1671 -0.00922259 0)
(0.492775 0.0107542 0)
(3 -3.54364e-12 0)
(3 -2.73008e-11 0)
(3 -8.23238e-11 0)
(3 -2.38076e-10 0)
(3 -5.46999e-10 0)
(3 -1.39411e-09 0)
(3 -3.04472e-09 0)
(3 -7.59191e-09 0)
(3 -1.64762e-08 0)
(3 -4.07608e-08 0)
(2.99999 -8.88555e-08 0)
(2.99997 -2.16447e-07 0)
(2.99993 -4.76404e-07 0)
(2.99984 -1.12243e-06 0)
(2.99959 -2.48311e-06 0)
(2.9991 -5.33e-06 0)
(2.99763 -1.26551e-05 0)
(2.99479 -7.68406e-06 0)
(2.98559 -0.000106263 0)
(2.96837 0.000177038 0)
(2.90727 -0.000128218 0)
(2.75215 0.00152406 0)
(2.33365 0.00350869 0)
(1.17704 0.0100514 0)
(0.49769 0.0168097 0)
(1.11921 0.990607 0)
(1.02728 0.701747 0)
(0.127439 0.431702 0)
(-0.418413 0.0295069 0)
(-0.530394 -0.0119696 0)
(-0.690932 -0.0251212 0)
(-0.753641 -0.0117721 0)
(-0.80394 0.0091526 0)
(-0.86819 0.0176772 0)
(-0.932452 0.0159181 0)
(-0.984877 0.00848249 0)
(-1.02805 0.000586566 0)
(-1.07016 -0.00341883 0)
(-1.10336 -0.00183093 0)
(-1.11781 -0.00153688 0)
(-1.11939 -0.00287677 0)
(-1.10975 -0.0047467 0)
(-1.08565 -0.00726576 0)
(-1.04754 -0.00986473 0)
(-0.99908 -0.0118909 0)
(-0.944218 -0.0131697 0)
(-0.885978 -0.0139112 0)
(-0.826888 -0.0141044 0)
(-0.768378 -0.0139705 0)
(-0.710898 -0.0136525 0)
(-0.654457 -0.0133069 0)
(-0.598757 -0.0130446 0)
(-0.543579 -0.012955 0)
(-0.488845 -0.0130478 0)
(-0.434451 -0.0134698 0)
(-0.378602 -0.0155393 0)
(-0.32341 -0.0164966 0)
(-0.269201 -0.0173693 0)
(-0.216179 -0.0180996 0)
(-0.1642 -0.0192498 0)
(-0.113803 -0.0207619 0)
(-0.0637906 -0.0223839 0)
(-0.0162929 -0.0254221 0)
(0.0381346 -0.0251477 0)
(0.0854636 -0.0231524 0)
(0.131341 -0.0221464 0)
(0.175074 -0.0212464 0)
(0.217461 -0.0205968 0)
(0.257686 -0.0197528 0)
(0.295575 -0.0189131 0)
(0.33289 -0.0185339 0)
(0.371223 -0.0186905 0)
(0.409235 -0.018383 0)
(0.445883 -0.0177827 0)
(0.481256 -0.0171365 0)
(0.51557 -0.0164717 0)
(0.549078 -0.0158968 0)
(0.58178 -0.0153298 0)
(0.61375 -0.0148072 0)
(0.645002 -0.01427 0)
(0.675594 -0.0137833 0)
(0.705524 -0.0132744 0)
(0.734867 -0.0128151 0)
(0.76361 -0.0123322 0)
(0.791815 -0.0118923 0)
(0.819465 -0.0114334 0)
(0.846625 -0.0110045 0)
(0.873282 -0.0105668 0)
(0.899474 -0.01015 0)
(0.92521 -0.00972638 0)
(0.950513 -0.00932095 0)
(0.97539 -0.00891004 0)
(0.999865 -0.00851408 0)
(1.02394 -0.00811555 0)
(1.04763 -0.00772811 0)
(1.07094 -0.00734077 0)
(1.09388 -0.00696223 0)
(1.11644 -0.00658574 0)
(1.13863 -0.00621773 0)
(1.16045 -0.00585382 0)
(1.18189 -0.00549969 0)
(1.20296 -0.00515305 0)
(1.22365 -0.00481751 0)