/*--------------------------------*- C++ -*----------------------------------*\
| =========                 |                                                 |
| \\      /  F ield         | OpenFOAM: The Open Source CFD Toolbox           |
|  \\    /   O peration     | Version:  2112                                  |
|   \\  /    A nd           | Website:  www.openfoam.com                      |
|    \\/     M anipulation  |                                                 |
\*---------------------------------------------------------------------------*/
FoamFile
{
    version     2.0;
    format      ascii;
    arch        "LSB;label=32;scalar=64";
    class       surfaceScalarField;
    location    "9.5";
    object      phi;
}
// * * * * * * * * * * * * * * * * * * * * * * * * * * * * * * * * * * * * * //

dimensions      [0 3 -1 0 0 0 0];

oriented        oriented;

internalField   nonuniform List<scalar> 
17370
(
-0.0915825
0.0960736
0.28452
-0.0777086
0.0595936
0.364891
-0.0432565
0.0318773
0.427547
-0.0226154
0.0165599
0.505307
-0.0119018
0.008916
0.602388
-0.00656352
0.00498972
0.720631
-0.00370673
0.00281732
0.863796
-0.0020538
0.00149567
1.03601
-0.0010009
0.000625763
1.24288
-0.00028029
-3.74691e-05
1.49151
0.000359453
-0.000714121
1.49155
0.00108494
-0.00157327
1.24318
0.00212458
-0.00288012
1.03639
0.00376341
-0.00504141
0.864185
0.00661175
-0.00896133
0.721407
0.0119433
-0.0165958
0.603867
0.0226449
-0.0318988
0.508693
0.0432705
-0.0596019
0.4325
0.0777151
-0.0960767
0.365137
0.0915906
0.19742
-0.12725
0.0882914
0.0389583
-0.364529
0.354311
-0.071186
0.0814037
-0.446607
0.454624
-0.078809
0.0707917
-0.520938
0.529426
-0.0625249
0.0540369
-0.61294
0.620735
-0.0464641
0.0386687
-0.727192
0.733447
-0.0321758
0.0259201
-0.867644
0.87217
-0.0210136
0.0164876
-1.03853
1.04164
-0.013027
0.00991443
-1.24461
1.24685
-0.00753281
0.00529457
-1.49266
1.49458
-0.00345482
0.00153627
-1.4925
1.49428
0.000241989
-0.00202156
-1.24399
1.24581
0.00391175
-0.0057313
-1.03756
1.03992
0.00794807
-0.0103072
-0.866226
0.869657
0.013395
-0.0168265
-0.724685
0.729561
0.02132
-0.026195
-0.609071
0.615532
0.0324161
-0.0388764
-0.515078
0.522625
0.0466405
-0.0541869
-0.439806
0.44804
0.0626449
-0.0708788
-0.374859
0.377458
0.0788481
-0.0814473
-0.257144
0.224894
0.0712203
-0.0389705
-0.0692361
0.0598692
0.00936686
-0.0507437
0.0573029
-0.37513
0.368571
-0.0565127
0.0528568
-0.454271
0.457927
-0.0476836
0.0432647
-0.527919
0.532338
-0.0387277
0.0346958
-0.620736
0.624768
-0.0303532
0.0263357
-0.734287
0.738305
-0.0220281
0.0182349
-0.873531
0.877324
-0.0143571
0.0110837
-1.04295
1.04623
-0.00780278
0.00502356
-1.24823
1.25101
-0.00216529
-0.000432252
-1.49654
1.49914
0.00301408
-0.00584691
-1.49697
1.4998
0.00858108
-0.0117991
-1.24966
1.25288
0.0150155
-0.0188315
-1.04524
1.04906
0.0225786
-0.0268384
-0.876732
0.880992
0.0308205
-0.0351244
-0.738778
0.743082
0.0391085
-0.0435983
-0.626229
0.630719
0.0479812
-0.0531187
-0.535495
0.540632
0.0567366
-0.0574876
-0.458529
0.45928
0.0508795
-0.0311418
-0.337475
0.317737
0.00939089
-0.069171
0.0597801
-0.0544659
0.0507919
0.00367401
-0.0303104
0.0396798
-0.359785
0.350416
-0.0427168
0.0419571
-0.45958
0.46034
-0.0391701
0.0362805
-0.535943
0.538833
-0.0329614
0.0299147
-0.628207
0.631253
-0.0266005
0.0236592
-0.741672
0.744613
-0.0204977
0.0176727
-0.880648
0.883473
-0.0145873
0.0117734
-1.04938
1.0522
-0.00866658
0.00578649
-1.25395
1.25683
-0.0025175
-0.000654911
-1.50208
1.50526
0.0038129
-0.00703503
-1.50294
1.50617
0.00985776
-0.0128952
-1.25614
1.25918
0.0156343
-0.0186269
-1.05256
1.05555
0.0213648
-0.0244339
-0.884579
0.887648
0.0273084
-0.0305697
-0.746712
0.749974
0.0335409
-0.036778
-0.634608
0.637845
0.0396133
-0.0423474
-0.54444
0.547174
0.0430545
-0.0399452
-0.457647
0.454538
0.0304901
-0.0147463
-0.299635
0.283892
0.00370241
-0.0543523
0.0506499
-0.0481124
0.0463115
0.00180087
-0.0169929
0.0252459
-0.341202
0.332949
-0.0299105
0.0306841
-0.46042
0.459646
-0.0296005
0.0277697
-0.541247
0.543078
-0.025735
0.023887
-0.633782
0.63563
-0.0218468
0.0198768
-0.747204
0.749174
-0.017572
0.0153627
-0.885982
0.888191
-0.0128446
0.0104592
-1.05474
1.05712
-0.0077527
0.0051605
-1.25953
1.26212
-0.00212747
-0.000882922
-1.50835
1.51136
0.00386289
-0.00683071
-1.50925
1.51222
0.00934926
-0.0119617
-1.26196
1.26457
0.0142538
-0.0166641
-1.0582
1.06061
0.0187648
-0.0209507
-0.890334
0.89252
0.0228233
-0.0247734
-0.752709
0.754659
0.0265337
-0.0284557
-0.640473
0.642395
0.0301973
-0.0311807
-0.549188
0.550171
0.0303169
-0.0255429
-0.450403
0.445629
0.0171877
-0.00722496
-0.270805
0.260842
0.00183236
-0.0479424
0.04611
-0.0453229
0.0448599
0.000462955
-0.00690926
0.012286
-0.326178
0.320802
-0.017007
0.0193117
-0.458032
0.455727
-0.0202053
0.0201747
-0.544009
0.54404
-0.0199468
0.0194433
-0.636819
0.637322
-0.0185176
0.0174836
-0.750475
0.751509
-0.016112
0.0145853
-0.889993
0.89152
-0.0125866
0.0104667
-1.05936
1.06148
-0.00783792
0.00518147
-1.26472
1.26738
-0.00202032
-0.00108889
-1.51442
1.51752
0.00417477
-0.00726348
-1.51521
1.5183
0.00982371
-0.0123193
-1.26708
1.26958
0.0143054
-0.0161532
-1.06269
1.06454
0.0175505
-0.0187917
-0.894066
0.895308
0.0197279
-0.020547
-0.755903
0.756722
0.020877
-0.0209967
-0.643447
0.643567
0.0209296
-0.0199211
-0.550082
0.549074
0.0175055
-0.0126538
-0.440687
0.435835
0.00715533
-0.00245778
-0.253911
0.249214
0.000504359
-0.0450833
0.044579
-0.044634
0.0445306
0.000103419
-0.00307144
0.00663626
-0.316449
0.312884
-0.0111711
0.0147085
-0.452761
0.449224
-0.0174561
0.0189242
-0.543333
0.541865
-0.0195387
0.0197108
-0.637281
0.637109
-0.019452
0.0186511
-0.752465
0.753266
-0.0173013
0.0157059
-0.893089
0.894685
-0.0135477
0.0112422
-1.06364
1.06595
-0.00835093
0.0054158
-1.27015
1.27308
-0.00191242
-0.00152382
-1.52075
1.52419
0.00493461
-0.00833821
-1.52153
1.52493
0.0111151
-0.013804
-1.27215
1.27483
0.015927
-0.0178796
-1.06643
1.06839
0.0192974
-0.020459
-0.896579
0.897741
0.0210231
-0.021012
-0.756966
0.756954
0.0207161
-0.0199557
-0.643162
0.642401
0.018352
-0.0154596
-0.547091
0.544199
0.0117819
-0.00708398
-0.431041
0.426343
0.00337013
-0.000970708
-0.245904
0.243505
0.000151908
-0.0443089
0.044157
-0.0445085
0.0445127
-4.15302e-06
-0.00141352
0.00372136
-0.309997
0.307689
-0.00753636
0.0113641
-0.445382
0.441554
-0.0150554
0.0176587
-0.53968
0.537077
-0.0193393
0.0198604
-0.636833
0.636312
-0.0197866
0.0192353
-0.753911
0.754462
-0.0179834
0.0163422
-0.896301
0.897942
-0.0140846
0.0116418
-1.06837
1.07081
-0.00858544
0.00546561
-1.27616
1.27928
-0.00168003
-0.00208894
-1.52784
1.53161
0.00580486
-0.00944046
-1.5285
1.53213
0.0123802
-0.0151893
-1.27762
1.28043
0.0173617
-0.0193131
-1.07036
1.07231
0.0206532
-0.021541
-0.898717
0.899604
0.0218319
-0.0217542
-0.757007
0.75693
0.0210206
-0.0191061
-0.641006
0.639091
0.0162912
-0.0123779
-0.540629
0.536716
0.00834626
-0.00430854
-0.421891
0.417854
0.00180296
-0.00046582
-0.241745
0.240408
5.9115e-05
-0.0440797
0.0440206
-0.0445131
0.0445212
-8.11701e-06
-0.000675225
0.0019951
-0.305897
0.304577
-0.00452429
0.00745039
-0.438061
0.435135
-0.0106768
0.0131883
-0.534352
0.53184
-0.0151406
0.0162466
-0.6354
0.634294
-0.0166121
0.0162986
-0.755012
0.755326
-0.0153816
0.0140781
-0.899481
0.900784
-0.012168
0.0100294
-1.07315
1.07529
-0.00727993
0.00442154
-1.28232
1.28518
-0.000872036
-0.00270053
-1.53535
1.53893
0.00620415
-0.00957155
-1.5357
1.53907
0.0122346
-0.0147062
-1.28314
1.28561
0.0165177
-0.0180497
-1.07413
1.07566
0.0190207
-0.0196084
-0.900445
0.901033
0.0196098
-0.0188497
-0.756573
0.755813
0.0173881
-0.0150693
-0.63682
0.634502
0.012248
-0.00870733
-0.532816
0.529275
0.00551154
-0.00270237
-0.414386
0.411577
0.00114237
-0.000341412
-0.239365
0.238564
6.7764e-05
-0.043952
0.0438842
-0.0445495
0.0445928
-4.3239e-05
-0.000124288
0.000710341
-0.303665
0.303079
-0.00201018
0.00368247
-0.432856
0.431183
-0.00571642
0.00743318
-0.529696
0.527979
-0.00895306
0.00993195
-0.633215
0.632237
-0.0105221
0.0106259
-0.755374
0.75527
-0.0102637
0.00951205
-0.901798
0.90255
-0.00823676
0.00668095
-1.07715
1.07871
-0.00456546
0.00228805
-1.28778
1.29005
0.00055937
-0.0034194
-1.54219
1.54505
0.0061935
-0.00879837
-1.5421
1.5447
0.0107692
-0.0124947
-1.28774
1.28947
0.0136443
-0.0144257
-1.07681
1.0776
0.0147199
-0.0145872
-0.901207
0.901074
0.0140451
-0.0129788
-0.754825
0.753759
0.0115952
-0.00965836
-0.632328
0.630392
0.00758565
-0.00518584
-0.526287
0.523887
0.00319842
-0.00156691
-0.409407
0.407776
0.000690149
-0.000225767
-0.23796
0.237496
4.99359e-05
-0.0438275
0.0437776
-0.0446474
0.0447114
-6.40454e-05
0.000181988
-1.46358e-05
-0.302726
0.302558
-0.000516547
0.00128732
-0.430018
0.429247
-0.00230562
0.0032319
-0.526682
0.525756
-0.00412341
0.00475263
-0.631418
0.630789
-0.00519327
0.00534315
-0.75511
0.75496
-0.00520105
0.0047771
-0.903104
0.903528
-0.00397262
0.00292756
-1.07998
1.08103
-0.0014423
-0.000195658
-1.292
1.29364
0.00223825
-0.00426669
-1.54748
1.54951
0.00619811
-0.00793912
-1.54687
1.54861
0.0091704
-0.0101041
-1.29077
1.29171
0.0106028
-0.0107959
-1.07806
1.07825
0.0106492
-0.0101721
-0.900731
0.900254
0.0094742
-0.00845969
-0.752694
0.751679
0.00733924
-0.00595006
-0.628733
0.627344
0.00459968
-0.00314737
-0.522014
0.520561
0.00199999
-0.00106646
-0.406553
0.405619
0.000534265
-0.00020752
-0.237119
0.236792
5.50139e-05
-0.043727
0.043672
-0.0447871
0.0448703
-8.31803e-05
0.000392209
-0.000442784
-0.302528
0.302578
0.000342054
-8.94303e-05
-0.428772
0.428519
-0.000295994
0.000667614
-0.525137
0.524765
-0.00103609
0.00129566
-0.630351
0.630091
-0.00146079
0.0014782
-0.754863
0.754846
-0.00132109
0.000995002
-0.903879
0.904206
-0.000414562
-0.000332054
-1.0819
1.08264
0.00138298
-0.00253088
-1.29501
1.29615
0.00393542
-0.00529121
-1.55118
1.55253
0.00652407
-0.00754246
-1.54996
1.55098
0.0081431
-0.00849799
-1.29234
1.29269
0.00859808
-0.00842621
-1.07823
1.07806
0.00805555
-0.00745893
-0.899699
0.899102
0.00677328
-0.0059095
-0.750739
0.749875
0.00505097
-0.00407227
-0.626185
0.625206
0.00318224
-0.00226499
-0.519423
0.518506
0.00154413
-0.000928043
-0.40488
0.404264
0.000529027
-0.000233829
-0.23649
0.236195
6.91033e-05
-0.0436108
0.0435417
-0.0449631
0.0450654
-0.000102258
0.000557624
-0.000766044
-0.30271
0.302919
0.000893719
-0.000936548
-0.428432
0.428475
0.000927777
-0.000910167
-0.52459
0.524572
0.000911259
-0.000952398
-0.629991
0.630032
0.00106053
-0.00123295
-0.754922
0.755095
0.00152223
-0.00189396
-0.904543
0.904915
0.00243456
-0.00305471
-1.08331
1.08393
0.0038703
-0.00471652
-1.29713
1.29798
0.00570247
-0.00659687
-1.55364
1.55453
0.00733454
-0.00786141
-1.55174
1.55226
0.00808733
-0.00805451
-1.29281
1.29278
0.00782697
-0.00741435
-1.07776
1.07735
0.00691531
-0.0062647
-0.898478
0.897828
0.00560811
-0.00485016
-0.749075
0.748317
0.00414575
-0.0033836
-0.624358
0.623595
0.00271566
-0.00203642
-0.517735
0.517056
0.00148799
-0.000980757
-0.40372
0.403213
0.000606015
-0.000287043
-0.235893
0.235574
8.95034e-05
-0.043463
0.0433735
-0.0451802
0.0453095
-0.000129298
0.000742865
-0.00107092
-0.303188
0.303516
0.0013802
-0.00161704
-0.428621
0.428858
0.00185197
-0.00207227
-0.524682
0.524903
0.00233792
-0.00261351
-0.630196
0.630472
0.00296025
-0.00332597
-0.755364
0.75573
0.00378906
-0.00427532
-0.905338
0.905824
0.00488173
-0.00549932
-1.08453
1.08515
0.0062339
-0.00693048
-1.29873
1.29943
0.00767063
-0.00825983
-1.55526
1.55584
0.00865115
-0.00879477
-1.55258
1.55272
0.00870071
-0.00842441
-1.29263
1.29236
0.00800526
-0.00743049
-1.07685
1.07627
0.00682677
-0.00611607
-0.89715
0.896439
0.00544577
-0.00470992
-0.74758
0.746844
0.00405206
-0.00336001
-0.622883
0.622191
0.00276316
-0.00215457
-0.516427
0.515819
0.00164595
-0.0011421
-0.402717
0.402213
0.00073455
-0.000359215
-0.23523
0.234855
0.00011471
-0.043272
0.0431573
-0.0454554
0.0456191
-0.000163626
0.000962918
-0.00141564
-0.303904
0.304357
0.00188225
-0.00228299
-0.429177
0.429578
0.00271645
-0.00313069
-0.525222
0.525636
0.00361864
-0.00410032
-0.630852
0.631333
0.00467049
-0.00523214
-0.756193
0.756754
0.00589254
-0.00653458
-0.906384
0.907026
0.00727388
-0.00796848
-1.0858
1.08649
0.00872698
-0.00938168
-1.30009
1.30075
0.00999968
-0.0104004
-1.55633
1.55673
0.0105532
-0.0104307
-1.55273
1.5526
0.0101049
-0.00957282
-1.29194
1.29141
0.00897473
-0.00823062
-1.07562
1.07487
0.00750614
-0.00669244
-0.895684
0.89487
0.00595171
-0.00516005
-0.746089
0.745298
0.00446612
-0.00374592
-0.621495
0.620775
0.00312835
-0.00249479
-0.515207
0.514574
0.00195142
-0.00138897
-0.401686
0.401124
0.000910251
-0.000451565
-0.234441
0.233982
0.000145675
-0.0430279
0.0428823
-0.0458047
0.0460128
-0.000208131
0.00123824
-0.00183588
-0.304878
0.305476
0.00247286
-0.00304026
-0.430058
0.430626
0.00366901
-0.00427311
-0.526142
0.526747
0.00498003
-0.00566932
-0.631917
0.632607
0.00647161
-0.00724533
-0.75742
0.758193
0.00813162
-0.00896656
-0.90776
0.908595
0.0098922
-0.0107236
-1.08725
1.08808
0.0115825
-0.0122715
-1.30141
1.3021
0.0128518
-0.0131388
-1.55707
1.55735
0.0131136
-0.0127653
-1.55236
1.55202
0.0122233
-0.0114568
-1.29076
1.29
0.0106565
-0.00971265
-1.07403
1.07309
0.00882474
-0.0078516
-0.893984
0.893011
0.00698208
-0.00606518
-0.744452
0.743535
0.00526911
-0.00444801
-0.620013
0.619192
0.00374533
-0.00302119
-0.513903
0.513178
0.00239058
-0.001722
-0.400514
0.399846
0.00113809
-0.000568027
-0.233472
0.232902
0.00018397
-0.0427185
0.0425346
-0.0462511
0.0465179
-0.000266778
0.00159344
-0.0023709
-0.306157
0.306935
0.00321131
-0.00397082
-0.431278
0.432037
0.00481894
-0.00563444
-0.527449
0.528264
0.00658396
-0.0075051
-0.63341
0.634331
0.00857016
-0.00958909
-0.759088
0.760107
0.0107438
-0.0118166
-0.909543
0.910616
0.0129839
-0.0140075
-1.089
1.09002
0.0150302
-0.0158116
-1.30283
1.30361
0.0164124
-0.0166293
-1.5576
1.55782
0.0164533
-0.0158849
-1.55156
1.55099
0.0151175
-0.0140908
-1.2891
1.28808
0.0130527
-0.0118586
-1.07203
1.07083
0.010754
-0.00955897
-0.891934
0.890739
0.00850113
-0.00739311
-0.74253
0.741422
0.00643552
-0.00545044
-0.618298
0.617313
0.00460781
-0.00373687
-0.51239
0.511519
0.00297232
-0.00215214
-0.399108
0.398288
0.00142724
-0.000713842
-0.232265
0.231551
0.000231449
-0.0423285
0.042097
-0.0468258
0.0471712
-0.000345433
0.00206019
-0.00306887
-0.307815
0.308824
0.00416622
-0.00516248
-0.432892
0.433888
0.00627381
-0.00733894
-0.529196
0.530261
0.00857288
-0.00976705
-0.635393
0.636588
0.0111448
-0.01246
-0.761275
0.76259
0.0139444
-0.0153144
-0.911828
0.913198
0.01679
-0.0180652
-1.09116
1.09244
0.0193128
-0.020235
-1.30445
1.30538
0.0208971
-0.0210644
-1.55801
1.55818
0.0207371
-0.0199261
-1.55031
1.54949
0.0188966
-0.0175603
-1.2869
1.28557
0.0162313
-0.0147215
-1.06949
1.06798
0.0133381
-0.0118515
-0.889403
0.887917
0.0105421
-0.00917499
-0.740191
0.738824
0.00799547
-0.00678255
-0.616225
0.615012
0.00574406
-0.00466824
-0.51056
0.509484
0.0037203
-0.0026986
-0.397377
0.396355
0.00179168
-0.000896542
-0.230754
0.229858
0.000290754
-0.041839
0.0415482
-0.0475698
0.0480238
-0.000453979
0.00268604
-0.0039981
-0.309959
0.311271
0.00542666
-0.00671807
-0.434993
0.436285
0.00814595
-0.0095067
-0.531483
0.532844
0.0110772
-0.0126
-0.637978
0.639501
0.0143624
-0.0160489
-0.764096
0.765783
0.0179515
-0.0197009
-0.914734
0.916483
0.0215708
-0.0231684
-1.09384
1.09544
0.0247062
-0.0258139
-1.30637
1.30748
0.0265653
-0.0266842
-1.55831
1.55843
0.0261818
-0.0250805
-1.54854
1.54744
0.0237306
-0.0220113
-1.28405
1.28233
0.0203201
-0.0184135
-1.06627
1.06437
0.0166773
-0.01482
-0.886243
0.884386
0.0131893
-0.0114895
-0.737292
0.735592
0.0100229
-0.00851241
-0.613666
0.612155
0.00721543
-0.00586746
-0.508301
0.506953
0.00467708
-0.00339279
-0.395222
0.393937
0.00225304
-0.00112779
-0.228859
0.227734
0.000366306
-0.0412271
0.0408608
-0.0485405
0.0491468
-0.000606246
0.00353877
-0.00525172
-0.312737
0.31445
0.00710263
-0.00875138
-0.437724
0.439373
0.0105474
-0.0122523
-0.534463
0.536168
0.0142257
-0.0161586
-0.641319
0.643252
0.0184176
-0.0205898
-0.767706
0.769878
0.0230385
-0.0252795
-0.918407
0.920648
0.0276537
-0.0296571
-1.09718
1.09918
0.0315541
-0.0328869
-1.30866
1.30999
0.0337408
-0.0337921
-1.5585
1.55855
0.0330659
-0.0316001
-1.54616
1.54469
0.0298496
-0.0276514
-1.28037
1.27817
0.0255077
-0.0231052
-1.06221
1.05981
0.0209283
-0.018609
-0.882278
0.879958
0.0165787
-0.0144657
-0.733668
0.731555
0.012641
-0.0107558
-0.610476
0.60859
0.00912794
-0.00742506
-0.505487
0.503784
0.00591539
-0.00428628
-0.392527
0.390898
0.00284583
-0.00142597
-0.226485
0.225065
0.000465245
-0.0404658
0.0400005
-0.0498231
0.0506406
-0.000817487
0.00470274
-0.00694559
-0.316357
0.3186
0.0093315
-0.0114131
-0.441284
0.443365
0.0136475
-0.0157746
-0.538338
0.540466
0.0182715
-0.0207623
-0.645608
0.648099
0.0237114
-0.0265467
-0.772297
0.775133
0.0297061
-0.0325485
-0.923039
0.925881
0.0355266
-0.0380107
-1.10129
1.10377
0.0403208
-0.0418973
-1.31137
1.31294
0.042836
-0.0427673
-1.55851
1.55844
0.0417366
-0.0398003
-1.54298
1.54105
0.0375437
-0.0347461
-1.27567
1.27287
0.0320385
-0.0290202
-1.05707
1.05405
0.0262976
-0.0234092
-0.877294
0.874406
0.0208906
-0.0182764
-0.729122
0.726508
0.0160191
-0.013679
-0.606479
0.604139
0.011642
-0.00948635
-0.501968
0.499813
0.00755631
-0.00546481
-0.389156
0.387064
0.00362496
-0.00181815
-0.223515
0.221708
0.00059725
-0.0395221
0.0389249
-0.0515469
0.0526623
-0.00111537
0.00633038
-0.00929942
-0.32111
0.324079
0.0123982
-0.0150452
-0.445928
0.448575
0.0178552
-0.0205479
-0.543367
0.54606
0.0237633
-0.0270042
-0.651119
0.65436
0.0308449
-0.0345138
-0.778125
0.781794
0.0385605
-0.0421605
-0.928827
0.932427
0.0458604
-0.0488781
-1.10633
1.10934
0.0516122
-0.0534039
-1.31451
1.3163
0.0543528
-0.0540594
-1.5582
1.5579
0.0525971
-0.0500447
-1.53878
1.53623
0.0471484
-0.0436035
-1.26969
1.26614
0.0401987
-0.0364211
-1.05061
1.04683
0.0330256
-0.0294371
-0.871047
0.867458
0.0263215
-0.0231024
-0.723423
0.720204
0.0203303
-0.0174549
-0.601462
0.598586
0.0149324
-0.0122231
-0.497555
0.494845
0.00975428
-0.00704418
-0.38494
0.382229
0.00466211
-0.0023335
-0.219807
0.217479
0.000768914
-0.0383533
0.0375843
-0.0539044
0.0554859
-0.00158148
0.00881693
-0.0128353
-0.327399
0.331418
0.0169036
-0.0202984
-0.452019
0.455413
0.0238775
-0.0273565
-0.549899
0.553378
0.0315828
-0.0358539
-0.658186
0.662458
0.0408547
-0.0455304
-0.785542
0.790218
0.0505941
-0.0550036
-0.936045
0.940454
0.0594449
-0.062981
-1.11237
1.11591
0.0660807
-0.0679937
-1.31801
1.31992
0.0688091
-0.0681239
-1.55734
1.55665
0.0660512
-0.0626964
-1.53324
1.52989
0.0589981
-0.0545355
-1.26211
1.25765
0.0502816
-0.0455801
-1.04253
1.03782
0.0413612
-0.0369089
-0.863256
0.858803
0.0330526
-0.0290843
-0.716307
0.712339
0.0256822
-0.0221661
-0.595174
0.591658
0.0190723
-0.0157137
-0.492001
0.488642
0.0125943
-0.00910611
-0.379641
0.376153
0.00601192
-0.00298879
-0.21517
0.212147
0.00097764
-0.0368966
0.035919
-0.0572072
0.0596033
-0.00239614
0.0129538
-0.018476
-0.335868
0.34139
0.0237973
-0.0281526
-0.460133
0.464488
0.032767
-0.0373399
-0.558453
0.563026
0.0429363
-0.0485108
-0.667302
0.672877
0.0548778
-0.0606726
-0.79491
0.800704
0.0667985
-0.0720178
-0.944848
0.950067
0.0771528
-0.081115
-1.11938
1.12334
0.084425
-0.0862733
-1.32162
1.32347
0.0867175
-0.0854026
-1.55555
1.55424
0.0824908
-0.0781147
-1.52598
1.5216
0.0734372
-0.067882
-1.25262
1.24706
0.0626283
-0.0568404
-1.03251
1.02672
0.0516469
-0.0461565
-0.853617
0.848127
0.0413916
-0.0364867
-0.707483
0.702578
0.0322879
-0.0279637
-0.587332
0.583008
0.024163
-0.0200264
-0.48501
0.480873
0.0161346
-0.0117212
-0.37292
0.368507
0.00773989
-0.00382219
-0.209319
0.205401
0.0012332
-0.0350659
0.0338327
-0.0620544
0.0659624
-0.00390793
0.0201054
-0.0278585
-0.347598
0.355351
0.0349329
-0.040637
-0.471073
0.476777
0.0467478
-0.0528705
-0.5697
0.575822
0.0602435
-0.0673325
-0.679013
0.686102
0.0751282
-0.0819924
-0.806502
0.813366
0.0890432
-0.0948756
-0.955186
0.961018
0.100408
-0.104473
-1.12704
1.1311
0.107597
-0.109007
-1.32487
1.32628
0.108675
-0.106386
-1.55229
1.55
0.102341
-0.0966999
-1.51652
1.51088
0.0908727
-0.0840744
-1.24085
1.23405
0.0777062
-0.0707196
-1.02026
1.01327
0.0644517
-0.0578068
-0.841831
0.835186
0.0520148
-0.0460263
-0.696634
0.690646
0.040881
-0.0355765
-0.577607
0.572302
0.0309136
-0.0258114
-0.476215
0.471113
0.0209197
-0.0152872
-0.364344
0.358711
0.0101162
-0.00498089
-0.201839
0.196704
0.0015861
-0.0327516
0.0311655
-0.0696662
0.0769187
-0.00725252
0.0339499
-0.0452274
-0.364704
0.375981
0.0546356
-0.0619673
-0.486026
0.493358
0.0699185
-0.0778913
-0.584386
0.592358
0.087147
-0.0955888
-0.693598
0.702039
0.104477
-0.112008
-0.820089
0.827619
0.119454
-0.125339
-0.966498
0.972383
0.130616
-0.134163
-1.1346
1.13815
0.136452
-0.136848
-1.32695
1.32735
0.135184
-0.131459
-1.54682
1.5431
0.12592
-0.118751
-1.50436
1.49719
0.111606
-0.103455
-1.2265
1.21835
0.0959117
-0.0876946
-1.00556
0.997345
0.0803423
-0.0725461
-0.827697
0.819901
0.06573
-0.0586453
-0.683506
0.676421
0.052524
-0.0461956
-0.565654
0.559326
0.0406273
-0.0344734
-0.465147
0.458993
0.0283502
-0.0208867
-0.353252
0.345788
0.0137468
-0.00659271
-0.192042
0.184888
0.00200106
-0.029813
0.0278119
-0.0840346
0.0871646
-0.00313002
0.022139
-0.03177
-0.390452
0.400083
0.0405997
-0.0483649
-0.50601
0.513775
0.0576255
-0.0673543
-0.602314
0.612043
0.0780567
-0.0876174
-0.710202
0.719763
0.0982614
-0.107676
-0.83443
0.843845
0.117456
-0.125847
-0.977369
0.98576
0.134197
-0.140892
-1.14065
1.14735
0.146861
-0.150769
-1.32662
1.33053
0.152864
-0.152263
-1.53819
1.53759
0.148835
-0.142963
-1.48897
1.4831
0.13603
-0.127187
-1.20938
1.20054
0.118494
-0.108015
-0.988399
0.977919
0.0983474
-0.0876622
-0.811274
0.800588
0.0780568
-0.0678097
-0.668164
0.657917
0.058516
-0.0489638
-0.551432
0.541879
0.0407319
-0.0314653
-0.451429
0.442162
0.0228315
-0.0138715
-0.338463
0.329503
0.00715018
-0.00234368
-0.178342
0.173535
0.000226758
-0.0259518
0.025725
-0.0943902
0.090515
0.00387513
-0.00150587
-0.00402537
-0.412833
0.418364
0.0114735
-0.0184757
-0.525664
0.532666
0.027319
-0.0357759
-0.621971
0.630428
0.0453833
-0.0541504
-0.729329
0.738097
0.0635021
-0.0719841
-0.852856
0.861338
0.0808099
-0.0881106
-0.993934
1.00123
0.0955917
-0.101293
-1.15395
1.15965
0.106369
-0.109473
-1.33426
1.33737
0.110612
-0.109396
-1.53636
1.53515
0.105537
-0.0994483
-1.47667
1.47058
0.0923207
-0.0835228
-1.19143
1.18263
0.0750451
-0.0653367
-0.967386
0.957677
0.0562382
-0.0461375
-0.789339
0.779238
0.0371017
-0.0278282
-0.646036
0.636763
0.0199104
-0.0117549
-0.529929
0.521774
0.00478233
0.00188789
-0.430366
0.423696
-0.00657032
0.00925676
-0.319214
0.316528
-0.00875466
0.0057852
-0.166829
0.169799
-0.00245982
-0.0243405
0.0268004
-0.0926453
0.0886898
0.00395551
-0.00888395
0.00664699
-0.427566
0.429803
-0.00177284
-0.00397523
-0.542315
0.548063
0.0111506
-0.0183136
-0.639124
0.646287
0.026422
-0.0338725
-0.746396
0.753846
0.0420503
-0.0493356
-0.86919
0.876476
0.0567212
-0.0632046
-1.00842
1.0149
0.0697011
-0.0747827
-1.16506
1.17014
0.0789602
-0.081377
-1.34001
1.34243
0.0822804
-0.0809231
-1.53353
1.53217
0.0772324
-0.0716704
-1.46432
1.45876
0.0653736
-0.0579219
-1.17425
1.1668
0.0505458
-0.0424826
-0.948286
0.940223
0.0350779
-0.0270173
-0.769975
0.761914
0.0201419
-0.013124
-0.627412
0.620394
0.00738483
-0.00155508
-0.512339
0.506509
-0.0029198
0.00680904
-0.415116
0.411226
-0.00912419
0.00937655
-0.310048
0.309795
-0.00739354
0.00424469
-0.167789
0.170938
-0.00167743
-0.0269172
0.0285946
-0.0894811
0.0858352
0.00364586
-0.0108971
0.0105106
-0.43674
0.437127
-0.00731853
0.00270126
-0.555326
0.559943
0.00337957
-0.00922927
-0.653199
0.659049
0.0160064
-0.0222635
-0.761027
0.767284
0.0291064
-0.0352469
-0.883315
0.889456
0.0418758
-0.0473657
-1.02102
1.02651
0.0531029
-0.0572207
-1.17496
1.17907
0.0609604
-0.0631602
-1.34484
1.34704
0.0639172
-0.062535
-1.53075
1.52936
0.0594796
-0.054884
-1.4532
1.4486
0.0496479
-0.0432183
-1.15974
1.15331
0.0372436
-0.0308188
-0.932572
0.926147
0.0248548
-0.0187364
-0.754558
0.74844
0.0132348
-0.00788857
-0.613212
0.607866
0.00356828
0.00039956
-0.499743
0.495776
-0.00323057
0.00554433
-0.404957
0.402643
-0.00679892
0.00638849
-0.305176
0.305586
-0.00485413
0.00275328
-0.169158
0.171259
-0.00112162
-0.0281802
0.0293018
-0.0866217
0.08369
0.0029317
-0.0104815
0.0112549
-0.442576
0.441802
-0.00877674
0.00517236
-0.565986
0.56959
-0.000328524
-0.00482042
-0.664894
0.670043
0.0103958
-0.0158051
-0.773156
0.778565
0.0216351
-0.026905
-0.895242
0.900512
0.0325606
-0.0374555
-1.03191
1.0368
0.0423644
-0.0462575
-1.18317
1.18706
0.0496258
-0.051655
-1.34909
1.35112
0.0524481
-0.0513569
-1.52812
1.52703
0.048848
-0.0448526
-1.4438
1.4398
0.0404703
-0.0352323
-1.14734
1.1421
0.0302887
-0.0248878
-0.919961
0.91456
0.0200982
-0.0151143
-0.742563
0.737579
0.0108458
-0.00661671
-0.602528
0.598299
0.00331238
-0.000339723
-0.490682
0.487709
-0.00188837
0.00354492
-0.397943
0.396287
-0.00427846
0.00426968
-0.301773
0.301782
-0.00337501
0.00186511
-0.168886
0.170396
-0.000826319
-0.0285752
0.0294015
-0.0844722
0.0820937
0.00237843
-0.00928332
0.0102032
-0.446275
0.445355
-0.00878662
0.0057321
-0.574178
0.577233
-0.00127491
-0.0030189
-0.674705
0.678999
0.00772724
-0.0123539
-0.783459
0.788085
0.0174602
-0.022115
-0.905522
0.910177
0.0272553
-0.0315384
-1.04147
1.04575
0.0359989
-0.0396
-1.19076
1.19436
0.042741
-0.044706
-1.35306
1.35503
0.0455826
-0.0450992
-1.52611
1.52562
0.0429854
-0.0397092
-1.43571
1.43243
0.0359099
-0.0313608
-1.13702
1.13247
0.0272839
-0.0225091
-0.909365
0.90459
0.0183421
-0.0141545
-0.73278
0.728592
0.0105063
-0.00687931
-0.594116
0.590489
0.00398943
-0.00121453
-0.483701
0.480927
-0.000554058
0.00198409
-0.392403
0.390973
-0.00294106
0.00311079
-0.29826
0.298091
-0.00249097
0.00146868
-0.167704
0.168726
-0.000654027
-0.0284968
0.0291508
-0.0829982
0.0811976
0.00180053
-0.00761322
0.00864325
-0.44889
0.44786
-0.00739357
0.0050215
-0.581319
0.583691
-0.0010979
-0.00267613
-0.68308
0.686854
0.00707651
-0.0109969
-0.792528
0.796448
0.015421
-0.0195027
-0.914871
0.918953
0.0243531
-0.0282447
-1.05011
1.054
0.0322418
-0.035717
-1.19785
1.20132
0.0391099
-0.0410805
-1.35712
1.35909
0.0422326
-0.0419523
-1.52494
1.52466
0.040493
-0.0374434
-1.42915
1.4261
0.0342329
-0.0303109
-1.12795
1.12403
0.0265491
-0.022414
-0.90002
0.895885
0.0186054
-0.0146239
-0.724283
0.720302
0.0115022
-0.00807224
-0.586704
0.583274
0.0052474
-0.00275055
-0.477417
0.47492
0.000875918
0.000753751
-0.387598
0.385968
-0.00167767
0.00204294
-0.29494
0.294574
-0.00173111
0.00107751
-0.16609
0.166744
-0.000513235
-0.0281864
0.0286996
-0.0822223
0.0808237
0.00139858
-0.00602711
0.00703759
-0.450901
0.449891
-0.00583699
0.00360727
-0.587402
0.589632
-0.000148228
-0.00313757
-0.690452
0.693738
0.00682832
-0.0105556
-0.800459
0.804186
0.0145763
-0.0187457
-0.92291
0.927079
0.0228682
-0.0265669
-1.05803
1.06173
0.0306932
-0.03397
-1.20475
1.20803
0.0369754
-0.0394366
-1.36105
1.36351
0.0409112
-0.0410636
-1.52455
1.5247
0.0399073
-0.0375108
-1.42334
1.42094
0.0346501
-0.0310414
-1.11988
1.11627
0.027607
-0.0236957
-0.891679
0.887767
0.0200949
-0.0164379
-0.716387
0.71273
0.013136
-0.00986016
-0.579662
0.576386
0.00717568
-0.00447737
-0.471685
0.468987
0.00242774
-0.000899239
-0.382732
0.381204
-0.000203156
0.000898732
-0.291464
0.290768
-0.00100254
0.00070216
-0.164152
0.164452
-0.000392099
-0.0277203
0.0281124
-0.0820629
0.0808865
0.00117637
-0.00445776
0.00513772
-0.452777
0.452097
-0.00414783
0.00201734
-0.592824
0.594955
0.00100342
-0.00408
-0.69714
0.700217
0.00753973
-0.0108346
-0.807815
0.81111
0.0149138
-0.0183014
-0.930741
0.934129
0.022365
-0.0258762
-1.06562
1.06913
0.029891
-0.033373
-1.21135
1.21483
0.0367011
-0.0390205
-1.36583
1.36815
0.0409139
-0.041548
-1.52486
1.5255
0.0410727
-0.038982
-1.41849
1.4164
0.0364808
-0.0331163
-1.11275
1.10938
0.0298696
-0.0260169
-0.883627
0.879775
0.02257
-0.018816
-0.70882
0.705066
0.0155112
-0.0121209
-0.572867
0.569477
0.00923184
-0.00660181
-0.465763
0.463133
0.00433466
-0.00254632
-0.37783
0.376042
0.00115028
-0.000200426
-0.287698
0.286748
-0.000215534
0.000398012
-0.16176
0.161578
-0.000276289
-0.0270607
0.027337
-0.0821797
0.0813214
0.000858348
-0.00320322
0.00336709
-0.454881
0.454718
-0.00258991
0.000545292
-0.597423
0.599468
0.0020678
-0.00495193
-0.703179
0.706063
0.00818675
-0.0115489
-0.814352
0.817714
0.0149985
-0.0184949
-0.937732
0.941228
0.0224894
-0.0257864
-1.07308
1.07638
0.0298845
-0.0333306
-1.21819
1.22164
0.0367475
-0.0396279
-1.37096
1.37384
0.0420686
-0.0430526
-1.52625
1.52724
0.0428776
-0.0414767
-1.4145
1.4131
0.0394164
-0.0362308
-1.10586
1.10268
0.0330032
-0.0293713
-0.875783
0.872152
0.0255712
-0.0218906
-0.701014
0.697333
0.0185002
-0.0149032
-0.566026
0.562429
0.0119988
-0.00904115
-0.459661
0.456704
0.00664278
-0.00439463
-0.372866
0.370618
0.00282924
-0.00155467
-0.283563
0.282288
0.000600822
2.83541e-05
-0.15891
0.158281
-0.000186465
-0.0261664
0.0263529
-0.0826722
0.0819368
0.000735423
-0.0022711
0.00242411
-0.457203
0.45705
-0.00117001
-0.000561513
-0.601945
0.603677
0.00322156
-0.00590953
-0.70861
0.711298
0.00894013
-0.0118815
-0.82082
0.823761
0.0153988
-0.0185565
-0.944739
0.947897
0.0224637
-0.0261436
-1.08013
1.08381
0.0298846
-0.0336553
-1.22519
1.22896
0.0375063
-0.040526
-1.37673
1.37975
0.0434142
-0.0452443
-1.52856
1.53039
0.0455709
-0.044816
-1.41161
1.41086
0.0429314
-0.0400606
-1.09949
1.09662
0.0370282
-0.0332828
-0.868073
0.864327
0.0295575
-0.0256624
-0.693089
0.689194
0.0221176
-0.0182522
-0.558581
0.554715
0.0150246
-0.0118834
-0.453202
0.450061
0.0090698
-0.00651918
-0.367304
0.364754
0.00456861
-0.00289606
-0.278868
0.277195
0.00158297
-0.000446136
-0.155551
0.154414
-3.59878e-05
-0.0251039
0.0251399
-0.0833519
0.0827541
0.00059784
-0.00134415
0.00128539
-0.459641
0.459699
-0.000266236
-0.00166002
-0.605925
0.607851
0.00414313
-0.00661033
-0.713687
0.716154
0.00965973
-0.0124117
-0.826711
0.829463
0.0157354
-0.0189671
-0.951506
0.954737
0.0227386
-0.0263503
-1.08736
1.09097
0.0302759
-0.0340702
-1.2327
1.23649
0.0381308
-0.0419285