/*--------------------------------*- C++ -*----------------------------------*\
| =========                 |                                                 |
| \\      /  F ield         | OpenFOAM: The Open Source CFD Toolbox           |
|  \\    /   O peration     | Version:  2112                                  |
|   \\  /    A nd           | Website:  www.openfoam.com                      |
|    \\/     M anipulation  |                                                 |
\*---------------------------------------------------------------------------*/
FoamFile
{
    version     2.0;
    format      ascii;
    arch        "LSB;label=32;scalar=64";
    class       volVectorField;
    location    "9.5";
    object      U;
}
// * * * * * * * * * * * * * * * * * * * * * * * * * * * * * * * * * * * * * //

dimensions      [0 1 -1 0 0 0 0];

internalField   nonuniform List<vector> 
8800
(
(0.979707 -0.0914933 0)
(1.00216 -0.0589194 0)
(0.999591 -0.0323161 0)
(1.00012 -0.016787 0)
(1.00019 -0.00900249 0)
(1.00011 -0.00502396 0)
(1.00011 -0.00284322 0)
(1.00008 -0.00154691 0)
(1.00003 -0.000707192 0)
(1.00004 -0.000124348 0)
(1.00002 0.000463444 0)
(1.00006 0.00115818 0)
(1.00011 0.00218386 0)
(1.0001 0.00383265 0)
(1.00015 0.00674752 0)
(1.0002 0.0122749 0)
(0.999931 0.0233544 0)
(0.999048 0.043324 0)
(1.00683 0.0791191 0)
(0.774939 0.0478442 0)
(0.359772 -0.0146972 0)
(1.04706 -0.0719319 0)
(1.08875 -0.0653534 0)
(1.04961 -0.0496627 0)
(1.02545 -0.0361288 0)
(1.01252 -0.0245391 0)
(1.0064 -0.0158909 0)
(1.00342 -0.00982998 0)
(1.00193 -0.00551914 0)
(1.00125 -0.00214525 0)
(1.00118 0.000970854 0)
(1.00152 0.00416054 0)
(1.00255 0.00785197 0)
(1.00465 0.0128848 0)
(1.0089 0.0201029 0)
(1.01788 0.0301735 0)
(1.03594 0.0430236 0)
(1.06769 0.0570348 0)
(1.09531 0.0701146 0)
(0.846881 0.0553551 0)
(0.219594 -0.00128793 0)
(1.07688 -0.049223 0)
(1.10009 -0.0476206 0)
(1.06496 -0.0391407 0)
(1.03982 -0.031672 0)
(1.02303 -0.0242868 0)
(1.01327 -0.0171488 0)
(1.00797 -0.0107886 0)
(1.00534 -0.00542559 0)
(1.00439 -0.000706592 0)
(1.00461 0.00375853 0)
(1.00628 0.00863872 0)
(1.01002 0.0143838 0)
(1.01723 0.0210865 0)
(1.03021 0.028349 0)
(1.05102 0.0356214 0)
(1.08103 0.0433008 0)
(1.1068 0.0503478 0)
(0.945831 0.0400157 0)
(0.219328 0.00129688 0)
(0.180915 -0.000522329 0)
(1.02409 -0.0324117 0)
(1.10565 -0.037299 0)
(1.07725 -0.0324641 0)
(1.05209 -0.0270159 0)
(1.03528 -0.0216388 0)
(1.02356 -0.0164099 0)
(1.01563 -0.0112865 0)
(1.01088 -0.00616522 0)
(1.00867 -0.000797724 0)
(1.00939 0.00464146 0)
(1.01271 0.00972497 0)
(1.01887 0.0147037 0)
(1.02855 0.0196983 0)
(1.04248 0.0248383 0)
(1.06307 0.0302055 0)
(1.09341 0.0355737 0)
(1.09664 0.0376321 0)
(0.83949 0.0207525 0)
(0.180473 0.000531791 0)
(0.162698 -0.000321221 0)
(0.971339 -0.0194376 0)
(1.10613 -0.0269373 0)
(1.08609 -0.0247918 0)
(1.05848 -0.0214479 0)
(1.04022 -0.0180029 0)
(1.02786 -0.0141634 0)
(1.01967 -0.0100071 0)
(1.01465 -0.00553008 0)
(1.01248 -0.000525302 0)
(1.013 0.00458553 0)
(1.01641 0.00915014 0)
(1.02282 0.013285 0)
(1.03284 0.0170828 0)
(1.04778 0.0205323 0)
(1.07027 0.0237388 0)
(1.10123 0.0268447 0)
(1.07705 0.0257888 0)
(0.764471 0.0102149 0)
(0.162058 0.000331892 0)
(0.155805 -3.80587e-05 0)
(0.93211 -0.00853892 0)
(1.09843 -0.0162861 0)
(1.09039 -0.0175402 0)
(1.06336 -0.017131 0)
(1.04485 -0.0156023 0)
(1.03237 -0.0133208 0)
(1.02398 -0.00997091 0)
(1.01869 -0.00560783 0)
(1.01628 -0.000383815 0)
(1.01684 0.00492779 0)
(1.02044 0.00956191 0)
(1.02698 0.0131918 0)
(1.0371 0.0157553 0)
(1.05226 0.0174813 0)
(1.07445 0.018172 0)
(1.10113 0.0179673 0)
(1.0532 0.0139089 0)
(0.72429 0.00358656 0)
(0.154907 5.04307e-05 0)
(0.154177 1.95482e-05 0)
(0.906905 -0.00404658 0)
(1.08398 -0.0115504 0)
(1.08732 -0.015966 0)
(1.06321 -0.0170678 0)
(1.04722 -0.0166217 0)
(1.03619 -0.0143371 0)
(1.02867 -0.0107478 0)
(1.02379 -0.00595272 0)
(1.02135 -0.000155519 0)
(1.02186 0.00572642 0)
(1.02514 0.0107883 0)
(1.031 0.0146656 0)
(1.03995 0.0172995 0)
(1.05284 0.018291 0)
(1.07305 0.0178138 0)
(1.09294 0.0150386 0)
(1.03001 0.00843305 0)
(0.705122 0.00145469 0)
(0.152972 -5.07244e-06 0)
(0.153987 2.80548e-05 0)
(0.890182 -0.00197049 0)
(1.06545 -0.00831071 0)
(1.07848 -0.0143427 0)
(1.06208 -0.0171694 0)
(1.04873 -0.0170661 0)
(1.03943 -0.0149391 0)
(1.03267 -0.0111774 0)
(1.02799 -0.00609643 0)
(1.02544 0.000181723 0)
(1.02585 0.00660619 0)
(1.02891 0.0119622 0)
(1.03421 0.0159399 0)
(1.04183 0.0183995 0)
(1.05272 0.0189096 0)
(1.0683 0.0176942 0)
(1.07859 0.0128058 0)
(1.00855 0.00541489 0)
(0.694903 0.00070417 0)
(0.152395 -8.29175e-06 0)
(0.154014 1.49998e-05 0)
(0.879896 -0.000964646 0)
(1.04872 -0.0052014 0)
(1.06765 -0.0105245 0)
(1.05919 -0.0137456 0)
(1.05043 -0.0143288 0)
(1.04339 -0.0128444 0)
(1.03771 -0.00966762 0)
(1.03345 -0.00510042 0)
(1.03107 0.000796518 0)
(1.03124 0.0068591 0)
(1.0338 0.011721 0)
(1.03816 0.0150407 0)
(1.04407 0.0168101 0)
(1.05185 0.0169817 0)
(1.06082 0.0142825 0)
(1.06304 0.00925871 0)
(0.991935 0.00341706 0)
(0.688938 0.000483928 0)
(0.151946 8.65906e-06 0)
(0.15421 2.03019e-05 0)
(0.874631 -0.000250127 0)
(1.03775 -0.00243979 0)
(1.05904 -0.00579938 0)
(1.05552 -0.00829318 0)
(1.05044 -0.00925775 0)
(1.04553 -0.0086481 0)
(1.04104 -0.0065231 0)
(1.03735 -0.00300324 0)
(1.03516 0.00172608 0)
(1.03501 0.00652946 0)
(1.03696 0.0101293 0)
(1.04015 0.0122402 0)
(1.04433 0.0127986 0)
(1.04897 0.0118405 0)
(1.05351 0.00932956 0)
(1.05105 0.0055906 0)
(0.9815 0.00195435 0)
(0.685452 0.000313777 0)
(0.151556 8.26706e-06 0)
(0.154588 2.33766e-05 0)
(0.872606 0.000140081 0)
(1.03216 -0.000756105 0)
(1.05385 -0.00243737 0)
(1.05282 -0.00390427 0)
(1.05005 -0.0046266 0)
(1.04689 -0.00438424 0)
(1.0436 -0.00304117 0)
(1.04058 -0.000566994 0)
(1.03852 0.00281392 0)
(1.03801 0.00616095 0)
(1.03915 0.00842032 0)
(1.04112 0.00934607 0)
(1.04359 0.0090966 0)
(1.04605 0.00784273 0)
(1.04799 0.00581749 0)
(1.04356 0.00336975 0)
(0.975625 0.00126587 0)
(0.683278 0.000278406 0)
(0.151205 1.27897e-05 0)
(0.155104 2.63363e-05 0)
(0.87243 0.000388076 0)
(1.02987 0.000207645 0)
(1.05137 -0.000428537 0)
(1.05136 -0.00103641 0)
(1.04976 -0.00130679 0)
(1.04769 -0.00104084 0)
(1.04525 -7.0746e-05 0)
(1.04277 0.00166997 0)
(1.04073 0.00399554 0)
(1.03979 0.00612608 0)
(1.04015 0.00724247 0)
(1.04106 0.00741878 0)
(1.04228 0.00677172 0)
(1.04342 0.00553401 0)
(1.04411 0.0039782 0)
(1.03899 0.00236086 0)
(0.97207 0.00103927 0)
(0.681536 0.00030613 0)
(0.150781 1.84919e-05 0)
(0.155745 3.20019e-05 0)
(0.87319 0.000589768 0)
(1.02946 0.00080392 0)
(1.05067 0.000792149 0)
(1.05103 0.000795139 0)
(1.04998 0.000974634 0)
(1.04847 0.00145465 0)
(1.04654 0.00235032 0)
(1.04434 0.00370053 0)
(1.04221 0.00532742 0)
(1.04081 0.00661092 0)
(1.04033 0.00708261 0)
(1.04048 0.0066456 0)
(1.04084 0.00573523 0)
(1.04119 0.00455049 0)
(1.04128 0.0032728 0)
(1.03591 0.0020575 0)
(0.969456 0.00105368 0)
(0.679794 0.00037069 0)
(0.150236 2.54593e-05 0)
(0.156541 3.9789e-05 0)
(0.874742 0.000795674 0)
(1.03017 0.00130478 0)
(1.05112 0.00169892 0)
(1.05158 0.00213948 0)
(1.05073 0.00271306 0)
(1.04946 0.00347833 0)
(1.04772 0.00447959 0)
(1.04556 0.00569073 0)
(1.04318 0.00690689 0)
(1.04123 0.00758752 0)
(1.0401 0.0074248 0)
(1.03951 0.00671224 0)
(1.03926 0.00562434 0)
(1.03914 0.00440995 0)
(1.0389 0.0032166 0)
(1.03339 0.00212991 0)
(0.967071 0.00120031 0)
(0.677811 0.000460921 0)
(0.149534 3.34707e-05 0)
(0.15755 4.98577e-05 0)
(0.876983 0.0010373 0)
(1.0317 0.00180875 0)
(1.0524 0.00253288 0)
(1.05285 0.00334179 0)
(1.05202 0.00428433 0)
(1.05076 0.00537469 0)
(1.04897 0.00659272 0)
(1.04663 0.0078394 0)
(1.04383 0.00884783 0)
(1.04123 0.00911282 0)
(1.03942 0.00853379 0)
(1.03824 0.00746594 0)
(1.0375 0.00616186 0)
(1.03703 0.00482022 0)
(1.03657 0.00356109 0)
(1.03093 0.00243637 0)
(0.964538 0.00144417 0)
(0.675424 0.00057782 0)
(0.148638 4.29343e-05 0)
(0.158831 6.31176e-05 0)
(0.879982 0.00133724 0)
(1.034 0.00239189 0)
(1.05442 0.00344011 0)
(1.05478 0.00461279 0)
(1.05387 0.00593924 0)
(1.05245 0.00740179 0)
(1.05042 0.00892553 0)
(1.04769 0.0103338 0)
(1.04427 0.0112739 0)
(1.0409 0.0112313 0)
(1.03836 0.0102687 0)
(1.0366 0.00883319 0)
(1.03544 0.00723142 0)
(1.03467 0.0056569 0)
(1.03402 0.00421244 0)
(1.02824 0.00293243 0)
(0.961605 0.00178161 0)
(0.672477 0.000726121 0)
(0.147504 5.43999e-05 0)
(0.16047 8.07836e-05 0)
(0.883889 0.00172241 0)
(1.0371 0.00311499 0)
(1.05719 0.00452738 0)
(1.05742 0.0061037 0)
(1.05632 0.00786463 0)
(1.05462 0.00976998 0)
(1.05217 0.0116906 0)
(1.04883 0.0133656 0)
(1.04458 0.0143337 0)
(1.04026 0.0140315 0)
(1.0369 0.0126659 0)
(1.03453 0.0107997 0)
(1.03293 0.00880536 0)
(1.03187 0.00688947 0)
(1.03103 0.00515201 0)
(1.02508 0.00361692 0)
(0.958054 0.00222202 0)
(0.668798 0.000912383 0)
(0.146075 6.84592e-05 0)
(0.162584 0.000104828 0)
(0.888932 0.00222694 0)
(1.04115 0.00404631 0)
(1.06083 0.00589595 0)
(1.06087 0.0079452 0)
(1.05948 0.0102233 0)
(1.05735 0.0126723 0)
(1.0543 0.0150994 0)
(1.05012 0.0171416 0)
(1.04477 0.0182044 0)
(1.03929 0.0176421 0)
(1.03497 0.0158076 0)
(1.0319 0.0134167 0)
(1.02981 0.0109174 0)
(1.02843 0.00854561 0)
(1.02739 0.0064055 0)
(1.02122 0.00451357 0)
(0.953661 0.00278428 0)
(0.664183 0.00114607 0)
(0.144281 8.59426e-05 0)
(0.165335 0.000138839 0)
(0.895449 0.00290131 0)
(1.04637 0.00527069 0)
(1.06556 0.00764591 0)
(1.06533 0.0102551 0)
(1.06352 0.0131697 0)
(1.06078 0.0163087 0)
(1.05689 0.0193839 0)
(1.0516 0.0219006 0)
(1.04484 0.023104 0)
(1.03791 0.022241 0)
(1.03245 0.0198325 0)
(1.02855 0.0167883 0)
(1.0259 0.0136502 0)
(1.02415 0.0106959 0)
(1.02288 0.00803502 0)
(1.01645 0.00567238 0)
(0.948162 0.00350077 0)
(0.658373 0.00144146 0)
(0.142032 0.00010842 0)
(0.168956 0.000187803 0)
(0.90394 0.0038169 0)
(1.05318 0.00688691 0)
(1.07179 0.00987249 0)
(1.07114 0.013152 0)
(1.06872 0.0168898 0)
(1.06512 0.0209285 0)
(1.06008 0.024833 0)
(1.05332 0.0279381 0)
(1.04476 0.0293039 0)
(1.03605 0.0280572 0)
(1.02919 0.02493 0)
(1.02431 0.0210688 0)
(1.02098 0.0171327 0)
(1.01879 0.013454 0)
(1.01725 0.0101438 0)
(1.01048 0.00717956 0)
(0.941228 0.00442562 0)
(0.651026 0.00182073 0)
(0.139214 0.000138541 0)
(0.173783 0.000256744 0)
(0.915115 0.0050633 0)
(1.06221 0.00902114 0)
(1.08009 0.0127313 0)
(1.0788 0.016879 0)
(1.07554 0.021767 0)
(1.07073 0.0269705 0)
(1.06411 0.0318656 0)
(1.05541 0.035648 0)
(1.04455 0.0371478 0)
(1.03362 0.0353785 0)
(1.02506 0.0313415 0)
(1.01897 0.0264611 0)
(1.01481 0.0215363 0)
(1.01208 0.0169713 0)
(1.01019 0.0128768 0)
(1.003 0.00917021 0)
(0.932457 0.00565064 0)
(0.6417 0.00231759 0)
(0.13568 0.000179752 0)
(0.180328 0.000354966 0)
(0.929891 0.00680536 0)
(1.07415 0.0119475 0)
(1.09108 0.0166045 0)
(1.08888 0.0219456 0)
(1.08436 0.0283067 0)
(1.07797 0.0349686 0)
(1.06928 0.0410551 0)
(1.05801 0.0455371 0)
(1.04422 0.0470505 0)
(1.03055 0.0445399 0)
(1.0199 0.0393482 0)
(1.01233 0.0332042 0)
(1.00713 0.0270585 0)
(1.00368 0.0214098 0)
(1.00131 0.0163812 0)
(0.993583 0.0117956 0)
(0.921425 0.00729825 0)
(0.629907 0.00297352 0)
(0.131257 0.000233154 0)
(0.189417 0.000511685 0)
(0.949387 0.00945906 0)
(1.08964 0.0162011 0)
(1.1053 0.0221323 0)
(1.10187 0.0291546 0)
(1.09572 0.0374131 0)
(1.08713 0.0457465 0)
(1.07563 0.0530558 0)
(1.06106 0.0581453 0)
(1.04364 0.0594381 0)
(1.02666 0.0558765 0)
(1.01351 0.0492315 0)
(1.00414 0.0415445 0)
(0.997634 0.0339023 0)
(0.993248 0.0269079 0)
(0.990202 0.0207355 0)
(0.981792 0.0151149 0)
(0.907745 0.00944309 0)
(0.615239 0.00382115 0)
(0.125762 0.000294244 0)
(0.202377 0.000789226 0)
(0.975375 0.0138005 0)
(1.10998 0.0225852 0)
(1.12374 0.0302692 0)
(1.11837 0.0395549 0)
(1.10971 0.0500449 0)
(1.09794 0.0601347 0)
(1.08273 0.0686013 0)
(1.06408 0.0740471 0)
(1.04236 0.0747295 0)
(1.02156 0.0697177 0)
(1.00554 0.0612907 0)
(0.994036 0.0517812 0)
(0.985946 0.0423643 0)
(0.98037 0.0337172 0)
(0.976431 0.0260978 0)
(0.967148 0.01919 0)
(0.890878 0.0121334 0)
(0.597276 0.00491239 0)
(0.118979 0.000362992 0)
(0.22146 0.00130196 0)
(1.01106 0.0211116 0)
(1.13724 0.0327296 0)
(1.14787 0.0430566 0)
(1.13911 0.0552128 0)
(1.12642 0.0680548 0)
(1.11009 0.0796988 0)
(1.09003 0.0888442 0)
(1.06644 0.0939979 0)
(1.03983 0.0934013 0)
(1.0148 0.086424 0)
(0.995595 0.075895 0)
(0.981677 0.0643481 0)
(0.971691 0.0529692 0)
(0.964617 0.042447 0)
(0.959491 0.0331077 0)
(0.948994 0.0246115 0)
(0.869767 0.0157748 0)
(0.575097 0.00642178 0)
(0.110595 0.000453372 0)
(0.250194 0.00248241 0)
(1.06196 0.0347741 0)
(1.17366 0.0501803 0)
(1.17884 0.0639777 0)
(1.16437 0.0791719 0)
(1.14571 0.0938505 0)
(1.12324 0.106174 0)
(1.09713 0.114907 0)
(1.06773 0.118677 0)
(1.0357 0.115861 0)
(1.00617 0.106277 0)
(0.983554 0.0933312 0)
(0.966962 0.0796327 0)
(0.954736 0.066272 0)
(0.945721 0.0538774 0)
(0.938844 0.0427458 0)
(0.926433 0.0325875 0)
(0.842887 0.0214711 0)
(0.5473 0.0086198 0)
(0.100772 0.000523581 0)
(0.291055 0.00994375 -1.32013e-20)
(1.1296 0.0631981 -9.93598e-21)
(1.21895 0.0817848 2.69694e-21)
(1.21409 0.0992337 0)
(1.19163 0.11559 1.04999e-36)
(1.16545 0.129942 1.44798e-22)
(1.13582 0.141078 -1.2294e-21)
(1.10295 0.147956 0)
(1.06723 0.149321 4.69576e-35)
(1.02926 0.143614 -3.57151e-21)
(0.994731 0.13111 0)
(0.968195 0.115721 -5.15321e-21)
(0.94832 0.10003 -1.57906e-20)
(0.933125 0.0849932 -7.65332e-21)
(0.921266 0.0712267 -2.41618e-21)
(0.911468 0.0590096 -1.46625e-21)
(0.895857 0.0479039 0)
(0.807614 0.0347861 1.06083e-21)
(0.511529 0.018006 1.25778e-21)
(0.090989 0.00284112 2.23898e-20)
(0.314798 0.0277226 -2.4902e-20)
(1.18381 0.11073 5.14004e-22)
(1.26041 0.13178 -1.35071e-21)
(1.24609 0.14821 0)
(1.21581 0.162805 2.08777e-21)
(1.18227 0.175262 1.12129e-21)
(1.14573 0.184402 -7.60479e-22)
(1.1062 0.189097 -5.93784e-21)
(1.06395 0.188082 0)
(1.01938 0.179826 1.50699e-20)
(0.978738 0.164981 1.67386e-20)
(0.946998 0.14787 5.39244e-21)
(0.922535 0.131032 2.14084e-20)
(0.903079 0.115253 3.16955e-20)
(0.887082 0.101056 0)
(0.873062 0.0888736 4.7435e-20)
(0.852518 0.0781178 6.97897e-20)
(0.7665 0.0636162 7.81873e-20)
(0.487757 0.040084 -9.14863e-20)
(0.0891115 0.00770525 -1.66173e-21)
(0.306034 0.04465 0)
(1.21467 0.171802 -7.43067e-21)
(1.29166 0.194823 0)
(1.27104 0.20724 1.16878e-20)
(1.23453 0.218015 0)
(1.19477 0.226843 5.92799e-21)
(1.15207 0.232633 7.19086e-22)
(1.10653 0.234147 -8.51675e-21)
(1.05834 0.230046 -1.53371e-21)
(1.00782 0.218827 7.22902e-21)
(0.961728 0.20166 3.8939e-20)
(0.925538 0.183243 -2.50841e-22)
(0.897387 0.166012 -1.60638e-20)
(0.874744 0.150601 -3.12645e-20)
(0.856004 0.137329 3.80659e-20)
(0.839737 0.126393 -6.84558e-20)
(0.818706 0.117197 -9.41663e-21)
(0.741859 0.102025 0)
(0.488337 0.068279 3.61853e-22)
(0.0964973 0.0139618 0)
(0.293409 0.0590869 -1.87223e-19)
(1.22798 0.235909 7.6628e-20)
(1.31094 0.261921 4.04387e-20)
(1.28678 0.270971 -7.68691e-21)
(1.24612 0.277394 1.17499e-20)
(1.20182 0.281948 -1.45084e-20)
(1.15438 0.283748 5.04852e-22)
(1.10397 0.281553 0)
(1.05078 0.273965 -2.77303e-20)
(0.995179 0.259539 0)
(0.944679 0.239955 -1.96994e-20)
(0.905214 0.220214 -2.79584e-20)
(0.874695 0.20256 -1.79274e-20)
(0.850403 0.187318 -2.32011e-20)
(0.830598 0.174564 0)
(0.81375 0.164387 0)
(0.793789 0.155976 -6.29233e-20)
(0.724569 0.139899 1.25994e-20)
(0.485786 0.0950022 -7.39046e-21)
(0.0986721 0.0196092 -8.66265e-21)
(0.281968 0.071871 1.37414e-19)
(1.22975 0.299162 0)
(1.32062 0.329356 -1.12813e-19)
(1.29457 0.335372 -2.89315e-20)
(1.2512 0.337684 -2.20927e-20)
(1.20372 0.338156 0)
(1.15274 0.335964 -3.13835e-21)
(1.0985 0.329936 7.07447e-21)
(1.04134 0.31872 1.18456e-20)
(0.981653 0.300892 3.61274e-20)
(0.927563 0.278667 0)
(0.885551 0.257291 -6.05969e-20)
(0.853425 0.238768 -3.88888e-20)
(0.828189 0.223219 -2.34552e-20)
(0.807918 0.210495 1.54268e-19)
(0.791068 0.20049 1.89464e-20)
(0.772215 0.192092 9.0781e-20)
(0.707957 0.174214 -4.40793e-19)
(0.478506 0.11856 2.63443e-19)
(0.0982256 0.0245539 -3.18483e-19)
(0.272622 0.0834224 1.44361e-19)
(1.22419 0.359458 -2.66295e-20)
(1.32305 0.39526 1.97897e-20)
(1.2961 0.398666 5.37426e-20)
(1.25085 0.397204 3.30681e-20)
(1.20113 0.39385 1.59549e-21)
(1.14754 0.387849 2.91345e-21)
(1.09031 0.378099 4.65407e-21)
(1.02985 0.363334 -2.57608e-20)
(0.966679 0.34208 0)
(0.909604 0.31696 -2.59094e-20)
(0.865668 0.293557 -1.478e-21)
(0.832479 0.273732 -4.35031e-20)
(0.806797 0.257377 0)
(0.786532 0.24413 -3.36167e-20)
(0.770034 0.233704 -8.18095e-20)
(0.752083 0.224747 2.26898e-19)
(0.690789 0.204604 -2.2734e-19)
(0.468462 0.139161 3.2413e-19)
(0.0963855 0.0287975 -3.37992e-19)
(0.265322 0.0941168 -4.692e-22)
(1.21425 0.416374 3.24471e-20)
(1.32021 0.45853 9.45903e-20)
(1.29295 0.459809 -3.28756e-20)
(1.24643 0.45499 1.89115e-20)
(1.19505 0.448133 0)
(1.13944 0.438606 9.01852e-21)
(1.07985 0.425368 -2.97544e-21)
(1.01672 0.407172 -1.14679e-20)
(0.950691 0.382535 0)
(0.891135 0.354369 -2.50598e-20)
(0.845604 0.32865 -3.55381e-20)
(0.811622 0.307136 4.75436e-20)
(0.785699 0.289536 -3.0521e-20)
(0.765554 0.275345 -1.48031e-19)
(0.749422 0.264112 9.11346e-20)
(0.732171 0.254282 2.89867e-20)
(0.673022 0.231775 0)
(0.456922 0.157377 -3.14573e-19)
(0.093794 0.0324271 -1.15687e-20)
(0.259758 0.104341 2.34963e-20)
(1.20186 0.469799 -3.7215e-20)
(1.31338 0.518611 -5.15769e-20)
(1.28616 0.518169 -1.01216e-19)
(1.23882 0.510402 9.16682e-20)
(1.18629 0.50041 -4.94739e-20)
(1.12922 0.487679 -1.93085e-20)
(1.06784 0.471267 -3.69465e-21)
(1.0025 0.449874 1.19245e-20)
(0.933904 0.421957 -8.71499e-20)
(0.872048 0.390689 -3.09933e-20)
(0.825066 0.3624 0)
(0.790396 0.338847 5.20414e-20)
(0.764329 0.31964 6.45042e-20)
(0.744372 0.30417 7.95291e-20)
(0.728638 0.291858 -9.95901e-20)
(0.712015 0.280933 -3.00471e-20)
(0.654568 0.256064 3.57764e-20)
(0.444147 0.173297 0)
(0.0906544 0.0354448 -2.52749e-20)
(0.255533 0.114208 -2.71418e-19)
(1.18835 0.519858 1.70547e-19)
(1.3037 0.575243 5.65481e-20)
(1.27669 0.573364 -7.71819e-20)
(1.22889 0.563015 5.4738e-20)
(1.17562 0.550271 -3.77283e-21)
(1.11746 0.534746 1.93124e-20)
(1.0546 0.515487 -1.78951e-21)
(0.987393 0.491212 -2.0297e-20)
(0.916469 0.460191 1.18688e-22)
(0.852414 0.425835 -9.19341e-20)
(0.803981 0.39478 9.09108e-20)
(0.768613 0.368887 -5.85067e-20)
(0.742405 0.347743 7.29729e-20)
(0.722658 0.330694 0)
(0.70734 0.31708 -5.42575e-20)
(0.691317 0.304863 -1.34057e-21)
(0.63541 0.277495 -1.56862e-19)
(0.430283 0.187021 -2.32222e-20)
(0.086998 0.0378325 0)
(0.25231 0.123763 0)
(1.17444 0.566746 1.83815e-19)
(1.29206 0.628321 1.31691e-19)
(1.26529 0.625247 8.70161e-20)
(1.21724 0.612656 5.29732e-20)
(1.16351 0.597529 0)
(1.1046 0.57958 1.77827e-20)
(1.04057 0.55786 -1.29217e-21)
(0.971758 0.53104 4.24727e-20)
(0.898696 0.497213 -1.04672e-20)
(0.832369 0.459824 -6.7503e-20)
(0.782341 0.425873 4.53924e-20)
(0.746145 0.397355 -2.02224e-21)
(0.719719 0.373955 7.7045e-20)
(0.700165 0.355059 5.05004e-20)
(0.685288 0.339912 -1.18418e-19)
(0.669869 0.326221 1.43753e-19)
(0.615247 0.296043 4.31904e-20)
(0.415144 0.19846 1.7895e-19)
(0.0827235 0.0394216 -4.78697e-19)
(0.249878 0.133074 -6.90996e-20)
(1.16057 0.610622 1.0593e-19)
(1.27907 0.677883 -8.18299e-20)
(1.25261 0.673832 -1.00798e-19)
(1.2045 0.65931 0)
(1.15052 0.642138 4.30289e-20)
(1.09111 0.622112 -5.21909e-20)
(1.02617 0.598288 -1.67386e-21)
(0.955886 0.569291 0)
(0.880784 0.533038 -1.63281e-19)
(0.812079 0.49276 1.84359e-19)
(0.760172 0.455859 0)
(0.722929 0.424466 6.9757e-20)
(0.696134 0.39848 -2.08738e-21)
(0.676704 0.377419 -1.60625e-19)
(0.662274 0.360476 6.30889e-20)
(0.64745 0.345099 0)
(0.593969 0.311905 2.34612e-19)
(0.398659 0.207574 0)
(0.0779267 0.0403214 -2.29137e-19)
(0.247972 0.14216 7.67625e-20)
(1.14697 0.651687 1.2093e-19)
(1.26529 0.724049 -8.56728e-20)
(1.2391 0.719191 0)
(1.19108 0.703013 7.2738e-20)
(1.13704 0.684092 0)
(1.07732 0.662297 6.78781e-20)
(1.01168 0.636712 8.1411e-21)
(0.940094 0.605959 3.68778e-21)
(0.862933 0.567663 -8.05132e-20)
(0.791698 0.524813 1.77707e-20)
(0.737579 0.484958 0)
(0.698947 0.450502 -1.49037e-19)
(0.671543 0.421592 2.17955e-21)
(0.652138 0.397967 0)
(0.638088 0.378893 2.47641e-21)
(0.623809 0.361581 2.1357e-19)
(0.571347 0.325105 -2.06882e-19)
(0.380701 0.21428 6.11052e-20)
(0.072484 0.0404538 0)
(0.246219 0.15084 0)
(1.13367 0.690148 1.34823e-19)
(1.25114 0.766973 1.00224e-19)
(1.22512 0.761465 -2.04903e-21)
(1.1773 0.743844 4.5248e-20)
(1.12336 0.723411 1.021e-19)
(1.0635 0.700124 -2.22236e-20)
(0.997345 0.673102 3.96016e-21)
(0.924645 0.640986 2.3682e-20)
(0.845345 0.601153 -1.24739e-19)
(0.771358 0.556138 -3.33824e-21)
(0.714712 0.513461 -6.05789e-20)
(0.674215 0.475803 2.45512e-19)
(0.645826 0.443656 -2.6621e-21)
(0.626202 0.417017 -1.28273e-19)
(0.612487 0.395411 -2.3433e-19)
(0.598723 0.375765 0)
(0.547235 0.335685 0)
(0.361038 0.21844 6.78715e-20)
(0.0663661 0.0396876 -3.96067e-20)
(0.244858 0.159211 9.48599e-20)
(1.12083 0.725872 -2.94072e-19)
(1.23682 0.806841 -1.07146e-19)
(1.21095 0.800792 0)
(1.16342 0.781902 -1.4464e-21)
(1.10971 0.760157 1.22128e-19)
(1.04989 0.735614 -7.34161e-20)
(0.983402 0.70746 -3.67571e-20)
(0.909721 0.674378 2.21447e-20)
(0.828317 0.63352 -9.50075e-20)
(0.751334 0.586792 -1.56316e-19)
(0.691741 0.541628 1.61836e-19)
(0.648776 0.500741 0)
(0.618744 0.46504 -5.80608e-20)
(0.598433 0.434827 -1.41649e-19)
(0.585156 0.410382 -1.7112e-19)
(0.572136 0.387784 -2.08355e-19)
(0.521313 0.343529 6.26775e-20)
(0.339316 0.219767 -3.67525e-20)
(0.0595595 0.0379495 5.97751e-22)
(0.243416 0.167162 0)
(1.10849 0.759238 0)
(1.22253 0.843892 2.28081e-21)
(1.1968 0.837326 0)
(1.14964 0.817303 -1.69685e-19)
(1.09626 0.794409 -1.07543e-19)
(1.03664 0.768812 0)
(0.970018 0.739816 -8.33311e-21)
(0.89552 0.706137 2.29828e-20)
(0.81214 0.664725 -2.18043e-19)
(0.731944 0.616871 0)
(0.668863 0.569655 -1.04099e-19)
(0.622756 0.525524 -3.20236e-21)
(0.590195 0.486018 -2.6493e-21)
(0.569036 0.451953 1.52378e-19)
(0.555978 0.423828 -2.88944e-22)
(0.543569 0.397883 -4.56005e-19)
(0.492845 0.34861 1.37893e-19)
(0.315176 0.217873 4.10811e-20)
(0.051949 0.0350886 0)
(0.241903 0.174654 -3.47117e-19)
(1.0965 0.790425 -1.79511e-19)
(1.20835 0.878273 -2.67108e-19)
(1.18278 0.871208 3.74099e-19)
(1.1361 0.85015 -3.17621e-19)
(1.08314 0.826252 0)
(1.02387 0.799776 -6.21319e-20)
(0.957301 0.770195 1.6032e-20)
(0.88221 0.736279 3.69624e-21)
(0.796979 0.69481 1.7448e-20)
(0.713368 0.646554 1.95828e-19)
(0.646213 0.597665 -3.55361e-20)
(0.596466 0.550397 -1.53089e-19)
(0.560862 0.507045 -6.99833e-20)
(0.53852 0.468795 8.54737e-20)
(0.524961 0.43599 -2.28622e-22)
(0.512298 0.405774 1.26486e-19)
(0.461295 0.350477 -3.00988e-19)
(0.287925 0.212377 3.61026e-19)
(0.0436066 0.0311498 5.20942e-20)
(0.240211 0.181675 1.27104e-19)
(1.08488 0.819555 -9.78869e-20)
(1.19438 0.910186 5.48424e-21)
(1.16902 0.902597 2.10711e-19)
(1.12286 0.880578 7.38748e-20)
(1.07044 0.85578 2.14708e-19)
(1.01165 0.82857 -2.70528e-20)
(0.945327 0.798622 7.61892e-20)
(0.869854 0.764795 -1.28307e-21)
(0.782912 0.723809 -1.16985e-19)
(0.695755 0.675791 0)
(0.624107 0.625716 -1.61134e-19)
(0.570351 0.575937 2.2338e-19)
(0.531498 0.529054 0)
(0.505993 0.485592 -1.83644e-19)
(0.491223 0.447887 1.14847e-19)
(0.478076 0.412195 -1.37669e-19)
(0.42638 0.348913 -1.67236e-19)
(0.256834 0.202467 -2.96538e-19)
(0.0342884 0.0259014 -2.3161e-19)
(0.238623 0.188328 -1.39289e-19)
(1.07345 0.846762 1.04762e-19)
(1.18071 0.939729 2.47825e-19)
(1.15557 0.931613 2.89146e-19)
(1.11 0.908707 -1.54944e-19)
(1.05822 0.883102 1.47768e-19)
(1.00003 0.855269 -8.46331e-20)
(0.934119 0.825134 9.30851e-20)
(0.858471 0.791705 5.99289e-21)
(0.770013 0.75171 1.09736e-19)
(0.679407 0.704492 4.16006e-19)
(0.603031 0.654064 0)
(0.544389 0.602645 0)
(0.500899 0.552145 -8.11565e-20)
(0.471175 0.503572 0)
(0.453807 0.458388 2.51558e-19)
(0.440114 0.415969 3.0377e-19)
(0.387656 0.343345 0)
(0.222303 0.187829 0)
(0.0245078 0.0195788 2.55441e-19)
(0.236789 0.194379 1.53171e-19)
(1.06227 0.87228 1.24671e-19)
(1.16737 0.967079 1.77854e-19)
(1.14249 0.958414 -2.57311e-19)
(1.09755 0.934664 -1.72328e-19)
(1.04651 0.908318 -1.95274e-19)
(0.989046 0.879953 1.25481e-19)
(0.923705 0.849746 7.52697e-22)
(0.848067 0.81698 -4.75676e-21)
(0.758373 0.778444 -6.04996e-21)
(0.664645 0.732624 2.10783e-19)
(0.583254 0.682658 0)
(0.518385 0.630763 2.26695e-19)
(0.468298 0.57717 1.71226e-19)
(0.433227 0.523449 4.41559e-19)
(0.411171 0.470976 1.36015e-19)
(0.39619 0.416737 -1.70389e-19)
(0.344066 0.330445 -1.01144e-19)
(0.186519 0.166947 0)
(0.0159944 0.0129351 2.8119e-19)
(0.2352 0.20029 -3.35818e-19)
(1.05133 0.895988 0)
(1.15437 0.99235 1.97896e-19)
(1.1298 0.983118 -2.10353e-19)
(1.08556 0.958571 1.94323e-19)
(1.03532 0.931545 2.84071e-19)
(0.978716 0.902708 -2.8969e-19)
(0.914094 0.872534 3.41947e-21)
(0.83868 0.840626 0)
(0.748062 0.803931 -9.86836e-20)
(0.651305 0.760298 -4.3612e-19)
(0.564969 0.711717 2.19087e-20)
(0.49354 0.659653 3.08357e-19)
(0.435202 0.603845 0)
(0.392915 0.546542 2.97643e-19)
(0.363518 0.484802 0)
(0.342474 0.415599 0)
(0.292009 0.30409 -1.14348e-19)
(0.1578 0.13154 0)
(0.0266908 0.0135302 7.65888e-20)
(0.233402 0.20554 -3.65841e-19)
(1.04064 0.918115 0)
(1.14168 1.01575 3.19838e-19)
(1.11746 1.00596 0)
(1.07397 0.98068 -1.0512e-19)
(1.02457 0.953054 0)
(0.968932 0.923825 -2.13774e-20)
(0.905149 0.89387 -1.61028e-20)
(0.830201 0.863022 -1.98671e-21)
(0.738913 0.828529 -9.41869e-20)
(0.639145 0.787795 1.12249e-20)
(0.547945 0.741706 1.82214e-19)
(0.470036 0.690457 2.98457e-19)
(0.402059 0.634156 4.29348e-20)
(0.349916 0.57606 2.32017e-19)
(0.308823 0.507669 0)
(0.269093 0.416474 3.74343e-19)
(0.21294 0.255666 -2.26589e-19)
(0.089328 0.106163 2.63368e-19)
(-0.062759 0.366335 -3.11401e-19)
(0.231684 0.210536 2.9761e-19)
(1.03004 0.938751 4.69086e-19)
(1.12921 1.03758 0)
(1.10533 1.0273 4.19534e-21)
(1.06259 1.00147 2.847e-19)
(1.01404 0.973395 -5.4721e-19)
(0.959434 0.94394 -1.27083e-19)
(0.896617 0.914511 0)
(0.822431 0.885097 -3.70025e-20)
(0.730657 0.853482 -2.16678e-21)
(0.627866 0.816595 0)
(0.531501 0.773824 0)
(0.447093 0.724766 2.61304e-19)
(0.369837 0.669533 -1.33991e-19)
(0.304321 0.614944 -2.29712e-19)
(0.247043 0.547236 0)
(0.162362 0.430699 1.90058e-19)
(0.0553663 0.487661 -2.28976e-19)
(0.0532281 1.6687 -1.21132e-19)
(0.0936465 2.70126 -1.54299e-19)
(0.229926 0.214665 -2.17377e-19)
(1.01974 0.958067 -5.89932e-19)
(1.11695 1.05783 1.83388e-19)
(1.09341 1.04704 1.77053e-19)
(1.05146 1.02077 0)
(1.00372 0.992347 -3.90995e-19)
(0.950317 0.962829 -2.11855e-19)
(0.888619 0.934016 1.05264e-20)
(0.815487 0.906316 -5.05795e-21)
(0.723628 0.878121 6.67997e-20)
(0.618228 0.845943 1.93701e-19)
(0.516501 0.807839 1.87344e-19)
(0.425368 0.762209 2.55639e-19)
(0.340481 0.708476 -3.04118e-19)
(0.26229 0.665538 -3.37129e-19)
(0.187739 0.60587 0)
(0.0969939 0.831035 0)
(0.154052 2.37272 9.88106e-20)
(0.163328 3.13294 0)
(0.162959 3.35922 2.28764e-19)
(0.230563 0.21885 0)
(1.00989 0.976069 0)
(1.10473 1.07637 0)
(1.08149 1.06501 4.90492e-20)
(1.04031 1.03842 2.53726e-19)
(0.993428 1.00982 -2.97518e-19)
(0.941474 0.980385 -1.51497e-19)
(0.881065 0.952276 1.1877e-20)
(0.809232 0.926517 -8.00816e-20)
(0.717864 0.902322 -1.00643e-20)
(0.610253 0.875894 3.49277e-19)
(0.503593 0.843498 -2.205e-20)
(0.405233 0.802366 2.85552e-20)
(0.314006 0.748236 4.31725e-20)
(0.234284 0.719462 1.38195e-21)
(0.158469 0.933702 1.50153e-21)
(0.203539 2.46994 -4.67043e-19)
(0.237098 3.25075 -1.77946e-19)
(0.216345 3.41975 8.2013e-20)
(0.193967 3.45051 -8.32906e-20)
(0.143928 0.17448 1.23265e-19)
(0.992379 0.995842 0)
(1.0927 1.09349 -3.5776e-19)
(1.07031 1.08193 -4.57604e-19)
(1.02987 1.0552 5.25732e-19)
(0.983967 1.02643 3.15546e-19)
(0.932813 0.996702 1.76639e-19)
(0.874017 0.969414 -1.98315e-19)
(0.803966 0.945861 8.2665e-20)
(0.713678 0.926261 0)
(0.604407 0.906068 1.48898e-19)
(0.493235 0.87922 -1.3932e-19)
(0.388697 0.845618 0)
(0.291521 0.795362 3.76246e-20)
(0.229388 0.876769 8.99276e-20)
(0.200874 2.05304 -1.11271e-19)
(0.311968 3.27816 1.22973e-19)
(0.29086 3.44365 5.72024e-20)
(0.244762 3.47708 6.55401e-20)
(0.212921 3.49117 7.33427e-20)
(0.271513 0.25278 -2.27468e-19)
(0.970673 0.996439 0)
(1.07124 1.11112 3.62806e-19)
(1.05389 1.10585 4.69601e-19)
(1.01343 1.07864 -5.38854e-19)
(0.968684 1.04977 -3.33557e-19)
(0.919677 1.02106 -2.70438e-19)
(0.863503 0.994828 -1.49103e-20)
(0.796073 0.974683 -1.16011e-19)
(0.706854 0.962984 -1.13526e-20)
(0.594434 0.955815 5.57546e-21)
(0.475125 0.941827 1.08432e-19)
(0.360048 0.922505 2.32707e-20)
(0.27239 0.99433 -3.28303e-20)
(0.315478 1.98372 -7.63565e-20)
(0.402932 3.26564 4.60512e-20)
(0.395999 3.48699 -3.42133e-20)
(0.34755 3.52161 -1.86248e-20)
(0.298217 3.55913 2.47143e-20)
(0.226767 3.54914 1.26089e-21)
(0.257233 0.247468 0)
(0.964483 1.01317 9.5358e-20)
(1.06087 1.12863 -7.17332e-20)
(1.04243 1.12255 -5.21509e-20)
(1.00277 1.09507 -3.53023e-19)
(0.959105 1.06589 3.25384e-19)
(0.9113 1.03683 1.81712e-19)
(0.857324 1.01135 -1.55945e-20)
(0.792674 0.993546 1.42505e-19)
(0.705611 0.987459 -1.40831e-20)
(0.592342 0.98907 -1.9662e-19)
(0.468996 0.984598 1.54048e-20)
(0.355094 0.982281 -2.00812e-20)
(0.323151 1.31694 -2.64634e-20)
(0.443363 2.83463 2.04787e-20)
(0.499786 3.46502 4.96939e-22)
(0.443347 3.56754 -8.82016e-20)
(0.397325 3.60061 -9.08247e-20)
(0.322256 3.6366 1.14378e-19)
(0.245682 3.62573 5.12337e-20)
(0.23879 0.243336 2.33769e-19)
(0.955877 1.03229 6.399e-19)
(1.04949 1.14717 -2.04391e-19)
(1.03014 1.14004 -1.97827e-19)
(0.99131 1.11197 0)
(0.948883 1.08223 4.73425e-19)
(0.902733 1.05283 2.76116e-19)
(0.851422 1.02776 -1.63403e-20)
(0.790357 1.01259 1.48171e-20)
(0.707275 1.01312 7.74057e-20)
(0.593949 1.02519 -6.1164e-20)
(0.465889 1.02999 -1.05757e-19)
(0.362332 1.06823 -1.29905e-19)
(0.412127 1.80717 1.37986e-19)
(0.562045 3.27736 4.25751e-20)
(0.577042 3.55446 0)
(0.50496 3.62471 0)
(0.44999 3.69374 1.0765e-19)
(0.36099 3.76273 0)
(0.262939 3.73331 2.18104e-19)
(0.225534 0.24226 -3.39736e-19)
(0.94545 1.05246 -5.30179e-19)
(1.03619 1.16618 0)
(1.01626 1.15766 4.3054e-21)
(0.978389 1.12869 -3.40933e-19)
(0.937368 1.09811 7.0089e-19)
(0.893353 1.06826 1.85195e-19)
(0.845256 1.04338 -1.98001e-20)
(0.788757 1.03072 1.56821e-19)
(0.710297 1.03782 -8.24098e-21)
(0.597858 1.0617 0)