/*--------------------------------*- C++ -*----------------------------------*\
| =========                 |                                                 |
| \\      /  F ield         | OpenFOAM: The Open Source CFD Toolbox           |
|  \\    /   O peration     | Version:  2112                                  |
|   \\  /    A nd           | Website:  www.openfoam.com                      |
|    \\/     M anipulation  |                                                 |
\*---------------------------------------------------------------------------*/
FoamFile
{
    version     2.0;
    format      ascii;
    arch        "LSB;label=32;scalar=64";
    class       volScalarField;
    location    "17.5";
    object      p;
}
// * * * * * * * * * * * * * * * * * * * * * * * * * * * * * * * * * * * * * //

dimensions      [0 2 -2 0 0 0 0];

internalField   nonuniform List<scalar> 
8800
(
0.405197
0.35742
0.31875
0.289773
0.268926
0.254113
0.243531
0.236053
0.231206
0.229056
0.230131
0.234107
0.240553
0.249704
0.262358
0.279999
0.30471
0.3386
0.3811
0.439798
0.23642
0.244101
0.251609
0.254937
0.253459
0.248413
0.24196
0.23591
0.23118
0.228267
0.227832
0.230125
0.234396
0.240142
0.246747
0.2529
0.256446
0.255655
0.250157
0.241422
0.214784
0.22096
0.225119
0.228109
0.230205
0.230858
0.229793
0.227699
0.225642
0.224615
0.225371
0.227519
0.230094
0.232069
0.232499
0.231158
0.228698
0.225214
0.22061
0.216837
0.208914
0.211586
0.214414
0.216906
0.218622
0.219846
0.220631
0.220774
0.220453
0.220275
0.220796
0.221688
0.222253
0.222077
0.221259
0.21998
0.217993
0.215272
0.212778
0.211272
0.203494
0.204937
0.206829
0.209001
0.210928
0.212393
0.213459
0.214273
0.21484
0.215263
0.215644
0.215823
0.21562
0.215041
0.214052
0.212525
0.210576
0.208512
0.207087
0.206265
0.198413
0.19934
0.200754
0.202551
0.204408
0.20613
0.207567
0.20871
0.20965
0.210381
0.210752
0.210687
0.210239
0.209386
0.208099
0.206507
0.20481
0.203232
0.202262
0.201738
0.193706
0.194362
0.195548
0.197179
0.198911
0.200662
0.202346
0.203796
0.204936
0.205795
0.206272
0.20623
0.205648
0.20458
0.203209
0.201727
0.200202
0.198853
0.198101
0.197747
0.189368
0.189833
0.190863
0.192367
0.193959
0.195533
0.197099
0.198667
0.20011
0.201254
0.201792
0.201653
0.201011
0.200081
0.198977
0.197709
0.19635
0.195166
0.194566
0.194331
0.185654
0.185938
0.186846
0.188281
0.189838
0.19142
0.192995
0.194479
0.195878
0.19711
0.197859
0.197987
0.197638
0.196892
0.195873
0.194701
0.193444
0.192379
0.191918
0.191799
0.183009
0.183158
0.183812
0.184975
0.186293
0.187656
0.189089
0.190632
0.192185
0.19362
0.194587
0.194908
0.194722
0.194225
0.193526
0.192687
0.191746
0.191003
0.190725
0.190673
0.180803
0.180903
0.181277
0.181992
0.182906
0.183977
0.185208
0.186607
0.188163
0.189776
0.191053
0.191757
0.191998
0.191928
0.191661
0.191273
0.19086
0.190545
0.190417
0.190374
0.178025
0.178111
0.178367
0.178838
0.179555
0.18049
0.181714
0.183217
0.184975
0.186883
0.188523
0.18956
0.190124
0.19029
0.190223
0.190225
0.190175
0.190111
0.190055
0.190013
0.174399
0.174466
0.174701
0.175132
0.175723
0.176621
0.177843
0.179435
0.181398
0.183668
0.185765
0.187239
0.188134
0.188701
0.189171
0.189367
0.189479
0.189501
0.189478
0.189441
0.170084
0.170123
0.170374
0.170886
0.171606
0.17258
0.173974
0.175806
0.178111
0.18086
0.18352
0.185509
0.186852
0.187734
0.188319
0.188686
0.18887
0.188925
0.18894
0.188915
0.165257
0.165283
0.165544
0.166161
0.167068
0.16818
0.169794
0.171947
0.174694
0.178068
0.181423
0.184026
0.185867
0.187137
0.18795
0.188456
0.188693
0.188802
0.188855
0.188837
0.159942
0.159971
0.160227
0.160897
0.161932
0.163381
0.165284
0.167833
0.17117
0.175339
0.179567
0.182894
0.185303
0.18697
0.188089
0.188781
0.189158
0.189362
0.18945
0.189431
0.153965
0.153993
0.154308
0.15504
0.156214
0.157881
0.160193
0.163328
0.167454
0.172645
0.17795
0.182189
0.185226
0.187414
0.188874
0.189817
0.190385
0.190702
0.19082
0.190796
0.147001
0.147035
0.147431
0.148266
0.149614
0.151632
0.154462
0.158338
0.163477
0.169962
0.176609
0.181927
0.185838
0.188568
0.190441
0.191677
0.192453
0.192887
0.193037
0.193004
0.13868
0.138723
0.139186
0.140219
0.14191
0.144387
0.147894
0.152748
0.159192
0.167308
0.175606
0.182256
0.18712
0.190548
0.192908
0.194488
0.195493
0.19605
0.196238
0.196196
0.128608
0.128665
0.129266
0.130563
0.132691
0.13582
0.140277
0.146421
0.154531
0.164691
0.175023
0.18327
0.189279
0.193525
0.196461
0.198439
0.199704
0.200398
0.20063
0.200577
0.116237
0.116311
0.117096
0.118793
0.121556
0.125601
0.13133
0.139164
0.149421
0.162136
0.174938
0.18509
0.19247
0.197697
0.201318
0.203768
0.205338
0.206194
0.206479
0.206412
0.100819
0.100925
0.10198
0.104249
0.10792
0.113241
0.120708
0.130803
0.143827
0.159704
0.175472
0.187884
0.19689
0.203279
0.207724
0.210746
0.21269
0.213736
0.214079
0.213995
0.081207
0.0813591
0.0828277
0.0859825
0.0910127
0.0981902
0.108105
0.121234
0.137778
0.157512
0.176784
0.191826
0.20273
0.210495
0.215933
0.219662
0.222079
0.223377
0.223788
0.223678
0.0555805
0.0558204
0.058005
0.0626528
0.0698306
0.0798186
0.0932254
0.110409
0.131391
0.155741
0.179054
0.19709
0.210171
0.219548
0.226185
0.230795
0.233811
0.235432
0.235927
0.235784
0.0209077
0.0213755
0.0250141
0.0324008
0.0431848
0.0575404
0.0759298
0.0984643
0.124911
0.154626
0.182464
0.203808
0.219323
0.230563
0.238651
0.244383
0.248198
0.250245
0.250837
0.250644
-0.028784
-0.027209
-0.0198105
-0.00682287
0.0102488
0.0313256
0.0565899
0.0858792
0.118759
0.154461
0.187166
0.212029
0.230168
0.24349
0.253298
0.260457
0.265381
0.268083
0.268835
0.268566
-0.103063
-0.094098
-0.0771642
-0.0540253
-0.0274922
0.00254892
0.0362015
0.0732678
0.113301
0.155564
0.193607
0.222428
0.24365
0.259547
0.271637
0.280922
0.287697
0.291705
0.29298
0.292934
-0.182483
-0.16228
-0.135153
-0.101669
-0.065471
-0.0263458
0.0157785
0.060809
0.108413
0.157991
0.202433
0.236319
0.261645
0.281051
0.296268
0.308359
0.317693
0.324283
0.326774
0.326895
-0.245699
-0.22302
-0.187705
-0.145969
-0.101236
-0.0537311
-0.00354383
0.0491524
0.104025
0.160518
0.21084
0.249171
0.27793
0.300114
0.317622
0.331634
0.342542
0.35023
0.352389
0.352772
-0.296998
-0.272231
-0.232092
-0.184438
-0.133124
-0.0787249
-0.0215598
0.0380328
0.09957
0.162398
0.217931
0.259967
0.291329
0.315377
0.334222
0.349208
0.360807
0.368749
0.371348
0.371786
-0.3388
-0.313244
-0.269633
-0.217531
-0.161034
-0.101086
-0.0380664
0.0275091
0.0949778
0.163477
0.223581
0.26864
0.30189
0.327104
0.346659
0.362069
0.373868
0.38178
0.384605
0.385002
-0.374366
-0.348363
-0.302306
-0.246585
-0.185888
-0.121275
-0.0532409
0.0175522
0.0902965
0.163906
0.228061
0.275717
0.310513
0.336589
0.356539
0.372026
0.383775
0.391644
0.394619
0.395009
-0.405614
-0.379395
-0.331438
-0.272757
-0.208526
-0.139905
-0.0675041
0.00794142
0.085467
0.163796
0.231779
0.281862
0.318022
0.344772
0.364975
0.380453
0.392139
0.399866
0.40295
0.403325
-0.43401
-0.407594
-0.358103
-0.296917
-0.22967
-0.157557
-0.0812561
-0.00159574
0.080358
0.163149
0.234775
0.28718
0.324674
0.352121
0.372629
0.388188
0.399814
0.407391
0.410514
0.410897
-0.460391
-0.433794
-0.382994
-0.31965
-0.24976
-0.174577
-0.0948078
-0.0113237
0.0747395
0.161759
0.237007
0.291868
0.330844
0.359114
0.380012
0.395706
0.407337
0.41475
0.417835
0.418302
-0.485452
-0.458612
-0.4066
-0.341389
-0.269179
-0.191276
-0.108402
-0.0214354
0.0684569
0.159629
0.238612
0.296099
0.336724
0.365975
0.387396
0.40332
0.414992
0.422333
0.425309
0.425783
-0.509455
-0.482342
-0.429224
-0.362429
-0.288138
-0.207808
-0.122147
-0.0319941
0.0615189
0.156735
0.239518
0.29985
0.342376
0.372821
0.394944
0.411231
0.423032
0.430326
0.433163
0.433566
-0.532742
-0.505249
-0.451258
-0.382928
-0.306772
-0.224293
-0.136116
-0.0430503
0.0538231
0.152927
0.239612
0.303072
0.347825
0.379724
0.402744
0.419535
0.431544
0.438824
0.441497
0.441801
-0.555354
-0.527426
-0.472736
-0.402982
-0.325186
-0.240789
-0.150363
-0.0546759
0.0452869
0.148142
0.2388
0.305647
0.352979
0.386645
0.410786
0.428235
0.440545
0.447833
0.450374
0.45052
-0.577358
-0.549105
-0.493613
-0.422626
-0.343386
-0.257295
-0.164893
-0.0668697
0.0359274
0.142329
0.236953
0.307431
0.357678
0.393482
0.419027
0.43731
0.449999
0.457281
0.459684
0.459676
-0.598828
-0.570169
-0.513951
-0.441867
-0.361363
-0.273786
-0.179654
-0.0795674
0.025761
0.135438
0.233948
0.308241
0.361767
0.400121
0.427403
0.446719
0.459859
0.467106
0.469315
0.469167
-0.619812
-0.590675
-0.533744
-0.460689
-0.37907
-0.29021
-0.194578
-0.0927155
0.0148232
0.127456
0.229682
0.307862
0.365015
0.406396
0.435851
0.45643
0.470045
0.477172
0.479096
0.478824
-0.640128
-0.61055
-0.552954
-0.479046
-0.396452
-0.306488
-0.209598
-0.106231
0.00319716
0.118426
0.22407
0.306098
0.367106
0.412036
0.444274
0.46648
0.480515
0.487285
0.488811
0.488414
-0.65975
-0.629761
-0.57156
-0.496884
-0.413452
-0.322563
-0.224619
-0.120016
-0.00902083
0.108397
0.217081
0.302771
0.36772
0.416662
0.452498
0.477061
0.491522
0.497377
0.498165
0.497663
-0.678736
-0.648263
-0.589523
-0.514169
-0.430012
-0.33835
-0.239548
-0.133961
-0.0217218
0.0974672
0.208716
0.297753
0.366524
0.419727
0.460097
0.488382
0.50391
0.507928
0.506906
0.506287
-0.696934
-0.66605
-0.606796
-0.530838
-0.446073
-0.353771
-0.254291
-0.147952
-0.0347735
0.0857671
0.199038
0.290964
0.363232
0.420522
0.466147
0.500142
0.519143
0.521692
0.5165
0.514522
-0.714432
-0.683119
-0.623404
-0.546918
-0.461669
-0.368873
-0.268906
-0.162047
-0.0482401
0.0732328
0.187942
0.282173
0.357548
0.418221
0.46902
0.510671
0.5373
0.544455
0.535472
0.514286
-0.731173
-0.699482
-0.639468
-0.562588
-0.477078
-0.38397
-0.283786
-0.176709
-0.0626531
0.0592118
0.174725
0.270494
0.34863
0.411605
0.465429
0.514521
0.548558
0.554951
0.539288
0.514266
-0.747014
-0.715321
-0.654822
-0.577599
-0.492023
-0.39873
-0.298713
-0.191614
-0.0776814
0.0440346
0.159615
0.255797
0.33611
0.400248
0.450849
0.500132
0.531458
0.527456
0.457364
0.415573
-0.761376
-0.731623
-0.669105
-0.591393
-0.505826
-0.412704
-0.313406
-0.206546
-0.0931051
0.0278654
0.142662
0.238053
0.319337
0.384719
0.425924
0.455601
0.472119
0.42848
0.352963
0.303801
-0.814468
-0.745297
-0.68205
-0.605398
-0.519865
-0.427224
-0.327928
-0.221746
-0.109229
0.0103585
0.123455
0.216996
0.296091
0.366543
0.376
0.384768
0.356079
0.290394
0.20611
0.158738
-0.774299
-0.759483
-0.700446
-0.625273
-0.539994
-0.447872
-0.349774
-0.244755
-0.134033
-0.0172252
0.0917415
0.180781
0.250805
0.313939
0.317082
0.200045
0.0859233
0.0075528
-0.0743524
-0.0309366
-0.802567
-0.774974
-0.715795
-0.640502
-0.555755
-0.464055
-0.365953
-0.261862
-0.152653
-0.0383793
0.0667027
0.15065
0.213175
0.24481
0.191801
0.0296364
-0.118609
-0.223451
-0.338749
-0.270177
-0.823965
-0.793103
-0.73338
-0.657699
-0.573126
-0.48166
-0.38388
-0.280889
-0.173473
-0.0622391
0.0383058
0.115912
0.168307
0.171361
0.0524536
-0.158661
-0.342801
-0.48465
-0.651165
-0.590555
-0.844406
-0.812058
-0.751491
-0.675144
-0.590515
-0.499275
-0.402175
-0.300381
-0.194913
-0.0870189
0.00829864
0.0789773
0.118062
0.0823049
-0.10293
-0.349002
-0.586382
-0.800807
-1.04273
-1.03228
-0.86373
-0.831307
-0.770105
-0.693191
-0.608491
-0.517531
-0.421193
-0.32067
-0.217337
-0.11306
-0.0234785
0.0397449
0.0613651
-0.0150918
-0.253134
-0.523564
-0.80696
-1.06211
-1.37916
-1.74738
-0.883037
-0.850893
-0.789423
-0.712193
-0.627417
-0.536695
-0.441033
-0.341775
-0.240617
-0.140089
-0.056404
-0.00117167
0.00357037
-0.124638
-0.386162
-0.659907
-0.941608
-1.18017
-1.27745
-1.42735
-0.902953
-0.871179
-0.809696
-0.732406
-0.647661
-0.557252
-0.462328
-0.364457
-0.265716
-0.169334
-0.0919576
-0.0457477
-0.0644043
-0.247656
-0.503398
-0.759216
-0.987102
-1.12947
-1.15762
-1.18565
-0.923837
-0.892377
-0.831042
-0.753832
-0.669264
-0.579292
-0.485283
-0.389016
-0.293017
-0.201275
-0.130696
-0.0951346
-0.143467
-0.363174
-0.609543
-0.838821
-1.02081
-1.09724
-1.11482
-1.11826
-0.945849
-0.914502
-0.853463
-0.77639
-0.6921
-0.602722
-0.509795
-0.415349
-0.322405
-0.235771
-0.172424
-0.149135
-0.225431
-0.47341
-0.710894
-0.916116
-1.0616
-1.09252
-1.09052
-1.08973
-0.968888
-0.93761
-0.876876
-0.800003
-0.716085
-0.627416
-0.535722
-0.443299
-0.353651
-0.272535
-0.216983
-0.206614
-0.311714
-0.579862
-0.811911
-0.983974
-1.04911
-1.07173
-1.07573
-1.07601
-0.992682
-0.961546
-0.901042
-0.824498
-0.741042
-0.653192
-0.562863
-0.472623
-0.386446
-0.311092
-0.263671
-0.262726
-0.408646
-0.680852
-0.920024
-1.04186
-1.06394
-1.07051
-1.0732
-1.07374
-1.01671
-0.985932
-0.925687
-0.84962
-0.766688
-0.679751
-0.590881
-0.502938
-0.420293
-0.350767
-0.311294
-0.323209
-0.500537
-0.77323
-1.04173
-1.14292
-1.10808
-1.0963
-1.08646
-1.08253
-1.04041
-1.01021
-0.950543
-0.874944
-0.792595
-0.706648
-0.619297
-0.533689
-0.454528
-0.390641
-0.358083
-0.387779
-0.575713
-0.831848
-1.16544
-1.31525
-1.21372
-1.12233
-1.08066
-1.07101
-1.06325
-1.03356
-0.975079
-0.899888
-0.81822
-0.733292
-0.647463
-0.5641
-0.488255
-0.429341
-0.40277
-0.4465
-0.639803
-0.807434
-1.07446
-1.3191
-1.22646
-1.12919
-1.08025
-1.06187
-1.08423
-1.05552
-0.998048
-0.923751
-0.842894
-0.758959
-0.674541
-0.593166
-0.520269
-0.465198
-0.44478
-0.496319
-0.70252
-0.723238
-0.551218
-0.799819
-1.18355
-1.43297
-1.40246
-1.38076
-1.10221
-1.07496
-1.01894
-0.945611
-0.865629
-0.782731
-0.699597
-0.619706
-0.548995
-0.496733
-0.483472
-0.540619
-0.84215
-0.895128
-0.451385
-0.587775
-1.17259
-1.40893
-1.43312
-1.45925
-1.11614
-1.09081
-1.03674
-0.964531
-0.885456
-0.80356
-0.721423
-0.642459
-0.572526
-0.522104
-0.514085
-0.594513
-1.13503
-1.89683
-2.64927
-3.18699
-3.1665
-2.62116
-2.11885
-2.0226
-1.12478
-1.10202
-1.05031
-0.979433
-0.901289
-0.820266
-0.738822
-0.660044
-0.589062
-0.53737
-0.529919
-0.656437
-1.42682
-2.72527
-4.17816
-4.6867
-4.58913
-4.09697
-3.51865
-3.20097
-1.12748
-1.10757
-1.05879
-0.989384
-0.912135
-0.831848
-0.750674
-0.67119
-0.597178
-0.53778
-0.521039
-0.612624
-1.25133
-2.12438
-3.05874
-3.48957
-3.35655
-2.93786
-2.53509
-2.29322
-1.12244
-1.10582
-1.06083
-0.993454
-0.917045
-0.837382
-0.756282
-0.675384
-0.596091
-0.522901
-0.471246
-0.457903
-0.592018
-0.642025
-0.510304
-0.291373
0.0328426
0.315919
0.511175
0.597834
-1.10916
-1.09575
-1.05521
-0.990303
-0.914928
-0.836302
-0.755782
-0.67326
-0.58721
-0.49391
-0.398821
-0.330725
-0.0824174
0.405647
0.994226
1.59018
2.02611
2.28756
2.40976
2.44389
-1.08665
-1.07683
-1.04098
-0.978935
-0.904953
-0.82848
-0.749754
-0.666916
-0.575118
-0.463893
-0.33807
-0.210766
0.024626
0.642466
1.31809
1.90341
2.32932
2.58068
2.69866
2.73288
-1.05341
-1.0468
-1.01563
-0.95652
-0.886608
-0.814014
-0.739816
-0.661022
-0.570071
-0.449588
-0.296258
-0.140046
0.0332537
0.51667
1.08822
1.56091
1.90493
2.1114
2.21551
2.25039
-1.00439
-1.00015
-0.974678
-0.922492
-0.858867
-0.793923
-0.729282
-0.661502
-0.579691
-0.458744
-0.28897
-0.110517
0.0573834
0.347405
0.74535
1.09015
1.35684
1.52414
1.61636
1.64852
-0.939542
-0.935936
-0.916665
-0.874903
-0.822433
-0.770007
-0.720939
-0.674008
-0.617512
-0.521504
-0.356787
-0.144075
0.0456089
0.189338
0.413238
0.639567
0.826941
0.951497
1.01649
1.03589
-0.858267
-0.855847
-0.843526
-0.816354
-0.781042
-0.746774
-0.719002
-0.700674
-0.690483
-0.672024
-0.568657
-0.354264
-0.13789
-0.00521269
0.152944
0.322091
0.454582
0.545755
0.599552
0.610701
-0.784492
-0.782964
-0.776393
-0.762418
-0.744609
-0.730171
-0.727436
-0.748777
-0.815193
-0.948857
-0.99875
-0.75647
-0.457594
-0.301981
-0.160213
-0.00532148
0.125435
0.209412
0.24844
0.254631
-0.724924
-0.724674
-0.722847
-0.718078
-0.71408
-0.717883
-0.741704
-0.811718
-0.987893
-1.34778
-1.66623
-1.38982
-0.915006
-0.657977
-0.465868
-0.283209
-0.144156
-0.0575298
-0.0207798
-0.019379
-0.667101
-0.668377
-0.669067
-0.670019
-0.675644
-0.69334
-0.738088
-0.849815
-1.12522
-1.69954
-2.28988
-1.98535
-1.37305
-1.00393
-0.730166
-0.506317
-0.352377
-0.268874
-0.240284
-0.241079
-0.593423
-0.59538
-0.597859
-0.602148
-0.612766
-0.636901
-0.690476
-0.815679
-1.11632
-1.74037
-2.31921
-2.0151
-1.49297
-1.14333
-0.838205
-0.624587
-0.504263
-0.4546
-0.438581
-0.437467
-0.499603
-0.501612
-0.504627
-0.509889
-0.520655
-0.543163
-0.590493
-0.695933
-0.943535
-1.44996
-1.85867
-1.65643
-1.30097
-0.989564
-0.751897
-0.614185
-0.566777
-0.557007
-0.551144
-0.547984
-0.392672
-0.394226
-0.396901
-0.401126
-0.40913
-0.424531
-0.455344
-0.52148
-0.672282
-0.974768
-1.20127
-1.08448
-0.85968
-0.652972
-0.534877
-0.503062
-0.51153
-0.52161
-0.522213
-0.520226
-0.285241
-0.286135
-0.28797
-0.290453
-0.294612
-0.301822
-0.315339
-0.343003
-0.403254
-0.519262
-0.606353
-0.525613
-0.403192
-0.337233
-0.334729
-0.363219
-0.387214
-0.400134
-0.403428
-0.402839
-0.18911
-0.18944
-0.190432
-0.191472
-0.192568
-0.193667
-0.195119
-0.197823
-0.203758
-0.210225
-0.191525
-0.15832
-0.127339
-0.152455
-0.192093
-0.228527
-0.250924
-0.262138
-0.266359
-0.267182
-0.11118
-0.111164
-0.111621
-0.1119
-0.111446
-0.109484
-0.10514
-0.0969384
-0.0826667
-0.058435
-0.0303756
-0.0207428
-0.023219
-0.0590865
-0.0971898
-0.125155
-0.141825
-0.150411
-0.154293
-0.155379
-0.0532064
-0.0530469
-0.0532736
-0.0533503
-0.0525384
-0.049909
-0.0442973
-0.0339764
-0.016983
0.00754015
0.0275756
0.0258022
0.0129655
-0.013403
-0.0395392
-0.0582315
-0.069472
-0.0754396
-0.078367
-0.0793063
-0.0132712
-0.013097
-0.0132667
-0.0134185
-0.0128229
-0.0106216
-0.00587204
0.00272926
0.0162858
0.0338579
0.0450091
0.0405008
0.027403
0.00976345
-0.00669706
-0.018654
-0.0260761
-0.0301282
-0.0321129
-0.0328011
0.0122741
0.0124044
0.0122292
0.0119225
0.0121323
0.0135618
0.0169253
0.0229837
0.0321379
0.0430536
0.0484019
0.0437967
0.0336316
0.0219222
0.0114974
0.0037286
-0.00132038
-0.00415323
-0.00551503
-0.00594597
0.0273032
0.027374
0.0271716
0.0267394
0.0266032
0.027287
0.0292888
0.0330898
0.0387385
0.0449218
0.0469057
0.0427939
0.0355498
0.0277728
0.0209727
0.0157655
0.0122307
0.0102059
0.00927694
0.00898685
0.0351246
0.0351444
0.0349164
0.0344081
0.0340347
0.0341692
0.0351258
0.0371572
0.040224
0.0433514
0.0436339
0.0402526
0.0351469
0.0298671
0.0252826
0.021695
0.0191712
0.0177048
0.0170603
0.0168596
0.0382015
0.0381879
0.0379477
0.0374082
0.0369065
0.0366829
0.0369567
0.0378625
0.0392971
0.0405562
0.0399364
0.0371397
0.0334444
0.0297626
0.0265751
0.0240374
0.022206
0.0211337
0.0206806
0.0205445
0.0382197
0.0381885
0.0379475
0.0374159
0.0368499
0.0364118
0.0362408
0.0364085
0.0368309
0.0370172
0.0359857
0.0337027
0.0309769
0.0283406
0.0260667
0.024238
0.0228963
0.022109
0.0217877
0.0216933
0.0362891
0.0362516
0.0360269
0.0355357
0.0349675
0.0344363
0.0340312
0.0337824
0.0336178
0.0332165
0.0320432
0.0301687
0.028103
0.0261636
0.0245021
0.0231591
0.0221642
0.0215811
0.02135
0.0212836
0.0331435
0.0331068
0.0329092
0.0324753
0.0319438
0.0313968
0.030889
0.0304331
0.0299729
0.0292905
0.0281119
0.0265675
0.0249781
0.0235254
0.0222911
0.0212926
0.0205495
0.0201148
0.0199465
0.0198992
0.0292571
0.0292247
0.0290593
0.0286902
0.0282199
0.027706
0.0271815
0.0266485
0.0260651
0.0252903
0.0242015
0.0229396
0.0217064
0.0206054
0.0196786
0.0189305
0.0183725
0.0180468
0.0179233
0.0178893
0.024932
0.0249051
0.0247726
0.0244711
0.0240732
0.0236227
0.0231372
0.0226143
0.022023
0.0212699
0.0203157
0.0192973
0.0183428
0.0175068
0.0168091
0.0162473
0.0158281
0.0155843
0.0154939
0.0154695
0.0203572
0.0203358
0.0202338
0.0199971
0.0196755
0.0193025
0.0188866
0.018424
0.0178925
0.0172315
0.0164429
0.0156448
0.0149185
0.014292
0.0137722
0.0133538
0.0130413
0.012861
0.0127957
0.0127783
0.0156482
0.0156321
0.0155569
0.0153792
0.0151329
0.0148435
0.0145152
0.0141436
0.0137132
0.0131851
0.0125776
0.0119836
0.0114538
0.0110007
0.0106251
0.0103219
0.0100949
0.009965
0.00991907
0.00990673
0.010871
0.0108594
0.0108071
0.0106818
0.0105075
0.0103037
0.0100722
0.00980915
0.00950377
0.00913253
0.00871468
0.00831431
0.00796128
0.00766
0.00740866
0.00720306
0.00704735
0.00695844
0.00692748
0.00691882
0.00605671
0.00604902
0.00601765
0.00594187
0.00583962
0.00572456
0.00559566
0.0054496
0.00528044
0.00507661
0.00484926
0.00463322
0.00444372
0.00428156
0.00414458
0.00402928
0.00393897
0.00388692
0.00386858
0.00386217
0.00123191
0.00123395
0.00124572
0.00124848
0.00123083
0.00120355
0.00117146
0.00113596
0.00109514
0.00104593
0.000988577
0.000931498
0.000881574
0.000838903
0.000803289
0.000773923
0.000751273
0.000742161
0.000749986
0.000756478
-0.7511
-0.525857
-0.27091
-0.0617557
0.108091
0.245081
0.360843
0.458611
0.503561
0.481126
-0.346683
-0.192054
-0.0308759
0.108024
0.226025
0.324964
0.405553
0.46321
0.49319
0.504416
-0.0695381
0.0330478
0.140988
0.236994
0.319871
0.389455
0.44479
0.485199
0.513541
0.530617
0.124652
0.195095
0.270662
0.339233
0.398827
0.449277
0.490427
0.522812
0.548352
0.566076
0.271224
0.322132
0.376202
0.427299
0.472312
0.51134
0.544381
0.571469
0.593544
0.61104
0.388868
0.42656
0.469454
0.509753
0.546385
0.57892
0.607071
0.630443
0.649399
0.666589
0.489484
0.520867
0.558188
0.593185
0.625637
0.654882
0.680265
0.701185
0.717442
0.734479
0.582988
0.613884
0.649947
0.683753
0.714894
0.742789
0.766705
0.78597
0.79987
0.816927
0.681356
0.715534
0.753423
0.788098
0.819115
0.846136
0.868763
0.886546
0.898794
0.916241
0.798282
0.836487
0.875951
0.91094
0.940883
0.966147
0.986941
1.00316
1.01489
1.03301
0.944449
0.983398
1.01979
1.05087
1.07692
1.09933
1.11864
1.13438
1.14697
1.16501
1.11989
1.15195
1.17838
1.20103
1.22122
1.24013
1.25799
1.27459
1.29004
1.30815
1.30891
1.32628
1.34155
1.35795
1.37397
1.38861
1.4019
1.4159
1.43351
1.4537
1.49109
1.50056
1.51217
1.52303
1.53236
1.54204
1.55294
1.56437
1.57578
1.59115
1.69834
1.70204
1.68711
1.67232
1.66614
1.67188
1.69039
1.72074
1.75295
1.77962
2.00466
1.86982
1.79326
1.75101
1.7336
1.73757
1.76502
1.82143
1.92406
2.14843
0.295792
0.293675
0.289192
0.28058
0.268379
0.256277
0.246078
0.238199
0.232564
0.229238
0.228727
0.231245
0.236132
0.243164
0.252392
0.263808
0.276366
0.287334
0.29342
0.296444
0.220195
0.226048
0.232407
0.236936
0.239439
0.239151
0.236447
0.232658
0.229142
0.22681
0.226495
0.228458
0.231881
0.235958
0.239593
0.241336
0.24029
0.236717
0.23148
0.224832
0.211726
0.214025
0.217468
0.220528
0.222673
0.224233
0.22504
0.22476
0.223724
0.222747
0.222734
0.223918
0.225479
0.226539
0.226504
0.225431
0.223721
0.221246
0.217883
0.214922
0.206155
0.207237
0.209132
0.21161
0.213738
0.215259
0.216351
0.217136
0.217534
0.217678
0.217966
0.218468
0.218755
0.218538
0.21787
0.216788
0.215105
0.212829
0.210596
0.209166
0.200918
0.201566
0.202764
0.204648
0.20662
0.208431
0.209869
0.210957
0.211828
0.212523
0.213016
0.213214
0.21305
0.212535
0.211614
0.210207
0.20845
0.206606
0.205072
0.204243
0.196003
0.196428
0.197323
0.198879
0.200647
0.20243
0.204125
0.205575
0.206736
0.207652
0.208275
0.20846
0.208169
0.207419
0.20623
0.204757
0.203172
0.20162
0.20042
0.199865
0.191496
0.191787
0.192513
0.193906
0.195559
0.197223
0.198899
0.200542
0.202001
0.203165
0.203936
0.204137
0.20374
0.202848
0.201666
0.200343
0.198926
0.197524
0.196515
0.196113
0.18739
0.18756
0.188152
0.189432
0.190981
0.192553
0.194089
0.195588
0.19705
0.198392
0.199344
0.19963
0.199355
0.198711
0.197797
0.196663
0.195394
0.194129
0.193262
0.192992
0.184208
0.184278
0.184722
0.185852
0.187307
0.188809
0.190377
0.191948
0.193474
0.194887
0.19601
0.19655
0.19649
0.195974
0.195138
0.19415
0.193038
0.191937
0.19126
0.191107
0.181925
0.181958
0.182227
0.182962
0.18401
0.185149
0.186369
0.187732
0.189236
0.190801
0.192164
0.19297
0.193214
0.193101
0.192756
0.192223
0.191571
0.190947
0.190595
0.190512
0.179518
0.179548
0.179726
0.18016
0.180844
0.181745
0.182868
0.18422
0.185771
0.187478
0.189129
0.190309
0.190931
0.191118
0.191005
0.190823
0.190631
0.190429
0.190304
0.190249
0.176312
0.176336
0.176483
0.176817
0.177358
0.178122
0.179149
0.180507
0.182214
0.184202
0.186235
0.187809
0.188742
0.189316
0.189577
0.189685
0.189802
0.189834
0.189806
0.18977
0.172307
0.172316
0.172455
0.172811
0.173343
0.174117
0.175233
0.176723
0.178631
0.180945
0.183454
0.185545
0.186949
0.187849
0.188451
0.188845
0.189087
0.189183
0.189191
0.189175
0.167732
0.16773
0.167863
0.168286
0.168982
0.169851
0.171103
0.17284
0.175094
0.17788
0.181
0.183696
0.185603
0.186893
0.187766
0.188328
0.188645
0.188776
0.188828
0.188835
0.162667
0.162649
0.162779
0.163241
0.163978
0.165148
0.166709
0.168681
0.171334
0.174726
0.178606
0.182048
0.184558
0.186331
0.187513
0.188301
0.188726
0.188952
0.189065
0.189088
0.157073
0.157048
0.157208
0.157698
0.158583
0.159876
0.161662
0.164109
0.167365
0.171551
0.176391
0.180758
0.183975
0.186198
0.187786
0.188848
0.189485
0.189851
0.190034
0.190067
0.150654
0.150623
0.150812
0.15137
0.152367
0.153884
0.156035
0.159027
0.163056
0.168262
0.174315
0.179803
0.183845
0.186792
0.188801
0.190153
0.191025
0.191553
0.191804
0.191847
0.143044
0.143005
0.143232
0.14392
0.14513
0.146943
0.149586
0.153306
0.15833
0.164837
0.172406
0.179267
0.184381
0.188047
0.190595
0.192322
0.193465
0.194167
0.194489
0.194542
0.13388
0.133832
0.134135
0.134986
0.136486
0.138768
0.142092
0.14676
0.153072
0.161238
0.170699
0.179245
0.18561
0.190165
0.193339
0.195509
0.196958
0.197852
0.198255
0.198319
0.122722
0.122665
0.123074
0.124185
0.126092
0.129004
0.13324
0.139177
0.147181
0.157453
0.169248
0.179834
0.187677
0.193297
0.197227
0.199921
0.201728
0.202847
0.203348
0.203425
0.108909
0.10884
0.109406
0.110884
0.11339
0.117194
0.1227
0.130363
0.140568
0.153489
0.16814
0.181165
0.190772
0.197656
0.20248
0.205798
0.208032
0.209421
0.210042
0.210133
0.0914833
0.0914054
0.0922172
0.0942527
0.0976404
0.102746
0.110052
0.120055
0.133135
0.149387
0.167489
0.183396
0.195075
0.20345
0.209339
0.213411
0.216166
0.217882
0.218654
0.218761
0.0690456
0.0689789
0.0702046
0.0730986
0.0778325
0.0848795
0.0947832
0.108016
0.124864
0.145248
0.167446
0.186689
0.200759
0.210877
0.218041
0.223034
0.226439
0.228564
0.229513
0.229641
0.0392301
0.0392234
0.0411997
0.0455865
0.0525963
0.0627482
0.0765147
0.0942077
0.115899
0.14128
0.168212
0.191212
0.207974
0.220093
0.228771
0.234905
0.239142
0.2418
0.242974
0.243123
-0.00222259
-0.00200424
0.00166699
0.0091802
0.0203824
0.0356739
0.0551615
0.0788588
0.10658
0.137809
0.170024
0.197111
0.216801
0.23115
0.241595
0.249143
0.254482
0.257866
0.25932
0.259484
-0.0631185
-0.0615046
-0.05274
-0.0386345
-0.0196651
0.00378286
0.0312732
0.0626101
0.0974624
0.135217
0.17307
0.20442
0.227171
0.243902
0.256314
0.265551
0.272283
0.276653
0.27854
0.27875
-0.13599
-0.133362
-0.116989
-0.0922403
-0.0627101
-0.0297696
0.00648259
0.0460052
0.0885345
0.13355
0.178058
0.214863
0.241864
0.262129
0.277591
0.289513
0.298734
0.304526
0.306507
0.307114
-0.211026
-0.202658
-0.178497
-0.14364
-0.104499
-0.0623826
-0.0174842
0.0301624
0.0803556
0.132651
0.183879
0.226194
0.257431
0.281181
0.29967
0.314267
0.325693
0.333059
0.336578
0.337704
-0.269088
-0.259351
-0.230265
-0.188772
-0.142223
-0.0924676
-0.0399384
0.0151591
0.0725231
0.13165
0.189064
0.236216
0.270939
0.297324
0.317852
0.334052
0.346724
0.355419
0.359997
0.361308
-0.316072
-0.30579
-0.273313
-0.22706
-0.174974
-0.119204
-0.0603754
0.00115169
0.0648844
0.130181
0.193123
0.244411
0.281858
0.310048
0.331778
0.348807
0.362083
0.371476
0.376329
0.377713
-0.354922
-0.344564
-0.31002
-0.260116
-0.203594
-0.142976
-0.0788987
-0.0118517
0.0574863
0.128286
0.196161
0.25098
0.290579
0.320057
0.342531
0.359939
0.373356
0.382818
0.387678
0.389184
-0.38858
-0.378248
-0.342137
-0.289362
-0.229201
-0.164499
-0.0959088
-0.0240641
0.0502607
0.126037
0.198398
0.256449
0.297976
0.328523
0.351501
0.369065
0.382482
0.391934
0.396796
0.398252
-0.418575
-0.408304
-0.371039
-0.315875
-0.252698
-0.184496
-0.111971
-0.0358375
0.0430203
0.123423
0.200052
0.261164
0.30446
0.335955
0.35937
0.377087
0.390495
0.399931
0.404821
0.40613
-0.446112
-0.435861
-0.397669
-0.340484
-0.274739
-0.203468
-0.127457
-0.0474696
0.0355392
0.12028
0.200974
0.265091
0.310222
0.342758
0.366707
0.384636
0.398091
0.407509
0.412418
0.41358
-0.471957
-0.461702
-0.422691
-0.363749
-0.295724
-0.22178
-0.142691
-0.0592304
0.0275936
0.116408
0.201143
0.268427
0.315571
0.34929
0.373881
0.392117
0.40568
0.415073
0.419971
0.421031
-0.496561
-0.486282
-0.446522
-0.386054
-0.316035
-0.239705
-0.157862
-0.0712669
0.019079
0.111827
0.200607
0.271197
0.320565
0.355687
0.381092
0.399763
0.413522
0.422941
0.427804
0.428824
-0.520304
-0.509936
-0.469436
-0.407671
-0.335835
-0.257376
-0.173074
-0.0836375
0.00998157
0.106457
0.199234
0.27332
0.325186
0.361989
0.388428
0.407692
0.421757
0.431259
0.436018
0.437028
-0.543368
-0.532834
-0.49168
-0.428724
-0.355247
-0.274918
-0.18841
-0.0964009
0.000200534
0.100177
0.196935
0.274719
0.329388
0.368164
0.395899
0.415946
0.430433
0.44008
0.444742
0.445723
-0.565774
-0.555049
-0.513353
-0.449255
-0.37435
-0.292354
-0.203891
-0.109602
-0.0103014
0.0929579
0.193615
0.275261
0.333073
0.37417
0.403487
0.424523
0.439558
0.449387
0.453959
0.454832
-0.587652
-0.576708
-0.53444
-0.469296
-0.393138
-0.309678
-0.219505
-0.123202
-0.0214771
0.0847928
0.189182
0.274786
0.336049
0.379881
0.411123
0.433375
0.44908
0.459121
0.463575
0.46431
-0.608935
-0.597773
-0.554957
-0.488868
-0.411599
-0.326856
-0.235189
-0.137135
-0.0332881
0.0756754
0.183573
0.273134
0.338088
0.385079
0.418685
0.442459
0.458958
0.469203
0.473498
0.474043
-0.629644
-0.618239
-0.574862
-0.507936
-0.429688
-0.343832
-0.250882
-0.151331
-0.0456699
0.0656499
0.176749
0.270153
0.338957
0.389508
0.426027
0.451741
0.469158
0.479472
0.483445
0.483785
-0.649633
-0.638055
-0.594127
-0.526456
-0.447344
-0.360527
-0.266514
-0.165707
-0.0585247
0.0547991
0.168706
0.26572
0.338402
0.392854
0.432924
0.461244
0.479815
0.489917
0.493248
0.493307
-0.668999
-0.657171
-0.612726
-0.544396
-0.464534
-0.376902
-0.28199
-0.18017
-0.0717495
0.0432235
0.15949
0.259747
0.336166
0.394679
0.438955
0.470927
0.491373
0.500882
0.50273
0.502276
-0.68762
-0.675541
-0.630636
-0.561705
-0.48118
-0.392874
-0.297224
-0.194597
-0.0852239
0.0310181
0.149189
0.252204
0.332067
0.394501
0.443419
0.480408
0.504496
0.513851
0.512574
0.510312
-0.70553
-0.693243
-0.647811
-0.578339
-0.497246
-0.408377
-0.31214
-0.208907
-0.0988269
0.0183429