/*--------------------------------*- C++ -*----------------------------------*\
| =========                 |                                                 |
| \\      /  F ield         | OpenFOAM: The Open Source CFD Toolbox           |
|  \\    /   O peration     | Version:  2112                                  |
|   \\  /    A nd           | Website:  www.openfoam.com                      |
|    \\/     M anipulation  |                                                 |
\*---------------------------------------------------------------------------*/
FoamFile
{
    version     2.0;
    format      ascii;
    arch        "LSB;label=32;scalar=64";
    class       surfaceScalarField;
    location    "17.5";
    object      phi;
}
// * * * * * * * * * * * * * * * * * * * * * * * * * * * * * * * * * * * * * //

dimensions      [0 3 -1 0 0 0 0];

oriented        oriented;

internalField   nonuniform List<scalar> 
17370
(
-0.0916045
0.0960175
0.284598
-0.0776076
0.0594368
0.364946
-0.043058
0.0316364
0.42759
-0.0223312
0.016275
0.505308
-0.0116744
0.00878808
0.602288
-0.00655485
0.00505113
0.720561
-0.00380707
0.00293583
0.863778
-0.00218391
0.00162715
1.03601
-0.00111756
0.000716036
1.2429
-0.000322722
-5.53275e-05
1.49157
0.00042914
-0.000823296
1.49159
0.00122128
-0.00172339
1.24319
0.00227229
-0.00301593
1.03638
0.00388102
-0.00511869
0.864144
0.00661511
-0.00883862
0.721281
0.0117145
-0.0163035
0.603804
0.0223498
-0.0316452
0.508735
0.043057
-0.0594304
0.432542
0.0776037
-0.0960141
0.365186
0.0916127
0.197398
-0.127108
0.0880497
0.0390578
-0.364374
0.354054
-0.0714488
0.0817692
-0.446651
0.454282
-0.0791509
0.0715203
-0.520999
0.529158
-0.0636295
0.0554709
-0.612966
0.620775
-0.0480419
0.0402327
-0.727143
0.733655
-0.0335981
0.0270858
-0.867593
0.872382
-0.0219202
0.0171308
-1.03857
1.04184
-0.0134963
0.010232
-1.2447
1.24705
-0.00774165
0.00539583
-1.4928
1.49477
-0.00347344
0.00150123
-1.49264
1.49443
0.000291069
-0.00207822
-1.24409
1.24598
0.00403491
-0.00593167
-1.03761
1.04007
0.0082474
-0.0107064
-0.866217
0.869815
0.0139325
-0.0175308
-0.724609
0.729745
0.0222811
-0.0274167
-0.609056
0.615663
0.0339025
-0.0405102
-0.515121
0.522516
0.0482852
-0.0556799
-0.439875
0.447721
0.063791
-0.0716361
-0.374744
0.377372
0.0792041
-0.081832
-0.256951
0.224529
0.0714974
-0.0390756
-0.0688536
0.0592731
0.00958053
-0.0519467
0.0587378
-0.374866
0.368075
-0.0578864
0.0540658
-0.453975
0.457795
-0.0486321
0.0441149
-0.527662
0.532179
-0.0395907
0.0356862
-0.620808
0.624712
-0.031444
0.0274251
-0.734611
0.73863
-0.0230591
0.019182
-0.873868
0.877745
-0.0151723
0.0117629
-1.04325
1.04666
-0.00832014
0.00538716
-1.24853
1.25146
-0.0023173
-0.000526134
-1.49681
1.49966
0.00336039
-0.00639856
-1.4973
1.50034
0.00928965
-0.0126748
-1.24998
1.25336
0.0160285
-0.0199757
-1.04559
1.04954
0.0237947
-0.0280954
-0.877124
0.881425
0.0320531
-0.0362294
-0.739036
0.743212
0.0400816
-0.044557
-0.626075
0.630551
0.049035
-0.05443
-0.535121
0.540516
0.0582054
-0.0590039
-0.458173
0.458972
0.0521409
-0.0318874
-0.336921
0.316668
0.00961515
-0.0687696
0.0591545
-0.0535174
0.04945
0.00406744
-0.0329312
0.0432322
-0.358689
0.348388
-0.0468109
0.0461565
-0.459579
0.460234
-0.0431699
0.0399296
-0.536081
0.539322
-0.0362525
0.032928
-0.628378
0.631703
-0.0293542
0.0261905
-0.742019
0.745183
-0.0228231
0.0197315
-0.881236
0.884328
-0.01629
0.0130933
-1.05004
1.05323
-0.00957637
0.00633494
-1.25463
1.25787
-0.00270202
-0.000797698
-1.50289
1.50639
0.00427614
-0.00785291
-1.50372
1.5073
0.0110306
-0.0144634
-1.25686
1.26029
0.0175739
-0.0209143
-1.05324
1.05658
0.0239118
-0.0271776
-0.885086
0.888352
0.0302504
-0.0337321
-0.746942
0.750424
0.036978
-0.0405773
-0.634669
0.638268
0.0437545
-0.0466729
-0.544656
0.547574
0.0472592
-0.0435881
-0.457168
0.453497
0.0331754
-0.0161233
-0.297532
0.28048
0.0041035
-0.0533651
0.0492616
-0.0463385
0.0438578
0.0024807
-0.0225015
0.0326277
-0.337963
0.327836
-0.0382214
0.0391178
-0.460069
0.459172
-0.0378316
0.0354837
-0.54204
0.544388
-0.0328106
0.0302638
-0.634621
0.637168
-0.0273418
0.0245968
-0.748132
0.750877
-0.0215142
0.0186719
-0.887243
0.890085
-0.0155113
0.012565
-1.05626
1.05921
-0.00922938
0.00605576
-1.2611
1.26428
-0.00241797
-0.00109311
-1.50996
1.51347
0.00458409
-0.00815292
-1.51093
1.5145
0.0112305
-0.0144438
-1.26361
1.26682
0.0172701
-0.0202941
-1.05968
1.0627
0.0230121
-0.0259585
-0.891441
0.894387
0.0285866
-0.031395
-0.753565
0.756373
0.033842
-0.0364109
-0.641312
0.643881
0.03867
-0.039845
-0.54957
0.550745
0.0388386
-0.0330945
-0.448589
0.442845
0.022809
-0.00998439
-0.265624
0.252799
0.00252621
-0.0461081
0.0435819
-0.0418273
0.0401374
0.00168988
-0.0160086
0.0248425
-0.318281
0.309447
-0.0311159
0.0331402
-0.457636
0.455612
-0.0327751
0.0312372
-0.546296
0.547833
-0.0292063
0.0272171
-0.639408
0.641397
-0.0248889
0.0226056
-0.753399
0.755682
-0.0199205
0.0173239
-0.892836
0.895433
-0.0143519
0.011554
-1.06211
1.0649
-0.00838959
0.00538851
-1.26738
1.27038
-0.00193496
-0.00142759
-1.5169
1.52027
0.0047597
-0.00812491
-1.51798
1.52134
0.0110057
-0.0140079
-1.26995
1.27295
0.016641
-0.0194278
-1.06565
1.06844
0.0218565
-0.0243706
-0.897149
0.899663
0.0265068
-0.028685
-0.75885
0.761029
0.0305359
-0.0324345
-0.646071
0.64797
0.0338583
-0.034087
-0.551335
0.551564
0.0319088
-0.0254264
-0.4366
0.430117
0.0163855
-0.00689072
-0.241764
0.232269
0.00174487
-0.0415025
0.0397576
-0.0387287
0.0375579
0.00117079
-0.0114112
0.0186039
-0.301417
0.294224
-0.0247011
0.0272933
-0.453249
0.450657
-0.0274019
0.0262915
-0.549136
0.550246
-0.0244521
0.0227118
-0.64321
0.64495
-0.0207736
0.0189368
-0.757746
0.759583
-0.0168328
0.0147856
-0.897786
0.899833
-0.0123808
0.0100083
-1.06752
1.06989
-0.00721765
0.00449021
-1.27324
1.27597
-0.0012863
-0.00187547
-1.52354
1.5267
0.00499194
-0.00807094
-1.52456
1.52764
0.0106399
-0.0132274
-1.27577
1.27836
0.0153996
-0.0175718
-1.07096
1.07314
0.0194114
-0.0212896
-0.901871
0.903749
0.0229193
-0.0246409
-0.762941
0.764663
0.0262037
-0.0278692
-0.649706
0.651371
0.0288021
-0.0284901
-0.551513
0.551201
0.0256764
-0.0193033
-0.423605
0.417232
0.0118586
-0.00488499
-0.224119
0.217146
0.00123698
-0.0382882
0.0370512
-0.0365802
0.0357681
0.00081217
-0.00791154
0.0134501
-0.287865
0.282327
-0.0188941
0.0217293
-0.44792
0.445085
-0.0223513
0.0217445
-0.551124
0.551731
-0.0202483
0.0188099
-0.646594
0.648032
-0.0172298
0.0157526
-0.761222
0.762699
-0.0140282
0.0123276
-0.901643
0.903343
-0.0102833
0.00824055
-1.07205
1.07409
-0.00579003
0.00335375
-1.27855
1.28099
-0.000464992
-0.00235721
-1.52971
1.53254
0.0051309
-0.00786961
-1.53056
1.5333
0.01011
-0.0122954
-1.28072
1.2829
0.0140649
-0.0158027
-1.07502
1.07676
0.0172206
-0.0186394
-0.905341
0.90676
0.0198583
-0.0211867
-0.766207
0.767535
0.0224144
-0.0236865
-0.652925
0.654197
0.0240719
-0.0231922
-0.550631
0.549751
0.0200755
-0.0142887
-0.411119
0.405333
0.00844772
-0.00344707
-0.211203
0.206203
0.000893296
-0.0360005
0.0351072
-0.0351226
0.034654
0.000468507
-0.00470157
0.00854454
-0.27762
0.273777
-0.0130405
0.0159739
-0.44217
0.439237
-0.0173031
0.0173701
-0.552024
0.551957
-0.0166917
0.0157932
-0.649192
0.650091
-0.0146126
0.013382
-0.764041
0.765272
-0.0118765
0.0103341
-0.904984
0.906526
-0.00846598
0.00659098
-1.07607
1.07795
-0.00434032
0.00212115
-1.28331
1.28553
0.000479198
-0.00299826
-1.53519
1.5377
0.0054584
-0.00787439
-1.53587
1.53829
0.00983511
-0.0117447
-1.28497
1.28688
0.0132913
-0.0147844
-1.0784
1.07989
0.0159865
-0.0171482
-0.908057
0.909219
0.0180533
-0.0188507
-0.768598
0.769396
0.0194375
-0.0198047
-0.655026
0.655393
0.0194365
-0.017742
-0.54847
0.546776
0.0144413
-0.00953223
-0.39993
0.395021
0.00533814
-0.0021312
-0.202111
0.198904
0.000567273
-0.0343714
0.0338042
-0.0343639
0.0342282
0.000135703
-0.00202425
0.0042385
-0.270797
0.268582
-0.00736603
0.00985826
-0.436434
0.433942
-0.0114416
0.011921
-0.551594
0.551114
-0.0117179
0.0111541
-0.650808
0.651372
-0.0103643
0.00949223
-0.76635
0.767222
-0.00835539
0.00717469
-0.907902
0.909083
-0.00571893
0.00422252
-1.07964
1.08114
-0.00240815
0.00057383
-1.28759
1.28942
0.00163176
-0.0038157
-1.54008
1.54227
0.00590924
-0.00785452
-1.5405
1.54245
0.00935258
-0.0107252
-1.28854
1.28991
0.0117671
-0.012702
-1.08113
1.08207
0.0133836
-0.0139593
-0.910135
0.910711
0.0144129
-0.014838
-0.770009
0.770435
0.0150554
-0.0148534
-0.655403
0.655201
0.0140088
-0.0119953
-0.544804
0.54279
0.00907474
-0.00545992
-0.390734
0.387119
0.00281959
-0.00104299
-0.196498
0.194721
0.000259153
-0.0334045
0.0331454
-0.034198
0.0342239
-2.58882e-05
-0.000750371
0.00200596
-0.266952
0.265696
-0.00400868
0.00574783
-0.431853
0.430113
-0.00692654
0.00730317
-0.550658
0.550282
-0.00726613
0.00695581
-0.65178
0.652091
-0.00642766
0.00582464
-0.767915
0.768518
-0.0050342
0.00416931
-0.910083
0.910948
-0.00303937
0.00185663
-1.08246
1.08364
-0.000384938
-0.00111551
-1.29105
1.29255
0.00294396
-0.00475279
-1.54424
1.54605
0.00645597
-0.00798472
-1.54414
1.54567
0.00909556
-0.0100426
-1.29104
1.29199
0.0107012
-0.011229
-1.08274
1.08327
0.0115585
-0.0117781
-0.911059
0.911278
0.0118205
-0.0117473
-0.770596
0.770523
0.0115826
-0.0111222
-0.654863
0.654402
0.010249
-0.0084895
-0.540897
0.539138
0.00618494
-0.00355403
-0.384088
0.381457
0.00175441
-0.000603996
-0.193356
0.192205
0.00012891
-0.0329775
0.0328486
-0.0342721
0.0343312
-5.91622e-05
-0.000378703
0.00130565
-0.26465
0.263723
-0.00290399
0.00438158
-0.42858
0.427102
-0.00544044
0.00580468
-0.549947
0.549582
-0.00574351
0.00536286
-0.652411
0.652791
-0.00480424
0.00423925
-0.769113
0.769678
-0.00351824
0.00272512
-0.911737
0.91253
-0.00168915
0.000558307
-1.08474
1.08587
0.000897726
-0.00240429
-1.294
1.29551
0.00420969
-0.00593485
-1.54777
1.54949
0.00753375
-0.00895311
-1.54711
1.54853
0.00994895
-0.0107521
-1.29285
1.29365
0.0112547
-0.0115836
-1.08371
1.08403
0.0117265
-0.0117564
-0.9114
0.91143
0.0116873
-0.0114419
-0.770298
0.770053
0.0110942
-0.010491
-0.653841
0.653238
0.00952501
-0.00774976
-0.537437
0.535661
0.00557729
-0.0032085
-0.379035
0.376666
0.00161455
-0.00058074
-0.191146
0.190112
0.000132086
-0.0327269
0.0325948
-0.0343925
0.03446
-6.75106e-05
-0.000141426
0.00088517
-0.262874
0.262131
-0.00240871
0.00409137
-0.425556
0.423873
-0.00563648
0.00641191
-0.549116
0.548341
-0.00659849
0.00649401
-0.653113
0.653217
-0.00612801
0.00550929
-0.770256
0.770874
-0.00462926
0.00358695
-0.913414
0.914457
-0.00217288
0.000647183
-1.08713
1.08866
0.00126487
-0.00319259
-1.29716
1.29909
0.00543233
-0.00753245
-1.55134
1.55344
0.00947405
-0.0112275
-1.55006
1.55182
0.012488
-0.013512
-1.2945
1.29552
0.0141511
-0.0145732
-1.08428
1.0847
0.0146899
-0.0145828
-0.911327
0.91122
0.0142873
-0.013867
-0.769811
0.769391
0.0134147
-0.012346
-0.652546
0.651478
0.0107688
-0.00829842
-0.533639
0.531169
0.00573734
-0.00325142
-0.374255
0.371769
0.00167323
-0.000648132
-0.189085
0.18806
0.000168264
-0.0324494
0.0322811
-0.0345365
0.0346395
-0.00010304
0.000266855
0.000181719
-0.261495
0.261046
-0.00145177
0.00325388
-0.422066
0.420264
-0.0054525
0.00709568
-0.547142
0.545499
-0.00817283
0.00840891
-0.653151
0.652915
-0.0080928
0.00747234
-0.771598
0.772219
-0.00637657
0.00496298
-0.91571
0.917123
-0.00302561
0.000967544
-1.09043
1.09248
0.00154437
-0.00402132
-1.30127
1.30375
0.00689159
-0.00958294
-1.55583
1.55852
0.0120575
-0.0142846
-1.55384
1.55607
0.0159054
-0.0173514
-1.29678
1.29823
0.0183671
-0.0190939
-1.08527
1.086
0.0194194
-0.0193432
-0.911184
0.911107
0.0189204
-0.0181446
-0.768761
0.767985
0.0168154
-0.0145507
-0.649851
0.647586
0.011834
-0.0084518
-0.528204
0.524822
0.00556609
-0.00311919
-0.369261
0.366814
0.00165605
-0.000690306
-0.187062
0.186097
0.000199146
-0.0321016
0.0319024
-0.0347654
0.0349234
-0.000157967
0.000803178
-0.000812226
-0.260829
0.260838
0.000113951
0.00129132
-0.418608
0.417203
-0.00345931
0.00547518
-0.543626
0.54161
-0.00719173
0.00788796
-0.652518
0.651822
-0.00779643
0.00723637
-0.772828
0.773388
-0.00595375
0.00428476
-0.918687
0.920356
-0.00202142
-0.000333679
-1.09468
1.09703
0.00317843
-0.00595705
-1.30638
1.30915
0.00915594
-0.0121411
-1.56139
1.56437
0.0148567
-0.0172395
-1.55847
1.56085
0.0189749
-0.0204451
-1.29971
1.30118
0.0213728
-0.0219634
-1.08674
1.08733
0.0220617
-0.0218095
-0.910859
0.910606
0.0212336
-0.0197553
-0.766893
0.765415
0.0175566
-0.0144566
-0.644844
0.641744
0.0111841
-0.00764248
-0.521286
0.517745
0.00496863
-0.00286423
-0.364531
0.362426
0.00160418
-0.00071279
-0.185189
0.184297
0.000217883
-0.0317083
0.0314904
-0.0351187
0.0353469
-0.00022813
0.00137432
-0.0018457
-0.261036
0.261508
0.00190346
-0.00129275
-0.416223
0.415612
-0.000104504
0.00161911
-0.539892
0.538377
-0.0030474
0.0038927
-0.650884
0.650039
-0.00400271
0.0033764
-0.774051
0.774677
-0.00209388
0.000473614
-0.921976
0.923596
0.00172117
-0.00401236
-1.09932
1.10161
0.0067789
-0.00946691
-1.31186
1.31455
0.0125182
-0.0152884
-1.56727
1.57004
0.0177124
-0.0197106
-1.56315
1.56515
0.0209974
-0.021995
-1.30247
1.30347
0.0224655
-0.022571
-1.08764
1.08774
0.022399
-0.0217623
-0.91013
0.909493
0.0204673
-0.0183933
-0.763514
0.76144
0.0159149
-0.0127812
-0.638593
0.635459
0.00977705
-0.00675613
-0.514491
0.51147
0.0045686
-0.00282055
-0.360559
0.358811
0.00168345
-0.000784854
-0.183446
0.182547
0.000246663
-0.0312851
0.0310384
-0.0356321
0.0359379
-0.000305806
0.00191912
-0.00279796
-0.262193
0.263072
0.00349281
-0.0036964
-0.415549
0.415752
0.00333455
-0.00272565
-0.537507
0.536899
0.00211469
-0.00186563
-0.649564
0.649315
0.00207486
-0.00273638
-0.77521
0.775872
0.00394531
-0.00543359
-0.924966
0.926455
0.0074262
-0.00950501
-1.10365
1.10573
0.0119896
-0.0143556
-1.317
1.31936
0.0169441
-0.0191761
-1.57251
1.57475
0.0209807
-0.022278
-1.56687
1.56816
0.0228994
-0.0230749
-1.30414
1.30431
0.0229176
-0.0224147
-1.08746
1.08696
0.0215525
-0.0201394
-0.908238
0.906825
0.0185121
-0.0163625
-0.759241
0.757091
0.0140842
-0.0113892
-0.63259
0.629895
0.00894682
-0.00652972
-0.508901
0.506484
0.00471125
-0.00311045
-0.35727
0.355669
0.00193663
-0.000923264
-0.181657
0.180644
0.000291502
-0.0308064
0.0305149
-0.0363193
0.0367162
-0.000396904
0.00250801
-0.00374257
-0.264195
0.265429
0.0049764
-0.00581678
-0.416357
0.417197
0.0063326
-0.00661271
-0.536952
0.537232
0.00691068
-0.00731963
-0.649495
0.649904
0.00804825
-0.00903852
-0.776598
0.777588
0.0104851
-0.0120708
-0.927749
0.929334
0.0140404
-0.0159891
-1.10754
1.10948
0.0182233
-0.0202574
-1.32144
1.32347
0.0223399
-0.0239577
-1.57661
1.57823
0.0250503
-0.0255526
-1.56909
1.56959
0.0254455
-0.0248469
-1.30414
1.30354
0.0240303
-0.0227645
-1.08586
1.0846
0.0213412
-0.0195557
-0.905079
0.903294
0.0177559
-0.0156247
-0.754855
0.752724
0.0135569
-0.011235
-0.627472
0.62515
0.00916943
-0.00706846
-0.504446
0.502345
0.0053615
-0.00368713
-0.35422
0.352545
0.00234557
-0.00112662
-0.179612
0.178393
0.000355179
-0.0302318
0.0298766
-0.0371977
0.0377166
-0.00051892
0.00324984
-0.00489153
-0.266955
0.268597
0.00663915
-0.0080403
-0.418439
0.41984
0.00924315
-0.0101686
-0.538077
0.539002
0.0111651
-0.0122611
-0.650774
0.65187
0.0136985
-0.0152292
-0.778703
0.780233
0.0171235
-0.0189888
-0.930772
0.932637
0.0211361
-0.0231349
-1.11124
1.11324
0.0252917
-0.0271229
-1.32526
1.32709
0.0288165
-0.0299001
-1.57949
1.58057
0.0303255
-0.0300356
-1.56967
1.56938
0.0292465
-0.0279761
-1.30261
1.30134
0.0265032
-0.0246646
-1.08294
1.0811
0.0228198
-0.0207104
-0.901198
0.899088
0.018738
-0.0165568
-0.750446
0.748265
0.0145513
-0.0123592
-0.622985
0.620793
0.0103912
-0.00829357
-0.500512
0.498414
0.00645304
-0.00452738
-0.350948
0.349022
0.00291343
-0.00140528
-0.177135
0.175627
0.00044296
-0.029528
0.029085
-0.0383216
0.0390099
-0.000688242
0.0042639
-0.0064326
-0.270554
0.272722
0.00879791
-0.0107642
-0.421647
0.423614
0.0125919
-0.0141077
-0.540563
0.542079
0.0157899
-0.0175161
-0.653393
0.655119
0.0196471
-0.021774
-0.781839
0.783966
0.0242304
-0.0265208
-0.934445
0.936735
0.0290296
-0.0312511
-1.11515
1.11737
0.0335118
-0.0352855
-1.32873
1.33051
0.0367257
-0.0373829
-1.58133
1.58199
0.0372393
-0.0362813
-1.5687
1.56775
0.0348588
-0.0328827
-1.29968
1.29771
0.030816
-0.0283892
-1.0789
1.07647
0.0261143
-0.0236238
-0.89664
0.89415
0.0213897
-0.0190084
-0.745821
0.74344
0.016877
-0.0145664
-0.618608
0.616297
0.0124485
-0.0100943
-0.496504
0.494149
0.0079454
-0.00561553
-0.347139
0.344809
0.00362267
-0.00174745
-0.17407
0.172194
0.000550492
-0.0286535
0.028103
-0.0397877
0.0407046
-0.000916875
0.00563207
-0.00848494
-0.275211
0.278064
0.0115946
-0.0141814
-0.426007
0.428593
0.0166338
-0.0187309
-0.544329
0.546426
0.021105
-0.0235161
-0.657314
0.659725
0.0264198
-0.029226
-0.78617
0.788977
0.032379
-0.0352438
-0.939035
0.9419
0.0382906
-0.0408866
-1.11955
1.12215
0.04339
-0.0452082
-1.33214
1.33396
0.0464787
-0.0467599
-1.58235
1.58263
0.0460679
-0.0444274
-1.5664
1.56476
0.0423571
-0.0396702
-1.29534
1.29265
0.0369895
-0.0339418
-1.07367
1.07062
0.0311522
-0.0281652
-0.891241
0.888254
0.02554
-0.0227929
-0.740656
0.737909
0.0203656
-0.0177409
-0.613854
0.611229
0.0152976
-0.0125072
-0.491955
0.489165
0.00989255
-0.00699967
-0.342514
0.339621
0.0045115
-0.00217139
-0.170269
0.167929
0.000682711
-0.027576
0.0268933
-0.0417215
0.0429738
-0.00125238
0.00756077
-0.0113239
-0.281255
0.285018
0.0153687
-0.018696
-0.431745
0.435072
0.0218661
-0.0246235
-0.549466
0.552223
0.0277944
-0.031
-0.662653
0.665858
0.0348062
-0.0384223
-0.79186
0.795476
0.0424155
-0.0459752
-0.944779
0.948338
0.0496653
-0.0527064
-1.12471
1.12775
0.0555138
-0.0574142
-1.33565
1.33755
0.0585299
-0.0584185
-1.58261
1.5825
0.057135
-0.0547402
-1.56269
1.56029
0.0519439
-0.0484596
-1.28954
1.28605
0.045074
-0.0412905
-1.06713
1.06334
0.0378722
-0.0342507
-0.884745
0.881124
0.0310978
-0.027826
-0.734607
0.731335
0.0249531
-0.021851
-0.608324
0.605222
0.0189373
-0.0155598
-0.486508
0.483131
0.0123179
-0.00872137
-0.336799
0.333203
0.00561546
-0.00269878
-0.165554
0.162638
0.000845871
-0.0262533
0.0254075
-0.044313
0.0460845
-0.0017715
0.0104456
-0.015495
-0.289137
0.294187
0.0207803
-0.0250332
-0.43922
0.443473
0.0290662
-0.0326193
-0.556222
0.559775
0.036776
-0.0409601
-0.669655
0.673839
0.0458569
-0.0504251
-0.799171
0.803739
0.0553759
-0.0596968
-0.951914
0.956235
0.0640671
-0.0675599
-1.13076
1.13425
0.0706444
-0.0725702
-1.33927
1.3412
0.0734323
-0.0728122
-1.58202
1.5814
0.0708121
-0.0675301
-1.5574
1.55412
0.0638864
-0.0594693
-1.28207
1.27765
0.0552488
-0.0505817
-1.05903
1.05437
0.046396
-0.0419854
-0.876865
0.872455
0.038163
-0.0342141
-0.727347
0.723398
0.0307595
-0.0270349
-0.601674
0.597949
0.0235174
-0.0194031
-0.479819
0.475705
0.0153838
-0.0108566
-0.329729
0.325202
0.00696223
-0.00331612
-0.159726
0.15608
0.00102792
-0.0246327
0.0236048
-0.0479015
0.0504892
-0.00258772
0.0148512
-0.0216959
-0.299575
0.30642
0.0285886
-0.0339928
-0.449032
0.454437
0.0391164
-0.0437292
-0.565048
0.569661
0.0492016
-0.0546222
-0.678702
0.684123
0.0608291
-0.066487
-0.808382
0.81404
0.0724805
-0.0775878
-0.96055
0.965658
0.0826039
-0.0864575
-1.13765
1.1415
0.0896559
-0.0914148
-1.34284
1.3446
0.091783
-0.0904228
-1.58028
1.57892
0.08749
-0.0831186
-1.55023
1.54586
0.0784661
-0.0729548
-1.27265
1.26714
0.067759
-0.0620574
-1.04909
1.04339
0.0569663
-0.051613
-0.867293
0.86194
0.0469816
-0.0422074
-0.718556
0.713782
0.0380421
-0.0335524
-0.593575
0.589086
0.0292797
-0.0242353
-0.471544
0.466499
0.0192393
-0.013547
-0.32088
0.315188
0.00861837
-0.00406139
-0.152521
0.147964
0.00124238
-0.0226662
0.0214238
-0.0530723
0.0571131
-0.00404075
0.0220973
-0.0315541
-0.313741
0.323198
0.0405928
-0.0475306
-0.462045
0.468983
0.05409
-0.0601295
-0.576609
0.582649
0.0673012
-0.0742164
-0.690229
0.697144
0.0818545
-0.0885873
-0.819705
0.826437
0.0954954
-0.101185
-0.97063
0.97632
0.106552
-0.110457
-1.14507
1.14897
0.1134
-0.114643
-1.34589
1.34714
0.114135
-0.111696
-1.57687
1.57443
0.107533
-0.101816
-1.54073
1.53501
0.0959674
-0.0891921
-1.26095
1.25417
0.0828898
-0.0760256
-1.037
1.03014
0.0699188
-0.0635003
-0.855737
0.849318
0.057945
-0.0522171
-0.707932
0.702204
0.047226
-0.0418364
-0.583681
0.578291
0.0366368
-0.0304285
-0.461243
0.455035
0.0241889
-0.0170194
-0.309773
0.302604
0.0107766
-0.00502415
-0.143597
0.137844
0.00151095
-0.0202975
0.0187865
-0.0609336
0.0681498
-0.00721619
0.0356648
-0.049326
-0.333942
0.347603
0.061382
-0.0701162
-0.479451
0.488186
0.0783188
-0.0860096
-0.591668
0.599359
0.0949982
-0.103238
-0.704506
0.712746
0.111923
-0.11926
-0.832953
0.84029
0.126489
-0.132173
-0.981596
0.987279
0.137231
-0.140576
-1.15226
1.1556
0.142639
-0.142811
-1.3476
1.34777
0.14089
-0.13692
-1.57105
1.56708
0.131169
-0.123833
-1.52837
1.52104
0.116597
-0.108413
-1.24662
1.23844
0.1009
-0.0927909
-1.02252
1.01441
0.0856069
-0.0780723
-0.841983
0.834448
0.0715458
-0.0647977
-0.695237
0.688489
0.0588989
-0.0525066
-0.571658
0.565265
0.0462497
-0.0385501
-0.44833
0.44063
0.0307095
-0.0216462
-0.295672
0.286609
0.0136661
-0.00630102
-0.132508
0.125143
0.00181647
-0.0174592
0.0156428
-0.0750745
0.0786127
-0.00353825
0.0253107
-0.0370703
-0.36419
0.37595
0.0476397
-0.0558968
-0.50203
0.510287
0.0648088
-0.0743609
-0.60994
0.619492
0.0849968
-0.0945418
-0.720686
0.730231
0.105165
-0.114552
-0.846871
0.856258
0.124288
-0.13263
-0.992034
1.00038
0.140914
-0.147532
-1.15785
1.16446
0.153397
-0.157191
-1.34673
1.35053
0.159124
-0.158337
-1.56186
1.56108
0.154707
-0.148646
-1.51258
1.50652
0.141574
-0.13264
-1.22938
1.22044
0.123944
-0.113561
-1.00552
0.995137
0.104105
-0.0937961
-0.825972
0.815663
0.0846635
-0.075032
-0.680418
0.670786
0.0662406
-0.0569226
-0.557242
0.547924
0.0481303
-0.0371521
-0.432149
0.421171
0.0269839
-0.0167144
-0.277487
0.267217
0.00903229
-0.00333722
-0.118463
0.112768
0.000662507
-0.0141633
0.0135008
-0.0857458
0.0829481
0.00279766
0.002843
-0.00973557
-0.390574
0.397467
0.0178112
-0.0244124
-0.523362
0.529964
0.0329174
-0.0413635
-0.629722
0.638168
0.0510264
-0.0598312
-0.739671
0.748476
0.0692054
-0.0777024
-0.865172
0.873669
0.0865265
-0.0938041
-1.00845
1.01573
0.101235
-0.106846
-1.17093
1.17654
0.111771
-0.114664
-1.35404
1.35693
0.115485
-0.113883
-1.55948
1.55787
0.109565
-0.102954
-1.49965
1.49304
0.0953369
-0.0860063
-1.211
1.20167
0.0770616
-0.0668692
-0.984396
0.974204
0.057371
-0.0468966
-0.804293
0.793819
0.0376155
-0.0281983
-0.658752
0.649335
0.020222
-0.0120647
-0.535614
0.527457
0.0051658
0.00109882
-0.409384
0.403119
-0.00460921
0.00605071
-0.255811
0.254369
-0.00553729
0.00351252
-0.10611
0.108135
-0.00143579
-0.0121188
0.0135545
-0.0855536
0.0822907
0.00326288
-0.00536898
0.00213333
-0.407509
0.410745
0.00303786
-0.00838952
-0.54062
0.545971
0.0154174
-0.0226524
-0.64702
0.654255
0.0308875
-0.0384514
-0.756771
0.764335
0.046731
-0.0540908
-0.881515
0.888875
0.0615366
-0.0680509
-1.02287
1.02939
0.0745348
-0.0795493
-1.18181
1.18683
0.0835653
-0.0857378
-1.35928
1.36145
0.086241
-0.0843643
-1.55571
1.55383
0.0800221
-0.0736627
-1.48602
1.47966
0.0665551
-0.0581518
-1.19246
1.18406
0.0498356
-0.0406943
-0.963936
0.954795
0.0322454
-0.0230176
-0.783617
0.77439
0.0150771
-0.00696692
-0.638844
0.630734
0.000311512
0.0062676
-0.516964
0.510385
-0.0111038
0.0146015
-0.394674
0.391176
-0.0151458
0.0128362
-0.249228
0.251537
-0.00933969
0.00504557
-0.10812
0.112414
-0.00177169
-0.0137799
0.0155516
-0.0834609
0.0803275
0.00313339
-0.00812908
0.00701465
-0.418079
0.419194
-0.00381132
-0.000282428
-0.554221
0.558315
0.00638815
-0.0124466
-0.661381
0.667439
0.0194891
-0.025973
-0.771631
0.778115
0.0330302
-0.0393413
-0.895818
0.902129
0.0461255
-0.0517102
-1.03553
1.04112
0.057497
-0.0615862
-1.19155
1.19564
0.0651897
-0.0671435
-1.36358
1.36553
0.0674588
-0.0654684
-1.55176
1.54977
0.0616498
-0.0561165
-1.47308
1.46755
0.0499378
-0.0424022
-1.17582
1.16829
0.0353585
-0.0277239
-0.945837
0.938202
0.0206111
-0.013212
-0.765615
0.758216
0.00654733
-8.039e-06
-0.62196
0.615421
-0.0052513
0.00990948
-0.502197
0.497539
-0.0129139
0.0147666
-0.385025
0.383172
-0.0143941
0.0113085
-0.249055
0.252141
-0.00798221
0.00415674
-0.113615
0.117441
-0.00142565
-0.0160514
0.017477
-0.081347
0.0787334
0.00261368
-0.00845993
0.0086228
-0.424917
0.424755
-0.00612704
0.00287814
-0.565297
0.568546
0.00200722
-0.00738997
-0.673542
0.678924
0.0133106
-0.0190221
-0.784205
0.789916
0.0251454
-0.0306527
-0.908123
0.91363
0.0365255
-0.0415784
-1.04664
1.05169
0.0466019
-0.050532
-1.19969
1.20362
0.0538363
-0.0556712
-1.36731
1.36914
0.0560567
-0.0543679
-1.54789
1.5462
0.0510892
-0.0461631
-1.4617
1.45677
0.0408739
-0.0345939
-1.16113
1.15485
0.0286707
-0.0221738
-0.930741
0.924244
0.0163814
-0.0103086
-0.75099
0.744917
0.00509487
4.79324e-05
-0.608661
0.603518
-0.00399146
0.00730193
-0.491232
0.487922
-0.00936963
0.0103836
-0.378847
0.377834
-0.00963845
0.00731728
-0.250173
0.252494
-0.00501117
0.00252338
-0.117876
0.120364
-0.000905609
-0.0176365
0.0185421
-0.0796276
0.0774473
0.00218035
-0.00783425
0.00822873
-0.429409
0.429015
-0.00679317
0.00401535
-0.573999
0.576777
0.000550655
-0.00516171
-0.683912
0.688523
0.0103108
-0.0153128
-0.795099
0.800101
0.0207994
-0.0257772
-0.91892
0.923898
0.0312326
-0.0357537
-1.05656
1.06108
0.0404015
-0.0440856
-1.20736
1.21104
0.0471945
-0.0489931
-1.37085
1.37265
0.0494948
-0.0484569
-1.54465
1.54361
0.0456283
-0.0415104
-1.45171
1.4476
0.03691
-0.0314608
-1.14871
1.14326
0.0265685
-0.020917
-0.91797
0.912318
0.0159868
-0.0110161
-0.739066
0.734095
0.00671518
-0.00248261
-0.598322
0.594089
-0.000792614
0.0036727
-0.483084
0.480204
-0.00516744
0.00599815
-0.374301
0.37347
-0.00582737
0.00438943
-0.250174
0.251611
-0.0029391
0.00154987
-0.119777
0.121166
-0.000602132
-0.0183063
0.0189084
-0.0783958
0.0767155
0.00168032
-0.00661349
0.00716065
-0.432668
0.43212
-0.00589157
0.00370781
-0.581724
0.583908
0.000451871
-0.00461819
-0.692995
0.697162
0.00952713
-0.0138888
-0.804926
0.809288
0.0187724
-0.0232548
-0.928955
0.933438
0.0285097
-0.0327122
-1.06572
1.06992
0.0369703
-0.0405866
-1.21464
1.21826
0.0440004
-0.0458361
-1.37456
1.3764
0.0466551
-0.0458815
-1.54235
1.54158
0.0437968
-0.0400156
-1.44345
1.43967
0.0361299
-0.0314627
-1.13786
1.13319
0.0270415
-0.0222245
-0.906912
0.902095
0.0178355
-0.0132764
-0.729014
0.724455
0.00969607
-0.00586305
-0.589596
0.585763
0.00280974
-0.000284762
-0.476136
0.473611
-0.00132505
0.00243428
-0.370313
0.369203
-0.00263607
0.00212503
-0.249111
0.249622
-0.00150227
0.000863943
-0.119819
0.120457
-0.000398418
-0.018418
0.0188164
-0.0777348
0.0764139
0.00132084
-0.00534917
0.0059525
-0.435242
0.434639
-0.00472371
0.00255342
-0.588481
0.590651
0.0012822
-0.00502354
-0.701217
0.704959
0.00927766
-0.0135176
-0.813762
0.818002
0.0180878
-0.0227474
-0.937832
0.942492
0.0273603
-0.0314512
-1.07429
1.07839
0.035921
-0.0394006
-1.22185
1.22533
0.0424822
-0.044856
-1.37824
1.38061
0.0460314
-0.0457199
-1.54097
1.54066
0.043966
-0.0408811
-1.43613
1.43304
0.0374138
-0.0331725
-1.12828
1.12403
0.0292097
-0.0247733
-0.897213
0.892777
0.0207361
-0.0166507
-0.719962
0.715876
0.0130167
-0.00946614
-0.58164
0.578089
0.00663844
-0.00394679
-0.469979
0.467287
0.00208013
-0.000887211
-0.365967
0.364774
0.000134261
0.000258892
-0.246827
0.246434
-0.0004034
0.000381654
-0.118568
0.11859
-0.000265242
-0.0181563
0.0184215
-0.0776228
0.0765117
0.00111116
-0.00397878
0.00436361
-0.437636
0.437251
-0.00332312
0.00110064
-0.594664
0.596887
0.00242955
-0.00605337
-0.708898
0.712522
0.0101663
-0.0140523
-0.822182
0.826068
0.0187673
-0.0227016
-0.946678
0.950613
0.0273225
-0.0312851
-1.08269
1.08666
0.0357067
-0.0394467
-1.22887
1.23261
0.0429003
-0.0451613
-1.38284
1.3851
0.0467722
-0.0469378
-1.54034
1.54051
0.0458614
-0.0430871
-1.42986
1.42709
0.0399961
-0.0360575
-1.11982
1.11589
0.0323751
-0.0281204
-0.88805
0.883795
0.0243446
-0.0202614
-0.711517
0.707433
0.0166951
-0.0130884
-0.574191
0.570584
0.0100912
-0.00746628
-0.463723
0.461098
0.0053105
-0.00370124
-0.361207
0.359598
0.0024242
-0.00136796
-0.243412
0.242356
0.000594083
1.6174e-05
-0.11628
0.11567
-0.000164193
-0.0175831
0.0177473
-0.0777756
0.0769875
0.000788035
-0.00279066
0.00275789
-0.440225
0.440258
-0.00187524
-0.000425369
-0.60011
0.602411
0.00365666
-0.00715441
-0.716089
0.719586
0.0111034
-0.0151233
-0.829932
0.833952
0.0192708
-0.0233795
-0.954811
0.95892
0.0279945
-0.0317905
-1.09109
1.09489
0.036343
-0.0400867
-1.23622
1.23996
0.0436628
-0.0465092
-1.38783
1.39068
0.0486779
-0.0491821
-1.54078
1.54128
0.0483794
-0.0462684
-1.42449
1.42238
0.0436049
-0.0398333
-1.11175
1.10798
0.0361752
-0.0321814
-0.879261
0.875267
0.028109
-0.0241629
-0.703
0.699054
0.0205576
-0.0167785
-0.566847
0.563068
0.0137784
-0.010802
-0.457307
0.454331
0.00843134
-0.00621289
-0.356036
0.353818
0.00458755
-0.00293832
-0.238999
0.23735
0.00149055
-0.000367463
-0.113159
0.112036
-5.88715e-05
-0.0167681
0.016827
-0.0783206
0.0776786
0.000642023
-0.00183128
0.00184568
-0.443045
0.44303
-0.00046998
-0.00175764
-0.605546
0.607773
0.00506874
-0.00842123
-0.722803
0.726156
0.0122213
-0.0158673
-0.837744
0.84139
0.0201455
-0.023966
-0.963088
0.966909
0.028549
-0.0327847
-1.09917
1.1034
0.0370216
-0.0411222
-1.24381
1.24791
0.0451579
-0.0481502
-1.39349
1.39649
0.0507539
-0.0520839
-1.54206
1.54339
0.0517522
-0.0502357
-1.42016
1.41864
0.047707
-0.0442282
-1.10418
1.1007
0.0407434
-0.0366201
-0.870694
0.866571
0.0326435
-0.0285327
-0.694477
0.690366
0.0248201
-0.0208181
-0.558994
0.554992
0.017508
-0.0143114
-0.450534
0.447337
0.0114446
-0.00878426
-0.349983
0.347323
0.0066285
-0.0044069
-0.233577
0.231355
0.00249357
-0.0008667
-0.109303
0.107676
0.000108825
-0.0157965
0.0156877
-0.0791055
0.0786194
0.000486128
-0.000819182
0.000625681
-0.44599
0.446184
0.0006965
-0.00311219
-0.610682
0.613097
0.00629003
-0.00947363
-0.729262
0.732445
0.0133469
-0.0168482
-0.845079
0.84858
0.0209834
-0.0249268
-0.971236
0.975179
0.0294241
-0.0336383
-1.10754
1.11175
0.0381091
-0.0422617
-1.25198
1.25613
0.046516
-0.0502766
-1.39982
1.40358
0.0533673
-0.0550397
-1.54471
1.54639
0.0554212
-0.054229
-1.41701
1.41582
0.0522103
-0.0491549
-1.09709
1.09404
0.0455953
-0.0414671
-0.862051