/*--------------------------------*- C++ -*----------------------------------*\
| =========                 |                                                 |
| \\      /  F ield         | OpenFOAM: The Open Source CFD Toolbox           |
|  \\    /   O peration     | Version:  2112                                  |
|   \\  /    A nd           | Website:  www.openfoam.com                      |
|    \\/     M anipulation  |                                                 |
\*---------------------------------------------------------------------------*/
FoamFile
{
    version     2.0;
    format      ascii;
    arch        "LSB;label=32;scalar=64";
    class       volVectorField;
    location    "23.5";
    object      U;
}
// * * * * * * * * * * * * * * * * * * * * * * * * * * * * * * * * * * * * * //

dimensions      [0 1 -1 0 0 0 0];

internalField   nonuniform List<vector> 
8800
(
(0.980143 -0.0915205 0)
(1.00234 -0.0587275 0)
(0.999609 -0.0321242 0)
(0.999999 -0.0165116 0)
(1.00005 -0.00881805 0)
(1.00002 -0.00506177 0)
(1.00002 -0.00296663 0)
(1.00001 -0.00168286 0)
(1.00001 -0.000812532 0)
(1.00005 -0.000128324 0)
(1 0.000562197 0)
(1 0.00131368 0)
(1.00001 0.00234397 0)
(1.00002 0.0039541 0)
(1.00003 0.00670685 0)
(1.00005 0.0120235 0)
(0.999881 0.0230833 0)
(0.999081 0.0431546 0)
(1.00721 0.0790308 0)
(0.775021 0.0478397 0)
(0.358993 -0.0147481 0)
(1.0465 -0.0724816 0)
(1.08849 -0.0660215 0)
(1.04948 -0.0509144 0)
(1.02554 -0.0376953 0)
(1.01267 -0.0258949 0)
(1.00649 -0.0167003 0)
(1.00357 -0.0102293 0)
(1.00215 -0.00564335 0)
(1.0015 -0.00210799 0)
(1.00138 0.00105249 0)
(1.00173 0.0043263 0)
(1.00269 0.00822195 0)
(1.00472 0.0135695 0)
(1.00897 0.0212854 0)
(1.01799 0.0317863 0)
(1.03592 0.0445758 0)
(1.06753 0.0580396 0)
(1.09477 0.0699754 0)
(0.84575 0.0554919 0)
(0.217809 -0.00137837 0)
(1.0757 -0.0506226 0)
(1.09943 -0.0489011 0)
(1.06437 -0.0399715 0)
(1.03982 -0.0324899 0)
(1.02369 -0.0252678 0)
(1.01394 -0.0181107 0)
(1.00846 -0.0115945 0)
(1.00563 -0.00593564 0)
(1.00448 -0.000721722 0)
(1.00481 0.0043419 0)
(1.00666 0.00960831 0)
(1.0106 0.0155628 0)
(1.01792 0.0223118 0)
(1.03055 0.0294407 0)
(1.0506 0.0365797 0)
(1.08022 0.0444036 0)
(1.10587 0.0517765 0)
(0.943586 0.0409319 0)
(0.217405 0.00139459 0)
(0.17671 -0.000626166 0)
(1.01949 -0.0353988 0)
(1.10577 -0.0413337 0)
(1.078 -0.0363241 0)
(1.05236 -0.0302778 0)
(1.03503 -0.0244066 0)
(1.02318 -0.018655 0)
(1.01542 -0.012755 0)
(1.01086 -0.00678879 0)
(1.00887 -0.000711428 0)
(1.00943 0.0053079 0)
(1.01253 0.0111608 0)
(1.01848 0.0169373 0)
(1.02808 0.0225569 0)
(1.04237 0.0281527 0)
(1.06333 0.0339811 0)
(1.0942 0.039911 0)
(1.09487 0.0415034 0)
(0.830982 0.0226476 0)
(0.176027 0.000639075 0)
(0.154884 -0.000459267 0)
(0.958446 -0.0255592 0)
(1.1044 -0.0349258 0)
(1.08795 -0.0324903 0)
(1.06106 -0.0280293 0)
(1.04297 -0.0231098 0)
(1.03059 -0.0178818 0)
(1.02201 -0.012477 0)
(1.01649 -0.00676217 0)
(1.01388 -0.000502462 0)
(1.01458 0.00580262 0)
(1.01845 0.0115788 0)
(1.02528 0.0168751 0)
(1.03548 0.0219312 0)
(1.05029 0.0267958 0)
(1.07228 0.0312582 0)
(1.10144 0.0351767 0)
(1.07053 0.0335135 0)
(0.744089 0.0142543 0)
(0.153865 0.000473932 0)
(0.140349 -0.000329237 0)
(0.901884 -0.0190915 0)
(1.09698 -0.0298535 0)
(1.09611 -0.0289072 0)
(1.06865 -0.0250893 0)
(1.04967 -0.0210889 0)
(1.0367 -0.0166097 0)
(1.02774 -0.0116291 0)
(1.02185 -0.00617589 0)
(1.01894 -0.000106878 0)
(1.01966 0.0060049 0)
(1.02376 0.0115027 0)
(1.03086 0.0163987 0)
(1.04145 0.0207957 0)
(1.05696 0.0247098 0)
(1.07997 0.0283006 0)
(1.10411 0.0311743 0)
(1.03959 0.0274301 0)
(0.678477 0.0100126 0)
(0.138922 0.000346787 0)
(0.129836 -0.000246308 0)
(0.852773 -0.0145158 0)
(1.08477 -0.0254866 0)
(1.10168 -0.0258698 0)
(1.07529 -0.0226855 0)
(1.05572 -0.0191464 0)
(1.04223 -0.0151343 0)
(1.03287 -0.0105427 0)
(1.0267 -0.00538361 0)
(1.02358 0.00036917 0)
(1.02425 0.00613681 0)
(1.02843 0.0112706 0)
(1.03575 0.0157407 0)
(1.04674 0.0196192 0)
(1.06274 0.0229991 0)
(1.08626 0.0260353 0)
(1.10369 0.0278897 0)
(1.00617 0.0225178 0)
(0.628203 0.00747605 0)
(0.127913 0.000267864 0)
(0.12202 -0.000183721 0)
(0.811746 -0.0110972 0)
(1.06988 -0.0214138 0)
(1.10491 -0.0226157 0)
(1.08112 -0.0198689 0)
(1.06122 -0.0166776 0)
(1.04748 -0.0131382 0)
(1.03777 -0.00908329 0)
(1.03127 -0.00441942 0)
(1.02796 0.000954201 0)
(1.02852 0.00636144 0)
(1.03279 0.0109681 0)
(1.04032 0.0148127 0)
(1.05147 0.0180714 0)
(1.06769 0.020924 0)
(1.09148 0.0235961 0)
(1.10057 0.0246854 0)
(0.97324 0.0184316 0)
(0.589094 0.00573977 0)
(0.119496 0.000210239 0)
(0.116181 -0.000137282 0)
(0.778203 -0.00838398 0)
(1.05402 -0.0176649 0)
(1.1072 -0.0195187 0)
(1.08656 -0.0171458 0)
(1.06606 -0.0142187 0)
(1.052 -0.011094 0)
(1.04217 -0.00747113 0)
(1.0355 -0.00321752 0)
(1.03199 0.00169532 0)
(1.03241 0.00655561 0)
(1.03662 0.0106257 0)
(1.04409 0.0139056 0)
(1.0553 0.0165803 0)
(1.07191 0.0189691 0)
(1.09572 0.0213294 0)
(1.09529 0.0217318 0)
(0.942386 0.0149914 0)
(0.558337 0.00444073 0)
(0.112923 0.000170236 0)
(0.111944 -9.7523e-05 0)
(0.751607 -0.00613617 0)
(1.03811 -0.0140602 0)
(1.10828 -0.0164755 0)
(1.0914 -0.0147611 0)
(1.07054 -0.0122225 0)
(1.05624 -0.00926311 0)
(1.04634 -0.00578286 0)
(1.03958 -0.00183001 0)
(1.03586 0.00258286 0)
(1.03609 0.00685277 0)
(1.04011 0.010379 0)
(1.0474 0.0132741 0)
(1.05857 0.0156791 0)
(1.0755 0.0176775 0)
(1.09857 0.0193511 0)
(1.08791 0.0188573 0)
(0.914512 0.0120166 0)
(0.534275 0.00342898 0)
(0.107788 0.000138943 0)
(0.10901 -6.70535e-05 0)
(0.731441 -0.00415692 0)
(1.02342 -0.0104877 0)
(1.108 -0.0130194 0)
(1.09527 -0.011743 0)
(1.07453 -0.00943855 0)
(1.05996 -0.00682596 0)
(1.0497 -0.00380128 0)
(1.04264 -0.000295519 0)
(1.03867 0.0036619 0)
(1.03863 0.00743434 0)
(1.04247 0.0103242 0)
(1.04982 0.0125328 0)
(1.06114 0.0142711 0)
(1.07805 0.0157702 0)
(1.09947 0.0169191 0)
(1.07901 0.015788 0)
(0.890375 0.00936243 0)
(0.515698 0.00258112 0)
(0.103749 0.000118779 0)
(0.107347 -2.63083e-05 0)
(0.717494 -0.00228145 0)
(1.01113 -0.00696365 0)
(1.10741 -0.00928786 0)
(1.09889 -0.00824843 0)
(1.07819 -0.00637635 0)
(1.06356 -0.00428815 0)
(1.05331 -0.00164165 0)
(1.04618 0.00147893 0)
(1.04201 0.00496398 0)
(1.04158 0.00815302 0)
(1.04502 0.0104152 0)
(1.05195 0.0119079 0)
(1.06302 0.0128882 0)
(1.08002 0.0136937 0)
(1.09957 0.0143468 0)
(1.06987 0.0128 0)
(0.870339 0.00693418 0)
(0.502095 0.00181495 0)
(0.100719 9.21126e-05 0)
(0.106916 9.0208e-06 0)
(0.709101 -0.000766394 0)
(1.00111 -0.00392129 0)
(1.10618 -0.00623267 0)
(1.10155 -0.00573943 0)
(1.08094 -0.00420596 0)
(1.06621 -0.0023172 0)
(1.05592 0.000201648 0)
(1.04869 0.00321186 0)
(1.04422 0.00650754 0)
(1.04337 0.00935326 0)
(1.04633 0.0112521 0)
(1.05288 0.0124142 0)
(1.06361 0.0129496 0)
(1.08052 0.0130775 0)
(1.09829 0.0128806 0)
(1.0601 0.0104707 0)
(0.853955 0.00507358 0)
(0.492523 0.00129076 0)
(0.098585 6.64115e-05 0)
(0.1074 4.87524e-05 0)
(0.705283 0.000220506 0)
(0.993607 -0.00147492 0)
(1.10402 -0.00341029 0)
(1.10335 -0.00326379 0)
(1.08359 -0.00203619 0)
(1.06913 -0.000138808 0)
(1.05896 0.00243965 0)
(1.05157 0.00539135 0)
(1.04664 0.00844063 0)
(1.04526 0.0108958 0)
(1.04767 0.012285 0)
(1.05358 0.0128006 0)
(1.06374 0.0128488 0)
(1.08006 0.0126421 0)
(1.09519 0.0117963 0)
(1.0498 0.00882059 0)
(0.840849 0.00412637 0)
(0.485327 0.00111075 0)
(0.096979 5.33207e-05 0)
(0.108464 6.13708e-05 0)
(0.704519 0.000787836 0)
(0.989322 0.000149788 0)
(1.10233 -0.000872863 0)
(1.10483 -0.00054538 0)
(1.08621 0.000765052 0)
(1.07203 0.00276389 0)
(1.0618 0.00533439 0)
(1.05412 0.0080762 0)
(1.04872 0.0107993 0)
(1.04663 0.0127925 0)
(1.04827 0.0135669 0)
(1.05359 0.0136019 0)
(1.06326 0.0131522 0)
(1.07889 0.0124858 0)
(1.0913 0.0112119 0)
(1.04012 0.00821736 0)
(0.829851 0.00412032 0)
(0.478632 0.00121144 0)
(0.0954185 5.85922e-05 0)
(0.10989 7.53748e-05 0)
(0.7053 0.00116137 0)
(0.987774 0.00112409 0)
(1.10237 0.00103571 0)
(1.10702 0.00216955 0)
(1.08914 0.00388208 0)
(1.07489 0.00611128 0)
(1.06439 0.00862422 0)
(1.05627 0.0112522 0)
(1.05028 0.0137114 0)
(1.04735 0.0152095 0)
(1.04826 0.0154152 0)
(1.05299 0.0149403 0)
(1.06197 0.0140956 0)
(1.07692 0.0130471 0)
(1.08724 0.0115826 0)
(1.03134 0.00876853 0)
(0.819111 0.00465983 0)
(0.471244 0.00142883 0)
(0.0935915 7.51625e-05 0)
(0.111697 8.92214e-05 0)
(0.707343 0.00164096 0)
(0.987572 0.00193744 0)
(1.10394 0.00211869 0)
(1.11065 0.00362088 0)
(1.09268 0.00576802 0)
(1.0781 0.00844438 0)
(1.06726 0.0114021 0)
(1.0587 0.0144734 0)
(1.05191 0.01724 0)
(1.04793 0.0187684 0)
(1.04782 0.0187743 0)
(1.05179 0.0177376 0)
(1.06043 0.0163694 0)
(1.07471 0.0151288 0)
(1.08314 0.0136541 0)
(1.02197 0.0102394 0)
(0.807029 0.00533637 0)
(0.462783 0.00167293 0)
(0.0913572 9.69901e-05 0)
(0.114035 0.000109891 0)
(0.711099 0.00238278 0)
(0.987695 0.00319987 0)
(1.10546 0.00310048 0)
(1.11442 0.00423322 0)
(1.09689 0.00647768 0)
(1.08204 0.00978805 0)
(1.07086 0.0136715 0)
(1.06169 0.0178129 0)
(1.05384 0.0215603 0)
(1.04858 0.0237748 0)
(1.04723 0.0241624 0)
(1.05004 0.0233315 0)
(1.05792 0.0217528 0)
(1.07206 0.0196968 0)
(1.07749 0.0170496 0)
(1.00965 0.0118311 0)
(0.793236 0.00590399 0)
(0.453319 0.00191968 0)
(0.0886778 0.000118884 0)
(0.117152 0.000146742 0)
(0.717574 0.00344774 0)
(0.988595 0.00527917 0)
(1.10572 0.00485346 0)
(1.11756 0.00547009 0)
(1.10154 0.0075981 0)
(1.08705 0.011569 0)
(1.07576 0.0166542 0)
(1.0658 0.0220648 0)
(1.0566 0.0269684 0)
(1.04984 0.0299829 0)
(1.04709 0.0307753 0)
(1.04848 0.0300381 0)
(1.05473 0.028148 0)
(1.06706 0.0251659 0)
(1.06749 0.0202048 0)
(0.993743 0.0130469 0)
(0.77832 0.00650017 0)
(0.44284 0.0022168 0)
(0.0855289 0.000142139 0)
(0.121357 0.000201675 0)
(0.727817 0.00485352 0)
(0.992007 0.00808573 0)
(1.10523 0.00856718 0)
(1.12008 0.00870543 0)
(1.10648 0.0108851 0)
(1.09334 0.0157436 0)
(1.08185 0.0218732 0)
(1.0708 0.0282374 0)
(1.05992 0.0338129 0)
(1.05129 0.0369594 0)
(1.04679 0.0374499 0)
(1.0464 0.036108 0)
(1.05056 0.0334351 0)
(1.05872 0.0289484 0)
(1.05322 0.0221502 0)
(0.97599 0.0140264 0)
(0.762758 0.00731402 0)
(0.43101 0.00259295 0)
(0.0818374 0.000166357 0)
(0.127049 0.000277841 0)
(0.742636 0.00660384 0)
(0.999609 0.0115896 0)
(1.10662 0.0137405 0)
(1.12265 0.0146437 0)
(1.11254 0.0179046 0)
(1.10066 0.0234774 0)
(1.08874 0.0302175 0)
(1.07623 0.0369652 0)
(1.06322 0.0424273 0)
(1.05224 0.0448322 0)
(1.04564 0.0441606 0)
(1.04309 0.041396 0)
(1.04441 0.0372406 0)
(1.0477 0.0313202 0)
(1.03719 0.0236681 0)
(0.958222 0.0155126 0)
(0.746171 0.00856921 0)
(0.417219 0.0031044 0)
(0.0774978 0.000195943 0)
(0.134691 0.000386493 0)
(0.762769 0.00889835 0)
(1.01268 0.0159515 0)
(1.11268 0.0202487 0)
(1.12781 0.0232156 0)
(1.11998 0.02806 0)
(1.10875 0.0345217 0)
(1.09597 0.041692 0)
(1.08154 0.048395 0)
(1.06586 0.0530921 0)
(1.05206 0.0539765 0)
(1.04284 0.0514129 0)
(1.0378 0.0467792 0)
(1.03599 0.0408382 0)
(1.03525 0.0338619 0)
(1.02115 0.0260107 0)
(0.940581 0.0179547 0)
(0.727524 0.0103445 0)
(0.400753 0.00377628 0)
(0.0723411 0.000231877 0)
(0.145018 0.000553795 0)
(0.789364 0.0121642 0)
(1.03218 0.0215917 0)
(1.12425 0.0281954 0)
(1.13717 0.0336801 0)
(1.12952 0.0405944 0)
(1.11775 0.048396 0)
(1.1033 0.056153 0)
(1.0863 0.062644 0)
(1.06734 0.0661586 0)
(1.05019 0.0650211 0)
(1.03804 0.0601971 0)
(1.0303 0.0535144 0)
(1.02562 0.04591 0)
(1.0219 0.0380217 0)
(1.00514 0.0299183 0)
(0.921944 0.0214622 0)
(0.705894 0.0126084 0)
(0.381012 0.00454147 0)
(0.0662061 0.0002681 0)
(0.159274 0.000818979 0)
(0.824219 0.0169828 0)
(1.05892 0.0293049 0)
(1.14174 0.0383468 0)
(1.15126 0.0466659 0)
(1.14188 0.0560294 0)
(1.12806 0.065503 0)
(1.11077 0.0739577 0)
(1.09029 0.0800662 0)
(1.06736 0.0820557 0)
(1.04638 0.0785848 0)
(1.03107 0.071351 0)
(1.02058 0.0625306 0)
(1.01341 0.053308 0)
(1.00741 0.044392 0)
(0.98824 0.0356445 0)
(0.900801 0.0261358 0)
(0.679848 0.0154397 0)
(0.357232 0.00548491 0)
(0.0589996 0.000310796 0)
(0.179658 0.00129043 0)
(0.870475 0.0246456 0)
(1.09468 0.040803 0)
(1.16571 0.0525377 0)
(1.17038 0.064181 0)
(1.15737 0.0760917 0)
(1.13972 0.0871179 0)
(1.11821 0.0959496 0)
(1.09324 0.101222 0)
(1.06566 0.101206 0)
(1.04049 0.0950514 0)
(1.02184 0.0852388 0)
(1.00864 0.0742194 0)
(0.999214 0.0632746 0)
(0.991206 0.0530747 0)
(0.969283 0.0432295 0)
(0.875694 0.0320364 0)
(0.648284 0.0189181 0)
(0.328845 0.00658857 0)
(0.0506325 0.000350245 0)
(0.209538 0.00236341 0)
(0.933926 0.0381712 0)
(1.14141 0.0600723 0)
(1.19682 0.074252 0)
(1.19419 0.0895591 0)
(1.17534 0.103362 0)
(1.15204 0.114993 0)
(1.12496 0.123219 0)
(1.09462 0.126744 0)
(1.0619 0.12396 0)
(1.03233 0.114613 0)
(1.01029 0.10198 0)
(0.994432 0.0886728 0)
(0.98283 0.0758914 0)
(0.972744 0.0642094 0)
(0.947093 0.0529575 0)
(0.845183 0.0394272 0)
(0.610154 0.0231574 0)
(0.296045 0.00792158 0)
(0.0414003 0.000377271 0)
(0.250669 0.00883818 -1.26503e-20)
(1.01809 0.0657542 -9.81613e-21)
(1.19675 0.0927725 2.73327e-21)
(1.23343 0.109811 0)
(1.22004 0.126705 2.67286e-36)
(1.19366 0.140398 1.27147e-22)
(1.16353 0.150888 -1.23674e-21)
(1.13002 0.157184 0)
(1.09367 0.158024 4.75683e-35)
(1.05531 0.151878 -3.63005e-21)
(1.02091 0.139066 0)
(0.99507 0.123553 -5.22663e-21)
(0.976174 0.10799 -1.6001e-20)
(0.961992 0.0934824 -7.7465e-21)
(0.949266 0.0805544 -2.43937e-21)
(0.919449 0.06814 -1.47602e-21)
(0.805827 0.0516006 0)
(0.561884 0.0305827 1.05497e-21)
(0.258457 0.0114781 1.24908e-21)
(0.0330685 0.00113044 2.21613e-20)
(0.277899 0.0248678 -2.36129e-20)
(1.0872 0.109664 5.07236e-22)
(1.24326 0.14065 -1.355e-21)
(1.26638 0.158986 0)
(1.24326 0.174275 2.09805e-21)
(1.20956 0.186299 1.11698e-21)
(1.17256 0.194908 -7.81591e-22)
(1.13247 0.199016 -6.11862e-21)
(1.08964 0.19729 0)
(1.04474 0.188094 1.54241e-20)
(1.00436 0.172237 1.7099e-20)
(0.973473 0.154211 5.50951e-21)
(0.95033 0.136668 2.17728e-20)
(0.93242 0.120453 3.20594e-20)
(0.915476 0.105954 0)
(0.878643 0.0917901 4.75895e-20)
(0.757431 0.0720147 6.92597e-20)
(0.512803 0.045252 7.72238e-20)
(0.228515 0.0192816 -8.90326e-20)
(0.0272819 0.00235373 -1.64692e-21)
(0.276239 0.0404311 0)
(1.12893 0.166646 -7.31417e-21)
(1.27646 0.2005 0)
(1.29177 0.217915 1.17413e-20)
(1.26138 0.229694 0)
(1.22135 0.238379 5.82639e-21)
(1.17811 0.243765 8.1759e-22)
(1.13191 0.24468 -9.00924e-21)
(1.08305 0.239696 -1.56603e-21)
(1.03204 0.227165 7.48714e-21)
(0.986097 0.208319 4.00143e-20)
(0.95069 0.188129 -3.02091e-22)
(0.923745 0.169116 -1.63904e-20)
(0.902525 0.151985 -3.18354e-20)
(0.882583 0.136717 3.85798e-20)
(0.843921 0.12156 -6.93487e-20)
(0.728286 0.098288 -9.45356e-21)
(0.499194 0.0656777 0)
(0.234657 0.030836 6.18966e-23)
(0.0312422 0.00440498 0)
(0.268367 0.0540475 -1.82078e-19)
(1.14967 0.226491 7.53097e-20)
(1.29752 0.265345 4.04344e-20)
(1.30841 0.281522 -7.71976e-21)
(1.27303 0.289469 1.17741e-20)
(1.2282 0.294195 -1.40505e-20)
(1.17991 0.295735 8.64613e-22)
(1.12846 0.29293 0)
(1.07429 0.284279 -2.93279e-20)
(1.01787 0.268151 0)
(0.967003 0.24629 -2.04659e-20)
(0.927711 0.224092 -2.88359e-20)
(0.897687 0.203884 -1.84392e-20)
(0.87398 0.18604 -2.3794e-20)
(0.852225 0.170277 0)
(0.814281 0.154224 0)
(0.709792 0.128781 -6.38421e-20)
(0.501463 0.0910407 1.27294e-20)
(0.249657 0.0458163 -7.40044e-21)
(0.0376058 0.00733063 -8.64487e-21)
(0.260185 0.0662207 1.35135e-19)
(1.15719 0.285992 0)
(1.30941 0.331504 -1.13636e-19)
(1.31742 0.346389 -2.91033e-20)
(1.27847 0.350681 -2.19998e-20)
(1.23008 0.351453 0)
(1.17784 0.349101 -2.69015e-21)
(1.12215 0.342439 8.05132e-21)
(1.06345 0.329997 1.28425e-20)
(1.00238 0.310139 3.81886e-20)
(0.947386 0.285201 0)
(0.90496 0.260937 -6.30568e-20)
(0.872593 0.23958 -4.04073e-20)
(0.847069 0.221161 -2.43886e-20)
(0.824191 0.205159 1.59983e-19)
(0.787911 0.188559 1.96586e-20)
(0.694395 0.161755 9.36328e-20)
(0.504781 0.117941 -4.50494e-19)
(0.262307 0.0622402 2.67989e-19)
(0.0429839 0.0106197 -3.23015e-19)
(0.252852 0.0772287 1.42987e-19)
(1.15643 0.343253 -2.65872e-20)
(1.31422 0.396759 2.00411e-20)
(1.32031 0.410692 5.43587e-20)
(1.2788 0.411579 3.32126e-20)
(1.22771 0.408635 1.68867e-21)
(1.17234 0.40255 2.31478e-21)
(1.11316 0.392127 5.97871e-21)
(1.0507 0.375916 -2.83545e-20)
(0.985668 0.352324 0)
(0.927218 0.324207 -2.70685e-20)
(0.88233 0.297757 -1.54109e-21)
(0.848306 0.275069 -4.53415e-20)
(0.821696 0.256002 0)
(0.798426 0.239719 -3.4997e-20)
(0.764134 0.222848 -8.5244e-20)
(0.678792 0.194785 2.35188e-19)
(0.503301 0.144852 -2.33527e-19)
(0.267705 0.0780383 3.31612e-19)
(0.0459974 0.013684 -3.45535e-19)
(0.246942 0.0874668 -4.1625e-22)
(1.15066 0.397673 3.26235e-20)
(1.31376 0.459922 9.59022e-20)
(1.31851 0.473279 -3.33609e-20)
(1.2751 0.471125 1.89813e-20)
(1.22188 0.46478 0)
(1.16402 0.455204 8.46466e-21)
(1.10195 0.441219 -4.57293e-21)
(1.03628 0.421369 -1.2962e-20)
(0.967844 0.39406 0)
(0.906423 0.362672 -2.65209e-20)
(0.859555 0.333845 -3.73165e-20)
(0.82439 0.309546 4.97124e-20)
(0.797216 0.289524 -3.18554e-20)
(0.774047 0.272621 -1.5458e-19)
(0.741699 0.255102 9.50739e-20)
(0.66278 0.225194 2.98759e-20)
(0.496729 0.16883 0)
(0.266833 0.091354 -3.22484e-19)
(0.0466044 0.0160942 -1.18685e-20)
(0.242388 0.0972459 2.35113e-20)
(1.14198 0.449102 -3.75726e-20)
(1.30944 0.520435 -5.24938e-20)
(1.31319 0.533519 -1.02649e-19)
(1.26833 0.528709 9.23108e-20)
(1.21343 0.519309 -4.8833e-20)
(1.1535 0.506524 -1.7738e-20)
(1.089 0.489215 -6.60252e-21)
(1.02054 0.465912 1.29855e-20)
(0.949093 0.434966 -9.39162e-20)
(0.885063 0.400196 -3.26721e-20)
(0.836444 0.368738 0)
(0.800408 0.342523 5.44483e-20)
(0.773018 0.321153 6.7395e-20)
(0.750163 0.303247 8.3053e-20)
(0.719497 0.284686 -1.03829e-19)
(0.645203 0.252518 -3.12364e-20)
(0.485614 0.18948 3.69156e-20)
(0.261424 0.102071 0)
(0.045781 0.0178902 -2.5878e-20)
(0.238996 0.1067 -2.73332e-19)
(1.13185 0.497678 1.7218e-19)
(1.30241 0.578053 5.78075e-20)
(1.30528 0.591059 -7.84265e-20)
(1.25923 0.583951 5.53048e-20)
(1.20298 0.571834 -3.93274e-21)
(1.14135 0.556158 1.7227e-20)
(1.07476 0.535804 -2.96278e-21)
(1.00382 0.509263 -2.34694e-20)
(0.929604 0.474808 1.93423e-22)
(0.863194 0.436615 -9.76295e-20)
(0.813128 0.402302 9.52962e-20)
(0.776349 0.373827 -6.1082e-20)
(0.748833 0.350686 7.60424e-20)
(0.726369 0.331469 0)
(0.697056 0.311498 -5.63988e-20)
(0.625911 0.276367 -1.11991e-21)
(0.470744 0.206829 -1.6161e-19)
(0.252129 0.1101 -2.38271e-20)
(0.0436696 0.0189751 0)
(0.236582 0.115942 0)
(1.12107 0.543631 1.87143e-19)
(1.29343 0.632666 1.34896e-19)
(1.2955 0.645793 8.85669e-20)
(1.24846 0.636663 5.31639e-20)
(1.19111 0.62214 0)
(1.12805 0.60388 1.69095e-20)
(1.05963 0.580776 -1.19486e-21)
(0.986451 0.551265 4.997e-20)
(0.909673 0.513481 -1.15418e-20)
(0.840967 0.471839 -7.1618e-20)
(0.78947 0.434491 4.77266e-20)
(0.751987 0.403516 -1.97308e-21)
(0.724341 0.378317 8.00876e-20)
(0.702284 0.357394 5.23845e-20)
(0.674006 0.335569 -1.2279e-19)
(0.604822 0.296884 1.48338e-19)
(0.452776 0.220671 4.42082e-20)
(0.239846 0.115637 1.82493e-19)
(0.0406415 0.0193674 -4.88707e-19)
(0.235063 0.125082 -7.0269e-20)
(1.11022 0.587139 1.08044e-19)
(1.28325 0.684344 -8.41472e-20)
(1.28438 0.697686 -1.02888e-19)
(1.23653 0.68675 0)
(1.17827 0.670106 4.28038e-20)
(1.11399 0.649565 -4.84524e-20)
(1.04396 0.624007 1.53297e-21)
(0.968744 0.591813 0)
(0.889487 0.550915 -1.79169e-19)
(0.818398 0.505894 1.95423e-19)
(0.765303 0.465347 0)
(0.727116 0.43155 7.23207e-20)
(0.699352 0.404038 -1.97323e-21)
(0.677619 0.381128 -1.65696e-19)
(0.650001 0.357065 6.51893e-20)
(0.581874 0.314266 0)
(0.432266 0.231127 2.39674e-19)
(0.225308 0.118774 0)
(0.0370034 0.0192043 -2.32747e-19)
(0.234215 0.134169 7.84217e-20)
(1.09961 0.628396 1.23525e-19)
(1.27224 0.733108 -8.82257e-20)
(1.27238 0.746736 0)
(1.22385 0.734199 7.33167e-20)
(1.16483 0.715694 0)
(1.09951 0.693141 6.41386e-20)
(1.02805 0.665424 6.60827e-21)
(0.950917 0.63085 5.26179e-21)
(0.869187 0.587114 -8.85673e-20)
(0.795623 0.538828 1.8986e-20)
(0.740785 0.495009 0)
(0.701672 0.458198 -1.53806e-19)
(0.673702 0.428041 2.03472e-21)
(0.652189 0.402837 0)
(0.624879 0.376126 2.40221e-21)
(0.556947 0.328595 2.18271e-19)
(0.409219 0.238171 -2.09427e-19)
(0.208838 0.119497 6.18299e-20)
(0.0328748 0.0184282 0)
(0.233714 0.143057 0)
(1.08942 0.667455 1.38271e-19)
(1.26073 0.779113 1.03517e-19)
(1.25986 0.792999 -2.23557e-21)
(1.21076 0.77904 4.60141e-20)
(1.15111 0.758903 1.00806e-19)
(1.08489 0.734592 -2.05124e-20)
(1.01213 0.704998 1.93738e-21)
(0.93319 0.668349 3.10023e-20)
(0.849014 0.622102 -1.3832e-19)
(0.772834 0.570761 -3.19416e-21)
(0.715988 0.523639 -6.29646e-20)
(0.675675 0.483612 2.52024e-19)
(0.647305 0.450555 -2.41674e-21)
(0.625902 0.422729 -1.30448e-19)
(0.598551 0.392905 -2.38377e-19)
(0.530089 0.339958 0)
(0.383862 0.241967 0)
(0.190652 0.117743 6.76204e-20)
(0.0284441 0.0170723 -3.95963e-20)
(0.233783 0.151878 9.76641e-20)
(1.07976 0.704266 -3.03181e-19)
(1.24896 0.822473 -1.10927e-19)
(1.24709 0.836554 0)
(1.1975 0.821328 -1.53449e-21)
(1.13734 0.799761 1.21255e-19)
(1.07035 0.773928 -6.91883e-20)
(0.996425 0.742728 -2.82936e-20)
(0.915791 0.704323 3.23912e-20)
(0.82919 0.655918 -1.06759e-19)
(0.75018 0.601795 -1.65584e-19)
(0.690952 0.551447 1.6791e-19)
(0.649141 0.508034 0)
(0.620126 0.471748 -5.86594e-20)
(0.598685 0.440946 -1.43112e-19)
(0.570945 0.407455 -1.72559e-19)
(0.501252 0.348262 -2.08988e-19)
(0.356305 0.242361 6.23518e-20)
(0.170875 0.113375 -3.6583e-20)
(0.0236806 0.0151295 3.73982e-22)
(0.233851 0.160543 0)
(1.07075 0.739139 0)
(1.23713 0.863243 2.53714e-21)
(1.23427 0.877484 0)
(1.18428 0.861147 -1.72925e-19)
(1.12369 0.838326 -1.07233e-19)
(1.05606 0.811178 0)
(0.981116 0.778629 -7.24555e-21)
(0.898898 0.738774 4.15228e-20)
(0.809864 0.688587 -2.45428e-19)
(0.727831 0.632033 0)
(0.66585 0.578626 -1.07613e-19)
(0.622061 0.531672 -2.96524e-21)
(0.59209 0.491824 -2.44136e-21)
(0.570432 0.457616 1.52653e-19)
(0.541977 0.419807 -4.26003e-22)
(0.470419 0.353471 -4.53437e-19)
(0.326444 0.239183 1.35536e-19)
(0.149661 0.106438 4.01792e-20)
(0.0187275 0.0127081 0)
(0.233929 0.168955 -3.59541e-19)
(1.06212 0.772274 -1.86305e-19)
(1.22537 0.901548 -2.78155e-19)
(1.22156 0.9159 3.87106e-19)
(1.17125 0.898561 -3.243e-19)
(1.11034 0.874655 0)
(1.04218 0.846386 -5.89857e-20)
(0.966331 0.812723 1.34067e-20)
(0.882632 0.771715 3.75792e-21)
(0.791207 0.720137 1.93762e-20)
(0.705977 0.661571 2.07911e-19)
(0.640834 0.60536 -3.68327e-20)
(0.594533 0.554842 -1.55509e-19)
(0.563105 0.511072 -6.95832e-20)
(0.540988 0.472849 8.48779e-20)
(0.511554 0.429821 -3.22111e-22)
(0.43774 0.355309 1.24022e-19)
(0.294486 0.232232 -2.93692e-19)
(0.127613 0.0971341 3.48949e-19)
(0.0138213 0.00994707 5.06316e-20)
(0.233892 0.177055 1.32112e-19)
(1.05389 0.803714 -1.0204e-19)
(1.21379 0.937502 6.01706e-21)
(1.20906 0.951927 2.1881e-19)
(1.15851 0.93368 7.58622e-20)
(1.09736 0.908818 2.14023e-19)
(1.02879 0.879597 -2.62477e-20)
(0.952164 0.845026 6.45141e-20)
(0.867111 0.803147 -2.42916e-20)
(0.773364 0.750569 -1.34533e-19)
(0.684805 0.690468 0)
(0.61609 0.631819 -1.65719e-19)
(0.566658 0.577838 2.25735e-19)
(0.533088 0.529819 0)
(0.510057 0.486727 -1.81629e-19)
(0.479427 0.437167 1.12208e-19)
(0.40329 0.353208 -1.3392e-19)
(0.261447 0.221392 -1.60221e-19)
(0.105719 0.0859482 -2.83402e-19)
(0.00921419 0.00703089 -2.21063e-19)
(0.23406 0.184919 -1.4534e-19)
(1.04588 0.833448 1.09092e-19)
(1.20245 0.971188 2.59644e-19)
(1.19686 0.985648 3.00879e-19)
(1.14615 0.96659 -1.58719e-19)
(1.08484 0.940897 1.47676e-19)
(1.01597 0.910865 -8.15322e-20)
(0.93869 0.875584 8.02514e-20)
(0.852416 0.833092 -8.46091e-21)
(0.756452 0.77989 1.29175e-19)
(0.664485 0.71876 4.42726e-19)
(0.59185 0.658134 0)
(0.538614 0.600974 0)
(0.501939 0.548529 -8.04905e-20)
(0.477147 0.49947 0)
(0.445005 0.441258 2.43976e-19)
(0.367084 0.346029 2.91873e-19)
(0.228542 0.206111 0)
(0.0853741 0.0733258 0)
(0.00523732 0.00426154 2.3992e-19)
(0.233927 0.192308 1.60355e-19)
(1.03813 0.861484 1.30786e-19)
(1.19142 1.00273 1.86629e-19)
(1.18502 1.01719 -2.68682e-19)
(1.13423 0.997393 -1.76985e-19)
(1.07284 0.970969 -1.95925e-19)
(1.00376 0.940251 1.20841e-19)
(0.925962 0.904427 3.02335e-22)
(0.838609 0.861555 -4.83609e-21)
(0.740555 0.808087 -5.85051e-21)
(0.645194 0.746453 2.24576e-19)
(0.568344 0.684382 0)
(0.51069 0.624536 2.28173e-19)
(0.469686 0.567793 1.69957e-19)
(0.441569 0.511616 4.32378e-19)
(0.406993 0.441571 1.31706e-19)
(0.328611 0.331582 -1.60281e-19)
(0.198165 0.184248 -9.39439e-20)
(0.0707698 0.0592954 0)
(0.00322933 0.00225498 2.60018e-19)
(0.233995 0.199621 -3.529e-19)
(1.03063 0.88793 0)
(1.18068 1.03219 2.086e-19)
(1.17358 1.04664 -2.20144e-19)
(1.12278 1.02618 2.00397e-19)
(1.06139 0.999117 2.86283e-19)
(0.992216 0.967814 -2.80219e-19)
(0.914003 0.931592 2.66993e-21)
(0.825716 0.888543 0)
(0.725741 0.835124 -1.21704e-19)
(0.627075 0.773511 -4.6689e-19)
(0.545827 0.710611 2.26955e-20)
(0.48326 0.6487 3.10762e-19)
(0.436569 0.588276 0)
(0.402635 0.524215 2.92337e-19)
(0.363121 0.438526 0)
(0.284601 0.306878 0)
(0.171477 0.147157 -1.04093e-19)
(0.0778928 0.0330713 0)
(0.0254751 0.0105428 7.01179e-20)
(0.233736 0.206304 -3.85822e-19)
(1.02332 0.913096 0)
(1.17025 1.05979 3.37768e-19)
(1.16249 1.07423 0)
(1.11178 1.0532 -1.08777e-19)
(1.05042 1.02562 0)
(0.981252 0.993858 -2.09992e-20)
(0.902715 0.957412 -1.39815e-20)
(0.813624 0.914415 -6.06286e-24)
(0.711867 0.861384 -1.20208e-19)
(0.610003 0.800351 1.22995e-20)
(0.524185 0.737366 1.87588e-19)
(0.456177 0.674024 3.0117e-19)
(0.40231 0.611022 4.29466e-20)
(0.359046 0.539263 2.29387e-19)
(0.309649 0.434893 0)
(0.223423 0.273089 3.48902e-19)
(0.120189 0.0833312 -2.05404e-19)
(0.0500996 0.0508492 2.3622e-19)
(-0.0669369 0.407619 -2.76346e-19)
(0.23346 0.212724 3.14595e-19)
(1.016 0.936858 4.97498e-19)
(1.16004 1.08583 0)
(1.15164 1.10037 4.96708e-21)
(1.10106 1.07902 2.95589e-19)
(1.03969 1.05114 -5.54118e-19)
(0.970589 1.01916 -1.23615e-19)
(0.891732 0.982804 0)
(0.801855 0.94024 -2.25417e-20)
(0.698332 0.888151 -3.71545e-21)
(0.593159 0.828433 0)
(0.5024 0.766412 0)
(0.42825 0.702364 2.64681e-19)
(0.365839 0.637977 -1.34335e-19)
(0.308515 0.560463 -2.29652e-19)
(0.2419 0.437494 0)
(0.127154 0.252834 1.78249e-19)
(0.0180747 0.429457 -2.0668e-19)
(0.0430959 1.81558 -1.07405e-19)
(0.0751882 2.77283 -1.39885e-19)
(0.233043 0.218292 -2.30285e-19)
(1.0089 0.959346 -6.27963e-19)
(1.15003 1.11031 1.94792e-19)
(1.14103 1.1249 1.87057e-19)
(1.09065 1.10341 0)
(1.02926 1.07538 -3.96769e-19)
(0.960401 1.04341 -2.07272e-19)
(0.881218 1.00734 9.37607e-21)
(0.790649 0.965507 -2.89963e-21)
(0.685482 0.914805 9.26123e-20)
(0.577112 0.857051 2.09228e-19)
(0.481426 0.797202 1.93798e-19)
(0.400692 0.733311 2.60262e-19)
(0.32954 0.667439 -3.07165e-19)
(0.257262 0.590403 -3.40633e-19)
(0.163648 0.464848 0)
(0.0658704 0.808557 0)
(0.123148 2.49646 9.22323e-20)
(0.125848 3.17346 0)
(0.128121 3.37717 2.10767e-19)
(0.235066 0.223511 0)
(1.00256 0.980691 0)
(1.14004 1.13309 0)
(1.13042 1.14763 5.21406e-20)
(1.08025 1.12616 2.63871e-19)
(1.0189 1.09823 -3.02923e-19)
(0.950583 1.06651 -1.48462e-19)
(0.871126 1.03093 1.06887e-20)
(0.779968 0.990081 -6.00042e-20)
(0.673342 0.941204 -1.00956e-20)
(0.561999 0.886075 3.79193e-19)
(0.461615 0.829511 -2.27662e-20)
(0.374046 0.767508 2.93965e-20)
(0.295264 0.696544 4.38042e-20)
(0.207555 0.628689 5.05443e-22)
(0.128689 0.916512 1.81763e-21)
(0.168065 2.63565 -4.67948e-19)
(0.185215 3.27408 -1.7513e-19)
(0.16945 3.42444 8.13352e-20)
(0.152016 3.44985 -8.40993e-20)
(0.152775 0.18049 1.3163e-19)
(0.990218 1.00382 0)
(1.1298 1.15435 -3.79404e-19)
(1.12055 1.16912 -4.81377e-19)
(1.0706 1.14803 5.503e-19)
(1.0095 1.12032 3.21785e-19)
(0.941036 1.08856 1.73728e-19)
(0.861552 1.05369 -1.85462e-19)
(0.769998 1.01407 6.61771e-20)
(0.662262 0.967363 0)
(0.548346 0.91543 1.643e-19)
(0.443707 0.862866 -1.45065e-19)
(0.349287 0.806934 0)
(0.264534 0.728407 3.85397e-20)
(0.186772 0.830538 9.20598e-20)
(0.18122 2.33815 -1.14201e-19)
(0.256156 3.3111 1.27156e-19)
(0.232014 3.44368 6.12028e-20)
(0.193338 3.46827 6.90917e-20)
(0.167397 3.47988 8.67634e-20)
(0.276763 0.259859 -2.4486e-19)
(0.973782 1.01156 0)
(1.11095 1.17785 3.91381e-19)
(1.10661 1.20071 5.02057e-19)
(1.055 1.18001 -5.66703e-19)
(0.993607 1.15283 -3.42603e-19)
(0.924526 1.12246 -2.6843e-19)
(0.844684 1.08876 -1.37105e-20)
(0.752197 1.0513 -9.77491e-20)
(0.642341 1.00849 1.20605e-20)
(0.524323 0.96299 6.41789e-21)
(0.412974 0.91852 1.11937e-19)
(0.304497 0.875376 2.4007e-20)
(0.236309 0.979178 -3.45852e-20)
(0.260395 2.20124 -8.1431e-20)
(0.332644 3.31237 5.8403e-20)
(0.319014 3.4812 -5.25292e-20)
(0.278373 3.50588 -2.93215e-20)
(0.237577 3.5351 3.88573e-21)
(0.17946 3.52734 -5.85053e-22)
(0.26386 0.255996 0)
(0.970554 1.03266 1.03147e-19)
(1.10289 1.20014 -7.76393e-20)
(1.09679 1.22298 -5.60995e-20)
(1.04531 1.20228 -3.72726e-19)
(0.984069 1.17532 3.34746e-19)
(0.914792 1.1451 1.80929e-19)
(0.835027 1.11218 -1.44324e-20)
(0.742453 1.07621 1.22153e-19)
(0.632022 1.03621 -1.42042e-20)
(0.512403 0.995524 -2.11914e-19)
(0.39847 0.957502 1.58764e-20)
(0.292575 0.938069 -2.07833e-20)
(0.278813 1.40131 -2.84914e-20)
(0.368676 3.02235 1.84049e-20)
(0.403253 3.47294 8.68593e-22)
(0.356672 3.54479 -2.17227e-20)
(0.315717 3.57109 -4.38771e-20)
(0.261283 3.59638 7.48055e-20)
(0.194998 3.59089 2.87582e-20)
(0.246919 0.253698 2.53205e-19)
(0.965524 1.05623 6.95227e-19)
(1.09423 1.22432 -2.21972e-19)
(1.0865 1.24666 -2.1314e-19)
(1.03513 1.22579 0)
(0.974116 1.19883 4.9092e-19)
(0.90495 1.16883 2.76502e-19)
(0.825549 1.13666 -1.52401e-20)
(0.733221 1.10222 1.26161e-20)
(0.622744 1.06521 5.54934e-20)
(0.502266 1.02957 -6.5088e-20)
(0.387459 0.998852 -1.07902e-19)
(0.297391 1.05101 -1.35603e-19)
(0.353263 2.01635 1.49466e-19)
(0.463368 3.35724 7.60635e-20)
(0.455408 3.54305 0)
(0.401081 3.59282 0)
(0.361918 3.64025 7.118e-20)
(0.294657 3.71086 0)
(0.207682 3.67642 1.4892e-19)
(0.235386 0.254531 -3.70184e-19)
(0.958522 1.08068 -5.78939e-19)
(1.08412 1.24955 0)
(1.07497 1.27111 5.7794e-21)
(1.02378 1.24982 -3.63555e-19)
(0.963104 1.22273 7.30192e-19)
(0.894389 1.19296 1.86253e-19)
(0.815571 1.16142 -1.91513e-20)
(0.723749 1.12841 1.39322e-19)
(0.613642 1.09432 -6.82575e-21)
(0.493102 1.06383 0)
(0.379607 1.04248 0)