/*--------------------------------*- C++ -*----------------------------------*\
| =========                 |                                                 |
| \\      /  F ield         | OpenFOAM: The Open Source CFD Toolbox           |
|  \\    /   O peration     | Version:  2112                                  |
|   \\  /    A nd           | Website:  www.openfoam.com                      |
|    \\/     M anipulation  |                                                 |
\*---------------------------------------------------------------------------*/
FoamFile
{
    version     2.0;
    format      ascii;
    arch        "LSB;label=32;scalar=64";
    class       volScalarField;
    location    "9";
    object      p;
}
// * * * * * * * * * * * * * * * * * * * * * * * * * * * * * * * * * * * * * //

dimensions      [0 2 -2 0 0 0 0];

internalField   nonuniform List<scalar> 
400
(
-5.9111687e-07
-0.00066224701
-0.001357916
-0.0018977295
-0.0021584163
-0.0020806219
-0.0016410504
-0.00083307821
0.00032975786
0.0017979968
0.0034706071
0.0051874663
0.006743292
0.0079193098
0.0085367895
0.0085177371
0.0079278486
0.0069802492
0.0060109586
0.0054535314
0.00064669154
-3.9857866e-05
-0.00055577823
-0.00091244541
-0.0010677858
-0.00098225807
-0.0006349142
-1.4078177e-05
0.00087747414
0.00200744
0.0033003391
0.0046433196
0.0058694373
0.0068062478
0.0073122752
0.0073254746
0.0068971836
0.0061960241
0.005464938
0.0048982722
0.0013947144
0.00042946526
-0.00011399141
-0.00043664637
-0.00058266061
-0.00053599641
-0.0002811052
0.00020023067
0.00092066479
0.0018694705
0.0029968737
0.0042010547
0.0053310875
0.0062162516
0.006706102
0.0067217348
0.0062949244
0.0055759943
0.0047601616
0.0039214925
0.0019684074
0.00066028546
1.1167055e-05
-0.0003490661
-0.00054366442
-0.00057802345
-0.00043974786
-9.9615751e-05
0.00047663657
0.0013042312
0.002355484
0.0035441563
0.0047170931
0.0056829066
0.0062538492
0.0063065144
0.0058376431
0.0049867433
0.0039310896
0.0026689749
0.0021119265
0.00047090259
-0.00030331533
-0.00073774971
-0.0010248728
-0.0011851982
-0.0012036857
-0.0010340705
-0.00061390003
0.00010485887
0.0011232453
0.0023777549
0.0037085172
0.004892042
0.0056800718
0.0058729322
0.0054034774
0.0043910503
0.0030120225
0.0012069563
0.0016022831
-0.00033234811
-0.0012361678
-0.0017749471
-0.0021998339
-0.0025402956
-0.0027726944
-0.0028275113
-0.0026066198
-0.0020188795
-0.0010218285
0.00036196089
0.0019680008
0.0035386065
0.0047427971
0.0052629011
0.0049193609
0.0037806391
0.002021796
-0.00047070381
0.00025643894
-0.001915496
-0.0029464211
-0.0036184553
-0.0042313698
-0.0048195841
-0.0053469026
-0.0057156497
-0.0057840963
-0.0054012164
-0.004451766
-0.0029359902
-0.00095737166
0.0011944832
0.0030869648
0.0042328881
0.0042645499
0.00313315
0.00097774043
-0.0023897739
-0.0020667873
-0.0044092615
-0.0055609362
-0.0063949855
-0.0072511313
-0.0081682062
-0.0090971467
-0.0099100295
-0.010414806
-0.010388366
-0.0096252317
-0.0080225708
-0.0056199438
-0.0026952111
0.0002222853
0.0024250728
0.0032526724
0.0024184588
-7.0789254e-05
-0.0045451973
-0.0054564609
-0.0078977841
-0.0091591299
-0.010178565
-0.011329874
-0.012660375
-0.014112688
-0.015531195
-0.016670775
-0.017224336
-0.016868785
-0.015347475
-0.012572906
-0.0087443807
-0.0044471873
-0.00063501966
0.0016191856
0.0016038059
-0.001005178
-0.0068399654
-0.0099376815
-0.012407987
-0.01375596
-0.014963061
-0.016437453
-0.018245158
-0.020330617
-0.022518661
-0.024514657
-0.025921339
-0.026271516
-0.025109198
-0.022167192
-0.017446213
-0.011491281
-0.0054674276
-0.00095371938
0.00067224435
-0.0015878501
-0.0089941168
-0.015467767
-0.017908663
-0.019293092
-0.020640774
-0.022407652
-0.024696981
-0.027470445
-0.03054575
-0.033587578
-0.036110805
-0.037492212
-0.037029114
-0.034286607
-0.028878801
-0.021175223
-0.012424489
-0.0047077826
-0.00030403882
-0.0013830743
-0.010393227
-0.021950561
-0.024326657
-0.025644073
-0.026994404
-0.028920069
-0.031590892
-0.035004372
-0.038983744
-0.043162489
-0.046975995
-0.04967693
-0.050397115
-0.048141089
-0.042384338
-0.033085805
-0.021329746
-0.0095283903
-0.00098327735
0.00037566201
-0.0098399763
-0.029283604
-0.031586893
-0.032635411
-0.033705027
-0.035507126
-0.038318631
-0.042188696
-0.046950714
-0.052210211
-0.057330357
-0.061432299
-0.063430971
-0.06208667
-0.056390267
-0.045831435
-0.031083694
-0.014551303
-0.0004496322
0.0050084108
-0.0051814154
-0.03746356
-0.039680014
-0.040077604
-0.040371425
-0.041587575
-0.044152782
-0.048168837
-0.053465315
-0.059604489
-0.065871674
-0.071263394
-0.074505832
-0.074113733
-0.068653007
-0.057094675
-0.039501871
-0.01785086
0.0031330075
0.014743939
0.0071669916
-0.04681075
-0.048759589
-0.047787344
-0.046528134
-0.046519318
-0.048348408
-0.052132936
-0.057654426
-0.064386166
-0.071508443
-0.077881911
-0.082051375
-0.082305102
-0.076836105
-0.064147826
-0.043635304
-0.016499426
0.012720881
0.033131717
0.032558588
-0.058494222
-0.059289847
-0.05557333
-0.051649259
-0.049662306
-0.050261194
-0.053473272
-0.058952828
-0.065999232
-0.073641768
-0.080565842
-0.085120784
-0.085376976
-0.079189634
-0.064660435
-0.040561995
-0.0071678065
0.032199644
0.065038065
0.077775371
-0.07588125
-0.072323992
-0.063283689
-0.055238641
-0.05051847
-0.049513572
-0.051952951
-0.057208074
-0.064359363
-0.07220861
-0.079232309
-0.083561812
-0.083030011
-0.075124282
-0.057511397
-0.02839127
0.012847981
0.065317313
0.1154741
0.15141252
-0.1078348
-0.08935446
-0.071102031
-0.057145445
-0.048973684
-0.046164057
-0.047809151
-0.052827219
-0.059974814
-0.06779577
-0.074542292
-0.078111643
-0.076085919
-0.065645862
-0.043842545
-0.0079126984
0.044225291
0.11281107
0.18820269
0.27167362
-0.17667214
-0.10815678
-0.07615624
-0.054649087
-0.042975592
-0.038908609
-0.04037309
-0.045617245
-0.053039755
-0.060988753
-0.067584745
-0.070582516
-0.067283575
-0.054593718
-0.029136325
0.013458349
0.077961796
0.16984276
0.28927058
0.47400132
-0.37191201
-0.12459426
-0.054944407
-0.031989989
-0.022086373
-0.020258415
-0.024213462
-0.031697873
-0.040904322
-0.050224555
-0.057891272
-0.06180311
-0.059482633
-0.047887022
-0.022619538
0.021399432
0.092659907
0.2099509
0.40267727
0.7762026
)
;

boundaryField
{
    movingWall
    {
        type            zeroGradient;
    }
    fixedWalls
    {
        type            zeroGradient;
    }
    frontAndBack
    {
        type            empty;
    }
}


// ************************************************************************* //
