/*--------------------------------*- C++ -*----------------------------------*\
| =========                 |                                                 |
| \\      /  F ield         | OpenFOAM: The Open Source CFD Toolbox           |
|  \\    /   O peration     | Version:  2112                                  |
|   \\  /    A nd           | Website:  www.openfoam.com                      |
|    \\/     M anipulation  |                                                 |
\*---------------------------------------------------------------------------*/
FoamFile
{
    version     2.0;
    format      ascii;
    arch        "LSB;label=32;scalar=64";
    class       surfaceScalarField;
    location    "9";
    object      phi;
}
// * * * * * * * * * * * * * * * * * * * * * * * * * * * * * * * * * * * * * //

dimensions      [0 3 -1 0 0 0 0];

oriented        oriented;

internalField   nonuniform List<scalar> 
760
(
1.2227522e-05
-1.2220806e-05
-2.887381e-05
4.110141e-05
-0.00012126908
9.2395286e-05
-0.0002475993
0.00012633005
-0.00039117838
0.00014357901
-0.00053830355
0.00014712518
-0.00067711831
0.00013881476
-0.00079602593
0.00011890758
-0.00088296398
8.6938011e-05
-0.00092608293
4.3118933e-05
-0.0009155884
-1.0494527e-05
-0.00084672966
-6.8858729e-05
-0.00072260974
-0.00012411991
-0.00055624835
-0.00016636137
-0.00037034136
-0.00018590698
-0.00019419365
-0.00017614771
-5.748086e-05
-0.0001367128
1.8408766e-05
-7.5889641e-05
2.9749764e-05
-1.1341007e-05
2.9749774e-05
-4.2763285e-05
3.0542496e-05
-0.00020190887
0.00020024692
-0.00046168503
0.00035217145
-0.00078893094
0.0004535759
-0.0011498971
0.00050454512
-0.0015133629
0.00051059107
-0.0018501113
0.00047556305
-0.002131683
0.00040047927
-0.0023303055
0.00028556052
-0.0024208833
0.0001336967
-0.0023856118
-4.5766021e-05
-0.0022168015
-0.00023766908
-0.0019245648
-0.00041635661
-0.0015379038
-0.00055302236
-0.0011041309
-0.00061967997
-0.00068268223
-0.00059759636
-0.00033343236
-0.00048596269
-0.00010148854
-0.00030783349
-2.1327466e-06
-0.0001106968
2.761705e-05
-0.00010829735
0.00013883981
-0.00039648859
0.000488438
-0.00081778702
0.00077346986
-0.0013236456
0.00095943436
-0.0018678402
0.0010487396
-0.0024074522
0.0010502031
-0.0029017311
0.00096984192
-0.0033110564
0.00080980458
-0.0035975667
0.00057207086
-0.0037281078
0.00026423777
-0.0036787053
-9.5168473e-05
-0.0034404811
-0.00047589324
-0.0030258353
-0.00083100237
-0.0024716537
-0.0011072039
-0.0018391
-0.0012522337
-0.0012071767
-0.0012295196
-0.00065893548
-0.001034204
-0.00026194098
-0.000704828
-4.8115824e-05
-0.00032452194
-2.0498746e-05
-0.00017033664
0.00030917647
-0.0005828315
0.00090093276
-0.0011572682
0.0013479066
-0.0018267314
0.0016288976
-0.0025339582
0.0017559664
-0.0032279399
0.0017441848
-0.0038607859
0.0016026879
-0.0043860223
0.001335041
-0.0047591382
0.00094518679
-0.0049405122
0.00044561171
-0.0049003577
-0.00013532302
-0.0046244272
-0.0007518238
-0.0041216968
-0.0013337328
-0.0034293974
-0.0017995034
-0.0026156553
-0.0020659758
-0.0017754302
-0.0020697447
-0.0010166923
-0.0017929419
-0.00043687413
-0.0012846461
-9.6236522e-05
-0.00066515952
-0.00011673526
-0.00022553144
0.00053470792
-0.0007513493
0.0014267505
-0.0014654847
0.002062042
-0.0022832067
0.0024466195
-0.0031377333
0.0026104929
-0.0039726976
0.0025791491
-0.0047364292
0.0023664195
-0.005378804
0.0019774159
-0.005850859
0.0014172418
-0.0061069211
0.00070167381
-0.0061095157
-0.00013272848
-0.0058338655
-0.0010274739
-0.0052785785
-0.0018890199
-0.0044731149
-0.0026049669
-0.0034857852
-0.0030533055
-0.0024251588
-0.0031303712
-0.0014287974
-0.0027893033
-0.00063553087
-0.0020779127
-0.00014765966
-0.0011530307
-0.00026439496
-0.00027227848
0.00080698639
-0.00089574857
0.0020502206
-0.0017312898
0.0028975833
-0.0026788799
0.0033942097
-0.0036644015
0.0035960145
-0.0046286935
0.0035434412
-0.0055192001
0.0032569261
-0.0062848759
0.0027430917
-0.0068741646
0.0020065305
-0.0072354283
0.0010629375
-0.0073217629
-4.6393878e-05
-0.0070925812
-0.0012566556
-0.0065291628
-0.0024524383
-0.0056436337
-0.003490496
-0.0044952301
-0.0042017091
-0.0032008103
-0.0044247911
-0.0019307643
-0.0040593493
-0.00087917343
-0.0031295036
-0.00020970194
-0.0018225023
-0.00047409697
-0.00030888491
0.0011158713
-0.0010100404
0.002751376
-0.0019433841
0.0038309271
-0.0029971659
0.0044479914
-0.0040925062
0.0046913548
-0.0051699871
0.004620922
-0.0061789383
0.0042658773
-0.0070701759
0.0036343293
-0.0077919025
0.0027282571
-0.0082883539
0.0015593889
-0.0084994294
0.00016468165
-0.0083708407
-0.0013852443
-0.0078569572
-0.0029663218
-0.0069427243
-0.0044047289
-0.0056651887
-0.0054792447
-0.0041374946
-0.0059524851
-0.0025595502
-0.0056372937
-0.0011936361
-0.0044954177
-0.00029186623
-0.0027242723
-0.00076596326
-0.00033342808
0.0014492994
-0.0010881554
0.0035061033
-0.0020899262
0.0048326978
-0.0032190156
0.0055770808
-0.0043943207
0.0058666599
-0.0055585631
0.0057851645
-0.0066656878
0.005373002
-0.007671506
0.0046401475
-0.0085273177
0.0035840688
-0.0091759528
0.002208024
-0.0095495371
0.00053826592
-0.0095754312
-0.0013593501
-0.0091808076
-0.0033609454
-0.0083134167
-0.0052721198
-0.0069714525
-0.0068212089
-0.0052432768
-0.0076806608
-0.0033425047
-0.0075380658
-0.0016048376
-0.0062330848
-0.00040487787
-0.0039242321
-0.0011708411
-0.00034437323
0.0017936726
-0.0011252819
0.004287012
-0.0021606072
0.005868023
-0.0033258378
0.0067423116
-0.0045397983
0.0070806203
-0.0057494921
0.0069948583
-0.0069161682
0.0065396782
-0.0080041753
0.0057281546
-0.0089724648
0.0045523584
-0.0097680929
0.0030036521
-0.010321556
0.0010917295
-0.010546762
-0.0011341443
-0.010345788
-0.0035619199
-0.0096238701
-0.0059940376
-0.0083234893
-0.0081215897
-0.0064788996
-0.0095252504
-0.004284055
-0.0097329104
-0.002134472
-0.0083826678
-0.00056085239
-0.0054978519
-0.0017316934
-0.00034173759
0.0021354102
-0.0011205956
0.00506587
-0.0021508202
0.0068982475
-0.0033051052
0.0078965966
-0.0045038936
0.0082794087
-0.0057004322
0.0081913968
-0.00686591
0.0077051559
-0.0079769802
0.0068392248
-0.0090056433
0.0055810215
-0.0099107331
0.0039087419
-0.010630198
0.0018111942
-0.011073855
-0.00069048765
-0.011130552
-0.0035052221
-0.010664143
-0.0064604467
-0.0095503041
-0.0092354288
-0.0077373973
-0.011338157
-0.0053484096
-0.012121898
-0.0027933695
-0.010937708
-0.00077383861
-0.0075173829
-0.0025055319
-0.00032869048
0.0024641007
-0.0010810036
0.0058181832
-0.0020672601
0.0078845039
-0.0031577371
0.0089870736
-0.0042761803
0.0093978518
-0.005384358
0.0092995744
-0.0064661372
0.0087869351
-0.0075141262
0.0078872138
-0.0085186805
0.0065855758
-0.0094582205
0.004848282
-0.010290819
0.0026437928
-0.010931186
-5.0120763e-05
-0.011279357
-0.0031570507
-0.011165931
-0.0065738726
-0.010403413
-0.0099979468
-0.0088309356
-0.012910635
-0.0064397479
-0.014513086
-0.0035698566
-0.013807599
-0.0010596915
-0.010027548
-0.0035652232
-0.00031373561
0.0027778363
-0.0010257207
0.0065301683
-0.0019340851
0.0087928682
-0.0029055946
0.0099585832
-0.0038702642
0.010362521
-0.0048020972
0.010231407
-0.005700951
0.0096857888
-0.0065785665
0.0087648293
-0.0074477258
0.0074547351
-0.0083125189
0.0057130751
-0.0091567267
0.0034880006
-0.009940592
0.0007337444
-0.010554942
-0.0025427012
-0.010847988
-0.0062808258
-0.010585723
-0.010260212
-0.0094958818
-0.014000476
-0.0073865459
-0.016622422
-0.0044120051
-0.01678214
-0.0014334178
-0.013006135
-0.0049986409
-0.00031412891
0.0030919651
-0.00099183147
0.0072078709
-0.0017985528
0.0095995894
-0.0025965738
0.010756604
-0.0033289993
0.011094947
-0.0039890216
0.01089143
-0.0045972929
0.01029406
-0.0051875801
0.0093551165
-0.0057971162
0.0080642712
-0.0064586148
0.0063745737
-0.0071911649
0.0042205508
-0.0079899151
0.0015324946
-0.0087938979
-0.0017387184
-0.0094775347
-0.0055971891
-0.0098046009
-0.0099331464
-0.0094230125
-0.014382065
-0.0079401466
-0.018105288
-0.0052064939
-0.019515793
-0.0019005314
-0.016312098
-0.0068991724
-0.00036199506
0.0034539601
-0.0010411524
0.0078870284
-0.0017340519
0.010292489
-0.0023029175
0.01132547
-0.0027189617
0.011510991
-0.0030068182
0.011179286
-0.0032148477
0.010502089
-0.0034013404
0.0095416092
-0.0036274969
0.0082904278
-0.0039530682
0.0067001451
-0.0044307522
0.0046982347
-0.0050972554
0.0021989978
-0.0059502255
-0.00088574833
-0.0069233216
-0.0046240931
-0.0078303631
-0.0090261051
-0.0083053709
-0.013907057
-0.0077920889
-0.018618569
-0.0057599506
-0.021547931
-0.0024372818
-0.019634767
-0.0093364543
-0.00051552711
0.0039694872
-0.0012668828
0.0086383841
-0.0018333679
0.010858974
-0.0021014023
0.011593504
-0.0021000457
0.011509634
-0.0019044739
0.010983714
-0.0015996206
0.010197236
-0.0012705698
0.0092125583
-0.00099961407
0.008019472
-0.00086810254
0.0065686336
-0.00095516008
0.0047852923
-0.0013345222
0.00257836
-0.0020637673
-0.00015650334
-0.0031547401
-0.0035331204
-0.0045224927
-0.0076583527
-0.0058765907
-0.012552959
-0.0065992536
-0.017895907
-0.0057848744
-0.022362311
-0.0029550196
-0.022464621
-0.012291474
-0.00087606787
0.0048455551
-0.0017854534
0.0095477697
-0.0021617643
0.011235285
-0.0019951604
0.0114269
-0.0014251089
0.010939583
-0.00060284693
0.010161452
0.00034167437
0.0092527146
0.0012998198
0.0082544128
0.0021719043
0.0071473874
0.0028629769
0.005877561
0.003276237
0.0043720322
0.0033106119
0.0025439851
0.0028601518
0.00029395673
0.001839683
-0.0025126516
0.00020921364
-0.0060278834
-0.0019037137
-0.010440032
-0.0039879699
-0.01581165
-0.0048813458
-0.021468935
-0.0032610327
-0.024084934
-0.015552507
-0.001596908
0.0064424631
-0.0026298537
0.010580715
-0.0025488956
0.011154327
-0.0016431368
0.010521142
-0.00024124463
0.0095376908
0.0014108594
0.008509348
0.0031422536
0.0075213202
0.0048281569
0.0065685093
0.0063676679
0.0056078763
0.0076655513
0.0045796775
0.0086217446
0.0034158388
0.0091237852
0.0020419445
0.009034722
0.00038301987
0.0082155491
-0.0016934787
0.0065148888
-0.0043272232
0.0038630071
-0.0077881501
0.00052870018
-0.012477344
-0.0024875473
-0.018452687
-0.0030346508
-0.023537831
-0.018587158
-0.0027205854
0.0091630485
-0.0031596765
0.011019807
-0.0018251342
0.0098197841
0.00043011472
0.0082658926
0.0030384616
0.0069293437
0.0057104187
0.0058373908
0.0082902146
0.0049415242
0.010682283
0.0041764411
0.012814028
0.0034761307
0.014613685
0.0027800208
0.015997057
0.0020324672
0.016859885
0.0011791164
0.017065576
0.00017732925
0.016446047
-0.0010739496
0.014780765
-0.0026619422
0.011818114
-0.0048254984
0.0074134603
-0.0080726903
0.0022484311
-0.013287658
-0.0012791263
-0.020010273
-0.019866284
-0.0024113994
0.011574448
2.8609624e-05
0.0085797979
0.0042500513
0.0055983424
0.0084015697
0.0041143741
0.012205693
0.0031252204
0.015619495
0.0024235888
0.018640674
0.0019203453
0.021277191
0.0015399246
0.023528934
0.0012243871
0.025375758
0.00093319753
0.026771094
0.00063713126
0.027635184
0.00031502575
0.027865188
-5.267456e-05
0.027320861
-0.00052962305
0.025752755
-0.0010938361
0.02282985
-0.0019025942
0.018045466
-0.0032883057
0.01110743
-0.0063496224
0.0033860748
-0.012288918
-0.016480209
0.011574448
0.020154246
0.025752588
0.029866962
0.032992182
0.035415771
0.037336116
0.038876041
0.040100428
0.041033626
0.041670757
0.041985783
0.041933108
0.041403485
0.040309649
0.038407055
0.035118749
0.028769127
0.016480209
)
;

boundaryField
{
    movingWall
    {
        type            calculated;
        value           uniform 0;
    }
    fixedWalls
    {
        type            calculated;
        value           uniform 0;
    }
    frontAndBack
    {
        type            empty;
        value           nonuniform List<scalar> 0();
    }
}


// ************************************************************************* //
