/*--------------------------------*- C++ -*----------------------------------*\
| =========                 |                                                 |
| \\      /  F ield         | OpenFOAM: The Open Source CFD Toolbox           |
|  \\    /   O peration     | Version:  2112                                  |
|   \\  /    A nd           | Website:  www.openfoam.com                      |
|    \\/     M anipulation  |                                                 |
\*---------------------------------------------------------------------------*/
FoamFile
{
    version     2.0;
    format      ascii;
    arch        "LSB;label=32;scalar=64";
    class       surfaceScalarField;
    location    "9";
    object      phi_0;
}
// * * * * * * * * * * * * * * * * * * * * * * * * * * * * * * * * * * * * * //

dimensions      [0 3 -1 0 0 0 0];

oriented        oriented;

internalField   nonuniform List<scalar> 
760
(
1.2227189e-05
-1.2216028e-05
-2.8873482e-05
4.1100353e-05
-0.00012126275
9.2389359e-05
-0.00024758327
0.00012632075
-0.00039115119
0.00014356786
-0.00053826459
0.0001471135
-0.00067706823
0.00013880372
-0.00079596665
0.00011889842
-0.00088289871
8.6932035e-05
-0.00092601598
4.3117292e-05
-0.00091552485
-1.0491106e-05
-0.00084667456
-6.8850302e-05
-0.00072256719
-0.0001241074
-0.00055622057
-0.00016634664
-0.00037032806
-0.00018589252
-0.00019419195
-0.00017613614
-5.7485898e-05
-0.00013670609
1.8402343e-05
-7.5888331e-05
2.9746237e-05
-1.1344029e-05
2.9746112e-05
-4.27603e-05
3.0544004e-05
-0.0002018937
0.00020023379
-0.00046164861
0.00035214415
-0.00078886666
0.00045353905
-0.0011498022
0.00050450345
-0.0015132378
0.00051054904
-0.0018499589
0.0004755249
-0.0021315097
0.0004004492
-0.0023301201
0.00028554251
-0.0024206967
0.00013369388
-0.0023854357
-4.5752079e-05
-0.0022166469
-0.00023763911
-0.0019244403
-0.00041631396
-0.0015378141
-0.00055297284
-0.0011040756
-0.00061963104
-0.00068265617
-0.00059755564
-0.00033342636
-0.00048593606
-0.00010149171
-0.00030782315
-2.1359267e-06
-0.00011069992
2.7610172e-05
-0.00010828784
0.00013883185
-0.00039645268
0.00048839912
-0.00081771317
0.00077340465
-0.0013235265
0.00095935242
-0.0018676737
0.0010486506
-0.0024072405
0.0010501159
-0.0029014805
0.00096976505
-0.0033107774
0.00080974605
-0.0035972727
0.00057203785
-0.0037278144
0.00026423545
-0.0036784286
-9.5137917e-05
-0.0034402357
-0.00047583206
-0.0030256326
-0.00083091708
-0.0024715002
-0.0011071052
-0.0018389963
-0.001252135
-0.0012071173
-0.0012294348
-0.00065890946
-0.001034144
-0.00026193476
-0.00070479795
-4.8116681e-05
-0.00032451801
-2.0506451e-05
-0.00017031981
0.00030915165
-0.0005827747
0.00090085411
-0.0011571577
0.0013477876
-0.0018265603
0.0016287551
-0.002533726
0.0017558162
-0.0032276513
0.0017440413
-0.0038604505
0.0016025643
-0.0043856537
0.0013349493
-0.0047587533
0.00094513743
-0.0049401293
0.0004456115
-0.0048999955
-0.00013527179
-0.0046241022
-0.00075172534
-0.0041214224
-0.0013335969
-0.0034291822
-0.0017993455
-0.0026155017
-0.0020658155
-0.001775334
-0.0020696026
-0.0010166427
-0.0017928354
-0.00043685604
-0.0012845846
-9.6233862e-05
-0.00066514012
-0.00011674026
-0.00022550839
0.00053466008
-0.00075127505
0.0014266208
-0.0014653442
0.0020618568
-0.0022829941
0.002446405
-0.00313745
0.0026102721
-0.0039723508
0.0025789422
-0.0047360309
0.0023662444
-0.0053783701
0.0019772885
-0.0058504078
0.001417175
-0.0061064721
0.00070167572
-0.0061090883
-0.00013265565
-0.005833477
-0.0010273367
-0.0052782434
-0.0018888305
-0.004472844
-0.002604745
-0.0034855838
-0.0030530757
-0.0024250253
-0.003130161
-0.001428723
-0.0027891376
-0.00063549998
-0.0020778075
-0.00014765322
-0.0011529868
-0.00026439349
-0.00027225141
0.00080691139
-0.0008956632
0.0020500327
-0.0017311308
0.0028973243
-0.0026786426
0.0033939168
-0.0036640889
0.0035957185
-0.0046283148
0.0035431681
-0.0055187687
0.0032566983
-0.0062844083
0.0027429282
-0.0068736792
0.0020064459
-0.0072349435
0.0010629399
-0.0073212983
-4.6300885e-05
-0.0070921522
-0.0012564828
-0.0065287847
-0.002452198
-0.0056433189
-0.0034902107
-0.0044949873
-0.0042014074
-0.0032006421
-0.0044245062
-0.0019306653
-0.0040591143
-0.00087912943
-0.0031293434
-0.00020969159
-0.0018224246
-0.00047408524
-0.0003088567
0.001115768
-0.0010099523
0.0027511283
-0.0019432214
0.0038305934
-0.0029969249
0.0044476203
-0.0040921913
0.0046909851
-0.0051696084
0.0046205851
-0.0061785096
0.0042655995
-0.0070697132
0.0036341319
-0.0077914227
0.0027281554
-0.0082878738
0.001559391
-0.0084989628
0.00016478799
-0.0083704039
-0.0013850418
-0.0078565634
-0.0029660385
-0.0069423865
-0.0044043877
-0.0056649182
-0.0054788757
-0.0041372989
-0.0059521255
-0.0025594293
-0.0056369838
-0.0011935793
-0.0044951933
-0.00029185181
-0.0027241521
-0.00076593725
-0.00033340205
0.0014491701
-0.0010880742
0.0035058006
-0.0020897764
0.0048322956
-0.0032187946
0.0055766385
-0.0043940332
0.0058662239
-0.0055582196
0.0057847715
-0.0066653015
0.0053726814
-0.0076710911
0.0046399215
-0.0085268884
0.0035839526
-0.0091755221
0.0022080246
-0.0095491161
0.00053838189
-0.0095750303
-0.0013591276
-0.0091804371
-0.0033606317
-0.0083130878
-0.005271737
-0.0069711775
-0.006820786
-0.0052430675
-0.0076802356
-0.0033423681
-0.0075376833
-0.0016047695
-0.0062327919
-0.00040485936
-0.0039240625
-0.0011707968
-0.00034435275
0.0017935229
-0.0011252174
0.0042866653
-0.0021604871
0.0058675654
-0.0033256604
0.0067418118
-0.0045395682
0.0070801318
-0.0057492191
0.0069944223
-0.0069158641
0.0065393263
-0.008003852
0.0057279095
-0.0089721332
0.0045522338
-0.0097677616
0.0030036528
-0.010321231
0.0010918517
-0.010546448
-0.0011339114
-0.010345488
-0.0035615911
-0.0096235924
-0.0059936331
-0.0083232434
-0.008121135
-0.0064786996
-0.0095247794
-0.0042839145
-0.0097324683
-0.0021343967
-0.0083823098
-0.00056083016
-0.0054976292
-0.0017316271
-0.00034172564
0.0021352486
-0.0011205562
0.0050654959
-0.0021507448
0.006897754
-0.0033049925
0.0078960594
-0.0045037475
0.008278887
-0.005700261
0.0081909357
-0.0068657234
0.0077047886
-0.0079767874
0.0068389735
-0.0090054515
0.0055808979
-0.0099105464
0.0039087476
-0.010630017
0.0018113219
-0.011073675
-0.00069025357
-0.011130373
-0.0035048931
-0.010663963
-0.0064600426
-0.0095501279
-0.00923497
-0.0077372371
-0.01133767
-0.0053482838
-0.012121421
-0.0027932943
-0.010937299
-0.00077381386
-0.0075171098
-0.002505441
-0.0003286892
0.0024639378
-0.0010809959
0.0058178025
-0.0020672408
0.0078839989
-0.0031577051
0.0089865236
-0.0042761381
0.0093973201
-0.0053843115
0.009299109
-0.0064660933
0.0087865702
-0.0075140907
0.0078869708
-0.0085186567
0.0065854638
-0.0094582083
0.0048482991
-0.010290816
0.0026439298
-0.010931173
-4.9897155e-05
-0.011279335
-0.003156731
-0.011165888
-0.0065734892
-0.010403346
-0.0099975128
-0.008830849
-0.012910167
-0.0064396604
-0.01451261
-0.003569793
-0.013807167
-0.0010596667
-0.010027236
-0.0035651078
-0.00031374603
0.0027776838
-0.0010257479
0.0065298041
-0.0019341281
0.0087923791
-0.0029056521
0.0099580474
-0.0038703364
0.010362004
-0.0048021864
0.010230959
-0.00570106
0.0096854437
-0.0065786967
0.0087646076
-0.0074478762
0.0074546433
-0.0083126847
0.0057131076
-0.0091568965
0.0034881416
-0.0099407658
0.00073397209
-0.010555091
-0.0025424054
-0.010848102
-0.006280479
-0.010585788
-0.010259827
-0.0094958955
-0.014000059
-0.0073865203
-0.016621985
-0.0044119673
-0.01678172
-0.001433397
-0.013005806
-0.0049985047
-0.00031415086
0.0030918346
-0.00099189354
0.0072075465
-0.0017986582
0.0095991437
-0.002596721
0.01075611
-0.0033291855
0.011094469
-0.0039892443
0.010891018
-0.0045975493
0.010293749
-0.0051878663
0.0093549246
-0.0057974263
0.0080642034
-0.0064589406
0.0063746218
-0.0071914958
0.0042206969
-0.0079902389
0.0015327152
-0.0087941969
-0.0017384475
-0.0094777905
-0.0055968855
-0.009804796
-0.0099328213
-0.0094231349
-0.01438172
-0.0079401979
-0.018104922
-0.0052064955
-0.019515423
-0.00190052
-0.016311781
-0.0068990247
-0.00036202714
0.0034538616
-0.0010412454
0.0078867643
-0.0017342132
0.010292111
-0.0023031455
0.011325042
-0.0027192501
0.011510573
-0.0030071586
0.011178926
-0.0032152305
0.010501821
-0.0034017552
0.0095414494
-0.0036279328
0.008290381
-0.0039535136
0.0067002027
-0.0044311953
0.0046983786
-0.005097684
0.0021992039
-0.0059506255
-0.00088550598
-0.0069236774
-0.0046238336
-0.0078306567
-0.0090258421
-0.0083055852
-0.013906791
-0.0077922154
-0.018618292
-0.0057599984
-0.02154764
-0.002437285
-0.019634495
-0.0093363098
-0.00051556633
0.0039694279
-0.0012669979
0.0086381956
-0.0018335708
0.010858684
-0.0021016913
0.011593163
-0.0021004115
0.011509293
-0.0019049022
0.010983417
-0.0016000945
0.010197013
-0.0012710727
0.0092124276
-0.0010001292
0.0080194374
-0.00086861518
0.0065686887
-0.00095565827
0.0047854216
-0.0013349961
0.0025785418
-0.0020642073
-0.00015629481
-0.0031551363
-0.0035329047
-0.0045228322
-0.0076581462
-0.0058768573
-0.012552766
-0.0065994332
-0.017895716
-0.0057849634
-0.02236211
-0.0029550402
-0.022464418
-0.01229135
-0.00087610845
0.0048455363
-0.001785575
0.0095476619
-0.0021619828
0.011235092
-0.0019954758
0.011426656
-0.0014255103
0.010939328
-0.00060331617
0.010161223
0.00034115758
0.009252539
0.0012992788
0.0082543063
0.0021713594
0.0071473568
0.0028624454
0.0058776026
0.0032757324
0.0043721344
0.0033101437
0.0025441303
0.0028597256
0.00029412309
0.0018393027
-0.002512482
0.00020888491
-0.0060277286
-0.001903983
-0.010439898
-0.0039881675
-0.015811532
-0.0048814571
-0.02146882
-0.0032610672
-0.024084808
-0.015552417
-0.0015969394
0.0064424756
-0.0026299564
0.010580679
-0.0025490887
0.011154224
-0.0016434244
0.010520992
-0.00024161807
0.0095375217
0.0014104163
0.0085091883
0.0031417632
0.0075211919
0.0048276423
0.0065684271
0.0063671516
0.0056078473
0.0076650529
0.004579701
0.0086212795
0.0034159077
0.0091233634
0.0020420463
0.0090343494
0.00038313706
0.0082152256
-0.0016933582
0.006514614
-0.0043271169
0.0038627831
-0.0077880671
0.00052853605
-0.012477284
-0.0024876531
-0.018452631
-0.0030346907
-0.023537771
-0.018587108
-0.0027205974
0.009163073
-0.0031597294
0.011019811
-0.0018252535
0.0098197483
0.00042991745
0.0082658205
0.0030381867
0.0069292522
0.0057100765
0.0058372983
0.008289822
0.0049414463
0.010681861
0.0041763886
0.012813599
0.0034761092
0.014613268
0.0027800311
0.015996671
0.0020325056
0.016859541
0.0011791757
0.017065282
0.00017739644
0.016445804
-0.0010738798
0.01478057
-0.0026618832
0.011817959
-0.0048254562
0.0074133407
-0.0080726666
0.0022483524
-0.013287643
-0.0012791626
-0.020010256
-0.01986627
-0.0024113891
0.011574462
2.8612573e-05
0.008579809
0.004250024
0.0055983369
0.0084014916
0.0041143529
0.012205554
0.0031251893
0.015619297
0.0024235555
0.018640427
0.0019203165
0.02127691
0.0015399051
0.02352864
0.0012243796
0.025375469
0.00093320216
0.026770828
0.00063714612
0.027634957
0.00031504703
0.027864998
-5.2644739e-05
0.027320718
-0.00052959985
0.025752652
-0.0010938174
0.022829779
-0.0019025826
0.018045415
-0.003288303
0.011107397
-0.0063496244
0.0033860606
-0.01228892
-0.01648021
0.011574462
0.020154271
0.025752607
0.02986696
0.03299215
0.035415705
0.037336022
0.038875927
0.040100307
0.041033509
0.041670655
0.041985702
0.041933057
0.041403457
0.04030964
0.038407057
0.035118754
0.02876913
0.01648021
)
;

boundaryField
{
    movingWall
    {
        type            calculated;
        value           uniform 0;
    }
    fixedWalls
    {
        type            calculated;
        value           uniform 0;
    }
    frontAndBack
    {
        type            empty;
        value           nonuniform List<scalar> 0();
    }
}


// ************************************************************************* //
