/*--------------------------------*- C++ -*----------------------------------*\
| =========                 |                                                 |
| \\      /  F ield         | OpenFOAM: The Open Source CFD Toolbox           |
|  \\    /   O peration     | Version:  2112                                  |
|   \\  /    A nd           | Website:  www.openfoam.com                      |
|    \\/     M anipulation  |                                                 |
\*---------------------------------------------------------------------------*/
FoamFile
{
    version     2.0;
    format      ascii;
    arch        "LSB;label=32;scalar=64";
    class       volVectorField;
    location    "9";
    object      U;
}
// * * * * * * * * * * * * * * * * * * * * * * * * * * * * * * * * * * * * * //

dimensions      [0 1 -1 0 0 0 0];

internalField   nonuniform List<vector> 
400
(
(0.00027781359 -0.00027458471 0)
(0.00010051382 8.2180301e-05 0)
(-0.0013217832 0.00047399072 0)
(-0.0035855951 0.00072735069 0)
(-0.0063474261 0.0008562767 0)
(-0.0093112647 0.00089475417 0)
(-0.012224168 0.00086227944 0)
(-0.014853802 0.00076025292 0)
(-0.016962654 0.0005801809 0)
(-0.018305938 0.00031644056 0)
(-0.018658612 -2.2496024e-05 0)
(-0.017864399 -0.00040959174 0)
(-0.015897969 -0.00078563905 0)
(-0.01291906 -0.0010759766 0)
(-0.0092923722 -0.0012045339 0)
(-0.0055535674 -0.0011169282 0)
(-0.0023115446 -0.00080717719 0)
(-0.00010824994 -0.0003396209 0)
(0.0007397921 0.00014475755 0)
(0.00040225529 0.00038236886 0)
(-8.7436019e-05 -0.00011296207 0)
(-0.0018485448 0.0017700651 0)
(-0.0062208082 0.0035783796 0)
(-0.012272488 0.0047932646 0)
(-0.019309296 0.0054176648 0)
(-0.026699612 0.0055369899 0)
(-0.033842165 0.0052078372 0)
(-0.040160529 0.0044402587 0)
(-0.045086644 0.0032248701 0)
(-0.048078638 0.0015786274 0)
(-0.048686674 -0.00041171841 0)
(-0.046634562 -0.0025603133 0)
(-0.041930974 -0.0045791901 0)
(-0.034964162 -0.0061186338 0)
(-0.026513439 -0.006838946 0)
(-0.017683626 -0.0065123687 0)
(-0.0097254294 -0.00513154 0)
(-0.0037501751 -0.0029868472 0)
(-0.00040824117 -0.00068167158 0)
(0.00028043425 0.00076322666 0)
(-0.00057960683 0.0014236163 0)
(-0.0041753355 0.0062901835 0)
(-0.011566881 0.010481623 0)
(-0.021117216 0.013276738 0)
(-0.031838622 0.014668773 0)
(-0.042884658 0.0147887 0)
(-0.053424769 0.013730746 0)
(-0.062652348 0.011524067 0)
(-0.069783192 0.0081867698 0)
(-0.074088433 0.0038153344 0)
(-0.074972527 -0.0013308348 0)
(-0.072081962 -0.0067770838 0)
(-0.0654314 -0.011847461 0)
(-0.0555087 -0.015740077 0)
(-0.04330837 -0.017684476 0)
(-0.030275407 -0.017162223 0)
(-0.018103899 -0.014142879 0)
(-0.0083705837 -0.0092478191 0)
(-0.0021515385 -0.0037667978 0)
(-7.9014514e-06 0.00028799308 0)
(-0.001033995 0.0042411401 0)
(-0.006399037 0.013355184 0)
(-0.01670133 0.020532242 0)
(-0.029513575 0.025154866 0)
(-0.043552317 0.027326568 0)
(-0.05781372 0.027266881 0)
(-0.071322068 0.025120089 0)
(-0.083130706 0.020941746 0)
(-0.092319661 0.014791777 0)
(-0.098028569 0.0068712255 0)
(-0.099538188 -0.0023543398 0)
(-0.096380881 -0.012088708 0)
(-0.088477374 -0.021203532 0)
(-0.07627399 -0.028359406 0)
(-0.060825206 -0.032238052 0)
(-0.043798947 -0.031892381 0)
(-0.027304414 -0.027150425 0)
(-0.013471317 -0.018922215 0)
(-0.0040025596 -0.0092351715 0)
(-0.00026956319 -0.0011345598 0)
(-0.0014277535 0.0082306927 0)
(-0.0083925255 0.022799491 0)
(-0.021360554 0.033493555 0)
(-0.037140845 0.040106992 0)
(-0.054174622 0.04301894 0)
(-0.071344069 0.042612945 0)
(-0.087592637 0.039109987 0)
(-0.10190342 0.032596733 0)
(-0.11327867 0.023169514 0)
(-0.12075631 0.011119924 0)
(-0.12348094 -0.0029006732 0)
(-0.12080019 -0.017784393 0)
(-0.11241562 -0.031942336 0)
(-0.098573503 -0.043434702 0)
(-0.080227163 -0.050252356 0)
(-0.059162403 -0.050799758 0)
(-0.037917957 -0.044521895 0)
(-0.01934219 -0.032458472 0)
(-0.0060423829 -0.01738292 0)
(-0.0005086961 -0.0035317803 0)
(-0.00175487 0.013246325 0)
(-0.010086978 0.03437252 0)
(-0.025364613 0.049086356 0)
(-0.043733314 0.057855436 0)
(-0.063403483 0.061501573 0)
(-0.083187295 0.06066206 0)
(-0.10200371 0.055670318 0)
(-0.11882536 0.046644693 0)
(-0.13262643 0.033691841 0)
(-0.14236661 0.017143019 0)
(-0.14703652 -0.0022315081 0)
(-0.14573149 -0.023059091 0)
(-0.13781167 -0.043344783 0)
(-0.12314961 -0.060502656 0)
(-0.10239891 -0.071661707 0)
(-0.077298771 -0.07426466 0)
(-0.05077627 -0.066975294 0)
(-0.026562248 -0.050644102 0)
(-0.0085350221 -0.02874911 0)
(-0.00078039905 -0.007031237 0)
(-0.0020061926 0.019102582 0)
(-0.011416111 0.047717232 0)
(-0.02854253 0.066895739 0)
(-0.049009648 0.077991702 0)
(-0.070855476 0.082420847 0)
(-0.092867306 0.08116577 0)
(-0.11399294 0.074712711 0)
(-0.13325275 0.063209759 0)
(-0.14964829 0.046734047 0)
(-0.16209965 0.025581487 0)
(-0.16943422 0.00053448073 0)
(-0.17047855 -0.026907306 0)
(-0.16417506 -0.054418234 0)
(-0.14983513 -0.078778138 0)
(-0.12757257 -0.096105347 0)
(-0.098807422 -0.102506 0)
(-0.066661942 -0.095283016 0)
(-0.035806265 -0.074517254 0)
(-0.011824222 -0.044181689 0)
(-0.0011591958 -0.011935143 0)
(-0.0021684619 0.025576497 0)
(-0.012310472 0.062390193 0)
(-0.030722678 0.086390866 0)
(-0.052666994 0.099974158 0)
(-0.076069343 0.10527754 0)
(-0.099734021 0.10371748 0)
(-0.12268805 0.095978116 0)
(-0.14405884 0.082238531 0)
(-0.16294013 0.062502944 0)
(-0.17828047 0.036943382 0)
(-0.18882176 0.006218123 0)
(-0.19313503 -0.0282335 0)
(-0.18970939 -0.063897705 0)
(-0.17719498 -0.097034743 0)
(-0.15490509 -0.12269766 0)
(-0.12354598 -0.13530023 0)
(-0.086007468 -0.13004453 0)
(-0.047696977 -0.105279 0)
(-0.016296093 -0.064862837 0)
(-0.0017363041 -0.018751288 0)
(-0.0022307014 0.032408069 0)
(-0.012716961 0.077870838 0)
(-0.031766341 0.10692649 0)
(-0.05443008 0.12310537 0)
(-0.078573834 0.12937018 0)
(-0.10305379 0.12765749 0)
(-0.1270226 0.11890294 0)
(-0.14977635 0.1033299 0)
(-0.17058136 0.08083681 0)
(-0.188518 0.051385564 0)
(-0.20236545 0.015367292 0)
(-0.21055143 -0.026018664 0)
(-0.21119492 -0.070323674 0)
(-0.20227393 -0.11354558 0)
(-0.18209345 -0.14979853 0)
(-0.150188 -0.17160414 0)
(-0.10853036 -0.17128057 0)
(-0.062631636 -0.14403373 0)
(-0.022367987 -0.092253563 0)
(-0.002634694 -0.028219265 0)
(-0.0021955452 0.039317634 0)
(-0.012637299 0.093590297 0)
(-0.031636553 0.12775817 0)
(-0.054147974 0.14652012 0)
(-0.078014982 0.15375131 0)
(-0.1021753 0.15199677 0)
(-0.12595079 0.14251026 0)
(-0.14886839 0.12559412 0)
(-0.17045713 0.10103614 0)
(-0.19005829 0.068534566 0)
(-0.20665411 0.028097967 0)
(-0.21872007 -0.019515065 0)
(-0.22423381 -0.072224819 0)
(-0.22065019 -0.12616658 0)
(-0.20519892 -0.17489953 0)
(-0.17584943 -0.20918641 0)
(-0.1328071 -0.21788501 0)
(-0.080521752 -0.19131786 0)
(-0.030471716 -0.12792963 0)
(-0.0040386791 -0.041346002 0)
(-0.0020949449 0.046051011 0)
(-0.01218104 0.10899905 0)
(-0.030491672 0.14809309 0)
(-0.051922497 0.16920868 0)
(-0.074322643 0.17722614 0)
(-0.096748329 0.17539577 0)
(-0.11873915 0.16536965 0)
(-0.1401141 0.1475874 0)
(-0.16075112 0.12175903 0)
(-0.18038143 0.087319763 0)
(-0.19838201 0.043849093 0)
(-0.21352016 -0.0084950498 0)
(-0.22396799 -0.068461784 0)
(-0.22697644 -0.13265581 0)
(-0.21889297 -0.19477354 0)
(-0.19597912 -0.2444493 0)
(-0.1558844 -0.26706197 0)
(-0.10041074 -0.24640278 0)
(-0.040982429 -0.17323762 0)
(-0.006233211 -0.059449166 0)
(-0.0020136685 0.052462105 0)
(-0.011634826 0.12368161 0)
(-0.02879399 0.16717916 0)
(-0.048243344 0.19007616 0)
(-0.067875088 0.19839801 0)
(-0.086936855 0.19621085 0)
(-0.10525668 0.18564879 0)
(-0.12300805 0.1673589 0)
(-0.14048294 0.14103505 0)
(-0.15788631 0.10589495 0)
(-0.17514877 0.061090214 0)
(-0.19173368 0.006098633 0)
(-0.20621465 -0.058779446 0)
(-0.21600899 -0.13124942 0)
(-0.21724272 -0.20599657 0)
(-0.20472595 -0.27265439 0)
(-0.17314169 -0.31399646 0)
(-0.12003063 -0.30646774 0)
(-0.054020533 -0.22867377 0)
(-0.0096352592 -0.084181244 0)
(-0.0021320113 0.058649791 0)
(-0.011561084 0.13751942 0)
(-0.027425922 0.18441765 0)
(-0.044094758 0.20801803 0)
(-0.059597667 0.21574266 0)
(-0.073531441 0.21259558 0)
(-0.086132638 0.20125547 0)
(-0.098002306 0.18263072 0)
(-0.10989177 0.15646536 0)
(-0.12253034 0.12183959 0)
(-0.13647646 0.077547798 0)
(-0.15192648 0.022444042 0)
(-0.16828972 -0.044065378 0)
(-0.1837827 -0.12131935 0)
(-0.19490216 -0.20581532 0)
(-0.19582969 -0.28869993 0)
(-0.17860946 -0.35208389 0)
(-0.13547878 -0.36594729 0)
(-0.069035131 -0.29293108 0)
(-0.014760762 -0.11745002 0)
(-0.0028127921 0.065187549 0)
(-0.012954516 0.15089123 0)
(-0.027798862 0.19945181 0)
(-0.040969575 0.22195716 0)
(-0.050887262 0.22765732 0)
(-0.057807709 0.2226006 0)
(-0.06257033 0.21000518 0)
(-0.06629158 0.19103536 0)
(-0.070195496 0.16551588 0)
(-0.075507883 0.13247714 0)
(-0.083376608 0.090501679 0)
(-0.094740344 0.037988542 0)
(-0.11001226 -0.026533364 0)
(-0.12862467 -0.1039492 0)
(-0.148269 -0.19315229 0)
(-0.16375296 -0.28837389 0)
(-0.16572055 -0.37391615 0)
(-0.14120325 -0.41649277 0)
(-0.084111696 -0.36170464 0)
(-0.021994058 -0.16102292 0)
(-0.0047726852 0.073538012 0)
(-0.017483177 0.16487772 0)
(-0.03186933 0.21212861 0)
(-0.040600292 0.23073521 0)
(-0.043102533 0.23238547 0)
(-0.040826193 0.22417138 0)
(-0.035486691 0.20970153 0)
(-0.028812505 0.19027849 0)
(-0.022481464 0.16575671 0)
(-0.018124724 0.13515869 0)
(-0.017355147 0.096985691 0)
(-0.021731584 0.049412333 0)
(-0.032615348 -0.0095768287 0)
(-0.050788505 -0.082054193 0)
(-0.075769451 -0.16929797 0)
(-0.10440689 -0.26968246 0)
(-0.1280838 -0.37285619 0)
(-0.13021827 -0.44779251 0)
(-0.095075427 -0.42662465 0)
(-0.03094091 -0.21562243 0)
(-0.0093521663 0.086809093 0)
(-0.027703566 0.18130464 0)
(-0.041607103 0.22213566 0)
(-0.043676086 0.23269672 0)
(-0.035742579 0.2276904 0)
(-0.021244468 0.21494213 0)
(-0.0030694785 0.19804015 0)
(0.016384438 0.17812846 0)
(0.035057006 0.15496927 0)
(0.051060008 0.12754703 0)
(0.0625024 0.09437399 0)
(0.067430195 0.05362729 0)
(0.06376119 0.0031642572 0)
(0.04955538 -0.059630992 0)
(0.023327674 -0.13772322 0)
(-0.014812551 -0.23359344 0)
(-0.059621286 -0.3446351 0)
(-0.094075102 -0.44898854 0)
(-0.094706733 -0.4749966 0)
(-0.039255896 -0.28008436 0)
(-0.01861612 0.11086913 0)
(-0.046261193 0.20151833 0)
(-0.055773649 0.22738994 0)
(-0.04488196 0.22428481 0)
(-0.020607547 0.20982121 0)
(0.0108098 0.19155207 0)
(0.045254962 0.17221564 0)
(0.079883672 0.15230038 0)
(0.11251955 0.13124042 0)
(0.14126641 0.10791678 0)
(0.16422672 0.080911537 0)
(0.17933493 0.048574719 0)
(0.18410449 0.0089855848 0)
(0.17587698 -0.040279765 0)
(0.15165347 -0.10269762 0)
(0.10856454 -0.18352047 0)
(0.04649309 -0.28825291 0)
(-0.02196087 -0.41022758 0)
(-0.072496763 -0.4907017 0)
(-0.041201541 -0.35029215 0)
(-0.033353736 0.15569845 0)
(-0.06869883 0.22035947 0)
(-0.055501155 0.21705037 0)
(-0.0166646 0.19491973 0)
(0.033634958 0.17044116 0)
(0.087359649 0.14802384 0)
(0.14039936 0.12822417 0)
(0.19044899 0.11031965 0)
(0.23595012 0.093195233 0)
(0.27553986 0.075629557 0)
(0.30771992 0.056373433 0)
(0.33068298 0.034117602 0)
(0.34199126 0.0073799193 0)
(0.33883262 -0.025559482 0)
(0.31732223 -0.067437462 0)
(0.27263279 -0.12388256 0)
(0.19994215 -0.20570892 0)
(0.10177495 -0.32496484 0)
(-0.01257595 -0.45445869 0)
(-0.023804906 -0.40854019 0)
(-0.033055444 0.23915628 0)
(-0.042603211 0.21797522 0)
(0.04218004 0.16421982 0)
(0.12741834 0.12769163 0)
(0.20730272 0.10123212 0)
(0.27965932 0.081442958 0)
(0.34404364 0.066461983 0)
(0.40059535 0.054575329 0)
(0.44947177 0.044346292 0)
(0.49052459 0.034663796 0)
(0.52312022 0.024641681 0)
(0.54606104 0.013520237 0)
(0.55744235 0.00055801084 0)
(0.55509102 -0.01497795 0)
(0.53507292 -0.034832348 0)
(0.49213148 -0.062394155 0)
(0.41775667 -0.10690267 0)
(0.30395647 -0.19316081 0)
(0.12305116 -0.33690975 0)
(0.052345822 -0.39437052 0)
(0.24302865 0.15260358 0)
(0.30537563 0.11858306 0)
(0.45490149 0.076124283 0)
(0.56005077 0.05082839 0)
(0.63217783 0.035093041 0)
(0.6863708 0.024770105 0)
(0.72914026 0.017920926 0)
(0.76340517 0.013229189 0)
(0.79083572 0.0097533024 0)
(0.81230153 0.006864453 0)
(0.82799782 0.0041444862 0)
(0.83760047 0.0013125644 0)
(0.84031967 -0.0018135383 0)
(0.83482686 -0.0052942535 0)
(0.81880105 -0.0098006608 0)
(0.78942039 -0.016215392 0)
(0.73786253 -0.026930676 0)
(0.65318721 -0.051290042 0)
(0.45610573 -0.11375297 0)
(0.31789011 -0.17206594 0)
)
;

boundaryField
{
    movingWall
    {
        type            fixedValue;
        value           uniform (1 0 0);
    }
    fixedWalls
    {
        type            fixedValue;
        value           uniform (0 0 0);
    }
    frontAndBack
    {
        type            empty;
    }
}


// ************************************************************************* //
