/*--------------------------------*- C++ -*----------------------------------*\
| =========                 |                                                 |
| \\      /  F ield         | OpenFOAM: The Open Source CFD Toolbox           |
|  \\    /   O peration     | Version:  2112                                  |
|   \\  /    A nd           | Website:  www.openfoam.com                      |
|    \\/     M anipulation  |                                                 |
\*---------------------------------------------------------------------------*/
FoamFile
{
    version     2.0;
    format      ascii;
    arch        "LSB;label=32;scalar=64";
    class       volVectorField;
    location    "9";
    object      U_0;
}
// * * * * * * * * * * * * * * * * * * * * * * * * * * * * * * * * * * * * * //

dimensions      [0 1 -1 0 0 0 0];

internalField   nonuniform List<vector> 
400
(
(0.00027779388 -0.00027453229 0)
(0.00010048666 8.2196892e-05 0)
(-0.0013217345 0.00047397222 0)
(-0.0035853816 0.00072730685 0)
(-0.0063469977 0.00085621772 0)
(-0.0093106012 0.00089468806 0)
(-0.01222327 0.00086221266 0)
(-0.014852695 0.00076019299 0)
(-0.01696139 0.00058013697 0)
(-0.018304595 0.0003164218 0)
(-0.018657285 -2.2482792e-05 0)
(-0.017863193 -0.00040954449 0)
(-0.015896979 -0.00078556282 0)
(-0.012918353 -0.0010758841 0)
(-0.0092919674 -0.0012044438 0)
(-0.0055534332 -0.0011168603 0)
(-0.0023116019 -0.00080714635 0)
(-0.0001083842 -0.00033963003 0)
(0.00073968368 0.00014471599 0)
(0.00040221703 0.00038233043 0)
(-8.7438469e-05 -0.00011287707 0)
(-0.0018484197 0.0017699838 0)
(-0.0062203314 0.0035781307 0)
(-0.012271502 0.0047928979 0)
(-0.01930771 0.0054172331 0)
(-0.026697401 0.0055365417 0)
(-0.033839364 0.005207418 0)
(-0.040157233 0.0044399151 0)
(-0.045083007 0.0032246494 0)
(-0.048074862 0.0015785703 0)
(-0.048682991 -0.00041158797 0)
(-0.046631208 -0.0025599991 0)
(-0.041928152 -0.004578728 0)
(-0.034962008 -0.0061180913 0)
(-0.026512001 -0.0068384127 0)
(-0.017682846 -0.0065119369 0)
(-0.0097251562 -0.0051312797 0)
(-0.003750195 -0.0029867804 0)
(-0.00040834554 -0.00068176087 0)
(0.00028038382 0.00076311441 0)
(-0.00057955963 0.0014235843 0)
(-0.004174964 0.0062897281 0)
(-0.011565836 0.010480777 0)
(-0.021115309 0.013275632 0)
(-0.031835765 0.01466754 0)
(-0.042880851 0.01478747 0)
(-0.053420101 0.013729641 0)
(-0.062646989 0.011523205 0)
(-0.069777386 0.0081862613 0)
(-0.074082479 0.0038152644 0)
(-0.074966751 -0.0013304274 0)
(-0.072076679 -0.0067762255 0)
(-0.065426877 -0.011846248 0)
(-0.055505122 -0.01573867 0)
(-0.04330581 -0.017683079 0)
(-0.030273815 -0.017161047 0)
(-0.018103104 -0.014142085 0)
(-0.0083703268 -0.0092474728 0)
(-0.0021515405 -0.0037668272 0)
(-7.93332e-06 0.00028783367 0)
(-0.0010338912 0.00424084 0)
(-0.0063984077 0.013354065 0)
(-0.016699717 0.020530465 0)
(-0.029510777 0.025152683 0)
(-0.043548271 0.027324228 0)
(-0.057808472 0.027264613 0)
(-0.071315765 0.025118107 0)
(-0.083123584 0.020940253 0)
(-0.092312034 0.014790949 0)
(-0.098020796 0.0068711872 0)
(-0.09953065 -0.0023535452 0)
(-0.096373938 -0.012087141 0)
(-0.08847133 -0.021201358 0)
(-0.07626907 -0.028356889 0)
(-0.060821523 -0.03223552 0)
(-0.043796484 -0.031890178 0)
(-0.027303018 -0.027148829 0)
(-0.013470719 -0.01892136 0)
(-0.0040024304 -0.0092349818 0)
(-0.00026957289 -0.0011347041 0)
(-0.0014276013 0.0082299862 0)
(-0.0083916786 0.022797449 0)
(-0.02135847 0.033490557 0)
(-0.037137325 0.040103461 0)
(-0.054169638 0.043015259 0)
(-0.071337714 0.042609459 0)
(-0.087585109 0.039107009 0)
(-0.101895 0.032594545 0)
(-0.11326972 0.023168351 0)
(-0.12074721 0.011119939 0)
(-0.12347209 -0.0028994404 0)
(-0.12079195 -0.017782042 0)
(-0.11240832 -0.031939095 0)
(-0.098567408 -0.043430926 0)
(-0.08022243 -0.050248493 0)
(-0.059159077 -0.050796287 0)
(-0.037915936 -0.044519236 0)
(-0.019341224 -0.032456866 0)
(-0.0060421115 -0.017382332 0)
(-0.0005086829 -0.0035318332 0)
(-0.0017546861 0.013245106 0)
(-0.010085991 0.034369362 0)
(-0.025362232 0.049081933 0)
(-0.043729353 0.057850374 0)
(-0.063397947 0.061496411 0)
(-0.083180317 0.060657258 0)
(-0.10199552 0.055666284 0)
(-0.11881628 0.04664178 0)
(-0.1326168 0.033690327 0)
(-0.14235681 0.017143068 0)
(-0.14702694 -0.0022298691 0)
(-0.14572248 -0.023055972 0)
(-0.13780354 -0.043340467 0)
(-0.12314264 -0.06049757 0)
(-0.10239331 -0.071656398 0)
(-0.077294667 -0.074259737 0)
(-0.050773644 -0.066971334 0)
(-0.026560908 -0.050641503 0)
(-0.0085346021 -0.028747938 0)
(-0.00078036196 -0.0070311227 0)
(-0.0020059992 0.019100797 0)
(-0.011415088 0.047712869 0)
(-0.028540082 0.066889802 0)
(-0.049005606 0.077985046 0)
(-0.070849874 0.08241417 0)
(-0.0928603 0.081159649 0)
(-0.11398478 0.074707636 0)
(-0.13324374 0.063206138 0)
(-0.14963877 0.046732183 0)
(-0.16208996 0.025581547 0)
(-0.16942467 0.00053647936 0)
(-0.17046946 -0.026903505 0)
(-0.1641667 -0.054412941 0)
(-0.14982777 -0.078771815 0)
(-0.12756645 -0.096098598 0)
(-0.098802743 -0.10249954 0)
(-0.066658797 -0.095277582 0)
(-0.035804568 -0.074513447 0)
(-0.011823649 -0.044179749 0)
(-0.0011591317 -0.011934782 0)
(-0.0021682845 0.025574155 0)
(-0.01230953 0.062384655 0)
(-0.030720422 0.086383464 0)
(-0.052663276 0.099965978 0)
(-0.076064211 0.10526944 0)
(-0.099727641 0.10371014 0)
(-0.12268066 0.095972098 0)
(-0.14405074 0.082234277 0)
(-0.16293161 0.062500763 0)
(-0.1782718 0.036943433 0)
(-0.18881319 0.0062203983 0)
(-0.19312677 -0.028229177 0)
(-0.18970163 -0.06389164 0)
(-0.17718795 -0.097027394 0)
(-0.154899 -0.12268964 0)
(-0.1235411 -0.13529231 0)
(-0.086003997 -0.13003756 0)
(-0.047694986 -0.10527383 0)
(-0.016295368 -0.064859964 0)
(-0.0017362082 -0.018750598 0)
(-0.0022305658 0.032405251 0)
(-0.012716221 0.077864283 0)
(-0.031764541 0.10691782 0)
(-0.054427094 0.12309587 0)
(-0.078569713 0.12936087 0)
(-0.10304869 0.12764914 0)
(-0.12701675 0.11889616 0)
(-0.14977001 0.10332516 0)
(-0.17057475 0.080834393 0)
(-0.18851133 0.051385595 0)
(-0.20235886 0.015369721 0)
(-0.21054502 -0.026014033 0)
(-0.21118876 -0.07031713 0)
(-0.20226814 -0.11353756 0)
(-0.18208818 -0.14978959 0)
(-0.15018349 -0.17159503 0)
(-0.10852691 -0.17127222 0)
(-0.062629491 -0.14402717 0)
(-0.022367133 -0.092249638 0)
(-0.0026345612 -0.028218166 0)
(-0.0021954737 0.039314483 0)
(-0.012636866 0.093583005 0)
(-0.031635442 0.12774856 0)
(-0.054146083 0.14650965 0)
(-0.078012351 0.15374112 0)
(-0.10217206 0.15198772 0)
(-0.12594715 0.14250301 0)
(-0.14886453 0.12558912 0)
(-0.17045324 0.10103363 0)
(-0.19005449 0.068534632 0)
(-0.20665044 0.02810049 0)
(-0.21871647 -0.019510322 0)
(-0.22423023 -0.07221812 0)
(-0.2206466 -0.12615833 0)
(-0.20519534 -0.17489019 0)
(-0.17584601 -0.20917662 0)
(-0.13280416 -0.21787564 0)
(-0.080519697 -0.19131008 0)
(-0.030470789 -0.12792463 0)
(-0.0040385075 -0.041344426 0)
(-0.0020949525 0.046047721 0)
(-0.012180991 0.1089914 0)
(-0.030491427 0.14808298 0)
(-0.051921977 0.16919769 0)
(-0.074321867 0.1772155 0)
(-0.096747391 0.17538642 0)
(-0.11873819 0.16536225 0)
(-0.14011326 0.14758241 0)
(-0.1607505 0.12175665 0)
(-0.18038109 0.08731999 0)
(-0.19838189 0.043851769 0)
(-0.21352004 -0.0084901953 0)
(-0.2239677 -0.068455194 0)
(-0.22697584 -0.13264779 0)
(-0.21889188 -0.19476442 0)
(-0.19597754 -0.24443951 0)
(-0.15588257 -0.2670522 0)
(-0.10040913 -0.24639418 0)
(-0.040981538 -0.17323167 0)
(-0.0062330065 -0.059447082 0)
(-0.002013761 0.052458903 0)
(-0.011635199 0.12367406 0)
(-0.028794706 0.1671691 0)
(-0.04824435 0.19006518 0)
(-0.067876366 0.19838741 0)
(-0.086938437 0.19620162 0)
(-0.10525863 0.18564163 0)
(-0.12301042 0.16735421 0)
(-0.14048574 0.14103299 0)
(-0.15788949 0.10589544 0)
(-0.17515218 0.061093008 0)
(-0.1917372 0.0061033666 0)
(-0.20621797 -0.058773251 0)
(-0.21601171 -0.13124205 0)
(-0.21724455 -0.20598826 0)
(-0.20472673 -0.27264535 0)
(-0.1731415 -0.31398711 0)
(-0.12002985 -0.30645898 0)
(-0.05401984 -0.2286672 0)
(-0.0096350427 -0.084178686 0)
(-0.0021321854 0.058646916 0)
(-0.011561874 0.13751243 0)
(-0.027427601 0.18440818 0)
(-0.044097299 0.20800761 0)
(-0.059601004 0.2157326 0)
(-0.073535523 0.21258689 0)
(-0.086137421 0.20124885 0)
(-0.098007733 0.18262655 0)
(-0.10989775 0.15646375 0)
(-0.12253673 0.12184039 0)
(-0.13648309 0.077550653 0)
(-0.15193312 0.02244849 0)
(-0.16829606 -0.044059723 0)
(-0.18378836 -0.12131286 0)
(-0.19490676 -0.2058082 0)
(-0.19583291 -0.28869224 0)
(-0.17861116 -0.35207572 0)
(-0.13547917 -0.36593919 0)
(-0.069034834 -0.29292445 0)
(-0.014760575 -0.11744712 0)
(-0.002813035 0.065185223 0)
(-0.012955671 0.15088526 0)
(-0.0278014 0.19944347 0)
(-0.040973499 0.22194784 0)
(-0.050892454 0.22764827 0)
(-0.057814018 0.22259281 0)
(-0.062577583 0.20999933 0)
(-0.066299584 0.19103183 0)
(-0.070204042 0.16551474 0)
(-0.075516748 0.13247821 0)
(-0.08338556 0.090504586 0)
(-0.094749148 0.037992791 0)
(-0.11002065 -0.02652825 0)
(-0.12863233 -0.10394363 0)
(-0.1482756 -0.19314649 0)
(-0.16375812 -0.28836784 0)
(-0.16572396 -0.37390972 0)
(-0.14120488 -0.41648606 0)
(-0.084111965 -0.3616986 0)
(-0.021993962 -0.16101993 0)
(-0.0047729718 0.073536417 0)
(-0.017484588 0.16487315 0)
(-0.031872496 0.21212187 0)
(-0.040605256 0.23072744 0)
(-0.043109133 0.23237781 0)
(-0.040834184 0.22416475 0)
(-0.035495765 0.20969658 0)
(-0.028822333 0.19027559 0)
(-0.022491717 0.16575592 0)
(-0.01813509 0.13515985 0)
(-0.017365353 0.096988457 0)
(-0.0217414 0.04941623 0)
(-0.032624574 -0.0095723089 0)
(-0.050796956 -0.082049502 0)
(-0.075776902 -0.16929339 0)
(-0.10441303 -0.269678 0)
(-0.12808831 -0.37285163 0)
(-0.13022089 -0.44778765 0)
(-0.095076296 -0.42661985 0)
(-0.030940965 -0.21561968 0)
(-0.0093524481 0.086808327 0)
(-0.027705035 0.18130169 0)
(-0.041610485 0.22213082 0)
(-0.043681477 0.23269082 0)
(-0.035749814 0.22768439 0)
(-0.021253247 0.21493682 0)
(-0.0030793947 0.19803613 0)
(0.016373811 0.17812609 0)
(0.035046081 0.15496863 0)
(0.051049179 0.12754803 0)
(0.06249198 0.094376342 0)
(0.067420412 0.053630594 0)
(0.0637522 0.0031680482 0)
(0.049547266 -0.05962716 0)
(0.023320521 -0.13771968 0)
(-0.014818589 -0.2335903 0)
(-0.059626001 -0.34463219 0)
(-0.094078166 -0.44898554 0)
(-0.094708017 -0.47499338 0)
(-0.039256112 -0.2800822 0)
(-0.018616314 0.11086912 0)
(-0.04626239 0.20151694 0)
(-0.055776585 0.22738703 0)
(-0.044886807 0.22428086 0)
(-0.02061422 0.20981694 0)
(0.010801564 0.19154814 0)
(0.04524556 0.17221256 0)
(0.079873548 0.15229845 0)
(0.11250916 0.1312398 0)
(0.14125618 0.10791742 0)
(0.16421701 0.080913254 0)
(0.179326 0.048577211 0)
(0.1840965 0.0089884787 0)
(0.17586998 -0.040276859 0)
(0.15164746 -0.10269503 0)
(0.10855952 -0.18351838 0)
(0.046489027 -0.28825127 0)
(-0.021963704 -0.41022604 0)
(-0.072498086 -0.49069998 0)
(-0.041201835 -0.35029079 0)
(-0.033353743 0.15569891 0)
(-0.068699354 0.22035923 0)
(-0.055502846 0.21704907 0)
(-0.016667759 0.19491755 0)
(0.033630232 0.17043856 0)
(0.087353453 0.1480213 0)
(0.14039197 0.12822207 0)
(0.19044078 0.11031825 0)
(0.23594152 0.093194671 0)
(0.27553131 0.075629842 0)
(0.30771181 0.056374462 0)
(0.33067561 0.034119186 0)
(0.34198484 0.0073818212 0)
(0.33882722 -0.025557586 0)
(0.31731783 -0.067435816 0)
(0.27262929 -0.12388134 0)
(0.19993941 -0.20570818 0)
(0.10177297 -0.32496427 0)
(-0.012576975 -0.45445807 0)
(-0.023805168 -0.40853964 0)
(-0.033055305 0.23915673 0)
(-0.042602973 0.21797553 0)
(0.042179895 0.16421957 0)
(0.12741734 0.12769085 0)
(0.2073006 0.10123103 0)
(0.27965597 0.081441797 0)
(0.34403917 0.066460977 0)
(0.40059003 0.054574635 0)
(0.44946594 0.044346 0)
(0.49051867 0.03466392 0)
(0.52311459 0.024642169 0)
(0.54605604 0.013520983 0)
(0.55743813 0.00055886339 0)
(0.55508768 -0.01497709 0)
(0.53507046 -0.034831608 0)
(0.49212977 -0.062393644 0)
(0.4177555 -0.10690242 0)
(0.30395566 -0.19316073 0)
(0.12305069 -0.3369097 0)
(0.052345667 -0.39437047 0)
(0.24302881 0.15260373 0)
(0.30537606 0.11858327 0)
(0.45490197 0.076124371 0)
(0.56005099 0.050828327 0)
(0.63217754 0.035092864 0)
(0.68636984 0.024769876 0)
(0.72913866 0.017920714 0)
(0.76340306 0.013229043 0)
(0.79083333 0.0097532525 0)
(0.8122991 0.0068645062 0)
(0.82799558 0.0041446258 0)
(0.83759861 0.0013127573 0)
(0.84031832 -0.0018133733 0)
(0.83482606 -0.0052940808 0)
(0.81880069 -0.0098005073 0)
(0.78942035 -0.016215297 0)
(0.73786263 -0.026930647 0)
(0.65318731 -0.05129006 0)
(0.45610578 -0.11375301 0)
(0.31789011 -0.17206597 0)
)
;

boundaryField
{
    movingWall
    {
        type            fixedValue;
        value           uniform (1 0 0);
    }
    fixedWalls
    {
        type            fixedValue;
        value           uniform (0 0 0);
    }
    frontAndBack
    {
        type            empty;
    }
}


// ************************************************************************* //
