/*--------------------------------*- C++ -*----------------------------------*\
| =========                 |                                                 |
| \\      /  F ield         | OpenFOAM: The Open Source CFD Toolbox           |
|  \\    /   O peration     | Version:  2112                                  |
|   \\  /    A nd           | Website:  www.openfoam.com                      |
|    \\/     M anipulation  |                                                 |
\*---------------------------------------------------------------------------*/
FoamFile
{
    version     2.0;
    format      ascii;
    arch        "LSB;label=32;scalar=64";
    class       volScalarField;
    location    "18";
    object      p;
}
// * * * * * * * * * * * * * * * * * * * * * * * * * * * * * * * * * * * * * //

dimensions      [0 2 -2 0 0 0 0];

internalField   nonuniform List<scalar> 
400
(
1.5106404e-06
-0.00067108939
-0.0013834206
-0.0019406369
-0.0022177989
-0.0021541845
-0.0017253959
-0.00092375586
0.00023787375
0.0017098285
0.0033896512
0.0051144975
0.0066757366
0.0078513641
0.0084607149
0.0084261311
0.0078160029
0.0068472893
0.005864179
0.0053018617
0.00065945836
-3.8797797e-05
-0.00056783091
-0.00093868448
-0.0011088051
-0.001037749
-0.00070351586
-9.3188811e-05
0.00079150789
0.0019186155
0.0032120085
0.0045571087
0.0057843576
0.0067186726
0.0072169028
0.0072171089
0.0067726594
0.0060555959
0.0053134402
0.0047414426
0.0014251943
0.00044228578
-0.00011485805
-0.0004513921
-0.00061283592
-0.00058270868
-0.00034434854
0.00012208993
0.00083089499
0.0017723969
0.0028968039
0.0041006782
0.0052307528
0.0061135061
0.0065964566
0.0066003432
0.006158531
0.0054244201
0.0045967475
0.0037512894
0.0020155663
0.00068324374
1.8449043e-05
-0.00035705433
-0.00056961036
-0.00062446063
-0.00050781461
-0.0001882032
0.00037106032
0.0011870329
0.002232603
0.003420125
0.0045940559
0.0055596327
0.0061262797
0.0061693611
0.0056865281
0.0048200774
0.0037504276
0.0024768234
0.0021685664
0.00049764602
-0.00029459075
-0.00074689739
-0.0010562719
-0.0012430828
-0.0012903365
-0.0011486716
-0.00075223568
-5.0158338e-05
0.00096002773
0.0022132943
0.0035476927
0.0047356129
0.0055247838
0.0057128605
0.0052323479
0.0042047829
0.0028094887
0.00098739799
0.0016552865
-0.00031289465
-0.001237045
-0.0017973895
-0.0022505297
-0.0026255082
-0.0028959237
-0.0029880933
-0.0027992977
-0.0022342632
-0.0012476033
0.00013439399
0.0017480883
0.0033304617
0.0045449149
0.0050690163
0.0047207677
0.0035695674
0.0017930992
-0.00072223867
0.00028851217
-0.0019178164
-0.002971071
-0.00366925
-0.0043178838
-0.0049504412
-0.0055269777
-0.0059444317
-0.0060551519
-0.0057032889
-0.0047714914
-0.0032544852
-0.0012624062
0.00091111266
0.0028268809
0.0039904516
0.0040286564
0.0028913145
0.0007191154
-0.0026765454
-0.0020746318
-0.0044491451
-0.0056245724
-0.0064898471
-0.0073900985
-0.0083625066
-0.0093531824
-0.010227565
-0.010786334
-0.010799894
-0.010058248
-0.0084566457
-0.006035799
-0.0030785058
-0.00012190092
0.0021167488
0.0029677686
0.0021394752
-0.00036204594
-0.0048683744
-0.0055219221
-0.0079896628
-0.0092752796
-0.010330866
-0.011534665
-0.012931562
-0.01445827
-0.0159513
-0.017156934
-0.017760119
-0.017431956
-0.015913331
-0.013116991
-0.0092461263
-0.004893807
-0.0010252551
0.0012738201
0.0012819893
-0.0013297122
-0.0071971781
-0.010074117
-0.012562162
-0.013933546
-0.015180572
-0.016714485
-0.018598137
-0.020769045
-0.023042937
-0.025115266
-0.026579488
-0.026962238
-0.02580579
-0.022838723
-0.018067885
-0.012045059
-0.0059465036
-0.0013658117
0.0003051703
-0.001942722
-0.0093775229
-0.015681592
-0.018128969
-0.01953395
-0.020922876
-0.02275331
-0.025124811
-0.027991223
-0.031159889
-0.034284307
-0.036869209
-0.038286267
-0.037836294
-0.035058135
-0.029594183
-0.021815793
-0.012979539
-0.0051795857
-0.00071086654
-0.0017595515
-0.01078747
-0.022239623
-0.024609113
-0.025941552
-0.027330611
-0.029319316
-0.032073731
-0.035582713
-0.039657684
-0.043919653
-0.047793211
-0.050521882
-0.051228273
-0.048948873
-0.043135984
-0.03376204
-0.021920035
-0.010031254
-0.0014104039
-5.1861994e-06
-0.010220938
-0.02963675
-0.031919583
-0.032974386
-0.034075268
-0.035934458
-0.038825829
-0.042789205
-0.047644465
-0.052982806
-0.058155448
-0.062275961
-0.06425738
-0.062867369
-0.057104914
-0.046470062
-0.031643024
-0.015032405
-0.00085948547
0.0046512593
-0.0055172077
-0.037861204
-0.040043967
-0.040435629
-0.040747867
-0.042010049
-0.044647491
-0.048751919
-0.0541371
-0.060348524
-0.066657518
-0.07205283
-0.075260693
-0.074804274
-0.069262809
-0.057622489
-0.039956261
-0.018243206
0.002793396
0.014449168
0.0069112557
-0.047225661
-0.04912978
-0.048136152
-0.046877846
-0.046900819
-0.048793524
-0.052662453
-0.058269501
-0.065069062
-0.072224704
-0.078588553
-0.082705515
-0.082874067
-0.077304035
-0.064519334
-0.043930941
-0.016744367
0.012506334
0.03294198
0.032411816
-0.058891994
-0.059635505
-0.055879839
-0.051937088
-0.049968208
-0.050625332
-0.053923442
-0.059489455
-0.066605426
-0.074278622
-0.081184636
-0.085673389
-0.085826582
-0.079517924
-0.064872732
-0.040686581
-0.0072386503
0.032141544
0.064983596
0.077751093
-0.076222153
-0.072609805
-0.063512728
-0.05543218
-0.050721717
-0.049777812
-0.052307863
-0.057659145
-0.064886011
-0.072768898
-0.079773441
-0.084031379
-0.083387161
-0.075345525
-0.057600266
-0.02837356
0.012934379
0.065397573
0.11555262
0.15150721
-0.10808857
-0.089553066
-0.071231143
-0.057230673
-0.049069697
-0.046327239
-0.048073494
-0.053198009
-0.060429374
-0.068290305
-0.07502195
-0.078522009
-0.076384967
-0.06580671
-0.043863601
-0.0078174712
0.044394078
0.11299842
0.18838077
0.27186103
-0.17684256
-0.10828696
-0.076200409
-0.054649533
-0.042990572
-0.038995657
-0.040567297
-0.045923949
-0.053436739
-0.06143319
-0.068022469
-0.070957926
-0.067547369
-0.054737007
-0.029147017
0.013564492
0.078147235
0.17006436
0.28949544
0.47421826
-0.37208064
-0.12470599
-0.054971181
-0.031961043
-0.022062046
-0.020298511
-0.024356642
-0.0319543
-0.041257108
-0.050635976
-0.058311919
-0.062182801
-0.059778543
-0.048053801
-0.022656526
0.021475334
0.092819202
0.21015292
0.4028885
0.7764094
)
;

boundaryField
{
    movingWall
    {
        type            zeroGradient;
    }
    fixedWalls
    {
        type            zeroGradient;
    }
    frontAndBack
    {
        type            empty;
    }
}


// ************************************************************************* //
