/*--------------------------------*- C++ -*----------------------------------*\
| =========                 |                                                 |
| \\      /  F ield         | OpenFOAM: The Open Source CFD Toolbox           |
|  \\    /   O peration     | Version:  2112                                  |
|   \\  /    A nd           | Website:  www.openfoam.com                      |
|    \\/     M anipulation  |                                                 |
\*---------------------------------------------------------------------------*/
FoamFile
{
    version     2.0;
    format      ascii;
    arch        "LSB;label=32;scalar=64";
    class       surfaceScalarField;
    location    "18";
    object      phi;
}
// * * * * * * * * * * * * * * * * * * * * * * * * * * * * * * * * * * * * * //

dimensions      [0 3 -1 0 0 0 0];

oriented        oriented;

internalField   nonuniform List<scalar> 
760
(
1.2690726e-05
-1.2708294e-05
-2.8728791e-05
4.1419518e-05
-0.0001222865
9.3557708e-05
-0.00025037663
0.00012809014
-0.0003960396
0.00014566297
-0.00054533955
0.00014929996
-0.00068620494
0.00014086539
-0.00080681302
0.00012060809
-0.00089486516
8.8052155e-05
-0.00093830087
4.3435724e-05
-0.00092718917
-1.1111688e-05
-0.00085678771
-7.0401455e-05
-0.0007303717
-0.00012641599
-0.00056130403
-0.00016906766
-0.00037274235
-0.00018856166
-0.000194472
-0.00017827034
-5.6529258e-05
-0.00013794273
1.9605229e-05
-7.613447e-05
3.0406232e-05
-1.0800983e-05
3.0406251e-05
-4.3183606e-05
3.0475315e-05
-0.00020455005
0.00020278597
-0.00046827774
0.0003572854
-0.00080062155
0.00046043396
-0.001167221
0.00051226243
-0.0015362772
0.00051835615
-0.0018780171
0.00048260539
-0.0021634422
0.00040603312
-0.0023642871
0.00028889712
-0.0024550921
0.0001342407
-0.0024178995
-4.8304251e-05
-0.0022451448
-0.00024315614
-0.0019473844
-0.00042417629
-0.001554345
-0.00056210709
-0.0011142447
-0.0006286619
-0.00068743865
-0.00060507639
-0.00033451737
-0.00049086398
-0.00010090125
-0.00030975057
-1.5563228e-06
-0.00011014588
2.8849945e-05
-0.00011001623
0.00014049155
-0.00040298572
0.00049575547
-0.00083129013
0.00078558982
-0.0013454571
0.00097460092
-0.001898373
0.0010651784
-0.0024462927
0.0010662758
-0.0029476906
0.00098400332
-0.0033622373
0.00082057981
-0.0036514881
0.00057814798
-0.0037819153
0.00026466795
-0.0037294435
-0.00010077606
-0.0034854742
-0.00048712545
-0.0030629939
-0.0008466565
-0.0024997802
-0.0011253208
-0.0018580899
-0.0012703522
-0.0012180611
-0.0012451052
-0.00066370021
-0.0010452248
-0.00026308093
-0.00071036982
-4.7957585e-05
-0.00032526919
-1.9107623e-05
-0.00017341761
0.00031390916
-0.00059321683
0.00091555469
-0.0011775468
0.0013699198
-0.0018581392
0.0016551934
-0.0025765946
0.0017836338
-0.0032809167
0.0017705979
-0.0039223377
0.0016254243
-0.0044536339
0.0013518761
-0.0048297337
0.00095424776
-0.0050107092
0.00044564344
-0.0049667551
-0.00014473011
-0.0046839828
-0.00076989768
-0.0041719677
-0.0013586716
-0.0034688265
-0.001828462
-0.0026437945
-0.0020953842
-0.0017930659
-0.0020958337
-0.0010257809
-0.0018125098
-0.00044018953
-0.0012959612
-9.6720176e-05
-0.00066873851
-0.00011582778
-0.00022976445
0.00054367361
-0.00076497434
0.0014507646
-0.001491295
0.0020962404
-0.0023222591
0.0024861575
-0.0031897559
0.0026511306
-0.0040363512
0.0026171933
-0.0048094951
0.0023985682
-0.0054583741
0.0020007551
-0.0059335668
0.0014294405
-0.0061892003
0.00070127698
-0.0061878105
-0.00014611995
-0.0059050346
-0.0010526735
-0.0053399456
-0.0019237605
-0.0045227346
-0.002645673
-0.0035226926
-0.0030954261
-0.0024496166
-0.0031689098
-0.0014424344
-0.0028196919
-0.00064118768
-0.0020972078
-0.00014882791
-0.0011610982
-0.00026465567
-0.00027726089
0.0008209345
-0.00091143079
0.0020849345
-0.0017605136
0.0029453233
-0.0027224852
0.0034481291
-0.0037217853
0.0036504307
-0.0046981784
0.0035935865
-0.005598303
0.0032986928
-0.0063705534
0.0027730056
-0.0069630663
0.0020219534
-0.0073241748
0.0010623856
-0.0074068244
-6.3470389e-05
-0.0071711051
-0.0012883927
-0.0065983651
-0.0024965005
-0.0057012415
-0.0035427965
-0.0045396793
-0.0042569883
-0.0032316061
-0.0044769829
-0.0019488814
-0.0041024166
-0.00088722562
-0.0031588636
-0.00021157973
-0.0018367441
-0.00047623538
-0.00031407669
0.0011350112
-0.0010262167
0.0027970745
-0.0019732818
0.0038923883
-0.0030414194
0.0045162668
-0.0041502796
0.0047592908
-0.0052394184
0.0046827253
-0.0062574788
0.0043167532
-0.0071548843
0.0036704111
-0.0078797024
0.0027467715
-0.0083761766
0.0015588599
-0.0085847424
0.00014509545
-0.0084507132
-0.0014224219
-0.0079289516
-0.003018262
-0.0070044927
-0.0044672554
-0.0057146654
-0.0055468155
-0.0041733066
-0.0060183417
-0.0025816745
-0.0056940486
-0.0012040247
-0.0045365134
-0.00029448384
-0.0027462849
-0.0007707192
-0.0003382118
0.001473223
-0.0011030548
0.0035619175
-0.002117423
0.0049067565
-0.0032595781
0.0056584219
-0.0044470021
0.0059467149
-0.005621478
0.0058572013
-0.0067364045
0.0054316798
-0.0077473824
0.004681389
-0.0086057696
0.0036051588
-0.0092546437
0.002207734
-0.009626421
0.00051687291
-0.0096486405
-0.0014002023
-0.0092484581
-0.0034184444
-0.0083734793
-0.0053422341
-0.0070216847
-0.0068986101
-0.0052815184
-0.0077585078
-0.003367474
-0.007608093
-0.0016172674
-0.00628672
-0.00040824293
-0.0039553092
-0.0011789621
-0.00034812726
0.0018213503
-0.0011371237
0.004350914
-0.0021826188
0.0059522516
-0.003358369
0.0068341721
-0.0045819176
0.0071702635
-0.0057994368
0.0070747205
-0.0069717656
0.0066040087
-0.0080632122
0.0057728357
-0.0090329744
0.0045749211
-0.0098285269
0.0030032866
-0.010380817
0.0010691628
-0.010604083
-0.0011769359
-0.010400356
-0.003622171
-0.0096745046
-0.0060680857
-0.0083683289
-0.0082047858
-0.0065154038
-0.0096114328
-0.004309687
-0.0098138098
-0.0021482173
-0.0084481895
-0.00056489414
-0.0055386324
-0.0017438562
-0.00034391807
0.0021652684
-0.0011278042
0.0051348002
-0.0021646038
0.0069890512
-0.0033257433
0.0079953116
-0.0045305971
0.0083751173
-0.0057317037
0.0082758272
-0.0068999593
0.0077722644
-0.008012111
0.0068849874
-0.0090405571
0.0056033674
-0.0099447051
0.0039074346
-0.010663141
0.0017875986
-0.011106494
-0.00073358222
-0.011163169
-0.0035654962
-0.010696876
-0.006534379
-0.0095823522
-0.0093193092
-0.0077665524
-0.011427233
-0.0053713245
-0.012209038
-0.0028070731
-0.011012441
-0.00077833429
-0.0075673711
-0.0025221905
-0.00032890639
0.0024941748
-0.0010824109
0.0058883047
-0.0020707507
0.007977391
-0.0031635685
0.0090881296
-0.0042838436
0.0094953924
-0.0053927892
0.0093847729
-0.00647408
0.0088535553
-0.0075204998
0.0079314073
-0.0085228864
0.0066057541
-0.0094603292
0.0048448776
-0.010291328
0.0026185976
-0.010933213
-9.1696788e-05
-0.011283184
-0.0032155257
-0.011173575
-0.0066439874
-0.010415621
-0.010077264
-0.0088466159
-0.012996237
-0.0064556318
-0.014600022
-0.0035814378
-0.013886635
-0.0010641882
-0.010084621
-0.0035863786
-0.00031179926
0.0028059741
-0.001020718
0.0065972235
-0.0019261619
0.008882835
-0.0028950315
0.010056999
-0.0038569864
0.010457347
-0.0047856914
0.010313478
-0.0056809224
0.0097487864
-0.0065546418
0.0088051268
-0.0074201041
0.0074712165
-0.0082820617
0.0057068353
-0.0091253996
0.0034619357
-0.0099088847
0.00069178841
-0.01052747
-0.0025969406
-0.010827176
-0.0063442813
-0.010573722
-0.010330718
-0.0094932299
-0.014076729
-0.0073911043
-0.016702147
-0.004418862
-0.016858877
-0.0014371826
-0.0130663
-0.0050235612
-0.00031007421
0.0031160483
-0.00098045282
0.0072676022
-0.0017791986
0.0096815808
-0.002569575
0.010847376
-0.00329486
0.011182632
-0.0039482125
0.010966831
-0.0045503335
0.010350908
-0.0051351907
0.0093899841
-0.0057403589
0.0080763848
-0.0063989854
0.0063654619
-0.0071305953
0.0041935457
-0.0079307162
0.0014919095
-0.008739228
-0.0017884287
-0.0094307206
-0.0056527887
-0.0097688575
-0.0099925806
-0.0094005179
-0.014445069
-0.0079306532
-0.018172012
-0.0052061641
-0.019583366
-0.0019025962
-0.016369868
-0.0069261573
-0.00035608581
0.0034721341
-0.0010241285
0.007935645
-0.0017044587
0.010361911
-0.002261121
0.011404038
-0.0026661294
0.011587641
-0.0029444905
0.011245192
-0.0031447891
0.010551206
-0.0033254516
0.0095706468
-0.0035478062
0.0082987395
-0.0038716722
0.0066893279
-0.0043497939
0.0046716675
-0.0050189826
0.0021610983
-0.0058771753
-0.00093023586
-0.0068583358
-0.004671628
-0.0077767019
-0.0090742144
-0.008266138
-0.013955632
-0.007768919
-0.018669231
-0.0057511674
-0.021601118
-0.0024366758
-0.019684359
-0.0093628332
-0.00050831663
0.0039804508
-0.001245794
0.0086731224
-0.0017961706
0.010912288
-0.0020484077
0.011656275
-0.0020330227
0.011572256
-0.0018260307
0.0110382
-0.0015128612
0.010238037
-0.0011785692
0.0092363549
-0.00090543928
0.0080256097
-0.00077444257
0.0065583313
-0.00086419202
0.0047614171
-0.0012480252
0.0025449316
-0.0019834519
-0.00019480906
-0.0030824264
-0.0035726534
-0.0044605101
-0.0076961307
-0.0058278631
-0.012588279
-0.0065664172
-0.017930677
-0.0057685727
-0.022398962
-0.002951254
-0.022501678
-0.012314087
-0.00086861072
0.0048490616
-0.0017631549
0.0095676666
-0.0021216636
0.011270796
-0.0019372893
0.011471901
-0.0013514859
0.010986453
-0.00051685065
0.010203564
0.0004363175
0.0092848687
0.0013988566
0.0082738158
0.0022716151
0.0071528514
0.002960173
0.0058697735
0.0033684462
0.004353144
0.0033961456
0.0025172323
0.0029379506
0.00026338606
0.0019090794
-0.0025437822
0.00026922458
-0.0060562758
-0.0018545409
-0.010464514
-0.0039518732
-0.015833344
-0.0048609908
-0.021489845
-0.0032547517
-0.024107917
-0.015568839
-0.0015911284
0.0064401901
-0.0026109977
0.010587536
-0.0025134087
0.011173207
-0.0015903109
0.010548804
-0.00017269443
0.0095688362
0.0014921796
0.0085386906
0.0032322104
0.007544838
0.0049225164
0.0065835098
0.0064622735
0.0056130943
0.0077568036
0.0045752436
0.0087068561
0.0034030916
0.0092009051
0.0020231833
0.0091028189
0.00036147237
0.0082746366
-0.0017156
0.0065650746
-0.0043467137
0.0039039202
-0.0078033595
0.00055872287
-0.012488147
-0.0024682033
-0.018462918
-0.0030273728
-0.023548748
-0.018596212
-0.0027183767
0.0091585667
-0.0031499403
0.0110191
-0.001803167
0.0098264338
0.0004664232
0.0082792131
0.0030890361
0.0069462233
0.0057733293
0.0058543974
0.0083623458
0.0049558216
0.010759802
0.0041860537
0.012892887
0.0034800095
0.014690074
0.0027780566
0.016067802
0.0020253637
0.0169228
0.0011681848
0.017119299
0.00016497366
0.016490487
-0.0010867874
0.014816564
-0.0026727907
0.011846439
-0.0048332343
0.0074353238
-0.0080770323
0.0022628185
-0.013290413
-0.0012725174
-0.020013412
-0.019868729
-0.0024132651
0.011571832
2.8061123e-05
0.0085777743
0.0042550993
0.005599396
0.0084160109
0.0041183017
0.012231287
0.0031309471
0.015655982
0.0024297025
0.018686195
0.0019256081
0.021328792
0.0015434574
0.023583072
0.0012257289
0.025428815
0.00093231367
0.026819792
0.00063438702
0.027676857
0.00031111949
0.027899935
-5.8103759e-05
0.027347022
-0.00053387439
0.025771487
-0.0010972555
0.022842946
-0.0019046932
0.018054699
-0.0032887855
0.01111354
-0.0063492539
0.0033886555
-0.012288528
-0.016480073
0.011571831
0.020149605
0.025749001
0.029867303
0.03299825
0.035427953
0.037353561
0.038897018
0.040122747
0.041055061
0.041689448
0.042000568
0.041942464
0.041408589
0.040311334
0.038406641
0.035117855
0.028768601
0.016480073
)
;

boundaryField
{
    movingWall
    {
        type            calculated;
        value           uniform 0;
    }
    fixedWalls
    {
        type            calculated;
        value           uniform 0;
    }
    frontAndBack
    {
        type            empty;
        value           nonuniform List<scalar> 0();
    }
}


// ************************************************************************* //
