/*--------------------------------*- C++ -*----------------------------------*\
| =========                 |                                                 |
| \\      /  F ield         | OpenFOAM: The Open Source CFD Toolbox           |
|  \\    /   O peration     | Version:  2112                                  |
|   \\  /    A nd           | Website:  www.openfoam.com                      |
|    \\/     M anipulation  |                                                 |
\*---------------------------------------------------------------------------*/
FoamFile
{
    version     2.0;
    format      ascii;
    arch        "LSB;label=32;scalar=64";
    class       surfaceScalarField;
    location    "18";
    object      phi_0;
}
// * * * * * * * * * * * * * * * * * * * * * * * * * * * * * * * * * * * * * //

dimensions      [0 3 -1 0 0 0 0];

oriented        oriented;

internalField   nonuniform List<scalar> 
760
(
1.2690698e-05
-1.2708283e-05
-2.8728802e-05
4.1419501e-05
-0.00012228645
9.3557657e-05
-0.00025037652
0.00012809007
-0.0003960394
0.00014566288
-0.00054533926
0.00014929987
-0.00068620455
0.00014086531
-0.00080681256
0.00012060802
-0.00089486466
8.8052105e-05
-0.00093830036
4.3435711e-05
-0.00092718868
-1.1111659e-05
-0.00085678728
-7.0401389e-05
-0.00073037137
-0.0001264159
-0.00056130381
-0.00016906755
-0.00037274225
-0.00018856155
-0.00019447199
-0.00017827025
-5.6529295e-05
-0.00013794267
1.9605182e-05
-7.6134463e-05
3.0406205e-05
-1.0801009e-05
3.0406222e-05
-4.3183592e-05
3.0475312e-05
-0.00020454995
0.00020278586
-0.00046827746
0.00035728519
-0.00080062106
0.00046043367
-0.0011672203
0.0005122621
-0.0015362762
0.00051835582
-0.001878016
0.00048260509
-0.0021634408
0.00040603289
-0.0023642857
0.00028889698
-0.0024550906
0.00013424067
-0.0024178981
-4.8304145e-05
-0.0022451436
-0.0002431559
-0.0019473835
-0.00042417596
-0.0015543443
-0.00056210671
-0.0011142443
-0.00062866153
-0.00068743845
-0.00060507608
-0.00033451733
-0.00049086377
-0.00010090127
-0.00030975048
-1.5563437e-06
-0.0001101459
2.8849892e-05
-0.00011001616
0.00014049147
-0.00040298544
0.00049575515
-0.00083128956
0.00078558931
-0.0013454562
0.00097460028
-0.0018983717
0.0010651777
-0.002446291
0.0010662752
-0.0029476887
0.00098400272
-0.0033622351
0.00082057935
-0.0036514858
0.00057814772
-0.003781913
0.00026466792
-0.0037294413
-0.00010077583
-0.0034854723
-0.00048712497
-0.0030629924
-0.00084665584
-0.002499779
-0.00112532
-0.0018580891
-0.0012703515
-0.0012180606
-0.0012451045
-0.00066370001
-0.0010452244
-0.00026308088
-0.00071036959
-4.7957591e-05
-0.00032526916
-1.9107683e-05
-0.00017341747
0.00031390895
-0.00059321639
0.00091555407
-0.0011775459
0.0013699188
-0.0018581379
0.0016551923
-0.0025765928
0.0017836326
-0.0032809144
0.0017705968
-0.0039223351
0.0016254234
-0.0044536311
0.0013518754
-0.0048297307
0.00095424738
-0.0050107062
0.00044564344
-0.0049667523
-0.00014472972
-0.0046839803
-0.00076989692
-0.0041719656
-0.0013586705
-0.0034688248
-0.0018284608
-0.0026437933
-0.0020953829
-0.0017930652
-0.0020958326
-0.0010257805
-0.001812509
-0.00044018939
-0.0012959607
-9.6720156e-05
-0.00066873836
-0.00011582782
-0.00022976427
0.00054367323
-0.00076497376
0.0014507636
-0.0014912939
0.0020962389
-0.0023222574
0.0024861558
-0.0031897537
0.0026511289
-0.0040363486
0.0026171917
-0.004809492
0.0023985669
-0.0054583707
0.0020007541
-0.0059335633
0.00142944
-0.0061891969
0.000701277
-0.0061878072
-0.00014611938
-0.0059050316
-0.0010526724
-0.005339943
-0.0019237591
-0.0045227325
-0.0026456713
-0.0035226911
-0.0030954243
-0.0024496155
-0.0031689081
-0.0014424338
-0.0028196907
-0.00064118744
-0.002097207
-0.00014882786
-0.0011610979
-0.00026465566
-0.00027726068
0.00082093391
-0.00091143012
0.002084933
-0.0017605124
0.0029453212
-0.0027224834
0.0034481268
-0.0037217829
0.0036504284
-0.0046981755
0.0035935844
-0.0055982997
0.0032986911
-0.0063705498
0.0027730043
-0.0069630625
0.0020219527
-0.0073241711
0.0010623856
-0.0074068208
-6.3469664e-05
-0.0071711018
-0.0012883914
-0.0065983622
-0.0024964986
-0.0057012391
-0.0035427943
-0.0045396774
-0.004256986
-0.0032316048
-0.0044769807
-0.0019488806
-0.0041024148
-0.00088722528
-0.0031588624
-0.00021157965
-0.0018367435
-0.00047623529
-0.00031407648
0.0011350104
-0.001026216
0.0027970726
-0.0019732805
0.0038923857
-0.0030414176
0.0045162639
-0.0041502772
0.004759288
-0.0052394155
0.0046827227
-0.0062574755
0.0043167511
-0.0071548807
0.0036704096
-0.0078796987
0.0027467707
-0.0083761729
0.00155886
-0.0085847388
0.00014509628
-0.0084507098
-0.0014224203
-0.0079289486
-0.0030182598
-0.0070044901
-0.0044672528
-0.0057146633
-0.0055468127
-0.0041733051
-0.0060183389
-0.0025816736
-0.0056940463
-0.0012040242
-0.0045365117
-0.00029448373
-0.0027462839
-0.000770719
-0.0003382116
0.001473222
-0.0011030542
0.0035619151
-0.0021174218
0.0049067534
-0.0032595763
0.0056584184
-0.0044469999
0.0059467115
-0.0056214753
0.0058571982
-0.0067364015
0.0054316774
-0.0077473792
0.0046813873
-0.0086057663
0.0036051579
-0.0092546403
0.002207734
-0.0096264178
0.0005168738
-0.0096486374
-0.0014002006
-0.0092484552
-0.003418442
-0.0083734768
-0.0053422311
-0.0070216825
-0.0068986069
-0.0052815168
-0.0077585046
-0.0033674729
-0.0076080901
-0.0016172668
-0.0062867177
-0.00040824279
-0.0039553079
-0.0011789618
-0.0003481271
0.0018213491
-0.0011371232
0.0043509113
-0.0021826179
0.0059522481
-0.0033583677
0.0068341682
-0.0045819158
0.0071702597
-0.0057994347
0.0070747171
-0.0069717633
0.006604006
-0.0080632097
0.0057728338
-0.0090329719
0.0045749201
-0.0098285244
0.0030032866
-0.010380814
0.0010691638
-0.010604081
-0.0011769341
-0.010400354
-0.0036221685
-0.0096745025
-0.0060680826
-0.008368327
-0.0082047823
-0.0065154023
-0.0096114292
-0.0043096859
-0.0098138064
-0.0021482168
-0.0084481868
-0.00056489397
-0.0055386307
-0.0017438557
-0.00034391798
0.0021652671
-0.0011278039
0.0051347973
-0.0021646032
0.0069890474
-0.0033257424
0.0079953075
-0.0045305959
0.0083751133
-0.0057317024
0.0082758236
-0.0068999579
0.0077722616
-0.0080121095
0.0068849854
-0.0090405557
0.0056033664
-0.0099447037
0.0039074347
-0.010663139
0.0017875996
-0.011106493
-0.00073358041
-0.011163168
-0.0035654937
-0.010696874
-0.0065343759
-0.0095823509
-0.0093193057
-0.0077665512
-0.011427229
-0.0053713236
-0.012209034
-0.0028070725
-0.011012438
-0.0007783341
-0.007567369
-0.0025221898
-0.00032890638
0.0024941735
-0.0010824108
0.0058883018
-0.0020707505
0.0079773871
-0.0031635683
0.0090881253
-0.0042838432
0.0094953883
-0.0053927888
0.0093847693
-0.0064740797
0.0088535525
-0.0075204996
0.0079314054
-0.0085228863
0.0066057532
-0.0094603292
0.0048448777
-0.010291328
0.0026185987
-0.010933213
-9.1695013e-05
-0.011283184
-0.0032155233
-0.011173575
-0.0066439844
-0.01041562
-0.010077261
-0.0088466152
-0.012996234
-0.0064556311
-0.014600018
-0.0035814373
-0.013886632
-0.001064188
-0.010084618
-0.0035863777
-0.00031179934
0.0028059729
-0.0010207182
0.0065972207
-0.0019261622
0.0088828312
-0.0028950319
0.010056995
-0.003856987
0.010457343
-0.0047856921
0.010313474
-0.0056809232
0.0097487838
-0.0065546428
0.0088051251
-0.0074201052
0.0074712157
-0.008282063
0.0057068356
-0.009125401
0.0034619368
-0.009908886
0.00069179019
-0.010527471
-0.0025969383
-0.010827176
-0.0063442787
-0.010573722
-0.010330715
-0.00949323
-0.014076726
-0.0073911041
-0.016702144
-0.0044188617
-0.016858874
-0.0014371824
-0.013066297
-0.0050235601
-0.00031007437
0.0031160473
-0.00098045331
0.0072675997
-0.0017791994
0.0096815774
-0.0025695762
0.010847372
-0.0032948614
0.011182629
-0.0039482143
0.010966827
-0.0045503355
0.010350905
-0.0051351929
0.0093899826
-0.0057403613
0.0080763843
-0.0063989879
0.0063654623
-0.0071305978
0.0041935468
-0.0079307187
0.0014919112
-0.0087392303
-0.0017884266
-0.0094307226
-0.0056527863
-0.009768859
-0.0099925781
-0.0094005188
-0.014445066
-0.0079306536
-0.018172009
-0.0052061641
-0.019583363
-0.0019025961
-0.016369865
-0.0069261562
-0.00035608604
0.0034721333
-0.0010241292
0.0079356429
-0.0017044599
0.010361908
-0.0022611229
0.011404035
-0.0026661316
0.011587638
-0.002944493
0.011245189
-0.003144792
0.010551204
-0.0033254549
0.0095706455
-0.0035478096
0.0082987392
-0.0038716756
0.0066893284
-0.0043497973
0.0046716686
-0.0050189858
0.0021610999
-0.0058771784
-0.00093023398
-0.0068583386
-0.004671626
-0.0077767042
-0.0090742124
-0.0082661397
-0.01395563
-0.00776892
-0.018669229
-0.0057511678
-0.021601116
-0.0024366759
-0.019684357
-0.0093628321
-0.00050831696
0.0039804504
-0.0012457948
0.0086731209
-0.0017961721
0.010912285
-0.00204841
0.011656273
-0.0020330256
0.011572253
-0.001826034
0.011038197
-0.0015128648
0.010238035
-0.0011785731
0.0092363538
-0.00090544326
0.0080256094
-0.00077444652
0.0065583318
-0.00086419584
0.0047614181
-0.0012480289
0.002544933
-0.0019834553
-0.00019480744
-0.0030824295
-0.0035726518
-0.0044605127
-0.0076961291
-0.0058278652
-0.012588278
-0.0065664186
-0.017930675
-0.0057685734
-0.022398961
-0.0029512541
-0.022501676
-0.012314086
-0.00086861111
0.0048490615
-0.0017631559
0.0095676658
-0.0021216651
0.011270795
-0.0019372918
0.011471899
-0.0013514891
0.010986451
-0.00051685432
0.010203563
0.00043631353
0.0092848674
0.0013988525
0.008273815
0.0022716109
0.0071528511
0.0029601689
0.0058697738
0.0033684423
0.0043531448
0.003396142
0.0025172334
0.0029379473
0.00026338736
0.0019090765
-0.0025437809
0.00026922206
-0.0060562746
-0.001854543
-0.010464513
-0.0039518747
-0.015833343
-0.0048609916
-0.021489844
-0.003254752
-0.024107916
-0.015568838
-0.0015911287
0.0064401901
-0.0026109987
0.010587536
-0.00251341
0.011173207
-0.001590313
0.010548802
-0.00017269732
0.0095688348
0.0014921761
0.0085386892
0.0032322066
0.007544837
0.0049225124
0.0065835092
0.0064622696
0.0056130941
0.0077567997
0.0045752437
0.0087068525
0.0034030921
0.0092009019
0.0020231841
0.009102816
0.00036147328
0.0082746342
-0.001715599
0.0065650724
-0.0043467129
0.0039039184
-0.0078033588
0.00055872161
-0.012488147
-0.0024682041
-0.018462918
-0.0030273731
-0.023548747
-0.018596211
-0.0027183765
0.0091585667
-0.003149941
0.0110191
-0.0018031681
0.0098264338
0.00046642175
0.0082792128
0.003089034
0.0069462226
0.0057733267
0.0058543966
0.0083623427
0.004955821
0.010759799
0.0041860533
0.012892884
0.0034800093
0.014690071
0.0027780567
0.016067799
0.002025364
0.016922798
0.0011681852
0.017119297
0.00016497418
0.016490485
-0.0010867869
0.014816562
-0.0026727903
0.011846437
-0.0048332339
0.0074353229
-0.0080770321
0.0022628179
-0.013290413
-0.0012725176
-0.020013412
-0.019868729
-0.0024132645
0.011571831
2.8061054e-05
0.0085777739
0.0042550989
0.0055993956
0.0084160102
0.0041183015
0.012231286
0.0031309469
0.01565598
0.0024297023
0.018686193
0.0019256078
0.021328789
0.0015434573
0.02358307
0.0012257289
0.025428813
0.00093231371
0.02681979
0.00063438714
0.027676856
0.00031111966
0.027899933
-5.810353e-05
0.027347021
-0.00053387421
0.025771486
-0.0010972554
0.022842945
-0.0019046931
0.018054698
-0.0032887855
0.011113539
-0.006349254
0.0033886554
-0.012288528
-0.016480073
0.011571832
0.020149606
0.025749002
0.029867303
0.03299825
0.035427952
0.03735356
0.038897017
0.040122746
0.04105506
0.041689447
0.042000567
0.041942463
0.041408589
0.040311334
0.038406641
0.035117855
0.028768601
0.016480073
)
;

boundaryField
{
    movingWall
    {
        type            calculated;
        value           uniform 0;
    }
    fixedWalls
    {
        type            calculated;
        value           uniform 0;
    }
    frontAndBack
    {
        type            empty;
        value           nonuniform List<scalar> 0();
    }
}


// ************************************************************************* //
