/*--------------------------------*- C++ -*----------------------------------*\
| =========                 |                                                 |
| \\      /  F ield         | OpenFOAM: The Open Source CFD Toolbox           |
|  \\    /   O peration     | Version:  2112                                  |
|   \\  /    A nd           | Website:  www.openfoam.com                      |
|    \\/     M anipulation  |                                                 |
\*---------------------------------------------------------------------------*/
FoamFile
{
    version     2.0;
    format      ascii;
    arch        "LSB;label=32;scalar=64";
    class       volVectorField;
    location    "18";
    object      U;
}
// * * * * * * * * * * * * * * * * * * * * * * * * * * * * * * * * * * * * * //

dimensions      [0 1 -1 0 0 0 0];

internalField   nonuniform List<vector> 
400
(
(0.00028428382 -0.00028145385 0)
(0.00011046534 7.9926979e-05 0)
(-0.001327216 0.00047797659 0)
(-0.0036216591 0.00073585602 0)
(-0.0064231067 0.00086743401 0)
(-0.0094306064 0.00090717639 0)
(-0.012386809 0.00087477447 0)
(-0.015054969 0.00077144845 0)
(-0.017192862 0.00058842861 0)
(-0.018551055 0.00032005704 0)
(-0.018900841 -2.4795624e-05 0)
(-0.018084523 -0.00041820344 0)
(-0.016078557 -0.00079961794 0)
(-0.013047983 -0.0010929553 0)
(-0.0093658406 -0.0012210869 0)
(-0.0055774789 -0.0011293858 0)
(-0.0023004256 -0.00081282783 0)
(-8.3145753e-05 -0.00033799513 0)
(0.00075999467 0.00015223691 0)
(0.00040938618 0.00038928497 0)
(-8.6128058e-05 -0.00012365561 0)
(-0.0018691992 0.0017870329 0)
(-0.0063059544 0.0036256549 0)
(-0.012451406 0.0048619619 0)
(-0.019598549 0.0054979245 0)
(-0.027104003 0.0056200527 0)
(-0.034355146 0.0052854546 0)
(-0.040764462 0.0045039059 0)
(-0.045753293 0.0032659115 0)
(-0.048770836 0.0015895668 0)
(-0.049361719 -0.00043529769 0)
(-0.047249353 -0.002617765 0)
(-0.042448233 -0.004663914 0)
(-0.035358619 -0.0062181825 0)
(-0.026776693 -0.0069368655 0)
(-0.01782622 -0.0065916838 0)
(-0.0097751739 -0.0051794271 0)
(-0.0037463296 -0.0029993458 0)
(-0.00038890253 -0.00066566004 0)
(0.0002898216 0.00078339312 0)
(-0.00058804194 0.001433492 0)
(-0.0042423565 0.0063768054 0)
(-0.011757207 0.010639373 0)
(-0.021466173 0.013482068 0)
(-0.032362392 0.014896611 0)
(-0.043582929 0.015015703 0)
(-0.054281167 0.013934647 0)
(-0.06363538 0.011683052 0)
(-0.070848069 0.0082806532 0)
(-0.075180397 0.0038285447 0)
(-0.076031825 -0.0014053603 0)
(-0.073050693 -0.0069344872 0)
(-0.066260602 -0.012070104 0)
(-0.05616454 -0.015998349 0)
(-0.04377736 -0.017940854 0)
(-0.030567035 -0.017378358 0)
(-0.018249577 -0.014288897 0)
(-0.0084176243 -0.0093118287 0)
(-0.0021511271 -0.003761877 0)
(-2.0161281e-06 0.00031674636 0)
(-0.0010529338 0.0042999084 0)
(-0.0065140294 0.013564135 0)
(-0.016996968 0.020861608 0)
(-0.030027141 0.025558224 0)
(-0.044295151 0.027758238 0)
(-0.058777244 0.027684841 0)
(-0.072479063 0.025484908 0)
(-0.084437341 0.021216357 0)
(-0.093718671 0.014943966 0)
(-0.099453746 0.0068783166 0)
(-0.10091998 -0.0025001945 0)
(-0.09765345 -0.012376292 0)
(-0.08958487 -0.021602438 0)
(-0.077175516 -0.028821352 0)
(-0.06150005 -0.032702613 0)
(-0.044250263 -0.032296914 0)
(-0.027560298 -0.027443715 0)
(-0.013580934 -0.01907953 0)
(-0.0040261748 -0.0092704362 0)
(-0.00026773493 -0.0011083924 0)
(-0.0014556581 0.008364003 0)
(-0.0085479045 0.02317834 0)
(-0.02174336 0.034047443 0)
(-0.037787611 0.040758132 0)
(-0.055090038 0.043696606 0)
(-0.072510809 0.043254156 0)
(-0.088974037 0.039657309 0)
(-0.10344684 0.032998294 0)
(-0.11491987 0.023382606 0)
(-0.12242434 0.011116767 0)
(-0.12510309 -0.0031272222 0)
(-0.1223085 -0.018216104 0)
(-0.11375143 -0.032537106 0)
(-0.099689806 -0.044127381 0)
(-0.081093931 -0.050960923 0)
(-0.059771707 -0.051436414 0)
(-0.038288372 -0.045009945 0)
(-0.019519111 -0.032753316 0)
(-0.0060919643 -0.017491035 0)
(-0.00051100496 -0.0035221041 0)
(-0.0017886785 0.013473707 0)
(-0.010268345 0.03495639 0)
(-0.025802199 0.049902398 0)
(-0.044461258 0.058787682 0)
(-0.064420028 0.062451125 0)
(-0.084467866 0.061544172 0)
(-0.10350522 0.056410395 0)
(-0.12049093 0.047178133 0)
(-0.13439062 0.033968236 0)
(-0.14416037 0.017132445 0)
(-0.1487902 -0.0025336108 0)
(-0.14738082 -0.023632053 0)
(-0.13929987 -0.044136612 0)
(-0.12442591 -0.061435069 0)
(-0.10342387 -0.072634956 0)
(-0.078050208 -0.075167096 0)
(-0.051257274 -0.067701262 0)
(-0.026807589 -0.051120573 0)
(-0.0086117184 -0.02896403 0)
(-0.00078702269 -0.0070519976 0)
(-0.002041764 0.019433981 0)
(-0.01160422 0.048522754 0)
(-0.028992375 0.06798997 0)
(-0.049752084 0.079216659 0)
(-0.07188381 0.083648023 0)
(-0.094152304 0.082289152 0)
(-0.11548866 0.075642583 0)
(-0.13490246 0.063871842 0)
(-0.15139001 0.047073387 0)
(-0.16387127 0.025567878 0)
(-0.17117909 0.00016586176 0)
(-0.1721419 -0.027605285 0)
(-0.16570403 -0.055388906 0)
(-0.15118173 -0.07993689 0)
(-0.12869208 -0.09734176 0)
(-0.099663496 -0.10368956 0)
(-0.067237458 -0.09627853 0)
(-0.036116761 -0.075214905 0)
(-0.011928935 -0.044537118 0)
(-0.0011707296 -0.012000986 0)
(-0.0022010389 0.026010041 0)
(-0.012483401 0.063411742 0)
(-0.031136761 0.087754004 0)
(-0.05334937 0.10147871 0)
(-0.077010553 0.10676571 0)
(-0.10090315 0.10506343 0)
(-0.12403977 0.097079731 0)
(-0.14554045 0.083015412 0)
(-0.16449773 0.06289915 0)
(-0.17986384 0.036930913 0)
(-0.19038727 0.0057987466 0)
(-0.19464415 -0.029027321 0)
(-0.19112548 -0.065009569 0)
(-0.17847994 -0.098380775 0)
(-0.15601643 -0.12416624 0)
(-0.1244381 -0.13675171 0)
(-0.086641784 -0.13131935 0)
(-0.048060978 -0.10622561 0)
(-0.016428355 -0.065389217 0)
(-0.0017536599 -0.018877455 0)
(-0.0022555187 0.032929245 0)
(-0.012852676 0.079079191 0)
(-0.032096403 0.10852273 0)
(-0.054977662 0.12485083 0)
(-0.079329099 0.13107973 0)
(-0.10398708 0.12918751 0)
(-0.12809215 0.12014181 0)
(-0.15093621 0.10419481 0)
(-0.17178807 0.08127497 0)
(-0.18973538 0.051375656 0)
(-0.20356702 0.014918862 0)
(-0.21172012 -0.02686956 0)
(-0.21231657 -0.071523126 0)
(-0.20333006 -0.11501479 0)
(-0.18305543 -0.15143453 0)
(-0.15101159 -0.17327228 0)
(-0.10916076 -0.17281015 0)
(-0.063023368 -0.14523463 0)
(-0.022523776 -0.092972555 0)
(-0.0026587772 -0.028420646 0)
(-0.0022085341 0.039900018 0)
(-0.012716474 0.094933855 0)
(-0.03183974 0.12952652 0)
(-0.054494166 0.14844367 0)
(-0.078496389 0.15562105 0)
(-0.10276646 0.15365365 0)
(-0.12661632 0.1438358 0)
(-0.14957119 0.12650633 0)
(-0.17116547 0.10148901 0)
(-0.19075043 0.068517259 0)
(-0.20732195 0.027631163 0)
(-0.21937269 -0.020387525 0)
(-0.2248828 -0.073452488 0)
(-0.22130156 -0.12767718 0)
(-0.20584978 -0.17660745 0)
(-0.17647147 -0.21097823 0)
(-0.13334244 -0.21959994 0)
(-0.08089628 -0.19274295 0)
(-0.030640594 -0.12884554 0)
(-0.0040698321 -0.041634816 0)
(-0.0020933627 0.046658591 0)
(-0.012189664 0.11040767 0)
(-0.030535879 0.14995144 0)
(-0.052016875 0.1712274 0)
(-0.074463927 0.17917744 0)
(-0.096918614 0.17710787 0)
(-0.11891273 0.16671936 0)
(-0.14026536 0.14849576 0)
(-0.16086125 0.12218915 0)
(-0.18044276 0.087273008 0)
(-0.19840277 0.043356395 0)
(-0.21353671 -0.0093828357 0)
(-0.22401428 -0.069667388 0)
(-0.22708209 -0.13412217 0)
(-0.2190881 -0.19644049 0)
(-0.1962643 -0.24623844 0)
(-0.15621672 -0.26884658 0)
(-0.10070398 -0.24797597 0)
(-0.041144763 -0.17432663 0)
(-0.0062703332 -0.05983099 0)
(-0.0019964635 0.053052901 0)
(-0.011566039 0.12507275 0)
(-0.028661986 0.16903086 0)
(-0.048058063 0.19209355 0)
(-0.06764027 0.20034165 0)
(-0.086646152 0.19789979 0)
(-0.10489868 0.18695715 0)
(-0.12257281 0.16821202 0)
(-0.13996799 0.14140626 0)
(-0.15730212 0.1057998 0)
(-0.17452046 0.060575779 0)
(-0.19108868 0.0052324215 0)
(-0.20560629 -0.059913689 0)
(-0.21550973 -0.13259753 0)
(-0.21690399 -0.2075162 0)
(-0.20457919 -0.27430545 0)
(-0.17317465 -0.31570468 0)
(-0.1201699 -0.30806751 0)
(-0.054146516 -0.22987451 0)
(-0.0096746004 -0.084649545 0)
(-0.0020998521 0.05918018 0)
(-0.011415987 0.13880593 0)
(-0.027117764 0.18615992 0)
(-0.043628459 0.20993233 0)
(-0.058985962 0.21758731 0)
(-0.072783605 0.2141855 0)
(-0.085256726 0.20246432 0)
(-0.097008828 0.18338833 0)
(-0.10879705 0.156754 0)
(-0.12135934 0.12168749 0)
(-0.13526332 0.077019534 0)
(-0.15071213 0.021624571 0)
(-0.167131 -0.045102738 0)
(-0.18274802 -0.12250692 0)
(-0.19406007 -0.20711616 0)
(-0.19523962 -0.29010395 0)
(-0.17829668 -0.35357365 0)
(-0.13540603 -0.36742673 0)
(-0.06908861 -0.29414362 0)
(-0.014794766 -0.11798039 0)
(-0.0027680429 0.065616649 0)
(-0.012742629 0.15199008 0)
(-0.027333566 0.20098543 0)
(-0.040250059 0.22367045 0)
(-0.049935887 0.22931806 0)
(-0.056652256 0.22402653 0)
(-0.061242705 0.21107238 0)
(-0.064827148 0.19167684 0)
(-0.068632579 0.16571889 0)
(-0.07388731 0.13227512 0)
(-0.081740623 0.089964435 0)
(-0.093132316 0.037206203 0)
(-0.10848092 -0.027471826 0)
(-0.12722448 -0.10496852 0)
(-0.14706343 -0.19421259 0)
(-0.16281068 -0.28947794 0)
(-0.16509554 -0.37509035 0)
(-0.14090378 -0.41771754 0)
(-0.084061951 -0.36280553 0)
(-0.022011499 -0.16156986 0)
(-0.0047199909 0.073832493 0)
(-0.017224412 0.1657199 0)
(-0.03128878 0.21336877 0)
(-0.039690134 0.2321632 0)
(-0.041892662 0.23379164 0)
(-0.039362183 0.22538529 0)
(-0.033825135 0.21060557 0)
(-0.027013989 0.19080676 0)
(-0.020606215 0.16589695 0)
(-0.016229777 0.13494096 0)
(-0.01549049 0.096474865 0)
(-0.019939149 0.048695566 0)
(-0.030931403 -0.010406303 0)
(-0.04924599 -0.082913853 0)
(-0.074409444 -0.17013668 0)
(-0.10328519 -0.27049629 0)
(-0.12726086 -0.37368893 0)
(-0.12973865 -0.44868095 0)
(-0.094916035 -0.42750021 0)
(-0.030930742 -0.21612418 0)
(-0.0093003995 0.086951061 0)
(-0.027434158 0.18184921 0)
(-0.040986356 0.22302673 0)
(-0.04268693 0.23378131 0)
(-0.034415384 0.22879389 0)
(-0.019634681 0.21591559 0)
(-0.0012520096 0.19877448 0)
(0.018331008 0.1785615 0)
(0.0370566 0.15508276 0)
(0.053040955 0.12736084 0)
(0.064407416 0.093939628 0)
(0.069217654 0.053019236 0)
(0.065402852 0.0024679283 0)
(0.051036338 -0.060333974 0)
(0.024633149 -0.13837167 0)
(-0.013710294 -0.23416704 0)
(-0.058760361 -0.34516626 0)
(-0.093515211 -0.44953578 0)
(-0.094471721 -0.47558374 0)
(-0.03921642 -0.28047979 0)
(-0.018580589 0.11087146 0)
(-0.046041325 0.20177458 0)
(-0.055234114 0.22792755 0)
(-0.043991504 0.22501213 0)
(-0.019381602 0.210607 0)
(0.012322171 0.19227458 0)
(0.04698032 0.1727807 0)
(0.081740438 0.15265136 0)
(0.11442381 0.13135203 0)
(0.14313937 0.10779648 0)
(0.16600364 0.080594035 0)
(0.18096899 0.048115644 0)
(0.18556514 0.0084533024 0)
(0.17715609 -0.040813491 0)
(0.15275116 -0.10317265 0)
(0.10948184 -0.18390335 0)
(0.047234878 -0.28855243 0)
(-0.021443235 -0.41050829 0)
(-0.072254803 -0.49101465 0)
(-0.041147899 -0.35054106 0)
(-0.033352258 0.15561607 0)
(-0.068602374 0.22040408 0)
(-0.055189676 0.21729041 0)
(-0.016083018 0.19532136 0)
(0.034504634 0.17091986 0)
(0.088499262 0.14849112 0)
(0.14175841 0.12860971 0)
(0.19195775 0.11057568 0)
(0.23752889 0.093296853 0)
(0.27710844 0.075575507 0)
(0.30920703 0.056182925 0)
(0.33203319 0.033825522 0)
(0.34316684 0.0070299044 0)
(0.33982141 -0.025907857 0)
(0.31812642 -0.067739501 0)
(0.27327239 -0.12410629 0)
(0.20044343 -0.2058461 0)
(0.10213703 -0.32506835 0)
(-0.012388705 -0.45457084 0)
(-0.023757023 -0.40863995 0)
(-0.033080924 0.2390738 0)
(-0.042646823 0.21792053 0)
(0.042207016 0.16426593 0)
(0.12760319 0.12783469 0)
(0.207695 0.10143396 0)
(0.28027692 0.081656541 0)
(0.34486686 0.066646734 0)
(0.40157559 0.054702091 0)
(0.45054252 0.044399085 0)
(0.49161216 0.034640121 0)
(0.52415401 0.024551291 0)
(0.54697909 0.013382762 0)
(0.55821647 0.00040094893 0)
(0.55570474 -0.015136119 0)
(0.53552279 -0.034968144 0)
(0.49244419 -0.06248748 0)
(0.41797107 -0.10694728 0)
(0.30410481 -0.19317533 0)
(0.12313716 -0.33691898 0)
(0.05237399 -0.39437907 0)
(0.24299949 0.15257502 0)
(0.30529679 0.11854318 0)
(0.45481283 0.076108266 0)
(0.56000917 0.050840105 0)
(0.63223281 0.035125836 0)
(0.68654782 0.024811988 0)
(0.72943604 0.017959803 0)
(0.76379339 0.013255725 0)
(0.79127597 0.0097621365 0)
(0.8127481 0.0068544401 0)
(0.82840828 0.0041187188 0)
(0.83794139 0.0012771307 0)
(0.84056885 -0.0018439627 0)
(0.83497444 -0.0053260125 0)
(0.81886647 -0.0098287468 0)
(0.7894286 -0.016232615 0)
(0.73784302 -0.026935667 0)
(0.65316778 -0.051286577 0)
(0.45609773 -0.11374608 0)
(0.31788989 -0.17206007 0)
)
;

boundaryField
{
    movingWall
    {
        type            fixedValue;
        value           uniform (1 0 0);
    }
    fixedWalls
    {
        type            fixedValue;
        value           uniform (0 0 0);
    }
    frontAndBack
    {
        type            empty;
    }
}


// ************************************************************************* //
