/*--------------------------------*- C++ -*----------------------------------*\
| =========                 |                                                 |
| \\      /  F ield         | OpenFOAM: The Open Source CFD Toolbox           |
|  \\    /   O peration     | Version:  2112                                  |
|   \\  /    A nd           | Website:  www.openfoam.com                      |
|    \\/     M anipulation  |                                                 |
\*---------------------------------------------------------------------------*/
FoamFile
{
    version     2.0;
    format      ascii;
    arch        "LSB;label=32;scalar=64";
    class       volVectorField;
    location    "18";
    object      U_0;
}
// * * * * * * * * * * * * * * * * * * * * * * * * * * * * * * * * * * * * * //

dimensions      [0 1 -1 0 0 0 0];

internalField   nonuniform List<vector> 
400
(
(0.00028428343 -0.00028145367 0)
(0.00011046476 7.992702e-05 0)
(-0.0013272158 0.00047797639 0)
(-0.0036216576 0.00073585564 0)
(-0.0064231035 0.00086743353 0)
(-0.0094306014 0.00090717587 0)
(-0.012386802 0.00087477394 0)
(-0.01505496 0.00077144796 0)
(-0.017192852 0.00058842824 0)
(-0.018551044 0.00032005689 0)
(-0.018900831 -2.4795497e-05 0)
(-0.018084514 -0.00041820307 0)
(-0.016078549 -0.00079961739 0)
(-0.013047977 -0.0010929546 0)
(-0.0093658375 -0.0012210862 0)
(-0.0055774779 -0.0011293853 0)
(-0.0023004261 -0.00081282757 0)
(-8.314676e-05 -0.00033799522 0)
(0.00075999385 0.00015223657 0)
(0.00040938588 0.00038928466 0)
(-8.6128167e-05 -0.00012365533 0)
(-0.0018691984 0.0017870321 0)
(-0.0063059509 0.0036256528 0)
(-0.012451398 0.004861959 0)
(-0.019598537 0.0054979211 0)
(-0.027103986 0.0056200492 0)
(-0.034355124 0.0052854513 0)
(-0.040764436 0.0045039032 0)
(-0.045753265 0.0032659097 0)
(-0.048770806 0.0015895663 0)
(-0.04936169 -0.00043529667 0)
(-0.047249327 -0.0026177625 0)
(-0.042448212 -0.0046639105 0)
(-0.035358602 -0.0062181784 0)
(-0.026776682 -0.0069368614 0)
(-0.017826214 -0.0065916804 0)
(-0.0097751718 -0.005179425 0)
(-0.0037463297 -0.0029993453 0)
(-0.00038890332 -0.00066566076 0)
(0.00028982121 0.00078339224 0)
(-0.0005880416 0.0014334915 0)
(-0.0042423537 0.0063768017 0)
(-0.011757199 0.010639367 0)
(-0.021466158 0.013482059 0)
(-0.03236237 0.014896601 0)
(-0.043582899 0.015015693 0)
(-0.054281131 0.013934639 0)
(-0.063635338 0.011683046 0)
(-0.070848024 0.0082806492 0)
(-0.075180351 0.003828544 0)
(-0.07603178 -0.0014053572 0)
(-0.073050652 -0.0069344805 0)
(-0.066260567 -0.012070094 0)
(-0.056164512 -0.015998338 0)
(-0.04377734 -0.017940844 0)
(-0.030567022 -0.017378349 0)
(-0.018249571 -0.014288891 0)
(-0.0084176224 -0.009311826 0)
(-0.0021511271 -0.0037618772 0)
(-2.0163697e-06 0.00031674512 0)
(-0.001052933 0.0042999059 0)
(-0.0065140246 0.013564127 0)
(-0.016996956 0.020861594 0)
(-0.030027119 0.025558206 0)
(-0.04429512 0.027758219 0)
(-0.058777203 0.027684823 0)
(-0.072479014 0.025484892 0)
(-0.084437286 0.021216345 0)
(-0.093718612 0.014943959 0)
(-0.099453686 0.0068783163 0)
(-0.10091992 -0.0025001885 0)
(-0.097653396 -0.01237628 0)
(-0.089584823 -0.021602421 0)
(-0.077175478 -0.028821332 0)
(-0.061500022 -0.032702594 0)
(-0.044250243 -0.032296897 0)
(-0.027560288 -0.027443703 0)
(-0.013580929 -0.019079524 0)
(-0.0040261738 -0.0092704347 0)
(-0.00026773502 -0.0011083935 0)
(-0.0014556569 0.0083639973 0)
(-0.0085478979 0.023178324 0)
(-0.021743344 0.034047419 0)
(-0.037787583 0.040758104 0)
(-0.055089999 0.043696577 0)
(-0.072510759 0.043254129 0)
(-0.088973978 0.039657286 0)
(-0.10344678 0.032998277 0)
(-0.1149198 0.023382597 0)
(-0.12242427 0.011116767 0)
(-0.12510302 -0.0031272127 0)
(-0.12230843 -0.018216086 0)
(-0.11375137 -0.032537081 0)
(-0.099689759 -0.044127352 0)
(-0.081093895 -0.050960894 0)
(-0.059771682 -0.051436387 0)
(-0.038288357 -0.045009925 0)
(-0.019519103 -0.032753304 0)
(-0.0060919622 -0.01749103 0)
(-0.00051100487 -0.0035221045 0)
(-0.0017886771 0.013473697 0)
(-0.010268337 0.034956365 0)
(-0.02580218 0.049902363 0)
(-0.044461227 0.058787643 0)
(-0.064419985 0.062451085 0)
(-0.084467812 0.061544134 0)
(-0.10350515 0.056410363 0)
(-0.12049086 0.04717811 0)
(-0.13439055 0.033968224 0)
(-0.14416029 0.017132446 0)
(-0.14879013 -0.002533598 0)
(-0.14738075 -0.023632029 0)
(-0.13929981 -0.044136579 0)
(-0.12442585 -0.06143503 0)
(-0.10342383 -0.072634915 0)
(-0.078050177 -0.075167058 0)
(-0.051257254 -0.067701231 0)
(-0.026807579 -0.051120553 0)
(-0.0086117152 -0.028964021 0)
(-0.00078702241 -0.0070519967 0)
(-0.0020417625 0.019433967 0)
(-0.011604213 0.04852272 0)
(-0.028992356 0.067989924 0)
(-0.049752053 0.079216607 0)
(-0.071883766 0.083647971 0)
(-0.09415225 0.082289104 0)
(-0.1154886 0.075642544 0)
(-0.13490239 0.063871814 0)
(-0.15138994 0.047073373 0)
(-0.16387119 0.025567878 0)
(-0.17117902 0.00016587742 0)
(-0.17214183 -0.027605256 0)
(-0.16570397 -0.055388865 0)
(-0.15118167 -0.079936841 0)
(-0.12869203 -0.097341708 0)
(-0.09966346 -0.10368951 0)
(-0.067237434 -0.096278488 0)
(-0.036116748 -0.075214875 0)
(-0.011928931 -0.044537103 0)
(-0.0011707291 -0.012000983 0)
(-0.0022010376 0.026010023 0)
(-0.012483394 0.063411699 0)
(-0.031136744 0.087753946 0)
(-0.053349342 0.10147865 0)
(-0.077010513 0.10676564 0)
(-0.1009031 0.10506337 0)
(-0.12403972 0.097079684 0)
(-0.14554038 0.083015379 0)
(-0.16449766 0.062899133 0)
(-0.17986378 0.036930913 0)
(-0.1903872 0.0057987642 0)
(-0.19464408 -0.029027288 0)
(-0.19112542 -0.065009522 0)
(-0.17847989 -0.098380718 0)
(-0.15601638 -0.12416618 0)
(-0.12443807 -0.13675165 0)
(-0.086641757 -0.13131929 0)
(-0.048060962 -0.10622557 0)
(-0.01642835 -0.065389195 0)
(-0.0017536592 -0.01887745 0)
(-0.0022555176 0.032929223 0)
(-0.012852671 0.079079139 0)
(-0.03209639 0.10852266 0)
(-0.054977639 0.12485076 0)
(-0.079329067 0.13107965 0)
(-0.10398704 0.12918745 0)
(-0.12809211 0.12014175 0)
(-0.15093616 0.10419478 0)
(-0.17178802 0.081274952 0)
(-0.18973533 0.051375656 0)
(-0.20356697 0.014918881 0)
(-0.21172007 -0.026869524 0)
(-0.21231652 -0.071523075 0)
(-0.20333002 -0.11501473 0)
(-0.18305539 -0.15143447 0)
(-0.15101155 -0.17327221 0)
(-0.10916073 -0.17281008 0)
(-0.063023352 -0.14523458 0)
(-0.022523769 -0.092972525 0)
(-0.0026587762 -0.028420637 0)
(-0.0022085335 0.039899993 0)
(-0.012716471 0.094933798 0)
(-0.031839732 0.12952644 0)
(-0.054494151 0.14844359 0)
(-0.078496369 0.15562098 0)
(-0.10276644 0.15365358 0)
(-0.12661629 0.14383575 0)
(-0.14957116 0.12650629 0)
(-0.17116544 0.10148899 0)
(-0.1907504 0.06851726 0)
(-0.20732192 0.027631183 0)
(-0.21937267 -0.020387488 0)
(-0.22488277 -0.073452437 0)
(-0.22130154 -0.12767711 0)
(-0.20584975 -0.17660738 0)
(-0.17647144 -0.21097816 0)
(-0.13334242 -0.21959987 0)
(-0.080896265 -0.19274289 0)
(-0.030640587 -0.1288455 0)
(-0.0040698308 -0.041634804 0)
(-0.0020933628 0.046658565 0)
(-0.012189664 0.11040761 0)
(-0.030535878 0.14995136 0)
(-0.052016871 0.17122731 0)
(-0.074463921 0.17917736 0)
(-0.096918607 0.1771078 0)
(-0.11891273 0.16671931 0)
(-0.14026536 0.14849572 0)
(-0.16086124 0.12218913 0)
(-0.18044276 0.08727301 0)
(-0.19840277 0.043356416 0)
(-0.21353671 -0.0093827984 0)
(-0.22401428 -0.069667338 0)
(-0.22708208 -0.13412211 0)
(-0.21908809 -0.19644042 0)
(-0.19626429 -0.24623836 0)
(-0.15621671 -0.2688465 0)
(-0.10070397 -0.2479759 0)
(-0.041144756 -0.17432658 0)
(-0.0062703316 -0.059830974 0)
(-0.0019964643 0.053052876 0)
(-0.011566042 0.12507269 0)
(-0.028661992 0.16903078 0)
(-0.04805807 0.19209346 0)
(-0.067640279 0.20034157 0)
(-0.086646164 0.19789972 0)
(-0.1048987 0.18695709 0)
(-0.12257283 0.16821199 0)
(-0.13996801 0.14140624 0)
(-0.15730214 0.10579981 0)
(-0.17452049 0.060575801 0)
(-0.19108871 0.0052324581 0)
(-0.20560631 -0.059913641 0)
(-0.21550975 -0.13259747 0)
(-0.21690401 -0.20751614 0)
(-0.2045792 -0.27430539 0)
(-0.17317465 -0.31570461 0)
(-0.1201699 -0.30806744 0)
(-0.054146511 -0.22987446 0)
(-0.0096745988 -0.084649525 0)
(-0.0020998534 0.059180157 0)
(-0.011415993 0.13880588 0)
(-0.027117777 0.18615985 0)
(-0.043628479 0.20993224 0)
(-0.058985987 0.21758723 0)
(-0.072783636 0.21418543 0)
(-0.085256763 0.20246427 0)
(-0.09700887 0.1833883 0)
(-0.10879709 0.15675399 0)
(-0.12135938 0.1216875 0)
(-0.13526338 0.077019556 0)
(-0.15071218 0.021624606 0)
(-0.16713104 -0.045102694 0)
(-0.18274807 -0.12250687 0)
(-0.1940601 -0.20711611 0)
(-0.19523964 -0.29010389 0)
(-0.1782967 -0.35357359 0)
(-0.13540604 -0.36742666 0)
(-0.069088608 -0.29414357 0)
(-0.014794764 -0.11798036 0)
(-0.0027680446 0.06561663 0)
(-0.012742638 0.15199003 0)
(-0.027333585 0.20098537 0)
(-0.04025009 0.22367038 0)
(-0.049935928 0.22931799 0)
(-0.056652304 0.22402647 0)
(-0.06124276 0.21107234 0)
(-0.064827211 0.19167681 0)
(-0.068632646 0.16571889 0)
(-0.073887378 0.13227513 0)
(-0.081740691 0.089964458 0)
(-0.093132383 0.037206236 0)
(-0.10848098 -0.027471786 0)
(-0.12722454 -0.10496848 0)
(-0.14706349 -0.19421254 0)
(-0.16281072 -0.2894779 0)
(-0.16509557 -0.3750903 0)
(-0.1409038 -0.41771749 0)
(-0.084061953 -0.36280549 0)
(-0.022011499 -0.16156984 0)
(-0.0047199933 0.073832481 0)
(-0.017224422 0.16571986 0)
(-0.031288803 0.21336872 0)
(-0.039690173 0.23216314 0)
(-0.041892715 0.23379158 0)
(-0.039362244 0.22538524 0)
(-0.033825204 0.21060553 0)
(-0.027014064 0.19080674 0)
(-0.020606294 0.16589694 0)
(-0.016229857 0.13494097 0)
(-0.015490569 0.096474887 0)
(-0.019939224 0.048695597 0)
(-0.030931473 -0.010406268 0)
(-0.049246055 -0.082913816 0)
(-0.074409501 -0.17013664 0)
(-0.10328524 -0.27049626 0)
(-0.12726089 -0.3736889 0)
(-0.12973867 -0.44868091 0)
(-0.094916042 -0.42750018 0)
(-0.030930742 -0.21612416 0)
(-0.0093004025 0.086951056 0)
(-0.02743417 0.18184919 0)
(-0.04098638 0.22302669 0)
(-0.04268697 0.23378126 0)
(-0.034415441 0.22879384 0)
(-0.01963475 0.21591555 0)
(-0.0012520863 0.19877445 0)
(0.018330926 0.17856148 0)
(0.037056516 0.15508275 0)
(0.053040872 0.12736085 0)
(0.064407336 0.093939646 0)
(0.069217579 0.053019262 0)
(0.065402783 0.0024679577 0)
(0.051036276 -0.060333945 0)
(0.024633094 -0.13837165 0)
(-0.01371034 -0.23416702 0)
(-0.058760397 -0.34516624 0)
(-0.093515235 -0.44953575 0)
(-0.09447173 -0.47558372 0)
(-0.039216422 -0.28047978 0)
(-0.018580591 0.11087146 0)
(-0.046041336 0.20177457 0)
(-0.055234138 0.22792753 0)
(-0.043991539 0.2250121 0)
(-0.019381652 0.21060696 0)
(0.012322107 0.19227455 0)
(0.046980246 0.17278068 0)
(0.081740359 0.15265134 0)
(0.11442373 0.13135202 0)
(0.14313929 0.10779648 0)
(0.16600356 0.080594049 0)
(0.18096892 0.048115664 0)
(0.18556508 0.0084533249 0)
(0.17715603 -0.040813468 0)
(0.15275112 -0.10317263 0)
(0.1094818 -0.18390334 0)
(0.047234847 -0.28855242 0)
(-0.021443257 -0.41050828 0)
(-0.072254813 -0.49101463 0)
(-0.041147901 -0.35054104 0)
(-0.033352255 0.15561607 0)
(-0.068602378 0.22040408 0)
(-0.055189694 0.2172904 0)
(-0.016083043 0.19532134 0)
(0.034504599 0.17091984 0)
(0.088499215 0.1484911 0)
(0.14175835 0.1286097 0)
(0.19195769 0.11057567 0)
(0.23752882 0.093296849 0)
(0.27710837 0.07557551 0)
(0.30920697 0.056182933 0)
(0.33203314 0.033825535 0)
(0.34316679 0.0070299192 0)
(0.33982137 -0.025907842 0)
(0.31812638 -0.067739488 0)
(0.27327237 -0.12410628 0)
(0.20044341 -0.20584609 0)
(0.10213701 -0.32506835 0)
(-0.012388713 -0.45457084 0)
(-0.023757025 -0.40863995 0)
(-0.033080919 0.2390738 0)
(-0.042646816 0.21792052 0)
(0.042207013 0.16426593 0)
(0.12760318 0.12783469 0)
(0.20769498 0.10143395 0)
(0.28027689 0.081656532 0)
(0.34486683 0.066646726 0)
(0.40157555 0.054702086 0)
(0.45054248 0.044399083 0)
(0.49161212 0.034640122 0)
(0.52415397 0.024551294 0)
(0.54697905 0.013382768 0)
(0.55821644 0.00040095558 0)
(0.55570471 -0.015136113 0)
(0.53552277 -0.034968138 0)
(0.49244418 -0.062487476 0)
(0.41797106 -0.10694728 0)
(0.3041048 -0.19317532 0)
(0.12313716 -0.33691898 0)
(0.052373988 -0.39437907 0)
(0.24299949 0.15257501 0)
(0.30529679 0.11854317 0)
(0.45481284 0.076108264 0)
(0.56000917 0.050840105 0)
(0.6322328 0.035125835 0)
(0.68654781 0.024811987 0)
(0.72943602 0.017959801 0)
(0.76379338 0.013255724 0)
(0.79127595 0.0097621361 0)
(0.81274808 0.0068544405 0)
(0.82840826 0.0041187199 0)
(0.83794138 0.0012771322 0)
(0.84056884 -0.0018439614 0)
(0.83497443 -0.0053260112 0)
(0.81886647 -0.0098287456 0)
(0.7894286 -0.016232614 0)
(0.73784302 -0.026935667 0)
(0.65316779 -0.051286577 0)
(0.45609773 -0.11374608 0)
(0.31788989 -0.17206007 0)
)
;

boundaryField
{
    movingWall
    {
        type            fixedValue;
        value           uniform (1 0 0);
    }
    fixedWalls
    {
        type            fixedValue;
        value           uniform (0 0 0);
    }
    frontAndBack
    {
        type            empty;
    }
}


// ************************************************************************* //
