/*--------------------------------*- C++ -*----------------------------------*\
| =========                 |                                                 |
| \\      /  F ield         | OpenFOAM: The Open Source CFD Toolbox           |
|  \\    /   O peration     | Version:  2112                                  |
|   \\  /    A nd           | Website:  www.openfoam.com                      |
|    \\/     M anipulation  |                                                 |
\*---------------------------------------------------------------------------*/
FoamFile
{
    version     2.0;
    format      ascii;
    arch        "LSB;label=32;scalar=64";
    class       volScalarField;
    location    "47.5";
    object      p;
}
// * * * * * * * * * * * * * * * * * * * * * * * * * * * * * * * * * * * * * //

dimensions      [0 2 -2 0 0 0 0];

internalField   nonuniform List<scalar> 
8800
(
0.871774
0.823986
0.785294
0.756296
0.735428
0.720591
0.709987
0.702497
0.697664
0.695588
0.696836
0.701009
0.707642
0.716948
0.72972
0.747448
0.772222
0.80616
0.848707
0.907409
0.703029
0.710707
0.718178
0.721484
0.719977
0.714894
0.708402
0.702315
0.697578
0.694719
0.694419
0.696905
0.701377
0.70731
0.714069
0.720342
0.723978
0.723239
0.717815
0.709122
0.681441
0.6876
0.691725
0.694665
0.696708
0.697305
0.69619
0.694073
0.692041
0.691113
0.692053
0.694414
0.697197
0.699365
0.699962
0.698755
0.696407
0.693009
0.688449
0.684688
0.67565
0.678299
0.681047
0.683445
0.685073
0.686226
0.686956
0.687058
0.686745
0.686672
0.687399
0.688545
0.689365
0.689414
0.688792
0.687691
0.685867
0.683291
0.680884
0.67938
0.670295
0.671718
0.673493
0.675518
0.677294
0.678624
0.6796
0.68038
0.680972
0.681509
0.68213
0.682597
0.682672
0.682364
0.681651
0.680389
0.678683
0.676827
0.675515
0.674684
0.665251
0.666171
0.667407
0.668965
0.670587
0.672099
0.673367
0.674413
0.675351
0.676211
0.676863
0.677155
0.677083
0.676617
0.675715
0.674498
0.673157
0.671886
0.671059
0.670508
0.660386
0.661055
0.662011
0.663304
0.664701
0.666143
0.667563
0.66886
0.670027
0.671093
0.671867
0.67219
0.672066
0.671523
0.670688
0.669718
0.668687
0.667749
0.667159
0.666754
0.655654
0.65617
0.656947
0.658067
0.65933
0.660685
0.662107
0.663549
0.664938
0.666223
0.667171
0.667583
0.667506
0.667076
0.666435
0.665679
0.664879
0.664179
0.66374
0.663424
0.650986
0.651396
0.652046
0.653039
0.654228
0.655533
0.65695
0.658469
0.660043
0.661578
0.662748
0.66333
0.663426
0.663198
0.662766
0.66221
0.661607
0.661092
0.660762
0.660506
0.646299
0.646633
0.647193
0.648107
0.649244
0.650531
0.651977
0.653584
0.655331
0.657134
0.658596
0.659446
0.659796
0.659799
0.659579
0.659231
0.658809
0.658448
0.658201
0.657987
0.641508
0.641785
0.642284
0.643149
0.644266
0.645573
0.647084
0.648819
0.650775
0.652887
0.654719
0.655919
0.656572
0.65684
0.656849
0.656707
0.656463
0.656235
0.656054
0.655871
0.636529
0.636761
0.63722
0.638069
0.639206
0.640575
0.642194
0.644109
0.646339
0.648836
0.651122
0.65274
0.653748
0.654315
0.654576
0.654642
0.654574
0.654464
0.654338
0.654176
0.631277
0.631473
0.631913
0.632775
0.633972
0.635448
0.63723
0.639392
0.641975
0.644959
0.647797
0.64991
0.651329
0.652233
0.652775
0.653055
0.65317
0.653173
0.653093
0.652948
0.625658
0.625826
0.626262
0.627166
0.628465
0.630098
0.632108
0.634598
0.637634
0.641229
0.644737
0.647439
0.649338
0.650628
0.651485
0.652027
0.652321
0.652426
0.652385
0.652249
0.619562
0.619705
0.620153
0.621127
0.622574
0.624423
0.626736
0.629641
0.633244
0.637588
0.641913
0.645328
0.647801
0.649546
0.650759
0.651579
0.652076
0.65229
0.652286
0.652157
0.612861
0.612978
0.613452
0.61453
0.616175
0.618311
0.621014
0.624449
0.628762
0.634025
0.639343
0.643614
0.646769
0.649049
0.650678
0.651814
0.652539
0.652866
0.652896
0.652771
0.605392
0.605485
0.606001
0.607215
0.609115
0.611613
0.614816
0.618925
0.624128
0.630526
0.637047
0.642341
0.646301
0.649212
0.65134
0.652842
0.653819
0.654265
0.654329
0.654203
0.596929
0.597025
0.597592
0.598961
0.601191
0.604161
0.608004
0.612965
0.619279
0.627074
0.635048
0.641559
0.64647
0.65012
0.652847
0.654781
0.65604
0.656613
0.65671
0.656581
0.587194
0.587269
0.587923
0.589509
0.592161
0.595736
0.600386
0.606415
0.614108
0.623617
0.633345
0.641311
0.647354
0.651887
0.655305
0.657752
0.659339
0.660052
0.660182
0.660046
0.575814
0.575871
0.57662
0.578518
0.581714
0.586065
0.591752
0.599142
0.608561
0.620162
0.632001
0.64169
0.649065
0.654635
0.65885
0.661904
0.663861
0.664725
0.664885
0.664738
0.562261
0.562305
0.563197
0.5655
0.569414
0.574788
0.581832
0.590982
0.602591
0.616771
0.631114
0.6428
0.651706
0.658485
0.663641
0.667385
0.669751
0.670771
0.670957
0.670796
0.545776
0.545807
0.546913
0.549791
0.554695
0.561458
0.570312
0.581748
0.596099
0.613401
0.630705
0.644722
0.655393
0.663548
0.669794
0.674325
0.677136
0.67831
0.678515
0.678335
0.525263
0.525291
0.526729
0.530459
0.536779
0.545492
0.556828
0.571293
0.589127
0.61021
0.630944
0.647578
0.660237
0.66994
0.677389
0.682821
0.686098
0.687412
0.687621
0.687418
0.498955
0.499003
0.50102
0.506144
0.514667
0.526265
0.541118
0.559625
0.581827
0.607392
0.632014
0.651534
0.666353
0.677769
0.686519
0.69291
0.696638
0.698055
0.698244
0.698014
0.463825
0.463973
0.467185
0.474888
0.487155
0.503157
0.523014
0.54682
0.574363
0.60511
0.634039
0.656667
0.673768
0.686982
0.697175
0.704514
0.708618
0.710064
0.710201
0.709942
0.414121
0.41508
0.421496
0.434519
0.453311
0.476148
0.502925
0.53345
0.567317
0.603849
0.637332
0.663142
0.682558
0.69758
0.709209
0.717393
0.721719
0.723087
0.723142
0.722853
0.340927
0.348124
0.363032
0.386033
0.414562
0.446552
0.481794
0.520066
0.560972
0.603824
0.642277
0.671585
0.693577
0.71066
0.723846
0.732858
0.737381
0.738697
0.738712
0.738457
0.261982
0.279047
0.303251
0.336872
0.375558
0.416869
0.460692
0.50697
0.555391
0.605355
0.64981
0.683598
0.708957
0.728637
0.743817
0.753736
0.758286
0.759447
0.759494
0.759361
0.196249
0.216384
0.248313
0.29089
0.338552
0.388653
0.440797
0.494919
0.550702
0.607568
0.65776
0.695742
0.72421
0.746233
0.762926
0.773337
0.77778
0.779021
0.779167
0.779112
0.142401
0.164205
0.201636
0.250616
0.305347
0.362846
0.422353
0.483675
0.546379
0.609815
0.665443
0.707343
0.738642
0.762705
0.780742
0.791942
0.79705
0.798243
0.798379
0.798365
0.0974763
0.120471
0.161691
0.215756
0.276183
0.33979
0.405609
0.473323
0.542344
0.611894
0.672608
0.718164
0.752082
0.778114
0.797559
0.809743
0.815267
0.816513
0.816707
0.816725
0.0592071
0.0828927
0.126963
0.185075
0.25028
0.319079
0.390376
0.463761
0.538517
0.613709
0.679162
0.728099
0.764439
0.792244
0.812914
0.825932
0.831906
0.833386
0.833661
0.833712
0.0255906
0.0497506
0.0960944
0.157512
0.226755
0.30006
0.376213
0.454704
0.534714
0.615154
0.685033
0.737103
0.775625
0.804956
0.826656
0.84028
0.846629
0.848447
0.848791
0.848842
-0.00484262
0.0197382
0.0679487
0.132196
0.204915
0.282161
0.36266
0.445801
0.530679
0.616053
0.690116
0.745105
0.785595
0.816278
0.838803
0.852883
0.859545
0.86159
0.861968
0.862004
-0.0330226
-0.00804972
0.0417876
0.10844
0.184224
0.264961
0.349359
0.436759
0.526181
0.616244
0.694325
0.7521
0.794424
0.826292
0.849391
0.863765
0.870636
0.872829
0.873224
0.873237
-0.0597197
-0.0343116
0.0170305
0.0857843
0.164288
0.248137
0.336059
0.42737
0.521052
0.615602
0.697606
0.758136
0.802249
0.835142
0.858655
0.873171
0.880158
0.882475
0.882858
0.882842
-0.0852574
-0.0594086
-0.00691454
0.0639117
0.144829
0.231471
0.322583
0.417495
0.515171
0.614045
0.699951
0.763288
0.809203
0.843059
0.866935
0.881571
0.888628
0.890961
0.891338
0.89129
-0.110032
-0.0836093
-0.0300465
0.0425961
0.125667
0.214816
0.308825
0.407046
0.508463
0.611514
0.701358
0.767624
0.815413
0.850233
0.874448
0.889168
0.896226
0.898507
0.898873
0.898808
-0.134158
-0.107287
-0.0525374
0.0217023
0.1067
0.198099
0.294725
0.395979
0.500889
0.60798
0.701827
0.771193
0.820986
0.85682
0.881392
0.896164
0.90317
0.905381
0.905668
0.905558
-0.157739
-0.130318
-0.074529
0.00116066
0.0878906
0.181298
0.280275
0.384286
0.49244
0.60342
0.701332
0.774013
0.826006
0.862977
0.887942
0.902713
0.90954
0.911601
0.9118
0.911645
-0.180888
-0.152866
-0.0960762
-0.019052
0.0692227
0.164423
0.265504
0.372
0.483133
0.59782
0.699828
0.776058
0.83054
0.868847
0.894235
0.908889
0.915414
0.917229
0.917331
0.917146
-0.203607
-0.174905
-0.11717
-0.0389242
0.0507363
0.147514
0.250465
0.359173
0.473009
0.591171
0.697256
0.777265
0.8346
0.874569
0.900456
0.914806
0.920813
0.922295
0.922296
0.922093
-0.225735
-0.196391
-0.137752
-0.058418
0.0324712
0.13064
0.235223
0.345887
0.462134
0.583504
0.693553
0.777533
0.838141
0.880263
0.906876
0.920714
0.925844
0.926824
0.926711
0.926508
-0.247245
-0.217295
-0.157804
-0.077479
0.0144905
0.113868
0.219873
0.332223
0.450594
0.574852
0.688669
0.776729
0.841047
0.885966
0.913842
0.927121
0.930832
0.930894
0.930595
0.930444
-0.268204
-0.237574
-0.177296
-0.0960722
-0.00314098
0.097282
0.204505
0.318289
0.438482
0.565281
0.682559
0.774711
0.843111
0.891537
0.921621
0.93487
0.936738
0.934949
0.934055
0.934161
-0.288436
-0.257205
-0.196167
-0.114132
-0.0203622
0.0809659
0.189216
0.304197
0.425918
0.554887
0.675216
0.771317
0.844049
0.896572
0.930057
0.944873
0.945668
0.941214
0.938147
0.937534
-0.308032
-0.276178
-0.214434
-0.131685
-0.0372057
0.0648745
0.173947
0.289887
0.412829
0.543594
0.666503
0.766274
0.843535
0.900478
0.938341
0.957185
0.95986
0.954221
0.945287
0.930476
-0.326917
-0.29448
-0.232218
-0.14893
-0.0539619
0.0486716
0.15828
0.274873
0.398676
0.530756
0.655764
0.758778
0.840946
0.902383
0.944455
0.968986
0.9745
0.962797
0.943414
0.930456
-0.344912
-0.312248
-0.249323
-0.165641
-0.0703004
0.0327054
0.142443
0.259482
0.383767
0.516641
0.643092
0.748409
0.835569
0.901154
0.943856
0.967993
0.976905
0.954948
0.886672
0.855718
-0.361352
-0.330716
-0.265414
-0.181255
-0.0854734
0.0174818
0.126743
0.243943
0.368321
0.501375
0.62844
0.734906
0.826134
0.896214
0.931841
0.949498
0.942864
0.890316
0.821081
0.778356
-0.417769
-0.346992
-0.280118
-0.196843
-0.101051
0.00155552
0.111118
0.227977
0.351974
0.484515
0.611224
0.717717
0.808977
0.88581
0.89182
0.898299
0.853409
0.78518
0.709087
0.666636
-0.379073
-0.362833
-0.301974
-0.218352
-0.123827
-0.0213515
0.0872282
0.203447
0.326454
0.457479
0.581944
0.686339
0.769359
0.84946
0.839801
0.730566
0.627289
0.555383
0.482615
0.514355
-0.410604
-0.38094
-0.319059
-0.236196
-0.14162
-0.0393639
0.0694939
0.185089
0.307052
0.436271
0.557823
0.657918
0.732511
0.774734
0.727849
0.582387
0.456523
0.366289
0.267959
0.319172
-0.434958
-0.402345
-0.33917
-0.256058
-0.161383
-0.0592081
0.0495966
0.164389
0.284998
0.411837
0.529628
0.623708
0.689327
0.698211
0.593739
0.42259
0.271193
0.153354
0.0225856
0.0560313
-0.458833
-0.424652
-0.36027
-0.27624
-0.181381
-0.079304
0.0290266
0.142904
0.261983
0.386092
0.499258
0.5863
0.636563
0.614432
0.458003
0.262922
0.0733163
-0.094224
-0.282941
-0.300322
-0.482095
-0.447475
-0.382177
-0.297355
-0.202258
-0.100338
0.00740182
0.120258
0.23757
0.358591
0.466484
0.54612
0.577791
0.519988
0.328912
0.119377
-0.0975455
-0.286812
-0.529298
-0.830357
-0.50567
-0.471049
-0.405186
-0.319829
-0.224474
-0.122654
-0.0154252
0.0963921
0.211851
0.329562
0.431952
0.503251
0.515231
0.406591
0.216747
0.00770975
-0.196223
-0.368425
-0.436962
-0.517452
-0.530495
-0.495833
-0.429652
-0.344012
-0.248537
-0.1469
-0.0402636
0.0703606
0.183673
0.297585
0.394112
0.454687
0.442204
0.299974
0.117312
-0.0727963
-0.234984
-0.327412
-0.351339
-0.367374
-0.556896
-0.522145
-0.455752
-0.369995
-0.274579
-0.173286
-0.0674705
0.0416773
0.152451
0.261952
0.352118
0.399153
0.369057
0.201094
0.0273111
-0.13773
-0.2637
-0.302443
-0.315488
-0.316785
-0.58508
-0.550152
-0.483548
-0.397769
-0.302547
-0.201817
-0.0970641
0.0102924
0.118119
0.222663
0.305615
0.33855
0.290055
0.10965
-0.0550955
-0.202887
-0.278978
-0.295799
-0.297125
-0.296921
-0.615102
-0.57989
-0.513063
-0.427326
-0.332455
-0.23248
-0.129047
-0.0238091
0.0806878
0.179801
0.254698
0.276255
0.19208
0.026048
-0.130579
-0.252513
-0.288748
-0.287185
-0.286142
-0.28553
-0.646674
-0.611241
-0.544189
-0.458579
-0.364213
-0.265221
-0.163388
-0.060603
0.0401862
0.133467
0.200132
0.205322
0.102014
-0.0518409
-0.190416
-0.266087
-0.276079
-0.278375
-0.278936
-0.278537
-0.679224
-0.643668
-0.576672
-0.491302
-0.397632
-0.29988
-0.199936
-0.0999612
-0.00322294
0.0839997
0.142418
0.132946
0.0207975
-0.118697
-0.23414
-0.264457
-0.273134
-0.274767
-0.274411
-0.273951
-0.712301
-0.676647
-0.610035
-0.525097
-0.432364
-0.336138
-0.238419
-0.141604
-0.0492913
0.0320868
0.0807078
0.0648938
-0.0542251
-0.175164
-0.2651
-0.280961
-0.272506
-0.270928
-0.270633
-0.270303
-0.74502
-0.709532
-0.643421
-0.559338
-0.467866
-0.373522
-0.278393
-0.185077
-0.0975653
-0.0217046
0.0177741
0.00376398
-0.11835
-0.225816
-0.273686
-0.280531
-0.273709
-0.268048
-0.265846
-0.265289
-0.775782
-0.741095
-0.675879
-0.593103
-0.503368
-0.411325
-0.319209
-0.229739
-0.147258
-0.0769249
-0.03991
-0.0631814
-0.163831
-0.274726
-0.288674
-0.289744
-0.27602
-0.263595
-0.258678
-0.256968
-0.803047
-0.769386
-0.706289
-0.625245
-0.537822
-0.448599
-0.359994
-0.274775
-0.197346
-0.132899
-0.0947334
-0.125617
-0.186803
-0.282159
-0.341933
-0.30506
-0.279885
-0.268941
-0.263904
-0.261486
-0.824692
-0.792822
-0.732437
-0.654329
-0.569915
-0.484181
-0.399638
-0.319151
-0.246905
-0.188625
-0.151697
-0.177896
-0.178444
-0.175923
-0.255486
-0.276566
-0.30927
-0.321474
-0.319485
-0.315994
-0.838503
-0.809347
-0.752639
-0.678412
-0.59808
-0.516682
-0.436878
-0.361585
-0.294977
-0.243439
-0.207106
-0.249235
-0.19238
-0.00585034
-0.090064
-0.284475
-0.395779
-0.424561
-0.423477
-0.423391
-0.841804
-0.816713
-0.764834
-0.695654
-0.620542
-0.544513
-0.470172
-0.400648
-0.340377
-0.296284
-0.259785
-0.362694
-0.457419
-0.366196
-0.39692
-0.476189
-0.507859
-0.508104
-0.505809
-0.507777
-0.832632
-0.812314
-0.766824
-0.704392
-0.635719
-0.565988
-0.497821
-0.434487
-0.381184
-0.345568
-0.321815
-0.524936
-0.897762
-1.35381
-1.30918
-0.943388
-0.70877
-0.620181
-0.594869
-0.589824
-0.808762
-0.793262
-0.756785
-0.703276
-0.642407
-0.579787
-0.518135
-0.460768
-0.414044
-0.385481
-0.388924
-0.568204
-0.932074
-1.44527
-1.47105
-0.915438
-0.578541
-0.482859
-0.464492
-0.458479
-0.772255
-0.762132
-0.735183
-0.692272
-0.640308
-0.585309
-0.529811
-0.477593
-0.434154
-0.408312
-0.400854
-0.364708
-0.145404
0.160345
0.18948
0.0851785
-0.10812
-0.178256
-0.177001
-0.165382
-0.729147
-0.723413
-0.706465
-0.673895
-0.631148
-0.582997
-0.532883
-0.483427
-0.440187
-0.409928
-0.395678
-0.216503
0.161741
0.616421
0.625179
0.252265
0.0254061
-0.0821996
-0.0767085
-0.0962986
-0.688433
-0.685076
-0.676416
-0.653206
-0.617778
-0.57507
-0.528341
-0.479907
-0.433588
-0.399768
-0.394888
-0.371903
-0.495465
-0.840398
-1.28158
-1.66511
-1.68492
-1.4803
-1.22929
-1.10115
-0.657014
-0.654938
-0.6505
-0.634855
-0.604982
-0.564909
-0.51893
-0.467781
-0.415619
-0.370143
-0.352774
-0.409511
-0.641368
-1.01895
-1.33545
-1.42498
-1.32238
-1.12179
-0.935813
-0.840962
-0.631204
-0.630373
-0.628993
-0.620504
-0.595424
-0.556217
-0.507359
-0.451214
-0.388849
-0.317752
-0.25544
-0.194891
-0.235603
-0.2393
-0.215716
-0.0875534
0.148604
0.391333
0.556889
0.619629
-0.61473
-0.614244
-0.613724
-0.609925
-0.589859
-0.54975
-0.49632
-0.432066
-0.356025
-0.265715
-0.155079
0.0141639
0.214631
0.470484
0.770057
1.11291
1.4635
1.70993
1.83988
1.88097
-0.603908
-0.603634
-0.603169
-0.602155
-0.58701
-0.546595
-0.488026
-0.415391
-0.327283
-0.219773
-0.0864283
0.05045
0.30548
0.679785
1.17345
1.64543
2.01375
2.23949
2.3437
2.37254
-0.596789
-0.596176
-0.594639
-0.593739
-0.585055
-0.548213
-0.48505
-0.404424
-0.307419
-0.194213
-0.0638348
0.0776921
0.269276
0.666333
1.13705
1.57343
1.9002
2.08426
2.16421
2.18406
-0.601054
-0.598204
-0.592192
-0.589789
-0.59021
-0.558754
-0.488327
-0.398326
-0.296244
-0.180708
-0.0585865
0.0697617
0.207168
0.502854
0.89339
1.227
1.48128
1.61999
1.67808
1.69147
-0.633948
-0.630753
-0.628853
-0.631749
-0.632636
-0.586032
-0.496199
-0.392517
-0.285708
-0.172343
-0.0628133
0.0411062
0.135751
0.335103
0.61193
0.850253
1.02788
1.1242
1.16391
1.17073
-0.688818
-0.694352
-0.709508
-0.717543
-0.699471
-0.617099
-0.497405
-0.379368
-0.271001
-0.165587
-0.073711
0.00655234
0.0746763
0.212476
0.395162
0.549861
0.662531
0.722657
0.746899
0.751084
-0.6884
-0.701955
-0.723161
-0.73011
-0.697608
-0.594772
-0.465291
-0.348458
-0.248433
-0.158181
-0.085226
-0.0278411
0.0190569
0.110916
0.232025
0.331524
0.398511
0.432548
0.445756
0.447622
-0.544034
-0.557281
-0.574877
-0.579868
-0.549709
-0.470627
-0.378935
-0.29096
-0.212795
-0.143404
-0.0898464
-0.0512724
-0.0176584
0.0476343
0.120432
0.178194
0.216882
0.236363
0.244223
0.244675
-0.303371
-0.310244
-0.320812
-0.328883
-0.321452
-0.29422
-0.25559
-0.211207
-0.165421
-0.12022
-0.0875137
-0.0693993
-0.0556638
-0.00319013
0.0485102
0.0841772
0.104454
0.112915
0.115628
0.11546
-0.0871576
-0.0903192
-0.0983059
-0.111975
-0.127885
-0.138623
-0.139945
-0.131379
-0.114681
-0.0932013
-0.0790624
-0.0769992
-0.0797571
-0.0400597
-0.00239789
0.0224871
0.0356011
0.0412749
0.0431297
0.0428481
0.0444307
0.0425362
0.0353303
0.0187028
-0.00723512
-0.0344651
-0.0555421
-0.0671415
-0.0688746
-0.0634769
-0.0602106
-0.0656843
-0.0680332
-0.0400449
-0.0135805
0.000455035
0.00618861
0.00783798
0.00826099
0.00792541
0.101162
0.0997757
0.0936341
0.0783485
0.053323
0.0247837
-0.00103409
-0.020267
-0.030878
-0.0336779
-0.034363
-0.038467
-0.038255
-0.0172599
-0.00164589
0.00482691
0.00555433
0.00504225
0.0047539
0.00428482
0.114836
0.113801
0.109187
0.0974781
0.0778811
0.0542164
0.0307896
0.011244
-0.00173923
-0.00665945
-0.0045189
-0.000971201
0.00514688
0.0204747
0.024858
0.0246001
0.0224041
0.021098
0.0206566
0.020162
0.109118
0.108436
0.105308
0.0971843
0.0832155
0.0655417
0.0470073
0.0307167
0.0195269
0.0166794
0.0239787
0.0388761
0.0572508
0.065829
0.0607799
0.0547239
0.0506367
0.0493558
0.0485431
0.047747
0.09613
0.0957366
0.0937635
0.0884545
0.079028
0.0666401
0.0530659
0.0407706
0.0325615
0.0324494
0.0453716
0.0691454
0.093589
0.0963817
0.0868705
0.079385
0.0766381
0.0763095
0.0759728
0.0748716
0.0810299
0.0808278
0.0796575
0.0763389
0.0702161
0.0618703
0.0524335
0.0437576
0.038274
0.0402007
0.0552745
0.081296
0.106029
0.104872
0.095363
0.0912977
0.0912229
0.0925441
0.0923371
0.0909201
0.0658015
0.0657196
0.0650733
0.0631098
0.0592943
0.0538521
0.0474842
0.0414319
0.0375931
0.0396053
0.0526563
0.0743574
0.0924186
0.088903
0.0821794
0.0818098
0.0853167
0.0882951
0.0883402
0.0869252
0.0514889
0.0514366
0.0510717
0.0499914
0.0476866
0.044208
0.0398762
0.0354094
0.0319982
0.0320384
0.0390725
0.0515184
0.0600266
0.0548275
0.0523726
0.0560634
0.0612947
0.0640656
0.0640832
0.0629375
0.0385177
0.0384778
0.0382681
0.037693
0.0364006
0.0342026
0.0311116
0.0273609
0.0233425
0.0198167
0.0181399
0.0174927
0.0145908
0.00919072
0.0106695
0.0190057
0.0260309
0.0288459
0.0289378
0.0280596
0.0274016
0.0273405
0.0272071
0.0269065
0.0262062
0.0247753
0.0223673
0.0187767
0.0136658
0.00602123
-0.0052605
-0.020071
-0.0374093
-0.0421959
-0.032608
-0.0204932
-0.0128471
-0.0103037
-0.00999878
-0.0104473
0.0184138
0.0183331
0.0182131
0.0180493
0.0176529
0.0166429
0.0146789
0.0110772
0.00497451
-0.00593902
-0.0254545
-0.0535987
-0.0772077
-0.0784676
-0.064223
-0.0509469
-0.0448817
-0.0426644
-0.0421236
-0.0422486
0.0115587
0.0114674
0.011346
0.0112172
0.010968
0.0102027
0.00849955
0.00524789
-0.000938589
-0.0133908
-0.0367534
-0.0701493
-0.0958007
-0.0923859
-0.0766269
-0.0651088
-0.061311
-0.0604564
-0.0597773
-0.0596707
0.00658645
0.00650282
0.00638219
0.00627204
0.00609558
0.00556425
0.00426026
0.00154896
-0.00370186
-0.0147354
-0.0361301
-0.0666208
-0.0875819
-0.0797213
-0.0668836
-0.0608521
-0.0591579
-0.0590939
-0.0584711
-0.0583157
0.00305603
0.00297857
0.00288732
0.00283476
0.00274865
0.00246391
0.00168102
6.16929e-05
-0.00320828
-0.0103691
-0.0244072
-0.0446779
-0.0561413
-0.0478484
-0.0400237
-0.0389592
-0.039299
-0.0397666
-0.0393707
-0.0393108
0.000673481
0.000648284
0.000634103
0.000577443
0.000506154
0.000528277
0.00047433
0.000290581
-0.000212368
-0.00117217
-0.0029348
-0.00683323
-0.0117821
-0.00994597
-0.0105266
-0.0111872
-0.0117356
-0.0110851
-0.00993356
-0.00933659
-0.0519552
0.116075
0.312567
0.483951
0.621238
0.729779
0.819749
0.89619
0.930803
0.9075
0.253741
0.375343
0.506212
0.61946
0.715073
0.794325
0.858489
0.903992
0.926775
0.938812
0.47453
0.557994
0.647443
0.726561
0.794653
0.851636
0.896936
0.930015
0.953895
0.971847
0.636535
0.696159
0.758482
0.81599
0.866055
0.908566
0.943471
0.971301
0.994188
1.01247
0.762824
0.806276
0.85254
0.896637
0.935592
0.969608
0.998714
1.02293
1.04337
1.0612
0.867666
0.900742
0.939055
0.974789
1.00758
1.03696
1.06263
1.0842
1.1021
1.11944
0.960541
0.989349
1.02346
1.05571
1.08576
1.11302
1.13684
1.15661
1.17214
1.18922
1.04933
1.07861
1.1127
1.14481
1.17448
1.20112
1.22403
1.24255
1.25595
1.27298
1.14476
1.17802
1.21471
1.24834
1.27842
1.30464
1.32662
1.34392
1.35581
1.37321
1.25983
1.29769
1.33637
1.37064
1.40001
1.42478
1.44517
1.46107
1.47255
1.49062
1.40482
1.44338
1.47954
1.51025
1.53594
1.55805
1.57712
1.59265
1.60509
1.62309
1.57993
1.61156
1.63775
1.66021
1.68019
1.69892
1.71665
1.73313
1.74848
1.76655
1.76856
1.78577
1.80081
1.81705
1.83296
1.8475
1.8607
1.87463
1.89218
1.91233
1.95028
1.95983
1.97137
1.98219
1.99147
2.00106
2.01185
2.02322
2.03458
2.04994
2.15754
2.1612
2.14625
2.13144
2.12517
2.13085
2.14933
2.17964
2.21182
2.23847
2.46385
2.32899
2.25235
2.20998
2.19256
2.19652
2.22392
2.28033
2.38295
2.60732
0.762374
0.760244
0.75576
0.747133
0.734904
0.722769
0.712532
0.704624
0.69899
0.695714
0.695332
0.698043
0.703124
0.710329
0.719704
0.731235
0.74388
0.75491
0.761019
0.764071
0.686834
0.69268
0.699012
0.703501
0.705966
0.705635
0.702889
0.699066
0.695539
0.693255
0.693079
0.695246
0.698885
0.703154
0.706947
0.70882
0.707876
0.704388
0.699222
0.6926
0.678421
0.680717
0.684119
0.687111
0.68918
0.690667
0.691411
0.69108
0.690036
0.689127
0.689269
0.690662
0.69245
0.693734
0.693897
0.692993
0.691435
0.689091
0.685823
0.6829
0.672928
0.674014
0.675844
0.678217
0.680233
0.681651
0.682659
0.683393
0.683773
0.683965
0.684418
0.685186
0.685751
0.685791
0.685357
0.684492
0.68301
0.680916
0.678824
0.677438
0.667748
0.668411
0.669516
0.671214
0.672987
0.674607
0.675888
0.676883
0.677739
0.678493
0.679177
0.679683
0.679836
0.679636
0.679043
0.677967
0.676522
0.674966
0.67364
0.672858
0.662801
0.663262
0.664045
0.665336
0.666812
0.668315
0.669762
0.671036
0.67214
0.673154
0.674015
0.674524
0.67462
0.674304
0.673573
0.672557
0.671409
0.670261
0.669336
0.668816
0.658009
0.658354
0.658962
0.660022
0.661304
0.662662
0.664079
0.665497
0.666832
0.668061
0.669105
0.669725
0.669839
0.66951
0.668868
0.668056
0.667177
0.66629
0.665605
0.665225
0.65332
0.653588
0.654078
0.654978
0.656133
0.657411
0.658781
0.660235
0.661731
0.663189
0.664456
0.665236
0.665458
0.66527
0.664822
0.664217
0.663532
0.662865
0.662359
0.662069
0.648653
0.648866
0.649273
0.650062
0.651135
0.652361
0.653717
0.655212
0.656829
0.65851
0.660043
0.661061
0.661499
0.661532
0.661298
0.660898
0.660408
0.659926
0.659556
0.659328
0.643925
0.644096
0.644444
0.645159
0.646185
0.647387
0.648765
0.650335
0.652095
0.654011
0.655861
0.657206
0.65794
0.658237
0.658234
0.658046
0.657751
0.657431
0.657174
0.656993
0.639051
0.63919
0.639496
0.640166
0.641173
0.642395
0.643833
0.645518
0.647472
0.649676
0.651913
0.653668
0.654758
0.655359
0.655616
0.65565
0.655546
0.655381
0.655218
0.655072
0.633947
0.634059
0.634337
0.634986
0.636009
0.637296
0.638839
0.640695
0.64291
0.645481
0.648198
0.650446
0.651954
0.652902
0.653449
0.653719
0.653809
0.653797
0.653715
0.653597
0.628523
0.628612
0.628873
0.629527
0.630603
0.631998
0.6337
0.635792
0.638348
0.641391
0.644702
0.647539
0.649537
0.650884
0.651756
0.652299
0.6526
0.652728
0.652717
0.652621
0.62268
0.622748
0.623001
0.623683
0.624849
0.626399
0.628322
0.630729
0.633716
0.63735
0.641389
0.644938
0.64752
0.649338
0.65058
0.651425
0.651956
0.652234
0.652291
0.652214
0.616297
0.616344
0.616599
0.61733
0.618627
0.620386
0.622602
0.625411
0.628947
0.633312
0.63824
0.642653
0.645935
0.648308
0.649984
0.651166
0.651961
0.6524
0.652524
0.652462
0.609234
0.609262
0.609521
0.610324
0.611794
0.613826
0.616419
0.619743
0.623969
0.629235
0.635249
0.640707
0.644829
0.647861
0.650046
0.65162
0.652718
0.653331
0.653522
0.653473
0.601305
0.601321
0.601579
0.602484
0.604179
0.60655
0.609629
0.613613
0.618714
0.625111
0.632455
0.639155
0.644262
0.648064
0.650854
0.652903
0.654342
0.655144
0.655404
0.655366
0.592218
0.592202
0.592521
0.593555
0.595535
0.598352
0.602054
0.606865
0.613054
0.62084
0.629798
0.638
0.644287
0.649006
0.652512
0.655128
0.65696
0.657974
0.658306
0.658277
0.581702
0.58166
0.582023
0.583246
0.585586
0.588976
0.593469
0.599333
0.606894
0.616401
0.627324
0.637317
0.644996
0.650798
0.655148
0.658418
0.66071
0.661962
0.66237
0.662347
0.569284
0.569215
0.569654
0.571119
0.573935
0.578075
0.583592
0.590813
0.600115
0.611758
0.625056
0.637182
0.646487
0.65355
0.658895
0.662921
0.66574
0.667252
0.667737
0.667717
0.554332
0.554234
0.554792
0.556603
0.560056
0.565202
0.572085
0.581089
0.592627
0.606937
0.623089
0.637688
0.648876
0.657389
0.663887
0.668785
0.672195
0.673983
0.674539
0.674517
0.535931
0.535804
0.536556
0.538868
0.543215
0.549755
0.558501
0.569872
0.584271
0.601853
0.621405
0.638893
0.652236
0.662412
0.670217
0.676114
0.680183
0.682255
0.682871
0.682839
0.51269
0.512544
0.513624
0.516715
0.522409
0.530991
0.54239
0.557006
0.575147
0.596786
0.620315
0.641029
0.65674
0.66874
0.677984
0.684999
0.689762
0.692104
0.692757
0.692704
0.482278
0.482153
0.483837
0.488287
0.496247
0.508019
0.523311
0.542376
0.565281
0.591778
0.619859
0.644171
0.662458
0.676425
0.687224
0.695451
0.700887
0.703444
0.704092
0.704006
0.440567
0.440603
0.44363
0.450932
0.463084
0.480077
0.501144
0.526214
0.55508
0.58728
0.620409
0.648523
0.669481
0.685484
0.697912
0.707358
0.713357
0.716001
0.716585
0.716455
0.379868
0.381048
0.388486
0.402142
0.42199
0.447298
0.476504
0.509226
0.545148
0.583713
0.622204
0.654217
0.677854
0.695851
0.709846
0.720344
0.726736
0.729253
0.729666
0.729495
0.3075
0.309247
0.323519
0.347073
0.377727
0.412865
0.450977
0.491902
0.535447
0.581108
0.625919
0.662867
0.69011
0.710819
0.726811
0.738611
0.745401
0.747905
0.748334
0.748267
0.232675
0.238815
0.259923
0.293621
0.334584
0.37929
0.426295
0.475493
0.526769
0.579664
0.631004
0.673091
0.704062
0.727698
0.745974
0.758989
0.76591
0.768123
0.768383
0.768389
0.171507
0.17993
0.205634
0.246335
0.295312
0.348171
0.403191
0.460127
0.518772
0.578632
0.63622
0.683153
0.717572
0.743749
0.763818
0.777857
0.784878
0.787086
0.787669
0.787758
0.121705
0.130721
0.159975
0.205899
0.260979
0.320407
0.382199
0.445964
0.511333
0.577695
0.641179
0.692658
0.730272
0.758802
0.780563
0.795675
0.803327
0.806097
0.806803
0.80692
0.0798945
0.0891967
0.120912
0.170839
0.230905
0.295788
0.363315
0.43304
0.504439
0.576766
0.645727
0.701442
0.742017
0.772726
0.796163
0.812349
0.820867
0.824034
0.824848
0.824961
0.0437228
0.0531518
0.0867306
0.139858
0.204036
0.273564
0.346085
0.421083
0.497924
0.575731
0.649793
0.709444
0.752747
0.785404
0.810239
0.827391
0.836612
0.840104
0.841036
0.841157
0.0115415
0.0210276
0.056042
0.111876
0.179503
0.253023
0.329959
0.409695
0.491514
0.574408
0.653259
0.716593
0.762381
0.796771
0.822775
0.840683
0.850451
0.854285
0.855258
0.855381
-0.0178979
-0.00835017
0.0278404
0.0860094
0.156616
0.233626
0.314478
0.398504
0.484911
0.572582
0.655983
0.722815
0.770918
0.806864
0.833855
0.852293
0.862449
0.866499
0.867514
0.867621
-0.0454269
-0.0358186
0.00143793
0.0615977
0.134862
0.214961
0.299312
0.387236
0.477894
0.570081
0.657862
0.728088
0.778425
0.815804
0.843585
0.862329
0.872646
0.876861
0.877957
0.878045
-0.071593
-0.0618905
-0.0236407
0.0382141
0.113875
0.196723
0.284225
0.375703
0.470306
0.566775
0.658817
0.732428
0.785012
0.823763
0.852187
0.871171
0.881584
0.885881
0.886968
0.887051
-0.0968496
-0.0869545
-0.0478533
0.0156319
0.0934046
0.178711
0.269056
0.363777
0.462044
0.562579
0.658808
0.735877
0.790782
0.830909
0.85994
0.879135
0.889627
0.893908
0.894955
0.894963
-0.121413
-0.111282
-0.0714001
-0.00633971
0.0732976
0.160802
0.253711
0.35139
0.453046
0.557444
0.657817
0.73846
0.795825
0.837383
0.867029
0.886406
0.896918
0.901142
0.902133
0.902136
-0.145369
-0.135013
-0.0942786
-0.0278501
0.0534683
0.142946
0.238152
0.338514
0.443289
0.551337
0.655814
0.740192
0.800203
0.843312
0.873631
0.893189
0.903665
0.907757
0.908651
0.908615
-0.168844
-0.158168
-0.116677
-0.04895
0.0338839
0.125123
0.222381
0.325159
0.432785
0.54426
0.652771
0.741043
0.803951
0.84882
0.87991
0.899606
0.909926
0.913805
0.91455
0.914462
-0.191806
-0.180836
-0.13858
-0.0696596
0.0145498
0.107355
0.206442
0.311373
0.421573
0.536223
0.648656
0.740952
0.807063
0.853999
0.886021
0.905787
0.915763
0.919281
0.91985
0.919717
-0.214295
-0.203001
-0.159934
-0.0899446
-0.00450224
0.0896834
0.190384
0.297223
0.409715
0.52726
0.64344
0.73984
0.809474
0.858911
0.892161
0.911938
0.921293
0.924237
0.924586
0.924416
-0.236124
-0.22458
-0.180729
-0.109757
-0.0232158
0.0721886
0.174281
0.282788
0.397294
0.517439
0.637108
0.737614
0.811074
0.863544
0.898543
0.918436
0.926796
0.928772
0.928774
0.928577
-0.257432
-0.245531
-0.200943
-0.129072
-0.0415541
0.054915
0.15823
0.268155
0.384404
0.506843
0.62967
0.73417
0.811701
0.867768
0.905289
0.925828
0.932951
0.933251
0.932482
0.932233
-0.278051
-0.265823
-0.220539
-0.147838
-0.0594348
0.0379503
0.142314
0.253446
0.371157
0.495544
0.621171
0.729412
0.811152
0.871308
0.912251
0.93464
0.94109
0.939031
0.936284
0.935162
-0.298036
-0.285498
-0.239462
-0.165998
-0.0768171
0.0213658
0.126619
0.238744
0.357668
0.48368
0.611684
0.723255
0.809211
0.873747
0.918821
0.944728
0.95268
0.949459
0.942699
0.933796
-0.317304
-0.304513
-0.257808
-0.183709
-0.0939109
0.00487982
0.110805
0.22364
0.343478
0.470734
0.600662
0.715111
0.80533
0.874605
0.924124
0.95504
0.967782
0.965786
0.955627
0.949213
-0.335801