/*--------------------------------*- C++ -*----------------------------------*\
| =========                 |                                                 |
| \\      /  F ield         | OpenFOAM: The Open Source CFD Toolbox           |
|  \\    /   O peration     | Version:  2112                                  |
|   \\  /    A nd           | Website:  www.openfoam.com                      |
|    \\/     M anipulation  |                                                 |
\*---------------------------------------------------------------------------*/
FoamFile
{
    version     2.0;
    format      ascii;
    arch        "LSB;label=32;scalar=64";
    class       surfaceScalarField;
    location    "47.5";
    object      phi;
}
// * * * * * * * * * * * * * * * * * * * * * * * * * * * * * * * * * * * * * //

dimensions      [0 3 -1 0 0 0 0];

oriented        oriented;

internalField   nonuniform List<scalar> 
17370
(
-0.0916071
0.0960089
0.284609
-0.077594
0.0594191
0.36495
-0.0430419
0.031623
0.427587
-0.0223194
0.0162668
0.505304
-0.0116731
0.00879851
0.602277
-0.00658691
0.00510291
0.720541
-0.00386865
0.00299107
0.863784
-0.00222029
0.00164317
1.03603
-0.00111251
0.0006924
1.24292
-0.000282511
-0.000109514
1.49158
0.000496486
-0.000907461
1.4916
0.00130999
-0.00181359
1.24319
0.00236443
-0.00310965
1.03638
0.00397046
-0.00519385
0.86413
0.00667155
-0.00887553
0.721261
0.0117397
-0.0163181
0.603793
0.0223553
-0.0316427
0.508727
0.043045
-0.0594121
0.432535
0.0775899
-0.0960045
0.36519
0.0916204
0.19739
-0.127089
0.0880192
0.0390697
-0.364353
0.354026
-0.0714786
0.0818052
-0.446655
0.45425
-0.0791731
0.0715775
-0.521011
0.529106
-0.0637278
0.055632
-0.612989
0.620758
-0.0482461
0.0404772
-0.727162
0.733682
-0.0338657
0.027346
-0.86758
0.872428
-0.022145
0.0172976
-1.03856
1.0419
-0.0136031
0.0102658
-1.24472
1.24712
-0.00771571
0.00531055
-1.49284
1.49485
-0.00334713
0.00133366
-1.49269
1.49451
0.000485524
-0.00230398
-1.24411
1.24602
0.00427592
-0.00618624
-1.03761
1.04009
0.00852195
-0.0110033
-0.866188
0.869821
0.0142663
-0.0179001
-0.724595
0.729754
0.0226921
-0.0278507
-0.609066
0.615637
0.0343277
-0.0408989
-0.515125
0.522462
0.0486201
-0.055957
-0.43988
0.447661
0.0639817
-0.0717627
-0.37471
0.377356
0.079263
-0.081909
-0.2569
0.22444
0.0715595
-0.0390997
-0.0688055
0.0591913
0.00961421
-0.0521202
0.0589514
-0.374834
0.368003
-0.0581069
0.0542674
-0.453943
0.457783
-0.0487828
0.0442257
-0.527613
0.53217
-0.0396781
0.0357845
-0.620797
0.62469
-0.0315747
0.0275836
-0.734655
0.738646
-0.0232318
0.0193484
-0.87395
0.877834
-0.0153061
0.0118508
-1.04336
1.04681
-0.00833292
0.00530149
-1.24865
1.25168
-0.00209453
-0.000885858
-1.49694
1.49992
0.00384454
-0.00699105
-1.49742
1.50057
0.00993555
-0.0133379
-1.25007
1.25347
0.0166783
-0.0205927
-1.04565
1.04957
0.0243667
-0.0286116
-0.87714
0.881385
0.0325167
-0.03664
-0.738986
0.743109
0.0404594
-0.0449327
-0.625975
0.630448
0.049428
-0.0548524
-0.53502
0.540444
0.0586232
-0.059386
-0.45808
0.458843
0.0524439
-0.0320597
-0.33677
0.316386
0.00967183
-0.0686672
0.0589954
-0.0534009
0.0492872
0.00411371
-0.0332574
0.0436873
-0.358552
0.348122
-0.0473686
0.0467861
-0.459573
0.460155
-0.0438623
0.0406541
-0.536125
0.539333
-0.0369817
0.0336309
-0.628387
0.631738
-0.0300015
0.0267649
-0.742024
0.745261
-0.0233174
0.0201237
-0.881324
0.884518
-0.0165339
0.0131848
-1.05023
1.05358
-0.00948898
0.00608701
-1.25493
1.25834
-0.0022987
-0.00131551
-1.50327
1.50689
0.00489908
-0.00859861
-1.50407
1.50777
0.01188
-0.0154138
-1.25704
1.26057
0.0185997
-0.0220049
-1.05327
1.05668
0.0250387
-0.0283299
-0.884991
0.888282
0.0314405
-0.0349453
-0.746791
0.750296
0.0381888
-0.0417486
-0.634571
0.638131
0.044859
-0.0476733
-0.54459
0.547404
0.0481429
-0.0443047
-0.456962
0.453124
0.0336825
-0.0163741
-0.297074
0.279765
0.00417713
-0.0531472
0.04897
-0.0461164
0.0435582
0.00255818
-0.0230645
0.0334228
-0.337525
0.327166
-0.0391654
0.040121
-0.459903
0.458948
-0.0388766
0.0365537
-0.541988
0.544311
-0.033917
0.0313754
-0.634701
0.637243
-0.0284038
0.0255612
-0.748341
0.751184
-0.022329
0.0193193
-0.887568
0.890577
-0.0159725
0.0128428
-1.05675
1.05988
-0.00929199
0.0058977
-1.26173
1.26512
-0.0019929
-0.00180072
-1.51062
1.51441
0.00555583
-0.00934371
-1.51155
1.51534
0.0125808
-0.0159216
-1.26403
1.26737
0.0188396
-0.0219464
-1.05989
1.06299
0.0247421
-0.027757
-0.891475
0.89449
0.0304218
-0.0332194
-0.753475
0.756273
0.0356147
-0.0381022
-0.641088
0.643575
0.0402976
-0.0413732
-0.549244
0.55032
0.0402434
-0.0342465
-0.448006
0.442009
0.0236088
-0.010368
-0.264585
0.251344
0.00263664
-0.0457284
0.0430918
-0.0414383
0.0396352
0.00180303
-0.0169633
0.026259
-0.317291
0.307995
-0.0328663
0.0349956
-0.457383
0.455254
-0.0345694
0.0328769
-0.546338
0.54803
-0.030655
0.0285315
-0.639549
0.641673
-0.0260985
0.0237246
-0.753778
0.756152
-0.0209151
0.0181737
-0.893426
0.896167
-0.0149962
0.011969
-1.06292
1.06594
-0.00851251
0.00520483
-1.26843
1.27174
-0.00137293
-0.00236851
-1.51817
1.52191
0.0060611
-0.00974676
-1.51908
1.52277
0.0128562
-0.0160476
-1.27065
1.27384
0.0188068
-0.0216767
-1.06602
1.06889
0.0241397
-0.0266637
-0.897278
0.899802
0.0288049
-0.0310125
-0.758715
0.760922
0.0329488
-0.034979
-0.645804
0.647834
0.0364869
-0.0366847
-0.550906
0.551104
0.0342886
-0.0273105
-0.435427
0.428449
0.0176416
-0.0074651
-0.239779
0.229603
0.00189905
-0.0408853
0.0389862
-0.0380835
0.036729
0.00135451
-0.0129665
0.0209775
-0.299347
0.291336
-0.027759
0.0306925
-0.452695
0.449761
-0.0309095
0.0297923
-0.549465
0.550582
-0.0277985
0.0258767
-0.643724
0.645646
-0.0236706
0.0215355
-0.758386
0.760521
-0.0190357
0.0165753
-0.898705
0.901166
-0.0136651
0.01082
-1.06883
1.07168
-0.00750228
0.00429709
-1.27497
1.27817
-0.000576752
-0.00304333
-1.52557
1.52919
0.00660176
-0.0101387
-1.52638
1.52992
0.0130967
-0.0160837
-1.27696
1.27995
0.0185946
-0.0211217
-1.07161
1.07414
0.0232364
-0.0253792
-0.902117
0.90426
0.0272181
-0.0291344
-0.762969
0.764885
0.0308189
-0.0325841
-0.649707
0.651473
0.0334321
-0.0328947
-0.55094
0.550403
0.0295791
-0.0222902
-0.42126
0.413971
0.0138013
-0.00575992
-0.220596
0.212555
0.00147166
-0.0373291
0.0358575
-0.0355458
0.0345014
0.00104435
-0.010144
0.0169316
-0.283962
0.277175
-0.0234667
0.026867
-0.446578
0.443178
-0.0276668
0.0269864
-0.551475
0.552156
-0.0252321
0.0234581
-0.647531
0.649305
-0.0214056
0.0194083
-0.762582
0.764579
-0.0170582
0.0147523
-0.903482
0.905788
-0.0120415
0.00938411
-1.07436
1.07702
-0.0062562
0.00319981
-1.28126
1.28432
0.000375339
-0.00385552
-1.53272
1.5362
0.00726061
-0.0106088
-1.53336
1.53671
0.0133611
-0.0160833
-1.28283
1.28555
0.0183315
-0.0205712
-1.07653
1.07877
0.0224474
-0.0243501
-0.906292
0.908194
0.0259761
-0.0276668
-0.766681
0.768372
0.0291467
-0.0305847
-0.653088
0.654526
0.0309251
-0.0296789
-0.549522
0.548276
0.0257524
-0.0185513
-0.406704
0.399503
0.0111652
-0.00462649
-0.205336
0.198798
0.00118676
-0.0345464
0.0333596
-0.0335837
0.0327684
0.000815211
-0.0080537
0.0137702
-0.270953
0.265237
-0.0198335
0.0234442
-0.439666
0.436055
-0.0247319
0.0243032
-0.552745
0.553173
-0.0228243
0.0211628
-0.65107
0.652732
-0.019211
0.0173094
-0.766522
0.768424
-0.0150693
0.012868
-0.907973
0.910174
-0.0102752
0.0077396
-1.07954
1.08207
-0.00476674
0.0018621
-1.28725
1.29015
0.00153517
-0.00483894
-1.53957
1.54287
0.00805129
-0.0111729
-1.53994
1.54306
0.013704
-0.0161784
-1.28816
1.29064
0.01821
-0.0202228
-1.08092
1.08293
0.0218963
-0.0235861
-0.910008
0.911697
0.0250302
-0.0265345
-0.769967
0.771472
0.027829
-0.0289023
-0.655756
0.65683
0.0288836
-0.0269812
-0.546708
0.544806
0.0226732
-0.0157593
-0.392441
0.385527
0.00930119
-0.00383785
-0.192848
0.187385
0.00098835
-0.032286
0.0312977
-0.032051
0.0314127
0.000638392
-0.00644445
0.0112452
-0.260008
0.255207
-0.0167283
0.0203526
-0.43244
0.428816
-0.021979
0.0217879
-0.553523
0.553714
-0.0205565
0.018968
-0.654404
0.655993
-0.0170852
0.0152435
-0.770286
0.772128
-0.0130721
0.0109383
-0.912263
0.914397
-0.00842632
0.00597403
-1.08449
1.08694
-0.00310862
0.000327308
-1.29294
1.29572
0.00291047
-0.00603795
-1.54605
1.54918
0.00905264
-0.0119533
-1.54606
1.54896
0.0142852
-0.0165475
-1.29303
1.29529
0.0183878
-0.0201941
-1.08487
1.08667
0.0216825
-0.0231771
-0.913311
0.914805
0.0244519
-0.0257757
-0.772895
0.774219
0.0269189
-0.0275875
-0.65768
0.658348
0.0272103
-0.0247662
-0.542649
0.540205
0.0202345
-0.0136803
-0.378803
0.372249
0.00796591
-0.00328076
-0.182351
0.177666
0.000849015
-0.0303912
0.0295422
-0.0308534
0.0303579
0.000495514
-0.00515099
0.00916169
-0.250829
0.246818
-0.0140165
0.0175019
-0.425271
0.421785
-0.0193223
0.0193307
-0.55385
0.553842
-0.0183067
0.0167616
-0.657626
0.659171
-0.0149119
0.0130961
-0.773946
0.775762
-0.0109577
0.00886393
-0.916421
0.918515
-0.00640906
0.00402165
-1.08927
1.09166
-0.00124081
-0.00144377
-1.29839
1.30107
0.00454175
-0.00750273
-1.55218
1.55514
0.0103273
-0.0130155
-1.55174
1.55443
0.0151499
-0.0171916
-1.29747
1.29951
0.0188297
-0.0204204
-1.08841
1.09
0.0217247
-0.0230409
-0.916237
0.917553
0.0241725
-0.0253448
-0.775484
0.776656
0.0263108
-0.0266209
-0.658809
0.659119
0.025871
-0.0229842
-0.537553
0.534666
0.018338
-0.0121454
-0.365897
0.359704
0.00701039
-0.00288883
-0.173298
0.169176
0.00075241
-0.0287538
0.0280014
-0.029929
0.0295534
0.000375617
-0.0040703
0.00738699
-0.243177
0.23986
-0.0116016
0.0148409
-0.418437
0.415198
-0.0167358
0.0169134
-0.553806
0.553628
-0.0159882
0.0145288
-0.660757
0.662217
-0.0126894
0.010872
-0.777567
0.779384
-0.00873211
0.00664316
-0.920504
0.922593
-0.00420511
0.00184654
-1.09393
1.09629
0.000877286
-0.00348984
-1.30365
1.30627
0.00647245
-0.00928679
-1.55798
1.5608
0.0119358
-0.0144216
-1.557
1.55949
0.0163675
-0.0182033
-1.30147
1.30331
0.0196577
-0.0210513
-1.09153
1.09293
0.0221805
-0.023316
-0.918811
0.919946
0.0242951
-0.0252962
-0.77777
0.778771
0.0260091
-0.0260276
-0.65928
0.659298
0.0248873
-0.0216184
-0.531597
0.528328
0.0169119
-0.0110376
-0.3537
0.347826
0.00634022
-0.00262055
-0.165289
0.161569
0.000688283
-0.0272937
0.0266054
-0.0292377
0.0289688
0.000268876
-0.0031236
0.00581373
-0.236877
0.234187
-0.00938748
0.0122961
-0.412143
0.409234
-0.0141513
0.0144291
-0.553464
0.553186
-0.0135671
0.0121725
-0.663733
0.665127
-0.0103277
0.00848273
-0.781195
0.78304
-0.0063077
0.00419159
-0.92458
0.926697
-0.00173664
-0.000615539
-1.09853
1.10088
0.00331967
-0.00588377
-1.30877
1.31134
0.00878007
-0.0114757
-1.5635
1.5662
0.01397
-0.016262
-1.56185
1.56414
0.0180158
-0.0196337
-1.30506
1.30667
0.0208921
-0.0220783
-1.09427
1.09546
0.0230265
-0.023981
-0.92104
0.921994
0.0248114
-0.0256388
-0.779703
0.780531
0.0260905
-0.0258474
-0.659172
0.658929
0.0242889
-0.0206583
-0.5249
0.52127
0.0159044
-0.0102791
-0.342116
0.336491
0.00589575
-0.00244969
-0.158021
0.154575
0.000650021
-0.0259504
0.0253004
-0.0287567
0.0285895
0.000167234
-0.00224628
0.00434821
-0.231809
0.229707
-0.00727581
0.00978247
-0.406553
0.404046
-0.0114864
0.0117793
-0.552978
0.552685
-0.0109382
0.00956068
-0.66662
0.667998
-0.00767653
0.00577395
-0.784884
0.786787
-0.00353488
0.00136829
-0.928703
0.93087
0.00112605
-0.00350561
-1.10313
1.10551
0.00620949
-0.0087469
-1.3138
1.31633
0.0115696
-0.0141463
-1.56877
1.57135
0.0164792
-0.0185712
-1.56631
1.5684
0.0201308
-0.0215256
-1.30821
1.3096
0.0225743
-0.0235284
-1.0966
1.09755
0.0242709
-0.025024
-0.922899
0.923652
0.0256949
-0.026378
-0.781279
0.781962
0.0265444
-0.0259758
-0.658467
0.657898
0.0240167
-0.0200604
-0.517524
0.513568
0.0152544
-0.0098022
-0.331004
0.325552
0.00562838
-0.00235464
-0.151253
0.147979
0.000631744
-0.0246759
0.0240441
-0.0284778
0.028413
6.47989e-05
-0.00139142
0.00291877
-0.227909
0.226382
-0.00518345
0.00722331
-0.4018
0.39976
-0.00867673
0.00891267
-0.552513
0.552277
-0.00806036
0.00667814
-0.669507
0.670889
-0.0047298
0.00274705
-0.78869
0.790673
-0.000409063
-0.00184738
-0.932926
0.935183
0.00443141
-0.00687444
-1.10778
1.11023
0.00962043
-0.0121599
-1.31877
1.32131
0.0149348
-0.0174107
-1.57381
1.57628
0.0195906
-0.0214805
-1.57035
1.57224
0.0228385
-0.0240047
-1.31091
1.31207
0.0248448
-0.0255662
-1.09848
1.0992
0.0260868
-0.0266096
-0.924374
0.924896
0.0270989
-0.0275844
-0.782505
0.782991
0.0274598
-0.0265104
-0.657063
0.656113
0.0241334
-0.0198309
-0.50951
0.505207
0.0149354
-0.0095704
-0.32021
0.314845
0.00551187
-0.00232422
-0.144792
0.141605
0.000630808
-0.0234315
0.0228007
-0.0284043
0.0284484
-4.40117e-05
-0.000510085
0.00145423
-0.225161
0.224217
-0.00302423
0.00452845
-0.398015
0.396511
-0.00562467
0.00571846
-0.552223
0.552129
-0.00480223
0.00336734
-0.672446
0.67388
-0.00132934
-0.000769831
-0.792656
0.794755
0.00325075
-0.00563273
-0.937331
0.939713
0.00834231
-0.0108789
-1.11257
1.1151
0.0136967
-0.0162645
-1.32375
1.32632
0.0190158
-0.0214046
-1.57864
1.58103
0.0234344
-0.0251112
-1.57399
1.57566
0.0262473
-0.0271537
-1.31313
1.31404
0.0277494
-0.0282032
-1.09989
1.10034
0.0284861
-0.0287678
-0.925398
0.92568
0.0290628
-0.029275
-0.783211
0.783423
0.0288872
-0.0274648
-0.654867
0.653444
0.024638
-0.0199699
-0.500833
0.496164
0.0149374
-0.00956841
-0.309561
0.304192
0.005535
-0.00235378
-0.13847
0.135289
0.000646071
-0.0221833
0.0215372
-0.0285483
0.028708
-0.000159686
0.000419481
-9.11328e-05
-0.223593
0.223265
-0.000733916
0.00162139
-0.395334
0.394446
-0.00225002
0.00210695
-0.552296
0.552439
-0.0010546
-0.000512252
-0.675558
0.677125
0.00270314
-0.0049664
-0.796862
0.799125
0.0076289
-0.0101672
-0.941977
0.944515
0.0130333
-0.0156942
-1.11753
1.12019
0.0186168
-0.0212363
-1.32879
1.33141
0.0239764
-0.0262737
-1.58329
1.58559
0.0281358
-0.0295754
-1.57717
1.57861
0.0304693
-0.0310835
-1.31481
1.31543
0.0314068
-0.0315655
-1.10076
1.10092
0.0315814
-0.0315934
-0.925934
0.925945
0.0316688
-0.0315711
-0.783288
0.783191
0.0308654
-0.0289117
-0.651751
0.649797
0.0255916
-0.0205037
-0.491439
0.486351
0.0152609
-0.00978677
-0.298868
0.293394
0.00568972
-0.00243958
-0.13213
0.12888
0.000676515
-0.0208996
0.0202231
-0.0289472
0.029248
-0.000300768
0.00142767
-0.00175388
-0.223295
0.223621
0.00178006
-0.0016168
-0.393882
0.393718
0.0015784
-0.00204855
-0.552948
0.553419
0.00330011
-0.0050339
-0.678991
0.680725
0.00742345
-0.0098919
-0.801387
0.803856
0.0127937
-0.0155505
-0.946937
0.949694
0.0186437
-0.0214859
-1.12276
1.1256
0.0245619
-0.0272639
-1.33394
1.33664
0.0300099
-0.0322169
-1.58775
1.58996
0.0338961
-0.0350605
-1.57986
1.58103
0.0356855
-0.0359724
-1.31589
1.31618
0.0359979
-0.0358412
-1.10099
1.10084
0.0355678
-0.0352735
-0.925895
0.925601
0.0351103
-0.034585
-0.78264
0.782115
0.0334732
-0.0308897
-0.647632
0.645048
0.0270153
-0.021438
-0.481212
0.475635
0.0159032
-0.0102194
-0.287931
0.282247
0.00597051
-0.0025784
-0.125622
0.12223
0.000721035
-0.0195505
0.0188295
-0.0296213
0.0301004
-0.000479029
0.00272696
-0.00381294
-0.224339
0.225425
0.00471635
-0.00535775
-0.393886
0.394527
0.00603942
-0.00694774
-0.554393
0.555302
0.00847104
-0.0104302
-0.68281
0.684769
0.0130909
-0.0158317
-0.806323
0.809064
0.019045
-0.0220793
-0.952344
0.955378
0.0254536
-0.0285182
-1.12836
1.13142
0.0317835
-0.0345907
-1.33924
1.34205
0.0373557
-0.0394636
-1.59202
1.59413
0.040931
-0.0417817
-1.58197
1.58282
0.0420715
-0.0419877
-1.31627
1.31618
0.041669
-0.0411512
-1.10053
1.10001
0.0405535
-0.0399134
-0.925189
0.924548
0.0394353
-0.0384264
-0.781065
0.780056
0.0367958
-0.0334983
-0.642322
0.639024
0.0289855
-0.0228214
-0.470012
0.463848
0.0168887
-0.0108753
-0.276537
0.270524
0.00638036
-0.00277083
-0.118804
0.115194
0.000779526
-0.0181092
0.0173297
-0.0306504
0.0313463
-0.000695969
0.00421757
-0.0061932
-0.226932
0.228907
0.00818483
-0.00972716
-0.395572
0.397114
0.0112334
-0.0127232
-0.556897
0.558387
0.0146883
-0.016997
-0.687175
0.689484
0.0200467
-0.0231421
-0.811805
0.814901
0.0267315
-0.030091
-0.958302
0.961661
0.0337954
-0.0371232
-1.13439
1.13772
0.0406123
-0.0435381
-1.34475
1.34768
0.0463065
-0.0482769
-1.59606
1.59803
0.0494796
-0.0499639
-1.58343
1.58391
0.0498472
-0.0493334
-1.31585
1.31534
0.0486043
-0.0476543
-1.09925
1.0983
0.0466807
-0.0456478
-0.923718
0.922685
0.044733
-0.0432326
-0.778485
0.776985
0.0409627
-0.0368519
-0.635643
0.631532
0.0315873
-0.0246999
-0.45763
0.450743
0.0182411
-0.0117637
-0.264444
0.257966
0.00692122
-0.00301565
-0.111522
0.107616
0.000850985
-0.0165477
0.0156967
-0.0321116
0.0330941
-0.00098247
0.00609818
-0.00915068
-0.231315
0.234367
0.0123831
-0.0149827
-0.39919
0.40179
0.0174584
-0.0196414
-0.560744
0.562927
0.0221698
-0.0249267
-0.692327
0.695084
0.0284703
-0.0320153
-0.817996
0.821542
0.0360894
-0.0398724
-0.964926
0.968709
0.0440018
-0.0476559
-1.14096
1.14462
0.0514052
-0.0544536
-1.35048
1.35353
0.0572011
-0.0589856
-1.59978
1.60157
0.0598559
-0.0598768
-1.5841
1.58412
0.0592998
-0.0582518
-1.31449
1.31344
0.0570472
-0.0555943
-1.09701
1.09555
0.0541808
-0.0526795
-0.921361
0.91986
0.0512493
-0.0491488
-0.774881
0.77278
0.0461167
-0.0410394
-0.627355
0.622278
0.0348782
-0.027108
-0.443797
0.436027
0.0199744
-0.0128831
-0.251381
0.24429
0.00758553
-0.00330625
-0.103621
0.0993412
0.00093255
-0.0148416
0.013909
-0.0341344
0.0355057
-0.00137122
0.00856272
-0.0129594
-0.237835
0.242232
0.0176813
-0.0215186
-0.405102
0.408939
0.0251264
-0.0281466
-0.566226
0.569247
0.0314007
-0.0347503
-0.698478
0.701828
0.0389402
-0.043067
-0.825098
0.829225
0.0477576
-0.0520617
-0.972425
0.976729
0.0566874
-0.0606957
-1.14818
1.15219
0.064694
-0.0678168
-1.35641
1.35953
0.0704529
-0.0719371
-1.60306
1.60454
0.0723474
-0.0717771
-1.58375
1.58318
0.0706386
-0.0689539
-1.31196
1.31027
0.0672065
-0.0651775
-1.09365
1.09163
0.0632627
-0.061248
-0.917976
0.915962
0.0591842
-0.0563756
-0.770018
0.767209
0.0524221
-0.046189
-0.617148
0.610915
0.0389486
-0.0300866
-0.428192
0.41933
0.0220954
-0.0142196
-0.23705
0.229174
0.00835474
-0.00362927
-0.0949509
0.0902254
0.00101893
-0.0129736
0.0119547
-0.0369169
0.0388524
-0.00193549
0.0119695
-0.0180685
-0.246992
0.253091
0.0245866
-0.0298705
-0.413791
0.419075
0.0348255
-0.0388863
-0.573736
0.577797
0.0431059
-0.0472772
-0.705958
0.710129
0.0523301
-0.0571776
-0.833367
0.838214
0.0625763
-0.0674388
-0.980959
0.985821
0.0725568
-0.0768791
-1.15607
1.16039
0.0810449
-0.0841345
-1.36242
1.36551
0.0865043
-0.0875161
-1.60565
1.60666
0.0872905
-0.0859521
-1.58213
1.58079
0.0840922
-0.08165
-1.30804
1.3056
0.0792685
-0.0766205
-1.08901
1.08636
0.0741808
-0.0715669
-0.913432
0.910818
0.0688165
-0.065111
-0.763635
0.75993
0.0600606
-0.0524371
-0.604626
0.597003
0.0438794
-0.0336641
-0.410398
0.400183
0.0245965
-0.0157428
-0.221118
0.212264
0.00919466
-0.00396152
-0.0853784
0.0801453
0.00110101
-0.0109392
0.00983815
-0.0407879
0.0435887
-0.00280077
0.0168811
-0.0252152
-0.259486
0.26782
0.0339453
-0.0409611
-0.42591
0.432926
0.0475302
-0.0528476
-0.583774
0.589092
0.0583063
-0.0635672
-0.715232
0.720493
0.0697024
-0.0753962
-0.843066
0.848759
0.0815683
-0.0869869
-0.99059
0.996009
0.0925329
-0.0970539
-1.16452
1.16904
0.1012
-0.10404
-1.36825
1.37109
0.105863
-0.10613
-1.60714
1.60741
0.10502
-0.102694
-1.57886
1.57654
0.0999516
-0.0965923
-1.30252
1.29916
0.0934558
-0.090093
-1.08293
1.07957
0.0870785
-0.0837544
-0.907468
0.904144
0.0803306
-0.0755403
-0.755316
0.750526
0.0691597
-0.0598572
-0.589286
0.579984
0.0497043
-0.0378321
-0.389914
0.378042
0.0274336
-0.0173889
-0.203223
0.193179
0.0100473
-0.00426865
-0.0748017
0.0690231
0.00116625
-0.00875331
0.00758706
-0.0463085
0.0505673
-0.00425886
0.0244871
-0.035853
-0.276457
0.287823
0.0474421
-0.0567446
-0.442454
0.451757
0.0652857
-0.0720292
-0.59691
0.603653
0.0789808
-0.085682
-0.726698
0.733399
0.0929578
-0.0994374
-0.854411
0.860891
0.106256
-0.112052
-1.00125
1.00705
0.11775
-0.122157
-1.1732
1.1776
0.125894
-0.12811
-1.37338
1.37559
0.128983
-0.12815
-1.60695
1.60612
0.12584
-0.122264
-1.57348
1.5699
0.118477
-0.11408
-1.29508
1.29068
0.110095
-0.105918
-1.07524
1.07107
0.102243
-0.0980931
-0.899834
0.895684
0.0938635
-0.0877368
-0.744629
0.738503
0.0797466
-0.0684346
-0.570494
0.559182
0.0563789
-0.0425117
-0.366143
0.352276
0.0305015
-0.01905
-0.183004
0.171553
0.0108279
-0.00450698
-0.0631906
0.0568696
0.00120022
-0.00645642
0.0052562
-0.054535
0.0618598
-0.00732484
0.0379056
-0.0537001
-0.300015
0.315809
0.0692788
-0.0816876
-0.465024
0.477433
0.0923045
-0.100397
-0.613552
0.621644
0.108859
-0.116787
-0.740685
0.748612
0.124952
-0.131835
-0.867155
0.874039
0.13875
-0.144343
-1.01241
1.01801
0.149525
-0.153188
-1.18134
1.185
0.155848
-0.156824
-1.37694
1.37791
0.156146
-0.153724
-1.60427
1.60185
0.149833
-0.144713
-1.56541
1.56029
0.139647
-0.134019
-1.28546
1.27983
0.129061
-0.124015
-1.0658
1.06075
0.119684
-0.114771
-0.890296
0.885383
0.109468
-0.101665
-0.731025
0.723222
0.0916979
-0.0779129
-0.547453
0.533668
0.0635704
-0.047425
-0.338383
0.322238
0.0335901
-0.0206111
-0.160181
0.147202
0.0114788
-0.00465826
-0.0506639
0.0438434
0.0011934
-0.00411876
0.00292536
-0.0687144
0.0728159
-0.00410151
0.0290045
-0.0426633
-0.334132
0.347791
0.0564446
-0.0677293
-0.495005
0.506289
0.0777797
-0.0871755
-0.63333
0.642726
0.097624
-0.10701
-0.756148
0.765535
0.117362
-0.126531
-0.880072
0.889241
0.136202
-0.144684
-1.02265
1.03113
0.153356
-0.160566
-1.18753
1.19474
0.167385
-0.172394
-1.37766
1.38267
0.176152
-0.177619
-1.59812
1.59959
0.176732
-0.174005
-1.55403
1.5513
0.170279
-0.1654
-1.27328
1.2684
0.160887
-0.155663
-1.05442
1.0492
0.151268
-0.146021
-0.878683
0.873437
0.139483
-0.128509
-0.713664
0.70269
0.114112
-0.0948476
-0.519126
0.499861
0.0755537
-0.0543657
-0.305839
0.284651
0.0371249
-0.0218239
-0.13475
0.119449
0.0116537
-0.00452997
-0.0376253
0.0305016
0.00110453
-0.00184539
0.000740856
-0.0799363
0.0781029
0.00183331
0.007381
-0.0163617
-0.364311
0.373292
0.0268081
-0.034787
-0.522313
0.530292
0.0428308
-0.0508518
-0.654469
0.66249
0.0604954
-0.0693337
-0.77461
0.783448
0.0786336
-0.0870714
-0.897878
0.906316
0.0959301
-0.103365
-1.03931
1.04674
0.111141
-0.117235
-1.20174
1.20783
0.122907
-0.126728
-1.38731
1.39113
0.12889
-0.128924
-1.60011
1.60014
0.126593
-0.122396
-1.54764
1.54345
0.117191
-0.110737
-1.26283
1.25637
0.104677
-0.0979032
-1.04252
1.03574
0.0916923
-0.0846577
-0.863898
0.856863
0.0775304
-0.0680204
-0.687832
0.678322
0.0573647
-0.0444742
-0.478965
0.466074
0.0328313
-0.0216462
-0.263485
0.252299
0.0136828
-0.00750464
-0.104934
0.0987561
0.0038458
-0.00148324
-0.0238344
0.0214718
0.000372893
0.000349966
-0.000722859
-0.0813679
0.0785032
0.00286471
-0.00172092
-0.00348581
-0.384667
0.389874
0.010578
-0.0164306
-0.54244
0.548292
0.0224872
-0.0294205
-0.672472
0.679406
0.0377564
-0.0454282
-0.791421
0.799093
0.0537371
-0.0611195
-0.914035
0.921417
0.0686296
-0.0752866
-1.05401
1.06066
0.0820309
-0.0873816
-1.21348
1.21883
0.0918745
-0.0946006
-1.39424
1.39697
0.0958651
-0.0948391
-1.59936
1.59833
0.0914503
-0.0861943
-1.53845
1.53319
0.0801696
-0.0730854
-1.24957
1.24249
0.066111
-0.0585939
-1.02792
1.02041
0.0516838
-0.0439924
-0.847326
0.839635
0.0370392
-0.0288741
-0.665122
0.656957
0.0209567
-0.0126758
-0.45126
0.442979
0.00687667
-0.00282946
-0.240381
0.236334
0.000882971
-4.61417e-05
-0.0921258
0.091289
-0.000108336
4.62349e-05
-0.0188212
0.0188833
-3.54103e-05
0.00119892
-0.00116351
-0.0801406
0.0774474
0.00269316
-0.00524747
0.00273065
-0.398247
0.400764
0.00182834
-0.00628515
-0.55741
0.561867
0.0114238
-0.0172293
-0.687333
0.693139
0.0243737
-0.0309749
-0.806154
0.812755
0.0381148
-0.0444892
-0.928303
0.934678
0.0513586
-0.0570443
-1.06691
1.0726
0.0629782
-0.0672124
-1.22378
1.22801
0.0710047
-0.0731378
-1.39945
1.40158
0.0736375
-0.0717866
-1.59679
1.59494
0.0680637
-0.062565
-1.5273
1.5218
0.056353
-0.0487324
-1.23506
1.22744
0.0415862
-0.0337888
-1.01216
1.00437
0.0263872
-0.0185708
-0.830046
0.82223
0.0115323
-0.00471788
-0.645554
0.63874
-0.000996499
0.00548162
-0.433163
0.428678
-0.00726937
0.00720808
-0.229949
0.23001
-0.00611721
0.00425942
-0.0893169
0.0911747
-0.00262784
0.0011291
-0.0184813
0.01998
-0.000328767
0.00133427
-0.0010055
-0.0786969
0.0763272
0.00236966
-0.00629873
0.00534181
-0.40734
0.408297
-0.00197917
-0.00129375
-0.569447
0.57272
0.00550378
-0.0107781
-0.699802
0.705077
0.0168046
-0.0226332
-0.818672
0.824501
0.0288644
-0.0344498
-0.940638
0.946223
0.0403954
-0.0455046
-1.07817
1.08328
0.050562
-0.0544834
-1.23212
1.23604
0.0577222
-0.0594406
-1.40336
1.40508
0.0596159
-0.0576145
-1.59295
1.59095
0.0539006
-0.048337
-1.51572
1.51015
0.0422978
-0.0349938
-1.21984
1.21254
0.027908
-0.0198515
-0.995959
0.987902
0.0124163
-0.00452861
-0.812722
0.804834
-0.00204648
0.00779485
-0.628897
0.623148
-0.0118493
0.0143573
-0.421686
0.419178
-0.0143835
0.0124203
-0.227059
0.229022
-0.00986131
0.00679574
-0.0919077
0.0949732
-0.00414868
0.00178501
-0.0210503
0.023414
-0.000479014
0.000793828
-0.000314813
-0.0773846
0.0753664
0.00201823
-0.00612476
0.00563816
-0.413641
0.414128
-0.00362667
0.000973047
-0.578787
0.581441
0.00319195
-0.00772371
-0.710412
0.714944
0.0129444
-0.0180441
-0.829553
0.834653
0.0236346
-0.0286734
-0.951493
0.956531
0.0341626
-0.038679
-1.08813
1.09265
0.0432717
-0.0468398
-1.2397
1.24326
0.0497269
-0.0512237
-1.40657
1.40807
0.0512642
-0.0496304
-1.58892
1.58729
0.0459834
-0.0407222
-1.50423
1.49897
0.0348294
-0.0276984
-1.20508
1.19795
0.0210391
-0.0131802
-0.979621
0.971762
0.00610884
0.00107665
-0.796134
0.788949
-0.00688582
0.0119453
-0.614469
0.60941
-0.0152236
0.0171703
-0.413961
0.412015
-0.0165087
0.0139477
-0.227883
0.230444
-0.0110832
0.00764153
-0.09693
0.100372
-0.00467866
0.00206479
-0.0251771
0.0277909
-0.000562231
-0.000134353
0.000696584
-0.0764214
0.0748598
0.00156155
-0.005218
0.00503998
-0.418395
0.418573
-0.00339684
0.00135881
-0.586987
0.589025
0.00258045
-0.00670496
-0.719658
0.723782
0.0116957
-0.0161279
-0.839363
0.843796
0.021082
-0.0255863
-0.961561
0.966065
0.0308316
-0.0349729
-1.09721
1.10135
0.0391005
-0.042536
-1.24667
1.2501
0.0456583
-0.0471018
-1.40962
1.41106
0.04731
-0.0457089
-1.5853
1.5837
0.0425018
-0.0371891
-1.4935
1.48818
0.0316957
-0.025094
-1.1907
1.1841
0.0188045
-0.0118842
-0.964076
0.957156
0.00553334
0.00108527
-0.781172
0.774553
-0.00617832
0.0110695
-0.601756
0.596865
-0.0140793
0.0157143
-0.407579
0.405944
-0.0153726
0.0132615
-0.229917
0.232028
-0.0105925
0.00733785
-0.102541
0.105796
-0.00453595
0.00206046
-0.0296244
0.0320999
-0.000602188
-0.00113775
0.00173994
-0.0759659
0.0747476
0.0012183
-0.00414082
0.00407825
-0.422231
0.422294
-0.00260736
0.00065989
-0.594183
0.596131
0.00316372
-0.00688867
-0.728029
0.731754
0.0112054
-0.0155076
-0.848171
0.852473
0.0201139
-0.0247719
-0.970394
0.975052
0.0293188
-0.0333085
-1.10559
1.10958
0.0376124
-0.0408705
-1.25345
1.25671
0.0436116
-0.0455537
-1.41246
1.4144
0.0460304
-0.044777
-1.58217
1.58092
0.0418022
-0.0371865
-1.48309
1.47848
0.0322237
-0.0263151
-1.17735
1.17144
0.0208517
-0.0147882
-0.950361
0.944298
0.00918301
-0.00325915
-0.767691
0.761767
-0.00208226
0.00694171
-0.589809
0.584949
-0.010007
0.0117875
-0.401855
0.400074
-0.0118896
0.0103209
-0.231515
0.233084
-0.00831705
0.00581867
-0.107406
0.109904
-0.00364818
0.00169253
-0.033607
0.0355627
-0.000518985
-0.00211294
0.00263193
-0.0760349
0.0750219
0.00101303
-0.00288125
0.00257804
-0.425699
0.426002
-0.00128747
-0.000729527
-0.600797
0.602814
0.00424862
-0.00786336
-0.735871
0.739486
0.0120235
-0.0159401
-0.856556
0.860473
0.0206759
-0.024567
-0.97915
0.983041
0.0291042
-0.0329472
-1.11374
1.11758
0.0371914
-0.0407077
-1.25998
1.26349
0.0438142
-0.0456254
-1.41614
1.41795
0.0465375
-0.0458016
-1.57963
1.5789
0.0436494
-0.0396665
-1.47389
1.46991
0.0355316
-0.0305137
-1.16591
1.16089
0.0258598
-0.0204402
-0.938239
0.932819
0.015359
-0.0095104
-0.755263
0.749414
0.00416138
0.00102427
-0.578246
0.573061
-0.00441704
0.00622843
-0.395802
0.39399
-0.00682268
0.00618697
-0.232075
0.232711
-0.00511702
0.00362566
-0.110715
0.112207
-0.00231346
0.00111932
-0.0364441
0.0376382
-0.000358389
-0.00286958
0.00322797
-0.0763813
0.0756804
0.000700912
-0.00175578
0.00105421
-0.429276
0.429978
4.24844e-06
-0.00231181
-0.606646
0.608953
0.00548695
-0.00898188
-0.743208
0.746703
0.0129767
-0.0170275
-0.864242
0.868293
0.0211629
-0.0252266
-0.987145
0.991209
0.0297531
-0.0334286
-1.12186
1.12554
0.0378187
-0.0413526
-1.26684
1.27037
0.044596
-0.0470121
-1.42021
1.42262
0.0485264
-0.0482555
-1.57828
1.57801
0.0466414
-0.0437772
-1.46632
1.46345
0.0405835
-0.0363104
-1.15602
1.15174
0.0321085
-0.027223
-0.92738
0.922494
0.0218693
-0.0160911
-0.742888
0.73711
0.0106674
-0.00528483
-0.566746
0.561364
0.00168794
0.000698104
-0.389356
0.38697
-0.00170239
0.00203666
-0.23118
0.230846
-0.00183721
0.00137357
-0.112059
0.112523
-0.00094471
0.000501479
-0.0378148
0.0382581
-0.000181008
-0.00330077
0.00348177
-0.0771363
0.0765901
0.000546164
-0.00080681
0.000229707
-0.433075
0.433652
0.00159006
-0.00365357
-0.612743
0.614806
0.0069725
-0.0103475
-0.750056
0.753431
0.0141886
-0.0178468
-0.872006
0.875665
0.0221161
-0.0258855
-0.995286
0.999055
0.0303934
-0.0345391
-1.12968
1.13382
0.0386273
-0.0425418
-1.27398
1.27789
0.046268
-0.0488529
-1.42498
1.42756
0.0508669
-0.0515768
-1.57807
1.57878
0.0506958
-0.0487944
-1.46068
1.45878
0.0460647
-0.0423881
-1.14766
1.14398
0.038547
-0.0335952
-0.917103
0.912151
0.0283325
-0.0223953
-0.73043
0.724493
0.0169655
-0.0115167
-0.554973
0.549525
0.00765969
-0.00482189
-0.382376
0.379539
0.00301938
-0.00185953
-0.228528
0.227368
0.00112461
-0.000552071
-0.111418
0.110846
0.000174116
4.55012e-05
-0.0378061
0.0375865
-6.55952e-05
-0.00339819
0.00346378
-0.0781558
0.0777945
0.000361247
0.000235273
-0.00107756
-0.436954
0.437797
0.00270324
-0.00507265
-0.618369
0.620738
0.00831981
-0.0115403
-0.756668
0.759889
0.0154564
-0.0189664
-0.879292
0.882802
0.0230924
-0.0270032
-1.00331
1.00722
0.0314465
-0.0355942
-1.13784
1.14199
0.0399452
-0.0439267
-1.28175
1.28573
0.0478889
-0.0512784
-1.43047
1.43386
0.0538509
-0.055028
-1.57953
1.5807
0.0550393
-0.0536335
-1.45692
1.45551
0.051512
-0.0482805
-1.14027
1.13704
0.0443157
-0.0393289
-0.906766
0.901779
0.034069
-0.0280469
-0.717901
0.711879
0.0228225