/*--------------------------------*- C++ -*----------------------------------*\
| =========                 |                                                 |
| \\      /  F ield         | OpenFOAM: The Open Source CFD Toolbox           |
|  \\    /   O peration     | Version:  2112                                  |
|   \\  /    A nd           | Website:  www.openfoam.com                      |
|    \\/     M anipulation  |                                                 |
\*---------------------------------------------------------------------------*/
FoamFile
{
    version     2.0;
    format      ascii;
    arch        "LSB;label=32;scalar=64";
    class       volScalarField;
    location    "67.5";
    object      p;
}
// * * * * * * * * * * * * * * * * * * * * * * * * * * * * * * * * * * * * * //

dimensions      [0 2 -2 0 0 0 0];

internalField   nonuniform List<scalar> 
8800
(
0.840169
0.792383
0.753696
0.724705
0.703847
0.689025
0.678442
0.670981
0.666189
0.664169
0.665479
0.669703
0.676374
0.685709
0.698502
0.716245
0.741028
0.774973
0.817526
0.876228
0.671412
0.679091
0.686571
0.689882
0.688383
0.683312
0.676837
0.670776
0.666077
0.663267
0.66303
0.665576
0.670096
0.676065
0.68285
0.689141
0.692789
0.692056
0.686642
0.677956
0.649807
0.655968
0.660097
0.663046
0.665102
0.665716
0.664624
0.662541
0.660555
0.65969
0.660698
0.663118
0.665945
0.668147
0.668769
0.667581
0.665247
0.661859
0.657303
0.653543
0.643983
0.646634
0.649389
0.651797
0.65344
0.654612
0.655369
0.65551
0.655248
0.655245
0.656048
0.65726
0.658132
0.65822
0.657628
0.656549
0.654742
0.652178
0.649779
0.648275
0.638583
0.640008
0.641791
0.643829
0.645621
0.646974
0.647981
0.648805
0.649458
0.650075
0.650784
0.651328
0.651464
0.651204
0.650526
0.649292
0.647608
0.645768
0.644465
0.643633
0.633482
0.634403
0.635648
0.637221
0.638862
0.640401
0.641707
0.642804
0.643813
0.644767
0.645523
0.645907
0.645907
0.6455
0.644643
0.643461
0.642147
0.640897
0.640079
0.639527
0.628544
0.629214
0.630181
0.63149
0.63291
0.634383
0.635846
0.637203
0.638452
0.63963
0.640529
0.640963
0.64093
0.640459
0.639682
0.638756
0.637761
0.636849
0.636269
0.635862
0.623723
0.62424
0.625027
0.626165
0.627455
0.628846
0.630319
0.63183
0.633316
0.634734
0.635832
0.636381
0.636416
0.636078
0.63551
0.634812
0.63406
0.63339
0.632961
0.632643
0.618945
0.619356
0.620016
0.621031
0.62225
0.623597
0.625072
0.626673
0.628361
0.630052
0.631406
0.632156
0.632393
0.63228
0.63194
0.631457
0.630912
0.630437
0.630119
0.629861
0.614123
0.614458
0.615029
0.615966
0.617139
0.618474
0.619988
0.621692
0.623574
0.625565
0.627249
0.628305
0.628828
0.628975
0.628871
0.628617
0.628271
0.627957
0.627725
0.627507
0.609168
0.609445
0.609956
0.610848
0.612004
0.613367
0.614959
0.616809
0.618929
0.621266
0.623365
0.624814
0.62568
0.626126
0.626281
0.626259
0.62611
0.62594
0.625776
0.625587
0.603989
0.604222
0.604694
0.605571
0.606752
0.608185
0.609897
0.611948
0.614371
0.617139
0.619746
0.621667
0.622935
0.623725
0.624171
0.624388
0.624442
0.624403
0.624295
0.624126
0.598493
0.598691
0.599143
0.600036
0.601281
0.60283
0.604719
0.607037
0.609845
0.613152
0.616375
0.618857
0.620597
0.621779
0.622553
0.623028
0.623299
0.623386
0.623325
0.62317
0.592576
0.592745
0.593196
0.594132
0.595485
0.5972
0.599332
0.601999
0.605295
0.609266
0.613235
0.616388
0.618683
0.620318
0.621466
0.622252
0.622742
0.62295
0.622929
0.622782
0.586118
0.586263
0.586727
0.587736
0.589242
0.591184
0.593636
0.596747
0.600655
0.605441
0.610312
0.614267
0.617221
0.61939
0.620967
0.622094
0.622832
0.623166
0.623183
0.623039
0.578978
0.579098
0.579589
0.580703
0.582414
0.584651
0.587513
0.591187
0.595856
0.601638
0.607598
0.612508
0.616242
0.619042
0.621123
0.622642
0.62366
0.624125
0.624176
0.624031
0.570964
0.571069
0.571603
0.572856
0.57483
0.577443
0.580827
0.585208
0.590817
0.597814
0.605084
0.611133
0.615786
0.619327
0.622015
0.623996
0.625323
0.625925
0.626007
0.625858
0.561857
0.561956
0.562547
0.563962
0.566267
0.569368
0.573415
0.578681
0.585453
0.59393
0.602771
0.61017
0.615909
0.62032
0.623726
0.626242
0.627924
0.628671
0.628782
0.628624
0.551335
0.551415
0.552094
0.553735
0.556477
0.560201
0.565081
0.571458
0.57967
0.589949
0.600667
0.609655
0.61667
0.622107
0.626329
0.629488
0.631564
0.632461
0.632595
0.632426
0.539016
0.539082
0.539862
0.541813
0.545113
0.549637
0.555585
0.563367
0.573372
0.585842
0.59879
0.609637
0.618127
0.624759
0.629936
0.633827
0.636332
0.637379
0.63753
0.637345
0.524337
0.524393
0.525316
0.527684
0.531725
0.537299
0.544637
0.554219
0.566464
0.581593
0.59717
0.610167
0.620344
0.62834
0.634622
0.639333
0.642291
0.643475
0.643633
0.643429
0.506526
0.506571
0.507707
0.510662
0.515716
0.522713
0.531901
0.543823
0.558882
0.577222
0.595864
0.611308
0.623389
0.632919
0.640413
0.646043
0.649449
0.650744
0.650893
0.650669
0.484408
0.48445
0.485935
0.489776
0.49629
0.505288
0.517014
0.532023
0.550625
0.572814
0.594969
0.613139
0.627314
0.638538
0.647354
0.653934
0.657746
0.6591
0.659221
0.658977
0.456216
0.456279
0.458359
0.463628
0.472416
0.484355
0.499658
0.518769
0.541795
0.568523
0.594628
0.615755
0.632169
0.645184
0.655413
0.662906
0.667016
0.668352
0.668423
0.66816
0.418889
0.419055
0.422356
0.43026
0.442884
0.459323
0.479727
0.504224
0.532661
0.564611
0.595028
0.619262
0.637994
0.652847
0.664492
0.672752
0.676977
0.678192
0.678192
0.677917
0.366551
0.367549
0.374118
0.387445
0.406738
0.430142
0.457583
0.488885
0.523693
0.561433
0.596381
0.623766
0.644806
0.661433
0.67438
0.683146
0.68723
0.688223
0.688145
0.687867
0.290192
0.297573
0.312774
0.336272
0.365497
0.39823
0.434271
0.473406
0.515271
0.55927
0.599043
0.629769
0.653267
0.671796
0.685938
0.694973
0.698759
0.699517
0.699391
0.699148
0.208162
0.225607
0.250233
0.284523
0.324081
0.366272
0.410959
0.45809
0.507371
0.558254
0.603683
0.638455
0.664861
0.685561
0.700996
0.709834
0.712918
0.713391
0.713294
0.713131
0.139771
0.160319
0.192724
0.236186
0.284854
0.335947
0.389019
0.44399
0.500534
0.558086
0.608872
0.647396
0.676415
0.698864
0.714776
0.723057
0.725639
0.726053
0.726016
0.725896
0.0837608
0.105976
0.143933
0.193874
0.249742
0.308332
0.368822
0.43099
0.494365
0.558271
0.614139
0.656162
0.687536
0.711381
0.727801
0.735919
0.738291
0.738666
0.738664
0.738574
0.0371668
0.0605614
0.102326
0.157407
0.21906
0.283845
0.350708
0.41928
0.488916
0.558779
0.619488
0.664853
0.698496
0.723834
0.740869
0.748947
0.751356
0.751712
0.751736
0.751671
-0.00228749
0.0217585
0.0664063
0.12555
0.192071
0.262129
0.334535
0.408807
0.484165
0.559611
0.624946
0.673562
0.70945
0.736235
0.754016
0.762513
0.764949
0.765301
0.765331
0.765281
-0.0366445
-0.0121838
0.0347297
0.0972316
0.167868
0.242518
0.319847
0.399281
0.479929
0.560633
0.630405
0.682181
0.720287
0.748559
0.767274
0.776152
0.778753
0.779119
0.779151
0.779123
-0.0674164
-0.0425985
0.00615894
0.0715246
0.145718
0.224403
0.306158
0.390314
0.475885
0.561586
0.635644
0.690518
0.73081
0.760565
0.780107
0.789499
0.792314
0.792711
0.792749
0.792733
-0.095589
-0.0704558
-0.020125
0.0477196
0.125039
0.207306
0.293047
0.38154
0.47174
0.562235
0.640472
0.698372
0.740776
0.771964
0.792363
0.802193
0.805239
0.805716
0.805735
0.805718
-0.121981
-0.096489
-0.0447433
0.0252669
0.105378
0.190846
0.280201
0.372701
0.467264
0.562378
0.64472
0.705597
0.75006
0.782609
0.803765
0.814023
0.817239
0.817752
0.817746
0.817722
-0.146981
-0.121134
-0.0680841
0.00380019
0.0864119
0.174758
0.267396
0.363596
0.462269
0.56186
0.648275
0.712127
0.758604
0.792429
0.814224
0.824759
0.828099
0.828627
0.828592
0.828553
-0.171042
-0.144777
-0.0906877
-0.0169217
0.0679119
0.158844
0.254468
0.354078
0.456626
0.560563
0.651064
0.717934
0.766407
0.801384
0.823669
0.834387
0.83776
0.838276
0.838208
0.838152
-0.194301
-0.167539
-0.112511
-0.0370853
0.0497315
0.142985
0.241312
0.344064
0.450251
0.558403
0.653023
0.723021
0.773536
0.809598
0.832236
0.842948
0.84629
0.846777
0.846678
0.846604
-0.216911
-0.189727
-0.133655
-0.0568003
0.0317965
0.127123
0.227884
0.333501
0.443083
0.555305
0.654096
0.727403
0.780095
0.817229
0.840052
0.850604
0.853811
0.854241
0.854122
0.854031
-0.239005
-0.21132
-0.154265
-0.0761127
0.0140636
0.111239
0.214175
0.322383
0.435099
0.551217
0.654227
0.73108
0.786199
0.824454
0.847312
0.8575
0.860454
0.86079
0.860641
0.860539
-0.260647
-0.232353
-0.174407
-0.0950374
-0.00345458
0.0953409
0.200211
0.310733
0.426307
0.546096
0.653346
0.734033
0.791942
0.831495
0.854242
0.863803
0.866318
0.866506
0.866332
0.866222
-0.281683
-0.252815
-0.194013
-0.113564
-0.0207422
0.0794798
0.186034
0.298608
0.416745
0.539945
0.651375
0.736201
0.797365
0.838578
0.861194
0.869776
0.871543
0.871484
0.871292
0.871188
-0.302105
-0.272687
-0.21308
-0.131654
-0.0377546
0.0637026
0.171725
0.28607
0.406474
0.532773
0.648252
0.737466
0.802427
0.845888
0.868645
0.875976
0.876461
0.875847
0.875628
0.875587
-0.321982
-0.291942
-0.231597
-0.149287
-0.0544374
0.0480825
0.157357
0.273213
0.395573
0.524629
0.64391
0.737672
0.806982
0.853444
0.87708
0.883356
0.881936
0.88001
0.87957
0.879859
-0.341158
-0.310565
-0.249514
-0.166416
-0.0707397
0.0326953
0.143019
0.260138
0.384148
0.515591
0.638318
0.736626
0.810763
0.860977
0.886656
0.893066
0.890031
0.885735
0.883725
0.883709
-0.359726
-0.328554
-0.266853
-0.183073
-0.0866964
0.0174978
0.128656
0.246792
0.372135
0.505589
0.631342
0.73405
0.813483
0.868044
0.896911
0.905604
0.903132
0.895985
0.888527
0.874992
-0.377619
-0.345894
-0.283729
-0.199459
-0.102585
0.00216969
0.113868
0.232713
0.359025
0.494023
0.622379
0.729223
0.814673
0.874087
0.906398
0.919178
0.917783
0.904253
0.883571
0.873166
-0.394671
-0.362741
-0.299957
-0.215382
-0.118054
-0.0129523
0.0988723
0.218213
0.345105
0.481123
0.611442
0.721593
0.813382
0.87788
0.911071
0.923878
0.924196
0.899187
0.831961
0.801989
-0.410224
-0.380365
-0.315233
-0.23037
-0.132301
-0.0273681
0.0839873
0.20352
0.330589
0.467
0.59843
0.710782
0.808019
0.878607
0.90557
0.913318
0.898572
0.842318
0.772977
0.730496
-0.464883
-0.395895
-0.329037
-0.245551
-0.146991
-0.0425686
0.0691397
0.188341
0.315092
0.451169
0.582683
0.696026
0.794492
0.871995
0.873115
0.872134
0.817671
0.744586
0.666959
0.623785
-0.426552
-0.410639
-0.349632
-0.265043
-0.168734
-0.0643488
0.0463297
0.164907
0.290725
0.425511
0.555341
0.667457
0.758903
0.842142
0.82441
0.70553
0.596929
0.521426
0.446761
0.475733
-0.456797
-0.427787
-0.365903
-0.282163
-0.185897
-0.0816329
0.0293245
0.147273
0.27204
0.405066
0.532184
0.640124
0.721773
0.765874
0.713912
0.559878
0.428805
0.335248
0.235407
0.283995
-0.480077
-0.44815
-0.385144
-0.301282
-0.2049
-0.100747
0.0101244
0.127237
0.250607
0.381239
0.504633
0.606282
0.678823
0.687934
0.577228
0.400853
0.245457
0.124629
-0.00765145
0.0244035
-0.502804
-0.469394
-0.405266
-0.320505
-0.224057
-0.120069
-0.00973608
0.106403
0.228167
0.355995
0.47465
0.568236
0.625049
0.602344
0.439734
0.240539
0.0482176
-0.121146
-0.310405
-0.329892
-0.52493
-0.491102
-0.426123
-0.340611
-0.244047
-0.140302
-0.0306406
0.0843896
0.204275
0.328873
0.442025
0.527355
0.56425
0.504409
0.308728
0.0957498
-0.123083
-0.31338
-0.555797
-0.85189
-0.547343
-0.513528
-0.448043
-0.362078
-0.265356
-0.161806
-0.0527521
0.0611244
0.179005
0.300079
0.407354
0.484034
0.499082
0.38762
0.194595
-0.0176009
-0.223483
-0.39686
-0.467222
-0.545725
-0.570987
-0.537129
-0.471373
-0.385216
-0.288473
-0.185217
-0.0768697
0.0356705
0.151213
0.268204
0.369154
0.434473
0.424053
0.278806
0.0930068
-0.100126
-0.264746
-0.358829
-0.383201
-0.399018
-0.596165
-0.5622
-0.496279
-0.410098
-0.313526
-0.210743
-0.103349
0.00754183
0.120314
0.232549
0.326673
0.377352
0.34898
0.177651
0.000863196
-0.167093
-0.295277
-0.334994
-0.347837
-0.349135
-0.623075
-0.588911
-0.522826
-0.436718
-0.340463
-0.238388
-0.13221
-0.0233104
0.0862431
0.193131
0.279475
0.315492
0.266708
0.0842248
-0.0834728
-0.233836
-0.31112
-0.328304
-0.329695
-0.329512
-0.651774
-0.617326
-0.55104
-0.465076
-0.369303
-0.26814
-0.163454
-0.0568996
0.0490135
0.150028
0.227679
0.25163
0.166314
-0.00113285
-0.160393
-0.284308
-0.321403
-0.319853
-0.319004
-0.318426
-0.681979
-0.647267
-0.580817
-0.495086
-0.399958
-0.299946
-0.197051
-0.0931973
0.00866632
0.103358
0.172203
0.17888
0.0751013
-0.0802719
-0.221406
-0.298537
-0.308874
-0.311552
-0.31224
-0.311975
-0.71314
-0.678282
-0.611903
-0.526523
-0.432243
-0.33365
-0.232849
-0.132071
-0.0346066
0.0534802
0.113528
0.104979
-0.00676553
-0.147227
-0.266052
-0.298165
-0.306562
-0.307953
-0.307707
-0.307411
-0.744792
-0.709829
-0.643841
-0.558992
-0.465816
-0.368933
-0.27057
-0.173229
-0.0805153
0.0010983
0.0507585
0.0349471
-0.0820857
-0.201535
-0.295896
-0.313679
-0.305143
-0.304348
-0.304372
-0.304153
-0.776038
-0.741193
-0.67578
-0.591896
-0.500137
-0.405324
-0.309766
-0.216195
-0.128591
-0.0531299
-0.0132701
-0.029062
-0.148376
-0.243337
-0.296306
-0.307273
-0.304825
-0.303632
-0.303066
-0.302843
-0.805337
-0.7712
-0.706743
-0.624318
-0.534447
-0.44213
-0.349788
-0.26029
-0.178025
-0.108608
-0.0722742
-0.0992565
-0.202223
-0.284616
-0.284412
-0.302486
-0.305944
-0.303919
-0.30308
-0.302615
-0.831076
-0.798007
-0.735607
-0.655091
-0.567715
-0.478425
-0.389777
-0.30467
-0.227694
-0.164468
-0.128209
-0.166066
-0.247213
-0.313923
-0.332429
-0.319569
-0.3126
-0.309587
-0.308341
-0.307612
-0.851138
-0.819797
-0.76027
-0.682805
-0.598661
-0.513081
-0.428656
-0.348315
-0.276485
-0.219372
-0.185285
-0.218498
-0.276756
-0.350584
-0.38416
-0.34467
-0.325154
-0.320778
-0.318705
-0.317603
-0.8633
-0.834659
-0.778914
-0.705561
-0.625799
-0.544784
-0.465244
-0.390032
-0.323353
-0.271709
-0.239723
-0.258743
-0.274645
-0.31644
-0.313817
-0.318222
-0.323907
-0.325506
-0.324925
-0.324979
-0.864942
-0.840341
-0.789546
-0.721577
-0.647439
-0.572117
-0.498215
-0.428581
-0.367194
-0.32029
-0.284577
-0.292003
-0.260492
-0.223163
-0.250916
-0.293363
-0.310977
-0.317896
-0.321252
-0.322328
-0.853843
-0.834049
-0.789995
-0.729259
-0.662112
-0.593608
-0.52622
-0.462672
-0.406889
-0.36431
-0.323472
-0.330061
-0.305275
-0.24125
-0.285875
-0.322267
-0.336682
-0.341962
-0.344025
-0.344797
-0.828078
-0.813224
-0.778468
-0.72735
-0.668805
-0.608239
-0.548064
-0.490906
-0.440961
-0.403386
-0.361916
-0.389247
-0.456035
-0.537662
-0.51485
-0.447192
-0.406416
-0.389241
-0.382667
-0.380878
-0.790191
-0.780624
-0.755783
-0.715992
-0.667469
-0.615706
-0.563001
-0.512143
-0.467416
-0.435189
-0.411358
-0.435524
-0.516704
-0.675889
-0.644439
-0.475152
-0.387394
-0.357338
-0.348591
-0.345552
-0.746858
-0.741426
-0.726748
-0.697968
-0.660015
-0.616733
-0.571099
-0.525627
-0.484552
-0.453886
-0.427838
-0.379134
-0.258109
-0.15563
-0.141937
-0.171379
-0.211888
-0.233712
-0.238288
-0.236913
-0.707777
-0.704485
-0.697484
-0.678652
-0.649389
-0.613237
-0.573377
-0.531618
-0.491166
-0.456772
-0.43148
-0.334284
-0.156778
0.0973593
0.2355
0.0880805
-0.0786559
-0.185187
-0.216855
-0.230068
-0.679527
-0.677458
-0.673854
-0.662404
-0.639491
-0.608368
-0.571956
-0.531786
-0.489128
-0.451098
-0.426131
-0.400289
-0.442457
-0.676601
-1.02151
-1.28968
-1.39274
-1.31857
-1.16795
-1.10508
-0.658175
-0.657392
-0.656204
-0.650517
-0.633159
-0.604924
-0.569216
-0.527666
-0.482143
-0.434171
-0.400838
-0.419732
-0.64417
-1.04726
-1.52921
-1.73066
-1.67935
-1.47541
-1.27722
-1.19461
-0.645806
-0.645558
-0.645034
-0.642461
-0.629998
-0.603032
-0.565977
-0.521814
-0.470493
-0.409241
-0.359543
-0.316626
-0.363022
-0.445826
-0.51842
-0.512022
-0.328831
-0.120091
0.0311821
0.0993147
-0.636973
-0.636886
-0.636519
-0.63566
-0.627718
-0.602564
-0.564022
-0.515811
-0.456976
-0.387497
-0.30571
-0.205906
-0.0621699
0.194913
0.513082
0.849139
1.15899
1.35747
1.44892
1.47853
-0.630679
-0.630557
-0.630116
-0.629783
-0.624778
-0.603936
-0.564307
-0.511191
-0.446659
-0.364082
-0.259086
-0.152862
0.0772715
0.475892
0.941155
1.38138
1.72137
1.91074
1.9848
2.00082
-0.627651
-0.627365
-0.626463
-0.624645
-0.623199
-0.608783
-0.568194
-0.510801
-0.44007
-0.348889
-0.239563
-0.122731
0.0768607
0.47983
0.912618
1.30197
1.59049
1.74686
1.80428
1.81592
-0.628752
-0.629278
-0.630664
-0.63246
-0.633623
-0.620327
-0.576321
-0.516102
-0.441161
-0.34752
-0.238854
-0.126785
0.0230934
0.357641
0.697097
0.994782
1.20727
1.3167
1.35431
1.36092
-0.630409
-0.631768
-0.635239
-0.642683
-0.64794
-0.629461
-0.585366
-0.526879
-0.450612
-0.355553
-0.252947
-0.149684
-0.0338776
0.207194
0.451909
0.647311
0.780923
0.845151
0.868021
0.872735
-0.649609
-0.649696
-0.642089
-0.619494
-0.597164
-0.595741
-0.588987
-0.544867
-0.467084
-0.370343
-0.273688
-0.184263
-0.0937895
0.0730933
0.231864
0.348308
0.420864
0.455599
0.472415
0.478171
-0.698492
-0.695396
-0.677009
-0.633502
-0.595155
-0.602188
-0.62145
-0.575014
-0.487437
-0.386491
-0.298568
-0.224316
-0.156251
-0.0347397
0.0791127
0.156027
0.201391
0.224835
0.238571
0.243586
-0.79015
-0.794407
-0.817861
-0.850294
-0.850381
-0.822693
-0.754466
-0.630897
-0.510837
-0.401229
-0.317255
-0.258194
-0.209456
-0.111671
-0.0215168
0.0451188
0.09008
0.116046
0.128614
0.13191
-0.938928
-0.963503
-1.01932
-1.06851
-1.07502
-1.02704
-0.88012
-0.68565
-0.526857
-0.406487
-0.325622
-0.278275
-0.243588
-0.155909
-0.0748652
-0.0140227
0.0316182
0.0576644
0.0682119
0.0696179
-0.991845
-1.01638
-1.05751
-1.09176
-1.09567
-1.04054
-0.878509
-0.677819
-0.513854
-0.393399
-0.317665
-0.278163
-0.244244
-0.174036
-0.106414
-0.0547993
-0.0147426
0.00808202
0.0163667
0.0165528
-0.848799
-0.869524
-0.905407
-0.939911
-0.946925
-0.892015
-0.741331
-0.585797
-0.454267
-0.354933
-0.290765
-0.254001
-0.221904
-0.167697
-0.116779
-0.0758052
-0.0453915
-0.0277114
-0.0208713
-0.0210333
-0.533551
-0.55076
-0.583041
-0.619216
-0.637713
-0.607806
-0.52854
-0.439995
-0.361738
-0.297144
-0.248703
-0.21409
-0.18487
-0.150963
-0.117497
-0.0891479
-0.0677199
-0.0551288
-0.0512193
-0.0521979
-0.187464
-0.197229
-0.218618
-0.250684
-0.281954
-0.297917
-0.298445
-0.2836
-0.259916
-0.229796
-0.200179
-0.172959
-0.150706
-0.132455
-0.112951
-0.0954644
-0.081712
-0.074153
-0.0722727
-0.0737905
0.0503194
0.0454952
0.0308057
0.00234755
-0.0402924
-0.0878658
-0.126971
-0.154836
-0.167781
-0.165797
-0.153167
-0.136234
-0.124235
-0.117833
-0.110266
-0.1028
-0.0965628
-0.0938851
-0.0939208
-0.0955097
0.15411
0.151158
0.140389
0.115931
0.07516
0.0235077
-0.0282136
-0.0709286
-0.0998431
-0.113641
-0.112862
-0.106135
-0.103115
-0.106803
-0.109209
-0.111859
-0.115121
-0.11917
-0.121407
-0.122349
0.172679
0.170713
0.162856
0.144163
0.111791
0.0691581
0.0226241
-0.0205954
-0.0549749
-0.0762441
-0.08213
-0.0805359
-0.0824407
-0.0928279
-0.105679
-0.118117
-0.128884
-0.13739
-0.140508
-0.140881
0.153888
0.152617
0.147241
0.134134
0.110957
0.0791519
0.0418043
0.00459148
-0.0281494
-0.0518556
-0.061346
-0.0600587
-0.0611034
-0.0795242
-0.0997165
-0.116491
-0.130445
-0.139207
-0.141875
-0.142075
0.123916
0.123133
0.1196
0.110787
0.0948306
0.0720442
0.0436415
0.0133074
-0.015974
-0.0400941
-0.0530334
-0.0540062
-0.0552905
-0.0756275
-0.0960695
-0.1115
-0.122706
-0.128427
-0.129984
-0.130324
0.0934922
0.0931258
0.0908929
0.0851239
0.0743544
0.0583146
0.0372511
0.013118
-0.0126868
-0.0381296
-0.0585613
-0.0720637
-0.080133
-0.0935591
-0.103058
-0.109503
-0.114183
-0.115934
-0.116541
-0.117024
0.0670343
0.0667271
0.0653167
0.0616056
0.0544136
0.0432445
0.0278196
0.00882703
-0.0136857
-0.0407848
-0.0719503
-0.107328
-0.127125
-0.123229
-0.116065
-0.111701
-0.109883
-0.109081
-0.108935
-0.109324
0.0450685
0.044926
0.0440575
0.041763
0.0371178
0.0295166
0.0185339
0.00399742
-0.0149647
-0.0414257
-0.0791945
-0.12903
-0.155969
-0.138397
-0.119212
-0.110234
-0.10667
-0.105262
-0.104574
-0.104596
0.0274221
0.02736
0.026894
0.0256182
0.022897
0.0181366
0.0108746
0.00076555
-0.0130283
-0.0353526
-0.0706482
-0.117092
-0.134218
-0.115582
-0.100344
-0.0947475
-0.0940261
-0.0938376
-0.093062
-0.0926984
0.0135025
0.0135109
0.0133461
0.012804
0.0114781
0.00907785
0.00524862
-0.000407866
-0.00890805
-0.0224993
-0.044287
-0.0707487
-0.0751478
-0.0648526
-0.0590033
-0.0613133
-0.0641045
-0.0649993
-0.0644063
-0.0638507
0.00219197
0.00224777
0.00220839
0.00227878
0.00242007
0.00226612
0.00172708
0.000757092
-0.000656037
-0.00258783
-0.00614269
-0.0113852
-0.0152646
-0.0155352
-0.0157828
-0.0160448
-0.0164079
-0.0158417
-0.0153052
-0.0146174
-0.0846473
0.0811844
0.274448
0.44305
0.577282
0.682385
0.76895
0.842721
0.876543
0.853319
0.214729
0.334509
0.463245
0.574275
0.667591
0.744581
0.806881
0.851165
0.873334
0.885528
0.431297
0.513347
0.601293
0.678797
0.745355
0.801013
0.845298
0.877697
0.901194
0.919256
0.590603
0.649391
0.710236
0.766811
0.815922
0.857652
0.891965
0.919381
0.942037
0.960385
0.714981
0.75768
0.803272
0.84669
0.885071
0.918614
0.947356
0.971311
0.991612
1.00948
0.818638
0.851272
0.889137
0.924439
0.956869
0.985962
1.01141
1.03281
1.05061
1.06797
0.910775
0.939329
0.973134
1.00513
1.03496
1.06203
1.08571
1.10538
1.12085
1.13793
0.999116
1.02823
1.06214
1.0941
1.12363
1.15016
1.17298
1.19143
1.20478
1.22181
1.09428
1.12743
1.16402
1.19755
1.22755
1.2537
1.27562
1.29288
1.30473
1.32213
1.20919
1.24698
1.28559
1.31981
1.34912
1.37385
1.3942
1.41008
1.42153
1.4396
1.35407
1.3926
1.42872
1.45939
1.48505
1.50713
1.52617
1.54169
1.55411
1.57211
1.52912
1.56073
1.5869
1.60933
1.6293
1.64801
1.66572
1.68219
1.69754
1.7156
1.71771
1.73491
1.74994
1.76616
1.78206
1.79659
1.80979
1.82371
1.84125
1.8614
1.89942
1.90895
1.92049
1.9313
1.94058
1.95016
1.96094
1.9723
1.98366
1.99902
2.10664
2.11031
2.09536
2.08055
2.07427
2.07994
2.09842
2.12873
2.16091
2.18756
2.41297
2.2781
2.20146
2.15907
2.14165
2.14561
2.17301
2.22942
2.33204
2.55641
0.730765
0.728638
0.724155
0.715534
0.703314
0.691191
0.680971
0.67309
0.667492
0.664265
0.663943
0.666713
0.671841
0.679081
0.68848
0.700028
0.712684
0.723723
0.729836
0.732892
0.65521
0.661058
0.667393
0.671889
0.674363
0.674045
0.671318
0.667522
0.664033
0.661801
0.661689
0.663919
0.667607
0.671914
0.675734
0.677626
0.676696
0.673219
0.668058
0.661437
0.646771
0.649067
0.652473
0.655473
0.657553
0.659057
0.659823
0.659522
0.658519
0.657668
0.65788
0.659342
0.661185
0.66251
0.662704
0.661824
0.660282
0.657952
0.654692
0.651773
0.641239
0.642325
0.644161
0.646543
0.648573
0.650009
0.651042
0.651811
0.652238
0.652496
0.653029
0.653875
0.654503
0.654592
0.654196
0.653359
0.651899
0.649821
0.647739
0.646358
0.636008
0.636671
0.637781
0.639491
0.641279
0.642921
0.644231
0.645267
0.646179
0.647009
0.647787
0.648384
0.648612
0.648472
0.647924
0.646883
0.645466
0.643931
0.642618
0.64184
0.630997
0.631457
0.632246
0.633549
0.635044
0.636573
0.638054
0.639375
0.640544
0.641646
0.642618
0.643239
0.643425
0.643182
0.642508
0.641536
0.640425
0.639302
0.638393
0.637878
0.626125
0.626469
0.627082
0.628156
0.629459
0.630846
0.632303
0.633776
0.635187
0.636521
0.637697
0.638451
0.638678
0.63844
0.637869
0.637115
0.636281
0.635428
0.634763
0.634386
0.621336
0.621603
0.622099
0.623014
0.624194
0.625505
0.626921
0.628439
0.630024
0.631605
0.633031
0.633975
0.634336
0.634262
0.633905
0.633373
0.632746
0.632123
0.631641
0.631353
0.616548
0.61676
0.617172
0.617977
0.619078
0.620344
0.621753
0.623323
0.625045
0.626872
0.628595
0.629813
0.630423
0.630599
0.630478
0.630172
0.629757
0.629329
0.628987
0.628762
0.611671
0.611841
0.612195
0.612928
0.613984
0.615231
0.616671
0.61833
0.620215
0.622307
0.624386
0.625973
0.626918
0.62739
0.627529
0.62746
0.627262
0.627011
0.626786
0.626608
0.606615
0.606753
0.607065
0.607754
0.608796
0.610069
0.611579
0.613369
0.615474
0.617887
0.620401
0.622448
0.623794
0.62461
0.625047
0.625231
0.625249
0.62517
0.625046
0.624902
0.60129
0.601401
0.601685
0.602355
0.603417
0.604762
0.606387
0.608364
0.610753
0.613574
0.616623
0.619223
0.621043
0.622259
0.623032
0.623494
0.62374
0.623834
0.623797
0.62368
0.595597
0.595685
0.595953
0.596629
0.597747
0.599206
0.601001
0.603232
0.605987
0.609321
0.613025
0.61629
0.618672
0.620352
0.621505
0.622291
0.622791
0.62305
0.623092
0.622996
0.589426
0.589492
0.589754
0.590459
0.59167
0.593291
0.59532
0.597885
0.601104
0.605078
0.609581
0.613643
0.616694
0.61892
0.620512
0.621663
0.622444
0.622883
0.622998
0.622919
0.582644
0.58269
0.582954
0.583709
0.585055
0.586894
0.589229
0.592221
0.596028
0.600789
0.606264
0.611285
0.61513
0.618002
0.620111
0.621671
0.622777
0.623411
0.6236
0.623534
0.575097
0.575124
0.575391
0.576219
0.577742
0.579865
0.582593
0.586126
0.590667
0.596398
0.603051
0.60922
0.614007
0.617638
0.620362
0.622411
0.623887
0.624729
0.624991
0.624935
0.566568
0.566581
0.566858
0.567787
0.569546
0.572014
0.575249
0.579466
0.58492
0.59184
0.599919
0.607459
0.613361
0.617887
0.621334
0.623972
0.625867
0.626939
0.627274
0.627224
0.556768
0.556753
0.557083
0.558155
0.560201
0.563129
0.567004
0.572081
0.578671
0.587053
0.596853
0.606022
0.61324
0.61882
0.623114
0.626438
0.628821
0.630144
0.630551
0.630504
0.545389
0.545349
0.545727
0.546992
0.549409
0.552928
0.557616
0.563781
0.571794
0.581973
0.593845
0.604939
0.613693
0.620506
0.625797
0.629906
0.632849
0.634439
0.634915
0.634866
0.531938
0.531871
0.532329
0.533848
0.536752
0.541039
0.546782
0.554342
0.564148
0.576541
0.590894
0.604248
0.614775
0.623004
0.629457
0.634473
0.638033
0.639898
0.640432
0.640375
0.515755
0.515659
0.516244
0.518119
0.521675
0.526991
0.534132
0.543512
0.555601
0.57072
0.588029
0.603999
0.616552
0.626389
0.634152
0.640191
0.644422
0.646551
0.647125
0.647054
0.495891
0.495768
0.496557
0.49895
0.503425
0.510171
0.51922
0.531025
0.546047
0.564524
0.585317
0.604268
0.619089
0.630716
0.639908
0.647094
0.652006
0.654363
0.654948
0.654855
0.470904
0.470766
0.471893
0.475089
0.480958
0.489798
0.501554
0.516657
0.535466
0.558045
0.582883
0.60516
0.622453
0.63602
0.646771
0.655147
0.660697
0.663204
0.663759
0.663637
0.438456
0.438341
0.440086
0.444678
0.452862
0.46497
0.480698
0.500329
0.523981
0.551486
0.580918
0.606808
0.626715
0.642315
0.654683
0.664248
0.670297
0.672828
0.673304
0.673147
0.394348
0.3944
0.397505
0.405006
0.417489
0.434926
0.456541
0.482274
0.511954
0.545197
0.579684
0.609366
0.631946
0.649601
0.663567
0.674194
0.680476
0.682855
0.683204
0.683013
0.330707
0.331938
0.339532
0.353528
0.373877
0.399794
0.4297
0.463205
0.50002
0.539653
0.579466
0.612976
0.638174
0.657793
0.673183
0.684543
0.69075
0.692735
0.692912
0.692703
0.255307
0.257115
0.271654
0.295696
0.327053
0.362983
0.401919
0.443687
0.488112
0.534731
0.58064
0.61878
0.647249
0.669252
0.68623
0.69823
0.704103
0.705754
0.705884
0.705759
0.177562
0.183842
0.205308
0.239675
0.281494
0.327144
0.375068
0.425141
0.477246
0.530941
0.583072
0.625937
0.657663
0.682055
0.700794
0.712861
0.71792
0.719063
0.719136
0.719084
0.113947
0.122572
0.148625
0.19006
0.240079
0.294008
0.350029
0.40787
0.467298
0.527798
0.585876
0.63316
0.667895
0.694285
0.713911
0.725925
0.730643
0.731693
0.731812
0.73182
0.0622187
0.0714425
0.101068
0.14777
0.203972
0.264573
0.327443
0.392146
0.458265
0.525142
0.588858
0.640337
0.677866
0.70613
0.726801
0.739012
0.743494
0.744478
0.744654
0.744709
0.0189696
0.0284739
0.0605575
0.111274
0.172554
0.238693
0.307377
0.378083
0.450225
0.522994
0.592045
0.647553
0.687808
0.717951
0.7397
0.752154
0.756677
0.757854
0.758057
0.75815
-0.0181734
-0.00856618
0.0253537
0.0792827
0.144768
0.215635
0.289388
0.36542
0.443034
0.521281
0.595396
0.654789
0.697716
0.729695
0.752561
0.765658
0.770491
0.771742
0.77194
0.772036
-0.0508976
-0.0412675
-0.0059442
0.0506943
0.119705
0.194653
0.2729
0.353742
0.436391
0.519766
0.59871
0.661874
0.707422
0.741269
0.765372
0.779107
0.784284
0.785627
0.785821
0.785899
-0.0805024
-0.0708486
-0.0343785
0.0245981
0.0966321
0.175161
0.257415
0.342626
0.429932
0.518158
0.601759
0.6686
0.716709
0.752343
0.777568
0.792042
0.797588
0.799018
0.799201
0.799261
-0.10789
-0.0982055
-0.0607488
0.00027942
0.0749899
0.156692
0.242533
0.331729
0.423377
0.516223
0.604347
0.674792
0.725405
0.762764
0.789093
0.80417
0.810132
0.811622
0.811763
0.81179
-0.133642
-0.123906
-0.0855345
-0.0227763
0.0543493
0.138888
0.227968
0.320815
0.416509
0.513759
0.606307
0.680329
0.7334
0.772421
0.799763
0.815352
0.821586
0.823123
0.823247
0.823243
-0.158255
-0.148397
-0.109139
-0.0448846
0.0344238
0.1215
0.21351
0.309694
0.409163
0.510621
0.607526
0.685149
0.740679
0.781286
0.809527
0.825472
0.831862
0.833401
0.833506
0.833471
-0.182017
-0.171953
-0.131984
-0.0662302
0.015016
0.104355
0.199012
0.298249
0.401227
0.50671
0.607921
0.689206
0.747247
0.789399
0.818379
0.83455
0.840945
0.842473
0.842557
0.842493
-0.205043
-0.19479
-0.154128
-0.0869636
-0.00400647
0.087366
0.184397
0.28641
0.392636
0.501937
0.607409
0.69248
0.753155
0.796886
0.826494
0.84272
0.849001
0.850458
0.850504
0.850422
-0.22753
-0.217006
-0.1756
-0.107188
-0.0227041
0.0704788
0.169631
0.274149
0.383356
0.49626
0.605928
0.694939
0.758469
0.803893
0.834034
0.850133
0.856168
0.857491
0.857487
0.857385
-0.24943
-0.238652
-0.196558
-0.126963
-0.0410981
0.053688
0.154727
0.261481
0.37339
0.489649
0.603419
0.696537
0.763242
0.81058
0.841226
0.856968
0.862571
0.86368
0.863613
0.863491
-0.270819
-0.259759
-0.216935
-0.146285
-0.0591845
0.0370101
0.139709
0.248448
0.362775
0.482108
0.599826
0.697204
0.767478
0.817102
0.848336
0.863479
0.868325
0.869083
0.86894
0.868814
-0.291552
-0.280278
-0.236729
-0.165119
-0.0769294
0.0205043
0.124632
0.235107
0.351567
0.473676
0.595113
0.696852
0.771123
0.823557
0.855706
0.870095
0.87376
0.873852
0.873573
0.873467
-0.311767
-0.300169
-0.255941
-0.183456
-0.0943103
0.00420083
0.109578
0.221529
0.339841
0.464418
0.589272
0.695368
0.77404
0.829933
0.863644
0.877488
0.879555
0.878326
0.87763
0.877571
-0.331311
-0.319417
-0.27455
-0.201264
-0.111256
-0.0118223
0.0946209
0.207825
0.327698
0.454387
0.582327
0.692629
0.776029
0.836046
0.872224
0.886423
0.88708
0.883715
0.881547
0.880902
-0.35025
-0.338072
-0.292508
-0.218497
-0.127736
-0.0275012
0.0798388
0.194071
0.315244
0.443711
0.574329
0.688513
0.776833
0.841522
0.881032
0.89714
0.897987
0.892858
0.886594
0.878738
-0.368504
-0.356091
-0.309908
-0.23531
-0.143958
-0.0430997
0.0649106
0.179886
0.302054
0.431919
0.564788
0.682515
0.776025
0.846126
0.889571
0.909216
0.912875
0.907278
0.896223
0.891705