/*--------------------------------*- C++ -*----------------------------------*\
| =========                 |                                                 |
| \\      /  F ield         | OpenFOAM: The Open Source CFD Toolbox           |
|  \\    /   O peration     | Version:  2112                                  |
|   \\  /    A nd           | Website:  www.openfoam.com                      |
|    \\/     M anipulation  |                                                 |
\*---------------------------------------------------------------------------*/
FoamFile
{
    version     2.0;
    format      ascii;
    arch        "LSB;label=32;scalar=64";
    class       surfaceScalarField;
    location    "67.5";
    object      phi;
}
// * * * * * * * * * * * * * * * * * * * * * * * * * * * * * * * * * * * * * //

dimensions      [0 3 -1 0 0 0 0];

oriented        oriented;

internalField   nonuniform List<scalar> 
17370
(
-0.0916061
0.0960093
0.284608
-0.0775945
0.0594198
0.36495
-0.0430419
0.0316218
0.427588
-0.0223178
0.0162651
0.505304
-0.0116721
0.00879853
0.602276
-0.00658758
0.00510274
0.720542
-0.00386581
0.00298545
0.863787
-0.00221237
0.00163396
1.03603
-0.00110208
0.000680666
1.24292
-0.000268679
-0.000126074
1.49159
0.000515117
-0.000929967
1.49161
0.00133583
-0.00184112
1.2432
0.00239065
-0.00313128
1.03638
0.00398631
-0.00520354
0.864124
0.00667693
-0.00887826
0.721259
0.0117414
-0.0163189
0.603792
0.0223552
-0.0316412
0.508725
0.0430417
-0.059408
0.432534
0.0775871
-0.0960027
0.365191
0.0916213
0.19739
-0.127093
0.0880252
0.0390675
-0.364358
0.354033
-0.0714729
0.0817979
-0.446654
0.454257
-0.0791671
0.0715639
-0.521012
0.529113
-0.063709
0.0556082
-0.612992
0.620763
-0.0482197
0.040449
-0.727165
0.733687
-0.033836
0.0273139
-0.867582
0.872436
-0.0221084
0.0172541
-1.03857
1.04191
-0.0135537
0.0102121
-1.24472
1.24713
-0.00765894
0.00525013
-1.49284
1.49486
-0.00328309
0.00126566
-1.49269
1.49452
0.000556157
-0.00237842
-1.2441
1.24602
0.00435414
-0.00626761
-1.03761
1.04008
0.00860361
-0.0110807
-0.866186
0.86981
0.0143348
-0.0179588
-0.724592
0.729744
0.0227413
-0.0278926
-0.609063
0.61563
0.0343633
-0.0409307
-0.515122
0.522455
0.0486484
-0.0559819
-0.43988
0.447655
0.064001
-0.0717758
-0.374704
0.377355
0.0792652
-0.0819157
-0.256894
0.22443
0.0715651
-0.0391015
-0.0688153
0.0592056
0.00960965
-0.0520954
0.0589181
-0.374842
0.368019
-0.0580675
0.054223
-0.45395
0.457795
-0.0487341
0.0441728
-0.527622
0.532184
-0.0396205
0.035722
-0.620807
0.624706
-0.0315055
0.0275066
-0.734666
0.738665
-0.0231451
0.0192533
-0.873963
0.877855
-0.0152029
0.011741
-1.04337
1.04683
-0.00821613
0.00517872
-1.24866
1.25169
-0.00196631
-0.00101874
-1.49695
1.49993
0.00398115
-0.00713186
-1.49742
1.50057
0.0100786
-0.0134789
-1.25006
1.25346
0.0168118
-0.0207125
-1.04564
1.04954
0.0244723
-0.0287038
-0.877127
0.881358
0.0325982
-0.0367115
-0.738973
0.743086
0.0405247
-0.0449931
-0.625961
0.630429
0.0494841
-0.0549043
-0.535008
0.540429
0.0586688
-0.0594249
-0.458067
0.458824
0.0524706
-0.0320742
-0.336751
0.316354
0.00967649
-0.0686539
0.0589774
-0.0534189
0.0493102
0.00410877
-0.033225
0.0436403
-0.358579
0.348164
-0.0473092
0.0467176
-0.459591
0.460183
-0.0437848
0.0405684
-0.536145
0.539361
-0.036887
0.0335278
-0.62841
0.631769
-0.0298885
0.0266418
-0.742051
0.745297
-0.0231821
0.0199779
-0.881355
0.884559
-0.0163772
0.0130183
-1.05026
1.05362
-0.00931145
0.00590019
-1.25496
1.25837
-0.00210311
-0.00151766
-1.50329
1.50691
0.00510603
-0.00880936
-1.50406
1.50776
0.0120926
-0.0156228
-1.25701
1.26054
0.0187986
-0.0221864
-1.05325
1.05663
0.0252022
-0.028476
-0.88496
0.888234
0.0315727
-0.0350638
-0.746761
0.750253
0.0382973
-0.0418479
-0.634543
0.638094
0.0449507
-0.0477562
-0.544566
0.547371
0.0482157
-0.0443633
-0.456932
0.453079
0.0337231
-0.0163936
-0.297024
0.279695
0.00418287
-0.0531238
0.0489409
-0.0461439
0.0435918
0.00255207
-0.0230228
0.0333596
-0.337583
0.327246
-0.0390817
0.0400225
-0.45994
0.458999
-0.0387639
0.03643
-0.542023
0.544357
-0.0337808
0.0312274
-0.634743
0.637297
-0.0282418
0.0253856
-0.74839
0.751246
-0.0221385
0.0191159
-0.887623
0.890646
-0.0157551
0.012612
-1.05681
1.05995
-0.00904531
0.00563692
-1.26177
1.26518
-0.00171898
-0.00208311
-1.51064
1.51444
0.00584335
-0.00963474
-1.51154
1.51533
0.0128733
-0.0162082
-1.26399
1.26733
0.0191109
-0.022193
-1.05984
1.06292
0.0249662
-0.0279621
-0.89142
0.894416
0.0306119
-0.0333923
-0.753422
0.756202
0.0357735
-0.038248
-0.641038
0.643512
0.0404326
-0.0414948
-0.549197
0.550259
0.0403493
-0.0343283
-0.447941
0.44192
0.023663
-0.0103933
-0.264488
0.251219
0.00264396
-0.0456917
0.0430477
-0.0414773
0.0396813
0.00179604
-0.0169135
0.0261812
-0.317393
0.308125
-0.0327597
0.0348671
-0.457449
0.455341
-0.034421
0.0327126
-0.546394
0.548102
-0.030474
0.0283352
-0.639617
0.641756
-0.0258847
0.0234941
-0.753857
0.756247
-0.0206657
0.0179067
-0.893514
0.896273
-0.0147088
0.0116621
-1.063
1.06605
-0.00818441
0.00485831
-1.26851
1.27184
-0.00100945
-0.00274312
-1.51821
1.52197
0.00644156
-0.0101301
-1.51907
1.52275
0.01324
-0.0164232
-1.27059
1.27377
0.0191645
-0.0220051
-1.06594
1.06878
0.0244418
-0.0269449
-0.897187
0.89969
0.0290695
-0.0312571
-0.758629
0.760817
0.0331765
-0.0351899
-0.645727
0.647741
0.0366808
-0.0368589
-0.550827
0.551005
0.0344371
-0.0274214
-0.435306
0.428291
0.0177131
-0.00749799
-0.239618
0.229403
0.00190849
-0.0408316
0.0389231
-0.0381362
0.0367899
0.00134639
-0.0129079
0.0208843
-0.299505
0.291529
-0.0276277
0.0305313
-0.452802
0.449899
-0.030722
0.0295835
-0.549551
0.550689
-0.0275702
0.0256293
-0.643824
0.645765
-0.0234006
0.0212434
-0.758504
0.760661
-0.0187178
0.0162335
-0.898838
0.901323
-0.0132961
0.0104253
-1.06896
1.07184
-0.00707992
0.00385074
-1.27508
1.27831
-0.000106607
-0.00352949
-1.52564
1.52927
0.0070986
-0.0106412
-1.52636
1.5299
0.0136007
-0.0165788
-1.27687
1.27985
0.0190676
-0.021557
-1.0715
1.07399
0.0236379
-0.0257549
-0.901987
0.904104
0.0275756
-0.0294697
-0.762842
0.764736
0.0311326
-0.0328753
-0.649595
0.651338
0.0336964
-0.0331318
-0.550813
0.550249
0.0297788
-0.0224361
-0.421053
0.413711
0.0138937
-0.00580198
-0.22035
0.212258
0.00148358
-0.0372539
0.0357703
-0.0356145
0.0345794
0.00103504
-0.0100762
0.0168228
-0.28419
0.277444
-0.0233105
0.0266718
-0.446744
0.443383
-0.0274354
0.0267268
-0.551603
0.552312
-0.0249444
0.0231452
-0.647672
0.649471
-0.0210643
0.0190407
-0.76275
0.764774
-0.0166603
0.0143247
-0.90367
0.906006
-0.0115777
0.00888468
-1.07455
1.07724
-0.00571762
0.00262854
-1.28143
1.28452
0.000974995
-0.00447578
-1.53282
1.53632
0.00789259
-0.0112474
-1.53334
1.53669
0.0140017
-0.0167143
-1.28271
1.28542
0.018937
-0.0211322
-1.07637
1.07857
0.0229691
-0.024843
-0.906111
0.907984
0.0264495
-0.0281156
-0.766505
0.768171
0.0295705
-0.0309803
-0.652933
0.654343
0.0312935
-0.029999
-0.549334
0.54804
0.0260184
-0.018742
-0.406375
0.399099
0.0112845
-0.00468037
-0.204981
0.198376
0.00120194
-0.034444
0.0332421
-0.0336708
0.0328662
0.000804561
-0.00797617
0.0136447
-0.271264
0.265596
-0.0196505
0.0232122
-0.439909
0.436347
-0.0244544
0.0239919
-0.552926
0.553388
-0.0224803
0.0207898
-0.651263
0.652953
-0.0188046
0.0168698
-0.766751
0.768686
-0.0145894
0.012348
-0.908233
0.910474
-0.009708
0.00712748
-1.07981
1.08239
-0.00410494
0.00115516
-1.28749
1.29044
0.0022848
-0.00562131
-1.53971
1.54305
0.00885625
-0.0119925
-1.53992
1.54306
0.0145304
-0.0169982
-1.28801
1.29048
0.0190028
-0.0209648
-1.08071
1.08267
0.022593
-0.0242509
-0.909766
0.911424
0.0256731
-0.0271475
-0.769732
0.771206
0.0284083
-0.029438
-0.655544
0.656573
0.0293788
-0.0274122
-0.546413
0.544447
0.0230229
-0.0160049
-0.391947
0.384929
0.00945325
-0.00390601
-0.192351
0.186804
0.00100746
-0.0321499
0.0311425
-0.0321593
0.0315329
0.000626455
-0.00635755
0.0111039
-0.260415
0.255668
-0.0165198
0.0200839
-0.43278
0.429216
-0.0216508
0.0214132
-0.55377
0.554008
-0.0201336
0.0185048
-0.654658
0.656287
-0.0165755
0.01469
-0.770593
0.772478
-0.0124689
0.0102878
-0.912614
0.914795
-0.0077204
0.00521395
-1.08486
1.08736
-0.0022858
-0.000549906
-1.29328
1.29611
0.00384495
-0.00701543
-1.54627
1.54944
0.0100605
-0.0129813
-1.54606
1.54898
0.0153219
-0.017575
-1.29284
1.2951
0.0193804
-0.0211206
-1.08461
1.08635
0.0225524
-0.0240124
-0.913
0.91446
0.0252698
-0.0265705
-0.772586
0.773887
0.0276843
-0.028294
-0.657386
0.657996
0.0278629
-0.0253296
-0.542212
0.539679
0.0206878
-0.0139955
-0.378083
0.371391
0.00815958
-0.0033668
-0.181673
0.17688
0.000872839
-0.0302127
0.0293399
-0.0309858
0.0305035
0.0004823
-0.00505536
0.00900608
-0.251344
0.247393
-0.0137859
0.0172025
-0.42573
0.422314
-0.0189531
0.0189055
-0.554187
0.554235
-0.0178228
0.0162288
-0.657961
0.659555
-0.014323
0.0124532
-0.774349
0.776219
-0.0102507
0.0080931
-0.916882
0.91904
-0.00556278
0.00310341
-1.08976
1.09222
-0.000245624
-0.00251561
-1.29885
1.30161
0.00568988
-0.00871149
-1.55249
1.55552
0.0115808
-0.0143012
-1.55177
1.55449
0.0164548
-0.0184999
-1.29725
1.29929
0.020111
-0.0216361
-1.08808
1.08961
0.0228829
-0.0241622
-0.915844
0.917123
0.0252711
-0.0264121
-0.775097
0.776238
0.0273338
-0.0275619
-0.658409
0.658637
0.0267323
-0.0237175
-0.53692
0.533905
0.018921
-0.0125466
-0.364877
0.358502
0.00725506
-0.00299664
-0.172387
0.168129
0.000781992
-0.028522
0.0277401
-0.0300885
0.0297281
0.000360402
-0.00396468
0.00721618
-0.243814
0.240562
-0.0113475
0.0145059
-0.419037
0.415878
-0.0163136
0.016418
-0.55425
0.554146
-0.0154188
0.0138965
-0.661186
0.662709
-0.0119862
0.0100994
-0.778086
0.779973
-0.00787771
0.00570902
-0.921109
0.923278
-0.00317919
0.000734267
-1.09458
1.09703
0.00209321
-0.00479827
-1.30428
1.30698
0.00788018
-0.0107774
-1.55843
1.56133
0.0134902
-0.0160216
-1.55708
1.55961
0.0179936
-0.0198359
-1.30123
1.30308
0.0212578
-0.0225715
-1.09115
1.09247
0.0236372
-0.0247426
-0.918329
0.919434
0.0257082
-0.0266815
-0.777285
0.778259
0.0273443
-0.0272831
-0.658737
0.658676
0.0260079
-0.0225648
-0.530689
0.527246
0.0176577
-0.0115461
-0.352285
0.346173
0.00664791
-0.00275485
-0.164083
0.160189
0.000724719
-0.0269962
0.0262715
-0.0294276
0.0291759
0.000251706
-0.0030089
0.00562923
-0.237646
0.235025
-0.00911194
0.0119289
-0.412906
0.410089
-0.0136797
0.013865
-0.554049
0.553864
-0.0129072
0.011429
-0.664291
0.665769
-0.00949201
0.00755957
-0.781865
0.783798
-0.00528345
0.00306939
-0.925361
0.927575
-0.000502368
-0.00196779
-1.09938
1.10185
0.00479863
-0.00748159
-1.3096
1.31229
0.010503
-0.0133023
-1.56413
1.56693
0.0158785
-0.0182334
-1.56202
1.56438
0.0200295
-0.0216718
-1.30481
1.30645
0.0229044
-0.0240032
-1.09383
1.09493
0.0248837
-0.0258125
-0.920463
0.921392
0.0266337
-0.027434
-0.779125
0.779926
0.0278052
-0.0274566
-0.658469
0.65812
0.0257312
-0.02187
-0.523614
0.519753
0.0168513
-0.0109183
-0.340186
0.334253
0.00627888
-0.00261498
-0.15644
0.152777
0.000694168
-0.025572
0.0248778
-0.0289806
0.0288321
0.000148534
-0.00212425
0.00415223
-0.232718
0.23069
-0.00698149
0.00938659
-0.407497
0.405091
-0.0109716
0.0111584
-0.553736
0.553549
-0.0102084
0.00873573
-0.667344
0.668816
-0.00674475
0.00473622
-0.785742
0.78775
-0.00236946
7.8534e-05
-0.929706
0.931997
0.00257231
-0.00509957
-1.10423
1.10676
0.00797148
-0.0106637
-1.31489
1.31758
0.0136541
-0.0163765
-1.56964
1.57236
0.0188299
-0.0210168
-1.56661
1.56879
0.0226413
-0.0240835
-1.30797
1.30942
0.0251187
-0.0259865
-1.0961
1.09697
0.0266667
-0.0274038
-0.92223
0.922967
0.0280729
-0.0287294
-0.780606
0.781262
0.0287848
-0.0280564
-0.65756
0.656831
0.0258767
-0.0216025
-0.51573
0.511456
0.016448
-0.0106001
-0.328405
0.322557
0.00610223
-0.00255674
-0.149202
0.145656
0.000684976
-0.0241987
0.0235137
-0.0287396
0.0286954
4.41587e-05
-0.001262
0.00271253
-0.228965
0.227515
-0.00487463
0.00680456
-0.402944
0.401014
-0.00812036
0.00822632
-0.553473
0.553367
-0.00723728
0.00573274
-0.670426
0.67193
-0.00364934
0.00153172
-0.789775
0.791893
0.000965497
-0.0033777
-0.93421
0.936622
0.00614634
-0.00876889
-1.10921
1.11183
0.0117224
-0.014458
-1.32021
1.32294
0.0174487
-0.0201148
-1.575
1.57767
0.0224571
-0.0244806
-1.57085
1.57287
0.0259333
-0.0271727
-1.31073
1.31197
0.0280055
-0.0286387
-1.09795
1.09859
0.029112
-0.0296431
-0.923609
0.924141
0.0301456
-0.0305927
-0.781721
0.782168
0.0303569
-0.0291682
-0.655882
0.654693
0.0264983
-0.0217789
-0.507028
0.502309
0.0164316
-0.0105607
-0.316749
0.310878
0.00609401
-0.00256946
-0.142153
0.138628
0.000694435
-0.0228354
0.0221409
-0.0287071
0.028773
-6.58444e-05
-0.00037698
0.00124483
-0.226367
0.225499
-0.00271246
0.00410208
-0.399375
0.397985
-0.00504526
0.00498512
-0.55343
0.55349
-0.00390002
0.00231141
-0.673624
0.675212
-0.000101817
-0.00216446
-0.794031
0.796297
0.00483974
-0.00741314
-0.938954
0.941527
0.0103503
-0.0131115
-1.11438
1.11714
0.0161907
-0.0190059
-1.32562
1.32844
0.0220301
-0.0246616
-1.58025
1.58289
0.0269038
-0.0287642
-1.57476
1.57662
0.0300387
-0.0310653
-1.31305
1.31408
0.0316872
-0.0320771
-1.09936
1.09975
0.0323343
-0.032645
-0.924571
0.924881
0.0329564
-0.033118
-0.782309
0.782471
0.0325853
-0.0308453
-0.653298
0.651558
0.0276372
-0.0224182
-0.497436
0.492217
0.0167986
-0.0107852
-0.304996
0.298983
0.00624164
-0.00264708
-0.135103
0.131509
0.000720797
-0.0214455
0.0207247
-0.0288983
0.029079
-0.000180717
0.000544289
-0.000293364
-0.224947
0.224696
-0.000427698
0.00119811
-0.396916
0.396145
-0.00165757
0.00134546
-0.553787
0.554099
-0.000108473
-0.00164111
-0.67705
0.6788
0.00403967
-0.00650522
-0.798595
0.801061
0.00940986
-0.0121922
-0.944022
0.946804
0.0153501
-0.0182962
-1.11984
1.12279
0.0215481
-0.0244803
-1.3312
1.33413
0.0275697
-0.030185
-1.58544
1.58806
0.0323323
-0.0340228
-1.57834
1.58003
0.0351104
-0.0359054
-1.31492
1.31571
0.0363037
-0.0364373
-1.10028
1.10041
0.0364618
-0.0365353
-0.925076
0.925149
0.0366488
-0.0364416
-0.782261
0.782054
0.0355251
-0.0331671
-0.64965
0.647292
0.0293473
-0.0235401
-0.486826
0.481018
0.0175444
-0.011259
-0.2929
0.286615
0.00653244
-0.00278299
-0.127872
0.124123
0.000762039
-0.0199961
0.019234
-0.0293431
0.029671
-0.000327924
0.00157008
-0.00196161
-0.224789
0.225181
0.00209116
-0.00204946
-0.395696
0.395654
0.00220502
-0.00288002
-0.554764
0.555439
0.00435286
-0.00629741
-0.680853
0.682797
0.00893448
-0.0116499
-0.803555
0.80627
0.0148447
-0.0178928
-0.949512
0.952561
0.0213325
-0.0245157
-1.12568
1.12886
0.0279909
-0.0310777
-1.33702
1.3401
0.0342629
-0.0368778
-1.59059
1.59321
0.0389307
-0.0404348
-1.58156
1.58306
0.0413158
-0.0418681
-1.31628
1.31683
0.0420269
-0.0418784
-1.10066
1.10051
0.0416451
-0.0414629
-0.92507
0.924888
0.0413711
-0.0406871
-0.781424
0.78074
0.0393017
-0.0362238
-0.644789
0.641711
0.0316881
-0.0251702
-0.475007
0.468489
0.0186721
-0.0119738
-0.2802
0.273502
0.00695705
-0.00297143
-0.120294
0.116309
0.000816005
-0.0184587
0.0176427
-0.0300689
0.0305757
-0.000506791
0.00286388
-0.00401937
-0.225971
0.227127
0.00501945
-0.00578239
-0.395936
0.396699
0.00665979
-0.00780123
-0.556587
0.557729
0.00959708
-0.0118172
-0.68513
0.68735
0.0147786
-0.017818
-0.809021
0.812061
0.02138
-0.024761
-0.955541
0.958922
0.0285505
-0.0320266
-1.132
1.13548
0.0357761
-0.0390522
-1.34315
1.34643
0.0423541
-0.0449689
-1.59574
1.59836
0.0469126
-0.0482112
-1.58439
1.58568
0.0488484
-0.0491428
-1.3171
1.3174
0.0490415
-0.0485843
-1.10044
1.09999
0.048073
-0.0476194
-0.924491
0.924037
0.0472005
-0.0460546
-0.779652
0.778506
0.0440497
-0.0401136
-0.638498
0.634562
0.0347235
-0.0273347
-0.461719
0.454331
0.0201834
-0.0129196
-0.266609
0.259345
0.00750453
-0.00320577
-0.112208
0.107909
0.000880437
-0.0168087
0.0159283
-0.0311502
0.0318804
-0.000730207
0.00437565
-0.00642304
-0.228689
0.230737
0.0084887
-0.010167
-0.397847
0.399525
0.0118743
-0.0136008
-0.559516
0.561243
0.0158551
-0.0184523
-0.69005
0.692647
0.0218475
-0.0252963
-0.815145
0.818593
0.0293152
-0.0331053
-0.962244
0.966034
0.0373205
-0.0411484
-1.13892
1.14274
0.0452216
-0.0487141
-1.34966
1.35315
0.0521393
-0.0547385
-1.60087
1.60347
0.0565402
-0.0575885
-1.58678
1.58783
0.057943
-0.0579358
-1.31732
1.31731
0.0575463
-0.0567551
-1.09957
1.09878
0.0559388
-0.0551781
-0.923293
0.922532
0.0543562
-0.052687
-0.776985
0.775316
0.0499212
-0.0449434
-0.630489
0.625511
0.0385126
-0.0300478
-0.446628
0.438163
0.0220664
-0.0140736
-0.251815
0.243823
0.00815449
-0.00347412
-0.103463
0.0987829
0.000951137
-0.0150273
0.0140762
-0.032671
0.0336906
-0.00101957
0.00626509
-0.00937261
-0.233191
0.236298
0.012719
-0.0154614
-0.401697
0.404439
0.0181434
-0.0205799
-0.56383
0.566267
0.0234345
-0.0265283
-0.695828
0.698922
0.0304868
-0.0344528
-0.822096
0.826062
0.0390338
-0.0433192
-0.969778
0.974063
0.0480406
-0.0522754
-1.14654
1.15078
0.056708
-0.0604246
-1.35659
1.36031
0.0639542
-0.0664965
-1.60595
1.60849
0.0681011
-0.0688324
-1.58864
1.58937
0.0688411
-0.06846
-1.3168
1.31642
0.0677552
-0.0665898
-1.09797
1.0968
0.0654297
-0.0643669
-0.921417
0.920354
0.0630188
-0.0607347
-0.773274
0.77099
0.0570352
-0.0507705
-0.620383
0.614119
0.0430622
-0.033275
-0.429313
0.419526
0.0242688
-0.0153843
-0.235496
0.226612
0.00886777
-0.00375593
-0.0939321
0.0888202
0.00102143
-0.0131049
0.0120834
-0.0347563
0.0361769
-0.00142061
0.00873854
-0.0132011
-0.239802
0.244264
0.0180451
-0.0220304
-0.407852
0.411838
0.0258568
-0.0291559
-0.569856
0.573155
0.0327879
-0.0365382
-0.702726
0.706477
0.0412242
-0.0458389
-0.830086
0.8347
0.0511017
-0.05597
-0.978316
0.983185
0.0612655
-0.0659385
-1.15498
1.15965
0.070728
-0.0746324
-1.36394
1.36784
0.0781905
-0.0805792
-1.61085
1.61324
0.0818821
-0.0821949
-1.58981
1.59012
0.0817932
-0.0809443
-1.31542
1.31457
0.0798696
-0.0783121
-1.09552
1.09397
0.0768176
-0.0753423
-0.918827
0.917352
0.0734734
-0.070358
-0.768289
0.765174
0.0654778
-0.0576134
-0.607675
0.59981
0.0483324
-0.0369319
-0.409277
0.397877
0.0266937
-0.016767
-0.217335
0.207408
0.00958501
-0.004022
-0.0835292
0.0779662
0.00108232
-0.0110464
0.00996413
-0.0376088
0.0395934
-0.00198464
0.0121691
-0.0183628
-0.249039
0.255233
0.0250099
-0.0304486
-0.416813
0.422252
0.0356296
-0.0399883
-0.577988
0.582347
0.0446072
-0.0492169
-0.711086
0.715695
0.054838
-0.0602487
-0.839369
0.84478
0.0663089
-0.0718242
-0.988027
0.993543
0.0777168
-0.0828038
-1.16426
1.16934
0.0878749
-0.0918587
-1.37159
1.37558
0.0952913
-0.0973629
-1.61536
1.61743
0.0982022
-0.0979446
-1.59006
1.5898
0.097035
-0.0956161
-1.31304
1.31162
0.0940992
-0.0921211
-1.09217
1.09019
0.0902548
-0.0882357
-0.915251
0.913232
0.0858392
-0.0816306
-0.761543
0.757334
0.0752673
-0.0654009
-0.591715
0.581848
0.0541836
-0.0408427
-0.385945
0.372604
0.0291701
-0.0180881
-0.197056
0.185974
0.0102186
-0.0042319
-0.0722389
0.0662521
0.00112204
-0.00887635
0.00775431
-0.0415481
0.0444082
-0.00286007
0.017153
-0.025608
-0.261649
0.270104
0.0344969
-0.0416936
-0.429245
0.436441
0.0485183
-0.0541441
-0.588716
0.594342
0.0600565
-0.0658006
-0.721329
0.727073
0.0725523
-0.0788687
-0.850217
0.856534
0.085779
-0.0919245
-0.999011
1.00516
0.0983266
-0.103689
-1.17428
1.17965
0.108836
-0.112675
-1.37928
1.38312
0.11571
-0.117204
-1.61909
1.62058
0.117341
-0.116304
-1.58906
1.58802
0.114723
-0.112643
-1.30945
1.30737
0.110614
-0.10818
-1.0878
1.08537
0.105927
-0.103233
-0.910404
0.90771
0.100142
-0.0945051
-0.752457
0.74682
0.0862588
-0.0738935
-0.571654
0.559289
0.0603205
-0.0447012
-0.3587
0.34308
0.0314304
-0.0191566
-0.174487
0.162213
0.0106519
-0.00433532
-0.0601518
0.0538352
0.00112671
-0.00664292
0.0055162
-0.0471566
0.0514991
-0.00434254
0.0248747
-0.036411
-0.278787
0.290323
0.0482201
-0.0577509
-0.446182
0.455713
0.0666064
-0.073699
-0.602641
0.609733
0.0811505
-0.0884132
-0.733818
0.74108
0.0963611
-0.103504
-0.862829
0.869972
0.1111
-0.117657
-1.01115
1.01771
0.124252
-0.129551
-1.18469
1.18999
0.134361
-0.137661
-1.38648
1.38978
0.139857
-0.140383
-1.62146
1.62199
0.139482
-0.137408
-1.58635
1.58427
0.134982
-0.13211
-1.30445
1.30158
0.129485
-0.126555
-1.08231
1.07938
0.123803
-0.120429
-0.904106
0.900732
0.116324
-0.108761
-0.740291
0.732728
0.098059
-0.0825987
-0.546432
0.530972
0.0662359
-0.0480601
-0.32695
0.308775
0.0331234
-0.0197467
-0.149658
0.136282
0.0107568
-0.00428062
-0.0475066
0.0410304
0.00108231
-0.00442078
0.00333847
-0.0555141
0.0629677
-0.0074536
0.0384448
-0.0544684
-0.302616
0.318639
0.0703612
-0.0831163
-0.46927
0.482025
0.0941573
-0.102616
-0.620203
0.628661
0.111569
-0.120109
-0.74895
0.757491
0.128984
-0.136539
-0.876903
0.884458
0.144233
-0.150593
-1.02384
1.0302
0.156695
-0.161283
-1.19465
1.19924
0.165072
-0.167207
-1.39227
1.3944
0.16798
-0.167078
-1.62162
1.62072
0.164781
-0.161364
-1.58142
1.57801
0.157866
-0.154022
-1.29776
1.29392
0.150725
-0.147299
-1.07553
1.07211
0.143946
-0.139704
-0.896116
0.891874
0.134056
-0.123814
-0.723883
0.713641
0.109893
-0.0906466
-0.514723
0.495477
0.0712066
-0.0504133
-0.290289
0.269496
0.0339426
-0.0197285
-0.122941
0.108727
0.0104897
-0.00406471
-0.0347216
0.0282967
0.000988883
-0.00231157
0.00132269
-0.0699074
0.0740807
-0.0041733
0.0294477
-0.0433292
-0.337158
0.35104
0.0574119
-0.0690824
-0.499964
0.511634
0.0795386
-0.0892789
-0.640992
0.650732
0.10016
-0.110126
-0.765611
0.775578
0.121208
-0.131105
-0.891138
0.901035
0.14167
-0.151083
-1.03562
1.04503
0.16092
-0.169361
-1.20274
1.21118
0.177753
-0.184459
-1.39539
1.40209
0.190443
-0.194372
-1.61862
1.62255
0.196224
-0.196595
-1.57359
1.57397
0.19584
-0.194452
-1.28903
1.28764
0.193348
-0.191831
-1.06726
1.06575
0.190034
-0.185792
-0.88573
0.881487
0.177867
-0.162341
-0.701554
0.686028
0.141066
-0.112857
-0.475164
0.446954
0.0859489
-0.0586085
-0.248734
0.221393
0.0382009
-0.0214949
-0.095202
0.0784961
0.0110927
-0.00415999
-0.022387
0.0154543
0.000976421
-0.000416415
-0.000560006
-0.0813064
0.0794545
0.00185197
0.00757389
-0.0167385
-0.367749
0.376914
0.0274458
-0.0357232
-0.528013
0.53629
0.0441253
-0.0523827
-0.663046
0.671304
0.062397
-0.0717257
-0.785215
0.794544
0.0816671
-0.0907631
-0.91038
0.919476
0.100436
-0.10871
-1.05415
1.06243
0.11754
-0.124744
-1.21943
1.22663
0.131844
-0.137224
-1.40849
1.41386
0.141457
-0.143826
-1.62567
1.62804
0.144145
-0.14299
-1.57366
1.5725
0.140707
-0.137664
-1.28544
1.2824
0.134953
-0.132006
-1.06173
1.05878
0.128874
-0.123555
-0.872806
0.867488
0.114963
-0.100876
-0.666355
0.652268
0.084131
-0.064008
-0.41714
0.397017
0.0466446
-0.0307519
-0.194693
0.1788
0.0197058
-0.0110707
-0.0629499
0.0543147
0.0057823
-0.00220246
-0.00888143
0.00530159
0.000465546
0.00161136
-0.0020769
-0.0827643
0.0798315
0.00293282
-0.00173969
-0.00358253
-0.388415
0.393737
0.0108967
-0.0168772
-0.548775
0.554755
0.0230909
-0.0303234
-0.681705
0.688938
0.0389812
-0.0470781
-0.802997
0.811094
0.0559315
-0.0638619
-0.927819
0.935749
0.072038
-0.079384
-1.07051
1.07785
0.0869949
-0.0932688
-1.23336
1.23964
0.0989618
-0.103019
-1.41852
1.42258
0.106094
-0.107163
-1.62964
1.63071
0.106202
-0.103777
-1.57069
1.56826
0.100482
-0.0965406
-1.27895
1.27501
0.0925618
-0.0883858
-1.05358
1.04941
0.0841493
-0.0782088
-0.857862
0.851922
0.0702994
-0.0586221
-0.635064
0.623386
0.0464749
-0.033451
-0.375345
0.362321
0.02365
-0.0155541
-0.162727
0.154631
0.0102187
-0.00608715
-0.0458977
0.0417661
0.00339316
-0.0012781
-0.00187734
-0.000237723
0.000297902
0.00275019
-0.00304809
-0.0814567
0.078668
0.00278867
-0.00547732
0.00293688
-0.402176
0.404717
0.00179366
-0.00631298
-0.564095
0.568614
0.0115388
-0.0175874
-0.697094
0.703142
0.0249568
-0.0318714
-0.818564
0.825478
0.0394205
-0.0462023
-0.943136
0.949918
0.0535652
-0.0597558
-1.08474
1.09093
0.0663379
-0.0712699
-1.24545
1.25038
0.0759966
-0.0791831
-1.42635
1.42954
0.0811322
-0.0809623
-1.63124
1.63107
0.0791956
-0.0759847
-1.56519
1.56198
0.0719805
-0.0668837
-1.27059
1.26549
0.0621029
-0.0568992
-1.04344
1.03824
0.0516606
-0.0457299
-0.841818
0.835888
0.0386464
-0.0297634
-0.608986
0.600103
0.0216909
-0.0144389
-0.348164
0.340912
0.00988067
-0.00665142
-0.145745
0.142516
0.00467443
-0.00312211
-0.0371497
0.0355974
0.00188556
-0.000783308
0.00229572
-0.00339798
0.000203923
0.00360146
-0.00380539
-0.079865
0.077372
0.00249296
-0.00671548
0.00583194
-0.41129
0.412174
-0.00236611
-0.000866513
-0.576345
0.579578
0.00509179
-0.0105601
-0.709963
0.715431
0.0167216
-0.02276
-0.831694
0.837733
0.0292604
-0.0351064
-0.956224
0.96207
0.0413653
-0.0468041
-1.09695
1.10239
0.0522915
-0.0566905
-1.25512
1.25952
0.0605688
-0.0630061
-1.43228
1.43472
0.0641576
-0.0632643
-1.63062
1.62972
0.060827
-0.0567552
-1.55795
1.55387
0.0521787
-0.0465998
-1.26013
1.25455
0.0412088
-0.0351276
-1.03169
1.02561
0.0294629
-0.0234062
-0.82614
0.820083
0.0174697
-0.0108269
-0.589035
0.582393
0.00588198
-0.00255337
-0.332077
0.328749
0.00119933
-0.000818717
-0.137848
0.137467
0.00083792
-0.000839536
-0.033359
0.0333606
0.000632341
-0.000312078
0.00461509
-0.00493535
9.82094e-05
0.00424317
-0.00434138
-0.078344
0.076187
0.00215697
-0.00668987
0.00636553
-0.417442
0.417766
-0.00432835
0.00173733
-0.585691
0.588282
0.00229948
-0.00695057
-0.720815
0.725466
0.0122127
-0.0174274
-0.842978
0.848192
0.0231666
-0.0283415
-0.96754
0.972715
0.0339945
-0.0386829
-1.10751
1.11219
0.0435084
-0.0473358
-1.26358
1.26741
0.0505651
-0.0524405
-1.43681
1.43869
0.0529854
-0.0519359
-1.62863
1.62758
0.0489874
-0.0446131
-1.54923
1.54486
0.0396435
-0.0336403
-1.24862
1.24262
0.0280869
-0.0214472
-1.01869
1.01205
0.0154267
-0.0093469
-0.811049
0.804969
0.00412403
0.000849618
-0.573636
0.568662
-0.00386224
0.0050296
-0.323063
0.321895
-0.00444822
0.00329437
-0.135519
0.136673
-0.00222116
0.0011311
-0.0329117
0.0340018
-0.000504669
0.00014656
0.00529951
-0.0049414
-1.65949e-05
0.00460262
-0.00458603
-0.0771302
0.0754262
0.001704
-0.00588514
0.00593867
-0.421887
0.421833
-0.00434659
0.00244138
-0.593769
0.595675
0.00128637
-0.00546784
-0.730135
0.734316
0.010421
-0.0148763
-0.852997
0.857453
0.0198732
-0.024411
-0.977833
0.982371
0.0297009
-0.0338833
-1.11688
1.12106
0.0380663
-0.0415637
-1.27099
1.27449
0.0447654
-0.0462856
-1.44051
1.44203
0.0466133
-0.0452038
-1.62603
1.62462
0.0423211
-0.0374892
-1.54016
1.53533
0.0325268
-0.0265187
-1.23633
1.23033
0.0206797
-0.0140885
-1.00498
0.998388
0.00791761
-0.00156725
-0.796546
0.790195
-0.00275201
0.0067779
-0.561138
0.557112
-0.00902977
0.0091391
-0.318048
0.317939
-0.00788126
0.00610188
-0.136378
0.138157
-0.00437897
0.00261393
-0.0346575
0.0364226
-0.00139737
0.000541579
0.00459107
-0.00373527
-0.000121047
0.00464776
-0.00452671
-0.076402
0.0750458
0.00135618
-0.00485906
0.00507178
-0.425289
0.425077
-0.00371813
0.00192723
-0.600712
0.602503
0.00161034
-0.00530525
-0.738437
0.742132
0.00950917
-0.0137663
-0.861835
0.866092
0.0183324
-0.0229513
-0.986688
0.991307
0.0274356
-0.0313555
-1.1253
1.12922
0.0355661
-0.0387062
-1.27782
1.28096
0.0412811
-0.0430582
-1.4434
1.44518
0.0433537
-0.0419918
-1.62319
1.62183
0.0390126
-0.0344797
-1.53061
1.52608
0.0295839
-0.023625
-1.22393
1.21797
0.0179231
-0.0113874
-0.99139
0.984854
0.00534122
0.000681635
-0.782488
0.776466
-0.00515548
0.00865982
-0.550356
0.546851
-0.0105324
0.0106239
-0.31506
0.314969
-0.00930431
0.00727915
-0.138483
0.140508
-0.00542035
0.00341289
-0.0376521
0.0396595
-0.00191642
0.00080158
0.00290007
-0.00178523
-0.00019834
0.00443239
-0.00423405
-0.0761946
0.0750547
0.00113993
-0.00361103
0.00361185
-0.428251
0.42825
-0.00257054
0.000832713
-0.607005
0.608742
0.00253143
-0.00606595
-0.746071
0.749605
0.010061
-0.0138727
-0.870109
0.873921
0.0185072
-0.0222819
-0.995317
0.999092
0.0266707
-0.0303412
-1.13326
1.13693
0.0343518
-0.0375991
-1.28404
1.28728
0.0403467
-0.0417798
-1.44666
1.44809
0.0422581
-0.0411269
-1.62034
1.61921
0.0386052
-0.0341841
-1.52138
1.51696
0.0295538
-0.0238212
-1.21209
1.20636
0.0183627
-0.0119998
-0.977941
0.971579
0.00626669
-0.000237125
-0.769102
0.763072
-0.00421922
0.00759255
-0.540558
0.537185
-0.00951522
0.00989882
-0.312443
0.31206
-0.00908032
0.00741057
-0.140843
0.142513
-0.00572101
0.00374651
-0.0410352
0.0430097
-0.00218818
0.000979154
0.000705722
0.0005033
-0.000269348
0.00405034
-0.00378099
-0.0762639
0.0754572
0.000806666
-0.00246526
0.00201396
-0.431245
0.431697
-0.00113437
-0.000695675
-0.612488
0.614318
0.00370396
-0.00707007
-0.753133
0.756499
0.0108643
-0.014773
-0.877568
0.881477
0.0187459
-0.0226405
-1.00305
1.00694
0.026941
-0.0303511
-1.141
1.14441
0.0343876
-0.0375208
-1.29029
1.29342
0.0402422
-0.0421179
-1.44989
1.45177
0.0429725
-0.0420057
-1.61807
1.6171
0.0396059
-0.03578
-1.51268
1.50885
0.0316011
-0.0261644
-1.20051
1.19508
0.0209202
-0.0150987
-0.965086
0.959265
0.00928642
-0.00363779
-0.756032
0.750384
-0.00104915
0.0046255
-0.531188
0.527612
-0.00649531
0.00742224
-0.309358
0.308432
-0.0072134
0.00623904
-0.14258
0.143555
-0.00496795
0.00339358
-0.0441691
0.0457435
-0.00207237
0.000943493
-0.00155046
0.00267933
-0.000272395
0.00354621
-0.00327382
-0.0767538
0.0761139
0.00063993
-0.00149259
0.00112096
-0.434435
0.434807
0.000250965
-0.00206855
-0.617994
0.619811
0.0052011
-0.00840896
-0.759631
0.762839
0.0120266
-0.0155054
-0.885026
0.888505
0.0195722
-0.0231192
-1.01081
1.01436
0.0273323
-0.031143
-1.14825
1.15206
0.0347699
-0.0381862
-1.29657
1.29998
0.0412697
-0.0431736
-1.4535
1.45541
0.0443239
-0.0440635
-1.61633
1.61607
0.0420295
-0.0387646
-1.50488
1.50162
0.0347734
-0.0298177
-1.18972
1.18476
0.0250406
-0.0194533
-0.95303
0.947443
0.0140905
-0.00856165
-0.743625
0.738096
0.00387625
0.000282832
-0.521625
0.517466
-0.00264102
0.00402679
-0.305425
0.304039
-0.00454686
0.00425262
-0.143097
0.143391
-0.00358314
0.00258558
-0.0464579
0.0474554
-0.00165029
0.000783784
-0.00349859
0.0043651
-0.000243411
0.00304712
-0.00280371
-0.0775309
0.0770731
0.000457715
-0.00044006
-3.20709e-05
-0.437803
0.438275
0.00147724
-0.00356872
-0.623194
0.625286
0.00659333
-0.00962601
-0.765852
0.768885
0.0133162
-0.0166238
-0.89194
0.895248
0.0205096
-0.0241587
-1.01837
1.02202
0.028248
-0.0319977
-1.15569
1.15944
0.035816
-0.0392257
-1.30329
1.3067
0.0424558
-0.0450687
-1.45757
1.46018
0.0466093
-0.0465875
-1.61571
1.61569
0.0451952
-0.0422226
-1.49824
1.49527
0.0387968
-0.0344323
-1.1798
1.17543
0.0297892
-0.0245307
-0.941609
0.93635
0.0194298
-0.0138857
-0.731682