/*--------------------------------*- C++ -*----------------------------------*\
| =========                 |                                                 |
| \\      /  F ield         | OpenFOAM: The Open Source CFD Toolbox           |
|  \\    /   O peration     | Version:  2112                                  |
|   \\  /    A nd           | Website:  www.openfoam.com                      |
|    \\/     M anipulation  |                                                 |
\*---------------------------------------------------------------------------*/
FoamFile
{
    version     2.0;
    format      ascii;
    arch        "LSB;label=32;scalar=64";
    class       volVectorField;
    location    "67.5";
    object      U;
}
// * * * * * * * * * * * * * * * * * * * * * * * * * * * * * * * * * * * * * //

dimensions      [0 1 -1 0 0 0 0];

internalField   nonuniform List<vector> 
8800
(
(0.980136 -0.0915202 0)
(1.00234 -0.0587302 0)
(0.999584 -0.0321286 0)
(0.999985 -0.0165213 0)
(1.00009 -0.00884062 0)
(1.00011 -0.00509569 0)
(1.00007 -0.0029915 0)
(1.00002 -0.00168016 0)
(0.999999 -0.000777966 0)
(1.00007 -7.82304e-05 0)
(0.999979 0.000631422 0)
(0.999989 0.00138948 0)
(1.00003 0.00241235 0)
(1.00005 0.0040096 0)
(1.00004 0.0067523 0)
(0.999999 0.0120526 0)
(0.999805 0.023095 0)
(0.999033 0.0431553 0)
(1.00724 0.0790248 0)
(0.775026 0.0478395 0)
(0.358998 -0.014748 0)
(1.04651 -0.0724775 0)
(1.08848 -0.0660137 0)
(1.04944 -0.0509052 0)
(1.02556 -0.0376822 0)
(1.01277 -0.0258744 0)
(1.0066 -0.0166752 0)
(1.00364 -0.0101812 0)
(1.00219 -0.00554593 0)
(1.00151 -0.00194761 0)
(1.00137 0.00126708 0)
(1.00172 0.00457887 0)
(1.0027 0.00846733 0)
(1.00476 0.0137706 0)
(1.00898 0.0214397 0)
(1.01794 0.0319252 0)
(1.03579 0.0446929 0)
(1.06742 0.0581311 0)
(1.09468 0.0699503 0)
(0.845608 0.055509 0)
(0.217818 -0.00137965 0)
(1.0757 -0.0506322 0)
(1.09943 -0.0489107 0)
(1.06441 -0.0399893 0)
(1.03994 -0.0325245 0)
(1.02385 -0.0253035 0)
(1.01406 -0.0180746 0)
(1.00853 -0.0114434 0)
(1.00566 -0.00567777 0)
(1.00448 -0.000380249 0)
(1.00477 0.00473383 0)
(1.00661 0.0100225 0)
(1.01057 0.015981 0)
(1.01789 0.0227199 0)
(1.03048 0.0298121 0)
(1.05046 0.0368896 0)
(1.08002 0.0446573 0)
(1.10563 0.0519715 0)
(0.943211 0.0410253 0)
(0.217147 0.00140689 0)
(0.176696 -0.00062767 0)
(1.01947 -0.0354371 0)
(1.10575 -0.0413691 0)
(1.07802 -0.0363441 0)
(1.05252 -0.0302894 0)
(1.0353 -0.0244009 0)
(1.02342 -0.0185915 0)
(1.01558 -0.0125787 0)
(1.01096 -0.00646893 0)
(1.0089 -0.000220844 0)
(1.00941 0.00594058 0)
(1.01247 0.0118546 0)
(1.01845 0.0176058 0)
(1.02805 0.0231566 0)
(1.04222 0.0286906 0)
(1.06303 0.0344571 0)
(1.09382 0.0403287 0)
(1.09436 0.0418358 0)
(0.83005 0.0228009 0)
(0.175549 0.000649573 0)
(0.154813 -0.000461365 0)
(0.958331 -0.0256573 0)
(1.10449 -0.0350584 0)
(1.08816 -0.0325957 0)
(1.06136 -0.0280757 0)
(1.04332 -0.023097 0)
(1.03091 -0.0177763 0)
(1.02229 -0.0122148 0)
(1.01671 -0.00628565 0)
(1.01402 0.000182024 0)
(1.01463 0.00664604 0)
(1.01839 0.0125164 0)
(1.0252 0.0178103 0)
(1.03533 0.0227845 0)
(1.05003 0.0275887 0)
(1.07196 0.03201 0)
(1.10093 0.0358684 0)
(1.06955 0.03405 0)
(0.742263 0.0144842 0)
(0.153093 0.000485927 0)
(0.140162 -0.000333114 0)
(0.901421 -0.0192857 0)
(1.09695 -0.0301491 0)
(1.09633 -0.029252 0)
(1.0691 -0.0254528 0)
(1.05027 -0.0213474 0)
(1.03728 -0.0166248 0)
(1.02826 -0.0113513 0)
(1.02229 -0.00560551 0)
(1.01925 0.00076796 0)
(1.01982 0.00714605 0)
(1.02379 0.0127921 0)
(1.03083 0.0177447 0)
(1.04132 0.0221738 0)
(1.05665 0.026097 0)
(1.07943 0.0295891 0)
(1.10318 0.0322794 0)
(1.03765 0.028235 0)
(0.675291 0.0103458 0)
(0.137736 0.000362266 0)
(0.129461 -0.000251481 0)
(0.851672 -0.0148821 0)
(1.08468 -0.0260342 0)
(1.10206 -0.0263545 0)
(1.07597 -0.0230133 0)
(1.05663 -0.019335 0)
(1.04321 -0.0151111 0)
(1.03382 -0.0102196 0)
(1.02755 -0.00469257 0)
(1.02429 0.00149735 0)
(1.02473 0.00765864 0)
(1.0287 0.0130214 0)
(1.03589 0.0175493 0)
(1.04666 0.0213684 0)
(1.06235 0.0246893 0)
(1.08557 0.0276985 0)
(1.10233 0.0294814 0)
(1.00281 0.0237204 0)
(0.623052 0.00795245 0)
(0.126174 0.000286938 0)
(0.121318 -0.00019247 0)
(0.809322 -0.01169 0)
(1.06947 -0.0224248 0)
(1.10564 -0.0237034 0)
(1.08226 -0.020811 0)
(1.06246 -0.0173566 0)
(1.04877 -0.013412 0)
(1.03911 -0.00883855 0)
(1.03257 -0.00358223 0)
(1.02906 0.00237728 0)
(1.02932 0.00826992 0)
(1.03323 0.0132773 0)
(1.04048 0.0173437 0)
(1.05134 0.0206838 0)
(1.06726 0.0236071 0)
(1.09087 0.026296 0)
(1.0986 0.0271646 0)
(0.967507 0.0201779 0)
(0.581049 0.0063956 0)
(0.116983 0.000235549 0)
(0.115018 -0.000147638 0)
(0.773654 -0.00929898 0)
(1.05272 -0.019244 0)
(1.10805 -0.0212499 0)
(1.08818 -0.0187359 0)
(1.06797 -0.0154392 0)
(1.05401 -0.0116594 0)
(1.04416 -0.00728366 0)
(1.03738 -0.00226244 0)
(1.0336 0.00343933 0)
(1.03364 0.00902339 0)
(1.0374 0.0136512 0)
(1.04458 0.0173105 0)
(1.05544 0.0202673 0)
(1.0716 0.0228579 0)
(1.09489 0.0251952 0)
(1.09203 0.0252528 0)
(0.933087 0.0174436 0)
(0.546269 0.00533103 0)
(0.10941 0.00019991 0)
(0.110114 -0.000112161 0)
(0.743744 -0.00744447 0)
(1.03554 -0.0164199 0)
(1.10951 -0.0189393 0)
(1.0938 -0.0167342 0)
(1.07329 -0.013534 0)
(1.05905 -0.00984928 0)
(1.049 -0.00559418 0)
(1.042 -0.000739671 0)
(1.03793 0.00471721 0)
(1.03767 0.00998177 0)
(1.0412 0.0142482 0)
(1.04823 0.0175428 0)
(1.05908 0.0201477 0)
(1.07544 0.0224462 0)
(1.09762 0.0244065 0)
(1.08298 0.0236938 0)
(0.900132 0.0153692 0)
(0.516639 0.00459077 0)
(0.102958 0.000175472 0)
(0.106315 -8.28086e-05 0)
(0.718772 -0.00594962 0)
(1.01873 -0.0138815 0)
(1.11014 -0.0167029 0)
(1.09931 -0.0147767 0)
(1.07853 -0.0115921 0)
(1.06399 -0.00793969 0)
(1.05371 -0.00374639 0)
(1.04646 0.000999055 0)
(1.04205 0.00625108 0)
(1.04141 0.0112158 0)
(1.04464 0.0151428 0)
(1.05148 0.0180893 0)
(1.06229 0.0203544 0)
(1.07884 0.0223893 0)
(1.09898 0.023943 0)
(1.07184 0.022483 0)
(0.868762 0.0138417 0)
(0.490685 0.00408312 0)
(0.0972785 0.000159677 0)
(0.103429 -5.73837e-05 0)
(0.698096 -0.00469614 0)
(1.00292 -0.0115625 0)
(1.11011 -0.0145035 0)
(1.10468 -0.0127758 0)
(1.08377 -0.00955746 0)
(1.0689 -0.00587901 0)
(1.05836 -0.00168582 0)
(1.05079 0.00300152 0)
(1.04598 0.00809752 0)
(1.04489 0.0127925 0)
(1.04774 0.016394 0)
(1.05436 0.0190021 0)
(1.06509 0.0209308 0)
(1.08178 0.0227083 0)
(1.09931 0.0238591 0)
(1.05889 0.021634 0)
(0.838815 0.0127716 0)
(0.467302 0.00375114 0)
(0.0921072 0.000150659 0)
(0.101335 -3.3947e-05 0)
(0.681243 -0.00359565 0)
(0.98858 -0.00939305 0)
(1.10961 -0.012257 0)
(1.10986 -0.0106453 0)
(1.08909 -0.0073731 0)
(1.07387 -0.00360946 0)
(1.06301 0.000648987 0)
(1.05506 0.0053345 0)
(1.04976 0.0103281 0)
(1.04811 0.0147868 0)
(1.05051 0.0180705 0)
(1.05685 0.0203393 0)
(1.06748 0.0219287 0)
(1.08423 0.0234341 0)
(1.09863 0.0241569 0)
(1.04428 0.0211611 0)
(0.80996 0.0120885 0)
(0.445625 0.00355671 0)
(0.0872398 0.000146989 0)
(0.0999707 -1.07939e-05 0)
(0.667908 -0.00257878 0)
(0.97606 -0.00729863 0)
(1.10896 -0.0099025 0)
(1.115 -0.00832309 0)
(1.09458 -0.00496112 0)
(1.07897 -0.00104684 0)
(1.06773 0.00333833 0)
(1.05932 0.00808691 0)
(1.0534 0.0130275 0)
(1.0511 0.0172752 0)
(1.05294 0.020248 0)
(1.05896 0.0221633 0)
(1.06945 0.0233937 0)
(1.08622 0.0246351 0)
(1.0967 0.0248978 0)
(1.02805 0.0210527 0)
(0.781763 0.0117379 0)
(0.424947 0.00347433 0)
(0.0825098 0.000147635 0)
(0.099319 1.42071e-05 0)
(0.657934 -0.0015914 0)
(0.965681 -0.00520772 0)
(1.1085 -0.00737745 0)
(1.12023 -0.00573755 0)
(1.10031 -0.00223578 0)
(1.08428 0.00189502 0)
(1.07258 0.00647547 0)
(1.0636 0.0113566 0)
(1.05695 0.0162942 0)
(1.05385 0.0203505 0)
(1.05505 0.023015 0)
(1.06066 0.0245635 0)
(1.07099 0.0254221 0)
(1.08767 0.0263594 0)
(1.09348 0.026097 0)
(1.01017 0.0213441 0)
(0.753743 0.0116909 0)
(0.404675 0.00348896 0)
(0.0777818 0.000152066 0)
(0.0993987 3.57286e-05 0)
(0.651289 -0.000587191 0)
(0.957744 -0.00304829 0)
(1.10855 -0.00460907 0)
(1.12571 -0.00280278 0)
(1.10639 0.000898667 0)
(1.0899 0.00532187 0)
(1.07765 0.010178 0)
(1.06798 0.0152642 0)
(1.06044 0.0202529 0)
(1.05637 0.0241366 0)
(1.0568 0.0264818 0)
(1.06193 0.0276518 0)
(1.07206 0.0281172 0)
(1.08836 0.0286838 0)
(1.08874 0.0277884 0)
(0.99047 0.0220713 0)
(0.725355 0.0119331 0)
(0.384268 0.0035921 0)
(0.0729322 0.000159859 0)
(0.100253 7.14254e-05 0)
(0.648049 0.000446465 0)
(0.952569 -0.000749052 0)
(1.1095 -0.0015143 0)
(1.13164 0.000582926 0)
(1.11293 0.00456684 0)
(1.09592 0.00937248 0)
(1.08303 0.0145906 0)
(1.07251 0.0199587 0)
(1.06389 0.0250502 0)
(1.05867 0.0287738 0)
(1.05816 0.0307776 0)
(1.06273 0.0315518 0)
(1.07261 0.0315967 0)
(1.08814 0.0317397 0)
(1.08218 0.030079 0)
(0.968657 0.0232601 0)
(0.695995 0.012454 0)
(0.363219 0.0037753 0)
(0.067851 0.000170482 0)
(0.102088 0.000103889 0)
(0.648607 0.00161461 0)
(0.950515 0.00178718 0)
(1.11177 0.00202068 0)
(1.13824 0.00450317 0)
(1.12008 0.00891076 0)
(1.10247 0.0141983 0)
(1.08879 0.0198769 0)
(1.07725 0.02561 0)
(1.06731 0.0308542 0)
(1.06071 0.0344242 0)
(1.05912 0.0360501 0)
(1.063 0.0364005 0)
(1.07257 0.0359897 0)
(1.08678 0.0356444 0)
(1.07355 0.0330457 0)
(0.944328 0.0249519 0)
(0.665027 0.0132482 0)
(0.341054 0.00403187 0)
(0.0624434 0.000183176 0)
(0.104962 0.000152245 0)
(0.653408 0.00307545 0)
(0.952063 0.00470951 0)
(1.11584 0.00609804 0)
(1.14573 0.00914018 0)
(1.12798 0.0141158 0)
(1.10969 0.0200055 0)
(1.09505 0.0262577 0)
(1.08225 0.0324403 0)
(1.07073 0.0378728 0)
(1.06249 0.0412607 0)
(1.05963 0.0424592 0)
(1.0627 0.0423591 0)
(1.07188 0.0414389 0)
(1.08408 0.0405783 0)
(1.06246 0.0368062 0)
(0.916929 0.0271853 0)
(0.631746 0.0143098 0)
(0.317314 0.00435363 0)
(0.0566278 0.000197289 0)
(0.109156 0.000215225 0)
(0.662857 0.00476739 0)
(0.957669 0.00815708 0)
(1.12222 0.0108958 0)
(1.15438 0.0146926 0)
(1.13687 0.0204186 0)
(1.11774 0.0270566 0)
(1.10191 0.034007 0)
(1.08755 0.0407203 0)
(1.07412 0.0463543 0)
(1.06395 0.0495049 0)
(1.05963 0.0502072 0)
(1.06173 0.0496054 0)
(1.07045 0.0481113 0)
(1.08014 0.0466464 0)
(1.04841 0.0414655 0)
(0.885758 0.0299907 0)
(0.595399 0.0156192 0)
(0.29158 0.00472563 0)
(0.050346 0.000211481 0)
(0.11501 0.000299631 0)
(0.677728 0.00686736 0)
(0.967963 0.0123307 0)
(1.13147 0.0166575 0)
(1.16458 0.0214258 0)
(1.14699 0.0281309 0)
(1.12681 0.0356867 0)
(1.10948 0.0434681 0)
(1.0932 0.0507722 0)
(1.07745 0.0565796 0)
(1.06503 0.0594001 0)
(1.05894 0.0594774 0)
(1.06003 0.0583224 0)
(1.06825 0.0562038 0)
(1.07469 0.054036 0)
(1.03075 0.0470989 0)
(0.849956 0.0333556 0)
(0.555213 0.0171275 0)
(0.263507 0.00512132 0)
(0.0435761 0.000223859 0)
(0.12303 0.000421791 0)
(0.698993 0.00962178 0)
(0.983824 0.0175417 0)
(1.14425 0.0237306 0)
(1.17679 0.0297413 0)
(1.15866 0.0377203 0)
(1.13709 0.0463869 0)
(1.11783 0.0551129 0)
(1.09915 0.0630078 0)
(1.08063 0.068869 0)
(1.0656 0.0711829 0)
(1.05752 0.0704956 0)
(1.05749 0.0686613 0)
(1.06518 0.0658424 0)
(1.06737 0.0627698 0)
(1.0086 0.0537712 0)
(0.808513 0.0372265 0)
(0.510453 0.0187507 0)
(0.232896 0.0055023 0)
(0.036351 0.000232078 0)
(0.133942 0.0005947 0)
(0.727874 0.0133998 0)
(1.00642 0.0242642 0)
(1.16135 0.0326653 0)
(1.19164 0.0402416 0)
(1.17222 0.0498671 0)
(1.14875 0.0598306 0)
(1.12697 0.0695456 0)
(1.10528 0.0779151 0)
(1.08348 0.0835815 0)
(1.06549 0.0851154 0)
(1.05527 0.0834729 0)
(1.05403 0.080839 0)
(1.06093 0.0771508 0)
(1.05747 0.0730228 0)
(0.980876 0.061443 0)
(0.760311 0.0414649 0)
(0.460526 0.0203478 0)
(0.199774 0.00581396 0)
(0.0287764 0.000233309 0)
(0.149008 0.000872988 0)
(0.766408 0.0188148 0)
(1.03741 0.0332893 0)
(1.18372 0.0444106 0)
(1.2099 0.0540883 0)
(1.18801 0.0655999 0)
(1.16182 0.0769626 0)
(1.13674 0.0875376 0)
(1.11135 0.0960501 0)
(1.08573 0.101079 0)
(1.06449 0.101424 0)
(1.052 0.0985564 0)
(1.04951 0.0949817 0)
(1.05514 0.090511 0)
(1.04417 0.0848507 0)
(0.94615 0.069958 0)
(0.704245 0.0457982 0)
(0.405181 0.0217118 0)
(0.164529 0.00598702 0)
(0.0210501 0.000224521 0)
(0.170443 0.00135468 0)
(0.817883 0.0270368 0)
(1.0794 0.0461957 0)
(1.21248 0.0608398 0)
(1.23212 0.0732818 0)
(1.20609 0.0865404 0)
(1.17606 0.0991054 0)
(1.1467 0.11003 0)
(1.11689 0.118012 0)
(1.08697 0.121689 0)
(1.06228 0.120266 0)
(1.04755 0.115829 0)
(1.04385 0.111143 0)
(1.04782 0.10582 0)
(1.02632 0.0981459 0)
(0.902674 0.0789256 0)
(0.639505 0.0498087 0)
(0.344868 0.0225851 0)
(0.128074 0.00594968 0)
(0.0134785 0.000202536 0)
(0.201676 0.00242446 0)
(0.888072 0.0407918 0)
(1.13602 0.0668511 0)
(1.24807 0.0855214 0)
(1.25807 0.100594 0)
(1.22587 0.115054 0)
(1.19065 0.127856 0)
(1.15604 0.137994 0)
(1.12119 0.144327 0)
(1.08669 0.145643 0)
(1.05855 0.141706 0)
(1.0417 0.135289 0)
(1.0369 0.129285 0)
(1.03848 0.122917 0)
(1.00233 0.112515 0)
(0.848413 0.0876257 0)
(0.566224 0.0529424 0)
(0.281475 0.0227852 0)
(0.092209 0.00569149 0)
(0.00657057 0.000167763 0)
(0.244225 0.00872269 4.25389e-20)
(0.981086 0.0682452 3.72361e-20)
(1.20502 0.10146 -1.30651e-20)
(1.28741 0.122004 0)
(1.28496 0.139606 -3.38595e-34)
(1.24519 0.153452 4.96272e-21)
(1.20401 0.164713 -9.00694e-21)
(1.16365 0.172652 0)
(1.12341 0.176251 1.86591e-34)
(1.08408 0.174399 -1.12848e-20)
(1.05232 0.167469 0)
(1.03327 0.158915 -1.34734e-20)
(1.02767 0.151808 -3.97997e-20)
(1.02584 0.145149 -1.88192e-20)
(0.96804 0.130447 -5.67256e-21)
(0.777052 0.0974662 -3.37222e-21)
(0.479239 0.055514 0)
(0.213456 0.022693 2.35701e-21)
(0.0569433 0.00548834 2.78245e-21)
(0.000292097 0.000130556 5.01845e-20)
(0.274037 0.0243467 2.97822e-20)
(1.05787 0.11116 5.44806e-22)
(1.26192 0.150786 3.42204e-21)
(1.32262 0.171542 0)
(1.30856 0.188918 -1.69739e-20)
(1.26177 0.20058 -1.93902e-20)
(1.2147 0.209513 -9.03786e-21)
(1.16853 0.214959 -3.23988e-20)
(1.12272 0.215768 0)
(1.07818 0.210807 4.7953e-20)
(1.04236 0.20098 4.76791e-20)
(1.02091 0.190327 1.41826e-20)
(1.0132 0.181491 5.18788e-20)
(1.00294 0.172609 7.30679e-20)
(0.913735 0.151255 0)
(0.680216 0.107485 1.03055e-19)
(0.376745 0.0574902 1.47722e-19)
(0.142735 0.0218441 1.63982e-19)
(0.0214403 0.00405617 -1.87426e-19)
(-0.00615601 -0.00050712 -3.53201e-21)
(0.275056 0.0403007 0)
(1.1064 0.166758 4.92593e-21)
(1.30024 0.21147 0)
(1.34996 0.231653 -2.12168e-20)
(1.32708 0.245922 0)
(1.27441 0.253699 -3.76933e-20)
(1.22183 0.258884 1.83598e-20)
(1.17015 0.26072 -6.48238e-20)
(1.11905 0.257863 -1.5855e-21)
(1.06956 0.249132 2.47168e-20)
(1.02991 0.23595 1.048e-19)
(1.00614 0.222835 -2.11695e-22)
(0.996074 0.212095 -3.767e-20)
(0.976868 0.200179 -6.87231e-20)
(0.864616 0.171043 8.13402e-20)
(0.610588 0.11634 -1.43994e-19)
(0.316498 0.059217 -1.89901e-20)
(0.105755 0.0206938 0)
(0.00324967 0.00183784 -1.3107e-23)
(-0.00975026 -0.00137598 0)
(0.268521 0.0540888 5.56594e-20)
(1.13251 0.225631 -2.84885e-20)
(1.32384 0.276607 -2.36306e-20)
(1.36809 0.296926 9.78385e-21)
(1.3391 0.307239 -1.65624e-20)
(1.28202 0.310463 7.8672e-20)
(1.2249 0.311205 3.81535e-20)
(1.16849 0.30877 0)
(1.11266 0.301681 -1.23072e-19)
(1.05863 0.288685 0)
(1.01541 0.271752 -5.48561e-20)
(0.989399 0.255887 -6.80079e-20)
(0.976973 0.242821 -4.0974e-20)
(0.950336 0.227178 -4.98541e-20)
(0.824442 0.190422 0)
(0.565419 0.1263 0)
(0.28444 0.0628164 -1.23502e-19)
(0.086613 0.0200957 2.43767e-20)
(-0.0076539 -0.000662113 -1.42681e-20)
(-0.0124828 -0.00243949 -1.66918e-20)
(0.260691 0.0662445 -1.5564e-20)
(1.14385 0.284304 0)
(1.33673 0.34262 4.46906e-20)
(1.37797 0.363568 2.66639e-20)
(1.34473 0.370007 3.88263e-20)
(1.28443 0.368646 0)
(1.22375 0.364824 3.6938e-20)
(1.16343 0.35792 7.13627e-20)
(1.10352 0.34636 6.27784e-20)
(1.04544 0.328842 1.16342e-19)
(0.998902 0.307909 0)
(0.970674 0.289048 -1.46528e-19)
(0.955909 0.273422 -8.84124e-20)
(0.923548 0.253951 -5.23137e-20)
(0.79171 0.210387 3.2045e-19)
(0.53715 0.13822 3.80499e-20)
(0.268879 0.0683826 1.78638e-19)
(0.0786179 0.0204413 -8.45063e-19)
(-0.0130799 -0.00292813 4.99285e-19)
(-0.0143863 -0.00355805 -6.01711e-19)
(0.253098 0.0771784 9.12894e-22)
(1.14568 0.340898 2.57539e-21)
(1.34183 0.407586 -3.94637e-21)
(1.3812 0.429683 -2.42099e-20)
(1.3449 0.432486 -3.11359e-20)
(1.28221 0.426718 1.80236e-21)
(1.21871 0.418481 -4.00614e-20)
(1.15518 0.407168 7.3509e-20)
(1.09179 0.391145 -1.3509e-19)
(1.03009 0.369061 0)
(0.980456 0.344019 -6.62485e-20)
(0.950019 0.322027 -1.59214e-21)
(0.932974 0.30377 -9.68049e-20)
(0.896688 0.280611 0)
(0.76434 0.231099 -6.94011e-20)
(0.519369 0.152067 -1.64542e-19)
(0.263606 0.0761621 4.37814e-19)
(0.0787229 0.0223836 -4.31415e-19)
(-0.0136544 -0.00430767 6.11733e-19)
(-0.015209 -0.00452459 -6.35586e-19)
(0.246613 0.0872386 -4.19931e-22)
(1.14154 0.394748 1.70908e-21)
(1.34128 0.470509 -6.274e-21)
(1.37921 0.494062 8.36268e-21)
(1.3407 0.493628 -1.54204e-20)
(1.27619 0.483741 0)
(1.21044 0.471341 -3.66367e-20)
(1.14421 0.455816 -7.68136e-20)
(1.07778 0.435476 -7.00528e-20)
(1.01282 0.40891 0)
(0.960298 0.379769 -6.86146e-20)
(0.927709 0.354645 -8.53421e-20)
(0.908519 0.33372 1.05077e-19)
(0.869552 0.307032 -6.38247e-20)
(0.739813 0.252538 -3.03422e-19)
(0.506788 0.167464 1.79853e-19)
(0.263492 0.0854991 5.3284e-20)
(0.0832199 0.0259175 0)
(-0.0105578 -0.00442181 -5.9241e-19)
(-0.0149495 -0.00515545 -2.17464e-20)
(0.241359 0.0967387 3.39013e-21)
(1.13378 0.44567 -4.62427e-21)
(1.3366 0.530925 2.01441e-21)
(1.37325 0.555999 3.1917e-20)
(1.33305 0.552773 -5.43466e-20)
(1.26718 0.539138 7.07759e-20)
(1.19958 0.522879 7.90212e-20)
(1.13106 0.503406 -1.22723e-19)
(1.06196 0.478974 4.37114e-20)
(0.994034 0.448089 -2.8616e-19)
(0.938791 0.414966 -7.78511e-20)
(0.904091 0.386765 0)
(0.882844 0.363258 1.14156e-19)
(0.84198 0.33329 1.37025e-19)
(0.716611 0.274076 1.63705e-19)
(0.49584 0.183848 -1.95865e-19)
(0.26469 0.0960782 -5.78185e-20)
(0.0894954 0.030944 6.79979e-20)
(-0.00529153 -0.00325168 0)
(-0.0138844 -0.00542607 -4.73056e-20)
(0.237266 0.105846 -5.90275e-20)
(1.12407 0.493773 3.13747e-20)
(1.32905 0.588639 -4.86504e-22)
(1.36434 0.615182 1.74706e-20)
(1.32279 0.60953 -2.29042e-20)
(1.25587 0.592517 -4.1016e-21)
(1.18677 0.572748 -8.66889e-20)
(1.11629 0.549639 -4.44947e-20)
(1.04478 0.521381 -1.21935e-19)
(0.974094 0.4864 3.25527e-22)
(0.916274 0.449439 -2.43748e-19)
(0.879549 0.418218 2.06709e-19)
(0.856391 0.392173 -1.25764e-19)
(0.814081 0.358994 1.51372e-19)
(0.69332 0.295405 0)
(0.484349 0.200525 -1.06751e-19)
(0.265281 0.107139 2.70732e-22)
(0.0958378 0.0369226 -2.97556e-19)
(0.000810636 -0.0011631 -4.36485e-20)
(-0.0123395 -0.00538992 0)
(0.234215 0.114709 0)
(1.11338 0.539288 3.6965e-20)
(1.31954 0.644038 1.04815e-20)
(1.35332 0.671463 -1.39458e-20)
(1.31061 0.663693 -3.11791e-20)
(1.24287 0.64366 0)
(1.17253 0.620727 -3.84519e-20)
(1.10033 0.594313 -1.04139e-21)
(1.02663 0.562534 2.61603e-19)
(0.953354 0.523711 -3.92566e-20)
(0.893059 0.483051 -1.76227e-19)
(0.854395 0.44888 1.07416e-19)
(0.829456 0.420335 -2.2386e-21)
(0.785897 0.383991 1.61263e-19)
(0.669261 0.316082 9.91537e-20)
(0.471076 0.216894 -2.30677e-19)
(0.263358 0.118197 2.7299e-19)
(0.100561 0.0433378 8.08794e-20)
(0.00658542 0.00156269 3.33169e-19)
(-0.010566 -0.00507359 -8.89724e-19)
(0.232137 0.123477 -2.12969e-20)
(1.10243 0.582402 2.77466e-20)
(1.30871 0.696453 -1.78402e-20)
(1.34079 0.724818 6.82212e-21)
(1.29707 0.715163 0)
(1.22869 0.692438 -3.046e-20)
(1.15731 0.666687 1.30467e-19)
(1.08359 0.637305 9.73668e-20)
(1.00788 0.602326 0)
(0.932117 0.559938 -5.67327e-19)
(0.869397 0.515722 4.77665e-19)
(0.828863 0.478674 0)
(0.802235 0.447632 1.47457e-19)
(0.757425 0.408026 -2.23112e-21)
(0.643794 0.33574 -3.1843e-19)
(0.455955 0.231982 1.24376e-19)
(0.258638 0.128543 0)
(0.102806 0.0494613 4.3727e-19)
(0.0110465 0.00431221 0)
(-0.00890943 -0.00465109 -4.21956e-19)
(0.230882 0.13222 2.60464e-20)
(1.09162 0.623354 3.75269e-20)
(1.29711 0.745962 -1.72489e-20)
(1.32724 0.775258 0)
(1.28265 0.763922 -2.34883e-20)
(1.21376 0.738813 0)
(1.14151 0.710564 -1.27254e-19)
(1.06643 0.678547 -4.45458e-20)
(0.988831 0.640702 4.59551e-20)
(0.91064 0.595037 -2.80873e-19)
(0.84549 0.547434 4.92722e-20)
(0.803124 0.507551 0)
(0.774895 0.473903 -3.15312e-19)
(0.728813 0.430828 2.15191e-21)
(0.617517 0.353804 0)
(0.438558 0.245372 1.07771e-21)
(0.250921 0.13744 4.00518e-19)
(0.101999 0.0545597 -3.77857e-19)
(0.0135851 0.00656313 1.11555e-19)
(-0.00761095 -0.00426082 0)
(0.230129 0.140839 0)
(1.08126 0.662208 4.61631e-20)
(1.28495 0.79275 2.76737e-20)
(1.3131 0.822836 -2.54221e-21)
(1.26771 0.809996 -5.34047e-21)
(1.19843 0.782785 -6.87621e-20)
(1.12544 0.752341 4.82573e-20)
(1.04913 0.718009 -5.3286e-20)
(0.969741 0.677626 2.06115e-19)
(0.889146 0.629 -4.49726e-19)
(0.82152 0.578198 -4.12863e-21)
(0.777297 0.535448 -1.37767e-19)
(0.747502 0.498991 5.12355e-19)
(0.700065 0.452082 -2.58088e-21)
(0.590498 0.369911 -2.47867e-19)
(0.419284 0.256603 -4.40217e-19)
(0.240677 0.144402 0)
(0.0987788 0.0580684 0)
(0.0143474 0.00794377 1.20433e-19)
(-0.00671361 -0.00401053 -7.06624e-20)
(0.230087 0.149463 3.76526e-20)
(1.07152 0.698887 -1.0587e-19)
(1.27249 0.836921 -2.97097e-20)
(1.29869 0.867617 0)
(1.25255 0.853446 -1.50613e-21)
(1.18297 0.824382 -6.01706e-20)
(1.10936 0.792029 1.14774e-19)
(1.03193 0.755686 2.08143e-19)
(0.950841 0.7131 2.67683e-19)
(0.867845 0.661842 -3.675e-19)
(0.79764 0.608046 -4.12079e-19)
(0.75145 0.562351 3.68796e-19)
(0.720052 0.522822 0)
(0.671141 0.471558 -1.12885e-19)
(0.562855 0.383741 -2.68035e-19)
(0.39834 0.265263 -3.16795e-19)
(0.228133 0.14906 -3.73814e-19)
(0.093365 0.0598562 1.104e-19)
(0.0136238 0.00838441 -6.48757e-20)
(-0.00618778 -0.00392505 3.0412e-22)
(0.230172 0.158008 0)
(1.06249 0.733773 0)
(1.26003 0.878565 2.47357e-21)
(1.28424 0.909717 0)
(1.2374 0.89436 4.4931e-21)
(1.1676 0.863667 3.84837e-20)
(1.09348 0.829658 0)
(1.01504 0.791594 2.44091e-20)
(0.932326 0.747128 4.4665e-19)
(0.84692 0.693591 -8.46009e-19)
(0.773981 0.637027 0)
(0.725632 0.588321 -2.37794e-19)
(0.692484 0.545376 -3.03061e-21)
(0.641969 0.489054 -2.30161e-21)
(0.534622 0.394973 2.87135e-19)
(0.375809 0.271065 -5.69022e-23)
(0.213854 0.151159 -8.05628e-19)
(0.0862394 0.0598538 2.37573e-19)
(0.011824 0.00800923 7.01817e-20)
(-0.0059054 -0.00394839 0)
(0.230397 0.166426 -1.53284e-19)
(1.05394 0.76701 -7.31156e-20)
(1.24764 0.917777 -9.20666e-20)
(1.26991 0.949277 7.96916e-20)
(1.22246 0.932817 -7.1144e-21)
(1.15251 0.900706 0)
(1.07797 0.865275 6.83513e-20)
(0.998613 0.825757 -5.48082e-20)
(0.91435 0.779729 3.91792e-21)
(0.826539 0.724284 6.25464e-20)
(0.750672 0.665213 5.34749e-19)
(0.699866 0.613489 -8.34332e-20)
(0.664693 0.566696 -3.1658e-19)
(0.612388 0.504388 -1.31676e-19)
(0.505876 0.403246 1.55804e-19)
(0.352529 0.273737 1.13192e-22)
(0.198335 0.150607 2.17012e-19)
(0.0780125 0.05814 -5.11292e-19)
(0.00935165 0.00694161 6.04212e-19)
(-0.00577224 -0.00404474 8.81024e-20)
(0.230554 0.174586 5.86455e-20)
(1.04586 0.798682 -4.14622e-20)
(1.23546 0.954657 6.23977e-21)
(1.25582 0.98643 5.41481e-20)
(1.20785 0.968929 8.25322e-21)
(1.13782 0.935574 -6.51159e-20)
(1.06294 0.898931 1.89426e-20)
(0.982773 0.858201 -2.28147e-19)
(0.897053 0.810908 -4.92482e-19)
(0.806839 0.753933 -5.04862e-19)
(0.727853 0.692696 0)
(0.674183 0.638025 -3.67337e-19)
(0.636553 0.586873 4.56903e-19)
(0.582155 0.517406 0)
(0.476568 0.408159 -3.33948e-19)
(0.329118 0.272814 1.98381e-19)
(0.18285 0.147228 -2.33394e-19)
(0.0699302 0.0549991 -2.75107e-19)
(0.00684247 0.00546975 -4.86727e-19)
(-0.00574029 -0.00419475 -3.79353e-19)
(0.231079 0.18262 -6.67163e-20)
(1.03812 0.828785 4.43751e-20)
(1.22354 0.98928 1.00093e-19)
(1.24208 1.02126 8.10812e-20)
(1.19367 1.00279 -1.33388e-20)
(1.12363 0.968358 -3.20641e-20)
(1.04851 0.930679 6.40777e-20)
(0.967614 0.888966 -2.33742e-19)
(0.880523 0.84069 -2.91945e-19)
(0.787944 0.78256 5.28919e-19)
(0.705648 0.719565 1.17707e-18)
(0.648645 0.662112 0)
(0.607945 0.606077 0)
(0.550897 0.528099 -1.51675e-19)
(0.446373 0.409267 0)
(0.305822 0.267381 4.26303e-19)
(0.168879 0.140195 5.01672e-19)
(0.0640269 0.0503353 0)
(0.00553319 0.00392361 0)
(-0.00572426 -0.00433492 4.07743e-19)
(0.231286 0.190235 7.63509e-20)
(1.03072 0.857314 6.14948e-20)
(1.21196 1.02177 7.29594e-20)
(1.22874 1.0539 -8.03484e-20)
(1.18 1.03451 -2.13523e-20)
(1.11 0.999138 2.82222e-20)
(1.03472 0.960583 -8.74837e-20)
(0.953205 0.918084 -6.17256e-22)
(0.864846 0.869084 -5.09922e-21)
(0.769954 0.810167 -4.50295e-21)
(0.684205 0.745888 6.06791e-19)
(0.62336 0.685906 0)
(0.578803 0.624564 4.6387e-19)
(0.518191 0.536656 3.24133e-19)
(0.41453 0.406332 7.79653e-19)
(0.282216 0.256096 2.29785e-19)
(0.157963 0.12673 -2.69899e-19)
(0.0648164 0.0408409 -1.58472e-19)
(0.0117064 0.00125282 0)
(-0.00352443 -0.0036955 4.38285e-19)
(0.231822 0.197872 -1.73174e-19)
(1.02364 0.884364 0)
(1.2007 1.05218 8.70594e-20)
(1.21584 1.08441 -6.89843e-20)
(1.16689 1.0642 3.3795e-20)
(1.09697 1.028 -2.15912e-20)
(1.02163 0.988698 1.66091e-19)
(0.939584 0.945589 -1.9249e-20)
(0.850068 0.896098 0)
(0.752951 0.836733 -5.84095e-19)
(0.663665 0.771694 -1.32051e-18)
(0.59848 0.709556 5.43382e-20)
(0.549168 0.642665 6.41461e-19)
(0.483716 0.54352 0)
(0.379806 0.39974 5.26724e-19)
(0.255978 0.237815 0)
(0.147934 0.100581 0)
(0.0771835 0.0119063 -1.71325e-19)
(0.0471318 -0.0131925 0)
(0.0269457 0.0103146 1.17471e-19)
(0.23201 0.204932 -1.94412e-19)
(1.01682 0.910275 0)
(1.18975 1.08073 1.46004e-19)
(1.20335 1.11303 0)
(1.15429 1.0921 -2.20776e-20)
(1.0845 1.05523 0)
(1.00917 1.01534 7.46015e-21)
(0.926655 0.971818 3.21504e-20)
(0.836067 0.922092 3.67129e-20)
(0.736765 0.862641 -6.40705e-19)
(0.643833 0.797418 3.95643e-20)
(0.573762 0.733697 4.38426e-19)
(0.518597 0.661224 6.26415e-19)
(0.446538 0.549318 8.45147e-20)
(0.340161 0.390873 4.13404e-19)
(0.221919 0.213433 0)
(0.126402 0.0572217 5.68698e-19)
(0.0687589 -0.0312465 -3.31833e-19)
(0.0419052 0.0419245 3.86123e-19)
(-0.0690732 0.437907 -4.55081e-19)
(0.232201 0.211809 1.61544e-19)
(1.01002 0.934818 2.47505e-19)
(1.17904 1.10771 0)
(1.19112 1.14021 4.91476e-21)
(1.14202 1.11881 6.82357e-20)
(1.07231 1.0815 6.76951e-22)
(0.997034 1.04129 5.52038e-20)
(0.914001 0.9977 0)
(0.8223 0.948145 2.4173e-19)
(0.720719 0.889187 -3.32709e-20)
(0.623787 0.824533 0)
(0.547928 0.760004 0)
(0.485072 0.681719 5.62187e-19)
(0.404221 0.554569 -2.61615e-19)
(0.29231 0.381553 -4.19729e-19)
(0.175087 0.18626 0)
(0.0738872 0.0676448 2.86996e-19)
(0.00309057 0.437392 -3.31095e-19)
(0.0327631 1.89374 -1.80876e-19)
(0.0619418 2.81342 -2.31628e-19)
(0.232233 0.21788 -1.21947e-19)
(1.00342 0.958182 -3.18775e-19)
(1.16855 1.13313 8.73821e-20)
(1.17914 1.16582 6.99788e-20)
(1.13008 1.14408 0)
(1.06047 1.10654 -1.04375e-20)
(0.98541 1.06626 7.14871e-20)
(0.901817 1.02281 -1.54028e-20)
(0.809043 0.973746 3.62244e-20)
(0.705201 0.915769 6.10671e-19)
(0.604132 0.852407 6.69184e-19)
(0.521899 0.788116 4.92805e-19)
(0.449401 0.704315 5.66703e-19)
(0.358275 0.558308 -6.16455e-19)
(0.241554 0.375492 -6.35158e-19)
(0.118499 0.230863 0)
(0.0419965 0.831114 0)
(0.0994477 2.55278 1.58218e-19)
(0.100724 3.20305 0)
(0.104067 3.38879 3.76e-19)
(0.234803 0.223496 0)
(0.997627 0.980574 0)
(1.15808 1.15683 0)
(1.16722 1.18971 2.15456e-20)
(1.11814 1.16767 6.31918e-20)
(1.04878 1.13021 -2.05254e-20)
(0.974192 1.09012 4.45006e-20)
(0.890063 1.04704 -1.49287e-20)
(0.796264 0.998761 3.00422e-19)
(0.690245 0.942256 -8.88098e-21)
(0.58503 0.88095 1.32293e-18)
(0.495977 0.817907 -5.7015e-20)
(0.411758 0.730145 6.87006e-20)
(0.311273 0.558249 8.93862e-20)
(0.178205 0.387172 -5.59743e-21)
(0.0970135 0.960761 1.84493e-21)
(0.137988 2.72477 -8.3991e-19)
(0.145912 3.29311 -3.13995e-19)
(0.135297 3.42559 1.61481e-19)
(0.123154 3.44779 -1.7949e-19)
(0.153625 0.180887 7.2678e-20)
(0.986484 1.00474 0)
(1.14724 1.179 -1.76693e-19)
(1.15585 1.21236 -1.92253e-19)
(1.10709 1.19041 1.55818e-19)
(1.03816 1.15321 2.67219e-20)
(0.963329 1.11297 -4.38042e-20)
(0.878852 1.07053 1.60386e-19)
(0.784136 1.02337 -2.45122e-19)
(0.676151 0.968832 0)
(0.566906 0.91038 6.49983e-19)
(0.47072 0.849284 -4.0301e-19)
(0.373833 0.761934 0)
(0.257144 0.554961 8.36375e-20)
(0.14096 0.731427 1.99684e-19)
(0.153757 2.49855 -2.31193e-19)
(0.210179 3.32209 2.58774e-19)
(0.190668 3.43768 1.38558e-19)
(0.158816 3.45945 1.54896e-19)
(0.137333 3.46989 2.44802e-19)
(0.277591 0.261301 -1.3232e-19)
(0.971048 1.01436 0)
(1.12903 1.20429 1.93821e-19)
(1.14078 1.24276 2.1271e-19)
(1.08965 1.22341 -1.76847e-19)
(1.01996 1.18658 -4.99786e-20)
(0.944199 1.14798 3.05659e-20)
(0.859203 1.10677 1.26919e-20)
(0.763154 1.0618 2.31995e-19)
(0.652372 1.01123 5.25841e-19)
(0.537763 0.959298 3.65236e-20)
(0.430473 0.903302 3.58734e-19)
(0.304008 0.797863 6.46263e-20)
(0.211622 0.910766 -8.23578e-20)
(0.228288 2.34634 -1.86019e-19)
(0.289944 3.32365 1.76428e-19)
(0.272834 3.46573 -1.93803e-19)
(0.237534 3.48803 -1.11395e-19)
(0.2006 3.51603 -9.19673e-20)
(0.14916 3.5105 -1.07814e-20)
(0.265421 0.258154 0)
(0.968591 1.0369 5.70004e-20)
(1.12062 1.22771 -4.02817e-20)
(1.1301 1.26637 -2.57186e-20)
(1.07878 1.24659 -1.24197e-19)
(1.00903 1.20998 5.37169e-20)
(0.932953 1.17153 -1.1675e-20)
(0.847749 1.13112 1.12278e-20)
(0.751159 1.08765 -2.40602e-19)
(0.639051 1.03998 -1.36472e-20)
(0.521555 0.992984 -1.17512e-18)
(0.408968 0.94146 5.13125e-20)
(0.285033 0.862557 -6.09154e-20)
(0.254418 1.47278 -7.60103e-20)
(0.33025 3.09845 1.81796e-20)
(0.349339 3.46271 1.83264e-22)
(0.309056 3.51938 2.7516e-19)
(0.27173 3.54669 1.31944e-19)
(0.223096 3.57055 -2.82747e-20)
(0.164129 3.56691 -4.86812e-20)
(0.249265 0.256664 1.45237e-19)
(0.964546 1.06211 3.89856e-19)
(1.11181 1.25322 -1.15576e-19)
(1.11883 1.2914 -9.7021e-20)
(1.06727 1.27111 0)
(0.997676 1.23456 1.06359e-19)
(0.921577 1.19635 -1.95168e-21)
(0.836444 1.15674 9.64719e-21)
(0.739632 1.11485 -2.69463e-20)
(0.626727 1.07036 -4.73203e-19)
(0.507192 1.02868 -5.41171e-19)
(0.390935 0.980892 -4.18543e-19)
(0.286605 0.991307 -4.61663e-19)
(0.324866 2.19663 4.76294e-19)
(0.418106 3.37174 3.94443e-19)
(0.394232 3.52003 0)
(0.348794 3.56589 0)
(0.310702 3.60742 -2.1417e-20)
(0.259847 3.66802 0)
(0.176832 3.64443 -1.70309e-20)
(0.238634 0.258568 -2.1843e-19)
(0.958574 1.0884 -3.32158e-19)
(1.10156 1.27991 0)
(1.10618 1.31714 5.89082e-21)
(1.05448 1.29622 -1.37827e-19)
(0.985183 1.25961 1.77854e-19)
(0.909406 1.2217 7.45077e-21)
(0.824549 1.18278 4.64304e-21)