/*--------------------------------*- C++ -*----------------------------------*\
| =========                 |                                                 |
| \\      /  F ield         | OpenFOAM: The Open Source CFD Toolbox           |
|  \\    /   O peration     | Version:  2112                                  |
|   \\  /    A nd           | Website:  www.openfoam.com                      |
|    \\/     M anipulation  |                                                 |
\*---------------------------------------------------------------------------*/
FoamFile
{
    version     2.0;
    format      ascii;
    arch        "LSB;label=32;scalar=64";
    class       volScalarField;
    location    "33";
    object      p;
}
// * * * * * * * * * * * * * * * * * * * * * * * * * * * * * * * * * * * * * //

dimensions      [0 2 -2 0 0 0 0];

internalField   nonuniform List<scalar> 
400
(
4.5378829e-08
-0.00067282487
-0.001385302
-0.0019426601
-0.0022199534
-0.0021564499
-0.0017277446
-0.00092615397
0.00023546504
0.0017074476
0.0033873267
0.0051122348
0.0066735147
0.0078491393
0.0084584326
0.0084237388
0.0078134604
0.006844581
0.0058613579
0.0052989996
0.00065788972
-4.0476993e-05
-0.00056961055
-0.00094057606
-0.001110814
-0.0010398723
-0.00070574134
-9.5495422e-05
0.00078914782
0.0019162318
0.0032096278
0.0045547453
0.0057820044
0.0067162992
0.0072144692
0.0072145783
0.0067700069
0.0060528201
0.0053105789
0.0047385384
0.0014237477
0.00044069798
-0.00011655199
-0.00045319472
-0.00061475964
-0.0005847628
-0.00034653255
0.00011979095
0.00082850845
0.0017699557
0.0028943389
0.00409821
0.0052282828
0.0061110125
0.0065939039
0.0065976964
0.0061557689
0.0054215456
0.0045937888
0.003748283
0.0020142426
0.00068173265
1.6815931e-05
-0.00035880653
-0.00057150208
-0.0006265124
-0.00051003655
-0.00019058573
0.00036854813
0.001184435
0.0022299638
0.0034174753
0.0045914088
0.0055569793
0.0061235894
0.0061665926
0.00568365
0.004817084
0.0037473354
0.0024736471
0.002167313
0.00049616241
-0.00029621419
-0.0007486606
-0.0010582083
-0.0012452251
-0.0012927045
-0.001151261
-0.00075501205
-5.306046e-05
0.00095706989
0.0022103311
0.0035447572
0.004732711
0.0055218904
0.0057099259
0.0052293223
0.0042016404
0.0028062263
0.00098400701
0.0016540034
-0.00031443642
-0.0012387437
-0.001799257
-0.0022526187
-0.0026278665
-0.0028985791
-0.002991044
-0.0028025051
-0.0022376485
-0.0012510613
0.00013093653
0.0017446975
0.003327164
0.0045416959
0.0050658235
0.0047175322
0.0035662338
0.0017896325
-0.00072588045
0.00028706572
-0.0019195294
-0.0029729562
-0.0036713384
-0.0043202521
-0.0049531572
-0.0055300779
-0.0059479126
-0.0060589689
-0.0057073557
-0.0047756913
-0.0032586637
-0.0012664681
0.00090722437
0.002823173
0.0039868767
0.004025129
0.0028877421
0.00071541615
-0.0026804617
-0.0020763883
-0.0044511516
-0.0056267641
-0.0064922804
-0.0073928743
-0.0083657158
-0.0093568747
-0.010231736
-0.010790927
-0.010804811
-0.010063341
-0.0084617428
-0.0060407404
-0.0030831814
-0.00012626801
0.0021126586
0.0029638588
0.0021356139
-0.00036599877
-0.0048725738
-0.0055241256
-0.0079920727
-0.0092778826
-0.010333751
-0.011537956
-0.012935368
-0.014462658
-0.01595627
-0.017162417
-0.017765994
-0.017438056
-0.015919458
-0.013122939
-0.0092517297
-0.0048989723
-0.0010299812
0.0012694415
0.0012777952
-0.0013339244
-0.0072016427
-0.010076872
-0.012565053
-0.013936625
-0.01518397
-0.016718349
-0.018602585
-0.020774152
-0.023048718
-0.025121642
-0.026586309
-0.026969315
-0.025812917
-0.022845656
-0.018074422
-0.012051059
-0.0059519197
-0.0013707069
0.00030062576
-0.0019471701
-0.0093821914
-0.015684948
-0.018132373
-0.019537514
-0.020926772
-0.022757719
-0.025129858
-0.027996973
-0.031166363
-0.034291432
-0.036876812
-0.038294138
-0.03784425
-0.03506583
-0.029601443
-0.021822468
-0.012985546
-0.0051849437
-0.0007157183
-0.0017641665
-0.010792222
-0.022243563
-0.024613003
-0.025945549
-0.027334912
-0.029324137
-0.032079224
-0.035588929
-0.039664623
-0.043927243
-0.047801275
-0.050530161
-0.051236454
-0.048956853
-0.043143521
-0.033768988
-0.021926313
-0.010036852
-0.0014154117
-9.8337538e-06
-0.010225586
-0.029641183
-0.031923866
-0.032978708
-0.034079819
-0.035939467
-0.038831505
-0.042795615
-0.047651575
-0.052990514
-0.058163564
-0.062284225
-0.064265511
-0.062875136
-0.057112162
-0.046476714
-0.031649058
-0.015037831
-0.00086435706
0.0046467973
-0.0055215029
-0.037865977
-0.040048481
-0.040440105
-0.040752479
-0.042014992
-0.044653026
-0.048758182
-0.054144057
-0.060356021
-0.066665326
-0.072060664
-0.07526826
-0.07481134
-0.069269242
-0.05762828
-0.039961479
-0.01824794
0.002789072
0.014445192
0.0069075835
-0.047230574
-0.049134318
-0.048140538
-0.046882281
-0.046905459
-0.048798633
-0.052668251
-0.058275999
-0.065076092
-0.072231979
-0.078595745
-0.082712297
-0.082880186
-0.077309366
-0.064523912
-0.043934925
-0.016747955
0.012502983
0.032938821
0.032408991
-0.058896798
-0.059639852
-0.055883844
-0.051941039
-0.04997231
-0.050629838
-0.053928601
-0.059495309
-0.066611839
-0.074285277
-0.081191147
-0.085679382
-0.085831773
-0.07952217
-0.064876073
-0.040689237
-0.0072408868
0.032139408
0.064981489
0.07774922
-0.076226527
-0.072613751
-0.063516105
-0.05543533
-0.050725013
-0.049781589
-0.052312318
-0.057664338
-0.064891795
-0.072774949
-0.079779345
-0.084036726
-0.083391632
-0.075348938
-0.057602647
-0.02837511
0.012933363
0.065396514
0.11555155
0.15150627
-0.1080922
-0.089556428
-0.071233829
-0.057232942
-0.049072083
-0.046330189
-0.048077245
-0.053202586
-0.0604346
-0.068295842
-0.075027372
-0.078526893
-0.076388986
-0.065809653
-0.043865454
-0.0078184185
0.044393704
0.11299819
0.18838046
0.27186081
-0.17684541
-0.10828975
-0.076202554
-0.054651247
-0.042992355
-0.038998001
-0.040570487
-0.045928024
-0.053441518
-0.061438338
-0.068027565
-0.070962539
-0.067551113
-0.054739813
-0.029148789
0.01356363
0.078146991
0.17006439
0.2894955
0.47421826
-0.37208336
-0.1247084
-0.054973047
-0.031962508
-0.022063541
-0.0203005
-0.024359435
-0.03195798
-0.041261541
-0.050640868
-0.058316882
-0.062187445
-0.059782535
-0.048056789
-0.022658505
0.021474235
0.092818754
0.2101528
0.40288846
0.77640932
)
;

boundaryField
{
    movingWall
    {
        type            zeroGradient;
    }
    fixedWalls
    {
        type            zeroGradient;
    }
    frontAndBack
    {
        type            empty;
    }
}


// ************************************************************************* //
