/*--------------------------------*- C++ -*----------------------------------*\
| =========                 |                                                 |
| \\      /  F ield         | OpenFOAM: The Open Source CFD Toolbox           |
|  \\    /   O peration     | Version:  2112                                  |
|   \\  /    A nd           | Website:  www.openfoam.com                      |
|    \\/     M anipulation  |                                                 |
\*---------------------------------------------------------------------------*/
FoamFile
{
    version     2.0;
    format      ascii;
    arch        "LSB;label=32;scalar=64";
    class       surfaceScalarField;
    location    "33";
    object      phi;
}
// * * * * * * * * * * * * * * * * * * * * * * * * * * * * * * * * * * * * * //

dimensions      [0 3 -1 0 0 0 0];

oriented        oriented;

internalField   nonuniform List<scalar> 
760
(
1.2702913e-05
-1.270344e-05
-2.872315e-05
4.1426064e-05
-0.00012229202
9.3568872e-05
-0.00025039692
0.0001281049
-0.00039607663
0.00014567971
-0.00054539378
0.00014931715
-0.00068627528
0.00014088151
-0.0008068967
0.00012062143
-0.0008949576
8.8060894e-05
-0.00093839586
4.3438238e-05
-0.00092727941
-1.1116458e-05
-0.00085686596
-7.0413452e-05
-0.00073043211
-0.00012643388
-0.0005613434
-0.00016908875
-0.00037276108
-0.00018858233
-0.00019447418
-0.00017828683
-5.6521821e-05
-0.00013795225
1.9614595e-05
-7.6136348e-05
3.0411387e-05
-1.0796794e-05
3.0411363e-05
-4.3182896e-05
3.0479456e-05
-0.00020456667
0.00020280984
-0.00046832592
0.00035732812
-0.00080071023
0.00046048922
-0.0011673541
0.00051232363
-0.0015364543
0.00051841728
-0.0018782334
0.00048266066
-0.0021636887
0.00040607668
-0.0023645511
0.00028892332
-0.002455358
0.00013424508
-0.0024181505
-4.8323923e-05
-0.0022453652
-0.0002431988
-0.0019475619
-0.00042423713
-0.0015544729
-0.00056217777
-0.0011143234
-0.00062873178
-0.00068747564
-0.00060513456
-0.00033452577
-0.00049090207
-0.00010089665
-0.00030976546
-1.5518692e-06
-0.00011014158
2.8859479e-05
-0.0001100275
0.00014050696
-0.00040303347
0.0004958158
-0.00083139249
0.00078568714
-0.0013456245
0.00097472122
-0.0018986087
0.0010653079
-0.0024465935
0.001066402
-0.0029480471
0.0009841143
-0.0033626347
0.00082066423
-0.003651907
0.00057819569
-0.0037823335
0.00026467159
-0.0037298379
-0.00010081951
-0.0034858239
-0.00048721274
-0.0030632828
-0.00084677824
-0.0024999989
-0.0011254617
-0.0018582375
-0.0012704932
-0.0012181457
-0.0012452265
-0.00066373725
-0.0010453106
-0.00026308979
-0.00071041297
-4.7956342e-05
-0.00032527503
-1.9096834e-05
-0.00017344053
0.00031394749
-0.00059329587
0.00091567115
-0.0011777025
0.0013700938
-0.0018583816
0.0016554003
-0.0025769246
0.0017838509
-0.0032813274
0.0017708048
-0.0039228153
0.0016256022
-0.0044541589
0.0013520078
-0.004830282
0.00095431882
-0.0050112545
0.00044564411
-0.004967271
-0.00014480299
-0.0046844456
-0.00077003813
-0.0041723584
-0.0013588655
-0.0034691329
-0.0018286873
-0.0026440132
-0.002095613
-0.001793203
-0.0020960367
-0.0010258515
-0.0018126621
-0.00044021531
-0.0012960492
-9.6723935e-05
-0.00066876637
-0.00011582073
-0.0002297969
0.00054374439
-0.00076507932
0.0014509536
-0.0014914944
0.0020965089
-0.0023225614
0.0024864673
-0.0031901591
0.0026514486
-0.004036845
0.0026174907
-0.0048100622
0.0023988194
-0.0054589918
0.0020009374
-0.005934209
0.001429536
-0.0061898393
0.00070127434
-0.0061884185
-0.00014622369
-0.0059055873
-0.0010528693
-0.0053404223
-0.0019240306
-0.0045231201
-0.0026459895
-0.0035229794
-0.0030957536
-0.0024498066
-0.0031692095
-0.0014425404
-0.0028199283
-0.00064123165
-0.002097358
-0.00014883699
-0.001161161
-0.0002646577
-0.00027729943
0.00082104382
-0.00091155221
0.0020852064
-0.0017607401
0.0029456968
-0.0027228233
0.0034485505
-0.0037222304
0.0036508556
-0.0046987176
0.0035939779
-0.0055989168
0.0032990187
-0.0063712183
0.0027732389
-0.0069637562
0.0020220738
-0.0073248635
0.0010623816
-0.0074074847
-6.3602483e-05
-0.0071717147
-0.0012886392
-0.0065989023
-0.0024968428
-0.0057016888
-0.0035432029
-0.0045400245
-0.0042574179
-0.0032318453
-0.0044773886
-0.0019490221
-0.0041027515
-0.00088728819
-0.0031590919
-0.00021159433
-0.0018368549
-0.00047625202
-0.00031411696
0.0011351608
-0.0010263422
0.0027974315
-0.0019735137
0.0038928683
-0.0030417627
0.0045167996
-0.0041507278
0.0047598207
-0.005239957
0.0046832071
-0.0062580881
0.0043171497
-0.0071555413
0.0036706922
-0.0078803833
0.0027469158
-0.0083768579
0.0015588561
-0.008585404
0.00014494361
-0.0084513327
-0.0014227105
-0.0079295101
-0.0030186653
-0.007004972
-0.0044677411
-0.0057150494
-0.0055473404
-0.0041735846
-0.0060188534
-0.0025818463
-0.0056944898
-0.0012041054
-0.0045368329
-0.00029450418
-0.002746456
-0.0007707562
-0.00033824891
0.0014734097
-0.0011031704
0.003562353
-0.0021176363
0.0049073342
-0.0032598927
0.005659056
-0.0044474106
0.0059473387
-0.0056219658
0.0058577623
-0.0067369527
0.0054321366
-0.0077479705
0.00468171
-0.0086063776
0.003605323
-0.0092552534
0.0022077319
-0.0096270168
0.00051670683
-0.0096492078
-0.0014005195
-0.0092489824
-0.0034188908
-0.008373945
-0.0053427784
-0.0070220742
-0.0068992112
-0.0052818152
-0.0077591125
-0.0033676678
-0.0076086372
-0.0016173639
-0.0062871368
-0.00040826907
-0.0039555508
-0.0011790253
-0.00034815634
0.0018215661
-0.0011372155
0.0043514122
-0.0021827894
0.0059529081
-0.0033586212
0.0068348877
-0.004582244
0.0071709616
-0.0057998237
0.0070753421
-0.0069721962
0.0066045091
-0.0080636694
0.0057731831
-0.0090334428
0.0045750965
-0.0098289946
0.0030032838
-0.010381275
0.0010689874
-0.010604527
-0.0011772683
-0.010400779
-0.0036226388
-0.0096748967
-0.0060686604
-0.0083686763
-0.0082054316
-0.0065156868
-0.009612102
-0.0043098858
-0.0098144381
-0.002148324
-0.0084486986
-0.00056492552
-0.0055389494
-0.0017439508
-0.00034393491
0.002165501
-0.0011278599
0.0051353372
-0.0021647104
0.0069897585
-0.003325903
0.0079960803
-0.0045308037
0.0083758623
-0.0057319456
0.008276484
-0.0069002226
0.0077727862
-0.0080123825
0.0068853429
-0.0090408269
0.0056035409
-0.0099449675
0.0039074244
-0.010663395
0.0017874152
-0.011106746
-0.0007339175
-0.011163421
-0.0035659641
-0.010697128
-0.0065349527
-0.0095826
-0.00931996
-0.0077667781
-0.011427924
-0.0053715021
-0.012209714
-0.0028071793
-0.011013021
-0.00077836918
-0.0075677595
-0.00252232
-0.00032890794
0.0024944089
-0.0010824215
0.0058888508
-0.0020707772
0.0079781143
-0.0031636131
0.0090889161
-0.0042839024
0.0094961513
-0.005392854
0.0093854355
-0.0064741409
0.0088540733
-0.0075205483
0.0079317506
-0.0085229182
0.0066059106
-0.0094603448
0.004844851
-0.010291332
0.0026184025
-0.010933227
-9.2022455e-05
-0.011283212
-0.003215979
-0.011173633
-0.0066445313
-0.010415714
-0.010077879
-0.0088467368
-0.012996901
-0.0064557546
-0.014600696
-0.0035815275
-0.013887248
-0.0010642231
-0.010085064
-0.003586543
-0.00031178406
0.0028061929
-0.0010206789
0.0065977455
-0.0019260999
0.0088835354
-0.0028949488
0.010057765
-0.0038568826
0.010458085
-0.0047855635
0.010314116
-0.0056807664
0.0097492762
-0.0065544555
0.0088054399
-0.007419889
0.0074713442
-0.0082818246
0.0057067865
-0.009125155
0.0034617329
-0.009908639
0.00069146166
-0.010527256
-0.0025973621
-0.010827013
-0.006344774
-0.010573628
-0.010331265
-0.0094932086
-0.014077321
-0.0073911391
-0.016702766
-0.0044189149
-0.016859473
-0.0014372118
-0.013066767
-0.0050237548
-0.00031004255
0.0031162355
-0.00098036422
0.007268067
-0.001779048
0.0096822192
-0.0025693649
0.010848082
-0.0032945943
0.011183315
-0.0039478953
0.010967417
-0.0045499689
0.010351349
-0.005134784
0.009390255
-0.0057399183
0.0080764787
-0.0063985225
0.0063653907
-0.007130125
0.0041933353
-0.007930257
0.0014915936
-0.0087388038
-0.0017888153
-0.0094303571
-0.0056532206
-0.0097685797
-0.0099930421
-0.0094003428
-0.014445557
-0.0079305791
-0.018172529
-0.0052061613
-0.01958389
-0.0019026121
-0.016370316
-0.0069263669
-0.00035603984
0.0034722754
-0.0010239961
0.0079360233
-0.0017042286
0.010362451
-0.0022607963
0.01140465
-0.0026657187
0.011588238
-0.0029440061
0.011245704
-0.0031442451
0.010551588
-0.0033248628
0.0095708724
-0.003547188
0.0082988039
-0.0038710408
0.0066892436
-0.004349166
0.0046714606
-0.0050183756
0.0021608032
-0.0058766089
-0.00093058211
-0.0068578318
-0.0046719977
-0.0077762856
-0.0090745883
-0.0082658334
-0.01395601
-0.007768739
-0.018669624
-0.005751099
-0.02160153
-0.0024366711
-0.019684744
-0.009363038
-0.00050826078
0.0039805361
-0.00124563
0.0086733929
-0.0017958812
0.010912703
-0.0020479961
0.011656764
-0.0020325021
0.011572744
-0.0018254212
0.011038624
-0.0015121873
0.010238354
-0.001177855
0.0092365399
-0.00090470862
0.0080256573
-0.00077371614
0.0065582511
-0.00086348661
0.0047612311
-0.0012473547
0.0025446713
-0.0019828293
-0.00019510747
-0.0030818658
-0.0035729612
-0.0044600295
-0.0076964246
-0.0058274851
-0.012588554
-0.0065661624
-0.017930947
-0.0057684461
-0.022399247
-0.0029512247
-0.022501966
-0.012314263
-0.00086855308
0.0048490888
-0.0017629818
0.0095678219
-0.0021213513
0.011271073
-0.0019368394
0.011472252
-0.0013509138
0.010986818
-0.00051618246
0.010203893
0.00043705285
0.0092851194
0.0013996261
0.0082739669
0.0022723895
0.0071528938
0.0029609277
0.0058697128
0.003369162
0.0043529969
0.0033968094
0.0025170239
0.0029385539
0.00026314799
0.0019096176
-0.0025440248
0.00026969004
-0.0060564971
-0.0018541595
-0.010464705
-0.0039515932
-0.015833513
-0.0048608328
-0.021490007
-0.0032547029
-0.024108095
-0.015568966
-0.0015910835
0.0064401721
-0.0026108518
0.01058759
-0.0025131323
0.011173355
-0.0015898996
0.010549019
-0.00017216139
0.0095690788
0.0014928121
0.008538919
0.0032329101
0.0075450212
0.0049232503
0.0065836268
0.0064630092
0.005613135
0.007757513
0.004575209
0.0087075176
0.0034029923
0.0092015043
0.0020230372
0.0091033478
0.00036130454
0.0082750954
-0.0017157724
0.0065654641
-0.0043468657
0.0039042377
-0.0078034781
0.00055895605
-0.012488231
-0.0024680532
-0.018462998
-0.0030273163
-0.023548832
-0.018596282
-0.0027183586
0.0091585311
-0.0031498652
0.011019094
-0.0018029964
0.0098264864
0.00046670618
0.0082793177
0.0030894303
0.0069463552
0.0057738194
0.0058545299
0.0083629075
0.004955933
0.010760406
0.0041861286
0.012893501
0.0034800397
0.014690669
0.0027780414
0.016068353
0.0020253084
0.01692329
0.0011680996
0.017119717
0.00016487748
0.016490832
-0.0010868875
0.014816842
-0.0026728754
0.011846658
-0.0048332947
0.0074354934
-0.0080770663
0.0022629302
-0.013290435
-0.0012724661
-0.020013436
-0.019868748
-0.0024132783
0.011571811
2.8056899e-05
0.0085777572
0.0042551382
0.0055994034
0.0084161233
0.0041183322
0.012231487
0.003130992
0.015656266
0.0024297503
0.01868655
0.0019256491
0.021329194
0.001543485
0.023583494
0.0012257394
0.025429229
0.00093230679
0.026820172
0.00063436562
0.027677182
0.000311089
0.027900206
-5.8145901e-05
0.027347226
-0.00053390762
0.025771633
-0.0010972823
0.022843047
-0.0019047096
0.01805477
-0.0032887893
0.011113587
-0.0063492511
0.0033886755
-0.012288525
-0.016480072
0.011571812
0.02014957
0.025748974
0.029867306
0.032998298
0.035428048
0.037353697
0.038897182
0.040122921
0.041055228
0.041689594
0.042000683
0.041942537
0.041408629
0.040311347
0.038406637
0.035117848
0.028768597
0.016480072
)
;

boundaryField
{
    movingWall
    {
        type            calculated;
        value           uniform 0;
    }
    fixedWalls
    {
        type            calculated;
        value           uniform 0;
    }
    frontAndBack
    {
        type            empty;
        value           nonuniform List<scalar> 0();
    }
}


// ************************************************************************* //
