/*--------------------------------*- C++ -*----------------------------------*\
| =========                 |                                                 |
| \\      /  F ield         | OpenFOAM: The Open Source CFD Toolbox           |
|  \\    /   O peration     | Version:  2112                                  |
|   \\  /    A nd           | Website:  www.openfoam.com                      |
|    \\/     M anipulation  |                                                 |
\*---------------------------------------------------------------------------*/
FoamFile
{
    version     2.0;
    format      ascii;
    arch        "LSB;label=32;scalar=64";
    class       volVectorField;
    location    "33";
    object      U;
}
// * * * * * * * * * * * * * * * * * * * * * * * * * * * * * * * * * * * * * //

dimensions      [0 1 -1 0 0 0 0];

internalField   nonuniform List<vector> 
400
(
(0.00028444902 -0.00028139148 0)
(0.0001107024 7.9969405e-05 0)
(-0.0013271925 0.0004780354 0)
(-0.0036219063 0.00073593461 0)
(-0.0064236757 0.00086752606 0)
(-0.0094315224 0.00090727529 0)
(-0.012388066 0.00087487282 0)
(-0.015056528 0.00077153624 0)
(-0.017194649 0.00058849322 0)
(-0.01855296 0.00032008549 0)
(-0.018902725 -2.4813268e-05 0)
(-0.018086235 -0.00041827042 0)
(-0.016079962 -0.00079972694 0)
(-0.013048986 -0.0010930877 0)
(-0.0093664131 -0.0012212157 0)
(-0.0055776656 -0.0011294825 0)
(-0.0023003389 -0.00081287141 0)
(-8.2949466e-05 -0.00033798233 0)
(0.00076015307 0.00015229476 0)
(0.00040944228 0.00038933885 0)
(-8.6058851e-05 -0.00012357808 0)
(-0.0018692595 0.0017872673 0)
(-0.0063065458 0.0036260811 0)
(-0.012452746 0.0048625285 0)
(-0.019600761 0.005498566 0)
(-0.027107122 0.0056207085 0)
(-0.034359118 0.0052860645 0)
(-0.040769147 0.0045044052 0)
(-0.045758471 0.0032662337 0)
(-0.048776215 0.0015896537 0)
(-0.049366967 -0.00043548009 0)
(-0.047254134 -0.0026182116 0)
(-0.042452256 -0.0046645734 0)
(-0.035361687 -0.0062189574 0)
(-0.02677874 -0.0069376274 0)
(-0.017827329 -0.0065923004 0)
(-0.0097755604 -0.0051797989 0)
(-0.003746299 -0.0029994428 0)
(-0.00038875057 -0.00066553578 0)
(0.00028989588 0.00078354948 0)
(-0.0005880798 0.0014336365 0)
(-0.0042428205 0.0063775547 0)
(-0.011758631 0.010640662 0)
(-0.021468838 0.013483709 0)
(-0.032366426 0.014898412 0)
(-0.043588329 0.015017488 0)
(-0.054287806 0.013936247 0)
(-0.063643009 0.011684299 0)
(-0.07085634 0.0082813906 0)
(-0.075188882 0.003828652 0)
(-0.076040058 -0.0014059375 0)
(-0.073058223 -0.0069357107 0)
(-0.066267047 -0.012071836 0)
(-0.056169638 -0.016000359 0)
(-0.043781006 -0.017942849 0)
(-0.030569302 -0.01738004 0)
(-0.018250709 -0.014290033 0)
(-0.00841799 -0.0093123268 0)
(-0.0021511235 -0.0037618389 0)
(-1.969999e-06 0.00031696921 0)
(-0.0010530688 0.0043004027 0)
(-0.006514893 0.01356582 0)
(-0.016999229 0.020864229 0)
(-0.030031097 0.02556141 0)
(-0.044300895 0.027761632 0)
(-0.058784709 0.027688118 0)
(-0.072488038 0.025487765 0)
(-0.084447484 0.021218507 0)
(-0.093729536 0.01494516 0)
(-0.099464817 0.0068783793 0)
(-0.10093072 -0.0025013245 0)
(-0.097663337 -0.012378527 0)
(-0.089593475 -0.02160554 0)
(-0.077182522 -0.028824945 0)
(-0.061505295 -0.032706228 0)
(-0.04425377 -0.032300062 0)
(-0.027562287 -0.027445998 0)
(-0.013581786 -0.019080755 0)
(-0.0040263584 -0.009270711 0)
(-0.00026772062 -0.0011081891 0)
(-0.0014558702 0.0083650644 0)
(-0.0085490977 0.023181335 0)
(-0.021746313 0.034051805 0)
(-0.037792613 0.040763245 0)
(-0.05509713 0.043701915 0)
(-0.072519857 0.043259173 0)
(-0.088984756 0.039661589 0)
(-0.10345882 0.033001434 0)
(-0.11493261 0.023384276 0)
(-0.1224373 0.011116751 0)
(-0.12511569 -0.0031289773 0)
(-0.12232021 -0.018219458 0)
(-0.1137618 -0.03254173 0)
(-0.099698477 -0.044132768 0)
(-0.081100665 -0.050966435 0)
(-0.059776441 -0.051441367 0)
(-0.03829125 -0.045013742 0)
(-0.019520485 -0.03275561 0)
(-0.0060923497 -0.017491876 0)
(-0.00051102289 -0.0035220289 0)
(-0.0017889397 0.013475494 0)
(-0.010269748 0.034960971 0)
(-0.025805588 0.049908793 0)
(-0.0444669 0.058794977 0)
(-0.064427911 0.062458548 0)
(-0.084477801 0.061551062 0)
(-0.10351687 0.056416172 0)
(-0.12050386 0.047182297 0)
(-0.13440431 0.033970396 0)
(-0.14417429 0.017132371 0)
(-0.14880382 -0.0025359555 0)
(-0.14739363 -0.023636504 0)
(-0.13931142 -0.044142766 0)
(-0.12443582 -0.061442317 0)
(-0.10343183 -0.072642522 0)
(-0.078056044 -0.075174112 0)
(-0.051261011 -0.067706908 0)
(-0.026809496 -0.051124279 0)
(-0.0086123144 -0.028965702 0)
(-0.00078707417 -0.0070521592 0)
(-0.0020420399 0.019436574 0)
(-0.011605679 0.048529054 0)
(-0.028995864 0.067998522 0)
(-0.049757843 0.079226226 0)
(-0.071891787 0.0836576 0)
(-0.094162273 0.082297914 0)
(-0.11550026 0.075649833 0)
(-0.13491525 0.063877003 0)
(-0.15140352 0.047076034 0)
(-0.16388501 0.025567777 0)
(-0.17119263 0.00016300016 0)
(-0.1721548 -0.027610705 0)
(-0.16571589 -0.055396445 0)
(-0.15119218 -0.079945892 0)
(-0.12870077 -0.097351368 0)
(-0.099670142 -0.10369876 0)
(-0.067241927 -0.09628627 0)
(-0.036119173 -0.07522033 0)
(-0.011929749 -0.044539883 0)
(-0.0011708193 -0.012001499 0)
(-0.0022012916 0.026013427 0)
(-0.012484743 0.063419717 0)
(-0.031139973 0.087764642 0)
(-0.053354663 0.10149045 0)
(-0.077017853 0.10677731 0)
(-0.10091222 0.10507391 0)
(-0.12405025 0.09708831 0)
(-0.14555193 0.083021461 0)
(-0.1645098 0.062902235 0)
(-0.17987611 0.036930821 0)
(-0.1903994 0.0057954928 0)
(-0.19465584 -0.029033484 0)
(-0.19113645 -0.065018202 0)
(-0.17848991 -0.098391227 0)
(-0.15602505 -0.12417765 0)
(-0.12444502 -0.13676299 0)
(-0.086646707 -0.13132925 0)
(-0.048063804 -0.10623297 0)
(-0.016429383 -0.06539331 0)
(-0.0017537949 -0.018878436 0)
(-0.0022557107 0.03293331 0)
(-0.012853728 0.079088614 0)
(-0.032098961 0.10853517 0)
(-0.054981907 0.12486443 0)
(-0.079334953 0.13109304 0)
(-0.10399431 0.12919942 0)
(-0.12810044 0.12015144 0)
(-0.15094519 0.10420154 0)
(-0.17179741 0.081278378 0)
(-0.1897448 0.05137558 0)
(-0.20357632 0.014915379 0)
(-0.21172916 -0.026876171 0)
(-0.21232525 -0.071532438 0)
(-0.20333824 -0.11502619 0)
(-0.18306288 -0.15144724 0)
(-0.15101797 -0.17328524 0)
(-0.10916565 -0.17282203 0)
(-0.063026408 -0.14524397 0)
(-0.022524986 -0.092978144 0)
(-0.0026589644 -0.028422212 0)
(-0.0022086339 0.039904556 0)
(-0.012717085 0.094944326 0)
(-0.031841311 0.12954029 0)
(-0.054496844 0.14845866 0)
(-0.078500115 0.15563561 0)
(-0.10277104 0.15366654 0)
(-0.12662146 0.14384611 0)
(-0.14957662 0.12651342 0)
(-0.17117095 0.10149253 0)
(-0.19075578 0.068517123 0)
(-0.20732711 0.027627533 0)
(-0.21937773 -0.020394309 0)
(-0.2248878 -0.073462019 0)
(-0.22130659 -0.1276889 0)
(-0.20585481 -0.1766207 0)
(-0.17647628 -0.21099214 0)
(-0.13334658 -0.21961326 0)
(-0.080899184 -0.19275402 0)
(-0.030641904 -0.12885266 0)
(-0.0040700742 -0.041637062 0)
(-0.0020933492 0.046663322 0)
(-0.012189727 0.11041864 0)
(-0.030536214 0.14996591 0)
(-0.052017596 0.17124311 0)
(-0.07446501 0.17919262 0)
(-0.096919923 0.17712119 0)
(-0.11891407 0.16672986 0)
(-0.14026652 0.14850281 0)
(-0.16086208 0.12219249 0)
(-0.18044322 0.087272644 0)
(-0.19840292 0.043352577 0)
(-0.21353681 -0.0093897081 0)
(-0.2240146 -0.069676738 0)
(-0.22708288 -0.13413355 0)
(-0.21908959 -0.19645342 0)
(-0.1962665 -0.24625232 0)
(-0.15621929 -0.26886043 0)
(-0.10070625 -0.24798818 0)
(-0.041146021 -0.17433509 0)
(-0.0062706214 -0.059833958 0)
(-0.0019963285 0.053057499 0)
(-0.011565501 0.12508358 0)
(-0.028660953 0.16904528 0)
(-0.048056612 0.19210925 0)
(-0.067638432 0.20035677 0)
(-0.086643883 0.19791292 0)
(-0.10489589 0.18696732 0)
(-0.12256942 0.16821865 0)
(-0.13996398 0.14140913 0)
(-0.15729757 0.10579906 0)
(-0.17451556 0.060571789 0)
(-0.19108367 0.0052257121 0)
(-0.20560156 -0.05992249 0)
(-0.21550584 -0.13260799 0)
(-0.21690135 -0.20752799 0)
(-0.20457804 -0.27431826 0)
(-0.17317489 -0.31571793 0)
(-0.12017098 -0.30807993 0)
(-0.054147491 -0.22988384 0)
(-0.0096749057 -0.084653183 0)
(-0.0020996008 0.059184304 0)
(-0.011414856 0.13881595 0)
(-0.027115365 0.18617349 0)
(-0.04362483 0.20994723 0)
(-0.058981201 0.21760166 0)
(-0.072777788 0.21419786 0)
(-0.085249921 0.20247371 0)
(-0.097001115 0.18339421 0)
(-0.10878855 0.15675623 0)
(-0.12135024 0.1216863 0)
(-0.1352539 0.077015418 0)
(-0.1507027 0.021618188 0)
(-0.16712201 -0.045110802 0)
(-0.18273999 -0.12251614 0)
(-0.19405353 -0.20712626 0)
(-0.19523503 -0.29011484 0)
(-0.17829425 -0.35358521 0)
(-0.13540546 -0.36743821 0)
(-0.069089022 -0.29415303 0)
(-0.014795029 -0.1179845 0)
(-0.0027676947 0.065619985 0)
(-0.01274098 0.15199863 0)
(-0.027329947 0.20099737 0)
(-0.040244467 0.22368379 0)
(-0.049928494 0.22933099 0)
(-0.056643277 0.22403762 0)
(-0.061232393 0.21108068 0)
(-0.064815782 0.19168183 0)
(-0.068620454 0.16572047 0)
(-0.073874739 0.13227354 0)
(-0.081727933 0.089960249 0)
(-0.093119846 0.03720011 0)
(-0.10846904 -0.027479127 0)
(-0.12721362 -0.10497645 0)
(-0.14705408 -0.19422082 0)
(-0.16280337 -0.28948651 0)
(-0.16509069 -0.37509946 0)
(-0.14090146 -0.41772704 0)
(-0.084061562 -0.36281408 0)
(-0.022011634 -0.16157411 0)
(-0.004719583 0.073834784 0)
(-0.017222401 0.16572645 0)
(-0.031284264 0.21337842 0)
(-0.03968306 0.23217432 0)
(-0.041883265 0.23380259 0)
(-0.039350809 0.22539474 0)
(-0.033812226 0.2106126 0)
(-0.027000022 0.19081087 0)
(-0.02059166 0.16589803 0)
(-0.016215074 0.13493927 0)
(-0.015476025 0.096470887 0)
(-0.019925249 0.048689985 0)
(-0.030918347 -0.010412759 0)
(-0.049234032 -0.082920542 0)
(-0.074398899 -0.1701432 0)
(-0.10327649 -0.27050262 0)
(-0.12725447 -0.3736954 0)
(-0.12973492 -0.44868784 0)
(-0.094914796 -0.42750701 0)
(-0.030930662 -0.21612807 0)
(-0.0093000003 0.086952166 0)
(-0.027432069 0.18185346 0)
(-0.040981527 0.22303367 0)
(-0.042679234 0.23378975 0)
(-0.034405068 0.22880248 0)
(-0.01962217 0.21592317 0)
(-0.0012378827 0.1987802 0)
(0.018346136 0.17856486 0)
(0.037072133 0.15508364 0)
(0.05305634 0.12735939 0)
(0.064422207 0.093936245 0)
(0.069231528 0.0530145 0)
(0.065415588 0.0024625052 0)
(0.051047824 -0.06033945 0)
(0.024643273 -0.13837672 0)
(-0.013701746 -0.23417151 0)
(-0.058753684 -0.34517039 0)
(-0.093510868 -0.44954003 0)
(-0.094469896 -0.4755883 0)
(-0.039216114 -0.28048286 0)
(-0.018580313 0.11087147 0)
(-0.046039622 0.20177658 0)
(-0.055229923 0.22793174 0)
(-0.043984571 0.2250178 0)
(-0.019372057 0.21061312 0)
(0.012333939 0.19228021 0)
(0.04699374 0.17278511 0)
(0.081754879 0.15265409 0)
(0.11443862 0.1313529 0)
(0.14315393 0.10779554 0)
(0.16601745 0.080591563 0)
(0.18098169 0.048112068 0)
(0.18557649 0.0084491541 0)
(0.17716602 -0.040817651 0)
(0.15275969 -0.10317635 0)
(0.10948896 -0.18390634 0)
(0.047240632 -0.28855476 0)
(-0.02143922 -0.41051048 0)
(-0.072252924 -0.49101708 0)
(-0.041147482 -0.35054299 0)
(-0.033352239 0.15561542 0)
(-0.068601622 0.22040443 0)
(-0.055187263 0.21729229 0)
(-0.016078491 0.1953245 0)
(0.034511413 0.1709236 0)
(0.088508142 0.14849476 0)
(0.141769 0.12861272 0)
(0.1919695 0.11057767 0)
(0.23754118 0.093297646 0)
(0.27712065 0.075575087 0)
(0.30921861 0.056181441 0)
(0.3320437 0.033823247 0)
(0.34317599 0.0070271764 0)
(0.3398291 -0.025910574 0)
(0.31813267 -0.067741857 0)
(0.27327736 -0.12410803 0)
(0.20044733 -0.20584717 0)
(0.10213984 -0.32506916 0)
(-0.012387252 -0.45457172 0)
(-0.023756651 -0.40864073 0)
(-0.033081112 0.23907315 0)
(-0.042647149 0.21792009 0)
(0.042207222 0.16426629 0)
(0.12760462 0.12783581 0)
(0.20769806 0.10143554 0)
(0.28028173 0.081658207 0)
(0.34487328 0.066648175 0)
(0.40158323 0.054703079 0)
(0.45055087 0.044399497 0)
(0.49162064 0.034639937 0)
(0.52416207 0.024550586 0)
(0.54698624 0.013381689 0)
(0.55822251 0.00039972164 0)
(0.55570952 -0.015137355 0)
(0.53552629 -0.034969205 0)
(0.49244663 -0.062488209 0)
(0.41797274 -0.10694763 0)
(0.30410596 -0.19317544 0)
(0.12313783 -0.33691905 0)
(0.052374208 -0.39437913 0)
(0.24299926 0.15257479 0)
(0.30529618 0.11854285 0)
(0.45481215 0.076108134 0)
(0.56000885 0.050840197 0)
(0.63223324 0.035126093 0)
(0.6865492 0.024812316 0)
(0.72943835 0.017960107 0)
(0.76379643 0.013255932 0)
(0.79127941 0.0097622054 0)
(0.81275158 0.006854362 0)
(0.82841148 0.0041185177 0)
(0.83794405 0.0012768538 0)
(0.8405708 -0.0018442023 0)
(0.83497559 -0.0053262621 0)
(0.81886698 -0.0098289668 0)
(0.78942866 -0.01623275 0)
(0.73784287 -0.026935706 0)
(0.65316763 -0.05128655 0)
(0.45609767 -0.11374603 0)
(0.31788988 -0.17206002 0)
)
;

boundaryField
{
    movingWall
    {
        type            fixedValue;
        value           uniform (1 0 0);
    }
    fixedWalls
    {
        type            fixedValue;
        value           uniform (0 0 0);
    }
    frontAndBack
    {
        type            empty;
    }
}


// ************************************************************************* //
