/*--------------------------------*- C++ -*----------------------------------*\
| =========                 |                                                 |
| \\      /  F ield         | OpenFOAM: The Open Source CFD Toolbox           |
|  \\    /   O peration     | Version:  2112                                  |
|   \\  /    A nd           | Website:  www.openfoam.com                      |
|    \\/     M anipulation  |                                                 |
\*---------------------------------------------------------------------------*/
FoamFile
{
    version     2.0;
    format      ascii;
    arch        "LSB;label=32;scalar=64";
    class       volScalarField;
    location    "25";
    object      T;
}
// * * * * * * * * * * * * * * * * * * * * * * * * * * * * * * * * * * * * * //

dimensions      [0 0 0 1 0 0 0];

internalField   nonuniform List<scalar> 
10000
(
7.65241e-18
6.6101e-18
5.49276e-18
4.59771e-18
3.93007e-18
3.51631e-18
3.35994e-18
3.44119e-18
3.76278e-18
4.17708e-18
5.09348e-17
4.35679e-17
3.60277e-17
2.99799e-17
2.55201e-17
2.2787e-17
2.17795e-17
2.23819e-17
2.45641e-17
2.75129e-17
2.18075e-16
1.84364e-16
1.50789e-16
1.24155e-16
1.04964e-16
9.3411e-17
8.93155e-17
9.23569e-17
1.02254e-16
1.15723e-16
8.75373e-16
7.35293e-16
5.94897e-16
4.84501e-16
4.06556e-16
3.60405e-16
3.44746e-16
3.58543e-16
4.00161e-16
4.55235e-16
3.42169e-15
2.86606e-15
2.2994e-15
1.85543e-15
1.54623e-15
1.36529e-15
1.30564e-15
1.3629e-15
1.52864e-15
1.74165e-15
1.31446e-14
1.09968e-14
8.77056e-15
7.02626e-15
5.82093e-15
5.12003e-15
4.88989e-15
5.11119e-15
5.74385e-15
6.54029e-15
4.97831e-14
4.16316e-14
3.308e-14
2.63638e-14
2.1737e-14
1.90473e-14
1.81455e-14
1.89474e-14
2.12791e-14
2.41839e-14
1.86132e-13
1.55674e-13
1.23447e-13
9.80457e-14
8.05387e-14
7.03064e-14
6.67299e-14
6.9457e-14
7.77879e-14
8.81612e-14
6.87649e-13
5.75433e-13
4.55936e-13
3.61388e-13
2.96021e-13
2.5743e-13
2.43166e-13
2.51821e-13
2.80742e-13
3.17072e-13
2.51187e-12
2.10375e-12
1.66706e-12
1.32013e-12
1.07907e-12
9.34782e-13
8.77922e-13
9.03099e-13
1.00072e-12
1.12556e-12
9.07563e-12
7.60947e-12
6.035e-12
4.77864e-12
3.90005e-12
3.36527e-12
3.1398e-12
3.20375e-12
3.52378e-12
3.94442e-12
3.24403e-11
2.72361e-11
2.16316e-11
1.71379e-11
1.39722e-11
1.20077e-11
1.11211e-11
1.12417e-11
1.22567e-11
1.36457e-11
1.1472e-10
9.64645e-11
7.67582e-11
6.088e-11
4.96014e-11
4.24523e-11
3.90028e-11
3.90093e-11
4.21034e-11
4.65909e-11
4.01331e-10
3.38043e-10
2.69581e-10
2.14167e-10
1.74429e-10
1.48678e-10
1.35413e-10
1.3383e-10
1.42804e-10
1.56928e-10
1.38866e-09
1.17187e-09
9.36933e-10
7.45943e-10
6.07522e-10
5.15726e-10
4.65338e-10
4.53837e-10
4.7807e-10
5.212e-10
4.75088e-09
4.01739e-09
3.22168e-09
2.57193e-09
2.09532e-09
1.77156e-09
1.58255e-09
1.5209e-09
1.57903e-09
1.70596e-09
1.60633e-08
1.36138e-08
1.09578e-08
8.77694e-09
7.15549e-09
6.02541e-09
5.3254e-09
5.03595e-09
5.14295e-09
5.49933e-09
5.36387e-08
4.55836e-08
3.68536e-08
2.96378e-08
2.41933e-08
2.02882e-08
1.77285e-08
1.64722e-08
1.65094e-08
1.74443e-08
1.76747e-07
1.50717e-07
1.22484e-07
9.89939e-08
8.09719e-08
6.7629e-08
5.83903e-08
5.32131e-08
5.22086e-08
5.43943e-08
5.74216e-07
4.91597e-07
4.01967e-07
3.26893e-07
2.68171e-07
2.23179e-07
1.90295e-07
1.69764e-07
1.6255e-07
1.66586e-07
1.83675e-06
1.57959e-06
1.30127e-06
1.06639e-06
8.7841e-07
7.28983e-07
6.13674e-07
5.3485e-07
4.98048e-07
5.00524e-07
5.77243e-06
4.99196e-06
4.15028e-06
3.43339e-06
2.84422e-06
2.35619e-06
1.95844e-06
1.66467e-06
1.50131e-06
1.47373e-06
1.77802e-05
1.54853e-05
1.30198e-05
1.08965e-05
9.09704e-06
7.53428e-06
6.18767e-06
5.12274e-06
4.45317e-06
4.24875e-06
5.35133e-05
4.70159e-05
4.00768e-05
3.40256e-05
2.87033e-05
2.38239e-05
1.9365e-05
1.5607e-05
1.30112e-05
1.19863e-05
0.000156717
0.000139193
0.000120644
0.000104242
8.91475e-05
7.44083e-05
6.00497e-05
4.71646e-05
3.75284e-05
3.30889e-05
0.000444244
0.000399895
0.000353601
0.000312053
0.000271612
0.000229039
0.000184472
0.000141763
0.000107326
8.95223e-05
0.00121124
0.00110819
0.00100317
0.000907567
0.000807595
0.000692124
0.00056065
0.000425096
0.000306683
0.000238404
0.00315328
0.00294098
0.00273444
0.00254476
0.00232566
0.00203995
0.0016797
0.00127522
0.000888489
0.000634202
0.00777503
0.00741213
0.00709637
0.00681051
0.00641781
0.00580389
0.00492034
0.00381917
0.00265291
0.00173641
0.0180041
0.0175783
0.0173483
0.0171844
0.0167384
0.0157067
0.0139087
0.0113534
0.00849013
0.0056069
6.69348e-18
5.81066e-18
4.85561e-18
4.08268e-18
3.50091e-18
3.13873e-18
2.99779e-18
3.06252e-18
3.33109e-18
3.67249e-18
4.41132e-17
3.80475e-17
3.16828e-17
2.64913e-17
2.26273e-17
2.02473e-17
1.93442e-17
1.98277e-17
2.16202e-17
2.39649e-17
1.86652e-16
1.59628e-16
1.31743e-16
1.09044e-16
9.25216e-17
8.25055e-17
7.88851e-17
8.13331e-17
8.92948e-17
9.96879e-17
7.44067e-16
6.33458e-16
5.18096e-16
4.24587e-16
3.57706e-16
3.17765e-16
3.03932e-16
3.14845e-16
3.47707e-16
3.8973e-16
2.89925e-15
2.46327e-15
2.00113e-15
1.6269e-15
1.36199e-15
1.2054e-15
1.15215e-15
1.19645e-15
1.32552e-15
1.48698e-15
1.1123e-14
9.44288e-15
7.63749e-15
6.17219e-15
5.14001e-15
4.5323e-15
4.32432e-15
4.49128e-15
4.97863e-15
5.57974e-15
4.2116e-14
3.57456e-14
2.88329e-14
2.32048e-14
1.92442e-14
1.69068e-14
1.6083e-14
1.667e-14
1.84501e-14
2.06401e-14
1.57533e-13
1.33728e-13
1.07707e-13
8.64581e-14
7.14754e-14
6.25645e-14
5.92735e-14
6.11948e-14
6.75035e-14
7.53254e-14
5.82456e-13
4.94683e-13
3.98255e-13
3.19241e-13
2.63299e-13
2.29628e-13
2.16457e-13
2.22232e-13
2.4395e-13
2.71341e-13
2.12986e-12
1.81029e-12
1.45794e-12
1.16813e-12
9.61784e-13
8.35687e-13
7.83152e-13
7.9848e-13
8.71089e-13
9.65137e-13
7.7051e-12
6.55568e-12
5.28494e-12
4.23531e-12
3.48292e-12
3.01488e-12
2.80686e-12
2.83858e-12
3.07374e-12
3.39023e-12
2.75812e-11
2.34957e-11
1.89689e-11
1.52133e-11
1.25004e-11
1.07794e-11
9.9636e-12
9.98311e-12
1.07174e-11
1.17597e-11
9.76925e-11
8.33406e-11
6.74044e-11
5.41312e-11
4.4453e-11
3.8188e-11
3.5024e-11
3.47273e-11
3.69198e-11
4.02701e-11
3.42366e-10
2.92543e-10
2.3712e-10
1.90766e-10
1.5662e-10
1.34033e-10
1.21903e-10
1.19479e-10
1.25629e-10
1.36109e-10
1.18693e-09
1.01603e-09
8.2565e-10
6.6575e-10
5.46625e-10
4.6601e-10
4.20055e-10
4.06473e-10
4.22129e-10
4.53862e-10
4.06927e-09
3.49042e-09
2.84509e-09
2.30046e-09
1.88969e-09
1.60482e-09
1.43279e-09
1.36718e-09
1.40011e-09
1.49233e-09
1.37896e-08
1.18557e-08
9.69971e-09
7.86915e-09
6.47038e-09
5.47314e-09
4.83694e-09
4.54572e-09
4.58195e-09
4.83532e-09
4.61647e-08
3.97945e-08
3.27015e-08
2.6641e-08
2.19398e-08
1.84874e-08
1.61634e-08
1.49365e-08
1.47883e-08
1.54271e-08
1.52569e-07
1.31942e-07
1.08989e-07
8.9245e-08
7.36604e-08
6.18548e-08
5.34735e-08
4.85041e-08
4.70559e-08
4.84339e-08
4.97268e-07
4.31753e-07
3.58846e-07
2.95689e-07
2.44801e-07
2.04959e-07
1.7513e-07
1.55663e-07
1.47546e-07
1.49493e-07
1.59637e-06
1.39255e-06
1.16626e-06
9.68378e-07
8.05232e-07
6.72586e-07
5.67909e-07
4.93839e-07
4.55746e-07
4.53239e-07
5.0399e-06
4.42161e-06
3.73778e-06
3.13288e-06
2.62081e-06
2.18619e-06
1.82453e-06
1.5498e-06
1.38701e-06
1.34879e-06
1.56137e-05
1.37953e-05
1.17934e-05
1.00009e-05
8.43348e-06
7.0381e-06
5.81057e-06
4.81521e-06
4.16092e-06
3.93672e-06
4.73194e-05
4.21755e-05
3.65503e-05
3.14427e-05
2.67982e-05
2.24296e-05
1.8352e-05
1.48332e-05
1.23174e-05
1.12632e-05
0.000139749
0.000125914
0.000110932
9.71106e-05
8.3926e-05
7.06939e-05
5.75137e-05
4.5404e-05
3.60691e-05
3.15919e-05
0.000400241
0.000365453
0.000328348
0.000293517
0.000258236
0.00021994
0.000178865
0.000138508
0.000104967
8.69957e-05
0.00110498
0.00102536
0.000942559
0.000863485
0.00077682
0.000672968
0.00055137
0.000422451
0.000305918
0.000236069
0.00291993
0.00276158
0.00260513
0.00245386
0.00226762
0.00201225
0.00167858
0.00129157
0.000905867
0.000640146
0.00732592
0.00708024
0.00686969
0.0066688
0.00635509
0.00581868
0.00500438
0.00395086
0.00276325
0.00178174
0.0172995
0.0171161
0.0170946
0.017113
0.0168553
0.0160222
0.0144083
0.0120009
0.00909396
0.00580859
5.72411e-18
4.99923e-18
4.20448e-18
3.5562e-18
3.06355e-18
2.75328e-18
2.62837e-18
2.6758e-18
2.89491e-18
3.17356e-18
3.75421e-17
3.26177e-17
2.73646e-17
2.30309e-17
1.97695e-17
1.77349e-17
1.69357e-17
1.729e-17
1.87318e-17
2.06193e-17
1.57114e-16
1.35629e-16
1.12972e-16
9.42238e-17
8.03986e-17
7.19001e-17
6.8696e-17
7.04843e-17
7.67274e-17
8.48952e-17
6.19784e-16
5.33425e-16
4.41407e-16
3.65125e-16
3.09637e-16
2.75962e-16
2.63638e-16
2.71395e-16
2.96438e-16
3.28605e-16
2.39577e-15
2.06077e-15
1.6978e-15
1.3958e-15
1.17746e-15
1.04581e-15
9.97898e-16
1.02809e-15
1.12391e-15
1.24473e-15
9.1413e-15
7.86769e-15
6.46561e-15
5.2931e-15
4.44654e-15
3.93595e-15
3.74659e-15
3.85446e-15
4.20795e-15
4.64955e-15
3.4498e-14
2.97142e-14
2.43885e-14
1.99136e-14
1.66765e-14
1.47115e-14
1.39542e-14
1.43079e-14
1.55727e-14
1.71599e-14
1.28826e-13
1.1105e-13
9.11171e-14
7.42959e-14
6.20762e-14
5.45767e-14
5.15354e-14
5.25831e-14
5.69809e-14
6.25938e-14
4.76126e-13
4.10804e-13
3.37193e-13
2.74813e-13
2.29232e-13
2.00856e-13
1.88671e-13
1.91324e-13
2.06183e-13
2.25687e-13
1.74196e-12
1.50454e-12
1.23605e-12
1.00757e-12
8.39454e-13
7.33032e-13
6.84543e-13
6.89175e-13
7.37858e-13
8.04381e-13
6.30951e-12
5.45596e-12
4.48816e-12
3.66107e-12
3.04765e-12
2.65216e-12
2.46094e-12
2.45747e-12
2.61142e-12
2.83384e-12
2.26248e-11
1.95899e-11
1.61413e-11
1.31815e-11
1.0967e-11
9.51093e-12
8.7647e-12
8.6734e-12
9.13933e-12
9.86685e-12
8.03104e-11
6.96394e-11
5.74924e-11
4.70215e-11
3.91116e-11
3.38012e-11
3.09211e-11
3.02957e-11
3.16234e-11
3.39444e-11
2.82158e-10
2.45065e-10
2.02783e-10
1.6617e-10
1.38221e-10
1.19039e-10
1.08048e-10
1.04715e-10
1.08159e-10
1.15349e-10
9.80959e-10
8.5353e-10
7.08159e-10
5.8168e-10
4.84014e-10
4.15398e-10
3.73929e-10
3.58106e-10
3.65558e-10
3.87032e-10
3.37381e-09
2.94141e-09
2.44809e-09
2.01668e-09
1.67934e-09
1.43633e-09
1.28163e-09
1.21154e-09
1.22055e-09
1.28164e-09
1.14743e-08
1.00264e-08
8.37565e-09
6.924e-09
5.77301e-09
4.92123e-09
4.35064e-09
4.0546e-09
4.02464e-09
4.18653e-09
3.85694e-08
3.37917e-08
2.83523e-08
2.35389e-08
1.96623e-08
1.67093e-08
1.4629e-08
1.34227e-08
1.31021e-08
1.34825e-08
1.28053e-07
1.1255e-07
9.49274e-08
7.92243e-08
6.63482e-08
5.62281e-08
4.87327e-08
4.39592e-08
4.21008e-08
4.27817e-08
4.19598e-07
3.70204e-07
3.14207e-07
2.63914e-07
2.21808e-07
1.87554e-07
1.60875e-07
1.42454e-07
1.33501e-07
1.3367e-07
1.35554e-06
1.20143e-06
1.02751e-06
8.69841e-07
7.34606e-07
6.20257e-07
5.26524e-07
4.57001e-07
4.17744e-07
4.10978e-07
4.31126e-06
3.84234e-06
3.3166e-06
2.83486e-06
2.40964e-06
2.03407e-06
1.70949e-06
1.45244e-06
1.29024e-06
1.24257e-06
1.34719e-05
1.20887e-05
1.0552e-05
9.12653e-06
7.82395e-06
6.61474e-06
5.50958e-06
4.57825e-06
3.93575e-06
3.69204e-06
4.12478e-05
3.73279e-05
3.30266e-05
2.89796e-05
2.51216e-05
2.13257e-05
1.76398e-05
1.43366e-05
1.18732e-05
1.0776e-05
0.000123312
0.000112772
0.000101411
9.05462e-05
7.96253e-05
6.81071e-05
5.61389e-05
4.47035e-05
3.55157e-05
3.08961e-05
0.000358323
0.000331964
0.000304315
0.000277388
0.00024839
0.000215059
0.000177599
0.000139198
0.000105824
8.71225e-05
0.00100635
0.000947056
0.000887695
0.000828788
0.000758863
0.000668891
0.000557698
0.000434055
0.000316452
0.000242456
0.00271296
0.00260077
0.00249924
0.00239692
0.00225343
0.00203545
0.0017309
0.00135754
0.000962633
0.000675367
0.0069642
0.00681786
0.00672882
0.00664095
0.00643199
0.00599303
0.0052596
0.00424355
0.00301569
0.00193318
0.0168701
0.0168934
0.0171258
0.0173923
0.0173808
0.0167947
0.0154069
0.0131236
0.0101561
0.00649941
5.05442e-18
4.43341e-18
3.74923e-18
3.18937e-18
2.76053e-18
2.48708e-18
2.37311e-18
2.40795e-18
2.59352e-18
2.83281e-18
3.29694e-17
2.87763e-17
2.42897e-17
2.05696e-17
1.77459e-17
1.5961e-17
1.52334e-17
1.54958e-17
1.67029e-17
1.83145e-17
1.36642e-16
1.18544e-16
9.9446e-17
8.35346e-17
7.16855e-17
6.42959e-17
6.13818e-17
6.2707e-17
6.78427e-17
7.47343e-17
5.33742e-16
4.62062e-16
3.85681e-16
3.2176e-16
2.74678e-16
2.4561e-16
2.34368e-16
2.39946e-16
2.60071e-16
2.86689e-16
2.04648e-15
1.77255e-15
1.47564e-15
1.22554e-15
1.04182e-15
9.28704e-16
8.84689e-16
9.05241e-16
9.80265e-16
1.0782e-15
7.76089e-15
6.73347e-15
5.60097e-15
4.63952e-15
3.93183e-15
3.4942e-15
3.31887e-15
3.38659e-15
3.65608e-15
4.00715e-15
2.91668e-14
2.53508e-14
2.10922e-14
1.74507e-14
1.47571e-14
1.30743e-14
1.23689e-14
1.2565e-14
1.35045e-14
1.47451e-14
1.08655e-13
9.45948e-14
7.8772e-14
6.51565e-14
5.50176e-14
4.85939e-14
4.57539e-14
4.62146e-14
4.94002e-14
5.37275e-14
4.01191e-13
3.49817e-13
2.91667e-13
2.41345e-13
2.0358e-13
1.79255e-13
1.67882e-13
1.68451e-13
1.78945e-13
1.93819e-13
1.46802e-12
1.28195e-12
1.07047e-12
8.86487e-13
7.47238e-13
6.55911e-13
6.10758e-13
6.08321e-13
6.41775e-13
6.92062e-13
5.32252e-12
4.6548e-12
3.89356e-12
3.22797e-12
2.71966e-12
2.37982e-12
2.20241e-12
2.17602e-12
2.27837e-12
2.44527e-12
1.91169e-11
1.67439e-11
1.40323e-11
1.165e-11
9.81304e-12
8.56006e-12
7.87059e-12
7.7087e-12
8.00464e-12
8.54688e-12
6.8004e-11
5.96566e-11
5.01019e-11
4.16673e-11
3.50973e-11
3.05207e-11
2.78706e-11
2.70408e-11
2.78247e-11
2.95425e-11
2.39536e-10
2.10485e-10
1.77198e-10
1.47673e-10
1.24422e-10
1.07864e-10
9.77897e-11
9.39135e-11
9.56727e-11
1.00948e-10
8.35243e-10
7.35271e-10
6.20694e-10
5.18568e-10
4.37183e-10
3.77856e-10
3.39971e-10
3.22897e-10
3.25316e-10
3.40879e-10
2.88223e-09
2.54234e-09
2.15302e-09
1.80419e-09
1.52258e-09
1.3121e-09
1.17115e-09
1.09902e-09
1.09365e-09
1.13705e-09
9.83928e-09
8.69873e-09
7.39421e-09
6.21879e-09
5.25606e-09
4.51699e-09
3.99814e-09
3.70298e-09
3.6342e-09
3.74505e-09
3.32144e-08
2.94421e-08
2.51373e-08
2.12348e-08
1.7986e-08
1.54184e-08
1.35289e-08
1.2352e-08
1.19346e-08
1.2174e-08
1.10812e-07
9.85331e-08
8.45686e-08
7.18239e-08
6.10146e-08
5.21958e-08
4.5389e-08
4.07989e-08
3.8727e-08
3.90387e-08
3.65126e-07
3.25866e-07
2.81451e-07
2.40606e-07
2.05205e-07
1.75286e-07
1.5104e-07
1.33485e-07
1.24163e-07
1.23427e-07
1.1871e-06
1.06415e-06
9.26122e-07
7.98084e-07
6.84243e-07
5.84125e-07
4.98802e-07
4.32842e-07
3.93341e-07
3.84526e-07
3.80337e-06
3.42776e-06
3.0107e-06
2.61994e-06
2.26173e-06
1.93209e-06
1.63587e-06
1.39223e-06
1.23163e-06
1.1797e-06
1.19866e-05
1.08743e-05
9.65792e-06
8.50489e-06
7.40791e-06
6.34404e-06
5.33193e-06
4.44726e-06
3.81432e-06
3.5617e-06
3.70674e-05
3.39047e-05
3.05174e-05
2.72631e-05
2.40205e-05
2.06743e-05
1.72846e-05
1.4132e-05
1.16993e-05
1.05764e-05
0.00011211
0.000103593
9.47405e-05
8.61061e-05
7.69745e-05
6.68117e-05
5.57574e-05
4.47711e-05
3.56272e-05
3.08831e-05
0.000330205
0.000308963
0.0002879
0.000267006
0.000243035
0.000213669
0.000178939
0.000141768
0.000108185
8.87544e-05
0.000941933
0.000894825
0.000851912
0.000808591
0.000752225
0.000673465
0.000570191
0.000449669
0.000329898
0.000251853
0.0025847
0.00249979
0.00243713
0.00237304
0.00226445
0.00207696
0.00179494
0.0014295
0.00102285
0.000715372
0.0067676
0.0066792
0.00667674
0.0066773
0.00655343
0.00619381
0.00552357
0.00453035
0.00325987
0.00208833
0.0167505
0.016893
0.0173059
0.0177635
0.0179469
0.0175573
0.016345
0.0141537
0.0111242
0.00715397
4.69406e-18
4.12772e-18
3.50184e-18
2.98887e-18
2.59462e-18
2.34129e-18
2.23341e-18
2.2622e-18
2.43041e-18
2.64902e-18
3.05311e-17
2.67187e-17
2.26309e-17
1.92356e-17
1.66479e-17
1.49986e-17
1.43102e-17
1.45266e-17
1.56148e-17
1.70835e-17
1.25956e-16
1.09528e-16
9.22606e-17
7.78382e-17
6.70405e-17
6.02422e-17
5.74827e-17
5.8571e-17
6.31501e-17
6.94284e-17
4.89439e-16
4.24863e-16
3.56326e-16
2.98794e-16
2.56141e-16
2.29514e-16
2.18853e-16
2.23351e-16
2.41092e-16
2.65108e-16
1.86809e-15
1.62326e-15
1.3589e-15
1.13537e-15
9.6981e-16
8.66518e-16
8.24654e-16
8.40542e-16
9.05748e-16
9.93174e-16
7.05913e-15
6.14753e-15
5.14664e-15
4.29273e-15
3.65778e-15
3.2589e-15
3.09156e-15
3.14016e-15
3.37052e-15
3.68073e-15
2.64632e-14
2.30986e-14
1.93589e-14
1.6141e-14
1.3732e-14
1.21996e-14
1.15247e-14
1.16465e-14
1.24353e-14
1.35209e-14
9.84367e-14
8.61017e-14
7.22746e-14
6.02876e-14
5.12386e-14
4.53895e-14
4.26697e-14
4.28565e-14
4.54828e-14
4.92372e-14
3.63237e-13
3.18328e-13
2.67687e-13
2.23491e-13
1.89822e-13
1.67666e-13
1.56779e-13
1.56386e-13
1.64873e-13
1.77685e-13
1.32924e-12
1.16696e-12
9.832e-13
8.21827e-13
6.9772e-13
6.14491e-13
5.71335e-13
5.65677e-13
5.9215e-13
6.35217e-13
4.82222e-12
4.24079e-12
3.5801e-12
2.99659e-12
2.54343e-12
2.2335e-12
2.06428e-12
2.02765e-12
2.10645e-12
2.24871e-12
1.73378e-11
1.52731e-11
1.29204e-11
1.08316e-11
9.19305e-12
8.04935e-12
7.39317e-12
7.20053e-12
7.41943e-12
7.87979e-12
6.17619e-11
5.44979e-11
4.6206e-11
3.88073e-11
3.29415e-11
2.87602e-11
2.62437e-11
2.53285e-11
2.58682e-11
2.73209e-11
2.17924e-10
1.9262e-10
1.63714e-10
1.37798e-10
1.17018e-10
1.01875e-10
9.23283e-11
8.82418e-11
8.9254e-11
9.36948e-11
7.61413e-10
6.74202e-10
5.74619e-10
4.84901e-10
4.12089e-10
3.57776e-10
3.21935e-10
3.04457e-10
3.04684e-10
3.17699e-10
2.6334e-09
2.33635e-09
1.99768e-09
1.69097e-09
1.43872e-09
1.24583e-09
1.11266e-09
1.04029e-09
1.02882e-09
1.06471e-09
9.01219e-09
8.01381e-09
6.87803e-09
5.84356e-09
4.98021e-09
4.30206e-09
3.81229e-09
3.52028e-09
3.43566e-09
3.52531e-09
3.05065e-08
2.71998e-08
2.34485e-08
2.0011e-08
1.70942e-08
1.47352e-08
1.29522e-08
1.17991e-08
1.13448e-08
1.15273e-08
1.02096e-07
9.13151e-08
7.91358e-08
6.79032e-08
5.81876e-08
5.00735e-08
4.36493e-08
3.91811e-08
3.70383e-08
3.72075e-08
3.37614e-07
3.03064e-07
2.64301e-07
2.28294e-07
1.96447e-07
1.68877e-07
1.45977e-07
1.28951e-07
1.19553e-07
1.1849e-07
1.10217e-06
9.93683e-07
8.73156e-07
7.60315e-07
6.57841e-07
5.65442e-07
4.84749e-07
4.20871e-07
3.81555e-07
3.72071e-07
3.54789e-06
3.21545e-06
2.85132e-06
2.50732e-06
2.18483e-06
1.88015e-06
1.59947e-06
1.3634e-06
1.20441e-06
1.15129e-06
1.12417e-05
1.02533e-05
9.1935e-06
8.18101e-06
7.19403e-06
6.20932e-06
5.24803e-06
4.38906e-06
3.76267e-06
3.50782e-06
3.49774e-05
3.21593e-05
2.92196e-05
2.63758e-05
2.34639e-05
2.03633e-05
1.71352e-05
1.40636e-05
1.16484e-05
1.05168e-05
0.000106535
9.89391e-05
9.13123e-05
8.38378e-05
7.56724e-05
6.62527e-05
5.56961e-05
4.49457e-05
3.58182e-05
3.10132e-05
0.000316332
0.000297387
0.00027955
0.000261808
0.000240563
0.00021338
0.000180139
0.000143597
0.000109848
9.00151e-05
0.000910633
0.000868917
0.000834074
0.000798912
0.000749922
0.000677355
0.000578411
0.00045945
0.000338265
0.000257928
0.00252442
0.00245138
0.00240778
0.00236366
0.00227399
0.00210333
0.00183365
0.00147211
0.00105838
0.000739471
0.00668408
0.00662056
0.00666027
0.00670646
0.00662809
0.00631186
0.00567622
0.00469486
0.0033988
0.00217733
0.0167425
0.0169364
0.0174349
0.0179882
0.0182726
0.0179876
0.0168704
0.0147251
0.0116548
0.00750333
4.67567e-18
4.11223e-18
3.48956e-18
2.97884e-18
2.58572e-18
2.33298e-18
2.22521e-18
2.2532e-18
2.41993e-18
2.63718e-18
3.04082e-17
2.66178e-17
2.25505e-17
1.9168e-17
1.65879e-17
1.49427e-17
1.42551e-17
1.44679e-17
1.55468e-17
1.70045e-17
1.25427e-16
1.09146e-16
9.19388e-17
7.75588e-17
6.67911e-17
6.0011e-17
5.72568e-17
5.83362e-17
6.28899e-17
6.90924e-17
4.87482e-16
4.23352e-16
3.55063e-16
2.97719e-16
2.55191e-16
2.28636e-16
2.17991e-16
2.22441e-16
2.40075e-16
2.63868e-16
1.86088e-15
1.61737e-15
1.354e-15
1.13122e-15
9.66175e-16
8.63174e-16
8.2137e-16
8.37066e-16
9.01838e-16
9.88621e-16
7.03232e-15
6.12499e-15
5.12776e-15
4.27677e-15
3.64386e-15
3.24615e-15
3.07907e-15
3.127e-15
3.35579e-15
3.66393e-15
2.63635e-14
2.30134e-14
1.92865e-14
1.60797e-14
1.36788e-14
1.21511e-14
1.14774e-14
1.1597e-14
1.23804e-14
1.34592e-14
9.80693e-14
8.57831e-14
7.19991e-14
6.00538e-14
5.10362e-14
4.52062e-14
4.24922e-14
4.26719e-14
4.52802e-14
4.90123e-14
3.619e-13
3.17142e-13
2.66648e-13
2.22609e-13
1.89061e-13
1.66981e-13
1.5612e-13
1.55707e-13
1.64135e-13
1.76874e-13
1.3244e-12
1.16248e-12
9.79327e-13
8.18545e-13
6.94899e-13
6.11962e-13
5.68922e-13
5.63212e-13
5.89497e-13
6.32328e-13
4.80445e-12
4.22418e-12
3.56592e-12
2.98456e-12
2.53311e-12
2.2243e-12
2.05557e-12
2.01883e-12
2.09705e-12
2.23856e-12
1.72726e-11
1.52138e-11
1.28693e-11
1.07882e-11
9.15579e-12
8.01629e-12
7.36216e-12
7.16948e-12
7.38665e-12
7.84457e-12
6.15294e-11
5.42884e-11
4.60236e-11
3.8652e-11
3.28086e-11
2.86429e-11
2.61347e-11
2.52207e-11
2.57555e-11
2.72006e-11
2.17115e-10
1.91892e-10
1.6307e-10
1.37248e-10
1.16549e-10
1.01464e-10
9.19499e-11
8.78722e-11
8.88722e-11
9.329e-11
7.58665e-10
6.71703e-10
5.72365e-10
4.82977e-10
4.10452e-10
3.5635e-10
3.20638e-10
3.03207e-10
3.03409e-10
3.16357e-10
2.6242e-09
2.3276e-09
1.98984e-09
1.6843e-09
1.43307e-09
1.24094e-09
1.10827e-09
1.03611e-09
1.02462e-09
1.06033e-09
8.98093e-09
7.98291e-09
6.85116e-09
5.82073e-09
4.96089e-09
4.28548e-09
3.79759e-09
3.50653e-09
3.42204e-09
3.51124e-09
3.03982e-08
2.70947e-08
2.33579e-08
1.99339e-08
1.7029e-08
1.46796e-08
1.29035e-08
1.17544e-08
1.13013e-08
1.14829e-08
1.01726e-07
9.09682e-08
7.88337e-08
6.76454e-08
5.79699e-08
4.98889e-08
4.34898e-08
3.90376e-08
3.69013e-08
3.70692e-08
3.36379e-07
3.01923e-07
2.63302e-07
2.2744e-07
1.95727e-07
1.6827e-07
1.4546e-07
1.28495e-07
1.19127e-07
1.18067e-07
1.09811e-06
9.89929e-07
8.69894e-07
7.57517e-07
6.55476e-07
5.63462e-07
4.83086e-07
4.19439e-07
3.80254e-07
3.708e-07
3.5346e-06
3.20328e-06
2.84081e-06
2.49825e-06
2.17714e-06
1.87374e-06
1.59416e-06
1.35895e-06
1.20048e-06
1.14752e-06
1.11988e-05
1.02154e-05
9.16022e-06
8.15198e-06
7.16927e-06
6.1887e-06
5.23121e-06
4.3753e-06
3.75093e-06
3.49685e-06
3.48444e-05
3.20425e-05
2.91155e-05
2.6284e-05
2.33849e-05
2.02975e-05
1.70822e-05
1.40215e-05
1.16139e-05
1.04855e-05
0.000106136
9.85809e-05
9.09934e-05
8.35522e-05
7.54233e-05
6.60444e-05
5.55301e-05
4.48175e-05
3.57176e-05
3.09257e-05
0.000315164
0.000296341
0.000278597
0.000260934
0.000239787
0.000212726
0.00017962
0.000143207
0.000109558
8.97775e-05
0.000907385
0.000865968
0.000831301
0.000796303
0.000747548
0.000675317
0.000576791
0.000458258
0.000337428
0.000257293
0.00251586
0.00244343
0.00240002
0.00235611
0.0022669
0.00209707
0.00182856
0.00146838
0.00105603
0.000737991
0.00666294
0.00660022
0.00663956
0.00668562
0.00660778
0.00629329
0.00566082
0.00468414
0.00339229
0.00217245
0.0166937
0.0168872
0.0173834
0.0179344
0.0182179
0.0179352
0.0168244
0.0146892
0.0116391
0.00751146
4.99811e-18
4.38888e-18
3.71272e-18
3.15768e-18
2.73217e-18
2.46064e-18
2.34727e-18
2.38111e-18
2.56325e-18
2.79714e-18
3.25999e-17
2.84876e-17
2.40528e-17
2.03641e-17
1.75624e-17
1.57901e-17
1.50663e-17
1.53219e-17
1.65069e-17
1.80809e-17
1.35119e-16
1.17352e-16
9.84682e-17
8.26939e-17
7.09383e-17
6.36028e-17
6.07026e-17
6.19955e-17
6.70372e-17
7.37726e-17
5.27904e-16
4.57364e-16
3.8183e-16
3.18488e-16
2.7179e-16
2.42943e-16
2.31749e-16
2.37182e-16
2.56932e-16
2.83003e-16
2.02444e-15
1.7544e-15
1.46067e-15
1.21288e-15
1.03072e-15
9.18501e-16
8.74678e-16
8.94659e-16
9.68288e-16
1.06433e-15
7.67824e-15
6.66397e-15
5.54303e-15
4.59062e-15
3.88924e-15
3.45523e-15
3.28072e-15
3.34635e-15
3.61087e-15
3.95553e-15
2.88582e-14
2.5086e-14
2.08691e-14
1.72625e-14
1.4594e-14
1.29259e-14
1.22243e-14
1.24132e-14
1.33355e-14
1.45548e-14
1.07508e-13
9.35937e-14
7.79211e-14
6.44387e-14
5.4398e-14
4.8033e-14
4.52104e-14
4.56478e-14
4.87758e-14
5.30331e-14
3.96952e-13
3.46068e-13
2.88462e-13
2.3864e-13
2.01252e-13
1.77159e-13
1.65864e-13
1.66364e-13
1.76669e-13
1.91312e-13
1.45246e-12
1.26806e-12
1.05857e-12
8.76431e-13
7.38606e-13
6.48177e-13
6.03371e-13
6.00746e-13
6.33591e-13
6.83129e-13
5.26579e-12
4.60406e-12
3.84999e-12
3.19113e-12
2.68808e-12
2.35167e-12
2.17574e-12
2.14894e-12
2.24938e-12
2.41387e-12
1.89124e-11
1.65611e-11
1.3875e-11
1.15167e-11
9.69906e-12
8.459e-12
7.77564e-12
7.61333e-12
7.90354e-12
8.43811e-12
6.7276e-11
5.90054e-11
4.95399e-11
4.11912e-11
3.46908e-11
3.01622e-11
2.7537e-11
2.67097e-11
2.74773e-11
2.91712e-11
2.36979e-10
2.08188e-10
1.7521e-10
1.45989e-10
1.22988e-10
1.06607e-10
9.66316e-11
9.27787e-11
9.44958e-11
9.96991e-11
8.2638e-10
7.27254e-10
6.13734e-10
5.12673e-10
4.3218e-10
3.73499e-10
3.36001e-10
3.1906e-10
3.21387e-10
3.3674e-10
2.85183e-09
2.51463e-09
2.12894e-09
1.7838e-09
1.50531e-09
1.29718e-09
1.15771e-09
1.08622e-09
1.08073e-09
1.12356e-09
9.73583e-09
8.60427e-09
7.31213e-09
6.14914e-09
5.19717e-09
4.46643e-09
3.9532e-09
3.66084e-09
3.59232e-09
3.70175e-09
3.2866e-08
2.91251e-08
2.48611e-08
2.09998e-08
1.77875e-08
1.52491e-08
1.33803e-08
1.22152e-08
1.1801e-08
1.20374e-08
1.09656e-07
9.74842e-08
8.3649e-08
7.10399e-08
6.03528e-08
5.16345e-08
4.4903e-08
4.03604e-08
3.83073e-08
3.86147e-08
3.61356e-07
3.22427e-07
2.78418e-07
2.38017e-07
2.03021e-07
1.73445e-07
1.49469e-07
1.32097e-07
1.22864e-07
1.22133e-07
1.17495e-06
1.0529e-06
9.16237e-07
7.89618e-07
6.77096e-07
5.78136e-07
4.93765e-07
4.28497e-07
3.89379e-07
3.80644e-07
3.7643e-06
3.39156e-06
2.97896e-06
2.59257e-06
2.23855e-06
1.91276e-06
1.61985e-06
1.37874e-06
1.2197e-06
1.16823e-06
1.18626e-05
1.07608e-05
9.55755e-06
8.41758e-06
7.33355e-06
6.28216e-06
5.28136e-06
4.4058e-06
3.77885e-06
3.52843e-06
3.6685e-05
3.35554e-05
3.02053e-05
2.69885e-05
2.37846e-05
2.0478e-05
1.71262e-05
1.40058e-05
1.15953e-05
1.04818e-05
0.000110967
0.000102543
9.37902e-05
8.52568e-05
7.62356e-05
6.61942e-05
5.5264e-05
4.43889e-05
3.53255e-05
3.06188e-05
0.000326908
0.000305899
0.000285075
0.000264429
0.000240752
0.000211743
0.000177408
0.000140612
0.000107317
8.80302e-05
0.000932819
0.000886201
0.000843764
0.000800956
0.000745297
0.000667518
0.000565444
0.00044616
0.000327394
0.000249894
0.00256073
0.00247656
0.00241451
0.00235116
0.00224395
0.00205888
0.00178023
0.00141872
0.00101552
0.000710087
0.00670821
0.00662001
0.00661707
0.00661747
0.00649525
0.00614054
0.00547873
0.004497
0.00323751
0.0020734
0.0166132
0.0167522
0.0171588
0.0176104
0.0177918
0.0174086
0.0162134
0.014049
0.01105
0.0071053
5.62899e-18
4.9247e-18
4.14328e-18
3.50285e-18
3.0158e-18
2.70871e-18
2.5849e-18
2.63081e-18
2.84459e-18
3.11466e-18
3.69171e-17
3.21355e-17
2.69685e-17
2.26855e-17
1.94604e-17
1.74463e-17
1.66546e-17
1.69991e-17
1.84058e-17
2.02322e-17
1.54523e-16
1.33627e-16
1.11325e-16
9.28027e-17
7.91337e-17
7.07266e-17
6.75482e-17
6.92877e-17
7.5378e-17
8.32827e-17
6.09779e-16
5.25415e-16
4.34824e-16
3.59525e-16
3.04693e-16
2.714e-16
2.59167e-16
2.66694e-16
2.91107e-16
3.22323e-16
2.35779e-15
2.02942e-15
1.67193e-15
1.37396e-15
1.15834e-15
1.02826e-15
9.80696e-16
1.00992e-15
1.10333e-15
1.2208e-15
8.99839e-15
7.74675e-15
6.36486e-15
5.2084e-15
4.37297e-15
3.86874e-15
3.68081e-15
3.78492e-15
4.12956e-15
4.5598e-15
3.39631e-14
2.92519e-14
2.4e-14
1.95876e-14
1.6395e-14
1.44557e-14
1.37047e-14
1.40448e-14
1.52783e-14
1.68276e-14
1.2683e-13
1.093e-13
8.9637e-14
7.30542e-14
6.10084e-14
5.36116e-14
5.05987e-14
5.16011e-14
5.58919e-14
6.13793e-14
4.68737e-13
4.04265e-13
3.31632e-13
2.70143e-13
2.25227e-13
1.97254e-13
1.85199e-13
1.8771e-13
2.02213e-13
2.21302e-13
1.71486e-12
1.4804e-12
1.21543e-12
9.90241e-13
8.24618e-13
7.19763e-13
6.7184e-13
6.7607e-13
7.23598e-13
7.88761e-13
6.21096e-12
5.36785e-12
4.41275e-12
3.59762e-12
2.99342e-12
2.6039e-12
2.41511e-12
2.41064e-12
2.56097e-12
2.77898e-12
2.227e-11
1.92727e-11
1.58693e-11
1.29523e-11
1.07713e-11
9.33765e-12
8.60157e-12
8.50858e-12
8.96348e-12
9.67693e-12
7.90467e-11
6.85098e-11
5.65215e-11
4.62025e-11
3.8414e-11
3.31865e-11
3.03478e-11
2.97236e-11
3.10194e-11
3.32966e-11
2.77714e-10
2.41079e-10
1.99349e-10
1.63273e-10
1.35761e-10
1.16883e-10
1.06057e-10
1.02755e-10
1.06113e-10
1.13171e-10
9.6552e-10
8.39596e-10
6.96134e-10
5.7154e-10
4.75434e-10
4.07927e-10
3.67105e-10
3.51478e-10
3.58731e-10
3.79819e-10
3.32065e-09
2.89321e-09
2.4065e-09
1.98162e-09
1.64975e-09
1.41075e-09
1.25854e-09
1.18944e-09
1.19812e-09
1.25815e-09
1.1293e-08
9.86222e-09
8.23406e-09
6.80444e-09
5.67216e-09
4.83469e-09
4.27352e-09
3.98197e-09
3.95212e-09
4.1113e-09
3.79595e-08
3.32421e-08
2.78771e-08
2.31366e-08
1.9323e-08
1.64198e-08
1.43744e-08
1.31874e-08
1.28714e-08
1.32458e-08
1.26039e-07
1.10733e-07
9.33497e-08
7.7886e-08
6.5221e-08
5.52714e-08
4.79023e-08
4.32075e-08
4.13784e-08
4.20501e-08
4.13057e-07
3.64264e-07
3.09031e-07
2.59513e-07
2.18106e-07
1.8443e-07
1.58201e-07
1.40085e-07
1.31276e-07
1.31449e-07
1.33456e-06
1.18225e-06
1.01074e-06
8.55528e-07
7.22551e-07
6.10151e-07
5.18004e-07
4.49621e-07
4.10992e-07
4.04349e-07
4.24466e-06
3.78142e-06
3.26307e-06
2.78888e-06
2.37076e-06
2.00164e-06
1.68255e-06
1.42967e-06
1.27001e-06
1.22311e-06
1.32642e-05
1.18989e-05
1.03841e-05
8.98094e-06
7.7002e-06
6.51174e-06
5.42518e-06
4.50874e-06
3.87599e-06
3.63589e-06
4.06166e-05
3.67492e-05
3.25099e-05
2.85263e-05
2.4733e-05
2.10022e-05
1.73779e-05
1.41266e-05
1.16991e-05
1.06172e-05
0.00012145
0.000111053
9.98556e-05
8.91605e-05
7.84223e-05
6.71011e-05
5.53318e-05
4.40734e-05
3.50141e-05
3.04554e-05
0.000353026
0.000327012
0.000299751
0.000273238
0.000244724
0.000211964
0.000175127
0.000137312
0.000104388
8.5921e-05
0.000991891
0.000933307
0.00087472
0.000816681
0.000747912
0.000659492
0.000550159
0.000428405
0.000312336
0.00023923
0.0026754
0.00256428
0.00246381
0.00236281
0.00222161
0.00200742
0.00170804
0.00134052
0.000950684
0.000666764
0.0068723
0.00672628
0.00663694
0.00654929
0.00634331
0.00591211
0.0051916
0.00419249
0.00297997
0.00190927
0.0166609
0.0166791
0.0169031
0.0171616
0.0171484
0.0165732
0.0152107
0.0129691
0.0100436
0.00642415
6.55469e-18
5.70192e-18
4.76702e-18
4.00558e-18
3.43182e-18
3.07436e-18
2.93526e-18
2.99803e-18
3.25945e-18
3.58945e-18
4.3203e-17
3.73471e-17
3.11094e-17
2.59922e-17
2.21806e-17
1.983e-17
1.89406e-17
1.94109e-17
2.11566e-17
2.3419e-17
1.82862e-16
1.5674e-16
1.29337e-16
1.06971e-16
9.06814e-17
8.08001e-17
7.72235e-17
7.96048e-17
8.7359e-17
9.73931e-17
7.2955e-16
6.21746e-16
5.08372e-16
4.16354e-16
3.50476e-16
3.11126e-16
2.97423e-16
3.08003e-16
3.39975e-16
3.80694e-16
2.84434e-15
2.41679e-15
1.96279e-15
1.59478e-15
1.33403e-15
1.17984e-15
1.1271e-15
1.16995e-15
1.29548e-15
1.45231e-15
1.09162e-14
9.26431e-15
7.48904e-15
6.04824e-15
5.03292e-15
4.43479e-15
4.22889e-15
4.39003e-15
4.8641e-15
5.44909e-15
4.13426e-14
3.50719e-14
2.82653e-14
2.27312e-14
1.88372e-14
1.65379e-14
1.57229e-14
1.62885e-14
1.80208e-14
2.01556e-14
1.54668e-13
1.31189e-13
1.05561e-13
8.46669e-14