/*--------------------------------*- C++ -*----------------------------------*\
| =========                 |                                                 |
| \\      /  F ield         | OpenFOAM: The Open Source CFD Toolbox           |
|  \\    /   O peration     | Version:  2112                                  |
|   \\  /    A nd           | Website:  www.openfoam.com                      |
|    \\/     M anipulation  |                                                 |
\*---------------------------------------------------------------------------*/
FoamFile
{
    version     2.0;
    format      ascii;
    arch        "LSB;label=32;scalar=64";
    class       volScalarField;
    location    "5";
    object      T;
}
// * * * * * * * * * * * * * * * * * * * * * * * * * * * * * * * * * * * * * //

dimensions      [0 0 0 1 0 0 0];

internalField   nonuniform List<scalar> 
1000
(
1.06083e-182
1.06083e-182
1.06083e-182
1.06083e-182
1.06083e-182
1.06083e-182
1.06083e-182
1.06083e-182
1.06083e-182
1.06083e-182
1.06083e-182
1.06084e-182
1.06087e-182
1.06092e-182
1.06103e-182
1.06128e-182
1.06187e-182
1.0632e-182
1.06622e-182
1.0731e-182
1.08876e-182
1.12436e-182
1.20528e-182
1.38912e-182
1.80664e-182
2.75448e-182
4.90532e-182
9.78405e-182
2.08459e-181
4.59165e-181
1.02714e-180
2.31334e-180
5.2248e-180
1.18125e-179
2.67119e-179
6.03964e-179
1.36518e-178
3.08468e-178
6.96722e-178
1.57301e-177
3.54995e-177
8.00812e-177
1.80574e-176
4.07003e-176
9.1697e-176
2.06504e-175
4.64853e-175
1.04597e-174
2.35253e-174
5.28889e-174
1.18853e-173
2.66971e-173
5.99424e-173
1.34529e-172
3.01792e-172
6.76724e-172
1.51679e-171
3.39823e-171
7.61005e-171
1.70346e-170
3.81143e-170
8.52414e-170
1.90556e-169
4.25797e-169
9.5102e-169
2.12317e-168
4.73789e-168
1.0568e-167
2.35617e-167
5.2508e-167
1.16963e-166
2.60422e-166
5.79577e-166
1.28928e-165
2.86674e-165
6.37134e-165
1.41539e-164
3.14285e-164
6.97545e-164
1.54747e-163
3.43142e-163
7.60544e-163
1.68491e-162
3.73101e-162
8.25801e-162
1.82694e-161
4.03989e-161
8.9292e-161
1.97267e-160
4.35603e-160
9.61446e-160
2.12107e-159
4.67713e-159
1.03086e-158
2.27098e-158
5.00059e-158
1.10058e-157
2.42113e-157
5.3236e-157
1.17e-156
2.57014e-156
5.64312e-156
1.23843e-155
2.71654e-155
5.95592e-155
1.30518e-154
2.85879e-154
6.25868e-154
1.36953e-153
2.99533e-153
6.54798e-153
1.43072e-152
3.12457e-152
6.8204e-152
1.48804e-151
3.24492e-151
7.07257e-151
1.54076e-150
3.35486e-150
7.30123e-150
1.58818e-149
3.45292e-149
7.50332e-149
1.62968e-148
3.53776e-148
7.67602e-148
1.66465e-147
3.60817e-147
7.81681e-147
1.69258e-146
3.66308e-146
7.92356e-146
1.71305e-145
3.70165e-145
7.99457e-145
1.72572e-144
3.72321e-144
8.02859e-144
1.73035e-143
3.72735e-143
8.02489e-143
1.72683e-142
3.7139e-142
7.98327e-142
1.71515e-141
3.68291e-141
7.90404e-141
1.69541e-140
3.6347e-140
7.78807e-140
1.66785e-139
3.56985e-139
7.63675e-139
1.63279e-138
3.48914e-138
7.45195e-138
1.59069e-137
3.3936e-137
7.23603e-137
1.54206e-136
3.28444e-136
6.99171e-136
1.48753e-135
3.16304e-135
6.72209e-135
1.42778e-134
3.03093e-134
6.43055e-134
1.36357e-133
2.88975e-133
6.12068e-133
1.29567e-132
2.7412e-132
5.79619e-132
1.22489e-131
2.58704e-131
5.46086e-131
1.15205e-130
2.42901e-130
5.11847e-130
1.07795e-129
2.26885e-129
4.77268e-129
1.00338e-128
2.10822e-128
4.42704e-128
9.29086e-128
1.94869e-127
4.08485e-127
8.55759e-127
1.79172e-126
3.74915e-126
7.84038e-126
1.63864e-125
3.4227e-125
7.14489e-125
1.4906e-124
3.1079e-124
6.47605e-124
1.34863e-123
2.80679e-123
5.838e-123
1.21354e-122
2.52104e-122
5.23407e-122
1.08601e-121
2.25196e-121
4.66682e-121
9.66524e-121
2.00049e-120
4.13799e-120
8.55407e-120
1.7672e-119
3.64861e-119
7.5283e-119
1.55237e-118
3.19903e-118
6.58821e-118
1.35595e-117
2.78896e-117
5.7328e-117
1.17764e-116
2.4176e-116
4.95993e-116
1.01693e-115
2.08364e-115
4.26656e-115
8.73073e-115
1.78543e-114
3.64882e-114
7.45212e-114
1.52098e-113
3.1023e-113
6.32351e-113
1.28809e-112
2.62211e-112
5.33416e-112
1.08441e-111
2.2031e-111
4.47287e-111
9.07502e-111
1.84e-110
3.72819e-110
7.54894e-110
1.5275e-109
3.08875e-109
6.24154e-109
1.26039e-108
2.54345e-108
5.12914e-108
1.03364e-107
2.08159e-107
4.18914e-107
8.42469e-107
1.6931e-106
3.40027e-106
6.82403e-106
1.36857e-105
2.74277e-105
5.49299e-105
1.09932e-104
2.19854e-104
4.39378e-104
8.77478e-104
1.75116e-103
3.49228e-103
6.95958e-103
1.38595e-102
2.75804e-102
5.48458e-102
1.08987e-101
2.16417e-101
4.29435e-101
8.51506e-101
1.68719e-100
3.34059e-100
6.60947e-100
1.30675e-99
2.58167e-99
5.09672e-99
1.00545e-98
1.98203e-98
3.90425e-98
7.685e-98
1.51157e-97
2.97089e-97
5.83475e-97
1.14507e-96
2.24552e-96
4.40022e-96
8.61598e-96
1.6858e-95
3.29594e-95
6.43905e-95
1.25699e-94
2.45196e-94
4.77926e-94
9.30841e-94
1.81157e-93
3.52291e-93
6.8456e-93
1.32918e-92
2.57882e-92
4.99941e-92
9.68451e-92
1.87455e-91
3.62556e-91
7.00668e-91
1.35303e-90
2.61071e-90
5.03345e-90
9.69679e-90
1.86657e-89
3.59017e-89
6.89983e-89
1.32499e-88
2.54237e-88
4.87433e-88
9.33771e-88
1.78737e-87
3.41849e-87
6.53285e-87
1.24743e-86
2.37999e-86
4.53709e-86
8.64218e-86
1.64479e-85
3.12782e-85
5.94308e-85
1.12829e-84
2.14028e-84
4.05656e-84
7.68213e-84
1.45359e-83
2.74814e-83
5.19121e-83
9.7979e-83
1.84769e-82
3.48144e-82
6.55418e-82
1.23284e-81
2.31701e-81
4.35086e-81
8.163e-81
1.53021e-80
2.86601e-80
5.36328e-80
1.00278e-79
1.87329e-79
3.49644e-79
6.52032e-79
1.21487e-78
2.26159e-78
4.20643e-78
7.81685e-78
1.45133e-77
2.69226e-77
4.9898e-77
9.2398e-77
1.70945e-76
3.15981e-76
5.83548e-76
1.07672e-75
1.9849e-75
3.65581e-75
6.72723e-75
1.23679e-74
2.27175e-74
4.16898e-74
7.64371e-74
1.40017e-73
2.56248e-73
4.68534e-73
8.55897e-73
1.56207e-72
2.84827e-72
5.18868e-72
9.44343e-72
1.71711e-71
3.11934e-71
5.66135e-71
1.02653e-70
1.85957e-70
3.36548e-70
6.08514e-70
1.09922e-69
1.98375e-69
3.57664e-69
6.44245e-69
1.15935e-68
2.08429e-68
3.7436e-68
6.71741e-68
1.2042e-67
2.15662e-67
3.85859e-67
6.89706e-67
1.23162e-66
2.1972e-66
3.91594e-66
6.97235e-66
1.24021e-65
2.20388e-65
3.91247e-65
6.93884e-65
1.2294e-64
2.17606e-64
3.84783e-64
6.7972e-64
1.19953e-63
2.11475e-63
3.72453e-63
6.55314e-63
1.15183e-62
2.02253e-62
3.5478e-62
6.21707e-62
1.08836e-61
1.90335e-61
3.32523e-61
5.80339e-61
1.01181e-60
1.76227e-60
3.06619e-60
5.32941e-60
9.25365e-60
1.60509e-59
2.78121e-59
4.81416e-59
8.32446e-59
1.43794e-58
2.48125e-58
4.27709e-58
7.36497e-58
1.26689e-57
2.17696e-57
3.73684e-57
6.40769e-57
1.09759e-56
1.87809e-56
3.21022e-56
5.48139e-56
9.34941e-56
1.593e-55
2.71132e-55
4.60981e-55
7.82922e-55
1.32827e-54
2.25107e-54
3.81086e-54
6.44446e-54
1.08863e-53
1.83698e-53
3.09639e-53
5.21356e-53
8.76879e-53
1.47323e-52
2.47245e-52
4.14484e-52
6.94083e-52
1.16101e-51
1.93993e-51
3.23783e-51
5.39812e-51
8.9898e-51
1.49546e-50
2.48496e-50
4.12459e-50
6.83844e-50
1.13253e-49
1.87351e-49
3.09582e-49
5.10985e-49
8.42467e-49
1.38742e-48
2.28232e-48
3.75019e-48
6.15515e-48
1.0091e-47
1.65247e-47
2.70298e-47
4.41628e-47
7.20736e-47
1.1749e-46
1.91306e-46
3.11143e-46
5.05468e-46
8.20217e-46
1.32943e-45
2.15229e-45
3.48047e-45
5.62176e-45
9.06997e-45
1.46163e-44
2.35269e-44
3.78258e-44
6.07445e-44
9.74363e-44
1.56109e-43
2.49822e-43
3.99324e-43
6.37547e-43
1.01669e-42
1.61942e-42
2.57644e-42
4.0942e-42
6.49841e-42
1.03023e-41
1.63136e-41
2.58019e-41
4.07605e-41
6.43154e-41
1.01362e-40
1.59559e-40
2.50871e-40
3.93971e-40
6.17961e-40
9.68146e-40
1.51496e-39
2.36781e-39
3.69633e-39
5.76336e-39
8.97556e-39
1.39613e-38
2.16905e-38
3.36584e-38
5.21668e-38
8.07555e-38
1.24861e-37
1.92824e-37
2.97419e-37
4.58198e-37
7.05038e-37
1.08355e-36
1.66324e-36
2.54999e-36
3.90477e-36
5.97208e-36
9.12281e-36
1.39189e-35
2.12105e-35
3.22827e-35
4.9075e-35
7.45111e-35
1.12993e-34
1.71141e-34
2.58897e-34
3.91172e-34
5.90307e-34
8.89729e-34
1.33939e-33
2.01383e-33
3.02417e-33
4.53585e-33
6.79482e-33
1.01663e-32
1.51921e-32
2.26745e-32
3.38006e-32
5.03242e-32
7.48334e-32
1.11142e-31
1.64865e-31
2.44256e-31
3.61431e-31
5.34158e-31
7.8846e-31
1.1624e-30
1.71156e-30
2.51707e-30
3.69711e-30
5.42367e-30
7.94672e-30
1.16291e-29
1.69968e-29
2.48115e-29
3.61745e-29
5.26762e-29
7.66107e-29
1.11283e-28
1.61446e-28
2.33934e-28
3.38548e-28
4.89339e-28
7.0642e-28
1.01854e-27
1.46675e-27
2.10959e-27
3.03042e-27
4.3478e-27
6.23016e-27
8.91645e-27
1.27452e-26
1.81956e-26
2.59447e-26
3.69481e-26
5.25533e-26
7.46571e-26
1.05927e-25
1.50108e-25
2.12454e-25
3.00323e-25
4.24011e-25
5.97902e-25
8.42066e-25
1.18448e-24
1.66407e-24
2.33497e-24
3.27231e-24
4.58029e-24
6.40319e-24
8.94057e-24
1.24681e-23
1.7366e-23
2.41582e-23
3.35657e-23
4.65794e-23
6.45592e-23
8.93694e-23
1.23563e-22
1.70629e-22
2.35334e-22
3.2418e-22
4.4602e-22
6.12903e-22
8.41197e-22
1.15312e-21
1.57876e-21
2.15889e-21
2.9486e-21
4.02226e-21
5.48019e-21
7.45747e-21
1.01358e-20
1.37594e-20
1.86557e-20
2.52636e-20
3.41706e-20
4.61619e-20
6.22857e-20
8.39397e-20
1.12985e-19
1.51897e-19
2.03964e-19
2.73548e-19
3.6643e-19
4.90258e-19
6.55142e-19
8.74429e-19
1.16571e-18
1.55216e-18
2.06425e-18
2.742e-18
3.63793e-18
4.82081e-18
6.3807e-18
8.43525e-18
1.11381e-17
1.46894e-17
1.93501e-17
2.54593e-17
3.34576e-17
4.39164e-17
5.75766e-17
7.53964e-17
9.86149e-17
1.28832e-16
1.68109e-16
2.19102e-16
2.85228e-16
3.70876e-16
4.81677e-16
6.24847e-16
8.09624e-16
1.04782e-15
1.35451e-15
1.74893e-15
2.25557e-15
2.90559e-15
3.73861e-15
4.80487e-15
6.16809e-15
7.90893e-15
1.01294e-14
1.29583e-14
1.65582e-14
2.11338e-14
2.6943e-14
3.43095e-14
4.36402e-14
5.5445e-14
7.03626e-14
8.91922e-14
1.12932e-13
1.42829e-13
1.80435e-13
2.27684e-13
2.86982e-13
3.61315e-13
4.54388e-13
5.70794e-13
7.16217e-13
8.97681e-13
1.12386e-12
1.40546e-12
1.75565e-12
2.19066e-12
2.73041e-12
3.39936e-12
4.22752e-12
5.25163e-12
6.51661e-12
8.07737e-12
1.00009e-11
1.2369e-11
1.52809e-11
1.88577e-11
2.32463e-11
2.86249e-11
3.52097e-11
4.3262e-11
5.30982e-11
6.51003e-11
7.97288e-11
9.75391e-11
1.19199e-10
1.45513e-10
1.77445e-10
2.16153e-10
2.63022e-10
3.19713e-10
3.88208e-10
4.70877e-10
5.70545e-10
6.90576e-10
8.34976e-10
1.0085e-09
1.21682e-09
1.46661e-09
1.76583e-09
2.12387e-09
2.55185e-09
3.06286e-09
3.67239e-09
4.39864e-09
5.26306e-09
6.29085e-09
7.51159e-09
8.95998e-09
1.06767e-08
1.27092e-08
1.51133e-08
1.79537e-08
2.13062e-08
2.52591e-08
2.99149e-08
3.53931e-08
4.18321e-08
4.93929e-08
5.82615e-08
6.86535e-08
8.08182e-08
9.50433e-08
1.11661e-07
1.31053e-07
1.53661e-07
1.79991e-07
2.10624e-07
2.46228e-07
2.87567e-07
3.35517e-07
3.9108e-07
4.55398e-07
5.29779e-07
6.15709e-07
7.14884e-07
8.2923e-07
9.60937e-07
1.11249e-06
1.28671e-06
1.48679e-06
1.71634e-06
1.97944e-06
2.2807e-06
2.62532e-06
3.01915e-06
3.46877e-06
3.98161e-06
4.56598e-06
5.2312e-06
5.98773e-06
6.84729e-06
7.82296e-06
8.92935e-06
1.01828e-05
1.16015e-05
1.32056e-05
1.50178e-05
1.7063e-05
1.93689e-05
2.19666e-05
2.48899e-05
2.81767e-05
3.18687e-05
3.6012e-05
4.06574e-05
4.58608e-05
5.16839e-05
5.81944e-05
6.54668e-05
7.35826e-05
8.26313e-05
9.27108e-05
0.000103928
0.000116401
0.000130256
0.000145634
0.000162685
0.000181575
0.000202482
0.000225602
0.000251146
0.000279343
0.000310439
0.000344702
0.000382422
0.000423909
0.000469499
0.000519555
0.000574463
0.000634643
0.00070054
0.000772636
0.000851444
0.000937513
0.00103143
0.00113382
0.00124536
0.00136674
0.00149874
0.00164214
0.00179781
0.00196665
0.00214962
0.00234771
0.00256202
0.00279365
0.00304381
0.00331374
0.00360476
0.00391826
0.00425567
0.00461853
0.00500843
0.00542703
0.00587606
0.00635734
0.00687275
0.00742426
0.00801391
0.00864382
0.00931618
0.0100333
0.0107974
0.011611
0.0124767
0.0133969
0.0143743
0.0154116
0.0165117
0.0176773
0.0189114
0.0202169
0.0215969
0.0230544
0.0245927
0.0262148
0.0279241
0.0297236
0.0316168
0.0336069
0.0356972
0.037891
0.0401918
0.0426027
0.0451272
0.0477685
0.0505298
0.0534144
0.0564255
0.0595662
0.0628396
0.0662485
0.069796
0.0734849
0.0773177
0.0812973
0.0854259
0.089706
0.0941398
0.0987293
0.103476
0.108383
0.11345
0.118679
0.124072
0.129629
0.135352
0.141239
0.147293
0.153513
0.159898
0.166449
0.173164
0.180043
0.187085
0.194287
0.201649
0.209168
0.216842
0.224669
0.232645
0.240768
0.249034
0.257439
0.26598
0.274652
0.283452
0.292373
0.301412
0.310563
0.319821
0.32918
0.338634
0.348176
0.357802
0.367503
0.377274
0.387107
0.396995
0.406932
0.416909
0.426919
0.436954
0.447007
0.45707
0.467134
0.477192
0.487235
0.497256
0.507245
0.517195
0.527097
0.536943
0.546725
0.556434
0.566063
0.575601
0.585043
0.594379
0.603601
0.612701
0.621672
0.630505
0.639193
0.647728
0.656103
0.66431
0.672342
0.680193
0.687854
0.69532
0.702584
0.709639
0.716479
0.723099
0.729491
0.735652
0.741574
0.747253
0.752685
0.757863
0.762784
0.767443
0.771836
0.775959
0.779808
0.783381
0.786672
0.789681
0.792404
0.794838
0.796982
0.798835
0.800395
0.801664
0.802646
0.80335
0.803793
0.803999
)
;

boundaryField
{
    sides
    {
        type            zeroGradient;
    }
    empty
    {
        type            empty;
    }
}


// ************************************************************************* //
