/*--------------------------------*- C++ -*----------------------------------*\
| =========                 |                                                 |
| \\      /  F ield         | OpenFOAM: The Open Source CFD Toolbox           |
|  \\    /   O peration     | Version:  2112                                  |
|   \\  /    A nd           | Website:  www.openfoam.com                      |
|    \\/     M anipulation  |                                                 |
\*---------------------------------------------------------------------------*/
FoamFile
{
    version     2.0;
    format      ascii;
    arch        "LSB;label=32;scalar=64";
    class       volScalarField;
    location    "9";
    object      Ma;
}
// * * * * * * * * * * * * * * * * * * * * * * * * * * * * * * * * * * * * * //

dimensions      [0 0 0 0 0 0 0];

internalField   nonuniform List<scalar> 
7000
(
3.00001
3.00001
3.00001
2.99999
2.99994
2.99954
2.99894
2.99605
2.99309
2.97813
2.96163
2.8992
2.74483
2.39384
1.67889
0.811341
0.330969
0.386835
0.441945
0.458472
0.452761
0.439066
0.420892
0.404888
0.391744
0.379217
0.365981
0.352195
0.338192
0.32366
0.308074
0.291435
0.274276
0.257054
0.239731
0.222299
0.205059
0.188219
0.171893
0.155978
0.139899
0.123472
0.106909
0.0903345
0.074125
0.0590446
0.0457331
0.0343079
0.0221931
0.0151652
3.00001
3.00001
3.00001
2.99999
2.99994
2.99954
2.99896
2.99616
2.99328
2.97887
2.96295
2.90314
2.75143
2.41004
1.6967
0.829417
0.336987
0.381971
0.432044
0.451427
0.446693
0.433341
0.414802
0.398285
0.384999
0.372365
0.35907
0.345362
0.331539
0.317243
0.301976
0.285803
0.269275
0.252828
0.236386
0.219879
0.203481
0.187264
0.171271
0.155413
0.13928
0.122974
0.106901
0.0912241
0.076081
0.0617289
0.04839
0.0364109
0.0248122
0.0219391
3.00001
3.00001
3.00001
2.99999
2.99994
2.99954
2.99897
2.99623
2.99342
2.9793
2.96369
2.90485
2.7555
2.41761
1.70472
0.834248
0.332557
0.37346
0.422702
0.44415
0.440419
0.427239
0.40849
0.39175
0.378524
0.366021
0.352955
0.339611
0.326208
0.312348
0.297585
0.282043
0.266262
0.250603
0.234933
0.219171
0.203443
0.187787
0.172239
0.156734
0.140973
0.125195
0.109813
0.0949139
0.0804855
0.0666378
0.0536721
0.0424518
0.0334756
0.0336118
3.00001
3.00001
3.00001
2.99999
2.99994
2.99954
2.99898
2.99631
2.99359
2.97984
2.96464
2.9071
2.76086
2.42793
1.71928
0.851644
0.347286
0.37707
0.420172
0.442908
0.439576
0.426107
0.406948
0.389719
0.376114
0.363375
0.350235
0.336933
0.323622
0.309889
0.295342
0.280156
0.264867
0.249783
0.234731
0.219609
0.2045
0.189412
0.1744
0.159422
0.144257
0.129215
0.11466
0.100582
0.0868688
0.0736036
0.0612596
0.051119
0.0443439
0.0458954
3.00001
3.00001
3.00001
2.99999
2.99994
2.99954
2.999
2.9964
2.99377
2.98042
2.96565
2.90961
2.76597
2.43796
1.73197
0.86452
0.35296
0.374395
0.415712
0.43903
0.436566
0.4235
0.404587
0.387437
0.373964
0.361448
0.348597
0.335604
0.322562
0.309058
0.294763
0.279919
0.265084
0.250523
0.236013
0.221459
0.206921
0.192408
0.177985
0.163632
0.14917
0.134955
0.121281
0.108037
0.0950453
0.0824165
0.0707979
0.0616839
0.0564547
0.0587113
3.00001
3.00001
3.00001
2.99999
2.99994
2.99954
2.99902
2.99651
2.99396
2.98104
2.96674
2.9122
2.77173
2.44869
1.74715
0.881353
0.363254
0.374093
0.414111
0.436954
0.434729
0.421861
0.403093
0.386003
0.372642
0.360313
0.347748
0.33508
0.322331
0.309113
0.295171
0.280782
0.266482
0.252488
0.238563
0.224618
0.210703
0.196824
0.183067
0.169417
0.155739
0.142394
0.129607
0.117191
0.104928
0.0929528
0.082015
0.0737154
0.0694958
0.0721403
3.00001
3
3.00001
2.99998
2.99994
2.99954
2.99905
2.99663
2.9942
2.98177
2.96802
2.91531
2.77789
2.46061
1.76365
0.900174
0.374186
0.373375
0.412609
0.4352
0.433149
0.420564
0.402048
0.38515
0.37196
0.359855
0.347572
0.335223
0.322812
0.309954
0.296435
0.282564
0.268867
0.255517
0.242253
0.228993
0.21578
0.202619
0.18961
0.176751
0.163919
0.151468
0.139557
0.12794
0.116373
0.105014
0.0946821
0.0869983
0.0834595
0.086278
3.00001
3
3.00001
2.99998
2.99994
2.99955
2.99909
2.99678
2.99448
2.98265
2.96951
2.91901
2.78457
2.47411
1.78224
0.92319
0.387532
0.373821
0.411794
0.434186
0.432103
0.419617
0.401294
0.384655
0.371707
0.359848
0.347891
0.335924
0.323905
0.311465
0.29845
0.285202
0.272212
0.259595
0.247073
0.234575
0.222137
0.209765
0.197572
0.185538
0.173578
0.16205
0.151028
0.140207
0.129339
0.118594
0.108805
0.101589
0.0984077
0.101304
3.00001
3
3
2.99997
2.99994
2.99957
2.99913
2.99696
2.99481
2.98368
2.97127
2.9234
2.79188
2.48909
1.80292
0.949582
0.402773
0.374135
0.410994
0.433387
0.431233
0.41875
0.400583
0.384279
0.371648
0.360128
0.348576
0.337067
0.32553
0.313608
0.301185
0.288625
0.276405
0.264595
0.252898
0.241259
0.229694
0.21821
0.206919
0.195831
0.184808
0.174163
0.163982
0.153937
0.14374
0.133558
0.124232
0.117355
0.114486
0.117262
3.00001
3
3
2.99997
2.99994
2.99959
2.99919
2.99718
2.99519
2.98493
2.97335
2.92893
2.79994
2.50564
1.82582
0.979446
0.420002
0.373852
0.409951
0.432568
0.430426
0.417929
0.399951
0.384055
0.371821
0.360707
0.349645
0.33868
0.327693
0.316356
0.304629
0.292899
0.28159
0.270694
0.259904
0.249182
0.238551
0.228002
0.217643
0.207481
0.197408
0.187729
0.178444
0.169191
0.159686
0.150082
0.141192
0.13459
0.131749
0.13453
3.00001
3
3
2.99997
2.99994
2.99961
2.99924
2.99737
2.99555
2.98599
2.97514
2.93341
2.80945
2.52444
1.85478
1.01443
0.440006
0.373255
0.408666
0.431707
0.429635
0.417131
0.399361
0.383946
0.372194
0.36158
0.35109
0.34074
0.330391
0.319737
0.308769
0.297898
0.287532
0.277616
0.267823
0.258108
0.248493
0.239071
0.229863
0.220641
0.211499
0.202782
0.194408
0.185981
0.177208
0.168216
0.159771
0.15337
0.150708
0.153133
3.00001
3.00001
3
2.99997
2.99994
2.99963
2.99928
2.99755
2.99591
2.98706
2.97704
2.93839
2.81962
2.5457
1.88837
1.05564
0.463023
0.371975
0.406858
0.430622
0.428741
0.416284
0.398824
0.383961
0.372754
0.362718
0.352896
0.343249
0.333599
0.323706
0.31366
0.30386
0.294625
0.285807
0.277089
0.268426
0.259871
0.25159
0.243463
0.235288
0.227203
0.219469
0.212023
0.204469
0.196477
0.188155
0.18022
0.174106
0.171308
0.173778
3.00001
3.00001
3
2.99998
2.99994
2.99967
2.99936
2.99788
2.9965
2.98883
2.97964
2.94453
2.83113
2.56941
1.92701
1.10426
0.489459
0.369352
0.404041
0.428931
0.427408
0.415089
0.398083
0.383924
0.373391
0.364044
0.354972
0.346112
0.337286
0.328286
0.319245
0.31057
0.30252
0.294882
0.287339
0.279836
0.272567
0.265575
0.258463
0.251369
0.244455
0.237839
0.231443
0.224892
0.217822
0.21027
0.202895
0.19708
0.194541
0.196451
3.00001
3.00001
3
2.99998
2.99985
2.99968
2.99885
2.998
2.99315
2.99215
2.9803
2.9527
2.84463
2.59547
1.97153
1.16186
0.518757
0.363242
0.398764
0.425683
0.424995
0.413138
0.396887
0.383616
0.373877
0.365344
0.357161
0.349242
0.341427
0.333457
0.32557
0.318144
0.311374
0.305004
0.298714
0.292478
0.28662
0.28093
0.275034
0.269172
0.263469
0.258082
0.252908
0.247519
0.241579
0.235083
0.228525
0.223148
0.220452
0.222607
3.00001
3.00001
3
2.99998
2.99995
2.99976
2.9995
2.99856
2.99693
2.99288
2.98266
2.95994
2.86004
2.6277
2.02926
1.23696
0.554786
0.353774
0.390707
0.420588
0.421288
0.410227
0.395098
0.382906
0.374139
0.366656
0.359559
0.352722
0.345989
0.339216
0.332709
0.326755
0.321436
0.316452
0.311507
0.306639
0.302245
0.29783
0.293293
0.288896
0.284599
0.280528
0.276712
0.272748
0.268182
0.262943
0.257509
0.252953
0.250843
0.252213
3.00001
3.00001
3
2.99999
2.99996
2.99981
2.99963
2.99886
2.99775
2.9946
2.98575
2.97269
2.87707
2.67121
2.09685
1.32944
0.608667
0.349006
0.385706
0.418909
0.42077
0.409696
0.39509
0.383259
0.374951
0.368216
0.362094
0.356388
0.350897
0.345496
0.340519
0.336173
0.332429
0.328947
0.325469
0.322202
0.319404
0.316386
0.313327
0.310521
0.307925
0.305498
0.303351
0.301131
0.29848
0.295135
0.291283
0.287907
0.286231
0.288529
3.00001
3.00001
3
3
2.99996
2.99991
2.9997
2.99947
2.99857
2.99653
2.99248
2.96231
2.88712
2.68266
2.2868
1.46015
0.739446
0.398358
0.427132
0.456602
0.455117
0.43914
0.420287
0.403499
0.391334
0.381969
0.374069
0.367155
0.36107
0.35575
0.351324
0.347872
0.345242
0.343013
0.340898
0.339299
0.338197
0.336793
0.335406
0.334323
0.333563
0.333082
0.333043
0.333162
0.332845
0.332161
0.331183
0.330316
0.330638
0.33264
3.00001
3.00001
3
2.99999
2.99992
2.99986
2.9995
2.99912
2.99752
2.99456
2.98311
2.96544
2.89367
2.75264
2.38679
1.69052
0.846793
0.435505
0.46097
0.489583
0.496317
0.481143
0.460699
0.439557
0.423195
0.41027
0.399279
0.389692
0.381304
0.374286
0.368866
0.365007
0.362455
0.36071
0.35944
0.359005
0.359157
0.359346
0.359719
0.360617
0.361986
0.363838
0.366497
0.369598
0.372992
0.375929
0.379041
0.382638
0.387095
0.393397
3.00001
3.00001
3
2.99999
2.99995
2.99991
2.99971
2.99945
2.9987
2.99573
2.99401
2.9716
2.91838
2.77457
2.45122
1.75381
0.907933
0.438541
0.451969
0.488052
0.506756
0.500767
0.485621
0.467273
0.451664
0.439113
0.427881
0.41739
0.407864
0.399742
0.393306
0.388632
0.385526
0.383552
0.382441
0.382515
0.383423
0.384807
0.386849
0.389656
0.393352
0.398007
0.403819
0.410778
0.418888
0.428468
0.438383
0.450531
0.464863
0.481782
3.00001
3.00001
3
3
2.99997
2.99994
2.99985
2.99953
2.99906
2.99593
2.99478
2.97451
2.93724
2.80766
2.52147
1.84296
1.00385
0.474255
0.434037
0.471096
0.496933
0.499161
0.490977
0.478594
0.467284
0.458306
0.449951
0.441524
0.433204
0.425658
0.419425
0.41473
0.411356
0.409156
0.408457
0.409088
0.410624
0.413012
0.416433
0.421321
0.427562
0.435367
0.445129
0.456833
0.471029
0.488579
0.511275
0.540208
0.58329
0.667368
3.00001
3.00001
3.00001
3
2.99999
2.99997
2.99985
2.99968
2.99878
2.99804
2.99146
2.98938
2.94242
2.83327
2.53043
2.01027
1.07503
0.557629
0.42403
0.453888
0.481771
0.489377
0.485997
0.479031
0.472557
0.468266
0.464575
0.460698
0.456493
0.452217
0.448547
0.445705
0.443775
0.44312
0.443778
0.445716
0.448621
0.45284
0.458578
0.46608
0.475997
0.488371
0.503843
0.523351
0.5472
0.578347
0.619052
0.677984
0.768119
0.890146
3.00001
3.00001
3.00001
3
2.99999
2.99998
2.99989
2.99974
2.99907
2.99828
2.99273
2.99043
2.95268
2.85847
2.6169
2.16181
1.26229
0.674004
0.436355
0.459292
0.488128
0.497817
0.495253
0.489375
0.483206
0.479781
0.477983
0.476592
0.47521
0.473659
0.472431
0.472122
0.472797
0.474249
0.47669
0.480221
0.485293
0.491594
0.499901
0.510457
0.523438
0.540071
0.56022
0.585945
0.617863
0.65848
0.711645
0.779494
0.880541
0.985849
3.00001
3.00001
3
2.99999
2.99998
2.99992
2.99985
2.99947
2.99908
2.9969
2.99436
2.98157
2.96267
2.88692
2.7384
2.36484
1.66812
0.845282
0.46459
0.489687
0.523381
0.539213
0.534821
0.525275
0.515893
0.509211
0.505269
0.502759
0.500942
0.499802
0.499583
0.500497
0.502353
0.505038
0.508787
0.513935
0.520547
0.529079
0.539237
0.552295
0.568097
0.587402
0.61124
0.639562
0.675183
0.717011
0.7705
0.831731
0.91383
0.989292
3.00001
3.00001
3.00001
3.00001
3
2.99999
2.99994
2.99984
2.99947
2.99887
2.99506
2.99391
2.96957
2.91992
2.77714
2.45668
1.75854
0.9201
0.463217
0.479197
0.519776
0.547721
0.55168
0.546155
0.539342
0.534045
0.530971
0.528981
0.527827
0.52771
0.528439
0.529798
0.532203
0.535788
0.540444
0.546596
0.55424
0.563882
0.575653
0.589569
0.606987
0.627074
0.652023
0.680263
0.715118
0.753677
0.801266
0.851849
0.91592
0.973273
3.00001
3.00001
3.00001
3.00001
3
3
2.99996
2.99991
2.99962
2.99921
2.99651
2.99517
2.97857
2.94693
2.82202
2.54375
1.87959
1.05613
0.527776
0.470567
0.505302
0.536139
0.545753
0.545701
0.543676
0.542448
0.542776
0.543669
0.545439
0.548186
0.551227
0.554279
0.558017
0.562957
0.568938
0.576144
0.584975
0.59531
0.608056
0.622394
0.640071
0.65973
0.683859
0.710171
0.742009
0.776435
0.816337
0.860796
0.909738
0.957148
3.00001
3.00001
3.00001
3.00001
3
2.99999
2.99998
2.99987
2.99969
2.99881
2.9979
2.99074
2.98852
2.94692
2.84907
2.58412
2.09619
1.19139
0.651274
0.473534
0.497612
0.526175
0.540502
0.543683
0.543916
0.544719
0.546976
0.550161
0.554863
0.560322
0.565635
0.571022
0.576863
0.58353
0.591097
0.599668
0.609651
0.620779
0.634066
0.648592
0.665986
0.684962
0.707206
0.731946
0.759574
0.790828
0.824625
0.862396
0.902081
0.940199
3.00001
3.00001
3.00001
3.00001
3.00001
3
2.99999
2.99993
2.99983
2.99939
2.99794
2.99585
2.98586
2.96683
2.89443
2.71312
2.34312
1.56282
0.840034
0.515916
0.527126
0.553811
0.572678
0.573567
0.569145
0.566233
0.565129
0.566703
0.570525
0.575281
0.5804
0.586086
0.592582
0.599975
0.608395
0.617742
0.628493
0.640164
0.653656
0.668317
0.684848
0.703294
0.723297
0.746107
0.770439
0.797827
0.827305
0.858639
0.892259
0.923405
3.00001
3.00001
3.00001
3.00001
3.00001
3
3
2.99996
2.99988
2.99953
2.99904
2.99538
2.99517
2.97155
2.92498
2.78329
2.4674
1.77206
0.952359
0.513608
0.514382
0.551781
0.581758
0.58976
0.588423
0.586029
0.584816
0.58592
0.589084
0.593052
0.597471
0.602694
0.608948
0.616213
0.624619
0.633922
0.644517
0.656206
0.669244
0.683654
0.699119
0.716422
0.734868
0.755003
0.776951
0.800541
0.825987
0.851988
0.879886
0.906029
3.00001
3.00001
3.00001
3.00001
3.00001
3
3
2.99997
2.99993
2.99968
2.99931
2.99733
2.99571
2.98199
2.95677
2.83861
2.56426
1.90713
1.09989
0.569611
0.497709
0.532849
0.567466
0.583494
0.587566
0.588731
0.590305
0.59353
0.598589
0.604051
0.609536
0.61535
0.622027
0.629554
0.637996
0.647447
0.657806
0.669364
0.681915
0.69567
0.710433
0.726258
0.743401
0.761483
0.781204
0.801659
0.822859
0.844995
0.868274
0.890039
3.00001
3.00001
3.00001
3.00001
3.00001
3
2.99999
2.99998
2.99989
2.99971
2.99894
2.99808
2.9913
2.98987
2.94894
2.86134
2.61936
2.16461
1.27429
0.710815
0.505303
0.528818
0.559831
0.580056
0.586749
0.588928
0.591719
0.596337
0.60258
0.609052
0.61561
0.622512
0.629938
0.63815
0.646897
0.656587
0.667
0.678324
0.690561
0.703615
0.717713
0.732424
0.748348
0.765143
0.782728
0.800623
0.819107
0.838316
0.858312
0.876805
3.00001
3.00001
3.00001
3.00001
3.00001
3
2.99999
2.99997
2.99985
2.99971
2.99864
2.99703
2.98769
2.98637
2.96667
2.91069
2.74618
2.39446
1.6844
0.88858
0.519013
0.533714
0.566193
0.594573
0.602448
0.60286
0.603812
0.607099
0.6119
0.617498
0.623561
0.630238
0.637505
0.645526
0.654225
0.663691
0.673868
0.684808
0.696533
0.708884
0.722049
0.735989
0.750696
0.765904
0.781297
0.797343
0.813869
0.830885
0.848391
0.864475
3.00001
3.00001
3.00001
3.00001
3.00001
3
3
2.99999
2.99997
2.99981
2.99958
2.99813
2.99699
2.9865
2.9845
2.92446
2.78235
2.44161
1.81122
0.924486
0.52588
0.507862
0.548361
0.583718
0.598493
0.603661
0.607141
0.611658
0.617122
0.6232
0.629576
0.636438
0.643744
0.651703
0.66024
0.669504
0.679356
0.689867
0.700997
0.712748
0.725232
0.738285
0.751617
0.765118
0.779068
0.793472
0.808291
0.823358
0.83885
0.853019
3.00001
3.00001
3.00001
3.00001
3.00001
3.00001
3
3
2.99995
2.99987
2.99956
2.99907
2.99617
2.99872
2.98297
2.9733
2.85682
2.60507
1.95184
1.16036
0.615247
0.508982
0.536074
0.567741
0.587308
0.595975
0.601158
0.606794
0.613457
0.620795
0.628396
0.636287
0.644447
0.653024
0.661995
0.671488
0.681436
0.691884
0.702898
0.714443
0.72629
0.738276
0.750452
0.763004
0.775936
0.78916
0.802629
0.81627
0.830141
0.84285
3.00001
3.00001
3.00001
3.00001
3.00001
3.00001
3
2.99999
2.99998
2.99986
2.9997
2.99833
2.9963
2.98453
2.98185
2.95747
2.88513
2.67865
2.26246
1.42339
0.790182
0.530929
0.542804
0.570825
0.595473
0.604458
0.607753
0.611463
0.616759
0.623223
0.630336
0.637916
0.645821
0.654151
0.662917
0.672196
0.682012
0.692281
0.702935
0.713783
0.724791
0.736011
0.747588
0.759466
0.771563
0.783861
0.796267
0.808794
0.821491
0.833089
3.00001
3.00001
3.00001
3.00001
3.00001
3.00001
3
3
2.99999
2.99992
2.99984
2.99902
2.99782
2.99107
2.98963
2.97391
2.92988
2.78334
2.44935
1.74234
0.939852
0.527644
0.526595
0.56409
0.599562
0.614222
0.618799
0.621711
0.625711
0.630996
0.637072
0.643686
0.650791
0.658309
0.666347
0.674806
0.683754
0.69305
0.702609
0.712476
0.722727
0.733327
0.744175
0.755243
0.766467
0.777829
0.789315
0.800846
0.812557
0.823223
3.00001
3.00001
3.00001
3.00001
3.00001
3.00001
3
3
2.99997
2.99994
2.9997
2.99948
2.99723
2.994
2.97328
2.9714
2.93026
2.81081
2.49
1.90798
0.99442
0.555677
0.493114
0.534523
0.576175
0.599624
0.609596
0.615497
0.621365
0.628094
0.635262
0.642645
0.650249
0.65799
0.666003
0.674265
0.682773
0.691636
0.700824
0.710365
0.720119
0.73013
0.740294
0.750646
0.761122
0.771706
0.782376
0.793087
0.803928
0.813841
3.00001
3.00001
3.00001
3.00001
3.00001
3.00001
3
3
2.99998
2.99995
2.99978
2.99964
2.9979
2.99552
2.97988
2.97865
2.94686
2.85387
2.59857
2.10887
1.24391
0.686846
0.498275
0.527851
0.567595
0.594935
0.606
0.611457
0.616991
0.623574
0.630845
0.638342
0.646048
0.653977
0.66215
0.670644
0.679352
0.688314
0.697448
0.70679
0.716266
0.72588
0.7356
0.745403
0.755302
0.765256
0.775271
0.785322
0.795469
0.804754
3.00001
3.00001
3.00001
3.00001
3.00001
3.00001
3.00001
3
3
2.99998
2.99996
2.99975
2.99945
2.99743
2.9961
2.98217
2.98004
2.89292
2.70087
2.21451
1.50447
0.730657
0.458473
0.497804
0.547411
0.582843
0.597709
0.604347
0.610227
0.617082
0.624673
0.632516
0.640486
0.648612
0.656982
0.665587
0.674409
0.683429
0.692614
0.701872
0.71121
0.720624
0.730113
0.739603
0.749146
0.75869
0.768261
0.777808
0.787456
0.796231
3.00001
3.00001
3.00001
3.00001
3.00001
3.00001
3.00001
3
3
2.99998
2.99996
2.99976
2.99952
2.9977
2.99661
2.98374
2.9826
2.91262
2.75234
2.36387
1.68427
0.814263
0.458491
0.480891
0.525333
0.564691
0.582326
0.590287
0.597064
0.604936
0.613638
0.622545
0.631482
0.640377
0.64924
0.658207
0.667268
0.676281
0.68544
0.694562
0.703846
0.71306
0.722401
0.731735
0.741124
0.750496
0.759874
0.769206
0.778587
0.787136
3.00001
3.00001
3.00001
3.00001
3.00001
3.00001
3.00001
3.00001
3
2.99999
2.99995
2.9999
2.99955
2.99903
2.9956
2.99703
2.9795
2.97134
2.83303
2.53324
1.83134
1.02566
0.519451
0.480242
0.516117
0.553037
0.569699
0.576673
0.582853
0.590799
0.599945
0.609587
0.619254
0.628817
0.638365
0.647729
0.657156
0.666535
0.675918
0.685277
0.694623
0.703924
0.713149
0.722354
0.731494
0.740605
0.749698
0.758744
0.767855
0.776161
3.00001
3.00001
3.00001
3.00001
3.00001
3.00001
3.00001
3.00001
3
3
2.99997
2.99994
2.99963
2.99917
2.99622
2.99467
2.9751
2.97364
2.85786
2.6103
1.97287
1.18596
0.591606
0.45784
0.487992
0.527053
0.550274
0.560368
0.56714
0.574924
0.584051
0.593883
0.603853
0.613811
0.623777
0.63363
0.64353
0.653325
0.663074
0.672739
0.682275
0.691797
0.701195
0.710516
0.719726
0.728854
0.737916
0.746863
0.755864
0.764025
3.00001
3.00001
3.00001
3.00001
3.00001
3.00001
3.00001
3.00001
3
2.99999
2.99998
2.99989
2.9998
2.99883
2.99741
2.98831
2.9877
2.96538
2.89741
2.68515
2.26736
1.44141
0.75815
0.464413
0.495547
0.540518
0.571929
0.582828
0.585716
0.588502
0.5932
0.599269
0.60616
0.6134
0.621071
0.629064
0.637378
0.645892
0.6546
0.663432
0.67233
0.681297
0.690226
0.699192
0.708089
0.716951
0.725788
0.73455
0.743379
0.751381
3.00001
3.00001
3.00001
3.00001
3.00001
3.00001
3.00001
3.00001
3.00001
3
2.99999
2.99995
2.99991
2.99954
2.99905
2.99579
2.99382
2.97304
2.93167
2.77436
2.41821
1.67398
0.861195
0.437431
0.47249
0.523826
0.568863
0.586114
0.590518
0.593274
0.59767
0.603259
0.609386
0.615737
0.622266
0.629026
0.636067
0.643369
0.650933
0.658702
0.666627
0.674678
0.682777
0.690979
0.69919
0.707451
0.715718
0.723974
0.732312
0.739896
3.00001
3.00001
3.00001
3.00001
3.00001
3.00001
3.00001
3.00001
3
3
2.99999
2.99994
2.9999
2.99947
2.99883
2.9945
2.9959
2.97233
2.9654
2.82022
2.49321
1.75705
0.93742
0.446669
0.446188
0.497954
0.545466
0.566652
0.574516
0.579672
0.585724
0.592859
0.600339
0.607811
0.615177
0.622501
0.629833
0.637247
0.644774
0.652357
0.660049
0.667841
0.675652
0.683517
0.691367
0.699251
0.707107
0.714955
0.722839
0.730029
3.00001
3.00001
3.00001
3.00001
3.00001
3.00001
3.00001
3.00001
3.00001
3
2.99999
2.99998
2.99984
2.99965
2.99839
2.99789
2.98928
2.98939
2.93706
2.81618
2.49882
1.91464
0.988178
0.508279
0.41691
0.464115
0.514697
0.542688
0.555237
0.562911
0.570471
0.578719
0.587273
0.595665
0.603882
0.611939
0.619856
0.627755
0.635564
0.643388
0.651182
0.658962
0.666771
0.674575
0.682384
0.690138
0.697882
0.705553
0.713221
0.72022
3.00001
3.00001
3.00001
3.00001
3.00001
3.00001
3.00001
3.00001
3.00001
3
2.99999
2.99999
2.99987
2.99971
2.99863
2.99816
2.99047
2.99012
2.94657
2.8432
2.57329
2.05325
1.15884
0.599308
0.407763
0.453123
0.512203
0.54823
0.562461
0.56873
0.5747
0.58186
0.589753
0.597658
0.605421
0.613018
0.620467
0.627887
0.635232
0.642567
0.64988
0.657144
0.664427
0.671648
0.678886
0.686074
0.693239
0.700372
0.707479
0.713999
3.00001
3.00001
3.00001
3.00001
3.00001
3.00001
3.00001
3.00001
3.00001
3
2.99999
2.99998
2.9999
2.99979
2.99911
2.99841
2.99273
2.99328
2.95455
2.883
2.65953
2.21353
1.38261
0.692971
0.398399
0.462688
0.536872
0.574725
0.584326
0.585852
0.588613
0.593813
0.60036
0.607104
0.613714
0.620191
0.626595
0.633061
0.639559
0.646132
0.652765
0.659412
0.666119
0.6728
0.67951
0.686197
0.692862
0.699521
0.706153
0.712241
3.00001
3.00001
3.00001
3.00001
3.00001
3.00001
3.00001
3.00001
3.00001
3
3
2.99997
2.99996
2.99975
2.9995
2.99782
2.99615
2.97941
2.98155
2.87413
2.68033
2.10596
1.36991
0.576971
0.309286
0.401754
0.487983
0.52445
0.536752
0.544215
0.552802
0.563015
0.573892
0.5839
0.593119
0.601742
0.609984
0.61799
0.625807
0.633548
0.641173
0.648739
0.656198
0.663563
0.67083
0.677988
0.685076
0.692058
0.69902
0.705347
3.00001
3.00001
3.00001
3.00001
3.00001
3.00001
3.00001
3.00001
3.00001
3
3
2.99997
2.99996
2.99974
2.99952
2.99766
2.9964
2.9815
2.9839
2.8883
2.71008
2.20068
1.48776
0.634496
0.325469
0.40048
0.473475
0.501127
0.509321
0.515101
0.523044
0.533173
0.544167
0.554835
0.56517
0.575113
0.584716
0.594037
0.603137
0.61212
0.620954
0.629691
0.638227
0.646614
0.65481
0.66281
0.670687
0.678357
0.686017
0.692927
3.00001
3.00001
3.00001
3.00001
3.00001
3.00001
3.00001
3.00001
3.00001
3
3
2.99997
2.99996
2.99973
2.99949
2.99746
2.99639
2.9825
2.98404
2.89891
2.73298
2.30757
1.61143
0.704835
0.339201
0.405853
0.468744
0.497012
0.506511
0.51142
0.517426
0.525288
0.5342
0.543443
0.552684
0.561854
0.570942
0.579954
0.588953
0.597861
0.606714
0.615475
0.624115
0.632681
0.641093
0.649436
0.657655
0.665779
0.673868
0.681222
3.00001
3.00001
3.00001
3.00001
3.00001
3.00001
3.00001
3.00001
3.00001
3
3
2.99998
2.99996
2.99976
2.9995
2.99777
2.99689
2.98412
2.98602
2.91078
2.7517
2.37722
1.69003
0.767325
0.376698
0.406869
0.456739
0.497986
0.515031
0.520773
0.525236
0.531355
0.538799
0.546816
0.555017
0.563214
0.571472
0.579764
0.588103
0.596521
0.604918
0.613385
0.621781
0.630173
0.638477
0.646683
0.654831
0.662831
0.670841
0.678102
3.00001
3.00001
3.00001
3.00001
3.00001
3.00001
3.00001
3.00001
3.00001
3
3
2.99998
2.99996
2.99979
2.99954
2.99791
2.99716
2.98535
2.98634
2.91936
2.7753
2.42748
1.78257
0.856241
0.424944
0.401469
0.450285
0.498976
0.521427
0.52974
0.534845
0.540937
0.54832
0.556346
0.564658
0.572943
0.581265
0.589553
0.597771
0.606011
0.614108
0.622222
0.630198
0.638113
0.645943
0.653601
0.661221
0.668635
0.676043
0.682748
3.00001
3.00001
3.00001
3.00001
3.00001
3.00001
3.00001
3.00001
3.00001
3
2.99999
2.99998
2.99994
2.99983
2.99959
2.99843
2.99757
2.98689
2.98933
2.92615
2.79215
2.47164
1.86083
0.940661
0.470061
0.395191
0.445184
0.499697
0.527213
0.538015
0.543845
0.550233
0.558102
0.566631
0.575344
0.583852
0.592189
0.60037
0.608274
0.616025
0.62343
0.630684
0.637756
0.64466
0.65155
0.658224
0.6649
0.671396
0.677812
0.683687
3.00001
3.00001
3.00001
3.00001
3.00001
3.00001
3.00001
3.00001
3.00001
3.00001
3
2.99999
2.99996
2.99981
2.99977
2.9988
2.99602
2.99147
2.97786
2.93184
2.81007
2.51561
1.92565
1.01734
0.508964
0.388349
0.440523
0.500225
0.532182
0.544382
0.550346
0.556712
0.564569
0.573015
0.581347
0.589173
0.596531
0.603537
0.610254
0.616825
0.623197
0.629485
0.635611
0.641677
0.64768
0.653608
0.659541
0.665381
0.671269
0.676632
3.00001
3.00001
3.00001
3.00001
3.00001
3.00001
3.00001
3.00001
3.00001
3.00001
3
2.99999
2.99994
2.99987
2.99957
2.99891
2.99659
2.99181
2.97484
2.94032
2.82322
2.54373
1.97901
1.08263
0.541473
0.383226
0.437791
0.501117
0.5359
0.548781
0.554416
0.560407
0.567812
0.575601
0.58296
0.589627
0.595748
0.601416
0.606823
0.612251
0.617741
0.623176
0.62858
0.634025
0.639461
0.644995
0.650525
0.656162
0.661829
0.667076
3.00001
3.00001
3.00001
3.00001
3.00001
3.00001
3.00001
3.00001
3.00001
3.00001
3
2.99999
2.99998
2.99988
2.99975
2.99886
2.99796
2.98898
2.98982
2.93632
2.8332
2.55635
2.01581
1.11379
0.559522
0.384943
0.438735
0.500829
0.53565
0.548806
0.554822
0.56105
0.568434
0.575985
0.58289
0.589058
0.594715
0.599919
0.60483
0.609847
0.615086
0.620276
0.625464
0.630658
0.635918
0.641217
0.646549
0.651957
0.65734
0.662354
3.00001
3.00001
3.00001
3.00001
3.00001
3.00001
3.00001
3.00001
3.00001
3.00001
3
3
2.99996
2.99993
2.9996
2.99926
2.99637
2.99484
2.9738
2.9703
2.84351
2.57976
1.9466
1.15661
0.51214
0.363926
0.412051
0.464659
0.487525
0.492352
0.493229
0.495945
0.500992
0.507402
0.514486
0.522037
0.529975
0.538266
0.546801
0.555511
0.564282
0.573002
0.581649
0.590121
0.598451
0.606566
0.614496
0.622246
0.629821
0.636721
3.00001
3.00001
3.00001
3.00001
3.00001
3.00001
3.00001
3.00001
3.00001
3.00001
3
3
2.99996
2.99993
2.99961
2.99923
2.99645
2.99491
2.97456
2.97131
2.84827
2.59062
1.96474
1.17742
0.522946
0.365945
0.413771
0.465304
0.486707
0.489877
0.48854
0.488801
0.491352
0.495277
0.500191
0.505872
0.51216
0.519042
0.526506
0.534473
0.542814
0.551379
0.560041
0.568717
0.577356
0.585908
0.594383
0.602751
0.611077
0.61869
3.00001
3.00001
3.00001
3.00001
3.00001
3.00001
3.00001
3.00001
3.00001
3.00001
3
2.99999
2.99999
2.99989
2.9998
2.99902
2.99818
2.99018
2.99084
2.94217
2.8545
2.58039
2.07427
1.17351
0.599764
0.397363
0.445056
0.502684
0.538186
0.55086
0.555203
0.559455
0.565005
0.570669
0.575704
0.580379
0.584762
0.588932
0.592985
0.59754
0.60276
0.608031
0.613292
0.618544
0.623791
0.629007
0.634247
0.639476
0.644762
0.649588
3.00001
3.00001
3.00001
3.00001
3.00001
3.00001
3.00001
3.00001
3.00001
3.00001
3
3
2.99996
2.99993
2.99962
2.99925
2.99656
2.99501
2.97517
2.97181
2.8522
2.60123
1.98513
1.20363
0.537364
0.367831
0.415537
0.467307
0.489779
0.493665
0.492383
0.492659
0.495389
0.499535
0.504797
0.510912
0.517598
0.524798
0.532522
0.540662
0.549039
0.557527
0.565991
0.574393
0.582714
0.590911
0.599042
0.607054
0.615047
0.622344
1.22829
0.892456
0.439336
0.228658
0.16436
0.302229
0.346949
0.360629
0.356353
0.35018
0.346021
0.341645
0.334158
0.319617
0.299867
0.276049
0.24984
0.222047
0.193013
0.163194
0.133125
0.103022
0.0732047
0.0443541
0.0206661
0.0243661
0.0513083
0.0785009
0.105158
0.13117
0.156484
0.181114
0.205127
0.228461
0.250467
0.271198
0.292178
0.314208
0.336186
0.357347
0.377746
0.397583
0.416974
0.435909
0.45442
0.472528
0.490217
0.507502
0.524381
0.540835
0.55692
0.572577
0.587801
0.602693
0.617103
0.631186
0.64481
0.65807
0.670879
0.683273
0.69524
0.706711
0.717769
0.728279
0.738323
0.747799
0.756734
0.765061
0.772768
0.779805
0.786147
0.791746
0.796582
0.800581
0.803791
0.806031
0.807488
0.80844
0.809233
0.809476
0.809083
0.807376
0.805179
0.802383
0.799746
0.796798
0.794212
0.791562
0.78943
0.787445
0.786057
0.784983
0.784415
0.784291
0.784505
0.785092
0.785852
0.786919
0.787949
0.792503
1.14203
0.952732
0.727709
0.493974
0.439603
0.360289
0.283686
0.219108
0.159875
0.107332
0.0747434
0.0522026
0.0662221
0.075259
0.0902358
0.1078
0.127262
0.148315
0.170573
0.19322
0.216021
0.238707
0.26117
0.283158
0.304166
0.324446
0.344932
0.365422
0.385681
0.405663
0.425312
0.444616
0.46362
0.482207
0.500042
0.516816
0.533524
0.550997
0.569016
0.586351
0.603056
0.619391
0.635373
0.651121
0.666571
0.681779
0.696712
0.711373
0.725705
0.739806
0.753483
0.766933
0.779973
0.792709
0.805112
0.817127
0.828855
0.840179
0.851181
0.861817
0.872098
0.881971
0.891521
0.900627
0.909309
0.917612
0.925375
0.932719
0.939486
0.945739
0.951431
0.956439
0.960882
0.964612
0.967621
0.969855
0.971406
0.972479
0.973452
0.974014
0.973826
0.972718
0.970929
0.968704
0.966406
0.963921
0.96159
0.959277
0.957318
0.955479
0.954119
0.952968
0.952271
0.951892
0.951861
0.95215
0.952557
0.953287
0.953768
0.957459
1.09129
1.04724
0.951539
0.861279
0.803018
0.750655
0.698553
0.651869
0.6129
0.581689
0.557063
0.543153
0.53233
0.523695
0.518992
0.518519
0.522032
0.528772
0.53733
0.547434
0.55839
0.569906
0.581709
0.59362
0.605471
0.617281
0.629248
0.641468
0.65386
0.66634
0.678883
0.691375
0.703883
0.716315
0.728371
0.739774
0.751075
0.763061
0.775844
0.788651
0.800965
0.813047
0.824971
0.836834
0.848643
0.860344
0.871933
0.883388
0.894718
0.905913
0.916978
0.927902
0.938644
0.949196
0.959518
0.969556
0.97934
0.988823
0.997992
1.00689
1.01548
1.02375
1.03172
1.03939
1.04667
1.05362
1.06024
1.06636
1.0721
1.07739
1.08215
1.08631
1.09007
1.09302
1.09555
1.0971
1.0983
1.09916
1.09978
1.10035
1.10032
1.09957
1.0983
1.09686
1.09535
1.09382
1.09231
1.09096
1.08978
1.08888
1.08821
1.0878
1.08764
1.08759
1.08787
1.08805
1.08851
1.08861
1.0888
1.09095
1.06653
1.07564
1.04935
1.01564
0.989319
0.967935
0.946248
0.922499
0.89863
0.877733
0.862708
0.854626
0.851289
0.848038
0.842778
0.837236
0.832315
0.828586
0.826043
0.824622
0.824367
0.82469
0.826352
0.828678
0.831663
0.835376
0.83978
0.84501
0.85084
0.857337
0.864221
0.871666
0.879362
0.887532
0.895561
0.903286
0.911007
0.919286
0.928583
0.938314
0.947878
0.957261
0.966589
0.975968
0.985338
0.994774
1.00414
1.01358
1.02289
1.03217
1.04129
1.05024
1.05911
1.06778
1.07639
1.08483
1.09311
1.1012
1.10909
1.11674
1.12414
1.13127
1.13816
1.14465
1.15097
1.15676
1.16243
1.16742
1.17224
1.17649
1.18028
1.18361
1.18645
1.1887
1.19044
1.19143
1.19188
1.19213
1.19224
1.19202
1.19118
1.18982
1.18812
1.18618
1.18421
1.18229
1.18064
1.1793
1.17842
1.17778
1.17769
1.1778
1.17826
1.179
1.1798
1.18096
1.18192
1.18311
1.18357
1.18705
1.03825
1.07172
1.07896
1.07778
1.07644
1.07591
1.07415
1.0692
1.06215
1.05526
1.04945
1.04676
1.04489
1.04376
1.03907
1.03116
1.02305
1.0157
1.00925
1.00335
0.998073
0.993488
0.989684
0.986651
0.984357
0.982836
0.982276
0.982354
0.983456
0.985342
0.987934
0.991321
0.995344
1.00002
1.00487
1.00968
1.01467
1.02033
1.02703
1.03447
1.04207
1.04973
1.05743
1.06526
1.07322
1.0813
1.08956
1.09786
1.10627
1.11465
1.1231
1.13156
1.14006
1.14849
1.15684
1.16503
1.1731
1.18098
1.18869
1.19618
1.20347
1.21049
1.21725
1.22374