/*--------------------------------*- C++ -*----------------------------------*\
| =========                 |                                                 |
| \\      /  F ield         | OpenFOAM: The Open Source CFD Toolbox           |
|  \\    /   O peration     | Version:  2112                                  |
|   \\  /    A nd           | Website:  www.openfoam.com                      |
|    \\/     M anipulation  |                                                 |
\*---------------------------------------------------------------------------*/
FoamFile
{
    version     2.0;
    format      ascii;
    arch        "LSB;label=32;scalar=64";
    class       volScalarField;
    location    "9";
    object      p;
}
// * * * * * * * * * * * * * * * * * * * * * * * * * * * * * * * * * * * * * //

dimensions      [1 -1 -2 0 0 0 0];

internalField   nonuniform List<scalar> 
7000
(
0.999998
0.999998
0.999996
0.999992
1.00006
1.00027
1.001
1.00226
1.00646
1.01261
1.03675
1.05725
1.2683
1.43063
2.75955
5.12861
11.4886
11.2239
10.7246
10.4949
10.5031
10.5542
10.6606
10.7614
10.8371
10.8992
10.9583
11.0177
11.0763
11.1329
11.1869
11.2386
11.288
11.3352
11.3791
11.4204
11.4589
11.4944
11.5271
11.5571
11.5838
11.6079
11.6292
11.6471
11.6615
11.6727
11.6814
11.6883
11.6938
11.6996
1
1
0.999998
0.999993
1.00006
1.00027
1.00098
1.0022
1.00627
1.01221
1.03559
1.05474
1.26284
1.41087
2.72434
5.01454
11.3359
11.1759
10.755
10.498
10.499
10.545
10.65
10.755
10.8315
10.8933
10.9524
11.0119
11.0706
11.1274
11.1816
11.2334
11.2832
11.3306
11.3748
11.4164
11.4551
11.4909
11.524
11.5543
11.5813
11.6057
11.6272
11.6452
11.6597
11.671
11.6799
11.687
11.6925
11.6983
1
0.999999
0.999998
0.999993
1.00006
1.00027
1.00097
1.00216
1.00615
1.01195
1.03487
1.05353
1.25921
1.40117
2.7074
4.96245
11.2909
11.1494
10.7749
10.5066
10.4985
10.5428
10.6473
10.7548
10.8315
10.8925
10.9511
11.0102
11.0685
11.1248
11.1784
11.2298
11.279
11.3259
11.3698
11.4111
11.4497
11.4855
11.5185
11.5489
11.5759
11.6003
11.6216
11.6395
11.6541
11.6657
11.6749
11.6822
11.6875
11.6925
1
1
0.999998
0.999993
1.00006
1.00027
1.00096
1.00211
1.006
1.01163
1.03398
1.05203
1.25397
1.38942
2.67959
4.87922
11.1537
11.0896
10.7848
10.5045
10.4878
10.5317
10.6361
10.745
10.8223
10.8833
10.9418
11.0009
11.0592
11.1153
11.1688
11.22
11.269
11.3158
11.3596
11.4009
11.4395
11.4753
11.5085
11.5391
11.5662
11.5906
11.6119
11.63
11.6448
11.6568
11.6662
11.6737
11.679
11.6835
1
1
0.999998
0.999992
1.00007
1.00027
1.00094
1.00206
1.00583
1.01129
1.03302
1.05031
1.24927
1.3768
2.65575
4.80095
11.0357
11.0601
10.7853
10.5071
10.4847
10.5273
10.6299
10.7388
10.816
10.8765
10.9345
10.9929
11.0504
11.1058
11.1586
11.2091
11.2575
11.3036
11.3469
11.3879
11.4262
11.4619
11.495
11.5255
11.5526
11.577
11.5984
11.6166
11.6317
11.644
11.6537
11.6613
11.6666
11.6709
1
1
0.999998
0.999992
1.00007
1.00027
1.00092
1.002
1.00566
1.01092
1.032
1.04853
1.24379
1.36362
2.6285
4.71116
10.8865
11.0265
10.769
10.4991
10.4753
10.5171
10.6183
10.7271
10.8044
10.8649
10.9225
10.9805
11.0376
11.0923
11.1445
11.1944
11.2421
11.2877
11.3304
11.3709
11.4089
11.4443
11.4772
11.5077
11.5347
11.5592
11.5806
11.599
11.6143
11.6268
11.6368
11.6445
11.6498
11.654
1
1
1
0.999997
1.00007
1.00026
1.00089
1.00193
1.00544
1.01048
1.0308
1.04637
1.23791
1.34881
2.59875
4.61451
10.7204
10.997
10.7522
10.4888
10.4658
10.507
10.6071
10.7151
10.7919
10.8518
10.9089
10.9662
11.0223
11.0761
11.1274
11.1764
11.2232
11.268
11.31
11.3499
11.3874
11.4224
11.4549
11.4851
11.5121
11.5365
11.558
11.5765
11.592
11.6048
11.6151
11.6229
11.6283
11.6325
1
1
1.00001
1
1.00008
1.00026
1.00086
1.00184
1.00519
1.00996
1.02939
1.04377
1.23144
1.33239
2.56435
4.50992
10.5298
10.967
10.7346
10.4741
10.4525
10.4938
10.5937
10.7007
10.7765
10.8359
10.8923
10.9487
11.0038
11.0566
11.1068
11.1547
11.2004
11.2441
11.2852
11.3243
11.3611
11.3956
11.4277
11.4576
11.4843
11.5086
11.5301
11.5486
11.5643
11.5773
11.5877
11.5957
11.6012
11.6055
1
0.999999
1.00001
1.00001
1.00008
1.00025
1.00082
1.00173
1.00489
1.00935
1.02773
1.04065
1.22431
1.31385
2.52648
4.39497
10.3117
10.9363
10.7168
10.4564
10.4362
10.478
10.5783
10.6841
10.7588
10.8172
10.8728
10.9282
10.9821
11.0335
11.0824
11.129
11.1735
11.2159
11.2559
11.2939
11.3298
11.3635
11.395
11.4243
11.4507
11.4747
11.4961
11.5147
11.5305
11.5436
11.5542
11.5624
11.5679
11.5724
1
0.999999
1.00001
1.00001
1.00008
1.00024
1.00077
1.00161
1.00454
1.00864
1.02575
1.03681
1.21646
1.29227
2.48584
4.26776
10.0627
10.9045
10.6984
10.4366
10.4175
10.4599
10.5611
10.6655
10.7386
10.7959
10.8505
10.9046
10.957
11.0068
11.0542
11.0992
11.142
11.1829
11.2214
11.2581
11.2929
11.3256
11.3562
11.3848
11.4107
11.4343
11.4553
11.4737
11.4895
11.5027
11.5134
11.5218
11.5275
11.532
0.999999
0.999999
1.00001
1.00001
1.00008
1.00023
1.00072
1.00151
1.00422
1.00799
1.02402
1.03388
1.20602
1.27351
2.43567
4.1244
9.77725
10.8727
10.6806
10.4157
10.3968
10.4399
10.5419
10.6446
10.7158
10.7718
10.8251
10.8778
10.9285
10.9764
11.0218
11.065
11.106
11.145
11.1817
11.2168
11.2499
11.2814
11.3109
11.3382
11.3633
11.3863
11.4068
11.4247
11.4402
11.4534
11.4641
11.4726
11.4785
11.4835
1
0.999999
1.00001
1.00002
1.00008
1.00022
1.00068
1.00141
1.00391
1.00734
1.02241
1.03045
1.19475
1.25316
2.37939
3.96451
9.44781
10.8427
10.6647
10.3946
10.375
10.4187
10.5211
10.6217
10.6907
10.7451
10.7969
10.8477
10.8964
10.9421
10.9853
11.0262
11.0649
11.1015
11.1361
11.1691
11.2004
11.2302
11.258
11.2838
11.3077
11.3295
11.3491
11.3664
11.3813
11.3941
11.4047
11.4134
11.4193
11.4244
1
1
1.00001
1.00001
1.00007
1.0002
1.00059
1.00124
1.00339
1.00624
1.01991
1.02574
1.18137
1.23031
2.31528
3.7865
9.06464
10.8176
10.6528
10.3741
10.3524
10.3964
10.4987
10.5965
10.6631
10.7157
10.7657
10.8145
10.8609
10.904
10.9445
10.9828
11.0188
11.0526
11.0846
11.1149
11.1439
11.1714
11.1966
11.2207
11.2427
11.2628
11.2809
11.2968
11.3108
11.3229
11.3331
11.3415
11.3475
11.3533
1
1
0.999999
1.00003
1.00009
1.0003
1.00066
1.00187
1.00376
1.01087
1.01578
1.01946
1.1627
1.20499
2.24089
3.58501
8.61505
10.8065
10.65
10.3579
10.3314
10.3749
10.4753
10.5694
10.6332
10.6839
10.732
10.7782
10.822
10.8621
10.8996
10.9347
10.9676
10.998
11.0268
11.0538
11.0801
11.1037
11.1262
11.1478
11.167
11.1844
11.2
11.2137
11.2257
11.2363
11.2455
11.2536
11.2595
11.2652
1
1
1
1.00001
1.00006
1.00015
1.00044
1.00094
1.00236
1.00536
1.01359
1.01795
1.14659
1.17697
2.15412
3.35011
8.06594
10.8178
10.659
10.3474
10.3116
10.354
10.4512
10.5408
10.6018
10.6504
10.696
10.7394
10.7797
10.8167
10.8506
10.882
10.911
10.9375
10.9621
10.9851
11.0078
11.0273
11.046
11.0634
11.0784
11.0921
11.1041
11.1143
11.1232
11.131
11.1381
11.1447
11.15
11.1569
1
1
1
1.00001
1.00005
1.00012
1.00034
1.00069
1.00193
1.00377
1.01065
1.01287
1.12664
1.14353
2.05402
3.09114
7.39761
10.8972
10.711
10.3514
10.2912
10.3311
10.4229
10.5094
10.5687
10.6151
10.6579
10.6981
10.7347
10.7679
10.7978
10.8248
10.8494
10.8713
10.8912
10.9091
10.9263
10.9408
10.9543
10.9661
10.9755
10.9835
10.9897
10.994
10.9972
11.0001
11.0032
11.007
11.0104
11.0164
1
1
1
1.00001
1.00003
1.00008
1.00018
1.00048
1.00085
1.00266
1.00301
1.03778
1.03977
1.32916
1.52611
3.12953
6.25695
11.0724
10.8629
10.4121
10.285
10.3135
10.3893
10.4771
10.5368
10.5803
10.6189
10.6553
10.6877
10.7165
10.7418
10.7639
10.7829
10.7992
10.8133
10.826
10.8357
10.8438
10.8502
10.8544
10.8562
10.8557
10.8534
10.8484
10.8421
10.8356
10.8299
10.8265
10.8258
10.8323
1
1
1
1.00002
1.00005
1.00014
1.00029
1.00084
1.0014
1.00564
1.00863
1.03714
1.05461
1.25704
1.44975
2.71802
5.12772
11.0447
10.9086
10.5364
10.2873
10.2932
10.3416
10.4356
10.5002
10.5421
10.5765
10.609
10.6368
10.6612
10.6814
10.6979
10.7112
10.7209
10.7281
10.7342
10.7358
10.7352
10.7327
10.7269
10.7181
10.7052
10.6892
10.6697
10.6479
10.6244
10.6019
10.5826
10.5682
10.5684
1
1
1
1.00001
1.00003
1.00009
1.00017
1.00049
1.00086
1.00302
1.00359
1.02817
1.02868
1.24377
1.33871
2.61347
4.63642
10.6151
10.8272
10.5621
10.2759
10.2553
10.2926
10.3786
10.451
10.4943
10.5258
10.5539
10.5783
10.5983
10.6137
10.6248
10.6321
10.6353
10.635
10.6327
10.6259
10.6147
10.6004
10.5819
10.5588
10.5293
10.4941
10.452
10.4033
10.3492
10.291
10.2342
10.1836
10.1608
1
1
1
1.00001
1.00002
1.00006
1.0001
1.00044
1.00061
1.00294
1.00434
1.02205
1.02647
1.20478
1.26441
2.45497
4.16975
9.79253
10.714
10.5369
10.2605
10.2184
10.2487
10.3225
10.3939
10.4366
10.4649
10.4891
10.5093
10.5252
10.536
10.5418
10.5425
10.5402
10.5331
10.5192
10.5015
10.4793
10.4516
10.4175
10.3757
10.3246
10.2625
10.1871
10.0964
9.98834
9.86151
9.71487
9.55306
9.39966
1
1
1
1
1.00002
1.00002
1.00015
1.00019
1.00096
1.00198
1.00494
1.00505
1.05833
1.05816
1.49636
1.88128
4.10206
8.67493
10.6561
10.5364
10.267
10.1835
10.2037
10.2588
10.3234
10.3634
10.3879
10.4067
10.4212
10.4315
10.4363
10.4357
10.4311
10.4196
10.3999
10.3748
10.3442
10.3069
10.2613
10.2058
10.1379
10.0546
9.95183
9.82358
9.66076
9.44881
9.15894
8.73978
8.07499
6.72183
1
1
1
1
1.00001
1.00001
1.00011
1.00013
1.0008
1.00156
1.00453
1.00509
1.04912
1.04864
1.40566
1.67463
3.56823
7.35969
10.7731
10.643
10.3175
10.1606
10.1632
10.1904
10.2451
10.2811
10.3003
10.312
10.3197
10.321
10.319
10.3112
10.2941
10.2687
10.2373
10.1988
10.1524
10.0965
10.0291
9.94782
9.84909
9.72836
9.57876
9.39154
9.1519
8.83984
8.42366
7.85554
7.09908
5.98048
1
1
1
1.00001
1.00003
1.00005
1.00017
1.0003
1.00099
1.0017
1.00617
1.00951
1.04069
1.05867
1.2734
1.48181
2.76611
5.25424
11.018
10.8748
10.4848
10.1748
10.1219
10.1377
10.1754
10.2054
10.2168
10.2183
10.2168
10.2112
10.1982
10.176
10.1473
10.1115
10.0678
10.0157
9.95292
9.8787
9.79061
9.68582
9.56032
9.4091
9.22546
9.00073
8.72376
8.38106
7.95869
7.4381
6.83151
6.07932
1
1
1
1
1.00001
1.00001
1.00006
1.00007
1.00051
1.00074
1.00333
1.00485
1.02795
1.03267
1.24114
1.32493
2.60886
4.59937
10.5269
10.7347
10.4617
10.1287
10.0346
10.0463
10.0786
10.1088
10.1178
10.1163
10.1103
10.0963
10.0722
10.042
10.0049
9.9594
9.90483
9.84068
9.76429
9.67519
9.57138
9.44996
9.30756
9.13998
8.94253
8.70925
8.43532
8.11293
7.74202
7.31391
6.84934
6.31237
1
1
1
1
1
1
1.00004
1.00004
1.00036
1.0005
1.00245
1.00383
1.0182
1.0168
1.19387
1.23213
2.39797
3.96808
9.37961
10.5163
10.3624
10.0601
9.9546
9.96296
9.98987
10.0178
10.0234
10.0199
10.0083
9.98403
9.9526
9.91451
9.87067
9.8174
9.75413
9.68031
9.59508
9.49606
9.38327
9.25331
9.10451
8.93345
8.73867
8.51514
8.26274
7.9773
7.65982
7.31237
6.92265
6.51591
1
1
1
1
1
1.00001
1.00001
1.00012
1.00014
1.00101
1.00187
1.00585
1.00761
1.05259
1.05387
1.44411
1.7464
3.77394
7.85372
10.5209
10.406
10.1077
9.93891
9.91035
9.91944
9.93804
9.9383
9.93218
9.91421
9.87964
9.84145
9.79873
9.7487
9.68933
9.62004
9.53972
9.44873
9.34468
9.22826
9.09607
8.94808
8.78176
8.59607
8.38955
8.16117
7.91056
7.63788
7.33765
7.02966
6.69807
1
1
1
1
1
1.00001
1.00001
1.00006
1.00008
1.00068
1.00108
1.00434
1.00641
1.03492
1.03557
1.30622
1.46601
2.91424
5.64454
10.6244
10.5883
10.2991
9.98347
9.88658
9.88413
9.88588
9.88139
9.86563
9.83203
9.78982
9.74611
9.69832
9.64315
9.57909
9.50552
9.42158
9.32805
9.22251
9.10549
8.97548
8.8319
8.67384
8.50059
8.31173
8.10688
7.88613
7.64818
7.39526
7.13834
6.86432
1
1
1
1
1
1
1.00001
1.00004
1.00005
1.00043
1.00064
1.00293
1.00398
1.0252
1.02846
1.23496
1.3066
2.58084
4.5012
10.197
10.5597
10.3255
9.97281
9.83303
9.81397
9.81447
9.8096
9.7923
9.75532
9.70867
9.66109
9.60972
9.55151
9.48488
9.40957
9.3249
9.23098
9.12684
9.01235
8.88708
8.75053
8.60233
8.44215
8.26975
8.08653
7.89063
7.68077
7.46879
7.25114
7.0211
1
1
1
1
1
1
1
1.00002
1.00003
1.00029
1.00043
1.00189
1.00398
1.01283
1.01555
1.17181
1.19978
2.35381
3.81006
9.02352
10.4178
10.2679
9.94906
9.77668
9.74079
9.74164
9.73808
9.72264
9.68698
9.63713
9.58671
9.53351
9.47404
9.40675
9.3313
9.24756
9.15535
9.05444
8.94459
8.82563
8.6974
8.55985
8.41309
8.25754
8.09096
7.91339
7.73492
7.55158
7.36404
7.16759
1
1
1
1
1
1
1.00001
1.00001
1.00011
1.00013
1.00092
1.0016
1.00542
1.00767
1.04789
1.05471
1.40528
1.64161
3.56625
7.28178
10.4295
10.3293
10.0222
9.79017
9.71117
9.70043
9.69073
9.66875
9.62773
9.57971
9.52887
9.47404
9.41336
9.34578
9.27099
9.1889
9.09945
9.00252
8.89803
8.78591
8.66621
8.53901
8.40468
8.26149
8.1097
7.95747
7.80104
7.63957
7.47494
7.30432
1
1
1
1
1
1
1.00002
1.00002
1.00012
1.00012
1.00128
1.00165
1.00868
1.02079
1.03059
1.02875
1.27589
1.38835
2.7223
4.93413
10.4535
10.4771
10.2223
9.85605
9.71061
9.68228
9.66763
9.63796
9.59355
9.54297
9.48926
9.43206
9.37001
9.30219
9.22829
9.14817
9.06178
8.96908
8.87004
8.76472
8.65325
8.53576
8.41
8.27831
8.14624
8.01027
7.87021
7.72679
7.58174
7.43197
1
1
1
1
1
1
1
1.00002
1.00002
1.00016
1.00018
1.00151
1.00277
1.00842
1.00777
1.07901
1.07825
1.62766
2.09302
4.73701
9.72012
10.3697
10.1824
9.84019
9.68176
9.63841
9.62164
9.59562
9.55635
9.50889
9.45655
9.39994
9.33851
9.27181
9.19971
9.12219
9.03929
8.95101
8.85743
8.75883
8.65424
8.54273
8.42762
8.31203
8.19285
8.06965
7.94327
7.81451
7.6846
7.55109
1
1
1
1
1
1
1
1.00001
1.00004
1.00005
1.00043
1.00059
1.00243
1.00582
1.00678
1.00563
1.14541
1.14858
2.27535
3.59619
8.50733
10.291
10.1693
9.87792
9.68368
9.61113
9.58786
9.56515
9.52975
9.48448
9.43339
9.37772
9.31752
9.25262
9.18287
9.1083
9.02909
8.94547
8.85693
8.76231
8.66329
8.56218
8.45995
8.35397
8.24422
8.13136
8.01616
7.89938
7.7819
7.66156
1
1
1
1
1
1
1
1.00001
1.00002
1.00009
1.0001
1.00152
1.00195
1.01099
1.02622
1.03924
1.04617
1.342
1.524
3.21691
6.38676
10.3546
10.3219
10.0691
9.75979
9.6323
9.59477
9.56868
9.53128
9.48362
9.42972
9.37192
9.31068
9.246
9.17771
9.10559
9.02927
8.94805
8.86285
8.77463
8.68485
8.59293
8.49746
8.39864
8.29712
8.1935
8.08821
7.98161
7.87447
7.76492
1
1
1
1
1
1
1
1.00001
1.00001
1.00005
1.00005
1.0009
1.00113
1.00651
1.01559
1.02188
1.02474
1.23527
1.30452
2.63521
4.5883
10.174
10.5052
10.2712
9.8676
9.6701
9.60103
9.56806
9.53086
9.48336
9.42928
9.37143
9.31086
9.24711
9.18008
9.10966
9.03586
8.95914
8.88049
8.79994
8.71592
8.62864
8.5386
8.44633
8.35212
8.25629
8.15913
8.061
7.96248
7.86188
1
1
1
1
1
1
1
1.00001
1.00003
1.00006
1.00019
1.00028
1.00246
1.00294
1.01869
1.04475
1.06683
1.06466
1.57117
1.94673
4.42132
9.15744
10.4208
10.2576
9.89294
9.66592
9.5816
9.55047
9.51991
9.47768
9.4269
9.37175
9.31332
9.25213
9.18806
9.12119
9.05222
8.98099
8.90648
8.82913
8.74915
8.66675
8.58216
8.49569
8.4077
8.3185
8.22837
8.13752
8.04638
7.95336
1
1
1
1
1
1
1
1
1.00002
1.00005
1.00015
1.0002
1.00183
1.00216
1.01413
1.03369
1.05023
1.04697
1.43851
1.70444
3.6759
7.55248
10.4428
10.3306
9.98709
9.69614
9.58434
9.55083
9.52351
9.48416
9.43529
9.38149
9.32515
9.26682
9.20642
9.14347
9.0775
9.00869
8.93703
8.86285
8.78652
8.70826
8.62831
8.54692
8.46433
8.3808
8.29653
8.21173
8.12674
8.04011
1
1
1
1
1
1
1
1
1.00001
1.00002
1.00003
1.0002
1.00021
1.00197
1.00366
1.01042
1.01503
1.10019
1.11937
1.91255
2.65233
6.30495
10.5605
10.4402
10.0671
9.73112
9.59388
9.55727
9.53513
9.50141
9.45606
9.40471
9.35048
9.29368
9.23406
9.17161
9.10636
9.03879
8.96939
8.89827
8.82556
8.75147
8.67617
8.59972
8.52215
8.44363
8.36439
8.28456
8.20455
8.12306
1
1
1
1
1
1
1
1
1.00001
1.00002
1.00004
1.00018
1.00023
1.00176
1.00325
1.0096
1.01011
1.08851
1.08472
1.7347
2.27745
5.22757
10.4049
10.4096
10.1419
9.77199
9.61365
9.57426
9.5566
9.5267
9.48322
9.43218
9.37752
9.32045
9.26116
9.19973
9.13659
9.07189
9.00556
8.93761
8.86813
8.79723
8.72504
8.65182
8.57786
8.50332
8.42831
8.35296
8.27747
8.20069
1
1
1
1
1
1
1
1
1.00001
1.00001
1.00004
1.00006
1.00039
1.00047
1.00299
1.00729
1.00862
1.00706
1.17575
1.18124
2.46713
4.10385
9.59517
10.4177
10.2135
9.83804
9.66344
9.61668
9.59838
9.56756
9.52241
9.46951
9.41348
9.3559
9.29695
9.23667
9.17469
9.11106
9.04595
8.97954
8.91208
8.84373
8.77449
8.70447
8.6338
8.56259
8.49092
8.41893
8.34681
8.27346
1
1
1
1
1
1
1
1
1
1.00001
1.00003
1.00002
1.00033
1.00037
1.00275
1.0055
1.01426
1.01366
1.14238
1.13649
2.26024
3.48604
8.41713
10.5041
10.3439
9.97369
9.73455
9.64883
9.61912
9.58849
9.54568
9.49502
9.4409
9.38514
9.3281
9.26947
9.20908
9.14724
9.08419
9.02015
8.95504
8.88895
8.82202
8.75439
8.68623
8.6176
8.54874
8.47964
8.41045
8.34011
1
1
1
1
1
1
1
1
1
1.00001
1.00003
1.00008
1.0001
1.001
1.00118
1.0083
1.02068
1.02915
1.02208
1.34746
1.4997
3.1967
6.40849
10.8649
10.7219
10.274
9.88701
9.71916
9.6647
9.6317
9.5889
9.53647
9.4801
9.42264
9.36426
9.30507
9.24511
9.18429
9.12255
9.05989
8.99634
8.93201
8.86706
8.80163
8.73581
8.66969
8.60328
8.53666
8.47
8.40227
1
1
1
1
1
1
1
1
1
1.00001
1.00001
1.00004
1.00006
1.0004
1.0005
1.00286
1.00588
1.02003
1.02228
1.25025
1.30702
2.75684
4.92418
10.8869
10.7983
10.4664
9.98274
9.75479
9.68435
9.65266
9.61304
9.56209
9.50616
9.44896
9.39158
9.33385
9.27545
9.2162
9.15597
9.09495
9.03324
8.9709
8.908
8.84463
8.78089
8.7169
8.65272
8.58844
8.52424
8.45921
1
1
1
1
1
1
1
1
1
1.00001
1.00001
1.00004
1.00005
1.00046
1.0005
1.00378
1.00951
1.01014
1.01008
1.19195
1.20155
2.6063
4.44594
10.372
10.7718
10.4899
10.0324
9.80311
9.72425
9.68823
9.64815
9.59669
9.53954
9.48108
9.42284
9.36474
9.30643
9.24768
9.18852
9.12885
9.06866
9.00802
8.94704
8.88568
8.82396
8.76199
8.69989
8.63779
8.57582
8.51321
1
1
1
1
1
1
1
1
1
1
1.00001
1.00002
1.00014
1.00017
1.00111
1.00246
1.00542
1.00658
1.05922
1.04963
1.56753
1.91383
4.43357
9.25368
10.7496
10.5488
10.1161
9.85728
9.75549
9.71376
9.67539
9.62647
9.57037
9.51196
9.45351
9.39544
9.33749
9.27936
9.22093
9.16215
9.10298
9.04342
8.98344
8.92321
8.8629
8.80256
8.74228
8.68213
8.62224
8.56194
1
1
1
1
1
1
1
1
1
1
1.00001
1.00001
1.00011
1.00013
1.00102
1.00209
1.00538
1.0056
1.05111
1.04143
1.47653
1.75313
3.92642
8.20772
10.9827
10.7721
10.2622
9.90576
9.76415
9.7211
9.6893
9.64481
9.59061
9.53309
9.47543
9.41849
9.36196
9.30545
9.24862
9.19127
9.13351
9.07542
9.01706
8.95855
8.89997
8.84139
8.78289
8.72454
8.66646
8.60803
1
1
1
1
1
1
1
1
1
1
1.00001
1.00002
1.00009
1.00011
1.00073
1.00112
1.00464
1.00604
1.03866
1.03729
1.37658
1.56494
3.37127
6.88377
11.3764
11.0807
10.367
9.9199
9.77238
9.74124
9.71767
9.67484
9.61877
9.55951
9.50168
9.44536
9.38959
9.33372
9.2776
9.22122
9.16458
9.10767
9.05057
8.99333
8.93603
8.87877
8.8216
8.76462
8.70794
8.65105
1
1
1
1
1
1
1
1
1
1
1
1.00003
1.00004
1.0002
1.0002
1.00191
1.00299
1.01212
1.01412
1.11282
1.10415
2.0851
2.96122
7.36518
11.1657
10.7727
10.0857
9.78288
9.71857
9.7143
9.70198
9.6713
9.61891
9.56445
9.51145
9.45941
9.407
9.35387
9.30008
9.24576
9.191
9.13584
9.08043
9.02484
8.96915
8.9134
8.85768
8.80203
8.74661
8.69087
1
1
1
1
1
1
1
1
1
1
1
1.00002
1.00004
1.0002
1.00024
1.00182
1.00317
1.01057
1.01202
1.10099
1.09211
1.96716
2.67213
6.68964
11.0493
10.6971
10.0493
9.78664
9.73595
9.73035
9.7154
9.68197
9.63269
9.58167
9.53099
9.47973
9.4279
9.37555
9.32274
9.26951
9.21599
9.16228
9.10834
9.05421
8.99994
8.94558
8.89118
8.83674
8.78232
8.72735
1
1
1
1
1
1
1
1
1
1
1.00001
1.00002
1.00004
1.00022
1.00028
1.00184
1.00338
1.00991
1.0113
1.09584
1.09314
1.81946
2.41118
5.76101
11.1131
10.8142
10.1868
9.87622
9.7789
9.75256
9.72889
9.69227
9.64578
9.59542
9.54425
9.49305
9.44177
9.39032
9.33863
9.28673
9.2346
9.18224
9.12975
9.07712
9.02438
8.97153
8.91856
8.8655
8.81234
8.75845
1
1
1
1
1
1
1
1
1
1
1.00001
1.00002
1.00004
1.00019
1.00025
1.00162
1.0033
1.00864
1.00732
1.08921
1.0795
1.74093
2.2535
5.35093
10.8263
10.7715
10.3792
9.98564
9.80548
9.75256
9.72807
9.69457
9.65005
9.60057
9.55015
9.50001
9.45008
9.39998
9.34954
9.29881
9.24786
9.19676
9.14555
9.09426
9.0429
8.99147
8.93996
8.88836
8.83665
8.78419
1
1
1
1
1
1
1
1
1
1
1
1.00002
1.00003
1.00018
1.00021
1.00151
1.00339
1.00704
1.01099
1.07645
1.0768
1.65872
2.10295
4.9782
10.2665
10.7956
10.5205
10.0651
9.83512
9.7594
9.73076
9.69898
9.6557
9.60631
9.55577
9.50596
9.4568
9.40781
9.35868
9.30924
9.25952
9.20959
9.15955
9.10944
9.0593
9.00914
8.95897
8.90877
8.85855
8.8077
1
1
1
1
1
1
1
1
1
1
1.00001
1.00002
1.00004
1.00017
1.00021
1.00125
1.00274
1.0065
1.00695
1.07115
1.07098
1.59939
1.99032
4.65851
9.69646
10.8771
10.6294
10.1284
9.85826
9.7618
9.72958
9.69993
9.65846
9.60941
9.55862
9.5087
9.45979
9.4114
9.36304
9.31451
9.26581
9.21699
9.1681
9.11915
9.07021
9.02131
8.97246
8.92371
8.8751
8.82621
1
1
1
1
1
1
1
1
1
1
1
1.00002
1.00004
1.00011
1.0002
1.00119
1.00155
1.00895
1.00954
1.0677
1.06313
1.55363
1.90786
4.38113
9.16504
10.9457
10.7038
10.1822
9.872
9.75996
9.72858
9.70316
9.66408
9.61547
9.56427
9.51412
9.46537
9.41738
9.36962
9.32192
9.27415
9.22627
9.1784
9.13052
9.08266
9.03485
8.98714
8.93955
8.89213
8.84453
1
1
1
1
1
1
1
1
1
1
1
1.00002
1.00003
1.00014
1.00021
1.00116
1.00115
1.00876
1.01188
1.0603
1.05655
1.51674
1.83805
4.16804
8.70963
10.9835
10.7413
10.1989
9.86401
9.74596
9.71897
9.69864
9.66171
9.61417
9.56292
9.51306
9.46482
9.41762
9.37041
9.32438
9.27742
9.23064
9.18402
9.13739
9.09076
9.04416
8.99763
8.95124
8.90503
8.85868
1
1
1
1
1
1
1
1
1
1
1
1.00002
1.00002
1.0001
1.0001
1.001
1.00154
1.00651
1.00786
1.05838
1.05823
1.49743
1.78541
4.05581
8.44001
10.9465
10.7236
10.2037
9.87299
9.75636
9.72832
9.70609
9.66828
9.62083
9.5692
9.51975
9.47175
9.42464
9.37766
9.33251
9.2861
9.23986
9.19381
9.14781
9.10186
9.05599
9.0102
8.9645
8.91896
8.87327
1
1
1
1
1
1
1
1
1
1
1
1.00001
1.00004
1.00006
1.0003
1.00038
1.00269
1.00508
1.0142
1.02126
1.14697
1.17879
2.27382
3.58909
8.6791
10.7889
10.5624
10.0969
9.84464
9.76347
9.738
9.70892
9.6664
9.6167
9.56638
9.51783
9.47096
9.42519
9.37987
9.335
9.29012
9.24531
9.20052
9.1557
9.11082
9.06584
9.02075
8.97551
8.9301
8.88409
1
1
1
1
1
1
1
1
1
1
1
1.00001
1.00004
1.00005
1.00031
1.00033
1.00268
1.00506
1.01369
1.02064
1.14137
1.16964
2.24627
3.50281
8.51085
10.7593
10.5383
10.0787
9.83023
9.75409
9.73341
9.70968
9.67051
9.62243
9.57377
9.52567
9.4791
9.43344
9.38803
9.34294
9.2978
9.25278
9.208
9.1634
9.11889
9.0744
9.02984
8.9851
8.94007
8.89416
1
1
1
1
1
1
1
1
1
1
1
1.00001
1.00002
1.00008
1.00012
1.00084
1.00116
1.00604
1.00774
1.04963
1.04785
1.46542
1.70591
3.86608
7.9711
10.8963
10.717
10.2465
9.90072
9.76929
9.73708
9.7145
9.67711
9.62513
9.57402
9.52463
9.47757
9.4317
9.38571
9.34239
9.29702
9.25201
9.20758
9.1634
9.11935
9.07538
9.03145
8.98755
8.94372
8.89985
1
1
1
1
1
1
1
1
1
1
1
1
1.00004
1.00005
1.0003
1.00032
1.00261
1.00488
1.01344
1.02051
1.13669
1.16285
2.21649
3.41865
8.31046
10.7525
10.5485
10.1078
9.85462
9.77198
9.7467
9.71845
9.67455
9.62306
9.57259
9.52361
9.47724
9.43241
9.38785
9.34354
9.29908
9.25479
9.21082
9.16712
9.12359
9.08011
9.03655
8.9928
8.9487
8.90377
2.8855
2.67969
3.70569
4.22948
3.97155
3.85364
3.79775
3.78731
3.80062
3.82517
3.84028
3.85215
3.876
3.92327
3.99076
4.06927
4.15413
4.2425
4.33258
4.4221
4.50903
4.59195
4.66972
4.74216
4.80867
4.87211
4.92651
4.97237
5.0104
5.0412
5.06525
5.08294
5.09444
5.10029
5.10069
5.09892
5.09293
5.07987
5.06087
5.03922
5.01524
4.98867
4.95957
4.92821
4.89481
4.85959
4.82278
4.78457
4.74517
4.70478
4.66358
4.62178
4.57954
4.53702
4.49443
4.45189
4.40958
4.36763
4.32621
4.28545
4.24552
4.20657
4.16875
4.13223
4.09718
4.06376
4.03215
4.00254
3.97511
3.95006
3.92757
3.90783
3.89104
3.87739
3.86705
3.86027
3.85712
3.85717
3.85771
3.85947
3.86369
3.87256
3.88631
3.90188
3.91828
3.9351
3.95193
3.96837
3.98398
3.99838
4.01126
4.02247
4.03191
4.03951
4.04527
4.04964
4.05275
4.05476
4.05583
4.05745
3.8767
3.75633
4.10874
4.12506
3.97593
3.82505
3.78327
3.79395
3.83314
3.86414
3.87038
3.86108
3.86706
3.91186
3.97965
4.05668
4.14123
4.23067
4.32147
4.41156
4.49894
4.58221
4.66035
4.733
4.80023
4.86359
4.91812
4.96415
5.00251
5.03365
5.05801
5.07602
5.08777
5.09368
5.09396
5.09271
5.08812
5.07708
5.05635
5.03386
5.00994
4.98376
4.95507
4.92397
4.89075
4.85568
4.819
4.78093
4.74166
4.70139
4.66032
4.61863
4.57651
4.53411
4.49163
4.44919
4.40697
4.36511
4.32377
4.2831
4.24326
4.20438
4.16664
4.1302
4.09522
4.06187
4.03033
4.00079
3.97342
3.94843
3.926
3.90632
3.88958
3.87596
3.86567
3.85894
3.85616
3.85629
3.85696
3.85886
3.86319
3.87208
3.88558
3.9012
3.91788
3.93502
3.95208
3.96863
3.98433
3.99878
4.01164
4.02281
4.03222
4.03968
4.04538
4.04958
4.05261
4.0546
4.056
4.05888
4.95829
4.43523
4.38318
4.27171
4.0913
3.93936
3.8613
3.83452
3.83375
3.83601
3.8414
3.85278
3.87721
3.92603
3.99216
4.06791
4.15015
4.23645
4.32499
4.41312
4.4991
4.58136
4.65898
4.73153
4.7983
4.85939
4.91322
4.95907
4.99715
5.02793
5.05187
5.06925
5.0805
5.08583
5.08574
5.08457
5.08067
5.07129
5.05207
5.02788
5.00278
4.97642
4.94801
4.91728
4.88435
4.84948
4.81296
4.77503
4.73592
4.69582
4.65493
4.61343
4.57149
4.52929
4.48698
4.44473
4.40269
4.36101
4.31985
4.27936
4.23969
4.20099
4.16343
4.12716
4.09236
4.05919
4.02784
3.99848
3.97131
3.9465
3.92426
3.90477
3.8882
3.87476
3.86466
3.85811
3.85587
3.85607
3.85691
3.85906
3.86377
3.87324
3.88615
3.90143
3.91811
3.93549
3.9528
3.96936
3.9851
3.99938
4.01213
4.0231
4.03235
4.03935
4.04514
4.0488
4.05179
4.05353
4.05537
4.05919
5.50024
4.95661
4.69376
4.51291
4.32364
4.14864
4.02223
3.9513
3.92842
3.92942
3.9327
3.93946
3.95116
3.97525
4.02333
4.08958
4.16652
4.24827
4.33154
4.41519
4.49776
4.57756
4.65237
4.72242
4.78747
4.84683
4.89969
4.94522
4.98313
5.01388
5.03782
5.05523
5.06647
5.07155
5.07141
5.07034
5.06701
5.05909
5.04255
5.018
4.99189
4.965
4.93664
4.90627
4.87375
4.83927
4.80309
4.76548
4.72667
4.68688
4.64631
4.60512
4.56351
4.52163
4.47966
4.43773
4.39601
4.35465
4.3138
4.27362
4.23426
4.19587
4.15863
4.12268
4.08821
4.05537
4.02437
3.99534
3.96852
3.94406
3.92217
3.90301
3.88681
3.87369
3.86386
3.85764
3.8561
3.85641
3.85745
3.85998
3.86535
3.87507
3.8876
3.9025
3.91875
3.93591
3.9536
3.97002
3.98555
3.99965
4.01197
4.02265
4.03146
4.03832
4.04356
4.04704
4.04958
4.05137
4.05329
4.05752
5.86887
5.38534
5.05803
4.8142
4.59824
4.40164
4.2434
4.13457
4.07176
4.03942
4.02137
4.01869
4.02172
4.03348
4.0627
4.12255
4.19721
4.27378
4.35056
4.42763
4.50423
4.57898
4.65041
4.71758
4.78011
4.83695
4.88815
4.93254
4.96947
4.99982
5.02341
5.04038
5.05127
5.05582
5.05559
5.05443
5.05121
5.04395
5.02903
5.0059
4.97976
4.95228
4.92354
4.89318
4.86095
4.82687
4.7911
4.75388
4.71546
4.67606
4.63587
4.59509
4.55389
4.51242
4.47085
4.42934
4.38803
4.34708
4.30665
4.26689
4.22795
4.19001
4.15321
4.11773
4.08374
4.05141
4.02092
3.99244
3.96615
3.94225
3.92092
3.90229
3.88674
3.87415
3.8647
3.85905
3.85841
3.85877
3.86001
3.86292
3.86902
3.87898
3.8913
3.90556
3.92135
3.93803
3.95485
3.971
3.98607
3.99973
4.01153
4.0217
4.02994
4.03649
4.04109
4.04434
4.04637
4.04794
4.04989
4.05428
6.17313
5.76414
5.42483
5.14661
4.90274
4.68566
4.50187
4.35932
4.25913
4.19529
4.15658
4.13868
4.13887
4.14211
4.15331
4.18029
4.23521
4.30148
4.37107
4.44109
4.51077
4.57947
4.64593
4.70909
4.76819
4.82252
4.87148
4.91449
4.95086
4.98094
5.00423
5.02102
5.03186
5.03616
5.03592
5.03475
5.03165
5.02484
5.01099
4.98984
4.96463
4.93713
4.90805
4.87751
4.84539
4.81163
4.77631
4.73958
4.70166
4.66276
4.62308
4.5828
4.54211
4.50116
4.46012
4.41914
4.37837
4.33796
4.29809
4.25889
4.22054
4.18319
4.14701
4.11217
4.07885
4.0472
4.01741
3.98967
3.96408
3.94096
3.92039
3.90258
3.88769
3.87587
3.86739
3.8623
3.8623
3.86275
3.86419
3.8675
3.87434
3.8845
3.89658
3.91021
3.92508
3.94071
3.95651
3.97179
3.98608
3.99898
4.01011
4.01964
4.02726
4.03313
4.03721
4.0404
4.04178
4.04321
4.04508
4.0494
6.43275
6.08508
5.7697
5.47444
5.20949
4.97552
4.7721
4.60386
4.47337
4.37879
4.31382
4.27285
4.25135
4.24669
4.24873
4.25733
4.27949
4.3258
4.38812
4.4532
4.51767
4.58095
4.64202
4.70053
4.75583
4.80719
4.85391
4.89531
4.93079
4.96011
4.98299
4.99985
5.01048
5.0145
5.01423
5.01306
5.01003
5.00351
4.99035
4.97099
4.94718
4.92024
4.89117
4.86048
4.82835
4.79481
4.75988
4.72368
4.68633
4.64802
4.60894
4.56927
4.5292
4.48886
4.44844
4.40809
4.36796
4.32821
4.289
4.25049
4.21285
4.17623
4.14084
4.1068
4.07431
4.04355
4.01467
3.98787
3.96333
3.94113
3.92151
3.90462
3.89065
3.87977
3.87217
3.86821
3.86831
3.86896
3.87071
3.8745
3.88214
3.89209
3.90365
3.91644
3.93014
3.9444
3.95877
3.97271
3.98582
3.99769
4.00797
4.01663
4.0236
4.0289
4.03272
4.03507
4.03625
4.03767
4.03928
4.0431
6.65902
6.35996
6.07128
5.78203
5.5098
5.26199
5.04234
4.85417
4.70018
4.57967
4.48938
4.42527
4.38334
4.35984
4.35095
4.35208
4.35821
4.3751
4.41141
4.46563
4.52431
4.58198
4.63801
4.69155
4.7425
4.7903
4.83431
4.87375
4.90798
4.93652
4.95899
4.97579
4.98648
4.99043
4.99017
4.98902
4.98609
4.97981
4.96723
4.94933
4.92695
4.90098
4.87232
4.84173
4.80964
4.77626
4.74167
4.70595
4.66919
4.63153
4.59314
4.55416
4.51478
4.47515
4.43544
4.39581
4.35643
4.31744
4.27902
4.24132
4.20453
4.16882
4.13436
4.10134
4.06991
4.04023
4.01246
3.98678
3.96335
3.94232
3.92388
3.90819
3.89537
3.88562
3.87904
3.87634
3.87654
3.87737
3.87941
3.88372
3.89157
3.90115
3.91199
3.92374
3.93608
3.94871
3.96134
3.97359
3.98514
3.99564
4.00484
4.01256
4.01876
4.02345
4.02681
4.02872
4.02976
4.03101
4.03234
4.03547
6.85817
6.59765
6.33317
6.05673
5.78692
5.53411
5.30528
5.10356
4.9315
4.78935
4.67607
4.58914
4.52553
4.48234
4.45554
4.4409
4.44093
4.44397
4.4548
4.48003
4.5287
4.58027
4.63164
4.68119
4.72844
4.77275
4.81376
4.85084
4.88347
4.911
4.93305
4.94945
4.96033
4.96445
4.9642
4.96308
4.96026
4.95426
4.94227
4.92548
4.90436
4.87948
4.85157
4.82141
4.78956
4.75641
4.72216
4.68691
4.65075
4.61379
4.57614
4.53795
4.49936
4.46054
4.42166
4.38287
4.34435
4.30625
4.26875
4.23202
4.19627
4.16166
4.12834
4.09649
4.06624
4.03781
4.01131
3.98695
3.96484
3.94521
3.92817
3.91385
3.90237
3.89386
3.88832
3.88701
3.88727
3.88819
3.8904
3.89503
3.90269
3.91174
3.92164
3.93209
3.94283
3.95362
3.96428
3.97456
3.98426
3.99312
4.00097
4.00762
4.01298
4.01712
4.01982
4.02147
4.02228
4.02347
4.02461
4.02727
7.03536
6.80412
6.56292
6.30163
6.0378
5.78479
5.55144
5.34139
5.15695
4.999
4.86752
4.76087
4.677
4.61405
4.56875
4.53792
4.52045
4.5151
4.51678
4.52398
4.5421
4.5793
4.62285
4.66857
4.71314
4.75464
4.79276
4.82722
4.85778
4.88393
4.90515
4.92126
4.9321
4.93639
4.93617
4.93516
4.93253
4.92691
4.91562
4.89962
4.8795
4.85569
4.82875
4.7993
4.76796
4.73521
4.70136
4.6666
4.63105
4.59479
4.55793
4.52057
4.48285
4.44492
4.40696
4.3691
4.33155
4.29445
4.25802
4.22243
4.18788