/*--------------------------------*- C++ -*----------------------------------*\
| =========                 |                                                 |
| \\      /  F ield         | OpenFOAM: The Open Source CFD Toolbox           |
|  \\    /   O peration     | Version:  2112                                  |
|   \\  /    A nd           | Website:  www.openfoam.com                      |
|    \\/     M anipulation  |                                                 |
\*---------------------------------------------------------------------------*/
FoamFile
{
    version     2.0;
    format      ascii;
    arch        "LSB;label=32;scalar=64";
    class       surfaceScalarField;
    location    "9";
    object      phi;
}
// * * * * * * * * * * * * * * * * * * * * * * * * * * * * * * * * * * * * * //

dimensions      [1 0 -1 0 0 0 0];

oriented        oriented;

internalField   nonuniform List<scalar> 
13790
(
0.00290515
5.74652e-09
0.00290514
3.76521e-09
0.00290514
2.22412e-09
0.00290514
9.18545e-10
0.00290514
-3.09798e-09
0.00290515
-5.7548e-09
0.00290515
-1.51712e-09
0.00290514
1.24022e-08
0.00290505
1.00692e-07
0.00290487
1.89344e-07
0.00290418
7.13755e-07
0.00290378
5.49142e-07
0.00290258
1.18308e-06
0.00290204
1.35564e-06
0.0029201
-1.72812e-05
0.00296275
-3.85971e-05
0.00298063
-1.22375e-05
0.00286845
0.000115112
0.00282806
4.02821e-05
0.00278308
4.51415e-05
0.00273389
4.9509e-05
0.00267464
5.95537e-05
0.00260581
6.89704e-05
0.00253859
6.88792e-05
0.00247003
7.04116e-05
0.00239579
7.38673e-05
0.00231741
7.76409e-05
0.00223788
8.15239e-05
0.00215505
8.584e-05
0.00206343
9.05091e-05
0.00196142
9.51867e-05
0.00185365
9.9744e-05
0.0017456
0.000104249
0.00163858
0.0001085
0.00153053
0.00011173
0.00142233
0.000113332
0.00131494
0.000113189
0.00120889
0.00011166
0.00110393
0.000109678
0.000997846
0.00010846
0.000888938
0.000108324
0.000778707
0.000109576
0.000667213
0.000111364
0.000556102
0.00011102
0.000449849
0.000106047
0.000353308
9.63565e-05
0.000268195
8.50788e-05
0.000190591
7.77169e-05
0.000109222
8.16897e-05
0.000109488
0.00301309
6.63532e-09
0.00301309
5.32874e-09
0.00301309
4.29557e-09
0.00301309
3.46836e-09
0.00301309
-1.6394e-09
0.00301309
-6.63186e-09
0.00301309
-3.06516e-09
0.00301309
1.31315e-08
0.00301312
8.19719e-08
0.00301313
1.78316e-07
0.00301332
5.79483e-07
0.00301351
4.34723e-07
0.00301344
1.34325e-06
0.00301527
2.00727e-07
0.00302109
-2.22213e-05
0.00304508
-5.87396e-05
0.00303215
6.44131e-06
0.00299719
0.000152914
0.00291296
0.000124524
0.00285191
0.000106478
0.00278774
0.000114127
0.0027238
0.000123889
0.00265854
0.000135122
0.00258989
0.000139907
0.00251701
0.000144778
0.00243834
0.000151249
0.00235666
0.000158228
0.00227487
0.000165712
0.00219005
0.000174069
0.00209648
0.000182987
0.00199301
0.000191797
0.00188463
0.000200264
0.00177693
0.00020852
0.00167099
0.000216255
0.00156449
0.000222191
0.00145775
0.000225507
0.00135087
0.00022614
0.00124363
0.000224746
0.00113545
0.000222695
0.00102455
0.000221541
0.000910735
0.000221425
0.000796996
0.000222636
0.000684527
0.000223665
0.000574573
0.000220871
0.000469182
0.000211273
0.000370063
0.000195315
0.000277095
0.000178
0.000187449
0.000167464
9.69112e-05
0.000172585
0.000206657
0.00312505
6.80179e-09
0.00312504
6.04859e-09
0.00312504
5.40551e-09
0.00312504
4.78693e-09
0.00312504
-1.41764e-10
0.00312504
-5.8468e-09
0.00312504
-2.39289e-09
0.00312504
1.4812e-08
0.00312503
9.58722e-08
0.00312502
2.05308e-07
0.00312504
5.99114e-07
0.00312524
3.29722e-07
0.00312507
1.577e-06
0.00312666
-6.65998e-07
0.00312275
-1.74701e-05
0.00311325
-4.53674e-05
0.00307827
4.72708e-05
0.0030241
0.000209951
0.00298
0.000168726
0.00291591
0.000171021
0.00284737
0.000183429
0.00277899
0.000192859
0.00271208
0.000203585
0.00264217
0.000212557
0.00256655
0.000221145
0.00248528
0.000230386
0.00240237
0.000240164
0.00232007
0.000250931
0.0022345
0.00026303
0.00213995
0.000275864
0.00203591
0.000288516
0.00192775
0.000300738
0.0018207
0.0003127
0.00171525
0.000323894
0.001609
0.000332705
0.00150209
0.000338122
0.00139437
0.000340197
0.00128537
0.000339793
0.00117443
0.000338522
0.00105995
0.00033791
0.000942594
0.000337939
0.000825727
0.000338814
0.000710707
0.000338514
0.000598537
0.000332944
0.00049054
0.000319143
0.000387578
0.000298183
0.000289107
0.000276519
0.000193045
0.000263705
9.69124e-05
0.00026912
0.000303811
0.00324116
6.54929e-09
0.00324116
5.7741e-09
0.00324116
5.01231e-09
0.00324116
4.22724e-09
0.00324116
-8.57673e-10
0.00324116
-5.62362e-09
0.00324116
2.48272e-10
0.00324115
2.34291e-08
0.00324114
1.12201e-07
0.00324111
2.49275e-07
0.00324106
6.95305e-07
0.00324081
6.73512e-07
0.00324061
1.8366e-06
0.00324005
6.40864e-07
0.00324122
-1.78814e-05
0.00324247
-4.24193e-05
0.0031931
9.74403e-05
0.0031784
0.000230709
0.00309376
0.000253979
0.00301679
0.000249172
0.00294307
0.000258587
0.00286992
0.000267243
0.00279664
0.000278841
0.00272099
0.000290407
0.00263963
0.000301929
0.00255357
0.000313628
0.00246725
0.000325975
0.00238207
0.000339826
0.00229339
0.000355386
0.00219557
0.000371711
0.00208874
0.000387713
0.00197861
0.000403195
0.00187025
0.000418414
0.00176377
0.000432806
0.00165666
0.000444389
0.00154877
0.000452085
0.00143964
0.000455968
0.00132867
0.000457024
0.00121519
0.000456958
0.00109767
0.000457144
0.000977309
0.00045739
0.000857607
0.00045783
0.000739864
0.000456108
0.000624801
0.000447952
0.000513242
0.000430639
0.000405578
0.000405809
0.000301625
0.000380512
0.000200075
0.000365387
9.97566e-05
0.000369817
0.000403782
0.00336158
5.9636e-09
0.00336158
4.75213e-09
0.00336159
3.23817e-09
0.00336159
1.3371e-09
0.00336159
-4.80609e-09
0.00336159
-6.7812e-09
0.00336159
1.89712e-09
0.00336158
3.31782e-08
0.00336157
1.34314e-07
0.00336153
2.99055e-07
0.00336147
8.00372e-07
0.00336133
9.17518e-07
0.00336081
2.40548e-06
0.0033604
1.86844e-06
0.00335632
-1.30352e-05
0.00334683
-2.82981e-05
0.00328056
0.000168796
0.00324636
0.000267485
0.00318256
0.000319144
0.00310715
0.000325728
0.00303241
0.000334453
0.00295638
0.000343757
0.00288019
0.000356105
0.00280184
0.000369987
0.00271832
0.000384496
0.00263066
0.00039901
0.00254309
0.000414256
0.00245628
0.000431444
0.00236496
0.000450597
0.00226372
0.000470431
0.00215346
0.000489692
0.00204052
0.000508294
0.00193
0.000526693
0.00182146
0.000544161
0.0017123
0.000558474
0.00160228
0.00056849
0.00149084
0.000574342
0.0013773
0.000577082
0.00126093
0.000578404
0.00114011
0.000579521
0.00101653
0.000579924
0.000893709
0.000579947
0.000772653
0.000577017
0.000653804
0.000566742
0.000537804
0.000546563
0.00042509
0.000518516
0.000315566
0.000490212
0.000208827
0.000472449
0.000103562
0.000475685
0.000507666
0.00348648
5.22066e-09
0.00348648
3.61926e-09
0.00348649
3.96822e-10
0.00348649
-4.17459e-09
0.0034865
-8.55075e-09
0.0034865
-9.01928e-09
0.0034865
6.243e-09
0.00348648
4.8928e-08
0.00348645
1.75774e-07
0.00348637
3.88656e-07
0.00348621
9.99881e-07
0.00348582
1.41515e-06
0.00348511
3.17034e-06
0.00348386
3.93337e-06
0.00347902
-7.37623e-06
0.00346815
-1.31395e-05
0.00340042
0.00024306
0.00334391
0.000326869
0.00328149
0.000382467
0.00320706
0.000400773
0.00312939
0.000412695
0.00304967
0.000423545
0.00297
0.000436571
0.00288873
0.00045239
0.00280279
0.000469531
0.0027133
0.000486774
0.00262433
0.000504978
0.00253562
0.000525505
0.00244151
0.000548198
0.00233711
0.000571489
0.002224
0.000593991
0.00210873
0.000615747
0.00199611
0.000637329
0.0018854
0.000657907
0.00177406
0.000675
0.00166177
0.000687454
0.00154788
0.000695447
0.00143161
0.000700077
0.0013122
0.000702997
0.00118796
0.00070516
0.00106084
0.000705951
0.000934416
0.000705655
0.000809607
0.000701714
0.000686586
0.000689778
0.000565779
0.000667437
0.000447491
0.000636961
0.000331931
0.000606029
0.000218855
0.000585856
0.000108413
0.00058671
0.000616311
0.00361602
6.05513e-09
0.00361602
5.86308e-09
0.00361602
-1.51201e-10
0.00361602
-6.46829e-09
0.00361602
-1.10452e-08
0.00361603
-1.00363e-08
0.00361602
1.23822e-08
0.003616
6.71636e-08
0.00361596
2.25076e-07
0.00361586
4.98882e-07
0.00361565
1.25628e-06
0.00361514
2.04145e-06
0.00361421
4.14092e-06
0.00361274
6.24808e-06
0.0036055
7.17344e-07
0.0035929
3.58828e-06
0.00351907
0.000324671
0.00344904
0.000398357
0.00338352
0.000449019
0.00330977
0.000475426
0.00323104
0.000492261
0.00314898
0.000505815
0.00306661
0.000519781
0.00298257
0.000537478
0.00289412
0.000557057
0.00280252
0.000576938
0.00271153
0.000598063
0.00262056
0.000621892
0.00252366
0.000648067
0.00241617
0.000674747
0.00230016
0.000700498
0.00218248
0.000725448
0.0020678
0.000750276
0.00195498
0.000774044
0.00184153
0.000793988
0.00172707
0.000809007
0.00161081
0.000819311
0.00149192
0.000826013
0.00136963
0.000830708
0.00124201
0.00083418
0.00111118
0.00083551
0.000980702
0.000835289
0.000851418
0.000830891
0.000723308
0.000817954
0.000596682
0.000794194
0.000472069
0.000761788
0.000350033
0.000728405
0.000231113
0.000705193
0.00011409
0.000704291
0.000730709
0.00375037
6.98868e-09
0.00375037
8.26065e-09
0.00375037
4.38751e-10
0.00375037
-5.48554e-09
0.00375037
-9.2833e-09
0.00375037
-6.63769e-09
0.00375036
2.34222e-08
0.00375033
8.91958e-08
0.00375029
2.79144e-07
0.00375018
6.18283e-07
0.00374993
1.54573e-06
0.00374935
2.74263e-06
0.00374828
5.25129e-06
0.00374639
9.00757e-06
0.00373995
8.00443e-06
0.00372643
2.12142e-05
0.00364975
0.000409586
0.00356907
0.000480421
0.00349406
0.000524963
0.00341684
0.00055354
0.00333574
0.000574187
0.00325144
0.000590383
0.00316656
0.000605629
0.00308002
0.000625085
0.00298912
0.000646901
0.00289548
0.000669253
0.00280278
0.000693228
0.00270973
0.000720325
0.00261012
0.000749933
0.00249973
0.000779944
0.0023813
0.000808894
0.0022618
0.000837079
0.00214554
0.000865207
0.00203094
0.000892212
0.00191557
0.000915154
0.00179904
0.0009329
0.00168045
0.000945714
0.00155887
0.000954765
0.00143337
0.000961665
0.001302
0.000966606
0.00116742
0.0009689
0.00103292
0.00096916
0.000898994
0.000964834
0.000765571
0.000951566
0.000632988
0.000927062
0.000501608
0.000893594
0.000371985
0.000858587
0.000244532
0.00083324
0.000121408
0.000828257
0.000852426
0.00388972
5.88053e-09
0.00388972
6.29734e-09
0.00388972
4.38573e-09
0.00388971
2.36292e-10
0.00388971
-1.9951e-09
0.0038897
2.57997e-09
0.00388968
3.92957e-08
0.00388966
1.09538e-07
0.00388962
3.30319e-07
0.00388953
7.16271e-07
0.00388931
1.80456e-06
0.00388889
3.28025e-06
0.00388792
6.25605e-06
0.00388622
1.16216e-05
0.00388057
1.44615e-05
0.00386505
4.09048e-05
0.00378364
0.000499464
0.00369326
0.000571983
0.00360878
0.000610238
0.00352634
0.000636974
0.00344203
0.00065944
0.00335548
0.000677337
0.00326837
0.000693888
0.0031795
0.000714944
0.00308649
0.000738649
0.00299128
0.000763254
0.00289726
0.000790022
0.00280254
0.000820376
0.00270069
0.000853373
0.0025878
0.000886674
0.00246711
0.000918854
0.00234582
0.000950373
0.00222806
0.00098194
0.00211192
0.00101226
0.00199512
0.00103823
0.00187708
0.00105896
0.00175679
0.00107448
0.00163319
0.00108603
0.00150535
0.00109536
0.00137082
0.00110286
0.00123183
0.00110665
0.00109236
0.0011078
0.000953063
0.0011042
0.00081349
0.00109147
0.00067385
0.00106709
0.000534819
0.00103302
0.000397281
0.000996576
0.000262388
0.000968722
0.000128906
0.000962608
0.000981758
0.00403424
4.94013e-09
0.00403425
4.51893e-09
0.00403424
6.14547e-09
0.00403424
3.42577e-09
0.00403424
2.69504e-09
0.00403423
9.31564e-09
0.00403423
4.19672e-08
0.00403423
1.05691e-07
0.00403426
3.02597e-07
0.00403433
6.60288e-07
0.00403455
1.60911e-06
0.00403521
2.72679e-06
0.004034
7.49622e-06
0.00403553
1.08008e-05
0.00402691
2.38831e-05
0.00400808
6.39579e-05
0.00391753
0.000598589
0.00381752
0.000673528
0.00372533
0.000703247
0.00363752
0.000725761
0.00354973
0.000748118
0.0034611
0.000766375
0.00337225
0.000783988
0.00328135
0.000806463
0.00318646
0.000831822
0.00309014
0.000858517
0.00299538
0.000888043
0.00289935
0.000921635
0.0027954
0.000957945
0.00268047
0.000994428
0.00255856
0.00102978
0.0024368
0.00106466
0.00231863
0.00109973
0.00220156
0.0011334
0.00208362
0.00116249
0.00196428
0.00118626
0.00184231
0.0012049
0.00171639
0.00121964
0.00158552
0.00123228
0.00144759
0.00124208
0.00130491
0.00124784
0.00116081
0.00125108
0.00101585
0.00124939
0.000869583
0.00123828
0.000722215
0.00121517
0.000574379
0.00118173
0.000427142
0.0011448
0.0002812
0.00111552
0.000140022
0.00110488
0.00112221
0.00418414
4.17691e-09
0.00418414
3.44678e-09
0.00418414
5.74404e-09
0.00418414
4.24591e-09
0.00418414
5.16343e-09
0.00418413
1.23703e-08
0.00418413
4.28246e-08
0.00418413
1.03624e-07
0.00418413
3.08496e-07
0.0041841
6.982e-07
0.00418408
1.6433e-06
0.00418374
3.15566e-06
0.00418273
8.52786e-06
0.00418154
1.26973e-05
0.00417384
3.2343e-05
0.00415454
8.74495e-05
0.00405466
0.000707385
0.0039431
0.000786687
0.00384286
0.000804329
0.00374962
0.000819842
0.00365836
0.000840071
0.00356771
0.000857262
0.00347749
0.000875349
0.00338508
0.000899093
0.00328901
0.000925883
0.00319227
0.000954528
0.00309727
0.000986758
0.00300041
0.00102351
0.00289492
0.00106303
0.00277819
0.00110262
0.00265482
0.00114114
0.00253221
0.00117947
0.00241365
0.00121813
0.00229621
0.00125521
0.00217794
0.00128746
0.00205816
0.00131429
0.00193634
0.00133608
0.00181077
0.00135522
0.00167766
0.00137247
0.00153555
0.00138501
0.00138855
0.00139351
0.00123958
0.00139951
0.00108869
0.00140065
0.000935252
0.00139236
0.000779311
0.00137191
0.000621433
0.00134059
0.000462983
0.00130439
0.000306441
0.0012732
0.000150287
0.0012623
0.00127311
0.0043396
3.60827e-09
0.0043396
2.65846e-09
0.0043396
6.15159e-09
0.0043396
3.45067e-09
0.0043396
3.86583e-09
0.00433962
-3.02116e-09
0.00433963
2.87557e-08
0.00433973
-1.47396e-10
0.00433984
2.05076e-07
0.00434061
-6.66152e-08
0.00434103
1.2274e-06
0.00434059
3.67218e-06
0.00433889
1.02341e-05
0.00433643
1.58842e-05
0.00432595
4.34698e-05
0.00430458
0.000112963
0.0041931
0.00082812
0.00406767
0.000913748
0.00395909
0.000913731
0.00386095
0.000918755
0.00376692
0.000934672
0.00367512
0.000949343
0.00358405
0.000967425
0.00349038
0.000992273
0.00339363
0.00102033
0.00329735
0.00105074
0.00320295
0.00108554
0.00310564
0.00112526
0.00299891
0.00116767
0.00288163
0.00121013
0.00275915
0.00125187
0.00263823
0.0012939
0.00252112
0.00133645
0.00240429
0.00137709
0.00228621
0.00141275
0.00216608
0.00144285
0.00204425
0.00146853
0.00191833
0.00149282
0.00178339
0.00151379
0.0016384
0.00153066
0.00148691
0.00154353
0.00133224
0.00155349
0.00117457
0.00155874
0.0010129
0.00155482
0.000847287
0.00153843
0.000678297
0.00151048
0.000506921
0.00147666
0.000334519
0.00144654
0.000167095
0.00143094
0.00144082
0.00450084
3.19669e-09
0.00450084
2.27205e-09
0.00450084
6.44611e-09
0.00450084
9.52168e-10
0.00450084
-3.62788e-11
0.00450087
-2.82555e-08
0.0045009
-2.0608e-09
0.00450105
-1.58494e-07
0.00450127
6.62619e-09
0.00450248
-1.36583e-06
0.004502
1.89507e-06
0.00449963
4.89598e-06
0.00449871
1.21952e-05
0.00449626
1.91904e-05
0.00448409
5.59356e-05
0.00445936
0.000142054
0.00433069
0.000966279
0.00418751
0.00105858
0.00407002
0.00103196
0.00396805
0.00102136
0.0038726
0.00103053
0.00378096
0.0010413
0.00369007
0.00105932
0.00359637
0.00108519
0.00350022
0.00111426
0.00340525
0.00114615
0.003312
0.00118317
0.00321509
0.00122548
0.00310831
0.00127086
0.00299137
0.00131604
0.00287026
0.00136074
0.00275154
0.00140612
0.00263674
0.00145222
0.00252187
0.00149628
0.00240551
0.0015355
0.00228738
0.00156941
0.00216845
0.00160075
0.00204158
0.00163058
0.00190444
0.00165593
0.00175726
0.00167784
0.00160237
0.00169644
0.00144241
0.00171239
0.00127777
0.00172391
0.00110708
0.00172662
0.000929958
0.00171697
0.00074721
0.00169483
0.000560719
0.00166474
0.000373084
0.00163557
0.00018304
0.00162255
0.0016249
0.00466807
2.95864e-09
0.00466806
2.4358e-09
0.00466807
1.61668e-09
0.00466806
7.54135e-09
0.00466804
1.93682e-08
0.00466793
7.91847e-08
0.0046678
1.61304e-07
0.00466698
5.30772e-07
0.00466608
9.97129e-07
0.004666
3.05601e-06
0.00466314
3.17568e-06
0.00461355
3.86376e-06
0.00465994
1.33527e-05
0.00465277
2.23763e-05
0.0046412
6.97542e-05
0.00461419
0.000177844
0.00445235
0.00113654
0.00428485
0.00122766
0.00416189
0.0011557
0.00406171
0.001122
0.00396975
0.00112277
0.0038808
0.00113058
0.00379187
0.00114903
0.00369945
0.00117636
0.00360548
0.00120618
0.00351354
0.00123937
0.00342312
0.00127844
0.00332881
0.00132301
0.00322389
0.00137095
0.00310909
0.00141861
0.00299105
0.00146645
0.00287592
0.00151544
0.00276467
0.00156527
0.00265312
0.00161282
0.00253982
0.00165565
0.00242556
0.00169395
0.00231047
0.00173174
0.00218454
0.00176708
0.0020468
0.00179875
0.00189767
0.00182752
0.00173956
0.00185309
0.00157493
0.00187645
0.00140328
0.00189636
0.00122327
0.001908
0.00103426
0.00190772
0.000835948
0.00189508
0.00062964
0.00187309
0.000418476
0.00184874
0.000210465
0.00183247
0.00183639
0.00484151
2.8477e-09
0.00484151
2.22111e-09
0.00484151
1.89119e-09
0.00484151
5.1178e-09
0.00484151
1.63188e-08
0.00484155
4.6486e-08
0.0048416
1.28645e-07
0.00484155
3.37378e-07
0.00484292
7.70346e-07
0.00484056
1.99115e-06
0.00484534
4.26446e-06
0.00480034
2.37537e-06
0.00483753
1.7916e-05
0.00485056
6.85753e-06
0.00481215
0.000110028
0.00477323
0.000225614
0.00457968
0.00133837
0.0043688
0.00144008
0.00423891
0.00128647
0.00414321
0.0012179
0.00405746
0.00120882
0.00397516
0.0012136
0.00388949
0.00123518
0.00380008
0.00126434
0.00371146
0.00129408
0.00362554
0.0013279
0.00353967
0.00136856
0.00344881
0.00141511
0.00334696
0.00146486
0.00323742
0.00151509
0.00312619
0.00156641
0.00301811
0.0016195
0.00291293
0.00167352
0.00280656
0.00172504
0.00269781
0.00177195
0.00258871
0.00181542
0.00247682
0.00186045
0.00235291
0.00190159
0.00221676
0.00194064
0.00206777
0.00197847
0.00190623
0.00201349
0.00173652
0.00204617
0.00155785
0.00207655
0.00136751
0.0021005
0.00116429
0.00211339
0.000948436
0.00211335
0.000720742
0.00210288
0.000483738
0.00208746
0.000238192
0.00207962
0.00207586
0.00502139
2.45055e-09
0.00502139
1.85438e-09
0.00502139
1.75925e-09
0.0050214
8.1638e-10
0.00502141
8.78409e-09
0.00502145
1.73499e-08
0.00502149
8.62473e-08
0.00502166
1.387e-07
0.00502145
5.65154e-07
0.00502409
6.88385e-07
0.00502043
3.39869e-06
0.00504386
-8.81348e-06
0.00502141
3.25049e-05
0.00507616
-5.71781e-05
0.00496006
0.000233265
0.00503431
0.000161039
0.00477504
0.00160428
0.00450836
0.00170796
0.00434998
0.0014455
0.00426415
0.00130388
0.00417462
0.00129851
0.00409222
0.00129654
0.00400092
0.00132663
0.00390994
0.00135415
0.00382331
0.00138067
0.0037413
0.00141281
0.0036601
0.00145318
0.00357473
0.00150036
0.00347916
0.001551
0.00337763
0.00160336
0.00327591
0.00165764
0.00317756
0.00171433
0.00308095
0.00177222
0.00298218
0.00182801
0.00288083
0.00187989
0.00278055
0.00193062
0.00267292
0.00198348
0.00255224
0.00203231
0.00241883
0.0020799
0.00227243
0.00212754
0.00211047
0.00217432
0.00193724
0.00221922
0.00175238
0.00226291
0.0015529
0.00230217
0.0013357
0.00233309
0.00109841
0.00235329
0.000841862
0.00236211
0.000569287
0.0023626
0.00029015
0.00236091
0.00236747
0.00520796
1.60922e-09
0.00520797
1.53227e-09
0.00520797
2.18588e-11
0.00520798
-3.3198e-09
0.00520799
-6.94408e-09
0.00520803
-1.84973e-08
0.00520814
-1.48791e-08
0.00520833
-8.37431e-08
0.00520898
-5.59689e-08
0.00521054
-8.10822e-07
0.00521267
-1.42355e-06
0.00520808
-2.07619e-06
0.00523709
1.93417e-06
0.0051774
4.31194e-06
0.00534574
6.61309e-05
0.00520208
0.000308528
0.00559925
0.00121628
0.00537417
0.00193612
0.00503205
0.00178913
0.00483646
0.00149984
0.00467261
0.00146287
0.00452271
0.00144764
0.00437165
0.00147788
0.00423163
0.0014931
0.00410547
0.00150813
0.00399252
0.00153008
0.00388664
0.00156212
0.00378214
0.00160216
0.00367544
0.00164728
0.00356924
0.00169618
0.00346758
0.0017493
0.00337246
0.00180649
0.003281
0.00186595
0.00318849
0.00192445
0.0030954
0.00198074
0.00300606
0.00203906
0.00290575
0.00209943
0.0027908
0.00215737
0.0026618
0.00221456
0.00251877
0.00227317
0.00235902
0.00233241
0.00218564
0.00239152
0.00199685
0.00245288
0.0017889
0.00251231
0.00155912
0.00256528
0.00130393
0.00261099
0.00101783
0.00265079
0.000700389
0.00268255
0.000352679
0.00271165
0.00272236
0.00540147
1.07096e-09
0.00540147
8.7531e-10
0.00540147
5.25359e-10
0.00540146
1.42278e-09
0.00540145
6.6841e-09
0.00540141
2.41749e-08
0.00540133
6.08945e-08
0.00540109
1.53463e-07
0.00540077
2.68294e-07
0.00539904
9.04182e-07
0.00539618
1.39836e-06
0.00538955
4.57737e-06
0.00538113
1.02811e-05
0.00536796
1.79448e-05
0.00536846
6.62313e-05
0.00552722
0.000151046
0.00617152
0.000577518
0.00607526
0.00203725
0.00583532
0.00203094
0.00554253
0.00179192
0.00531092
0.00169479
0.00510083
0.00165896
0.00492205
0.00165669
0.00473913
0.00167465
0.00456854
0.00167963
0.00441321
0.00168923
0.00426894
0.00170908
0.00412997
0.00173791
0.00399336
0.00177217
0.00386496
0.00181249
0.00374839
0.00185907
0.00364427
0.00191182
0.00354872
0.00196888
0.00345578
0.00202682
0.00336534
0.00208496
0.00328031
0.00214669
0.00318645
0.00221049
0.00307886
0.00227573
0.00295643
0.0023431
0.00281862
0.00241309
0.00266422
0.00248523
0.00249464
0.00255977
0.00230859
0.00263954
0.0021008
0.00272175
0.00186259
0.00280696
0.00158833
0.00288893
0.00127294
0.00296955
0.000905572
0.00305281
0.00048389
0.00313564
0.00320867
0.00560216
4.83144e-10
0.00560216
2.78104e-10
0.00560216
6.51082e-10
0.00560216
3.4963e-09
0.00560215
9.51769e-09
0.00560215
2.62162e-08
0.00560215
6.69601e-08
0.00560219
1.13135e-07
0.00560219
2.50896e-07
0.00560195
5.0488e-07
0.00561391
6.2449e-07
0.00560191
4.35768e-06
0.00561827
4.80185e-06
0.00561077
2.57275e-05
0.00562229
3.67145e-05
0.00564024
0.000137393
0.00583558
0.000395165
0.00597396
0.00190226
0.00597262
0.00203338
0.00579592
0.00196772
0.00564202
0.00184817
0.00548321
0.001818
0.00532964
0.00180966
0.00517824
0.00182501
0.00502033
0.00183925
0.00486248
0.00185113
0.0047063
0.00186704
0.00455117
0.00188877
0.00439964
0.00191524
0.00425698
0.00194754
0.00412746
0.00198672
0.0040118
0.00203299
0.00390642
0.0020848
0.00380752
0.00213787
0.00371491
0.00219358
0.0036257
0.0022573
0.00352845
0.00232348
0.00342328
0.00239127
0.00330791
0.00246417
0.00317931
0.00254344
0.00303635
0.00262797
0.0028773
0.00271781
0.00270144
0.00281566
0.00250395
0.00292046
0.00227865
0.00303471
0.00200576
0.00316517
0.00167355
0.00330565
0.00126
0.00347028
0.000723561
0.00367582
0.00393517
0.00581031
6.11177e-11
0.00581031
3.75035e-10
0.00581031
9.89554e-10
0.0058103
4.30165e-09
0.00581031
5.76112e-09
0.00581031
2.47147e-08
0.00581035
1.39016e-08
0.00581037
1.16887e-07
0.00581072
1.83333e-08
0.00581066
3.76085e-07
0.00581187
1.02775e-08
0.00580857
5.54952e-06
0.00582962
-5.36845e-06
0.00578998
4.80532e-05
0.00587698
-2.81712e-05
0.00577403
0.00022963
0.00589852
0.000267367
0.00588841
0.00192071
0.00583562
0.00208742
0.00579111
0.00201131
0.00573037
0.00190777
0.00565145
0.00189604
0.00556213
0.00189851
0.00546177
0.00192454
0.00534898
0.00195315
0.00522656
0.00197678
0.00509587
0.00199942
0.00495608
0.00202392
0.00481213
0.00205061
0.00467271
0.00207981
0.00454358
0.00211435
0.00442612
0.002155
0.00431882
0.00219874
0.00421796
0.00224769
0.0041223
0.00230372
0.00402958
0.00236407
0.00393454
0.00242865
0.00383353
0.00249832
0.00372721
0.00257418
0.00361301
0.00265917
0.00348764
0.00275287
0.00335041
0.00285518
0.00319879
0.00296897
0.00302738
0.0030943
0.00283218
0.00323338
0.00260261
0.00339912
0.0023081
0.00360419
0.0019169
0.00386558
0.00137412
0.00422258
0.0053129
0.00840003
-2.27042e-12
0.00840003
4.4078e-11
0.00840003
8.98572e-11
0.00840004
2.92823e-10
0.00840004
1.04672e-09
0.00840006
2.56718e-09
0.00840008
2.14397e-09
0.00840018
2.15277e-08
0.00840005
1.22482e-08
0.0083994
1.53508e-07
0.00840093
1.09659e-07
0.00842988
9.01377e-07
0.0084058
1.22597e-06
0.00844913
1.04658e-05
0.00840192
3.09127e-05
0.00851269
0.0001111
0.00828205
0.000490888
0.00820538
0.00199489
0.00804205
0.00225591
0.00797236
0.0020841
0.00789896
0.00197904
0.00783014
0.00196391
0.0077632
0.0019649
0.0076853
0.0020015
0.00759796
0.00204144
0.00749844
0.0020782
0.00738596
0.00211277
0.00726032
0.00214738
0.00711762
0.00218156
0.00697061
0.00221476
0.00683078
0.0022486
0.00670041
0.00228574
0.00657257
0.00232867
0.00645113
0.00237479
0.00634247
0.00242364
0.00623731
0.00247919
0.00613101
0.00254096
0.00602319
0.00260787
0.00591273
0.00268283
0.00580363
0.00276605
0.00569562
0.00285881
0.00558692
0.00296278
0.00548289
0.00307476
0.00537911
0.00320187
0.00528378
0.00333438
0.00521259
0.00347878
0.00520035
0.00362453
0.0053216
0.00375116
0.00574181
0.00380857
0.00350961
0.00754983
0.00840003
-4.14771e-11
0.00840003
-2.35486e-10
0.00840003
-7.02025e-10
0.00840003
-1.84982e-09
0.00840004
-3.57823e-09
0.00840006
-8.97557e-09
0.00840004
-7.08422e-09
0.00840011
-2.3385e-08
0.00840005
-2.22907e-10
0.00839927
6.90104e-08
0.00840041
-1.42583e-08
0.0084239
-4.26627e-07
0.00840302
2.95492e-06
0.0084213
2.60486e-06
0.0084126
4.98286e-05
0.00840624
0.000106238
0.00836075
0.000527705
0.0085376
0.00181176
0.00833635
0.00246789
0.00813543
0.00229443
0.00804476
0.00207412
0.00796057
0.00205205
0.00785941
0.00206943
0.00777595
0.0020868
0.00769485
0.00212442
0.00761545
0.00215996
0.00753434
0.00219531
0.00744799
0.00223262
0.00735128
0.00226915
0.00724998
0.00230278
0.00715147
0.00233845
0.00705465
0.00237862
0.00696145
0.00241911
0.00687563
0.00245982
0.00679879
0.00250453
0.00672916
0.00255378
0.00666252
0.00260961
0.0065978
0.00267051
0.00654047
0.0027367
0.00648764
0.00281202
0.00644735
0.00289178
0.00642267
0.00297988
0.00642016
0.00307174
0.00645458
0.00316533
0.00653043
0.00326016
0.00667858
0.003336
0.00691157
0.0034001
0.00727747
0.00339406
0.00774273
0.00335183
0.0029917
0.00826772
0.00840003
6.32276e-11
0.00840003
3.17439e-10
0.00840003
1.10262e-09
0.00840002
2.59845e-09
0.00840001
7.1767e-09
0.00839999
1.5561e-08
0.00839994
3.8611e-08
0.00839983
8.48674e-08
0.00839964
1.93754e-07
0.00839929
4.12591e-07
0.00839817
1.04985e-06
0.00839623
1.81199e-06
0.00839307
5.62968e-06
0.00838499
1.17294e-05
0.00840643
2.70067e-05
0.00842875
8.27275e-05
0.0087211
0.000235702
0.0097398
0.000783261
0.00950744
0.00270511
0.00919243
0.00261399
0.00889224
0.00237437
0.00865535
0.00228894
0.00848137
0.00224402
0.00831906
0.00224906
0.00817324
0.00226956
0.00804114
0.0022917
0.00792289
0.0023143
0.00781692
0.00233865
0.00771512
0.00236548
0.00761249
0.00239428
0.0075157
0.00242433
0.0074332
0.00245482
0.00736039
0.00248801
0.0072947
0.00252298
0.00724068
0.00255956
0.00719757
0.00259996
0.0071653
0.00264375
0.00713949
0.00269389
0.00712517
0.00274642
0.00712829
0.00280378
0.0071467
0.00286654
0.00719216
0.00292739
0.00726351
0.00299369
0.00737682
0.00304618
0.00753234
0.00310022
0.0077449
0.00312056
0.00801026
0.003134
0.00832318
0.00308219
0.00867733
0.00299989
0.00278696
0.00888584
0.00840003
2.41977e-11
0.00840003
1.16703e-10
0.00840003
4.73791e-10
0.00840003
1.10281e-09
0.00840004
3.31806e-09
0.00840005
6.86076e-09
0.00840006
2.1648e-08
0.00840013
3.89911e-08
0.00840018
1.15732e-07
0.00840035
2.14242e-07
0.00840098
5.78009e-07
0.00840266
1.01123e-06
0.00839957
4.37318e-06
0.00842857
7.42471e-06
0.00839198
2.62042e-05
0.00845043
4.83934e-05
0.00849778
0.000185201
0.00873326
0.000534525
0.00899815
0.00244714
0.0090318
0.0025805
0.00885806
0.00254424
0.00875947
0.00238421
0.00865514
0.00234693
0.008555
0.00234901
0.00845802
0.00236707
0.0083619
0.00238856
0.00826913
0.00240865
0.00818094
0.00242815
0.0080937
0.00244957
0.00800543
0.00247365
0.00791976
0.00249767
0.00784379
0.00252067
0.00778148
0.00254484
0.00772964
0.00257153
0.00768887
0.00259863
0.00766291
0.00262791
0.00764947
0.00265882
0.00765337
0.00269243
0.00766878
0.00273079
0.00770575
0.00276618
0.00776284
0.0028083
0.00784723
0.00284171
0.00795884
0.00288066
0.00810317
0.00290071
0.00827998
0.00292216
0.00848811
0.00291161
0.00872737
0.00289296
0.0089767
0.00283172
0.00925891
0.00271737
0.00260527
0.00944028
0.00840003
1.36078e-11
0.00840003
9.28807e-12
0.00840003
1.76725e-10
0.00840003
9.22661e-11
0.00840003
1.06318e-09
0.00840005
6.72295e-11
0.00840005
9.84165e-09
0.00840012
-5.33102e-09
0.00840012
7.63604e-08
0.00840059
-1.72092e-08
0.00840005
2.54647e-07
0.00840814
5.24898e-09
0.00839763
3.39807e-06
0.0084986
-2.98678e-06
0.00840895
3.92754e-05
0.0084424
-3.83499e-06
0.00838688
0.00024986
0.00851001
0.0004063
0.0085686
0.00238537
0.00845829
0.00269079
0.00846593
0.00253539
0.00847464
0.00237143
0.00846292
0.00235553
0.00845047
0.00235963
0.00843452
0.00238331
0.00841219
0.00241052
0.0083851
0.00243526
0.00835371
0.00245798
0.00831809
0.00248186
0.00827884
0.00250719
0.00823328
0.00253081
0.00818482
0.00255196
0.00814761
0.00257229
0.00812003
0.00259298
0.00810174
0.00261279
0.00809603
0.00263207
0.00810458
0.00265289
0.00812998
0.00267153
0.00817027
0.00269467
0.00822828
0.00271145
0.00830585
0.00273318
0.00840552
0.00274435
0.00853023
0.00275822
0.00867601
0.00275732
0.00885067
0.00275131
0.0090369
0.00272767
0.00924724
0.00268658
0.0094744
0.00260651
0.00965757
0.00253535
0.00241945
0.00984406
0.00840003
2.93236e-12
0.00840003
2.06762e-11
0.00840003
6.33528e-11
0.00840003
1.84762e-10
0.00840003
4.45048e-10
0.00840003
9.14353e-10
0.00840004
2.89107e-09
0.00840002
1.61232e-08
0.00840005
3.76047e-08
0.00839968
1.18936e-07
0.00840113
3.92623e-07
0.00839461
6.09006e-07
0.00843102
1.5186e-06
0.00838604
4.62259e-06
0.00845947
1.30699e-05
0.00839747
4.55432e-05
0.00846584
0.000131941
0.00828684
0.000590216
0.00851286
0.00216566
0.00845674
0.00275328
0.00838928
0.00260692
0.00837154
0.00239023
0.0083868
0.00234177
0.00837982
0.00236952
0.00838907
0.00237717
0.00839981
0.00240164
0.0084129
0.00242252
0.00842276
0.00244715
0.00842613
0.0024749
0.00842643
0.00249909
0.0084245
0.00252219
0.00841835
0.0025432
0.00841565
0.00256217
0.00841796
0.00257911
0.00842759
0.00259392
0.00844615
0.00260613
0.00847705
0.0026186
0.00852083
0.00262633
0.00857956
0.00263647
0.00865226
0.00263962
0.00874256
0.00264342
0.00884743
0.00264014
0.00897541
0.00263185
0.00911606
0.00261799
0.00927826
0.00259196
0.00945037
0.00255893
0.00963969
0.00250041
0.00981268
0.00243827
0.0099867
0.00236487
0.00226074
0.0101486
0.00840003
-7.73434e-13
0.00840003