/*--------------------------------*- C++ -*----------------------------------*\
| =========                 |                                                 |
| \\      /  F ield         | OpenFOAM: The Open Source CFD Toolbox           |
|  \\    /   O peration     | Version:  2112                                  |
|   \\  /    A nd           | Website:  www.openfoam.com                      |
|    \\/     M anipulation  |                                                 |
\*---------------------------------------------------------------------------*/
FoamFile
{
    version     2.0;
    format      ascii;
    arch        "LSB;label=32;scalar=64";
    class       volScalarField;
    location    "9";
    object      T;
}
// * * * * * * * * * * * * * * * * * * * * * * * * * * * * * * * * * * * * * //

dimensions      [0 0 0 1 0 0 0];

internalField   nonuniform List<scalar> 
7000
(
0.999999
1
0.999997
1
1.00002
1.00021
1.00046
1.00194
1.00311
1.01074
1.01846
1.04279
1.12875
1.31157
1.77737
2.59545
2.7178
2.69835
2.67598
2.66943
2.67402
2.67999
2.68953
2.69729
2.70147
2.70712
2.71597
2.72295
2.72571
2.73017
2.74332
2.76334
2.78075
2.7887
2.78896
2.78537
2.77893
2.77104
2.76316
2.75791
2.7604
2.76532
2.76691
2.76681
2.76689
2.76687
2.7661
2.76469
2.76033
2.75521
0.999999
1
0.999997
1.00001
1.00002
1.00021
1.00045
1.00189
1.00302
1.01036
1.01786
1.04063
1.12579
1.30018
1.76875
2.58776
2.71998
2.69221
2.68087
2.67273
2.67697
2.68348
2.69215
2.69898
2.70301
2.70978
2.71959
2.72639
2.72854
2.73288
2.74617
2.76599
2.78282
2.79018
2.79019
2.78644
2.77991
2.772
2.76419
2.75938
2.76241
2.76715
2.76858
2.76832
2.76786
2.76742
2.76652
2.76515
2.76033
2.75448
0.999999
1
0.999997
1.00001
1.00002
1.00021
1.00044
1.00186
1.00296
1.01015
1.0175
1.03982
1.12375
1.29494
1.76486
2.5896
2.71964
2.69365
2.6829
2.67399
2.67752
2.68421
2.69217
2.69812
2.70234
2.7103
2.72042
2.72644
2.72818
2.73308
2.74712
2.76683
2.78264
2.78906
2.78875
2.78488
2.77838
2.77059
2.76312
2.75908
2.76273
2.76742
2.76884
2.76864
2.76817
2.76764
2.76649
2.76478
2.75926
2.75404
0.999999
1
0.999997
1.00001
1.00002
1.00022
1.00044
1.00182
1.00289
1.00988
1.01704
1.03878
1.12098
1.28822
1.75615
2.57894
2.71879
2.68683
2.68582
2.67554
2.67849
2.68487
2.69218
2.69812
2.7036
2.71269
2.72252
2.72747
2.72861
2.73373
2.74814
2.76771
2.78299
2.78888
2.7883
2.7841
2.77735
2.76954
2.76227
2.75875
2.76273
2.76731
2.76873
2.76853
2.76789
2.76698
2.76572
2.76414
2.7591
2.7536
0.999999
1
0.999996
1.00001
1.00002
1.00022
1.00043
1.00177
1.00281
1.0096
1.01657
1.03752
1.11849
1.28156
1.74941
2.57685
2.71318
2.6866
2.68496
2.67533
2.67791
2.68486
2.69275
2.69953
2.70569
2.71468
2.72346
2.72709
2.7277
2.73326
2.74841
2.76824
2.78299
2.78811
2.78714
2.78273
2.77592
2.76815
2.76103
2.75789
2.76235
2.76694
2.76822
2.76801
2.76755
2.76694
2.76569
2.76417
2.75823
2.75332
0.999999
1
0.999997
1.00001
1.00002
1.00022
1.00043
1.00172
1.00272
1.00929
1.01605
1.03628
1.1156
1.27464
1.74093
2.57296
2.70622
2.6917
2.68322
2.67449
2.6771
2.6845
2.69266
2.69969
2.70597
2.7148
2.72268
2.72538
2.72619
2.7327
2.74848
2.7681
2.78219
2.78684
2.78568
2.78108
2.77418
2.76645
2.7595
2.75683
2.76156
2.76634
2.76781
2.76758
2.76677
2.76539
2.76332
2.76114
2.7558
2.75114
1
1
0.999998
1.00001
1.00002
1.00022
1.00042
1.00166
1.00261
1.00892
1.01545
1.03475
1.1126
1.26702
1.73174
2.56705
2.69897
2.69694
2.68346
2.6744
2.67673
2.68376
2.69173
2.69878
2.70527
2.71383
2.72118
2.72366
2.72474
2.73197
2.74828
2.76788
2.78152
2.78573
2.78435
2.77954
2.77248
2.76473
2.75783
2.75516
2.75981
2.76464
2.76636
2.76635
2.7658
2.76494
2.76347
2.76173
2.75468
2.7513
1
1
1
1.00001
1.00002
1.00021
1.0004
1.00159
1.00249
1.00849
1.01475
1.03288
1.10941
1.25857
1.72098
2.55317
2.69539
2.69529
2.68395
2.67486
2.67712
2.68404
2.69166
2.6984
2.70471
2.71315
2.71993
2.72196
2.72345
2.73154
2.74828
2.76739
2.7801
2.78363
2.7819
2.77688
2.7698
2.76223
2.75563
2.75382
2.75919
2.76383
2.76508
2.76478
2.76384
2.76216
2.75976
2.75742
2.75357
2.74791
0.999999
1
1
1.00002
1.00002
1.00021
1.00038
1.0015
1.00234
1.00798
1.01394
1.03063
1.10601
1.24935
1.70901
2.53625
2.69063
2.69303
2.68426
2.67514
2.67736
2.68419
2.69159
2.69801
2.70439
2.71256
2.71877
2.72051
2.72231
2.73102
2.74811
2.76702
2.77926
2.7825
2.7806
2.77518
2.7678
2.76012
2.75338
2.75048
2.75534
2.76096
2.76315
2.76313
2.76239
2.76112
2.75898
2.75654
2.74863
2.74797
0.999999
1
1
1.00002
1.00002
1.0002
1.00036
1.0014
1.00217
1.00735
1.01299
1.02771
1.1024
1.23937
1.69606
2.51825
2.68248
2.69229
2.68366
2.67465
2.6769
2.68389
2.69105
2.69739
2.70398
2.71205
2.71754
2.71883
2.72114
2.73077
2.74793
2.7657
2.77637
2.77871
2.77651
2.77104
2.7635
2.75614
2.75031
2.74843
2.75333
2.75827
2.76007
2.76001
2.7593
2.75799
2.75577
2.75283
2.7486
2.74243
0.999999
1
1
1.00002
1.00002
1.00019
1.00034
1.0013
1.00201
1.00682
1.01215
1.02569
1.09759
1.22793
1.67849
2.49682
2.67216
2.69231
2.68342
2.67429
2.67649
2.68356
2.69061
2.69685
2.70357
2.71121
2.71589
2.71689
2.71965
2.72998
2.74764
2.76543
2.77584
2.77796
2.77571
2.77029
2.76266
2.75337
2.74504
2.74427
2.75042
2.75563
2.75725
2.75697
2.75583
2.75402
2.75174
2.74983
2.74108
2.74282
0.999999
1
1
1.00002
1.00002
1.00018
1.00032
1.00121
1.00185
1.00629
1.01128
1.02343
1.09252
1.21518
1.65808
2.46997
2.65957
2.6925
2.68339
2.67405
2.67613
2.68321
2.6899
2.6963
2.70332
2.71046
2.71404
2.71472
2.71842
2.72979
2.74701
2.76286
2.77122
2.77241
2.77001
2.76501
2.75786
2.74849
2.74005
2.73882
2.74468
2.75074
2.7532
2.75331
2.75248
2.7505
2.74727
2.74403
2.74054
2.73399
1
1
1
1.00001
1.00002
1.00016
1.00028
1.00105
1.00158
1.00538
1.0101
1.02066
1.08685
1.20138
1.63433
2.43575
2.64427
2.69293
2.68354
2.67407
2.676
2.6831
2.68942
2.69566
2.70246
2.70886
2.71175
2.71258
2.71711
2.72924
2.74641
2.76133
2.76857
2.76921
2.76667
2.76168
2.75293
2.74189
2.73558
2.73532
2.74027
2.74583
2.74842
2.74842
2.7476
2.74643
2.7443
2.74116
2.73119
2.73474
1
0.999999
1
1.00001
1.00007
1.00014
1.00057
1.00089
1.0034
1.00313
1.01067
1.01693
1.08014
1.18686
1.60695
2.39219
2.62621
2.6942
2.68429
2.67445
2.67599
2.68304
2.68917
2.69551
2.70222
2.70787
2.7101
2.71102
2.71572
2.72845
2.74538
2.75946
2.766
2.76648
2.76415
2.75898
2.74842
2.73676
2.73056
2.73051
2.73602
2.74102
2.74279
2.74263
2.74114
2.73835
2.73528
2.73288
2.72948
2.72044
1
1
1
1.00001
1.00002
1.00012
1.00023
1.0007
1.00145
1.00325
1.0093
1.01347
1.07251
1.16906
1.57138
2.33251
2.60266
2.69609
2.68626
2.67531
2.6763
2.68256
2.68809
2.6946
2.70059
2.70445
2.7058
2.70754
2.71397
2.72729
2.74286
2.75465
2.75947
2.75948
2.75731
2.75217
2.74095
2.73076
2.72454
2.72298
2.72785
2.73388
2.73626
2.73576
2.73471
2.73305
2.72937
2.72476
2.71533
2.7209
1
1
1
1.00001
1.00002
1.0001
1.00017
1.00056
1.00106
1.00248
1.00771
1.00691
1.06477
1.14383
1.53159
2.25428
2.56903
2.69484
2.68608
2.67522
2.67628
2.68278
2.68868
2.69514
2.70054
2.70371
2.70496
2.7071
2.71391
2.72706
2.74106
2.75057
2.75375
2.75329
2.751
2.74443
2.73219
2.72331
2.71799
2.7159
2.71829
2.72361
2.72602
2.72595
2.72336
2.72037
2.7183
2.71609
2.71188
2.69978
1
1
1
1
1.00002
1.00004
1.00015
1.00025
1.00066
1.00187
1.00166
1.01951
1.04774
1.1657
1.37772
1.95048
2.51594
2.6872
2.67878
2.6628
2.66317
2.67046
2.67652
2.68489
2.69122
2.6945
2.69671
2.70167
2.71118
2.72483
2.73862
2.74778
2.75088
2.7506
2.74807
2.73886
2.72434
2.71513
2.70981
2.70797
2.7097
2.71418
2.71624
2.71548
2.71515
2.71141
2.70439
2.69872
2.69048
2.69557
1
1
1
1.00001
1.00004
1.00007
1.00025
1.00042
1.00109
1.00252
1.00764
1.01608
1.04802
1.12125
1.3206
1.75196
2.51806
2.67771
2.65535
2.65306
2.6462
2.65731
2.66285
2.67277
2.68006
2.6839
2.68597
2.69023
2.70069
2.71537
2.72923
2.73826
2.74153
2.74148
2.73902
2.72999
2.7171
2.70718
2.70145
2.69826
2.69878
2.70249
2.70281
2.70132
2.69636
2.69603
2.69115
2.6835
2.67344
2.65958
1
1
1
1.00001
1.00003
1.00004
1.00015
1.00026
1.00057
1.00231
1.0014
1.01466
1.0334
1.11573
1.2762
1.7358
2.53825
2.67951
2.66147
2.65488
2.64481
2.64929
2.65674
2.66539
2.67236
2.6758
2.67825
2.68314
2.6917
2.70218
2.71171
2.71757
2.71957
2.71944
2.71781
2.71126
2.70318
2.69683
2.69138
2.68847
2.68808
2.68955
2.68967
2.68772
2.68203
2.66896
2.66475
2.65268
2.63821
2.63147
1
1
1
1.00001
1.00002
1.00003
1.00006
1.00023
1.00035
1.00214
1.00136
1.01349
1.02374
1.09973
1.22929
1.68803
2.49745
2.66537
2.67365
2.66253
2.65007
2.65035
2.65517
2.66102
2.66682
2.66926
2.67095
2.67472
2.68252
2.69149
2.69829
2.70134
2.70162
2.70085
2.69734
2.69146
2.68558
2.68135
2.67864
2.67435
2.67226
2.67131
2.66877
2.66693
2.66219
2.65101
2.62921
2.61365
2.57726
2.47726
1
1
1
1
1.00001
1.00001
1.00008
1.00013
1.00059
1.00076
1.00486
1.00185
1.03014
1.0713
1.25078
1.58646
2.25249
2.6201
2.68493
2.67356
2.66329
2.66077
2.66274
2.66566
2.66835
2.66889
2.66938
2.67064
2.67452
2.68159
2.6871
2.68891
2.68879
2.68744
2.68379
2.67621
2.67042
2.66528
2.66119
2.65818
2.65217
2.64653
2.63916
2.62686
2.61698
2.59757
2.57619
2.52909
2.47884
2.36503
1
1
1
1
1.00001
1.00001
1.00006
1.0001
1.00044
1.00066
1.00405
1.00193
1.02447
1.06119
1.20139
1.46846
2.08852
2.53851
2.66727
2.65818
2.65154
2.65139
2.65509
2.65893
2.66382
2.66599
2.66616
2.66667
2.66887
2.67445
2.6794
2.68112
2.68073
2.67939
2.67523
2.66971
2.66072
2.65522
2.64825
2.64109
2.63602
2.62561
2.61743
2.60023
2.58073
2.55385
2.51326
2.46977
2.3835
2.31779
1
1
1
1.00001
1.00001
1.00004
1.00007
1.00025
1.00041
1.00144
1.00254
1.00832
1.01738
1.05124
1.12837
1.33679
1.75836
2.49838
2.66258
2.63868
2.6283
2.61937
2.62301
2.62965
2.63676
2.64369
2.64894
2.65253
2.65613
2.66164
2.66842
2.67186
2.67222
2.67152
2.66893
2.66316
2.65616
2.64633
2.64034
2.62947
2.61971
2.60868
2.59273
2.57887
2.55166
2.52912
2.48301
2.44594
2.3722
2.32217
1
1
1
1
1
1
1.00003
1.00006
1.00026
1.00043
1.00266
1.00142
1.01592
1.03236
1.11502
1.27243
1.73323
2.52899
2.66619
2.64758
2.63614
2.62158
2.61927
2.62302
2.62594
2.62902
2.63135
2.63304
2.63525
2.63962
2.64545
2.65177
2.65518
2.65547
2.65478
2.65119
2.64668
2.63849
2.62874
2.62082
2.60614
2.59593
2.57542
2.56147
2.53234
2.51277
2.47069
2.44264
2.3839
2.34466
1
1
1
1
1
1
1.00002
1.00003
1.00019
1.0003
1.00184
1.00146
1.01154
1.0186
1.093
1.21727
1.66669
2.46774
2.63397
2.65436
2.64094
2.62737
2.62355
2.62387
2.62494
2.62582
2.62562
2.62508
2.62494
2.62527
2.62689
2.6317
2.63585
2.63641
2.63574
2.63367
2.62826
2.62263
2.61096
2.60338
2.58777
2.57793
2.5567
2.54372
2.51629
2.49653
2.46556
2.43311
2.39962
2.3587
1
1
1
1
1
1.00001
1.00001
1.00007
1.00012
1.00057
1.00081
1.00513
1.00277
1.02772
1.06439
1.2205
1.52061
2.15272
2.57088
2.66538
2.65144
2.64222
2.63487
2.63368
2.63186
2.63072
2.62835
2.6256
2.62294
2.62082
2.6202
2.62091
2.62205
2.62184
2.62071
2.61849
2.61298
2.60807
2.597
2.58963
2.57448
2.56373
2.546
2.52837
2.50898
2.48357
2.46122
2.43029
2.40229
2.37238
1
1
1
1
1
1
1.00001
1.00004
1.00006
1.0003
1.00095
1.00198
1.00613
1.01677
1.0447
1.14834
1.34714
1.84867
2.43381
2.63858
2.62287
2.61822
2.60979
2.61027
2.61477
2.61605
2.61815
2.61806
2.61715
2.61562
2.61487
2.61486
2.61473
2.61413
2.61222
2.60969
2.60335
2.59838
2.58826
2.57959
2.56801
2.55446
2.54239
2.52371
2.50777
2.48527
2.46318
2.4383
2.41033
2.38629
1
1
1
1
1
1
1
1.00003
1.00005
1.00023
1.00036
1.00253
1.00087
1.01516
1.02966
1.11243
1.26632
1.72408
2.49452
2.63726
2.63234
2.61508
2.60082
2.59874
2.60098
2.60273
2.60378
2.60345
2.60247
2.6019
2.60175
2.60139
2.60052
2.59943
2.59689
2.59461
2.58961
2.584
2.57606
2.5663
2.55776
2.54522
2.5343
2.52103
2.50528
2.48965
2.46938
2.45017
2.42796
2.40642
1
1
1
1
1
1
1
1.00002
1.00003
1.00016
1.00028
1.00133
1.00152
1.01006
1.01372
1.08482
1.2057
1.65283
2.43858
2.60943
2.64613
2.62878
2.61384
2.6059
2.60451
2.60383
2.60261
2.60053
2.59737
2.59524
2.59298
2.59162
2.58927
2.58681
2.5838
2.57945
2.57477
2.56771
2.56011
2.55069
2.54122
2.53146
2.5197
2.50938
2.49678
2.4845
2.47062
2.45532
2.43911
2.4228
1
1
1
1
1
1
1.00001
1.00001
1.00006
1.00012
1.00051
1.00073
1.0048
1.00228
1.02691
1.05885
1.20236
1.46591
2.08979
2.52739
2.644
2.62741
2.61827
2.60792
2.60514
2.60472
2.60325
2.60118
2.59705
2.59371
2.59087
2.58803
2.58525
2.58109
2.57786
2.57243
2.56678
2.5597
2.55138
2.54276
2.53233
2.52318
2.51186
2.50138
2.48946
2.47787
2.46646
2.45411
2.44103
2.42827
1
1
1
1
1
1
1.00001
1.00001
1.00009
1.00008
1.00069
1.00116
1.00591
1.00509
1.01776
1.03608
1.1314
1.31827
1.76298
2.48638
2.63749
2.61658
2.60915
2.59348
2.58999
2.59041
2.59151
2.59109
2.59019
2.58832
2.58643
2.58365
2.58091
2.57712
2.57294
2.5676
2.56156
2.5545
2.5463
2.53818
2.52882
2.51939
2.50989
2.49952
2.48976
2.47894
2.46812
2.4565
2.4447
2.43369
1
1
1
1
1
1
1
1.00001
1.00001
1.00011
1.00015
1.00091
1.00113
1.00762
1.00314
1.03943
1.09711
1.30322
1.80344
2.31467
2.62461
2.63089
2.61668
2.6
2.59373
2.59079
2.5893
2.58719
2.58527
2.58277
2.58084
2.57817
2.57572
2.57214
2.56812
2.56252
2.55644
2.54935
2.54153
2.53334
2.52466
2.51584
2.50664
2.49786
2.48891
2.47973
2.47006
2.46031
2.44995
2.44049
1
1
1
1
1
1
1
1
1.00003
1.00005
1.00022
1.00037
1.00186
0.999833
1.0105
1.0054
1.07785
1.18036
1.63093
2.38322
2.56406
2.62506
2.61206
2.60011
2.59269
2.59064
2.5899
2.58833
2.58628
2.5834
2.58074
2.57771
2.57473
2.57096
2.56676
2.56119
2.55482
2.54762
2.53979
2.53142
2.52291
2.51436
2.50604
2.4977
2.48916
2.48059
2.47181
2.46281
2.45376
2.44525
1
1
1
1
1
1
1
1.00001
1.00001
1.00008
1.00007
1.00085
1.00143
1.00741
1.00705
1.02268
1.04731
1.1686
1.39992
1.97113
2.48094
2.63181
2.61494
2.60311
2.58786
2.58321
2.58242
2.58163
2.58009
2.57785
2.57556
2.57297
2.57071
2.56784
2.56425
2.55946
2.55355
2.54694
2.53951
2.53183
2.52394
2.51623
2.50821
2.50002
2.49184
2.48347
2.47526
2.46682
2.45829
2.45044
1
1
1
1
1
1
1
1
1.00001
1.00005
1.00004
1.00051
1.00084
1.00423
1.00402
1.01431
1.02629
1.11294
1.28
1.74483
2.49776
2.63505
2.6299
2.61137
2.5897
2.58092
2.578
2.57569
2.57341
2.5704
2.56734
2.56424
2.56093
2.55796
2.5543
2.55053
2.5458
2.54046
2.53477
2.52884
2.52247
2.51564
2.50869
2.50156
2.49444
2.48725
2.47987
2.47247
2.46468
2.45767
1
1
1
1
1
1
1
1
1.00002
1.00003
1.00017
1.00013
1.00143
1.00226
1.01298
1.01047
1.03737
1.08125
1.27771
1.70009
2.27871
2.62409
2.65438
2.63487
2.61534
2.60067
2.59389
2.58835
2.58396
2.57878
2.57368
2.56868
2.5634
2.55864
2.5536
2.54837
2.54298
2.53709
2.53113
2.52465
2.5185
2.51218
2.50618
2.49999
2.4938
2.48751
2.48105
2.47452
2.46777
2.46152
1
1
1
1
1
1
1
1
1.00001
1.00002
1.00013
1.00008
1.0011
1.00168
1.00975
1.00776
1.0285
1.062
1.21347
1.52569
2.07254
2.52776
2.64267
2.62212
2.61231
2.59939
2.59456
2.59242
2.59017
2.58739
2.58374
2.57989
2.57485
2.56865
2.56176
2.5541
2.5467
2.5393
2.53237
2.52541
2.51878
2.51232
2.50609
2.5001
2.49409
2.48817
2.48217
2.47607
2.46988
2.46414
1
1
1
1
1
1
1
1
1
1.00002
1.00001
1.00014
1.00019
1.00127
1.00147
1.01009
1.00402
1.05831
1.13253
1.46053
2.11012
2.48509
2.65382
2.62462
2.60982
2.59103
2.58651
2.58672
2.58682
2.58614
2.58446
2.58214
2.57904
2.57521
2.57027
2.56447
2.55788
2.55042
2.54233
2.53438
2.52654
2.51878
2.51114
2.50416
2.4974
2.49107
2.48484
2.47885
2.47266
2.46721
1
1
1
1
1
1
1
1
1
1.00001
1.00001
1.00013
1.00017
1.00114
1.00127
1.0093
1.00356
1.04651
1.1108
1.35379
1.95559
2.39225
2.63525
2.61162
2.60493
2.5886
2.57987
2.57669
2.57559
2.57478
2.5737
2.57279
2.5713
2.56946
2.5673
2.56374
2.55893
2.55422
2.54837
2.54286
2.53627
2.53031
2.52354
2.51682
2.50967
2.50259
2.49542
2.48844
2.48144
2.47515
1
1
1
1
1
1
1
1
1
1.00001
1.00003
1.00003
1.00023
1.00036
1.00211
1.00072
1.01252
1.00414
1.09116
1.22578
1.70875
2.47391
2.63899
2.63728
2.62091
2.59985
2.58877
2.58401
2.58077
2.57711
2.57387
2.57046
2.56727
2.5643
2.56068
2.55797
2.55441
2.5508
2.54669
2.5422
2.53724
2.53213
2.52717
2.52197
2.51684
2.51156
2.50606
2.50047
2.49448
2.48903
1
1
1
1
1
1
1
1
1
1
1.00002
1.00001
1.0002
1.00031
1.00187
1.00203
1.01442
1.00483
1.07826
1.17679
1.62112
2.38586
2.60756
2.66742
2.65171
2.63133
2.6143
2.6046
2.59764
2.59108
2.58462
2.57817
2.5725
2.5672
2.5618
2.55736
2.5524
2.54786
2.54308
2.53838
2.53412
2.52941
2.52504
2.52061
2.51635
2.512
2.50748
2.50314
2.49828
2.49408
1
1
1
1
1
1
1
1
1
1.00001
1.00001
1.00007
1.00005
1.00062
1.00098
1.00561
1.00441
1.01929
1.04024
1.16724
1.40331
1.94064
2.51683
2.68221
2.6535
2.63538
2.61583
2.60748
2.60172
2.59602
2.58948
2.58312
2.57647
2.57125
2.56587
2.56058
2.55492
2.5495
2.54405
2.53876
2.53377
2.52874
2.52421
2.51943
2.51506
2.51078
2.50645
2.50229
2.49769
2.49386
1
1
1
1
1
1
1
1
1
1
1
1.00003
1.00003
1.00024
1.00036
1.00214
1.0021
1.01518
1.02411
1.11934
1.30128
1.78878
2.54934
2.68817
2.6522
2.64103
2.61951
2.61307
2.61145
2.60782
2.60049
2.59236
2.58442
2.57715
2.57061
2.56456
2.55866
2.55301
2.5473
2.54161
2.53604
2.53062
2.52569
2.52066
2.51605
2.51142
2.50694
2.50258
2.49796
2.49402
1
1
1
1
1
1
1
1
1
1
1.00001
1.00003
1.00003
1.00028
1.00043
1.00262
1.00118
1.01711
1.00629
1.09754
1.24963
1.75288
2.54636
2.69187
2.68472
2.65909
2.63452
2.6262
2.62464
2.62285
2.61895
2.61219
2.60433
2.59613
2.58832
2.58101
2.57426
2.56756
2.5607
2.55414
2.54739
2.54044
2.53389
2.5275
2.52169
2.51597
2.51065
2.50549
2.50041
2.49592
1
1
1
1
1
1
1
1
1
1
1.00001
1.00001
1.00009
1.00014
1.0008
1.0008
1.00627
1.00176
1.03427
1.07902
1.27445
1.69859
2.26924
2.64561
2.6889
2.67093
2.64864
2.63455
2.62915
2.62553
2.62177
2.6173
2.61176
2.60629
2.60034
2.59429
2.58856
2.58253
2.57694
2.57103
2.56521
2.55941
2.55326
2.54694
2.54037
2.53399
2.5275
2.52131
2.51519
2.50959
1
1
1
1
1
1
1
1
1
1
1.00001
1
1.00007
1.00011
1.00069
1.00069
1.00554
1.00199
1.02892
1.06728
1.22916
1.57389
2.12539
2.59889
2.6896
2.6655
2.64266
2.6235
2.61632
2.61367
2.61171
2.60933
2.60558
2.60183
2.59749
2.59283
2.58828
2.58332
2.57861
2.57372
2.56875
2.56393
2.55872
2.55376
2.54846
2.54333
2.53817
2.53301
2.52806
2.52331
1
1
1
1
1
1
1
1
1
1
1.00001
1.00001
1.00006
1.00008
1.00044
1.00061
1.00401
1.001
1.0252
1.04723
1.18094
1.44789
1.9671
2.55743
2.70297
2.66933
2.644
2.62515
2.61918
2.61578
2.61071
2.60471
2.59849
2.59338
2.58915
2.58576
2.58307
2.58002
2.57674
2.57283
2.56839
2.56383
2.5588
2.554
2.54901
2.5442
2.53953
2.53483
2.53044
2.5262
1
1
1
1
1
1
1
1
1
1
1
1.00002
1.00002
1.00014
1.00016
1.00109
1.00139
1.01167
1.00214
1.07136
1.13575
1.54465
2.23519
2.61291
2.71221
2.68579
2.65196
2.63898
2.63531
2.63074
2.62306
2.616
2.60895
2.60361
2.5991
2.5959
2.5935
2.59109
2.58843
2.58475
2.58059
2.57571
2.57066
2.56551
2.56043
2.55558
2.55073
2.54616
2.54148
2.53734
1
1
1
1
1
1
1
1
1
1
1
1.00002
1.00002
1.00015
1.00016
1.00117
1.00133
1.01058
1.00166
1.06274
1.12357
1.4777
2.12508
2.58903
2.70866
2.6819
2.64161
2.62462
2.62024
2.61767
2.6136
2.60874
2.6029
2.598
2.59367
2.59077
2.58873
2.58699
2.58505
2.58206
2.57839
2.57381
2.56935
2.5647
2.56026
2.55615
2.55194
2.54829
2.54409
2.54067
1
1
1
1
1
1
1
1
1
1
1
1.00002
1.00001
1.00015
1.00018
1.00128
1.00136
1.01006
1.00209
1.05545
1.11842
1.39495
2.02865
2.48371
2.68646
2.66252
2.63772
2.62173
2.61606
2.61332
2.60992
2.60537
2.60043
2.59561
2.59134
2.58755
2.58419
2.58112
2.57768
2.57442
2.57092
2.56736
2.56391
2.56013
2.5567
2.55291
2.54923
2.54542
2.54135
2.53781
1
1
1
1
1
1
1
1
1
1
1
1.00001
1.00001
1.00013
1.00019
1.00111
1.00116
1.00929
1.00145
1.04815
1.11155
1.34651
1.95169
2.40479
2.68631
2.66834
2.65107
2.6255
2.61463
2.61101
2.60881
2.60529
2.60089
2.59629
2.59173
2.58794
2.58418
2.58066
2.57714
2.57314
2.56936
2.56491
2.56083
2.55645
2.55234
2.5485
2.54453
2.54107
2.53719
2.53402
1
1
1
1
1
1
1
1
1
1
1
1.00001
1.00002
1.00012
1.00017
1.00103
1.00108
1.00849
1.00211
1.04366
1.10056
1.31601
1.8413
2.33768
2.67643
2.67329
2.65549
2.62984
2.61718
2.61212
2.60986
2.60732
2.60413
2.60058
2.59592
2.59163
2.58692
2.58245
2.57851
2.57415
2.57061
2.56635
2.56256
2.55851
2.55434
2.55071
2.54657
2.54322
2.53941
2.53629
1
1
1
1
1
1
1
1
1
1
1.00001
1.00001
1.00003
1.00009
1.00016
1.00077
1.00089
1.00756
1.00057
1.03971
1.09313
1.28929
1.75855
2.27844
2.65772
2.67814
2.66032
2.63249
2.61785
2.6131
2.61171
2.60986
2.60614
2.60249
2.59812
2.59445
2.59073
2.58688
2.5839
2.5806
2.57851
2.57598
2.57335
2.57061
2.56669
2.56337
2.55908
2.55537
2.55177
2.54819
1
1
1
1
1
1
1
1
1
1
1
1.00001
1.00002
1.00011
1.00004
1.00061
1.00182
1.00402
1.00867
1.03661
1.08426
1.26092
1.69612
2.22192
2.64029
2.68291
2.66057
2.63425
2.62028
2.61609
2.61429
2.61197
2.60871
2.60581
2.60298
2.60111
2.59975
2.59841
2.597
2.59467
2.59217
2.58874
2.58535
2.58151
2.57747
2.57354
2.56924
2.56544
2.56129
2.55775
1
1
1
1
1
1
1
1
1
1
1
1.00001
1.00003
1.00006
1.00018
1.00055
1.00149
1.00386
1.01125
1.03155
1.07778
1.24448
1.64579
2.17539
2.62313
2.68561
2.66067
2.63794
2.62215
2.61646
2.61469
2.61265
2.61094
2.61051
2.61073
2.6112
2.61125
2.61104
2.61007
2.60731
2.60295
2.59806
2.59315
2.58804
2.58335
2.57834
2.57384
2.56896
2.56441
2.56007
1
1
1
1
1
1
1
1
1
1
1
1.00001
1.00001
1.00007
1.00008
1.00057
1.00073
1.00622
1.00149
1.03454
1.07151
1.23933
1.60752
2.1641
2.61245
2.68595
2.65912
2.63944
2.62383
2.61804
2.6165
2.61487
2.61381
2.61402
2.61528
2.61665
2.6171
2.617
2.61611
2.613
2.60746
2.60161
2.59579
2.59036
2.58498
2.57995
2.57531
2.57067
2.56687
2.56307
1
1
1
1
1
1
1
1
1
1
1
1
1.00002
1.00002
1.00022
1.00025
1.00182
1.00191
1.01511
1.00632
1.08657
1.19582
1.63754
2.40778
2.64639
2.70397
2.68698
2.66425
2.65376
2.65205
2.65191
2.65077
2.64837
2.6454
2.64214
2.63823
2.63358
2.62788
2.6215
2.61454
2.60739
2.60051
2.59379
2.58786
2.58221
2.57734
2.57291
2.56884
2.56531
2.56203
1
1
1
1
1
1
1
1
1
1
1
1
1.00003
1.00002
1.00022
1.00027
1.00177
1.00191
1.01468
1.0061
1.08406
1.18919
1.62639
2.39913
2.63594
2.69824
2.68148
2.65775
2.65083
2.65167
2.65524
2.65653
2.65553
2.65326
2.64801
2.64028
2.63143
2.62224
2.61292
2.60381
2.59518
2.58723
2.58025
2.57428
2.56916
2.56487
2.56096
2.55749
2.55402
2.55098
1
1
1
1
1
1
1
1
1
1
1
1.00001
1.00001
1.00006
1.00006
1.0005
1.00065
1.00543
1.00148
1.03188
1.05896
1.22768
1.5519
2.13588
2.58587
2.68459
2.65871
2.64046
2.61767
2.61098
2.61047
2.61017
2.6109
2.61494
2.62111
2.62536
2.62716
2.62722
2.6259
2.62071
2.61106
2.60118
2.59232
2.58485
2.57871
2.57396
2.56999
2.56684
2.56382
2.56132
1
1
1
1
1
1
1
1
1
1
1
1
1.00003
1.00002
1.00021
1.00027
1.00171
1.00187
1.01428
1.00614
1.08194
1.18305
1.61321
2.38088
2.62233
2.69349
2.67449
2.65073
2.64735
2.64922
2.65527
2.65842
2.65779
2.65588
2.65067
2.64254
2.63314
2.62356
2.6138
2.6044
2.59591
2.58831
2.58202
2.57681
2.57237
2.56874
2.56517
2.562
2.55853
2.55554
2.12218
2.60772
2.65091
3.06599
3.13871
3.07568
3.05795
3.04638
3.0444
3.04325
3.03782
3.0332
3.02813
3.0259
3.02412
3.02311
3.02236
3.02189
3.02084
3.01972
3.01855
3.01782
3.01372
3.01126
3.00654
3.00373
2.99831
2.98932
2.98233
2.9749
2.9665
2.95811
2.94879
2.94019
2.93087
2.92225
2.91298
2.9032
2.89321
2.88294
2.87296
2.8631
2.85288
2.84284
2.8329
2.8229
2.8131
2.80338
2.79372
2.78437
2.77473
2.7654
2.75651
2.74703
2.73837
2.72913
2.72047
2.71155
2.70305
2.69463
2.68633
2.6786
2.67072
2.66355
2.6564
2.64985
2.64356
2.63782
2.63255
2.62789
2.62382
2.62046
2.61774
2.61594
2.61451
2.61448
2.6148
2.61578
2.61659
2.61844
2.61978
2.62348
2.62591
2.63051
2.63326
2.6378
2.64037
2.64445
2.64669
2.65004
2.65179
2.65401
2.6555
2.65672
2.65799
2.6586
2.65967
2.6601
2.66111
2.6602
2.14783
2.4038
2.49013
2.69979
2.87887
3.00821
3.09007
3.15996
3.18708
3.23784
3.27455
3.2939
3.26719
3.22358
3.18435
3.1463
3.10982
3.07945
3.05213
3.02719
3.00291
2.97984
2.95786
2.93676
2.91668
2.89702
2.8782
2.85946
2.84129
2.82327
2.80558
2.7883
2.7708
2.75454
2.73778
2.72266
2.70713
2.69261
2.67705
2.66202
2.64782
2.63379
2.62058
2.60736
2.59459
2.58177
2.56913
2.55663
2.54465
2.5325
2.52146
2.51015
2.49976
2.48954
2.47966
2.4704
2.46111
2.45244
2.44386
2.43557
2.42744
2.41971
2.41184
2.40441
2.39722
2.38995
2.38336
2.37669
2.37066
2.36484
2.35934
2.35465
2.35008
2.34621
2.34295
2.34033
2.33816
2.33687
2.33543
2.33455
2.33458
2.3355
2.33701
2.33941
2.34162
2.34469
2.34738
2.35071
2.35335
2.3567
2.35913
2.36206
2.36436
2.36667
2.36863
2.37004
2.37173
2.37243
2.37385
2.37251
2.21142
2.25329
2.33237
2.39452
2.44752
2.51871
2.59858
2.67007
2.73674
2.78342
2.82848
2.85424
2.85509
2.85025
2.83494
2.81447
2.78885
2.75883
2.73143
2.70436
2.68007
2.65836
2.63935
2.62304
2.60904
2.59661
2.58548
2.57505
2.56518
2.5558
2.54656
2.53802
2.52963
2.52199
2.51432
2.50719
2.50011
2.49253
2.48443
2.47585
2.46801
2.46001
2.45218
2.44426
2.43622
2.42826
2.4203
2.41239
2.4044
2.39634
2.38814
2.37982
2.37157
2.3634
2.35546
2.34798
2.34077
2.33398
2.32762
2.32143
2.31549
2.30982
2.30419
2.29861
2.29333
2.28803
2.28268
2.27785
2.27296
2.26825
2.26394
2.26023
2.25621
2.25346
2.25027
2.24866
2.24638
2.24453
2.24316
2.24093
2.23902
2.2378
2.2371
2.23611
2.23495
2.23396
2.23333
2.2328
2.23252
2.23222
2.2322
2.23227
2.23263
2.23368
2.23448
2.23652
2.23788
2.24106
2.24311
2.24666
2.25765
2.2424
2.26512
2.2892
2.30963
2.32983
2.35482
2.38445
2.41412
2.44241
2.46555
2.48094
2.4905
2.49675
2.50168
2.50297
2.50274
2.50105
2.49834
2.49423
2.48828
2.48466
2.47846
2.47245
2.4663
2.45959
2.45283
2.44542
2.43823
2.43039
2.42307
2.41496
2.40762
2.39956
2.39212
2.385
2.37817
2.37122
2.36349
2.35565
2.34806
2.34077
2.33365
2.32652
2.3197
2.31279
2.3063
2.2995
2.2932
2.28683
2.281
2.27557
2.27021
2.26527
2.26011
2.25518
2.25033
2.24566
2.24115
2.23688
2.23281
2.22902
2.22521
2.22203
2.21848
2.21589
2.21259
2.21063
2.20797
2.2061
2.20444
2.20291
2.20162
2.20076
2.19998
2.19974
2.19981
2.19994
2.19997
2.20011
2.20065
2.20136
2.20211
2.20278
2.20297
2.20281
2.20199
2.20058
2.19818
2.19581
2.19234
2.18914
2.18576
2.18231
2.17956
2.17622
2.17407
2.17124
2.17043
2.16646
2.30438
2.25794
2.25196
2.25222
2.25266
2.25382
2.25683
2.26433
2.27374
2.28343
2.2937
2.29953
2.30745
2.31069
2.31784
2.32619
2.33299
2.33872
2.34254
2.34555
2.34756
2.34882
2.34934
2.34925
2.34886
2.34814
2.34632
2.34531
2.34309
2.34048
2.33778
2.33426
2.33051
2.32611
2.32163
2.31721
2.3127
2.30762
2.30167
2.29507
2.28849
2.28177
2.27506
2.26823
2.26136
2.25445
2.24723
2.2401
2.23276
2.22564
2.21828
2.21085
2.20318
2.19563
2.18817
2.18106
2.17415
2.16755
2.1612
2.15519
2.14937
2.14395
2.13882
2.13396
2.12958
2.12545
2.12177
2.11866
2.1157
2.11361
2.11186
2.11052
2.1104
2.11068
2.11167
2.11317
2.11617
2.11853
2.12242
2.12506
2.12943
2.13391
2.13862
2.14336
2.14807
2.15248
2.15645
2.15976
2.16197
2.16275
2.16274
2.16228
2.16103
2.15806
2.15544
2.15142
2.14912
2.14503
2.14383
2.13827
2.31499
2.29534
2.26702
2.25223
2.24136
2.23037
2.22277
2.21725
2.21478
2.21493
2.21619
2.21747
2.21963
2.22185
2.22273
2.2273
2.2332
2.23916
2.24469
2.24981
2.2542
2.25833
2.26184
2.26509
2.26743
2.2695
2.27074
2.27166
2.27159
2.27105
2.27039
2.26838
2.26626
2.26349
2.26068
2.25784
2.25493
2.25148
2.24727
2.24226
2.23711
2.23172
2.22638
2.22082
2.21522
2.20948
2.20364
2.1977
2.19153
2.18523
2.17876
2.1723
2.16582
2.15941
2.15297
2.14669
2.14046
2.13438
2.12854
2.12276
2.11729
2.11199
2.10683
2.10216
2.09747
2.09336
2.08956
2.08596
2.08328
2.08049
2.07868
2.07695
2.07593
2.07508
2.0751
2.07539
2.07625
2.07688
2.07815
2.07924
2.08155
2.08408
2.087
2.09038
2.09425
2.09824
2.10227
2.10619
2.10959
2.11249
2.11493
2.11643
2.11681
2.11669
2.11632
2.11509
2.1141
2.11184
2.11134
2.10715
2.33171
2.30338
2.28299
2.26415
2.24381
2.22671
2.21153
2.19946
2.19
2.1832
2.17833
2.17538
2.17347
2.17298
2.17294
2.17321
2.17632
2.18174
2.18876
2.19556
2.20212
2.2081
2.21383
2.21872
2.22322
2.22708
2.23034
2.23311
2.23494
2.23635
2.23657
2.23641
2.23563
2.23386
2.2321
2.23019
2.22816
2.22554
2.22215
2.21805
2.21362
2.20884
2.20401
2.19886
2.1938
2.18837
2.18302
2.17732
2.17152
2.16556
2.15931
2.15317
2.1467
2.14042
2.13395
2.12754
2.12115
2.11479
2.10858
2.10246
2.09648
2.09075
2.08504
2.07989
2.07473
2.07018
2.06595
2.06206
2.05878
2.05584
2.05343
2.05156
2.05029
2.04946
2.04956
2.04999
2.05106
2.05198
2.05363
2.05507
2.05763
2.06031
2.06309
2.06627
2.06945
2.07299
2.07668
2.08035
2.08402
2.08736
2.0904
2.09282
2.09476
2.09621
2.09693
2.09698
2.09697
2.09656
2.09686
2.09409
2.36209
2.32391
2.29442
2.27021
2.2504
2.23112
2.2132
2.19677
2.18285
2.17153
2.16312
2.15639
2.1525
2.14968
2.14912
2.14945
2.15038
2.15422
2.16025
2.16759
2.17485
2.18115
2.18709
2.19191
2.1966
2.20024
2.20379
2.20625
2.20841
2.20953
2.21002
2.20973
2.20927
2.2077
2.20606
2.20454
2.20277
2.20059
2.19765
2.19411
2.19032
2.18595
2.18172
2.17688
2.17238
2.16729
2.16242
2.15709
2.15167
2.14609
2.14018
2.13437
2.12828
2.1223
2.11622
2.11023
2.10422
2.09841
2.09252
2.08693
2.08125
2.07584
2.07053
2.06525
2.06055
2.05564
2.05157
2.04744
2.04402
2.04079
2.03832
2.036
2.03462
2.03337
2.03322
2.03345
2.03396
2.03487
2.03577
2.03725
2.03923
2.04125
2.0435
2.04587
2.04836
2.0508
2.05366
2.05624
2.05921
2.06173
2.06485
2.06677
2.06963
2.07109
2.07337
2.07422
2.07594
2.07671
2.07912
2.07819
2.38845
2.35738
2.32527
2.29077
2.26286
2.2391
2.21808
2.20091
2.18494
2.17249
2.16119
2.15319
2.147
2.14349
2.14189
2.14217
2.14322
2.14392
2.14646
2.15019
2.15686
2.16133
2.16659
2.16971
2.17389
2.17633
2.17949
2.18115
2.18317
2.18388
2.18469
2.18463
2.18445
2.18355
2.18259
2.18153
2.18039
2.1786
2.17641
2.17342
2.17027
2.16656
2.16274
2.15861
2.15438
2.14996
2.14533
2.14062
2.13559
2.13054
2.12525
2.11988
2.11447
2.10896
2.10346
2.09794
2.09241
2.087
2.08147
2.07621
2.07076
2.06555
2.06042
2.05522
2.05057
2.04571
2.0416
2.03739
2.03396
2.03054
2.02793
2.02547
2.02373
2.02241
2.02168
2.0217
2.02183
2.02233
2.02286
2.02415
2.0258
2.0276
2.02964
2.03166
2.03401
2.03603
2.03864
2.04064
2.04353
2.04521
2.04834
2.04977
2.05259
2.05399
2.05653
2.05769
2.06007
2.06124
2.06461
2.06466
2.40159
2.379
2.35209
2.32316
2.29234
2.26502
2.23873
2.21776
2.19853
2.18364
2.17095
2.16144
2.15406
2.14888
2.14526
2.14298
2.14105
2.14042
2.1387
2.13821
2.139
2.14079
2.14446
2.14697
2.15106
2.15322
2.15666
2.15818
2.16088
2.16188
2.16395
2.16448
2.16561
2.16542
2.16517
2.1649
2.16436
2.16334
2.16168
2.15945
2.15676
2.15371
2.15021
2.14654
2.14249
2.13832
2.13399
2.1294
2.12481
2.11989
2.11502
2.11
2.10489
2.09992
2.09464
2.08964
2.08434
2.0793
2.07407
2.06906
2.06399
2.05903
2.0542
2.04935
2.04487
2.04038
2.03644
2.03248
2.02922
2.02598
2.02341
2.02112
2.01925
2.01803
2.01714
2.01685