/*--------------------------------*- C++ -*----------------------------------*\
| =========                 |                                                 |
| \\      /  F ield         | OpenFOAM: The Open Source CFD Toolbox           |
|  \\    /   O peration     | Version:  2112                                  |
|   \\  /    A nd           | Website:  www.openfoam.com                      |
|    \\/     M anipulation  |                                                 |
\*---------------------------------------------------------------------------*/
FoamFile
{
    version     2.0;
    format      ascii;
    arch        "LSB;label=32;scalar=64";
    class       volVectorField;
    location    "9";
    object      U;
}
// * * * * * * * * * * * * * * * * * * * * * * * * * * * * * * * * * * * * * //

dimensions      [0 1 -1 0 0 0 0];

internalField   nonuniform List<vector> 
7000
(
(3 -5.68509e-07 0.000805019)
(3 -1.1045e-06 0.000764318)
(3 -1.5268e-06 0.000723842)
(2.99999 -1.92938e-06 0.000683711)
(2.99996 -3.12479e-06 0.000644134)
(2.99985 -4.79042e-06 0.000606015)
(2.99961 -4.29561e-06 0.000569462)
(2.99895 -5.25584e-06 0.000541113)
(2.99773 9.23201e-06 0.000518795)
(2.99407 -2.18145e-06 0.000552256)
(2.98883 0.000127059 0.000571412)
(2.96056 -0.000234625 0.00126114)
(2.91617 -0.000415722 0.00173953)
(2.7415 -0.00231439 0.00624422)
(2.23819 -0.012174 0.0121652)
(1.30666 -0.0247212 0.0231406)
(0.545255 -0.0180767 0.00881934)
(0.635428 -0.00380691 -0.000607875)
(0.722916 -0.0070331 -0.000740522)
(0.749037 -0.00664971 -9.97263e-05)
(0.740347 -0.00613252 0.00022938)
(0.718761 -0.00497807 0.000276363)
(0.690242 -0.00370715 0.000242573)
(0.664955 -0.00318582 7.31539e-05)
(0.643869 -0.002582 -0.00011111)
(0.623933 -0.00178421 -0.000259583)
(0.603141 -0.00092202 -0.000386474)
(0.581169 -3.46709e-05 -0.000511002)
(0.558343 0.000900427 -0.000640079)
(0.534786 0.00189814 -0.000774185)
(0.510251 0.0029576 -0.000913183)
(0.484441 0.00406813 -0.00105627)
(0.457339 0.00519711 -0.00120108)
(0.429215 0.00627331 -0.00134596)
(0.400287 0.00718516 -0.00148918)
(0.370917 0.00784386 -0.00163063)
(0.341732 0.00822241 -0.00177138)
(0.313199 0.00837945 -0.0019112)
(0.2856 0.00847059 -0.00205052)
(0.258876 0.00870605 -0.0021924)
(0.232239 0.00921515 -0.00234061)
(0.205065 0.0100199 -0.00249115)
(0.177477 0.0109229 -0.00264074)
(0.149795 0.0114676 -0.00279008)
(0.122755 0.0111892 -0.00293965)
(0.0976526 0.0100216 -0.00308818)
(0.075514 0.00851401 -0.00323414)
(0.0564308 0.00763355 -0.00337764)
(0.0356423 0.008764 -0.00351623)
(0.0199095 0.0149635 -0.00365483)
(3 -5.35196e-07 0.000777208)
(3 -1.00892e-06 0.000737863)
(3 -1.33597e-06 0.000698739)
(2.99999 -1.56174e-06 0.000659957)
(2.99996 -3.41835e-06 0.000621706)
(2.99985 -5.4094e-06 0.000584831)
(2.99962 -1.91223e-06 0.000549424)
(2.99898 7.23728e-06 0.000521709)
(2.9978 5.35368e-05 0.000499584)
(2.99426 0.000109197 0.00052956)
(2.98927 0.000420504 0.000543938)
(2.96152 0.000356718 0.00120055)
(2.91935 0.00114933 0.00161652)
(2.74804 0.00150868 0.0059303)
(2.25648 -0.00364665 0.0115176)
(1.33404 -0.00572674 0.0223755)
(0.555593 0.0109948 0.00871315)
(0.626053 0.0292032 -0.000336074)
(0.707082 0.0211747 -0.000638267)
(0.737754 0.0196001 -0.000148832)
(0.730582 0.0198959 0.000202068)
(0.709552 0.0211483 0.000256479)
(0.680221 0.022585 0.000238852)
(0.65393 0.0226981 7.87127e-05)
(0.632556 0.0228537 -0.000106234)
(0.61252 0.0233395 -0.000250569)
(0.591662 0.0239641 -0.000372264)
(0.569719 0.0246531 -0.000491951)
(0.547054 0.0254379 -0.000616089)
(0.523783 0.026338 -0.000744973)
(0.499672 0.0273416 -0.000878504)
(0.474474 0.0284215 -0.00101579)
(0.448224 0.0295235 -0.00115444)
(0.421211 0.0305465 -0.00129303)
(0.393608 0.0313332 -0.00142999)
(0.365653 0.0317825 -0.00156521)
(0.337759 0.031868 -0.00169986)
(0.310164 0.0316638 -0.00183365)
(0.283013 0.0313587 -0.00196716)
(0.256259 0.0312068 -0.00210351)
(0.229348 0.0313377 -0.00224604)
(0.202067 0.0317772 -0.00239018)
(0.174902 0.0322737 -0.00253315)
(0.148288 0.0322626 -0.00267563)
(0.122638 0.0311948 -0.00281809)
(0.0984615 0.0290113 -0.00296015)
(0.0759622 0.0264226 -0.00310077)
(0.0551449 0.0247876 -0.00323964)
(0.0318876 0.0259073 -0.00337239)
(0.0155655 0.03273 -0.00350055)
(3 -3.95954e-09 0.000748284)
(3 2.00055e-08 0.000710353)
(3 8.06995e-08 0.00067264)
(2.99999 1.48045e-07 0.000635267)
(2.99996 -1.79243e-06 0.000598404)
(2.99985 -4.6448e-06 0.000562844)
(2.99963 -3.23853e-06 0.000528664)
(2.999 1.65034e-06 0.000501748)
(2.99784 3.6328e-05 0.000480077)
(2.99437 6.84351e-05 0.000507636)
(2.9895 0.000297945 0.000520188)
(2.9621 -2.46753e-05 0.00114476)
(2.92101 0.000674676 0.00152627)
(2.75112 -0.00102211 0.00566657)
(2.26463 -0.00819226 0.0109938)
(1.3422 -0.0176383 0.0216791)
(0.548325 -0.00646335 0.0084502)
(0.612739 0.0154145 -0.000238228)
(0.692255 0.0123649 -0.000564184)
(0.726177 0.0125868 -0.000172976)
(0.720506 0.0149572 0.000177989)
(0.699754 0.0173124 0.000243078)
(0.669954 0.0196638 0.000232658)
(0.643131 0.021323 7.99095e-05)
(0.621818 0.0230651 -0.0001028)
(0.602055 0.0250915 -0.000242696)
(0.581513 0.0272675 -0.00035899)
(0.559982 0.0295471 -0.000473524)
(0.537852 0.0319786 -0.000592607)
(0.515212 0.0345904 -0.000716292)
(0.491812 0.0373564 -0.00084432)
(0.467415 0.0402052 -0.000975566)
(0.442069 0.0430106 -0.00110765)
(0.416027 0.0455809 -0.00123936)
(0.389416 0.0476745 -0.00136956)
(0.362429 0.0491561 -0.00149817)
(0.335394 0.0500258 -0.00162627)
(0.30847 0.0504455 -0.00175366)
(0.281772 0.0507194 -0.00188104)
(0.255252 0.051191 -0.00201161)
(0.228466 0.0519941 -0.00214814)
(0.201383 0.0530597 -0.00228571)
(0.174564 0.0539515 -0.002422)
(0.148417 0.0539204 -0.00255772)
(0.123227 0.0523435 -0.00269349)
(0.0992531 0.0493025 -0.00282917)
(0.0764964 0.0459226 -0.00296363)
(0.0550249 0.0441048 -0.00309636)
(0.0313159 0.0458365 -0.00322241)
(0.0140613 0.0538746 -0.00334466)
(3 -3.03018e-08 0.0007182)
(3 -5.47052e-08 0.000681743)
(3 -7.64053e-08 0.000645501)
(2.99999 -1.38906e-07 0.000609596)
(2.99996 -1.99217e-06 0.000574178)
(2.99985 -4.44758e-06 0.000539985)
(2.99963 -1.71956e-06 0.000507081)
(2.99903 5.95873e-06 0.000480981)
(2.9979 4.84332e-05 0.000459753)
(2.99452 9.68946e-05 0.000484621)
(2.98979 0.000371682 0.000495113)
(2.96291 0.000157822 0.00108322)
(2.9231 0.00107577 0.00143058)
(2.75568 -7.58536e-05 0.00536642)
(2.27835 -0.00554265 0.0103834)
(1.36746 -0.0105634 0.0207469)
(0.572389 0.0144206 0.00820952)
(0.617116 0.0343902 -4.2871e-05)
(0.687747 0.0341749 -0.000462959)
(0.723649 0.0343977 -0.00019489)
(0.718509 0.0360422 0.000157525)
(0.697193 0.0374748 0.000232213)
(0.666571 0.0390338 0.000224931)
(0.638868 0.0404705 7.97722e-05)
(0.616996 0.04208 -9.73539e-05)
(0.596872 0.0439275 -0.000232354)
(0.576058 0.0459582 -0.000343583)
(0.554356 0.0481761 -0.000453019)
(0.53217 0.0506424 -0.000566929)
(0.509579 0.0533917 -0.000685239)
(0.486342 0.0564011 -0.000807605)
(0.462254 0.0595852 -0.000932811)
(0.437373 0.062781 -0.00105855)
(0.411919 0.0657568 -0.00118372)
(0.385969 0.0682364 -0.00130738)
(0.359667 0.070064 -0.00142945)
(0.333272 0.071243 -0.00155102)
(0.306891 0.0719546 -0.001672)
(0.280628 0.0725254 -0.00179315)
(0.254435 0.0733051 -0.00191763)
(0.227931 0.0744046 -0.0020477)
(0.201181 0.0756679 -0.00217844)
(0.174741 0.0765544 -0.00230796)
(0.148952 0.0762606 -0.0024369)
(0.123997 0.074197 -0.00256584)
(0.100013 0.0705702 -0.00269475)
(0.0769538 0.0667016 -0.00282291)
(0.0550142 0.0647134 -0.0029496)
(0.0312587 0.0666249 -0.00307009)
(0.0134466 0.0748944 -0.00318593)
(3 -2.32991e-08 0.000686905)
(3 -5.38412e-08 0.000651987)
(3 -1.23896e-07 0.00061728)
(2.99999 -2.091e-07 0.000582904)
(2.99996 -2.39504e-06 0.000548992)
(2.99986 -4.23343e-06 0.000516226)
(2.99964 -5.24104e-07 0.000484656)
(2.99905 9.441e-06 0.000459421)
(2.99796 5.66773e-05 0.000438679)
(2.99468 0.000114824 0.000460866)
(2.99011 0.000408901 0.000468973)
(2.96368 0.00024503 0.00102299)
(2.92525 0.00117255 0.00133304)
(2.7599 0.000218103 0.00507685)
(2.29077 -0.00560305 0.00978494)
(1.3876 -0.0101451 0.0198755)
(0.581146 0.0146504 0.00795683)
(0.612924 0.0301164 0.000102036)
(0.6802 0.0364997 -0.000400727)
(0.717037 0.0389557 -0.000190866)
(0.713216 0.0412505 0.000140591)
(0.692571 0.043335 0.000217188)
(0.662334 0.0457029 0.00021213)
(0.634739 0.0482135 7.60582e-05)
(0.613016 0.0509595 -9.35589e-05)
(0.593085 0.0538964 -0.000223048)
(0.572455 0.0569966 -0.000329203)
(0.550921 0.0603013 -0.000433376)
(0.52889 0.0638761 -0.000541809)
(0.506438 0.0677505 -0.000654423)
(0.483348 0.0718915 -0.000770907)
(0.459455 0.0761855 -0.000889913)
(0.434844 0.0804273 -0.00100904)
(0.40972 0.084343 -0.00112729)
(0.384145 0.0876383 -0.00124411)
(0.358252 0.0901629 -0.00135946)
(0.332262 0.0919449 -0.00147438)
(0.306252 0.093196 -0.00158881)
(0.280316 0.0942652 -0.00170343)
(0.254399 0.0955037 -0.00182143)
(0.228154 0.0969971 -0.0019449)
(0.201698 0.0985252 -0.00206869)
(0.175547 0.0994815 -0.00219117)
(0.14997 0.0990519 -0.00231322)
(0.12508 0.0966947 -0.00243557)
(0.100961 0.0927073 -0.00255815)
(0.0775849 0.0885208 -0.00267992)
(0.0552356 0.0863629 -0.00280033)
(0.0313977 0.0882978 -0.00291371)
(0.0131461 0.0964817 -0.00302422)
(3 -3.10273e-07 0.000654348)
(3 -7.4999e-07 0.000621035)
(3 -1.48974e-06 0.000587929)
(2.99999 -2.71419e-06 0.000555149)
(2.99996 -5.17858e-06 0.000522804)
(2.99986 -5.92904e-06 0.000491523)
(2.99965 1.23309e-08 0.00046135)
(2.99908 1.46449e-05 0.00043703)
(2.99803 7.14131e-05 0.000416825)
(2.99484 0.000147651 0.000436336)
(2.99044 0.000483703 0.000442288)
(2.96456 0.00040108 0.00095997)
(2.92755 0.00154688 0.00123495)
(2.76456 0.000911637 0.00477473)
(2.30524 -0.00358735 0.00915399)
(1.41359 -0.00548622 0.0189281)
(0.596906 0.0271485 0.00770126)
(0.612449 0.0399521 0.000250132)
(0.676605 0.0484052 -0.00035032)
(0.712657 0.0524817 -0.000172739)
(0.709163 0.0550431 0.000130554)
(0.688821 0.0572167 0.000203439)
(0.658762 0.0595386 0.000199854)
(0.631174 0.0621824 7.25433e-05)
(0.60951 0.0652073 -8.86565e-05)
(0.589712 0.0684803 -0.000212057)
(0.569271 0.0719642 -0.000313116)
(0.547966 0.0757248 -0.000412123)
(0.526181 0.0798419 -0.000515094)
(0.50398 0.0843459 -0.000622037)
(0.481152 0.0891871 -0.000732539)
(0.457552 0.0942214 -0.000845168)
(0.433275 0.0992075 -0.000957574)
(0.408507 0.103833 -0.00106898)
(0.3833 0.107787 -0.00117904)
(0.357785 0.110914 -0.00128765)
(0.332164 0.113252 -0.00139583)
(0.306491 0.11503 -0.00150363)
(0.280859 0.116601 -0.00161161)
(0.2552 0.118307 -0.001723)
(0.229189 0.120205 -0.00183954)
(0.202973 0.122018 -0.00195634)
(0.177024 0.123093 -0.00207192)
(0.151555 0.12262 -0.00218698)
(0.126625 0.120094 -0.00230214)
(0.10229 0.115863 -0.00241726)
(0.0785449 0.111407 -0.00253161)
(0.0557482 0.109037 -0.0026448)
(0.0317098 0.110889 -0.00275248)
(0.013046 0.118908 -0.0028572)
(3 -2.14418e-07 0.000620473)
(3 -5.25453e-07 0.000588837)
(3 -2.17892e-06 0.000557403)
(2.99999 -4.7329e-06 0.000526281)
(2.99996 -7.01597e-06 0.000495564)
(2.99986 -6.71251e-06 0.000465835)
(2.99966 2.2569e-06 0.000437116)
(2.99912 2.29019e-05 0.000413753)
(2.9981 9.36999e-05 0.000394107)
(2.99504 0.000197348 0.000410828)
(2.99085 0.000601223 0.000414291)
(2.96552 0.000671869 0.000895803)
(2.93011 0.00198064 0.00113431)
(2.76971 0.0018759 0.00446437)
(2.32086 -0.00110221 0.00851136)
(1.44214 -0.00116294 0.0179208)
(0.613553 0.0373072 0.00744266)
(0.611274 0.0481547 0.000400729)
(0.673513 0.0568043 -0.000310225)
(0.708971 0.0623431 -0.000154988)
(0.705602 0.0657604 0.00012371)
(0.685558 0.0685344 0.00019037)
(0.655766 0.071185 0.000186746)
(0.628344 0.0742986 6.70867e-05)
(0.606803 0.077935 -8.49388e-05)
(0.587132 0.0818782 -0.000201542)
(0.566857 0.0860664 -0.000297174)
(0.545769 0.0905737 -0.000390906)
(0.524233 0.0954882 -0.000488291)
(0.502289 0.100837 -0.000589244)
(0.479735 0.106554 -0.000693413)
(0.456447 0.112467 -0.000799479)
(0.432525 0.118301 -0.000905073)
(0.408129 0.123719 -0.00100952)
(0.383298 0.128391 -0.00111266)
(0.358166 0.132166 -0.00121436)
(0.332918 0.135101 -0.00131562)
(0.30759 0.137442 -0.0014166)
(0.282264 0.139547 -0.00151778)
(0.256863 0.141745 -0.00162211)
(0.231071 0.144075 -0.00173125)
(0.205043 0.146224 -0.00184074)
(0.179209 0.147506 -0.00194926)
(0.153736 0.147112 -0.00205733)
(0.128653 0.144568 -0.00216562)
(0.104015 0.140239 -0.00227422)
(0.0798572 0.135612 -0.00238233)
(0.0565975 0.133016 -0.00248929)
(0.0322494 0.134688 -0.00258913)
(0.0130871 0.142484 -0.00268902)
(3 3.80668e-07 0.000585222)
(3 9.17965e-07 0.000555338)
(3 -1.89049e-06 0.00052565)
(2.99999 -5.2235e-06 0.000496254)
(2.99996 -7.77587e-06 0.000467235)
(2.99987 -6.87388e-06 0.000439121)
(2.99968 4.73499e-06 0.000411919)
(2.99916 3.11832e-05 0.00038955)
(2.9982 0.000117356 0.000370484)
(2.99527 0.000251865 0.000384295)
(2.99133 0.0007349 0.000384979)
(2.96661 0.000974892 0.000830149)
(2.93294 0.0024914 0.00103215)
(2.77559 0.00298707 0.0041406)
(2.33803 0.00168621 0.00785501)
(1.47503 0.00397572 0.0168016)
(0.634278 0.04933 0.00718579)
(0.610895 0.058745 0.000556036)
(0.671301 0.0669405 -0.000276291)
(0.706306 0.0733965 -0.000141441)
(0.702726 0.0776241 0.000118205)
(0.68267 0.0809999 0.000179059)
(0.652999 0.0839484 0.000174379)
(0.625786 0.087433 6.10773e-05)
(0.604412 0.0915578 -8.1385e-05)
(0.584892 0.0960569 -0.000190707)
(0.564814 0.100851 -0.000280725)
(0.543984 0.106022 -0.000369049)
(0.522741 0.111666 -0.000460719)
(0.501107 0.117807 -0.000555598)
(0.478882 0.124366 -0.000653313)
(0.455962 0.131136 -0.000752566)
(0.432448 0.137805 -0.000851082)
(0.40847 0.14401 -0.000948326)
(0.384052 0.149412 -0.00104433)
(0.359338 0.153862 -0.00113896)
(0.334498 0.157432 -0.00123321)
(0.30954 0.16039 -0.00132727)
(0.284537 0.163099 -0.00142157)
(0.259399 0.165856 -0.00151915)
(0.233823 0.16869 -0.00162124)
(0.207965 0.171248 -0.00172319)
(0.1822 0.172827 -0.00182407)
(0.156661 0.172637 -0.00192465)
(0.131366 0.170216 -0.00202541)
(0.106362 0.165925 -0.00212619)
(0.0816879 0.161225 -0.00222644)
(0.0578214 0.158456 -0.002326)
(0.0329959 0.159909 -0.00242216)
(0.0132835 0.167385 -0.00251378)
(3 3.51702e-07 0.000548534)
(3 8.215e-07 0.000520483)
(3 -7.3561e-07 0.000492617)
(2.99999 -3.06041e-06 0.000465019)
(2.99996 -4.52677e-06 0.00043777)
(2.99987 -2.63411e-06 0.000411341)
(2.9997 1.17724e-05 0.000385721)
(2.99921 4.28114e-05 0.000364392)
(2.99831 0.000145163 0.000345936)
(2.99555 0.000312229 0.000356732)
(2.9919 0.000890977 0.000354401)
(2.96783 0.00134175 0.000763217)
(2.93612 0.00307643 0.000928005)
(2.78215 0.00441335 0.00380977)
(2.35692 0.00427337 0.0071827)
(1.51215 0.00958892 0.0156113)
(0.657695 0.0622714 0.00691899)
(0.609928 0.0703446 0.000714017)
(0.66881 0.0781402 -0.0002459)
(0.703713 0.0850929 -0.00013105)
(0.699854 0.0899365 0.000112616)
(0.679611 0.0938236 0.000168652)
(0.649987 0.0970813 0.000162406)
(0.62308 0.100926 5.46132e-05)
(0.601998 0.105516 -7.81385e-05)
(0.58273 0.110557 -0.000179783)
(0.562937 0.115954 -0.000263904)
(0.542451 0.121795 -0.000346684)
(0.521584 0.128181 -0.000432496)
(0.500333 0.135132 -0.000521076)
(0.478503 0.142548 -0.000612083)
(0.45601 0.150192 -0.000704395)
(0.432967 0.157711 -0.000795865)
(0.409475 0.164719 -0.000885993)
(0.38554 0.170869 -0.000974856)
(0.361309 0.176027 -0.00106228)
(0.336942 0.180267 -0.00114931)
(0.312427 0.18388 -0.00123621)
(0.28779 0.187247 -0.00132335)
(0.262933 0.190642 -0.00141298)
(0.237569 0.194071 -0.001507)
(0.211831 0.19716 -0.00160178)
(0.186072 0.199187 -0.00169565)
(0.160396 0.199364 -0.00178895)
(0.1348 0.19723 -0.00188245)
(0.109339 0.193113 -0.00197621)
(0.0840825 0.188432 -0.00206952)
(0.0595408 0.185508 -0.00216199)
(0.034024 0.186717 -0.00224832)
(0.0135398 0.193899 -0.00233782)
(3 9.45704e-08 0.000510348)
(3 1.63358e-07 0.000484203)
(3 6.7912e-07 0.000458239)
(2.99999 -6.28658e-08 0.000432525)
(2.99996 -1.63901e-07 0.000407129)
(2.99988 2.36686e-06 0.000382459)
(2.99972 1.75612e-05 0.000358501)
(2.99926 4.85633e-05 0.000338253)
(2.99843 0.000152754 0.000320443)
(2.99587 0.000324149 0.000328065)
(2.9926 0.000905849 0.000322313)
(2.96923 0.00130698 0.000695149)
(2.9398 0.00363405 0.000821153)
(2.78944 0.00480471 0.00347687)
(2.37779 0.00723095 0.00649754)
(1.55413 0.01627 0.0143726)
(0.683523 0.0771025 0.00663565)
(0.607715 0.08347 0.000871072)
(0.665429 0.0906554 -0.000217679)
(0.700659 0.0976868 -0.000122439)
(0.696676 0.102851 0.000106223)
(0.676254 0.107056 0.000158251)
(0.646708 0.110581 0.000150343)
(0.620231 0.114766 4.78737e-05)
(0.599563 0.119793 -7.49862e-05)
(0.580645 0.125352 -0.000168673)
(0.561223 0.13134 -0.000246662)
(0.541162 0.13785 -0.000323686)
(0.52075 0.144985 -0.000403483)
(0.499964 0.152753 -0.000485658)
(0.478615 0.161031 -0.000569772)
(0.45664 0.169547 -0.000654785)
(0.434157 0.177914 -0.00073876)
(0.411234 0.185728 -0.000821382)
(0.387866 0.192644 -0.000902846)
(0.364191 0.198548 -0.00098297)
(0.340351 0.20352 -0.00106257)
(0.316334 0.207865 -0.00114226)
(0.292123 0.211992 -0.00122254)
(0.267578 0.216137 -0.00130515)
(0.242445 0.220261 -0.00139138)
(0.216843 0.224018 -0.00147798)
(0.191059 0.226672 -0.00156387)
(0.165178 0.227421 -0.00164944)
(0.139194 0.225793 -0.00173529)
(0.113162 0.222065 -0.00182143)
(0.0871556 0.217571 -0.00190724)
(0.0617284 0.214595 -0.0019922)
(0.0353819 0.215531 -0.00207461)
(0.0140497 0.222331 -0.00215332)
(3 1.98168e-08 0.000470594)
(3 -1.01546e-08 0.000446442)
(3 6.8339e-07 0.000422464)
(2.99999 1.64956e-07 0.000398718)
(2.99996 4.34053e-08 0.000375258)
(2.99989 2.05338e-06 0.000352437)
(2.99974 1.5199e-05 0.00033024)
(2.99931 4.12787e-05 0.000311229)
(2.99855 0.000134588 0.000294267)
(2.99616 0.000292199 0.000299412)
(2.99315 0.000790537 0.000292138)
(2.97084 0.00111805 0.000621112)
(2.94334 0.00400737 0.00072299)
(2.79737 0.00474872 0.00311971)
(2.40295 0.0104414 0.00578473)
(1.6027 0.023659 0.013091)
(0.713057 0.0940784 0.00633948)
(0.604542 0.0980663 0.00102482)
(0.661274 0.104235 -0.000191478)
(0.697196 0.111018 -0.000115695)
(0.693201 0.11625 9.85739e-05)
(0.672601 0.12058 0.000147148)
(0.643171 0.124311 0.000137696)
(0.617218 0.128823 4.09162e-05)
(0.597067 0.134272 -7.17692e-05)
(0.578593 0.140332 -0.000157234)
(0.559632 0.146905 -0.000228869)
(0.540088 0.154091 -0.000299943)
(0.520222 0.161989 -0.000373503)
(0.499987 0.170592 -0.00044902)
(0.479212 0.179751 -0.00052609)
(0.457854 0.189159 -0.000603856)
(0.436039 0.198393 -0.000680644)
(0.413806 0.207033 -0.000756007)
(0.391132 0.21474 -0.000830128)
(0.368138 0.221424 -0.000903087)
(0.344935 0.227175 -0.000975258)
(0.321527 0.23235 -0.00104677)
(0.297821 0.237361 -0.00111886)
(0.273591 0.24237 -0.00119417)
(0.248677 0.247364 -0.00127274)
(0.223209 0.251969 -0.00135155)
(0.197377 0.255437 -0.00142947)
(0.171238 0.256974 -0.00150705)
(0.144773 0.256082 -0.00158481)
(0.118035 0.25297 -0.00166285)
(0.0911311 0.248867 -0.00174099)
(0.0646316 0.245972 -0.00181921)
(0.0370713 0.246737 -0.00189169)
(0.0145633 0.253183 -0.00196935)
(3 -1.01804e-07 0.000429204)
(3 -2.9106e-07 0.000407134)
(3 5.78877e-07 0.000385229)
(2.99999 5.34315e-07 0.00036354)
(2.99996 1.72501e-06 0.000342107)
(2.99989 5.99175e-06 0.00032123)
(2.99975 2.5561e-05 0.000300899)
(2.99936 6.19453e-05 0.00028325)
(2.99866 0.000187935 0.000267235)
(2.99643 0.000417568 0.000270442)
(2.99377 0.00102698 0.000260845)
(2.97261 0.00166735 0.000546433)
(2.94717 0.00494632 0.000625941)
(2.80625 0.00627124 0.00275458)
(2.43154 0.0145682 0.00506137)
(1.6587 0.0321601 0.0117478)
(0.746428 0.113985 0.00602826)
(0.599535 0.114474 0.00117138)
(0.655748 0.119087 -0.000167719)
(0.692937 0.125295 -0.000110707)
(0.689154 0.130341 8.95598e-05)
(0.668478 0.134585 0.000134958)
(0.639291 0.138423 0.000124069)
(0.613996 0.143221 3.3713e-05)
(0.594473 0.149042 -6.83341e-05)
(0.576545 0.155543 -0.000145392)
(0.558155 0.162652 -0.000210513)
(0.539241 0.170484 -0.000275361)
(0.520037 0.179128 -0.000342496)
(0.500487 0.188558 -0.0004113)
(0.480435 0.19859 -0.000481068)
(0.459852 0.208882 -0.000551042)
(0.438857 0.218985 -0.000620053)
(0.417453 0.228466 -0.000687685)
(0.395606 0.237004 -0.000754159)
(0.373406 0.244524 -0.000819656)
(0.350966 0.251132 -0.000884477)
(0.328293 0.257284 -0.000948622)
(0.305133 0.263261 -0.00101315)
(0.281271 0.26927 -0.00108031)
(0.256641 0.275348 -0.00115054)
(0.231296 0.281058 -0.00122151)
(0.205372 0.285634 -0.00129166)
(0.178904 0.288271 -0.00136138)
(0.151857 0.28843 -0.00143127)
(0.124268 0.286231 -0.00150125)
(0.0962319 0.282782 -0.00157102)
(0.0683791 0.280181 -0.00164086)
(0.0393898 0.280838 -0.00170959)
(0.0154704 0.286916 -0.00177501)
(3 -1.38172e-07 0.000386103)
(3 -4.07799e-07 0.000366209)
(3 1.30867e-06 0.00034647)
(2.99999 -4.84518e-07 0.000326925)
(2.99997 -1.68445e-06 0.000307604)
(2.99991 -1.63135e-05 0.000288736)
(2.99978 -1.39856e-05 0.000270331)
(2.99945 -0.000100081 0.000254003)
(2.99886 -7.68099e-05 0.000238806)
(2.99686 -0.000739883 0.000239787)
(2.99464 0.000329989 0.000228186)
(2.97478 0.00169287 0.000471471)
(2.9515 0.00569354 0.00053093)
(2.81625 0.00778449 0.00238666)
(2.46341 0.0194112 0.00433647)
(1.72285 0.0421019 0.0103385)
(0.783892 0.137707 0.00569959)
(0.591434 0.132571 0.00130527)
(0.648034 0.134668 -0.000147749)
(0.687341 0.13979 -0.000107662)
(0.684103 0.144378 7.90461e-05)
(0.663536 0.148367 0.000121414)
(0.634813 0.152327 0.000109295)
(0.610353 0.157483 2.64318e-05)
(0.591586 0.163721 -6.43455e-05)
(0.574339 0.170683 -0.000132838)
(0.556675 0.178341 -0.000191379)
(0.538557 0.186828 -0.000249759)
(0.520186 0.196236 -0.000310177)
(0.501492 0.206491 -0.000372062)
(0.482341 0.217376 -0.000434436)
(0.462724 0.228528 -0.000496692)
(0.442744 0.239482 -0.000558075)
(0.422366 0.249806 -0.000618081)
(0.401532 0.259224 -0.000676983)
(0.380292 0.267655 -0.000734967)
(0.358822 0.275258 -0.000791622)
(0.336991 0.282527 -0.000848024)
(0.314412 0.289636 -0.000905482)
(0.291028 0.296877 -0.000964792)
(0.266767 0.304281 -0.00102662)
(0.241585 0.311382 -0.00108903)
(0.215561 0.317415 -0.00115089)
(0.188697 0.321553 -0.00121225)
(0.16093 0.323207 -0.00127384)
(0.132289 0.322376 -0.00133601)
(0.102877 0.319979 -0.00139834)
(0.0733404 0.317941 -0.00146046)
(0.0423341 0.318701 -0.00151842)
(0.0164496 0.32445 -0.00158261)
(3 -9.25693e-08 0.000341213)
(3 -2.48281e-07 0.000323593)
(3 3.81338e-07 0.000306127)
(2.99999 5.17869e-07 0.000288831)
(2.99995 2.27711e-06 0.000271804)
(2.99989 7.82135e-06 0.000255068)
(2.9997 2.75685e-05 0.000239369)
(2.99933 6.36068e-05 0.00022461)
(2.99824 0.000185786 0.00021639)
(2.99682 0.000265827 0.000204723)
(2.99615 0.00123646 0.000185842)
(2.97758 0.00203388 0.000395108)
(2.95641 0.00652295 0.000439187)
(2.82757 0.00929777 0.00202165)
(2.49909 0.0248389 0.00361465)
(1.79616 0.0546308 0.0088714)
(0.823488 0.16903 0.00535672)
(0.575778 0.154794 0.00142002)
(0.635191 0.152859 -0.000133811)
(0.678458 0.155946 -0.000107351)
(0.67666 0.159593 6.61154e-05)
(0.656813 0.162917 0.000105606)
(0.629122 0.166733 9.27329e-05)
(0.605867 0.172038 1.90292e-05)
(0.588102 0.178498 -5.97322e-05)
(0.571771 0.185774 -0.000119503)
(0.555084 0.193887 -0.000171355)
(0.538022 0.202964 -0.000223066)
(0.520732 0.213106 -0.000276474)
(0.503128 0.22416 -0.000331125)
(0.485128 0.235897 -0.000385869)
(0.466726 0.247921 -0.000440388)
(0.447997 0.259751 -0.000494058)
(0.428882 0.270958 -0.000546454)
(0.409277 0.281312 -0.000597839)
(0.389203 0.290744 -0.000647894)
(0.36889 0.299507 -0.000697026)
(0.348034 0.307996 -0.000745922)
(0.326179 0.316471 -0.000795031)
(0.30342 0.325223 -0.000846538)
(0.279622 0.334266 -0.000900362)
(0.254664 0.343095 -0.000954107)
(0.228577 0.350978 -0.00100722)
(0.201303 0.357078 -0.00106008)
(0.172733 0.360743 -0.00111291)
(0.142834 0.361841 -0.00116588)
(0.111659 0.361076 -0.00121939)
(0.0799343 0.360127 -0.00127378)
(0.0464497 0.361234 -0.00132754)
(0.0180782 0.366713 -0.00137805)
(3 1.078e-08 0.000294452)
(3 -4.1494e-08 0.000279216)
(3 -5.26239e-07 0.000264108)
(2.99999 1.80928e-06 0.000249148)
(2.99998 7.93848e-06 0.000234349)
(2.99993 3.63442e-05 0.000219839)
(2.99984 8.37289e-05 0.000205656)
(2.9996 0.000265619 0.000192468)
(2.99909 0.000535142 0.000181151)
(2.99773 0.00162264 0.000175791)
(2.99649 0.00235243 0.000164791)
(2.9798 0.00234557 0.000320226)
(2.9619 0.00771358 0.000342568)
(2.84111 0.0115339 0.00164418)
(2.54358 0.0311082 0.00288639)
(1.8879 0.0682158 0.00733295)
(0.870619 0.207504 0.00500163)
(0.553259 0.177009 0.00150941)
(0.618003 0.167727 -0.000127113)
(0.666966 0.168529 -0.00010914)
(0.667293 0.172388 5.08909e-05)
(0.648434 0.175982 8.8517e-05)
(0.622141 0.180432 7.54244e-05)
(0.600342 0.186177 1.22041e-05)
(0.583796 0.192896 -5.41319e-05)
(0.568673 0.200465 -0.000105195)
(0.553283 0.209019 -0.000150052)
(0.537616 0.218677 -0.000195142)
(0.521739 0.229504 -0.000241255)
(0.505557 0.241313 -0.000288086)
(0.489057 0.253858 -0.000335106)
(0.472199 0.266717 -0.000381523)
(0.455013 0.279417 -0.000427148)
(0.437423 0.291547 -0.000471784)
(0.419291 0.302908 -0.000515454)
(0.400651 0.313461 -0.000557657)
(0.381672 0.323597 -0.000599118)
(0.361935 0.333508 -0.000640812)
(0.341028 0.343607 -0.000682274)
(0.319093 0.354175 -0.000725535)
(0.295906 0.365219 -0.000770553)
(0.271274 0.376236 -0.000815861)
(0.245208 0.386503 -0.000860684)
(0.217551 0.395205 -0.000904889)
(0.188115 0.401617 -0.000949269)
(0.156791 0.405432 -0.000994049)
(0.123556 0.407085 -0.00103884)
(0.0890611 0.407935 -0.00108398)
(0.0519848 0.410062 -0.00112746)
(0.0200133 0.415545 -0.0011769)
(3 1.0408e-07 0.000245734)
(3 -2.80095e-08 0.000232991)
(3 2.52342e-07 0.000220358)
(2.99999 6.77033e-07 0.000207847)
(2.99998 5.16404e-06 0.000195466)
(2.99994 1.38381e-05 0.000183297)
(2.99988 5.10087e-05 0.000171335)
(2.99969 0.000109504 0.000160199)
(2.99933 0.000326119 0.000149765)
(2.99831 0.00065165 0.000143955)
(2.99723 0.00219002 0.000133558)
(2.98294 -0.00158935 0.000245303)
(2.96874 0.0144394 0.000253712)
(2.85683 -0.0130677 0.00127468)
(2.59373 0.0812309 0.00219319)
(1.99464 0.0747073 0.00573163)
(0.931739 0.289134 0.00462152)
(0.527802 0.222858 0.00155239)
(0.602509 0.191274 -0.000139015)
(0.660584 0.181896 -0.0001253)
(0.6633 0.184011 2.92804e-05)
(0.644364 0.187349 6.98769e-05)
(0.618372 0.193148 5.87852e-05)
(0.59678 0.199333 7.97645e-06)
(0.580679 0.206091 -4.68214e-05)
(0.566432 0.213846 -8.98577e-05)
(0.552264 0.222837 -0.000127617)
(0.538036 0.233131 -0.000165478)
(0.523734 0.244665 -0.000204025)
(0.509244 0.257278 -0.000242973)
(0.49455 0.270656 -0.000282007)
(0.479563 0.284369 -0.000320325)
(0.464242 0.297979 -0.00035779)
(0.448464 0.311129 -0.0003945)
(0.432056 0.323635 -0.000430491)
(0.415163 0.335484 -0.000465043)
(0.397755 0.347164 -0.000498728)
(0.379306 0.358789 -0.000532805)
(0.359614 0.370826 -0.0005669)
(0.338759 0.383556 -0.000602094)
(0.316446 0.396992 -0.000638126)
(0.292399 0.410723 -0.000674693)
(0.266594 0.424005 -0.000710955)
(0.238758 0.436098 -0.00074667)
(0.208533 0.446248 -0.000781827)
(0.175658 0.453981 -0.000817294)
(0.139927 0.459407 -0.0008537)
(0.101963 0.4634 -0.000891034)
(0.060401 0.467472 -0.000928342)
(0.0234416 0.4735 -0.000963564)
(3 3.33625e-08 0.000194969)
(3 6.88105e-09 0.000184835)
(3 -3.72633e-07 0.000174791)
(3 -1.79226e-06 0.00016484)
(2.99999 -1.68371e-06 0.000154996)
(2.99997 -5.39772e-06 0.000145261)
(2.99992 3.30687e-06 0.000135736)
(2.99983 -1.95771e-05 0.000126351)
(2.99956 5.14987e-05 0.000118029)
(2.99932 -0.000233328 0.000108769)
(2.99496 -5.19207e-05 0.000127948)
(2.99105 -0.00371084 0.000121793)
(2.95521 0.00568551 0.000364619)
(2.89635 -0.0158249 0.000522199)
(2.68349 0.0598359 0.00180039)
(2.03771 0.0788389 0.0036697)
(1.1311 0.310261 0.00410467)
(0.599786 0.258225 0.00161779)
(0.660619 0.228695 -0.000146164)
(0.716665 0.203817 -0.000155618)
(0.71486 0.201486 -6.92212e-06)
(0.688329 0.202939 4.40925e-05)
(0.654877 0.209561 4.05541e-05)
(0.625074 0.21543 7.11765e-06)
(0.602636 0.221285 -3.76614e-05)
(0.583938 0.228347 -7.33407e-05)
(0.5667 0.237051 -0.000103467)
(0.550447 0.24738 -0.000133391)
(0.53505 0.25919 -0.000164098)
(0.520303 0.272272 -0.000194959)
(0.506025 0.28629 -0.00022587)
(0.491986 0.300783 -0.000256216)
(0.477984 0.315298 -0.000285796)
(0.463727 0.329522 -0.000314635)
(0.4489 0.343285 -0.000342526)
(0.433724 0.356636 -0.000369588)
(0.417981 0.36999 -0.000395731)
(0.401017 0.383614 -0.000421814)
(0.382784 0.397896 -0.000448452)
(0.363297 0.413146 -0.000475692)
(0.342212 0.429397 -0.000503406)
(0.319131 0.446401 -0.000531448)
(0.294005 0.463506 -0.000559154)
(0.266484 0.479995 -0.000586325)
(0.235917 0.495117 -0.000613409)
(0.201772 0.508369 -0.000639924)
(0.163507 0.519506 -0.000666111)
(0.121221 0.52892 -0.000693378)
(0.0730646 0.53739 -0.000720927)
(0.0284217 0.545392 -0.000753178)
(3 -3.09813e-08 0.000142059)
(3 1.53837e-08 0.000134658)
(3 -4.2266e-07 0.000127326)
(2.99999 -1.22707e-06 0.000120065)
(2.99998 -1.75717e-06 0.000112893)
(2.99995 -2.40181e-06 0.000105808)
(2.99987 -1.95596e-06 9.89653e-05)
(2.99974 -5.17406e-06 9.22066e-05)
(2.99915 -1.89341e-05 8.73588e-05)
(2.99832 -8.65686e-05 8.21195e-05)
(2.99447 -0.000361749 9.11647e-05)
(2.98917 0.000830157 9.47742e-05)
(2.96233 0.000856723 0.000213208)
(2.91472 0.0112666 0.00032132)
(2.74269 0.0276153 0.00108444)
(2.23606 0.0829909 0.00213406)
(1.32235 0.238676 0.00370055)
(0.662932 0.261504 0.00145186)
(0.704873 0.259607 -6.59421e-05)
(0.761168 0.237775 -0.000121925)
(0.773132 0.232601 -4.44224e-05)
(0.749181 0.232135 1.76379e-05)
(0.713652 0.236368 2.33303e-05)
(0.676964 0.241089 8.44515e-06)
(0.647968 0.24519 -2.60145e-05)
(0.623776 0.25032 -5.43094e-05)
(0.601667 0.257298 -7.66931e-05)
(0.581084 0.26623 -9.83591e-05)
(0.562091 0.276971 -0.000120673)
(0.544673 0.289353 -0.000143112)
(0.528692 0.30303 -0.000165714)
(0.513795 0.317539 -0.000187749)
(0.499662 0.332419 -0.000209261)
(0.485856 0.347333 -0.000230198)
(0.471918 0.362168 -0.000250157)
(0.457966 0.376988 -0.000269727)
(0.443643 0.392004 -0.000288881)
(0.428166 0.407736 -0.000307446)
(0.411524 0.424508 -0.000326443)
(0.393713 0.442585 -0.000345711)
(0.374355 0.462048 -0.000365387)
(0.352993 0.482852 -0.000385323)
(0.329354 0.504545 -0.000404537)
(0.302919 0.52654 -0.000423276)