/*--------------------------------*- C++ -*----------------------------------*\
| =========                 |                                                 |
| \\      /  F ield         | OpenFOAM: The Open Source CFD Toolbox           |
|  \\    /   O peration     | Version:  2112                                  |
|   \\  /    A nd           | Website:  www.openfoam.com                      |
|    \\/     M anipulation  |                                                 |
\*---------------------------------------------------------------------------*/
FoamFile
{
    version     2.0;
    format      ascii;
    arch        "LSB;label=32;scalar=64";
    class       volScalarField;
    location    "1";
    object      T;
}
// * * * * * * * * * * * * * * * * * * * * * * * * * * * * * * * * * * * * * //

dimensions      [0 0 0 1 0 0 0];

internalField   nonuniform List<scalar> 
1000
(
0
0
0
0
0
0
0
0
0
0
0
0
0
0
0
0
0
0
0
0
0
0
0
0
0
0
0
0
0
0
0
0
0
0
0
0
0
0
0
0
0
0
0
0
0
0
0
0
0
0
0
0
0
0
0
0
0
0
0
0
0
0
0
0
0
0
0
0
0
0
0
0
0
0
0
0
0
0
0
0
0
0
0
0
0
0
0
0
0
0
0
0
0
0
0
0
0
0
0
0
0
0
0
0
0
0
0
0
0
0
0
0
0
0
0
0
0
0
0
0
0
0
0
0
0
0
0
0
0
0
0
0
0
0
0
0
0
0
0
0
0
0
0
0
0
0
0
0
0
0
0
0
0
0
0
0
0
0
0
0
0
0
0
0
0
0
0
0
0
0
0
0
0
0
0
0
0
0
0
0
0
0
0
0
0
0
0
0
0
0
0
0
0
0
0
0
0
0
0
0
0
0
0
0
0
0
0
0
0
0
0
0
0
0
0
0
0
0
0
0
0
0
0
0
0
0
0
0
0
0
0
0
0
0
0
0
0
0
0
0
0
0
0
0
0
0
0
0
0
0
0
0
0
0
0
0
0
0
0
0
0
0
0
0
0
0
0
0
0
0
0
0
0
0
0
0
0
0
0
0
0
0
0
0
0
0
0
0
0
0
0
0
0
0
0
0
0
0
0
0
0
0
0
0
0
0
0
0
0
0
0
0
0
0
0
0
0
0
0
0
0
0
0
0
0
0
0
0
0
0
0
0
0
0
0
0
0
0
0
0
0
0
0
0
0
0
0
0
0
0
4.90909e-91
-2.20418e-88
4.88276e-86
-7.11363e-84
7.66609e-82
-6.51677e-80
4.55073e-78
-2.68432e-76
1.36497e-74
-6.07653e-73
2.39711e-71
-8.46142e-70
2.69384e-68
-7.78645e-67
2.05473e-65
-4.9735e-64
1.10867e-62
-2.28391e-61
4.3609e-60
-7.73767e-59
1.27861e-57
-1.97145e-56
2.84086e-55
-3.8311e-54
4.84051e-53
-5.73512e-52
6.37633e-51
-6.65544e-50
6.52326e-49
-6.00398e-48
5.18798e-47
-4.20647e-46
3.19772e-45
-2.27638e-44
1.51501e-43
-9.40541e-43
5.43043e-42
-2.90418e-41
1.43059e-40
-6.43933e-40
2.61687e-39
-9.41516e-39
2.8919e-38
-6.96813e-38
9.47998e-38
1.79825e-37
-1.8234e-36
7.24775e-36
-1.74828e-35
1.46936e-35
8.68637e-35
-4.81745e-34
1.19727e-33
-7.03116e-34
-6.74908e-33
2.88008e-32
-4.58955e-32
-6.20824e-32
5.13335e-31
-1.06641e-30
-4.96246e-31
8.35341e-30
-1.79787e-29
-9.24632e-30
1.32304e-28
-2.3425e-28
-2.94017e-28
1.9389e-27
-1.97717e-27
-7.24715e-27
2.29715e-26
2.06381e-27
-1.2312e-25
1.63412e-25
4.01313e-25
-1.30345e-24
-4.23659e-25
6.63154e-24
-4.69011e-24
-2.58797e-23
4.30865e-23
7.99679e-23
-2.42592e-22
-1.82782e-22
1.11323e-21
1.8062e-22
-4.54383e-21
1.01451e-21
1.72654e-20
-8.29612e-21
-6.29144e-20
3.92353e-20
2.24143e-19
-1.45134e-19
-7.8765e-19
4.32922e-19
2.72325e-18
-9.2551e-19
-9.14207e-18
3.23602e-19
2.91274e-17
1.03309e-17
-8.51397e-17
-7.25911e-17
2.15791e-16
3.38237e-16
-4.15733e-16
-1.24484e-15
2.88227e-16
3.68119e-15
2.14115e-15
-8.17665e-15
-1.29233e-14
9.68057e-15
4.3008e-14
1.81564e-14
-9.05594e-14
-1.43542e-13
6.46208e-14
4.27997e-13
3.54277e-13
-5.94553e-13
-1.60008e-12
-6.85387e-13
2.82564e-12
5.48494e-12
1.2542e-12
-1.06982e-11
-1.87115e-11
-4.36134e-12
3.49864e-11
6.5143e-11
2.83953e-11
-9.57401e-11
-2.23103e-10
-1.75601e-10
1.73915e-10
6.8645e-10
8.71666e-10
1.44212e-10
-1.57929e-09
-3.30988e-09
-3.06588e-09
9.46743e-10
8.31819e-09
1.48167e-08
1.29561e-08
-4.02704e-09
-3.54743e-08
-6.72049e-08
-7.12233e-08
-1.58871e-08
1.12843e-07
2.85365e-07
4.11209e-07
3.4806e-07
-4.91043e-08
-8.37699e-07
-1.87586e-06
-2.7325e-06
-2.67954e-06
-8.28256e-07
3.5496e-06
1.05231e-05
1.89017e-05
2.56879e-05
2.58106e-05
1.24114e-05
-2.20399e-05
-8.35782e-05
-0.000173407
-0.000283434
-0.000390894
-0.000452471
-0.000398474
-0.000127728
0.000496113
0.00164621
0.00353161
0.00639347
0.0104984
0.0161288
0.0235719
0.0331058
0.044986
0.0594321
0.0766145
0.0966447
0.119567
0.145354
0.173905
0.205048
0.238546
0.274102
0.311374
0.349982
0.389525
0.429588
0.469764
0.509655
0.548889
0.587128
0.624071
0.659461
0.69309
0.724795
0.754458
0.782009
0.807416
0.830684
0.851852
0.870984
0.888167
0.903506
0.917117
0.929125
0.939658
0.948847
0.956821
0.963704
0.969616
0.974667
0.978963
0.982599
0.985662
0.98823
0.990375
0.992158
0.993633
0.994849
0.995848
0.996664
0.997329
0.997869
0.998305
0.998656
0.998938
0.999164
0.999343
0.999486
0.999599
0.999688
0.999758
0.999812
0.999855
0.999889
0.999914
0.999935
0.99995
0.999962
0.999971
0.999978
0.999983
0.999987
0.99999
0.999993
0.999995
0.999997
0.999999
1
1
1
0.999996
0.999989
0.999981
0.999974
0.999974
0.999987
1.00002
1.00008
1.00017
1.00028
1.00039
1.00045
1.0004
1.00013
0.999504
0.998354
0.996468
0.993607
0.989502
0.983871
0.976428
0.966894
0.955014
0.940568
0.923386
0.903355
0.880433
0.854646
0.826095
0.794952
0.761454
0.725898
0.688626
0.650018
0.610475
0.570412
0.530236
0.490345
0.451111
0.412872
0.375929
0.340539
0.30691
0.275205
0.245542
0.217991
0.192584
0.169316
0.148148
0.129016
0.111833
0.0964937
0.082883
0.0708755
0.0603422
0.0511528
0.0431788
0.0362956
0.0303842
0.0253326
0.0210368
0.0174011
0.0143382
0.0117696
0.00962511
0.00784245
0.00636687
0.00515054
0.004152
0.00333553
0.00267052
0.00213097
0.00169485
0.00134362
0.00106179
0.000836446
0.000656894
0.000514317
0.000401481
0.000312476
0.000242497
0.000187651
0.000144801
0.000111425
8.55077e-05
6.54417e-05
4.99514e-05
3.80279e-05
2.88757e-05
2.18703e-05
1.65229e-05
1.2452e-05
9.36123e-06
7.02065e-06
5.25277e-06
3.92085e-06
2.91989e-06
2.16951e-06
1.60833e-06
1.18966e-06
8.78047e-07
6.46652e-07
4.75219e-07
3.48497e-07
2.55035e-07
1.86253e-07
1.35745e-07
9.87357e-08
7.16739e-08
5.19274e-08
3.75484e-08
2.70991e-08
1.95208e-08
1.40356e-08
1.0073e-08
7.21602e-09
5.16003e-09
3.68327e-09
2.62451e-09
1.86685e-09
1.32562e-09
9.39707e-10
6.65018e-10
4.69842e-10
3.31402e-10
2.33373e-10
1.64077e-10
1.15174e-10
8.07186e-11
5.64829e-11
3.9463e-11
2.75297e-11
1.91759e-11
1.33371e-11
9.26244e-12
6.42323e-12
4.44787e-12
3.07559e-12
2.12367e-12
1.46432e-12
1.00828e-12
6.93312e-13
4.76084e-13
3.26476e-13
2.23583e-13
1.52916e-13
1.04447e-13
7.12482e-14
4.85394e-14
3.30264e-14
2.24429e-14
1.5232e-14
1.03251e-14
6.99034e-15
4.72689e-15
3.19249e-15
2.1536e-15
1.45106e-15
9.76559e-16
6.56457e-16
4.40773e-16
2.95615e-16
1.98038e-16
1.32521e-16
8.85799e-17
5.91437e-17
3.94465e-17
2.62807e-17
1.74904e-17
1.16279e-17
7.72224e-18
5.12309e-18
3.39523e-18
2.24781e-18
1.48665e-18
9.82237e-19
6.48319e-19
4.27493e-19
2.81605e-19
1.85322e-19
1.2184e-19
8.00271e-20
5.25131e-20
3.4426e-20
2.25475e-20
1.47538e-20
9.64508e-21
6.29956e-21
4.11072e-21
2.67999e-21
1.74566e-21
1.13605e-21
7.38674e-22
4.79873e-22
3.11474e-22
2.01996e-22
1.30885e-22
8.47363e-23
5.48127e-23
3.54265e-23
2.28778e-23
1.47619e-23
9.51725e-24
6.13096e-24
3.94634e-24
2.53812e-24
1.63111e-24
1.04739e-24
6.72042e-25
4.30868e-25
2.76029e-25
1.76698e-25
1.13026e-25
7.22426e-26
4.61405e-26
2.94474e-26
1.87797e-26
1.19677e-26
7.621e-27
4.84952e-27
3.0837e-27
1.95944e-27
1.24418e-27
7.89456e-28
5.00571e-28
3.17176e-28
2.00832e-28
1.27077e-28
8.03531e-29
5.07741e-29
3.20619e-29
2.02322e-29
1.27587e-29
8.04051e-30
5.06377e-30
3.18698e-30
2.00448e-30
1.25992e-30
7.9142e-31
4.96812e-31
3.11675e-31
1.95406e-31
1.22434e-31
7.66647e-32
4.79756e-32
3.00039e-32
1.87529e-32
1.17138e-32
7.31245e-33
4.56213e-33
2.84455e-33
1.77256e-33
1.10391e-33
6.87085e-34
4.274e-34
2.6571e-34
1.65094e-34
1.02519e-34
6.36256e-35
3.94651e-35
2.44653e-35
1.51581e-35
9.38637e-36
5.80913e-36
3.59323e-36
2.22138e-36
1.37253e-36
8.47597e-37
5.23146e-37
3.22718e-37
1.98973e-37
1.22613e-37
7.55177e-38
4.64874e-38
2.8602e-38
1.75887e-38
1.08105e-38
6.64107e-39
4.07764e-39
2.50242e-39
1.53495e-39
9.41045e-40
5.76648e-40
3.53181e-40
2.16207e-40
1.32291e-40
8.09055e-41
4.94557e-41
3.02166e-41
1.8453e-41
1.12637e-41
6.87213e-42
4.19079e-42
2.55445e-42
1.55631e-42
9.47747e-43
5.76884e-43
3.50983e-43
2.13444e-43
1.29744e-43
7.883e-44
4.78742e-44
2.90614e-44
1.76335e-44
1.06947e-44
6.48346e-45
3.92875e-45
2.37965e-45
1.44073e-45
8.71897e-46
5.27425e-46
3.18912e-46
1.9275e-46
1.16449e-46
7.03226e-47
4.24493e-47
2.56133e-47
1.54483e-47
9.31354e-48
5.61269e-48
3.38103e-48
2.03587e-48
1.2254e-48
7.37271e-49
4.43408e-49
2.66567e-49
1.6019e-49
9.62262e-50
5.77804e-50
3.46814e-50
2.08087e-50
1.24802e-50
7.48227e-51
4.48411e-51
2.68629e-51
1.60866e-51
9.62968e-52
5.76228e-52
3.44678e-52
2.06097e-52
1.23187e-52
7.36037e-53
4.39616e-53
2.62475e-53
1.56654e-53
9.34629e-54
5.57415e-54
3.32324e-54
1.98056e-54
1.17994e-54
7.02711e-55
4.18349e-55
2.48971e-55
1.48117e-55
8.80867e-56
5.23677e-56
3.11219e-56
1.84893e-56
1.09805e-56
6.51896e-57
3.86888e-57
2.29533e-57
1.36131e-57
8.07095e-58
4.7835e-58
2.83415e-58
1.67863e-58
9.93901e-59
5.88286e-59
3.4809e-59
2.05899e-59
1.21751e-59
7.19703e-60
4.25297e-60
2.51242e-60
1.48373e-60
8.75945e-61
5.16966e-61
3.05007e-61
1.79896e-61
1.06071e-61
6.25227e-62
3.6842e-62
2.17027e-62
1.27806e-62
7.52354e-63
4.43804e-63
2.43534e-63
)
;

boundaryField
{
    sides
    {
        type            zeroGradient;
    }
    empty
    {
        type            empty;
    }
}


// ************************************************************************* //
