/*--------------------------------*- C++ -*----------------------------------*\
| =========                 |                                                 |
| \\      /  F ield         | OpenFOAM: The Open Source CFD Toolbox           |
|  \\    /   O peration     | Version:  2112                                  |
|   \\  /    A nd           | Website:  www.openfoam.com                      |
|    \\/     M anipulation  |                                                 |
\*---------------------------------------------------------------------------*/
FoamFile
{
    version     2.0;
    format      ascii;
    arch        "LSB;label=32;scalar=64";
    class       volScalarField;
    location    "6";
    object      Ma;
}
// * * * * * * * * * * * * * * * * * * * * * * * * * * * * * * * * * * * * * //

dimensions      [0 0 0 0 0 0 0];

internalField   nonuniform List<scalar> 
5250
(
2.99999
2.99996
2.99986
2.99972
2.99915
2.99833
2.99521
2.98992
2.97283
2.93413
2.83899
2.57149
2.07745
1.06985
0.473465
0.293842
0.322311
0.324992
0.29025
0.2362
0.18764
0.148335
0.109268
0.0672606
0.035855
2.99999
2.99996
2.99986
2.99973
2.99916
2.99836
2.99529
2.99008
2.97325
2.93517
2.84141
2.57783
2.0896
1.08691
0.483625
0.294469
0.324181
0.327877
0.293557
0.240522
0.193265
0.155309
0.118316
0.0809096
0.0573824
2.99999
2.99997
2.99987
2.99974
2.99919
2.99841
2.99543
2.99041
2.9741
2.93733
2.84645
2.59151
2.11627
1.12601
0.507443
0.29829
0.330619
0.336659
0.303493
0.252761
0.208152
0.173096
0.140246
0.109699
0.0925884
2.99999
2.99997
2.99988
2.99975
2.99923
2.99849
2.99566
2.9909
2.97537
2.9406
2.85406
2.61251
2.15767
1.18871
0.544317
0.305367
0.341774
0.351562
0.320076
0.2724
0.230849
0.199069
0.17055
0.145279
0.131385
2.99999
2.99997
2.99988
2.99976
2.99928
2.99858
2.99589
2.9915
2.97687
2.9451
2.86406
2.641
2.21379
1.27797
0.594022
0.317964
0.358636
0.372825
0.343047
0.298825
0.260251
0.231428
0.206588
0.185325
0.173297
2.99999
2.99997
2.99989
2.99978
2.99933
2.99869
2.99616
2.99222
2.97857
2.95063
2.87604
2.67586
2.28342
1.39608
0.657621
0.341518
0.384342
0.401825
0.373454
0.332488
0.296543
0.270592
0.249106
0.231163
0.221232
2.99999
2.99998
2.9999
2.9998
2.99939
2.99881
2.99648
2.99299
2.9805
2.95657
2.88921
2.71439
2.36294
1.53898
0.735607
0.382092
0.422655
0.440515
0.413776
0.375627
0.341024
0.317199
0.299016
0.285372
0.279289
3
2.99998
2.99991
2.99982
2.99945
2.99892
2.99681
2.99372
2.98222
2.962
2.90074
2.75228
2.43598
1.71192
0.815566
0.42195
0.461059
0.477262
0.456235
0.423715
0.392339
0.371707
0.358008
0.350299
0.353542
3
2.99998
2.99992
2.99984
2.9995
2.99903
2.99712
2.99438
2.98379
2.96633
2.90977
2.78222
2.48907
1.81442
0.900852
0.465302
0.487506
0.500811
0.493958
0.46937
0.445496
0.431226
0.425364
0.430653
0.456723
3
2.99998
2.99993
2.99986
2.99957
2.99915
2.9975
2.99503
2.98584
2.97018
2.91997
2.80644
2.54001
1.9111
1.01085
0.529021
0.504572
0.520703
0.525567
0.512146
0.499088
0.493717
0.502219
0.535495
0.627234
3
2.99999
2.99996
2.99987
2.99973
2.99923
2.99833
2.99559
2.98936
2.97356
2.93202
2.83998
2.56404
2.06203
1.09323
0.598486
0.512995
0.53455
0.550915
0.550332
0.548741
0.557145
0.587747
0.661891
0.826655
3
2.99999
2.99995
2.9999
2.99968
2.99937
2.99816
2.99626
2.98974
2.97694
2.94075
2.85016
2.65323
2.10939
1.28836
0.686538
0.528827
0.55091
0.574943
0.58573
0.595241
0.617494
0.666115
0.759969
0.93155
3
2.99999
2.99996
2.99991
2.99971
2.99944
2.99832
2.99674
2.99039
2.98076
2.94676
2.87775
2.70172
2.25924
1.48032
0.788367
0.557057
0.577316
0.603165
0.620563
0.639099
0.672164
0.730444
0.822929
0.966763
3
2.99999
2.99997
2.99993
2.99976
2.99953
2.99859
2.99726
2.99197
2.98403
2.95525
2.90252
2.75259
2.40918
1.70806
0.905943
0.608069
0.621397
0.641564
0.660108
0.681249
0.718254
0.778631
0.862203
0.982318
3
3
2.99997
2.99994
2.9998
2.99962
2.99885
2.99776
2.99342
2.987
2.96332
2.92088
2.7989
2.51164
1.91063
1.01393
0.665177
0.660456
0.679734
0.700235
0.722093
0.757859
0.81622
0.89102
0.992981
3
3
2.99998
2.99995
2.99985
2.9997
2.99911
2.99826
2.99502
2.98974
2.9723
2.9349
2.84
2.58429
2.1042
1.17378
0.755915
0.690776
0.708707
0.730767
0.757301
0.791818
0.844607
0.913514
1.00179
3
3
2.99999
2.99996
2.99988
2.99976
2.99928
2.9986
2.99589
2.9918
2.97734
2.94915
2.87163
2.66948
2.27316
1.4132
0.880091
0.725378
0.734958
0.755907
0.78699
0.82287
0.870891
0.931747
1.00858
3.00001
3
2.99999
2.99997
2.99991
2.99981
2.99944
2.99891
2.99678
2.99366
2.98221
2.96166
2.90092
2.75062
2.44164
1.69657
1.0457
0.78802
0.77416
0.7872
0.815187
0.851085
0.896369
0.951212
1.01631
3.00001
3
2.99999
2.99998
2.99993
2.99986
2.99958
2.99917
2.99756
2.9952
2.98633
2.9716
2.92411
2.81865
2.57537
1.99826
1.20731
0.864499
0.820899
0.828215
0.849094
0.880155
0.919705
0.969108
1.02725
3.00001
3
3
2.99998
2.99996
2.99988
2.99975
2.99928
2.99855
2.99601
2.99139
2.97751
2.94526
2.86787
2.65391
2.2471
1.40689
0.96886
0.858969
0.862229
0.881354
0.909974
0.943232
0.985869
1.03704
3.00001
3
3
2.99999
2.99997
2.99991
2.99981
2.99943
2.99889
2.99675
2.99359
2.98202
2.96155
2.90043
2.75385
2.44167
1.75309
1.12655
0.915276
0.900519
0.912504
0.938488
0.970885
1.00644
1.04935
3.00001
3.00001
3
3
2.99998
2.99995
2.99983
2.99966
2.99901
2.99803
2.9944
2.9885
2.96866
2.9313
2.82263
2.59606
2.02287
1.31989
0.995155
0.938765
0.943674
0.963614
0.994251
1.02845
1.06622
3.00001
3.00001
3
3
2.99999
2.99996
2.99991
2.99972
2.99943
2.99837
2.99673
2.99104
2.98053
2.94971
2.87633
2.71275
2.27898
1.56283
1.11127
0.986119
0.977641
0.989009
1.01369
1.04685
1.08252
3.00001
3.00001
3
3
2.99999
2.99998
2.99992
2.99984
2.99952
2.99905
2.99727
2.99453
2.98504
2.96757
2.91716
2.79609
2.54128
1.93994
1.28995
1.04734
1.01689
1.02165
1.04033
1.0685
1.10001
3.00001
3.00001
3.00001
3
3
2.99999
2.99994
2.99989
2.99965
2.99933
2.99803
2.99618
2.98913
2.97777
2.94074
2.86007
2.67537
2.20032
1.49907
1.1257
1.04929
1.04962
1.06547
1.09192
1.12099
3.00001
3.00001
3.00001
3
3
2.99999
2.99996
2.99992
2.99976
2.99953
2.99862
2.99731
2.99226
2.98457
2.95751
2.90737
2.76908
2.45319
1.80861
1.2711
1.09788
1.08009
1.08909
1.11101
1.14039
3.00001
3.00001
3.00001
3.00001
3
3
2.99998
2.99994
2.99987
2.99962
2.99925
2.99786
2.99576
2.98819
2.97547
2.93547
2.84747
2.64757
2.16397
1.47945
1.17628
1.11849
1.11861
1.13379
1.15842
3.00001
3.00001
3.00001
3.00001
3
3
2.99999
2.99996
2.99992
2.99974
2.99949
2.99851
2.99711
2.99168
2.98354
2.95485
2.90144
2.7598
2.42232
1.79325
1.30414
1.15955
1.14693
1.15623
1.17696
3.00001
3.00001
3.00001
3.00001
3.00001
3
3
2.99998
2.99995
2.99983
2.99967
2.99903
2.9981
2.99458
2.98919
2.97024
2.93752
2.83663
2.64123
2.12612
1.51673
1.23683
1.18179
1.18087
1.19481
3.00001
3.00001
3.00001
3.00001
3.00001
3
3
2.99999
2.99996
2.99991
2.99974
2.99949
2.99853
2.99711
2.99187
2.98354
2.95619
2.90047
2.76359
2.4289
1.81144
1.36346
1.22627
1.20958
1.216
3.00001
3.00001
3.00001
3.00001
3.00001
3.00001
3
3
2.99998
2.99995
2.99983
2.99967
2.99904
2.99814
2.9947
2.98951
2.97119
2.93976
2.84434
2.6554
2.17638
1.56611
1.30006
1.24517
1.24183
3.00001
3.00001
3.00001
3.00001
3.00001
3.00001
3
3
2.99999
2.99997
2.9999
2.9998
2.99941
2.99884
2.99668
2.99351
2.98187
2.96282
2.90358
2.77853
2.48507
1.90261
1.44346
1.29079
1.26988
3.00001
3.00001
3.00001
3.00001
3.00001
3.00001
3.00001
3
3
2.99998
2.99995
2.99985
2.9997
2.99914
2.99829
2.99526
2.99032
2.97414
2.94459
2.85765
2.68734
2.22747
1.66578
1.37759
1.30765
3.00001
3.00001
3.00001
3.00001
3.00001
3.00001
3.00001
3
3
2.99999
2.99997
2.99993
2.99978
2.99956
2.99876
2.99755
2.99318
2.98625
2.96335
2.91987
2.8057
2.5458
2.00435
1.52904
1.35665
3.00001
3.00001
3.00001
3.00001
3.00001
3.00001
3.00001
3.00001
3
3
2.99998
2.99996
2.99987
2.99974
2.99924
2.99852
2.99578
2.99175
2.97718
2.95291
2.87937
2.72616
2.36145
1.76534
1.44935
3.00001
3.00001
3.00001
3.00001
3.00001
3.00001
3.00001
3.00001
3
3
2.99999
2.99998
2.99993
2.99985
2.99956
2.99913
2.99755
2.99519
2.98678
2.97291
2.92991
2.84554
2.62677
2.1965
1.63255
3.00001
3.00001
3.00001
3.00001
3.00001
3.00001
3.00001
3.00001
3.00001
3
3
2.99999
2.99997
2.99989
2.99978
2.99938
2.99879
2.9966
2.99324
2.98167
2.96164
2.90099
2.77512
2.47298
1.91974
3.00001
3.00001
3.00001
3.00001
3.00001
3.00001
3.00001
3.00001
3.00001
3.00001
3
3
2.99998
2.99994
2.99988
2.99964
2.99929
2.99798
2.99607
2.989
2.97807
2.94192
2.87196
2.69789
2.30297
3.00001
3.00001
3.00001
3.00001
3.00001
3.00001
3.00001
3.00001
3.00001
3.00001
3
3
2.99999
2.99998
2.99992
2.99983
2.99951
2.99904
2.99733
2.99472
2.98572
2.97022
2.92461
2.82322
2.60732
3.00001
3.00001
3.00001
3.00001
3.00001
3.00001
3.00001
3.00001
3.00001
3.00001
3.00001
3
3
2.99999
2.99995
2.9999
2.99971
2.99943
2.99837
2.99686
2.99121
2.98245
2.95383
2.8953
2.75965
3.00001
3.00001
3.00001
3.00001
3.00001
3.00001
3.00001
3.00001
3.00001
3.00001
3.00001
3.00001
3
3
2.99997
2.99994
2.99982
2.99965
2.99899
2.99802
2.99446
2.989
2.97026
2.93754
2.8421
3.00001
3.00001
3.00001
3.00001
3.00001
3.00001
3.00001
3.00001
3.00001
3.00001
3.00001
3.00001
3
3
2.99999
2.99995
2.9999
2.9997
2.99941
2.9983
2.99666
2.99058
2.98104
2.9489
2.88764
3.00001
3.00001
3.00001
3.00001
3.00001
3.00001
3.00001
3.00001
3.00001
3.00001
3.00001
3.00001
3
3
2.99999
2.99996
2.99992
2.99975
2.99951
2.99854
2.99717
2.99176
2.98367
2.95441
2.90126
3.00001
3.00001
3.00001
3.00001
3.00001
3.00001
3.00001
3.00001
3.00001
3.00001
3.00001
3.00001
3.00001
3
2.99999
2.99997
2.99993
2.99978
2.99956
2.9987
2.99744
2.99253
2.98487
2.95805
2.9058
3.00001
3.00001
3.00001
3.00001
3.00001
3.00001
3.00001
3.00001
3.00001
3.00001
3.00001
3.00001
3
3
2.99999
2.99998
2.99992
2.99983
2.9995
2.99901
2.99708
2.99414
2.98364
2.9641
2.90649
3.00001
3.00001
3.00001
3.00001
3.00001
3.00001
3.00001
3.00001
3.00001
3.00001
3.00001
3.00001
3
3
2.99999
2.99998
2.99992
2.99984
2.9995
2.99903
2.99708
2.99428
2.98347
2.9652
2.90683
3.00001
3.00001
3.00001
3.00001
3.00001
3.00001
3.00001
3.00001
3.00001
3.00001
3.00001
3.00001
3.00001
3
2.99999
2.99998
2.99992
2.99984
2.99952
2.99906
2.99722
2.9944
2.98427
2.96553
2.90943
3.00001
3.00001
3.00001
3.00001
3.00001
3.00001
3.00001
3.00001
3.00001
3.00001
3.00001
3.00001
3.00001
3
3
2.99997
2.99994
2.99981
2.99963
2.99889
2.99776
2.99371
2.98612
2.96316
2.90827
3.00001
3.00001
3.00001
3.00001
3.00001
3.00001
3.00001
3.00001
3.00001
3.00001
3.00001
3.00001
3.00001
3
2.99999
2.99998
2.99992
2.99984
2.99953
2.99906
2.99724
2.99444
2.98437
2.96585
2.91014
3.00001
3.00001
3.00001
3.00001
3.00001
3.00001
3.00001
3.00001
3.00001
3.00001
3.00001
3.00001
3.00001
3
2.99999
2.99998
2.99992
2.99984
2.99951
2.99905
2.99714
2.9944
2.98376
2.96611
2.90871
1.01998
1.01241
0.549945
0.207785
0.144145
0.240243
0.33641
0.38455
0.405846
0.427452
0.460783
0.497954
0.531002
0.559585
0.587161
0.616595
0.646838
0.676209
0.702417
0.72553
0.747825
0.77203
0.791116
0.801398
0.806235
0.803504
0.7881
0.755763
0.711141
0.657995
0.602011
0.545218
0.489708
0.435734
0.3846
0.336541
0.291086
0.24791
0.206142
0.166251
0.128653
0.0929048
0.0590622
0.0302851
0.0212471
0.0459697
0.073622
0.100419
0.126208
0.150913
0.174729
0.19766
0.219507
0.240093
0.260022
0.280049
0.299965
0.319143
0.337739
0.355689
0.373311
0.390392
0.407306
0.423736
0.440029
0.455951
0.471723
0.487219
0.502596
0.517713
0.532754
0.547576
0.562319
0.576866
0.591364
0.605686
0.619958
0.63407
0.64816
0.662093
0.676014
0.689761
0.703515
0.717068
0.730622
0.743945
0.757273
0.770347
0.783404
0.796149
0.808833
0.821129
0.833263
0.844858
0.856069
0.866419
0.875921
0.883937
0.890051
0.894374
1.04578
1.01587
0.803272
0.530744
0.414174
0.32013
0.211177
0.106149
0.0614122
0.143884
0.216148
0.272992
0.312943
0.340748
0.36788
0.399435
0.433138
0.465935
0.495218
0.52081
0.544889
0.570685
0.593058
0.605124
0.608542
0.603416
0.583391
0.546556
0.496584
0.43943
0.381329
0.324102
0.269784
0.217404
0.169949
0.126339
0.0875961
0.0577829
0.0452938
0.0610748
0.0884856
0.117372
0.145851
0.173029
0.198848
0.22442
0.249492
0.273719
0.29715
0.319636
0.341376
0.36224
0.382288
0.401115
0.419358
0.437423
0.45559
0.472985
0.489861
0.506155
0.522098
0.537625
0.552914
0.567827
0.58258
0.596996
0.611321
0.625326
0.639304
0.652974
0.66666
0.680051
0.693489
0.706648
0.719872
0.732837
0.745881
0.75868
0.77158
0.784232
0.797006
0.809517
0.82215
0.834511
0.846979
0.859167
0.871428
0.883399
0.895406
0.907103
0.918779
0.930092
0.941278
0.95199
0.962359
0.972031
0.980965
0.988564
0.9943
0.998269
1.0552
1.07966
1.01183
0.870602
0.760882
0.67114
0.583753
0.481288
0.3819
0.295358
0.219349
0.14798
0.0842195
0.0523698
0.0998623
0.149615
0.193932
0.232996
0.266091
0.292591
0.31589
0.33981
0.363552
0.377538
0.377904
0.368222
0.344784
0.306156
0.253643
0.201038
0.152629
0.113439
0.0931446
0.0934702
0.112599
0.139903
0.169533
0.199202
0.227131
0.254222
0.281234
0.307275
0.3326
0.356452
0.379412
0.401386
0.42296
0.443708
0.46399
0.483378
0.502251
0.520398
0.538
0.554548
0.570381
0.586063
0.601977
0.617533
0.632556
0.647059
0.661193
0.675037
0.688591
0.701952
0.715035
0.727984
0.74067
0.753268
0.765616
0.77792
0.789979
0.802033
0.813847
0.825691
0.837302
0.848979
0.860422
0.871964
0.883269
0.894697
0.905896
0.917226
0.928331
0.939554
0.950548
0.961648
0.972505
0.983457
0.99414
1.00488
1.01534
1.02579
1.03591
1.04597
1.05555
1.06475
1.07297
1.08022
1.08551
1.0892
1.07141
1.12259
1.11842
1.06094
0.988964
0.919623
0.846635
0.769552
0.685899
0.609458
0.539938
0.473902
0.408418
0.341379
0.279765
0.225574
0.175218
0.128314
0.0848666
0.0531212
0.0546453
0.0779497
0.105274
0.12822
0.128703
0.0994116
0.0853618
0.0825945
0.113612
0.14865
0.187072
0.225433
0.261754
0.293051
0.323712
0.352473
0.380305
0.406124
0.430784
0.453965
0.476505
0.49783
0.518365
0.537622
0.556214
0.573821
0.59111
0.607721
0.623962
0.639536
0.654763
0.66957
0.683906
0.697419
0.710317
0.723076
0.736072
0.749094
0.761765
0.774076
0.786188
0.798082
0.809884
0.821518
0.833106
0.844532
0.85595
0.867185
0.878457
0.889504
0.900642
0.911517
0.922522
0.933239
0.944109
0.954671
0.965401
0.975829
0.98644
0.996747
1.00724
1.01741
1.02777
1.03779
1.04802
1.05787
1.06794
1.07765
1.08755
1.09713
1.10694
1.11642
1.12602
1.1351
1.1441
1.15233
1.16015
1.16664
1.1718
1.17478
1.08305
1.14388
1.17242
1.16035
1.12289
1.08041
1.03065
0.977157
0.91732
0.859067
0.801384
0.743383
0.684442
0.62671
0.569844
0.518901
0.471642
0.426056
0.380389
0.335943
0.292565
0.253576
0.219273
0.190597
0.181049
0.196111
0.228551
0.279917
0.333459
0.382019
0.424008
0.460335
0.491976
0.519519
0.544362
0.567371
0.588932
0.608789
0.627424
0.644566
0.661008
0.676417
0.69135
0.705396
0.719036
0.731943
0.744796
0.756999
0.769193
0.780832
0.792542
0.803688
0.814956
0.825417
0.83561
0.845247
0.855404
0.865596
0.875932
0.885714
0.895613
0.905065
0.9148
0.924182
0.933878
0.943272
0.952959
0.962405
0.972098
0.981603
0.991302
1.00086
1.01056
1.02015
1.02987
1.03949
1.04923
1.05888
1.06864
1.07831
1.08807
1.09772
1.10744
1.11705
1.1267
1.13623
1.14585
1.1554
1.16503
1.17449
1.18393
1.1931
1.20223
1.21095
1.21953
1.22746
1.23499
1.24133
1.24643
1.24932
1.08746
1.15428
1.19541
1.2109
1.20107
1.18095
1.15277
1.11964
1.08093
1.04026
0.998279
0.954542
0.909329
0.862202
0.816908
0.771138
0.727239
0.684233
0.642117
0.599544
0.559121
0.521716
0.489117
0.463514
0.453081
0.456818
0.479869
0.519056
0.567455
0.614406
0.656111
0.689231
0.714683
0.734092
0.750038
0.763921
0.776919
0.788712
0.799625
0.809566
0.818984
0.827913
0.836703
0.845143
0.853542
0.86182
0.870126
0.878355
0.886738
0.895011
0.903368
0.911713
0.920222
0.928469
0.936423
0.944103
0.952089
0.960455
0.969079
0.977576
0.98605
0.994396
1.00281
1.01115
1.01962
1.02803
1.03658
1.04509
1.05374
1.06234
1.07109
1.07975
1.08858
1.09728
1.10616
1.11488
1.12381
1.13256
1.14152
1.15029
1.15924
1.16803
1.17697
1.18581
1.19485
1.2038
1.21291
1.22182
1.23086
1.23969
1.24862
1.25728
1.26597
1.27432
1.28256
1.29027
1.2976
1.30393
1.30907
1.31201
1.08802
1.15619
1.20589
1.23563
1.24666
1.24376
1.23278
1.21479
1.19281
1.16624
1.13913
1.10885
1.07796
1.04392
1.0098
0.974788
0.940142
0.904555
0.867604
0.829615
0.789905
0.751722
0.715412
0.687941
0.667812
0.661656
0.678832
0.719317
0.769507
0.818661
0.86131
0.896115
0.918385
0.929673
0.933778
0.935492
0.93746
0.939647
0.942379
0.945151
0.948277
0.951506
0.955014
0.958678
0.962682
0.966863
0.971504
0.976284
0.981588
0.986878
0.992714
0.998447
1.00474
1.01084
1.01708
1.02278
1.02899
1.03529
1.04237
1.04926
1.05649
1.06346
1.07077
1.07791
1.0854
1.09276
1.10046
1.10807
1.11598
1.12384
1.13192
1.14002
1.14827
1.15657
1.16496
1.17345
1.18198
1.19062
1.19926
1.20798
1.21667
1.22549
1.2343
1.24315
1.25193
1.2607
1.26942
1.27809
1.28675
1.29529
1.30386
1.31221
1.32059
1.32862
1.33665
1.34412
1.35138
1.35761
1.36292
1.3658
1.0872
1.15371
1.20776
1.24635
1.27064
1.28111
1.28389
1.27831
1.2686
1.25429
1.23835
1.21978
1.19964
1.17744
1.15336
1.12893
1.10282
1.07666
1.04596
1.01418
0.976064
0.94005
0.903299
0.869615
0.834466
0.819459
0.836879
0.877962
0.929416
0.98073
1.02331
1.05581
1.07848
1.08917
1.08612
1.07723
1.0677
1.05945
1.05384
1.05009
1.04839
1.04756
1.04783
1.04865
1.0499
1.05162
1.0539
1.05656
1.05982
1.06334
1.0674
1.07163
1.07634
1.08123
1.08625
1.09096
1.09577
1.10081
1.10645
1.1123
1.11835
1.12444
1.13068
1.137
1.14348
1.15007
1.15684
1.1637
1.17074
1.17783
1.1851
1.19241
1.19989
1.2074
1.21507
1.22279
1.23066
1.23857
1.24665
1.2548
1.26317
1.27149
1.27999
1.2884
1.29702
1.30548
1.31413
1.32257
1.33118
1.33953
1.34804
1.35624
1.36455
1.37251
1.38049
1.38798
1.39529
1.40171
1.40722
1.41035
1.08933
1.15064
1.2055
1.24881
1.28119
1.30181
1.31398
1.31909
1.31888
1.31466
1.30737
1.29861
1.28686
1.27426
1.2587
1.24329
1.22433
1.20561
1.18057
1.15171
1.11739
1.08284
1.0431
0.994911
0.947255
0.930334
0.950017
0.990295
1.03931
1.0903
1.13465
1.16518
1.18914
1.20266
1.20676
1.20019
1.18637
1.17079
1.15648
1.14567
1.13783
1.1328
1.12961
1.12764
1.12648
1.12595
1.12589
1.12649
1.12757
1.12914
1.13131
1.13379
1.13692
1.14027
1.14411
1.14771
1.15144
1.1552
1.15967
1.1644
1.16964
1.17482
1.1804
1.18589
1.19174
1.19755
1.20372
1.20991
1.21642
1.22299
1.22983
1.23673
1.24385
1.25102
1.2584
1.26581
1.2734
1.28104
1.28887
1.29664
1.30455
1.31241
1.32041
1.32838
1.33649
1.34457
1.35277
1.36092
1.36915
1.3773
1.38551
1.39359
1.4017
1.40958
1.41745
1.42492
1.43223
1.43872
1.44441
1.44762
1.09364
1.14974
1.20267
1.24782
1.28455
1.3119
1.33141
1.34382
1.35139
1.35447
1.35504
1.35285
1.3486
1.34305
1.33477
1.32587
1.31343
1.29917
1.27702
1.25047
1.21946
1.18276
1.13379
1.06636
1.01397
1.00414
1.02695
1.06425
1.11262
1.16555
1.21178
1.2461
1.26855
1.28548
1.29483
1.29684
1.29085
1.2767
1.25719
1.23802
1.22126
1.2087
1.19942
1.19323
1.18892
1.186
1.18404
1.18275
1.1821
1.18195
1.18256
1.18364
1.18529
1.18743
1.19019
1.19309
1.19605
1.19901
1.20244
1.20638
1.21081
1.21547
1.2204
1.22548
1.2308
1.23625
1.24194
1.24776
1.2538
1.25997
1.26634
1.27284
1.27952
1.28636
1.29337
1.30057
1.30795
1.31546
1.32304
1.33071
1.33845
1.34621
1.35407
1.36189
1.36985
1.37771
1.38576
1.39364
1.40176
1.40962
1.41777
1.42558
1.43368
1.44137
1.44929
1.45669
1.46413
1.47071
1.47663
1.48002
1.09929
1.1506
1.2008
1.24567
1.28476
1.31584
1.34078
1.35873
1.37206
1.38095
1.38689
1.39033
1.39182
1.39143
1.38893
1.38456
1.37659
1.36393
1.34344
1.31836
1.28775
1.24239
1.17497
1.09401
1.05055
1.05114
1.07531
1.11253
1.16199
1.21426
1.26023
1.29579
1.32199
1.33946
1.35131
1.35798
1.35928
1.35515
1.3429
1.32379
1.30204
1.28189
1.26504
1.25257
1.24353
1.23767
1.23362
1.23106
1.22926
1.22828
1.2278
1.22793
1.22866
1.22989
1.23181
1.23404
1.23665
1.23902
1.24177
1.24482
1.24859
1.25255
1.25687
1.26132
1.26607
1.27096
1.27616
1.2815
1.28714
1.2929
1.29895
1.30508
1.31151
1.31799
1.32481
1.33166
1.33878
1.34585
1.35322
1.3605
1.3681
1.37557
1.38333
1.39094
1.39882
1.40652
1.41448
1.42224
1.43024
1.43802
1.44604
1.4538
1.46177
1.46943
1.47725
1.48465
1.49205
1.49872
1.50473
1.50827
1.10876
1.15459
1.20092
1.24421
1.28353
1.31697
1.34471
1.36714
1.38455
1.398
1.40842
1.41583
1.42173
1.42512
1.42682
1.42546
1.41919
1.40497
1.38672
1.36056
1.32365
1.26355
1.17141
1.09402
1.0706
1.08223
1.10704
1.14599
1.19504
1.2446
1.28746
1.3231
1.35205
1.37408
1.38972
1.3999
1.40685
1.40968
1.4078
1.39919
1.38367
1.36235
1.34007
1.31991
1.30364
1.29171
1.28336
1.27794
1.27425
1.27197
1.27031
1.26954
1.26906
1.2694
1.27024
1.2716
1.27353
1.27547
1.27767
1.27999
1.28304
1.28648
1.29039
1.29442
1.29881
1.30329
1.30811
1.31304
1.31828
1.32364
1.32931
1.33508
1.34118
1.34741
1.35394
1.36052
1.36734
1.37418
1.38123
1.38829
1.39555
1.40278
1.41022
1.41759
1.42518
1.43265
1.44035
1.44788
1.45566
1.46322
1.47103
1.47859
1.48639
1.49389
1.50158
1.50891
1.51624
1.52292
1.52898
1.53257
1.12196
1.16263
1.20487
1.24508
1.28323
1.31711
1.34665
1.37109
1.39192
1.40826
1.42205
1.43299
1.44143
1.44838
1.4518
1.45193
1.44393
1.42881
1.40945
1.37916
1.32701
1.24009
1.14092
1.08957
1.08469
1.10064
1.12931
1.17024
1.21786
1.26186
1.30111
1.33555
1.36539
1.39055
1.41108
1.42659
1.43725
1.44395
1.44735
1.44738
1.4422
1.42994
1.41122
1.38856
1.36643
1.34707
1.3321
1.32118
1.31401
1.30926
1.3065
1.30468
1.30381
1.30337
1.3036
1.30431
1.30561
1.30718
1.30908
1.31089
1.31325
1.31604
1.31954
1.32323
1.32735
1.33159
1.33621
1.3409
1.34594
1.35103
1.35645
1.36194
1.36779
1.37373
1.38001
1.3863
1.39294
1.39955
1.40652
1.4134
1.42064
1.42773
1.43518
1.44243
1.45003
1.4574
1.4651
1.47253
1.48028
1.48774
1.49552
1.50298
1.51073
1.51814
1.52579
1.53305
1.54037
1.54704
1.55317
1.55681
1.1351
1.17218
1.21079
1.24913
1.28507
1.31821
1.34803
1.374
1.39608
1.41512
1.43052
1.44411
1.45448
1.46283
1.46733
1.46464
1.45396
1.43901
1.41344
1.36995
1.29105
1.18428
1.10826
1.08833
1.09705
1.11563
1.14684
1.18862
1.23086
1.26982
1.30579
1.33845
1.36819
1.39478
1.41843
1.43823
1.45447
1.46601
1.47389
1.47821
1.48033
1.47851
1.47106
1.457
1.43659
1.41443
1.39318
1.37547
1.36182
1.35248
1.34632
1.34272
1.34054
1.3395
1.33899
1.33916
1.33982
1.34091
1.34247
1.34398
1.34583
1.34793
1.35083
1.35407
1.35782
1.36166
1.3659
1.3702
1.37486
1.3796
1.38467
1.38985
1.39541
1.40104
1.407
1.41298
1.41931
1.42561
1.43225
1.43882
1.44573
1.45254
1.45968
1.4667
1.47401
1.48117
1.48861
1.49587
1.50338
1.5107
1.51825
1.5256
1.53313
1.54045
1.54789
1.55509
1.56225
1.56891
1.57497
1.57868
1.15142
1.18393
1.21853
1.25368
1.28826
1.32032
1.34993
1.37634
1.39934
1.41944
1.4365
1.4508
1.46267
1.47048
1.47264
1.46596
1.4539
1.43329
1.39601
1.32551
1.21941
1.12688
1.09163
1.09151
1.10453
1.12811
1.1624
1.2005
1.23709
1.27166
1.30429
1.33513
1.36422
1.39152
1.41661
1.43948
1.45967
1.47689
1.49071
1.49974
1.50596
1.5092
1.51072
1.50718
1.49739
1.48105
1.45976
1.43753
1.41721
1.40056
1.38844
1.3802
1.37527
1.37229
1.37097
1.3703
1.37044
1.37105
1.37214
1.37344
1.37498
1.37658
1.37882
1.38162
1.38509
1.38875
1.39277
1.39688
1.4013
1.40579
1.4106
1.41552
1.42079
1.42612
1.43181
1.43752
1.4436
1.44967
1.4561
1.46248
1.46921
1.47586
1.48283
1.48969
1.49685
1.50388
1.5112
1.51837
1.52578
1.53304
1.54048
1.54779
1.55519
1.56247
1.56976
1.57688
1.5839
1.59046
1.59646
1.60011
1.16918
1.19877
1.22953
1.26106
1.29279
1.32384
1.35217
1.37894
1.40209
1.42304
1.44068
1.45547
1.46677
1.47223
1.46886
1.45878
1.44108
1.40905
1.34717
1.24439
1.14203
1.09367
1.0864
1.09495
1.11261
1.14014
1.17426
1.20706
1.23908
1.26967
1.29987
1.32912
1.35782
1.38515
1.4114
1.43585
1.45862
1.47909
1.49719
1.51247
1.52365
1.53124
1.53651
1.53907
1.53945
1.53416
1.52198
1.50371
1.48172
1.46008
1.44091
1.42606
1.41533
1.4087
1.40468
1.40288
1.40209
1.40225
1.40295
1.40402
1.4054
1.4067
1.40836
1.41046
1.41337
1.41666
1.42034
1.42416
1.42829
1.43251
1.43705
1.44173
1.44672
1.4518
1.45722
1.46271
1.46851
1.47437
1.48051
1.4867
1.49313
1.49959
1.50627
1.51294
1.51981
1.52667
1.53368
1.54069
1.5478
1.55491
1.56206
1.56921
1.57637
1.5835
1.5906
1.5976
1.60446
1.61096
1.61685
1.62057
1.18561
1.21275
1.24066
1.26952
1.29861
1.32783
1.3552
1.38111
1.40455
1.42543
1.4434
1.45773
1.46654
1.46597
1.4571
1.44179
1.41364
1.35829
1.26161
1.15314
1.09378
1.0811
1.08679
1.09965
1.12205
1.15182
1.18177
1.21035
1.23868
1.26662
1.29509
1.3231
1.35111
1.37833
1.40488
1.43031
1.45437
1.47707
1.49764
1.51645
1.53232
1.54564
1.55485
1.56142
1.5661
1.56799
1.56661
1.55882
1.54453
1.52467
1.50301
1.48201
1.4645
1.45114
1.44234
1.43689
1.43425
1.43312
1.43324
1.43402
1.43525
1.43652
1.43796
1.43963
1.44196
1.44489
1.44826
1.45185
1.45573
1.45975
1.46405
1.46853
1.47327
1.47816
1.48329
1.48857
1.49409
1.49973
1.5056
1.51156
1.51775
1.52399
1.53044
1.53693
1.5436
1.55029
1.55712
1.56396
1.57089
1.57782
1.58479
1.59174
1.59869
1.6056
1.61246
1.61922
1.62584
1.63208
1.63777
1.64132
1.20477
1.22989
1.25468
1.2802
1.30611
1.33295
1.35896
1.38372
1.4066
1.42691
1.44397
1.45633
1.45884
1.45174
1.43846
1.41301
1.36253
1.27169
1.16352
1.09621
1.07715
1.08027
1.09
1.10845
1.13436
1.16141
1.1873
1.21262
1.23841
1.26445
1.2914
1.31807
1.34546
1.37184
1.39862
1.42381
1.44903
1.47227
1.49499
1.5156
1.53485
1.55181
1.56589
1.57761
1.58533
1.59162
1.59524
1.59643
1.59337
1.58363
1.5673
1.54687
1.52551
1.50609
1.49037
1.479
1.47189
1.46788
1.46644
1.46625
1.46724
1.46847
1.46985
1.4712
1.47306
1.47542
1.47839
1.48162
1.48517
1.48892
1.49295
1.49717
1.50164
1.50624
1.51109
1.51606
1.52129
1.52661
1.5322
1.53783
1.54374
1.54966
1.55583
1.56201
1.56842
1.57481
1.58139
1.58795
1.59463
1.60128
1.60801
1.61469
1.62141
1.62805
1.63467
1.64115
1.6475
1.65347
1.65891
1.66231
1.21801
1.24485
1.269
1.29315
1.31646
1.33999
1.36388
1.38691
1.40862
1.42738
1.44226
1.44825
1.4432
1.43074
1.40727
1.36055
1.27527
1.16881
1.09584
1.07243
1.07407
1.08261
1.09895
1.12241
1.14628
1.16944
1.19172
1.21482
1.23828
1.26301
1.2881
1.31417
1.34018
1.36644
1.39244
1.41787
1.44305
1.46686
1.49059
1.51222
1.53377
1.55284
1.57109
1.58666
1.59953
1.6098
1.61689
1.6233
1.62584
1.62649
1.62156
1.60977
1.59205
1.57155
1.55091
1.5329
1.51883
1.50936
1.50366
1.50111
1.50049
1.50126
1.5026
1.50376
1.50532
1.50718
1.50977
1.5126
1.51587
1.5193
1.52309
1.52701
1.53125
1.53555
1.54016
1.54479
1.54974
1.5547
1.55998
1.56524
1.57083
1.57637
1.58223
1.58804
1.59414
1.60017
1.60645
1.61266
1.61907
1.6254
1.63186
1.63823
1.64468
1.651
1.65734
1.66347
1.66951
1.67509
1.68022
1.68337
1.23316
1.25789
1.28165
1.30474
1.32775
1.34978
1.37167
1.39199
1.41118
1.42701
1.43528
1.43204
1.42024
1.39813
1.35428
1.27376
1.16969
1.09475
1.06867
1.06851
1.07596
1.0914
1.11316
1.13545
1.15605
1.17598
1.19599
1.21712
1.23912
1.26252
1.28651
1.31152
1.33652
1.36232
1.38741
1.41305
1.43759
1.46233
1.48601
1.50926
1.5318
1.55271
1.57345
1.59117
1.60885
1.62258
1.63517
1.64378
1.65157
1.65637
1.65884
1.65778
1.65082
1.63715
1.61835
1.59757
1.57794
1.56129
1.54911
1.54119
1.53708
1.53554
1.53591
1.53699
1.53827
1.53962
1.54173
1.54414
1.5472
1.55026
1.55386
1.55742
1.56147
1.56543
1.56984
1.57414
1.57885
1.58347
1.58848
1.59341
1.59869
1.60391
1.60945
1.61493
1.62069
1.62639
1.63234
1.63821
1.64428
1.65025
1.65639
1.66239
1.66851
1.67444
1.68044
1.68616
1.69182
1.69696
1.70167
1.70452
1.25195
1.27004
1.29407
1.31588
1.33744
1.3581
1.37852
1.39716
1.41303
1.42223
1.41994
1.40779
1.38637
1.34416
1.26704
1.1653
1.08983
1.06222
1.06138
1.06862
1.08437
1.10588
1.127
1.14593
1.16383
1.18161
1.2003
1.22006
1.24123
1.26347
1.28679
1.31077
1.33533
1.36011
1.38506
1.41007
1.43479
1.45963
1.48356
1.50776
1.53042
1.55329
1.57434
1.59507
1.61407
1.63166
1.64757
1.66056
1.67167
1.67983
1.68722
1.6909
1.69241
1.68957
1.68026
1.66451
1.64502
1.62432
1.60569
1.59054
1.58011
1.57366
1.5709
1.57032
1.57124
1.57223
1.57371
1.57561
1.57835
1.58121
1.58455
1.58785
1.59163
1.59534
1.59953
1.60357
1.60807
1.6124
1.61716
1.62178
1.62678
1.63168
1.63691
1.64207
1.64751
1.65287
1.6585
1.66402
1.66979
1.67539
1.68123
1.68686
1.69265
1.6982
1.7038
1.70908
1.71426
1.71891
1.72305
1.72556
1.27212
1.2867
1.3079
1.3295
1.34946
1.36861
1.38645
1.4021
1.4112
1.40927
1.39635
1.37483
1.33262
1.25659
1.15661
1.08256
1.05548
1.0549
1.06219
1.07836
1.10059
1.12105
1.13893
1.15506
1.1712
1.18786
1.20587
1.22498
1.24552
1.26696
1.28955
1.31264
1.33655
1.36064
1.38526
1.40979
1.43456
1.45901
1.48339
1.50738
1.53085
1.55404
1.5761
1.59797
1.61815
1.63801
1.6557
1.67256
1.68675
1.69889
1.70864
1.71667
1.7226
1.72501
1.72509
1.72028
1.70857
1.69106
1.67088
1.65084
1.63316
1.6198
1.61084
1.60612
1.60438
1.60465
1.60562
1.6068
1.6089
1.61144
1.61466
1.61777
1.62135
1.62486
1.62878
1.63266
1.6369
1.64106
1.64557
1.64998
1.65473
1.65937
1.66435
1.6692
1.67437
1.67941
1.68474
1.6899
1.69535
1.70058
1.70603
1.71129
1.71663
1.72176
1.72685
1.73165
1.7362
1.74028
1.74366
1.7458
1.29816
1.30377
1.31957
1.34045
1.36019
1.37789
1.39253
1.40215
1.39983
1.38612
1.36397
1.32057
1.24382
1.14491
1.07385
1.04913
1.04971
1.0574
1.07499
1.09822
1.11882
1.13567
1.15084
1.16529
1.18066
1.19677
1.21444
1.23296
1.25299
1.27368
1.29566
1.31801
1.34141
1.36483
1.3891
1.41303
1.43766
1.4616
1.48611
1.50964
1.53359
1.55637
1.57929
1.60102
1.62247
1.64278
1.66224
1.68052
1.6972
1.71254
1.72524
1.73619
1.74492
1.75222
1.75654
1.7577
1.75606
1.74879
1.73529
1.71665
1.69625
1.677
1.66085
1.64926
1.64204
1.63874
1.63804
1.63877
1.63993
1.64158
1.64434
1.64733
1.65089
1.65423
1.65803
1.66162
1.66567
1.66957
1.67388
1.67806
1.68254
1.68693
1.69157
1.69612
1.7009
1.70563
1.71051
1.71539
1.72033
1.72529
1.73022
1.73513
1.73989
1.74457
1.74896
1.75314
1.75682
1.76009
1.76241
1.76389
1.32901
1.32617
1.33542
1.35191
1.37098
1.38616
1.3951
1.39176
1.37703
1.35327
1.30726
1.2276
1.12932
1.06302
1.04193
1.04447
1.05417
1.07432
1.09873
1.11915
1.13525
1.14938
1.16277
1.17685
1.19174
1.20799
1.2252
1.2437
1.26303
1.28348
1.30456
1.32655
1.34892
1.37197
1.39517
1.41879
1.4424
1.46612
1.48978
1.5132
1.53658
1.55937
1.58215
1.60399
1.62579
1.64639
1.66673
1.68575
1.7041
1.72105
1.73659
1.75051
1.76194
1.77201
1.78012
1.7866
1.78934
1.78967
1.78615
1.77664
1.76124
1.74206
1.72194
1.70366
1.68919
1.6793
1.67375
1.67173
1.67186
1.67261
1.67414
1.67638
1.67979
1.68308
1.6868
1.69028
1.69414
1.69786
1.70193
1.70588
1.71012
1.71423
1.71858
1.7228
1.72725
1.73157
1.7361
1.7405
1.74505
1.74946
1.75393
1.75824
1.76246
1.76641