/*--------------------------------*- C++ -*----------------------------------*\
| =========                 |                                                 |
| \\      /  F ield         | OpenFOAM: The Open Source CFD Toolbox           |
|  \\    /   O peration     | Version:  2112                                  |
|   \\  /    A nd           | Website:  www.openfoam.com                      |
|    \\/     M anipulation  |                                                 |
\*---------------------------------------------------------------------------*/
FoamFile
{
    version     2.0;
    format      ascii;
    arch        "LSB;label=32;scalar=64";
    class       volScalarField;
    location    "6";
    object      p;
}
// * * * * * * * * * * * * * * * * * * * * * * * * * * * * * * * * * * * * * //

dimensions      [1 -1 -2 0 0 0 0];

internalField   nonuniform List<scalar> 
5250
(
1.00001
1.00004
1.00009
1.00028
1.00058
1.00166
1.00324
1.01013
1.01774
1.06602
1.10794
1.43274
1.90226
4.01043
8.9904
11.3256
11.1133
10.9967
11.0822
11.3
11.5012
11.6212
11.7141
11.7853
11.8374
1.00001
1.00004
1.00009
1.00027
1.00057
1.00163
1.00319
1.00997
1.01746
1.06499
1.10619
1.42562
1.88676
3.95759
8.87184
11.3388
11.1165
10.9901
11.0759
11.2941
11.4948
11.6152
11.7094
11.7817
11.8351
1.00001
1.00004
1.00009
1.00027
1.00055
1.00158
1.00309
1.00965
1.0169
1.06285
1.10259
1.41049
1.8535
3.84302
8.60236
11.3669
11.1179
10.9655
11.0492
11.2643
11.4628
11.582
11.6759
11.7482
11.8027
1.00001
1.00004
1.00009
1.00025
1.00052
1.0015
1.00294
1.00916
1.01607
1.05962
1.09721
1.38759
1.80293
3.6692
8.17764
11.4177
11.1226
10.9238
11.0025
11.2108
11.4063
11.5224
11.6142
11.6858
11.7427
1
1.00003
1.00008
1.00024
1.00049
1.00141
1.00278
1.00853
1.01521
1.05512
1.09065
1.35727
1.73618
3.44162
7.59871
11.4881
11.132
10.8667
10.9379
11.1348
11.3269
11.4388
11.5266
11.5959
11.6558
1
1.00003
1.00007
1.00022
1.00046
1.0013
1.0026
1.00778
1.0143
1.04958
1.08315
1.32099
1.6564
3.17062
6.87422
11.5638
11.1474
10.7989
10.8575
11.034
11.2198
11.3238
11.4038
11.4681
11.5313
1
1.00003
1.00007
1.0002
1.00042
1.00118
1.00239
1.00696
1.01323
1.04363
1.0749
1.28157
1.57014
2.8766
6.04082
11.5618
11.1449
10.7234
10.7629
10.9049
11.08
11.1714
11.235
11.2845
11.3454
1
1.00003
1.00006
1.00018
1.00038
1.00107
1.00217
1.00622
1.01213
1.03811
1.06761
1.24431
1.48804
2.60999
5.29546
11.3929
11.0739
10.6393
10.6476
10.7381
10.8951
10.9658
11.0024
11.0207
11.0611
1
1.00002
1.00006
1.00016
1.00034
1.00096
1.00195
1.00557
1.01101
1.03366
1.06142
1.21615
1.41914
2.46119
4.72635
10.8557
10.8229
10.5803
10.4949
10.5457
10.6579
10.6951
10.6846
10.633
10.5868
1
1.00002
1.00005
1.00014
1.0003
1.00084
1.00171
1.00489
1.00968
1.02972
1.05409
1.19224
1.36048
2.31544
4.22356
9.98371
10.6162
10.4639
10.3102
10.3262
10.3715
10.3566
10.2731
10.0643
9.73203
1
1.00001
1.00004
1.0001
1.00028
1.00054
1.00168
1.00292
1.01059
1.01707
1.06669
1.10958
1.439
1.92128
4.02481
8.92945
10.4635
10.3465
10.1228
10.0826
10.0593
9.97198
9.72895
9.15395
7.69287
1
1.00001
1.00004
1.00011
1.00022
1.00063
1.00126
1.0037
1.007
1.02298
1.03939
1.14787
1.25845
2.01074
3.33533
7.81921
10.3641
10.2362
9.95083
9.83214
9.74943
9.56918
9.18173
8.39925
6.90215
1
1.00001
1.00003
1.00009
1.0002
1.00056
1.00114
1.00323
1.00649
1.0191
1.03628
1.12108
1.2224
1.80782
2.88544
6.57034
10.2896
10.1397
9.78833
9.58422
9.44404
9.18989
8.71297
7.91331
6.72339
1
1.00001
1.00003
1.00008
1.00017
1.00047
1.00096
1.00271
1.00547
1.01576
1.03108
1.09611
1.18627
1.62566
2.45929
5.24184
10.1005
9.99318
9.657
9.35612
9.15382
8.8577
8.36943
7.637
6.68963
1
1.00001
1.00002
1.00007
1.00014
1.00039
1.00079
1.00222
1.00448
1.01285
1.02537
1.07808
1.14871
1.50233
2.15105
4.43301
9.46136
9.69475
9.49854
9.14669
8.89386
8.57865
8.11814
7.46657
6.6678
1
1.00001
1.00002
1.00005
1.00011
1.0003
1.00061
1.00173
1.00342
1.01031
1.0185
1.06548
1.10883
1.42107
1.87344
3.81389
8.15283
9.38743
9.27282
8.9857
8.67934
8.35001
7.91756
7.33659
6.6444
1
1.00001
1.00001
1.00004
1.00009
1.00024
1.0005
1.00139
1.0028
1.00817
1.01536
1.05115
1.08716
1.32944
1.66574
3.18156
6.62132
9.1769
9.11122
8.87554
8.51521
8.1673
7.75406
7.22962
6.61949
1
1
1.00001
1.00003
1.00007
1.00019
1.00039
1.00109
1.0022
1.00629
1.0122
1.03851
1.06757
1.24527
1.48727
2.58016
4.99531
8.88523
8.97187
8.79702
8.41316
8.02125
7.6182
7.14376
6.60054
1
1
1.00001
1.00002
1.00005
1.00014
1.0003
1.00083
1.00168
1.00475
1.0094
1.02835
1.05194
1.17989
1.33602
2.1753
3.77039
8.15452
8.80607
8.66689
8.32781
7.90124
7.50401
7.06897
6.58253
1
1
1.00001
1.00002
1.00004
1.00009
1.00025
1.00051
1.00143
1.00278
1.00863
1.01499
1.05455
1.08957
1.34485
1.69525
3.23821
6.58545
8.53499
8.4771
8.24835
7.81092
7.40983
7.00363
6.56334
1
1
1.00001
1.00001
1.00003
1.00007
1.00019
1.00039
1.0011
1.00223
1.00635
1.0124
1.0385
1.06868
1.24278
1.48249
2.54285
4.84831
8.15395
8.31349
8.16215
7.79567
7.35825
6.95958
6.54832
1
1
1
1.00001
1.00002
1.00006
1.00012
1.00034
1.00069
1.00194
1.0039
1.01122
1.02227
1.06651
1.13459
1.41201
1.95194
3.64101
7.27857
8.12435
8.03084
7.76386
7.33388
6.92984
6.54073
1
1
1
1.00001
1.00002
1.00004
1.0001
1.0002
1.00056
1.00114
1.00323
1.00626
1.0194
1.03413
1.12205
1.2135
1.78437
2.74295
5.77103
7.88363
7.86858
7.71144
7.34496
6.92533
6.53766
1
1
1
1.00001
1.00001
1.00003
1.00006
1.00017
1.00034
1.00094
1.00191
1.00539
1.01049
1.03234
1.0574
1.20053
1.38289
2.22873
3.905
7.37782
7.7792
7.66417
7.36822
6.9332
6.54046
1
1
1
1
1.00001
1.00002
1.00004
1.00012
1.00024
1.00067
1.00136
1.00379
1.00751
1.02229
1.04064
1.13952
1.24799
1.88309
2.9763
6.19193
7.57985
7.54365
7.35747
6.96002
6.55212
1
1
1
1
1.00001
1.00001
1.00003
1.00008
1.00017
1.00047
1.00096
1.00266
1.00536
1.01522
1.02997
1.09113
1.17612
1.57154
2.28975
4.47795
7.14791
7.39754
7.2985
7.017
6.57953
1
1
1
1
1
1.00001
1.00002
1.00005
1.00013
1.00027
1.00074
1.0015
1.00418
1.00828
1.02444
1.04495
1.15064
1.27769
1.92944
3.10052
6.21965
7.22045
7.17719
7.00432
6.63456
1
1
1
1
1
1.00001
1.00002
1.00003
1.00009
1.00019
1.00051
1.00104
1.00286
1.00577
1.01628
1.03197
1.09744
1.18418
1.60574
2.34599
4.55463
6.84107
7.04468
6.95515
6.707
1
1
1
1
1
1
1.00001
1.00002
1.00006
1.00012
1.00034
1.00068
1.00188
1.0038
1.01061
1.02135
1.06076
1.12595
1.36399
1.82462
3.18674
5.99936
6.87791
6.84867
6.70082
1
1
1
1
1
1
1.00001
1.00002
1.00003
1.00009
1.00019
1.00051
1.00104
1.00285
1.00572
1.01629
1.03099
1.09811
1.18039
1.59783
2.31421
4.41959
6.50996
6.73894
6.6636
1
1
1
1
1
1
1
1.00001
1.00002
1.00006
1.00012
1.00033
1.00067
1.00184
1.00372
1.01031
1.02075
1.05858
1.12135
1.3466
1.78239
3.04505
5.66815
6.56942
6.56151
1
1
1
1
1
1
1
1.00001
1.00001
1.00004
1.00008
1.00021
1.00042
1.00115
1.00233
1.00642
1.01283
1.03677
1.07076
1.21804
1.45226
2.30005
4.05022
6.15981
6.47128
1
1
1
1
1
1
1
1
1.00001
1.00002
1.00005
1.00011
1.0003
1.00061
1.00168
1.00339
1.00944
1.01898
1.0535
1.1112
1.31372
1.70909
2.83712
5.21559
6.26791
1
1
1
1
1
1
1
1
1.00001
1.00001
1.00003
1.00008
1.00016
1.00044
1.00088
1.00241
1.00486
1.01353
1.02666
1.07839
1.1521
1.46214
2.01307
3.53844
5.78243
1
1
1
1
1
1
1
1
1
1.00001
1.00002
1.00005
1.0001
1.00027
1.00054
1.00147
1.00298
1.00817
1.01633
1.04632
1.09187
1.26994
1.59
2.56937
4.66657
1
1
1
1
1
1
1
1
1
1.00001
1.00001
1.00003
1.00006
1.00016
1.00032
1.00086
1.00175
1.00475
1.00952
1.02645
1.05324
1.1503
1.32026
1.87009
2.95957
1
1
1
1
1
1
1
1
1
1
1.00001
1.00001
1.00004
1.00008
1.00022
1.00044
1.0012
1.00242
1.00666
1.01319
1.03805
1.07277
1.22153
1.46353
2.28092
1
1
1
1
1
1
1
1
1
1
1
1.00001
1.00002
1.00005
1.00013
1.00026
1.00071
1.00144
1.00389
1.00783
1.02172
1.04249
1.12619
1.24505
1.73554
1
1
1
1
1
1
1
1
1
1
1
1.00001
1.00001
1.00003
1.00007
1.00017
1.00035
1.00095
1.00192
1.00522
1.01031
1.02969
1.05467
1.17439
1.32896
1
1
1
1
1
1
1
1
1
1
1
1
1.00001
1.00002
1.00004
1.00011
1.00021
1.00057
1.00116
1.00314
1.00625
1.01765
1.03291
1.10475
1.18647
1
1
1
1
1
1
1
1
1
1
1
1
1
1.00001
1.00002
1.00007
1.00013
1.00036
1.00073
1.00197
1.00397
1.01088
1.02178
1.06121
1.12518
1
1
1
1
1
1
1
1
1
1
1
1
1
1.00001
1.00002
1.00004
1.00011
1.00022
1.0006
1.00121
1.00333
1.0067
1.01885
1.03704
1.11232
1
1
1
1
1
1
1
1
1
1
1
1
1
1.00001
1.00002
1.00003
1.00009
1.00018
1.0005
1.00101
1.00283
1.00571
1.0163
1.03217
1.09862
1
1
1
1
1
1
1
1
1
1
1
1
1
1
1.00001
1.00003
1.00008
1.00016
1.00044
1.00091
1.00256
1.00517
1.01507
1.02939
1.09366
1
1
1
1
1
1
1
1
1
1
1
1
1
1.00001
1.00001
1.00003
1.00006
1.00017
1.00035
1.001
1.00202
1.00584
1.01132
1.03627
1.06338
1
1
1
1
1
1
1
1
1
1
1
1
1
1.00001
1.00001
1.00003
1.00006
1.00017
1.00035
1.00098
1.00199
1.00573
1.01129
1.03518
1.06341
1
1
1
1
1
1
1
1
1
1
1
1
1
1
1.00001
1.00003
1.00006
1.00016
1.00033
1.00095
1.00191
1.00557
1.01084
1.03473
1.0611
1
1
1
1
1
1
1
1
1
1
1
1
1
1
1.00001
1.00002
1.00007
1.00013
1.00038
1.00077
1.00225
1.00437
1.014
1.02457
1.09084
1
1
1
1
1
1
1
1
1
1
1
1
1
1
1.00001
1.00003
1.00006
1.00016
1.00033
1.00094
1.0019
1.00553
1.01077
1.03438
1.0607
1
1
1
1
1
1
1
1
1
1
1
1
1
1
1.00001
1.00003
1.00006
1.00017
1.00034
1.00096
1.00194
1.00559
1.01107
1.03415
1.06226
3.4822
2.41633
2.71099
3.72623
3.70145
3.5462
3.4402
3.39007
3.3661
3.31486
3.24254
3.16947
3.10668
3.04951
2.98774
2.92078
2.85249
2.78862
2.73332
2.68439
2.63223
2.57561
2.54747
2.53654
2.53425
2.55813
2.62356
2.73094
2.87272
3.03423
3.20345
3.37291
3.53776
3.69582
3.84202
3.97602
4.09889
4.21148
4.31523
4.40972
4.49338
4.56749
4.63274
4.68895
4.73973
4.78381
4.81863
4.84656
4.86807
4.88398
4.89452
4.90026
4.90165
4.90047
4.89624
4.8869
4.87244
4.8553
4.83574
4.81397
4.78979
4.76347
4.73489
4.70444
4.67206
4.63803
4.60236
4.56524
4.52672
4.48698
4.44605
4.4041
4.36118
4.31743
4.27289
4.22769
4.18186
4.13551
4.08867
4.04142
3.99383
3.94598
3.89795
3.84983
3.80172
3.75372
3.70589
3.65835
3.61116
3.56445
3.51834
3.47296
3.42854
3.38533
3.34369
3.3042
3.26756
3.23501
3.20811
3.1899
4.24616
3.3182
3.41407
3.73755
3.66664
3.51649
3.42828
3.42142
3.4059
3.33409
3.24173
3.15633
3.09138
3.04154
2.98486
2.91975
2.85202
2.78737
2.73013
2.68068
2.63239
2.58164
2.54774
2.53335
2.53014
2.55053
2.61156
2.71592
2.85774
3.02025
3.19047
3.36067
3.52519
3.68323
3.82956
3.96343
4.08566
4.19631
4.30078
4.39712
4.4815
4.55632
4.62201
4.67989
4.73176
4.77528
4.81054
4.83895
4.86089
4.87718
4.88804
4.8941
4.8956
4.89473
4.89131
4.88317
4.86841
4.85108
4.83164
4.81012
4.78627
4.76016
4.73182
4.70151
4.66931
4.63541
4.59988
4.56288
4.52448
4.48483
4.444
4.40214
4.35931
4.31563
4.27118
4.22604
4.18028
4.13398
4.0872
4.04
3.99244
3.94463
3.89663
3.84854
3.80047
3.75248
3.70468
3.65715
3.60998
3.56326
3.51713
3.47172
3.42724
3.38391
3.34205
3.30234
3.26552
3.23262
3.20514
3.18634
5.06091
4.06063
3.70596
3.71408
3.6733
3.55718
3.44346
3.40404
3.36656
3.3113
3.23278
3.1559
3.09856
3.05148
2.98833
2.91735
2.84534
2.77735
2.71773
2.66896
2.62618
2.5855
2.54857
2.52832
2.52233
2.53802
2.59227
2.69072
2.83355
2.99789
3.16779
3.33721
3.49716
3.66179
3.80805
3.94281
4.06587
4.17892
4.28374
4.37976
4.46493
4.54095
4.60777
4.66655
4.7179
4.7618
4.79786
4.827
4.84953
4.86637
4.87769
4.88414
4.88588
4.88522
4.88255
4.87587
4.86223
4.84463
4.82514
4.80386
4.78039
4.75463
4.72665
4.69661
4.66469
4.63101
4.59571
4.55891
4.52071
4.48123
4.44058
4.39886
4.35618
4.31263
4.2683
4.22328
4.17762
4.13142
4.08471
4.03758
3.99008
3.94233
3.89439
3.84636
3.79833
3.7504
3.70264
3.65514
3.60797
3.56128
3.51515
3.46965
3.42507
3.38165
3.33978
3.29977
3.26244
3.22887
3.20044
3.18052
5.47144
4.51913
3.97752
3.7702
3.6954
3.58611
3.47603
3.41449
3.36938
3.30659
3.22521
3.14907
3.08726
3.03395
2.97599
2.90889
2.83944
2.7741
2.71556
2.66771
2.62408
2.5816
2.54547
2.51714
2.5042
2.51965
2.57355
2.66335
2.8046
2.96567
3.13605
3.3061
3.47037
3.63145
3.77886
3.91452
4.03874
4.15322
4.2585
4.35501
4.44114
4.5178
4.58524
4.6447
4.69636
4.74072
4.77745
4.80729
4.83053
4.84804
4.86008
4.86714
4.86932
4.86884
4.86682
4.86159
4.85047
4.83318
4.81376
4.79272
4.76972
4.74456
4.71719
4.68773
4.65631
4.62309
4.58822
4.5518
4.51396
4.4748
4.43446
4.39302
4.35059
4.30728
4.26317
4.21834
4.17288
4.12682
4.08025
4.03322
3.98585
3.93818
3.89035
3.84242
3.79453
3.74667
3.69904
3.65163
3.60446
3.55781
3.51175
3.46636
3.42174
3.37813
3.33595
3.29554
3.25762
3.22317
3.19357
3.17223
5.69844
4.84066
4.24696
3.90962
3.75439
3.64507
3.53487
3.44652
3.38149
3.31214
3.23197
3.15549
3.08969
3.03195
2.96955
2.90118
2.83234
2.7676
2.70986
2.66138
2.61723
2.57701
2.54391
2.52007
2.51244
2.52453
2.57124
2.66567
2.79242
2.94068
3.10049
3.26657
3.42994
3.5883
3.73649
3.87342
3.999
4.11465
4.22081
4.31807
4.40551
4.48352
4.55226
4.61279
4.66539
4.71064
4.74847
4.77945
4.80386
4.8225
4.83564
4.84379
4.84691
4.84661
4.84519
4.84139
4.833
4.81732
4.79853
4.77785
4.75535
4.73089
4.7043
4.67562
4.64493
4.61238
4.57812
4.54225
4.50493
4.46625
4.42634
4.3853
4.34325
4.30028
4.25649
4.21193
4.16672
4.12086
4.07448
4.02762
3.9804
3.93289
3.88521
3.83746
3.78973
3.74191
3.69445
3.6472
3.60039
3.55381
3.50774
3.46228
3.41759
3.37383
3.33135
3.29049
3.25192
3.21651
3.18565
3.16261
5.84221
5.08642
4.49648
4.1029
3.87137
3.72418
3.60065
3.49745
3.41104
3.33128
3.25129
3.17237
3.10017
3.0358
2.97156
2.90465
2.83662
2.77207
2.71504
2.66649
2.62433
2.5887
2.56146
2.54585
2.54743
2.5635
2.61177
2.70291
2.80791
2.93165
3.0637
3.20599
3.36035
3.5166
3.66865
3.81133
3.94151
4.05988
4.16768
4.26614
4.3552
4.4351
4.50588
4.56825
4.62263
4.66952
4.70907
4.7417
4.76779
4.78799
4.80268
4.81235
4.81712
4.81709
4.81631
4.81374
4.8077
4.79531
4.77786
4.75795
4.73615
4.71249
4.68683
4.65913
4.62941
4.59777
4.56434
4.52924
4.49261
4.45456
4.41524
4.37473
4.33318
4.29065
4.24728
4.20309
4.1582
4.11262
4.06648
4.01985
3.97284
3.92557
3.87808
3.83056
3.7831
3.73588
3.68862
3.64156
3.59484
3.5484
3.50239
3.45692
3.41218
3.36828
3.32554
3.28425
3.24502
3.20868
3.17658
3.15181
5.93808
5.27418
4.71132
4.29131
4.00474
3.81433
3.66986
3.55214
3.45379
3.36617
3.28275
3.20046
3.12263
3.04962
2.98198
2.91495
2.84757
2.78363
2.72731
2.68111
2.64565
2.62193
2.60929
2.61149
2.6252
2.66407
2.73803
2.80577
2.87412
2.9541
3.04905
3.14542
3.25721
3.39673
3.55252
3.71003
3.85477
3.98424
4.09908
4.20133
4.29262
4.37442
4.44723
4.51192
4.56892
4.61832
4.6604
4.69534
4.72372
4.74598
4.76265
4.77417
4.78082
4.78237
4.78188
4.78013
4.77589
4.76697
4.75192
4.73349
4.71276
4.69007
4.66546
4.63886
4.61028
4.57974
4.54735
4.51322
4.47748
4.44024
4.40166
4.36184
4.32091
4.27896
4.23609
4.19236
4.14784
4.1026
4.05674
4.01042
3.96367
3.91675
3.86978
3.82271
3.77563
3.7286
3.68164
3.63478
3.58818
3.54186
3.49594
3.45051
3.40575
3.36175
3.3188
3.27714
3.23735
3.20014
3.16693
3.14058
6.00511
5.41575
4.89074
4.46499
4.14668
3.91763
3.74755
3.61377
3.5031
3.40652
3.3177
3.23234
3.1512
3.07522
3.00381
2.93585
2.86896
2.80658
2.75206
2.71153
2.68838
2.68329
2.68772
2.70707
2.75748
2.8585
2.93527
2.97345
3.00145
3.03021
3.06082
3.12128
3.17722
3.25616
3.38089
3.54499
3.70907
3.86307
3.99891
4.11568
4.21557
4.30217
4.37752
4.44448
4.50402
4.55621
4.60125
4.63923
4.67058
4.69562
4.71483
4.72869
4.7376
4.74155
4.7414
4.74045
4.73777
4.73182
4.71989
4.70362
4.68448
4.66312
4.63974
4.61439
4.58708
4.55781
4.52665
4.49367
4.459
4.42276
4.3851
4.34612
4.30596
4.26471
4.22246
4.17925
4.13518
4.09033
4.04482
3.99893
3.95285
3.90648
3.85999
3.81333
3.76658
3.7198
3.67308
3.62645
3.58005
3.53389
3.48813
3.4428
3.39808
3.35405
3.31097
3.26904
3.22878
3.19083
3.15669
3.1289
6.05569
5.52571
5.0376
4.62004
4.28641
4.0304
3.83577
3.68295
3.55887
3.45333
3.35738
3.26865
3.1844
3.10567
3.03128
2.962
2.89557
2.83593
2.78677
2.75765
2.75664
2.76335
2.78871
2.85324
2.99033
3.13695
3.19853
3.19993
3.19268
3.17066
3.12971
3.13145
3.14831
3.18963
3.25658
3.36083
3.50752
3.67535
3.83874
3.98475
4.10866
4.21125
4.29632
4.36833
4.43065
4.48515
4.53263
4.57337
4.60804
4.6363
4.65871
4.6755
4.6872
4.69391
4.69547
4.69501
4.69339
4.68951
4.68142
4.66786
4.65085
4.63122
4.60937
4.58546
4.55958
4.53173
4.50198
4.47035
4.43697
4.40193
4.36538
4.32742
4.28821
4.2478
4.20629
4.16372
4.12014
4.0759
4.03119
3.98599
3.94048
3.89465
3.84858
3.8023
3.75592
3.70945
3.66304
3.61671
3.57057
3.52466
3.4791
3.43394
3.38933
3.34533
3.3022
3.26009
3.21949
3.18097
3.14607
3.11705
6.09058
5.61178
5.15847
4.75562
4.41761
4.14495
3.93008
3.75936
3.62091
3.50456
3.40155
3.30934
3.22144
3.14079
3.06348
2.99353
2.92818
2.87336
2.83449
2.82964
2.83668
2.86317
2.93145
3.08074
3.32823
3.48023
3.49534
3.4809
3.43617
3.34079
3.23825
3.17493
3.16665
3.17676
3.2089
3.26288
3.34605
3.46035
3.61692
3.78167
3.93769
4.07247
4.18348
4.27285
4.34525
4.40506
4.45565
4.49903
4.53643
4.5679
4.59353
4.61399
4.62924
4.63907
4.64402
4.64413
4.64347
4.64134
4.63644
4.62646
4.61188
4.59433
4.57434
4.55214
4.52787
4.5016
4.47338
4.44325
4.4113
4.37763
4.34237
4.30563
4.26752
4.22809
4.1874
4.14554
4.10292
4.05953
4.01559
3.97111
3.92619
3.88088
3.83528
3.78944
3.74348
3.69741
3.65138
3.6054
3.5596
3.51398
3.46871
3.42376
3.37935
3.33547
3.29238
3.2502
3.2094
3.17044
3.13499
3.10494
6.11746
5.67961
5.25825
4.87282
4.53761
4.25614
4.02652
3.84015
3.68787
3.56055
3.4503
3.35231
3.26156
3.17883
3.10032
3.03049
2.96821
2.92119
2.9068
2.91261
2.93639
3.00031
3.14414
3.43983
3.73802
3.83689
3.82631
3.78386
3.68433
3.52172
3.38194
3.28163
3.22257
3.20371
3.2085
3.22923
3.27332
3.33132
3.41757
3.54453
3.70253
3.86196
4.00834
4.1319
4.23085
4.30809
4.36876
4.4176
4.45819
4.49243
4.52126
4.54484
4.56358
4.57694
4.5855
4.5889
4.58873
4.58773
4.58499
4.57901
4.56737
4.55222
4.53435
4.5141
4.49167
4.46714
4.4406
4.4121
4.38175
4.34962
4.31584
4.28049
4.24366
4.20533
4.16568
4.12495
4.08336
4.04096
3.99787
3.95413
3.90989
3.86517
3.82013
3.7748
3.72934
3.68373
3.63815
3.59257
3.54716
3.5019
3.45696
3.41231
3.36814
3.32446
3.28151
3.23936
3.19849
3.15926
3.12344
3.09255
6.14093
5.73425
5.33999
4.97303
4.64497
4.36101
4.12196
3.92336
3.75876
3.62078
3.50261
3.39873
3.30488
3.21957
3.14111
3.0727
3.01808
2.99104
2.9949
3.01425
3.06992
3.20055
3.47763
3.91957
4.17027
4.18003
4.15328
4.07353
3.90516
3.71089
3.55
3.42623
3.33648
3.27801
3.24535
3.24602
3.2553
3.28075
3.32019
3.38348
3.47826
3.61436
3.76893
3.92147
4.05707
4.16835
4.25488
4.32059
4.37089
4.41047
4.44262
4.46903
4.49077
4.50725
4.51938
4.5266
4.52922
4.52892
4.52762
4.52428
4.51714
4.50475
4.48915
4.471
4.45056
4.42792
4.40321
4.37649
4.34788
4.31746
4.28533
4.25155
4.21613
4.17913
4.14086
4.10145
4.06104
4.01969
3.97755
3.93467
3.89122
3.84722
3.80287
3.75817
3.7133
3.66825
3.62319
3.57811
3.53317
3.48834
3.44381
3.39953
3.3557
3.31231
3.26959
3.2276
3.18679
3.14745
3.11144
3.07988
6.15761
5.77936
5.41003
5.05995
4.74038
4.45771
4.21402
4.00678
3.83223
3.68465
3.55854
3.44879
3.3513
3.26427
3.18715
3.12306
3.08452
3.08605
3.10037
3.14681
3.26092
3.50686
4.00219
4.41897
4.53874
4.52045
4.45682
4.31345
4.09686
3.89744
3.73
3.5934
3.48385
3.39855
3.33487
3.29319
3.27273
3.2751
3.28666
3.3109
3.35334
3.42043
3.52671
3.66555
3.8161
3.96004
4.08455
4.18409
4.25931
4.31485
4.35609
4.38752
4.41223
4.43181
4.44674
4.4573
4.46385
4.46565
4.46526
4.46375
4.45998
4.45203
4.43908
4.42311
4.4047
4.38403
4.36123
4.3364
4.30966
4.28108
4.25077
4.2187
4.1849
4.14953
4.11284
4.07487
4.03578
3.99562
3.95458
3.9127
3.87018
3.82704
3.78348
3.73951
3.69533
3.65091
3.60646
3.56194
3.51753
3.4732
3.42914
3.3853
3.34188
3.29886
3.25646
3.21473
3.17412
3.13482
3.0988
3.06676
6.17294
5.81603
5.46728
5.13437
4.82642
4.54796
4.30211
4.0893
3.90702
3.75149
3.618
3.50267
3.40176
3.31411
3.24076
3.18833
3.18391
3.19466
3.23428
3.33638
3.56314
4.03014
4.58856
4.84681
4.84298
4.80508
4.70329
4.49545
4.27544
4.08102
3.91432
3.77173
3.64946
3.54513
3.45775
3.38765
3.33513
3.29902
3.28624
3.28998
3.30117
3.32611
3.37243
3.44437
3.56335
3.70226
3.84822
3.98328
4.09664
4.18456
4.24892
4.29463
4.32726
4.35121
4.36931
4.3825
4.39192
4.39719
4.39855
4.39809
4.3964
4.39228
4.38367
4.37027
4.35392
4.33518
4.3143
4.2914
4.26662
4.24
4.21163
4.18141
4.14945
4.11592
4.08095
4.04458
4.00698
3.96819
3.92843
3.88773
3.84631
3.8042
3.76159
3.71851
3.67515
3.6315
3.58777
3.54392
3.50014
3.45642
3.41292
3.36962
3.3267
3.28416
3.24219
3.20086
3.16057
3.12148
3.08562
3.05329
6.19086
5.8487
5.51703
5.19958
4.90273
4.63029
4.38584
4.17038
3.98273
3.82082
3.68117
3.56092
3.45766
3.37218
3.30687
3.28865
3.29735
3.33187
3.42379
3.63121
4.06351
4.70882
5.08509
5.14365
5.11774
5.03802
4.86765
4.64779
4.44315
4.26107
4.09917
3.95361
3.82243
3.70462
3.60001
3.50866
3.43134
3.36847
3.32309
3.29155
3.28831
3.29074
3.30129
3.32746
3.38033
3.46288
3.5871
3.72576
3.86603
3.99204
4.09413
4.1703
4.22394
4.26061
4.28567
4.30312
4.31505
4.32291
4.32752
4.32802
4.3275
4.32568
4.32128
4.31216
4.29824
4.28148
4.26249
4.24151
4.21869
4.19408
4.16771
4.13947
4.10955
4.07797
4.04487
4.01028
3.97435
3.93716
3.89888
3.85958
3.81945
3.77854
3.73706
3.69502
3.65262
3.60988
3.56697
3.52391
3.48086
3.43784
3.39499
3.35233
3.31
3.26804
3.22662
3.1858
3.146
3.10727
3.07177
3.03934
6.21106
5.87914
5.56387
5.26106
4.9739
4.70818
4.46619
4.25007
4.05904
3.89248
3.74818
3.62457
3.52189
3.44176
3.40703
3.41353
3.44286
3.52465
3.71306
4.10956
4.80437
5.28112
5.41074
5.3942
5.33442
5.19889
4.98975
4.78735
4.60347
4.43482
4.27813
4.13121
3.99417
3.86688
3.75002
3.64394
3.54943
3.46696
3.39674
3.34119
3.30138
3.28053
3.27727
3.27933
3.29064
3.3201
3.37974
3.47439
3.6017
3.74006
3.87327
3.98832
4.07847
4.14336
4.18715
4.21551
4.23372
4.24487
4.25185
4.25502
4.25497
4.25431
4.25224
4.24739
4.23744
4.22299
4.20602
4.18697
4.16607
4.14342
4.11902
4.09281
4.06493
4.03538
4.00425
3.97158
3.93751
3.90209
3.8655
3.82781
3.78919
3.7497
3.70952
3.66872
3.62745
3.58578
3.54386
3.50174
3.45956
3.41737
3.37529
3.3334
3.29179
3.25055
3.20981
3.16966
3.1305
3.09232
3.05735
3.02506
6.2456
5.91091
5.60556
5.31591
5.03973
4.78172
4.54382
4.32853
4.13607
3.96668
3.81982
3.696
3.59873
3.5421
3.54563
3.56928
3.64144
3.81269
4.17591
4.88446
5.45976
5.65146
5.64263
5.59964
5.49475
5.30045
5.10509
4.92527
4.75857
4.59992
4.44755
4.30072
4.16016
4.02656
3.90122
3.78465
3.67767
3.58069
3.49436
3.41915
3.35614
3.30735
3.2737
3.26098
3.25378
3.2566
3.27088
3.30632
3.37713
3.48261
3.60962
3.74387
3.86898
3.9731
4.05125
4.10507
4.13952
4.16037
4.17206
4.17809
4.17986
4.17961
4.17859
4.17595
4.17024
4.15902
4.14455
4.12765
4.10872
4.08799
4.06549
4.04123
4.01533
3.9878
3.95871
3.92808
3.89601
3.86258
3.82789
3.79203
3.75513
3.71728
3.67863
3.63927
3.59934
3.55892
3.51816
3.47714
3.43598
3.39478
3.35364
3.31264
3.27191
3.23152
3.19163
3.15231
3.11398
3.07658
3.04236
3.0105
6.29962
5.95367
5.65129
5.37024
5.10301
4.852
4.61908
4.40596
4.21411
4.0445
3.89798
3.78015
3.69714
3.69525
3.7132
3.77726
3.93674
4.27993
4.96885
5.59988
5.864
5.86345
5.83509
5.75305
5.58382
5.39425
5.221
5.06085
4.90723
4.75621
4.60727
4.46066
4.31805
4.18041
4.04944
3.92545
3.80971
3.70209
3.60363
3.51431
3.43475
3.36684
3.31025
3.26662
3.24242
3.22786
3.22302
3.22719
3.24598
3.2888
3.36989
3.48177
3.61045
3.73962
3.85484
3.947
4.01337
4.05674
4.08238
4.09604
4.10192
4.10227
4.1018
4.10032
4.09687
4.08968
4.0779
4.06338
4.04662
4.02787
4.00723
3.9848
3.96077
3.93518
3.9081
3.87955
3.84959
3.81826
3.78565
3.7518
3.71685
3.68085
3.64397
3.60626
3.56789
3.52894
3.48956
3.44984
3.40992
3.36988
3.32987
3.28996
3.25029
3.21094
3.17209
3.1338
3.09653
3.06015
3.02694
2.99587
6.37956
6.01246
5.70214
5.42555
5.16723
4.92266
4.69323
4.4826
4.29321
4.12606
3.98645
3.8839
3.85874
3.87447
3.93379
4.08555
4.41623
5.08463
5.75584
6.07759
6.09094
6.06452
5.9867
5.82658
5.65033
5.48778
5.33763
5.19297
5.04868
4.90322
4.75649
4.61045
4.46668
4.32685
4.19205
4.06316
3.94109
3.82586
3.71857
3.61886
3.52755
3.44488
3.37186
3.30959
3.25957
3.2229
3.20514
3.18729
3.18578
3.19251
3.21672
3.26952
3.36186
3.47641
3.60294
3.72544
3.83038
3.91043
3.96506
3.99815
4.01564
4.02216
4.02215
4.02145
4.01943
4.015
4.00609
3.99405
3.97954
3.96283
3.94412
3.92349
3.90125
3.87751
3.85238
3.82586
3.79802
3.76884
3.73841
3.70672
3.6739
3.63996
3.60506
3.56925
3.5327
3.49546
3.45771
3.41953
3.38109
3.34246
3.3038
3.26519
3.22681
3.18872
3.15115
3.11414
3.07819
3.04317
3.01126
2.98146
6.4564
6.08746
5.76396
5.48488
5.23063
4.99232
4.76979
4.56359
4.37767
4.21802
4.09541
4.04724
4.05989
4.1142
4.25927
4.58113
5.23579
5.93554
6.28841
6.31796
6.2928
6.21542
6.05586
5.88195
5.72693
5.58754
5.45374
5.31916
5.18081
5.03902
4.89478
4.75017
4.60631
4.46533
4.32801
4.19583
4.06909
3.94856
3.83447
3.72691
3.62704
3.53398
3.44958
3.37318
3.3063
3.25001
3.20493
3.17626
3.15636
3.14285
3.14431
3.15528
3.18544
3.24879
3.34717
3.46489
3.58794
3.70188
3.79527
3.8629
3.90599
3.92942
3.93916
3.9392
3.93837
3.93592
3.93057
3.92066
3.90798
3.89308
3.87621
3.85743
3.83704
3.81513
3.79186
3.76725
3.74141
3.71432
3.68606
3.65658
3.62598
3.59426
3.56154
3.52785
3.49334
3.45808
3.42224
3.38588
3.34919
3.31223
3.2752
3.23817
3.20135
3.1648
3.1288
3.0934
3.05912
3.02587
2.99564
2.96772
6.45366
6.19928
5.84852
5.55278
5.29684
5.06242
4.84479
4.64511
4.46946
4.32926
4.25955
4.26939
4.31961
4.4606
4.77882
5.42914
6.15023
6.52292
6.55895
6.53148
6.44776
6.27655
6.10098
5.94919
5.81649
5.69185
5.56697
5.43768
5.30308
5.16389
5.02186
4.87854
4.73576
4.59471
4.45652
4.32227
4.19229
4.06791
3.94865
3.83589
3.72895
3.62882
3.5353
3.44898
3.37021
3.29978
3.23859
3.18778
3.15015
3.1254
3.10432
3.09469
3.09819
3.114
3.15154
3.22774
3.32865
3.44626
3.56404
3.66798
3.74898
3.80437
3.83665
3.85148
3.85358
3.85275
3.85007
3.84413
3.83319
3.81958
3.80406
3.787
3.76844
3.74836
3.72687
3.70405
3.68005
3.65489
3.62867
3.60133
3.57297
3.54352
3.51311
3.48172
3.4495
3.41648
3.38282
3.34857
3.31394
3.27897
3.24388
3.20875
3.1738
3.13915
3.10507
3.0717
3.03952
3.00862
2.98054
2.95537
6.42094
6.26334
5.942
5.63201
5.36874
5.13538
4.9235
4.73581
4.58283
4.49469
4.50229
4.55019
4.69098
5.0136
5.67446
6.40945
6.7861
6.81626
6.78391
6.68943
6.49828
6.314
6.16171
6.03324
5.9153
5.79802
5.67662
5.54936
5.41664
5.27939
5.1393
4.99761
4.85594
4.71523
4.57686
4.44138
4.30986
4.18256
4.0602
3.943
3.8312
3.72523
3.62512
3.53137
3.44393
3.36354
3.29041
3.2254
3.16993
3.12409
3.09283
3.0672
3.04766
3.04487
3.05076
3.071
3.11594
3.20151
3.30531
3.41987
3.53041
3.6237
3.69243
3.73594
3.75834
3.76478
3.76418
3.76165
3.75577
3.74391
3.72937
3.71343
3.69621
3.67765
3.6578
3.63668
3.61442
3.59105
3.5667
3.54133
3.51506
3.48783
3.45974
3.43075
3.40097
3.37039
3.33918
3.30734
3.27507
3.24243
3.20963
3.17678
3.1441
3.11178
3.08009
3.0493
3.01978
2.992
2.96667
2.94543
6.32909
6.25285
6.05641
5.73062
5.4507
5.21482
5.01273
4.84722
4.74872
4.75543
4.80441
4.9518
5.2908
5.98362
6.72554
7.0931
7.09945
7.05877
6.94728
6.72578
6.52845
6.37216
6.24482
6.13081
6.01901
5.90338
5.78204
5.65481
5.52272
5.38666
5.24806
5.10786
4.96743
4.82751
4.68937
4.55345
4.42085
4.29171
4.16699
4.04659
3.9313
3.82092
3.71605
3.61654
3.52286
3.43499
3.35338
3.27841
3.21045
3.15073
3.0996
3.06053
3.03037
3.00597
2.98951
2.99094
3.00068
3.0268
3.08182
3.17015
3.27615
3.38689
3.48842
3.56982
3.62624
3.65835
3.6724
3.6722
3.67029
3.66507
3.65416
3.63894
3.62196
3.60399
3.58523
3.56557
3.54495
3.52327
3.50064
3.47707
3.45271
3.42755
3.40169
3.37508
3.3478
3.31981
3.29122
3.26206
3.23245
3.20249
3.17235
3.1422
3.11227
3.08282
3.05413
3.02663
3.00052
2.97686
2.95509
2.93962
6.22346
6.20166
6.09262
5.8493
5.55058
5.31016
5.12537
5.01886
5.02631
5.08067
5.24347
5.61443
6.36794
7.10596
7.4391
7.42879
7.36202
7.20406
6.95544
6.74698
6.58736
6.45945
6.34645
6.23695
6.12463
6.00699
5.88368
5.75536
5.62294
5.48741
5.34967
5.21065
5.07121
4.93219
4.79438
4.65852
4.52527
4.39514
4.26871
4.14623
4.02823
3.91467
3.80609
3.70227
3.60373
3.51023
3.42228
3.33982
3.26331
3.19315
3.12986
3.07485
3.02816
2.99431
2.96317
2.94017
2.92905
2.93238
2.94631
2.97921
3.04613
3.13596
3.24083
3.34581
3.43739
3.50657
3.55081
3.57345
3.57764
3.5764
3.57225
3.56304
3.54723
3.52952
3.51101
3.49201
3.47244
3.45211
3.431
3.4091
3.38653
3.36331
3.33954
3.3152
3.29035
3.26497
3.23911
3.21278
3.18609
3.15912
3.13206
3.1051
3.07849
3.05259
3.02767
3.00434
2.98271
2.96429
2.94765
2.94004
5.96147
6.12675
6.07864
5.94266
5.66891
5.43311
5.30582
5.31518
5.379
5.56677
5.98706
6.83171
7.55655
7.82765
7.80321
7.70058
7.47744
7.20965
6.98441
6.81258
6.67975
6.56578
6.45654
6.34515
6.22901
6.10761
5.98149
5.85138
5.71816
5.58251
5.4452
5.30682
5.16814
5.02977
4.89243
4.7567
4.62321
4.49247
4.36494
4.24101
4.12101
4.00514
3.89368
3.78665
3.68433
3.58659
3.49378
3.40572
3.32284
3.24511
3.17313
3.1072
3.04836
2.99678
2.95599
2.92137
2.89258
2.87041
2.86993
2.87518
2.89224
2.93007
3.00539
3.0978
3.19975
3.29704
3.37741
3.43436
3.46722
3.48016
3.47961
3.47677
3.46962
3.45492
3.4371
3.4179
3.39835
3.37857
3.35855
3.33811
3.31721
3.29582
3.27401
3.25179
3.22924
3.20637
3.18321
3.1598
3.1362
3.11254
3.08897
3.06576
3.04316
3.02167
3.00148
2.98348
2.96772
2.9558
2.94801
2.94537
5.37359
5.99524
6.03076
5.9783
5.83886
5.63698
5.64331
5.71418
5.93309
6.41981
7.36538
8.06578
8.25699
8.21447
8.07035
7.77391
7.47941
7.23835
7.05459
6.9128
6.79374
6.68164
6.56902
6.45227
6.33083
6.205
6.07568
5.94339
5.80895
5.67267
5.5353
5.39709
5.25884
5.12084
4.9839
4.8483
4.71481
4.58369
4.45554
4.33059
4.20924
4.09166
3.97807
3.86858
3.76332
3.66232
3.56567
3.47333
3.38549
3.30215
3.22365
3.15012
3.08214
3.02
2.96495
2.91771
2.88019
2.84448
2.81851
2.80163
2.80327
2.81209
2.83509
2.88337
2.96134
3.05458
3.15203
3.24019
3.30938
3.35383
3.37898
3.38111
3.37948
3.37417
3.36254
3.34431
3.32445
3.30444
3.28474
3.2652
3.24563
3.22587
3.20587
3.18565
3.16526
3.14477
3.12425
3.10376
3.08338
3.06328
3.04365
3.02486
3.0071
2.99109
2.97666
2.9659
2.95703
2.95518
2.95553
2.95852
3.99217
5.618
5.96248
5.98971
5.97447
5.98686
6.08075
6.36163
6.97055
7.97447
8.62774
8.71699
8.65077
8.45717
8.08792
7.76839
7.51083
7.31548
7.16606
7.03936
6.92144
6.80368
6.68302
6.55846
6.43043
6.29953
6.16647
6.0316
5.89542
5.7581
5.62016
5.48177
5.34358
5.20574
5.06903
4.93357
4.80016
4.66885
4.54039
4.41476
4.29254
4.17366
4.05856
3.94714
3.8397
3.73609
3.63644
3.54061
3.44892
3.36123
3.27783
3.19866
3.12402