/*--------------------------------*- C++ -*----------------------------------*\
| =========                 |                                                 |
| \\      /  F ield         | OpenFOAM: The Open Source CFD Toolbox           |
|  \\    /   O peration     | Version:  2112                                  |
|   \\  /    A nd           | Website:  www.openfoam.com                      |
|    \\/     M anipulation  |                                                 |
\*---------------------------------------------------------------------------*/
FoamFile
{
    version     2.0;
    format      ascii;
    arch        "LSB;label=32;scalar=64";
    class       surfaceScalarField;
    location    "6";
    object      phi;
}
// * * * * * * * * * * * * * * * * * * * * * * * * * * * * * * * * * * * * * //

dimensions      [1 0 -1 0 0 0 0];

oriented        oriented;

internalField   nonuniform List<scalar> 
10325
(
0.00840003
8.73409e-11
0.00840003
6.75922e-10
0.00840003
2.08138e-09
0.00840002
6.27621e-09
0.0084
1.48319e-08
0.00839995
3.98836e-08
0.00839985
8.79501e-08
0.00839951
2.4374e-07
0.00839895
5.1066e-07
0.00839686
1.56679e-06
0.00839317
3.34837e-06
0.00837865
1.21983e-05
0.00834339
3.2764e-05
0.00818605
0.000145937
0.0074669
0.000683998
0.0067728
0.000705721
0.00612316
0.000655344
0.00545888
0.000665814
0.00477623
0.000684494
0.00406373
0.000715376
0.00331293
0.00075409
0.00252673
0.000790003
0.00170974
0.000821039
0.000864346
0.000848164
0.000866828
0.00840003
1.73504e-10
0.00840003
1.34626e-09
0.00840003
4.13255e-09
0.00840002
1.24925e-08
0.0084
2.94648e-08
0.00839995
7.97803e-08
0.00839985
1.74917e-07
0.00839951
4.93068e-07
0.00839894
1.02268e-06
0.0083968
3.2002e-06
0.00839297
6.78921e-06
0.00837782
2.50305e-05
0.00834078
6.72206e-05
0.00818223
0.000293216
0.00746671
0.00136364
0.00676043
0.00142419
0.00612178
0.00129973
0.00546833
0.00132074
0.00479216
0.00136261
0.00407529
0.00143518
0.00331954
0.00151313
0.00252905
0.00158433
0.00170488
0.00164941
0.00085293
0.001703
0.00172241
0.00840003
2.51198e-10
0.00840003
1.94999e-09
0.00840003
5.95711e-09
0.00840002
1.80605e-08
0.0084
4.25059e-08
0.00839995
1.15809e-07
0.00839986
2.53375e-07
0.00839955
7.20812e-07
0.00839901
1.49624e-06
0.00839697
4.72983e-06
0.00839326
1.00979e-05
0.00837859
3.73395e-05
0.00834241
0.000100683
0.00819401
0.000430537
0.00752343
0.00199674
0.00680872
0.00215226
0.00617289
0.00194124
0.00552959
0.0019657
0.00486111
0.00203303
0.0041468
0.00215231
0.00338861
0.00227484
0.00258796
0.00238885
0.00174914
0.00249249
0.000877721
0.00257749
0.002603
0.00840003
2.95852e-10
0.00840003
2.30058e-09
0.00840003
7.0712e-09
0.00840002
2.14278e-08
0.00840001
5.02701e-08
0.00839997
1.39311e-07
0.00839992
2.91425e-07
0.00839965
9.10075e-07
0.00839937
1.70651e-06
0.0083973
6.28498e-06
0.00839435
1.26295e-05
0.00838087
4.8389e-05
0.00834804
0.000130569
0.0082212
0.0005469
0.00765188
0.00252628
0.00693136
0.00288741
0.00629321
0.00258527
0.00565722
0.00260374
0.00499689
0.00269567
0.00428522
0.00286698
0.00352459
0.00303905
0.00271473
0.00320286
0.00184612
0.00336535
0.000931638
0.0034954
0.0035379
0.00840003
3.42938e-10
0.00840003
2.65899e-09
0.00840003
8.16201e-09
0.00840002
2.4716e-08
0.00840001
5.78895e-08
0.00839998
1.61041e-07
0.00839992
3.32345e-07
0.00839968
1.06804e-06
0.00839945
1.90361e-06
0.00839765
7.52951e-06
0.00839536
1.46378e-05
0.00838451
5.67587e-05
0.00835911
0.000152873
0.00826819
0.000627419
0.00788991
0.00286166
0.00716447
0.0036299
0.00650784
0.00324934
0.00586918
0.00324448
0.00521978
0.00334684
0.00451089
0.00357892
0.00373771
0.00381632
0.00290658
0.00403851
0.00200709
0.00426959
0.00102645
0.00447988
0.004568
0.00840003
3.81601e-10
0.00840003
2.96251e-09
0.00840003
9.06119e-09
0.00840002
2.74953e-08
0.00840001
6.45102e-08
0.00839998
1.78454e-07
0.00839993
3.7538e-07
0.00839975
1.16512e-06
0.00839949
2.12662e-06
0.0083984
8.08242e-06
0.00839697
1.57576e-05
0.00839097
6.0297e-05
0.00837945
0.000161077
0.0083505
0.000648106
0.00830338
0.00286536
0.00757005
0.00438036
0.00684743
0.00397981
0.00619153
0.00390191
0.00554226
0.00399753
0.00483766
0.00428607
0.00405788
0.0045998
0.00319468
0.00490652
0.00223332
0.00523589
0.00116671
0.00555072
0.00573889
0.00840003
3.87072e-10
0.00840003
2.99406e-09
0.00840003
9.20209e-09
0.00840003
2.77453e-08
0.00840002
6.54648e-08
0.00840001
1.76336e-07
0.00839999
3.8651e-07
0.00839997
1.10387e-06
0.00839994
2.12959e-06
0.0083999
7.62335e-06
0.00840102
1.43789e-05
0.00840306
5.5924e-05
0.00841248
0.000148588
0.00847134
0.000581672
0.00901364
0.00227943
0.00826545
0.00514457
0.00738792
0.00486967
0.00670227
0.00459398
0.00602812
0.00467583
0.00529634
0.0050208
0.00449238
0.00540741
0.00359319
0.0058101
0.0025788
0.0062562
0.00139082
0.00674375
0.00713436
0.00840003
3.81507e-10
0.00840003
2.95757e-09
0.00840003
9.15393e-09
0.00840003
2.74471e-08
0.00840003
6.48983e-08
0.00840002
1.71451e-07
0.00840002
3.81301e-07
0.00840005
1.01964e-06
0.00840002
2.10601e-06
0.00840072
6.56986e-06
0.00840238
1.26673e-05
0.00841188
4.46394e-05
0.00843437
0.000123925
0.00862164
0.000396449
0.00925175
0.00162631
0.00879329
0.00559419
0.00785269
0.00580654
0.00724686
0.00520055
0.00654078
0.00538522
0.00583896
0.00572626
0.00502723
0.00622315
0.0041027
0.00673818
0.0030301
0.00733349
0.00172949
0.00804924
0.00886864
0.00840003
3.71714e-10
0.00840003
3.47991e-09
0.00840003
1.04982e-08
0.00840002
3.19725e-08
0.00840001
7.48469e-08
0.00839997
2.00938e-07
0.00839991
4.37047e-07
0.00839971
1.18264e-06
0.00839941
2.36727e-06
0.00839872
7.01458e-06
0.00839873
1.25607e-05
0.00839685
4.53986e-05
0.00841837
0.000100207
0.00843865
0.000373343
0.00873033
0.00131191
0.00862639
0.00567543
0.00835997
0.00606416
0.00763408
0.00593154
0.00696365
0.00605654
0.00630509
0.00638757
0.00556677
0.00696436
0.00471106
0.00759717
0.00369563
0.00835295
0.00230018
0.00944964
0.0111736
0.00840003
1.72613e-10
0.00840003
5.21366e-09
0.00840003
8.06464e-09
0.00840002
4.5162e-08
0.00840003
5.79233e-08
0.00839994
2.90849e-07
0.00840006
3.10751e-07
0.0083994
1.80287e-06
0.00840032
1.41682e-06
0.00839618
1.09409e-05
0.00840262
5.91059e-06
0.00837584
7.11556e-05
0.00842838
4.64034e-05
0.00831077
0.000486911
0.00862005
0.000989533
0.00860524
0.00566689
0.0082722
0.00639594
0.00782319
0.00638225
0.00732514
0.00655481
0.00675682
0.0069573
0.00615469
0.00757037
0.00546057
0.00829404
0.00453336
0.00928326
0.00319632
0.0107898
0.0143737
0.00840003
5.86755e-10
0.00840003
9.19852e-10
0.00840003
8.79199e-09
0.00840007
1.0057e-08
0.00840006
6.29215e-08
0.00840029
6.01564e-08
0.00840016
4.25114e-07
0.00840166
3.00787e-07
0.00839992
3.06882e-06
0.00840921
1.56782e-06
0.00839305
2.15005e-05
0.00845212
1.09794e-05
0.00833548
0.000160551
0.00864022
0.000180475
0.00836603
0.00125655
0.00852194
0.00548612
0.00825003
0.00667021
0.00791445
0.00672045
0.00758627
0.00688308
0.00718671
0.00735702
0.00677589
0.00798336
0.00629999
0.0087731
0.00585214
0.00973458
0.00580088
0.0108441
0.0115728
0.00860377
0.00840003
3.03848e-10
0.00840003
1.59301e-09
0.00840003
5.53849e-09
0.00840003
1.52146e-08
0.00840005
3.89496e-08
0.00840001
9.47711e-08
0.0084002
2.37176e-07
0.00839989
5.79013e-07
0.00840155
1.42102e-06
0.00839885
4.17703e-06
0.00841067
9.74556e-06
0.00839065
3.1065e-05
0.00846983
8.07744e-05
0.00831254
0.000334474
0.00862945
0.000932845
0.00882918
0.00525965
0.0084666
0.0070377
0.00812631
0.00706428
0.0078309
0.00717987
0.00755574
0.00763277
0.00727056
0.00827011
0.00702764
0.00901863
0.00693341
0.00983198
0.00732482
0.0104556
0.0105858
0.00831303
0.00840003
2.86733e-10
0.00840003
2.22471e-09
0.00840003
6.78625e-09
0.00840002
2.0578e-08
0.00840001
4.86371e-08
0.00839997
1.30818e-07
0.00839991
2.9392e-07
0.00839969
7.83693e-07
0.00839937
1.71225e-06
0.00839851
4.89532e-06
0.00839841
9.82567e-06
0.00839316
3.53886e-05
0.00840169
7.18608e-05
0.00842009
0.000312891
0.00849153
0.000855904
0.00930949
0.00441377
0.00889719
0.00745668
0.00843063
0.00753565
0.00813238
0.00748082
0.0079336
0.00783282
0.00778
0.00842538
0.00772185
0.00907904
0.00786515
0.0096913
0.00832103
0.0100021
0.00995081
0.00895766
0.00840003
2.87347e-10
0.00840003
2.23221e-09
0.00840003
6.86236e-09
0.00840003
2.07194e-08
0.00840003
4.91445e-08
0.00840002
1.31031e-07
0.00840002
2.95705e-07
0.00840001
7.73462e-07
0.00839998
1.72134e-06
0.00840015
4.58998e-06
0.00839974
1.01098e-05
0.00840558
2.87629e-05
0.00840877
6.7973e-05
0.00849033
0.000228007
0.00870201
0.000639655
0.0102478
0.00283642
0.0096569
0.0080542
0.00908205
0.00811624
0.00861754
0.00794856
0.00836651
0.00808567
0.00828012
0.00851267
0.00833864
0.00902219
0.00854125
0.00949102
0.00892476
0.00962059
0.00946094
0.00941668
0.00840003
2.75128e-10
0.00840003
2.1394e-09
0.00840003
6.52083e-09
0.00840003
1.97668e-08
0.00840003
4.67973e-08
0.00840003
1.25368e-07
0.00840004
2.83368e-07
0.00840006
7.33918e-07
0.00840007
1.6956e-06
0.00840049
4.06203e-06
0.00840011
1.0379e-05
0.00840563
2.26828e-05
0.00840948
6.32842e-05
0.00846788
0.000166634
0.00857764
0.000532961
0.00938069
0.00202008
0.00980033
0.0076273
0.0095467
0.00837106
0.00905236
0.00844604
0.00880642
0.00833395
0.00873474
0.00858622
0.00882708
0.00893166
0.00905549
0.00926511
0.00937184
0.0093065
0.00907596
0.00975853
0.00840003
2.08684e-10
0.00840003
1.61864e-09
0.00840003
5.0311e-09
0.00840004
1.50769e-08
0.00840005
3.58083e-08
0.00840007
9.42093e-08
0.00840014
2.11705e-07
0.00840031
5.50878e-07
0.00840081
1.18226e-06
0.00840144
3.34155e-06
0.00840511
6.60221e-06
0.00840574
2.16006e-05
0.00842535
4.31326e-05
0.0084354
0.000154374
0.00855351
0.000413354
0.0088757
0.00169044
0.00970469
0.00677459
0.00959644
0.00847676
0.00938943
0.00865386
0.00918014
0.00854669
0.00911945
0.00864918
0.00919519
0.00885662
0.00941052
0.00905089
0.00969298
0.00902601
0.00877144
0.00999902
0.00840003
1.82976e-10
0.00840003
1.41773e-09
0.00840003
4.36288e-09
0.00840003
1.31199e-08
0.00840004
3.10505e-08
0.00840005
8.21645e-08
0.00840007
1.84348e-07
0.00840013
4.79746e-07
0.00840026
1.04568e-06
0.00840067
2.8614e-06
0.00840139
5.83473e-06
0.00840421
1.83996e-05
0.00840982
3.72789e-05
0.00843011
0.000132358
0.00849687
0.000344646
0.00881084
0.00136887
0.00999512
0.00556696
0.00990938
0.00856421
0.00970184
0.00886273
0.00951207
0.00873909
0.00948653
0.00867718
0.00955701
0.00878908
0.00971087
0.00889627
0.00992322
0.00881453
0.00853008
0.0101656
0.00840003
1.5037e-10
0.00840003
1.22123e-09
0.00840003
3.78691e-09
0.00840003
1.12798e-08
0.00840004
2.69824e-08
0.00840005
7.06295e-08
0.00840007
1.60388e-07
0.00840013
4.11215e-07
0.00840025
9.16473e-07
0.00840064
2.41707e-06
0.00840131
5.10864e-06
0.00840408
1.52978e-05
0.00841091
3.01961e-05
0.00843731
0.000104366
0.00851104
0.000268539
0.00891733
0.000960052
0.0110265
0.00342813
0.0105895
0.00900338
0.0103434
0.0091136
0.0100063
0.00907985
0.00985207
0.00883344
0.00988778
0.00875629
0.0100168
0.008769
0.0101629
0.00866812
0.00837814
0.0103151
0.00840003
6.03103e-11
0.00840003
1.28486e-09
0.00840003
2.44019e-09
0.00840003
1.12544e-08
0.00840004
1.7993e-08
0.00840004
7.01248e-08
0.00840009
1.08308e-07
0.00840008
4.10672e-07
0.00840038
6.12659e-07
0.00840031
2.4489e-06
0.00840222
3.15688e-06
0.00840168
1.56351e-05
0.00841639
1.5231e-05
0.0084146
0.000105142
0.00855764
0.00012395
0.00872841
0.000785333
0.0100882
0.00205818
0.0111409
0.00793422
0.0108839
0.00936952
0.010534
0.00943184
0.010256
0.00911396
0.0101805
0.00883404
0.0102602
0.00869149
0.0103847
0.00854475
0.00827024
0.0104924
0.00840003
1.08411e-10
0.00840003
6.34942e-10
0.00840003
2.3152e-09
0.00840004
6.05485e-09
0.00840004
1.63241e-08
0.00840007
3.77921e-08
0.00840008
9.59737e-08
0.00840027
2.16037e-07
0.00840031
5.58685e-07
0.00840157
1.1875e-06
0.00840117
3.48457e-06
0.00841005
6.70947e-06
0.00840256
2.22954e-05
0.0084622
4.53093e-05
0.00842501
0.000159332
0.00879768
0.000411127
0.00910914
0.00173916
0.0108993
0.00612408
0.0110653
0.00920247
0.0109314
0.00956553
0.0106439
0.00940275
0.0105034
0.00897476
0.0104895
0.00870631
0.0105593
0.00847596
0.00818541
0.0106444
0.00840003
1.35436e-10
0.00840003
3.91732e-10
0.00840003
2.30215e-09
0.00840003
4.00352e-09
0.00840003
1.59174e-08
0.00840004
2.54052e-08
0.00840004
9.39456e-08
0.00840011
1.46021e-07
0.00840012
5.3975e-07
0.00840049
8.12238e-07
0.00840075
3.17196e-06
0.008403
4.40095e-06
0.00840482
2.01831e-05
0.00842418
2.56777e-05
0.00844368
0.000138185
0.00860555
0.000247295
0.00926589
0.00107336
0.0114109
0.00395473
0.0114959
0.00911403
0.011429
0.00963483
0.0112097
0.00962421
0.0109407
0.0092451
0.0108218
0.00882519
0.0107924
0.00850572
0.00817029
0.0108077
0.00840003
4.82937e-11
0.00840003
5.33453e-10
0.00840003
1.21765e-09
0.00840003
4.81302e-09
0.00840004
8.82052e-09
0.00840003
3.01832e-08
0.00840007
5.30779e-08
0.00840004
1.76534e-07
0.00840027
3.07228e-07
0.00840004
1.0241e-06
0.00840144
1.75829e-06
0.00839971
6.06006e-06
0.00840974
1.00666e-05
0.00839762
3.7383e-05
0.00847168
6.35917e-05
0.00845224
0.000265176
0.00894691
0.000575324
0.0106014
0.00229601
0.0117599
0.00793858
0.0116824
0.00970966
0.0114839
0.00982178
0.0112378
0.00949228
0.0111362
0.00892789
0.0110726
0.00857006
0.0082127
0.0110308
0.00840003
6.91497e-11
0.00840003
2.43566e-10
0.00840003
1.26935e-09
0.00840003
2.44224e-09
0.00840003
8.87221e-09
0.00840005
1.55968e-08
0.00840005
5.2706e-08
0.00840013
9.10388e-08
0.00840013
3.03716e-07
0.00840063
5.20723e-07
0.0084006
1.77182e-06
0.00840373
2.90909e-06
0.00840262
1.10462e-05
0.00842393
1.6018e-05
0.00841188
7.49854e-05
0.00856711
0.000109268
0.00856222
0.000578012
0.00939304
0.0014575
0.0117338
0.00559097
0.0119508
0.0094946
0.0119113
0.00985981
0.011686
0.00971633
0.011411
0.00920292
0.0113117
0.00866995
0.00827076
0.0112546
0.00840003
3.45943e-11
0.00840003
2.30903e-10
0.00840003
7.28526e-10
0.00840003
2.16618e-09
0.00840003
5.17602e-09
0.00840004
1.35809e-08
0.00840006
3.06898e-08
0.00840007
7.8397e-08
0.0084002
1.74839e-07
0.00840027
4.45169e-07
0.00840104
9.91381e-07
0.00840137
2.54992e-06
0.00840668
5.68877e-06
0.00840706
1.53133e-05
0.00844748
3.44952e-05
0.00845455
0.000100787
0.00876644
0.000262869
0.00934408
0.00088854
0.012032
0.00286804
0.0125241
0.00900163
0.0124477
0.00993821
0.0121462
0.0100195
0.0117906
0.00955949
0.0115844
0.00887523
0.00839042
0.0114649
0.00840003
2.20439e-11
0.00840003
1.73731e-10
0.00840003
5.41202e-10
0.00840003
1.60565e-09
0.00840003
3.8443e-09
0.00840004
9.98637e-09
0.00840004
2.26949e-08
0.00840006
5.72956e-08
0.00840011
1.28485e-07
0.00840023
3.22989e-07
0.00840049
7.1956e-07
0.00840118
1.83571e-06
0.00840288
3.96623e-06
0.008407
1.1034e-05
0.0084196
2.17455e-05
0.00844636
7.33095e-05
0.00855519
0.000152573
0.00883498
0.000606759
0.00997889
0.00171157
0.0122767
0.00668531
0.0125336
0.00968086
0.0125875
0.00996687
0.0122407
0.00991058
0.011944
0.00917379
0.00859644
0.0117377
0.00840003
9.79776e-12
0.00840003
1.5562e-10
0.00840003
3.32774e-10
0.00840003
1.37473e-09
0.00840003
2.42605e-09
0.00840003
8.49982e-09
0.00840004
1.44902e-08
0.00840005
4.89408e-08
0.00840009
8.28275e-08
0.00840014
2.78069e-07
0.00840038
4.68049e-07
0.00840061
1.58586e-06
0.00840194
2.61725e-06
0.00840352
9.34651e-06
0.00841087
1.42822e-05
0.00842337
6.01958e-05
0.00848665
8.86434e-05
0.00865426
0.000436568
0.00932739
0.00103587
0.0121454
0.00384584
0.0127128
0.0091084
0.0127641
0.00991587
0.0126933
0.00998227
0.012277
0.00959155
0.00885992
0.0120138
0.00840003
1.30794e-11
0.00840003
7.93824e-11
0.00840003
2.89683e-10
0.00840003
7.54281e-10
0.00840003
2.04992e-09
0.00840004
4.72657e-09
0.00840004
1.21062e-08
0.00840006
2.72078e-08
0.00840007
6.87425e-08
0.0084002
1.53588e-07
0.00840027
3.8722e-07
0.00840099
8.64044e-07
0.00840137
2.2002e-06
0.00840584
4.85382e-06
0.00840686
1.3071e-05
0.00843895
2.7932e-05
0.00844217
8.45698e-05
0.00868134
0.000196102
0.00901785
0.000696376
0.0108059
0.00204929
0.0127682
0.00713247
0.0129535
0.00972871
0.0129359
0.00999896
0.0126423
0.00988594
0.00918275
0.0123204
0.00840003
1.05346e-11
0.00840003
5.69454e-11
0.00840003
2.09392e-10
0.00840003
5.4179e-10
0.00840003
1.47043e-09
0.00840003
3.39528e-09
0.00840004
8.66793e-09
0.00840004
1.95294e-08
0.00840006
4.91688e-08
0.0084001
1.10126e-07
0.00840021
2.76492e-07
0.00840045
6.17486e-07
0.00840108
1.55628e-06
0.00840245
3.45645e-06
0.00840645
8.96593e-06
0.00841491
1.9351e-05
0.00844213
5.6729e-05
0.00851885
0.000118824
0.00877685
0.000436017
0.00963777
0.00118503
0.0123158
0.00443599
0.0130351
0.00900338
0.0131633
0.00987025
0.0130758
0.00997351
0.00957017
0.0126892
0.00840003
9.59335e-12
0.00840003
3.2064e-11
0.00840003
1.66528e-10
0.00840003
3.24483e-10
0.00840003
1.15177e-09
0.00840003
2.05867e-09
0.00840003
6.75681e-09
0.00840004
1.18805e-08
0.00840005
3.82701e-08
0.00840009
6.70503e-08
0.00840015
2.1535e-07
0.00840039
3.7597e-07
0.00840072
1.21501e-06
0.00840206
2.10214e-06
0.008404
6.95943e-06
0.0084115
1.17675e-05
0.00842595
4.19329e-05
0.00847304
7.11979e-05
0.00862755
0.000279888
0.00916777
0.000643412
0.0112756
0.00232016
0.0130725
0.00719188
0.013226
0.00971385
0.0132877
0.00991029
0.00984169
0.0130164
0.00840003
4.14276e-12
0.00840003
2.82609e-11
0.00840003
8.88891e-11
0.00840003
2.64482e-10
0.00840003
6.30435e-10
0.00840003
1.65018e-09
0.00840003
3.72026e-09
0.00840004
9.46135e-09
0.00840005
2.10677e-08
0.00840007
5.32076e-08
0.00840016
1.18139e-07
0.00840024
2.9791e-07
0.00840079
6.60953e-07
0.0084012
1.67318e-06
0.00840445
3.69569e-06
0.00840639
9.69447e-06
0.00842772
2.06136e-05
0.00843681
6.13343e-05
0.00858668
0.000129935
0.00876529
0.000462288
0.00982804
0.00125353
0.0126152
0.00438616
0.0133918
0.00893186
0.0135064
0.00979572
0.00998379
0.0133644
0.00840003
2.49631e-12
0.00840003
1.9423e-11
0.00840003
6.04875e-11
0.00840003
1.79466e-10
0.00840003
4.28738e-10
0.00840003
1.11304e-09
0.00840003
2.52194e-09
0.00840004
6.35784e-09
0.00840004
1.4228e-08
0.00840006
3.56408e-08
0.0084001
7.94415e-08
0.00840019
1.98981e-07
0.00840041
4.42256e-07
0.00840096
1.11235e-06
0.00840218
2.46455e-06
0.00840553
6.27186e-06
0.00841202
1.4029e-05
0.00843672
3.63192e-05
0.00847765
8.83436e-05
0.00869386
0.000244725
0.00923868
0.000705992
0.011212
0.00240578
0.0133172
0.00681541
0.013515
0.0095955
0.00978868
0.0137083
0.00840003
1.19654e-12
0.00840003
1.48046e-11
0.00840003
3.49232e-11
0.00840003
1.31892e-10
0.00840003
2.51518e-10
0.00840003
8.10296e-10
0.00840003
1.48387e-09
0.00840003
4.60604e-09
0.00840004
8.3657e-09
0.00840005
2.57194e-08
0.00840008
4.66023e-08
0.00840014
1.43028e-07
0.00840032
2.58265e-07
0.00840062
7.95544e-07
0.00840165
1.42647e-06
0.00840338
4.4643e-06
0.00840947
7.87931e-06
0.0084198
2.59487e-05
0.00845962
4.53419e-05
0.00854392
0.000162976
0.00888219
0.000353984
0.0100291
0.00127537
0.0127958
0.00401817
0.0137387
0.00864403
0.00970148
0.0138226
0.00840003
1.55254e-12
0.00840003
6.40774e-12
0.00840003
2.96983e-11
0.00840003
6.29507e-11
0.00840003
2.0643e-10
0.00840003
3.95435e-10
0.00840003
1.20627e-09
0.00840003
2.26356e-09
0.00840003
6.78273e-09
0.00840005
1.2673e-08
0.00840006
3.78048e-08
0.00840013
7.05185e-08
0.00840017
2.10422e-07
0.00840058
3.91636e-07
0.00840081
1.1748e-06
0.00840308
2.17835e-06
0.00840424
6.62527e-06
0.00841776
1.23783e-05
0.008424
3.85426e-05
0.0085111
7.56369e-05
0.00860765
0.000254958
0.00925832
0.000625908
0.0111741
0.00209149
0.0135227
0.00627094
0.00936787
0.0138584
0.00840003
7.24267e-13
0.00840003
4.95568e-12
0.00840003
1.55649e-11
0.00840003
4.62764e-11
0.00840003
1.1015e-10
0.00840003
2.87442e-10
0.00840003
6.46529e-10
0.00840003
1.63728e-09
0.00840003
3.63515e-09
0.00840004
9.13914e-09
0.00840006
2.02291e-08
0.00840007
5.07738e-08
0.00840017
1.12291e-07
0.00840028
2.81915e-07
0.00840082
6.2351e-07
0.0084014
1.57018e-06
0.00840453
3.47057e-06
0.00840789
8.89301e-06
0.0084267
1.95867e-05
0.00844854
5.32812e-05
0.00858195
0.000120503
0.00883526
0.000370686
0.00986454
0.00105024
0.0127846
0.00333936
0.00814239
0.0140158
0.00840003
4.12367e-13
0.00840003
3.20053e-12
0.00840003
9.96142e-12
0.00840003
2.95913e-11
0.00840003
7.05572e-11
0.00840003
1.83017e-10
0.00840003
4.13542e-10
0.00840003
1.04006e-09
0.00840003
2.32108e-09
0.00840004
5.79179e-09
0.00840004
1.28844e-08
0.00840006
3.20831e-08
0.0084001
7.12657e-08
0.0084002
1.77536e-07
0.00840043
3.93655e-07
0.00840099
9.84295e-07
0.00840226
2.178e-06
0.00840551
5.51446e-06
0.00841291
1.21194e-05
0.00843427
3.21338e-05
0.00847752
7.06254e-05
0.00864353
0.000208339
0.00913365
0.000553182
0.010547
0.00194789
0.00521538
0.0134293
0.00840003
1.83726e-13
0.00840003
2.2547e-12
0.00840003
5.46045e-12
0.00840003
2.01163e-11
0.00840003
3.92833e-11
0.00840003
1.23095e-10
0.00840003
2.30609e-10
0.00840003
6.94861e-10
0.00840003
1.29096e-09
0.00840003
3.84558e-09
0.00840004
7.13725e-09
0.00840005
2.11625e-08
0.00840008
3.92833e-08
0.00840014
1.16271e-07
0.00840032
2.15571e-07
0.00840066
6.39437e-07
0.00840165
1.18068e-06
0.00840357
3.54338e-06
0.00840917
6.44121e-06
0.00842096
2.01035e-05
0.00845463
3.63331e-05
0.00854117
0.000121011
0.00883571
0.000255686
0.00988289
0.000900926
0.00257205
0.01251
0.00840003
1.86076e-13
0.00840003
1.07424e-12
0.00840003
3.95953e-12
0.00840003
1.02159e-11
0.00840003
2.77634e-11
0.00840003
6.33835e-11
0.00840003
1.61699e-10
0.00840003
3.59168e-10
0.00840003
9.0249e-10
0.00840003
1.99123e-09
0.00840004
4.98338e-09
0.00840005
1.09721e-08
0.00840006
2.74183e-08
0.00840011
6.02739e-08
0.00840018
1.5056e-07
0.00840049
3.30249e-07
0.00840084
8.27058e-07
0.00840255
1.80871e-06
0.00840425
4.60066e-06
0.00841418
9.94155e-06
0.00842395
2.67802e-05
0.008478
5.71614e-05
0.00857981
0.000168401
0.00900731
0.000428479
0.00147485
0.0101644
0.00840003
1.48904e-13
0.00840003
5.59735e-13
0.00840003
2.65684e-12
0.00840003
5.57814e-12
0.00840003
1.83008e-11
0.00840003
3.49516e-11
0.00840003
1.05962e-10
0.00840003
1.98462e-10
0.00840003
5.8957e-10
0.00840003
1.10044e-09
0.00840003
3.24852e-09
0.00840004
6.06512e-09
0.00840005
1.78509e-08
0.00840007
3.3353e-08
0.00840013
9.80167e-08
0.00840027
1.83056e-07
0.00840055
5.38674e-07
0.00840135
1.00299e-06
0.00840293
2.97767e-06
0.00840732
5.47397e-06
0.00841699
1.6982e-05
0.00844316
2.98709e-05
0.00850687
0.000104634
0.00873428
0.000196002
0.000756948
0.00945328
0.00840003
5.96576e-14
0.00840003
4.07128e-13
0.00840003
1.288e-12
0.00840003
3.79907e-12
0.00840003
9.07453e-12
0.00840003
2.34323e-11
0.00840003
5.27786e-11
0.00840003
1.32023e-10
0.00840003
2.93262e-10
0.00840003
7.27433e-10
0.00840003
1.61059e-09
0.00840003
3.9841e-09
0.00840004
8.81478e-09
0.00840005
2.17747e-08
0.0084001
4.81587e-08
0.00840017
1.18874e-07
0.00840044
2.62714e-07
0.00840078
6.48947e-07
0.00840232
1.43346e-06
0.00840415
3.56965e-06
0.00841322
7.85396e-06
0.00842236
2.02753e-05
0.00848208
4.45753e-05
0.00855204
0.000123595
0.000306793
0.0090004
0.00840003
3.0755e-14
0.00840003
2.39083e-13
0.00840003
7.45047e-13
0.00840003
2.20506e-12
0.00840003
5.24806e-12
0.00840003
1.35056e-11
0.00840003
3.03882e-11
0.00840003
7.56494e-11
0.00840003
1.67873e-10
0.00840003
4.14232e-10
0.00840003
9.15889e-10
0.00840003
2.25354e-09
0.00840004
4.97773e-09
0.00840005
1.22288e-08
0.00840007
2.70008e-08
0.00840012
6.62471e-08
0.00840023
1.4614e-07
0.00840051
3.58413e-07
0.00840115
7.8881e-07
0.00840271
1.94993e-06
0.00840628
4.21575e-06
0.00841526
1.10092e-05
0.00843706
2.22457e-05
0.00849128
6.80112e-05
0.000137257
0.00865812
0.00840003
1.12318e-14
0.00840003
1.54917e-13
0.00840003
3.56894e-13
0.00840003
1.3707e-12
0.00840003
2.55441e-12
0.00840003
8.29172e-12
0.00840003
1.47404e-11
0.00840003
4.60693e-11
0.00840003
8.05978e-11
0.00840003
2.50329e-10
0.00840003
4.33833e-10
0.00840003
1.35067e-09
0.00840003
2.32123e-09
0.00840004
7.26442e-09
0.00840005
1.23715e-08
0.00840008
3.89923e-08
0.00840016
6.56534e-08
0.0084003
2.09107e-07
0.00840073
3.46534e-07
0.00840151
1.1244e-06
0.00840385
1.81289e-06
0.00840845
6.13641e-06
0.00842102
9.40668e-06
0.00845277
3.47929e-05
5.38953e-05
0.00853449
0.00840003
1.01044e-14
0.00840003
6.29917e-14
0.00840003
2.24019e-13
0.00840003
5.94431e-13
0.00840003
1.55794e-12
0.00840003
3.61993e-12
0.00840003
8.85194e-12
0.00840003
1.99474e-11
0.00840003
4.77234e-11
0.00840003
1.06822e-10
0.00840003
2.52976e-10
0.00840003
5.66044e-10
0.00840003
1.33037e-09
0.00840004
2.98143e-09
0.00840004
6.95489e-09
0.00840006
1.56235e-08
0.00840009
3.61473e-08
0.00840021
8.14619e-08
0.00840035
1.86733e-07
0.00840103
4.23066e-07
0.00840176
9.61043e-07
0.00840557
2.19625e-06
0.00840931
4.99273e-06
0.0084317
1.16228e-05
2.75933e-05
0.00845423
0.00840003
6.36055e-15
0.00840003
3.37865e-14
0.00840003
1.23096e-13
0.00840003
3.16945e-13
0.00840003
8.42919e-13
0.00840003
1.92481e-12
0.00840003
4.75917e-12
0.00840003
1.05334e-11
0.00840003
2.55149e-11
0.00840003
5.58512e-11
0.00840003
1.34377e-10
0.00840003
2.92282e-10
0.00840003
7.01514e-10
0.00840003
1.51687e-09
0.00840004
3.63918e-09
0.00840004
7.81461e-09
0.00840006
1.87762e-08
0.00840009
3.99582e-08
0.00840016
9.64102e-08
0.00840036
2.02474e-07
0.00840071
4.93342e-07
0.00840177
1.00773e-06
0.00840355
2.55301e-06
0.00840961
4.79215e-06
1.40788e-05
0.00841945
0.00840003
6.243e-15
0.00840003
6.57308e-15
0.00840003
8.57141e-14
0.00840003
8.12765e-14
0.00840003
5.75077e-13
0.00840003
5.00041e-13
0.00840003
3.27872e-12
0.00840003
2.62475e-12
0.00840003
1.79885e-11
0.00840003
1.31124e-11
0.00840003
9.79276e-11
0.00840003
6.42584e-11
0.00840003
5.33235e-10
0.00840003
3.11167e-10
0.00840003
2.91094e-09
0.00840004
1.4851e-09
0.00840004
1.59644e-08
0.00840006
6.89518e-09
0.00840005
8.83802e-08
0.0084002
3.00182e-08
0.00840009
5.00027e-07
0.00840088
9.10798e-08
0.00839969
3.13854e-06
0.00840532
-1.32881e-06
2.30541e-05
0.00839299
0.00840003
1.77384e-15
0.00840003
6.54438e-15
0.00840003
2.7997e-14
0.00840003
6.57795e-14
0.00840003
1.91623e-13
0.00840003
4.00663e-13
0.00840003
1.08999e-12
0.00840003
2.16075e-12
0.00840003
5.90617e-12
0.00840003
1.12253e-11
0.00840003
3.16017e-11
0.00840003
5.74791e-11
0.00840003
1.68589e-10
0.00840003
2.91631e-10
0.00840003
8.9892e-10
0.00840003
1.46577e-09
0.00840004
4.79757e-09
0.00840003
7.26863e-09
0.00840008
2.57217e-08
0.00840004
3.54103e-08
0.00840035
1.39259e-07
0.00840005
1.66627e-07
0.0084021
7.99498e-07
0.008399
3.94232e-07
5.51509e-06
0.00841537
0.00840003
1.68485e-16
0.00840003
6.80001e-15
0.00840003
1.49176e-14
0.00840003
5.85119e-14
0.00840003
1.06808e-13
0.00840003
3.55106e-13
0.00840003
6.16147e-13
0.00840003
2.00974e-12
0.00840003
3.37976e-12
0.00840003
1.12061e-11
0.00840003
1.83226e-11
0.00840003
6.23735e-11
0.00840003
9.92094e-11
0.00840003
3.47732e-10
0.00840003
5.3741e-10
0.00840003
1.94145e-09
0.00840003
2.89419e-09
0.00840002
1.08307e-08
0.00840002
1.50697e-08
0.00839995
6.02324e-08
0.00839996
6.6387e-08
0.00839955
3.44722e-07
0.00839998
6.31529e-08
0.00839687
2.10803e-06
-1.88352e-06
0.00840298
0.00840003
-1.7554e-15
0.00840003
1.02918e-14
0.00840003
-3.28324e-15
0.00840003
7.78643e-14
0.00840003
-1.4095e-14
0.00840003
4.71933e-13
0.00840003
-8.18075e-14
0.00840003
2.7354e-12
0.00840003
-5.27264e-13
0.00840003
1.57095e-11
0.00840003
-3.42973e-12
0.00840003
8.99996e-11
0.00840003
-2.20532e-11
0.00840003
5.15413e-10
0.00840003
-1.41414e-10
0.00840003
2.95597e-09
0.00840003
-9.29226e-10
0.00840002
1.70249e-08
0.00840003
-6.63227e-09
0.00839995
9.9578e-08
0.00840003
-6.70644e-08
0.0083995
6.53225e-07
0.00840026
-9.75027e-07
0.00839609
4.97392e-06
-1.11884e-05
0.00840426
0.00840003
1.93774e-15
0.00840003
-8.37172e-15
0.00840003
1.0633e-14
0.00840003
-5.90964e-14
0.00840003
6.24837e-14
0.00840003
-3.56062e-13
0.00840003
3.55619e-13
0.00840003
-2.09993e-12
0.00840003
2.00724e-12
0.00840003
-1.23199e-11
0.00840003
1.13629e-11
0.00840003
-7.19574e-11
0.00840003
6.47877e-11
0.00840003
-4.18919e-10
0.00840003
3.73465e-10
0.00840003
-2.43664e-09
0.00840003
2.20584e-09
0.00840005
-1.42043e-08
0.00840001
1.39209e-08
0.00840016
-8.39344e-08
0.00839987
1.08391e-07
0.00840083
-5.59107e-07
0.00839807
1.1767e-06
0.00840628
-4.29404e-06
1.24432e-05
0.00837934
0.00840003
2.48093e-16
0.00840003
-3.42388e-15
0.00840003
-1.71759e-15
0.00840003
-2.92188e-14
0.00840003
-1.61843e-14
0.00840003
-1.80328e-13
0.00840003
-1.04431e-13
0.00840003
-1.05887e-12
0.00840003
-6.28603e-13
0.00840003
-6.17098e-12
0.00840003
-3.71233e-12
0.00840003
-3.59109e-11
0.00840003
-2.18921e-11
0.00840003
-2.09044e-10
0.00840003
-1.29735e-10
0.00840003
-1.21656e-09
0.00840003
-7.52502e-10
0.00840001
-7.04968e-09
0.00840002
-3.69287e-09
0.00839994
-4.04466e-08
0.00840001
-8.28112e-09
0.00839947
-2.34999e-07
0.00840023
1.50416e-07
0.00839603
-1.37863e-06
2.71305e-06
0.00840468
0.00840003
0.00840003
0.00840003
0.00840003
0.00840003
0.00840003
0.00840003
0.00840003
0.00840003
0.00840003
0.00840003
0.00840003
0.00840003
0.00840003
0.00840003
0.00840003
0.00840002
0.00840001
0.0084
0.00839992
0.00839987
0.00839943
0.00839931
0.0083967
0.00839839
0.0044171
0.00418558
0.00240596
0.00200804
0.00130095
0.00110036
-0.000275487
0.00156945
-0.00109979
0.000818078
-0.00166623
0.000562269
-0.00204069
0.0003688
-0.00223309
0.000186679
-0.00230106
6.21506e-05
-0.00240927
0.000102803
-0.00255624
0.000141575
-0.00269945
0.000137747
-0.00281523
0.000110101
-0.00290663
8.58433e-05
-0.00299307
8.12593e-05
-0.00307858
8.03147e-05
-0.00315998
7.62941e-05
-0.00323438
6.93924e-05
-0.00329786
5.87571e-05
-0.00334522
4.30622e-05
-0.00337512
2.63987e-05
-0.00339921
2.00852e-05
-0.00343899
3.49564e-05
-0.00348133
3.74661e-05
-0.00351596
2.96189e-05
-0.00354105
1.83981e-05
-0.00354807
-2.18201e-06
-0.00352216
-3.70282e-05
-0.00345137
-8.34476e-05
-0.00333704
-0.000127389
-0.00318675
-0.000163616
-0.00300643
-0.000192222
-0.00280449
-0.000214449
-0.00257953
-0.000236814
-0.00234474
-0.000246377
-0.00210243
-0.000253105
-0.00185609
-0.000257024
-0.00160374
-0.000262709
-0.00134629
-0.000267637
-0.00108445
-0.000271924
-0.00082625
-0.000268206
-0.000567911
-0.000268027
-0.000308697
-0.000268361
-4.42285e-05
-0.000273399
0.000203904
-0.000257088
0.000438939
-0.000244147
0.000664019
-0.000233755
0.000880512
-0.000224548
0.00108903
-0.000216193
0.00128937
-0.000207859
0.00148177
-0.000199386
0.00166632
-0.000191009
0.00184196
-0.000181888