/*--------------------------------*- C++ -*----------------------------------*\
| =========                 |                                                 |
| \\      /  F ield         | OpenFOAM: The Open Source CFD Toolbox           |
|  \\    /   O peration     | Version:  2112                                  |
|   \\  /    A nd           | Website:  www.openfoam.com                      |
|    \\/     M anipulation  |                                                 |
\*---------------------------------------------------------------------------*/
FoamFile
{
    version     2.0;
    format      ascii;
    arch        "LSB;label=32;scalar=64";
    class       volScalarField;
    location    "6";
    object      T;
}
// * * * * * * * * * * * * * * * * * * * * * * * * * * * * * * * * * * * * * //

dimensions      [0 0 0 1 0 0 0];

internalField   nonuniform List<scalar> 
5250
(
1.00001
1.00002
1.00007
1.00012
1.00039
1.00073
1.00214
1.00455
1.01158
1.03114
1.06927
1.21776
1.50281
2.30643
2.68496
2.7441
2.74039
2.74077
2.75422
2.76658
2.77695
2.78419
2.78722
2.79048
2.79262
1.00001
1.00002
1.00007
1.00012
1.00039
1.00072
1.00211
1.00448
1.0114
1.03064
1.06822
1.21418
1.49446
2.29357
2.68084
2.74417
2.74007
2.74026
2.75336
2.76548
2.77558
2.78277
2.78557
2.78789
2.78976
1.00001
1.00002
1.00006
1.00012
1.00038
1.0007
1.00204
1.00433
1.01104
1.02959
1.06605
1.20651
1.47629
2.26359
2.66979
2.74294
2.73845
2.73797
2.75095
2.76298
2.77302
2.77942
2.78304
2.78574
2.78656
1.00001
1.00002
1.00006
1.00011
1.00036
1.00066
1.00194
1.00411
1.01051
1.02802
1.06279
1.19484
1.4486
2.21449
2.6511
2.74016
2.73546
2.73324
2.74614
2.75824
2.76902
2.77579
2.77737
2.78112
2.78271
1.00001
1.00002
1.00006
1.0001
1.00034
1.00062
1.00185
1.00381
1.00993
1.02577
1.05853
1.17913
1.41199
2.14098
2.62563
2.73548
2.73055
2.7248
2.7385
2.74863
2.75905
2.76914
2.7724
2.77318
2.77394
1.00001
1.00002
1.00005
1.0001
1.00031
1.00057
1.00174
1.00347
1.0093
1.02299
1.05345
1.1602
1.36808
2.04177
2.58805
2.72804
2.72349
2.71568
2.73058
2.7412
2.7486
2.75484
2.75891
2.76454
2.7655
1.00001
1.00001
1.00005
1.00009
1.00029
1.00052
1.00161
1.0031
1.00856
1.02003
1.04788
1.13967
1.31977
1.92853
2.53443
2.71202
2.70747
2.69865
2.71315
2.72803
2.73907
2.74477
2.74778
2.7469
2.74686
1.00001
1.00001
1.00004
1.00008
1.00026
1.00047
1.00147
1.00275
1.00793
1.0173
1.04328
1.11966
1.27858
1.74955
2.51902
2.68824
2.68459
2.67741
2.69544
2.70355
2.71596
2.72314
2.72573
2.72863
2.72494
1.00001
1.00001
1.00004
1.00007
1.00023
1.00042
1.00133
1.00245
1.00732
1.01518
1.03966
1.10457
1.2468
1.68055
2.52006
2.67786
2.66059
2.66348
2.67313
2.68775
2.69921
2.70294
2.69996
2.69207
2.67445
1
1.00001
1.00003
1.00006
1.0002
1.00037
1.00115
1.00217
1.00635
1.01346
1.03499
1.09305
1.21746
1.62008
2.47843
2.65421
2.65379
2.64746
2.64812
2.66056
2.66824
2.67251
2.66768
2.64819
2.59617
1
1.00001
1.00002
1.00006
1.00012
1.00034
1.00076
1.00187
1.00495
1.01108
1.03241
1.0678
1.22241
1.51435
2.29627
2.6278
2.65773
2.64567
2.63441
2.6366
2.6411
2.63724
2.61949
2.57122
2.38937
1
1.00001
1.00003
1.00005
1.00015
1.00028
1.00084
1.00166
1.00448
1.01058
1.02524
1.0725
1.1539
1.50069
2.22776
2.54891
2.64638
2.63749
2.623
2.61316
2.61028
2.60091
2.57478
2.51698
2.32818
1
1.00001
1.00002
1.00004
1.00014
1.00024
1.00078
1.00141
1.0044
1.00853
1.02354
1.05742
1.13477
1.39295
2.07311
2.48683
2.63162
2.62294
2.61171
2.59719
2.58107
2.56061
2.52509
2.47404
2.32882
1
1.00001
1.00002
1.00004
1.00011
1.00021
1.00065
1.00119
1.00369
1.007
1.02014
1.04456
1.11292
1.29789
1.86591
2.39219
2.59484
2.58504
2.58435
2.57769
2.56185
2.53476
2.48712
2.44312
2.33273
1
1
1.00002
1.00003
1.00009
1.00017
1.00054
1.00097
1.00303
1.00569
1.01651
1.0361
1.09046
1.24153
1.66569
2.33498
2.56789
2.56364
2.55456
2.54675
2.53547
2.51301
2.45729
2.41565
2.33105
1
1
1.00001
1.00002
1.00007
1.00013
1.00041
1.00076
1.00224
1.0046
1.01193
1.03057
1.06942
1.20982
1.49024
2.21102
2.51681
2.54749
2.53398
2.52224
2.50655
2.49078
2.44805
2.39856
2.32671
1
1
1.00001
1.00002
1.00006
1.00011
1.00034
1.00061
1.00188
1.00363
1.00992
1.02354
1.05557
1.16363
1.37488
1.99998
2.43407
2.53205
2.52001
2.50748
2.4799
2.45728
2.426
2.38764
2.32608
1
1
1.00001
1.00001
1.00005
1.00008
1.00026
1.00047
1.00148
1.00278
1.0079
1.0175
1.04304
1.12075
1.27391
1.80221
2.27553
2.49047
2.49784
2.49181
2.47126
2.44089
2.4016
2.36306
2.31975
1
1
1.00001
1.00001
1.00003
1.00006
1.0002
1.00036
1.00112
1.00209
1.00616
1.01277
1.03326
1.08679
1.19946
1.55871
2.24821
2.41692
2.44645
2.44769
2.44283
2.42677
2.39297
2.35003
2.30438
1
1
1
1.00001
1.00002
1.00006
1.00011
1.00033
1.00064
1.00176
1.0039
1.00955
1.02577
1.0568
1.17265
1.3893
2.04067
2.37833
2.43211
2.42642
2.41055
2.39562
2.37823
2.34328
2.30045
1
1
1
1.00001
1.00001
1.00005
1.00008
1.00027
1.00048
1.00149
1.00281
1.00801
1.01749
1.0435
1.11874
1.27661
1.71409
2.25059
2.41024
2.40665
2.39314
2.36862
2.34491
2.32358
2.29309
1
1
1
1
1.00001
1.00003
1.00008
1.00015
1.00045
1.00086
1.00255
1.00505
1.01404
1.03082
1.08116
1.19223
1.59841
2.04817
2.34242
2.38583
2.38109
2.3628
2.33285
2.30197
2.27365
1
1
1
1
1.00001
1.00002
1.00004
1.00013
1.00025
1.00074
1.00144
1.00395
1.00884
1.02155
1.05905
1.12781
1.38739
1.96542
2.22706
2.32593
2.34421
2.34075
2.32588
2.29546
2.26367
1
1
1
1
1.00001
1.00001
1.00004
1.00007
1.00022
1.00042
1.00125
1.00241
1.00662
1.01475
1.036
1.09799
1.21835
1.60174
2.1186
2.29685
2.30917
2.30663
2.2985
2.28162
2.25645
1
1
1
1
1.00001
1.00001
1.00003
1.00005
1.00016
1.00029
1.00091
1.00166
1.00491
1.00996
1.02584
1.06663
1.14692
1.43305
2.00037
2.24005
2.29154
2.28912
2.27579
2.25475
2.23533
1
1
1
1
1
1.00001
1.00002
1.00004
1.00011
1.00021
1.00064
1.00116
1.00354
1.00677
1.01907
1.04231
1.10501
1.27319
1.76801
2.11195
2.25505
2.26576
2.2593
2.24403
2.22094
1
1
1
1
1
1.00001
1.00001
1.00003
1.00006
1.00018
1.00033
1.00098
1.00185
1.00531
1.011
1.02825
1.07244
1.16245
1.45312
2.00207
2.19536
2.23202
2.23225
2.2224
2.205
1
1
1
1
1
1
1.00001
1.00002
1.00004
1.00012
1.00022
1.00069
1.00125
1.00381
1.00722
1.02023
1.04534
1.10849
1.29293
1.76317
2.09856
2.21084
2.21043
2.20132
2.18649
1
1
1
1
1
1
1
1.00001
1.00003
1.00008
1.00015
1.00045
1.00083
1.00248
1.00471
1.0135
1.02762
1.07534
1.16765
1.52133
1.90123
2.15083
2.19042
2.1891
2.17686
1
1
1
1
1
1
1
1.00001
1.00002
1.00004
1.00012
1.00022
1.00068
1.00126
1.00369
1.0073
1.01931
1.04628
1.10622
1.29127
1.74203
2.03864
2.15098
2.16175
2.15717
1
1
1
1
1
1
1
1
1.00001
1.00003
1.00008
1.00014
1.00044
1.00081
1.00243
1.00456
1.01308
1.02659
1.0714
1.16069
1.47313
1.87887
2.09915
2.1362
2.13604
1
1
1
1
1
1
1
1
1.00001
1.00002
1.00005
1.00009
1.00028
1.0005
1.00152
1.00282
1.00822
1.01659
1.04308
1.10362
1.25625
1.6101
1.97758
2.10526
2.11491
1
1
1
1
1
1
1
1
1
1.00001
1.00002
1.00007
1.00013
1.00039
1.00075
1.00215
1.00423
1.01162
1.02449
1.06514
1.14459
1.43914
1.78625
2.03332
2.08808
1
1
1
1
1
1
1
1
1
1.00001
1.00002
1.00003
1.0001
1.00019
1.00057
1.00106
1.0031
1.00604
1.01636
1.03641
1.08775
1.22189
1.59112
1.9021
2.04655
1
1
1
1
1
1
1
1
1
1
1.00001
1.00002
1.00006
1.00012
1.00035
1.00064
1.00194
1.00359
1.01034
1.02094
1.05446
1.12755
1.33457
1.72485
1.97617
1
1
1
1
1
1
1
1
1
1
1.00001
1.00001
1.00004
1.00007
1.00021
1.00038
1.00113
1.00209
1.00599
1.01191
1.0315
1.06986
1.17995
1.40697
1.84251
1
1
1
1
1
1
1
1
1
1
1
1.00001
1.00002
1.00005
1.0001
1.00029
1.00053
1.00155
1.00295
1.00821
1.01718
1.04438
1.10506
1.26481
1.60242
1
1
1
1
1
1
1
1
1
1
1
1.00001
1.00001
1.00003
1.00006
1.00017
1.00031
1.00093
1.0017
1.00502
1.00966
1.02597
1.05902
1.13985
1.35593
1
1
1
1
1
1
1
1
1
1
1
1
1.00001
1.00001
1.00004
1.00008
1.00023
1.00042
1.00122
1.00231
1.00639
1.01338
1.03311
1.08378
1.18368
1
1
1
1
1
1
1
1
1
1
1
1
1
1.00001
1.00003
1.00005
1.00014
1.00025
1.00075
1.00137
1.00399
1.00779
1.02027
1.04899
1.1076
1
1
1
1
1
1
1
1
1
1
1
1
1
1.00001
1.00002
1.00003
1.00009
1.00016
1.00047
1.00086
1.00254
1.0048
1.01346
1.02772
1.07226
1
1
1
1
1
1
1
1
1
1
1
1
1
1
1.00001
1.00003
1.00005
1.00014
1.00026
1.00078
1.00145
1.0043
1.00835
1.02287
1.05187
1
1
1
1
1
1
1
1
1
1
1
1
1
1
1.00001
1.00002
1.00004
1.00012
1.00022
1.00068
1.00123
1.00379
1.00717
1.02057
1.04521
1
1
1
1
1
1
1
1
1
1
1
1
1
1
1.00001
1.00002
1.00003
1.00011
1.00019
1.0006
1.00112
1.00342
1.00669
1.01869
1.04358
1
1
1
1
1
1
1
1
1
1
1
1
1
1
1.00001
1.00001
1.00004
1.00008
1.00024
1.00043
1.00134
1.00258
1.00723
1.01646
1.04048
1
1
1
1
1
1
1
1
1
1
1
1
1
1
1.00001
1.00001
1.00004
1.00007
1.00024
1.00042
1.00135
1.00251
1.00744
1.01579
1.04082
1
1
1
1
1
1
1
1
1
1
1
1
1
1
1.00001
1.00001
1.00004
1.00007
1.00022
1.00041
1.00128
1.00247
1.00696
1.01578
1.03923
1
1
1
1
1
1
1
1
1
1
1
1
1
1
1
1.00002
1.00003
1.00009
1.00017
1.00051
1.00099
1.00277
1.00633
1.01577
1.04355
1
1
1
1
1
1
1
1
1
1
1
1
1
1
1.00001
1.00001
1.00004
1.00007
1.00022
1.00041
1.00127
1.00245
1.00693
1.01562
1.03896
1
1
1
1
1
1
1
1
1
1
1
1
1
1
1.00001
1.00001
1.00004
1.00007
1.00023
1.00041
1.00132
1.00245
1.00734
1.01532
1.04013
2.41298
2.46213
2.95919
2.94647
2.94443
2.93814
2.90705
2.88785
2.87875
2.86752
2.85276
2.83352
2.81739
2.8008
2.78622
2.76845
2.75095
2.73219
2.71642
2.70142
2.68779
2.67178
2.66187
2.65454
2.65155
2.65776
2.66864
2.69485
2.72439
2.76111
2.79331
2.82648
2.85367
2.87784
2.89857
2.91468
2.93042
2.93993
2.94979
2.95472
2.9583
2.96106
2.96207
2.96252
2.96082
2.95933
2.95654
2.95446
2.95017
2.94686
2.94269
2.93774
2.93266
2.92827
2.92331
2.9179
2.91099
2.90504
2.89777
2.89199
2.88409
2.8784
2.87003
2.86374
2.85538
2.84823
2.83992
2.83222
2.82351
2.8156
2.80661
2.79821
2.78906
2.78043
2.77099
2.76202
2.75244
2.74332
2.73349
2.72416
2.71415
2.70478
2.69458
2.68514
2.67487
2.66546
2.65512
2.64564
2.63529
2.62594
2.61577
2.60666
2.59685
2.5882
2.57907
2.57137
2.5636
2.55767
2.55257
2.54947
2.28365
2.32309
2.56556
2.79476
2.87536
2.92901
2.98501
3.04835
3.01776
2.98204
2.97325
2.96275
2.95458
2.951
2.94285
2.93376
2.92445
2.914
2.90734
2.90047
2.89565
2.88856
2.8852
2.88401
2.89073
2.90479
2.92116
2.95128
2.97613
3.00762
3.02649
3.0443
3.05263
3.05617
3.0528
3.04517
3.03232
3.02181
3.00654
2.99516
2.97829
2.96634
2.95118
2.93643
2.92118
2.90678
2.89233
2.87961
2.86556
2.85315
2.83997
2.8289
2.81679
2.80659
2.79468
2.78524
2.77409
2.76502
2.75494
2.74561
2.73578
2.7268
2.71721
2.7086
2.69914
2.69069
2.68119
2.67281
2.66319
2.65477
2.645
2.63646
2.62654
2.6178
2.60774
2.59876
2.58853
2.57936
2.56892
2.5596
2.54897
2.53953
2.52882
2.51927
2.50855
2.49894
2.48833
2.47878
2.46837
2.45896
2.44883
2.43964
2.42992
2.42115
2.41214
2.40416
2.39636
2.39002
2.38496
2.38159
2.2714
2.23498
2.30188
2.44211
2.56055
2.69504
2.75962
2.88969
2.95185
2.96825
3.00369
3.02923
3.07846
3.08688
3.05411
3.04824
3.04616
3.04842
3.05256
3.05877
3.06442
3.06842
3.07016
3.07247
3.08593
3.09221
3.1124
3.12508
3.14359
3.15034
3.15131
3.14559
3.1365
3.12409
3.09874
3.07748
3.0546
3.03452
3.01279
2.9921
2.96602
2.94381
2.91782
2.89696
2.87344
2.85419
2.83331
2.81559
2.79598
2.77942
2.76215
2.7469
2.73063
2.71622
2.70244
2.68948
2.67581
2.66287
2.65023
2.63846
2.6272
2.61633
2.60606
2.5958
2.58629
2.5766
2.56775
2.55859
2.55031
2.54157
2.53374
2.52531
2.5178
2.50954
2.50219
2.49397
2.48667
2.47839
2.47108
2.46271
2.45525
2.44673
2.43903
2.43034
2.42243
2.41356
2.40547
2.39646
2.38826
2.3792
2.37092
2.36194
2.35377
2.34496
2.33709
2.32886
2.32202
2.31532
2.31083
2.30699
2.26786
2.21301
2.21341
2.26538
2.3254
2.40391
2.4888
2.56612
2.68154
2.77939
2.86078
2.91217
2.96934
3.02115
3.03713
3.04678
3.06988
3.09878
3.12286
3.13441
3.14193
3.14363
3.14602
3.15014
3.16377
3.16849
3.1806
3.18365
3.17712
3.16503
3.14214
3.12097
3.08981
3.06191
3.02578
2.9956
2.95778
2.92606
2.88983
2.85857
2.82681
2.8007
2.77503
2.75423
2.73298
2.71596
2.6982
2.68294
2.66741
2.65403
2.64041
2.62748
2.61508
2.604
2.59323
2.58241
2.57173
2.56109
2.5505
2.54017
2.52964
2.51944
2.50903
2.499
2.48869
2.47884
2.46861
2.45906
2.44897
2.43984
2.42995
2.42123
2.4116
2.40326
2.39393
2.38599
2.37705
2.36945
2.36083
2.35352
2.34519
2.33818
2.33009
2.32337
2.31547
2.30895
2.30122
2.29482
2.28722
2.28083
2.27326
2.2668
2.25931
2.25305
2.24592
2.2402
2.23391
2.22951
2.22525
2.22369
2.2591
2.21064
2.17725
2.18584
2.21653
2.24832
2.30106
2.34954
2.41626
2.4841
2.56081
2.63868
2.71995
2.79648
2.88441
2.93802
2.97226
3.00349
3.03706
3.06042
3.08298
3.10156
3.116
3.13014
3.13276
3.13327
3.12611
3.11404
3.08941
3.05917
3.01918
2.97398
2.92797
2.8806
2.83594
2.79429
2.75502
2.7207
2.68819
2.6616
2.63668
2.61674
2.5976
2.58207
2.56696
2.55509
2.54231
2.53278
2.52219
2.514
2.50428
2.49719
2.4884
2.48198
2.47429
2.46885
2.46187
2.45608
2.44878
2.44347
2.43658
2.43148
2.42448
2.41909
2.41187
2.40607
2.39866
2.39236
2.38476
2.37801
2.37028
2.36316
2.35531
2.34791
2.3399
2.3323
2.32413
2.31634
2.30803
2.3001
2.29171
2.28369
2.2753
2.26726
2.25895
2.25097
2.24273
2.2348
2.22661
2.21889
2.21091
2.20359
2.19591
2.18914
2.18195
2.17594
2.16962
2.16496
2.16062
2.15883
2.2572
2.2033
2.17018
2.15065
2.15904
2.17138
2.19639
2.22304
2.25917
2.2985
2.34342
2.39504
2.44985
2.51391
2.57469
2.64965
2.72098
2.78875
2.84739
2.90844
2.95473
2.99089
3.0163
3.03392
3.04562
3.0443
3.02595
2.99478
2.94214
2.88358
2.81762
2.75572
2.70066
2.655
2.61561
2.58451
2.55739
2.53596
2.51776
2.50356
2.49146
2.48186
2.47293
2.46581
2.45883
2.45261
2.44652
2.44118
2.43526
2.43005
2.42447
2.41903
2.41303
2.40747
2.40156
2.39626
2.39026
2.38415
2.37746
2.37106
2.36436
2.358
2.35125
2.34489
2.33806
2.33164
2.32472
2.31818
2.31115
2.30452
2.29735
2.29072
2.28346
2.27691
2.26967
2.26321
2.25602
2.24968
2.24257
2.23626
2.22926
2.22294
2.21597
2.20953
2.20244
2.19581
2.18855
2.18182
2.1745
2.16771
2.16037
2.15362
2.14642
2.13987
2.13301
2.12696
2.12084
2.11593
2.11158
2.10947
2.25922
2.20283
2.16305
2.13709
2.12532
2.12644
2.13384
2.14889
2.16511
2.18977
2.21226
2.24397
2.27414
2.31399
2.35287
2.39906
2.44716
2.50008
2.556
2.61199
2.67345
2.72744
2.78465
2.81665
2.85087
2.84958
2.82676
2.77499
2.70244
2.62601
2.55653
2.49516
2.45248
2.42371
2.4071
2.39793
2.39063
2.38648
2.38312
2.38195
2.38066
2.38017
2.37943
2.37888
2.37772
2.37687
2.37504
2.37373
2.37097
2.3692
2.36561
2.3632
2.35897
2.35586
2.35123
2.34836
2.34351
2.33982
2.33406
2.32951
2.32345
2.31851
2.31219
2.30684
2.30022
2.29446
2.28756
2.28138
2.27427
2.26764
2.26035
2.25329
2.24583
2.23839
2.23079
2.22308
2.21538
2.2075
2.19978
2.19188
2.18425
2.17644
2.16889
2.16126
2.15392
2.1466
2.13944
2.13242
2.12536
2.11861
2.11163
2.10516
2.0983
2.0922
2.08559
2.08003
2.07401
2.06951
2.06506
2.06334
2.26391
2.20741
2.16266
2.13137
2.10886
2.10068
2.09495
2.09996
2.106
2.11839
2.13047
2.14732
2.16529
2.18653
2.21164
2.23699
2.26878
2.2982
2.34059
2.37649
2.42968
2.47086
2.52322
2.56051
2.60135
2.60773
2.58543
2.53424
2.46684
2.40442
2.34993
2.31165
2.28731
2.27223
2.27433
2.28233
2.29168
2.30121
2.30767
2.31362
2.31639
2.31937
2.32022
2.32028
2.31998
2.31925
2.31772
2.31618
2.31362
2.31135
2.30804
2.30513
2.30121
2.29764
2.29354
2.29008
2.28628
2.28271
2.27836
2.27407
2.26937
2.26471
2.25974
2.25474
2.24941
2.24409
2.23845
2.23289
2.22702
2.22131
2.21528
2.20942
2.20325
2.19722
2.19091
2.18472
2.17825
2.17187
2.16511
2.15844
2.15123
2.14426
2.13672
2.12956
2.12179
2.11458
2.10675
2.09964
2.09194
2.08502
2.07755
2.07089
2.06371
2.05736
2.05055
2.04465
2.03846
2.03348
2.0288
2.02653
2.25983
2.21184
2.16589
2.1314
2.10317
2.08635
2.07503
2.0697
2.06859
2.07125
2.07725
2.08286
2.0938
2.10328
2.11896
2.13117
2.15296
2.16889
2.19837
2.22553
2.26442
2.30019
2.34358
2.38971
2.43369
2.44698
2.42643
2.38381
2.33332
2.28601
2.24377
2.21864
2.19597
2.18664
2.18254
2.18812
2.2001
2.21262
2.22539
2.23405
2.24105
2.24535
2.2483
2.25026
2.2516
2.25239
2.25316
2.25303
2.25264
2.25202
2.25057
2.24937
2.24693
2.24504
2.24203
2.23985
2.23707
2.23482
2.23134
2.22819
2.22387
2.22022
2.21549
2.21151
2.20654
2.20218
2.19695
2.1921
2.18652
2.18116
2.17521
2.16947
2.16325
2.15726
2.15086
2.14471
2.13822
2.13201
2.12548
2.11929
2.1128
2.1066
2.10004
2.09369
2.087
2.08046
2.07362
2.06694
2.06003
2.05332
2.04639
2.03979
2.03295
2.0266
2.01997
2.01409
2.00795
2.00297
1.9982
1.99595
2.25382
2.21104
2.16792
2.13221
2.10176
2.07956
2.06289
2.05276
2.04533
2.04269
2.04083
2.04225
2.04569
2.0491
2.05706
2.06299
2.07566
2.08655
2.10842
2.13149
2.16194
2.19615
2.23966
2.30053
2.34322
2.35469
2.3321
2.29766
2.25723
2.21158
2.17364
2.14254
2.12556
2.11085
2.10454
2.10275
2.10804
2.12001
2.1376
2.1543
2.17011
2.18135
2.19069
2.19672
2.20145
2.20493
2.20745
2.20951
2.21085
2.21212
2.21212
2.21189
2.21115
2.21008
2.20818
2.20635
2.20418
2.20228
2.19974
2.1969
2.19334
2.18965
2.18551
2.18129
2.1767
2.1721
2.16718
2.16228
2.15709
2.15191
2.14649
2.14101
2.13533
2.12953
2.12354
2.11733
2.11096
2.10443
2.09784
2.09121
2.08453
2.07797
2.07126
2.06482
2.05807
2.05174
2.0449
2.03866
2.03172
2.02554
2.01853
2.01243
2.00544
1.99945
1.99262
1.98686
1.98048
1.97539
1.97034
1.96785
2.2511
2.21053
2.16912
2.13388
2.10131
2.07709
2.05571
2.04169
2.0301
2.02294
2.01758
2.01451
2.01276
2.0127
2.01478
2.01775
2.02513
2.03415
2.05231
2.07463
2.09974
2.14148
2.19559
2.26699
2.30354
2.30553
2.28375
2.25322
2.213
2.17097
2.13198
2.10429
2.08268
2.0702
2.06205
2.05818
2.05864
2.06275
2.07393
2.09064
2.10965
2.12707
2.14205
2.1526
2.16093
2.16585
2.16976
2.17192
2.17379
2.17459
2.17522
2.17517
2.17457
2.17378
2.17208
2.17056
2.16821
2.16669
2.16438
2.16238
2.15933
2.1565
2.15304
2.14975
2.1459
2.14211
2.13778
2.13349
2.12865
2.1239
2.11863
2.11353
2.10791
2.10253
2.09656
2.09093
2.08469
2.07889
2.0724
2.06641
2.05969
2.05353
2.04667
2.04042
2.03351
2.02725
2.02035
2.0141
2.00719
2.00096
1.99408
1.98789
1.98108
1.97501
1.96838
1.96256
1.95633
1.95111
1.94607
1.94338
2.24266
2.20727
2.1694
2.13513
2.10273
2.07601
2.0536
2.03504
2.02096
2.00994
2.00097
1.99547
1.98987
1.98753
1.98562
1.98659
1.99169
2.00455
2.01771
2.04182
2.07191
2.12146
2.19982
2.26302
2.28734
2.27697
2.25569
2.22572
2.1873
2.14633
2.11166
2.08347
2.06019
2.04328
2.0307
2.02346
2.01792
2.01607
2.01748
2.025
2.03708
2.05491
2.07361
2.09082
2.10485
2.11505
2.12249
2.12712
2.13071
2.13272
2.13476
2.13545
2.13663
2.13656
2.13619
2.13552
2.13405
2.13296
2.13118
2.12973
2.12726
2.12483
2.1216
2.11863
2.11503
2.11166
2.10771
2.10394
2.09961
2.09539
2.09062
2.08596
2.08073
2.0756
2.06998
2.06454
2.05868
2.05304
2.04704
2.04129
2.03516
2.02934
2.02308
2.01721
2.01084
2.00494
1.99849
1.9926
1.9861
1.98024
1.97372
1.96788
1.96136
1.95554
1.94912
1.94342
1.93733
1.93213
1.92711
1.92438
2.2287
2.19765
2.16346
2.13337
2.10258
2.07571
2.05173
2.03284
2.0153
2.00281
1.9911
1.98216
1.97578
1.96928
1.96741
1.96646
1.97297
1.98698
2.00276
2.02761
2.07254
2.14098
2.22769
2.27271
2.27889
2.26475
2.24085
2.20985
2.16989
2.13422
2.10242
2.07455
2.05034
2.03019
2.01377
2.00138
1.99306
1.98814
1.98669
1.98687
1.99158
2.00249
2.01822
2.03771
2.05637
2.07304
2.0856
2.09518
2.10116
2.10554
2.10775
2.10965
2.11032
2.11111
2.11104
2.11066
2.10968
2.10887
2.10725
2.10624
2.10431
2.10246
2.09951
2.09674
2.09319
2.08985
2.08581
2.08205
2.07767
2.07359
2.06892
2.06451
2.05949
2.05468
2.04926
2.0441
2.03827
2.03281
2.0266
2.02092
2.01444
2.00862
2.00197
1.99607
1.98934
1.98341
1.97667
1.97076
1.96406
1.95821
1.95155
1.94576
1.93918
1.93343
1.92699
1.92134
1.91522
1.91002
1.90494
1.90215
2.22427
2.19239
2.15953
2.12743
2.09924
2.07343
2.04983
2.02936
2.01228
1.99673
1.98526
1.97357
1.96599
1.95883
1.95532
1.95732
1.96735
1.97949
2.00204
2.03686
2.10225
2.193
2.25698
2.27666
2.26907
2.25277
2.22974
2.19539
2.16096
2.12966
2.09975
2.07301
2.04863
2.02729
2.00783
1.99224
1.97931
1.9708
1.96437
1.96184
1.96024
1.96165
1.96808
1.97853
1.99526
2.01308
2.03068
2.04504
2.05654
2.06413
2.06949
2.07242
2.07456
2.07544
2.07628
2.07629
2.07593
2.07538
2.07416
2.07338
2.07189
2.07063
2.06831
2.06607
2.06302
2.06027
2.05681
2.05363
2.04983
2.04622
2.04204
2.038
2.03336
2.02891
2.02389
2.01915
2.01379
2.00881
2.00317
1.99799
1.99211
1.98672
1.98064
1.97508
1.96886
1.96319
1.9569
1.95118
1.94487
1.93913
1.93284
1.9271
1.92087
1.91513
1.90903
1.90335
1.89752
1.89224
1.8873
1.88434
2.2121
2.18607
2.15666
2.12658
2.09676
2.07101
2.04709
2.02616
2.00848
1.99274
1.97968
1.96888
1.95919
1.95403
1.95168
1.95793
1.96827
1.98568
2.01587
2.07683
2.16321
2.2439
2.27515
2.27627
2.26415
2.24655
2.21916
2.188
2.15795
2.12932
2.10237
2.07712
2.05342
2.03106
2.01084
1.99217
1.97571
1.96141
1.9499
1.94311
1.9374
1.93597
1.93384
1.9367
1.94478
1.95763
1.97504
1.99356
2.01045
2.02468
2.03498
2.04239
2.04666
2.04978
2.05097
2.05222
2.05239
2.0522
2.05159
2.051
2.04983
2.04888
2.04708
2.04507
2.04218
2.03938
2.03605
2.0329
2.02928
2.02583
2.02188
2.0181
2.01375
2.00964
2.00489
2.00044
1.9953
1.99053
1.98506
1.97999
1.97422
1.96892
1.96294
1.95746
1.95132
1.94568
1.93942
1.93364
1.92733
1.92145
1.91519
1.90927
1.90314
1.89725
1.89129
1.88557
1.87988
1.87467
1.86982
1.86696
2.19742
2.17292
2.14764
2.12182
2.09513
2.06814
2.04567
2.02286
2.00519
1.98825
1.97502
1.96386
1.95548
1.95164
1.95489
1.96416
1.98027
2.00645
2.06011
2.14313
2.23155
2.27348
2.28158
2.27455
2.25999
2.2396
2.21039
2.18403
2.15676
2.13197
2.10667
2.08279
2.05862
2.03627
2.0143
1.99431
1.97538
1.95876
1.9438
1.93095
1.92213
1.9161
1.91158
1.91068
1.90969
1.91409
1.92421
1.93892
1.95726
1.97519
1.99156
2.00399
2.01354
2.01916
2.02316
2.02475
2.026
2.02611
2.02577
2.02531
2.02434
2.02369
2.02248
2.02113
2.01894
2.01659
2.01372
2.01091
2.00763
2.00446
2.0008
1.99723
1.99316
1.98924
1.98478
1.98048
1.97567
1.97102
1.96592
1.96098
1.95563
1.95046
1.94492
1.93958
1.93389
1.92837
1.92258
1.91692
1.91108
1.90531
1.89948
1.89367
1.88784
1.88205
1.87627
1.87058
1.86499
1.8597
1.85492
1.8518
2.18616
2.16493
2.14198
2.11773
2.0934
2.06745
2.04465
2.02248
2.00316
1.98614
1.9718
1.96063
1.95448
1.95549
1.96457
1.97913
2.0026
2.05121
2.12803
2.22297
2.27567
2.28781
2.28292
2.27189
2.25561
2.23062
2.20463
2.18105
2.15706
2.13419
2.10966
2.0865
2.0627
2.04018
2.01799
1.99695
1.9773
1.95855
1.94228
1.92699
1.91481
1.90399
1.89722
1.89227
1.88895
1.88823
1.88936
1.89635
1.9078
1.92456
1.94238
1.96013
1.97469
1.98623
1.99362
1.99867
2.00093
2.00239
2.00249
2.00209
2.00123
2.00046
1.99937
1.9982
1.99643
1.99426
1.99163
1.98891
1.98586
1.98278
1.97937
1.97589
1.97207
1.96822
1.96405
1.95986
1.95536
1.95085
1.94604
1.94125
1.93616
1.93113
1.9258
1.92057
1.91505
1.90963
1.90398
1.89842
1.89272
1.8871
1.88142
1.87579
1.87017
1.8646
1.85909
1.85366
1.84837
1.84337
1.83881
1.83594
2.16326
2.14567
2.12796
2.10885
2.08919
2.06604
2.04385
2.02262
2.00306
1.98619
1.97212
1.96204
1.9602
1.96708
1.97949
2.00088
2.04468
2.11823
2.21155
2.27069
2.28942
2.28645
2.27744
2.26396
2.24329
2.22061
2.1986
2.17732
2.15506
2.13342
2.11013
2.08857
2.06502
2.04414
2.02123
2.00163
1.98033
1.96252
1.94385
1.92814
1.91283
1.89973
1.88972
1.88003
1.87521
1.87025
1.86843
1.86781
1.87037
1.87845
1.89159
1.90806
1.92542
1.94122
1.95408
1.96352
1.96928
1.97287
1.97387
1.97433
1.97341
1.97262
1.97145
1.97058
1.96911
1.96746
1.9652
1.96285
1.96013
1.95734
1.95422
1.95103
1.94753
1.94401
1.94017
1.93634
1.93215
1.92803
1.9235
1.91912
1.91432
1.90971
1.90468
1.89984
1.89462
1.88956
1.8842
1.87899
1.87356
1.86827
1.86283
1.85752
1.85211
1.84685
1.84156
1.83642
1.83138
1.82664
1.82232
1.81958
2.15725
2.13317
2.11417
2.09438
2.07794
2.06097
2.04166
2.02248
2.00358
1.98798
1.97492
1.96932
1.97391
1.98536
2.00491
2.045
2.11433
2.20551
2.26995
2.29166
2.29015
2.28235
2.27096
2.25131
2.23205
2.21192
2.19355
2.17324
2.15402
2.13296
2.11286
2.0909
2.06989
2.04822
2.027
2.00675
1.9862
1.96813
1.94869
1.93292
1.91526
1.90129
1.8864
1.87454
1.86494
1.85648
1.85215
1.84648
1.84554
1.84427
1.8481
1.85717
1.87105
1.88722
1.90369
1.91804
1.9295
1.93705
1.94182
1.94381
1.94449
1.94392
1.94269
1.942
1.94064
1.93941
1.93734
1.93534
1.93279
1.93033
1.9274
1.92456
1.92125
1.91811
1.9145
1.9111
1.90718
1.90353
1.89935
1.89545
1.89102
1.8869
1.88225
1.87789
1.87304
1.86846
1.86344
1.85868
1.85355
1.84867
1.84349
1.83855
1.83339
1.82847
1.82343
1.81867
1.81389
1.80955
1.8055
1.80304
2.14702
2.12558
2.10542
2.08547
2.06571
2.0491
2.0321
2.01765
2.00235
1.9893
1.9819
1.98454
1.99484
2.01314
2.05038
2.11552
2.20417
2.26967
2.29346
2.29384
2.28758
2.2759
2.25825
2.23939
2.22223
2.20522
2.18882
2.17107
2.15342
2.1339
2.11476
2.09399
2.07433
2.05276
2.03342
2.01216
1.99346
1.9733
1.95499
1.93644
1.91824
1.90233
1.88482
1.8722
1.85685
1.84736
1.8362
1.83034
1.82358
1.82012
1.81778
1.81831
1.82355
1.83385
1.84826
1.86467
1.88001
1.89339
1.90302
1.90953
1.91278
1.91419
1.91392
1.91317
1.91205
1.91122
1.90947
1.90794
1.90541
1.90338
1.90046
1.89808
1.89484
1.89213
1.88864
1.88566
1.88194
1.87868
1.87474
1.87122
1.86708
1.86332
1.859
1.855
1.85052
1.84631
1.84168
1.83731
1.83255
1.82808
1.82326
1.81875
1.81392
1.80944
1.8047
1.80035
1.79588
1.79197
1.78825
1.7861
2.12716
2.11647
2.09694
2.07956
2.06066
2.04409
2.02737
2.01313
2.00082
1.99383
1.99594
2.00746
2.02533
2.06141
2.12346
2.21027
2.27634
2.30206
2.30219
2.2961
2.284
2.26683
2.24894
2.23305
2.21764
2.20291
2.18733
2.17134
2.15387
2.13576
2.11648
2.09685
2.07667
2.05668
2.0366
2.01643
1.99682
1.97638
1.9577
1.93741
1.92
1.9008
1.88462
1.86756
1.8526
1.8386
1.82569
1.81581
1.80631
1.80065
1.79407
1.79172
1.78982
1.79181
1.79874
1.81085
1.82584
1.8422
1.85677
1.86904
1.87725
1.88272
1.88483
1.88565
1.88481
1.88422
1.88299
1.88179
1.87957
1.87762
1.87493
1.87269
1.86969
1.86717
1.86384
1.8611
1.85756
1.8546
1.85087
1.84766
1.84378
1.84031
1.83627
1.83258
1.82838
1.82451
1.82015
1.81614
1.81165
1.80754
1.80295
1.7988
1.79422
1.79009
1.78566
1.78168
1.7776
1.77408
1.77081
1.76892
2.11267
2.10086
2.08351
2.06556
2.04941
2.03381
2.0198
2.00709
2.00134
2.00346
2.01669
2.03509
2.07242
2.13427
2.22073
2.28556
2.3115
2.31135
2.30523
2.2932
2.27423
2.25705
2.24132
2.22774
2.21372
2.20007
2.18485
2.16929
2.15204
2.1346
2.1157
2.09702
2.07717
2.05773
2.03732
2.01749
1.997
1.97717
1.95715
1.93759
1.91862
1.8995
1.88208
1.86395
1.84838
1.83197
1.81855
1.80472
1.79399
1.78427
1.77674
1.77083
1.76591
1.7645
1.76416
1.76782
1.77678
1.79023
1.80609
1.82171
1.83583
1.84638
1.85373
1.85749
1.85913
1.85897
1.85819
1.85743
1.85569
1.85405
1.85136
1.84921
1.84633
1.8439
1.84081
1.8381
1.83481
1.83189
1.82841
1.82532
1.82162
1.81835
1.81447
1.81101
1.80699
1.80337
1.79921
1.7955
1.79125
1.78745
1.78321
1.77934
1.77519
1.77135
1.76739
1.76372
1.76017
1.75698
1.75432
1.75257
2.09385
2.08958
2.07741
2.06045
2.04319
2.02773
2.01594
2.00741
2.00976
2.02379
2.04246
2.08153
2.14354
2.23076
2.29305
2.31752
2.31648
2.30989
2.29624
2.2768
2.25863
2.24458
2.23103
2.21909
2.20556
2.19253
2.17739
2.16259
2.14556
2.12888
2.1101
2.09197
2.07193
2.05298
2.03223
2.01299
1.992
1.97295
1.95219
1.93367
1.91362
1.89586
1.877
1.86014
1.84295
1.82719
1.81201
1.79788
1.78531
1.77342
1.76419
1.75574
1.74965
1.74425
1.74116
1.7406
1.74182
1.7476
1.75771
1.77197
1.78778
1.80266
1.81539
1.82442
1.83028
1.83282
1.83357
1.83301
1.83193
1.83085
1.82859
1.82655
1.82359
1.82132
1.81823
1.81581
1.8126
1.80994
1.8066
1.80369
1.80027
1.79719
1.79368
1.79046
1.78685
1.78344
1.77977
1.77617
1.77248
1.76874
1.76506
1.76132
1.75775
1.75416
1.75085
1.74763
1.74482
1.74226
1.74046
1.73923
2.06309
2.06794
2.06199
2.05036
2.03493
2.02222
2.01409
2.01689
2.03093
2.05043
2.09196
2.15526
2.24377
2.30227
2.32276
2.32106
2.31358
2.29672
2.27621
2.25817
2.24442
2.23189
2.22067
2.2083
2.19588
2.18188
2.16766
2.1519
2.13589
2.11844
2.10093
2.08223
2.06374
2.04437
2.02537
2.00582
1.98665
1.96737
1.94824
1.92955
1.91066
1.89283
1.87448
1.85774
1.84036
1.82486
1.80897
1.79483
1.78084
1.76827
1.75676
1.74636
1.73818
1.73056
1.72513
1.71991
1.71838
1.71776
1.72035
1.72741
1.73884
1.7533
1.7686
1.78264
1.79382
1.80157
1.80591
1.8076
1.80752
1.80696
1.80565
1.80425
1.80143
1.79921
1.79623
1.79387
1.79086
1.78834
1.78522
1.78253
1.77934
1.77654
1.77331
1.77042
1.76712
1.76414
1.76076
1.75768
1.75428
1.7511
1.74776
1.7446
1.74141
1.73846
1.73563
1.73312
1.731
1.72924
1.72848
1.72779
2.04439
2.05024
2.04892
2.04176
2.03022
2.02099
2.02396
2.03955
2.06047
2.10508
2.17166
2.2586
2.31327
2.32775
2.3242
2.31444
2.29604
2.27453
2.25655
2.24261
2.23059
2.21968
2.20818
2.19621
2.18316
2.16947
2.15482
2.13963
2.12357
2.1071
2.08989
2.07238
2.05444
2.03627
2.01797
1.99949
1.98114
1.96256
1.9443
1.92593
1.9079
1.8901
1.87256
1.85573
1.83888
1.82327
1.80729
1.79295
1.77807
1.76509
1.75172
1.74036
1.72913
1.72007
1.71175
1.70501
1.69903
1.6954
1.69425
1.69483
1.69845
1.70651
1.71937
1.73397
1.74876
1.76159
1.77133
1.77754
1.78058
1.78133
1.7809
1.78011
1.77847
1.77623
1.77351
1.77092
1.76812
1.76561
1.76277
1.76028
1.7574
1.75481
1.75197
1.74926
1.74649
1.74373
1.74096
1.7382
1.73544
1.73269
1.73005
1.72736
1.72506
1.72263
1.72092
1.71909
1.71826
1.71757
1.71809
1.71784
1.9994
2.02565
2.02797
2.02708
2.02491
2.02671
2.048
2.072
2.12086
2.19571
2.27845
2.32916
2.3382
2.3329
2.31877
2.29735
2.27532
2.25732
2.24289
2.23147
2.22026
2.20943
2.19737
2.18537
2.17177
2.15843
2.1435
2.12903
2.11302
2.09759
2.08066
2.06442
2.04684
2.02998
2.01206
1.99473
1.97669
1.95904
1.94112
1.92337
1.90581
1.8883
1.87133
1.85433
1.83806
1.82181
1.80627
1.79093
1.77621
1.76195
1.74823
1.73526
1.72293
1.71163
1.70142
1.69257
1.68491
1.67812
1.67316
1.67042
1.67004
1.67188
1.67722
1.68668
1.70002
1.71469
1.72858
1.74017
1.74831
1.75318
1.75493
1.75485
1.75426
1.75281
1.75093
1.74801
1.74535
1.74256
1.74
1.73752
1.73495
1.73258
1.73003
1.72765
1.72522
1.72281
1.72056
1.71817
1.71608
1.71387
1.71194
1.71011
1.70849
1.70731
1.70633
1.70608
1.70634
1.70731
1.7093
1.70937
1.90358
2.0011
2.01783
2.02052
2.02785
2.04596
2.08051
2.138
2.22356
2.29736
2.3396
2.34388
2.33744
2.32092
2.29527
2.27377
2.25555
2.24128
2.22939
2.2193
2.20891
2.19837
2.18673
2.1746
2.16149
2.14805
2.13371
2.11928
2.10386
2.0886
2.07224
2.05633
2.03922
2.02292
2.00527
1.9887
1.97071
1.95395
1.93589
1.91913
1.90133
1.88478
1.86748
1.85126
1.8346
1.81885
1.80285
1.7877
1.77242
1.75811
1.74366
1.73042
1.71693
1.70489
1.69282
1.68257
1.67282
1.66488
1.65753
1.65147
1.64804
1.64659
1.64751
1.65061