/*--------------------------------*- C++ -*----------------------------------*\
| =========                 |                                                 |
| \\      /  F ield         | OpenFOAM: The Open Source CFD Toolbox           |
|  \\    /   O peration     | Version:  2112                                  |
|   \\  /    A nd           | Website:  www.openfoam.com                      |
|    \\/     M anipulation  |                                                 |
\*---------------------------------------------------------------------------*/
FoamFile
{
    version     2.0;
    format      ascii;
    arch        "LSB;label=32;scalar=64";
    class       volVectorField;
    location    "6";
    object      U;
}
// * * * * * * * * * * * * * * * * * * * * * * * * * * * * * * * * * * * * * //

dimensions      [0 1 -1 0 0 0 0];

internalField   nonuniform List<vector> 
5250
(
(2.99999 1.29977e-08 0)
(2.99998 1.00622e-07 0)
(2.99996 3.09883e-07 0)
(2.9999 9.34503e-07 0)
(2.99973 2.20776e-06 0)
(2.99942 5.93306e-06 0)
(2.9984 1.30626e-05 0)
(2.99671 3.6081e-05 0)
(2.98999 7.50835e-05 0)
(2.97946 0.000226098 0)
(2.93566 0.000468594 0)
(2.83769 0.00155823 0)
(2.54671 0.00363034 0)
(1.62472 0.0119789 0)
(0.775279 0.0287139 0)
(0.486027 0.0266652 0)
(0.532916 0.0261277 0)
(0.537331 0.027448 0)
(0.48083 0.0288365 0)
(0.391699 0.0303265 0)
(0.311027 0.0321691 0)
(0.245131 0.0342319 0)
(0.178777 0.036283 0)
(0.105581 0.038428 0)
(0.0440128 0.0406571 0)
(2.99999 3.88285e-08 0)
(2.99998 3.01307e-07 0)
(2.99996 9.26996e-07 0)
(2.9999 2.79992e-06 0)
(2.99974 6.60926e-06 0)
(2.99943 1.78355e-05 0)
(2.99843 3.91489e-05 0)
(2.99676 0.000109288 0)
(2.99014 0.000226427 0)
(2.97979 0.000691071 0)
(2.93672 0.0014309 0)
(2.8405 0.00482711 0)
(2.55446 0.0113194 0)
(1.64565 0.037296 0)
(0.787015 0.0873611 0)
(0.481807 0.0762406 0)
(0.531886 0.0711246 0)
(0.537908 0.0723939 0)
(0.481452 0.0740032 0)
(0.392677 0.0760898 0)
(0.312221 0.0786682 0)
(0.245979 0.0813457 0)
(0.178922 0.0835542 0)
(0.104715 0.0853532 0)
(0.0425217 0.0858943 0)
(2.99999 6.33613e-08 0)
(2.99998 4.93229e-07 0)
(2.99996 1.51616e-06 0)
(2.9999 4.59254e-06 0)
(2.99975 1.08418e-05 0)
(2.99945 2.9411e-05 0)
(2.99848 6.45276e-05 0)
(2.99687 0.000181876 0)
(2.99047 0.000376307 0)
(2.98047 0.00116218 0)
(2.93894 0.00240485 0)
(2.84653 0.00819848 0)
(2.57125 0.0193611 0)
(1.69289 0.063872 0)
(0.815193 0.151406 0)
(0.47684 0.129151 0)
(0.53401 0.11903 0)
(0.543658 0.121466 0)
(0.487634 0.124888 0)
(0.399643 0.129636 0)
(0.319389 0.134674 0)
(0.252444 0.139816 0)
(0.184111 0.144369 0)
(0.107966 0.147873 0)
(0.0433882 0.148342 0)
(3 8.15516e-08 0)
(2.99999 6.34652e-07 0)
(2.99996 1.94957e-06 0)
(2.99991 5.90968e-06 0)
(2.99976 1.39015e-05 0)
(2.99947 3.81725e-05 0)
(2.99856 8.16553e-05 0)
(2.99702 0.000243103 0)
(2.99096 0.000477195 0)
(2.9815 0.00161062 0)
(2.9423 0.00324738 0)
(2.85567 0.0113465 0)
(2.59677 0.0269872 0)
(1.7667 0.0887954 0)
(0.859863 0.214718 0)
(0.471757 0.181556 0)
(0.540298 0.166144 0)
(0.555821 0.16994 0)
(0.500563 0.175425 0)
(0.413558 0.183398 0)
(0.333135 0.191271 0)
(0.265117 0.19928 0)
(0.194828 0.206947 0)
(0.115164 0.213156 0)
(0.0461137 0.214263 0)
(3 9.50642e-08 0)
(2.99999 7.3819e-07 0)
(2.99996 2.26752e-06 0)
(2.99991 6.86783e-06 0)
(2.99977 1.60945e-05 0)
(2.9995 4.4653e-05 0)
(2.99865 9.27486e-05 0)
(2.9972 0.00029283 0)
(2.9916 0.000535213 0)
(2.98281 0.00201157 0)
(2.94668 0.00391582 0)
(2.86776 0.0140277 0)
(2.63037 0.0335982 0)
(1.86668 0.110218 0)
(0.92274 0.273919 0)
(0.471302 0.23331 0)
(0.553182 0.212581 0)
(0.575935 0.216883 0)
(0.521558 0.224156 0)
(0.435604 0.235988 0)
(0.354351 0.247602 0)
(0.284589 0.259462 0)
(0.211583 0.271208 0)
(0.127047 0.281256 0)
(0.0512055 0.28405 0)
(3 1.0792e-07 0)
(2.99999 8.38886e-07 0)
(2.99996 2.57684e-06 0)
(2.99992 7.81286e-06 0)
(2.99979 1.83413e-05 0)
(2.99954 5.08197e-05 0)
(2.99876 0.000106163 0)
(2.99739 0.000333227 0)
(2.99238 0.000604143 0)
(2.98434 0.00229155 0)
(2.95189 0.00442171 0)
(2.88219 0.0158519 0)
(2.67053 0.0380886 0)
(1.99095 0.12485 0)
(1.00761 0.322422 0)
(0.484711 0.288509 0)
(0.576365 0.264787 0)
(0.606087 0.266721 0)
(0.552973 0.273948 0)
(0.46826 0.289425 0)
(0.385375 0.30527 0)
(0.31306 0.322027 0)
(0.236237 0.339694 0)
(0.144759 0.356049 0)
(0.0593373 0.363087 0)
(3 1.14496e-07 0)
(2.99999 8.88977e-07 0)
(2.99997 2.73315e-06 0)
(2.99993 8.26901e-06 0)
(2.99981 1.9487e-05 0)
(2.99958 5.31586e-05 0)
(2.99889 0.000114344 0)
(2.99761 0.000339393 0)
(2.99322 0.000637805 0)
(2.98602 0.00231185 0)
(2.95756 0.0044036 0)
(2.8977 0.0158982 0)
(2.71429 0.0384494 0)
(2.13357 0.124491 0)
(1.12311 0.331725 0)
(0.534397 0.332202 0)
(0.618507 0.317965 0)
(0.650225 0.317627 0)
(0.598973 0.325191 0)
(0.515625 0.345026 0)
(0.429492 0.366172 0)
(0.353277 0.38905 0)
(0.271861 0.414453 0)
(0.172014 0.440578 0)
(0.0729589 0.457096 0)
(3 1.14093e-07 0)
(2.99999 8.82441e-07 0)
(2.99997 2.71599e-06 0)
(2.99993 8.16542e-06 0)
(2.99983 1.92661e-05 0)
(2.99962 5.13951e-05 0)
(2.999 0.000113293 0)
(2.99783 0.000313057 0)
(2.99401 0.000621187 0)
(2.98751 0.00206303 0)
(2.96284 0.00387835 0)
(2.91226 0.013613 0)
(2.75425 0.033974 0)
(2.26222 0.0982906 0)
(1.26344 0.281479 0)
(0.591939 0.358084 0)
(0.656989 0.372881 0)
(0.689437 0.366786 0)
(0.646713 0.377911 0)
(0.569479 0.401337 0)
(0.482933 0.429929 0)
(0.404397 0.461202 0)
(0.319744 0.497109 0)
(0.212255 0.538307 0)
(0.0957646 0.575694 0)
(3 1.20725e-07 0)
(2.99999 9.2492e-07 0)
(2.99997 2.85093e-06 0)
(2.99994 8.5028e-06 0)
(2.99985 2.01127e-05 0)
(2.99966 5.27607e-05 0)
(2.9991 0.000117785 0)
(2.99804 0.000307051 0)
(2.99467 0.000653108 0)
(2.98875 0.0018604 0)
(2.9669 0.00373492 0)
(2.92405 0.0114252 0)
(2.77914 0.0288667 0)
(2.35094 0.0749324 0)
(1.41233 0.224541 0)
(0.649136 0.397985 0)
(0.671147 0.426475 0)
(0.701527 0.41939 0)
(0.681347 0.433579 0)
(0.618135 0.458301 0)
(0.539335 0.494791 0)
(0.463664 0.536321 0)
(0.381564 0.585597 0)
(0.274103 0.651261 0)
(0.136747 0.734286 0)
(3 5.61884e-08 0)
(2.99999 1.45079e-06 0)
(2.99998 2.94904e-06 0)
(2.99995 1.28865e-05 0)
(2.99986 2.13417e-05 0)
(2.9997 8.27827e-05 0)
(2.99921 0.000117417 0)
(2.99828 0.000506749 0)
(2.9953 0.000533445 0)
(2.99009 0.00300075 0)
(2.97061 0.00198812 0)
(2.93405 0.0182084 0)
(2.80257 0.0137315 0)
(2.43042 0.100427 0)
(1.57996 0.190307 0)
(0.738349 0.444583 0)
(0.677318 0.465698 0)
(0.707727 0.465756 0)
(0.705336 0.483699 0)
(0.659742 0.51243 0)
(0.596157 0.556077 0)
(0.530065 0.608663 0)
(0.461452 0.678168 0)
(0.373563 0.787292 0)
(0.212574 0.988027 0)
(3 1.05489e-07 0)
(2.99999 8.26303e-07 0)
(2.99998 2.53978e-06 0)
(2.99996 7.69952e-06 0)
(2.9999 1.82818e-05 0)
(2.99974 4.87129e-05 0)
(2.99946 0.000111139 0)
(2.99838 0.000282318 0)
(2.99674 0.00066234 0)
(2.98998 0.00162223 0)
(2.97915 0.00372463 0)
(2.93465 0.0100607 0)
(2.83475 0.0250747 0)
(2.5366 0.0677598 0)
(1.64434 0.201271 0)
(0.844874 0.47689 0)
(0.676441 0.491775 0)
(0.712406 0.498454 0)
(0.726593 0.521173 0)
(0.698286 0.557606 0)
(0.652866 0.607487 0)
(0.606867 0.671072 0)
(0.572543 0.759661 0)
(0.565778 0.897964 0)
(0.595241 1.1307 0)
(3 1.47908e-07 0)
(2.99999 1.3194e-07 0)
(2.99998 1.92112e-06 0)
(2.99996 1.78307e-06 0)
(2.9999 1.33693e-05 0)
(2.99978 9.42912e-06 0)
(2.99941 8.95095e-05 0)
(2.99873 3.61103e-05 0)
(2.99642 0.000647936 0)
(2.99263 0.000281119 0)
(2.97763 0.00480602 0)
(2.95166 0.00261813 0)
(2.84988 0.0341419 0)
(2.58359 0.0490344 0)
(1.91221 0.203051 0)
(0.965397 0.519029 0)
(0.684745 0.520771 0)
(0.723197 0.526749 0)
(0.750975 0.550536 0)
(0.738061 0.593115 0)
(0.710628 0.647964 0)
(0.688819 0.719199 0)
(0.690781 0.815642 0)
(0.742589 0.949863 0)
(0.872071 1.12243 0)
(3 7.73601e-08 0)
(2.99999 6.03289e-07 0)
(2.99998 1.85389e-06 0)
(2.99997 5.62247e-06 0)
(2.99991 1.32436e-05 0)
(2.9998 3.57953e-05 0)
(2.99948 7.87897e-05 0)
(2.99885 0.000221749 0)
(2.99695 0.00043553 0)
(2.99344 0.00148683 0)
(2.98123 0.00261433 0)
(2.9592 0.0102702 0)
(2.87795 0.020074 0)
(2.66525 0.0788569 0)
(2.12267 0.192745 0)
(1.11271 0.554524 0)
(0.709826 0.559255 0)
(0.746504 0.562972 0)
(0.78372 0.579603 0)
(0.782986 0.622176 0)
(0.769893 0.679332 0)
(0.769446 0.751559 0)
(0.797776 0.843092 0)
(0.874673 0.954141 0)
(1.024 1.06207 0)
(3 8.57714e-08 0)
(3 6.67999e-07 0)
(2.99999 2.05445e-06 0)
(2.99997 6.21889e-06 0)
(2.99992 1.47581e-05 0)
(2.99983 3.9484e-05 0)
(2.99956 8.91081e-05 0)
(2.99903 0.000234456 0)
(2.99747 0.000518918 0)
(2.99445 0.00141953 0)
(2.98485 0.00295265 0)
(2.96647 0.00922214 0)
(2.90377 0.0193605 0)
(2.74385 0.0659508 0)
(2.32738 0.164377 0)
(1.30896 0.499974 0)
(0.788717 0.580824 0)
(0.79594 0.60386 0)
(0.828819 0.613828 0)
(0.837379 0.649614 0)
(0.832881 0.703747 0)
(0.844546 0.770968 0)
(0.886814 0.84936 0)
(0.970646 0.934898 0)
(1.1134 1.00563 0)
(3 8.40671e-08 0)
(3 6.5584e-07 0)
(2.99999 2.01722e-06 0)
(2.99998 6.10739e-06 0)
(2.99994 1.45099e-05 0)
(2.99986 3.87604e-05 0)
(2.99964 8.77366e-05 0)
(2.99921 0.000227833 0)
(2.99794 0.000518537 0)
(2.99548 0.00130062 0)
(2.98767 0.00308747 0)
(2.97311 0.00748184 0)
(2.92268 0.0183926 0)
(2.79813 0.0490852 0)
(2.46248 0.129437 0)
(1.50248 0.378187 0)
(0.878559 0.603589 0)
(0.838606 0.644207 0)
(0.865349 0.656863 0)
(0.887222 0.679396 0)
(0.893056 0.724214 0)
(0.911817 0.782262 0)
(0.959313 0.846638 0)
(1.04262 0.911463 0)
(1.17195 0.961751 0)
(3 7.20695e-08 0)
(3 5.60228e-07 0)
(2.99999 1.72402e-06 0)
(2.99998 5.20037e-06 0)
(2.99995 1.23355e-05 0)
(2.99989 3.27773e-05 0)
(2.99972 7.39308e-05 0)
(2.99939 0.000191637 0)
(2.99836 0.000429225 0)
(2.9966 0.00110012 0)
(2.98997 0.00251411 0)
(2.9794 0.00639889 0)
(2.93687 0.0150346 0)
(2.8422 0.0410615 0)
(2.56646 0.107475 0)
(1.71692 0.313728 0)
(1.00979 0.646874 0)
(0.867799 0.680079 0)
(0.888613 0.69505 0)
(0.921094 0.706049 0)
(0.943047 0.740388 0)
(0.969539 0.788446 0)
(1.01907 0.841328 0)
(1.09862 0.89143 0)
(1.21358 0.928585 0)
(3 5.7999e-08 0)
(3 4.47897e-07 0)
(2.99999 1.37962e-06 0)
(2.99998 4.13616e-06 0)
(2.99996 9.77827e-06 0)
(2.99991 2.57769e-05 0)
(2.99977 5.76785e-05 0)
(2.9995 0.000150178 0)
(2.99869 0.000321796 0)
(2.99722 0.000900863 0)
(2.99206 0.00177627 0)
(2.98365 0.00571194 0)
(2.95031 0.0113783 0)
(2.87936 0.0378923 0)
(2.66386 0.0903996 0)
(1.97792 0.286382 0)
(1.1957 0.674993 0)
(0.909948 0.71013 0)
(0.916023 0.722572 0)
(0.950759 0.727193 0)
(0.985847 0.75102 0)
(1.01925 0.790563 0)
(1.06935 0.834556 0)
(1.14384 0.874327 0)
(1.24554 0.902647 0)
(3 5.08662e-08 0)
(3 3.93003e-07 0)
(2.99999 1.21097e-06 0)
(2.99999 3.63598e-06 0)
(2.99997 8.61781e-06 0)
(2.99993 2.27722e-05 0)
(2.99982 5.1189e-05 0)
(2.99961 0.000132691 0)
(2.99899 0.000291324 0)
(2.99781 0.000783534 0)
(2.99395 0.00162024 0)
(2.98746 0.00492838 0)
(2.96267 0.00979168 0)
(2.91178 0.0321445 0)
(2.75474 0.0772697 0)
(2.26508 0.238345 0)
(1.44652 0.629158 0)
(1.00939 0.726391 0)
(0.971543 0.743715 0)
(0.991276 0.749332 0)
(1.03021 0.762151 0)
(1.06758 0.792657 0)
(1.11501 0.828475 0)
(1.18244 0.860197 0)
(1.27206 0.881983 0)
(3 2.80014e-08 0)
(3 3.79799e-07 0)
(3 9.28713e-07 0)
(2.99999 3.41058e-06 0)
(2.99998 6.74389e-06 0)
(2.99995 2.13223e-05 0)
(2.99987 4.03953e-05 0)
(2.9997 0.00012472 0)
(2.99924 0.000229728 0)
(2.99833 0.000739801 0)
(2.9955 0.00122006 0)
(2.9905 0.00466345 0)
(2.97233 0.00625905 0)
(2.93826 0.0296217 0)
(2.82011 0.0484162 0)
(2.48743 0.191394 0)
(1.74913 0.466389 0)
(1.12074 0.741779 0)
(1.02859 0.768496 0)
(1.03532 0.779145 0)
(1.07244 0.781689 0)
(1.11348 0.800066 0)
(1.15805 0.826454 0)
(1.21784 0.850845 0)
(1.29601 0.86719 0)
(3 2.07724e-08 0)
(3 2.86281e-07 0)
(3 6.95782e-07 0)
(2.99999 2.56906e-06 0)
(2.99998 5.04581e-06 0)
(2.99996 1.59996e-05 0)
(2.99991 3.00981e-05 0)
(2.99977 9.29065e-05 0)
(2.9995 0.000172022 0)
(2.99864 0.000537862 0)
(2.99721 0.000955708 0)
(2.99168 0.00327637 0)
(2.98297 0.005062 0)
(2.94812 0.0212931 0)
(2.87368 0.0341247 0)
(2.64516 0.135145 0)
(1.97986 0.345455 0)
(1.2906 0.752896 0)
(1.07563 0.798434 0)
(1.07106 0.810381 0)
(1.10482 0.807368 0)
(1.15175 0.810655 0)
(1.19663 0.82701 0)
(1.2506 0.844699 0)
(1.31902 0.856853 0)
(3 3.95413e-08 0)
(3 1.42302e-07 0)
(3 6.80087e-07 0)
(2.99999 1.41863e-06 0)
(2.99999 4.7072e-06 0)
(2.99997 8.89787e-06 0)
(2.99993 2.76182e-05 0)
(2.99982 5.05127e-05 0)
(2.99961 0.000158889 0)
(2.99898 0.000272632 0)
(2.99778 0.000961866 0)
(2.99393 0.00145347 0)
(2.98732 0.00620575 0)
(2.96282 0.00916439 0)
(2.91248 0.0407584 0)
(2.75761 0.0801432 0)
(2.27698 0.288618 0)
(1.54392 0.687438 0)
(1.16709 0.810563 0)
(1.12325 0.830631 0)
(1.13977 0.832821 0)
(1.18493 0.825899 0)
(1.23269 0.831151 0)
(1.28255 0.841811 0)
(1.34267 0.849851 0)
(3 2.55636e-08 0)
(3 1.3921e-07 0)
(3 5.18191e-07 0)
(3 1.32971e-06 0)
(2.99999 3.66321e-06 0)
(2.99998 8.40223e-06 0)
(2.99995 2.1853e-05 0)
(2.99988 4.89203e-05 0)
(2.99969 0.000126026 0)
(2.99931 0.000280102 0)
(2.9982 0.000727369 0)
(2.99603 0.00159289 0)
(2.98942 0.00433209 0)
(2.9761 0.00920305 0)
(2.9348 0.0266206 0)
(2.83385 0.0658517 0)
(2.5511 0.180381 0)
(1.80977 0.541149 0)
(1.29181 0.806844 0)
(1.18063 0.841834 0)
(1.17911 0.854462 0)
(1.21529 0.846782 0)
(1.26453 0.84086 0)
(1.31275 0.843505 0)
(1.36649 0.847005 0)
(3 1.48821e-08 0)
(3 1.16185e-07 0)
(3 3.57369e-07 0)
(3 1.08064e-06 0)
(2.99999 2.56238e-06 0)
(2.99998 6.82072e-06 0)
(2.99996 1.53742e-05 0)
(2.99991 3.99635e-05 0)
(2.9998 8.90381e-05 0)
(2.99948 0.000231583 0)
(2.99888 0.000513725 0)
(2.99694 0.0013498 0)
(2.99367 0.00301549 0)
(2.98132 0.00791397 0)
(2.95997 0.0190303 0)
(2.88048 0.0491322 0)
(2.6808 0.137832 0)
(2.16039 0.364799 0)
(1.44436 0.814897 0)
(1.22764 0.86873 0)
(1.21354 0.87628 0)
(1.23874 0.868959 0)
(1.28803 0.854961 0)
(1.33906 0.85 0)
(1.38997 0.848907 0)
(3 1.68346e-08 0)
(3 6.49103e-08 0)
(3 2.96468e-07 0)
(3 6.47037e-07 0)
(3 2.07069e-06 0)
(2.99999 4.11231e-06 0)
(2.99997 1.22644e-05 0)
(2.99994 2.3836e-05 0)
(2.99985 7.02503e-05 0)
(2.99966 0.000135068 0)
(2.99913 0.000405887 0)
(2.99812 0.000746836 0)
(2.99489 0.00247601 0)
(2.98938 0.0040803 0)
(2.96915 0.0159536 0)
(2.92976 0.0262183 0)
(2.80309 0.104225 0)
(2.44256 0.248552 0)
(1.75394 0.670045 0)
(1.33936 0.85179 0)
(1.27137 0.8783 0)
(1.27558 0.883437 0)
(1.31515 0.870622 0)
(1.36575 0.860005 0)
(1.41417 0.85466 0)
(3 7.74144e-09 0)
(3 5.98875e-08 0)
(3 1.847e-07 0)
(3 5.53977e-07 0)
(3 1.31316e-06 0)
(2.99999 3.45196e-06 0)
(2.99998 7.762e-06 0)
(2.99996 1.98417e-05 0)
(2.99989 4.40035e-05 0)
(2.99976 0.000112137 0)
(2.99939 0.000246806 0)
(2.99866 0.000640296 0)
(2.99645 0.00136624 0)
(2.99255 0.00383801 0)
(2.97847 0.00768263 0)
(2.9537 0.0238073 0)
(2.86466 0.0533679 0)
(2.62895 0.163043 0)
(2.07458 0.437422 0)
(1.46761 0.827487 0)
(1.31924 0.88465 0)
(1.30951 0.898397 0)
(1.33822 0.890325 0)
(1.38789 0.872968 0)
(1.43657 0.86325 0)
(3 4.36357e-09 0)
(3 4.91419e-08 0)
(3 1.28664e-07 0)
(3 4.42969e-07 0)
(3 9.2457e-07 0)
(2.99999 2.7442e-06 0)
(2.99999 5.48539e-06 0)
(2.99997 1.5767e-05 0)
(2.99992 3.11864e-05 0)
(2.99983 8.92031e-05 0)
(2.99957 0.000175285 0)
(2.99905 0.00050722 0)
(2.99755 0.0009693 0)
(2.99465 0.00300449 0)
(2.98556 0.00521578 0)
(2.96817 0.0191473 0)
(2.91066 0.0323231 0)
(2.76518 0.126407 0)
(2.38751 0.288153 0)
(1.68452 0.758048 0)
(1.38903 0.888093 0)
(1.34737 0.909844 0)
(1.36014 0.910929 0)
(1.40463 0.892684 0)
(1.45638 0.87593 0)
(3 3.09511e-09 0)
(3 3.44797e-08 0)
(3 9.06572e-08 0)
(3 3.11839e-07 0)
(3 6.53189e-07 0)
(3 1.93719e-06 0)
(2.99999 3.8871e-06 0)
(2.99998 1.11619e-05 0)
(2.99995 2.21906e-05 0)
(2.99988 6.33445e-05 0)
(2.99973 0.000125434 0)
(2.99932 0.000359659 0)
(2.99852 0.000707113 0)
(2.9961 0.00207408 0)
(2.99179 0.00397722 0)
(2.97662 0.0125544 0)
(2.9487 0.0236114 0)
(2.85339 0.0804238 0)
(2.60145 0.192448 0)
(2.02112 0.545072 0)
(1.51316 0.864809 0)
(1.39878 0.91417 0)
(1.39123 0.926107 0)
(1.42095 0.915272 0)
(1.47078 0.892061 0)
(3 3.63156e-09 0)
(3 1.95592e-08 0)
(3 7.28046e-08 0)
(3 1.86633e-07 0)
(3 5.11247e-07 0)
(3 1.16952e-06 0)
(2.99999 3.01221e-06 0)
(2.99999 6.72098e-06 0)
(2.99997 1.70724e-05 0)
(2.99992 3.78313e-05 0)
(2.99982 9.59203e-05 0)
(2.99954 0.000211711 0)
(2.99898 0.000541629 0)
(2.99737 0.00117467 0)
(2.99428 0.00316557 0)
(2.98456 0.0064806 0)
(2.96642 0.0196249 0)
(2.90535 0.0411875 0)
(2.75121 0.131115 0)
(2.35667 0.340524 0)
(1.71541 0.791558 0)
(1.46299 0.91227 0)
(1.42679 0.93379 0)
(1.43891 0.934028 0)
(1.48147 0.913268 0)
(3 3.04133e-09 0)
(3 1.30156e-08 0)
(3 5.57432e-08 0)
(3 1.27322e-07 0)
(3 3.88097e-07 0)
(3 8.02254e-07 0)
(3 2.28213e-06 0)
(2.99999 4.6221e-06 0)
(2.99998 1.29386e-05 0)
(2.99995 2.6083e-05 0)
(2.99988 7.28026e-05 0)
(2.99969 0.000146283 0)
(2.99933 0.000410047 0)
(2.99828 0.000817411 0)
(2.99621 0.00234587 0)
(2.99021 0.0045243 0)
(2.97776 0.0142179 0)
(2.94143 0.0261216 0)
(2.85261 0.0907945 0)
(2.61426 0.206507 0)
(2.00189 0.605092 0)
(1.58587 0.880482 0)
(1.48038 0.931497 0)
(1.47028 0.943847 0)
(1.49544 0.933429 0)
(3 2.02798e-09 0)
(3 8.69997e-09 0)
(3 3.71685e-08 0)
(3 8.5173e-08 0)
(3 2.58857e-07 0)
(3 5.36583e-07 0)
(3 1.52125e-06 0)
(2.99999 3.08821e-06 0)
(2.99999 8.61507e-06 0)
(2.99997 1.74021e-05 0)
(2.99992 4.84154e-05 0)
(2.99982 9.75021e-05 0)
(2.99954 0.000272266 0)
(2.99898 0.000545708 0)
(2.99738 0.00154173 0)
(2.9944 0.00308569 0)
(2.98458 0.00887803 0)
(2.96676 0.0184287 0)
(2.90615 0.0538814 0)
(2.75701 0.129615 0)
(2.36185 0.371208 0)
(1.77271 0.804576 0)
(1.54221 0.925233 0)
(1.50503 0.947485 0)
(1.51311 0.948795 0)
(3 9.04013e-10 0)
(3 6.99418e-09 0)
(3 2.15615e-08 0)
(3 6.45838e-08 0)
(3 1.52999e-07 0)
(3 4.0111e-07 0)
(3 9.01648e-07 0)
(3 2.29478e-06 0)
(2.99999 5.09679e-06 0)
(2.99998 1.28829e-05 0)
(2.99995 2.85125e-05 0)
(2.99988 7.2006e-05 0)
(2.9997 0.000158955 0)
(2.99934 0.000403178 0)
(2.99833 0.000883296 0)
(2.99632 0.00230339 0)
(2.99054 0.00487217 0)
(2.97856 0.0137703 0)
(2.94399 0.0293703 0)
(2.85947 0.0870461 0)
(2.63218 0.221977 0)
(2.0601 0.603525 0)
(1.66007 0.889956 0)
(1.55579 0.944218 0)
(1.54274 0.956055 0)
(3 5.05008e-10 0)
(3 5.0677e-09 0)
(3 1.39039e-08 0)
(3 4.58197e-08 0)
(3 9.91672e-08 0)
(3 2.82425e-07 0)
(3 5.83627e-07 0)
(3 1.60833e-06 0)
(2.99999 3.28973e-06 0)
(2.99999 8.99468e-06 0)
(2.99997 1.83385e-05 0)
(2.99993 5.00989e-05 0)
(2.99981 0.0001018 0)
(2.99959 0.000279157 0)
(2.99896 0.000563949 0)
(2.99772 0.00156453 0)
(2.99408 0.00314646 0)
(2.98727 0.00890262 0)
(2.9654 0.0184391 0)
(2.91843 0.0537804 0)
(2.78253 0.124825 0)
(2.38421 0.379379 0)
(1.87548 0.776521 0)
(1.63079 0.920954 0)
(1.58338 0.950469 0)
(3 3.93316e-10 0)
(3 3.0322e-09 0)
(3 9.35454e-09 0)
(3 2.79387e-08 0)
(3 6.61863e-08 0)
(3 1.72935e-07 0)
(3 3.88595e-07 0)
(3 9.85327e-07 0)
(3 2.18761e-06 0)
(2.99999 5.5064e-06 0)
(2.99998 1.21858e-05 0)
(2.99995 3.06202e-05 0)
(2.99989 6.76236e-05 0)
(2.99973 0.000170093 0)
(2.9994 0.000374699 0)
(2.99847 0.000949275 0)
(2.99663 0.00207475 0)
(2.99136 0.0054261 0)
(2.98039 0.011646 0)
(2.94907 0.0320434 0)
(2.87404 0.0765658 0)
(2.66364 0.213175 0)
(2.15085 0.57473 0)
(1.75574 0.880966 0)
(1.63591 0.945656 0)
(3 3.56688e-10 0)
(3 1.57006e-09 0)
(3 6.57267e-09 0)
(3 1.5332e-08 0)
(3 4.57115e-08 0)
(3 9.62055e-08 0)
(3 2.67298e-07 0)
(3 5.50316e-07 0)
(3 1.50289e-06 0)
(2.99999 3.07945e-06 0)
(2.99999 8.37428e-06 0)
(2.99997 1.71325e-05 0)
(2.99993 4.66001e-05 0)
(2.99984 9.51678e-05 0)
(2.99961 0.000260041 0)
(2.99914 0.000528909 0)
(2.99781 0.00146192 0)
(2.99524 0.00297798 0)
(2.98747 0.00835385 0)
(2.97249 0.0175724 0)
(2.92578 0.0499245 0)
(2.81156 0.119534 0)
(2.50565 0.337472 0)
(1.96981 0.752903 0)
(1.70805 0.921525 0)
(3 1.54528e-10 0)
(3 1.19305e-09 0)
(3 3.68062e-09 0)
(3 1.10002e-08 0)
(3 2.60501e-08 0)
(3 6.80375e-08 0)
(3 1.52735e-07 0)
(3 3.86871e-07 0)
(3 8.57718e-07 0)
(3 2.15648e-06 0)
(2.99999 4.76552e-06 0)
(2.99998 1.19622e-05 0)
(2.99996 2.63951e-05 0)
(2.9999 6.62955e-05 0)
(2.99976 0.000146049 0)
(2.99947 0.000368148 0)
(2.99867 0.000808006 0)
(2.99711 0.00206679 0)
(2.99252 0.00448663 0)
(2.98364 0.0119981 0)
(2.9566 0.0260832 0)
(2.89386 0.0735153 0)
(2.72181 0.184234 0)
(2.26288 0.504692 0)
(1.8459 0.862446 0)
(3 8.34877e-11 0)
(3 8.01574e-10 0)
(3 2.2392e-09 0)
(3 7.2551e-09 0)
(3 1.59211e-08 0)
(3 4.45819e-08 0)
(3 9.32868e-08 0)
(3 2.5249e-07 0)
(3 5.22815e-07 0)
(3 1.40208e-06 0)
(3 2.89636e-06 0)
(2.99999 7.74385e-06 0)
(2.99997 1.59804e-05 0)
(2.99994 4.271e-05 0)
(2.99986 8.79716e-05 0)
(2.99969 0.000235823 0)
(2.99923 0.000484005 0)
(2.99831 0.00131228 0)
(2.99571 0.00265689 0)
(2.99054 0.0074882 0)
(2.97566 0.0148927 0)
(2.9429 0.0445516 0)
(2.85162 0.099092 0)
(2.58782 0.302036 0)
(2.11095 0.674237 0)
(3 5.03577e-11 0)
(3 4.8139e-10 0)
(3 1.34753e-09 0)
(3 4.35939e-09 0)
(3 9.57601e-09 0)
(3 2.67455e-08 0)
(3 5.59768e-08 0)
(3 1.51031e-07 0)
(3 3.12654e-07 0)
(3 8.35708e-07 0)
(3 1.72553e-06 0)
(2.99999 4.59732e-06 0)
(2.99999 9.4818e-06 0)
(2.99996 2.52337e-05 0)
(2.99992 5.19492e-05 0)
(2.9998 0.000138416 0)
(2.99957 0.000284068 0)
(2.99892 0.000761993 0)
(2.99765 0.00155172 0)
(2.99387 0.00424294 0)
(2.98695 0.00868312 0)
(2.96456 0.0244092 0)
(2.91676 0.0532831 0)
(2.77693 0.154064 0)
(2.39614 0.405062 0)
(3 5.11825e-11 0)
(3 2.33537e-10 0)
(3 9.55305e-10 0)
(3 2.2624e-09 0)
(3 6.61601e-09 0)
(3 1.40935e-08 0)
(3 3.84081e-08 0)
(3 7.99397e-08 0)
(3 2.14084e-07 0)
(3 4.43391e-07 0)
(3 1.1814e-06 0)
(3 2.44509e-06 0)
(2.99999 6.49984e-06 0)
(2.99998 1.34481e-05 0)
(2.99995 3.57132e-05 0)
(2.99988 7.3771e-05 0)
(2.99975 0.000196309 0)
(2.99937 0.00040376 0)
(2.99861 0.001089 0)
(2.99648 0.0022004 0)
(2.9924 0.00625297 0)
(2.97984 0.0121342 0)
(2.95525 0.0371595 0)
(2.87928 0.0789966 0)
(2.67033 0.246361 0)
(3 3.02899e-11 0)
(3 1.3884e-10 0)
(3 5.67156e-10 0)
(3 1.34352e-09 0)
(3 3.92428e-09 0)
(3 8.35731e-09 0)
(3 2.27385e-08 0)
(3 4.72935e-08 0)
(3 1.26416e-07 0)
(3 2.61537e-07 0)
(3 6.95597e-07 0)
(3 1.4377e-06 0)
(2.99999 3.81615e-06 0)
(2.99999 7.88622e-06 0)
(2.99997 2.09129e-05 0)
(2.99994 4.3189e-05 0)
(2.99984 0.000114604 0)
(2.99966 0.000236207 0)
(2.99915 0.000629945 0)
(2.99816 0.00128911 0)
(2.99524 0.00352407 0)
(2.99001 0.00700394 0)
(2.97256 0.0206126 0)
(2.93882 0.0411067 0)
(2.83382 0.127469 0)
(3 1.21487e-11 0)
(3 9.34601e-11 0)
(3 2.88593e-10 0)
(3 8.58325e-10 0)
(3 2.03036e-09 0)
(3 5.26278e-09 0)
(3 1.17797e-08 0)
(3 2.95535e-08 0)
(3 6.52627e-08 0)
(3 1.62333e-07 0)
(3 3.57224e-07 0)
(3 8.86166e-07 0)
(3 1.94798e-06 0)
(2.99999 4.82625e-06 0)
(2.99998 1.06008e-05 0)
(2.99996 2.62465e-05 0)
(2.99991 5.7561e-05 0)
(2.9998 0.000142611 0)
(2.99949 0.000311913 0)
(2.99889 0.000779591 0)
(2.99716 0.00167814 0)
(2.99404 0.00439126 0)
(2.9836 0.00905263 0)
(2.96525 0.0257454 0)
(2.90377 0.0560726 0)
(3 5.77986e-12 0)
(3 5.74954e-11 0)
(3 1.58163e-10 0)
(3 5.17115e-10 0)
(3 1.11661e-09 0)
(3 3.14231e-09 0)
(3 6.44743e-09 0)
(3 1.75221e-08 0)
(3 3.54505e-08 0)
(3 9.55733e-08 0)
(3 1.92313e-07 0)
(3 5.17869e-07 0)
(3 1.03848e-06 0)
(3 2.79833e-06 0)
(2.99999 5.59282e-06 0)
(2.99998 1.50928e-05 0)
(2.99994 3.00281e-05 0)
(2.99987 8.12934e-05 0)
(2.99968 0.000160555 0)
(2.9993 0.000439489 0)
(2.99824 0.000848594 0)
(2.99615 0.0024403 0)
(2.99017 0.00438999 0)
(2.97794 0.0143709 0)
(2.94287 0.0248376 0)
(3 2.7845e-12 0)
(3 3.08134e-11 0)
(3 8.08298e-11 0)
(3 2.75715e-10 0)
(3 5.70496e-10 0)
(3 1.66543e-09 0)
(3 3.26417e-09 0)
(3 9.20564e-09 0)
(3 1.76966e-08 0)
(3 4.96591e-08 0)
(3 9.43458e-08 0)
(3 2.65638e-07 0)
(3 4.9931e-07 0)
(3 1.41479e-06 0)
(2.99999 2.62847e-06 0)
(2.99998 7.5109e-06 0)
(2.99996 1.37578e-05 0)
(2.9999 3.97777e-05 0)
(2.99979 7.15147e-05 0)
(2.99947 0.000210664 0)
(2.99883 0.000368444 0)
(2.99699 0.00112417 0)
(2.99346 0.00187888 0)
(2.98242 0.00613986 0)
(2.96155 0.00986905 0)
(3 2.46531e-12 0)
(3 1.33741e-11 0)
(3 4.91675e-11 0)
(3 1.26102e-10 0)
(3 3.37266e-10 0)
(3 7.659e-10 0)
(3 1.90579e-09 0)
(3 4.19806e-09 0)
(3 1.02234e-08 0)
(3 2.23125e-08 0)
(3 5.38591e-08 0)
(3 1.1709e-07 0)
(3 2.81035e-07 0)
(3 6.09346e-07 0)
(2.99999 1.45501e-06 0)
(2.99999 3.14656e-06 0)
(2.99997 7.47308e-06 0)
(2.99992 1.6114e-05 0)
(2.99982 3.80421e-05 0)
(2.99955 8.17677e-05 0)
(2.999 0.000191799 0)
(2.99741 0.00041006 0)
(2.99434 0.000956764 0)
(2.98463 0.00204834 0)
(2.96611 0.00476672 0)
(3 1.89844e-12 0)
(3 5.07068e-12 0)
(3 3.01726e-11 0)
(3 5.17888e-11 0)
(3 2.0334e-10 0)
(3 3.14998e-10 0)
(3 1.15095e-09 0)
(3 1.69416e-09 0)
(3 6.23342e-09 0)
(3 8.77791e-09 0)
(3 3.33491e-08 0)
(3 4.48274e-08 0)
(3 1.778e-07 0)
(3 2.27008e-07 0)
(3 9.4738e-07 0)
(2.99999 1.14013e-06 0)
(2.99997 5.05553e-06 0)
(2.99993 5.6547e-06 0)
(2.99984 2.71089e-05 0)
(2.99959 2.73046e-05 0)
(2.9991 0.000147158 0)
(2.99763 0.000116084 0)
(2.99483 0.000853039 0)
(2.98556 0.000186286 0)
(2.96843 0.00546333 0)
(3 1.1778e-12 0)
(3 1.08121e-12 0)
(3 1.52948e-11 0)
(3 1.48205e-11 0)
(3 1.02035e-10 0)
(3 9.09146e-11 0)
(3 5.79677e-10 0)
(3 4.63692e-10 0)
(3 3.1665e-09 0)
(3 2.21697e-09 0)
(3 1.71729e-08 0)
(3 1.02746e-08 0)
(3 9.32775e-08 0)
(3 4.63978e-08 0)
(3 5.08614e-07 0)
(2.99999 2.01656e-07 0)
(2.99997 2.78972e-06 0)
(2.99994 8.05785e-07 0)
(2.99984 1.54763e-05 0)
(2.99965 2.51443e-06 0)
(2.99908 8.78833e-05 0)
(2.998 -5.32203e-06 0)
(2.9944 0.000554251 0)
(2.9884 -0.000359286 0)
(2.96472 0.00411276 0)
(3 2.7308e-13 0)
(3 1.87515e-12 0)
(3 5.79872e-12 0)
(3 1.70707e-11 0)
(3 4.01842e-11 0)
(3 1.03299e-10 0)
(3 2.29613e-10 0)
(3 5.699e-10 0)
(3 1.24795e-09 0)
(3 3.06502e-09 0)
(3 6.68482e-09 0)
(3 1.63471e-08 0)
(3 3.56135e-08 0)
(3 8.67823e-08 0)
(3 1.88995e-07 0)
(2.99999 4.58334e-07 0)
(2.99997 9.97737e-07 0)
(2.99994 2.4018e-06 0)
(2.99984 5.21697e-06 0)
(2.99965 1.24431e-05 0)
(2.99909 2.67724e-05 0)
(2.99802 6.44366e-05 0)
(2.99454 0.000131265 0)
(2.98851 0.000347551 0)
(2.96556 0.000656165 0)
(3 -4.03429e-13 0)
(3 3.20996e-12 0)
(3 4.36844e-13 0)
(3 2.54922e-11 0)
(3 6.2545e-12 0)
(3 1.54957e-10 0)
(3 3.75159e-11 0)
(3 8.97183e-10 0)
(3 1.95563e-10 0)
(3 5.1458e-09 0)
(3 9.77078e-10 0)
(3 2.94574e-08 0)
(3 4.78436e-09 0)
(3 1.68691e-07 0)
(3 2.2659e-08 0)
(2.99999 9.67622e-07 0)
(2.99997 9.2698e-08 0)
(2.99994 5.56482e-06 0)
(2.99985 7.04848e-08 0)
(2.99967 3.22893e-05 0)
(2.99912 -8.35642e-06 0)
(2.99809 0.000203881 0)
(2.99464 -0.000208695 0)
(2.98883 0.00141921 0)
(2.96594 -0.00272268 0)
(3 9.84602e-15 0)
(3 1.71112e-13 0)
(3 5.78971e-13 0)
(3 1.82708e-12 0)
(3 4.41167e-12 0)
(3 1.15851e-11 0)
(3 2.56409e-11 0)
(3 6.38904e-11 0)
(3 1.38541e-10 0)
(3 3.41444e-10 0)
(3 7.37403e-10 0)
(3 1.82037e-09 0)
(3 3.93672e-09 0)
(3 9.74801e-09 0)
(3 2.11259e-08 0)
(2.99999 5.24643e-08 0)
(2.99998 1.13818e-07 0)
(2.99994 2.84237e-07 0)
(2.99987 6.17266e-07 0)
(2.99965 1.57153e-06 0)
(2.99924 3.35365e-06 0)
(2.99785 9.41509e-06 0)
(2.99554 1.77843e-05 0)
(2.98643 6.59906e-05 0)
(2.97092 0.000113892 0)
(3 4.77367e-13 0)
(3 -2.52473e-12 0)
(3 1.58271e-12 0)
(3 -1.95201e-11 0)
(3 7.74274e-12 0)
(3 -1.19181e-10 0)
(3 4.16271e-11 0)
(3 -7.02052e-10 0)
(3 2.29133e-10 0)
(3 -4.10642e-09 0)
(3 1.2777e-09 0)
(3 -2.39307e-08 0)
(3 7.21804e-09 0)
(3 -1.39146e-07 0)
(3 4.15945e-08 0)
(2.99999 -8.08439e-07 0)
(2.99997 2.53211e-07 0)
(2.99994 -4.69794e-06 0)
(2.99985 1.80351e-06 0)
(2.99967 -2.74881e-05 0)
(2.99913 1.8671e-05 0)
(2.9981 -0.000175548 0)
(2.99468 0.000263216 0)
(2.98891 -0.00122628 0)
(2.96628 0.00304686 0)
(3 -5.16358e-14 0)
(3 -3.73017e-13 0)
(3 -1.18871e-12 0)
(3 -3.56487e-12 0)
(3 -8.39876e-12 0)
(3 -2.2357e-11 0)
(3 -5.01111e-11 0)
(3 -1.29875e-10 0)
(3 -2.88289e-10 0)
(3 -7.4525e-10 0)
(3 -1.64802e-09 0)
(3 -4.28131e-09 0)
(3 -9.47718e-09 0)
(3 -2.47551e-08 0)
(3 -5.52688e-08 0)
(2.99999 -1.43819e-07 0)
(2.99997 -3.26628e-07 0)
(2.99994 -8.29522e-07 0)
(2.99985 -1.92157e-06 0)
(2.99966 -4.58699e-06 0)
(2.99911 -1.09891e-05 0)
(2.99805 -2.04306e-05 0)
(2.99467 -6.49153e-05 0)
(2.98874 -2.95659e-05 0)
(2.96649 -0.000272013 0)
(1.20867 1.02443 0)
(1.38397 0.779891 0)
(0.842682 0.429949 0)
(0.0331338 0.355125 0)
(-0.243937 0.040903 0)
(-0.411792 0.00239207 0)
(-0.573267 -0.0189232 0)
(-0.652993 -0.0255037 0)
(-0.688544 -0.00815173 0)
(-0.723716 0.0131551 0)
(-0.777924 0.0231105 0)
(-0.837901 0.0226355 0)
(-0.891134 0.016573 0)
(-0.936444 0.00985518 0)
(-0.980063 0.00650004 0)
(-1.02591 0.00538279 0)
(-1.07283 0.0050336 0)
(-1.11772 0.00489425 0)
(-1.15768 0.00445489 0)
(-1.19247 0.00329601 0)
(-1.22602 0.00192914 0)
(-1.26192 0.0019337 0)
(-1.29072 0.00412523 0)
(-1.30569 0.00426365 0)
(-1.31283 0.003181 0)
(-1.30992 0.00177768 0)
(-1.28743 -0.000790325 0)
(-1.24065 -0.0049166 0)
(-1.17374 -0.0100686 0)
(-1.09326 -0.014881 0)
(-1.00598 -0.0186861 0)
(-0.916375 -0.0214176 0)
(-0.826927 -0.0231973 0)
(-0.738779 -0.0245551 0)
(-0.654302 -0.0251797 0)
(-0.57399 -0.0255083 0)
(-0.497626 -0.0257669 0)
(-0.42425 -0.0264052 0)
(-0.352909 -0.0283629 0)
(-0.284176 -0.0301685 0)
(-0.219069 -0.031198 0)
(-0.156568 -0.0323121 0)
(-0.0960234 -0.0333491 0)
(-0.0389239 -0.0346714 0)
(0.0212103 -0.0297783 0)
(0.0740773 -0.0276803 0)
(0.123854 -0.0261749 0)
(0.17079 -0.0249653 0)
(0.215448 -0.0239471 0)
(0.258042 -0.0229746 0)
(0.298925 -0.0219964 0)
(0.338131 -0.0210417 0)
(0.375372 -0.0199934 0)
(0.410415 -0.0189366 0)
(0.444208 -0.0180759 0)
(0.478052 -0.0175634 0)
(0.511504 -0.0170338 0)
(0.543707 -0.0163393 0)
(0.574715 -0.0155896 0)
(0.604696 -0.0148863 0)
(0.633817 -0.0142528 0)
(0.662192 -0.0136417 0)
(0.689898 -0.0130781 0)
(0.716961 -0.0125299 0)
(0.743456 -0.012021 0)
(0.769407 -0.0115345 0)
(0.794872 -0.0110776 0)
(0.81988 -0.010643 0)
(0.844464 -0.0102298 0)
(0.868651 -0.00983261 0)
(0.892468 -0.00945228 0)
(0.915928 -0.00908395 0)
(0.939056 -0.00872763 0)
(0.961863 -0.00838093 0)
(0.984366 -0.00804414 0)
(1.00658 -0.00771479 0)
(1.02851 -0.00739326 0)
(1.05018 -0.0070773 0)
(1.0716 -0.00676682 0)
(1.09276 -0.00645915 0)
(1.11369 -0.00615488 0)
(1.13438 -0.0058516 0)
(1.15482 -0.00555095 0)
(1.175 -0.0052508 0)
(1.19492 -0.00495352 0)
(1.21457 -0.00465711 0)
(1.23393 -0.00436283 0)
(1.25299 -0.00406804 0)
(1.27174 -0.00377153 0)
(1.29013 -0.00346958 0)
(1.30815 -0.00316048 0)
(1.32572 -0.00283708 0)
(1.34277 -0.00249725 0)
(1.35919 -0.00212852 0)
(1.3748 -0.00170492 0)
(1.38934 -0.00123187 0)
(1.40245 -0.000716472 0)