/*--------------------------------*- C++ -*----------------------------------*\
| =========                 |                                                 |
| \\      /  F ield         | OpenFOAM: The Open Source CFD Toolbox           |
|  \\    /   O peration     | Version:  2112                                  |
|   \\  /    A nd           | Website:  www.openfoam.com                      |
|    \\/     M anipulation  |                                                 |
\*---------------------------------------------------------------------------*/
FoamFile
{
    version     2.0;
    format      ascii;
    arch        "LSB;label=32;scalar=64";
    class       volScalarField;
    location    "5";
    object      T;
}
// * * * * * * * * * * * * * * * * * * * * * * * * * * * * * * * * * * * * * //

dimensions      [0 0 0 1 0 0 0];

internalField   nonuniform List<scalar> 
1000
(
0
0
0
0
0
0
0
0
0
0
0
0
0
0
0
0
0
0
4.94066e-324
-1.82804e-322
4.95054e-321
-1.2819e-319
3.26302e-318
-8.16042e-317
2.00552e-315
-4.84437e-314
1.15032e-312
-2.68562e-311
6.16568e-310
-1.39218e-308
3.09212e-307
-6.7565e-306
1.45263e-304
-3.07337e-303
6.3997e-302
-1.31173e-300
2.64679e-299
-5.25826e-298
1.02863e-296
-1.98163e-295
3.75992e-294
-7.02704e-293
1.29375e-291
-2.34667e-290
4.19395e-289
-7.3859e-288
1.28183e-286
-2.19253e-285
3.69644e-284
-6.143e-283
1.0064e-281
-1.6255e-280
2.58859e-279
-4.06472e-278
6.29389e-277
-9.61074e-276
1.44735e-274
-2.14978e-273
3.14955e-272
-4.55155e-271
6.4886e-270
-9.12531e-269
1.26611e-267
-1.73318e-266
2.34092e-265
-3.11973e-264
4.10257e-263
-5.3238e-262
6.81757e-261
-8.61585e-260
1.07459e-258
-1.32274e-257
1.60698e-256
-1.92691e-255
2.28056e-254
-2.66416e-253
3.07207e-252
-3.49671e-251
3.92876e-250
-4.35741e-249
4.77072e-248
-5.15618e-247
5.50131e-246
-5.79432e-245
6.02477e-244
-6.18419e-243
6.26659e-242
-6.26883e-241
6.19082e-240
-6.03552e-239
5.80878e-238
-5.51892e-237
5.1763e-236
-4.79264e-235
4.38041e-234
-3.95213e-233
3.51977e-232
-3.09426e-231
2.68502e-230
-2.2997e-229
1.9441e-228
-1.62207e-227
1.33572e-226
-1.0855e-225
8.70563e-225
-6.88974e-224
5.38042e-223
-4.14587e-222
3.15192e-221
-2.3641e-220
1.74929e-219
-1.27681e-218
9.19232e-218
-6.52717e-217
4.57072e-216
-3.15618e-215
2.14888e-214
-1.44241e-213
9.54413e-213
-6.22449e-212
4.00066e-211
-2.5337e-210
1.58092e-209
-9.7167e-209
5.88176e-208
-3.50582e-207
2.0572e-206
-1.18814e-205
6.75246e-205
-3.7752e-204
2.07576e-203
-1.12212e-202
5.96175e-202
-3.11185e-201
1.59512e-200
-8.0259e-200
3.96186e-199
-1.9176e-198
9.09467e-198
-4.22343e-197
1.91877e-196
-8.51985e-196
3.69312e-195
-1.56067e-194
6.41897e-194
-2.56433e-193
9.92477e-193
-3.70904e-192
1.33245e-191
-4.57252e-191
1.48482e-190
-4.49285e-190
1.23128e-189
-2.86567e-189
4.54439e-189
2.87633e-189
-6.71191e-188
3.81249e-187
-1.60219e-186
5.6106e-186
-1.6612e-185
3.95027e-185
-5.85218e-185
-6.97309e-185
1.00882e-183
-5.06775e-183
1.84957e-182
-5.27327e-182
1.07743e-181
-6.70021e-182
-7.08732e-181
4.52698e-180
-1.74495e-179
4.89739e-179
-8.95725e-179
-4.20492e-180
8.87384e-178
-4.55308e-177
1.48903e-176
-3.25154e-176
2.3366e-176
1.8866e-175
-1.1543e-174
3.92426e-174
-8.4685e-174
4.87186e-174
5.40814e-173
-3.01435e-172
9.3175e-172
-1.64282e-171
-7.25421e-172
1.79587e-170
-7.54024e-170
1.82461e-169
-1.56651e-169
-8.9455e-169
5.29751e-168
-1.54152e-167
2.12837e-167
4.02152e-167
-3.51872e-166
1.14508e-165
-1.83367e-165
-1.96724e-165
2.33426e-164
-7.89024e-164
1.26802e-163
1.38065e-163
-1.58207e-162
5.11362e-162
-7.21047e-162
-1.31254e-161
1.07983e-160
-3.06707e-160
3.03475e-160
1.27797e-159
-7.11567e-159
1.62058e-158
-3.90559e-159
-1.10903e-157
4.27231e-157
-6.69871e-157
-8.89712e-157
8.17181e-156
-2.15676e-155
1.27286e-155
1.17534e-154
-4.90395e-154
7.69714e-154
1.05597e-153
-9.09355e-153
2.18844e-152
-4.66142e-153
-1.42886e-151
4.85841e-151
-5.04118e-151
-1.88553e-150
9.37804e-150
-1.53696e-149
-1.91988e-149
1.64812e-148
-3.56682e-148
-8.82069e-149
2.71119e-147
-7.23947e-147
2.27434e-147
4.26557e-146
-1.35418e-145
9.09023e-146
6.55003e-145
-2.39875e-144
2.16313e-144
1.00209e-143
-4.08932e-143
4.23078e-143
1.55746e-142
-6.77405e-142
7.31827e-142
2.49331e-141
-1.09537e-140
1.14213e-140
4.12459e-140
-1.72917e-139
1.59542e-139
6.9906e-139
-2.65383e-138
1.90731e-138
1.19401e-137
-3.92616e-137
1.66036e-137
2.01655e-136
-5.52253e-136
6.41311e-138
3.30689e-135
-7.22455e-135
-4.17202e-135
5.17696e-134
-8.44824e-134
-1.28365e-133
7.60202e-133
-8.0523e-133
-2.78733e-132
1.02403e-131
-4.23821e-132
-5.04277e-131
1.22074e-130
5.23973e-131
-7.90957e-130
1.1914e-129
2.22637e-129
-1.07595e-128
7.18431e-129
4.67383e-128
-1.22911e-127
-4.05694e-128
7.43873e-127
-1.0602e-126
-2.23452e-126
9.49918e-126
-3.78383e-126
-4.47323e-125
9.30411e-125
8.82878e-125
-6.33507e-124
5.30175e-124
2.50591e-123
-6.62406e-123
-3.01126e-123
3.89109e-122
-4.20835e-122
-1.38806e-121
4.16615e-121
1.14046e-121
-2.28091e-120
2.60038e-120
7.93552e-120
-2.38571e-119
-7.73175e-120
1.29235e-118
-1.30564e-118
-4.70988e-118
1.24342e-117
7.49215e-118
-7.0094e-117
4.9285e-117
2.80557e-116
-5.72256e-116
-6.78343e-116
3.52943e-115
-7.91135e-116
-1.58997e-114
2.13972e-114
5.16431e-114
-1.56292e-113
-7.58409e-114
8.08606e-113
-4.81273e-113
-3.25497e-112
5.47498e-112
9.56319e-112
-3.43283e-111
-1.08462e-111
1.66098e-110
-1.04385e-110
-6.53783e-110
1.05315e-109
1.99871e-109
-6.42042e-109
-3.41887e-109
3.12493e-108
-1.05682e-108
-1.28651e-107
1.48007e-107
4.45495e-107
-9.82076e-107
-1.1915e-106
5.10529e-106
1.43845e-106
-2.28451e-105
9.67695e-106
9.04006e-105
-1.00946e-104
-3.15221e-104
6.24331e-104
9.29456e-104
-3.16749e-103
-1.97216e-103
1.42491e-102
2.57352e-105
-5.85213e-102
3.16041e-102
2.21839e-101
-2.42681e-101
-7.75839e-101
1.35795e-100
2.47048e-100
-6.57982e-100
-6.89209e-100
2.91634e-99
1.49156e-99
-1.21214e-98
-1.02899e-99
4.78855e-98
-1.38753e-98
-1.81258e-97
1.16965e-97
6.60764e-97
-6.64069e-97
-2.32731e-96
3.23383e-96
7.93512e-96
-1.44508e-95
-2.62132e-95
6.1017e-95
8.38894e-95
-2.47309e-94
-2.59801e-94
9.71594e-94
7.76872e-94
-3.72434e-93
-2.23488e-93
1.39961e-92
6.15186e-93
-5.17531e-92
-1.60813e-92
1.88825e-91
3.95397e-92
-6.81299e-91
-9.06796e-92
2.43504e-90
1.95936e-91
-8.63186e-90
-4.38111e-91
3.03723e-89
1.32248e-90
-1.06118e-88
-6.21196e-90
3.68143e-88
3.51621e-89
-1.26751e-87
-1.95586e-88
4.3272e-87
1.01667e-87
-1.46284e-86
-4.94227e-87
4.88813e-86
2.26882e-86
-1.61075e-85
-9.92468e-86
5.21865e-85
4.16516e-85
-1.65597e-84
-1.68509e-84
5.11994e-84
6.5927e-84
-1.53121e-83
-2.49905e-83
4.38097e-83
9.18577e-83
-1.17705e-82
-3.27367e-82
2.86332e-82
1.12997e-81
-5.74848e-82
-3.76942e-81
6.17967e-82
1.21093e-80
2.16096e-81
-3.7254e-80
-2.01313e-80
1.08781e-79
1.03772e-79
-2.96919e-79
-4.38855e-79
7.3583e-79
1.65495e-78
-1.54639e-78
-5.72685e-78
2.15088e-78
1.83549e-77
2.03319e-78
-5.43848e-77
-3.24431e-77
1.46998e-76
1.70888e-76
-3.50417e-76
-6.90432e-76
6.71205e-76
2.40139e-75
-6.5648e-76
-7.41592e-75
-2.29051e-75
2.03191e-74
1.85771e-74
-4.78884e-74
-8.26855e-74
8.73946e-74
2.92212e-73
-6.60626e-74
-8.77882e-73
-3.81854e-73
2.24448e-72
2.58048e-72
-4.60002e-72
-1.04259e-71
5.69578e-72
3.32281e-71
7.72185e-72
-8.70615e-71
-8.49362e-71
1.78678e-70
3.68171e-70
-2.14574e-70
-1.17607e-69
-3.20045e-70
2.96579e-69
3.21429e-69
-5.50031e-69
-1.31544e-68
4.15591e-69
3.89097e-68
2.11927e-68
-8.66001e-68
-1.30233e-67
1.19519e-67
4.50191e-67
7.60923e-68
-1.12521e-66
-1.20317e-66
1.8833e-66
4.87065e-66
-4.78308e-67
-1.31777e-65
-1.10322e-65
2.39136e-65
5.13053e-65
-1.28399e-65
-1.44869e-64
-1.0782e-64
2.66522e-64
5.3989e-64
-1.43384e-64
-1.52128e-63
-1.17585e-63
2.66177e-63
5.71624e-63
-7.99399e-64
-1.52439e-62
-1.40342e-62
2.33634e-62
6.00874e-62
6.31689e-63
-1.42866e-61
-1.71683e-61
1.65563e-61
6.082e-61
2.69433e-61
-1.19583e-60
-2.01434e-60
6.4011e-61
5.66346e-60
4.97073e-60
-8.02787e-60
-2.14712e-59
-5.78493e-60
4.51358e-59
6.77709e-59
-2.75413e-59
-1.96301e-58
-1.72277e-58
2.59844e-58
7.31447e-58
2.84706e-58
-1.38774e-57
-2.41409e-57
2.51726e-58
6.03431e-57
7.09421e-57
-5.13893e-57
-2.33223e-56
-1.81608e-56
3.10116e-56
8.31613e-56
3.71876e-56
-1.44616e-55
-2.79314e-55
-3.83453e-56
5.96079e-55
8.96244e-55
-1.56859e-55
-2.28215e-54
-2.77961e-54
1.40064e-54
8.3263e-54
8.42911e-54
-7.20079e-54
-2.94124e-53
-2.5324e-53
3.08181e-53
1.01703e-52
7.65712e-53
-1.19509e-52
-3.46936e-52
-2.3717e-52
4.33792e-52
1.17373e-51
7.64875e-52
-1.49463e-51
-3.94974e-51
-2.5926e-51
4.90889e-51
1.32288e-50
9.22106e-51
-1.5313e-50
-4.40228e-50
-3.40097e-50
4.47697e-50
1.44972e-49
1.27903e-49
-1.18876e-49
-4.69401e-49
-4.82284e-49
2.64073e-49
1.48059e-48
1.7972e-48
-3.45533e-49
-4.48922e-48
-6.53932e-48
-8.74855e-49
1.28161e-47
2.29816e-47
1.00855e-47
-3.31852e-47
-7.71066e-47
-5.69316e-47
7.1388e-47
2.43294e-46
2.57077e-46
-8.86723e-47
-7.0509e-46
-1.01461e-45
-2.24697e-46
1.79304e-45
3.58248e-45
2.37165e-45
-3.54471e-45
-1.1273e-44
-1.21972e-44
2.60936e-45
3.0648e-44
4.87847e-44
2.15103e-44
-6.54527e-44
-1.6306e-43
-1.54123e-43
6.8179e-44
4.50523e-43
6.74032e-43
2.7432e-43
-9.25204e-43
-2.27852e-42
-2.24027e-42
6.7386e-43
5.97826e-42
9.69749e-42
5.49316e-42
-1.01449e-41
-3.06165e-41
-3.63416e-41
-4.3212e-42
6.81625e-41
1.38723e-40
1.21649e-40
-5.8097e-41
-3.66514e-40
-5.8414e-40
-3.61073e-40
5.22641e-40
1.77084e-39
2.35958e-39
9.14015e-40
-3.13438e-39
-8.07226e-39
-9.38547e-39
-1.73837e-39
1.61093e-38
3.56773e-38
3.76599e-38
1.12407e-39
-7.60838e-38
-1.55478e-37
-1.55689e-37
7.88906e-39
3.39347e-37
6.74333e-37
6.72111e-37
-2.33108e-38
-1.4416e-36
-2.9182e-36
-3.03387e-36
-2.31418e-37
5.80286e-36
1.25487e-35
1.41598e-35
3.6435e-36
-2.16503e-35
-5.30402e-35
-6.70142e-35
-3.19629e-35
7.0763e-35
2.16294e-34
3.14334e-34
2.24299e-34
-1.68938e-34
-8.25276e-34
-1.42603e-33
-1.37151e-33
-2.25204e-35
2.77943e-33
6.08191e-33
7.50924e-33
3.84998e-33
-7.05357e-33
-2.33968e-32
-3.68862e-32
-3.3061e-32
2.96921e-33
7.46511e-32
1.59483e-31
2.00907e-31
1.19429e-31
-1.46763e-31
-5.74352e-31
-9.86693e-31
-1.03706e-30
-3.07259e-31
1.43955e-30
3.89113e-30
5.86741e-30
5.33809e-30
9.65476e-32
-1.07586e-29
-2.4823e-29
-3.48116e-29
-2.89716e-29
4.85014e-30
7.07737e-29
1.53751e-28
2.10895e-28
1.73766e-28
-2.9151e-29
-4.25319e-28
-9.34271e-28
-1.31382e-27
-1.16254e-27
-3.24943e-29
2.31413e-27
5.53155e-27
8.3296e-27
8.37245e-27
2.75822e-27
-1.06551e-26
-3.10861e-26
-5.2369e-26
-6.14423e-26
-3.96646e-26
3.10707e-26
1.56438e-25
3.13535e-25
4.36047e-25
4.10891e-25
9.96381e-26
-6.03508e-25
-1.67511e-24
-2.84536e-24
-3.50754e-24
-2.73231e-24
5.18442e-25
6.9018e-24
1.59301e-23
2.50865e-23
2.91878e-23
2.05846e-23
-9.08541e-24
-6.50019e-23
-1.43092e-22
-2.22846e-22
-2.61696e-22
-1.95397e-22
4.98555e-23
5.28236e-22
1.22601e-21
1.99963e-21
2.51771e-21
2.23929e-21
4.74863e-22
-3.41824e-21
-9.66776e-21
-1.75519e-20
-2.47874e-20
-2.70517e-20
-1.79931e-20
9.79481e-21
6.23322e-20
1.40008e-19
2.31667e-19
3.08012e-19
3.16573e-19
1.8197e-19
-1.8342e-19
-8.52754e-19
-1.83754e-18
-3.01974e-18
-4.07111e-18
-4.38066e-18
-3.02785e-18
1.14249e-18
9.27371e-18
2.20086e-17
3.87132e-17
5.64324e-17
6.872e-17
6.46636e-17
2.86706e-17
-5.81612e-17
-2.14035e-16
-4.4869e-16
-7.51018e-16
-1.07197e-15
-1.30422e-15
-1.26261e-15
-6.72843e-16
8.19387e-16
3.602e-15
7.99189e-15
1.40498e-14
2.12967e-14
2.83279e-14
3.23486e-14
2.87028e-14
1.05367e-14
-3.11653e-14
-1.06818e-13
-2.26266e-13
-3.95017e-13
-6.08032e-13
-8.40512e-13
-1.03539e-12
-1.08792e-12
-8.28794e-13
-9.24056e-15
1.70612e-12
4.72885e-12
9.50453e-12
1.64188e-11
2.56257e-11
3.67662e-11
4.85422e-11
5.81096e-11
6.02655e-11
4.64259e-11
3.43368e-12
-8.7687e-11
-2.52792e-10
-5.25071e-10
-9.44206e-10
-1.55316e-09
-2.39097e-09
-3.47926e-09
-4.79919e-09
-6.25432e-09
-7.61328e-09
-8.42431e-09
-7.89095e-09
-4.69542e-09
3.24741e-09
1.91273e-08
4.76931e-08
9.58582e-08
1.73494e-07
2.94462e-07
4.77932e-07
7.50066e-07
1.14612e-06
1.71307e-06
2.51285e-06
3.62631e-06
5.15797e-06
7.24184e-06
1.00482e-05
1.37918e-05
1.87413e-05
2.52304e-05
3.36704e-05
4.45652e-05
5.8528e-05
7.62997e-05
9.87703e-05
0.000127003
0.000162258
0.000206024
0.000260046
0.000326363
0.000407338
0.000505698
0.000624576
0.000767549
0.000938681
0.00114257
0.00138438
0.0016699
0.00200557
0.00239853
0.00285666
0.0033886
0.00400381
0.00471253
0.00552587
0.00645579
0.00751509
0.00871741
0.0100772
0.0116098
0.0133312
0.0152581
0.017408
0.0197988
0.0224489
0.0253772
0.0286028
0.0321449
0.0360229
0.0402559
0.0448628
0.049862
0.0552714
0.0611081
0.0673883
0.074127
0.081338
0.0890337
0.0972249
0.10592
0.115128
0.124851
0.135095
0.145859
0.157142
0.168939
0.181245
0.194051
0.207345
0.221114
0.235341
0.250008
0.265094
0.280576
0.29643
0.312627
0.329141
0.345939
0.362991
0.380264
0.397724
0.415335
0.433064
0.450873
0.468727
0.48659
0.504427
0.522202
0.539882
0.557431
0.574819
0.592013
0.608984
0.625702
0.642142
0.658278
0.674086
0.689545
0.704636
0.719341
0.733645
0.747533
0.760995
0.77402
0.786602
0.798734
0.810412
0.821635
0.832401
0.842712
0.852571
0.86198
0.870945
0.879473
0.88757
0.895244
0.902504
0.909359
0.915819
0.921894
0.927593
0.932928
0.937908
0.942543
0.946842
0.950814
0.954469
0.957813
0.960853
0.963596
0.966047
0.96821
0.970082
0.971687
0.972961
0.974062
0.974782
)
;

boundaryField
{
    sides
    {
        type            zeroGradient;
    }
    empty
    {
        type            empty;
    }
}


// ************************************************************************* //
