/*--------------------------------*- C++ -*----------------------------------*\
| =========                 |                                                 |
| \\      /  F ield         | OpenFOAM: The Open Source CFD Toolbox           |
|  \\    /   O peration     | Version:  2112                                  |
|   \\  /    A nd           | Website:  www.openfoam.com                      |
|    \\/     M anipulation  |                                                 |
\*---------------------------------------------------------------------------*/
FoamFile
{
    version     2.0;
    format      ascii;
    arch        "LSB;label=32;scalar=64";
    class       volScalarField;
    location    "15";
    object      p;
}
// * * * * * * * * * * * * * * * * * * * * * * * * * * * * * * * * * * * * * //

dimensions      [0 2 -2 0 0 0 0];

internalField   nonuniform List<scalar> 
400
(
1.3520927e-06
-0.00067094961
-0.001382752
-0.001939398
-0.0022160343
-0.0021519638
-0.0017228464
-0.00092104857
0.00024056393
0.0017123603
0.0033919439
0.0051165433
0.0066776152
0.0078532552
0.0084628645
0.0084287732
0.00781928
0.0068512192
0.0058685229
0.0053063371
0.00065889144
-3.9004289e-05
-0.00056761497
-0.00093799358
-0.0011076333
-0.0010361157
-0.0007014882
-9.0871025e-05
0.00079400123
0.0019211773
0.0032145536
0.0045595922
0.0057868075
0.0067212002
0.0072196764
0.0072202952
0.0067763605
0.0060597987
0.0053179836
0.0047460984
0.0014240169
0.00044167822
-0.00011502402
-0.00045110129
-0.00061204987
-0.00058139486
-0.00034251795
0.0001243739
0.00083352905
0.0017752523
0.0028997524
0.0041036374
0.0052337134
0.0061165491
0.0065997198
0.0066039655
0.0061626098
0.0054289782
0.0046016846
0.0037564371
0.0020138259
0.00068228392
1.7994645e-05
-0.00035701354
-0.00056899295
-0.00062317851
-0.00050583345
-0.000185568
0.00037423334
0.0011905696
0.0022363096
0.0034238577
0.0045977572
0.0055633529
0.0061301439
0.0061735188
0.0056911063
0.0048251474
0.003755955
0.0024827189
0.0021665185
0.00049655509
-0.00029509892
-0.0007468289
-0.0010554857
-0.0012414343
-0.0012877508
-0.0011451828
-0.00074798683
-4.5386557e-05
0.00096504125
0.0022183258
0.0035525998
0.0047403844
0.0055295266
0.0057177558
0.0052375913
0.004210512
0.0028157435
0.00099418723
0.0016533702
-0.0003137355
-0.0012372276
-0.001796882
-0.0022491136
-0.002622973
-0.0028921508
-0.0029831109
-0.0027932883
-0.0022275448
-0.0012405764
0.00014144462
0.0017548788
0.0033368735
0.0045510011
0.00507498
0.0047268989
0.0035761082
0.001800194
-0.0007144338
0.00028730393
-0.001917918
-0.0029704614
-0.0036678182
-0.0043153119
-0.004946442
-0.0055213819
-0.0059372583
-0.0060466258
-0.0056937962
-0.004761478
-0.0032445386
-0.0012529066
0.00091991482
0.002834941
0.0039979605
0.0040359804
0.002898832
0.00072714822
-0.0026676291
-0.0020745168
-0.0044480031
-0.0056226967
-0.0064870048
-0.0073858572
-0.0083564949
-0.0093451745
-0.010217562
-0.010774593
-0.010786893
-0.010044605
-0.0084430118
-0.0060227743
-0.0030665253
-0.00011115861
0.0021263645
0.0029766495
0.0021481504
-0.0003529962
-0.0048583048
-0.0055199402
-0.0079868498
-0.0092717415
-0.010326219
-0.011528351
-0.012923122
-0.014447425
-0.015938033
-0.01714153
-0.017743141
-0.017414148
-0.015895494
-0.013099887
-0.0092303774
-0.0048797955
-0.0010130235
0.0012846113
0.0012919969
-0.0013196148
-0.0071860225
-0.010069885
-0.012557394
-0.013928096
-0.015173896
-0.016705903
-0.018587107
-0.020755246
-0.023026349
-0.025096209
-0.026558602
-0.026940362
-0.025783804
-0.022817569
-0.01804832
-0.012027631
-0.0059314446
-0.0013529158
0.00031659941
-0.0019316575
-0.0093655369
-0.015674945
-0.01812215
-0.019526536
-0.020914184
-0.022742567
-0.025111399
-0.027974791
-0.031140432
-0.034262196
-0.03684515
-0.038261137
-0.037810872
-0.035033826
-0.029571633
-0.021795596
-0.012962065
-0.0051648038
-0.00069817974
-0.0017478068
-0.010775177
-0.02223064
-0.024600368
-0.02593237
-0.027320212
-0.029306873
-0.032058566
-0.035564446
-0.03963633
-0.043895644
-0.047767325
-0.050495153
-0.051201963
-0.048923372
-0.043112257
-0.033740691
-0.021901442
-0.010015497
-0.0013970887
6.6535262e-06
-0.010209145
-0.029625768
-0.031909276
-0.0329639
-0.034063778
-0.035921108
-0.038809887
-0.042770248
-0.047622512
-0.052958353
-0.058129364
-0.06224933
-0.064231302
-0.062842733
-0.057082347
-0.046449903
-0.031625427
-0.015017361
-0.00084675376
0.0046622787
-0.0055069165
-0.037848824
-0.040032684
-0.04042455
-0.04073617
-0.041996831
-0.044631936
-0.048733531
-0.054115889
-0.060325033
-0.066632725
-0.072027943
-0.0752369
-0.0747825
-0.069243571
-0.057605861
-0.039942015
-0.018230996
0.0028038719
0.014458167
0.006918997
-0.04721274
-0.049118303
-0.048125367
-0.046866992
-0.046888886
-0.048779526
-0.052645771
-0.058250125
-0.065047565
-0.072202166
-0.078566318
-0.082684925
-0.082856155
-0.077289309
-0.064507681
-0.04392174
-0.016736831
0.012512844
0.032947656
0.032416138
-0.058879639
-0.059624809
-0.055870379
-0.051928189
-0.049958686
-0.050613918
-0.053909293
-0.059472586
-0.066586389
-0.074258627
-0.081165201
-0.085656023
-0.085812447
-0.079507633
-0.064866137
-0.040682811
-0.0072366336
0.0321431
0.064985014
0.077751567
-0.07621164
-0.072601035
-0.06350572
-0.05542627
-0.050715481
-0.049769593
-0.052296763
-0.057645008
-0.064869494
-0.072751316
-0.079756454
-0.084016641
-0.083375973
-0.075338651
-0.057597615
-0.02837433
0.012931391
0.065394737
0.11554984
0.15150392
-0.10808085
-0.089547119
-0.071227349
-0.057228218
-0.049066861
-0.046322241
-0.048065271
-0.053186404
-0.060415116
-0.068274788
-0.075006911
-0.07850917
-0.07637566
-0.065801806
-0.043863155
-0.0078207471
0.044388451
0.11299219
0.18837483
0.27185481
-0.17683749
-0.10828318
-0.076199353
-0.054649802
-0.042990322
-0.038993074
-0.040561286
-0.045914365
-0.05342431
-0.061419289
-0.068008811
-0.070946255
-0.067539231
-0.054732688
-0.029146918
0.013560861
0.078141083
0.17005707
0.28948805
0.47421113
-0.3720756
-0.12470276
-0.054970652
-0.031962252
-0.022063051
-0.020297412
-0.024352239
-0.031946308
-0.041246093
-0.050623152
-0.058298839
-0.062171033
-0.059769417
-0.048048744
-0.022655596
0.021472663
0.092813883
0.21014626
0.40288156
0.77640261
)
;

boundaryField
{
    movingWall
    {
        type            zeroGradient;
    }
    fixedWalls
    {
        type            zeroGradient;
    }
    frontAndBack
    {
        type            empty;
    }
}


// ************************************************************************* //
