/*--------------------------------*- C++ -*----------------------------------*\
| =========                 |                                                 |
| \\      /  F ield         | OpenFOAM: The Open Source CFD Toolbox           |
|  \\    /   O peration     | Version:  2112                                  |
|   \\  /    A nd           | Website:  www.openfoam.com                      |
|    \\/     M anipulation  |                                                 |
\*---------------------------------------------------------------------------*/
FoamFile
{
    version     2.0;
    format      ascii;
    arch        "LSB;label=32;scalar=64";
    class       surfaceScalarField;
    location    "15";
    object      phi;
}
// * * * * * * * * * * * * * * * * * * * * * * * * * * * * * * * * * * * * * //

dimensions      [0 3 -1 0 0 0 0];

oriented        oriented;

internalField   nonuniform List<scalar> 
760
(
1.2676762e-05
-1.2692044e-05
-2.873312e-05
4.1409906e-05
-0.00012225427
9.3521247e-05
-0.00025028878
0.00012803466
-0.00039588588
0.00014559712
-0.00054511696
0.00014923116
-0.00068591731
0.00014080048
-0.00080647145
0.00012055422
-0.00089448827
8.8016797e-05
-0.00093791394
4.3425569e-05
-0.00092682175
-1.1092261e-05
-0.00085646905
-7.0352678e-05
-0.0007301257
-0.00012634332
-0.0005611437
-0.00016898198
-0.00037266608
-0.0001884776
-0.00019446294
-0.00017820313
-5.6559162e-05
-0.00013790381
1.956752e-05
-7.6126757e-05
3.0385494e-05
-1.081811e-05
3.0385424e-05
-4.3169997e-05
3.047798e-05
-0.00020446616
0.00020270614
-0.00046806888
0.00035712404
-0.00080025142
0.00046021734
-0.0011666726
0.00051201849
-0.0015355519
0.00051811053
-0.0018771338
0.00048238248
-0.0021624368
0.00040585718
-0.0023632114
0.0002887913
-0.0024540092
0.00013422328
-0.0024168773
-4.8224056e-05
-0.0022442474
-0.00024298253
-0.0019466619
-0.00042392883
-0.0015538243
-0.0005618196
-0.0011139243
-0.00062837768
-0.00068728781
-0.00060483964
-0.00033448277
-0.00049070874
-0.00010091962
-0.00030968976
-1.5740089e-06
-0.00011016329
2.8810925e-05
-0.00010996161
0.00014043956
-0.0004027796
0.00049552427
-0.00083086217
0.00078520673
-0.0013447662
0.00097412143
-0.0018974062
0.0010646585
-0.0024450631
0.0010657674
-0.0029462358
0.00098355519
-0.0033606174
0.00082023874
-0.0036497818
0.00057795558
-0.0037802128
0.00026465428
-0.0037278381
-0.00010059863
-0.0034840506
-0.00048676997
-0.0030618183
-0.00084616114
-0.0024988902
-0.0011247476
-0.0018574888
-0.001269779
-0.0012177164
-0.0012446121
-0.00066354921
-0.0010448761
-0.00026304471
-0.00071019439
-4.7962584e-05
-0.00032524548
-1.9151634e-05
-0.00017331982
0.00031375939
-0.00059288747
0.00091509202
-0.001176904
0.0013692234
-0.0018571443
0.0016543617
-0.0025752446
0.0017827588
-0.0032792398
0.0017697626
-0.0039203899
0.0016247053
-0.004451495
0.0013513438
-0.0048275008
0.00095396145
-0.0050084893
0.00044564279
-0.0049646557
-0.00014443228
-0.0046820999
-0.00076932572
-0.0041703784
-0.0013578826
-0.0034675798
-0.0018275461
-0.0026429046
-0.002094454
-0.0017925079
-0.0020950086
-0.0010254933
-0.0018118908
-0.00044008456
-0.0012956031
-9.6704852e-05
-0.00066862516
-0.00011585644
-0.00022963015
0.00054338959
-0.0007645424
0.0014500043
-0.0014904772
0.0020951582
-0.0023210223
0.0024849068
-0.0031881092
0.0026498455
-0.0040343372
0.0026159906
-0.0048071842
0.0023975522
-0.0054558583
0.0020000179
-0.0059309526
0.0014290558
-0.0061866003
0.00070129048
-0.0061853366
-0.00014569598
-0.0059027861
-0.0010518762
-0.0053380068
-0.0019226619
-0.0045211668
-0.002644386
-0.0035215262
-0.0030940945
-0.0024488434
-0.0031676913
-0.0014420032
-0.0028187311
-0.00064100873
-0.0020965976
-0.0001487909
-0.0011608429
-0.00026464734
-0.00027710291
0.00082049252
-0.00091093392
0.0020838352
-0.0017595881
0.0029438125
-0.002721105
0.0034464237
-0.0037199698
0.0036487104
-0.0046959812
0.0035920019
-0.0055958027
0.0032973737
-0.0063678464
0.0027720616
-0.0069602584
0.0020214678
-0.0073213729
0.0010624051
-0.0074041384
-6.2930524e-05
-0.0071686262
-0.0012873885
-0.0065961804
-0.0024951076
-0.0056994226
-0.0035411438
-0.0045382755
-0.0042552416
-0.0032306333
-0.0044753336
-0.0019483089
-0.0041010554
-0.00088697102
-0.0031579354
-0.00021152029
-0.0018362936
-0.00047616769
-0.00031391223
0.0011344047
-0.0010257045
0.0027956275
-0.0019723355
0.0038904435
-0.0030400196
0.0045141077
-0.004148453
0.0047571438
-0.0052372243
0.0046807733
-0.0062549981
0.0043151475
-0.00715221
0.0036692735
-0.0078769314
0.0027461893
-0.0083734055
0.0015588792
-0.0085820519
0.00014571583
-0.0084481942
-0.0014212462
-0.007926681
-0.0030166209
-0.0070025442
-0.0044652806
-0.0057131042
-0.0055446816
-0.0041721761
-0.0060162617
-0.0025809758
-0.0056922557
-0.0012036964
-0.0045352147
-0.00029440108
-0.0027455889
-0.00077056879
-0.00033806045
0.0014724652
-0.0011025835
0.0035601506
-0.0021165534
0.0049044135
-0.0032582959
0.0056558502
-0.0044453377
0.0059441856
-0.0056194914
0.005854927
-0.0067341729
0.0054298289
-0.0077449891
0.0046800898
-0.0086032962
0.0036044964
-0.0092521636
0.0022077466
-0.0096239988
0.00051755111
-0.0096463345
-0.0013989106
-0.009246327
-0.0034166283
-0.0083715868
-0.0053400207
-0.0070201013
-0.0068961671
-0.0052803124
-0.0077560505
-0.003366686
-0.0076058819
-0.0016168749
-0.0062850258
-0.00040813668
-0.0039543272
-0.0011787054
-0.00034800868
0.001820474
-0.0011367496
0.0043488916
-0.0021819235
0.0059495874
-0.0033573417
0.0068312684
-0.0045805881
0.007167432
-0.0057978612
0.0070722
-0.0069700129
0.0066019805
-0.0080613523
0.0057714292
-0.0090310692
0.0045742134
-0.009826625
0.0030033025
-0.010378953
0.0010698788
-0.010602281
-0.0011755826
-0.01039864
-0.0036202685
-0.0096729119
-0.0060657492
-0.0083669176
-0.0082021613
-0.006514254
-0.0096087139
-0.0043088789
-0.0098112569
-0.0021477838
-0.008446121
-0.00056476665
-0.0055373444
-0.0017434719
-0.0003438494
0.0021643235
-0.0011275769
0.0051326193
-0.0021641691
0.0069861796
-0.0033250925
0.0079921917
-0.0045297553
0.0083720948
-0.0057307186
0.0082731632
-0.0068988876
0.0077701495
-0.0080110062
0.0068835478
-0.0090394601
0.0056026675
-0.0099436384
0.003907481
-0.010662107
0.0017883475
-0.011105472
-0.00073221727
-0.011162147
-0.0035635931
-0.010695849
-0.0065320472
-0.0095813461
-0.0093166645
-0.0077656358
-0.011424424
-0.0053706032
-0.012206289
-0.0028066414
-0.011010083
-0.00077819259
-0.0075657931
-0.0025216642
-0.00032889994
0.0024932235
-0.0010823672
0.0058860866
-0.0020706416
0.0079744538
-0.0031633858
0.0090849359
-0.0042836033
0.0094923123
-0.005392525
0.0093820851
-0.0064738318
0.0088514564
-0.0075203017
0.0079300178
-0.0085227571
0.0066051232
-0.0094602662
0.0048449903
-0.010291313
0.0026193947
-0.010933159
-9.0371027e-05
-0.01128307
-0.0032136823
-0.011173341
-0.0066417767
-0.010415241
-0.010074764
-0.0088461251
-0.01299354
-0.0064551331
-0.014597281
-0.0035810737
-0.013884143
-0.0010640465
-0.01008282
-0.0035857105
-0.00031186085
0.0028050843
-0.0010208769
0.0065951027
-0.0019264133
0.0088799902
-0.0028953664
0.010053889
-0.0038574069
0.010454353
-0.0047862105
0.010310889
-0.0056815558
0.0097468018
-0.0065553983
0.0088038605
-0.0074209776
0.0074707026
-0.0082830253
0.0057070383
-0.009126394
0.0034627636
-0.0099098837
0.00069311862
-0.010528339
-0.0025952269
-0.010827836
-0.0063422796
-0.010574104
-0.010328495
-0.0094933171
-0.014074327
-0.0073909632
-0.016699635
-0.0044186472
-0.016856459
-0.0014370641
-0.013064403
-0.0050227746
-0.00031020263
0.003115287
-0.00098081294
0.0072657132
-0.0017798108
0.009678988
-0.0025704285
0.010844507
-0.0032959384
0.011179863
-0.0039495007
0.010964451
-0.0045518152
0.010349116
-0.0051368432
0.0093888886
-0.0057421489
0.0080760085
-0.0064008661
0.0063657556
-0.007132506
0.0041944036
-0.0079325824
0.0014931952
-0.0087409522
-0.001786857
-0.0094321981
-0.0056510336
-0.0097699866
-0.0099907067
-0.0094012295
-0.014443084
-0.0079309547
-0.01816991
-0.0052061759
-0.019581237
-0.0019025314
-0.016368047
-0.0069253062
-0.00035627262
0.0034715597
-0.0010246667
0.0079341073
-0.0017053939
0.010359715
-0.0022624413
0.011401554
-0.0026677972
0.011585219
-0.002946457
0.011243111
-0.0031469986
0.010549658
-0.003327844
0.0095697342
-0.0035503177
0.0082984823
-0.0038742369
0.0066896749
-0.0043523443
0.0046725112
-0.0050214479
0.0021622989
-0.0058794764
-0.00092882845
-0.0068603834
-0.0046701265
-0.0077783933
-0.0090726965
-0.0082673755
-0.013954101
-0.0077696506
-0.018667635
-0.0057514453
-0.021599443
-0.0024366954
-0.019682797
-0.0093620017
-0.00050854441
0.0039801042
-0.0012464603
0.0086720233
-0.0017973459
0.010910601
-0.0020500816
0.01165429
-0.0020351388
0.011570276
-0.0018285062
0.011036479
-0.001515598
0.01023675
-0.0011814697
0.0092356061
-0.00090840709
0.0080254198
-0.00077739297
0.0065586609
-0.00086705678
0.0047621751
-0.0012507486
0.0025459907
-0.0019859807
-0.00019359633
-0.0030847032
-0.0035714038
-0.004462462
-0.0076949378
-0.0058293982
-0.012587165
-0.0065674522
-0.017929581
-0.005769087
-0.022397808
-0.002951373
-0.022500511
-0.012313375
-0.00086884634
0.0048489507
-0.0017638596
0.0095670366
-0.002122931
0.011269672
-0.001939118
0.011470477
-0.0013538118
0.01098497
-0.00051956567
0.010202233
0.00043333099
0.0092838534
0.001395732
0.0082732051
0.0022684702
0.0071526816
0.0029571085
0.0058700225
0.00336554
0.0043537436
0.0033934506
0.0025180801
0.0029355008
0.00026435357
0.0019068944
-0.0025427973
0.00026733473
-0.0060553781
-0.0018560895
-0.010463741
-0.00395301
-0.01583266
-0.0048616323
-0.021489186
-0.0032549499
-0.024107193
-0.015568324
-0.0015913112
0.006440262
-0.0026115941
0.01058732
-0.0025145311
0.011172609
-0.0015919813
0.010547927
-0.00017486075
0.0095678497
0.0014896094
0.0085377627
0.0032293679
0.007544095
0.004919536
0.006583037
0.0064592864
0.0056129312
0.0077539234
0.0045753856
0.0087041707
0.0034034964
0.009198473
0.002023778
0.0091006723
0.00036215449
0.0082727747
-0.0017148997
0.0065634937
-0.0043460969
0.0039026313
-0.0078028784
0.00055777636
-0.012487805
-0.0024688129
-0.018462596
-0.0030276022
-0.023548404
-0.018595927
-0.0027184467
0.0091587085
-0.0031502489
0.011019122
-0.001803863
0.0098262226
0.00046527327
0.0082787907
0.0030874345
0.0069456883
0.0057713382
0.005853859
0.0083600637
0.0049553695
0.01075735
0.0041857503
0.012890394
0.0034798879
0.01468766
0.00277812
0.016065567
0.0020255896
0.016920814
0.0011685316
0.017117604
0.00016536462
0.016489085
-0.0010863808
0.014815435
-0.0026724474
0.011845546
-0.0048329895
0.0074346353
-0.008076895
0.0022623653
-0.013290326
-0.0012727256
-0.020013313
-0.019868652
-0.0024132063
0.011571914
2.8077963e-05
0.0085778381
0.0042549384
0.0055993622
0.0084155521
0.004118177
0.012230475
0.0031307655
0.015654825
0.0024295088
0.018684753
0.0019254416
0.021327158
0.0015433459
0.023581359
0.0012256869
0.025427137
0.00093234218
0.026818252
0.00063447441
0.02767554
0.00031124363
0.027898837
-5.7932519e-05
0.027346196
-0.0005337396
0.025770896
-0.0010971472
0.022842533
-0.0019046268
0.018054408
-0.0032887703
0.011113347
-0.0063492657
0.0033885743
-0.01228854
-0.016480078
0.011571914
0.020149752
0.025749114
0.029867291
0.032998057
0.035427566
0.037353007
0.038896353
0.04012204
0.041054382
0.041688857
0.0420001
0.041942168
0.041408428
0.040311281
0.038406654
0.035117884
0.028768618
0.016480078
)
;

boundaryField
{
    movingWall
    {
        type            calculated;
        value           uniform 0;
    }
    fixedWalls
    {
        type            calculated;
        value           uniform 0;
    }
    frontAndBack
    {
        type            empty;
        value           nonuniform List<scalar> 0();
    }
}


// ************************************************************************* //
