/*--------------------------------*- C++ -*----------------------------------*\
| =========                 |                                                 |
| \\      /  F ield         | OpenFOAM: The Open Source CFD Toolbox           |
|  \\    /   O peration     | Version:  2112                                  |
|   \\  /    A nd           | Website:  www.openfoam.com                      |
|    \\/     M anipulation  |                                                 |
\*---------------------------------------------------------------------------*/
FoamFile
{
    version     2.0;
    format      ascii;
    arch        "LSB;label=32;scalar=64";
    class       surfaceScalarField;
    location    "15";
    object      phi_0;
}
// * * * * * * * * * * * * * * * * * * * * * * * * * * * * * * * * * * * * * //

dimensions      [0 3 -1 0 0 0 0];

oriented        oriented;

internalField   nonuniform List<scalar> 
760
(
1.2676527e-05
-1.2692166e-05
-2.8733126e-05
4.1409706e-05
-0.00012225397
9.352087e-05
-0.00025028821
0.00012803418
-0.00039588486
0.00014559662
-0.00054511557
0.00014923062
-0.0006859156
0.00014079992
-0.00080646942
0.00012055373
-0.00089448591
8.8016501e-05
-0.00093791137
4.3425543e-05
-0.00092681922
-1.1092035e-05
-0.00085646687
-7.0352257e-05
-0.00073012404
-0.00012634275
-0.00056114262
-0.00016898134
-0.00037266557
-0.00018847697
-0.00019446291
-0.00017820261
-5.6559451e-05
-0.00013790342
1.9567132e-05
-7.6126491e-05
3.0385224e-05
-1.0817909e-05
3.0385366e-05
-4.3169942e-05
3.0477802e-05
-0.00020446558
0.0002027055
-0.00046806738
0.00035712283
-0.00080024891
0.0004602157
-0.001166669
0.00051201663
-0.0015355471
0.00051810866
-0.001877128
0.00048238083
-0.0021624302
0.00040585597
-0.0023632042
0.00028879067
-0.0024540018
0.0001342233
-0.0024168704
-4.8223378e-05
-0.0022442414
-0.00024298123
-0.001946657
-0.00042392702
-0.0015538208
-0.00056181748
-0.0011139221
-0.00062837556
-0.00068728677
-0.00060483792
-0.00033448254
-0.00049070769
-0.00010091979
-0.00030968935
-1.5745634e-06
-0.00011016334
2.8811039e-05
-0.00010996118
0.00014043905
-0.0004027782
0.00049552256
-0.00083085924
0.00078520399
-0.0013447615
0.000974118
-0.0018973997
0.0010646548
-0.0024450549
0.0010657638
-0.0029462261
0.00098355213
-0.0033606066
0.00082023651
-0.0036497703
0.00057795444
-0.0037802013
0.00026465437
-0.0037278273
-0.00010059729
-0.003484041
-0.00048676747
-0.0030618103
-0.00084615768
-0.0024988842
-0.0011247435
-0.0018574848
-0.0012697749
-0.0012177142
-0.0012446085
-0.00066354821
-0.0010448735
-0.00026304444
-0.00071019302
-4.7962655e-05
-0.00032524509
-1.9151642e-05
-0.0001733191
0.00031375832
-0.00059288524
0.0009150888
-0.0011768997
0.0013692186
-0.0018571376
0.001654356
-0.0025752355
0.0017827528
-0.0032792285
0.0017697569
-0.0039203768
0.0016247005
-0.0044514806
0.0013513403
-0.0048274858
0.00095395967
-0.0050084744
0.00044564293
-0.0049646415
-0.00014443015
-0.0046820872
-0.00076932179
-0.0041703676
-0.0013578772
-0.0034675713
-0.0018275398
-0.0026428986
-0.0020944477
-0.0017925043
-0.0020950029
-0.0010254913
-0.0018118865
-0.00044008378
-0.0012956005
-9.670473e-05
-0.00066862419
-0.00011585646
-0.00022962921
0.00054338771
-0.00076453947
0.0014499992
-0.0014904717
0.0020951509
-0.002321014
0.0024848984
-0.003188098
0.0026498369
-0.0040343236
0.0026159825
-0.0048071685
0.0023975454
-0.0054558412
0.002000013
-0.0059309349
0.0014290533
-0.0061865828
0.00070129071
-0.0061853199
-0.00014569301
-0.0059027709
-0.0010518708
-0.0053379937
-0.0019226544
-0.0045211562
-0.0026443773
-0.0035215184
-0.0030940855
-0.0024488382
-0.0031676831
-0.0014420002
-0.0028187244
-0.00064100746
-0.0020965933
-0.00014879068
-0.0011608411
-0.00026464722
-0.0002771018
0.00082048969
-0.00091093053
0.002083828
-0.0017595819
0.0029438024
-0.0027210956
0.0034464122
-0.0037199575
0.0036486988
-0.0046959662
0.0035919913
-0.0055957857
0.0032973649
-0.0063678281
0.0027720554
-0.0069602394
0.0020214646
-0.0073213541
0.0010624053
-0.0074041204
-6.292674e-05
-0.0071686095
-0.0012873816
-0.0065961657
-0.0024950981
-0.0056994103
-0.0035411326
-0.004538266
-0.0042552297
-0.0032306266
-0.0044753224
-0.001948305
-0.0041010461
-0.00088696931
-0.003157929
-0.00021151995
-0.0018362905
-0.00047616719
-0.00031391104
0.0011344009
-0.0010257011
0.0027956179
-0.0019723292
0.0038904305
-0.0030400101
0.0045140931
-0.0041484406
0.0047571293
-0.0052372094
0.0046807601
-0.0062549812
0.0043151367
-0.0071521918
0.0036692659
-0.0078769128
0.0027461855
-0.0083733869
0.0015588795
-0.0085820338
0.00014572023
-0.0084481773
-0.0014212381
-0.0079266657
-0.0030166097
-0.007002531
-0.0044652671
-0.0057130936
-0.005544667
-0.0041721684
-0.0060162475
-0.002580971
-0.0056922435
-0.0012036942
-0.0045352059
-0.00029440056
-0.0027455842
-0.0007705677
-0.00033805936
0.0014724603
-0.0011025804
0.0035601387
-0.0021165477
0.0049043977
-0.0032582873
0.0056558327
-0.0044453264
0.0059441685
-0.0056194778
0.0058549116
-0.0067341576
0.0054298165
-0.0077449728
0.0046800811
-0.0086032795
0.0036044922
-0.0092521469
0.0022077469
-0.0096239826
0.00051755596
-0.009646319
-0.0013989017
-0.0092463126
-0.0034166159
-0.008371574
-0.0053400056
-0.0070200905
-0.0068961504
-0.0052803042
-0.0077560337
-0.0033666808
-0.0076058669
-0.0016168723
-0.0062850144
-0.0004081359
-0.0039543205
-0.0011787035
-0.00034800788
0.0018204681
-0.0011367473
0.0043488779
-0.0021819189
0.0059495693
-0.0033573348
0.0068312487
-0.0045805791
0.0071674128
-0.0057978504
0.007072183
-0.0069700008
0.0066019669
-0.0080613395
0.0057714199
-0.0090310562
0.0045742089
-0.0098266122
0.0030033028
-0.01037894
0.0010698839
-0.010602269
-0.0011755733
-0.010398629
-0.0036202555
-0.009672901
-0.0060657332
-0.008366908
-0.0082021433
-0.0065142463
-0.0096086954
-0.0043088736
-0.0098112396
-0.0021477809
-0.0084461071
-0.00056476564
-0.0055373356
-0.0017434692
-0.00034384904
0.002164317
-0.0011275757
0.0051326044
-0.0021641664
0.00698616
-0.0033250881
0.0079921706
-0.0045297495
0.0083720744
-0.0057307116
0.0082731454
-0.00689888
0.0077701354
-0.0080109984
0.0068835383
-0.0090394526
0.005602663
-0.0099436313
0.0039074814
-0.0106621
0.0017883527
-0.011105465
-0.00073220791
-0.011162141
-0.0035635801
-0.010695842
-0.0065320312
-0.0095813393
-0.0093166464
-0.0077656298
-0.011424405
-0.0053705985
-0.012206271
-0.0028066384
-0.011010067
-0.0007781915
-0.0075657824
-0.0025216607
-0.00032890004
0.0024932169
-0.0010823672
0.0058860715
-0.002070641
0.0079744339
-0.0031633844
0.0090849143
-0.0042836014
0.0094922915
-0.0053925229
0.0093820671
-0.0064738298
0.0088514423
-0.0075203001
0.0079300085
-0.0085227561
0.0066051189
-0.0094602659
0.0048449911
-0.010291313
0.0026194001
-0.010933159
-9.0362051e-05
-0.011283069
-0.0032136697
-0.011173339
-0.0066417616
-0.010415238
-0.010074747
-0.0088461221
-0.012993521
-0.0064551299
-0.014597263
-0.0035810711
-0.013884126
-0.0010640456
-0.010082808
-0.0035857063
-0.00031186139
0.0028050782
-0.0010208781
0.0065950883
-0.0019264151
0.008879971
-0.0028953685
0.010053868
-0.0038574094
0.010454333
-0.0047862136
0.010310871
-0.0056815598
0.0097467885
-0.0065554032
0.0088038519
-0.0074209834
0.007470699
-0.0082830319
0.0057070395
-0.0091264009
0.0034627691
-0.0099098904
0.00069312764
-0.010528345
-0.0025952152
-0.01082784
-0.006342266
-0.010574107
-0.01032848
-0.009493318
-0.01407431
-0.0073909624
-0.016699619
-0.0044186457
-0.016856442
-0.0014370635
-0.01306439
-0.0050227697
-0.00031020359
0.0031152818
-0.00098081547
0.0072657004
-0.0017798149
0.0096789705
-0.002570434
0.010844487
-0.0032959453
0.011179844
-0.0039495091
0.010964435
-0.004551825
0.010349104
-0.0051368542
0.0093888811
-0.005742161
0.0080760058
-0.0064008789
0.0063657574
-0.0071325189
0.0041944093
-0.007932595
0.0014932038
-0.0087409638
-0.0017868464
-0.0094322081
-0.0056510218
-0.0097699945
-0.0099906942
-0.0094012347
-0.01444307
-0.007930957
-0.018169896
-0.0052061762
-0.019581223
-0.0019025312
-0.016368035
-0.0069253007
-0.00035627401
0.0034715558
-0.0010246703
0.0079340969
-0.0017054001
0.0103597
-0.00226245
0.011401537
-0.0026678082
0.011585203
-0.0029464701
0.011243097
-0.0031470133
0.010549648
-0.0033278601
0.0095697279
-0.0035503347
0.0082984804
-0.0038742542
0.006689677
-0.0043523615
0.0046725167
-0.0050214645
0.0021623069
-0.0058794919
-0.00092881911
-0.0068603973
-0.0046701165
-0.0077784051
-0.0090726865
-0.0082673842
-0.013954091
-0.0077696558
-0.018667624
-0.0057514474
-0.021599431
-0.0024366956
-0.019682787
-0.0093619961
-0.00050854612
0.0039801018
-0.0012464648
0.0086720158
-0.0017973536
0.010910589
-0.0020500927
0.011654276
-0.0020351529
0.011570263
-0.0018285228
0.011036467
-0.0015156164
0.010236741
-0.0011814894
0.0092356008
-0.00090842715
0.0080254183
-0.00077741286
0.0065586629
-0.00086707604
0.0047621801
-0.0012507669
0.0025459977
-0.0019859977
-0.00019358829
-0.0030847188
-0.0035713956
-0.0044624754
-0.00769493
-0.0058294089
-0.012587158
-0.0065674595
-0.017929574
-0.0057690907
-0.0223978
-0.0029513738
-0.022500503
-0.01231337
-0.00086884807
0.0048489498
-0.0017638644
0.0095670322
-0.0021229392
0.011269664
-0.0019391301
0.011470467
-0.0013538274
0.01098496
-0.00051958395
0.010202224
0.0004333108
0.0092838464
0.0013957109
0.0082732009
0.0022684489
0.0071526804
0.0029570878
0.0058700242
0.0033655205
0.0043537476
0.0033934325
0.0025180858
0.0029354842
0.00026435995
0.0019068794
-0.0025427909
0.00026732172
-0.0060553723
-0.0018561003
-0.010463736
-0.003953018
-0.015832656
-0.0048616367
-0.021489181
-0.0032549512
-0.024107189
-0.015568321
-0.0015913124
0.0064402621
-0.0026115982
0.010587318
-0.0025145385
0.011172605
-0.0015919924
0.010547921
-0.00017487519
0.0095678427
0.0014895921
0.0085377563
0.0032293487
0.0075440899
0.0049195159
0.0065830338
0.0064592663
0.0056129302
0.007753904
0.0045753867
0.0087041526
0.0034034991
0.0091984565
0.0020237819
0.0091006576
0.00036215882
0.0082727619
-0.0017148953
0.0065634827
-0.0043460931
0.0039026223
-0.0078028755
0.00055776984
-0.012487803
-0.002468817
-0.018462594
-0.0030276037
-0.023548402
-0.018595925
-0.0027184469
0.0091587091
-0.0031502511
0.011019122
-0.0018038676
0.0098262212
0.00046526578
0.0082787878
0.003087424
0.0069456846
0.005771325
0.0058538553
0.0083600484
0.0049553665
0.010757334
0.0041857483
0.012890377
0.003479887
0.014687644
0.0027781203
0.016065552
0.0020255908
0.0169208
0.0011685336
0.017117592
0.00016536694
0.016489075
-0.0010863783
0.014815427
-0.0026724452
0.01184554
-0.004832988
0.0074346306
-0.0080768942
0.0022623623
-0.013290326
-0.001272727
-0.020013313
-0.019868652
-0.0024132054
0.011571915
2.8078065e-05
0.0085778382
0.0042549374
0.0055993618
0.0084155492
0.0041181761
0.01223047
0.0031307643
0.015654818
0.0024295076
0.018684744
0.0019254405
0.021327147
0.0015433452
0.023581347
0.0012256865
0.025427125
0.00093234219
0.026818241
0.00063447478
0.027675531
0.00031124426
0.027898829
-5.7931445e-05
0.02734619
-0.00053373875
0.025770891
-0.0010971465
0.02284253
-0.0019046263
0.018054406
-0.0032887702
0.011113346
-0.0063492657
0.0033885738
-0.01228854
-0.016480078
0.011571915
0.020149753
0.025749115
0.029867291
0.032998056
0.035427563
0.037353004
0.038896349
0.040122035
0.041054378
0.041688853
0.042000097
0.041942166
0.041408427
0.04031128
0.038406654
0.035117884
0.028768618
0.016480078
)
;

boundaryField
{
    movingWall
    {
        type            calculated;
        value           uniform 0;
    }
    fixedWalls
    {
        type            calculated;
        value           uniform 0;
    }
    frontAndBack
    {
        type            empty;
        value           nonuniform List<scalar> 0();
    }
}


// ************************************************************************* //
