/*--------------------------------*- C++ -*----------------------------------*\
| =========                 |                                                 |
| \\      /  F ield         | OpenFOAM: The Open Source CFD Toolbox           |
|  \\    /   O peration     | Version:  2112                                  |
|   \\  /    A nd           | Website:  www.openfoam.com                      |
|    \\/     M anipulation  |                                                 |
\*---------------------------------------------------------------------------*/
FoamFile
{
    version     2.0;
    format      ascii;
    arch        "LSB;label=32;scalar=64";
    class       volVectorField;
    location    "15";
    object      U;
}
// * * * * * * * * * * * * * * * * * * * * * * * * * * * * * * * * * * * * * //

dimensions      [0 1 -1 0 0 0 0];

internalField   nonuniform List<vector> 
400
(
(0.0002840883 -0.00028122581 0)
(0.00011016218 8.00045e-05 0)
(-0.0013270415 0.00047785433 0)
(-0.0036205183 0.00073558926 0)
(-0.0064207136 0.00086708197 0)
(-0.0094268318 0.0009067835 0)
(-0.012381662 0.00087437882 0)
(-0.0150486 0.00077109351 0)
(-0.017185572 0.00058816646 0)
(-0.018543292 0.00031994109 0)
(-0.018893169 -2.4724199e-05 0)
(-0.01807755 -0.0004179316 0)
(-0.016072834 -0.00079917569 0)
(-0.013043896 -0.0010924178 0)
(-0.0093635094 -0.0012205627 0)
(-0.0055767168 -0.0011289913 0)
(-0.002300773 -0.00081264904 0)
(-8.3937064e-05 -0.00033804668 0)
(0.00075935624 0.0001520006 0)
(0.0004091602 0.00038906539 0)
(-8.6164857e-05 -0.00012330082 0)
(-0.0018685376 0.0017865078 0)
(-0.0063032544 0.0036241679 0)
(-0.01244574 0.0048597945 0)
(-0.019589393 0.0054953883 0)
(-0.027091203 0.0056174251 0)
(-0.034338908 0.0052829969 0)
(-0.040745344 0.0045018884 0)
(-0.045732189 0.0032646084 0)
(-0.048748923 0.0015892163 0)
(-0.049340349 -0.00043455455 0)
(-0.04722989 -0.0026159481 0)
(-0.042431857 -0.0046612329 0)
(-0.035346128 -0.0062150318 0)
(-0.026768354 -0.0069337661 0)
(-0.017821701 -0.0065891727 0)
(-0.0097735934 -0.0051779101 0)
(-0.0037464462 -0.002998949 0)
(-0.00038951403 -0.00066616592 0)
(0.00028952279 0.00078275416 0)
(-0.00058777237 0.001433188 0)
(-0.0042402276 0.0063740738 0)
(-0.011751172 0.010634391 0)
(-0.021455116 0.013475579 0)
(-0.032345804 0.014889406 0)
(-0.043560821 0.015008521 0)
(-0.054254058 0.013928192 0)
(-0.063604266 0.011678016 0)
(-0.070814369 0.0082776771 0)
(-0.075145844 0.0038281228 0)
(-0.075998309 -0.0014030039 0)
(-0.073020043 -0.0069295062 0)
(-0.066234367 -0.012063058 0)
(-0.056143789 -0.015990176 0)
(-0.043762518 -0.017932741 0)
(-0.030557802 -0.017371518 0)
(-0.018244962 -0.014284274 0)
(-0.0084161316 -0.0093098007 0)
(-0.0021511392 -0.0037620316 0)
(-2.2030779e-06 0.00031583629 0)
(-0.0010523318 0.0042980515 0)
(-0.0065103804 0.013557527 0)
(-0.016987595 0.020851192 0)
(-0.030010868 0.025545468 0)
(-0.044271626 0.027744585 0)
(-0.058746741 0.027671619 0)
(-0.072442446 0.025473365 0)
(-0.084395999 0.021207668 0)
(-0.093674417 0.014939151 0)
(-0.099408674 0.0068780938 0)
(-0.10087629 -0.0024955782 0)
(-0.097613215 -0.012367191 0)
(-0.089549856 -0.021589816 0)
(-0.077147013 -0.028806737 0)
(-0.061478711 -0.032687917 0)
(-0.044235987 -0.032284116 0)
(-0.027552201 -0.027434435 0)
(-0.013577463 -0.019074551 0)
(-0.0040254266 -0.0092693185 0)
(-0.00026779271 -0.0011092199 0)
(-0.0014547719 0.0083597813 0)
(-0.0085429764 0.023166348 0)
(-0.021731227 0.034029917 0)
(-0.037767122 0.040737535 0)
(-0.055061054 0.043675174 0)
(-0.072473885 0.04323388 0)
(-0.088930337 0.039640005 0)
(-0.10339804 0.032985602 0)
(-0.11486799 0.023375878 0)
(-0.12237163 0.011116878 0)
(-0.12505183 -0.0031200497 0)
(-0.12226084 -0.018202443 0)
(-0.11370922 -0.032518293 0)
(-0.099654537 -0.044105475 0)
(-0.081066542 -0.050938516 0)
(-0.059752448 -0.05141628 0)
(-0.03827666 -0.044994509 0)
(-0.019513514 -0.032743988 0)
(-0.0060903947 -0.017487612 0)
(-0.00051093129 -0.0035224087 0)
(-0.0017876058 0.013466502 0)
(-0.010262596 0.034937901 0)
(-0.025788337 0.049876573 0)
(-0.044438208 0.058758194 0)
(-0.064387858 0.062421101 0)
(-0.084427361 0.06151629 0)
(-0.10345774 0.056387013 0)
(-0.1204383 0.047161291 0)
(-0.13433489 0.033959526 0)
(-0.14410372 0.017132811 0)
(-0.14873484 -0.0025240292 0)
(-0.14732875 -0.023613922 0)
(-0.13925289 -0.044111575 0)
(-0.12438562 -0.061405596 0)
(-0.10339151 -0.072604194 0)
(-0.078026474 -0.07513857 0)
(-0.051242076 -0.067678311 0)
(-0.026799834 -0.051105506 0)
(-0.0086092919 -0.028957229 0)
(-0.00078681244 -0.0070513393 0)
(-0.0020406367 0.01942348 0)
(-0.011598263 0.048497246 0)
(-0.028978134 0.067955343 0)
(-0.049728591 0.079177919 0)
(-0.071851286 0.083609233 0)
(-0.094111685 0.082253661 0)
(-0.1154414 0.075613226 0)
(-0.13485036 0.06385096 0)
(-0.15133503 0.047062711 0)
(-0.16381536 0.025568356 0)
(-0.17112405 0.00017755344 0)
(-0.17208944 -0.027583206 0)
(-0.16565582 -0.055358227 0)
(-0.15113926 -0.07990028 0)
(-0.12865676 -0.0973027 0)
(-0.099636478 -0.10365216 0)
(-0.067219287 -0.096247072 0)
(-0.036106952 -0.075192852 0)
(-0.011925625 -0.044525878 0)
(-0.0011703646 -0.011998903 0)
(-0.0022000083 0.025996306 0)
(-0.01247793 0.063379399 0)
(-0.031123663 0.087710874 0)
(-0.053327794 0.10143114 0)
(-0.076980807 0.10671868 0)
(-0.10086622 0.10502093 0)
(-0.1239971 0.097044973 0)
(-0.1454937 0.08299093 0)
(-0.16444861 0.062886699 0)
(-0.17981393 0.036931365 0)
(-0.19033794 0.0058120362 0)
(-0.19459661 -0.02900222 0)
(-0.19108087 -0.064974444 0)
(-0.17843946 -0.098338269 0)
(-0.1559814 -0.12411987 0)
(-0.12440998 -0.13670588 0)
(-0.086621772 -0.13127908 0)
(-0.048049486 -0.1061957 0)
(-0.016424178 -0.065372579 0)
(-0.0017531116 -0.018873466 0)
(-0.0022547355 0.03291274 0)
(-0.012848389 0.079040943 0)
(-0.032085975 0.10847223 0)
(-0.054960365 0.12479565 0)
(-0.079305251 0.13102572 0)
(-0.10395763 0.12913922 0)
(-0.12805842 0.12010274 0)
(-0.15089965 0.10416758 0)
(-0.17175007 0.081261219 0)
(-0.18969706 0.051376047 0)
(-0.20352922 0.014933085 0)
(-0.21168336 -0.026842644 0)
(-0.2122813 -0.071485243 0)
(-0.20329685 -0.11496842 0)
(-0.18302516 -0.15138291 0)
(-0.15098566 -0.17321964 0)
(-0.10914089 -0.17276186 0)
(-0.063011014 -0.14519671 0)
(-0.02251886 -0.09294984 0)
(-0.0026580171 -0.028414281 0)
(-0.0022081265 0.039881583 0)
(-0.012713981 0.09489134 0)
(-0.031833333 0.12947059 0)
(-0.054483247 0.14838288 0)
(-0.078481209 0.155562 0)
(-0.10274783 0.15360137 0)
(-0.12659536 0.14379402 0)
(-0.14954908 0.12647762 0)
(-0.17114321 0.10147482 0)
(-0.19072869 0.068517905 0)
(-0.20730098 0.027645987 0)
(-0.21935224 -0.020359907 0)
(-0.22486248 -0.073413725 0)
(-0.22128115 -0.12762952 0)
(-0.20582936 -0.17655358 0)
(-0.17645193 -0.21092172 0)
(-0.1333256 -0.21954584 0)
(-0.080884485 -0.19269797 0)
(-0.03063527 -0.12881662 0)
(-0.0040688491 -0.04162569 0)
(-0.0020934169 0.046639368 0)
(-0.012189405 0.1103631 0)
(-0.030534503 0.14989267 0)
(-0.05201392 0.1711636 0)
(-0.074459495 0.17911582 0)
(-0.096913272 0.17705386 0)
(-0.1189073 0.16667684 0)
(-0.14026064 0.14846719 0)
(-0.16085784 0.12217569 0)
(-0.18044089 0.087274583 0)
(-0.19840216 0.043371994 0)
(-0.21353631 -0.0093548512 0)
(-0.22401298 -0.069629366 0)
(-0.22707889 -0.13407594 0)
(-0.21908206 -0.19638795 0)
(-0.1962554 -0.24618204 0)
(-0.1562063 -0.26879031 0)
(-0.10069477 -0.24792634 0)
(-0.041139651 -0.17429226 0)
(-0.0062691617 -0.059818928 0)
(-0.0019970116 0.053034217 0)
(-0.011568227 0.12502875 0)
(-0.028666178 0.16897231 0)
(-0.04806394 0.19202979 0)
(-0.067647709 0.20028027 0)
(-0.086655352 0.19784651 0)
(-0.10491 0.18691593 0)
(-0.12258657 0.16818521 0)
(-0.13998427 0.14139466 0)
(-0.1573206 0.10580291 0)
(-0.17454037 0.060592071 0)
(-0.19110908 0.0052597415 0)
(-0.2056255 -0.059877899 0)
(-0.21552554 -0.13255502 0)
(-0.21691476 -0.20746831 0)
(-0.2045839 -0.27425344 0)
(-0.17317367 -0.31565085 0)
(-0.12016555 -0.30801708 0)
(-0.054142556 -0.22983664 0)
(-0.0096733594 -0.084634759 0)
(-0.0021008714 0.059163411 0)
(-0.011420582 0.13876525 0)
(-0.027127515 0.18610483 0)
(-0.043643204 0.20987182 0)
(-0.059005289 0.21752905 0)
(-0.072807217 0.21413533 0)
(-0.085284367 0.20242623 0)
(-0.097040168 0.18336452 0)
(-0.10883157 0.15674501 0)
(-0.12139627 0.12169242 0)
(-0.1353016 0.077036327 0)
(-0.15075042 0.021650551 0)
(-0.16716753 -0.045069948 0)
(-0.18278067 -0.12246945 0)
(-0.19408666 -0.20707516 0)
(-0.19525827 -0.29005972 0)
(-0.17830659 -0.35352673 0)
(-0.13540836 -0.36738011 0)
(-0.06908694 -0.29410539 0)
(-0.014793695 -0.11796365 0)
(-0.0027694579 0.065603085 0)
(-0.012749329 0.15195533 0)
(-0.027348274 0.20093693 0)
(-0.040272793 0.22361628 0)
(-0.049965929 0.22926559 0)
(-0.056688721 0.22398153 0)
(-0.061284584 0.21103875 0)
(-0.064873323 0.19165669 0)
(-0.068681842 0.1657126 0)
(-0.073938378 0.13228162 0)
(-0.081792169 0.089981505 0)
(-0.093182968 0.037230997 0)
(-0.10852915 -0.027442146 0)
(-0.12726859 -0.10493634 0)
(-0.14710143 -0.19417914 0)
(-0.16284039 -0.28944316 0)
(-0.16511527 -0.37505337 0)
(-0.14091325 -0.41767896 0)
(-0.084063534 -0.36277085 0)
(-0.022010953 -0.16155262 0)
(-0.0047216553 0.073823186 0)
(-0.017232588 0.16569326 0)
(-0.031307124 0.21332954 0)
(-0.039718888 0.23211804 0)
(-0.041930869 0.2337472 0)
(-0.039408393 0.22534696 0)
(-0.033877559 0.21057707 0)
(-0.027070709 0.19079015 0)
(-0.020665331 0.16589261 0)
(-0.016289497 0.13494794 0)
(-0.015549238 0.096491086 0)
(-0.019995598 0.048718275 0)
(-0.030984422 -0.010380065 0)
(-0.049294555 -0.082886686 0)
(-0.074452266 -0.1701102 0)
(-0.10332052 -0.27047063 0)
(-0.12728679 -0.3736627 0)
(-0.12975377 -0.44865297 0)
(-0.094921069 -0.42747264 0)
(-0.030931066 -0.21610837 0)
(-0.009302035 0.086946573 0)
(-0.027442672 0.18183198 0)
(-0.041005975 0.22299852 0)
(-0.042718189 0.23374699 0)
(-0.034457318 0.22875899 0)
(-0.019685526 0.21588482 0)
(-0.0013093957 0.1987513 0)
(0.018269572 0.17854787 0)
(0.036993521 0.15507924 0)
(0.052978485 0.12736679 0)
(0.064347361 0.093953416 0)
(0.069161325 0.053038503 0)
(0.065351141 0.0024899674 0)
(0.050989707 -0.06031174 0)
(0.024592047 -0.13835118 0)
(-0.013745001 -0.23414893 0)
(-0.058787473 -0.34514951 0)
(-0.093532849 -0.44951854 0)
(-0.094479132 -0.47556525 0)
(-0.039217667 -0.28046733 0)
(-0.018581713 0.11087138 0)
(-0.046048279 0.20176646 0)
(-0.05525118 0.22791052 0)
(-0.044019666 0.2249891 0)
(-0.01942038 0.21058213 0)
(0.012274348 0.19225173 0)
(0.046925793 0.17276286 0)
(0.081681778 0.1526403 0)
(0.11436368 0.13134854 0)
(0.14308024 0.10780033 0)
(0.16594756 0.080604116 0)
(0.18091745 0.048130194 0)
(0.18551909 0.0084701604 0)
(0.17711577 -0.040796598 0)
(0.15271658 -0.10315762 0)
(0.10945294 -0.18389125 0)
(0.047211522 -0.28854297 0)
(-0.021459533 -0.41049945 0)
(-0.07226243 -0.49100479 0)
(-0.04114959 -0.35053322 0)
(-0.033352305 0.15561867 0)
(-0.068605432 0.22040266 0)
(-0.055199545 0.21728279 0)
(-0.01610144 0.19530862 0)
(0.03447709 0.17090469 0)
(0.088463181 0.14847634 0)
(0.14171541 0.12859753 0)
(0.19191003 0.1105676 0)
(0.23747897 0.093293668 0)
(0.27705886 0.075577248 0)
(0.30916004 0.056188979 0)
(0.33199055 0.033834784 0)
(0.34312973 0.0070409926 0)
(0.33979021 -0.025896828 0)
(0.31810105 -0.067729942 0)
(0.27325223 -0.12409921 0)
(0.20042764 -0.20584176 0)
(0.10212563 -0.32506509 0)
(-0.012394602 -0.45456732 0)
(-0.023758531 -0.40863681 0)
(-0.033080119 0.23907641 0)
(-0.042645449 0.21792225 0)
(0.042206146 0.16426446 0)
(0.12759731 0.12783015 0)
(0.20768255 0.10142756 0)
(0.28025733 0.081649777 0)
(0.34484077 0.06664089 0)
(0.40154454 0.054698089 0)
(0.45050862 0.044397429 0)
(0.49157775 0.034640887 0)
(0.52412131 0.024554168 0)
(0.54695006 0.013387128 0)
(0.55819201 0.00040593625 0)
(0.55568535 -0.015131105 0)
(0.53550859 -0.034963845 0)
(0.49243433 -0.062484528 0)
(0.41796432 -0.10694587 0)
(0.30410014 -0.19317487 0)
(0.12313446 -0.33691869 0)
(0.052373103 -0.3943788 0)
(0.24300041 0.15257592 0)
(0.30529928 0.11854444 0)
(0.45481563 0.076108771 0)
(0.56001047 0.050839732 0)
(0.63223104 0.035124795 0)
(0.68654218 0.024810661 0)
(0.72942664 0.017958573 0)
(0.76378108 0.013254887 0)
(0.79126202 0.0097618609 0)
(0.81273395 0.0068547619 0)
(0.82839528 0.0041195395 0)
(0.83793061 0.0012782574 0)
(0.84056097 -0.0018429902 0)
(0.83496977 -0.0053250012 0)
(0.8188644 -0.0098278561 0)
(0.78942834 -0.01623207 0)
(0.73784364 -0.02693551 0)
(0.6531684 -0.051286687 0)
(0.45609799 -0.1137463 0)
(0.31788989 -0.17206025 0)
)
;

boundaryField
{
    movingWall
    {
        type            fixedValue;
        value           uniform (1 0 0);
    }
    fixedWalls
    {
        type            fixedValue;
        value           uniform (0 0 0);
    }
    frontAndBack
    {
        type            empty;
    }
}


// ************************************************************************* //
