/*--------------------------------*- C++ -*----------------------------------*\
| =========                 |                                                 |
| \\      /  F ield         | OpenFOAM: The Open Source CFD Toolbox           |
|  \\    /   O peration     | Version:  2112                                  |
|   \\  /    A nd           | Website:  www.openfoam.com                      |
|    \\/     M anipulation  |                                                 |
\*---------------------------------------------------------------------------*/
FoamFile
{
    version     2.0;
    format      ascii;
    arch        "LSB;label=32;scalar=64";
    class       volVectorField;
    location    "15";
    object      U_0;
}
// * * * * * * * * * * * * * * * * * * * * * * * * * * * * * * * * * * * * * //

dimensions      [0 1 -1 0 0 0 0];

internalField   nonuniform List<vector> 
400
(
(0.00028408587 -0.00028122633 0)
(0.00011015921 8.0003844e-05 0)
(-0.0013270393 0.00047785232 0)
(-0.0036205101 0.00073558649 0)
(-0.0064206978 0.00086707905 0)
(-0.0094268075 0.00090678014 0)
(-0.012381631 0.00087437505 0)
(-0.015048562 0.00077108998 0)
(-0.017185527 0.00058816423 0)
(-0.018543242 0.00031994076 0)
(-0.018893118 -2.4722802e-05 0)
(-0.018077502 -0.00041792892 0)
(-0.016072795 -0.00079917202 0)
(-0.013043868 -0.0010924135 0)
(-0.0093634937 -0.0012205586 0)
(-0.005576712 -0.0011289879 0)
(-0.0023007766 -0.00081264668 0)
(-8.3944592e-05 -0.00033804511 0)
(0.00075934934 0.00015200178 0)
(0.00040915745 0.00038906467 0)
(-8.6165384e-05 -0.00012330249 0)
(-0.0018685333 0.001786502 0)
(-0.0063032351 0.0036241554 0)
(-0.012445701 0.0048597772 0)
(-0.019589331 0.0054953684 0)
(-0.027091119 0.0056174045 0)
(-0.034338802 0.0052829777 0)
(-0.040745219 0.0045018733 0)
(-0.04573205 0.0032645999 0)
(-0.048748776 0.0015892158 0)
(-0.049340204 -0.00043454723 0)
(-0.047229758 -0.0026159337 0)
(-0.042431746 -0.0046612128 0)
(-0.035346044 -0.0062150081 0)
(-0.026768298 -0.0069337427 0)
(-0.01782167 -0.0065891539 0)
(-0.0097735827 -0.0051778987 0)
(-0.0037464475 -0.0029989444 0)
(-0.00038952196 -0.00066616587 0)
(0.00028951752 0.00078275439 0)
(-0.00058777002 0.0014331824 0)
(-0.0042402126 0.0063740528 0)
(-0.011751131 0.010634355 0)
(-0.021455042 0.013475531 0)
(-0.032345693 0.014889354 0)
(-0.043560673 0.015008469 0)
(-0.054253877 0.013928147 0)
(-0.063604058 0.011677983 0)
(-0.070814143 0.0082776594 0)
(-0.075145611 0.0038281231 0)
(-0.075998082 -0.0014029852 0)
(-0.073019836 -0.0069294703 0)
(-0.06623419 -0.012063008 0)
(-0.056143648 -0.015990118 0)
(-0.043762419 -0.017932683 0)
(-0.030557741 -0.017371469 0)
(-0.018244932 -0.014284241 0)
(-0.0084161215 -0.0093097853 0)
(-0.0021511393 -0.0037620298 0)
(-2.2045992e-06 0.00031583675 0)
(-0.0010523272 0.0042980368 0)
(-0.0065103551 0.01355748 0)
(-0.016987531 0.020851119 0)
(-0.030010758 0.025545379 0)
(-0.044271467 0.02774449 0)
(-0.058746535 0.027671528 0)
(-0.072442199 0.025473287 0)
(-0.08439572 0.021207611 0)
(-0.093674118 0.014939122 0)
(-0.09940837 0.0068780957 0)
(-0.10087599 -0.0024955444 0)
(-0.097612943 -0.012367128 0)
(-0.089549618 -0.021589729 0)
(-0.07714682 -0.028806637 0)
(-0.061478566 -0.032687816 0)
(-0.044235892 -0.032284027 0)
(-0.027552148 -0.027434369 0)
(-0.013577439 -0.019074513 0)
(-0.0040254206 -0.0092693065 0)
(-0.00026779286 -0.001109221 0)
(-0.0014547657 0.0083597525 0)
(-0.0085429427 0.023166266 0)
(-0.021731145 0.034029798 0)
(-0.037766984 0.040737396 0)
(-0.055060858 0.043675029 0)
(-0.072473634 0.043233743 0)
(-0.08893004 0.039639889 0)
(-0.1033977 0.032985519 0)
(-0.11486764 0.023375835 0)
(-0.12237127 0.011116882 0)
(-0.12505149 -0.0031199992 0)
(-0.12226052 -0.018202349 0)
(-0.11370894 -0.032518165 0)
(-0.099654298 -0.044105326 0)
(-0.081066357 -0.050938365 0)
(-0.059752318 -0.051416143 0)
(-0.038276581 -0.044994402 0)
(-0.019513476 -0.032743921 0)
(-0.0060903837 -0.017487585 0)
(-0.00051093095 -0.0035224085 0)
(-0.0017875983 0.013466455 0)
(-0.010262557 0.034937778 0)
(-0.025788243 0.0498764 0)
(-0.044438053 0.058757996 0)
(-0.06438764 0.0624209 0)
(-0.084427086 0.061516103 0)
(-0.10345742 0.056386857 0)
(-0.12043794 0.04716118 0)
(-0.13433452 0.03395947 0)
(-0.14410334 0.017132816 0)
(-0.14873446 -0.0025239621 0)
(-0.1473284 -0.023613798 0)
(-0.13925257 -0.044111404 0)
(-0.12438534 -0.061405395 0)
(-0.10339129 -0.072603985 0)
(-0.078026312 -0.075138376 0)
(-0.051241972 -0.067678153 0)
(-0.026799781 -0.051105401 0)
(-0.0086092763 -0.028957182 0)
(-0.00078681161 -0.0070513339 0)
(-0.0020406286 0.019423413 0)
(-0.011598222 0.048497078 0)
(-0.028978039 0.067955111 0)
(-0.049728433 0.079177658 0)
(-0.071851066 0.083608972 0)
(-0.094111409 0.082253422 0)
(-0.11544108 0.075613028 0)
(-0.13485001 0.063850821 0)
(-0.15133466 0.047062642 0)
(-0.16381499 0.025568362 0)
(-0.17112368 0.00017763594 0)
(-0.17208909 -0.027583054 0)
(-0.16565549 -0.055358018 0)
(-0.15113897 -0.079900031 0)
(-0.12865652 -0.097302434 0)
(-0.099636294 -0.10365191 0)
(-0.067219162 -0.096246857 0)
(-0.036106886 -0.075192702 0)
(-0.011925603 -0.044525802 0)
(-0.0011703624 -0.011998888 0)
(-0.0022000009 0.025996217 0)
(-0.012477894 0.063379183 0)
(-0.031123577 0.087710583 0)
(-0.05332765 0.10143082 0)
(-0.076980606 0.10671836 0)
(-0.10086597 0.10502064 0)
(-0.12399681 0.097044739 0)
(-0.14549338 0.082990767 0)
(-0.16444827 0.062886618 0)
(-0.1798136 0.036931373 0)
(-0.19033761 0.0058121308 0)
(-0.19459629 -0.029002046 0)
(-0.19108057 -0.064974203 0)
(-0.17843919 -0.098337979 0)
(-0.15598117 -0.12411956 0)
(-0.12440978 -0.13670557 0)
(-0.086621637 -0.13127881 0)
(-0.04804941 -0.1061955 0)
(-0.01642415 -0.065372466 0)
(-0.0017531074 -0.018873437 0)
(-0.0022547304 0.03291263 0)
(-0.012848362 0.079040684 0)
(-0.032085908 0.10847189 0)
(-0.05496025 0.12479528 0)
(-0.079305089 0.13102536 0)
(-0.10395742 0.12913889 0)
(-0.12805819 0.12010248 0)
(-0.1508994 0.1041674 0)
(-0.17174981 0.081261131 0)
(-0.1896968 0.051376054 0)
(-0.20352896 0.014933186 0)
(-0.21168312 -0.026842458 0)
(-0.21228107 -0.071484984 0)
(-0.20329662 -0.1149681 0)
(-0.18302496 -0.15138256 0)
(-0.15098548 -0.17321928 0)
(-0.10914076 -0.17276154 0)
(-0.063010932 -0.14519645 0)
(-0.022518825 -0.092949685 0)
(-0.0026580106 -0.028414235 0)
(-0.0022081248 0.039881458 0)
(-0.012713968 0.09489105 0)
(-0.031833294 0.12947021 0)
(-0.054483174 0.14838246 0)
(-0.078481104 0.1555616 0)
(-0.1027477 0.15360101 0)
(-0.12659521 0.14379374 0)
(-0.14954892 0.12647743 0)
(-0.17114305 0.10147473 0)
(-0.19072854 0.068517913 0)
(-0.20730084 0.02764609 0)
(-0.21935211 -0.020359718 0)
(-0.22486235 -0.07341346 0)
(-0.22128102 -0.1276292 0)
(-0.20582922 -0.17655322 0)
(-0.1764518 -0.21092134 0)
(-0.13332549 -0.21954547 0)
(-0.080884406 -0.19269767 0)
(-0.030635232 -0.12881642 0)
(-0.0040688413 -0.041625628 0)
(-0.0020934185 0.046639235 0)
(-0.012189407 0.1103628 0)
(-0.030534498 0.14989227 0)
(-0.052013899 0.17116317 0)
(-0.07445946 0.1791154 0)
(-0.09691323 0.1770535 0)
(-0.11890725 0.16667655 0)
(-0.14026061 0.148467 0)
(-0.16085781 0.1221756 0)
(-0.18044087 0.087274595 0)
(-0.19840216 0.043372101 0)
(-0.21353631 -0.0093546605 0)
(-0.22401297 -0.069629106 0)
(-0.22707887 -0.13407562 0)
(-0.21908202 -0.19638759 0)
(-0.19625534 -0.24618166 0)
(-0.15620624 -0.26878993 0)
(-0.10069471 -0.24792601 0)
(-0.041139616 -0.17429203 0)
(-0.006269154 -0.059818852 0)
(-0.0019970163 0.053034088 0)
(-0.011568244 0.12502845 0)
(-0.028666208 0.16897191 0)
(-0.048063978 0.19202936 0)
(-0.067647754 0.20027986 0)
(-0.086655407 0.19784615 0)
(-0.10491007 0.18691565 0)
(-0.12258666 0.16818502 0)
(-0.13998438 0.14139458 0)
(-0.15732073 0.10580293 0)
(-0.17454051 0.06059218 0)
(-0.19110922 0.0052599266 0)
(-0.20562562 -0.059877655 0)
(-0.21552565 -0.13255473 0)
(-0.21691483 -0.20746799 0)
(-0.20458394 -0.27425308 0)
(-0.17317367 -0.31565049 0)
(-0.12016552 -0.30801674 0)
(-0.054142531 -0.22983639 0)
(-0.009673353 -0.084634667 0)
(-0.0021008791 0.059163297 0)
(-0.011420615 0.13876497 0)
(-0.027127582 0.18610446 0)
(-0.043643301 0.20987142 0)
(-0.059005414 0.21752866 0)
(-0.07280737 0.214135 0)
(-0.085284549 0.20242598 0)
(-0.097040376 0.18336436 0)
(-0.10883181 0.15674495 0)
(-0.12139652 0.12169245 0)
(-0.13530185 0.077036438 0)
(-0.15075068 0.021650726 0)
(-0.16716777 -0.045069726 0)
(-0.18278089 -0.12246919 0)
(-0.19408684 -0.20707488 0)
(-0.1952584 -0.29005942 0)
(-0.17830667 -0.35352641 0)
(-0.13540838 -0.3673798 0)
(-0.069086933 -0.29410514 0)
(-0.01479369 -0.11796355 0)
(-0.0027694685 0.065602993 0)
(-0.012749376 0.15195509 0)
(-0.027348372 0.2009366 0)
(-0.040272943 0.22361592 0)
(-0.049966127 0.22926524 0)
(-0.056688963 0.22398122 0)
(-0.061284863 0.21103852 0)
(-0.064873633 0.19165655 0)
(-0.068682174 0.16571255 0)
(-0.073938723 0.13228166 0)
(-0.081792516 0.089981617 0)
(-0.093183309 0.037231162 0)
(-0.10852947 -0.027441948 0)
(-0.12726889 -0.10493612 0)
(-0.14710169 -0.19417892 0)
(-0.1628406 -0.28944293 0)
(-0.16511541 -0.37505313 0)
(-0.14091332 -0.41767871 0)
(-0.084063549 -0.36277062 0)
(-0.02201095 -0.1615525 0)
(-0.004721668 0.073823122 0)
(-0.017232645 0.16569307 0)
(-0.031307246 0.21332927 0)
(-0.039719077 0.23211773 0)
(-0.041931123 0.2337469 0)
(-0.039408702 0.2253467 0)
(-0.033877911 0.21057687 0)
(-0.027071092 0.19079004 0)
(-0.020665731 0.16589258 0)
(-0.0162899 0.13494798 0)
(-0.015549633 0.096491192 0)
(-0.019995978 0.048718425 0)
(-0.03098478 -0.010379891 0)
(-0.049294884 -0.082886506 0)
(-0.07445256 -0.17011003 0)
(-0.10332077 -0.27047046 0)
(-0.12728697 -0.37366253 0)
(-0.12975388 -0.44865278 0)
(-0.094921106 -0.42747245 0)
(-0.030931068 -0.21610826 0)
(-0.0093020473 0.08694654 0)
(-0.027442731 0.18183186 0)
(-0.041006104 0.22299833 0)
(-0.042718394 0.23374675 0)
(-0.034457597 0.22875875 0)
(-0.019685867 0.21588461 0)
(-0.0013097829 0.19875114 0)
(0.018269157 0.17854777 0)
(0.036993095 0.15507921 0)
(0.052978064 0.12736683 0)
(0.064346957 0.093953508 0)
(0.069160946 0.053038631 0)
(0.065350792 0.0024901132 0)
(0.050989389 -0.060311595 0)
(0.024591765 -0.13835105 0)
(-0.01374524 -0.23414882 0)
(-0.058787661 -0.34514941 0)
(-0.093532972 -0.44951842 0)
(-0.094479183 -0.47556513 0)
(-0.039217675 -0.28046725 0)
(-0.01858172 0.11087138 0)
(-0.046048327 0.2017664 0)
(-0.055251293 0.2279104 0)
(-0.044019851 0.22498894 0)
(-0.019420637 0.21058195 0)
(0.012274028 0.19225157 0)
(0.046925426 0.17276273 0)
(0.081681383 0.15264022 0)
(0.11436327 0.13134852 0)
(0.14307984 0.10780035 0)
(0.16594718 0.080604183 0)
(0.1809171 0.04813029 0)
(0.18551878 0.00847027 0)
(0.1771155 -0.04079649 0)
(0.15271634 -0.10315753 0)
(0.10945274 -0.18389117 0)
(0.047211361 -0.28854291 0)
(-0.021459646 -0.41049939 0)
(-0.072262482 -0.49100473 0)
(-0.041149601 -0.35053317 0)
(-0.033352304 0.15561868 0)
(-0.068605452 0.22040265 0)
(-0.055199612 0.21728274 0)
(-0.016101561 0.19530853 0)
(0.034476909 0.17090459 0)
(0.088462943 0.14847624 0)
(0.14171512 0.12859744 0)
(0.19190971 0.11056755 0)
(0.23747863 0.093293647 0)
(0.27705852 0.075577258 0)
(0.30915972 0.056189016 0)
(0.33199026 0.033834842 0)
(0.34312948 0.0070410616 0)
(0.33978999 -0.025896758 0)
(0.31810088 -0.067729882 0)
(0.27325209 -0.12409916 0)
(0.20042754 -0.20584173 0)
(0.10212555 -0.32506507 0)
(-0.012394642 -0.45456729 0)
(-0.023758541 -0.40863679 0)
(-0.033080109 0.23907643 0)
(-0.042645435 0.21792226 0)
(0.042206141 0.16426445 0)
(0.12759727 0.12783012 0)
(0.20768247 0.10142752 0)
(0.2802572 0.081649731 0)
(0.3448406 0.066640851 0)
(0.40154433 0.054698062 0)
(0.45050839 0.044397417 0)
(0.49157751 0.034640889 0)
(0.52412109 0.024554182 0)
(0.54694986 0.013387152 0)
(0.55819184 0.00040596566 0)
(0.55568522 -0.015131074 0)
(0.53550848 -0.034963818 0)
(0.49243426 -0.062484509 0)
(0.41796427 -0.10694586 0)
(0.30410011 -0.19317487 0)
(0.12313444 -0.33691869 0)
(0.052373098 -0.3943788 0)
(0.24300042 0.15257592 0)
(0.3052993 0.11854444 0)
(0.45481566 0.076108772 0)
(0.56001048 0.050839729 0)
(0.63223103 0.035124788 0)
(0.68654215 0.024810653 0)
(0.72942658 0.017958565 0)
(0.763781 0.013254881 0)
(0.79126192 0.0097618581 0)
(0.81273386 0.0068547624 0)
(0.82839519 0.004119543 0)
(0.83793053 0.001278263 0)
(0.84056092 -0.0018429847 0)
(0.83496974 -0.0053249951 0)
(0.81886438 -0.0098278505 0)
(0.78942834 -0.016232067 0)
(0.73784364 -0.026935508 0)
(0.65316841 -0.051286688 0)
(0.45609799 -0.1137463 0)
(0.31788989 -0.17206026 0)
)
;

boundaryField
{
    movingWall
    {
        type            fixedValue;
        value           uniform (1 0 0);
    }
    fixedWalls
    {
        type            fixedValue;
        value           uniform (0 0 0);
    }
    frontAndBack
    {
        type            empty;
    }
}


// ************************************************************************* //
