/*--------------------------------*- C++ -*----------------------------------*\
| =========                 |                                                 |
| \\      /  F ield         | OpenFOAM: The Open Source CFD Toolbox           |
|  \\    /   O peration     | Version:  2112                                  |
|   \\  /    A nd           | Website:  www.openfoam.com                      |
|    \\/     M anipulation  |                                                 |
\*---------------------------------------------------------------------------*/
FoamFile
{
    version     2.0;
    format      ascii;
    arch        "LSB;label=32;scalar=64";
    class       surfaceScalarField;
    location    "0.03";
    object      phi;
}
// * * * * * * * * * * * * * * * * * * * * * * * * * * * * * * * * * * * * * //

dimensions      [1 0 -1 0 0 0 0];

oriented        oriented;

internalField   nonuniform List<scalar> 
999
(
-1.5525803e-11
-1.0457413e-11
-1.0110801e-11
3.5664804e-12
1.7354784e-11
1.4428236e-11
1.5225599e-11
3.8605563e-11
1.3062884e-11
1.0901946e-11
9.5075059e-12
2.375522e-11
3.1101566e-11
3.6109338e-11
3.4789061e-11
5.037204e-11
3.4546255e-11
2.7494451e-11
4.2045922e-11
6.3848038e-11
4.8319682e-11
2.9699465e-11
3.2720049e-11
1.9430013e-11
4.6099347e-11
1.8488322e-11
2.2728486e-11
5.7904792e-12
2.984013e-11
1.468714e-11
-1.8550494e-11
-2.9423131e-12
1.0321966e-11
2.2130742e-11
-1.8057777e-12
-4.2571502e-12
-5.7038818e-12
-1.8514079e-12
1.2689627e-11
3.9938053e-12
1.4968138e-11
2.6188829e-11
1.6482482e-11
1.8897883e-11
6.9830808e-12
1.5907831e-11
1.9078517e-11
1.2798762e-11
3.1218583e-11
2.0922486e-11
2.4402813e-11
1.5141222e-11
-7.7449158e-13
-1.5337065e-11
-1.47099e-11
4.0338843e-12
2.2275404e-11
2.0075275e-11
2.507794e-11
1.9837687e-11
1.3130941e-11
1.5533796e-11
1.0873746e-11
-1.0971224e-11
-1.3859802e-11
1.4360735e-12
3.1865621e-12
1.0560997e-11
1.0675461e-11
-8.5407237e-12
6.7834627e-12
1.3929857e-11
3.6125769e-11
2.2957303e-11
8.0389029e-12
1.9868773e-11
1.9093949e-11
2.6234792e-11
1.2334578e-12
-5.6070704e-12
7.3785422e-13
2.2438718e-12
-2.064493e-11
-2.5008884e-11
-2.5217606e-12
5.4782845e-12
9.7012398e-12
-8.3841822e-12
-3.4414249e-11
-2.4790725e-11
-1.4393819e-11
-1.0475176e-11
-3.7182479e-11
-2.2941427e-11
-1.7878143e-11
-2.0930813e-11
-1.8458568e-11
-1.5516477e-12
-8.3197893e-12
-1.7293722e-11
-2.256928e-11
1.1441958e-11
-7.1630479e-12
-3.8810066e-12
-6.9930728e-12
2.1717961e-11
9.3652863e-12
8.2001073e-12
4.3969273e-12
-1.6430191e-11
6.7099659e-12
-7.6580964e-12
-2.2715163e-13
-1.5265789e-11
-2.7931435e-11
-2.5635494e-11
-3.3375525e-11
-1.2344903e-11
-1.0688117e-11
-2.2480684e-11
-1.0732304e-11
8.6741725e-12
6.8329786e-12
9.5967678e-12
1.7994273e-11
8.447909e-12
-9.9107389e-12
1.7919e-13
-1.0329515e-12
-6.1008976e-12
8.203771e-12
2.9893865e-11
3.1309622e-11
6.2162497e-12
2.6967317e-13
-1.2114754e-12
-5.9718896e-13
6.8978157e-13
-2.4507063e-12
1.59317e-11
5.8659744e-12
9.9206199e-12
2.2222224e-12
2.5928149e-12
8.8870022e-12
9.6181951e-12
7.7280404e-12
-2.6888491e-11
-7.3495654e-12
-1.0377144e-11
-3.238132e-11
-6.7444939e-12
-2.8285929e-11
-4.2280623e-12
-7.686185e-12
-1.1509238e-11
-1.6606272e-11
-1.6600499e-11
-1.6052382e-11
-1.3087309e-12
-1.2249757e-11
-1.7163382e-11
-6.5044636e-12
-2.2201019e-11
-1.6129764e-11
-9.6006536e-12
-7.3592243e-12
-2.114442e-11
1.3495871e-12
-1.5884405e-11
-1.3494761e-11
-8.2014395e-12
2.5353053e-12
3.2975844e-12
-1.1019186e-11
6.0529359e-13
9.9324993e-12
1.5105694e-12
-1.6515567e-11
-1.5690782e-11
-3.3921754e-11
-2.7102542e-11
-1.2871704e-11
-2.4553248e-11
-2.4605873e-11
-2.8738123e-11
-2.6883606e-11
-1.5732304e-11
-3.8350434e-11
2.7644553e-13
-2.6825209e-12
-2.1716406e-11
1.2696066e-11
-3.0395686e-12
-1.6383339e-11
-6.5865091e-12
-5.5377924e-13
-8.4450225e-12
-2.0392354e-11
-9.1453511e-12
-6.889378e-12
1.846745e-12
9.3161034e-12
-5.7567284e-12
1.2847501e-11
-5.4641847e-12
-8.9199759e-12
-9.9975583e-12
-1.3705925e-11
-1.9109159e-11
-2.8343994e-11
2.9107827e-12
-2.8554936e-13
1.1857626e-11
1.0607959e-11
1.1393886e-11
3.8953285e-12
-1.9990454e-11
-1.8311463e-11
2.757794e-13
-4.3809401e-13
-2.5701663e-12
-6.8201e-12
-1.205569e-11
-1.8620439e-11
-8.9839247e-12
-1.8242741e-11
-9.2057473e-12
-5.625278e-12
-1.0595302e-11
5.6163962e-12
-1.3656631e-11
-1.4135582e-11
-9.9731334e-12
-1.1900703e-11
-1.0180301e-11
-3.2276404e-12
-7.6125772e-12
-3.7645442e-12
1.4398926e-11
6.52145e-12
3.7561065e-12
7.7773343e-12
-9.9724673e-12
2.6043612e-12
-1.2679413e-11
-4.1988635e-12
8.7581054e-12
2.0455415e-11
1.8315793e-11
3.1225467e-11
4.0912829e-11
3.6347148e-11
3.2043035e-11
2.6123992e-11
7.1818107e-12
8.7531093e-12
8.7584384e-12
2.9000691e-11
3.5159431e-11
4.3255177e-11
1.1327828e-11
8.1449292e-12
1.1680101e-11
2.2263968e-11
-1.6255441e-11
-1.1283197e-11
-1.7337687e-11
-1.7189583e-12
-1.0191736e-11
-9.6768149e-12
-1.8250512e-11
-2.4964253e-11
3.0779823e-12
-3.2301717e-11
-8.3497653e-12
2.0090596e-12
-1.3200774e-11
-4.8827609e-13
2.2870594e-14
-6.1709526e-12
-1.2801982e-11
4.7223336e-12
9.3058894e-13
4.6758153e-12
7.8665963e-12
-5.5777605e-13
-1.3529178e-12
5.9063865e-13
1.6538104e-11
2.6171731e-11
2.2698177e-11
1.4051427e-11
2.9334313e-12
-7.935208e-12
1.412781e-11
-1.3917756e-12
-2.7939873e-11
-1.9042323e-11
-2.2771007e-11
-1.5212942e-11
-2.0259128e-11
-3.9215298e-11
-4.1852077e-11
-3.1607605e-11
-4.066214e-11
-3.3878234e-11
-1.9779511e-11
-1.0303314e-11
-4.1793236e-12
-5.2091664e-12
-7.198242e-12
1.7013058e-12
-4.1013859e-12
-8.8926644e-12
-4.6034287e-12
1.4268364e-11
-1.6751045e-12
5.7638339e-12
3.8586911e-12
-5.2113869e-12
8.8251628e-12
4.9155124e-12
-8.8189456e-12
1.221212e-11
1.9186319e-11
2.1212143e-11
1.4461765e-11
1.7014612e-11
3.2014835e-11
3.0333513e-11
2.729228e-11
1.1063372e-11
1.4334089e-11
-5.6072924e-12
1.4493406e-11
1.1575851e-11
1.5125678e-11
-1.921574e-12
3.7267966e-12
-4.3932635e-12
1.9793056e-12
-8.6136653e-12
-1.7905566e-11
-1.2037704e-11
-1.5040857e-11
-1.635625e-11
7.885026e-12
1.3461676e-11
2.5261349e-11
1.4682588e-11
1.3164358e-11
8.123946e-12
2.5594638e-11
3.9482861e-12
-5.7465144e-12
-1.7062241e-11
-2.6181723e-11
-2.462841e-11
-2.2867486e-11
-3.2997161e-11
-4.8794524e-11
-5.0883187e-11
-4.1187609e-11
-2.3927305e-11
-1.9053648e-11
-2.9658942e-11
-1.681566e-11
3.5860204e-13
-1.0843104e-11
-1.8067658e-11
-2.6691871e-11
7.0874417e-12
-4.7155613e-12
2.0725199e-11
1.6706969e-11
-2.0392688e-11
-7.9692919e-12
-5.0741633e-12
4.2049697e-12
1.7536084e-11
3.5241365e-11
4.8180904e-11
1.3316903e-11
-1.7714052e-11
-2.9102609e-11
-2.6813662e-11
-2.026368e-11
-1.6966206e-11
-1.2926327e-11
-7.5135453e-12
3.5471626e-12
-1.0722534e-11
4.0745185e-14
1.142908e-11
2.7182367e-11
2.3528068e-11
1.9992674e-11
-3.0495606e-12
1.8570034e-11
8.806067e-12
2.5507041e-11
1.2925883e-11
3.7459147e-11
4.4456661e-11
3.8059e-11
5.6326499e-11
6.4585781e-11
1.0708689e-10
1.6596591e-10
2.8388714e-10
5.1438898e-10
8.7762364e-10
1.4780928e-09
2.4886305e-09
4.1287883e-09
6.8358537e-09
1.1210705e-08
1.8370525e-08
2.9891339e-08
4.8497274e-08
7.826836e-08
1.2573497e-07
2.0097738e-07
3.1952321e-07
5.0534398e-07
7.9490632e-07
1.2434891e-06
1.9342198e-06
2.991159e-06
4.5981106e-06
7.0252487e-06
1.0666465e-05
1.6090888e-05
2.4113964e-05
3.5892927e-05
5.305434e-05
7.7861384e-05
0.00011342955
0.00016400023
0.00023528002
0.00033485265
0.00047266544
0.00066158751
0.00091802575
0.0012625756
0.0017206669
0.0023231518
0.0031067643
0.0041143723
0.0053949331
0.0070030706
0.0089982064
0.011443208
0.014402554
0.017940084
0.022116413
0.026986201
0.032595437
0.038978944
0.046158312
0.054140394
0.062916488
0.072462242
0.082738265
0.093691363
0.10525629
0.11735786
0.12991328
0.14283458
0.15603084
0.16941032
0.18288226
0.19635846
0.20975451
0.22299069
0.23599296
0.24869216
0.26102941
0.27293842
0.28440093
0.29529624
0.30575667
0.31544908
0.32478427
0.3333101
0.34115844
0.34881665
0.35505864
0.36144843
0.36684012
0.37148691
0.37592391
0.37952002
0.38266418
0.38519547
0.38738721
0.3890623
0.39030879
0.39113464
0.39172184
0.39203618
0.39213057
0.39206725
0.3918981
0.39168616
0.39146644
0.39124557
0.39102943
0.39082022
0.39055607
0.39018449
0.38980039
0.38933564
0.38881788
0.38831931
0.38682042
0.3848871
0.38128152
0.37600869
0.36893472
0.36014746
0.3499018
0.33859207
0.32674401
0.31485088
0.30339275
0.29276485
0.28322401
0.2749142
0.2678826
0.26207845
0.25737167
0.25362732
0.2506448
0.24824762
0.24628093
0.24453579
0.24284631
0.2410647
0.23903594
0.23650328
0.23344572
0.22956855
0.22459605
0.21827856
0.21033995
0.20048836
0.18843873
0.173953
0.15690522
0.13737751
0.11578448
0.09299949
0.070408748
0.049758707
0.032676203
0.020018624
0.011581904
0.0064320137
0.0034811845
0.0018565989
0.00098234026
0.00051756595
0.00027204016
0.00014276788
7.4834801e-05
3.9182606e-05
2.0492496e-05
1.0704983e-05
5.5852051e-06
2.9102283e-06
1.5143407e-06
7.8687579e-07
4.0827187e-07
2.1151286e-07
1.0940648e-07
5.6507182e-08
2.9135312e-08
1.4996203e-08
7.7045434e-09
3.9543235e-09
2.0225567e-09
1.0344659e-09
5.2974597e-10
2.7204977e-10
1.3917505e-10
7.4860854e-11
4.0080883e-11
2.2056662e-11
9.6219283e-12
5.1161575e-12
3.200773e-12
-1.1888268e-12
1.2770895e-12
-3.1949443e-12
-3.8078568e-12
-1.8013507e-12
1.050382e-12
5.1053189e-12
4.4333842e-12
2.3027275e-12
4.1707332e-12
5.1612881e-13
-6.0824956e-13
-1.6969759e-12
-1.1795148e-12
3.0421499e-13
-4.8448051e-12
-3.2749359e-12
-6.3489908e-12
-8.54114e-12
-4.9210774e-12
-5.9141303e-12
-2.1142949e-12
-2.4098223e-12
-5.413156e-12
-3.5354636e-12
-2.9137942e-12
-3.0586644e-14
-2.807532e-12
-3.1522424e-12
1.1032841e-12
-1.4866719e-12
1.2655432e-12
-1.063441e-12
2.0472513e-13
-4.6379567e-14
1.661532e-12
5.2677307e-12
2.393849e-12
5.2280402e-12
2.8956282e-12
1.7393587e-12
2.5860286e-12
1.9308721e-12
-9.3966501e-13
-4.0536186e-12
-5.1764149e-13
-1.7052054e-12
-1.9299423e-12
-2.4311803e-12
-3.7179287e-12
-3.8136994e-12
-3.1181308e-12
1.1198403e-12
1.6810026e-12
1.555811e-12
4.8590576e-12
1.7796042e-12
1.9260288e-12
3.7335968e-12
-1.2267826e-12
-8.2774065e-13
1.1496082e-12
4.6593285e-13
5.661166e-13
1.4740431e-12
4.7561399e-12
1.2402301e-12
1.8171298e-12
-2.3715335e-12
-1.720124e-12
-1.867409e-12
-3.6889936e-13
-1.7320173e-12
-3.0271619e-13
5.0137672e-13
-8.9127317e-13
-3.5643849e-12
-6.9555472e-13
2.4765329e-12
8.8486163e-13
6.7557071e-14
-1.2084916e-12
1.7869733e-12
-7.3048512e-13
-2.3419322e-12
-1.6070478e-13
-1.6207591e-12
-2.130518e-12
-3.1427222e-12
-1.8084145e-13
-1.4675899e-12
-3.5255271e-12
3.663736e-15
-1.4206691e-13
-2.6175451e-12
-2.2155749e-12
-2.920289e-12
-4.9329013e-12
-2.2676722e-12
-4.4751286e-12
-4.2921361e-12
-4.5421999e-12
-1.438849e-13
3.6027015e-12
2.4726471e-12
3.8047204e-12
5.8319322e-12
5.2729487e-12
4.238776e-12
3.7795878e-12
5.9477284e-12
5.0910387e-12
3.9784981e-12
4.949971e-12
4.6661841e-12
6.1644162e-12
5.4994204e-12
4.3986481e-12
1.8344493e-12
7.2264972e-12
4.7627874e-12
3.8204162e-13
5.7522737e-12
3.93581e-12
2.9811154e-12
3.7399944e-12
3.3799769e-12
4.9265453e-12
3.0595804e-12
4.0650538e-12
6.5147193e-12
7.6412487e-13
-3.8011261e-13
-1.9318019e-12
-1.2748275e-12
-1.1961682e-12
-4.0338011e-12
-2.3144126e-12
-2.5071889e-12
-2.8874542e-12
-7.7147594e-12
-5.8819338e-12
-6.1745609e-12
-5.2371996e-12
-5.31232e-12
-3.8963693e-12
-3.3524988e-12
-1.1319556e-12
1.0365597e-12
-4.0827758e-12
-2.1601054e-12
-1.2550516e-12
-2.7067237e-13
-3.6735753e-12
-7.536749e-13
-4.0470405e-13
6.4870331e-13
-2.1889435e-13
-3.2998188e-12
-1.75987e-12
-3.6121522e-12
-2.7658292e-12
-1.9714924e-12
-2.7265967e-12
-2.2272184e-12
-3.9733494e-13
-7.4959483e-13
-1.4246798e-12
-1.0606099e-12
-4.7644666e-12
-4.653597e-12
-2.745984e-12
-1.9077517e-12
-1.4564044e-12
-1.6607826e-12
1.4632046e-12
-2.3211988e-12
8.1784579e-13
-2.9391073e-12
4.7676862e-12
3.147857e-12
1.3614804e-12
2.0880658e-12
1.7360557e-12
5.6692151e-13
-2.4452385e-12
-2.0720647e-12
-2.2580132e-12
-1.9626523e-12
-1.9151625e-12
-2.5886099e-12
-1.4632601e-12
-6.4105526e-12
-3.379963e-12
-4.1029402e-12
-1.1747409e-12
-1.7255919e-12
-3.0742076e-12
-1.7007229e-12
-2.0127372e-12
-2.084527e-12
-6.4255545e-13
-4.1721071e-12
-3.2468195e-12
-1.8373914e-12
-1.0382251e-12
-4.3089005e-12
-4.3605258e-12
-2.9418828e-12
-4.7794546e-12
-1.3740536e-12
-2.7203795e-12
4.6503079e-13
-2.1679325e-12
5.3183846e-13
-5.6260552e-14
2.8136243e-12
2.8494013e-12
3.4250797e-12
-8.2364671e-13
-1.8156171e-12
1.3470197e-12
3.0104808e-12
8.0199736e-13
2.7287894e-13
6.3514471e-13
-3.8448411e-13
-1.3686691e-12
1.4995782e-12
-2.6019464e-13
3.0105085e-13
-8.12031e-13
-3.6906173e-12
-3.1443043e-12
-6.9076689e-13
-2.6928737e-12
-3.4974246e-12
-1.1231571e-12
-9.8354658e-13
1.0486889e-12
-5.3132498e-13
-2.9633795e-12
-4.3953868e-12
-3.149786e-12
-5.4464766e-13
6.9315387e-13
8.0388474e-13
-3.37258e-13
-1.1984164e-12
9.2960362e-13
8.2604756e-13
-1.6542046e-12
-4.4407533e-13
1.7299079e-12
1.1813467e-12
3.3310438e-12
3.8282016e-12
2.1097291e-12
4.1048137e-12
4.4986515e-12
3.2033959e-12
4.534817e-12
2.8611974e-12
-6.3549166e-13
-3.6742137e-12
-1.4280382e-12
-4.3830217e-13
-3.8472003e-13
-3.4704184e-13
-1.4415136e-12
-9.4875496e-13
-6.5326911e-13
-2.1752461e-12
-4.2002513e-13
-1.5167312e-12
-2.3700902e-12
-3.368042e-12
-2.0168173e-12
-9.4789454e-13
-5.6400717e-13
1.5079882e-12
9.5939923e-13
1.5280555e-12
3.6914916e-13
-5.3081151e-13
4.9174137e-12
4.5311949e-12
2.9854452e-12
1.7069124e-12
2.9887759e-12
2.3212265e-12
-7.567974e-13
-1.5077106e-12
-3.6341624e-12
-2.7328695e-12
2.441658e-13
-2.6257746e-12
-3.4008074e-12
2.7154667e-13
-3.8802295e-14
-4.704015e-13
-2.3547275e-12
-5.1778998e-12
-2.6645908e-12
-3.3487241e-12
-6.9101252e-12
-4.7197801e-12
-3.9039882e-12
-2.3977764e-12
6.5338013e-13
-3.9174358e-12
-5.7443633e-12
-5.3342469e-12
-1.1399354e-12
-1.8530733e-12
1.2913143e-12
-2.9450054e-13
1.9406005e-12
4.087522e-12
1.561612e-12
4.2096882e-12
1.2799484e-12
2.8311797e-12
-7.990969e-13
1.779854e-12
-2.7227665e-12
-4.5408122e-14
-5.9774408e-13
1.88774e-12
2.5661001e-12
1.6697616e-12
2.0953655e-12
1.0087486e-12
-1.8679502e-14
1.7625901e-12
3.0630082e-12
1.7534862e-12
3.9979131e-13
-3.4283687e-13
2.7755853e-12
1.266473e-12
-1.1428497e-12
-1.172451e-12
-3.8956061e-12
-6.7498923e-12
-5.3080734e-12
-6.1611827e-12
-1.8136187e-12
-1.3204021e-12
-8.9428465e-14
-2.3993169e-12
-8.0148388e-13
-1.982442e-12
5.6860072e-13
1.1538964e-12
5.16652e-12
5.4888177e-12
2.4313884e-12
2.9468095e-12
4.5575349e-12
5.545453e-12
3.8959669e-12
3.2923247e-12
3.5280945e-12
2.372269e-12
-2.0593804e-12
1.7012641e-12
-3.1564057e-12
-6.8070688e-12
-7.7673978e-12
-1.7091051e-12
-3.2102793e-12
-1.0292184e-12
-1.7834345e-13
2.3366031e-13
-1.0529494e-12
2.2235686e-12
2.2393337e-12
-3.1986913e-13
-4.5903559e-13
-3.8916925e-12
1.003253e-12
-1.457362e-12
2.0764085e-12
3.7087833e-12
4.8818033e-12
3.5006859e-12
1.4462043e-12
3.054848e-12
4.2544163e-12
3.4830194e-12
4.9858034e-12
5.4333898e-12
3.3515551e-12
4.7878923e-12
4.6035814e-12
4.236847e-12
3.7405634e-12
5.0509735e-12
2.3763908e-12
2.3466645e-12
-3.1985525e-13
-2.1074392e-12
-1.1886325e-13
5.9426075e-13
1.272274e-12
)
;

boundaryField
{
    sides
    {
        type            calculated;
        value           nonuniform List<scalar> 2(4.4363304e-22 2.2077288e-21);
    }
    emptywalls
    {
        type            empty;
        value           nonuniform List<scalar> 0();
    }
}


// ************************************************************************* //
