/*--------------------------------*- C++ -*----------------------------------*\
| =========                 |                                                 |
| \\      /  F ield         | OpenFOAM: The Open Source CFD Toolbox           |
|  \\    /   O peration     | Version:  2112                                  |
|   \\  /    A nd           | Website:  www.openfoam.com                      |
|    \\/     M anipulation  |                                                 |
\*---------------------------------------------------------------------------*/
FoamFile
{
    version     2.0;
    format      ascii;
    arch        "LSB;label=32;scalar=64";
    class       volVectorField;
    location    "0.03";
    object      U;
}
// * * * * * * * * * * * * * * * * * * * * * * * * * * * * * * * * * * * * * //

dimensions      [0 1 -1 0 0 0 0];

internalField   nonuniform List<vector> 
1000
(
(-2.2103533e-21 0 0)
(-1.1541149e-11 0 0)
(-1.1945529e-11 0 0)
(8.01867e-13 0 0)
(6.3391288e-12 0 0)
(1.2517417e-11 0 0)
(1.5528698e-11 0 0)
(1.794019e-11 0 0)
(1.0811977e-11 0 0)
(1.0566326e-11 0 0)
(1.2912793e-11 0 0)
(1.4593668e-11 0 0)
(2.5422319e-11 0 0)
(3.170876e-11 0 0)
(1.769943e-11 0 0)
(4.034756e-11 0 0)
(2.4654131e-11 0 0)
(3.4181832e-11 0 0)
(3.3802574e-11 0 0)
(5.5581588e-11 0 0)
(4.2648787e-11 0 0)
(3.7602605e-11 0 0)
(3.0177388e-11 0 0)
(3.721312e-11 0 0)
(4.8693024e-11 0 0)
(2.8081574e-11 0 0)
(2.1006492e-11 0 0)
(1.5091417e-11 0 0)
(1.9489903e-11 0 0)
(1.7951973e-11 0 0)
(-1.2576663e-11 0 0)
(-8.4297186e-12 0 0)
(6.2249734e-12 0 0)
(8.1859572e-12 0 0)
(1.4905234e-11 0 0)
(-1.139098e-11 0 0)
(4.463956e-12 0 0)
(-1.5970203e-11 0 0)
(1.3325954e-11 0 0)
(6.2304199e-12 0 0)
(1.7278822e-11 0 0)
(1.1367637e-11 0 0)
(1.3147551e-11 0 0)
(2.3764564e-11 0 0)
(7.1742309e-12 0 0)
(6.494189e-12 0 0)
(1.81077e-11 0 0)
(1.3121986e-11 0 0)
(4.6308875e-11 0 0)
(2.4100805e-11 0 0)
(3.1441768e-11 0 0)
(1.84505e-11 0 0)
(6.7164976e-12 0 0)
(-1.1883949e-11 0 0)
(-1.3901511e-11 0 0)
(-3.8762833e-12 0 0)
(1.5989321e-11 0 0)
(1.4133045e-11 0 0)
(1.5686648e-11 0 0)
(2.5661411e-11 0 0)
(6.6857079e-12 0 0)
(1.0491186e-11 0 0)
(6.9685955e-12 0 0)
(2.7482897e-12 0 0)
(-9.4381102e-12 0 0)
(-1.3780797e-11 0 0)
(7.0427354e-13 0 0)
(9.6762027e-12 0 0)
(8.0316751e-12 0 0)
(4.3514679e-12 0 0)
(-1.0446835e-11 0 0)
(1.7576827e-11 0 0)
(1.2117262e-11 0 0)
(2.8408367e-11 0 0)
(1.4319117e-11 0 0)
(1.9889503e-11 0 0)
(1.7185675e-11 0 0)
(2.8437712e-11 0 0)
(8.1571683e-12 0 0)
(-8.2387556e-13 0 0)
(-5.2174709e-12 0 0)
(1.1299611e-11 0 0)
(-2.2286656e-11 0 0)
(-1.129661e-11 0 0)
(-1.9376415e-11 0 0)
(1.3927521e-11 0 0)
(2.7735217e-12 0 0)
(6.7546235e-12 0 0)
(-3.2836976e-11 0 0)
(-2.5055732e-11 0 0)
(-2.5200232e-11 0 0)
(-2.9421427e-12 0 0)
(-1.8540201e-11 0 0)
(-1.3857827e-11 0 0)
(-1.761084e-11 0 0)
(-2.0036894e-11 0 0)
(-1.2844989e-11 0 0)
(-1.3876612e-11 0 0)
(1.5637185e-12 0 0)
(-1.591407e-11 0 0)
(-1.9240695e-11 0 0)
(-1.4787744e-11 0 0)
(-3.9726541e-12 0 0)
(-9.8756135e-12 0 0)
(9.8427118e-13 0 0)
(3.6615333e-12 0 0)
(1.3193902e-11 0 0)
(5.5588257e-12 0 0)
(1.2065242e-11 0 0)
(-3.81915e-12 0 0)
(3.2035776e-12 0 0)
(-1.9636516e-12 0 0)
(-1.0392926e-12 0 0)
(-1.93105e-11 0 0)
(-9.0297294e-12 0 0)
(-1.5169559e-11 0 0)
(-3.4902556e-11 0 0)
(-2.0282322e-11 0 0)
(-7.7483428e-12 0 0)
(-1.2087695e-11 0 0)
(-1.6328898e-11 0 0)
(7.5324812e-12 0 0)
(-6.824873e-13 0 0)
(1.3371527e-11 0 0)
(1.0334903e-11 0 0)
(6.6172368e-12 0 0)
(-2.2275318e-12 0 0)
(-8.5893361e-12 0 0)
(4.9040159e-12 0 0)
(-1.0251093e-11 0 0)
(2.8178722e-12 0 0)
(1.0824093e-11 0 0)
(4.1965966e-11 0 0)
(3.6294097e-12 0 0)
(5.1382179e-12 0 0)
(-4.5981193e-12 0 0)
(1.6639796e-13 0 0)
(-3.6567536e-12 0 0)
(8.9846008e-13 0 0)
(-1.2082471e-13 0 0)
(1.2646023e-11 0 0)
(4.5058612e-12 0 0)
(6.9587028e-12 0 0)
(-1.2682704e-12 0 0)
(7.369529e-12 0 0)
(8.840656e-12 0 0)
(1.0378587e-11 0 0)
(-7.2069103e-12 0 0)
(-3.3587712e-11 0 0)
(-6.7910821e-12 0 0)
(-1.3987877e-11 0 0)
(-2.2798855e-11 0 0)
(-1.8085135e-11 0 0)
(-1.3647301e-11 0 0)
(1.0412933e-12 0 0)
(-6.3153418e-12 0 0)
(-1.1010721e-11 0 0)
(-1.879719e-11 0 0)
(-1.0301557e-11 0 0)
(-7.9945496e-12 0 0)
(5.1115409e-12 0 0)
(-2.3923959e-11 0 0)
(-1.7392311e-12 0 0)
(-9.1240994e-12 0 0)
(-2.1621842e-11 0 0)
(-1.2059573e-11 0 0)
(-9.9283006e-13 0 0)
(-1.5469231e-11 0 0)
(3.0918676e-12 0 0)
(-8.0439021e-12 0 0)
(-1.0157612e-11 0 0)
(-1.2856994e-11 0 0)
(2.9433654e-12 0 0)
(5.7844689e-13 0 0)
(2.6687032e-12 0 0)
(3.1148765e-12 0 0)
(-3.3748664e-12 0 0)
(7.589281e-12 0 0)
(-2.1265704e-11 0 0)
(-5.9349718e-12 0 0)
(-2.2908453e-11 0 0)
(-2.2911566e-11 0 0)
(-2.1829256e-11 0 0)
(-2.9954523e-11 0 0)
(-2.8333005e-11 0 0)
(-2.4726937e-11 0 0)
(-3.2674802e-11 0 0)
(-6.1819567e-12 0 0)
(-3.9853035e-11 0 0)
(-3.9690972e-12 0 0)
(-1.727382e-11 0 0)
(7.8372662e-12 0 0)
(8.3476872e-14 0 0)
(-1.6039563e-12 0 0)
(-6.2036317e-12 0 0)
(-1.0369472e-11 0 0)
(-9.7082152e-13 0 0)
(-6.9942722e-12 0 0)
(-5.8107014e-12 0 0)
(-2.5644849e-11 0 0)
(1.0756511e-11 0 0)
(-7.6350766e-12 0 0)
(1.1264153e-11 0 0)
(-4.6204613e-12 0 0)
(-5.1922389e-12 0 0)
(1.9008494e-12 0 0)
(-5.401209e-12 0 0)
(-1.2484738e-11 0 0)
(-4.2756607e-12 0 0)
(-2.2152826e-11 0 0)
(-1.9821477e-11 0 0)
(-1.2918351e-11 0 0)
(-2.6161272e-12 0 0)
(5.1686742e-12 0 0)
(1.5572826e-11 0 0)
(6.9598143e-12 0 0)
(8.9600357e-12 0 0)
(-3.3535247e-12 0 0)
(-1.926904e-11 0 0)
(-6.6718136e-12 0 0)
(9.6192917e-13 0 0)
(1.2575996e-12 0 0)
(-6.8953448e-12 0 0)
(-9.0619641e-12 0 0)
(-1.248585e-11 0 0)
(-1.6636128e-11 0 0)
(-4.0566868e-12 0 0)
(-1.6144715e-11 0 0)
(-5.9639831e-12 0 0)
(-1.9769679e-11 0 0)
(1.2048013e-12 0 0)
(-2.639125e-11 0 0)
(5.1734538e-12 0 0)
(-2.3938742e-11 0 0)
(-1.3035952e-11 0 0)
(-1.1973762e-11 0 0)
(-4.3465771e-12 0 0)
(5.7533457e-13 0 0)
(-1.6085803e-11 0 0)
(1.2223748e-11 0 0)
(2.9911618e-12 0 0)
(9.1076486e-12 0 0)
(-1.5866162e-12 0 0)
(-8.3699176e-12 0 0)
(-8.3122285e-12 0 0)
(-1.17579e-12 0 0)
(-8.5593245e-12 0 0)
(1.2322564e-12 0 0)
(7.4146577e-12 0 0)
(2.6940686e-11 0 0)
(1.4144383e-11 0 0)
(4.0331332e-11 0 0)
(3.3481004e-11 0 0)
(2.7818916e-11 0 0)
(2.598098e-11 0 0)
(1.7903509e-11 0 0)
(5.0746377e-12 0 0)
(8.9345813e-12 0 0)
(5.778022e-12 0 0)
(2.4812748e-11 0 0)
(2.6916899e-11 0 0)
(3.2717041e-11 0 0)
(5.36375e-12 0 0)
(1.0274769e-11 0 0)
(1.7551928e-11 0 0)
(-1.471905e-12 0 0)
(8.1805107e-12 0 0)
(-2.4246529e-11 0 0)
(-1.8972925e-12 0 0)
(-1.0869777e-11 0 0)
(-1.0043901e-12 0 0)
(-2.4955693e-11 0 0)
(-1.5748005e-11 0 0)
(-2.2825421e-11 0 0)
(-1.1410098e-11 0 0)
(-2.8059676e-11 0 0)
(7.1130961e-12 0 0)
(-1.4506301e-11 0 0)
(-5.4425584e-12 0 0)
(5.9809897e-12 0 0)
(-7.0138353e-12 0 0)
(-6.756402e-12 0 0)
(-6.8535508e-12 0 0)
(8.0826949e-12 0 0)
(-5.613736e-12 0 0)
(1.4976261e-11 0 0)
(-5.3130636e-12 0 0)
(4.621017e-12 0 0)
(-6.5443196e-12 0 0)
(9.793137e-12 0 0)
(1.6389921e-11 0 0)
(2.0170834e-11 0 0)
(1.526026e-11 0 0)
(9.2355871e-12 0 0)
(2.5945633e-12 0 0)
(-5.9247456e-12 0 0)
(1.089412e-11 0 0)
(-1.8648021e-11 0 0)
(-1.987672e-11 0 0)
(-2.2691369e-11 0 0)
(-1.9753895e-11 0 0)
(-2.1295605e-11 0 0)
(-1.9270596e-11 0 0)
(-3.8455492e-11 0 0)
(-1.5859382e-11 0 0)
(-4.4119581e-11 0 0)
(-2.4618228e-11 0 0)
(-3.2259863e-11 0 0)
(-1.6337901e-11 0 0)
(-3.2148042e-12 0 0)
(-7.1913487e-12 0 0)
(-1.938753e-12 0 0)
(-5.3048382e-12 0 0)
(7.4522278e-12 0 0)
(-1.6569769e-11 0 0)
(2.3153437e-13 0 0)
(1.2085805e-12 0 0)
(6.4340546e-12 0 0)
(-7.5118065e-13 0 0)
(8.1801772e-12 0 0)
(-1.2893898e-14 0 0)
(-1.413549e-12 0 0)
(3.9916615e-12 0 0)
(5.9328599e-12 0 0)
(2.0048898e-12 0 0)
(2.2415929e-11 0 0)
(2.3434991e-11 0 0)
(2.2098583e-11 0 0)
(2.4019329e-11 0 0)
(1.5269486e-11 0 0)
(2.2562763e-11 0 0)
(2.0433937e-11 0 0)
(1.9281267e-11 0 0)
(1.247529e-11 0 0)
(-7.3417405e-13 0 0)
(2.5091968e-12 0 0)
(1.3045511e-11 0 0)
(8.7877465e-12 0 0)
(1.3053514e-11 0 0)
(6.6103453e-13 0 0)
(3.3480782e-12 0 0)
(-1.0165059e-11 0 0)
(5.8243733e-12 0 0)
(-1.0853215e-11 0 0)
(-2.1142545e-11 0 0)
(-1.4837985e-12 0 0)
(-2.8633677e-11 0 0)
(1.5324841e-12 0 0)
(7.100091e-12 0 0)
(1.7159776e-11 0 0)
(2.7734328e-11 0 0)
(7.773686e-12 0 0)
(1.3547706e-11 0 0)
(-3.173566e-12 0 0)
(1.746345e-12 0 0)
(2.8773398e-12 0 0)
(-1.9642852e-11 0 0)
(-9.599284e-12 0 0)
(-2.9549033e-11 0 0)
(-1.2865553e-11 0 0)
(-3.0655129e-11 0 0)
(-3.4654571e-11 0 0)
(-4.9109408e-11 0 0)
(-4.1912612e-11 0 0)
(-3.9971414e-11 0 0)
(-5.1875704e-12 0 0)
(-2.9186892e-11 0 0)
(-2.7048395e-11 0 0)
(-5.5577142e-14 0 0)
(-8.2339759e-12 0 0)
(-9.1940154e-12 0 0)
(-2.0064682e-11 0 0)
(7.2132461e-12 0 0)
(5.0236179e-12 0 0)
(5.5877259e-12 0 0)
(1.388506e-11 0 0)
(5.3998751e-12 0 0)
(-2.8584436e-12 0 0)
(-7.5333704e-12 0 0)
(-4.3883711e-13 0 0)
(5.9616489e-12 0 0)
(3.2251749e-11 0 0)
(3.1341951e-11 0 0)
(2.4096137e-11 0 0)
(-1.0037232e-12 0 0)
(-2.8091244e-11 0 0)
(-1.7275376e-11 0 0)
(-2.898837e-11 0 0)
(-1.3142327e-11 0 0)
(-2.126626e-11 0 0)
(1.0321787e-12 0 0)
(-1.3280047e-11 0 0)
(4.322012e-12 0 0)
(-1.002067e-11 0 0)
(9.3980947e-12 0 0)
(1.5760455e-11 0 0)
(1.8123595e-11 0 0)
(1.9002158e-11 0 0)
(1.439159e-11 0 0)
(2.9799352e-12 0 0)
(1.9324839e-11 0 0)
(5.2824962e-12 0 0)
(7.5108061e-12 0 0)
(1.8209072e-11 0 0)
(4.6621108e-11 0 0)
(3.7537691e-11 0 0)
(4.3669295e-11 0 0)
(5.2962126e-11 0 0)
(8.6949327e-11 0 0)
(1.3007508e-10 0 0)
(2.2016751e-10 0 0)
(3.9090205e-10 0 0)
(6.8111977e-10 0 0)
(1.1733752e-09 0 0)
(1.9863996e-09 0 0)
(3.2906787e-09 0 0)
(5.4787815e-09 0 0)
(9.0049901e-09 0 0)
(1.4767171e-08 0 0)
(2.408849e-08 0 0)
(3.913553e-08 0 0)
(6.329113e-08 0 0)
(1.0186801e-07 0 0)
(1.6313222e-07 0 0)
(2.5991146e-07 0 0)
(4.1192897e-07 0 0)
(6.4935159e-07 0 0)
(1.0180255e-06 0 0)
(1.5871309e-06 0 0)
(2.460135e-06 0 0)
(3.7909055e-06 0 0)
(5.806295e-06 0 0)
(8.8381828e-06 0 0)
(1.3367879e-05 0 0)
(2.0087473e-05 0 0)
(2.9983168e-05 0 0)
(4.4446781e-05 0 0)
(6.5423491e-05 0 0)
(9.5603599e-05 0 0)
(0.00013866785 0 0)
(0.00019959519 0 0)
(0.00028504054 0 0)
(0.00040378803 0 0)
(0.0005672801 0 0)
(0.00079021619 0 0)
(0.0010912054 0 0)
(0.0014934462 0 0)
(0.0020253922 0 0)
(0.0027213524 0 0)
(0.0036219594 0 0)
(0.0047744362 0 0)
(0.0062325891 0 0)
(0.0080564656 0 0)
(0.010311635 0 0)
(0.013068076 0 0)
(0.0163987 0 0)
(0.020377561 0 0)
(0.025077861 0 0)
(0.030569856 0 0)
(0.036918822 0 0)
(0.044183191 0 0)
(0.052412995 0 0)
(0.061648685 0 0)
(0.071920397 0 0)
(0.083247657 0 0)
(0.095639508 0 0)
(0.109095 0 0)
(0.123604 0 0)
(0.13914821 0 0)
(0.15570223 0 0)
(0.1732347 0 0)
(0.19170934 0 0)
(0.21108592 0 0)
(0.23132105 0 0)
(0.25236881 0 0)
(0.27418127 0 0)
(0.29670875 0 0)
(0.31989995 0 0)
(0.34370223 0 0)
(0.36806071 0 0)
(0.39292084 0 0)
(0.41821966 0 0)
(0.4439102 0 0)
(0.46989772 0 0)
(0.49618389 0 0)
(0.5225815 0 0)
(0.54919368 0 0)
(0.57575132 0 0)
(0.60231785 0 0)
(0.62879592 0 0)
(0.65491171 0 0)
(0.68090865 0 0)
(0.7063554 0 0)
(0.73115741 0 0)
(0.75541168 0 0)
(0.77876007 0 0)
(0.80102123 0 0)
(0.82200059 0 0)
(0.84147905 0 0)
(0.85922725 0 0)
(0.87500538 0 0)
(0.88862169 0 0)
(0.89997038 0 0)
(0.90903553 0 0)
(0.91591066 0 0)
(0.92081644 0 0)
(0.92407827 0 0)
(0.92611914 0 0)
(0.92726316 0 0)
(0.92782825 0 0)
(0.92808491 0 0)
(0.92811212 0 0)
(0.9281909 0 0)
(0.92822712 0 0)
(0.92829235 0 0)
(0.92846476 0 0)
(0.92823095 0 0)
(0.92806521 0 0)
(0.92787741 0 0)
(0.92756224 0 0)
(0.92734486 0 0)
(0.92713516 0 0)
(0.92694142 0 0)
(0.92674109 0 0)
(0.9265715 0 0)
(0.92641678 0 0)
(0.92628554 0 0)
(0.92617379 0 0)
(0.92606571 0 0)
(0.92592361 0 0)
(0.92572508 0 0)
(0.92554524 0 0)
(0.92526579 0 0)
(0.92487176 0 0)
(0.92432367 0 0)
(0.92356493 0 0)
(0.92255111 0 0)
(0.9211993 0 0)
(0.91932645 0 0)
(0.91683631 0 0)
(0.91355925 0 0)
(0.90911798 0 0)
(0.90338144 0 0)
(0.89600331 0 0)
(0.88625181 0 0)
(0.87353608 0 0)
(0.85715373 0 0)
(0.83616692 0 0)
(0.80944085 0 0)
(0.77563068 0 0)
(0.73320299 0 0)
(0.68053664 0 0)
(0.61618725 0 0)
(0.53945294 0 0)
(0.45138164 0 0)
(0.35609778 0 0)
(0.26150275 0 0)
(0.17757739 0 0)
(0.111956 0 0)
(0.066392172 0 0)
(0.037620791 0 0)
(0.020660608 0 0)
(0.011122873 0 0)
(0.005918064 0 0)
(0.0031277238 0 0)
(0.0016466145 0 0)
(0.0008647797 0 0)
(0.00045339278 0 0)
(0.00023737381 0 0)
(0.0001241161 0 0)
(6.4813863e-05 0 0)
(3.3801962e-05 0 0)
(1.7604798e-05 0 0)
(9.1562492e-06 0 0)
(4.7552852e-06 0 0)
(2.4659898e-06 0 0)
(1.276854e-06 0 0)
(6.6011614e-07 0 0)
(3.4072259e-07 0 0)
(1.7559046e-07 0 0)
(9.030959e-08 0 0)
(4.6389197e-08 0 0)
(2.3771816e-08 0 0)
(1.2166402e-08 0 0)
(6.2059083e-09 0 0)
(3.1656024e-09 0 0)
(1.6348846e-09 0 0)
(8.5114107e-10 0 0)
(4.5787784e-10 0 0)
(2.3688663e-10 0 0)
(1.237745e-10 0 0)
(5.2761495e-11 0 0)
(3.6507116e-11 0 0)
(-6.4846363e-12 0 0)
(-2.1056782e-12 0 0)
(7.2948967e-12 0 0)
(-5.0874143e-11 0 0)
(6.4122678e-12 0 0)
(-1.6434301e-11 0 0)
(2.8657912e-11 0 0)
(2.8057987e-11 0 0)
(2.0788175e-11 0 0)
(1.6806466e-11 0 0)
(1.5318251e-11 0 0)
(-6.3347936e-12 0 0)
(-1.1309904e-11 0 0)
(-5.671934e-12 0 0)
(-2.9777626e-12 0 0)
(-2.5749854e-11 0 0)
(-3.6901702e-11 0 0)
(-3.4259254e-11 0 0)
(-4.6910305e-11 0 0)
(-3.8263716e-11 0 0)
(-2.8638377e-11 0 0)
(-3.6967966e-11 0 0)
(-8.6069637e-12 0 0)
(-3.471411e-11 0 0)
(-4.4772882e-11 0 0)
(-1.641521e-11 0 0)
(-2.0052725e-11 0 0)
(6.5520099e-13 0 0)
(-3.0500089e-11 0 0)
(-1.3636683e-11 0 0)
(-2.3258914e-12 0 0)
(9.0942299e-12 0 0)
(-1.8507569e-11 0 0)
(3.5246329e-12 0 0)
(-1.7082843e-11 0 0)
(1.3488616e-11 0 0)
(8.1858502e-12 0 0)
(1.4283226e-11 0 0)
(2.396939e-11 0 0)
(6.9903276e-12 0 0)
(2.2213123e-11 0 0)
(8.8555915e-12 0 0)
(3.5330907e-11 0 0)
(-5.0925423e-12 0 0)
(-2.1714758e-11 0 0)
(-1.5227457e-11 0 0)
(3.6539414e-13 0 0)
(-2.2057398e-11 0 0)
(-8.0706379e-12 0 0)
(-3.3770101e-11 0 0)
(-3.1120771e-11 0 0)
(-1.8941891e-11 0 0)
(-2.134681e-11 0 0)
(2.5098538e-11 0 0)
(-9.4786041e-12 0 0)
(3.6689369e-11 0 0)
(2.5950977e-11 0 0)
(2.5129173e-11 0 0)
(4.0904832e-12 0 0)
(2.1311736e-11 0 0)
(-1.7999547e-11 0 0)
(4.7587816e-12 0 0)
(4.2788411e-13 0 0)
(1.0892786e-11 0 0)
(-3.6840211e-12 0 0)
(2.3924105e-11 0 0)
(7.9385543e-12 0 0)
(2.8333142e-11 0 0)
(-1.2497657e-11 0 0)
(-6.102815e-12 0 0)
(-2.8385532e-11 0 0)
(-1.4855515e-12 0 0)
(1.556699e-12 0 0)
(-3.1190587e-12 0 0)
(3.4175231e-13 0 0)
(2.4050305e-12 0 0)
(-1.7050765e-11 0 0)
(-8.4291504e-12 0 0)
(-2.6970573e-12 0 0)
(1.308171e-11 0 0)
(3.4166351e-12 0 0)
(-6.0154622e-12 0 0)
(1.3285829e-11 0 0)
(-6.7483594e-12 0 0)
(-1.6819564e-11 0 0)
(-1.3858006e-11 0 0)
(8.7591372e-12 0 0)
(-1.7973241e-11 0 0)
(-1.7683878e-11 0 0)
(-9.5872678e-12 0 0)
(2.2074602e-12 0 0)
(-1.6912133e-11 0 0)
(-2.6145328e-11 0 0)
(-2.8432371e-12 0 0)
(5.7040114e-13 0 0)
(-4.9732231e-12 0 0)
(-1.8470164e-11 0 0)
(-4.5216861e-11 0 0)
(-2.0352188e-11 0 0)
(-3.3237327e-11 0 0)
(-4.0650211e-11 0 0)
(-3.5139219e-11 0 0)
(-2.0091684e-11 0 0)
(7.9513187e-12 0 0)
(2.7044273e-11 0 0)
(1.5490071e-11 0 0)
(5.9138023e-11 0 0)
(3.2055568e-11 0 0)
(3.7265209e-11 0 0)
(4.0969542e-11 0 0)
(2.1480337e-11 0 0)
(4.5331407e-11 0 0)
(2.9786172e-11 0 0)
(3.2381559e-11 0 0)
(2.8083849e-11 0 0)
(4.7595142e-11 0 0)
(2.8858924e-11 0 0)
(3.2796012e-11 0 0)
(2.52405e-11 0 0)
(4.8309503e-11 0 0)
(4.0673298e-11 0 0)
(2.6847036e-11 0 0)
(1.1659093e-11 0 0)
(3.0154341e-11 0 0)
(3.581451e-11 0 0)
(1.7596193e-11 0 0)
(3.9208724e-11 0 0)
(9.255727e-12 0 0)
(5.0636282e-11 0 0)
(4.2740017e-11 0 0)
(6.655457e-12 0 0)
(3.2058453e-11 0 0)
(-1.9898553e-11 0 0)
(1.4815001e-11 0 0)
(-2.3253253e-11 0 0)
(-1.5662667e-11 0 0)
(-2.82782e-11 0 0)
(-2.2836247e-11 0 0)
(-1.466749e-11 0 0)
(-2.8901546e-11 0 0)
(-2.444145e-11 0 0)
(-4.8487316e-11 0 0)
(-2.4339446e-11 0 0)
(-6.0111889e-11 0 0)
(-3.3141206e-11 0 0)
(-3.5596295e-11 0 0)
(-2.1002172e-11 0 0)
(-1.6971182e-11 0 0)
(-4.9240525e-12 0 0)
(-1.0981249e-11 0 0)
(-1.6510222e-11 0 0)
(-1.2853616e-11 0 0)
(-4.2466526e-12 0 0)
(-2.2105347e-11 0 0)
(-1.60123e-11 0 0)
(-1.5678761e-11 0 0)
(1.1329217e-11 0 0)
(-6.6230466e-13 0 0)
(-6.4597735e-12 0 0)
(-1.5539019e-11 0 0)
(-2.1386103e-11 0 0)
(-1.8186795e-11 0 0)
(-1.8812804e-11 0 0)
(-2.1632067e-11 0 0)
(-2.0737117e-11 0 0)
(-8.6231689e-12 0 0)
(-3.9061212e-12 0 0)
(-1.4439285e-12 0 0)
(-1.2223278e-11 0 0)
(-7.8513126e-12 0 0)
(-5.1290151e-11 0 0)
(-6.1666368e-12 0 0)
(-2.6235567e-11 0 0)
(-1.2008504e-12 0 0)
(-1.6639086e-11 0 0)
(-6.4213694e-12 0 0)
(7.700027e-12 0 0)
(-6.3616543e-12 0 0)
(1.2687235e-11 0 0)
(7.3567207e-12 0 0)
(7.0503757e-12 0 0)
(2.5649737e-11 0 0)
(4.5285803e-14 0 0)
(2.3849516e-11 0 0)
(6.7544641e-12 0 0)
(-4.9516902e-12 0 0)
(-3.299103e-11 0 0)
(1.9535041e-14 0 0)
(-2.5865511e-11 0 0)
(7.9355574e-12 0 0)
(-3.4214856e-11 0 0)
(-1.1384603e-11 0 0)
(-3.0926087e-11 0 0)
(-2.1725302e-11 0 0)
(-4.223255e-11 0 0)
(-1.0985578e-11 0 0)
(-1.1744225e-11 0 0)
(-5.8049055e-12 0 0)
(-3.388831e-11 0 0)
(-1.0854382e-11 0 0)
(-1.5179619e-11 0 0)
(-1.2405087e-11 0 0)
(-8.2833035e-12 0 0)
(-3.4723544e-11 0 0)
(-8.2586627e-12 0 0)
(-2.123182e-11 0 0)
(-1.2819541e-11 0 0)
(-3.276449e-11 0 0)
(-3.7252334e-11 0 0)
(-1.1866985e-11 0 0)
(-1.1814596e-11 0 0)
(-2.2441883e-11 0 0)
(-8.5388131e-13 0 0)
(-7.7563012e-12 0 0)
(-7.8585272e-12 0 0)
(1.597878e-11 0 0)
(-5.8827125e-13 0 0)
(2.9308008e-11 0 0)
(1.799877e-11 0 0)
(-1.5550341e-12 0 0)
(-9.8149177e-12 0 0)
(-7.0081978e-13 0 0)
(1.6919126e-11 0 0)
(1.0990794e-11 0 0)
(-5.2720205e-12 0 0)
(1.1226436e-11 0 0)
(-7.4517321e-12 0 0)
(-3.4620319e-12 0 0)
(-3.5156423e-12 0 0)
(5.2919996e-12 0 0)
(-4.5973955e-13 0 0)
(-7.6279915e-12 0 0)
(-1.1584948e-11 0 0)
(-2.8879791e-11 0 0)
(-3.5058748e-12 0 0)
(-5.4435072e-12 0 0)
(-2.5498008e-11 0 0)
(-1.4147702e-11 0 0)
(-8.6861028e-12 0 0)
(-1.3619035e-12 0 0)
(1.6119743e-12 0 0)
(-1.0111162e-11 0 0)
(-2.5586914e-11 0 0)
(-2.9482602e-11 0 0)
(-9.2573919e-12 0 0)
(5.4542736e-13 0 0)
(-6.7351511e-13 0 0)
(1.3047413e-11 0 0)
(-1.4772824e-11 0 0)
(-7.8665188e-12 0 0)
(1.8919581e-11 0 0)
(-1.6587918e-11 0 0)
(5.3466088e-13 0 0)
(-3.091421e-12 0 0)
(2.9206004e-11 0 0)
(7.6640647e-12 0 0)
(3.6265037e-11 0 0)
(8.8691329e-12 0 0)
(1.7501403e-11 0 0)
(4.0550871e-11 0 0)
(2.4258198e-11 0 0)
(2.7440524e-11 0 0)
(2.0846558e-11 0 0)
(1.1906722e-11 0 0)
(-2.0332875e-11 0 0)
(-2.2933034e-11 0 0)
(-8.5549072e-12 0 0)
(2.1269891e-12 0 0)
(-8.2809726e-12 0 0)
(-2.9555637e-12 0 0)
(1.0991793e-12 0 0)
(-1.6041492e-11 0 0)
(9.2991259e-12 0 0)
(4.853238e-12 0 0)
(-1.3609822e-11 0 0)
(-1.2291984e-11 0 0)
(-2.7583818e-11 0 0)
(-1.43405e-11 0 0)
(-1.3292156e-11 0 0)
(-3.1489162e-12 0 0)
(5.4087658e-13 0 0)
(5.6030064e-12 0 0)
(4.791747e-12 0 0)
(-2.9385815e-12 0 0)
(8.8434931e-12 0 0)
(2.4115015e-11 0 0)
(3.2654494e-11 0 0)
(3.0718416e-11 0 0)
(6.2263519e-12 0 0)
(2.344261e-11 0 0)
(1.1773084e-11 0 0)
(1.0763699e-11 0 0)
(-1.533712e-11 0 0)
(-1.6134061e-11 0 0)
(-2.4479189e-11 0 0)
(-4.1367679e-13 0 0)
(-3.562593e-12 0 0)
(-2.7917357e-11 0 0)
(6.36898e-12 0 0)
(-4.1375449e-12 0 0)
(4.319687e-12 0 0)
(-1.7722283e-11 0 0)
(-3.1702161e-11 0 0)
(-1.8404899e-11 0 0)
(-2.2535007e-11 0 0)
(-3.5016015e-11 0 0)
(-6.3990373e-11 0 0)
(-3.4153032e-11 0 0)
(-2.7089226e-11 0 0)
(1.8295236e-12 0 0)
(-1.8474493e-11 0 0)
(-2.0661752e-11 0 0)
(-5.7865581e-11 0 0)
(-2.3598558e-12 0 0)
(-2.1807327e-11 0 0)
(-3.9510741e-12 0 0)
(-1.1788734e-11 0 0)
(8.4465765e-12 0 0)
(2.0749993e-11 0 0)
(3.4674707e-13 0 0)
(3.034392e-11 0 0)
(1.6615778e-11 0 0)
(-9.4012403e-14 0 0)
(1.5277627e-11 0 0)
(1.5713836e-11 0 0)
(-6.7763301e-12 0 0)
(-7.5303163e-12 0 0)
(-1.249466e-12 0 0)
(5.6461833e-12 0 0)
(1.0248574e-11 0 0)
(2.437785e-11 0 0)
(1.4894252e-11 0 0)
(5.9765031e-12 0 0)
(6.3291329e-12 0 0)
(1.1209343e-12 0 0)
(2.6311487e-11 0 0)
(5.7997998e-12 0 0)
(1.2802337e-11 0 0)
(-8.8069759e-12 0 0)
(9.6267819e-12 0 0)
(1.5057858e-11 0 0)
(2.437441e-13 0 0)
(-1.0860154e-11 0 0)
(-6.1292317e-12 0 0)
(-4.6451897e-11 0 0)
(-4.1042799e-11 0 0)
(-3.9673569e-11 0 0)
(-1.613284e-11 0 0)
(-8.9247411e-12 0 0)
(-9.0154237e-12 0 0)
(-1.2543941e-11 0 0)
(-1.1672634e-11 0 0)
(1.5548121e-12 0 0)
(-7.3051082e-12 0 0)
(4.6127127e-12 0 0)
(2.1422398e-11 0 0)
(4.5279462e-11 0 0)
(3.7783998e-11 0 0)
(2.1473122e-11 0 0)
(2.468808e-11 0 0)
(4.8790553e-11 0 0)
(3.8506018e-11 0 0)
(1.020917e-11 0 0)
(2.875248e-11 0 0)
(1.6445179e-11 0 0)
(-4.0629566e-12 0 0)
(-2.0251405e-11 0 0)
(-6.7147281e-12 0 0)
(-3.1309684e-11 0 0)
(-4.6828058e-11 0 0)
(-4.3382342e-11 0 0)
(-7.5578429e-12 0 0)
(-2.2652773e-11 0 0)
(2.1814875e-12 0 0)
(-2.661428e-12 0 0)
(-1.287193e-11 0 0)
(1.272231e-11 0 0)
(1.2388327e-11 0 0)
(1.4657278e-11 0 0)
(-6.2741906e-12 0 0)
(-4.5194773e-12 0 0)
(-2.1029477e-11 0 0)
(8.8806763e-13 0 0)
(9.890949e-12 0 0)
(7.9608642e-12 0 0)
(2.7918356e-11 0 0)
(4.2119335e-11 0 0)
(9.1781418e-13 0 0)
(1.017787e-11 0 0)
(3.4721879e-11 0 0)
(1.3256971e-11 0 0)
(3.5815953e-11 0 0)
(2.3350041e-11 0 0)
(4.0755323e-11 0 0)
(2.7935227e-11 0 0)
(4.2298813e-11 0 0)
(2.9044063e-11 0 0)
(2.1232264e-11 0 0)
(4.4956246e-11 0 0)
(2.4409373e-11 0 0)
(1.5382517e-11 0 0)
(1.1892403e-11 0 0)
(-3.0453694e-11 0 0)
(9.3772661e-12 0 0)
(-8.3403547e-12 0 0)
(1.5069845e-11 0 0)
(3.5481781e-21 0 0)
)
;

boundaryField
{
    sides
    {
        type            zeroGradient;
    }
    emptywalls
    {
        type            empty;
    }
}


// ************************************************************************* //
