# Field minima and maxima
# Time         	field          	min            	location(min)  	max            	location(max)  
5.00000000e-04	p              	0.00000000e+00	(-5.25000000e-04 0.00000000e+00 2.16000000e-01)	7.06271062e+02	(-1.43951156e-04 -1.45036143e-03 1.50000000e-03)
5.00000000e-04	U              	(-9.55302183e-03 -4.14987964e-04 3.50530561e-01)	(1.45036143e-03 -1.43951156e-04 1.50000000e-03)	(2.05563901e-04 2.84928875e-02 8.32810626e-01)	(-1.15389170e-04 -1.20807294e-03 1.50000000e-03)
1.00000000e-03	p              	0.00000000e+00	(-5.25000000e-04 0.00000000e+00 2.16000000e-01)	2.91753232e+01	(-1.12275892e-03 9.21183639e-04 1.50000000e-03)
1.00000000e-03	U              	(-2.15664956e-04 -8.98262566e-05 3.20995603e-01)	(-1.43951156e-04 -1.45036143e-03 7.50000000e-03)	(4.42210065e-03 4.31114400e-02 1.03053027e+00)	(-1.15389170e-04 -1.20807294e-03 1.50000000e-03)
1.50000000e-03	p              	0.00000000e+00	(-5.25000000e-04 0.00000000e+00 2.16000000e-01)	3.59068712e+01	(-1.43951156e-04 -1.45036143e-03 1.50000000e-03)
1.50000000e-03	U              	(-1.39447704e-03 1.30532001e-02 3.11058080e-01)	(1.43951156e-04 -1.45036143e-03 1.50000000e-03)	(5.43586910e-03 5.10484880e-02 1.10118342e+00)	(-1.15389170e-04 -1.20807294e-03 1.50000000e-03)
2.00000000e-03	p              	0.00000000e+00	(-5.25000000e-04 0.00000000e+00 2.16000000e-01)	3.10197862e+01	(-1.45036143e-03 1.43951156e-04 1.50000000e-03)
2.00000000e-03	U              	(-1.56796960e-04 -1.55293396e-04 2.15503809e-01)	(-1.43951156e-04 -1.45036143e-03 7.50000000e-03)	(6.09719158e-03 5.64125063e-02 1.21971554e+00)	(-1.04101859e-04 -1.11232386e-03 1.50000000e-03)
2.50000000e-03	p              	0.00000000e+00	(-5.25000000e-04 0.00000000e+00 2.16000000e-01)	2.83729238e+01	(1.43951156e-04 -1.45036143e-03 1.50000000e-03)
2.50000000e-03	U              	(-1.36698602e-04 -1.41952636e-04 1.95709711e-01)	(-1.43951156e-04 -1.45036143e-03 7.50000000e-03)	(6.52578438e-03 6.08626434e-02 1.25102956e+00)	(-1.04101859e-04 -1.11232386e-03 1.50000000e-03)
3.00000000e-03	p              	0.00000000e+00	(-5.25000000e-04 0.00000000e+00 2.16000000e-01)	2.65560264e+01	(-1.43951156e-04 -1.45036143e-03 1.50000000e-03)
3.00000000e-03	U              	(-1.20646228e-04 -1.20453415e-04 1.82776885e-01)	(-1.43951156e-04 -1.45036143e-03 7.50000000e-03)	(6.80786417e-03 6.40042639e-02 1.27122906e+00)	(-1.04101859e-04 -1.11232386e-03 1.50000000e-03)
3.50000000e-03	p              	0.00000000e+00	(-5.25000000e-04 0.00000000e+00 2.16000000e-01)	2.52290996e+01	(1.45036143e-03 -1.43951156e-04 1.50000000e-03)
3.50000000e-03	U              	(-1.08594748e-04 -9.73095724e-05 1.73716224e-01)	(-1.43951156e-04 -1.45036143e-03 7.50000000e-03)	(6.99580934e-03 6.62118277e-02 1.28547240e+00)	(-1.04101859e-04 -1.11232386e-03 1.50000000e-03)
4.00000000e-03	p              	0.00000000e+00	(-5.25000000e-04 0.00000000e+00 2.16000000e-01)	2.42144811e+01	(1.45036143e-03 -1.43951156e-04 1.50000000e-03)
4.00000000e-03	U              	(-9.97462778e-05 -7.46252857e-05 1.67124688e-01)	(-1.43951156e-04 -1.45036143e-03 7.50000000e-03)	(7.12115763e-03 6.77509542e-02 1.29628407e+00)	(-1.04101859e-04 -1.11232386e-03 1.50000000e-03)
4.50000000e-03	p              	0.00000000e+00	(-5.25000000e-04 0.00000000e+00 2.16000000e-01)	2.34139762e+01	(1.43951156e-04 -1.45036143e-03 1.50000000e-03)
4.50000000e-03	U              	(-9.30763951e-05 -5.37773015e-05 1.62239488e-01)	(-1.43951156e-04 -1.45036143e-03 7.50000000e-03)	(7.20482051e-03 6.88144361e-02 1.30493602e+00)	(-1.04101859e-04 -1.11232386e-03 1.50000000e-03)
5.00000000e-03	p              	0.00000000e+00	(-5.25000000e-04 0.00000000e+00 2.16000000e-01)	2.27671394e+01	(1.45036143e-03 -1.43951156e-04 1.50000000e-03)
5.00000000e-03	U              	(-8.83603109e-05 -3.67264253e-05 1.58600698e-01)	(-1.43951156e-04 -1.45036143e-03 7.50000000e-03)	(7.26063963e-03 6.95418013e-02 1.31205987e+00)	(-1.04101859e-04 -1.11232386e-03 1.50000000e-03)
5.50000000e-03	p              	0.00000000e+00	(-5.25000000e-04 0.00000000e+00 2.16000000e-01)	2.22347855e+01	(1.43951156e-04 -1.45036143e-03 1.50000000e-03)
5.50000000e-03	U              	(-8.51837403e-05 -2.13342533e-05 1.55903588e-01)	(-1.43951156e-04 -1.45036143e-03 7.50000000e-03)	(7.29801397e-03 7.00339663e-02 1.31797570e+00)	(-1.04101859e-04 -1.11232386e-03 1.50000000e-03)
6.00000000e-03	p              	0.00000000e+00	(-5.25000000e-04 0.00000000e+00 2.16000000e-01)	2.17901789e+01	(1.43951156e-04 -1.45036143e-03 1.50000000e-03)
6.00000000e-03	U              	(-8.27375761e-05 -7.12571723e-06 1.53930739e-01)	(-1.43951156e-04 -1.45036143e-03 7.50000000e-03)	(7.32318055e-03 7.03634162e-02 1.32286149e+00)	(-1.04101859e-04 -1.11232386e-03 1.50000000e-03)
6.50000000e-03	p              	0.00000000e+00	(-5.25000000e-04 0.00000000e+00 2.16000000e-01)	2.14142504e+01	(1.43951156e-04 1.45036143e-03 1.50000000e-03)
6.50000000e-03	U              	(-8.07689069e-05 6.24732857e-06 1.52517745e-01)	(-1.43951156e-04 -1.45036143e-03 7.50000000e-03)	(7.34034268e-03 7.05820921e-02 1.32683822e+00)	(-1.04101859e-04 -1.11232386e-03 1.50000000e-03)
7.00000000e-03	p              	0.00000000e+00	(-5.25000000e-04 0.00000000e+00 2.16000000e-01)	2.10933422e+01	(-1.45036143e-03 -1.43951156e-04 1.50000000e-03)
7.00000000e-03	U              	(-7.95707443e-05 1.68890304e-05 1.51535761e-01)	(-1.43951156e-04 -1.45036143e-03 7.50000000e-03)	(7.35230178e-03 7.07267528e-02 1.33000926e+00)	(-1.04101859e-04 -1.11232386e-03 1.50000000e-03)
7.50000000e-03	p              	0.00000000e+00	(-5.25000000e-04 0.00000000e+00 2.16000000e-01)	2.08170546e+01	(-1.45036143e-03 -1.43951156e-04 1.50000000e-03)
7.50000000e-03	U              	(-7.88616694e-05 2.53520112e-05 1.50881530e-01)	(-1.43951156e-04 -1.45036143e-03 7.50000000e-03)	(7.36088992e-03 7.08229535e-02 1.33247554e+00)	(-1.04101859e-04 -1.11232386e-03 1.50000000e-03)
8.00000000e-03	p              	0.00000000e+00	(-5.25000000e-04 0.00000000e+00 2.16000000e-01)	2.05774709e+01	(-1.45036143e-03 -1.43951156e-04 1.50000000e-03)
8.00000000e-03	U              	(-7.84887158e-05 -3.19656517e-05 1.50471848e-01)	(-1.43951156e-04 1.45036143e-03 7.50000000e-03)	(7.36730305e-03 7.08881969e-02 1.33433928e+00)	(-1.04101859e-04 -1.11232386e-03 1.50000000e-03)
8.50000000e-03	p              	0.00000000e+00	(-5.25000000e-04 0.00000000e+00 2.16000000e-01)	2.03685887e+01	(-1.45036143e-03 1.43951156e-04 1.50000000e-03)
8.50000000e-03	U              	(-7.83789669e-05 3.70412203e-05 1.50240093e-01)	(-1.43951156e-04 -1.45036143e-03 7.50000000e-03)	(7.37232850e-03 7.09343646e-02 1.33570185e+00)	(-1.04101859e-04 -1.11232386e-03 1.50000000e-03)
9.00000000e-03	p              	0.00000000e+00	(-5.25000000e-04 0.00000000e+00 2.16000000e-01)	2.01854284e+01	(1.45036143e-03 1.43951156e-04 1.50000000e-03)
9.00000000e-03	U              	(-7.84362800e-05 4.08376981e-05 1.50133269e-01)	(-1.43951156e-04 -1.45036143e-03 7.50000000e-03)	(7.37639102e-03 7.09690462e-02 1.33665977e+00)	(-1.04101859e-04 -1.11232386e-03 1.50000000e-03)
9.50000000e-03	p              	0.00000000e+00	(-5.25000000e-04 0.00000000e+00 2.16000000e-01)	2.00242395e+01	(-1.45036143e-03 1.43951156e-04 1.50000000e-03)
9.50000000e-03	U              	(-7.85929811e-05 4.36015000e-05 1.50110256e-01)	(-1.43951156e-04 -1.45036143e-03 7.50000000e-03)	(7.37980403e-03 7.09970261e-02 1.33730150e+00)	(-1.04101859e-04 -1.11232386e-03 1.50000000e-03)
1.00000000e-02	p              	0.00000000e+00	(-5.25000000e-04 0.00000000e+00 2.16000000e-01)	1.98817646e+01	(1.45036143e-03 -1.43951156e-04 1.50000000e-03)
1.00000000e-02	U              	(-7.87985632e-05 4.55397366e-05 1.50139787e-01)	(-1.43951156e-04 -1.45036143e-03 7.50000000e-03)	(7.38272588e-03 7.10211036e-02 1.33770487e+00)	(-1.04101859e-04 -1.11232386e-03 1.50000000e-03)
1.05000000e-02	p              	0.00000000e+00	(-5.25000000e-04 0.00000000e+00 2.16000000e-01)	1.97554341e+01	(-1.45036143e-03 -1.43951156e-04 1.50000000e-03)
1.05000000e-02	U              	(-7.90149785e-05 4.68492195e-05 1.50198860e-01)	(-1.43951156e-04 -1.45036143e-03 7.50000000e-03)	(7.38530416e-03 7.10428846e-02 1.33793566e+00)	(-1.04101859e-04 -1.11232386e-03 1.50000000e-03)
1.10000000e-02	p              	0.00000000e+00	(-5.25000000e-04 0.00000000e+00 2.16000000e-01)	1.96430571e+01	(1.43951156e-04 1.45036143e-03 1.50000000e-03)
1.10000000e-02	U              	(-7.92222128e-05 4.76920716e-05 1.50271124e-01)	(-1.43951156e-04 -1.45036143e-03 7.50000000e-03)	(7.38757278e-03 7.10631094e-02 1.33804739e+00)	(-1.04101859e-04 -1.11232386e-03 1.50000000e-03)
1.15000000e-02	p              	0.00000000e+00	(-5.25000000e-04 0.00000000e+00 2.16000000e-01)	1.95429539e+01	(-1.45036143e-03 1.43951156e-04 1.50000000e-03)
1.15000000e-02	U              	(-7.94064575e-05 -4.82021928e-05 1.50345534e-01)	(-1.43951156e-04 1.45036143e-03 7.50000000e-03)	(7.38956731e-03 7.10820607e-02 1.33808198e+00)	(-1.04101859e-04 -1.11232386e-03 1.50000000e-03)
1.20000000e-02	p              	0.00000000e+00	(-5.25000000e-04 0.00000000e+00 2.16000000e-01)	1.94534534e+01	(1.45036143e-03 1.43951156e-04 1.50000000e-03)
1.20000000e-02	U              	(-7.95471680e-05 -4.84751057e-05 1.50415166e-01)	(-1.43951156e-04 1.45036143e-03 7.50000000e-03)	(7.39132499e-03 7.10997482e-02 1.33807090e+00)	(-1.04101859e-04 -1.11232386e-03 1.50000000e-03)
1.25000000e-02	p              	0.00000000e+00	(-5.25000000e-04 0.00000000e+00 2.16000000e-01)	1.93733218e+01	(1.45036143e-03 1.43951156e-04 1.50000000e-03)
1.25000000e-02	U              	(-7.96680814e-05 -4.86054484e-05 1.50476123e-01)	(-1.43951156e-04 1.45036143e-03 7.50000000e-03)	(7.39285083e-03 7.11161241e-02 1.33803681e+00)	(-1.04101859e-04 -1.11232386e-03 1.50000000e-03)
1.30000000e-02	p              	0.00000000e+00	(-5.25000000e-04 0.00000000e+00 2.16000000e-01)	1.93014738e+01	(-1.43951156e-04 1.45036143e-03 1.50000000e-03)
1.30000000e-02	U              	(-7.97441508e-05 4.86423640e-05 1.50526715e-01)	(-1.43951156e-04 -1.45036143e-03 7.50000000e-03)	(7.39417569e-03 7.11310653e-02 1.33799496e+00)	(-1.04101859e-04 -1.11232386e-03 1.50000000e-03)
1.35000000e-02	p              	0.00000000e+00	(-5.25000000e-04 0.00000000e+00 2.16000000e-01)	1.92369088e+01	(-1.43951156e-04 -1.45036143e-03 1.50000000e-03)
1.35000000e-02	U              	(-7.97901242e-05 -4.86327207e-05 1.50566670e-01)	(-1.43951156e-04 1.45036143e-03 7.50000000e-03)	(7.39530760e-03 7.11444903e-02 1.33795499e+00)	(-1.04101859e-04 -1.11232386e-03 1.50000000e-03)
1.40000000e-02	p              	0.00000000e+00	(-5.25000000e-04 0.00000000e+00 2.16000000e-01)	1.91787867e+01	(1.43951156e-04 -1.45036143e-03 1.50000000e-03)
1.40000000e-02	U              	(-7.98111609e-05 4.86044567e-05 1.50596795e-01)	(-1.43951156e-04 -1.45036143e-03 7.50000000e-03)	(7.39626756e-03 7.11563675e-02 1.33792224e+00)	(-1.04101859e-04 -1.11232386e-03 1.50000000e-03)
1.45000000e-02	p              	0.00000000e+00	(-5.25000000e-04 0.00000000e+00 2.16000000e-01)	1.91265000e+01	(-1.43951156e-04 1.45036143e-03 1.50000000e-03)
1.45000000e-02	U              	(-7.98097684e-05 -4.85765959e-05 1.50618321e-01)	(-1.43951156e-04 1.45036143e-03 7.50000000e-03)	(7.39707316e-03 7.11667131e-02 1.33789898e+00)	(-1.04101859e-04 -1.11232386e-03 1.50000000e-03)
1.50000000e-02	p              	0.00000000e+00	(-5.25000000e-04 0.00000000e+00 2.16000000e-01)	1.90793167e+01	(-1.43951156e-04 1.45036143e-03 1.50000000e-03)
1.50000000e-02	U              	(-7.97933054e-05 4.85589157e-05 1.50632770e-01)	(-1.43951156e-04 -1.45036143e-03 7.50000000e-03)	(7.39774129e-03 7.11755886e-02 1.33788550e+00)	(-1.04101859e-04 -1.11232386e-03 1.50000000e-03)
1.55000000e-02	p              	0.00000000e+00	(-5.25000000e-04 0.00000000e+00 2.16000000e-01)	1.90367163e+01	(-1.43951156e-04 1.45036143e-03 1.50000000e-03)
1.55000000e-02	U              	(-7.97660419e-05 -4.85557016e-05 1.50641635e-01)	(-1.43951156e-04 1.45036143e-03 7.50000000e-03)	(7.39829291e-03 7.11830956e-02 1.33788075e+00)	(-1.04101859e-04 -1.11232386e-03 1.50000000e-03)
1.60000000e-02	p              	0.00000000e+00	(-5.25000000e-04 0.00000000e+00 2.16000000e-01)	1.89982568e+01	(1.45036143e-03 1.43951156e-04 1.50000000e-03)
1.60000000e-02	U              	(-7.97328876e-05 4.85674640e-05 1.50646406e-01)	(-1.43951156e-04 -1.45036143e-03 7.50000000e-03)	(7.39874322e-03 7.11893600e-02 1.33788317e+00)	(-1.04101859e-04 -1.11232386e-03 1.50000000e-03)
1.65000000e-02	p              	0.00000000e+00	(-5.25000000e-04 0.00000000e+00 2.16000000e-01)	1.89634598e+01	(1.45036143e-03 -1.43951156e-04 1.50000000e-03)
1.65000000e-02	U              	(-7.96974860e-05 -4.85928953e-05 1.50648260e-01)	(-1.43951156e-04 1.45036143e-03 7.50000000e-03)	(7.39911113e-03 7.11945298e-02 1.33789081e+00)	(-1.04101859e-04 -1.11232386e-03 1.50000000e-03)
1.70000000e-02	p              	0.00000000e+00	(-5.25000000e-04 0.00000000e+00 2.16000000e-01)	1.89319651e+01	(1.43951156e-04 -1.45036143e-03 1.50000000e-03)
1.70000000e-02	U              	(-7.96625215e-05 4.86284933e-05 1.50648280e-01)	(-1.43951156e-04 -1.45036143e-03 7.50000000e-03)	(7.39940743e-03 7.11987471e-02 1.33790192e+00)	(-1.04101859e-04 -1.11232386e-03 1.50000000e-03)
1.75000000e-02	p              	0.00000000e+00	(-5.25000000e-04 0.00000000e+00 2.16000000e-01)	1.89034999e+01	(-1.43951156e-04 1.45036143e-03 1.50000000e-03)
1.75000000e-02	U              	(-7.96311374e-05 -4.86713553e-05 1.50647201e-01)	(-1.43951156e-04 1.45036143e-03 7.50000000e-03)	(7.39964972e-03 7.12021618e-02 1.33791485e+00)	(-1.04101859e-04 -1.11232386e-03 1.50000000e-03)
1.80000000e-02	p              	0.00000000e+00	(-5.25000000e-04 0.00000000e+00 2.16000000e-01)	1.88776589e+01	(1.43951156e-04 -1.45036143e-03 1.50000000e-03)
1.80000000e-02	U              	(-7.96013114e-05 4.87172776e-05 1.50645689e-01)	(-1.43951156e-04 -1.45036143e-03 7.50000000e-03)	(7.39984433e-03 7.12049064e-02 1.33792837e+00)	(-1.04101859e-04 -1.11232386e-03 1.50000000e-03)
1.85000000e-02	p              	0.00000000e+00	(-5.25000000e-04 0.00000000e+00 2.16000000e-01)	1.88542772e+01	(1.45036143e-03 1.43951156e-04 1.50000000e-03)
1.85000000e-02	U              	(-7.95766128e-05 4.87642507e-05 1.50644103e-01)	(-1.43951156e-04 -1.45036143e-03 7.50000000e-03)	(7.40000415e-03 7.12071059e-02 1.33794147e+00)	(-1.04101859e-04 -1.11232386e-03 1.50000000e-03)
1.90000000e-02	p              	0.00000000e+00	(-5.25000000e-04 0.00000000e+00 2.16000000e-01)	1.88330759e+01	(1.45036143e-03 -1.43951156e-04 1.50000000e-03)
1.90000000e-02	U              	(-7.95565952e-05 4.88092530e-05 1.50642707e-01)	(-1.43951156e-04 -1.45036143e-03 7.50000000e-03)	(7.40013496e-03 7.12088661e-02 1.33795353e+00)	(-1.04101859e-04 -1.11232386e-03 1.50000000e-03)
1.95000000e-02	p              	0.00000000e+00	(-5.25000000e-04 0.00000000e+00 2.16000000e-01)	1.88138666e+01	(-1.43951156e-04 1.45036143e-03 1.50000000e-03)
1.95000000e-02	U              	(-7.95409485e-05 4.88511673e-05 1.50641655e-01)	(-1.43951156e-04 -1.45036143e-03 7.50000000e-03)	(7.40024277e-03 7.12102781e-02 1.33796416e+00)	(-1.04101859e-04 -1.11232386e-03 1.50000000e-03)
2.00000000e-02	p              	0.00000000e+00	(-5.25000000e-04 0.00000000e+00 2.16000000e-01)	1.87964102e+01	(1.43951156e-04 -1.45036143e-03 1.50000000e-03)
2.00000000e-02	U              	(-7.95287820e-05 4.88887044e-05 1.50641008e-01)	(-1.43951156e-04 -1.45036143e-03 7.50000000e-03)	(7.40033295e-03 7.12114186e-02 1.33797321e+00)	(-1.04101859e-04 -1.11232386e-03 1.50000000e-03)
2.05000000e-02	p              	0.00000000e+00	(-5.25000000e-04 0.00000000e+00 2.16000000e-01)	1.87805772e+01	(1.43951156e-04 -1.45036143e-03 1.50000000e-03)
2.05000000e-02	U              	(-7.95202042e-05 4.89209778e-05 1.50640717e-01)	(-1.43951156e-04 -1.45036143e-03 7.50000000e-03)	(7.40040917e-03 7.12123476e-02 1.33798066e+00)	(-1.04101859e-04 -1.11232386e-03 1.50000000e-03)
2.10000000e-02	p              	0.00000000e+00	(-5.25000000e-04 0.00000000e+00 2.16000000e-01)	1.87662274e+01	(1.43951156e-04 -1.45036143e-03 1.50000000e-03)
2.10000000e-02	U              	(-7.95144218e-05 4.89482856e-05 1.50640760e-01)	(-1.43951156e-04 -1.45036143e-03 7.50000000e-03)	(7.40047426e-03 7.12131134e-02 1.33798662e+00)	(-1.04101859e-04 -1.11232386e-03 1.50000000e-03)
2.15000000e-02	p              	0.00000000e+00	(-5.25000000e-04 0.00000000e+00 2.16000000e-01)	1.87531993e+01	(1.43951156e-04 -1.45036143e-03 1.50000000e-03)
2.15000000e-02	U              	(-7.95106717e-05 4.89708674e-05 1.50641066e-01)	(-1.43951156e-04 -1.45036143e-03 7.50000000e-03)	(7.40052987e-03 7.12137526e-02 1.33799128e+00)	(-1.04101859e-04 -1.11232386e-03 1.50000000e-03)
2.20000000e-02	p              	0.00000000e+00	(-5.25000000e-04 0.00000000e+00 2.16000000e-01)	1.87413729e+01	(-1.43951156e-04 -1.45036143e-03 1.50000000e-03)
2.20000000e-02	U              	(-7.95083704e-05 4.89887224e-05 1.50641555e-01)	(-1.43951156e-04 -1.45036143e-03 7.50000000e-03)	(7.40057879e-03 7.12142952e-02 1.33799485e+00)	(-1.04101859e-04 -1.11232386e-03 1.50000000e-03)
2.25000000e-02	p              	0.00000000e+00	(-5.25000000e-04 0.00000000e+00 2.16000000e-01)	1.87306285e+01	(-1.43951156e-04 -1.45036143e-03 1.50000000e-03)
2.25000000e-02	U              	(-7.95070186e-05 4.90028076e-05 1.50642160e-01)	(-1.43951156e-04 -1.45036143e-03 7.50000000e-03)	(7.40062094e-03 7.12147601e-02 1.33799754e+00)	(-1.04101859e-04 -1.11232386e-03 1.50000000e-03)
2.30000000e-02	p              	0.00000000e+00	(-5.25000000e-04 0.00000000e+00 2.16000000e-01)	1.87208735e+01	(1.45036143e-03 -1.43951156e-04 1.50000000e-03)
2.30000000e-02	U              	(-7.95076594e-05 4.90137178e-05 1.50642816e-01)	(-1.43951156e-04 -1.45036143e-03 7.50000000e-03)	(7.40065669e-03 7.12151612e-02 1.33799956e+00)	(-1.04101859e-04 -1.11232386e-03 1.50000000e-03)
2.35000000e-02	p              	0.00000000e+00	(-5.25000000e-04 0.00000000e+00 2.16000000e-01)	1.87120171e+01	(-1.43951156e-04 -1.45036143e-03 1.50000000e-03)
2.35000000e-02	U              	(-7.95072738e-05 4.90219728e-05 1.50643477e-01)	(-1.43951156e-04 -1.45036143e-03 7.50000000e-03)	(7.40068845e-03 7.12155128e-02 1.33800107e+00)	(-1.04101859e-04 -1.11232386e-03 1.50000000e-03)
2.40000000e-02	p              	0.00000000e+00	(-5.25000000e-04 0.00000000e+00 2.16000000e-01)	1.87039593e+01	(-1.43951156e-04 1.45036143e-03 1.50000000e-03)
2.40000000e-02	U              	(-7.95074782e-05 4.90279507e-05 1.50644094e-01)	(-1.43951156e-04 -1.45036143e-03 7.50000000e-03)	(7.40071631e-03 7.12158202e-02 1.33800222e+00)	(-1.04101859e-04 -1.11232386e-03 1.50000000e-03)
2.45000000e-02	p              	0.00000000e+00	(-5.25000000e-04 0.00000000e+00 2.16000000e-01)	1.86966493e+01	(-1.43951156e-04 1.45036143e-03 1.50000000e-03)
2.45000000e-02	U              	(-7.95078652e-05 4.90324075e-05 1.50644669e-01)	(-1.43951156e-04 -1.45036143e-03 7.50000000e-03)	(7.40074016e-03 7.12160909e-02 1.33800313e+00)	(-1.04101859e-04 -1.11232386e-03 1.50000000e-03)
2.50000000e-02	p              	0.00000000e+00	(-5.25000000e-04 0.00000000e+00 2.16000000e-01)	1.86900092e+01	(1.45036143e-03 -1.43951156e-04 1.50000000e-03)
2.50000000e-02	U              	(-7.95081038e-05 4.90359312e-05 1.50645170e-01)	(-1.43951156e-04 -1.45036143e-03 7.50000000e-03)	(7.40076032e-03 7.12163289e-02 1.33800388e+00)	(-1.04101859e-04 -1.11232386e-03 1.50000000e-03)
2.55000000e-02	p              	0.00000000e+00	(-5.25000000e-04 0.00000000e+00 2.16000000e-01)	1.86839797e+01	(-1.45036143e-03 -1.43951156e-04 1.50000000e-03)
2.55000000e-02	U              	(-7.95082750e-05 4.90386273e-05 1.50645599e-01)	(-1.43951156e-04 -1.45036143e-03 7.50000000e-03)	(7.40077813e-03 7.12165367e-02 1.33800454e+00)	(-1.04101859e-04 -1.11232386e-03 1.50000000e-03)
2.60000000e-02	p              	0.00000000e+00	(-5.25000000e-04 0.00000000e+00 2.16000000e-01)	1.86784901e+01	(-1.43951156e-04 -1.45036143e-03 1.50000000e-03)
2.60000000e-02	U              	(-7.95082660e-05 4.90406923e-05 1.50645947e-01)	(-1.43951156e-04 -1.45036143e-03 7.50000000e-03)	(7.40079379e-03 7.12167200e-02 1.33800513e+00)	(-1.04101859e-04 -1.11232386e-03 1.50000000e-03)
2.65000000e-02	p              	0.00000000e+00	(-5.25000000e-04 0.00000000e+00 2.16000000e-01)	1.86735147e+01	(1.45036143e-03 -1.43951156e-04 1.50000000e-03)
2.65000000e-02	U              	(-7.95082242e-05 4.90425925e-05 1.50646230e-01)	(-1.43951156e-04 -1.45036143e-03 7.50000000e-03)	(7.40080589e-03 7.12168776e-02 1.33800569e+00)	(-1.04101859e-04 -1.11232386e-03 1.50000000e-03)
2.70000000e-02	p              	0.00000000e+00	(-5.25000000e-04 0.00000000e+00 2.16000000e-01)	1.86689840e+01	(1.45036143e-03 -1.43951156e-04 1.50000000e-03)
2.70000000e-02	U              	(-7.95077250e-05 4.90438814e-05 1.50646448e-01)	(-1.43951156e-04 -1.45036143e-03 7.50000000e-03)	(7.40081749e-03 7.12170154e-02 1.33800622e+00)	(-1.04101859e-04 -1.11232386e-03 1.50000000e-03)
2.75000000e-02	p              	0.00000000e+00	(-5.25000000e-04 0.00000000e+00 2.16000000e-01)	1.86648740e+01	(-1.43951156e-04 -1.45036143e-03 1.50000000e-03)
2.75000000e-02	U              	(-7.95075127e-05 4.90452710e-05 1.50646615e-01)	(-1.43951156e-04 -1.45036143e-03 7.50000000e-03)	(7.40082642e-03 7.12171334e-02 1.33800672e+00)	(-1.04101859e-04 -1.11232386e-03 1.50000000e-03)
2.80000000e-02	p              	0.00000000e+00	(-5.25000000e-04 0.00000000e+00 2.16000000e-01)	1.86611313e+01	(1.45036143e-03 1.43951156e-04 1.50000000e-03)
2.80000000e-02	U              	(-7.95072663e-05 4.90467489e-05 1.50646745e-01)	(-1.43951156e-04 -1.45036143e-03 7.50000000e-03)	(7.40083422e-03 7.12172338e-02 1.33800720e+00)	(-1.04101859e-04 -1.11232386e-03 1.50000000e-03)
2.85000000e-02	p              	0.00000000e+00	(-5.25000000e-04 0.00000000e+00 2.16000000e-01)	1.86577453e+01	(-1.45036143e-03 -1.43951156e-04 1.50000000e-03)
2.85000000e-02	U              	(-7.95068016e-05 4.90476903e-05 1.50646845e-01)	(-1.43951156e-04 -1.45036143e-03 7.50000000e-03)	(7.40084205e-03 7.12173222e-02 1.33800766e+00)	(-1.04101859e-04 -1.11232386e-03 1.50000000e-03)
2.90000000e-02	p              	0.00000000e+00	(-5.25000000e-04 0.00000000e+00 2.16000000e-01)	1.86546589e+01	(-1.43951156e-04 1.45036143e-03 1.50000000e-03)
2.90000000e-02	U              	(-7.95063874e-05 4.90486934e-05 1.50646912e-01)	(-1.43951156e-04 -1.45036143e-03 7.50000000e-03)	(7.40084822e-03 7.12173956e-02 1.33800808e+00)	(-1.04101859e-04 -1.11232386e-03 1.50000000e-03)
2.95000000e-02	p              	0.00000000e+00	(-5.25000000e-04 0.00000000e+00 2.16000000e-01)	1.86518565e+01	(1.45036143e-03 -1.43951156e-04 1.50000000e-03)
2.95000000e-02	U              	(-7.95060439e-05 -4.90500157e-05 1.50646975e-01)	(-1.43951156e-04 1.45036143e-03 7.50000000e-03)	(7.40085284e-03 7.12174578e-02 1.33800846e+00)	(-1.04101859e-04 -1.11232386e-03 1.50000000e-03)
3.00000000e-02	p              	0.00000000e+00	(-5.25000000e-04 0.00000000e+00 2.16000000e-01)	1.86493092e+01	(-1.43951156e-04 1.45036143e-03 1.50000000e-03)
3.00000000e-02	U              	(-7.95055223e-05 -4.90510561e-05 1.50647023e-01)	(-1.43951156e-04 1.45036143e-03 7.50000000e-03)	(7.40085738e-03 7.12175124e-02 1.33800881e+00)	(-1.04101859e-04 -1.11232386e-03 1.50000000e-03)
3.05000000e-02	p              	0.00000000e+00	(-5.25000000e-04 0.00000000e+00 2.16000000e-01)	1.86469810e+01	(-1.43951156e-04 -1.45036143e-03 1.50000000e-03)
3.05000000e-02	U              	(-7.95050637e-05 4.90520642e-05 1.50647065e-01)	(-1.43951156e-04 -1.45036143e-03 7.50000000e-03)	(7.40086067e-03 7.12175584e-02 1.33800913e+00)	(-1.04101859e-04 -1.11232386e-03 1.50000000e-03)
3.10000000e-02	p              	0.00000000e+00	(-5.25000000e-04 0.00000000e+00 2.16000000e-01)	1.86448906e+01	(-1.43951156e-04 1.45036143e-03 1.50000000e-03)
3.10000000e-02	U              	(-7.95049329e-05 4.90527940e-05 1.50647081e-01)	(-1.43951156e-04 -1.45036143e-03 7.50000000e-03)	(7.40086402e-03 7.12175972e-02 1.33800939e+00)	(-1.04101859e-04 -1.11232386e-03 1.50000000e-03)
3.15000000e-02	p              	0.00000000e+00	(-5.25000000e-04 0.00000000e+00 2.16000000e-01)	1.86429845e+01	(-1.43951156e-04 1.45036143e-03 1.50000000e-03)
3.15000000e-02	U              	(-7.95047126e-05 4.90535582e-05 1.50647124e-01)	(-1.43951156e-04 -1.45036143e-03 7.50000000e-03)	(7.40086630e-03 7.12176297e-02 1.33800963e+00)	(-1.04101859e-04 -1.11232386e-03 1.50000000e-03)
3.20000000e-02	p              	0.00000000e+00	(-5.25000000e-04 0.00000000e+00 2.16000000e-01)	1.86412693e+01	(-1.45036143e-03 1.43951156e-04 1.50000000e-03)
3.20000000e-02	U              	(-7.95046254e-05 4.90543949e-05 1.50647145e-01)	(-1.43951156e-04 -1.45036143e-03 7.50000000e-03)	(7.40086887e-03 7.12176582e-02 1.33800983e+00)	(-1.04101859e-04 -1.11232386e-03 1.50000000e-03)
3.25000000e-02	p              	0.00000000e+00	(-5.25000000e-04 0.00000000e+00 2.16000000e-01)	1.86396656e+01	(-1.43951156e-04 -1.45036143e-03 1.50000000e-03)
3.25000000e-02	U              	(-7.95043279e-05 4.90547485e-05 1.50647168e-01)	(-1.43951156e-04 -1.45036143e-03 7.50000000e-03)	(7.40087111e-03 7.12176825e-02 1.33801000e+00)	(-1.04101859e-04 -1.11232386e-03 1.50000000e-03)
3.30000000e-02	p              	0.00000000e+00	(-5.25000000e-04 0.00000000e+00 2.16000000e-01)	1.86382374e+01	(1.43951156e-04 1.45036143e-03 1.50000000e-03)
3.30000000e-02	U              	(-7.95042486e-05 -4.90553827e-05 1.50647202e-01)	(-1.43951156e-04 1.45036143e-03 7.50000000e-03)	(7.40087250e-03 7.12177029e-02 1.33801015e+00)	(-1.04101859e-04 -1.11232386e-03 1.50000000e-03)
3.35000000e-02	p              	0.00000000e+00	(-5.25000000e-04 0.00000000e+00 2.16000000e-01)	1.86369409e+01	(-1.43951156e-04 -1.45036143e-03 1.50000000e-03)
3.35000000e-02	U              	(-7.95040653e-05 4.90558657e-05 1.50647225e-01)	(-1.43951156e-04 -1.45036143e-03 7.50000000e-03)	(7.40087398e-03 7.12177213e-02 1.33801027e+00)	(-1.04101859e-04 -1.11232386e-03 1.50000000e-03)
3.40000000e-02	p              	0.00000000e+00	(-5.25000000e-04 0.00000000e+00 2.16000000e-01)	1.86357667e+01	(-1.43951156e-04 1.45036143e-03 1.50000000e-03)
3.40000000e-02	U              	(-7.95040846e-05 4.90560219e-05 1.50647237e-01)	(-1.43951156e-04 -1.45036143e-03 7.50000000e-03)	(7.40087557e-03 7.12177370e-02 1.33801037e+00)	(-1.04101859e-04 -1.11232386e-03 1.50000000e-03)
3.45000000e-02	p              	0.00000000e+00	(-5.25000000e-04 0.00000000e+00 2.16000000e-01)	1.86346983e+01	(-1.45036143e-03 1.43951156e-04 1.50000000e-03)
3.45000000e-02	U              	(-7.95040612e-05 4.90563454e-05 1.50647265e-01)	(-1.43951156e-04 -1.45036143e-03 7.50000000e-03)	(7.40087678e-03 7.12177512e-02 1.33801046e+00)	(-1.04101859e-04 -1.11232386e-03 1.50000000e-03)
3.50000000e-02	p              	0.00000000e+00	(-5.25000000e-04 0.00000000e+00 2.16000000e-01)	1.86337177e+01	(-1.43951156e-04 1.45036143e-03 1.50000000e-03)
3.50000000e-02	U              	(-7.95038893e-05 4.90565458e-05 1.50647275e-01)	(-1.43951156e-04 -1.45036143e-03 7.50000000e-03)	(7.40087807e-03 7.12177629e-02 1.33801053e+00)	(-1.04101859e-04 -1.11232386e-03 1.50000000e-03)
3.55000000e-02	p              	0.00000000e+00	(-5.25000000e-04 0.00000000e+00 2.16000000e-01)	1.86328348e+01	(-1.43951156e-04 1.45036143e-03 1.50000000e-03)
3.55000000e-02	U              	(-7.95039913e-05 4.90565115e-05 1.50647290e-01)	(-1.43951156e-04 -1.45036143e-03 7.50000000e-03)	(7.40087877e-03 7.12177730e-02 1.33801059e+00)	(-1.04101859e-04 -1.11232386e-03 1.50000000e-03)
3.60000000e-02	p              	0.00000000e+00	(-5.25000000e-04 0.00000000e+00 2.16000000e-01)	1.86320380e+01	(-1.43951156e-04 1.45036143e-03 1.50000000e-03)
3.60000000e-02	U              	(-7.95038310e-05 4.90570584e-05 1.50647314e-01)	(-1.43951156e-04 -1.45036143e-03 7.50000000e-03)	(7.40087938e-03 7.12177827e-02 1.33801065e+00)	(-1.04101859e-04 -1.11232386e-03 1.50000000e-03)
3.65000000e-02	p              	0.00000000e+00	(-5.25000000e-04 0.00000000e+00 2.16000000e-01)	1.86313127e+01	(1.43951156e-04 1.45036143e-03 1.50000000e-03)
3.65000000e-02	U              	(-7.95038518e-05 4.90570282e-05 1.50647321e-01)	(-1.43951156e-04 -1.45036143e-03 7.50000000e-03)	(7.40087993e-03 7.12177903e-02 1.33801069e+00)	(-1.04101859e-04 -1.11232386e-03 1.50000000e-03)
3.70000000e-02	p              	0.00000000e+00	(-5.25000000e-04 0.00000000e+00 2.16000000e-01)	1.86306513e+01	(-1.43951156e-04 1.45036143e-03 1.50000000e-03)
3.70000000e-02	U              	(-7.95038385e-05 4.90571040e-05 1.50647328e-01)	(-1.43951156e-04 -1.45036143e-03 7.50000000e-03)	(7.40088075e-03 7.12177973e-02 1.33801073e+00)	(-1.04101859e-04 -1.11232386e-03 1.50000000e-03)
3.75000000e-02	p              	0.00000000e+00	(-5.25000000e-04 0.00000000e+00 2.16000000e-01)	1.86300492e+01	(-1.43951156e-04 1.45036143e-03 1.50000000e-03)
3.75000000e-02	U              	(-7.95037817e-05 -4.90573959e-05 1.50647343e-01)	(-1.43951156e-04 1.45036143e-03 7.50000000e-03)	(7.40088161e-03 7.12178038e-02 1.33801077e+00)	(-1.04101859e-04 -1.11232386e-03 1.50000000e-03)
3.80000000e-02	p              	0.00000000e+00	(-5.25000000e-04 0.00000000e+00 2.16000000e-01)	1.86295100e+01	(-1.45036143e-03 1.43951156e-04 1.50000000e-03)
3.80000000e-02	U              	(-7.95037100e-05 -4.90574885e-05 1.50647357e-01)	(-1.43951156e-04 1.45036143e-03 7.50000000e-03)	(7.40088214e-03 7.12178094e-02 1.33801080e+00)	(-1.04101859e-04 -1.11232386e-03 1.50000000e-03)
3.85000000e-02	p              	0.00000000e+00	(-5.25000000e-04 0.00000000e+00 2.16000000e-01)	1.86290435e+01	(-1.43951156e-04 1.45036143e-03 1.50000000e-03)
3.85000000e-02	U              	(-7.95037649e-05 -4.90575915e-05 1.50647369e-01)	(-1.43951156e-04 1.45036143e-03 7.50000000e-03)	(7.40088233e-03 7.12178138e-02 1.33801083e+00)	(-1.04101859e-04 -1.11232386e-03 1.50000000e-03)
3.90000000e-02	p              	0.00000000e+00	(-5.25000000e-04 0.00000000e+00 2.16000000e-01)	1.86285790e+01	(-1.43951156e-04 -1.45036143e-03 1.50000000e-03)
3.90000000e-02	U              	(-7.95036061e-05 -4.90577600e-05 1.50647382e-01)	(-1.43951156e-04 1.45036143e-03 7.50000000e-03)	(7.40088245e-03 7.12178184e-02 1.33801086e+00)	(-1.04101859e-04 -1.11232386e-03 1.50000000e-03)