/*--------------------------------*- C++ -*----------------------------------*\
| =========                 |                                                 |
| \\      /  F ield         | OpenFOAM: The Open Source CFD Toolbox           |
|  \\    /   O peration     | Version:  2112                                  |
|   \\  /    A nd           | Website:  www.openfoam.com                      |
|    \\/     M anipulation  |                                                 |
\*---------------------------------------------------------------------------*/
FoamFile
{
    version     2.0;
    format      ascii;
    arch        "LSB;label=32;scalar=64";
    class       volScalarField;
    location    "39";
    object      p;
}
// * * * * * * * * * * * * * * * * * * * * * * * * * * * * * * * * * * * * * //

dimensions      [0 2 -2 0 0 0 0];

internalField   nonuniform List<scalar> 
400
(
7.2203998e-09
-0.00067286797
-0.0013853457
-0.0019427039
-0.0022199973
-0.002156494
-0.0017277891
-0.00092619838
0.0002354216
0.0017074058
0.0033872866
0.0051121979
0.0066734816
0.0078491081
0.0084583978
0.0084236941
0.0078134058
0.0068445222
0.0058612982
0.0052989387
0.00065784668
-4.052057e-05
-0.00056965421
-0.00094061989
-0.0011108579
-0.001039916
-0.00070578517
-9.5539605e-05
0.00078910355
0.001916188
0.0032095852
0.0045547041
0.0057819643
0.0067162608
0.0072144301
0.0072145355
0.0067699608
0.0060527718
0.0053105261
0.004738483
0.0014237041
0.00044065449
-0.00011659532
-0.0004532382
-0.00061480324
-0.00058480617
-0.00034657575
0.00011974672
0.00082846138
0.0017699052
0.0028942862
0.0040981559
0.005228231
0.0061109677
0.0065938675
0.0065976668
0.0061557422
0.0054215138
0.0045937449
0.0037482316
0.0020141988
0.00068168895
1.677263e-05
-0.00035884969
-0.0005715454
-0.0006265558
-0.00051007967
-0.00019062918
0.00036850236
0.001184385
0.0022299086
0.0034174173
0.0045913541
0.0055569318
0.0061235508
0.0061665635
0.0056836258
0.0048170535
0.0037472915
0.0024735967
0.0021672693
0.00049611846
-0.00029625802
-0.00074870408
-0.0010582517
-0.0012452687
-0.0012927473
-0.0011513013
-0.00075504954
-5.309888e-05
0.00095702495
0.0022102794
0.003544702
0.0047326547
0.0055218376
0.0057098819
0.0052292862
0.0042016028
0.0028061806
0.00098395758
0.0016539599
-0.00031448026
-0.0012387881
-0.0017993013
-0.0022526628
-0.0026279105
-0.0028986221
-0.0029910829
-0.0028025366
-0.0022376758
-0.0012510936
0.00013089294
0.0017446418
0.0033271008
0.0045416332
0.0050657697
0.0047174884
0.0035661923
0.0017895868
-0.0007259284
0.00028702241
-0.0019195728
-0.0029730002
-0.0036713833
-0.0043202977
-0.0049532033
-0.0055301248
-0.0059479583
-0.0060590072
-0.0057073842
-0.0047757173
-0.0032586983
-0.0012665154
0.00090716757
0.0028231148
0.0039868255
0.0040250856
0.0028877002
0.0007153709
-0.0026805089
-0.0020764318
-0.0044511946
-0.0056268065
-0.0064923241
-0.0073929209
-0.0083657653
-0.0093569284
-0.010231793
-0.010790981
-0.010804851
-0.010063369
-0.0084617687
-0.0060407741
-0.0030832261
-0.00012631772
0.0021126121
0.002963817
0.0021355721
-0.00036604376
-0.0048726204
-0.0055241698
-0.0079921165
-0.0092779237
-0.010333792
-0.011537999
-0.012935417
-0.014462715
-0.015956334
-0.017162481
-0.017766048
-0.017438095
-0.015919486
-0.013122969
-0.0092517696
-0.0048990191
-0.0010300271
0.0012693989
0.0012777529
-0.0013339689
-0.0072016882
-0.010076917
-0.012565099
-0.013936668
-0.015184008
-0.016718383
-0.018602625
-0.020774204
-0.023048779
-0.025121706
-0.026586372
-0.026969368
-0.02581296
-0.022845694
-0.018074465
-0.012051106
-0.0059519666
-0.0013707513
0.00030058229
-0.0019472143
-0.0093822361
-0.015684994
-0.018132419
-0.019537561
-0.020926814
-0.022757746
-0.025129882
-0.027997013
-0.031166416
-0.03429149
-0.036876874
-0.038294199
-0.037844303
-0.035065878
-0.02960149
-0.021822516
-0.012985593
-0.0051849893
-0.00071576297
-0.0017642111
-0.010792267
-0.022243608
-0.024613047
-0.025945603
-0.027334965
-0.029324168
-0.03207924
-0.035588955
-0.039664665
-0.043927293
-0.047801329
-0.050530216
-0.051236507
-0.048956902
-0.04314357
-0.033769037
-0.021926361
-0.010036898
-0.0014154571
-9.8788123e-06
-0.010225631
-0.029641227
-0.031923909
-0.032978764
-0.034079882
-0.035939517
-0.038831531
-0.042795635
-0.047651606
-0.052990557
-0.058163613
-0.062284275
-0.064265558
-0.062875182
-0.057112209
-0.046476762
-0.031649105
-0.015037877
-0.00086440248
0.0046467522
-0.005521548
-0.037866018
-0.040048527
-0.040440161
-0.040752539
-0.042015059
-0.04465308
-0.048758216
-0.054144085
-0.060356058
-0.066665372
-0.072060713
-0.075268306
-0.074811385
-0.069269288
-0.057628326
-0.039961525
-0.018247985
0.0027890272
0.014445148
0.0069075389
-0.047230605
-0.049134368
-0.048140596
-0.046882326
-0.046905522
-0.048798708
-0.05266831
-0.058276039
-0.065076129
-0.072232023
-0.078595793
-0.082712344
-0.082880231
-0.077309411
-0.064523957
-0.04393497
-0.016748
0.012502939
0.032938777
0.032408947
-0.058896816
-0.059639897
-0.055883909
-0.051941074
-0.049972348
-0.050629899
-0.053928665
-0.059495362
-0.066611884
-0.074285323
-0.081191194
-0.085679429
-0.08583182
-0.079522215
-0.064876117
-0.040689281
-0.0072409305
0.032139365
0.064981445
0.077749177
-0.076226545
-0.072613772
-0.063516164
-0.055435373
-0.050725041
-0.049781624
-0.052312363
-0.057664386
-0.064891843
-0.072774997
-0.079779393
-0.084036773
-0.083391679
-0.075348983
-0.057602692
-0.028375154
0.012933319
0.065396471
0.11555151
0.15150622
-0.10809225
-0.089556422
-0.071233855
-0.057232995
-0.049072132
-0.046330231
-0.048077285
-0.053202628
-0.060434646
-0.06829589
-0.07502742
-0.07852694
-0.076389032
-0.065809698
-0.043865499
-0.0078184621
0.044393661
0.11299815
0.18838042
0.27186076
-0.17684552
-0.10828977
-0.076202554
-0.054651274
-0.042992398
-0.038998047
-0.040570531
-0.045928066
-0.053441562
-0.061438383
-0.068027611
-0.070962584
-0.067551158
-0.054739858
-0.029148833
0.013563587
0.078146948
0.17006435
0.28949546
0.47421821
-0.37208351
-0.12470851
-0.054973102
-0.031962546
-0.02206358
-0.020300543
-0.024359478
-0.031958023
-0.041261584
-0.050640911
-0.058316926
-0.062187489
-0.059782579
-0.048056834
-0.022658548
0.021474192
0.092818711
0.21015276
0.40288842
0.77640928
)
;

boundaryField
{
    movingWall
    {
        type            zeroGradient;
    }
    fixedWalls
    {
        type            zeroGradient;
    }
    frontAndBack
    {
        type            empty;
    }
}


// ************************************************************************* //
