/*--------------------------------*- C++ -*----------------------------------*\
| =========                 |                                                 |
| \\      /  F ield         | OpenFOAM: The Open Source CFD Toolbox           |
|  \\    /   O peration     | Version:  2112                                  |
|   \\  /    A nd           | Website:  www.openfoam.com                      |
|    \\/     M anipulation  |                                                 |
\*---------------------------------------------------------------------------*/
FoamFile
{
    version     2.0;
    format      ascii;
    arch        "LSB;label=32;scalar=64";
    class       volScalarField;
    location    "85";
    object      T;
}
// * * * * * * * * * * * * * * * * * * * * * * * * * * * * * * * * * * * * * //

dimensions      [0 0 0 1 0 0 0];

internalField   nonuniform List<scalar> 
10000
(
0.998128
1.00296
0.998195
0.998943
0.999079
0.998989
0.998945
0.998192
1.00291
0.99816
0.990582
0.99705
0.992635
0.993929
0.994205
0.99413
0.993929
0.992615
0.996858
0.990711
0.99178
0.996164
0.993165
0.993959
0.994189
0.994251
0.993982
0.993194
0.996058
0.991809
0.994612
0.997364
0.995492
0.995744
0.995827
0.995918
0.995792
0.995564
0.997476
0.99456
0.995883
0.997766
0.996808
0.996904
0.996925
0.996976
0.996946
0.996852
0.99794
0.99588
0.996445
0.997722
0.997267
0.997358
0.997376
0.997406
0.99739
0.997292
0.997832
0.996444
0.996947
0.99778
0.997542
0.997637
0.99766
0.997677
0.997656
0.997556
0.997814
0.996922
0.997343
0.99788
0.997768
0.997855
0.997886
0.997891
0.997862
0.997769
0.99789
0.997325
0.997598
0.997951
0.997907
0.997988
0.998021
0.99802
0.997987
0.997902
0.997956
0.997584
0.997759
0.997999
0.997992
0.998059
0.99809
0.998087
0.998055
0.997981
0.998002
0.997746
0.99787
0.998029
0.998026
0.998094
0.998107
0.998118
0.998093
0.998012
0.998053
0.99782
0.997951
0.998055
0.998041
0.998114
0.998107
0.998135
0.998116
0.998023
0.998099
0.99785
0.99801
0.998091
0.998084
0.998133
0.998133
0.998147
0.998127
0.998058
0.998104
0.997938
0.998053
0.998121
0.998115
0.998149
0.998154
0.998159
0.998139
0.998086
0.998102
0.998015
0.998061
0.99818
0.99816
0.998171
0.998189
0.998156
0.998128
0.998119
0.99811
0.998073
0.998021
0.998235
0.998183
0.998187
0.998215
0.998137
0.998104
0.99812
0.99812
0.998067
0.998071
0.998218
0.998167
0.998199
0.998208
0.998168
0.998141
0.998093
0.99809
0.998071
0.998194
0.998189
0.99819
0.998203
0.998187
0.998199
0.998171
0.998091
0.99801
0.998156
0.998171
0.99819
0.998212
0.998185
0.998157
0.998162
0.998119
0.998067
0.997924
0.998122
0.998055
0.998228
0.998252
0.99818
0.998188
0.998128
0.998064
0.998042
0.997783
0.9981
0.998073
0.998256
0.99829
0.998236
0.998243
0.998166
0.998078
0.997991
0.997632
0.998105
0.99805
0.998242
0.998283
0.998283
0.998257
0.998205
0.998078
0.99786
0.997403
0.997937
0.997753
0.998169
0.998214
0.99824
0.998229
0.998169
0.997995
0.997657
0.996925
0.997576
0.997159
0.997903
0.997984
0.998069
0.998111
0.998062
0.997851
0.997359
0.996126
0.99693
0.996014
0.99722
0.99741
0.997616
0.997764
0.997791
0.997592
0.996936
0.994861
0.995692
0.993745
0.99563
0.996058
0.996481
0.996843
0.997078
0.99705
0.996394
0.993075
0.993447
0.989225
0.992091
0.992969
0.99377
0.994527
0.995208
0.995689
0.995567
0.990621
0.988853
0.980371
0.984598
0.986197
0.987588
0.989007
0.99056
0.992317
0.994563
0.990428
0.984091
0.963582
0.969513
0.972067
0.974176
0.976454
0.97926
0.982912
0.989693
0.992007
0.97963
0.93337
0.941091
0.944443
0.947008
0.950051
0.954504
0.961892
0.979521
1.02971
1.06307
1.00288
1.0083
1.00333
1.00423
1.00442
1.00441
1.00423
1.00336
1.00821
1.0029
0.996786
1.00553
1.00108
1.00251
1.0029
1.00294
1.00251
1.0012
1.00547
0.99683
0.996163
1.00292
1.00037
1.001
1.00123
1.0012
1.00098
1.00045
1.00304
0.996076
0.99749
1.00149
1.00004
1.00007
1.00009
0.999996
1.00002
0.999968
1.00142
0.997543
0.997937
1.00013
0.999303
0.999202
0.999163
0.9991
0.999162
0.999211
1
0.998017
0.997832
0.999144
0.99876
0.998672
0.998618
0.998589
0.998652
0.998708
0.99912
0.997892
0.997786
0.998597
0.998479
0.998422
0.998377
0.998367
0.998415
0.998458
0.998674
0.997853
0.99786
0.998388
0.998342
0.998311
0.998283
0.998279
0.998309
0.998337
0.998456
0.997915
0.997934
0.998296
0.998272
0.998259
0.998247
0.998245
0.998259
0.998275
0.99834
0.997974
0.997987
0.998244
0.998232
0.998229
0.998231
0.998228
0.998231
0.998236
0.99827
0.998019
0.998035
0.998219
0.998247
0.998224
0.998259
0.998228
0.998221
0.998248
0.998248
0.998083
0.998083
0.998216
0.998291
0.998231
0.998307
0.998234
0.998223
0.998289
0.99825
0.998151
0.998114
0.998208
0.998262
0.998225
0.998277
0.998229
0.998219
0.998253
0.998223
0.998159
0.998128
0.998206
0.998235
0.998223
0.998244
0.99822
0.99821
0.998213
0.99819
0.998159
0.998158
0.998223
0.998189
0.998213
0.998192
0.998234
0.998227
0.998156
0.998154
0.998159
0.998164
0.998276
0.998174
0.998212
0.998144
0.998279
0.998269
0.998125
0.998134
0.998181
0.9981
0.998338
0.998258
0.998221
0.998164
0.99822
0.998197
0.998161
0.998104
0.998194
0.998088
0.99827
0.998267
0.998219
0.998202
0.998127
0.998087
0.998103
0.998013
0.998144
0.998147
0.99826
0.998289
0.998269
0.998273
0.998163
0.99811
0.998049
0.997952
0.998139
0.998164
0.998376
0.998303
0.998331
0.998244
0.998221
0.998147
0.997946
0.997846
0.998114
0.998018
0.998346
0.998261
0.998267
0.998151
0.998139
0.99802
0.997746
0.997528
0.998007
0.997767
0.998279
0.998273
0.998177
0.998121
0.998015
0.997848
0.997562
0.997103
0.997884
0.997481
0.998276
0.998272
0.998144
0.998094
0.997962
0.997739
0.997321
0.996592
0.997681
0.996935
0.998155
0.998145
0.998019
0.997976
0.997856
0.997578
0.996954
0.995786
0.997236
0.995843
0.997675
0.997703
0.997612
0.997622
0.997566
0.997275
0.996421
0.994509
0.996257
0.993682
0.996372
0.996521
0.996536
0.996696
0.996825
0.99668
0.995723
0.99269
0.99434
0.989365
0.993267
0.993678
0.993917
0.994389
0.994927
0.995281
0.994722
0.990097
0.990002
0.980864
0.98638
0.987247
0.987859
0.988874
0.990214
0.991776
0.99337
0.989811
0.985728
0.964544
0.972026
0.973498
0.974545
0.97626
0.978749
0.982016
0.988641
0.989316
0.980909
0.93467
0.944143
0.946005
0.947154
0.949401
0.953329
0.959935
0.978702
1.03037
1.05469
0.998207
1.00337
0.998075
0.998867
0.999053
0.99907
0.998845
0.998073
1.00337
0.998191
0.992632
1.00115
0.996224
0.997544
0.997988
0.998061
0.997574
0.996349
1.00122
0.992603
0.993182
1.00039
0.997464
0.997967
0.998288
0.998321
0.998025
0.99761
1.00043
0.993201
0.995503
1.00002
0.998682
0.998686
0.998798
0.998799
0.998717
0.998708
0.999912
0.995615
0.99681
0.999264
0.998797
0.998771
0.998789
0.998784
0.99878
0.998777
0.999156
0.996924
0.997272
0.998733
0.998666
0.998671
0.998655
0.998648
0.99867
0.998632
0.998674
0.997362
0.997554
0.998469
0.998543
0.99857
0.998555
0.998548
0.998564
0.998506
0.998442
0.99761
0.99778
0.998342
0.998436
0.998475
0.998472
0.998468
0.998466
0.998409
0.99833
0.997807
0.997916
0.998274
0.998356
0.998398
0.998405
0.998403
0.998391
0.99834
0.99827
0.997935
0.997991
0.998232
0.9983
0.998339
0.998353
0.998352
0.998335
0.99829
0.998232
0.998006
0.998043
0.998207
0.998266
0.998295
0.998316
0.998312
0.998294
0.998259
0.998207
0.998053
0.998083
0.998195
0.998246
0.998265
0.998291
0.998283
0.998265
0.998238
0.998193
0.998093
0.998108
0.998191
0.998234
0.998248
0.99827
0.998262
0.998246
0.998222
0.998182
0.998124
0.99812
0.998197
0.998232
0.998242
0.998255
0.998245
0.99823
0.99821
0.998174
0.998154
0.998125
0.998206
0.998226
0.99824
0.998239
0.998232
0.998216
0.99819
0.998163
0.998178
0.998126
0.998226
0.998225
0.998238
0.998227
0.998228
0.998206
0.99817
0.998145
0.998199
0.998121
0.998241
0.998232
0.998231
0.99822
0.998219
0.998191
0.998151
0.998115
0.998221
0.998098
0.998235
0.998239
0.998221
0.998212
0.998199
0.998167
0.998119
0.998062
0.998238
0.998059
0.998248
0.998258
0.998226
0.998208
0.99818
0.998141
0.998074
0.997999
0.998269
0.998005
0.998283
0.998285
0.998247
0.998207
0.998171
0.998112
0.998009
0.997902
0.998306
0.997902
0.998312
0.998314
0.99826
0.998207
0.998158
0.998068
0.997911
0.997732
0.998337
0.997724
0.998332
0.998337
0.998256
0.9982
0.99813
0.997999
0.997767
0.99746
0.998346
0.997408
0.998307
0.998324
0.998219
0.998159
0.998074
0.997892
0.997542
0.997017
0.998267
0.996812
0.998163
0.998206
0.998091
0.998038
0.997954
0.997721
0.997205
0.996302
0.997978
0.995699
0.99772
0.997823
0.997725
0.997714
0.997681
0.99743
0.996719
0.995158
0.997194
0.99358
0.996549
0.99679
0.996765
0.996871
0.996995
0.996864
0.996062
0.993489
0.995495
0.989443
0.993732
0.99423
0.994371
0.994719
0.995197
0.995492
0.995054
0.991085
0.991436
0.98132
0.987354
0.988265
0.98868
0.98945
0.99059
0.991937
0.993511
0.990853
0.987924
0.965583
0.973752
0.97515
0.975828
0.977102
0.979131
0.981962
0.98824
0.989994
0.983814
0.936224
0.946601
0.948174
0.948681
0.950178
0.953252
0.958988
0.97656
1.03021
1.05969
0.998956
1.00425
0.998854
0.999669
0.999874
0.999876
0.999649
0.998835
1.00425
0.998936
0.993942
1.00252
0.997519
0.998789
0.999232
0.999259
0.998793
0.997581
1.00256
0.993878
0.993992
1.00098
0.997964
0.998335
0.998627
0.998652
0.998365
0.998064
1.00097
0.993979
0.995756
1.00006
0.9987
0.998595
0.998677
0.998689
0.998623
0.998735
0.99995
0.995868
0.996912
0.999195
0.998779
0.998702
0.998698
0.9987
0.998717
0.998776
0.999096
0.997044
0.997374
0.998662
0.998672
0.998681
0.998657
0.998657
0.998689
0.998656
0.998606
0.997481
0.997645
0.998414
0.998568
0.998631
0.998621
0.99862
0.998633
0.998548
0.998389
0.997725
0.997855
0.998306
0.998472
0.998553
0.998562
0.998561
0.998552
0.998457
0.998298
0.997911
0.997983
0.998258
0.998397
0.998476
0.998496
0.998496
0.998473
0.998387
0.998255
0.998025
0.998053
0.998232
0.998343
0.998412
0.998436
0.998436
0.998409
0.998335
0.99823
0.998089
0.9981
0.998216
0.998307
0.998361
0.998388
0.998385
0.998358
0.9983
0.998218
0.998129
0.998131
0.998209
0.998282
0.998323
0.998348
0.998344
0.998319
0.998275
0.998211
0.998158
0.998148
0.998207
0.998263
0.998293
0.998314
0.99831
0.99829
0.998253
0.998203
0.998181
0.998152
0.998208
0.99825
0.998272
0.998287
0.998283
0.998265
0.998234
0.998193
0.998199
0.998146
0.998214
0.998239
0.998256
0.998265
0.998262
0.998245
0.998215
0.998181
0.998215
0.998137
0.99822
0.998235
0.998246
0.998248
0.998247
0.998229
0.998197
0.998165
0.998232
0.998122
0.998225
0.99824
0.99824
0.998236
0.998232
0.998211
0.998177
0.998142
0.998255
0.998098
0.998226
0.998246
0.998234
0.998227
0.998215
0.998188
0.998148
0.998104
0.998281
0.998062
0.998239
0.998258
0.998235
0.998222
0.998202
0.998166
0.998109
0.998051
0.998318
0.998
0.998262
0.998277
0.998242
0.998217
0.998189
0.998138
0.998052
0.997966
0.998365
0.997881
0.998279
0.998293
0.998246
0.99821
0.998172
0.998095
0.997964
0.997818
0.998409
0.997679
0.998292
0.998309
0.998242
0.998198
0.998145
0.998032
0.997831
0.997573
0.998433
0.997356
0.998262
0.998301
0.998214
0.998162
0.998098
0.997938
0.997631
0.997173
0.99838
0.996777
0.998123
0.998205
0.998103
0.998056
0.997996
0.997786
0.997325
0.996512
0.998128
0.995708
0.997725
0.997864
0.997772
0.99776
0.997745
0.997514
0.996865
0.995428
0.997385
0.993687
0.996649
0.996918
0.996883
0.996963
0.997089
0.996959
0.996218
0.993813
0.995735
0.989737
0.994021
0.994527
0.994614
0.994888
0.995323
0.995569
0.995168
0.99151
0.991865
0.981933
0.98797
0.988837
0.989117
0.989719
0.990723
0.991939
0.993524
0.991207
0.988583
0.96661
0.974799
0.97606
0.976468
0.977407
0.979096
0.981584
0.987468
0.989835
0.984777
0.937482
0.947937
0.949221
0.949261
0.950181
0.952608
0.957659
0.974585
1.02921
1.06088
0.998948
1.00449
0.999069
0.999827
1.00004
1.00004
0.999814
0.999057
1.0045
0.998933
0.994058
1.00301
0.998052
0.999243
0.999664
0.999675
0.999247
0.998105
1.00306
0.994014
0.994331
1.00105
0.998284
0.998647
0.998934
0.998949
0.998672
0.998376
1.00106
0.994326
0.99594
0.999946
0.998776
0.998653
0.998727
0.99874
0.99868
0.998818
0.999866
0.996043
0.996975
0.999096
0.998771
0.998678
0.99866
0.998666
0.998692
0.998772
0.999013
0.997105
0.997401
0.998591
0.998641
0.998647
0.998613
0.998616
0.998656
0.998628
0.998539
0.99752
0.997669
0.998365
0.998545
0.998616
0.998602
0.998604
0.998621
0.99853
0.998341
0.99776
0.99788
0.998279
0.998463
0.99856
0.99857
0.99857
0.998561
0.998455
0.998269
0.997948
0.998008
0.998254
0.9984
0.998495
0.998519
0.998519
0.998495
0.998396
0.998242
0.998064
0.998083
0.998238
0.998356
0.998437
0.998466
0.998466
0.998436
0.998351
0.99823
0.998125
0.998131
0.998221
0.998326
0.998388
0.998416
0.998416
0.998385
0.998317
0.998224
0.998162
0.998156
0.998216
0.998301
0.998347
0.998373
0.998371
0.998343
0.998289
0.998219
0.998188
0.998167
0.998212
0.998278
0.998314
0.998335
0.998333
0.99831
0.998267
0.998211
0.998205
0.998165
0.998211
0.998256
0.998287
0.998304
0.998302
0.998282
0.998247
0.998202
0.998219
0.998153
0.998223
0.998241
0.998267
0.99828
0.998277
0.998259
0.998227
0.99819
0.998232
0.998142
0.998234
0.99824
0.998255
0.998261
0.998258
0.99824
0.998209
0.998176
0.998248
0.998132
0.998229
0.998249
0.998247
0.998246
0.99824
0.99822
0.998188
0.998154
0.998271
0.998111
0.998225
0.998257
0.998241
0.998236
0.998225
0.998199
0.99816
0.99812
0.998299
0.998068
0.998237
0.998266
0.998241
0.998228
0.998211
0.998177
0.998123
0.998068
0.998337
0.998001
0.998255
0.998276
0.998243
0.998222
0.998197
0.998149
0.998068
0.997986
0.998384
0.997867
0.998297
0.998293
0.998246
0.998215
0.998179
0.998107
0.997985
0.997845
0.998431
0.997649
0.998351
0.998312
0.998244
0.998201
0.998154
0.998046
0.997858
0.997611
0.99846
0.997356
0.998274
0.998302
0.998215
0.998165
0.998109
0.997956
0.997662
0.997221
0.998414
0.996804
0.998102
0.998209
0.998109
0.998063
0.99801
0.997807
0.997361
0.996568
0.99817
0.995743
0.997767
0.997885
0.99779
0.997773
0.997763
0.997535
0.996904
0.995492
0.997434
0.99378
0.99673
0.996974
0.996928
0.99699
0.997111
0.996976
0.996251
0.993882
0.995795
0.989932
0.994182
0.994656
0.994705
0.994936
0.995347
0.995565
0.995172
0.991588
0.991966
0.982305
0.988264
0.98908
0.98928
0.989788
0.990719
0.991859
0.993422
0.991227
0.988736
0.967189
0.975273
0.976438
0.976685
0.977442
0.97897
0.981309
0.987082
0.989572
0.984923
0.938115
0.948518
0.949596
0.949357
0.949969
0.952087
0.956846
0.973351
1.02807
1.05988
0.999089
1.00442
0.999043
0.999864
1.00008
1.00008
0.99985
0.99903
1.00443
0.999071
0.994204
1.00289
0.997967
0.999219
0.999662
0.999668
0.999221
0.998021
1.00295
0.99414
0.994174
1.00125
0.9983
0.99863
0.998914
0.998926
0.998653
0.998387
1.00126
0.994156
0.995818
1.00012
0.998816
0.998685
0.998755
0.998767
0.998708
0.998851
1.00003
0.995922
0.996929
0.999175
0.998793
0.998699
0.998679
0.998686
0.998711
0.998793
0.999089
0.997063
0.997382
0.998624
0.998653
0.998657
0.99862
0.998625
0.998664
0.998638
0.998566
0.997506
0.99766
0.998382
0.99855
0.99862
0.998605
0.998607
0.998624
0.998534
0.998349
0.997758
0.997858
0.998318
0.998467
0.998562
0.998571
0.998571
0.998562
0.998455
0.998271
0.997949
0.997971
0.998332
0.998406
0.998497
0.998521
0.99852
0.998495
0.998394
0.998242
0.998064
0.998081
0.99826
0.99836
0.998439
0.998467
0.998466
0.998436
0.99835
0.99823
0.998126
0.998157
0.998171
0.998324
0.998387
0.998416
0.998416
0.998385
0.998315
0.998224
0.998163
0.99817
0.998176
0.998297
0.998346
0.998371
0.99837
0.998343
0.998288
0.998219
0.998187
0.998174
0.998194
0.998272
0.998313
0.998334
0.998333
0.99831
0.998266
0.998211
0.998205
0.998156
0.998237
0.998256
0.998288
0.998304
0.998302
0.998282
0.998246
0.998202
0.998219
0.998109
0.998324
0.998251
0.998271
0.998281
0.998277
0.998259
0.998228
0.998192
0.998232
0.998102
0.998326
0.998252
0.998259
0.998263
0.998257
0.998239
0.998209
0.998176
0.99825
0.998144
0.998201
0.99825
0.998248
0.998248
0.998241
0.998221
0.998188
0.998155
0.998273
0.99815
0.99813
0.998249
0.99824
0.998236
0.998225
0.998201
0.998161
0.998121
0.998301
0.998094
0.99817
0.998254
0.998238
0.998227
0.998211
0.998178
0.998124
0.998069
0.998338
0.998008
0.998226
0.998267
0.99824
0.99822
0.998197
0.998148
0.998069
0.997986
0.998385
0.997879
0.998264
0.998288
0.998244
0.998214
0.998179
0.998108
0.997987
0.997847
0.998434
0.997681
0.998281
0.998308
0.998241
0.998202
0.998155
0.998048
0.99786
0.997615
0.998463
0.997366
0.998251
0.998304
0.998215
0.998167
0.99811
0.997957
0.997664
0.997224
0.998415
0.996797
0.998126
0.998214
0.998111
0.998064
0.998011
0.997809
0.997363
0.996571
0.998169
0.995754
0.997748
0.99789
0.997794
0.997775
0.997765
0.997538
0.996908
0.995496
0.997433
0.993784
0.996725
0.996984
0.996931
0.996994
0.997117
0.99698
0.996256
0.993892
0.995807
0.98994
0.994203
0.994673
0.994714
0.994945
0.995357
0.995577
0.995182
0.991585
0.991957
0.982315
0.988327
0.989118
0.989303
0.989809
0.990734
0.991857
0.993384
0.991264
0.98894
0.967221
0.975393
0.97651
0.976744
0.977501
0.979033
0.981395
0.987284
0.989618
0.984474
0.938214
0.948678
0.949731
0.949484
0.950094
0.952219
0.956996
0.973485
1.02847
1.06115
0.99893
1.00425
0.99886
0.999652
0.999853
0.99985
0.999636
0.998842
1.00425
0.998911
0.993891
1.00254
0.997556
0.998792
0.999227
0.99923
0.998789
0.997599
1.00259
0.993825
0.993948
1.00101
0.998005
0.998354
0.998641
0.99865
0.998372
0.998086
1.00101
0.993922
0.995778
1.00004
0.998703
0.99861
0.998692
0.998702
0.998629
0.998734
0.999947
0.995877
0.996939
0.999175
0.998769
0.998706
0.998701
0.998706
0.998716
0.998767
0.999082
0.997071
0.997383
0.998658
0.998664
0.998683
0.99866
0.998663
0.998689
0.998648
0.998598
0.997503
0.997644
0.99842
0.99856
0.99863
0.998622
0.998624
0.998632
0.998541
0.998384
0.997739
0.997842
0.998318
0.998462
0.998551
0.998562
0.998562
0.99855
0.998449
0.998294
0.997919
0.997969
0.998276
0.998389
0.998474
0.998495
0.998495
0.998471
0.99838
0.998254
0.998028
0.998049
0.998244
0.998342
0.998411
0.998437
0.998435
0.998408
0.998331
0.998232
0.998093
0.998101
0.998218
0.99831
0.998363
0.998387
0.998385
0.998358
0.998296
0.998219
0.998134
0.998137
0.99821
0.998285
0.998325
0.998346
0.998345
0.99832
0.998272
0.998212
0.998163
0.998153
0.998205
0.998263
0.998295
0.998312
0.998312
0.998291
0.998252
0.998204
0.998184
0.998147
0.99821
0.998244
0.998272
0.998286
0.998284
0.998266
0.998233
0.998194
0.998202
0.998131
0.998231
0.998234
0.998257
0.998267
0.998263
0.998245
0.998217
0.998183
0.998217
0.998125
0.99824
0.998237
0.998248
0.998252
0.998246
0.998228
0.998199
0.998167
0.998235
0.998128
0.998228
0.998247
0.998242
0.99824
0.998231
0.998211
0.998178
0.998143
0.998258
0.99812
0.99822
0.998254
0.998238
0.99823
0.998217
0.998191
0.998149
0.998108
0.998287
0.998062
0.998263
0.998265
0.998238
0.998223
0.998204
0.998168
0.998111
0.998054
0.998321
0.997966
0.998336
0.998283
0.998245
0.998219
0.99819
0.998138
0.998055
0.997966
0.998362
0.997874
0.998303
0.998302
0.998249
0.998213
0.998173
0.998096
0.997969
0.99782
0.998407
0.997714
0.998236
0.998317
0.998245
0.9982
0.998147
0.998035
0.997838
0.997581
0.998433
0.997389
0.998215
0.998308
0.998216
0.998164
0.998101
0.997941
0.997636
0.997182
0.998382
0.996802
0.998105
0.998209
0.998107
0.998059
0.998
0.99779
0.997331
0.996519
0.998135
0.99573
0.997717
0.997871
0.99778
0.997766
0.997751
0.99752
0.996876
0.995438
0.997393
0.993712
0.996658
0.996934
0.996897
0.996975
0.997099
0.996968
0.996234
0.993832
0.995746
0.989782
0.994055
0.994561
0.994644
0.994915
0.995348
0.995591
0.995194
0.991532
0.991868
0.98202
0.988054
0.988914
0.989188
0.989784
0.990774
0.991961
0.993558
0.991246
0.988613
0.966786
0.974984
0.976231
0.976633
0.977562
0.979233
0.981677
0.987588
0.989868
0.984674
0.937824
0.948299
0.949576
0.949613
0.950525
0.952937
0.957936
0.974786
1.02935
1.06076
0.998197
1.00336
0.998081
0.998856
0.99905
0.999048
0.998842
0.998068
1.00337
0.998178
0.992608
1.00118
0.996332
0.997575
0.998009
0.998018
0.997591
0.996403
1.00127
0.992555
0.993175
1.00045
0.997588
0.998042
0.998353
0.998369
0.99808
0.997705
1.0005
0.993161
0.995541
0.999989
0.998693
0.998711
0.998821
0.99883
0.998728
0.998726
0.999884
0.995632
0.996825
0.999217
0.998764
0.998759
0.998777
0.99878
0.998762
0.998755
0.999103
0.996949
0.997271
0.998706
0.998624
0.998648
0.998634
0.998635
0.998646
0.998596
0.998627
0.997377
0.997543
0.998464
0.998502
0.998547
0.998535
0.998534
0.998541
0.998469
0.998407
0.997617
0.997749
0.99834
0.998405
0.998457
0.998457
0.998455
0.99845
0.998378
0.998308
0.997809
0.997885
0.99828
0.998342
0.998388
0.998397
0.998395
0.998381
0.99832
0.998259
0.997932
0.99798
0.998249
0.998299
0.998339
0.998353
0.99835
0.998332
0.998282
0.998231
0.998009
0.998043
0.998218
0.99827
0.998303
0.998318
0.998317
0.998297
0.998256
0.998214
0.998067
0.998089
0.998202
0.998256
0.998279
0.998292
0.99829
0.998272
0.998239
0.998202
0.99811
0.998115
0.998195
0.998242
0.99826
0.998271
0.998269
0.998254
0.998224
0.99819
0.998142
0.998125
0.998201
0.998227
0.998246
0.998255
0.998252
0.998237
0.99821
0.998178
0.998167
0.998132
0.998227
0.998222
0.998238
0.998243
0.998238
0.998221
0.998195
0.998164
0.998189
0.998127
0.998242
0.998228
0.998234
0.998233
0.998225
0.998206
0.998178
0.998146
0.998209
0.998118
0.998235
0.998243
0.998234
0.998226
0.998214
0.998189
0.998156
0.998118
0.998228
0.99811
0.998229
0.998255
0.998232
0.998219
0.998201
0.998171
0.998124
0.998074
0.998249
0.998076
0.998254
0.998265
0.998234
0.998215
0.998188
0.998146
0.998079
0.998007
0.998276
0.998009
0.998303
0.998285
0.998244
0.998214
0.998174
0.998111
0.998013
0.997903
0.998306
0.9979
0.998321
0.998316
0.998252
0.998208
0.998155
0.998063
0.997914
0.997734
0.998333
0.997726
0.998319
0.998342
0.998251
0.998194
0.998124
0.997993
0.997765
0.997462
0.998333
0.997415
0.998293
0.99833
0.998219
0.998156
0.998072
0.997889
0.997541
0.997022
0.998256
0.996823
0.998154
0.998214
0.998097
0.998041
0.997959
0.997726
0.997213
0.996311
0.997983
0.995718
0.997718
0.997837
0.99774
0.997726
0.997692
0.997442
0.996737
0.995173
0.997216
0.993612
0.996569
0.996816
0.996792
0.996894
0.997018
0.996886
0.996091
0.99352
0.995547
0.989507
0.993787
0.994286
0.994423
0.994768
0.995243
0.995536
0.995104
0.99113
0.991531
0.981448
0.987481
0.988389
0.988795
0.989556
0.990681
0.992002
0.993594
0.99096
0.98816
0.965846
0.97402
0.975414
0.976084
0.977345
0.979356
0.982166
0.988535
0.990166
0.983933
0.93674
0.947136
0.948708
0.949214
0.950698
0.953757
0.959406
0.9771
1.03083
1.05995
1.0029
1.0082
1.00335
1.00423
1.00441
1.00441
1.00424
1.00337
1.00823
1.00288
0.996835
1.00544
1.00118
1.00253
1.00292
1.00293
1.00256
1.00126
1.00556
0.996773
0.996031
1.00309
1.00042
1.00099
1.00128
1.00128
1.00101
1.0005
1.0031
0.996
0.997421
1.00155
0.999924
0.999978
1.00007
1.00006
0.999954
0.999889
1.0013
0.997522
0.997927
1.00005
0.999154
0.99911
0.999111
0.999106
0.999086
0.999106
0.999885
0.998041
0.99786
0.999104
0.998667
0.998612
0.99858
0.998577
0.998599
0.998628
0.999059
0.99794
0.997803
0.998721
0.998443
0.998395
0.998358
0.998355
0.998385
0.998406
0.99865
0.997896
0.997909
0.998475
0.998332
0.998303
0.998276
0.998274
0.998296
0.998307
0.99845
0.997944
0.99802
0.998339
0.998277
0.99826
0.998245
0.998244
0.998254
0.998258
0.99834
0.997992
0.997992
0.998323
0.998246
0.998238
0.998234
0.998233
0.998232
0.99823
0.998275
0.99803
0.998008
0.99822
0.998222
0.998225
0.998228
0.998226
0.998221
0.998215
0.998237
0.998066
0.99809
0.998129
0.998213
0.998216
0.998222
0.998221
0.998214
0.998203
0.99821
0.998097
0.998125
0.998143
0.998207
0.998212
0.998218
0.998217
0.998208
0.998193
0.998187
0.998121
0.998143
0.998225
0.998206
0.998212
0.998216
0.998212
0.9982
0.998181
0.998165
0.998141
0.998134
0.99835
0.998216
0.998218
0.998216
0.998207
0.998191
0.998169
0.998143
0.998153
0.998093
0.99834
0.998223
0.998222
0.998215
0.998201
0.998181
0.998152
0.998116
0.998159
0.998112
0.998191
0.998232
0.998222
0.99821
0.998193
0.998166
0.998126
0.998076
0.998163
0.998163
0.998133
0.998246
0.998221
0.998205
0.998182
0.998145
0.998088
0.998017
0.998162
0.998153
0.998248
0.99827
0.998231
0.998206
0.99817
0.998117
0.998035
0.997928
0.998148
0.998096
0.998394
0.998304
0.998249
0.99821
0.998156
0.998077
0.997953
0.997788
0.998119
0.997995
0.998372
0.99833
0.99826
0.998206
0.998134
0.998019
0.99783
0.997568
0.998063
0.997837
0.998301
0.998347
0.998253
0.998189
0.998097
0.997935
0.997647
0.997223
0.997948
0.997558
0.998294
0.998327
0.998211
0.998142
0.998032
0.997811
0.997378
0.996679
0.997714
0.997005
0.998169
0.998185
0.998066
0.998009
0.997899
0.997622
0.996992
0.995832
0.997238
0.995914
0.997692
0.997737
0.997651
0.997651
0.997596
0.997304
0.996454
0.994525
0.996224
0.993759
0.99641
0.996566
0.99658
0.996731
0.996856
0.996705
0.995757
0.992692
0.994273
0.989486
0.993347
0.993761
0.993988
0.994451
0.994986
0.995318
0.994769
0.990069
0.989884
0.981075
0.986544
0.987412
0.988012
0.989013
0.990328
0.991832
0.993471
0.989813
0.985689
0.964942
0.972371
0.973837
0.974879
0.976573
0.979015
0.98225
0.988981
0.98912
0.980354
0.935388
0.944813
0.946676
0.94783
0.950041
0.953924
0.960389
0.979426
1.03027
1.05479
0.998171
1.0029
0.998205
0.998933
0.999073
0.999069
0.99892
0.998186
1.00289
0.998174
0.990751
0.996842
0.992608
0.993859
0.994128
0.99412
0.99383
0.992567
0.996779
0.990742
0.991771
0.996079
0.993171
0.993917
0.994101
0.994096
0.993902
0.993159
0.996
0.991784
0.994463
0.997568
0.995574
0.995829
0.995878
0.995887
0.99585
0.995621
0.997518
0.994574
0.995832
0.998047
0.996889
0.997024
0.997031
0.997042
0.99705
0.99694
0.998037
0.995927
0.996417
0.997901
0.997334
0.997462
0.997474
0.997483
0.997487
0.99737
0.997936
0.996484
0.996874
0.997871
0.997592
0.997708
0.997732
0.997737
0.997727
0.997609
0.997892
0.996951
0.997283
0.997941
0.997791
0.997897
0.997933
0.997936
0.997908
0.997802
0.99794
0.99735
0.997512
0.998002
0.997918
0.998014
0.998054
0.998056
0.998017
0.997927
0.997987
0.997611
0.997716
0.998026
0.998003
0.998084
0.998117
0.998116
0.99808
0.998003
0.998024
0.997775
0.997945
0.998021
0.998069
0.998127
0.998152
0.998152
0.998121
0.998056
0.998058
0.997889
0.998043
0.998044
0.998118
0.998153
0.998173
0.998173
0.998147
0.998094
0.998086
0.997973
0.998073
0.99809
0.998143
0.998168
0.998187
0.998186
0.998163
0.998121
0.998105
0.998034
0.998045
0.99816
0.99815
0.99818
0.998197
0.998194
0.998173
0.998139
0.998118
0.998082
0.997982
0.998248
0.99816
0.998195
0.998206
0.998199
0.998179
0.998148
0.998122
0.998116
0.998082
0.998244
0.998181
0.998207
0.998209
0.998199
0.998179
0.998147
0.998113
0.998135
0.998235
0.998176
0.998213
0.998214
0.998209
0.998194
0.998173
0.998139
0.998093
0.998142
0.99826
0.998175
0.99824
0.998221
0.998212
0.998192
0.998162
0.998121
0.998056
0.99814
0.99817
0.998239
0.998252
0.998231
0.998219
0.998192
0.998145
0.998089
0.997988
0.998121
0.998057
0.998322
0.998261
0.998246
0.998228
0.998189
0.998121
0.998035
0.997875
0.998078
0.998085
0.99829
0.998269
0.998257
0.998236
0.998181
0.998087
0.997951
0.997693
0.997994
0.998058
0.9982
0.998266
0.998254
0.998234
0.998167
0.998036
0.997823
0.997393
0.997829
0.997764
0.998123
0.998207
0.998213
0.998208
0.998135
0.997959
0.99763
0.996902
0.997508
0.997181
0.99788
0.997986
0.998063
0.998104
0.99805
0.997835
0.997347
0.996112
0.99689
0.996053
0.99722
0.997424
0.99763
0.997775
0.997797
0.997592
0.996942
0.994857
0.995671
0.99381
0.995658
0.996101
0.996522
0.996878
0.997107
0.997073
0.996428
0.993088
0.993452
0.989348
0.992179
0.993067
0.993861
0.994605
0.995279
0.99575
0.995649
0.990661
0.988893
0.980604
0.984795
0.9864
0.987778
0.989177
0.990712
0.992436
0.994747
0.99059
0.984281
0.964024
0.969927
0.972477
0.974573
0.976826
0.979594
0.983195
0.990087
0.992262
0.979788
0.934168
0.941867
0.945225
0.947792
0.950807
0.955217
0.962512
0.980296
1.03054
1.063
0.882642
0.891445
0.8945
0.896159
0.898358
0.901848
0.907791
0.913311
0.960537
1.01037
0.804435
0.812444
0.812899
0.811173
0.810205
0.811178
0.816554
0.824218
0.856911
0.940617
0.695566
0.699921
0.69458
0.686329
0.679091
0.674897
0.676073
0.683691
0.701032
0.749466
0.560655
0.558659
0.545104
0.528221
0.512328
0.499566
0.491169
0.487569
0.487889
0.497339
0.413748
0.404829
0.383928
0.360271
0.33816
0.319083
0.303434
0.291021
0.281291
0.275808
0.275112
0.261712
0.238327
0.213963
0.191883
0.172848
0.156681
0.142875
0.131043
0.121789
0.162691
0.149104
0.12889
0.109367
0.0925211
0.0784678
0.0667168
0.0566838
0.048031
0.0411146
0.0848289
0.0743179
0.0604232
0.0479584
0.037819
0.029774
0.0233133
0.018007
0.0136125
0.0103672
0.0388453
0.0323861
0.0246342
0.0181579
0.0132173
0.00952298
0.00673205
0.00457373
0.00293772
0.00194379
0.0156559
0.0124148
0.00883304
0.00603233
0.00403263
0.002636
0.00165992
0.000966936
0.000511255
0.000330093
0.883511
0.894186
0.89527
0.895059
0.896108
0.898745
0.903857
0.906501
0.959042
1.00653
0.803041
0.812991
0.810865
0.806616
0.803815
0.803017
0.806828
0.811436
0.842228
0.933228
0.689208
0.695385
0.686911
0.675455
0.665547
0.658606
0.656883
0.661049
0.673031
0.721555
0.547129
0.546571
0.529887
0.509728
0.491017
0.475234
0.463207
0.455063
0.448935
0.451939
0.39365
0.385743
0.362969
0.33769
0.314264
0.293711
0.276142
0.261069
0.247575
0.237761
0.252914
0.240496
0.217331
0.193427
0.171916
0.153286
0.137203
0.122921
0.110044
0.0996219
0.143813
0.131305
0.112756
0.0950159
0.0797858
0.0670869
0.0563208
0.0468468
0.038551
0.0321413
0.0719212
0.0625396
0.0506067
0.0400189
0.0314317
0.0246288
0.0190586
0.0143693
0.0104915
0.0079569
0.0315843
0.0260401
0.0197538
0.014562
0.0106042
0.00764178
0.00535499
0.00352932
0.00221896
0.00156363
0.012238
0.00956067
0.00679166
0.00465253
0.00312349
0.00204864
0.00128527
0.000717294
0.0003834
0.000285523
0.88467
0.89653
0.896996
0.895728
0.895589
0.896909
0.900194
0.899668
0.952554
1.00382
0.801487
0.812844
0.809698
0.803853
0.799232
0.796371
0.797419
0.799376
0.824807
0.918747
0.681223
0.688887
0.679133
0.665682
0.653388
0.643495
0.637983
0.637509
0.642956
0.684864
0.529561
0.530332
0.512681
0.490951
0.470194
0.451711
0.436092
0.423236
0.410715
0.406492
0.367437
0.360674
0.338615
0.313693
0.290082
0.268752
0.249791
0.232707
0.216568
0.20393
0.224553
0.213559
0.192816
0.171213
0.151424
0.133956
0.11856
0.10466
0.0920236
0.0819074
0.120367
0.109636
0.094276
0.0795568
0.0667203
0.0558494
0.0464786
0.0381935
0.0309689
0.0256136
0.0565784
0.0489428
0.0397575
0.0316374
0.0249542
0.0195728
0.0150857