0.0005 	0.00348 	3.1587274e-21 	1
0.0015 	0.00348 	1.3862829e-11 	1
0.0025 	0.00348 	1.646295e-11 	1
0.0035 	0.00348 	3.2144263e-11 	1
0.0045 	0.00348 	1.5146772e-11 	1
0.0055 	0.00348 	4.8599543e-11 	1
0.0065 	0.00348 	1.5956976e-11 	1
0.0075 	0.00348 	4.5079954e-11 	1
0.0085 	0.00348 	1.1164003e-11 	1
0.0095 	0.00348 	2.375367e-11 	1
0.0105 	0.00348 	8.4472809e-12 	1
0.0115 	0.00348 	9.1891247e-12 	1
0.0125 	0.00348 	1.5533811e-11 	1
0.0135 	0.00348 	1.4210519e-11 	1
0.0145 	0.00348 	3.0230631e-11 	1
0.0155 	0.00348 	5.3723755e-11 	1
0.0165 	0.00348 	1.8964366e-11 	1
0.0175 	0.00348 	3.6470387e-11 	1
0.0185 	0.00348 	1.7343736e-11 	1
0.0195 	0.00348 	2.657321e-11 	1
0.0205 	0.00348 	1.6595779e-11 	1
0.0215 	0.00348 	2.8922344e-12 	1
0.0225 	0.00348 	2.2643239e-12 	1
0.0235 	0.00348 	7.9208543e-13 	1
0.0245 	0.00348 	1.0798639e-11 	1
0.0255 	0.00348 	4.4303875e-12 	1
0.0265 	0.00348 	1.3237586e-11 	1
0.0275 	0.00348 	3.0215069e-11 	1
0.0285 	0.00348 	3.847939e-12 	1
0.0295 	0.00348 	3.3845368e-11 	1
0.0305 	0.00348 	1.968798e-11 	1
0.0315 	0.00348 	2.5638958e-11 	1
0.0325 	0.00348 	3.1805576e-11 	1
0.0335 	0.00348 	1.4100588e-11 	1
0.0345 	0.00348 	4.2181828e-11 	1
0.0355 	0.00348 	9.1871239e-12 	1
0.0365 	0.00348 	5.4263521e-11 	1
0.0375 	0.00348 	2.6657799e-11 	1
0.0385 	0.00348 	2.9521244e-11 	1
0.0395 	0.00348 	2.6140709e-11 	1
0.0405 	0.00348 	3.6060228e-11 	1
0.0415 	0.00348 	3.9825691e-11 	1
0.0425 	0.00348 	3.693768e-11 	1
0.0435 	0.00348 	7.9510883e-12 	1
0.0445 	0.00348 	5.2393906e-11 	1
0.0455 	0.00348 	7.6993238e-12 	1
0.0465 	0.00348 	2.9091077e-11 	1
0.0475 	0.00348 	9.7627919e-12 	1
0.0485 	0.00348 	2.3350514e-11 	1
0.0495 	0.00348 	7.4785714e-12 	1
0.0505 	0.00348 	3.1269923e-11 	1
0.0515 	0.00348 	1.6848099e-11 	1
0.0525 	0.00348 	2.0900673e-11 	1
0.0535 	0.00348 	3.1482227e-12 	1
0.0545 	0.00348 	1.9616508e-11 	1
0.0555 	0.00348 	1.3593057e-11 	1
0.0565 	0.00348 	3.2383244e-11 	1
0.0575 	0.00348 	2.9686864e-11 	1
0.0585 	0.00348 	4.1839584e-11 	1
0.0595 	0.00348 	2.1039505e-11 	1
0.0605 	0.00348 	4.4363009e-11 	1
0.0615 	0.00348 	4.5567699e-11 	1
0.0625 	0.00348 	5.1585925e-11 	1
0.0635 	0.00348 	5.0254408e-11 	1
0.0645 	0.00348 	3.1628285e-11 	1
0.0655 	0.00348 	4.9054942e-11 	1
0.0665 	0.00348 	6.1561022e-11 	1
0.0675 	0.00348 	3.6102133e-11 	1
0.0685 	0.00348 	2.0040228e-11 	1
0.0695 	0.00348 	1.4764401e-11 	1
0.0705 	0.00348 	2.1241917e-11 	1
0.0715 	0.00348 	2.5835813e-11 	1
0.0725 	0.00348 	3.5030384e-11 	1
0.0735 	0.00348 	4.1158653e-11 	1
0.0745 	0.00348 	3.5126977e-11 	1
0.0755 	0.00348 	4.6989584e-11 	1
0.0765 	0.00348 	3.8374905e-11 	1
0.0775 	0.00348 	5.3902491e-11 	1
0.0785 	0.00348 	2.2804858e-11 	1
0.0795 	0.00348 	4.116799e-11 	1
0.0805 	0.00348 	2.2078131e-11 	1
0.0815 	0.00348 	2.9711651e-11 	1
0.0825 	0.00348 	2.7927514e-12 	1
0.0835 	0.00348 	3.6848534e-11 	1
0.0845 	0.00348 	4.8283198e-12 	1
0.0855 	0.00348 	1.5137768e-11 	1
0.0865 	0.00348 	1.8658358e-12 	1
0.0875 	0.00348 	5.5483772e-12 	1
0.0885 	0.00348 	4.8572199e-12 	1
0.0895 	0.00348 	7.2834956e-12 	1
0.0905 	0.00348 	4.3929285e-12 	1
0.0915 	0.00348 	9.2330306e-12 	1
0.0925 	0.00348 	1.2192069e-11 	1
0.0935 	0.00348 	1.0106481e-11 	1
0.0945 	0.00348 	1.2977151e-11 	1
0.0955 	0.00348 	5.4687908e-13 	1
0.0965 	0.00348 	2.7688531e-13 	1
0.0975 	0.00348 	5.1474437e-12 	1
0.0985 	0.00348 	9.0471806e-12 	1
0.0995 	0.00348 	7.2589305e-12 	1
0.1005 	0.00348 	1.1016835e-11 	1
0.1015 	0.00348 	1.5147217e-11 	1
0.1025 	0.00348 	7.1979068e-12 	1
0.1035 	0.00348 	1.6878222e-11 	1
0.1045 	0.00348 	2.5077518e-12 	1
0.1055 	0.00348 	1.3794247e-11 	1
0.1065 	0.00348 	2.3397977e-12 	1
0.1075 	0.00348 	3.3936292e-11 	1
0.1085 	0.00348 	4.4505064e-12 	1
0.1095 	0.00348 	4.141553e-11 	1
0.1105 	0.00348 	2.6810636e-11 	1
0.1115 	0.00348 	1.4511192e-11 	1
0.1125 	0.00348 	3.50435e-11 	1
0.1135 	0.00348 	2.6215738e-12 	1
0.1145 	0.00348 	1.6870441e-11 	1
0.1155 	0.00348 	1.6199848e-11 	1
0.1165 	0.00348 	7.5394839e-12 	1
0.1175 	0.00348 	4.3516901e-13 	1
0.1185 	0.00348 	1.8329341e-13 	1
0.1195 	0.00348 	2.6110141e-13 	1
0.1205 	0.00348 	3.3873156e-12 	1
0.1215 	0.00348 	1.4211298e-11 	1
0.1225 	0.00348 	5.7610154e-12 	1
0.1235 	0.00348 	2.4711376e-11 	1
0.1245 	0.00348 	1.6844209e-11 	1
0.1255 	0.00348 	1.1221025e-11 	1
0.1265 	0.00348 	1.4642687e-11 	1
0.1275 	0.00348 	1.7884391e-11 	1
0.1285 	0.00348 	5.9851024e-12 	1
0.1295 	0.00348 	1.7921405e-11 	1
0.1305 	0.00348 	1.2904123e-11 	1
0.1315 	0.00348 	1.9490681e-11 	1
0.1325 	0.00348 	1.8598891e-11 	1
0.1335 	0.00348 	1.2063686e-11 	1
0.1345 	0.00348 	1.8508411e-11 	1
0.1355 	0.00348 	3.2205064e-11 	1
0.1365 	0.00348 	1.1345184e-11 	1
0.1375 	0.00348 	1.8744058e-11 	1
0.1385 	0.00348 	2.3708653e-11 	1
0.1395 	0.00348 	3.811736e-11 	1
0.1405 	0.00348 	2.6724824e-12 	1
0.1415 	0.00348 	4.3599156e-11 	1
0.1425 	0.00348 	2.0617119e-11 	1
0.1435 	0.00348 	5.1319933e-11 	1
0.1445 	0.00348 	3.0725823e-11 	1
0.1455 	0.00348 	5.1442091e-11 	1
0.1465 	0.00348 	2.3753115e-11 	1
0.1475 	0.00348 	6.2107567e-11 	1
0.1485 	0.00348 	3.1677192e-11 	1
0.1495 	0.00348 	5.5339939e-11 	1
0.1505 	0.00348 	3.4040666e-11 	1
0.1515 	0.00348 	2.5940742e-11 	1
0.1525 	0.00348 	4.6395909e-11 	1
0.1535 	0.00348 	3.6795625e-11 	1
0.1545 	0.00348 	3.4361235e-11 	1
0.1555 	0.00348 	2.2750948e-11 	1
0.1565 	0.00348 	3.1149432e-11 	1
0.1575 	0.00348 	2.7081963e-11 	1
0.1585 	0.00348 	3.2067789e-11 	1
0.1595 	0.00348 	8.3646933e-12 	1
0.1605 	0.00348 	4.675705e-11 	1
0.1615 	0.00348 	9.3488534e-12 	1
0.1625 	0.00348 	1.7650189e-12 	1
0.1635 	0.00348 	1.4368581e-11 	1
0.1645 	0.00348 	1.7560154e-11 	1
0.1655 	0.00348 	9.1522214e-12 	1
0.1665 	0.00348 	5.3022816e-12 	1
0.1675 	0.00348 	5.1575583e-14 	1
0.1685 	0.00348 	7.4349989e-12 	1
0.1695 	0.00348 	4.3805903e-12 	1
0.1705 	0.00348 	1.007169e-11 	1
0.1715 	0.00348 	7.4106559e-13 	1
0.1725 	0.00348 	1.807591e-12 	1
0.1735 	0.00348 	1.2629572e-11 	1
0.1745 	0.00348 	4.3775891e-12 	1
0.1755 	0.00348 	1.3309947e-11 	1
0.1765 	0.00348 	9.9894355e-12 	1
0.1775 	0.00348 	1.6843987e-11 	1
0.1785 	0.00348 	1.3354187e-11 	1
0.1795 	0.00348 	5.8228171e-12 	1
0.1805 	0.00348 	3.1425539e-12 	1
0.1815 	0.00348 	2.8588437e-11 	1
0.1825 	0.00348 	2.262212e-12 	1
0.1835 	0.00348 	5.8623881e-12 	1
0.1845 	0.00348 	7.9196316e-12 	1
0.1855 	0.00348 	5.8783943e-12 	1
0.1865 	0.00348 	1.2594558e-11 	1
0.1875 	0.00348 	2.3195342e-11 	1
0.1885 	0.00348 	1.5702765e-12 	1
0.1895 	0.00348 	3.1104303e-11 	1
0.1905 	0.00348 	8.5607694e-12 	1
0.1915 	0.00348 	4.3086735e-12 	1
0.1925 	0.00348 	1.2531867e-11 	1
0.1935 	0.00348 	1.2554209e-11 	1
0.1945 	0.00348 	1.8647243e-12 	1
0.1955 	0.00348 	9.3182859e-12 	1
0.1965 	0.00348 	5.2836077e-12 	1
0.1975 	0.00348 	2.6260533e-11 	1
0.1985 	0.00348 	5.2642671e-13 	1
0.1995 	0.00348 	2.6149379e-11 	1
0.2005 	0.00348 	6.5936721e-12 	1
0.2015 	0.00348 	5.6280749e-12 	1
0.2025 	0.00348 	1.2302667e-11 	1
0.2035 	0.00348 	1.50195e-11 	1
0.2045 	0.00348 	3.4461163e-12 	1
0.2055 	0.00348 	2.4724603e-11 	1
0.2065 	0.00348 	1.2550652e-11 	1
0.2075 	0.00348 	1.7924073e-11 	1
0.2085 	0.00348 	2.4092246e-11 	1
0.2095 	0.00348 	3.1099635e-11 	1
0.2105 	0.00348 	3.2873213e-11 	1
0.2115 	0.00348 	1.9854823e-11 	1
0.2125 	0.00348 	1.2604229e-11 	1
0.2135 	0.00348 	7.9728745e-12 	1
0.2145 	0.00348 	2.7277039e-11 	1
0.2155 	0.00348 	8.5136401e-12 	1
0.2165 	0.00348 	1.9863048e-11 	1
0.2175 	0.00348 	3.4652904e-11 	1
0.2185 	0.00348 	1.1901511e-11 	1
0.2195 	0.00348 	2.5563929e-11 	1
0.2205 	0.00348 	1.2166726e-11 	1
0.2215 	0.00348 	2.461745e-11 	1
0.2225 	0.00348 	1.3254037e-12 	1
0.2235 	0.00348 	7.839267e-12 	1
0.2245 	0.00348 	9.9509761e-12 	1
0.2255 	0.00348 	6.5985629e-12 	1
0.2265 	0.00348 	3.8159266e-12 	1
0.2275 	0.00348 	9.5138063e-12 	1
0.2285 	0.00348 	3.7557921e-12 	1
0.2295 	0.00348 	1.6593e-11 	1
0.2305 	0.00348 	1.3511137e-11 	1
0.2315 	0.00348 	7.505693e-12 	1
0.2325 	0.00348 	4.7188328e-12 	1
0.2335 	0.00348 	1.596798e-11 	1
0.2345 	0.00348 	3.1650071e-12 	1
0.2355 	0.00348 	5.7689072e-13 	1
0.2365 	0.00348 	4.2908888e-12 	1
0.2375 	0.00348 	1.1663197e-11 	1
0.2385 	0.00348 	6.9723748e-12 	1
0.2395 	0.00348 	2.1425766e-11 	1
0.2405 	0.00348 	7.5927268e-12 	1
0.2415 	0.00348 	1.5739669e-11 	1
0.2425 	0.00348 	6.1834017e-12 	1
0.2435 	0.00348 	7.7385613e-13 	1
0.2445 	0.00348 	2.4608447e-12 	1
0.2455 	0.00348 	1.8791743e-12 	1
0.2465 	0.00348 	2.8075349e-12 	1
0.2475 	0.00348 	1.061968e-12 	1
0.2485 	0.00348 	8.6929319e-12 	1
0.2495 	0.00348 	1.971688e-11 	1
0.2505 	0.00348 	3.1628729e-11 	1
0.2515 	0.00348 	4.7778446e-11 	1
0.2525 	0.00348 	3.5523798e-11 	1
0.2535 	0.00348 	3.331405e-11 	1
0.2545 	0.00348 	3.4131257e-11 	1
0.2555 	0.00348 	3.3807687e-11 	1
0.2565 	0.00348 	3.3272812e-11 	1
0.2575 	0.00348 	2.7870714e-11 	1
0.2585 	0.00348 	3.199665e-11 	1
0.2595 	0.00348 	2.726659e-11 	1
0.2605 	0.00348 	1.8468729e-11 	1
0.2615 	0.00348 	3.5013599e-11 	1
0.2625 	0.00348 	4.2273197e-11 	1
0.2635 	0.00348 	3.6007874e-11 	1
0.2645 	0.00348 	3.1525578e-11 	1
0.2655 	0.00348 	1.2414044e-11 	1
0.2665 	0.00348 	1.5876389e-11 	1
0.2675 	0.00348 	3.6948795e-12 	1
0.2685 	0.00348 	3.3746107e-11 	1
0.2695 	0.00348 	2.5809358e-11 	1
0.2705 	0.00348 	2.4112477e-11 	1
0.2715 	0.00348 	4.4271084e-11 	1
0.2725 	0.00348 	2.9867156e-11 	1
0.2735 	0.00348 	3.1420648e-11 	1
0.2745 	0.00348 	1.7371303e-11 	1
0.2755 	0.00348 	2.4465836e-11 	1
0.2765 	0.00348 	4.0992588e-12 	1
0.2775 	0.00348 	2.6491401e-12 	1
0.2785 	0.00348 	8.1303801e-12 	1
0.2795 	0.00348 	8.5713292e-12 	1
0.2805 	0.00348 	2.3663635e-12 	1
0.2815 	0.00348 	1.5372526e-11 	1
0.2825 	0.00348 	2.8357792e-11 	1
0.2835 	0.00348 	1.1904735e-11 	1
0.2845 	0.00348 	1.3772349e-11 	1
0.2855 	0.00348 	5.2911662e-12 	1
0.2865 	0.00348 	1.6268652e-11 	1
0.2875 	0.00348 	1.8988709e-11 	1
0.2885 	0.00348 	4.6916e-12 	1
0.2895 	0.00348 	1.0875669e-11 	1
0.2905 	0.00348 	1.3120318e-11 	1
0.2915 	0.00348 	2.6141042e-11 	1
0.2925 	0.00348 	7.6080661e-11 	1
0.2935 	0.00348 	9.5989838e-11 	1
0.2945 	0.00348 	1.4489528e-10 	1
0.2955 	0.00348 	2.0154195e-10 	1
0.2965 	0.00348 	3.0967917e-10 	1
0.2975 	0.00348 	4.3345436e-10 	1
0.2985 	0.00348 	6.3358286e-10 	1
0.2995 	0.00348 	8.8771735e-10 	1
0.3005 	0.00348 	1.2741231e-09 	1
0.3015 	0.00348 	1.7645955e-09 	1
0.3025 	0.00348 	2.5038187e-09 	1
0.3035 	0.00348 	3.4686766e-09 	1
0.3045 	0.00348 	4.8671167e-09 	0.99999999
0.3055 	0.00348 	6.7767861e-09 	0.99999999
0.3065 	0.00348 	9.4414534e-09 	0.99999999
0.3075 	0.00348 	1.3159652e-08 	0.99999998
0.3085 	0.00348 	1.8246835e-08 	0.99999998
0.3095 	0.00348 	2.5266961e-08 	0.99999997
0.3105 	0.00348 	3.487059e-08 	0.99999996
0.3115 	0.0034799999 	4.8017711e-08 	0.99999994
0.3125 	0.0034799999 	6.5968252e-08 	0.99999992
0.3135 	0.0034799999 	9.0295516e-08 	0.99999989
0.3145 	0.0034799999 	1.2330064e-07 	0.99999986
0.3155 	0.0034799998 	1.6787384e-07 	0.9999998
0.3165 	0.0034799997 	2.2790804e-07 	0.99999973
0.3175 	0.0034799996 	3.0853965e-07 	0.99999964
0.3185 	0.0034799995 	4.1644473e-07 	0.99999951
0.3195 	0.0034799994 	5.6052828e-07 	0.99999934
0.3205 	0.0034799991 	7.5213878e-07 	0.99999912
0.3215 	0.0034799988 	1.0063065e-06 	0.99999882
0.3225 	0.0034799984 	1.3422031e-06 	0.99999843
0.3235 	0.0034799979 	1.7847702e-06 	0.99999791
0.3245 	0.0034799973 	2.3659374e-06 	0.99999723
0.3255 	0.0034799964 	3.1264883e-06 	0.99999634
0.3265 	0.0034799952 	4.1185031e-06 	0.99999518
0.3275 	0.0034799937 	5.4079356e-06 	0.99999366
0.3285 	0.0034799918 	7.0781943e-06 	0.9999917
0.3295 	0.0034799893 	9.234058e-06 	0.99998918
0.3305 	0.003479986 	1.2006817e-05 	0.99998592
0.3315 	0.0034799819 	1.5560174e-05 	0.99998175
0.3325 	0.0034799766 	2.0097201e-05 	0.99997642
0.3335 	0.0034799699 	2.5868814e-05 	0.99996964
0.3345 	0.0034799614 	3.3183366e-05 	0.99996105
0.3355 	0.0034799506 	4.2418174e-05 	0.9999502
0.3365 	0.003479937 	5.403248e-05 	0.99993655
0.3375 	0.00347992 	6.8582362e-05 	0.99991944
0.3385 	0.0034798988 	8.6737913e-05 	0.99989809
0.3395 	0.0034798725 	0.00010930182 	0.99987155
0.3405 	0.0034798398 	0.00013723087 	0.99983869
0.3415 	0.0034797995 	0.00017165865 	0.99979817
0.3425 	0.00347975 	0.00021392091 	0.99974843
0.3435 	0.0034796895 	0.00026558174 	0.99968761
0.3445 	0.0034796159 	0.00032846207 	0.99961357
0.3455 	0.0034795266 	0.00040466801 	0.99952382
0.3465 	0.0034794188 	0.00049662036 	0.99941551
0.3475 	0.0034792893 	0.0006070829 	0.99928538
0.3485 	0.0034791343 	0.0007391898 	0.99912974
0.3495 	0.0034789497 	0.00089647036 	0.99894443
0.3505 	0.0034787309 	0.0010828703 	0.9987248
0.3515 	0.0034784728 	0.0013027684 	0.99846569
0.3525 	0.0034781695 	0.0015609871 	0.99816145
0.3535 	0.003477815 	0.0018627962 	0.99780587
0.3545 	0.0034774025 	0.0022139076 	0.99739227
0.3555 	0.0034769248 	0.0026204618 	0.99691346
0.3565 	0.0034763742 	0.0030890034 	0.99636178
0.3575 	0.0034757425 	0.0036264471 	0.9957292
0.3585 	0.0034750213 	0.0042400316 	0.99500731
0.3595 	0.0034742018 	0.004937265 	0.99418742
0.3605 	0.0034732749 	0.0057258587 	0.99326067
0.3615 	0.0034722314 	0.0066136536 	0.99221809
0.3625 	0.0034710622 	0.0076085392 	0.99105073
0.3635 	0.0034697582 	0.0087183668 	0.98974974
0.3645 	0.0034683102 	0.0099508598 	0.98830653
0.3655 	0.0034667097 	0.011313523 	0.98671285
0.3665 	0.0034649482 	0.012813554 	0.98496091
0.3675 	0.0034630182 	0.014457756 	0.98304352
0.3685 	0.0034609121 	0.016252461 	0.98095414
0.3695 	0.0034586236 	0.018203457 	0.97868701
0.3705 	0.0034561468 	0.020315928 	0.97623719
0.3715 	0.0034534767 	0.022594403 	0.97360065
0.3725 	0.003450609 	0.02504272 	0.97077431
0.3735 	0.0034475405 	0.027663998 	0.96775603
0.3745 	0.0034442687 	0.030460627 	0.96454467
0.3755 	0.003440792 	0.033434265 	0.96114005
0.3765 	0.0034371099 	0.036585855 	0.95754293
0.3775 	0.0034332223 	0.039915638 	0.95375499
0.3785 	0.0034291302 	0.043423192 	0.94977875
0.3795 	0.0034248353 	0.047107468 	0.94561755
0.3805 	0.00342034 	0.050966832 	0.94127546
0.3815 	0.0034156473 	0.05499912 	0.93675719
0.3825 	0.0034107606 	0.059201687 	0.93206804
0.3835 	0.0034056841 	0.063571465 	0.92721384
0.3845 	0.0034004223 	0.068105018 	0.92220079
0.3855 	0.0033949798 	0.072798595 	0.91703549
0.3865 	0.003389362 	0.077648185 	0.91172478
0.3875 	0.0033835741 	0.082649568 	0.90627572
0.3885 	0.0033776216 	0.087798357 	0.90069548
0.3895 	0.0033715103 	0.093090051 	0.89499134
0.3905 	0.0033652458 	0.098520067 	0.88917057
0.3915 	0.003358834 	0.10408378 	0.88324046
0.3925 	0.0033522806 	0.10977655 	0.87720819
0.3935 	0.0033455913 	0.11559376 	0.87108085
0.3945 	0.0033387718 	0.12153083 	0.86486541
0.3955 	0.0033318277 	0.12758323 	0.85856867
0.3965 	0.0033247645 	0.13374653 	0.85219724
0.3975 	0.0033175874 	0.14001638 	0.84575757
0.3985 	0.0033103017 	0.14638853 	0.83925586
0.3995 	0.0033029125 	0.15285883 	0.83269812
0.4005 	0.0032954247 	0.15942327 	0.82609013
0.4015 	0.003287843 	0.16607796 	0.81943744
0.4025 	0.003280172 	0.1728191 	0.81274537
0.4035 	0.0032724161 	0.17964307 	0.80601904
0.4045 	0.0032645797 	0.18654633 	0.79926332
0.4055 	0.0032566669 	0.19352548 	0.79248287
0.4065 	0.0032486815 	0.20057725 	0.78568212
0.4075 	0.0032406275 	0.20769849 	0.77886533
0.4085 	0.0032325086 	0.21488617 	0.7720365
0.4095 	0.0032243281 	0.22213736 	0.76519947
0.4105 	0.0032160896 	0.22944927 	0.75835788
0.4115 	0.0032077962 	0.2368192 	0.75151518
0.4125 	0.0031994511 	0.24424456 	0.74467465
0.4135 	0.0031910573 	0.25172287 	0.73783939
0.4145 	0.0031826176 	0.25925174 	0.73101232
0.4155 	0.0031741348 	0.26682889 	0.72419624
0.4165 	0.0031656115 	0.2744521 	0.71739377
0.4175 	0.0031570503 	0.28211929 	0.71060738
0.4185 	0.0031484537 	0.28982841 	0.70383943
0.4195 	0.0031398238 	0.29757751 	0.69709212
0.4205 	0.0031311631 	0.30536475 	0.69036753
0.4215 	0.0031224735 	0.3131883 	0.68366762
0.4225 	0.0031137573 	0.32104646 	0.67699425
0.4235 	0.0031050163 	0.32893756 	0.67034914
0.4245 	0.0030962525 	0.33686 	0.66373394
0.4255 	0.0030874678 	0.34481224 	0.65715018
0.4265 	0.0030786638 	0.35279281 	0.6505993
0.4275 	0.0030698422 	0.36080028 	0.64408265
0.4285 	0.0030610048 	0.36883326 	0.6376015
0.4295 	0.0030521531 	0.37689044 	0.63115704
0.4305 	0.0030432885 	0.38497053 	0.62475037
0.4315 	0.0030344126 	0.39307229 	0.61838254
0.4325 	0.0030255269 	0.40119452 	0.61205451
0.4335 	0.0030166323 	0.40933606 	0.60576718
0.4345 	0.0030077311 	0.41749581 	0.59952139
0.4355 	0.0029988223 	0.42567269 	0.59331792
0.4365 	0.0029899126 	0.43386567 	0.58715746
0.4375 	0.0029809904 	0.44207375 	0.58104066
0.4385 	0.0029720843 	0.45029603 	0.57496811
0.4395 	0.0029631395 	0.45853158 	0.56894032
0.4405 	0.002954264 	0.46677972 	0.56295771
0.4415 	0.0029452655 	0.47503945 	0.55702066
0.4425 	0.0029364703 	0.4833107 	0.55112944
0.4435 	0.0029273708 	0.49159204 	0.54528416
0.4445 	0.0029186909 	0.49988463 	0.53948497
0.4455 	0.0029095179 	0.50818626 	0.53373152
0.4465 	0.0029008073 	0.5164997 	0.52802394
0.4475 	0.0028919012 	0.52482283 	0.52236104
0.4485 	0.0028825631 	0.53315832 	0.51674284
0.4495 	0.0028747714 	0.54150894 	0.51116722
0.4505 	0.0028637972 	0.5498738 	0.50563297
0.4515 	0.0028580162 	0.5582359 	0.50013269
0.4525 	0.0028445142 	0.5665362 	0.49472051
0.4535 	0.0028424884 	0.57494469 	0.48943849
0.4545 	0.0028244538 	0.58311624 	0.48404568
0.4555 	0.0028258294 	0.59136317 	0.47892965
0.4565 	0.0028074755 	0.59958707 	0.47375736
0.4575 	0.0028077818 	0.60776687 	0.46860357
0.4585 	0.0027906523 	0.6159676 	0.46364107
0.4595 	0.0027908587 	0.624232 	0.4586945
0.4605 	0.0027726445 	0.6323957 	0.45362982
0.4615 	0.0027738508 	0.6405601 	0.4488323
0.4625 	0.0027555538 	0.64871327 	0.44391019
0.4635 	0.0027568382 	0.65688165 	0.43922777
0.4645 	0.0027388416 	0.66508144 	0.43442671
0.4655 	0.0027389928 	0.673247 	0.4297598
0.4665 	0.0027236416 	0.68143447 	0.4250375
0.4675 	0.0027187808 	0.68964666 	0.42038119
0.4685 	0.0027100684 	0.69798511 	0.4157785
0.4695 	0.0027010127 	0.70610249 	0.41124065
0.4705 	0.002692378 	0.71427091 	0.40676708
0.4715 	0.0026841797 	0.72235892 	0.40236979
0.4725 	0.0026761016 	0.73037817 	0.39804816
0.4735 	0.0026679126 	0.73833991 	0.39379451
0.4745 	0.002659735 	0.74625126 	0.38960463
0.4755 	0.0026516711 	0.75411165 	0.38547895
0.4765 	0.0026437263 	0.76191705 	0.38141913
0.4775 	0.0026358645 	0.76966278 	0.37742636
0.4785 	0.0026280494 	0.77734373 	0.37350173
0.4795 	0.0026202943 	0.78495423 	0.36964689
0.4805 	0.002612641 	0.79248781 	0.3658641
0.4815 	0.0026050691 	0.79993689 	0.36215596
0.4825 	0.0025976356 	0.80729313 	0.35852522
0.4835 	0.0025902771 	0.81454716 	0.35497483
0.4845 	0.0025830781 	0.82168897 	0.35150806
0.4855 	0.0025759858 	0.82870754 	0.34812854
0.4865 	0.0025690777 	0.83559096 	0.34484028
0.4875 	0.0025623282 	0.84232631 	0.34164758
0.4885 	0.0025557653 	0.84889968 	0.33855502
0.4895 	0.0025494093 	0.85529632 	0.33556744
0.4905 	0.0025432368 	0.86150056 	0.33268994
0.4915 	0.002537319 	0.86749612 	0.32992783
0.4925 	0.0025316001 	0.87326608 	0.3272866
0.4935 	0.0025261775 	0.87879326 	0.32477178
0.4945 	0.0025209894 	0.88406045 	0.32238884
0.4955 	0.0025161238 	0.88905082 	0.32014305
0.4965 	0.0025115389 	0.89374843 	0.31803928
0.4975 	0.0025072867 	0.89813868 	0.31608177
0.4985 	0.0025033596 	0.9022091 	0.31427399
0.4995 	0.0024997644 	0.90594978 	0.31261828
0.5005 	0.0024965239 	0.90935421 	0.31111573
0.5015 	0.0024936081 	0.91241975 	0.30976587
0.5025 	0.0024910511 	0.91514819 	0.30856656
0.5035 	0.0024888063 	0.91754603 	0.30751381
0.5045 	0.0024868948 	0.91962462 	0.30660177
0.5055 	0.0024852752 	0.9214 	0.3058228
0.5065 	0.0024839387 	0.92289244 	0.30516762
0.5075 	0.0024828612 	0.92412584 	0.30462557
0.5085 	0.0024820032 	0.92512669 	0.30418499
0.5095 	0.0024813579 	0.92592309 	0.30383363
0.5105 	0.0024808683 	0.92654356 	0.3035591
0.5115 	0.0024805373 	0.92701596 	0.30334935
0.5125 	0.0024803068 	0.92736647 	0.30319302
0.5135 	0.0024801839 	0.92761863 	0.30307986
0.5145 	0.0024801191 	0.92779284 	0.30300107
0.5155 	0.0024801262 	0.92791107 	0.30294903
0.5165 	0.0024801809 	0.9279828 	0.30291365
0.5175 	0.0024801983 	0.92801901 	0.30289855
0.5185 	0.0024803604 	0.92802639 	0.30288891
0.5195 	0.0024803709 	0.92803187 	0.30288885
0.5205 	0.0024805497 	0.92801278 	0.30289942
0.5215 	0.0024806544 	0.92799155 	0.30290569
0.5225 	0.0024807922 	0.9279374 	0.30292512
0.5235 	0.0024809529 	0.92788026 	0.3029492
0.5245 	0.0024811054 	0.92781863 	0.30297479
0.5255 	0.0024812763 	0.92775834 	0.30300019
0.5265 	0.0024814332 	0.92770019 	0.30302481
0.5275 	0.0024816108 	0.9276448 	0.30304829
0.5285 	0.00248177 	0.92759277 	0.30307037
0.5295 	0.0024819519 	0.92754454 	0.30309083
0.5305 	0.002482111 	0.92750042 	0.30310954
0.5315 	0.0024822964 	0.92746044 	0.30312646
0.5325 	0.0024824552 	0.92742444 	0.30314166
0.5335 	0.0024826448 	0.92739211 	0.30315525
0.5345 	0.0024828052 	0.92736302 	0.30316743
0.5355 	0.0024830009 	0.92733674 	0.30317837
0.5365 	0.0024831656 	0.92731283 	0.30318827
0.5375 	0.002483369 	0.9272909 	0.30319729
0.5385 	0.0024835412 	0.92727063 	0.30320558
0.5395 	0.0024837538 	0.92725175 	0.30321326
0.5405 	0.002483937 	0.92723405 	0.30322042
0.5415 	0.0024841606 	0.92721737 	0.30322713
0.5425 	0.002484358 	0.92720159 	0.30323344
0.5435 	0.0024845953 	0.92718663 	0.30323941
0.5445 	0.0024848094 	0.92717241 	0.30324505
0.5455 	0.0024850639 	0.92715889 	0.30325039
0.5465 	0.0024852968 	0.92714602 	0.30325545
0.5475 	0.0024855717 	0.92713376 	0.30326025
0.5485 	0.0024858267 	0.92712205 	0.30326481
0.5495 	0.0024861242 	0.92711087 	0.30326914
0.5505 	0.0024864052 	0.92710016 	0.30327327
0.5515 	0.0024867283 	0.92708987 	0.30327721
0.5525 	0.0024870392 	0.92707996 	0.30328097
0.5535 	0.0024873913 	0.92707038 	0.30328458
0.5545 	0.0024877373 	0.92706111 	0.30328804
0.5555 	0.0024881227 	0.92705212 	0.30329136
0.5565 	0.0024885107 	0.92704341 	0.30329454
0.5575 	0.0024889368 	0.92703496 	0.30329757
0.5585 	0.0024893752 	0.92702678 	0.30330045
0.5595 	0.0024898546 	0.9270189 	0.30330317
0.5605 	0.0024903581 	0.92701128 	0.30330571
0.5615 	0.0024909107 	0.92700388 	0.30330809
0.5625 	0.0024915071 	0.92699672 	0.30331027
0.5635 	0.0024921765 	0.92698978 	0.30331222
0.5645 	0.0024929248 	0.92698311 	0.30331396
0.5655 	0.0024938034 	0.92697697 	0.30331535
0.5665 	0.0024948359 	0.92697102 	0.30331643
0.5675 	0.0024961029 	0.9269644 	0.30331663
0.5685 	0.0024976858 	0.92695882 	0.30331613
0.5695 	0.002499723 	0.92695257 	0.30331532
0.5705 	0.0025023579 	0.92694634 	0.30331371
0.5715 	0.0025057865 	0.92694042 	0.30331121
0.5725 	0.002510232 	0.92693453 	0.30330785
0.5735 	0.0025159592 	0.92692853 	0.30330371
0.5745 	0.0025232614 	0.92692233 	0.30329888
0.5755 	0.0025324545 	0.92691583 	0.30329347
0.5765 	0.0025438789 	0.92690895 	0.30328764
0.5775 	0.002557866 	0.92690158 	0.30328156
0.5785 	0.0025747639 	0.92689368 	0.30327544
0.5795 	0.0025948759 	0.92688513 	0.30326944
0.5805 	0.0026185073 	0.92687566 	0.30326388
0.5815 	0.0026458892 	0.9268651 	0.30325898
0.5825 	0.0026772256 	0.92685345 	0.30325487
0.5835 	0.0027126304 	0.92684118 	0.30325173
0.5845 	0.0027521762 	0.92682992 	0.30325053
0.5855 	0.0027958042 	0.92681909 	0.30325015
0.5865 	0.0028433934 	0.92680727 	0.30325119
0.5875 	0.0028947045 	0.92679675 	0.30325373
0.5885 	0.0029494132 	0.92678714 	0.30325797
0.5895 	0.003007083 	0.92677884 	0.30326387
0.5905 	0.0030671904 	0.92677221 	0.30327133
0.5915 	0.003129117 	0.9267674 	0.30328018
0.5925 	0.0031921901 	0.92676447 	0.30329018
0.5935 	0.0032556698 	0.92676321 	0.30330097
0.5945 	0.0033188171 	0.92676338 	0.30331227
0.5955 	0.0033808733 	0.92676473 	0.30332363
0.5965 	0.0034411359 	0.92676685 	0.30333466
0.5975 	0.0034989402 	0.92676937 	0.30334499
0.5985 	0.0035537282 	0.92677188 	0.30335419
0.5995 	0.0036050228 	0.92677402 	0.30336202
0.6005 	0.0036524838 	0.92677561 	0.30336831
0.6015 	0.0036958754 	0.92677665 	0.30337301
0.6025 	0.0037350848 	0.92677714 	0.30337608
0.6035 	0.0037701079 	0.92677547 	0.30337702
0.6045 	0.0038010394 	0.92677222 	0.30337674
0.6055 	0.0038280671 	0.92676995 	0.30337535
0.6065 	0.0038514239 	0.92676664 	0.30337293
0.6075 	0.0038713921 	0.92676285 	0.30336967
0.6085 	0.0038882894 	0.92675868 	0.30336584
0.6095 	0.0039024293 	0.92675421 	0.30336164
0.6105 	0.003914154 	0.92674948 	0.30335726
0.6115 	0.003923757 	0.92674448 	0.30335286
0.6125 	0.0039315523 	0.92673922 	0.30334856
0.6135 	0.0039378014 	0.92673375 	0.30334443
0.6145 	0.0039427531 	0.92672829 	0.30334043
0.6155 	0.0039466339 	0.92672287 	0.30333662
0.6165 	0.0039496264 	0.92671729 	0.30333304
0.6175 	0.003951897 	0.92671144 	0.3033296
0.6185 	0.0039535889 	0.92670515 	0.30332633
0.6195 	0.0039548271 	0.92670037 	0.30332413
0.6205 	0.0039557077 	0.9266956 	0.30332132
0.6215 	0.0039562927 	0.9266888 	0.30331884
0.6225 	0.0039566695 	0.92668168 	0.30331647
0.6235 	0.0039568764 	0.92667323 	0.30331356
0.6245 	0.0039569874 	0.92666665 	0.30331204
0.6255 	0.0039569799 	0.92666105 	0.30330876
0.6265 	0.0039569377 	0.92665279 	0.30330702
0.6275 	0.0039568416 	0.92664626 	0.30330497
0.6285 	0.0039566979 	0.92663888 	0.30330216
0.6295 	0.00395654 	0.92663016 	0.30329938
0.6305 	0.0039563749 	0.92662086 	0.30329649
0.6315 	0.0039562074 	0.92661089 	0.30329342
0.6325 	0.0039560409 	0.9266001 	0.30329009
0.6335 	0.0039558779 	0.92658832 	0.30328643
0.6345 	0.0039557194 	0.92657535 	0.30328235
0.6355 	0.0039555664 	0.92656091 	0.30327774
0.6365 	0.0039554183 	0.92654466 	0.30327249
0.6375 	0.0039552753 	0.92652616 	0.30326642
0.6385 	0.0039551358 	0.92650484 	0.30325933
0.6395 	0.0039549991 	0.92647999 	0.30325097
0.6405 	0.0039548632 	0.92645069 	0.30324099
0.6415 	0.0039547264 	0.92641577 	0.30322899
0.6425 	0.0039545859 	0.92637373 	0.30321441
0.6435 	0.0039544389 	0.92632266 	0.30319657
0.6445 	0.0039542815 	0.92626013 	0.3031746
0.6455 	0.003954109 	0.92618306 	0.30314739
0.6465 	0.0039539158 	0.92608752 	0.30311351
0.6475 	0.0039536942 	0.92596852 	0.30307119
0.6485 	0.0039534358 	0.92581972 	0.30301814
0.6495 	0.0039531284 	0.92563309 	0.30295149
0.6505 	0.0039527583 	0.92539845 	0.30286758
0.6515 	0.003952307 	0.92510291 	0.3027618
0.6525 	0.0039517519 	0.92473014 	0.30262832
0.6535 	0.0039510642 	0.92425951 	0.30245978
0.6545 	0.0039502074 	0.92366491 	0.3022469
0.6555 	0.0039491361 	0.92291337 	0.30197796
0.6565 	0.0039477919 	0.92196323 	0.30163824
0.6575 	0.0039461026 	0.92076189 	0.30120924
0.6585 	0.0039439751 	0.91924297 	0.30066772
0.6595 	0.0039412939 	0.91732274 	0.29998459
0.6605 	0.0039379115 	0.91489558 	0.29912347
0.6615 	0.0039336431 	0.91182839 	0.29803904
0.6625 	0.0039282542 	0.90795347 	0.29667502
0.6635 	0.0039214498 	0.90305973 	0.29496179
0.6645 	0.0039128569 	0.89688164 	0.29281383
0.6655 	0.0039020052 	0.88908574 	0.29012676
0.6665 	0.0038883026 	0.87925393 	0.28677455
0.6675 	0.0038710032 	0.86686358 	0.28260706
0.6685 	0.0038491736 	0.85126424 	0.27744871
0.6695 	0.0038216494 	0.83165196 	0.27109969
0.6705 	0.0037869987 	0.80704406 	0.2633416
0.6715 	0.0037434923 	0.77626142 	0.25395088
0.6725 	0.0036891247 	0.73793377 	0.24272477
0.6735 	0.0036217388 	0.69055942 	0.22952627
0.6745 	0.0035393954 	0.63268039 	0.21435535
0.6755 	0.0034412121 	0.56327591 	0.19745122
0.6765 	0.003328926 	0.48250857 	0.17941353
0.6775 	0.0032088326 	0.39285097 	0.16127732
0.6785 	0.0030920857 	0.30012158 	0.14440003
0.6795 	0.0029910338 	0.21309309 	0.13007928
0.6805 	0.002913436 	0.14045218 	0.11908516
0.6815 	0.0028599079 	0.086688654 	0.11143633
0.6825 	0.0028260015 	0.050828674 	0.10655749
0.6835 	0.0028057887 	0.028729114 	0.10364898
0.6845 	0.0027942103 	0.015849886 	0.10199365
0.6855 	0.0027877441 	0.00861729 	0.10107802
0.6865 	0.0027841905 	0.0046467978 	0.10057969
0.6875 	0.0027822574 	0.0024949216 	0.10031082
0.6885 	0.0027812126 	0.0013366319 	0.10016642
0.6895 	0.0027806502 	0.0007153302 	0.10008904
0.6905 	0.0027803483 	0.00038263615 	0.10004762
0.6915 	0.0027801864 	0.00020462933 	0.10002547
0.6925 	0.0027800997 	0.00010942248 	0.10001362
0.6935 	0.0027800534 	5.850937e-05 	0.10000728
0.6945 	0.0027800285 	3.1284829e-05 	0.10000389
0.6955 	0.0027800153 	1.6727594e-05 	0.10000208
0.6965 	0.0027800082 	8.9439202e-06 	0.10000111
0.6975 	0.0027800044 	4.7819894e-06 	0.1000006
0.6985 	0.0027800023 	2.5567432e-06 	0.10000032
0.6995 	0.0027800012 	1.3669313e-06 	0.10000017
0.7005 	0.0027800007 	7.308132e-07 	0.10000009
0.7015 	0.0027800004 	3.9068546e-07 	0.10000005
0.7025 	0.0027800002 	2.0884449e-07 	0.10000003
0.7035 	0.0027800001 	1.1162505e-07 	0.10000001
0.7045 	0.0027800001 	5.9670655e-08 	0.10000001
0.7055 	0.00278 	3.1888187e-08 	0.1
0.7065 	0.00278 	1.7047214e-08 	0.1
0.7075 	0.00278 	9.0987698e-09 	0.1
0.7085 	0.00278 	4.8644519e-09 	0.1
0.7095 	0.00278 	2.5910582e-09 	0.1
0.7105 	0.00278 	1.4090592e-09 	0.1
0.7115 	0.00278 	7.3607532e-10 	0.1
0.7125 	0.00278 	3.7363817e-10 	0.1
0.7135 	0.00278 	1.7609201e-10 	0.1
0.7145 	0.00278 	6.9859433e-11 	0.1
0.7155 	0.00278 	6.505581e-11 	0.1
0.7165 	0.00278 	1.1719474e-11 	0.1
0.7175 	0.00278 	4.888612e-11 	0.1
0.7185 	0.00278 	2.3601888e-12 	0.1
0.7195 	0.00278 	3.4779596e-11 	0.1
0.7205 	0.00278 	1.1009219e-11 	0.1
0.7215 	0.00278 	1.7066971e-11 	0.1
0.7225 	0.00278 	4.3198424e-11 	0.1
0.7235 	0.00278 	1.6923455e-11 	0.1
0.7245 	0.00278 	2.9291692e-11 	0.1
0.7255 	0.00278 	6.9220659e-12 	0.1
0.7265 	0.00278 	9.226979e-13 	0.1
0.7275 	0.00278 	1.9257449e-11 	0.1
0.7285 	0.00278 	2.1512192e-11 	0.1
0.7295 	0.00278 	2.9423553e-12 	0.1
0.7305 	0.00278 	1.0852717e-11 	0.1
0.7315 	0.00278 	3.749397e-13 	0.1
0.7325 	0.00278 	2.8956266e-11 	0.1
0.7335 	0.00278 	2.7232853e-11 	0.1
0.7345 	0.00278 	1.094118e-11 	0.1
0.7355 	0.00278 	2.3079547e-11 	0.1
0.7365 	0.00278 	3.5580423e-12 	0.1
0.7375 	0.00278 	8.7943225e-12 	0.1
0.7385 	0.00278 	3.5617162e-11 	0.1
0.7395 	0.00278 	3.3684635e-12 	0.1
0.7405 	0.00278 	1.2529068e-11 	0.1
0.7415 	0.00278 	1.9249346e-11 	0.1
0.7425 	0.00278 	3.1177378e-11 	0.1
0.7435 	0.00278 	1.2765265e-11 	0.1
0.7445 	0.00278 	2.028881e-11 	0.1
0.7455 	0.00278 	1.8367383e-12 	0.1
0.7465 	0.00278 	3.5656121e-11 	0.1
0.7475 	0.00278 	1.7748588e-11 	0.1