/*--------------------------------*- C++ -*----------------------------------*\
| =========                 |                                                 |
| \\      /  F ield         | OpenFOAM: The Open Source CFD Toolbox           |
|  \\    /   O peration     | Version:  2112                                  |
|   \\  /    A nd           | Website:  www.openfoam.com                      |
|    \\/     M anipulation  |                                                 |
\*---------------------------------------------------------------------------*/
FoamFile
{
    version     2.0;
    format      ascii;
    arch        "LSB;label=32;scalar=64";
    class       volScalarField;
    location    "5.5";
    object      Ma;
}
// * * * * * * * * * * * * * * * * * * * * * * * * * * * * * * * * * * * * * //

dimensions      [0 0 0 0 0 0 0];

internalField   nonuniform List<scalar> 
5250
(
2.99999
2.99997
2.99988
2.99975
2.99924
2.9985
2.9957
2.99099
2.97562
2.94129
2.85577
2.61746
2.16785
1.20265
0.524505
0.260797
0.314172
0.326877
0.291219
0.23585
0.18686
0.14782
0.108988
0.0668075
0.0352967
2.99999
2.99997
2.99988
2.99976
2.99925
2.99853
2.99577
2.99115
2.97604
2.94234
2.85822
2.62411
2.18087
1.22263
0.535449
0.262214
0.31691
0.330612
0.295315
0.240918
0.193064
0.155196
0.118273
0.0805802
0.0567861
2.99999
2.99997
2.99988
2.99976
2.99927
2.99857
2.99588
2.99146
2.97677
2.94468
2.86333
2.6387
2.20952
1.26829
0.56129
0.268798
0.325503
0.341326
0.30702
0.25476
0.20915
0.173752
0.140657
0.109581
0.0919826
2.99999
2.99997
2.99989
2.99977
2.9993
2.99864
2.99605
2.9919
2.97785
2.94818
2.87092
2.66069
2.25321
1.34098
0.601356
0.281769
0.34052
0.35943
0.326436
0.276904
0.233658
0.200954
0.171667
0.145545
0.130945
2.99999
2.99997
2.9999
2.99979
2.99935
2.99873
2.99627
2.99247
2.97922
2.95257
2.88047
2.68867
2.30979
1.44074
0.654911
0.305726
0.364319
0.385832
0.354124
0.307293
0.265816
0.235182
0.208884
0.186294
0.173278
2.99999
2.99998
2.9999
2.9998
2.99939
2.99882
2.99652
2.9931
2.98078
2.95743
2.89119
2.7203
2.37557
1.56233
0.723048
0.346271
0.399868
0.421145
0.390847
0.346877
0.306555
0.277387
0.253413
0.233374
0.222027
3
2.99998
2.99991
2.99982
2.99944
2.99892
2.99679
2.99369
2.98218
2.96181
2.90034
2.75067
2.43317
1.70521
0.788298
0.379968
0.431108
0.452194
0.42739
0.38943
0.352365
0.325864
0.305228
0.289113
0.281252
3
2.99998
2.99992
2.99983
2.99949
2.99901
2.99705
2.99422
2.98344
2.96542
2.90785
2.77599
2.47821
1.79091
0.867909
0.423966
0.455797
0.472113
0.4602
0.430974
0.400607
0.379642
0.364905
0.355149
0.356766
3
2.99998
2.99993
2.99985
2.99954
2.9991
2.99731
2.99477
2.98479
2.96885
2.91551
2.79988
2.52294
1.8805
0.969529
0.483186
0.472461
0.487909
0.488861
0.470125
0.449123
0.436799
0.431633
0.43579
0.460853
3
2.99999
2.99994
2.99987
2.9996
2.99921
2.99768
2.99539
2.98692
2.97232
2.92576
2.81862
2.57294
1.96419
1.07585
0.549802
0.486048
0.504987
0.51605
0.508137
0.499
0.496217
0.50649
0.540253
0.631788
3
2.99999
2.99996
2.99988
2.99974
2.99928
2.99844
2.99589
2.9901
2.97542
2.93679
2.85135
2.59358
2.12344
1.16708
0.627596
0.498122
0.521492
0.542066
0.544556
0.546131
0.557212
0.589934
0.665466
0.831621
3
2.99999
2.99996
2.9999
2.9997
2.99941
2.99827
2.99649
2.99031
2.97869
2.94456
2.86138
2.67624
2.17259
1.36909
0.720773
0.521544
0.544612
0.56975
0.580496
0.591361
0.6156
0.666461
0.762582
0.936025
3
2.99999
2.99996
2.99992
2.99973
2.99948
2.99843
2.99696
2.99106
2.98214
2.95021
2.8889
2.7234
2.32395
1.57127
0.82729
0.561255
0.580315
0.602453
0.617728
0.635587
0.670066
0.730116
0.825038
0.971472
3
3
2.99997
2.99993
2.99978
2.99956
2.99869
2.99746
2.99254
2.9852
2.95838
2.91047
2.76923
2.4601
1.78238
0.946195
0.620997
0.62647
0.641826
0.65874
0.678787
0.716245
0.778349
0.863927
0.98626
3
3
2.99998
2.99995
2.99982
2.99965
2.99894
2.99795
2.994
2.98808
2.96696
2.9265
2.81726
2.53896
1.99223
1.06438
0.686964
0.662598
0.679015
0.697697
0.719838
0.756129
0.815728
0.892614
0.996213
3
3
2.99998
2.99996
2.99986
2.99972
2.99918
2.99839
2.99541
2.99054
2.9745
2.93998
2.85261
2.61549
2.16942
1.25243
0.790437
0.690713
0.705989
0.726613
0.754744
0.789962
0.843726
0.914798
1.00466
3
3
2.99999
2.99997
2.99989
2.99978
2.99933
2.99871
2.99621
2.99248
2.97914
2.95375
2.8825
2.69861
2.33244
1.50102
0.926417
0.731648
0.734232
0.75394
0.785787
0.822596
0.869955
0.932962
1.0114
3.00001
3
2.99999
2.99998
2.99992
2.99983
2.99949
2.999
2.99705
2.99425
2.98361
2.96592
2.91009
2.78222
2.5023
1.85341
1.1004
0.804656
0.780663
0.791376
0.817186
0.852865
0.897448
0.95293
1.01959
3.00001
3
3
2.99998
2.99994
2.99987
2.99962
2.99925
2.99779
2.99565
2.9877
2.9742
2.93132
2.83387
2.61258
2.05844
1.26395
0.879022
0.822389
0.831137
0.851414
0.882525
0.922305
0.972492
1.03136
3.00001
3
3
2.99999
2.99997
2.99989
2.99978
2.99934
2.99869
2.99637
2.99217
2.97955
2.95026
2.87971
2.6842
2.30788
1.49224
1.00075
0.862311
0.863131
0.881951
0.912071
0.946991
0.99067
1.04277
3.00001
3.00001
3
2.99999
2.99998
2.99992
2.99983
2.99949
2.99901
2.99709
2.99428
2.9839
2.966
2.91113
2.78278
2.50623
1.86954
1.18089
0.927073
0.905235
0.916185
0.94291
0.976666
1.01331
1.05693
3.00001
3.00001
3
3
2.99998
2.99995
2.99985
2.9997
2.99911
2.99823
2.99495
2.9897
2.97184
2.93786
2.84338
2.62344
2.12273
1.37183
1.00725
0.941334
0.948303
0.969622
1.00191
1.03652
1.07565
3.00001
3.00001
3
3
2.99999
2.99996
2.99991
2.99974
2.99947
2.99848
2.99697
2.99152
2.98219
2.95282
2.88767
2.73278
2.34498
1.63706
1.14034
0.992604
0.983871
0.995853
1.0215
1.05551
1.09239
3.00001
3.00001
3.00001
3
2.99999
2.99998
2.99993
2.99985
2.99955
2.99912
2.99746
2.99495
2.98593
2.97042
2.92286
2.81658
2.57312
2.03063
1.32726
1.06372
1.0252
1.03016
1.04823
1.07593
1.10924
3.00001
3.00001
3.00001
3
3
2.99999
2.99995
2.9999
2.99969
2.99939
2.99821
2.99652
2.99017
2.97978
2.9464
2.87281
2.70398
2.26083
1.57133
1.16048
1.06122
1.05899
1.07311
1.09827
1.1293
3.00001
3.00001
3.00001
3.00001
3
2.99999
2.99997
2.99993
2.99979
2.99958
2.99876
2.99759
2.99307
2.98621
2.96197
2.91806
2.79308
2.51981
1.9184
1.32764
1.11791
1.09052
1.09797
1.11867
1.14758
3.00001
3.00001
3.00001
3.00001
3
3
2.99999
2.99995
2.99989
2.99967
2.99934
2.99811
2.99624
2.98967
2.97804
2.94327
2.86274
2.68641
2.22532
1.54486
1.20279
1.13072
1.12764
1.14094
1.16409
3.00001
3.00001
3.00001
3.00001
3
3
2.99999
2.99996
2.99993
2.99977
2.99955
2.99867
2.99743
2.99258
2.98535
2.95962
2.9131
2.78406
2.49187
1.89309
1.34788
1.17609
1.1572
1.16524
1.18477
3.00001
3.00001
3.00001
3.00001
3.00001
3
3
2.99998
2.99995
2.99985
2.99971
2.99914
2.99832
2.99518
2.99046
2.97362
2.94436
2.85696
2.67478
2.22847
1.58039
1.26292
1.19332
1.19035
1.2023
3.00001
3.00001
3.00001
3.00001
3.00001
3
3
2.99999
2.99997
2.99993
2.99977
2.99955
2.9987
2.99744
2.99281
2.98545
2.96096
2.91398
2.78942
2.5049
1.91764
1.4124
1.24292
1.2204
1.22457
3.00001
3.00001
3.00001
3.00001
3.00001
3.00001
3
3
2.99998
2.99995
2.99985
2.99971
2.99916
2.99837
2.99534
2.99084
2.97467
2.94697
2.86471
2.69088
2.2779
1.63774
1.33097
1.25664
1.25049
3.00001
3.00001
3.00001
3.00001
3.00001
3.00001
3
3
2.99999
2.99997
2.99991
2.99983
2.99949
2.999
2.99715
2.99443
2.98449
2.96814
2.91746
2.8068
2.56273
2.01209
1.50237
1.31115
1.28219
3.00001
3.00001
3.00001
3.00001
3.00001
3.00001
3.00001
3
3
2.99998
2.99996
2.99987
2.99974
2.99926
2.99853
2.99588
2.99167
2.97758
2.9518
2.87805
2.72281
2.3326
1.74526
1.41117
1.31967
3.00001
3.00001
3.00001
3.00001
3.00001
3.00001
3.00001
3.00001
3
3
2.99997
2.99994
2.99981
2.99963
2.99894
2.9979
2.99417
2.98819
2.96861
2.93201
2.83127
2.61868
2.11703
1.59441
1.37896
3.00001
3.00001
3.00001
3.00001
3.00001
3.00001
3.00001
3.00001
3
3
2.99999
2.99997
2.99989
2.99977
2.99934
2.99872
2.99636
2.9929
2.9804
2.95916
2.89772
2.75996
2.45926
1.85412
1.49188
3.00001
3.00001
3.00001
3.00001
3.00001
3.00001
3.00001
3.00001
3.00001
3
2.99999
2.99998
2.99994
2.99987
2.99962
2.99925
2.99786
2.99584
2.98838
2.97667
2.93862
2.8632
2.67814
2.26234
1.69132
3.00001
3.00001
3.00001
3.00001
3.00001
3.00001
3.00001
3.00001
3.00001
3
3
2.99999
2.99997
2.99991
2.99982
2.99948
2.99897
2.99713
2.99431
2.98454
2.96768
2.91776
2.80657
2.56682
2.03023
3.00001
3.00001
3.00001
3.00001
3.00001
3.00001
3.00001
3.00001
3.00001
3.00001
3
3
2.99999
2.99995
2.9999
2.99969
2.9994
2.99829
2.9967
2.99074
2.98152
2.9512
2.88988
2.74559
2.38394
3.00001
3.00001
3.00001
3.00001
3.00001
3.00001
3.00001
3.00001
3.00001
3.00001
3.00001
3
2.99999
2.99998
2.99993
2.99986
2.9996
2.9992
2.99777
2.99558
2.988
2.97511
2.93679
2.85636
2.66382
3.00001
3.00001
3.00001
3.00001
3.00001
3.00001
3.00001
3.00001
3.00001
3.00001
3.00001
3
3
2.99999
2.99996
2.99992
2.99976
2.99954
2.99868
2.99745
2.99283
2.98588
2.96214
2.9185
2.8064
3.00001
3.00001
3.00001
3.00001
3.00001
3.00001
3.00001
3.00001
3.00001
3.00001
3.00001
3.00001
3
3
2.99998
2.99996
2.99987
2.99973
2.99924
2.99851
2.99584
2.99178
2.97768
2.95391
2.88103
3.00001
3.00001
3.00001
3.00001
3.00001
3.00001
3.00001
3.00001
3.00001
3.00001
3.00001
3.00001
3.00001
3
2.99999
2.99997
2.99994
2.99981
2.99963
2.99895
2.99793
2.99429
2.98852
2.96961
2.93503
3.00001
3.00001
3.00001
3.00001
3.00001
3.00001
3.00001
3.00001
3.00001
3.00001
3.00001
3.00001
3.00001
3
3
2.99998
2.99996
2.99987
2.99975
2.99927
2.99859
2.99596
2.99214
2.97802
2.95533
3.00001
3.00001
3.00001
3.00001
3.00001
3.00001
3.00001
3.00001
3.00001
3.00001
3.00001
3.00001
3.00001
3
3
2.99999
2.99997
2.9999
2.9998
2.99942
2.99887
2.99672
2.99352
2.98182
2.96183
3.00001
3.00001
3.00001
3.00001
3.00001
3.00001
3.00001
3.00001
3.00001
3.00001
3.00001
3.00001
3.00001
3.00001
3
2.99999
2.99997
2.99993
2.99979
2.99958
2.99874
2.99752
2.99275
2.98542
2.95939
3.00001
3.00001
3.00001
3.00001
3.00001
3.00001
3.00001
3.00001
3.00001
3.00001
3.00001
3.00001
3.00001
3.00001
3
3
2.99997
2.99994
2.99979
2.9996
2.99877
2.99762
2.99292
2.98596
2.96005
3.00001
3.00001
3.00001
3.00001
3.00001
3.00001
3.00001
3.00001
3.00001
3.00001
3.00001
3.00001
3.00001
3.00001
3
3
2.99997
2.99994
2.99981
2.99962
2.99887
2.99775
2.99354
2.98635
2.96264
3.00001
3.00001
3.00001
3.00001
3.00001
3.00001
3.00001
3.00001
3.00001
3.00001
3.00001
3.00001
3.00001
3.00001
3
2.99999
2.99998
2.99993
2.99985
2.99955
2.9991
2.99744
2.99457
2.98544
2.9654
3.00001
3.00001
3.00001
3.00001
3.00001
3.00001
3.00001
3.00001
3.00001
3.00001
3.00001
3.00001
3.00001
3.00001
3
3
2.99997
2.99994
2.99981
2.99963
2.99889
2.99778
2.99367
2.9865
2.96334
3.00001
3.00001
3.00001
3.00001
3.00001
3.00001
3.00001
3.00001
3.00001
3.00001
3.00001
3.00001
3.00001
3.00001
3
3
2.99997
2.99994
2.9998
2.99961
2.99883
2.99772
2.99318
2.98645
2.96142
1.02641
1.02373
0.563219
0.212226
0.159002
0.257967
0.368293
0.421906
0.441809
0.457013
0.482845
0.516009
0.546128
0.570446
0.591296
0.613188
0.636146
0.658787
0.679635
0.697956
0.715396
0.733458
0.75081
0.761778
0.767384
0.769832
0.764554
0.745557
0.711361
0.665646
0.612196
0.555489
0.497446
0.439858
0.383656
0.330277
0.279809
0.232494
0.186492
0.143181
0.102184
0.0636038
0.0335831
0.0286999
0.0563335
0.0887244
0.119352
0.148542
0.176429
0.202157
0.227546
0.253474
0.278863
0.302472
0.325165
0.346654
0.367339
0.387034
0.405793
0.423648
0.440537
0.456495
0.471535
0.485642
0.498867
0.511256
0.522864
0.53379
0.544142
0.554036
0.5636
0.57295
0.582233
0.591484
0.600938
0.610487
0.620466
0.630575
0.641279
0.652067
0.663486
0.675014
0.686982
0.699083
0.711532
0.724018
0.73674
0.749471
0.762323
0.775085
0.787894
0.800531
0.813014
0.825098
0.836754
0.847641
0.857535
0.865929
0.872235
0.876833
1.05278
1.02575
0.813907
0.538948
0.417164
0.331761
0.226588
0.118807
0.0552462
0.153864
0.230161
0.295574
0.33959
0.365795
0.385756
0.407927
0.433178
0.458233
0.481837
0.502168
0.521164
0.540604
0.560311
0.574196
0.579729
0.580833
0.573633
0.550194
0.511913
0.4611
0.404146
0.345268
0.287025
0.230531
0.177555
0.129587
0.0877204
0.0598206
0.0560215
0.0781235
0.109355
0.140987
0.171738
0.200142
0.228891
0.257251
0.284863
0.311315
0.336848
0.360681
0.383446
0.406576
0.429592
0.451297
0.471816
0.491488
0.510365
0.528426
0.545678
0.562099
0.577695
0.59246
0.606407
0.619539
0.631888
0.643487
0.654407
0.6647
0.674514
0.683867
0.693016
0.701852
0.710764
0.719493
0.728511
0.737511
0.746904
0.756448
0.766413
0.776577
0.787176
0.797936
0.80908
0.820305
0.831855
0.843406
0.855221
0.866937
0.878888
0.890646
0.90258
0.914177
0.925853
0.936978
0.947939
0.957934
0.967365
0.975175
0.981235
0.985278
1.05999
1.08709
1.02175
0.882019
0.772379
0.693516
0.608701
0.510405
0.408253
0.316406
0.237024
0.162988
0.0923026
0.0414143
0.0900611
0.145321
0.193404
0.2312
0.261589
0.285655
0.305414
0.323953
0.342406
0.357609
0.363155
0.361167
0.350122
0.32509
0.285151
0.233231
0.182085
0.135839
0.104756
0.0964219
0.111714
0.139335
0.171371
0.204026
0.234654
0.265015
0.294849
0.323465
0.350775
0.376476
0.401509
0.425888
0.449637
0.472555
0.494708
0.515583
0.535225
0.554746
0.57461
0.593721
0.611703
0.628813
0.645293
0.661077
0.676232
0.690653
0.704425
0.717449
0.729832
0.741466
0.752501
0.762819
0.772648
0.781836
0.790733
0.799112
0.80746
0.815411
0.823575
0.831461
0.839719
0.847833
0.856438
0.865028
0.874148
0.883347
0.89304
0.902819
0.913028
0.923301
0.933864
0.94448
0.955306
0.966155
0.977094
0.988065
0.999031
1.00994
1.02067
1.03118
1.04133
1.05106
1.05986
1.06756
1.07322
1.07727
1.0775
1.12878
1.12797
1.07441
1.00382
0.943666
0.877155
0.802855
0.7213
0.641651
0.572072
0.506031
0.438739
0.370895
0.30605
0.246758
0.191746
0.140725
0.0944801
0.056758
0.0429972
0.0632674
0.0890351
0.115068
0.127803
0.123299
0.102237
0.0837049
0.0839091
0.112681
0.149613
0.191662
0.233949
0.272616
0.307684
0.340657
0.371791
0.40083
0.427932
0.453801
0.478679
0.502584
0.525325
0.547019
0.567924
0.588254
0.608069
0.627244
0.645907
0.663585
0.680166
0.696198
0.71268
0.728981
0.744417
0.758887
0.772871
0.786182
0.799091
0.811293
0.82308
0.834131
0.844784
0.854699
0.864254
0.873105
0.881665
0.889614
0.897389
0.904713
0.912011
0.919059
0.926173
0.933242
0.940414
0.947694
0.955136
0.962806
0.970668
0.978883
0.987265
0.996023
1.00492
1.01414
1.02344
1.03302
1.04261
1.05242
1.06222
1.07217
1.08202
1.09194
1.10171
1.11145
1.12078
1.12972
1.1379
1.14502
1.1504
1.15388
1.08876
1.15156
1.1813
1.17309
1.14091
1.10431
1.06188
1.01218
0.955141
0.897282
0.840983
0.784044
0.724647
0.663975
0.604281
0.550176
0.499472
0.450649
0.403174
0.357115
0.312617
0.271398
0.233511
0.199728
0.17377
0.165622
0.178831
0.211938
0.263258
0.317522
0.368118
0.41418
0.453863
0.488329
0.51797
0.544409
0.568289
0.590446
0.610982
0.630439
0.649087
0.667037
0.684345
0.700969
0.717167
0.732942
0.748521
0.763692
0.77872
0.793104
0.806814
0.819701
0.832992
0.846408
0.859674
0.871899
0.883779
0.894925
0.905901
0.916161
0.926226
0.935556
0.94468
0.95308
0.961321
0.968866
0.976347
0.983183
0.9901
0.996456
1.00304
1.00919
1.01572
1.02192
1.02858
1.03501
1.04193
1.0487
1.05602
1.06326
1.07105
1.07881
1.08708
1.0953
1.104
1.11258
1.12159
1.13044
1.13973
1.14873
1.1582
1.16731
1.17679
1.18566
1.19474
1.20293
1.21098
1.21759
1.22304
1.22611
1.09251
1.16162
1.20581
1.22373
1.21955
1.20436
1.18289
1.15388
1.11897
1.08035
1.03997
0.997649
0.952943
0.905249
0.857562
0.808403
0.761507
0.714443
0.669655
0.625051
0.58259
0.542597
0.505234
0.472088
0.446859
0.434913
0.43291
0.453015
0.492564
0.541634
0.590046
0.634204
0.669921
0.697043
0.718078
0.734971
0.750007
0.763788
0.777003
0.789399
0.801523
0.813201
0.824789
0.836071
0.847416
0.858566
0.869933
0.881081
0.892451
0.903483
0.914405
0.924433
0.93466
0.945122
0.95617
0.966404
0.976396
0.985632
0.994872
1.00342
1.01201
1.01987
1.02776
1.03492
1.04214
1.04867
1.05533
1.06139
1.06764
1.07339
1.0794
1.08506
1.091
1.09674
1.10278
1.10869
1.11493
1.1211
1.12763
1.13416
1.1411
1.14807
1.15548
1.16291
1.17072
1.17856
1.1867
1.1949
1.20333
1.21185
1.22054
1.22916
1.23783
1.24629
1.25471
1.26265
1.27025
1.27684
1.28216
1.28532
1.09298
1.16325
1.21586
1.24918
1.26388
1.26679
1.26089
1.24824
1.22941
1.20626
1.18036
1.15199
1.12134
1.088
1.05218
1.01521
0.976873
0.93934
0.899253
0.860158
0.818542
0.778451
0.738988
0.703428
0.673939
0.650589
0.637894
0.649758
0.688141
0.737508
0.785391
0.829059
0.864079
0.888284
0.900978
0.907665
0.91194
0.916381
0.921335
0.926777
0.932731
0.938824
0.945349
0.951938
0.958957
0.966103
0.973729
0.981447
0.989555
0.997621
1.00589
1.01364
1.02133
1.02904
1.03764
1.04608
1.05447
1.06208
1.06977
1.07682
1.08403
1.09058
1.09733
1.10339
1.10974
1.11544
1.12148
1.12694
1.13276
1.13809
1.14381
1.14913
1.15487
1.16031
1.16616
1.17178
1.17779
1.18361
1.18983
1.19588
1.20239
1.20877
1.21567
1.22246
1.2298
1.23699
1.24476
1.25233
1.26052
1.26838
1.27674
1.28466
1.29302
1.30084
1.30898
1.3164
1.32382
1.33006
1.33542
1.33832
1.0925
1.16109
1.21749
1.25993
1.28727
1.30325
1.30988
1.30985
1.30363
1.29251
1.27811
1.26141
1.24163
1.21998
1.1953
1.16902
1.14131
1.11192
1.08175
1.04771
1.01308
0.972865
0.936369
0.897573
0.862632
0.821692
0.798782
0.807795
0.845533
0.894668
0.944862
0.988447
1.02297
1.04824
1.06025
1.05992
1.05394
1.04786
1.0433
1.04105
1.04039
1.04146
1.0435
1.04623
1.04969
1.05362
1.05816
1.06307
1.06857
1.0742
1.08032
1.08623
1.09237
1.09803
1.10445
1.11096
1.11804
1.12438
1.13087
1.13666
1.14277
1.14828
1.15414
1.15943
1.16509
1.17024
1.1758
1.1809
1.18643
1.19159
1.19714
1.20234
1.20797
1.21322
1.21893
1.22425
1.23005
1.23548
1.24136
1.24693
1.25295
1.25877
1.26503
1.2712
1.27783
1.28442
1.2915
1.29857
1.3061
1.31344
1.32121
1.32873
1.33659
1.34416
1.35189
1.35924
1.36639
1.3728
1.37816
1.38139
1.0952
1.15887
1.21545
1.26234
1.29745
1.32253
1.33876
1.34799
1.35167
1.35032
1.34548
1.33715
1.32743
1.31366
1.29959
1.28094
1.26338
1.2407
1.21915
1.19027
1.16028
1.12377
1.08914
1.04731
0.998409
0.942375
0.914208
0.924283
0.961011
1.00891
1.06001
1.10508
1.13877
1.16438
1.1793
1.18364
1.17681
1.1637
1.1509
1.13937
1.13191
1.12693
1.12478
1.12388
1.12447
1.12578
1.12784
1.13041
1.13375
1.13735
1.1416
1.14583
1.15052
1.15491
1.15963
1.16431
1.16972
1.17502
1.1805
1.18537
1.19052
1.19516
1.20024
1.20488
1.21003
1.21477
1.22009
1.22506
1.23053
1.23571
1.24133
1.24667
1.25241
1.25785
1.26366
1.26914
1.27496
1.28045
1.28625
1.29176
1.29758
1.30315
1.3091
1.31484
1.32108
1.32715
1.33383
1.34033
1.34739
1.35425
1.36158
1.36871
1.3762
1.38342
1.39087
1.39788
1.40491
1.41104
1.41647
1.41947
1.10025
1.15856
1.21303
1.26128
1.30077
1.3316
1.35482
1.371
1.38191
1.38786
1.39034
1.38957
1.38643
1.38037
1.37314
1.36237
1.35127
1.33577
1.31929
1.2946
1.26796
1.23554
1.20013
1.15095
1.08237
1.01453
0.990179
1.00449
1.03881
1.08499
1.13756
1.186
1.22252
1.24617
1.26348
1.27272
1.27428
1.26646
1.25193
1.23422
1.21854
1.20616
1.19753
1.19206
1.18885
1.18752
1.18705
1.18777
1.18908
1.19087
1.19325
1.19595
1.19901
1.20213
1.20573
1.20915
1.21306
1.217
1.22154
1.2258
1.23033
1.23443
1.23893
1.24309
1.24782
1.25226
1.25733
1.26214
1.26758
1.27273
1.27847
1.28386
1.28979
1.29532
1.30131
1.30689
1.31283
1.31838
1.32422
1.32972
1.33547
1.34091
1.34666
1.35214
1.35803
1.36372
1.36995
1.37602
1.38258
1.38904
1.39594
1.40274
1.40988
1.41687
1.42407
1.43101
1.43791
1.44419
1.44967
1.45302
1.10715
1.16029
1.21175
1.25891
1.30047
1.33484
1.36265
1.38419
1.40043
1.41207
1.42002
1.42483
1.42715
1.42713
1.42499
1.42028
1.414
1.40367
1.38979
1.36819
1.34384
1.31326
1.27152
1.20846
1.12011
1.0524
1.037
1.05626
1.08873
1.13549
1.18814
1.2378
1.27587
1.30374
1.32145
1.33353
1.33985
1.34071
1.33449
1.32035
1.3017
1.28321
1.26737
1.25562
1.24725
1.24239
1.23926
1.238
1.23738
1.23772
1.23855
1.23977
1.24141
1.2433
1.24549
1.24783
1.25069
1.25355
1.25681
1.26005
1.26388
1.26754
1.27166
1.27551
1.27999
1.28427
1.2893
1.29413
1.29969
1.30503
1.31101
1.3167
1.32291
1.32876
1.335
1.34083
1.34695
1.35266
1.35861
1.36415
1.36991
1.37527
1.38089
1.38616
1.39177
1.39715
1.40295
1.40861
1.4147
1.42074
1.42718
1.43358
1.44032
1.44694
1.45384
1.46047
1.46718
1.47326
1.47872
1.48199
1.11826
1.16506
1.21244
1.25764
1.29869
1.33495
1.36548
1.39067
1.411
1.42687
1.43919
1.44832
1.45497
1.45924
1.46149
1.46142
1.45857
1.4514
1.43735
1.41886
1.39416
1.36133
1.3074
1.22012
1.11985
1.06827
1.06608
1.08695
1.12234
1.16978
1.22236
1.26873
1.30715
1.33746
1.35994
1.37505
1.38477
1.39048
1.39221
1.38798
1.37674
1.35942
1.33949
1.32122
1.30611
1.29528
1.28753
1.28295
1.2799
1.27845
1.27763
1.27743
1.27778
1.27838
1.27936
1.28062
1.28226
1.28428
1.28683
1.28941
1.29246
1.29562
1.29949
1.30326
1.30769
1.31201
1.31709
1.32203
1.32773
1.33323
1.33943
1.34537
1.35189
1.35808
1.3647
1.3709
1.37741
1.38345
1.38977
1.39556
1.40165
1.40719
1.41304
1.41837
1.42404
1.42933
1.43499
1.44039
1.4462
1.45185
1.45792
1.46387
1.47023
1.47643
1.48301
1.48929
1.4958
1.50168
1.50708
1.51034
1.13239
1.17405
1.21678
1.25845
1.29813
1.33399
1.36609
1.3932
1.41641
1.4354
1.45095
1.46347
1.47336
1.48098
1.48633
1.48922
1.48891
1.48168
1.46773
1.44994
1.4235
1.38016
1.30568
1.19287
1.10168
1.07551
1.08548
1.10791
1.14545
1.19364
1.2428
1.28556
1.32289
1.35414
1.3801
1.40062
1.41503
1.42466
1.42994
1.43235
1.43031
1.42225
1.40768
1.38854
1.36894
1.35164
1.33783
1.3279
1.32121
1.31693
1.31443
1.31283
1.3121
1.31156
1.3116
1.31192
1.3127
1.31389
1.31567
1.31789
1.32051
1.32314
1.32655
1.33029
1.33471
1.33915
1.34433
1.34948
1.35533
1.36107
1.36749
1.37369
1.38048
1.38692
1.39385
1.4003
1.40715
1.41342
1.42003
1.42604
1.43236
1.43806
1.44405
1.44947
1.45519
1.46044
1.46602
1.47122
1.4768
1.48209
1.48782
1.4933
1.49927
1.50499
1.51117
1.51707
1.52326
1.5289
1.53415
1.53741
1.14538
1.18359
1.22296
1.26215
1.29952
1.33412
1.366
1.39458
1.41901
1.44046
1.45822
1.47334
1.48572
1.49569
1.50322
1.50758
1.50679
1.49835
1.48435
1.46417
1.42961
1.36851
1.26082
1.14468
1.08817
1.08234
1.09664
1.12375
1.16394
1.21025
1.25402
1.29308
1.32877
1.35987
1.38783
1.41117
1.43063
1.44565
1.45567
1.46179
1.46475
1.46537
1.46072
1.44983
1.43314
1.41345
1.39444
1.37822
1.36563
1.35672
1.35069
1.34692
1.34439
1.34287
1.34186
1.3413
1.3412
1.34164
1.34267
1.3444
1.34672
1.34903
1.35203
1.35551
1.35997
1.36459
1.36992
1.37526
1.38125
1.38721
1.39382
1.40024
1.40725
1.4139
1.42113
1.42785
1.43508
1.4417
1.44873
1.4551
1.46181
1.46784
1.47416
1.47981
1.48576
1.49113
1.49678
1.50191
1.50738
1.51242
1.51786
1.52298
1.52853
1.53383
1.53956
1.54503
1.55082
1.55614
1.56112
1.56432
1.16059
1.1943
1.22986
1.26603
1.3017
1.33562
1.3666
1.39514
1.42078
1.44295
1.46284
1.47927
1.49382
1.50524
1.51408
1.51832
1.51467
1.50433
1.48854
1.46092
1.41021
1.31555
1.19032
1.10367
1.08165
1.0889
1.10635
1.13703
1.17833
1.21998
1.25864
1.29455
1.32784
1.35849
1.38687
1.41231
1.43531
1.45468
1.47091
1.48194
1.48978
1.49355
1.49591
1.49437
1.48734
1.4743
1.45589
1.4362
1.41777
1.40266
1.39119
1.38315
1.37782
1.37419
1.37199
1.37035
1.36961
1.36916
1.36966
1.37091
1.37288
1.37502
1.37775
1.38094
1.38531
1.39005
1.39551
1.40099
1.40716
1.41326
1.42001
1.42654
1.4337
1.44053
1.44793
1.45488
1.46234
1.46922
1.47654
1.48322
1.49026
1.49662
1.50328
1.50926
1.51553
1.52113
1.52697
1.53214
1.53759
1.54246
1.54769
1.55247
1.55769
1.56256
1.56789
1.57292
1.5783
1.58324
1.58787
1.59098
1.17724
1.20761
1.23945
1.27228
1.30539
1.3378
1.3686
1.39672
1.42257
1.44558
1.46589
1.4839
1.49869
1.51138
1.51945
1.52088
1.5135
1.50157
1.47909
1.43671
1.35596
1.23064
1.12441
1.0848
1.08367
1.09506
1.11766
1.15119
1.18892
1.22524
1.2596
1.29241
1.32377
1.35376
1.38231
1.40908
1.4339
1.45641
1.4763
1.4931
1.50631
1.51516
1.52069
1.52355
1.52451
1.52084
1.51118
1.49534
1.47589
1.45594
1.43855
1.42442
1.41405
1.4069
1.4022
1.39939
1.39751
1.39689
1.39678
1.39775
1.39952
1.40163
1.4041
1.40705
1.41122
1.41593
1.42133
1.4269
1.43318
1.43943
1.44632
1.45297
1.46027
1.4672
1.47479
1.48186
1.48956
1.49662
1.50424
1.51115
1.51854
1.52517
1.53222
1.53851
1.54519
1.55105
1.55718
1.56251
1.56808
1.57293
1.57807
1.58261
1.58752
1.59198
1.59686
1.60138
1.60625
1.61072
1.61487
1.61781
1.19273
1.22073
1.24966
1.27974
1.31042
1.34095
1.37059
1.39858
1.42437
1.4481
1.46878
1.48753
1.5026
1.51466
1.5199
1.51615
1.50578
1.48698
1.45176
1.38269
1.26383
1.14562
1.08983
1.0805
1.08758
1.10382
1.13023
1.16342
1.196
1.2276
1.2584
1.28875
1.31858
1.34799
1.37638
1.40383
1.42974
1.45422
1.4765
1.49674
1.5141
1.52843
1.53896
1.54536
1.54942
1.55125
1.55045
1.54452
1.53198
1.51432
1.49422
1.47526
1.45872
1.44617
1.43732
1.4312
1.42789
1.42606
1.42529
1.42598
1.42762
1.42964
1.432
1.43476
1.43871
1.44322
1.44848
1.45394
1.46013
1.46634
1.47316
1.47979
1.48706
1.49402
1.50161
1.50874
1.51647
1.5236
1.53132
1.53837
1.54596
1.55282
1.56018
1.56676
1.57377
1.57987
1.58627
1.59177
1.59753
1.60245
1.60764
1.61209
1.61686
1.62102
1.62554
1.6296
1.63394
1.63788
1.64144
1.64414
1.21117
1.23682
1.26279
1.28966
1.31747
1.34578
1.37384
1.40098
1.42631
1.45001
1.47115
1.48964
1.50483
1.51385
1.51346
1.50455
1.48892
1.45846
1.39783
1.28926
1.16578
1.09574
1.07927
1.08334
1.09464
1.1152
1.14385
1.17284
1.20106
1.22916
1.25728
1.28582
1.31457
1.34307
1.37123
1.39863
1.42517
1.45043
1.47433
1.49649
1.51663
1.53444
1.54932
1.56132
1.5691
1.57406
1.57713
1.57801
1.57519
1.56635
1.55195
1.53285
1.51311
1.49545
1.48054
1.46976
1.4627
1.45817
1.45643
1.45594
1.45729
1.45921
1.46142
1.46397
1.46751
1.47169
1.47664
1.48195
1.48798
1.49414
1.50087
1.50748
1.51466
1.52161
1.52918
1.53634
1.54409
1.5513
1.55911
1.56626
1.57403
1.58104
1.58866
1.59543
1.60268
1.60893
1.61559
1.62123
1.62725
1.63226
1.63762
1.64203
1.64678
1.65071
1.65498
1.65858
1.66247
1.66578
1.66875
1.67103
1.22399
1.25207
1.27696
1.30177
1.32676
1.35251
1.3785
1.40436
1.42894
1.45199
1.47288
1.4903
1.50365
1.5065
1.49948
1.48611
1.45927
1.40509
1.30632
1.18381
1.10431
1.08065
1.08178
1.09
1.10693
1.13093
1.15657
1.18143
1.20639
1.23167
1.25793
1.28467
1.31215
1.33953
1.36723
1.39422
1.42087
1.4464
1.47108
1.49435
1.51624
1.53641
1.55434
1.57026
1.58289
1.59268
1.59843
1.60264
1.60472
1.60448
1.59938
1.58791
1.57147
1.55248
1.53384
1.51793
1.50509
1.49664
1.49119
1.48888
1.48857
1.49012
1.49218
1.49443
1.49754
1.50141
1.50613
1.51117
1.5169
1.52276
1.52925
1.53573
1.54279
1.54967
1.55712
1.56422
1.5719
1.57907
1.58687
1.59402
1.60187
1.60897
1.61679
1.62363
1.63106
1.63742
1.64431
1.65011
1.65638
1.66155
1.66715
1.67163
1.67651
1.68032
1.68452
1.68774
1.69129
1.69401
1.69639
1.69825
1.24161
1.26656
1.29141
1.31493
1.33845
1.36209
1.38534
1.40915
1.43245
1.45427
1.47383
1.48931
1.49607
1.49154
1.47921
1.45505
1.40615
1.31511
1.19648
1.11245
1.08315
1.08198
1.0888
1.10338
1.12429
1.14659
1.16815
1.1897
1.2119
1.2353
1.25976
1.28524
1.31141
1.33793
1.36472
1.3911
1.41748
1.44294
1.46799
1.49184
1.51486
1.53639
1.55666
1.57491
1.59129
1.60501
1.61584
1.62319
1.62806
1.63132
1.63269
1.63049
1.62265
1.60945
1.5927
1.57461
1.55804
1.544
1.53384
1.52711
1.52391
1.52336
1.52481
1.52662
1.5291
1.53231
1.5367
1.54142
1.54678
1.55228
1.55842
1.5646
1.57138
1.578
1.58519
1.59207
1.59956
1.6066
1.6143
1.62144
1.62932
1.6365
1.6443
1.6512
1.6587
1.66519
1.67225
1.67825
1.68474
1.69015
1.69596
1.70068
1.70569
1.70963
1.71378
1.71693
1.72016
1.72254
1.72428
1.72584
1.25865
1.27769
1.30349
1.32765
1.35012
1.3729
1.3952
1.41662
1.43749
1.45704
1.47345
1.48256
1.48004
1.46828
1.4461
1.40108
1.31689
1.20253
1.11613
1.0842
1.0826
1.08874
1.10222
1.12149
1.14129
1.16006
1.17842
1.19763
1.21805
1.23995
1.2631
1.28738
1.31245
1.33808
1.36407
1.39
1.41589
1.44131
1.4663
1.49061
1.51409
1.53667
1.55793
1.57797
1.5962
1.61278
1.62697
1.63877
1.64766
1.65341
1.65811
1.66042
1.66123
1.65698
1.64734
1.63353
1.61708
1.60057
1.58549
1.57371
1.56543
1.56085
1.55943
1.56022
1.5619
1.56409
1.56737
1.57168
1.57659
1.58173
1.58736
1.5931
1.59941
1.60569
1.61255
1.61919
1.62646
1.63337
1.641
1.64813
1.65594
1.66298
1.6707
1.67754
1.68506
1.69159
1.69876
1.70487
1.71152
1.71712
1.72309
1.72805
1.73318
1.73734
1.74149
1.74467
1.7477
1.74971
1.75089
1.75233
1.28189
1.29507
1.31558
1.34016
1.36254
1.38399
1.40542
1.42613
1.44473
1.46097
1.47008
1.46852
1.45634
1.4349
1.39176
1.31187
1.20207
1.11716
1.08469
1.08211
1.08781
1.10098
1.11966
1.13852
1.15536
1.17143
1.18788
1.2056
1.22485
1.24569
1.2679
1.29128
1.31556
1.34041
1.36573
1.39107
1.41652
1.44164
1.46647
1.49079
1.51436
1.53734
1.55901
1.5801
1.59931
1.61795
1.63403
1.64935
1.66149
1.67226
1.67954
1.68512
1.68926
1.6915
1.69073
1.68471
1.67393
1.65955
1.64351
1.62812
1.61472
1.60483
1.59846
1.59575
1.59562
1.59697
1.59885
1.60171
1.60584
1.61063
1.61596
1.62143
1.62737
1.63328
1.63979
1.64614
1.65318
1.65993
1.66743
1.67435
1.68195
1.68882
1.69638
1.70313
1.71056
1.71709
1.72423
1.73041
1.73707
1.74277
1.74874
1.75382
1.75887
1.76313
1.76711
1.77022
1.77292
1.77448
1.77497
1.77649
1.30855
1.31348
1.32954
1.35219
1.37459
1.39514
1.41473
1.43357
1.44954
1.45975
1.45838
1.4455
1.42395
1.38121
1.30323
1.19687
1.11481
1.08342
1.0812
1.08748
1.10197
1.12141
1.1398
1.1553
1.16967
1.18386
1.1993
1.21607
1.23466
1.25462
1.27615
1.29858
1.32211
1.34607
1.37069
1.39526
1.42016
1.44463
1.46916
1.49293
1.51655
1.53913
1.56135
1.58236
1.60272
1.62182
1.63972
1.65656
1.6713
1.68509
1.69596
1.70533
1.71178
1.71744
1.72082
1.72214
1.72012
1.71274
1.70097
1.68644
1.67114
1.65684
1.6453
1.63715
1.63266
1.63133
1.6321
1.63338
1.63573
1.6393
1.64432
1.64954
1.65527
1.66089
1.66708
1.67314
1.67991
1.68646
1.69361
1.70032
1.70765
1.71443
1.72183
1.72855
1.73586
1.7424
1.74947
1.75573
1.76234
1.76822
1.77412
1.7794
1.7844
1.78871
1.79261
1.79551
1.79786
1.79871
1.79834
1.79997
1.34134
1.33801
1.34737
1.36455
1.3867
1.40725
1.42545
1.44085
1.45082
1.44905
1.43573
1.41363
1.36994
1.29166
1.18779
1.10998
1.08173
1.08108
1.08802
1.10399
1.12511
1.14369
1.15864
1.17169
1.18438
1.1979
1.21278
1.22924
1.24721
1.26664
1.2872
1.30892
1.33129
1.3545
1.37795
1.40189
1.42575
1.44974
1.47341
1.49686
1.5198
1.54222
1.56411
1.58514
1.60567
1.62499
1.64383
1.66123
1.67795
1.69322
1.70707
1.71966
1.72971
1.73839
1.74496
1.75057
1.75297
1.75375
1.75066
1.7425
1.72998
1.71554
1.7008
1.6877
1.67757
1.67104
1.66798
1.66758
1.66858
1.67023
1.67335
1.67781
1.6831
1.68858
1.69447
1.70036
1.70673
1.7129
1.71962
1.726
1.733
1.73951
1.74663
1.75318
1.76023
1.7667
1.77349
1.77976
1.78612
1.79197
1.79777
1.8029
1.80791