/*--------------------------------*- C++ -*----------------------------------*\
| =========                 |                                                 |
| \\      /  F ield         | OpenFOAM: The Open Source CFD Toolbox           |
|  \\    /   O peration     | Version:  2112                                  |
|   \\  /    A nd           | Website:  www.openfoam.com                      |
|    \\/     M anipulation  |                                                 |
\*---------------------------------------------------------------------------*/
FoamFile
{
    version     2.0;
    format      ascii;
    arch        "LSB;label=32;scalar=64";
    class       volScalarField;
    location    "5.5";
    object      p;
}
// * * * * * * * * * * * * * * * * * * * * * * * * * * * * * * * * * * * * * //

dimensions      [1 -1 -2 0 0 0 0];

internalField   nonuniform List<scalar> 
5250
(
1.00001
1.00004
1.00008
1.00025
1.00052
1.00149
1.00291
1.00905
1.0159
1.05886
1.09598
1.38186
1.79041
3.62475
8.08801
11.638
11.2535
11.0409
11.1308
11.3628
11.5729
11.6973
11.7926
11.8655
11.9186
1.00001
1.00003
1.00008
1.00025
1.00051
1.00146
1.00286
1.0089
1.01562
1.05782
1.09423
1.37465
1.77456
3.57154
7.95787
11.6591
11.2586
11.0342
11.1244
11.3566
11.5667
11.6918
11.7885
11.8625
11.9171
1
1.00003
1.00008
1.00024
1.00049
1.00142
1.00279
1.00858
1.01522
1.05548
1.09097
1.35917
1.74066
3.45641
7.66363
11.7025
11.2651
11.0099
11.0975
11.3264
11.5352
11.6595
11.7561
11.8302
11.8861
1
1.00003
1.00008
1.00023
1.00047
1.00135
1.00268
1.0081
1.01465
1.05197
1.08622
1.33616
1.69016
3.28463
7.20841
11.7665
11.2772
10.9681
11.0496
11.2706
11.4783
11.6006
11.6954
11.769
11.8277
1
1.00003
1.00007
1.00021
1.00044
1.00126
1.00253
1.00751
1.01392
1.04758
1.08025
1.30733
1.62661
3.06902
6.61594
11.8312
11.2954
10.9143
10.9848
11.1905
11.3974
11.5169
11.6081
11.6797
11.7421
1
1.00003
1.00007
1.0002
1.00041
1.00117
1.00236
1.00684
1.01306
1.04271
1.07357
1.2752
1.55619
2.8289
5.91931
11.8136
11.2927
10.8504
10.9041
11.0825
11.2856
11.3993
11.4835
11.5508
11.6175
1
1.00003
1.00006
1.00018
1.00038
1.00107
1.00218
1.00624
1.01216
1.0383
1.06765
1.2457
1.48954
2.61965
5.34928
11.6123
11.216
10.7681
10.8005
10.9392
11.1338
11.2383
11.3083
11.3621
11.4282
1
1.00002
1.00006
1.00017
1.00035
1.00099
1.002
1.00571
1.01127
1.0346
1.06263
1.22212
1.4311
2.49543
4.85265
11.0971
10.9929
10.6949
10.6778
10.7602
10.9307
11.019
11.064
11.0889
11.1361
1
1.00002
1.00005
1.00015
1.00032
1.00089
1.00182
1.00517
1.01031
1.03105
1.05758
1.19897
1.38109
2.35977
4.38211
10.3481
10.7822
10.6113
10.5185
10.5663
10.6814
10.7355
10.7312
10.6894
10.6482
1
1.00002
1.00004
1.00013
1.00027
1.00078
1.00158
1.00454
1.00893
1.02762
1.04965
1.18002
1.32769
2.22656
3.96487
9.46204
10.643
10.5082
10.334
10.347
10.3928
10.3841
10.3098
10.1104
9.77765
1
1.00001
1.00004
1.00009
1.00026
1.0005
1.00156
1.00272
1.00985
1.01586
1.06194
1.10139
1.40613
1.84136
3.79607
8.38734
10.5232
10.3984
10.1435
10.0979
10.0783
9.99649
9.75903
9.18575
7.7134
1
1.00001
1.00003
1.0001
1.00021
1.00059
1.00119
1.00345
1.00667
1.02122
1.03701
1.1368
1.23944
1.92234
3.12996
7.26387
10.4358
10.2867
9.96339
9.84486
9.76768
9.59321
9.20867
8.42422
6.90476
1
1.00001
1.00003
1.00009
1.00018
1.00052
1.00106
1.003
1.00605
1.01762
1.03437
1.10961
1.20748
1.7263
2.70041
6.00902
10.3104
10.1616
9.80746
9.60216
9.46641
9.21571
8.73681
7.92848
6.72138
1
1.00001
1.00003
1.00007
1.00016
1.00044
1.00089
1.00251
1.00508
1.01458
1.02888
1.08793
1.17372
1.56611
2.32194
4.85366
9.95509
9.93583
9.68427
9.38185
9.17814
8.88263
8.39098
7.6492
6.68666
1
1.00001
1.00002
1.00006
1.00013
1.00035
1.00072
1.00203
1.00409
1.01179
1.02276
1.07287
1.13196
1.46742
2.04894
4.18522
9.06201
9.64503
9.49351
9.17845
8.92088
8.60207
8.13796
7.47867
6.66683
1
1.00001
1.00002
1.00005
1.0001
1.00028
1.00057
1.0016
1.00314
1.00949
1.01697
1.06032
1.09953
1.38628
1.78963
3.58381
7.61135
9.36627
9.28002
9.03121
8.71159
8.37222
7.93629
7.34856
6.64558
1
1.00001
1.00001
1.00004
1.00008
1.00022
1.00046
1.00128
1.00258
1.00747
1.01421
1.04645
1.07983
1.29816
1.60087
2.96169
6.07095
9.18868
9.14679
8.93248
8.55032
8.1913
7.77349
7.24128
6.62129
1
1
1.00001
1.00003
1.00006
1.00017
1.00036
1.00099
1.00201
1.00569
1.01122
1.03412
1.06188
1.21479
1.42067
2.36919
4.39057
8.82814
9.03042
8.84933
8.45213
8.04799
7.637
7.15434
6.60073
1
1
1.00001
1.00002
1.00005
1.00013
1.00027
1.00075
1.00152
1.0043
1.00847
1.0258
1.04648
1.16506
1.29736
2.08769
3.52116
7.80309
8.79457
8.67648
8.36373
7.92939
7.51972
7.07503
6.57892
1
1
1.00001
1.00001
1.00004
1.00008
1.00023
1.00046
1.0013
1.00252
1.00783
1.01361
1.04951
1.08114
1.31174
1.62763
3.01692
6.10979
8.52742
8.48861
8.27934
7.84711
7.42371
7.00299
6.55313
1
1
1
1.00001
1.00003
1.00006
1.00017
1.00035
1.00099
1.002
1.00566
1.01111
1.03407
1.06129
1.21381
1.41636
2.34313
4.28887
8.07902
8.36028
8.20282
7.82483
7.36428
6.95135
6.53148
1
1
1
1.00001
1.00002
1.00005
1.00011
1.00031
1.00062
1.00174
1.00351
1.01008
1.01987
1.06063
1.11598
1.37765
1.85185
3.43199
6.97929
8.11853
8.03855
7.78035
7.32928
6.9123
6.51575
1
1
1
1.00001
1.00002
1.00003
1.00009
1.00019
1.00052
1.00106
1.00298
1.0059
1.01769
1.03223
1.11076
1.19836
1.70163
2.58328
5.37122
7.80288
7.82805
7.68798
7.3379
6.90353
6.50768
1
1
1
1
1.00001
1.00003
1.00006
1.00015
1.00032
1.00087
1.00177
1.00497
1.00984
1.02936
1.05408
1.18026
1.35087
2.11432
3.61235
7.15248
7.71216
7.61103
7.3356
6.91237
6.51043
1
1
1
1
1.00001
1.00002
1.00004
1.00011
1.00022
1.00061
1.00124
1.00345
1.0068
1.02029
1.03666
1.12693
1.22196
1.80556
2.77
5.72523
7.47058
7.45423
7.30839
6.95389
6.52537
1
1
1
1
1
1.00001
1.00003
1.00008
1.00015
1.00042
1.00086
1.00238
1.00481
1.01359
1.0269
1.08033
1.15845
1.49564
2.11617
3.96975
6.96718
7.34775
7.24951
6.98484
6.56088
1
1
1
1
1
1.00001
1.00002
1.00004
1.00012
1.00024
1.00066
1.00133
1.00371
1.00727
1.02193
1.03927
1.13556
1.24198
1.84828
2.88504
5.85552
7.1384
7.11775
6.97232
6.63772
1
1
1
1
1
1.00001
1.00001
1.00003
1.00008
1.00017
1.00045
1.00092
1.00255
1.00515
1.01448
1.02861
1.08553
1.16631
1.52531
2.17686
4.09219
6.6794
7.0064
6.92269
6.69139
1
1
1
1
1
1
1.00001
1.00002
1.00005
1.00011
1.0003
1.0006
1.00167
1.00337
1.00941
1.01874
1.05434
1.10884
1.3253
1.72594
2.97772
5.64268
6.80029
6.79553
6.68018
1
1
1
1
1
1
1.00001
1.00001
1.00003
1.00008
1.00016
1.00045
1.00092
1.00252
1.00508
1.01431
1.02813
1.08425
1.16298
1.51066
2.13887
3.9496
6.34171
6.6938
6.63371
1
1
1
1
1
1
1
1.00001
1.00002
1.00005
1.00011
1.00029
1.00059
1.00162
1.00327
1.00906
1.01804
1.05191
1.10345
1.30708
1.68146
2.83131
5.29
6.47815
6.52143
1
1
1
1
1
1
1
1.00001
1.00001
1.00003
1.00007
1.00018
1.00036
1.00099
1.00201
1.00553
1.01097
1.03184
1.05907
1.19088
1.36985
2.11619
3.55893
5.9751
6.4207
1
1
1
1
1
1
1
1
1.00001
1.00002
1.00005
1.0001
1.00026
1.00053
1.00146
1.00294
1.00817
1.01624
1.04679
1.09367
1.27428
1.60984
2.62247
4.81413
6.16761
1
1
1
1
1
1
1
1
1
1.00001
1.00003
1.00007
1.00014
1.00037
1.00076
1.00207
1.00417
1.01158
1.02297
1.06604
1.13311
1.3842
1.85278
3.11506
5.56803
1
1
1
1
1
1
1
1
1
1.00001
1.00002
1.00004
1.00009
1.00023
1.00047
1.00127
1.00256
1.00703
1.01394
1.04032
1.07552
1.23909
1.47674
2.39147
4.22571
1
1
1
1
1
1
1
1
1
1
1.00001
1.00002
1.00005
1.00014
1.00028
1.00075
1.00152
1.00412
1.00826
1.0231
1.04478
1.13474
1.2631
1.78676
2.72502
1
1
1
1
1
1
1
1
1
1
1.00001
1.00001
1.00003
1.00007
1.00019
1.00038
1.00102
1.00206
1.00563
1.01112
1.03226
1.05934
1.19143
1.36434
2.08304
1
1
1
1
1
1
1
1
1
1
1
1.00001
1.00002
1.00004
1.00011
1.00022
1.0006
1.00121
1.00329
1.00658
1.01849
1.03492
1.10959
1.19842
1.6391
1
1
1
1
1
1
1
1
1
1
1
1
1.00001
1.00003
1.00005
1.00015
1.0003
1.0008
1.00161
1.00437
1.00872
1.02446
1.04726
1.13986
1.2831
1
1
1
1
1
1
1
1
1
1
1
1
1.00001
1.00002
1.00003
1.00009
1.00017
1.00047
1.00094
1.00254
1.00512
1.01402
1.02758
1.08064
1.15198
1
1
1
1
1
1
1
1
1
1
1
1
1
1.00001
1.00002
1.00005
1.0001
1.00027
1.00055
1.00148
1.00298
1.00812
1.01634
1.04507
1.0928
1
1
1
1
1
1
1
1
1
1
1
1
1
1
1.00001
1.00003
1.00007
1.00014
1.00038
1.00076
1.00206
1.00415
1.01133
1.02254
1.06348
1
1
1
1
1
1
1
1
1
1
1
1
1
1
1.00001
1.00002
1.00005
1.00009
1.00026
1.00052
1.00141
1.00287
1.00785
1.01577
1.04439
1
1
1
1
1
1
1
1
1
1
1
1
1
1
1.00001
1.00001
1.00004
1.00007
1.0002
1.00041
1.00113
1.00229
1.00645
1.01277
1.03823
1
1
1
1
1
1
1
1
1
1
1
1
1
1
1
1.00001
1.00003
1.00008
1.00015
1.00043
1.00088
1.00249
1.00503
1.01463
1.0284
1
1
1
1
1
1
1
1
1
1
1
1
1
1
1
1.00001
1.00003
1.00007
1.00015
1.00041
1.00084
1.00239
1.00483
1.01405
1.0277
1
1
1
1
1
1
1
1
1
1
1
1
1
1
1
1.00001
1.00002
1.00007
1.00014
1.00038
1.00078
1.00226
1.00446
1.01379
1.02518
1
1
1
1
1
1
1
1
1
1
1
1
1
1
1
1.00001
1.00003
1.00005
1.00015
1.00031
1.0009
1.00177
1.00544
1.00979
1.03472
1
1
1
1
1
1
1
1
1
1
1
1
1
1
1
1.00001
1.00002
1.00006
1.00013
1.00038
1.00076
1.00222
1.00436
1.01363
1.02454
1
1
1
1
1
1
1
1
1
1
1
1
1
1
1
1.00001
1.00002
1.00007
1.00014
1.00039
1.0008
1.00229
1.00464
1.01358
1.02664
3.45953
2.37315
2.6535
3.66178
3.63391
3.44271
3.3036
3.23697
3.20661
3.15926
3.08915
3.01494
2.95367
2.90458
2.85598
2.80374
2.75071
2.70062
2.65662
2.61809
2.57962
2.53637
2.50464
2.49053
2.48632
2.48669
2.51822
2.58659
2.69288
2.82958
2.98386
3.14559
3.30816
3.46642
3.61585
3.75218
3.87468
3.98329
4.0815
4.16794
4.24164
4.3047
4.3559
4.40336
4.44118
4.46749
4.48615
4.49831
4.50402
4.50434
4.50173
4.49462
4.48206
4.46773
4.45142
4.43389
4.41527
4.39629
4.37741
4.3591
4.34181
4.3259
4.31167
4.29934
4.28902
4.2807
4.2742
4.26923
4.26535
4.26203
4.25868
4.25472
4.24953
4.24255
4.23319
4.22101
4.20563
4.18688
4.16463
4.139
4.11007
4.07813
4.04339
4.00619
3.9668
3.92555
3.88274
3.83866
3.7936
3.74784
3.70164
3.65532
3.60924
3.56386
3.51977
3.47769
3.43863
3.40392
3.37539
3.35634
4.21631
3.26653
3.3566
3.67138
3.58884
3.40625
3.28356
3.26855
3.24796
3.19126
3.09308
3.00272
2.93545
2.89259
2.85121
2.80222
2.75071
2.70057
2.65565
2.61621
2.57982
2.54222
2.50658
2.48899
2.48312
2.48291
2.50976
2.57406
2.67788
2.81475
2.96982
3.1322
3.2948
3.45261
3.60154
3.73737
3.85904
3.96549
4.06649
4.15466
4.22869
4.29215
4.34536
4.39336
4.43084
4.45827
4.47745
4.49004
4.49632
4.49697
4.49511
4.48899
4.47628
4.46142
4.44562
4.42851
4.4103
4.3916
4.37298
4.35491
4.33783
4.32212
4.30805
4.29587
4.28567
4.27745
4.27104
4.26616
4.26233
4.25906
4.25571
4.25174
4.24651
4.23953
4.23022
4.21816
4.20292
4.18431
4.16217
4.13661
4.10773
4.07581
4.0411
4.00393
3.9646
3.92341
3.88068
3.83667
3.79168
3.74596
3.69979
3.65345
3.60733
3.56185
3.51761
3.47525
3.43596
3.40097
3.37194
3.3525
5.03622
4.0217
3.64731
3.64867
3.59563
3.45174
3.30066
3.25183
3.20725
3.15774
3.08124
3.00299
2.94479
2.90646
2.86182
2.80451
2.74736
2.69376
2.64687
2.60736
2.57344
2.541
2.51078
2.48814
2.47827
2.47676
2.49897
2.55665
2.65503
2.79226
2.94772
3.10828
3.2681
3.42582
3.57842
3.71616
3.83967
3.94995
4.05086
4.13904
4.21413
4.27852
4.33284
4.37954
4.41716
4.44555
4.46558
4.47868
4.48546
4.48659
4.48529
4.48043
4.46932
4.45346
4.43754
4.42101
4.40347
4.38533
4.36717
4.34953
4.33282
4.31744
4.30363
4.29165
4.28154
4.27335
4.26688
4.26188
4.25787
4.25435
4.25069
4.24636
4.24076
4.23345
4.22392
4.21177
4.19658
4.17811
4.15617
4.1308
4.10211
4.07035
4.03581
3.9988
3.95965
3.91866
3.87613
3.83233
3.78753
3.74195
3.69586
3.64957
3.60347
3.55792
3.51362
3.47129
3.43164
3.39603
3.36605
3.3456
5.45072
4.48544
3.92491
3.7085
3.61674
3.48096
3.33966
3.26391
3.21434
3.15687
3.07653
2.99794
2.93594
2.88998
2.84617
2.79603
2.74346
2.69285
2.64725
2.60858
2.57507
2.54008
2.50984
2.48376
2.46696
2.46213
2.48243
2.53636
2.62698
2.7622
2.91577
3.07721
3.23953
3.39835
3.54967
3.68767
3.81187
3.92317
4.02369
4.11253
4.18921
4.25478
4.31036
4.35732
4.39557
4.425
4.44619
4.46023
4.46792
4.46998
4.46918
4.46582
4.45744
4.44167
4.42544
4.40939
4.3928
4.37568
4.3584
4.34155
4.32552
4.31072
4.29736
4.28567
4.27569
4.26744
4.26072
4.25531
4.25074
4.24658
4.24221
4.23713
4.23077
4.22276
4.21264
4.20012
4.1848
4.16644
4.14482
4.11988
4.09167
4.0604
4.02633
3.98978
3.95107
3.91053
3.86845
3.82508
3.78065
3.73538
3.68957
3.64345
3.59755
3.55234
3.50814
3.46561
3.42553
3.38914
3.358
3.33618
5.68198
4.81086
4.20182
3.85232
3.67581
3.54161
3.4075
3.30176
3.23191
3.16384
3.08465
3.00766
2.94398
2.89406
2.84569
2.79285
2.73945
2.68909
2.64386
2.6047
2.56949
2.53578
2.50729
2.48458
2.46995
2.46836
2.48323
2.53251
2.62579
2.7494
2.8929
3.04466
3.20314
3.35942
3.5086
3.64636
3.77148
3.88423
3.9856
4.07562
4.15411
4.22156
4.27881
4.32689
4.36618
4.39697
4.41967
4.43521
4.44432
4.44794
4.44761
4.44563
4.43998
4.4278
4.41139
4.39558
4.38001
4.36426
4.34834
4.33272
4.31773
4.30379
4.29107
4.27977
4.26988
4.26141
4.25414
4.2479
4.24228
4.2369
4.23123
4.22482
4.21717
4.20791
4.19672
4.18333
4.1675
4.14898
4.12758
4.10314
4.07566
4.04521
4.012
3.97628
3.93839
3.8986
3.85725
3.81453
3.77064
3.72582
3.68047
3.635
3.58965
3.54472
3.50068
3.45798
3.41747
3.38025
3.34791
3.32449
5.82998
5.05979
4.45548
4.04664
3.79545
3.6258
3.48179
3.36153
3.2686
3.18597
3.10692
3.03031
2.96149
2.90294
2.84998
2.79785
2.74542
2.69501
2.64975
2.60977
2.57434
2.54302
2.51754
2.49908
2.49074
2.49465
2.51535
2.56877
2.65784
2.76281
2.88603
3.01664
3.15302
3.29936
3.4458
3.5854
3.71462
3.83121
3.93491
4.02673
4.10722
4.17699
4.23655
4.28675
4.328
4.36083
4.38565
4.40329
4.41445
4.42019
4.42086
4.42006
4.41705
4.40973
4.39516
4.37988
4.36523
4.35099
4.33682
4.32284
4.30928
4.29647
4.28457
4.27372
4.26387
4.255
4.24688
4.23937
4.23214
4.22492
4.21729
4.2089
4.19932
4.18826
4.17544
4.16069
4.14386
4.12481
4.10337
4.0794
4.0528
4.02352
3.99164
3.9573
3.92076
3.88225
3.84207
3.80032
3.75717
3.71331
3.66894
3.62426
3.57958
3.53513
3.49134
3.44863
3.4078
3.36989
3.33645
3.31137
5.92774
5.25034
4.67333
4.23765
3.93391
3.72155
3.55847
3.42426
3.3157
3.22399
3.14091
3.06182
2.98845
2.92271
2.86372
2.81024
2.75787
2.70725
2.66094
2.62115
2.58822
2.56263
2.54551
2.53898
2.54247
2.55883
2.60242
2.67983
2.75121
2.82471
2.90995
3.00682
3.10546
3.21246
3.34447
3.48559
3.62644
3.75474
3.86707
3.96441
4.04866
4.12126
4.18355
4.23646
4.28043
4.31607
4.34382
4.36433
4.37831
4.38672
4.39033
4.39029
4.38921
4.3856
4.37728
4.36365
4.34999
4.33718
4.32487
4.31284
4.30104
4.28964
4.27871
4.26834
4.25846
4.24897
4.23975
4.23058
4.22126
4.2116
4.20135
4.19026
4.17807
4.16456
4.14956
4.13295
4.11468
4.09465
4.07283
4.04906
4.02323
3.99519
3.96491
3.93234
3.89765
3.86093
3.82237
3.78196
3.74049
3.69786
3.65461
3.61087
3.56699
3.52313
3.47976
3.43722
3.39628
3.35788
3.32359
3.29703
5.99418
5.39214
4.85306
4.41327
4.07827
3.83102
3.64284
3.49269
3.37093
3.26871
3.17936
3.09683
3.02042
2.95092
2.88869
2.83197
2.77856
2.72742
2.68143
2.64228
2.61393
2.59738
2.59602
2.60066
2.61987
2.66947
2.77089
2.86083
2.91099
2.94689
2.98505
3.02689
3.08742
3.1425
3.21647
3.33767
3.4869
3.63309
3.76498
3.87847
3.97402
4.05329
4.12014
4.17639
4.22331
4.26212
4.29343
4.31757
4.33524
4.34723
4.35432
4.35772
4.35772
4.35683
4.35364
4.34626
4.33481
4.32334
4.31268
4.30257
4.29267
4.28285
4.27301
4.26314
4.25314
4.24292
4.2323
4.22116
4.20935
4.19678
4.18335
4.16895
4.15353
4.13699
4.1193
4.10038
4.08026
4.0589
4.03632
4.0124
3.98707
3.96013
3.93146
3.90087
3.86836
3.83388
3.79735
3.75916
3.71959
3.67873
3.637
3.59452
3.55169
3.50869
3.46597
3.42387
3.38308
3.34447
3.3096
3.28182
6.04092
5.50015
4.99917
4.56884
4.22
3.94816
3.73694
3.56931
3.43335
3.32019
3.22395
3.13629
3.0573
2.98406
2.91881
2.85845
2.80401
2.75238
2.70804
2.67177
2.65222
2.65249
2.65868
2.681
2.73804
2.86199
3.0228
3.11196
3.13316
3.13106
3.12192
3.101
3.10229
3.11667
3.15248
3.21594
3.31843
3.45974
3.60777
3.74679
3.86608
3.96398
4.04271
4.10652
4.158
4.20057
4.23569
4.26356
4.28555
4.30187
4.31325
4.32066
4.32481
4.32614
4.32575
4.32384
4.31902
4.31009
4.30126
4.29267
4.28438
4.276
4.26722
4.25781
4.24764
4.23652
4.22433
4.21098
4.19643
4.18065
4.16372
4.14568
4.12664
4.10668
4.08589
4.06429
4.04199
4.01896
3.99527
3.97082
3.94559
3.91936
3.892
3.86323
3.83294
3.80084
3.76695
3.73127
3.69406
3.65539
3.61558
3.57477
3.53335
3.49154
3.44979
3.40842
3.36809
3.32959
3.29448
3.2659
6.0708
5.58248
5.11794
4.70364
4.35271
4.06622
3.83673
3.65233
3.50252
3.37825
3.2732
3.18018
3.09835
3.02124
2.95346
2.88961
2.83408
2.78222
2.74086
2.71084
2.70912
2.71476
2.73599
2.79134
2.91338
3.15919
3.35131
3.40734
3.40061
3.37315
3.30829
3.21077
3.14453
3.12944
3.13799
3.16527
3.21706
3.2988
3.41706
3.56229
3.70455
3.83049
3.93421
4.01641
4.08052
4.13071
4.17119
4.20315
4.22961
4.25058
4.26684
4.27903
4.28784
4.29365
4.2975
4.29816
4.29759
4.2954
4.29045
4.28349
4.27638
4.26887
4.26073
4.25156
4.24103
4.2289
4.21501
4.19934
4.18195
4.16291
4.14245
4.12071
4.09799
4.07446
4.05039
4.02587
4.00109
3.97606
3.95088
3.92548
3.89985
3.87382
3.84726
3.81987
3.79148
3.76169
3.73038
3.69746
3.66298
3.6269
3.58948
3.55083
3.51132
3.47117
3.43081
3.39056
3.35105
3.31302
3.27801
3.24902
6.0915
5.64544
5.21523
4.82031
4.47397
4.18089
3.9386
3.74
3.57702
3.44163
3.32757
3.22854
3.1415
3.06171
2.99127
2.92508
2.86834
2.81749
2.78013
2.76784
2.77219
2.79013
2.83909
2.95159
3.18836
3.53211
3.72452
3.72755
3.70559
3.63986
3.50162
3.3534
3.24394
3.17849
3.15618
3.16084
3.18047
3.22102
3.28175
3.37351
3.50378
3.64272
3.77352
3.88527
3.97469
4.04324
4.09569
4.13608
4.16842
4.1942
4.21559
4.23293
4.24682
4.25776
4.26625
4.27207
4.27601
4.27625
4.27556
4.2733
4.26839
4.26144
4.25328
4.24381
4.23258
4.21921
4.20355
4.18559
4.16548
4.14337
4.11961
4.09442
4.06823
4.04129
4.01397
3.98647
3.95904
3.93174
3.90473
3.87796
3.85145
3.82505
3.79869
3.77207
3.745
3.71713
3.68814
3.65784
3.62615
3.59294
3.5583
3.52231
3.48524
3.44727
3.40882
3.37017
3.33193
3.29479
3.26025
3.23128
6.11004
5.69678
5.29473
4.92023
4.58307
4.2893
4.03967
3.83032
3.65581
3.50977
3.38656
3.28058
3.18805
3.1051
3.03111
2.96377
2.90643
2.85871
2.83333
2.83547
2.84837
2.88757
2.98245
3.18712
3.60324
3.97766
4.08525
4.06928
4.01245
3.8835
3.68689
3.51324
3.37855
3.2814
3.21918
3.18612
3.18712
3.19744
3.22299
3.26655
3.33568
3.44012
3.56974
3.70144
3.8204
3.91878
3.99583
4.05411
4.09832
4.13251
4.16003
4.18285
4.20177
4.2181
4.23166
4.24271
4.25129
4.25664
4.25882
4.25836
4.2566
4.25246
4.24442
4.23415
4.2217
4.20675
4.18921
4.16905
4.14649
4.12169
4.09507
4.0669
4.03767
4.00769
3.9774
3.94704
3.91695
3.88723
3.85811
3.82956
3.80168
3.77434
3.74751
3.72094
3.69449
3.66769
3.64048
3.6124
3.58329
3.55292
3.52128
3.48829
3.45415
3.41892
3.38294
3.34645
3.30999
3.27423
3.24058
3.21215
6.12239
5.73956
5.36433
5.00793
4.68113
4.39044
4.13775
3.92114
3.73735
3.58174
3.44963
3.33629
3.23788
3.15096
3.07403
3.00579
2.94948
2.90849
2.90603
2.91402
2.94385
3.02177
3.19741
3.56593
4.12232
4.41442
4.41524
4.38308
4.28851
4.0908
3.87083
3.68455
3.5346
3.4165
3.32653
3.26236
3.22166
3.20733
3.21111
3.22492
3.25374
3.30225
3.37896
3.49371
3.61978
3.74327
3.85191
3.93996
4.00774
4.05881
4.09764
4.12824
4.15343
4.17514
4.1937
4.20975
4.22302
4.23304
4.23963
4.24092
4.24023
4.23788
4.23254
4.22185
4.20791
4.1911
4.17158
4.14935
4.12463
4.09757
4.06862
4.03804
4.00635
3.97384
3.94102
3.90811
3.87554
3.84343
3.81208
3.78149
3.75185
3.72305
3.69515
3.66794
3.64131
3.61487
3.58858
3.56201
3.53498
3.50717
3.47845
3.44861
3.41769
3.38562
3.35263
3.31885
3.28474
3.25092
3.21864
3.19132
6.1353
5.77465
5.42239
5.08502
4.77162
4.48621
4.23232
4.01106
3.82008
3.65632
3.51601
3.39533
3.29086
3.1996
3.12005
3.05245
2.99924
2.98088
2.98632
3.00932
3.07248
3.21889
3.52884
4.15174
4.63429
4.75736
4.73561
4.66253
4.50003
4.26389
4.04596
3.8591
3.70211
3.57053
3.46145
3.37303
3.30368
3.25447
3.22214
3.22013
3.22508
3.23985
3.27221
3.3284
3.41755
3.53527
3.65973
3.77683
3.87707
3.95693
4.01775
4.06363
4.09913
4.1279
4.15207
4.173
4.19056
4.20456
4.21485
4.21991
4.21953
4.21788
4.21378
4.20507
4.19021
4.1718
4.15045
4.12634
4.09974
4.07087
4.0401
4.0077
3.97414
3.93968
3.90484
3.86982
3.8351
3.80078
3.76726
3.73456
3.70293
3.67232
3.64285
3.61437
3.58683
3.55991
3.53369
3.50784
3.48218
3.45636
3.43017
3.40328
3.37557
3.34684
3.31714
3.2865
3.25524
3.22398
3.19358
3.16807
6.15435
5.80881
5.47539
5.15503
4.85314
4.57501
4.32353
4.09931
3.90315
3.7325
3.58504
3.45741
3.3471
3.25161
3.17068
3.10499
3.06724
3.0698
3.08641
3.13764
3.26288
3.5362
4.09935
4.75658
5.04074
5.03575
4.99331
4.88173
4.65621
4.42304
4.21532
4.03362
3.87456
3.73445
3.61153
3.50437
3.41311
3.33798
3.28008
3.24005
3.22084
3.22226
3.22871
3.24714
3.2858
3.3508
3.45365
3.57345
3.69636
3.8081
3.90118
3.9742
4.02974
4.07197
4.10487
4.13146
4.15339
4.17128
4.18401
4.19269
4.19308
4.19203
4.18877
4.18159
4.16716
4.14804
4.12541
4.09982
4.07177
4.04149
4.00941
3.97571
3.94085
3.90502
3.86871
3.83209
3.79564
3.75947
3.724
3.68929
3.65565
3.62306
3.59171
3.56149
3.5324
3.50434
3.47747
3.45154
3.42645
3.40184
3.37749
3.35299
3.32812
3.30253
3.27616
3.24889
3.22084
3.19266
3.16466
3.14174
6.18462
5.84755
5.52881
5.22237
4.93076
4.65873
4.40987
4.1856
3.9857
3.80976
3.65595
3.52231
3.40674
3.3081
3.22841
3.16889
3.16446
3.17554
3.21645
3.32238
3.5598
4.05611
4.81889
5.24342
5.30684
5.27973
5.19674
5.01957
4.78865
4.57344
4.38001
4.20533
4.04596
3.90013
3.76722
3.64702
3.53981
3.446
3.36596
3.30128
3.25334
3.22135
3.21537
3.2171
3.22672
3.25082
3.29972
3.37769
3.49052
3.61333
3.73349
3.83981
3.92668
3.99364
4.04378
4.08128
4.10964
4.13166
4.14733
4.15779
4.16037
4.15952
4.15673
4.15038
4.13751
4.11865
4.09566
4.06938
4.04048
4.00933
3.9764
3.94188
3.9062
3.8695
3.83224
3.79452
3.75681
3.71921
3.68217
3.64572
3.61023
3.57568
3.54237
3.5101
3.47909
3.44948
3.42143
3.39477
3.36948
3.34523
3.32183
3.29887
3.2761
3.25312
3.22973
3.20573
3.18102
3.15632
3.1311
3.11161
6.23387
5.89
5.57905
5.28423
5.00297
4.73806
4.49275
4.26888
4.06701
3.88723
3.72841
3.58993
3.47054
3.3717
3.29574
3.26905
3.27725
3.31062
3.40086
3.60719
4.04124
4.84582
5.38842
5.54139
5.52576
5.46719
5.33236
5.11805
4.90891
4.71648
4.53785
4.37023
4.21169
4.06246
3.92277
3.79324
3.67442
3.56694
3.47132
3.3882
3.31895
3.26399
3.22561
3.20715
3.20717
3.21099
3.22549
3.258
3.31781
3.41296
3.53109
3.65565
3.7725
3.87207
3.95092
4.00991
4.05232
4.08231
4.10294
4.11555
4.1203
4.11962
4.11722
4.11171
4.10045
4.08263
4.0603
4.03433
4.00545
3.97412
3.94088
3.90602
3.86997
3.83284
3.79507
3.75671
3.71822
3.67965
3.64145
3.60363
3.5666
3.53029
3.49505
3.46071
3.42787
3.39656
3.36705
3.33918
3.31303
3.2883
3.26493
3.24254
3.22093
3.19972
3.17864
3.1575
3.13591
3.11481
3.09256
3.07722
6.29531
5.94316
5.63287
5.34493
5.07189
4.81338
4.57176
4.34949
4.14688
3.96471
3.80258
3.66091
3.54085
3.44614
3.39316
3.39752
3.42331
3.5005
3.68327
4.07193
4.8527
5.50883
5.74462
5.73852
5.69993
5.60118
5.40763
5.21069
5.02704
4.85411
4.68783
4.52604
4.36938
4.21842
4.07445
3.93845
3.81147
3.69412
3.58705
3.49077
3.40589
3.33387
3.27444
3.23029
3.20326
3.19708
3.19839
3.20668
3.22836
3.27312
3.34692
3.45496
3.57638
3.69754
3.80688
3.89662
3.96457
4.01254
4.0443
4.06366
4.07232
4.07194
4.07011
4.06556
4.05606
4.03957
4.01868
3.99397
3.96602
3.9353
3.90243
3.86777
3.83179
3.79464
3.75675
3.71816
3.67931
3.64021
3.6013
3.56252
3.52429
3.48651
3.44955
3.41358
3.37919
3.34633
3.3153
3.28595
3.25847
3.23263
3.20849
3.18576
3.16435
3.14395
3.12431
3.1053
3.08631
3.06859
3.04923
3.03849
6.40237
6.01515
5.69012
5.40394
5.13731
4.88469
4.64732
4.42711
4.22506
4.0419
3.87894
3.73678
3.62185
3.53887
3.53894
3.55712
3.62267
3.78765
4.14643
4.87557
5.60434
5.91937
5.9323
5.90529
5.826
5.66326
5.47923
5.30733
5.14512
4.9869
4.82979
4.67328
4.5185
4.36677
4.22015
4.07988
3.94735
3.82303
3.70777
3.60187
3.50592
3.42072
3.34674
3.28499
3.23679
3.20324
3.18893
3.18927
3.19341
3.2073
3.23791
3.29435
3.38531
3.49629
3.61538
3.72888
3.82655
3.90279
3.95712
3.99198
4.01168
4.01611
4.01511
4.01182
4.00454
3.9901
3.97089
3.94779
3.92138
3.89205
3.86035
3.82657
3.79122
3.75449
3.71686
3.67842
3.63959
3.60036
3.56111
3.52174
3.48264
3.44373
3.40573
3.36872
3.33318
3.29899
3.26653
3.23563
3.20661
3.17929
3.15386
3.13012
3.10814
3.08768
3.0686
3.05086
3.03373
3.01886
3.00209
2.99603
6.45196
6.08756
5.75403
5.46526
5.20197
4.95551
4.72234
4.50351
4.30224
4.11975
3.95798
3.82207
3.7201
3.69365
3.70912
3.76821
3.92117
4.25835
4.94791
5.70944
6.07333
6.11795
6.09479
6.02411
5.8779
5.71057
5.55403
5.40655
5.26123
5.11383
4.96336
4.81082
4.658
4.50684
4.35937
4.21673
4.08052
3.95131
3.83019
3.71738
3.61357
3.51881
3.43416
3.35976
3.29655
3.24545
3.20834
3.18578
3.18179
3.18307
3.1906
3.21047
3.25159
3.32047
3.41725
3.52671
3.63773
3.73911
3.82238
3.88385
3.92404
3.94543
3.9498
3.94851
3.94428
3.93491
3.91774
3.89607
3.87128
3.84376
3.81383
3.78162
3.74753
3.71179
3.6749
3.63703
3.59859
3.55955
3.52027
3.48058
3.44102
3.40176
3.36341
3.32584
3.28953
3.25431
3.22063
3.18834
3.15782
3.12896
3.10206
3.077
3.05396
3.03283
3.01357
2.99632
2.98029
2.96752
2.95316
2.95119
6.43648
6.21161
5.84704
5.53765
5.26931
5.02405
4.79433
4.5797
4.38037
4.19998
4.04552
3.92444
3.875
3.88699
3.93977
4.08322
4.40518
5.0673
5.84682
6.25686
6.30346
6.28153
6.21302
6.07096
5.91287
5.7696
5.63779
5.50811
5.37429
5.23428
5.08859
4.93918
4.7883
4.63813
4.49057
4.34705
4.20888
4.07689
3.95188
3.83438
3.72481
3.62362
3.53116
3.44782
3.37389
3.31013
3.25715
3.21615
3.18785
3.17441
3.17371
3.17597
3.1861
3.21136
3.26272
3.33844
3.43302
3.5361
3.63683
3.72492
3.79354
3.84028
3.86623
3.87354
3.87244
3.86823
3.85858
3.8396
3.81674
3.79091
3.76274
3.73235
3.69999
3.66583
3.6303
3.59351
3.55585
3.51729
3.47817
3.43863
3.39938
3.36037
3.32208
3.28433
3.24759
3.2117
3.17713
3.14377
3.11204
3.08186
3.05361
3.02724
3.00301
2.98094
2.9611
2.94377
2.92839
2.91682
2.90561
2.90586
6.38678
6.24874
5.95356
5.62209
5.34083
5.093
4.86518
4.65373
4.46018
4.29033
4.15288
4.08038
4.08938
4.13749
4.27483
4.58883
5.23698
6.0222
6.44176
6.49581
6.47427
6.40436
6.25885
6.10048
5.96368
5.84352
5.7281
5.60879
5.48172
5.34647
5.20452
5.05812
4.90958
4.76099
4.61428
4.4708
4.33191
4.19841
4.07117
3.9507
3.83744
3.73181
3.63391
3.54415
3.4625
3.38955
3.32528
3.27058
3.22585
3.1921
3.17018
3.16202
3.15795
3.1605
3.17231
3.20057
3.25825
3.33511
3.42723
3.52333
3.61311
3.68776
3.74204
3.77453
3.78825
3.7877
3.78439
3.77584
3.7582
3.73482
3.70801
3.67901
3.64834
3.61608
3.58238
3.54717
3.51067
3.47291
3.43461
3.39597
3.3575
3.31907
3.28113
3.24352
3.20671
3.17056
3.13554
3.10155
3.06905
3.03798
3.00874
2.98136
2.95614
2.93322
2.9128
2.8952
2.88041
2.86957
2.86241
2.86319
6.29012
6.22628
6.05204
5.71671
5.4192
5.16446
4.93716
4.73084
4.54768
4.39755
4.30843
4.31513
4.3604
4.49639
4.81136
5.46255
6.24765
6.66566
6.71691
6.69024
6.60883
6.44249
6.27969
6.14553
6.03281
5.92817
5.82135
5.70683
5.58313
5.45085
5.3119
5.16835
5.02245
4.87605
4.73095
4.58844
4.44986
4.31598
4.18774
4.06552
3.94997
3.84119
3.73957
3.64509
3.55791
3.47808
3.40552
3.34074
3.28364
3.23478
3.19517
3.164
3.14756
3.13432
3.12861
3.13187
3.14512
3.17574
3.23738
3.31354
3.4015
3.48994
3.56885
3.63081
3.67179
3.69366
3.69628
3.69438
3.68805
3.67405
3.65023
3.62281
3.59349
3.56282
3.53085
3.4973
3.46232
3.42616
3.3894
3.35209
3.31467
3.27709
3.23978
3.20266
3.16615
3.13018
3.09517
3.06109
3.02831
2.99689
2.96717
2.93929
2.91356
2.89022
2.86962
2.85211
2.83827
2.82871
2.82566
2.82685
6.15813
6.14844
6.05287
5.8304
5.51405
5.24406
5.01455
4.81711
4.65569
4.55501
4.56064
4.60646
4.74743
5.07516
5.75115
6.53231
6.93336
6.9618
6.9278
6.83155
6.63741
6.46081
6.32395
6.21486
6.1173
6.0194
5.9148
5.80111
5.67839
5.54787
5.41129
5.27056
5.12745
4.98373
4.84079
4.70005
4.56253
4.42925
4.30089
4.17806
4.06119
3.9505
3.84624
3.74834
3.65695
3.5718
3.49299
3.42021
3.35363
3.29338
3.23988
3.19358
3.15533
3.1277
3.1079
3.08999
3.086
3.09004
3.10472
3.13768
3.20076
3.27579
3.35919
3.44002
3.50857
3.55902
3.58892
3.6005
3.59964
3.59539
3.58483
3.5633
3.53672
3.5072
3.47614
3.44388
3.41076
3.3767
3.3419
3.3063
3.27031
3.23392
3.19759
3.16131
3.1255
3.09015
3.05562
3.02195
2.98945
2.95826
2.92868
2.90092
2.87536
2.85232
2.83226
2.81581
2.80347
2.79717
2.7975
2.79974
5.80808
6.05558
6.01782
5.88713
5.61621
5.33534
5.10549
4.92484
4.81671
4.82282
4.87302
5.02686
5.38176
6.10959
6.87955
7.25452
7.25055
7.20114
7.07661
6.84347
6.65209
6.50961
6.39949
6.30426
6.21103
6.11249
6.00586
5.89062
5.76768
5.6382
5.50372
5.36565
5.22548
5.08463
4.94431
4.80583
4.67007
4.53806
4.41039
4.28773
4.17037
4.05869
3.95264
3.8523
3.75747
3.66798
3.58382
3.50457
3.43037
3.36106
3.297
3.23828
3.18575
3.13989
3.10346
3.07478
3.05028
3.03045
3.03077
3.03624
3.05291
3.08908
3.15219
3.22651
3.30531
3.37819
3.43691
3.47617
3.49812
3.50028
3.49819
3.49117
3.47575
3.44917
3.41938
3.38816
3.35643
3.32413
3.2913
3.25772
3.22357
3.18887
3.15398
3.11901
3.08433
3.05005
3.01647
2.98372
2.95206
2.92171
2.89296
2.86613
2.8416
2.81991
2.80149
2.7876
2.77807
2.77808
2.77936
2.78392
5.03597
5.86098
5.93044
5.87335
5.72433
5.45013
5.22359
5.09537
5.10259
5.15994
5.33389
5.73045
6.53624
7.29576
7.61376
7.5983
7.51691
7.33062
7.07966
6.86925
6.71325
6.59595
6.49806
6.40464
6.30788
6.2044
6.09358
5.97575
5.85196
5.7231
5.59037
5.45474
5.31742
5.17949
5.04204
4.90613
4.7726
4.64237
4.51598
4.39403
4.27677
4.1645
4.05714
3.95475
3.85705
3.76396
3.67516
3.59055
3.5099
3.43323
3.3606
3.29221
3.22854
3.16997
3.1178
3.07257
3.03791
3.0039
2.9782
2.9626
2.96406
2.97179
2.99183
3.03366
3.09659
3.16933
3.24285
3.30733
3.35659
3.38673
3.39916
3.39832
3.39398
3.38301
3.36053
3.33192
3.30114
3.26974
3.23817
3.20633
3.17411
3.14146
3.10849
3.07539
3.04236
3.00966
2.97754
2.94623
2.91601
2.88716
2.86003
2.83503
2.81265
2.79358
2.77857
2.76862
2.76695
2.7683
2.77278
2.78433
3.43653
5.36585
5.81843
5.816
5.75841
5.61321
5.41219
5.41563
5.4769
5.67454
6.12492
7.03042
7.77355
8.02417
7.99337
7.87444
7.62054
7.33916
7.11017
6.93999
6.81225
6.70551
6.60697
6.50727
6.40288
6.29273
6.17712
6.05651
5.93169
5.80323
5.67196
5.53852
5.40388
5.2688
5.13429
5.0011
4.87011
4.74195
4.61723
4.49633
4.37954
4.26697
4.15867
4.05447
3.9543
3.85785
3.76502
3.67552
3.58933
3.50634
3.42672
3.35056
3.2782
3.20991
3.1464
3.08849
3.037
2.99526
2.95564
2.92206
2.89688