/*--------------------------------*- C++ -*----------------------------------*\
| =========                 |                                                 |
| \\      /  F ield         | OpenFOAM: The Open Source CFD Toolbox           |
|  \\    /   O peration     | Version:  2112                                  |
|   \\  /    A nd           | Website:  www.openfoam.com                      |
|    \\/     M anipulation  |                                                 |
\*---------------------------------------------------------------------------*/
FoamFile
{
    version     2.0;
    format      ascii;
    arch        "LSB;label=32;scalar=64";
    class       surfaceScalarField;
    location    "5.5";
    object      phi;
}
// * * * * * * * * * * * * * * * * * * * * * * * * * * * * * * * * * * * * * //

dimensions      [1 0 -1 0 0 0 0];

oriented        oriented;

internalField   nonuniform List<scalar> 
10325
(
0.00840003
7.92217e-11
0.00840003
6.16439e-10
0.00840003
1.87957e-09
0.00840002
5.71915e-09
0.0084
1.34701e-08
0.00839996
3.68406e-08
0.00839988
8.08739e-08
0.00839959
2.29478e-07
0.0083991
4.81583e-07
0.00839722
1.52208e-06
0.00839376
3.29742e-06
0.00837998
1.20066e-05
0.00834544
3.26102e-05
0.00819785
0.000138852
0.00751181
0.000658032
0.00679338
0.000726113
0.00613882
0.00065804
0.00547641
0.000663496
0.00479421
0.000682977
0.00407825
0.000716845
0.00332288
0.000755851
0.002532
0.000791428
0.00170991
0.000822026
0.000861907
0.00084858
0.000863053
0.00840003
1.45254e-10
0.00840003
1.12675e-09
0.00840003
3.46537e-09
0.00840002
1.04921e-08
0.00840001
2.45546e-08
0.00839997
6.85467e-08
0.0083999
1.40741e-07
0.00839963
4.56512e-07
0.00839926
8.22556e-07
0.00839722
3.22254e-06
0.00839398
6.35057e-06
0.00837962
2.46241e-05
0.00834389
6.63806e-05
0.00819695
0.000277201
0.00753134
0.00129535
0.00679626
0.00146906
0.00615333
0.00130454
0.00550214
0.00131579
0.0048256
0.00136031
0.00410301
0.00144031
0.00334059
0.00151876
0.00254281
0.0015898
0.00171135
0.00165345
0.000855216
0.00170535
0.00171941
0.00840003
2.12945e-10
0.00840003
1.65122e-09
0.00840003
5.06348e-09
0.00840002
1.53472e-08
0.00840001
3.58994e-08
0.00839997
1.00248e-07
0.0083999
2.06033e-07
0.00839964
6.684e-07
0.00839926
1.19288e-06
0.00839739
4.74509e-06
0.00839436
9.27213e-06
0.00838117
3.60661e-05
0.00834833
9.72046e-05
0.0082175
0.000399658
0.00763943
0.00184457
0.00689268
0.00222404
0.00624614
0.00195486
0.00559996
0.00196315
0.00492734
0.00203377
0.00420189
0.00216666
0.00342991
0.00229121
0.00261748
0.00240274
0.00176634
0.00250453
0.000885145
0.00258713
0.00260561
0.00840003
2.71696e-10
0.00840003
2.10697e-09
0.00840003
6.45162e-09
0.00840002
1.95682e-08
0.00840001
4.58484e-08
0.00839998
1.27586e-07
0.00839991
2.65001e-07
0.00839969
8.44806e-07
0.00839936
1.5173e-06
0.00839781
5.94756e-06
0.00839536
1.16019e-05
0.00838497
4.47239e-05
0.00835974
0.000120384
0.00826395
0.000487471
0.0078625
0.00221652
0.00711317
0.00298191
0.00644612
0.00262601
0.00579135
0.00261916
0.00511869
0.00270722
0.00438641
0.00289978
0.0036015
0.00307663
0.00276722
0.00323768
0.00187765
0.00339389
0.000945929
0.00351966
0.00355263
0.00840003
3.09508e-10
0.00840003
2.40062e-09
0.00840003
7.33927e-09
0.00840002
2.22711e-08
0.00840002
5.22453e-08
0.00839999
1.44657e-07
0.00839995
3.03839e-07
0.0083998
9.46822e-07
0.0083996
1.71172e-06
0.00839865
6.5735e-06
0.0083974
1.27294e-05
0.00839161
4.88337e-05
0.0083799
0.000130073
0.00834075
0.000519507
0.00824679
0.00228144
0.00750378
0.00373319
0.00677642
0.00335797
0.00609972
0.00329726
0.00541709
0.00339065
0.00467303
0.00364426
0.00386283
0.00388725
0.00299282
0.00410837
0.00205885
0.00432771
0.00105031
0.00452861
0.00460397
0.00840003
3.14146e-10
0.00840003
2.43075e-09
0.00840003
7.46732e-09
0.00840003
2.25222e-08
0.00840003
5.31756e-08
0.00840002
1.43021e-07
0.00840001
3.15073e-07
0.00840002
8.91176e-07
0.00839998
1.74296e-06
0.00840013
6.13657e-06
0.00840102
1.17245e-05
0.00840367
4.46594e-05
0.00841105
0.000120794
0.00846151
0.000463505
0.00892115
0.0017939
0.0081757
0.0044839
0.00728102
0.00425684
0.00656069
0.00401996
0.00585431
0.00409894
0.00509111
0.00440898
0.00424844
0.00473036
0.0033255
0.00503188
0.00231056
0.00534252
0.00120226
0.00563712
0.0058071
0.00840003
3.04732e-10
0.00840003
2.35969e-09
0.00840003
7.29739e-09
0.00840003
2.19008e-08
0.00840003
5.17772e-08
0.00840003
1.3718e-07
0.00840004
3.04561e-07
0.00840008
8.23654e-07
0.00840011
1.68527e-06
0.00840065
5.40685e-06
0.00840197
1.03239e-05
0.00840833
3.7226e-05
0.00842298
0.0001048
0.00855189
0.000333142
0.00892536
0.00140456
0.00850119
0.00490166
0.00763235
0.00512423
0.00697212
0.00468061
0.00628187
0.00478892
0.00553304
0.00515843
0.00468382
0.00557975
0.00373484
0.00598103
0.00266683
0.00641036
0.00143254
0.00687134
0.00724025
0.00840003
3.29737e-10
0.00840003
2.55053e-09
0.00840003
7.9048e-09
0.00840003
2.36475e-08
0.00840002
5.5891e-08
0.00840001
1.46939e-07
0.00839998
3.27511e-07
0.00839993
8.6067e-07
0.00839979
1.80574e-06
0.00839965
5.39768e-06
0.00839953
1.03995e-05
0.00839957
3.64357e-05
0.00841103
9.20868e-05
0.00842498
0.000316909
0.00863135
0.00118515
0.00837286
0.00514547
0.00795632
0.00553744
0.00731075
0.00532836
0.00660355
0.00549713
0.00593283
0.00582899
0.00513957
0.00637242
0.00420377
0.00691664
0.00309902
0.00751452
0.00176794
0.00820215
0.00900857
0.00840003
3.44744e-10
0.00840003
3.24076e-09
0.00840003
9.78141e-09
0.00840002
2.97757e-08
0.00840001
6.99164e-08
0.00839996
1.87465e-07
0.00839988
4.10223e-07
0.00839962
1.09603e-06
0.00839916
2.26116e-06
0.00839814
6.29389e-06
0.00839648
1.20244e-05
0.0083927
3.95335e-05
0.00839821
8.59113e-05
0.00838037
0.000332337
0.00850138
0.00105597
0.00834788
0.00528243
0.00801176
0.00587237
0.00748887
0.00585318
0.00691368
0.00607351
0.00628536
0.00645781
0.00558608
0.00707133
0.0047414
0.0077607
0.00372777
0.00852719
0.00231933
0.00960983
0.011328
0.00840003
1.55178e-10
0.00840003
4.79297e-09
0.00840003
7.33923e-09
0.00840002
4.14722e-08
0.00840004
5.27101e-08
0.00839995
2.67006e-07
0.00840008
2.81677e-07
0.0083995
1.65902e-06
0.00840048
1.26894e-06
0.00839657
1.01017e-05
0.00840326
5.28333e-06
0.0083758
6.63814e-05
0.00842189
3.93688e-05
0.00829135
0.000460456
0.00847845
0.000862969
0.00841909
0.00532516
0.00805285
0.00623836
0.00764189
0.00626507
0.00720661
0.00650946
0.00667794
0.00698693
0.00609952
0.00764996
0.00544744
0.00841244
0.00453742
0.00943672
0.00319296
0.0109536
0.0145207
0.00840003
5.39905e-10
0.00840003
8.22628e-10
0.00840003
8.01711e-09
0.00840006
9.01717e-09
0.00840006
5.72303e-08
0.00840027
5.379e-08
0.00840016
3.84486e-07
0.00840156
2.72e-07
0.00840003
2.74741e-06
0.00840861
1.46757e-06
0.00839405
1.94863e-05
0.00844893
1.06165e-05
0.0083402
0.000146433
0.00862867
0.000170938
0.00831761
0.00116851
0.00849988
0.00512538
0.00816796
0.00657085
0.00779456
0.00663937
0.00746054
0.00684381
0.00709556
0.00735204
0.00671505
0.00803029
0.00626195
0.00886512
0.00583556
0.00986245
0.00580155
0.0109866
0.0116963
0.00862545
0.00840003
2.91906e-10
0.00840003
1.56099e-09
0.00840003
5.37785e-09
0.00840003
1.48629e-08
0.00840004
3.78586e-08
0.0084
9.2286e-08
0.00840016
2.31529e-07
0.00839986
5.51368e-07
0.00840123
1.39653e-06
0.00839875
3.93793e-06
0.00840936
9.00703e-06
0.00839017
3.02031e-05
0.00846225
7.42548e-05
0.00831951
0.000311421
0.00862484
0.00085909
0.00894701
0.00478532
0.00850823
0.00701034
0.00806055
0.00708735
0.00774161
0.00716275
0.00747303
0.00762015
0.00721523
0.00828828
0.00699354
0.00908682
0.00691415
0.00994151
0.00730831
0.0105916
0.0106937
0.00830903
0.00840003
2.72472e-10
0.00840003
2.1192e-09
0.00840003
6.47539e-09
0.00840002
1.96502e-08
0.00840001
4.64784e-08
0.00839998
1.25048e-07
0.00839993
2.81514e-07
0.00839972
7.48095e-07
0.00839946
1.65229e-06
0.00839875
4.57359e-06
0.00839793
9.80318e-06
0.00839584
3.18135e-05
0.00840325
6.66146e-05
0.00843686
0.000275889
0.00854164
0.000750822
0.00959911
0.00371107
0.00905283
0.00755688
0.00846547
0.0076748
0.00811518
0.00751326
0.00788832
0.00784685
0.00773191
0.00844381
0.00768248
0.00913597
0.00783784
0.00978568
0.00831295
0.0101154
0.0100566
0.00894906
0.00840003
2.78069e-10
0.00840003
2.16259e-09
0.00840003
6.61743e-09
0.00840003
2.00389e-08
0.00840003
4.74379e-08
0.00840002
1.27119e-07
0.00840002
2.86665e-07
0.0084
7.5256e-07
0.00839996
1.68423e-06
0.00840008
4.39106e-06
0.00839962
1.02239e-05
0.00840552
2.55487e-05
0.00840345
6.83758e-05
0.00848247
0.000195118
0.00866283
0.000570309
0.00998415
0.0023773
0.0096291
0.00790471
0.00918697
0.00811367
0.00862916
0.00807189
0.00834229
0.00813417
0.00824607
0.0085398
0.00831431
0.00906677
0.0085312
0.00956817
0.00892613
0.00971919
0.00955089
0.00942904
0.00840003
2.523e-10
0.00840003
1.95985e-09
0.00840003
5.99751e-09
0.00840003
1.81309e-08
0.00840004
4.29995e-08
0.00840005
1.14617e-07
0.00840007
2.59328e-07
0.00840015
6.67406e-07
0.00840028
1.54249e-06
0.00840091
3.71199e-06
0.00840186
9.21331e-06
0.00840561
2.15472e-05
0.00841839
5.50944e-05
0.00845629
0.000155961
0.00853456
0.000490041
0.00908756
0.00181832
0.00971234
0.0072628
0.00944175
0.00838048
0.00902687
0.00848492
0.00878438
0.00837701
0.00870821
0.0086156
0.00880818
0.00896597
0.00905477
0.00932014
0.00938417
0.00938895
0.00915215
0.0097795
0.00840003
1.95064e-10
0.00840003
1.50935e-09
0.00840003
4.68999e-09
0.00840004
1.40345e-08
0.00840005
3.32999e-08
0.00840007
8.7474e-08
0.00840013
1.96131e-07
0.00840028
5.11e-07
0.00840074
1.08514e-06
0.00840128
3.1306e-06
0.00840453
5.96747e-06
0.00840536
2.04335e-05
0.00842078
3.96467e-05
0.00843084
0.000144665
0.00854071
0.000378807
0.00879588
0.00155861
0.0096677
0.00637427
0.00956761
0.00847852
0.00937915
0.00867211
0.00916894
0.00858706
0.00910222
0.0086823
0.00917729
0.00889012
0.00941273
0.00908285
0.009712
0.00908882
0.00883516
0.0100256
0.00840003
1.72346e-10
0.00840003
1.33475e-09
0.00840003
4.10619e-09
0.00840003
1.23506e-08
0.00840004
2.92208e-08
0.00840005
7.7385e-08
0.00840007
1.73458e-07
0.00840012
4.51642e-07
0.00840022
9.8778e-07
0.00840062
2.69528e-06
0.00840108
5.49164e-06
0.00840363
1.76569e-05
0.00840869
3.45149e-05
0.00842541
0.000126795
0.00847513
0.000327922
0.00872211
0.00130657
0.0101918
0.0048878
0.00999971
0.00866779
0.00977801
0.008892
0.00955142
0.00881418
0.00951057
0.00872223
0.00956637
0.00883462
0.00972129
0.00892648
0.009949
0.00886011
0.00858221
0.0101989
0.00840003
1.41022e-10
0.00840003
1.14274e-09
0.00840003
3.54433e-09
0.00840003
1.05526e-08
0.00840004
2.5261e-08
0.00840005
6.60359e-08
0.00840007
1.50316e-07
0.00840013
3.83465e-07
0.00840026
8.60455e-07
0.00840071
2.21762e-06
0.00840132
4.8611e-06
0.00840539
1.34242e-05
0.00841157
2.82734e-05
0.00844928
8.81887e-05
0.00854825
0.000227995
0.00907124
0.000782332
0.0112844
0.00266388
0.010893
0.00904981
0.0105368
0.0092461
0.0101181
0.00923201
0.0099233
0.00891698
0.00993762
0.00881879
0.0100501
0.00881271
0.0101963
0.00871271
0.00842211
0.0103535
0.00840003
5.63717e-11
0.00840003
1.17812e-09
0.00840003
2.25281e-09
0.00840003
1.03223e-08
0.00840004
1.65849e-08
0.00840004
6.42179e-08
0.00840009
9.95234e-08
0.0084001
3.75157e-07
0.00840039
5.61101e-07
0.00840036
2.23115e-06
0.00840233
2.8794e-06
0.00840142
1.42016e-05
0.00841591
1.37079e-05
0.0084079
9.54221e-05
0.00853068
0.000104671
0.00860097
0.000709107
0.00951194
0.0017457
0.0110148
0.00752807
0.0108935
0.00936395
0.0106238
0.00949916
0.0103315
0.00920895
0.0102475
0.00890185
0.0103144
0.00874431
0.0104296
0.00859592
0.00831659
0.0105324
0.00840003
1.00864e-10
0.00840003
5.87528e-10
0.00840003
2.1554e-09
0.00840004
5.60338e-09
0.00840004
1.52228e-08
0.00840007
3.50168e-08
0.00840007
8.98059e-08
0.00840025
2.0051e-07
0.00840028
5.2396e-07
0.0084014
1.10372e-06
0.00840098
3.25083e-06
0.00840892
6.23564e-06
0.00840151
2.08283e-05
0.00845475
4.20114e-05
0.00841066
0.000147293
0.00873432
0.000384198
0.00891852
0.00155545
0.0108739
0.00555403
0.0110878
0.00914932
0.0110043
0.00958223
0.01075
0.00946228
0.0105872
0.00906462
0.0105557
0.00877469
0.010614
0.00853593
0.00823991
0.010688
0.00840003
1.22316e-10
0.00840003
3.54417e-10
0.00840003
2.07717e-09
0.00840003
3.61622e-09
0.00840003
1.43178e-08
0.00840005
2.2855e-08
0.00840005
8.41415e-08
0.00840012
1.30694e-07
0.00840015
4.81369e-07
0.00840051
7.24081e-07
0.00840084
2.81811e-06
0.00840315
3.90683e-06
0.00840587
1.78627e-05
0.00842474
2.21964e-05
0.00844767
0.000123211
0.00862163
0.00020441
0.00926239
0.000915986
0.0116251
0.00316365
0.011697
0.00907221
0.0116016
0.00967889
0.0113096
0.00975504
0.0110401
0.00933432
0.0109026
0.00891046
0.0108607
0.00857626
0.00823931
0.010859
0.00840003
4.21812e-11
0.00840003
4.70689e-10
0.00840003
1.06452e-09
0.00840003
4.23989e-09
0.00840004
7.68856e-09
0.00840003
2.64704e-08
0.00840007
4.59579e-08
0.00840005
1.53777e-07
0.00840026
2.63807e-07
0.00840009
8.84763e-07
0.00840139
1.50214e-06
0.00840002
5.18893e-06
0.00840926
8.5634e-06
0.00839858
3.24765e-05
0.00846886
5.22563e-05
0.00844211
0.00022904
0.0088671
0.000492467
0.0100271
0.00199436
0.0116842
0.00739875
0.0117448
0.00961763
0.0116242
0.00987612
0.0113376
0.0096216
0.0112156
0.00903076
0.0111435
0.00864605
0.0082881
0.0110926
0.00840003
6.35906e-11
0.00840003
2.2209e-10
0.00840003
1.16482e-09
0.00840003
2.22649e-09
0.00840003
8.13713e-09
0.00840004
1.42145e-08
0.00840004
4.83448e-08
0.00840011
8.29679e-08
0.0084001
2.78464e-07
0.0084005
4.75202e-07
0.00840038
1.61286e-06
0.00840287
2.68527e-06
0.00840149
9.83366e-06
0.00841904
1.49856e-05
0.00840464
6.58653e-05
0.00853351
0.000100157
0.00852088
0.000502529
0.00924031
0.00127088
0.0117606
0.00485908
0.0119659
0.00940583
0.0119761
0.00986398
0.0117973
0.00979931
0.0114843
0.00934244
0.0113737
0.00875457
0.00834636
0.0113129
0.00840003
3.2367e-11
0.00840003
2.17203e-10
0.00840003
6.83906e-10
0.00840003
2.03981e-09
0.00840003
4.87061e-09
0.00840004
1.28335e-08
0.00840005
2.9003e-08
0.00840006
7.44744e-08
0.00840017
1.66186e-07
0.00840022
4.25313e-07
0.00840088
9.48029e-07
0.0084011
2.4333e-06
0.00840542
5.48292e-06
0.00840593
1.42803e-05
0.00843863
3.30234e-05
0.00844631
9.15118e-05
0.00870659
0.000240868
0.0091901
0.000784007
0.0115392
0.00249961
0.012478
0.00845388
0.012426
0.00991221
0.0121878
0.0100346
0.0118052
0.00972355
0.011629
0.00892928
0.00846222
0.0115108
0.00840003
2.0673e-11
0.00840003
1.62656e-10
0.00840003
5.06718e-10
0.00840003
1.50376e-09
0.00840003
3.601e-09
0.00840004
9.36019e-09
0.00840004
2.12776e-08
0.00840006
5.37618e-08
0.00840011
1.20559e-07
0.00840023
3.03386e-07
0.0084005
6.75352e-07
0.00840118
1.72603e-06
0.00840294
3.70587e-06
0.00840669
1.03962e-05
0.00841943
2.01787e-05
0.00844084
6.93481e-05
0.00854338
0.000137571
0.00875465
0.000569778
0.00969654
0.00155139
0.0120905
0.00603619
0.0124596
0.00953704
0.0125358
0.00995368
0.012384
0.00987211
0.0119868
0.00932633
0.00868404
0.0117636
0.00840003
9.22331e-12
0.00840003
1.42879e-10
0.00840003
3.091e-10
0.00840003
1.26327e-09
0.00840003
2.25174e-09
0.00840003
7.80823e-09
0.00840004
1.34413e-08
0.00840005
4.49266e-08
0.00840009
7.67722e-08
0.00840014
2.55019e-07
0.00840038
4.33258e-07
0.00840063
1.45246e-06
0.00840191
2.41043e-06
0.00840364
8.54895e-06
0.0084107
1.29958e-05
0.00842532
5.40352e-05
0.0084824
7.98404e-05
0.00867056
0.000378396
0.00936545
0.000851966
0.0121948
0.00318086
0.0127945
0.00892832
0.0128277
0.0099172
0.0126336
0.0100627
0.0122869
0.00967099
0.00892037
0.0120498
0.00840003
1.1807e-11
0.00840003
7.17481e-11
0.00840003
2.61223e-10
0.00840003
6.81588e-10
0.00840003
1.84589e-09
0.00840003
4.26269e-09
0.00840004
1.0866e-08
0.00840006
2.44576e-08
0.00840007
6.14324e-08
0.00840019
1.37472e-07
0.00840027
3.44445e-07
0.00840095
7.69287e-07
0.00840136
1.9589e-06
0.00840561
4.27378e-06
0.00840662
1.17818e-05
0.00843612
2.43685e-05
0.00843827
7.66405e-05
0.00864754
0.000167844
0.00885965
0.000636371
0.0102414
0.0017889
0.0126662
0.00648465
0.0129396
0.00963991
0.0130267
0.00997213
0.0127545
0.00994145
0.00929314
0.0123819
0.00840003
9.46695e-12
0.00840003
5.11961e-11
0.00840003
1.88214e-10
0.00840003
4.86856e-10
0.00840003
1.32101e-09
0.00840003
3.04837e-09
0.00840004
7.78053e-09
0.00840004
1.75119e-08
0.00840006
4.40946e-08
0.0084001
9.8616e-08
0.00840019
2.47796e-07
0.0084004
5.5243e-07
0.00840094
1.39442e-06
0.0084021
3.09216e-06
0.00840575
7.9938e-06
0.00841244
1.75247e-05
0.00843906
4.92416e-05
0.00849612
0.000110031
0.00876189
0.00036727
0.00951442
0.00103099
0.0122476
0.00372499
0.0131125
0.00876649
0.0132506
0.00983244
0.0131138
0.0100762
0.00966103
0.0127457
0.00840003
8.55316e-12
0.00840003
2.87599e-11
0.00840003
1.48705e-10
0.00840003
2.90807e-10
0.00840003
1.02853e-09
0.00840003
1.84394e-09
0.00840003
6.03175e-09
0.00840004
1.06347e-08
0.00840005
3.41482e-08
0.00840009
5.99852e-08
0.00840014
1.92038e-07
0.00840035
3.36082e-07
0.00840065
1.08194e-06
0.00840185
1.87759e-06
0.00840356
6.18813e-06
0.00841052
1.04552e-05
0.00842225
3.70295e-05
0.00846857
6.28963e-05
0.00858777
0.000245429
0.00905733
0.000562639
0.0107239
0.0020483
0.0129341
0.00653629
0.0132014
0.00956078
0.0134115
0.00986311
0.00988134
0.0131896
0.00840003
3.6963e-12
0.00840003
2.52565e-11
0.00840003
7.93959e-11
0.00840003
2.36339e-10
0.00840003
5.63138e-10
0.00840003
1.47472e-09
0.00840003
3.32319e-09
0.00840004
8.45783e-09
0.00840005
1.88195e-08
0.00840006
4.75945e-08
0.00840015
1.05552e-07
0.00840021
2.66792e-07
0.0084007
5.91028e-07
0.00840105
1.49978e-06
0.00840389
3.31843e-06
0.00840562
8.57835e-06
0.00842355
1.89543e-05
0.00843318
5.2377e-05
0.0085593
0.000118553
0.00873572
0.00038264
0.00970148
0.0010774
0.0125252
0.00368569
0.0134404
0.00863486
0.0135381
0.00976208
0.00994803
0.013469
0.00840003
2.22496e-12
0.00840003
1.73069e-11
0.00840003
5.38748e-11
0.00840003
1.59932e-10
0.00840003
3.82013e-10
0.00840003
9.92662e-10
0.00840003
2.24932e-09
0.00840003
5.67677e-09
0.00840004
1.2708e-08
0.00840006
3.18666e-08
0.00840009
7.10757e-08
0.00840018
1.78178e-07
0.00840037
3.96359e-07
0.00840085
9.97334e-07
0.00840194
2.21277e-06
0.00840478
5.63272e-06
0.0084111
1.25122e-05
0.00843031
3.26479e-05
0.00847058
7.74025e-05
0.00863682
0.000213618
0.00909467
0.000619895
0.0106683
0.00210217
0.0131429
0.00613785
0.0135296
0.00936875
0.00974366
0.0137306
0.00840003
1.05355e-12
0.00840003
1.29377e-11
0.00840003
3.06602e-11
0.00840003
1.15307e-10
0.00840003
2.20719e-10
0.00840003
7.07916e-10
0.00840003
1.30095e-09
0.00840003
4.0192e-09
0.00840004
7.32604e-09
0.00840005
2.24083e-08
0.00840008
4.07642e-08
0.00840013
1.24372e-07
0.0084003
2.25621e-07
0.00840059
6.89956e-07
0.00840155
1.24358e-06
0.00840324
3.86411e-06
0.00840889
6.78383e-06
0.0084185
2.26526e-05
0.00845759
3.7791e-05
0.0085261
0.000143104
0.00885691
0.000286051
0.00986578
0.00108463
0.0126938
0.00328101
0.0137886
0.00826295
0.00968378
0.0138449
0.00840003
1.34849e-12
0.00840003
5.58293e-12
0.00840003
2.58172e-11
0.00840003
5.48195e-11
0.00840003
1.79425e-10
0.00840003
3.44181e-10
0.00840003
1.04803e-09
0.00840003
1.96867e-09
0.00840003
5.88948e-09
0.00840005
1.1013e-08
0.00840005
3.28054e-08
0.00840012
6.12376e-08
0.00840016
1.82464e-07
0.0084005
3.39771e-07
0.00840071
1.01729e-06
0.00840267
1.88696e-06
0.00840362
5.73268e-06
0.00841553
1.06182e-05
0.00841946
3.33217e-05
0.0084974
6.43393e-05
0.00856435
0.00021622
0.0091224
0.000527166
0.0105968
0.0017954
0.0133367
0.00550328
0.00908338
0.0139301
0.00840003
6.25397e-13
0.00840003
4.27665e-12
0.00840003
1.34431e-11
0.00840003
3.99439e-11
0.00840003
9.5134e-11
0.00840003
2.4805e-10
0.00840003
5.58221e-10
0.00840003
1.41199e-09
0.00840003
3.13663e-09
0.00840004
7.87251e-09
0.00840005
1.74329e-08
0.00840007
4.36593e-08
0.00840015
9.65631e-08
0.00840025
2.41909e-07
0.00840073
5.34879e-07
0.00840124
1.34553e-06
0.00840398
2.97698e-06
0.00840684
7.59393e-06
0.00842321
1.69062e-05
0.00844237
4.43264e-05
0.00855254
0.000105307
0.00878134
0.000295572
0.0097078
0.000869135
0.0124819
0.00271786
0.00752926
0.0140034
0.00840003
3.55901e-13
0.00840003
2.75766e-12
0.00840003
8.58515e-12
0.00840003
2.54912e-11
0.00840003
6.07699e-11
0.00840003
1.57536e-10
0.00840003
3.5579e-10
0.00840003
8.94549e-10
0.00840003
1.99489e-09
0.00840003
4.97989e-09
0.00840004
1.10706e-08
0.00840006
2.75947e-08
0.00840009
6.12807e-08
0.00840018
1.52743e-07
0.00840037
3.38743e-07
0.00840087
8.45729e-07
0.00840197
1.87054e-06
0.0084048
4.71885e-06
0.00841132
1.0343e-05
0.00842667
2.73226e-05
0.00848116
5.9493e-05
0.00858919
0.000174691
0.00904983
0.000445359
0.0100961
0.00159438
0.00436405
0.0132609
0.00840003
1.60109e-13
0.00840003
1.95256e-12
0.00840003
4.74202e-12
0.00840003
1.74222e-11
0.00840003
3.4112e-11
0.00840003
1.06669e-10
0.00840003
2.00396e-10
0.00840003
6.02915e-10
0.00840003
1.12353e-09
0.00840003
3.34443e-09
0.00840004
6.22764e-09
0.00840005
1.84661e-08
0.00840007
3.4409e-08
0.00840012
1.01842e-07
0.00840027
1.89709e-07
0.00840055
5.61886e-07
0.00840136
1.04317e-06
0.00840291
3.11582e-06
0.00840753
5.70267e-06
0.00841662
1.78454e-05
0.00844503
3.1099e-05
0.00850714
0.000110522
0.00874539
0.000206963
0.00952422
0.000803684
0.00219732
0.0116854
0.00840003
1.60128e-13
0.00840003
9.24754e-13
0.00840003
3.40547e-12
0.00840003
8.79715e-12
0.00840003
2.38791e-11
0.00840003
5.45838e-11
0.00840003
1.39005e-10
0.00840003
3.09198e-10
0.00840003
7.75022e-10
0.00840003
1.71301e-09
0.00840003
4.27448e-09
0.00840004
9.43406e-09
0.00840005
2.35021e-08
0.0084001
5.18425e-08
0.00840016
1.29089e-07
0.00840043
2.84475e-07
0.00840075
7.09417e-07
0.00840229
1.56134e-06
0.00840397
3.93593e-06
0.00841314
8.59122e-06
0.00842115
2.26606e-05
0.00848218
4.89141e-05
0.00854563
0.00014118
0.00899971
0.00034609
0.00118352
0.0100027
0.00840003
1.26716e-13
0.00840003
4.80383e-13
0.00840003
2.2674e-12
0.00840003
4.7837e-12
0.00840003
1.56243e-11
0.00840003
2.99685e-11
0.00840003
9.04432e-11
0.00840003
1.7008e-10
0.00840003
5.02908e-10
0.00840003
9.42155e-10
0.00840003
2.76882e-09
0.00840004
5.18663e-09
0.00840005
1.52046e-08
0.00840007
2.84949e-08
0.00840011
8.34431e-08
0.00840024
1.56278e-07
0.00840048
4.5818e-07
0.00840117
8.55139e-07
0.00840253
2.53089e-06
0.00840642
4.64275e-06
0.00841437
1.44526e-05
0.0084379
2.49648e-05
0.00848846
8.93805e-05
0.00867132
0.000160879
0.000631478
0.00921812
0.00840003
5.09783e-14
0.00840003
3.49783e-13
0.00840003
1.10577e-12
0.00840003
3.26458e-12
0.00840003
7.79585e-12
0.00840003
2.01512e-11
0.00840003
4.53817e-11
0.00840003
1.13649e-10
0.00840003
2.52404e-10
0.00840003
6.26852e-10
0.00840003
1.38749e-09
0.00840003
3.437e-09
0.00840004
7.60087e-09
0.00840005
1.88094e-08
0.00840009
4.15737e-08
0.00840014
1.0287e-07
0.00840037
2.27143e-07
0.00840065
5.62927e-07
0.00840193
1.24237e-06
0.00840339
3.10013e-06
0.00841094
6.84764e-06
0.00841797
1.75007e-05
0.00846808
3.9137e-05
0.0085223
0.000104794
0.00026391
0.00888841
0.00840003
2.69167e-14
0.00840003
2.08315e-13
0.00840003
6.48831e-13
0.00840003
1.92458e-12
0.00840003
4.57867e-12
0.00840003
1.1818e-11
0.00840003
2.65935e-11
0.00840003
6.64388e-11
0.00840003
1.47491e-10
0.00840003
3.65388e-10
0.00840003
8.08303e-10
0.00840003
1.99749e-09
0.00840004
4.41444e-09
0.00840004
1.08975e-08
0.00840006
2.40738e-08
0.0084001
5.93872e-08
0.0084002
1.31119e-07
0.00840043
3.23439e-07
0.00840095
7.13132e-07
0.00840224
1.76498e-06
0.00840515
3.8768e-06
0.0084126
9.79564e-06
0.00843033
2.1116e-05
0.00847551
5.81107e-05
0.000124796
0.0086132
0.00840003
1.11921e-14
0.00840003
1.35695e-13
0.00840003
3.31425e-13
0.00840003
1.20798e-12
0.00840003
2.37542e-12
0.00840003
7.34925e-12
0.00840003
1.38291e-11
0.00840003
4.11311e-11
0.00840003
7.65897e-11
0.00840003
2.25517e-10
0.00840003
4.18718e-10
0.00840003
1.22984e-09
0.00840003
2.28091e-09
0.00840004
6.69692e-09
0.00840005
1.24082e-08
0.00840007
3.64577e-08
0.00840013
6.74215e-08
0.00840025
1.98605e-07
0.00840059
3.65819e-07
0.00840124
1.08487e-06
0.0084031
1.98365e-06
0.00840674
5.98184e-06
0.0084168
1.08446e-05
0.00844016
3.38192e-05
6.38818e-05
0.00849991
0.00840003
9.91481e-15
0.00840003
5.85101e-14
0.00840003
2.12397e-13
0.00840003
5.54888e-13
0.00840003
1.48198e-12
0.00840003
3.41064e-12
0.00840003
8.5268e-12
0.00840003
1.90505e-11
0.00840003
4.67856e-11
0.00840003
1.03768e-10
0.00840003
2.5335e-10
0.00840003
5.6101e-10
0.00840003
1.36586e-09
0.00840004
3.02422e-09
0.00840004
7.34764e-09
0.00840006
1.62732e-08
0.00840009
3.94598e-08
0.0084002
8.74195e-08
0.00840034
2.11586e-07
0.00840095
4.69044e-07
0.00840174
1.13519e-06
0.00840515
2.51763e-06
0.00840959
6.14979e-06
0.00842931
1.37246e-05
3.42425e-05
0.00845755
0.00840003
5.6568e-15
0.00840003
3.11753e-14
0.00840003
1.13493e-13
0.00840003
2.93456e-13
0.00840003
7.85389e-13
0.00840003
1.79519e-12
0.00840003
4.47685e-12
0.00840003
9.92957e-12
0.00840003
2.42787e-11
0.00840003
5.33754e-11
0.00840003
1.29618e-10
0.00840003
2.83899e-10
0.00840003
6.86959e-10
0.00840003
1.50027e-09
0.00840004
3.62066e-09
0.00840004
7.88051e-09
0.00840006
1.89806e-08
0.00840011
4.11359e-08
0.00840021
9.89656e-08
0.00840045
2.13453e-07
0.00840101
5.13516e-07
0.00840236
1.10304e-06
0.00840557
2.65747e-06
0.00841323
5.75111e-06
1.37671e-05
0.00843339
0.00840003
4.57959e-15
0.00840003
1.07654e-14
0.00840003
7.2214e-14
0.00840003
1.13872e-13
0.00840003
4.87279e-13
0.00840003
7.0097e-13
0.00840003
2.76207e-12
0.00840003
3.80135e-12
0.00840003
1.49729e-11
0.00840003
1.98173e-11
0.00840003
8.00205e-11
0.00840003
1.01395e-10
0.00840003
4.24598e-10
0.00840003
5.10697e-10
0.00840003
2.23852e-09
0.00840004
2.52349e-09
0.00840004
1.17185e-08
0.00840007
1.21421e-08
0.0084001
6.09217e-08
0.00840025
5.61804e-08
0.0084004
3.1541e-07
0.00840121
2.43877e-07
0.00840194
1.67276e-06
0.00840654
8.41054e-07
1.00968e-05
0.008409
0.00840003
1.27678e-15
0.00840003
7.55399e-15
0.00840003
2.65674e-14
0.00840003
7.20659e-14
0.00840003
1.83676e-13
0.00840003
4.34727e-13
0.00840003
1.03427e-12
0.00840003
2.34176e-12
0.00840003
5.50663e-12
0.00840003
1.21714e-11
0.00840003
2.87734e-11
0.00840003
6.2318e-11
0.00840003
1.49097e-10
0.00840003
3.16167e-10
0.00840003
7.68493e-10
0.00840003
1.59324e-09
0.00840004
3.94713e-09
0.00840004
7.98813e-09
0.00840007
2.02588e-08
0.00840006
3.97713e-08
0.00840024
1.04266e-07
0.00840013
1.93502e-07
0.00840113
5.46503e-07
0.00840053
8.44382e-07
2.98663e-06
0.00840606
0.00840003
4.7713e-16
0.00840003
5.23076e-15
0.00840003
1.45631e-14
0.00840003
4.56888e-14
0.00840003
9.97171e-14
0.00840003
2.72468e-13
0.00840003
5.60136e-13
0.00840003
1.49682e-12
0.00840003
2.98964e-12
0.00840003
8.06398e-12
0.00840003
1.57548e-11
0.00840003
4.34227e-11
0.00840003
8.31351e-11
0.00840003
2.35397e-10
0.00840003
4.42588e-10
0.00840003
1.28807e-09
0.00840003
2.38816e-09
0.00840003
7.10862e-09
0.00840003
1.30557e-08
0.00840001
3.93107e-08
0.00840001
7.01994e-08
0.00839987
2.11313e-07
0.00839991
3.55358e-07
0.00839901
1.07421e-06
1.23488e-06
0.00839999
0.00840003
-7.16685e-16
0.00840003
5.34539e-15
0.00840003
1.14232e-15
0.00840003
4.10188e-14
0.00840003
1.13335e-14
0.00840003
2.42597e-13
0.00840003
5.56071e-14
0.00840003
1.35503e-12
0.00840003
2.06684e-13
0.00840003
7.49155e-12
0.00840003
5.46255e-13
0.00840003
4.15673e-11
0.00840003
1.5205e-13
0.00840003
2.32738e-10
0.00840003
-1.12261e-11
0.00840003
1.32053e-09
0.00840003
-1.08391e-10
0.00840003
7.63207e-09
0.00840004
-8.14173e-10
0.0084
4.51072e-08
0.00840005
-8.15725e-09
0.0083998
2.86908e-07
0.00840014
-1.46376e-07
0.0083983
2.08029e-06
-2.58041e-06
0.00840033
0.00840003
1.1688e-15
0.00840003
-2.62027e-15
0.00840003
8.31683e-15
0.00840003
-1.46839e-14
0.00840003
5.18261e-14
0.00840003
-8.49103e-14
0.00840003
2.96038e-13
0.00840003
-5.15621e-13
0.00840003
1.64742e-12
0.00840003
-3.16371e-12
0.00840003
9.07889e-12
0.00840003
-1.94279e-11
0.00840003
4.96541e-11
0.00840003
-1.19419e-10
0.00840003
2.69141e-10
0.00840003
-7.38412e-10
0.00840003
1.44506e-09
0.00840004
-4.62825e-09
0.00840003
7.74698e-09
0.00840009
-2.94938e-08
0.0084
4.5043e-08
0.00840044
-2.04895e-07
0.00839968
3.71899e-07
0.00840328
-1.66998e-06
3.82668e-06
0.00839532
0.00840003
1.90494e-16
0.00840003
-1.11247e-15
0.00840003
6.59195e-16
0.00840003
-8.99422e-15
0.00840003
3.42434e-15
0.00840003
-5.63149e-14
0.00840003
1.39944e-14
0.00840003
-3.4037e-13
0.00840003
4.71131e-14
0.00840003
-2.0628e-12
0.00840003
3.50368e-14
0.00840003
-1.25824e-11
0.00840003
-1.4784e-12
0.00840003
-7.74359e-11
0.00840003
-2.0923e-11
0.00840003
-4.81906e-10
0.00840003
-2.13206e-10
0.00840002
-3.02826e-09
0.00840003
-2.00619e-09
0.0084
-1.89533e-08
0.00840003
-1.47411e-08
0.00839979
-1.12279e-07
0.00840008
-6.68196e-08
0.00839823
-6.06202e-07
5.79974e-08
0.00840056
0.00840003
0.00840003
0.00840003
0.00840003
0.00840003
0.00840003
0.00840003
0.00840003
0.00840003
0.00840003
0.00840003
0.00840003
0.00840003
0.00840003
0.00840003
0.00840003
0.00840003
0.00840002
0.00840001
0.00839997
0.00839993
0.00839968
0.00839945
0.00839813
0.0083969
0.00441352
0.0042096
0.00239889
0.0020101
0.00128404
0.00110798
-0.000304722
0.00158115
-0.00116314
0.000852913
-0.00173623
0.000561746
-0.00212236
0.000374568
-0.00232234
0.000188393
-0.00237189
3.80047e-05
-0.00243022
4.84656e-05
-0.00253382
9.48207e-05
-0.00265171
0.000110186
-0.00274777
8.88078e-05
-0.00281581
6.122e-05
-0.00287268
5.21872e-05
-0.00293251
5.54531e-05
-0.00299155
5.60268e-05
-0.00304784
5.38499e-05
-0.00309776
4.84421e-05
-0.00313876
3.95069e-05
-0.00316605
2.76481e-05
-0.00318421
1.8608e-05
-0.00321215
2.94441e-05
-0.00324647
3.59873e-05
-0.00327777
3.31e-05
-0.0033004
2.45064e-05
-0.00331357
1.4566e-05
-0.00330606
-6.8091e-06
-0.0032636
-4.2684e-05
-0.00317626
-8.82823e-05
-0.00304663
-0.000131025
-0.00287997
-0.000168521
-0.00268108
-0.000200934
-0.0024538
-0.000229538
-0.00220529
-0.000250648
-0.00194528
-0.000262186
-0.00167817
-0.00026923
-0.00140957
-0.00027106
-0.00113257
-0.000279989
-0.000854282
-0.000281329
-0.000579614
-0.000278003
-0.000304304
-0.000279082
-1.44506e-05
-0.000294032
0.000254265
-0.000273257
0.000503681
-0.000254527
0.0007429
-0.00024491
0.000972261
-0.000235536
0.00119093
-0.000225543
0.00139965
-0.000216105
0.00159672
-0.000205246
0.00178568
-0.000197714
0.00196928
-0.000193666
0.00214593
-0.000187572
0.0023122
-0.000178404
0.00246964