/*--------------------------------*- C++ -*----------------------------------*\
| =========                 |                                                 |
| \\      /  F ield         | OpenFOAM: The Open Source CFD Toolbox           |
|  \\    /   O peration     | Version:  2112                                  |
|   \\  /    A nd           | Website:  www.openfoam.com                      |
|    \\/     M anipulation  |                                                 |
\*---------------------------------------------------------------------------*/
FoamFile
{
    version     2.0;
    format      ascii;
    arch        "LSB;label=32;scalar=64";
    class       volScalarField;
    location    "5.5";
    object      T;
}
// * * * * * * * * * * * * * * * * * * * * * * * * * * * * * * * * * * * * * //

dimensions      [0 0 0 1 0 0 0];

internalField   nonuniform List<scalar> 
5250
(
1.00001
1.00002
1.00006
1.00011
1.00035
1.00066
1.00193
1.00406
1.0104
1.02767
1.06206
1.19204
1.4417
2.20476
2.66142
2.74932
2.74367
2.74079
2.75479
2.7663
2.77804
2.78506
2.79127
2.79707
2.79734
1.00001
1.00002
1.00006
1.00011
1.00035
1.00064
1.00189
1.00399
1.01023
1.02717
1.06101
1.18839
1.43318
2.18835
2.65654
2.74913
2.74337
2.73986
2.75377
2.76504
2.77667
2.78344
2.7894
2.79432
2.79424
1.00001
1.00002
1.00006
1.00011
1.00034
1.00062
1.00185
1.00384
1.00995
1.02599
1.05882
1.18034
1.41458
2.15087
2.64321
2.7472
2.74149
2.73688
2.75098
2.7622
2.77389
2.78087
2.78721
2.79219
2.79158
1.00001
1.00002
1.00006
1.0001
1.00032
1.00059
1.00179
1.00362
1.00955
1.02423
1.0556
1.16835
1.38676
2.09045
2.62121
2.74297
2.73747
2.73072
2.74547
2.75633
2.76863
2.77541
2.78095
2.78746
2.78777
1.00001
1.00001
1.00005
1.00009
1.0003
1.00055
1.0017
1.00335
1.00904
1.02202
1.05156
1.15329
1.35173
2.00597
2.58976
2.73605
2.73112
2.72146
2.73686
2.74768
2.76041
2.76891
2.77555
2.77931
2.77905
1.00001
1.00001
1.00005
1.00009
1.00028
1.00051
1.0016
1.00304
1.00845
1.01959
1.04704
1.13651
1.31221
1.90959
2.5421
2.72187
2.7174
2.70818
2.72555
2.73534
2.74769
2.75452
2.76143
2.7704
2.77051
1.00001
1.00001
1.00004
1.00008
1.00026
1.00047
1.00148
1.00276
1.00793
1.0174
1.0434
1.12058
1.28005
1.75191
2.54547
2.70327
2.69622
2.68952
2.7108
2.72164
2.73578
2.74371
2.74907
2.75198
2.75155
1.00001
1.00001
1.00004
1.00007
1.00024
1.00043
1.00136
1.00252
1.00745
1.01562
1.04041
1.10782
1.25283
1.69557
2.54104
2.69259
2.67492
2.67345
2.68551
2.70168
2.71491
2.72149
2.72726
2.73334
2.72937
1
1.00001
1.00004
1.00007
1.00022
1.00039
1.00124
1.00228
1.0069
1.01396
1.0373
1.09561
1.2275
1.63805
2.50204
2.67077
2.66842
2.66564
2.66746
2.67896
2.69645
2.70087
2.69925
2.69557
2.67801
1
1.00001
1.00003
1.00006
1.00019
1.00034
1.00106
1.00202
1.00585
1.01251
1.03225
1.08759
1.19832
1.58771
2.43493
2.63844
2.66095
2.65265
2.64897
2.65491
2.66257
2.67172
2.66714
2.6503
2.59979
1
1.00001
1.00002
1.00006
1.00012
1.00032
1.00071
1.00174
1.00461
1.01029
1.03011
1.06277
1.20632
1.46807
2.23635
2.60808
2.66309
2.6502
2.63544
2.6351
2.63579
2.63307
2.61756
2.57202
2.3909
1
1.00001
1.00002
1.00004
1.00014
1.00026
1.00079
1.00155
1.00426
1.00971
1.02368
1.06668
1.14405
1.45558
2.15604
2.52346
2.64907
2.6407
2.62305
2.61318
2.60704
2.59703
2.57178
2.51595
2.33109
1
1.00001
1.00002
1.00004
1.00013
1.00023
1.00073
1.00132
1.0041
1.00786
1.02223
1.05147
1.1255
1.35045
1.99015
2.45278
2.62808
2.62246
2.61245
2.59707
2.58043
2.55491
2.52036
2.4706
2.32603
1
1.00001
1.00002
1.00003
1.00011
1.00019
1.00061
1.0011
1.00343
1.00648
1.01881
1.04055
1.10593
1.26711
1.80425
2.35458
2.58445
2.58031
2.58513
2.57897
2.56386
2.53335
2.48156
2.43791
2.32885
1
1
1.00001
1.00003
1.00009
1.00015
1.00049
1.00089
1.00275
1.00525
1.01463
1.03392
1.08067
1.22937
1.58286
2.30325
2.55591
2.55591
2.55244
2.54748
2.53691
2.51353
2.45464
2.40954
2.32695
1
1
1.00001
1.00002
1.00007
1.00012
1.00038
1.0007
1.00206
1.00424
1.01096
1.02816
1.0637
1.19318
1.44119
2.14199
2.4975
2.54766
2.53128
2.52353
2.50762
2.49324
2.44882
2.39389
2.32242
1
1
1.00001
1.00002
1.00005
1.0001
1.00031
1.00056
1.00174
1.00332
1.00916
1.02132
1.05085
1.14796
1.33804
1.94689
2.39112
2.52752
2.52088
2.50606
2.47859
2.45311
2.42916
2.38461
2.32208
1
1
1.00001
1.00001
1.00004
1.00008
1.00024
1.00043
1.00136
1.00251
1.00738
1.01538
1.03947
1.10425
1.24097
1.64584
2.26711
2.46767
2.49008
2.48692
2.47016
2.43641
2.40102
2.36227
2.3166
1
1
1.00001
1.00001
1.00003
1.00006
1.00018
1.00033
1.00102
1.0019
1.00551
1.01164
1.02983
1.07987
1.17805
1.52551
2.22218
2.41162
2.446
2.44207
2.43816
2.4223
2.39002
2.34662
2.30195
1
1
1
1.00001
1.00002
1.00005
1.0001
1.0003
1.00058
1.0016
1.00355
1.00868
1.02339
1.05162
1.15623
1.35185
1.97429
2.35654
2.43234
2.42706
2.40976
2.39136
2.3736
2.33855
2.29558
1
1
1
1.00001
1.00001
1.00004
1.00008
1.00024
1.00043
1.00134
1.0025
1.0072
1.01539
1.03886
1.10431
1.23905
1.63413
2.19946
2.40397
2.40241
2.39117
2.36493
2.33967
2.31641
2.2858
1
1
1
1
1.00001
1.00002
1.00007
1.00013
1.00041
1.00077
1.0023
1.00453
1.01254
1.02826
1.06999
1.18103
1.50138
2.01718
2.33827
2.38389
2.3771
2.35858
2.32545
2.2955
2.2634
1
1
1
1
1.00001
1.00002
1.00004
1.00012
1.00023
1.0007
1.00133
1.00379
1.008
1.02049
1.05301
1.12041
1.34178
1.90688
2.19769
2.32599
2.34104
2.33696
2.32001
2.28934
2.25453
1
1
1
1
1.00001
1.00001
1.00004
1.00007
1.00021
1.00038
1.00116
1.00221
1.00631
1.01331
1.03392
1.08678
1.20384
1.53079
2.11675
2.28053
2.302
2.29971
2.29363
2.27805
2.2493
1
1
1
1
1
1.00001
1.00003
1.00005
1.00015
1.00027
1.00083
1.00151
1.00442
1.00907
1.02325
1.06051
1.13246
1.39756
1.95281
2.21245
2.28403
2.28101
2.26685
2.25133
2.22992
1
1
1
1
1
1.00001
1.00002
1.00003
1.0001
1.00018
1.00057
1.00104
1.00317
1.00604
1.01713
1.03706
1.09446
1.23464
1.67774
2.06122
2.23912
2.26029
2.25403
2.23967
2.21643
1
1
1
1
1
1.00001
1.00001
1.00003
1.00005
1.00016
1.00029
1.00087
1.00165
1.00459
1.00992
1.02452
1.06548
1.14069
1.4203
1.95734
2.1699
2.21888
2.22441
2.21563
2.20274
1
1
1
1
1
1
1.00001
1.00002
1.00004
1.00011
1.0002
1.00062
1.00111
1.00341
1.00641
1.01819
1.03949
1.09814
1.25098
1.68627
2.06633
2.1972
2.20058
2.19265
2.17943
1
1
1
1
1
1
1
1.00001
1.00002
1.00007
1.00013
1.0004
1.00073
1.00221
1.00416
1.01193
1.0248
1.06493
1.15261
1.43054
1.85739
2.13302
2.18177
2.18004
2.16794
1
1
1
1
1
1
1
1.00001
1.00002
1.00004
1.00011
1.0002
1.0006
1.00111
1.00327
1.0064
1.01741
1.03924
1.09534
1.24474
1.65755
1.99867
2.14328
2.15405
2.15031
1
1
1
1
1
1
1
1
1.00001
1.00002
1.00007
1.00013
1.00039
1.00071
1.00214
1.00399
1.01147
1.02362
1.06119
1.1447
1.39037
1.82327
2.07591
2.13171
2.13158
1
1
1
1
1
1
1
1
1.00001
1.00001
1.00004
1.00008
1.00024
1.00043
1.00131
1.00243
1.007
1.01428
1.03646
1.09149
1.20918
1.53878
1.92639
2.09178
2.10653
1
1
1
1
1
1
1
1
1
1.00001
1.00002
1.00006
1.00012
1.00034
1.00064
1.00187
1.00365
1.01005
1.02149
1.055
1.12864
1.35711
1.731
2.0065
2.08196
1
1
1
1
1
1
1
1
1
1.00001
1.00002
1.00003
1.00009
1.00016
1.00049
1.00091
1.00265
1.00518
1.01406
1.03044
1.0768
1.18073
1.51125
1.84331
2.03286
1
1
1
1
1
1
1
1
1
1
1.00001
1.00002
1.00006
1.0001
1.00031
1.00055
1.00167
1.00309
1.00886
1.01834
1.04526
1.11377
1.26704
1.65949
1.93718
1
1
1
1
1
1
1
1
1
1
1.00001
1.00001
1.00003
1.00006
1.00018
1.00033
1.00098
1.0018
1.00529
1.01031
1.02739
1.06317
1.14997
1.37814
1.80784
1
1
1
1
1
1
1
1
1
1
1
1.00001
1.00001
1.00004
1.00008
1.00024
1.00045
1.00131
1.00249
1.00692
1.01454
1.03618
1.092
1.20562
1.53762
1
1
1
1
1
1
1
1
1
1
1
1
1.00001
1.00003
1.00005
1.00014
1.00026
1.00079
1.00143
1.00421
1.00819
1.02152
1.05143
1.11452
1.31561
1
1
1
1
1
1
1
1
1
1
1
1
1.00001
1.00001
1.00003
1.00006
1.00019
1.00035
1.00102
1.00193
1.00541
1.01106
1.02805
1.06595
1.15835
1
1
1
1
1
1
1
1
1
1
1
1
1
1.00001
1.00002
1.00004
1.00011
1.0002
1.00061
1.00111
1.00328
1.00618
1.01696
1.03724
1.08672
1
1
1
1
1
1
1
1
1
1
1
1
1
1
1.00001
1.00002
1.00006
1.00012
1.00035
1.00065
1.0019
1.00358
1.01013
1.02027
1.05442
1
1
1
1
1
1
1
1
1
1
1
1
1
1
1.00001
1.00002
1.00003
1.00009
1.00016
1.00048
1.0009
1.0026
1.00503
1.01365
1.02903
1
1
1
1
1
1
1
1
1
1
1
1
1
1
1
1.00001
1.00002
1.00006
1.00011
1.00034
1.00061
1.00186
1.00342
1.01001
1.0198
1
1
1
1
1
1
1
1
1
1
1
1
1
1
1
1.00001
1.00002
1.00005
1.00009
1.00027
1.00049
1.00151
1.00283
1.00818
1.01723
1
1
1
1
1
1
1
1
1
1
1
1
1
1
1
1.00001
1.00002
1.00003
1.0001
1.00019
1.00059
1.00108
1.00332
1.00645
1.01804
1
1
1
1
1
1
1
1
1
1
1
1
1
1
1
1.00001
1.00002
1.00003
1.0001
1.00018
1.00057
1.00103
1.00326
1.00617
1.01796
1
1
1
1
1
1
1
1
1
1
1
1
1
1
1
1
1.00002
1.00003
1.00009
1.00017
1.00052
1.00099
1.0029
1.00615
1.01623
1
1
1
1
1
1
1
1
1
1
1
1
1
1
1
1.00001
1.00001
1.00004
1.00007
1.00021
1.0004
1.00114
1.00245
1.00625
1.01614
1
1
1
1
1
1
1
1
1
1
1
1
1
1
1
1
1.00002
1.00003
1.00009
1.00016
1.00051
1.00098
1.00283
1.0061
1.01583
1
1
1
1
1
1
1
1
1
1
1
1
1
1
1
1.00001
1.00002
1.00003
1.00009
1.00017
1.00055
1.00099
1.00314
1.00597
1.01724
2.41392
2.46057
2.96675
2.95838
2.97744
2.97467
2.91713
2.89136
2.87756
2.86231
2.84648
2.82301
2.80565
2.78629
2.77282
2.75676
2.74089
2.7252
2.71037
2.69802
2.68449
2.67394
2.6607
2.6545
2.64973
2.64786
2.65308
2.6658
2.69047
2.71927
2.75314
2.78404
2.81479
2.84046
2.86463
2.88259
2.8986
2.90988
2.91892
2.92466
2.92841
2.92988
2.92932
2.93003
2.92661
2.92447
2.91869
2.91536
2.90805
2.90381
2.89501
2.89059
2.88097
2.87597
2.86671
2.8606
2.85287
2.846
2.83954
2.83296
2.82713
2.82172
2.81661
2.81221
2.80828
2.80476
2.80177
2.79913
2.79675
2.79456
2.79243
2.79032
2.78779
2.78546
2.78199
2.77908
2.77427
2.77062
2.76428
2.75972
2.75223
2.74599
2.73809
2.7307
2.72187
2.71372
2.70449
2.69558
2.68597
2.67686
2.66702
2.65754
2.64779
2.63867
2.62946
2.62102
2.61305
2.60656
2.60142
2.59785
2.28331
2.31979
2.56472
2.79895
2.89649
2.96719
3.02928
3.10425
3.09351
2.98798
2.97464
2.96359
2.94689
2.93917
2.92412
2.91668
2.90391
2.8951
2.88147
2.87522
2.86468
2.85338
2.84493
2.83797
2.83552
2.83523
2.84116
2.85322
2.87412
2.89571
2.91801
2.93386
2.94451
2.94927
2.95046
2.94835
2.94516
2.94092
2.93044
2.92331
2.9058
2.89624
2.88063
2.87085
2.85656
2.84581
2.83226
2.82053
2.80771
2.796
2.78342
2.77145
2.75945
2.7472
2.73581
2.72461
2.71379
2.70348
2.69354
2.68419
2.67538
2.66721
2.65963
2.65272
2.64641
2.64073
2.63551
2.6309
2.62638
2.62255
2.61818
2.61478
2.61012
2.60665
2.60149
2.59731
2.5916
2.58633
2.57982
2.57364
2.56617
2.5591
2.55083
2.5431
2.53423
2.52601
2.5167
2.50826
2.4986
2.48998
2.48014
2.47162
2.46179
2.45353
2.44416
2.43685
2.42865
2.42308
2.41774
2.41539
2.27561
2.23667
2.30194
2.43712
2.56825
2.68402
2.78439
2.89731
3.00475
3.01703
3.04873
3.08713
3.11731
3.10772
3.08477
3.08339
3.06155
3.05093
3.04833
3.04363
3.03586
3.03069
3.0257
3.02051
3.01935
3.02101
3.02335
3.03173
3.03702
3.03989
3.03966
3.02822
3.01454
2.99453
2.97063
2.94854
2.92598
2.90244
2.88075
2.85934
2.83935
2.82173
2.80398
2.78867
2.77298
2.75902
2.74484
2.73144
2.71852
2.70627
2.69414
2.6825
2.67084
2.65946
2.64818
2.63765
2.62717
2.6174
2.60769
2.59878
2.59
2.5821
2.57436
2.56761
2.56093
2.55534
2.5496
2.54507
2.53994
2.53618
2.53121
2.52782
2.52266
2.51912
2.5136
2.5095
2.50335
2.49834
2.49148
2.48541
2.47779
2.47081
2.46248
2.45464
2.44595
2.43754
2.42846
2.41955
2.41038
2.4011
2.39174
2.38234
2.37318
2.36401
2.35531
2.34669
2.33921
2.33225
2.32737
2.32332
2.26218
2.21579
2.21196
2.25632
2.32707
2.39259
2.48018
2.56277
2.6774
2.79831
2.8846
2.95101
3.01277
3.04874
3.05944
3.0732
3.09366
3.10524
3.11059
3.11548
3.12684
3.13358
3.13413
3.13261
3.13255
3.13456
3.13476
3.1337
3.12153
3.08789
3.05959
3.02728
2.9866
2.94408
2.90317
2.86552
2.82993
2.79833
2.76915
2.74241
2.71859
2.69641
2.67683
2.65884
2.64253
2.62749
2.61315
2.60012
2.58747
2.57638
2.56567
2.5559
2.54591
2.53685
2.52762
2.51981
2.51159
2.5046
2.49711
2.4909
2.48413
2.47873
2.4727
2.46811
2.46284
2.45903
2.45452
2.45137
2.44747
2.4447
2.44113
2.43829
2.43484
2.43159
2.42801
2.42426
2.42024
2.4158
2.41128
2.40594
2.40074
2.39463
2.38871
2.38192
2.37541
2.36809
2.36111
2.35343
2.34607
2.33812
2.33068
2.32269
2.31517
2.3073
2.30007
2.29286
2.28639
2.28069
2.27632
2.27368
2.25184
2.20401
2.17489
2.18009
2.20765
2.23787
2.28384
2.33538
2.39987
2.47467
2.55198
2.63325
2.72089
2.81083
2.8993
2.95395
2.98992
3.01579
3.0344
3.04758
3.05973
3.07728
3.09395
3.10944
3.11775
3.12189
3.11779
3.10053
3.07585
3.02786
2.98354
2.92509
2.87172
2.82027
2.77671
2.73714
2.70415
2.67429
2.64863
2.62551
2.60484
2.58633
2.56941
2.55451
2.54048
2.52795
2.51553
2.50447
2.49295
2.48316
2.47307
2.4647
2.45516
2.44731
2.43834
2.43142
2.42362
2.41771
2.41081
2.40576
2.39976
2.39555
2.39041
2.38699
2.38255
2.37984
2.37591
2.37375
2.37006
2.36816
2.36453
2.36258
2.35875
2.35641
2.35215
2.34921
2.34442
2.34079
2.33535
2.33098
2.32491
2.31977
2.31313
2.30738
2.30021
2.29397
2.28639
2.27986
2.27182
2.26511
2.25681
2.25003
2.24162
2.23506
2.22698
2.22105
2.21388
2.20933
2.20445
2.20288
2.25093
2.19599
2.16024
2.1433
2.14621
2.15809
2.17668
2.20416
2.23734
2.27844
2.3241
2.37552
2.43198
2.49771
2.56349
2.64245
2.71254
2.78645
2.8432
2.89906
2.93824
2.96616
2.98974
3.00933
3.02404
3.02434
3.01924
2.99356
2.9489
2.88672
2.82201
2.7557
2.69743
2.65012
2.61167
2.5816
2.5556
2.5349
2.51607
2.50107
2.48712
2.47566
2.46466
2.45545
2.44607
2.43817
2.42947
2.42225
2.41383
2.40706
2.39906
2.39297
2.3855
2.37944
2.37172
2.3659
2.35902
2.3541
2.34786
2.34364
2.338
2.33448
2.3295
2.3266
2.32228
2.31991
2.31603
2.31394
2.31033
2.30829
2.30482
2.30258
2.2991
2.29656
2.29285
2.28995
2.28592
2.2825
2.27802
2.27402
2.26889
2.26426
2.25855
2.25329
2.24713
2.24133
2.23487
2.22861
2.22183
2.21515
2.20806
2.20121
2.19399
2.18723
2.1801
2.17376
2.16724
2.16205
2.15742
2.15507
2.25307
2.19587
2.15387
2.12549
2.11394
2.10987
2.1149
2.12572
2.1426
2.16407
2.18899
2.21845
2.25107
2.28853
2.33155
2.3775
2.43091
2.48058
2.54103
2.59216
2.65492
2.7063
2.75662
2.79778
2.82906
2.85146
2.84619
2.8233
2.76795
2.69307
2.62491
2.55647
2.50475
2.46256
2.43756
2.41968
2.40803
2.3983
2.39033
2.38345
2.37676
2.37145
2.36566
2.3611
2.35593
2.35159
2.34634
2.34191
2.33661
2.3322
2.32699
2.32296
2.31806
2.314
2.30826
2.30385
2.29819
2.29444
2.28932
2.28607
2.2814
2.27876
2.27451
2.2724
2.26843
2.26653
2.26269
2.26079
2.25707
2.25505
2.25132
2.24906
2.24514
2.24247
2.23833
2.23521
2.23076
2.22727
2.22244
2.21859
2.21334
2.20899
2.20322
2.19834
2.192
2.18666
2.17982
2.17411
2.16682
2.16094
2.15348
2.14758
2.14018
2.1344
2.12726
2.12185
2.11541
2.11106
2.1064
2.10487
2.25807
2.20026
2.15457
2.11887
2.09711
2.08301
2.07769
2.07694
2.0821
2.09226
2.1053
2.12025
2.13992
2.16027
2.18592
2.21362
2.24462
2.27996
2.31446
2.35905
2.39744
2.45268
2.48925
2.54408
2.57298
2.61958
2.62282
2.60716
2.55632
2.49265
2.43025
2.37425
2.33354
2.30381
2.28642
2.28164
2.28437
2.28809
2.29168
2.29309
2.29477
2.2943
2.29326
2.29208
2.29007
2.28795
2.28506
2.2824
2.27877
2.27582
2.27165
2.26873
2.26446
2.2618
2.25714
2.25403
2.24915
2.24627
2.24185
2.23946
2.23535
2.23317
2.22932
2.22735
2.22367
2.22176
2.21811
2.21611
2.21247
2.21016
2.20643
2.20397
2.20004
2.19752
2.19343
2.19079
2.18654
2.18369
2.17931
2.17614
2.17159
2.16796
2.16312
2.15896
2.15367
2.14898
2.1431
2.13789
2.13151
2.12602
2.11934
2.11361
2.10687
2.10097
2.09438
2.08851
2.08244
2.07725
2.07268
2.07007
2.25499
2.20357
2.15811
2.11912
2.09109
2.07023
2.05703
2.04945
2.04582
2.0469
2.05069
2.05902
2.06602
2.08045
2.09061
2.11127
2.1246
2.15157
2.16898
2.204
2.22933
2.2729
2.30456
2.35225
2.39458
2.44646
2.46048
2.44741
2.40526
2.3535
2.30113
2.25683
2.22618
2.20195
2.19012
2.18462
2.19005
2.20222
2.21156
2.2228
2.22826
2.23354
2.23503
2.23695
2.23679
2.23634
2.23519
2.23403
2.2315
2.22957
2.22636
2.22407
2.22068
2.21868
2.21536
2.21298
2.20938
2.20698
2.20337
2.20151
2.19813
2.19645
2.19308
2.19133
2.18779
2.18585
2.18203
2.17963
2.17563
2.17286
2.1687
2.16566
2.16134
2.15812
2.15366
2.15037
2.14593
2.14256
2.13813
2.13469
2.13022
2.12667
2.122
2.11824
2.1132
2.10908
2.10351
2.09893
2.09297
2.08796
2.08177
2.07641
2.07012
2.06463
2.05837
2.0531
2.04717
2.04273
2.03812
2.03632
2.24971
2.20334
2.16042
2.12068
2.0889
2.0643
2.04543
2.03292
2.02386
2.0193
2.01702
2.01771
2.02011
2.02625
2.031
2.04193
2.04939
2.06551
2.07751
2.10294
2.12341
2.15701
2.18622
2.23318
2.28919
2.34682
2.36431
2.34938
2.31485
2.27166
2.22583
2.1858
2.15299
2.13512
2.12024
2.1144
2.11233
2.11948
2.13074
2.14603
2.1592
2.17014
2.17792
2.1831
2.18684
2.18835
2.19006
2.18976
2.18913
2.18837
2.18683
2.1853
2.18341
2.18187
2.17935
2.178
2.17517
2.17322
2.17014
2.16824
2.16513
2.16344
2.16039
2.15874
2.15546
2.15357
2.14995
2.14763
2.1436
2.14091
2.13654
2.13355
2.12896
2.12573
2.12107
2.11767
2.11305
2.10958
2.10509
2.10159
2.09718
2.09368
2.08924
2.08569
2.08105
2.07727
2.07225
2.06804
2.06267
2.05798
2.05229
2.04717
2.04124
2.03583
2.02979
2.02431
2.01848
2.01346
2.00881
2.00614
2.24618
2.20248
2.16125
2.12366
2.08948
2.06211
2.03976
2.02286
2.0101
2.00106
1.99484
1.99113
1.98936
1.98938
1.99114
1.99576
1.99998
2.00997
2.01949
2.03932
2.0588
2.08534
2.12074
2.17252
2.2462
2.29881
2.31346
2.29382
2.26567
2.2266
2.18584
2.14334
2.11372
2.08987
2.07686
2.06712
2.06339
2.06261
2.06793
2.07969
2.09486
2.10994
2.12322
2.13258
2.14018
2.14377
2.14717
2.14802
2.14934
2.14927
2.14897
2.14857
2.14775
2.14692
2.14581
2.14491
2.14318
2.14217
2.14012
2.13895
2.13661
2.13515
2.13234
2.13073
2.1275
2.12552
2.1217
2.11913
2.11475
2.11161
2.10681
2.10324
2.09825
2.09452
2.08959
2.08589
2.08117
2.07759
2.0731
2.0697
2.06543
2.0622
2.05807
2.0549
2.05075
2.04741
2.04305
2.0393
2.03461
2.03038
2.02532
2.02065
2.01523
2.01028
2.00462
1.99961
1.99403
1.98944
1.98487
1.98255
2.23462
2.19872
2.16097
2.12468
2.09198
2.06241
2.03811
2.01816
2.00212
1.98993
1.98031
1.97334
1.96817
1.96496
1.96317
1.96317
1.96545
1.97151
1.98323
1.99742
2.01968
2.04486
2.09117
2.16017
2.24297
2.28445
2.28736
2.26842
2.23817
2.20251
2.15893
2.12108
2.08995
2.06562
2.04788
2.03575
2.02781
2.02387
2.02187
2.02519
2.03408
2.04781
2.06425
2.07911
2.09205
2.10073
2.10802
2.11179
2.11532
2.1168
2.11835
2.11938
2.11967
2.12004
2.12003
2.11987
2.11939
2.11874
2.1173
2.11634
2.11439
2.11309
2.11037
2.10854
2.10515
2.10279
2.09872
2.0958
2.09116
2.08773
2.08263
2.07872
2.0733
2.06906
2.06356
2.05931
2.054
2.04996
2.04488
2.04111
2.03624
2.03272
2.02808
2.02478
2.02036
2.01705
2.01271
2.00922
2.00479
2.00098
1.9963
1.99217
1.98715
1.98275
1.97743
1.9729
1.96756
1.96329
1.95882
1.95664
2.21952
2.18728
2.15449
2.12304
2.09165
2.06359
2.03747
2.01663
1.99814
1.98355
1.9716
1.962
1.95454
1.9487
1.94474
1.94245
1.94237
1.9482
1.96015
1.97449
1.99628
2.03196
2.09225
2.18423
2.25785
2.28132
2.2718
2.2517
2.22244
2.18523
2.14398
2.10997
2.07902
2.05388
2.03236
2.0153
2.00367
1.99547
1.99194
1.98996
1.99158
1.9985
2.00984
2.02517
2.04121
2.05525
2.06684
2.07518
2.08099
2.08503
2.08737
2.08945
2.09037
2.09182
2.09235
2.0928
2.09277
2.09249
2.09172
2.09075
2.08901
2.08784
2.08547
2.08339
2.08004
2.07736
2.07312
2.06973
2.06487
2.06101
2.05563
2.05137
2.04565
2.04119
2.03539
2.03099
2.02537
2.02125
2.01595
2.01215
2.00717
2.00365
1.99901
1.99574
1.9914
1.98823
1.98404
1.98086
1.97665
1.97333
1.96895
1.96542
1.96078
1.95696
1.95208
1.948
1.94303
1.93903
1.93477
1.93261
2.21603
2.18226
2.14919
2.11724
2.0881
2.06211
2.03719
2.01442
1.99603
1.97896
1.9657
1.954
1.94468
1.93727
1.93164
1.92882
1.92931
1.93631
1.94875
1.96503
1.99355
2.04318
2.12969
2.22655
2.27374
2.27863
2.26518
2.2434
2.21219
2.17399
2.13716
2.10565
2.07511
2.05003
2.02607
2.0075
1.99168
1.97982
1.9717
1.96636
1.96501
1.96358
1.9673
1.97592
1.98901
2.00482
2.02033
2.03366
2.04429
2.05194
2.05756
2.06111
2.06404
2.06587
2.06745
2.06867
2.06953
2.06983
2.06963
2.06897
2.06754
2.06652
2.06434
2.06237
2.05893
2.05585
2.05143
2.04769
2.04271
2.03846
2.03287
2.0283
2.02234
2.01769
2.01153
2.00687
2.00074
1.99622
1.99036
1.98611
1.98066
1.97676
1.97176
1.96826
1.9637
1.96047
1.95622
1.95318
1.94911
1.94605
1.942
1.93878
1.93459
1.93115
1.92676
1.9231
1.91858
1.91493
1.91099
1.90896
2.20635
2.17783
2.14714
2.11641
2.08655
2.05898
2.03556
2.01347
1.99348
1.97712
1.96131
1.94956
1.93795
1.92975
1.92293
1.92011
1.92337
1.9327
1.94623
1.96898
2.00957
2.08849
2.19109
2.26353
2.28239
2.27554
2.25949
2.23659
2.20237
2.16711
2.13504
2.10506
2.07732
2.05228
2.02871
2.00822
1.9888
1.97307
1.9591
1.95092
1.94336
1.94105
1.93852
1.93948
1.94526
1.95482
1.96976
1.98564
2.001
2.01364
2.02365
2.03089
2.03589
2.03991
2.04239
2.04495
2.04611
2.04776
2.04789
2.04758
2.04652
2.04547
2.04349
2.04176
2.03825
2.03485
2.03022
2.02632
2.02108
2.01668
2.01094
2.00625
2.00019
1.99533
1.98906
1.98415
1.97786
1.97306
1.96697
1.96242
1.95667
1.95243
1.94709
1.94324
1.93835
1.9349
1.93048
1.92744
1.92342
1.92061
1.91675
1.91393
1.91001
1.90699
1.90289
1.89962
1.89545
1.89214
1.88854
1.88662
2.19203
2.16699
2.14025
2.11282
2.08497
2.05776
2.03227
2.0105
1.99039
1.97312
1.95817
1.94442
1.93428
1.9241
1.9193
1.9178
1.925
1.93506
1.95436
1.98904
2.05673
2.15883
2.24764
2.28182
2.28171
2.27114
2.25318
2.22615
2.19458
2.16387
2.13506
2.10758
2.08157
2.05672
2.03295
2.01077
1.99015
1.97153
1.95498
1.94091
1.93004
1.92265
1.91771
1.91619
1.91504
1.91815
1.92629
1.93934
1.95511
1.97232
1.98685
1.99917
2.00844
2.01513
2.01994
2.02286
2.02553
2.02637
2.02737
2.027
2.02595
2.02464
2.02299
2.02126
2.01784
2.01432
2.00986
2.00578
2.00038
1.99565
1.98965
1.98478
1.97846
1.97345
1.96689
1.96185
1.95524
1.95027
1.94381
1.93904
1.93289
1.92842
1.92267
1.91854
1.91319
1.90948
1.90472
1.90151
1.89732
1.89454
1.89079
1.88824
1.88469
1.88212
1.87854
1.8758
1.87216
1.86935
1.86623
1.86454
2.18201
2.15996
2.13567
2.11001
2.08376
2.05762
2.03241
2.00914
1.9885
1.96949
1.95432
1.93964
1.92935
1.92038
1.91725
1.92106
1.9311
1.94811
1.97678
2.03568
2.13147
2.23093
2.27818
2.28554
2.27923
2.26486
2.24478
2.21653
2.18925
2.16245
2.13663
2.11113
2.0863
2.06135
2.03772
2.0146
1.99319
1.97265
1.95455
1.93776
1.92381
1.91236
1.90387
1.89916
1.89628
1.89596
1.89672
1.90188
1.91255
1.92705
1.94398
1.95952
1.97397
1.98472
1.99242
1.99861
2.00158
2.00364
2.0052
2.00483
2.00362
2.00233
2.00059
1.99878
1.99535
1.99196
1.98759
1.98358
1.97835
1.97368
1.9679
1.96303
1.95685
1.95175
1.94523
1.94011
1.93356
1.92857
1.9221
1.91725
1.91093
1.90627
1.90022
1.89585
1.89019
1.88629
1.88125
1.87791
1.8735
1.87067
1.86683
1.86439
1.86096
1.8587
1.8555
1.85323
1.85016
1.84788
1.84535
1.84398
2.15894
2.1417
2.12292
2.10232
2.07989
2.05621
2.03229
2.00908
1.98824
1.96859
1.95193
1.93759
1.92574
1.92013
1.92103
1.93028
1.94445
1.96989
2.02221
2.10916
2.2144
2.27444
2.28784
2.2839
2.27294
2.25832
2.23356
2.20861
2.18476
2.16081
2.13726
2.11303
2.08844
2.0645
2.04082
2.01811
1.9961
1.97548
1.95601
1.93825
1.92225
1.90832
1.89725
1.88779
1.88226
1.87889
1.8773
1.87729
1.87973
1.88766
1.89893
1.91485
1.93142
1.9457
1.9587
1.9678
1.97371
1.9783
1.97956
1.98063
1.97945
1.97812
1.97636
1.97452
1.97159
1.96849
1.96443
1.96038
1.95522
1.9504
1.94465
1.93967
1.93357
1.92836
1.92185
1.91654
1.90992
1.90475
1.89816
1.89316
1.88665
1.88188
1.87557
1.8711
1.8652
1.86126
1.85595
1.85257
1.84788
1.84507
1.84102
1.83873
1.8353
1.8334
1.83045
1.82877
1.82612
1.82463
1.82262
1.82191
2.15192
2.12835
2.11026
2.09132
2.07277
2.05246
2.0311
2.00887
1.98822
1.96888
1.95158
1.93801
1.9271
1.92538
1.93221
1.94456
1.96733
2.01405
2.09356
2.19761
2.26577
2.28624
2.28469
2.2769
2.26317
2.24342
2.22126
2.20017
2.17864
2.15744
2.13497
2.1128
2.08954
2.06724
2.04386
2.02196
1.9999
1.97952
1.95959
1.94129
1.92408
1.90828
1.89477
1.8823
1.87327
1.86544
1.86182
1.85865
1.85803
1.85823
1.86256
1.87212
1.88535
1.90099
1.91636
1.92903
1.9401
1.94665
1.95159
1.95328
1.9539
1.95255
1.95073
1.94906
1.9465
1.94353
1.93944
1.9355
1.93058
1.92602
1.92046
1.91544
1.90938
1.9041
1.8977
1.89236
1.8858
1.88061
1.87402
1.86903
1.86243
1.8576
1.85107
1.84655
1.84044
1.83642
1.83087
1.82739
1.82243
1.81951
1.8152
1.81289
1.80928
1.80758
1.80464
1.80345
1.80105
1.80027
1.79875
1.79862
2.13775
2.11585
2.09519
2.07735
2.05958
2.04201
2.02576
2.00689
1.98755
1.96946
1.95294
1.94
1.93414
1.93819
1.94934
1.96957
2.0111
2.08553
2.18556
2.25709
2.28336
2.28317
2.27708
2.26507
2.2477
2.22865
2.21043
2.19202
2.17338
2.15364
2.13332
2.11213
2.09048
2.06884
2.04678
2.02581
2.00421
1.98422
1.96402
1.94542
1.92713
1.91042
1.89431
1.88032
1.86749
1.85706
1.84882
1.84342
1.84001
1.8381
1.83736
1.83915
1.84574
1.85615
1.8692
1.88387
1.89676
1.90811
1.91599
1.92157
1.9239
1.92443
1.92296
1.92152
1.91929
1.91684
1.91304
1.90934
1.90477
1.90049
1.89522
1.89042
1.88461
1.87961
1.87354
1.86846
1.86215
1.85705
1.85059
1.84555
1.83896
1.83397
1.82746
1.8228
1.81661
1.81238
1.80665
1.80289
1.79772
1.79448
1.78998
1.78733
1.7836
1.78164
1.77872
1.77746
1.77536
1.77476
1.77384
1.77396
2.12495
2.11046
2.08782
2.06679
2.04928
2.03087
2.01404
1.99911
1.98399
1.96869
1.95545
1.94765
1.94964
1.96037
1.97854
2.01631
2.08427
2.18089
2.25463
2.28312
2.28336
2.27797
2.26715
2.25105
2.23447
2.21837
2.20287
2.18633
2.16919
2.15087
2.13191
2.11201
2.09157
2.07069
2.04939
2.02847
2.00743
1.98711
1.96705
1.94765
1.92899
1.91096
1.89431
1.87846
1.86449
1.85156
1.84087
1.83194
1.82518
1.82129
1.81727
1.8165
1.81511
1.81839
1.82592
1.83642
1.84926
1.86188
1.87385
1.88293
1.88953
1.89302
1.89417
1.89344
1.89194
1.89011
1.88748
1.88406
1.88002
1.87603
1.87143
1.8671
1.8619
1.85719
1.85148
1.84659
1.84052
1.8355
1.8291
1.82402
1.81748
1.81261
1.80616
1.80155
1.79531
1.79101
1.78515
1.78123
1.7759
1.77239
1.76772
1.7647
1.76085
1.75848
1.75553
1.75401
1.75202
1.75153
1.75102
1.75114
2.10641
2.09545
2.08022
2.05819
2.03933
2.02188
2.00417
1.98771
1.97459
1.96252
1.95759
1.95927
1.97148
1.98956
2.02661
2.09138
2.18395
2.25634
2.28564
2.28715
2.28224
2.2716
2.25641
2.24021
2.22602
2.21218
2.1982
2.18316
2.16713
2.14979
2.13143
2.11203
2.09185
2.07134
2.0503
2.02961
2.00866
1.98829
1.96813
1.94846
1.92968
1.91111
1.89432
1.87728
1.86284
1.84767
1.83601
1.8234
1.8148
1.80581
1.80061
1.79626
1.79314
1.79139
1.79176
1.79643
1.80447
1.81554
1.82808
1.83995
1.85063
1.85826
1.8634
1.86538
1.8655
1.86425
1.86258
1.86039
1.85708
1.8534
1.84908
1.84493
1.84006
1.83563
1.83024
1.82555
1.8197
1.81483
1.80858
1.80368
1.79736
1.7926
1.78635
1.78177
1.77566
1.77131
1.76551
1.76148
1.75618
1.75253
1.74797
1.74475
1.74112
1.73853
1.73586
1.73425
1.7326
1.73224
1.73237
1.73212
2.08643
2.0824
2.07072
2.05204
2.03189
2.01469
1.99878
1.98297
1.97052
1.96318
1.96505
1.97874
1.99754
2.03524
2.09886
2.1894
2.2598
2.28833
2.28927
2.28394
2.27234
2.25689
2.24086
2.2281
2.21541
2.2036
2.19014
2.17624
2.16034
2.14378
2.1254
2.10677
2.08674
2.06693
2.04614
2.02608
2.0053
1.98565
1.96541
1.9466
1.92733
1.90968
1.89177
1.87551
1.85933
1.84455
1.83077
1.81747
1.80673
1.79561
1.78815
1.7805
1.7763
1.77188
1.7697
1.76868
1.77017
1.7759
1.78468
1.79589
1.80759
1.81866
1.82746
1.83377
1.83707
1.83814
1.83734
1.83634
1.83431
1.8317
1.82753
1.82354
1.81876
1.81455
1.80941
1.80493
1.79936
1.7946
1.78874
1.78392
1.7779
1.77307
1.76698
1.76226
1.75626
1.75174
1.74601
1.74171
1.7365
1.73243
1.72798
1.72434
1.72075
1.71795
1.71527
1.71373
1.71229
1.7124
1.71345
1.71274
2.06007
2.06221
2.05405
2.0422
2.02379
2.00553
1.98988
1.97708
1.96902
1.971
1.98435
2.00319
2.04222
2.10578
2.19508
2.26217
2.28867
2.28838
2.28255
2.27012
2.2529
2.23699
2.22444
2.21325
2.20252
2.19105
2.17847
2.16453
2.14939
2.13288
2.11569
2.09724
2.07872
2.05915
2.03991
2.01994
2.00052
1.98079
1.96172
1.94276
1.92448
1.90675
1.8894
1.8731
1.85689
1.84232
1.82758
1.8147
1.80186
1.79051
1.78029
1.77061
1.76351
1.75663
1.75234
1.74763
1.74629
1.74521
1.74745
1.75342
1.76283
1.77371
1.78484
1.79477
1.80249
1.80742
1.80971
1.80994
1.80896
1.80757
1.80508
1.80166
1.7974
1.79324
1.78851
1.78415
1.77904
1.77458
1.76919
1.76466
1.75903
1.75446
1.74872
1.74413
1.73848
1.7339
1.72858
1.72411
1.71922
1.71507
1.71066
1.70713
1.70332
1.70066
1.69786
1.69622
1.69519
1.69538
1.69697
1.69602
2.02847
2.04078
2.03969
2.03218
2.01839
2.0017
1.98884
1.97801
1.97936
1.99141
2.0106
2.0505
2.11526
2.20371
2.26602
2.28848
2.28719
2.28034
2.26555
2.24652
2.2305
2.21847
2.20792
2.19846
2.18794
2.17704
2.16427
2.15091
2.1358
2.12024
2.10335
2.08605
2.06806
2.04952
2.03104
2.01201
1.9935
1.97474
1.95654
1.93843
1.92092
1.90359
1.88719
1.87099
1.8557
1.84078
1.82636
1.8129
1.79929
1.78737
1.77481
1.76458
1.75384
1.74563
1.73789
1.73185
1.72635
1.72275
1.72147
1.72164
1.72465
1.73109
1.74064
1.75143
1.76184
1.77073
1.77712
1.78092
1.78228
1.78202
1.78117
1.77961
1.77665
1.77295
1.76827
1.76413
1.75912
1.75492
1.74972
1.74536
1.73999
1.73546
1.73007
1.72547
1.72022
1.71565
1.71069
1.70625
1.70177
1.69761
1.69378
1.69012
1.68717
1.68434
1.68263
1.68123
1.68135
1.68213
1.6842
1.68358
1.96991
2.01022
2.0148
2.01199
2.0055
1.99424
1.98568
1.98779
2.00266
2.02279
2.06421
2.13203
2.2174
2.27515
2.29203
2.28885
2.27886
2.26293
2.24247
2.22628
2.21344
2.20356
2.19382
2.1843
2.17344
2.1622
2.14948
2.13637
2.12181
2.10691
2.09086
2.07451
2.05752
2.04022
2.02286
2.00512
1.98775
1.97001
1.95283
1.93554
1.91891
1.90227
1.88649
1.87047
1.85558
1.84022
1.82609
1.8115
1.79804
1.78436
1.77169
1.7592
1.74756
1.73683
1.72684
1.71865
1.71101
1.70473
1.69923
1.69677
1.69559
1.69672
1.70074
1.70793
1.71765
1.72824
1.738
1.74604
1.75147
1.75434
1.75502
1.75455
1.75352
1.75122
1.7477
1.74356
1.73922
1.73485
1.73045
1.72599
1.72152
1.71687
1.71237
1.70762
1.70314
1.69854
1.69408
1.68986
1.68552
1.6818
1.67787
1.67485
1.67173
1.66984
1.66817
1.66815
1.66888
1.67014
1.67275
1.67332
1.84524
1.97665
1.99781
1.99846
1.99417
1.99093
1.9914
2.01074
2.03385
2.07956
2.15445
2.23857
2.29036
2.30286
2.29811
2.28478
2.26448
2.24319
2.226
2.21331
2.20276
2.19363
2.18379
2.17401
2.16285
2.15139
2.13865
2.12555
2.11135
2.09688
2.08137
2.06586
2.04941
2.03327
2.01634
1.99975
1.98271
1.96595
1.94917
1.93271
1.91632
1.90045
1.88446
1.86921
1.85366
1.83897
1.82393
1.80964
1.79522
1.78138
1.76765
1.75446
1.74172
1.72948
1.71805
1.70743
1.69817
1.68977
1.68245
1.67591
1.67207
1.67006
1.67024
1.67221
1.67716
1.6851
1.69524
1.70547
1.71468
1.72162
1.7261
1.72797
1.72795
1.72741
1.72574
1.72315