/*--------------------------------*- C++ -*----------------------------------*\
| =========                 |                                                 |
| \\      /  F ield         | OpenFOAM: The Open Source CFD Toolbox           |
|  \\    /   O peration     | Version:  2112                                  |
|   \\  /    A nd           | Website:  www.openfoam.com                      |
|    \\/     M anipulation  |                                                 |
\*---------------------------------------------------------------------------*/
FoamFile
{
    version     2.0;
    format      ascii;
    arch        "LSB;label=32;scalar=64";
    class       volVectorField;
    location    "5.5";
    object      U;
}
// * * * * * * * * * * * * * * * * * * * * * * * * * * * * * * * * * * * * * //

dimensions      [0 1 -1 0 0 0 0];

internalField   nonuniform List<vector> 
5250
(
(3 1.18514e-08 0)
(2.99999 9.27122e-08 0)
(2.99996 2.84735e-07 0)
(2.99991 8.67247e-07 0)
(2.99976 2.05331e-06 0)
(2.99948 5.60024e-06 0)
(2.99857 1.23969e-05 0)
(2.99705 3.48667e-05 0)
(2.99105 7.3e-05 0)
(2.9817 0.000224369 0)
(2.94305 0.000466155 0)
(2.85775 0.00156146 0)
(2.60295 0.00368706 0)
(1.7857 0.0120463 0)
(0.855134 0.0302548 0)
(0.431592 0.0268827 0)
(0.519746 0.0259674 0)
(0.540466 0.0272692 0)
(0.482499 0.0286715 0)
(0.391103 0.030227 0)
(0.309791 0.0320813 0)
(0.244314 0.0341436 0)
(0.178447 0.0362278 0)
(0.104932 0.0383835 0)
(0.0431351 0.0403043 0)
(3 3.34658e-08 0)
(2.99999 2.60294e-07 0)
(2.99996 7.99603e-07 0)
(2.99991 2.42575e-06 0)
(2.99977 5.69663e-06 0)
(2.99949 1.57626e-05 0)
(2.9986 3.32362e-05 0)
(2.9971 0.000102201 0)
(2.99121 0.000194416 0)
(2.98203 0.000691931 0)
(2.94411 0.00137378 0)
(2.86061 0.00482432 0)
(2.61081 0.0114662 0)
(1.80825 0.0374571 0)
(0.867851 0.0920686 0)
(0.427894 0.0769807 0)
(0.520136 0.0705708 0)
(0.542516 0.0717854 0)
(0.484518 0.0734811 0)
(0.393372 0.0757928 0)
(0.312019 0.0783578 0)
(0.245941 0.0809564 0)
(0.179163 0.0831884 0)
(0.104507 0.0849834 0)
(0.0419902 0.0851309 0)
(3 5.33153e-08 0)
(2.99999 4.1371e-07 0)
(2.99996 1.27099e-06 0)
(2.99991 3.85032e-06 0)
(2.99977 9.00846e-06 0)
(2.9995 2.51266e-05 0)
(2.99864 5.16251e-05 0)
(2.99719 0.000166725 0)
(2.99154 0.000298996 0)
(2.9827 0.00116116 0)
(2.94634 0.00224273 0)
(2.86677 0.00809092 0)
(2.62784 0.0193564 0)
(1.85897 0.0634204 0)
(0.898763 0.157976 0)
(0.425891 0.130793 0)
(0.525771 0.118447 0)
(0.551599 0.120797 0)
(0.493782 0.124454 0)
(0.403043 0.129731 0)
(0.321223 0.134743 0)
(0.253867 0.139661 0)
(0.185384 0.144139 0)
(0.108395 0.147577 0)
(0.0431703 0.147497 0)
(3 7.21843e-08 0)
(2.99999 5.60773e-07 0)
(2.99996 1.72268e-06 0)
(2.99992 5.22382e-06 0)
(2.99978 1.22449e-05 0)
(2.99952 3.40799e-05 0)
(2.99871 7.0554e-05 0)
(2.99731 0.000225474 0)
(2.99203 0.000404502 0)
(2.98367 0.00156616 0)
(2.94964 0.00301582 0)
(2.87591 0.0108656 0)
(2.65326 0.0261149 0)
(1.93695 0.0854967 0)
(0.948941 0.217739 0)
(0.42918 0.183244 0)
(0.538618 0.165258 0)
(0.569543 0.168521 0)
(0.512004 0.174383 0)
(0.421473 0.183584 0)
(0.338212 0.191748 0)
(0.268766 0.199604 0)
(0.197564 0.207175 0)
(0.116437 0.213283 0)
(0.0462282 0.21369 0)
(3 8.66572e-08 0)
(2.99999 6.7398e-07 0)
(2.99997 2.07036e-06 0)
(2.99992 6.28269e-06 0)
(2.9998 1.47606e-05 0)
(2.99955 4.09118e-05 0)
(2.9988 8.57086e-05 0)
(2.99746 0.000268449 0)
(2.99265 0.000486318 0)
(2.98489 0.0018453 0)
(2.95378 0.00355714 0)
(2.88736 0.0127449 0)
(2.68527 0.0307081 0)
(2.03807 0.100559 0)
(1.02009 0.264929 0)
(0.446071 0.238231 0)
(0.561356 0.21766 0)
(0.597588 0.219136 0)
(0.540769 0.225341 0)
(0.450308 0.23808 0)
(0.364245 0.249741 0)
(0.291469 0.261142 0)
(0.216405 0.272531 0)
(0.129463 0.282304 0)
(0.0517353 0.284191 0)
(3 9.29435e-08 0)
(2.99999 7.21716e-07 0)
(2.99997 2.21923e-06 0)
(2.99993 6.71566e-06 0)
(2.99981 1.58334e-05 0)
(2.99958 4.31719e-05 0)
(2.9989 9.30349e-05 0)
(2.99764 0.000275369 0)
(2.99334 0.000518293 0)
(2.98625 0.00187326 0)
(2.9584 0.00357605 0)
(2.90001 0.0128137 0)
(2.72107 0.0312323 0)
(2.15662 0.100233 0)
(1.12113 0.268454 0)
(0.498185 0.279591 0)
(0.601266 0.270138 0)
(0.637848 0.271067 0)
(0.582324 0.277947 0)
(0.492242 0.294656 0)
(0.402069 0.310735 0)
(0.324394 0.326664 0)
(0.24381 0.34335 0)
(0.148628 0.358879 0)
(0.0603554 0.364598 0)
(3 9.19959e-08 0)
(2.99999 7.11444e-07 0)
(2.99997 2.18984e-06 0)
(2.99993 6.58738e-06 0)
(2.99983 1.55525e-05 0)
(2.99961 4.15176e-05 0)
(2.999 9.17052e-05 0)
(2.99782 0.000253551 0)
(2.99398 0.000504226 0)
(2.98746 0.00168212 0)
(2.9626 0.00316436 0)
(2.91176 0.0110937 0)
(2.75272 0.0280248 0)
(2.25559 0.0797209 0)
(1.23681 0.228191 0)
(0.542551 0.309713 0)
(0.628608 0.325505 0)
(0.66751 0.323076 0)
(0.62086 0.331197 0)
(0.537052 0.352598 0)
(0.446033 0.375141 0)
(0.365331 0.39734 0)
(0.280358 0.421322 0)
(0.176573 0.445924 0)
(0.0742583 0.460586 0)
(3 9.40253e-08 0)
(2.99999 7.25054e-07 0)
(2.99997 2.23279e-06 0)
(2.99994 6.68585e-06 0)
(2.99984 1.57581e-05 0)
(2.99965 4.15882e-05 0)
(2.99908 9.22335e-05 0)
(2.99799 0.000245659 0)
(2.99452 0.000505665 0)
(2.98848 0.00155572 0)
(2.96601 0.00293483 0)
(2.92178 0.00990391 0)
(2.77374 0.0246642 0)
(2.33109 0.0652613 0)
(1.36936 0.197261 0)
(0.599457 0.353035 0)
(0.640407 0.381566 0)
(0.674688 0.375076 0)
(0.647904 0.385961 0)
(0.577918 0.409652 0)
(0.491684 0.440397 0)
(0.411868 0.471809 0)
(0.325974 0.506843 0)
(0.215829 0.546053 0)
(0.0968189 0.581399 0)
(3 1.09531e-07 0)
(2.99999 8.39482e-07 0)
(2.99998 2.58914e-06 0)
(2.99994 7.72655e-06 0)
(2.99986 1.83053e-05 0)
(2.99968 4.79861e-05 0)
(2.99917 0.000107714 0)
(2.99816 0.000276566 0)
(2.99506 0.000607111 0)
(2.9895 0.00161249 0)
(2.96937 0.00343556 0)
(2.93065 0.00964049 0)
(2.79512 0.0238703 0)
(2.40588 0.0656066 0)
(1.52267 0.182598 0)
(0.683076 0.396162 0)
(0.647301 0.420288 0)
(0.677461 0.419062 0)
(0.668228 0.436979 0)
(0.61414 0.463603 0)
(0.539196 0.503159 0)
(0.464842 0.547016 0)
(0.383526 0.596487 0)
(0.275225 0.660433 0)
(0.137014 0.741617 0)
(3 5.16842e-08 0)
(2.99999 1.34813e-06 0)
(2.99998 2.73695e-06 0)
(2.99995 1.1979e-05 0)
(2.99987 1.98569e-05 0)
(2.99972 7.70394e-05 0)
(2.99927 0.000109677 0)
(2.9984 0.000471084 0)
(2.99563 0.000505254 0)
(2.99085 0.00276471 0)
(2.97255 0.00190548 0)
(2.93942 0.0167478 0)
(2.81651 0.0116671 0)
(2.47313 0.0950127 0)
(1.67039 0.16759 0)
(0.778426 0.437724 0)
(0.651579 0.451743 0)
(0.684311 0.456261 0)
(0.688819 0.480588 0)
(0.649212 0.513834 0)
(0.589983 0.561159 0)
(0.525961 0.617433 0)
(0.458687 0.688339 0)
(0.37171 0.797106 0)
(0.211562 0.996473 0)
(3 9.51798e-08 0)
(2.99999 7.43341e-07 0)
(2.99998 2.2867e-06 0)
(2.99996 6.91524e-06 0)
(2.99991 1.64014e-05 0)
(2.99975 4.36711e-05 0)
(2.99949 9.87614e-05 0)
(2.99849 0.000255461 0)
(2.99697 0.000576833 0)
(2.99068 0.00149599 0)
(2.98066 0.00329742 0)
(2.93945 0.00949824 0)
(2.8485 0.0224078 0)
(2.572 0.0651679 0)
(1.73493 0.18993 0)
(0.897339 0.471214 0)
(0.656259 0.479688 0)
(0.694791 0.487848 0)
(0.713083 0.515651 0)
(0.686753 0.55658 0)
(0.643499 0.609961 0)
(0.599311 0.677017 0)
(0.566483 0.768154 0)
(0.561298 0.907712 0)
(0.593221 1.14088 0)
(3 1.38552e-07 0)
(2.99999 1.26863e-07 0)
(2.99998 1.80411e-06 0)
(2.99996 1.69931e-06 0)
(2.9999 1.25441e-05 0)
(2.99979 8.99776e-06 0)
(2.99945 8.37123e-05 0)
(2.9988 3.46826e-05 0)
(2.99667 0.000602143 0)
(2.99311 0.000281289 0)
(2.97921 0.00439049 0)
(2.95523 0.00274135 0)
(2.86232 0.0316896 0)
(2.62074 0.0470816 0)
(2.00081 0.195107 0)
(1.02292 0.514398 0)
(0.673611 0.516538 0)
(0.714084 0.522798 0)
(0.743413 0.546639 0)
(0.728908 0.590988 0)
(0.701012 0.64829 0)
(0.679806 0.722522 0)
(0.682933 0.822133 0)
(0.737061 0.959082 0)
(0.870053 1.13374 0)
(3 7.50227e-08 0)
(2.99999 5.85884e-07 0)
(2.99999 1.79979e-06 0)
(2.99997 5.46312e-06 0)
(2.99992 1.28844e-05 0)
(2.99981 3.47306e-05 0)
(2.99952 7.72566e-05 0)
(2.99893 0.000211943 0)
(2.99718 0.000435265 0)
(2.99383 0.00139789 0)
(2.98282 0.00250933 0)
(2.96229 0.00971269 0)
(2.88918 0.0186257 0)
(2.69965 0.0726764 0)
(2.20943 0.178474 0)
(1.18375 0.526709 0)
(0.719316 0.557174 0)
(0.74843 0.568333 0)
(0.782174 0.579988 0)
(0.778264 0.620735 0)
(0.762743 0.678702 0)
(0.761451 0.7532 0)
(0.790316 0.847893 0)
(0.869182 0.962405 0)
(1.02199 1.07272 0)
(3 8.21836e-08 0)
(3 6.41362e-07 0)
(2.99999 1.97097e-06 0)
(2.99997 5.97623e-06 0)
(2.99993 1.41772e-05 0)
(2.99984 3.80257e-05 0)
(2.99959 8.58721e-05 0)
(2.9991 0.000226194 0)
(2.99765 0.000504187 0)
(2.99485 0.00134426 0)
(2.98607 0.00298395 0)
(2.96888 0.00831348 0)
(2.91214 0.0188334 0)
(2.76862 0.0579975 0)
(2.38965 0.1465 0)
(1.38172 0.445931 0)
(0.814029 0.577939 0)
(0.800647 0.609622 0)
(0.825618 0.619086 0)
(0.833939 0.650888 0)
(0.82805 0.70401 0)
(0.838496 0.772362 0)
(0.880745 0.853041 0)
(0.96603 0.941465 0)
(1.11168 1.01462 0)
(3 7.91624e-08 0)
(3 6.17535e-07 0)
(2.99999 1.89948e-06 0)
(2.99998 5.75034e-06 0)
(2.99994 1.36613e-05 0)
(2.99987 3.64851e-05 0)
(2.99967 8.25939e-05 0)
(2.99927 0.000214309 0)
(2.99811 0.000488331 0)
(2.99591 0.00121888 0)
(2.98858 0.00291106 0)
(2.9757 0.00687669 0)
(2.92862 0.0173756 0)
(2.81476 0.0443475 0)
(2.50369 0.117596 0)
(1.57984 0.336824 0)
(0.912226 0.611572 0)
(0.837206 0.649013 0)
(0.858565 0.663092 0)
(0.880314 0.681984 0)
(0.887969 0.725292 0)
(0.906951 0.783896 0)
(0.954614 0.849737 0)
(1.03907 0.916592 0)
(1.17081 0.968794 0)
(3 6.65029e-08 0)
(3 5.15474e-07 0)
(2.99999 1.5876e-06 0)
(2.99998 4.7766e-06 0)
(2.99995 1.13252e-05 0)
(2.9999 2.99796e-05 0)
(2.99974 6.75038e-05 0)
(2.99944 0.000174514 0)
(2.99849 0.000387884 0)
(2.99687 0.00100957 0)
(2.99075 0.00221618 0)
(2.98108 0.00604844 0)
(2.94202 0.01334 0)
(2.8567 0.0389163 0)
(2.60244 0.100054 0)
(1.80884 0.296617 0)
(1.06483 0.65311 0)
(0.866628 0.68147 0)
(0.881611 0.695986 0)
(0.913082 0.706126 0)
(0.938109 0.740527 0)
(0.965734 0.789451 0)
(1.01566 0.843608 0)
(1.09621 0.895351 0)
(1.21315 0.934022 0)
(3 5.44735e-08 0)
(3 4.20324e-07 0)
(2.99999 1.29522e-06 0)
(2.99999 3.8815e-06 0)
(2.99996 9.17488e-06 0)
(2.99992 2.41796e-05 0)
(2.99979 5.40511e-05 0)
(2.99954 0.000140875 0)
(2.9988 0.000301006 0)
(2.99743 0.000849794 0)
(2.99275 0.00165073 0)
(2.98505 0.00547958 0)
(2.95485 0.0106361 0)
(2.89113 0.036464 0)
(2.69663 0.0866261 0)
(2.07592 0.277447 0)
(1.26113 0.679497 0)
(0.917702 0.714717 0)
(0.915056 0.722263 0)
(0.946751 0.726747 0)
(0.983459 0.750488 0)
(1.01732 0.790563 0)
(1.06767 0.835774 0)
(1.14294 0.877086 0)
(1.24616 0.906872 0)
(3 4.78043e-08 0)
(3 3.69377e-07 0)
(3 1.1384e-06 0)
(2.99999 3.4184e-06 0)
(2.99997 8.10585e-06 0)
(2.99994 2.14171e-05 0)
(2.99984 4.81941e-05 0)
(2.99964 0.000124669 0)
(2.99908 0.000275258 0)
(2.998 0.00073063 0)
(2.99459 0.00153999 0)
(2.98862 0.00453286 0)
(2.96694 0.00916369 0)
(2.9235 0.0289964 0)
(2.78662 0.0708951 0)
(2.36817 0.21308 0)
(1.55197 0.580148 0)
(1.03646 0.723519 0)
(0.981359 0.744626 0)
(0.995556 0.752571 0)
(1.03265 0.763664 0)
(1.0691 0.793223 0)
(1.11603 0.829623 0)
(1.18369 0.862543 0)
(1.2743 0.885651 0)
(3 2.62199e-08 0)
(3 3.51029e-07 0)
(3 8.62459e-07 0)
(2.99999 3.15216e-06 0)
(2.99998 6.25653e-06 0)
(2.99995 1.96781e-05 0)
(2.99988 3.74247e-05 0)
(2.99973 0.000114745 0)
(2.99931 0.000212509 0)
(2.99849 0.000673558 0)
(2.99591 0.00113361 0)
(2.99144 0.00413808 0)
(2.97472 0.00569615 0)
(2.94474 0.025758 0)
(2.83535 0.0401894 0)
(2.53725 0.1618 0)
(1.84368 0.388442 0)
(1.1479 0.738728 0)
(1.02942 0.771087 0)
(1.03533 0.784247 0)
(1.07247 0.785648 0)
(1.11517 0.801866 0)
(1.16062 0.828254 0)
(1.2209 0.85363 0)
(1.29991 0.871105 0)
(3 1.93923e-08 0)
(3 2.62982e-07 0)
(3 6.43159e-07 0)
(2.99999 2.36066e-06 0)
(2.99999 4.6619e-06 0)
(2.99996 1.46945e-05 0)
(2.99992 2.77881e-05 0)
(2.99979 8.52695e-05 0)
(2.99955 0.000158686 0)
(2.99876 0.000494029 0)
(2.99747 0.000878739 0)
(2.99244 0.00302188 0)
(2.98455 0.00467292 0)
(2.95304 0.0198366 0)
(2.8861 0.0311821 0)
(2.6803 0.127781 0)
(2.07276 0.31614 0)
(1.33755 0.755681 0)
(1.07743 0.804843 0)
(1.07045 0.813803 0)
(1.1033 0.810626 0)
(1.15242 0.813165 0)
(1.20004 0.829768 0)
(1.25515 0.848358 0)
(1.32437 0.861494 0)
(3 3.62312e-08 0)
(3 1.31398e-07 0)
(3 6.24649e-07 0)
(3 1.30894e-06 0)
(2.99999 4.32351e-06 0)
(2.99997 8.21022e-06 0)
(2.99994 2.53659e-05 0)
(2.99984 4.66464e-05 0)
(2.99965 0.000145974 0)
(2.99909 0.00025242 0)
(2.99802 0.000883952 0)
(2.99461 0.00134842 0)
(2.98873 0.00571522 0)
(2.96714 0.00834773 0)
(2.92407 0.0377223 0)
(2.7888 0.0725648 0)
(2.37557 0.261186 0)
(1.62765 0.646432 0)
(1.19027 0.805833 0)
(1.13114 0.830158 0)
(1.1444 0.835145 0)
(1.18941 0.829406 0)
(1.23847 0.835419 0)
(1.28894 0.846839 0)
(1.34957 0.85565 0)
(3 2.25852e-08 0)
(3 1.2321e-07 0)
(3 4.57391e-07 0)
(3 1.17414e-06 0)
(2.99999 3.21941e-06 0)
(2.99998 7.37662e-06 0)
(2.99995 1.90696e-05 0)
(2.99989 4.25912e-05 0)
(2.99972 0.000109071 0)
(2.99938 0.000241602 0)
(2.99838 0.000625818 0)
(2.99645 0.00135858 0)
(2.9904 0.00371506 0)
(2.97906 0.00779217 0)
(2.9411 0.0227224 0)
(2.85049 0.0546978 0)
(2.59653 0.152243 0)
(1.89281 0.461955 0)
(1.32185 0.790559 0)
(1.18611 0.839954 0)
(1.18329 0.858774 0)
(1.22013 0.853656 0)
(1.27136 0.847339 0)
(1.32039 0.850172 0)
(1.37451 0.854122 0)
(3 1.32499e-08 0)
(3 1.03226e-07 0)
(3 3.17742e-07 0)
(3 9.58877e-07 0)
(2.99999 2.27356e-06 0)
(2.99999 6.03297e-06 0)
(2.99997 1.35906e-05 0)
(2.99992 3.51881e-05 0)
(2.99981 7.83186e-05 0)
(2.99952 0.000202883 0)
(2.99895 0.000448952 0)
(2.99718 0.00118144 0)
(2.99409 0.00259813 0)
(2.98291 0.00708643 0)
(2.96318 0.0159226 0)
(2.89228 0.0440911 0)
(2.71362 0.120619 0)
(2.23741 0.323078 0)
(1.49626 0.786788 0)
(1.24266 0.864581 0)
(1.22128 0.880119 0)
(1.24374 0.877904 0)
(1.29366 0.864455 0)
(1.34668 0.858478 0)
(1.39847 0.857119 0)
(3 1.56815e-08 0)
(3 6.0933e-08 0)
(3 2.77109e-07 0)
(3 6.07501e-07 0)
(3 1.93951e-06 0)
(2.99999 3.87219e-06 0)
(2.99997 1.15261e-05 0)
(2.99994 2.25572e-05 0)
(2.99986 6.62825e-05 0)
(2.99969 0.000128774 0)
(2.9992 0.000382466 0)
(2.99825 0.000722463 0)
(2.99532 0.00230343 0)
(2.99012 0.00393955 0)
(2.97198 0.0147175 0)
(2.93614 0.0246069 0)
(2.82164 0.0941244 0)
(2.5026 0.22153 0)
(1.82784 0.622827 0)
(1.3606 0.853923 0)
(1.27911 0.88507 0)
(1.28059 0.894774 0)
(1.31895 0.883494 0)
(1.37116 0.870083 0)
(1.42178 0.863761 0)
(3 7.26064e-09 0)
(3 5.62793e-08 0)
(3 1.73479e-07 0)
(3 5.21188e-07 0)
(3 1.2358e-06 0)
(2.99999 3.2565e-06 0)
(2.99998 7.33019e-06 0)
(2.99996 1.8792e-05 0)
(2.9999 4.17497e-05 0)
(2.99978 0.000106637 0)
(2.99944 0.000235632 0)
(2.99879 0.000608106 0)
(2.99677 0.00131977 0)
(2.99326 0.00359397 0)
(2.98044 0.00741884 0)
(2.95835 0.022113 0)
(2.87706 0.0496044 0)
(2.66844 0.151022 0)
(2.15874 0.401877 0)
(1.5103 0.835767 0)
(1.32819 0.898975 0)
(1.31431 0.91141 0)
(1.339 0.904139 0)
(1.38942 0.886033 0)
(1.44218 0.874039 0)
(3 4.12019e-09 0)
(3 4.55826e-08 0)
(3 1.20209e-07 0)
(3 4.11256e-07 0)
(3 8.63556e-07 0)
(3 2.54802e-06 0)
(2.99999 5.12311e-06 0)
(2.99997 1.46368e-05 0)
(2.99993 2.91177e-05 0)
(2.99985 8.2767e-05 0)
(2.99961 0.000163514 0)
(2.99915 0.000470526 0)
(2.99781 0.000900045 0)
(2.9952 0.0027925 0)
(2.98722 0.00480423 0)
(2.97157 0.0177142 0)
(2.92186 0.0293991 0)
(2.79745 0.116271 0)
(2.47133 0.258839 0)
(1.76544 0.718599 0)
(1.41888 0.886029 0)
(1.36107 0.914047 0)
(1.36779 0.920014 0)
(1.40858 0.904802 0)
(1.46091 0.885795 0)
(3 2.85001e-09 0)
(3 3.14086e-08 0)
(3 8.29222e-08 0)
(3 2.84046e-07 0)
(3 5.96656e-07 0)
(3 1.76229e-06 0)
(2.99999 3.54363e-06 0)
(2.99998 1.01335e-05 0)
(2.99996 2.01777e-05 0)
(2.99989 5.73611e-05 0)
(2.99976 0.000113714 0)
(2.9994 0.000324622 0)
(2.9987 0.000639097 0)
(2.99652 0.00186139 0)
(2.99277 0.00358873 0)
(2.9791 0.0110872 0)
(2.95489 0.021367 0)
(2.86831 0.0697103 0)
(2.64682 0.166345 0)
(2.10821 0.476225 0)
(1.55116 0.856215 0)
(1.41253 0.917414 0)
(1.40039 0.931341 0)
(1.42526 0.923466 0)
(1.47423 0.900887 0)
(3 3.26287e-09 0)
(3 1.75807e-08 0)
(3 6.53907e-08 0)
(3 1.6764e-07 0)
(3 4.58513e-07 0)
(3 1.04843e-06 0)
(2.99999 2.69448e-06 0)
(2.99999 6.00605e-06 0)
(2.99997 1.522e-05 0)
(2.99993 3.36681e-05 0)
(2.99984 8.52146e-05 0)
(2.99959 0.000187516 0)
(2.99909 0.000481381 0)
(2.99766 0.00103109 0)
(2.9949 0.00283535 0)
(2.9864 0.00570999 0)
(2.97 0.0175823 0)
(2.91725 0.0364069 0)
(2.78457 0.11803 0)
(2.43971 0.301752 0)
(1.78561 0.752094 0)
(1.48878 0.906999 0)
(1.44038 0.933876 0)
(1.4478 0.938613 0)
(1.48704 0.920822 0)
(3 2.72181e-09 0)
(3 1.16919e-08 0)
(3 4.9953e-08 0)
(3 1.14301e-07 0)
(3 3.47741e-07 0)
(3 7.19814e-07 0)
(3 2.04411e-06 0)
(2.99999 4.14465e-06 0)
(2.99998 1.15859e-05 0)
(2.99995 2.33785e-05 0)
(2.99989 6.51853e-05 0)
(2.99973 0.000131097 0)
(2.9994 0.00036706 0)
(2.99848 0.000733071 0)
(2.99667 0.00209347 0)
(2.99129 0.0040823 0)
(2.98061 0.0124464 0)
(2.94814 0.0238419 0)
(2.87055 0.0788103 0)
(2.65922 0.180744 0)
(2.08492 0.54053 0)
(1.62739 0.868141 0)
(1.49632 0.931591 0)
(1.48092 0.946478 0)
(1.5008 0.938829 0)
(3 1.80706e-09 0)
(3 7.7856e-09 0)
(3 3.31709e-08 0)
(3 7.61702e-08 0)
(3 2.31002e-07 0)
(3 4.79686e-07 0)
(3 1.35717e-06 0)
(2.99999 2.75989e-06 0)
(2.99999 7.6829e-06 0)
(2.99997 1.55491e-05 0)
(2.99993 4.31553e-05 0)
(2.99984 8.70959e-05 0)
(2.99959 0.000242476 0)
(2.9991 0.000487193 0)
(2.99769 0.00137443 0)
(2.99498 0.00272581 0)
(2.9866 0.00798034 0)
(2.97055 0.015987 0)
(2.91896 0.0483562 0)
(2.79237 0.113092 0)
(2.44668 0.330273 0)
(1.84534 0.762755 0)
(1.57089 0.918334 0)
(1.52064 0.946491 0)
(1.52293 0.951421 0)
(3 8.0704e-10 0)
(3 6.24612e-09 0)
(3 1.92532e-08 0)
(3 5.76901e-08 0)
(3 1.36666e-07 0)
(3 3.585e-07 0)
(3 8.0588e-07 0)
(3 2.05286e-06 0)
(2.99999 4.55924e-06 0)
(2.99998 1.15395e-05 0)
(2.99995 2.55356e-05 0)
(2.9999 6.46149e-05 0)
(2.99974 0.000142649 0)
(2.99942 0.000362481 0)
(2.99853 0.000796657 0)
(2.99679 0.00205791 0)
(2.99167 0.00448313 0)
(2.98154 0.0120632 0)
(2.95092 0.0268339 0)
(2.878 0.0751634 0)
(2.67892 0.19413 0)
(2.14507 0.537597 0)
(1.70529 0.877172 0)
(1.5732 0.94408 0)
(1.55411 0.958074 0)
(3 4.48555e-10 0)
(3 4.47375e-09 0)
(3 1.23051e-08 0)
(3 4.0465e-08 0)
(3 8.77549e-08 0)
(3 2.49463e-07 0)
(3 5.16521e-07 0)
(3 1.42085e-06 0)
(2.99999 2.91226e-06 0)
(2.99999 7.94738e-06 0)
(2.99997 1.62411e-05 0)
(2.99994 4.42664e-05 0)
(2.99984 9.01834e-05 0)
(2.99965 0.000246543 0)
(2.9991 0.000499594 0)
(2.99805 0.00138307 0)
(2.99491 0.00276039 0)
(2.98924 0.00793884 0)
(2.97012 0.0158569 0)
(2.93199 0.0477788 0)
(2.81595 0.108629 0)
(2.4732 0.336163 0)
(1.9527 0.731448 0)
(1.66252 0.912148 0)
(1.60076 0.949059 0)
(3 3.42815e-10 0)
(3 2.6422e-09 0)
(3 8.15126e-09 0)
(3 2.43336e-08 0)
(3 5.76377e-08 0)
(3 1.50475e-07 0)
(3 3.38015e-07 0)
(3 8.56123e-07 0)
(3 1.89995e-06 0)
(2.99999 4.77595e-06 0)
(2.99998 1.05657e-05 0)
(2.99996 2.65044e-05 0)
(2.99991 5.85247e-05 0)
(2.99976 0.00014686 0)
(2.99948 0.000323429 0)
(2.99868 0.000817746 0)
(2.99711 0.00177672 0)
(2.9925 0.00468365 0)
(2.98333 0.00978149 0)
(2.956 0.027915 0)
(2.89195 0.0629804 0)
(2.71131 0.18112 0)
(2.2415 0.49818 0)
(1.80622 0.856323 0)
(1.65618 0.939602 0)
(3 3.0895e-10 0)
(3 1.36256e-09 0)
(3 5.69733e-09 0)
(3 1.33027e-08 0)
(3 3.96239e-08 0)
(3 8.34604e-08 0)
(3 2.31677e-07 0)
(3 4.77286e-07 0)
(3 1.30236e-06 0)
(3 2.66984e-06 0)
(2.99999 7.25407e-06 0)
(2.99998 1.48476e-05 0)
(2.99994 4.0336e-05 0)
(2.99987 8.24272e-05 0)
(2.99966 0.000224792 0)
(2.99926 0.000457749 0)
(2.99813 0.00126559 0)
(2.99591 0.00255293 0)
(2.98939 0.00728333 0)
(2.97626 0.0148526 0)
(2.93765 0.0434922 0)
(2.8437 0.101076 0)
(2.58598 0.292921 0)
(2.05057 0.693621 0)
(1.74528 0.905284 0)
(3 1.33174e-10 0)
(3 1.0277e-09 0)
(3 3.17077e-09 0)
(3 9.47288e-09 0)
(3 2.24311e-08 0)
(3 5.85526e-08 0)
(3 1.3141e-07 0)
(3 3.32629e-07 0)
(3 7.37201e-07 0)
(3 1.85205e-06 0)
(2.99999 4.09077e-06 0)
(2.99998 1.02597e-05 0)
(2.99996 2.26203e-05 0)
(2.99992 5.67686e-05 0)
(2.99979 0.000124907 0)
(2.99955 0.000314707 0)
(2.99886 0.000689802 0)
(2.99751 0.00176093 0)
(2.99356 0.00383981 0)
(2.98615 0.0100398 0)
(2.96247 0.0226309 0)
(2.9121 0.0602694 0)
(2.76396 0.153261 0)
(2.35044 0.424663 0)
(1.91051 0.813347 0)
(3 7.2429e-11 0)
(3 6.92385e-10 0)
(3 1.93759e-09 0)
(3 6.26697e-09 0)
(3 1.37714e-08 0)
(3 3.85033e-08 0)
(3 8.06715e-08 0)
(3 2.18091e-07 0)
(3 4.52214e-07 0)
(3 1.21214e-06 0)
(3 2.50845e-06 0)
(2.99999 6.7072e-06 0)
(2.99998 1.38771e-05 0)
(2.99995 3.70763e-05 0)
(2.99988 7.66333e-05 0)
(2.99973 0.000204963 0)
(2.99933 0.00042212 0)
(2.99854 0.00113866 0)
(2.99627 0.00231197 0)
(2.99195 0.0065043 0)
(2.97856 0.0127147 0)
(2.95198 0.0390191 0)
(2.87078 0.081718 0)
(2.64298 0.261099 0)
(2.1914 0.607616 0)
(3 4.37549e-11 0)
(3 4.16197e-10 0)
(3 1.16769e-09 0)
(3 3.77082e-09 0)
(3 8.2993e-09 0)
(3 2.31483e-08 0)
(3 4.85451e-08 0)
(3 1.30846e-07 0)
(3 2.71452e-07 0)
(3 7.2514e-07 0)
(3 1.50101e-06 0)
(2.99999 3.99817e-06 0)
(2.99999 8.27273e-06 0)
(2.99997 2.20081e-05 0)
(2.99993 4.55031e-05 0)
(2.99983 0.000121081 0)
(2.99964 0.000249745 0)
(2.99909 0.000667852 0)
(2.99802 0.00136661 0)
(2.99484 0.00375015 0)
(2.98916 0.00744963 0)
(2.96998 0.0219645 0)
(2.93248 0.0445064 0)
(2.81506 0.136881 0)
(2.4923 0.355233 0)
(3 4.37656e-11 0)
(3 2.00374e-10 0)
(3 8.17744e-10 0)
(3 1.94022e-09 0)
(3 5.66251e-09 0)
(3 1.20822e-08 0)
(3 3.28499e-08 0)
(3 6.84679e-08 0)
(3 1.82866e-07 0)
(3 3.79131e-07 0)
(3 1.00744e-06 0)
(3 2.08645e-06 0)
(2.99999 5.53399e-06 0)
(2.99998 1.14559e-05 0)
(2.99996 3.03714e-05 0)
(2.9999 6.27827e-05 0)
(2.99979 0.000166735 0)
(2.99947 0.000343513 0)
(2.99884 0.000922201 0)
(2.99702 0.00186523 0)
(2.99369 0.00526486 0)
(2.98276 0.0101343 0)
(2.96308 0.0313716 0)
(2.89782 0.0643829 0)
(2.72676 0.203833 0)
(3 2.57763e-11 0)
(3 1.19142e-10 0)
(3 4.84691e-10 0)
(3 1.15216e-09 0)
(3 3.35497e-09 0)
(3 7.16787e-09 0)
(3 1.94424e-08 0)
(3 4.05662e-08 0)
(3 1.08087e-07 0)
(3 2.24317e-07 0)
(3 5.94695e-07 0)
(3 1.23302e-06 0)
(3 3.26284e-06 0)
(2.99999 6.76526e-06 0)
(2.99998 1.7886e-05 0)
(2.99995 3.70711e-05 0)
(2.99987 9.80358e-05 0)
(2.99972 0.000202793 0)
(2.99929 0.000539224 0)
(2.99845 0.00110392 0)
(2.99606 0.00302851 0)
(2.9915 0.00594817 0)
(2.97764 0.017863 0)
(2.94884 0.0347921 0)
(2.86488 0.109645 0)
(3 1.04821e-11 0)
(3 8.07571e-11 0)
(3 2.49327e-10 0)
(3 7.42284e-10 0)
(3 1.75602e-09 0)
(3 4.5582e-09 0)
(3 1.02069e-08 0)
(3 2.56516e-08 0)
(3 5.66806e-08 0)
(3 1.41251e-07 0)
(3 3.1104e-07 0)
(3 7.73178e-07 0)
(3 1.70068e-06 0)
(2.99999 4.2236e-06 0)
(2.99999 9.2821e-06 0)
(2.99997 2.30498e-05 0)
(2.99992 5.05833e-05 0)
(2.99983 0.000125777 0)
(2.99959 0.000275451 0)
(2.9991 0.000689145 0)
(2.99773 0.00149898 0)
(2.99509 0.00384622 0)
(2.98713 0.0082311 0)
(2.97226 0.0220631 0)
(2.92512 0.0501036 0)
(3 5.33789e-12 0)
(3 5.02658e-11 0)
(3 1.41447e-10 0)
(3 4.53875e-10 0)
(3 1.00036e-09 0)
(3 2.76955e-09 0)
(3 5.80809e-09 0)
(3 1.55281e-08 0)
(3 3.21808e-08 0)
(3 8.52604e-08 0)
(3 1.76171e-07 0)
(3 4.65535e-07 0)
(3 9.61171e-07 0)
(3 2.53747e-06 0)
(2.99999 5.2371e-06 0)
(2.99998 1.38209e-05 0)
(2.99996 2.85005e-05 0)
(2.9999 7.52607e-05 0)
(2.99976 0.000154836 0)
(2.99947 0.00041037 0)
(2.99868 0.000839425 0)
(2.99712 0.00226176 0)
(2.99271 0.00453564 0)
(2.98366 0.0129721 0)
(2.95826 0.0254868 0)
(3 2.88273e-12 0)
(3 2.77151e-11 0)
(3 7.68504e-11 0)
(3 2.50027e-10 0)
(3 5.43768e-10 0)
(3 1.52282e-09 0)
(3 3.1489e-09 0)
(3 8.51076e-09 0)
(3 1.73707e-08 0)
(3 4.65417e-08 0)
(3 9.45949e-08 0)
(3 2.52998e-07 0)
(3 5.1318e-07 0)
(3 1.37272e-06 0)
(3 2.77981e-06 0)
(2.99999 7.4434e-06 0)
(2.99998 1.50395e-05 0)
(2.99994 4.03632e-05 0)
(2.99987 8.12574e-05 0)
(2.99967 0.000219206 0)
(2.99927 0.000438816 0)
(2.99817 0.00119668 0)
(2.99601 0.00238478 0)
(2.9898 0.00663316 0)
(2.97728 0.0134572 0)
(3 2.32932e-12 0)
(3 1.25244e-11 0)
(3 4.62501e-11 0)
(3 1.18603e-10 0)
(3 3.19421e-10 0)
(3 7.26779e-10 0)
(3 1.82698e-09 0)
(3 4.03869e-09 0)
(3 9.96233e-09 0)
(3 2.18483e-08 0)
(3 5.35527e-08 0)
(3 1.17131e-07 0)
(3 2.86192e-07 0)
(3 6.25066e-07 0)
(3 1.52357e-06 0)
(2.99999 3.3231e-06 0)
(2.99998 8.08215e-06 0)
(2.99996 1.7598e-05 0)
(2.99991 4.27195e-05 0)
(2.99977 9.28225e-05 0)
(2.9995 0.000225232 0)
(2.99874 0.000487488 0)
(2.99724 0.00118807 0)
(2.99288 0.00257574 0)
(2.98443 0.00623182 0)
(3 1.50581e-12 0)
(3 5.77524e-12 0)
(3 2.66233e-11 0)
(3 5.64984e-11 0)
(3 1.8108e-10 0)
(3 3.45318e-10 0)
(3 1.02671e-09 0)
(3 1.89177e-09 0)
(3 5.55415e-09 0)
(3 1.00321e-08 0)
(3 2.95943e-08 0)
(3 5.24718e-08 0)
(3 1.56482e-07 0)
(3 2.71612e-07 0)
(3 8.21924e-07 0)
(2.99999 1.38949e-06 0)
(2.99999 4.28613e-06 0)
(2.99997 6.99987e-06 0)
(2.99993 2.21791e-05 0)
(2.99982 3.45363e-05 0)
(2.9996 0.000113922 0)
(2.99897 0.000165079 0)
(2.99775 0.000587477 0)
(2.99399 0.000719668 0)
(2.98723 0.00317369 0)
(3 8.46712e-13 0)
(3 2.32133e-12 0)
(3 1.35373e-11 0)
(3 2.40563e-11 0)
(3 9.12886e-11 0)
(3 1.46576e-10 0)
(3 5.14453e-10 0)
(3 7.8559e-10 0)
(3 2.76312e-09 0)
(3 4.03428e-09 0)
(3 1.46026e-08 0)
(3 2.02644e-08 0)
(3 7.65332e-08 0)
(3 9.98091e-08 0)
(3 3.98242e-07 0)
(3 4.79693e-07 0)
(2.99999 2.05687e-06 0)
(2.99997 2.22485e-06 0)
(2.99993 1.05544e-05 0)
(2.99985 9.73101e-06 0)
(2.99961 5.40344e-05 0)
(2.99913 3.79945e-05 0)
(2.9977 0.000283259 0)
(2.99502 8.1161e-05 0)
(2.98597 0.00168439 0)
(3 2.25151e-13 0)
(3 1.81106e-12 0)
(3 5.61086e-12 0)
(3 1.63883e-11 0)
(3 3.86153e-11 0)
(3 9.79236e-11 0)
(3 2.17113e-10 0)
(3 5.30628e-10 0)
(3 1.15595e-09 0)
(3 2.79458e-09 0)
(3 6.05301e-09 0)
(3 1.45998e-08 0)
(3 3.15637e-08 0)
(3 7.62286e-08 0)
(3 1.64841e-07 0)
(3 3.99281e-07 0)
(2.99999 8.66178e-07 0)
(2.99997 2.10244e-06 0)
(2.99993 4.59846e-06 0)
(2.99985 1.10982e-05 0)
(2.99962 2.4585e-05 0)
(2.99916 5.65066e-05 0)
(2.99779 0.000135519 0)
(2.99515 0.000249998 0)
(2.98651 0.000712916 0)
(3 -1.19281e-13 0)
(3 1.75494e-12 0)
(3 1.35198e-12 0)
(3 1.41045e-11 0)
(3 1.02469e-11 0)
(3 8.35456e-11 0)
(3 5.52195e-11 0)
(3 4.65731e-10 0)
(3 2.71401e-10 0)
(3 2.56942e-09 0)
(3 1.30118e-09 0)
(3 1.42353e-08 0)
(3 6.30037e-09 0)
(3 7.9663e-08 0)
(3 3.17539e-08 0)
(3 4.51914e-07 0)
(2.99999 1.69466e-07 0)
(2.99998 2.60647e-06 0)
(2.99994 9.36809e-07 0)
(2.99986 1.52801e-05 0)
(2.99965 4.22376e-06 0)
(2.99922 9.35277e-05 0)
(2.99786 -8.91778e-06 0)
(2.99551 0.000617258 0)
(2.98658 -0.000499 0)
(3 4.64568e-14 0)
(3 2.77843e-13 0)
(3 8.99166e-13 0)
(3 2.68549e-12 0)
(3 6.37699e-12 0)
(3 1.61335e-11 0)
(3 3.55165e-11 0)
(3 8.54857e-11 0)
(3 1.84326e-10 0)
(3 4.37936e-10 0)
(3 9.37948e-10 0)
(3 2.22365e-09 0)
(3 4.75346e-09 0)
(3 1.12933e-08 0)
(3 2.41534e-08 0)
(3 5.76183e-08 0)
(2.99999 1.23438e-07 0)
(2.99998 2.96272e-07 0)
(2.99995 6.37009e-07 0)
(2.99986 1.54616e-06 0)
(2.99969 3.37673e-06 0)
(2.99915 8.14553e-06 0)
(2.99822 1.94338e-05 0)
(2.99474 4.01257e-05 0)
(2.98922 0.000115849 0)
(3 2.74163e-13 0)
(3 -8.3671e-13 0)
(3 1.53395e-12 0)
(3 -5.86417e-12 0)
(3 9.10531e-12 0)
(3 -3.50827e-11 0)
(3 5.18142e-11 0)
(3 -2.07284e-10 0)
(3 2.89262e-10 0)
(3 -1.22929e-09 0)
(3 1.59039e-09 0)
(3 -7.3319e-09 0)
(3 8.58495e-09 0)
(3 -4.40755e-08 0)
(3 4.51028e-08 0)
(3 -2.68134e-07 0)
(2.99999 2.28238e-07 0)
(2.99998 -1.65848e-06 0)
(2.99994 1.1149e-06 0)
(2.99987 -1.04119e-05 0)
(2.99965 6.27299e-06 0)
(2.99924 -6.87486e-05 0)
(2.99789 6.26214e-05 0)
(2.99559 -0.000497598 0)
(2.9867 0.000787595 0)
(3 1.72903e-15 0)
(3 -1.44812e-13 0)
(3 -4.05603e-13 0)
(3 -1.33887e-12 0)
(3 -3.18288e-12 0)
(3 -8.97536e-12 0)
(3 -2.03801e-11 0)
(3 -5.60616e-11 0)
(3 -1.26578e-10 0)
(3 -3.48015e-10 0)
(3 -7.84553e-10 0)
(3 -2.165e-09 0)
(3 -4.88514e-09 0)
(3 -1.35429e-08 0)
(3 -3.07424e-08 0)
(3 -8.52696e-08 0)
(2.99999 -1.96649e-07 0)
(2.99998 -5.37873e-07 0)
(2.99994 -1.27521e-06 0)
(2.99986 -3.33432e-06 0)
(2.99964 -8.13085e-06 0)
(2.9992 -1.75704e-05 0)
(2.99787 -5.60513e-05 0)
(2.99535 -4.35369e-05 0)
(2.98684 -0.000344406 0)
(1.21256 1.03577 0)
(1.39615 0.793408 0)
(0.862998 0.443091 0)
(0.0362536 0.363222 0)
(-0.269986 0.0488074 0)
(-0.44492 -0.00091887 0)
(-0.628523 -0.0251798 0)
(-0.716499 -0.0360652 0)
(-0.749216 -0.0189545 0)
(-0.773183 0.00337953 0)
(-0.814363 0.0208905 0)
(-0.866663 0.0237261 0)
(-0.914581 0.01841 0)
(-0.95214 0.0102928 0)
(-0.984598 0.00494684 0)
(-1.0181 0.00286723 0)
(-1.05317 0.00229492 0)
(-1.08753 0.00240732 0)
(-1.11889 0.00253801 0)
(-1.14643 0.00229099 0)
(-1.17213 0.00165583 0)
(-1.19936 0.00175233 0)
(-1.22469 0.00394315 0)
(-1.24112 0.00468027 0)
(-1.24914 0.00414307 0)
(-1.25268 0.00299679 0)
(-1.24532 0.00163242 0)
(-1.21729 -0.00142053 0)
(-1.1668 -0.0059828 0)
(-1.0976 -0.0113575 0)
(-1.01566 -0.0162804 0)
(-0.926634 -0.0202813 0)
(-0.834255 -0.0232992 0)
(-0.740881 -0.0255134 0)
(-0.648783 -0.0270219 0)
(-0.560053 -0.0279338 0)
(-0.475513 -0.0287422 0)
(-0.395462 -0.0299641 0)
(-0.316906 -0.0329851 0)
(-0.242457 -0.0342385 0)
(-0.171396 -0.0346465 0)
(-0.102659 -0.0362444 0)
(-0.0398787 -0.0413936 0)
(0.0343967 -0.0350753 0)
(0.0912511 -0.0309949 0)
(0.148799 -0.0296693 0)
(0.201916 -0.0283991 0)
(0.252176 -0.0270866 0)
(0.299751 -0.0258457 0)
(0.343616 -0.0244664 0)
(0.386435 -0.0237152 0)
(0.4303 -0.0236427 0)
(0.472769 -0.022937 0)
(0.512489 -0.0217646 0)
(0.550155 -0.0207643 0)
(0.585969 -0.0198514 0)
(0.620158 -0.0190403 0)
(0.652672 -0.0182672 0)
(0.683572 -0.0175335 0)
(0.712858 -0.0168477 0)
(0.740543 -0.0161989 0)
(0.766659 -0.015592 0)
(0.791222 -0.0150229 0)
(0.814274 -0.0144875 0)
(0.835878 -0.0139834 0)
(0.856114 -0.0135083 0)
(0.875096 -0.0130571 0)
(0.892971 -0.0126307 0)
(0.90991 -0.0122238 0)
(0.926101 -0.0118351 0)
(0.941736 -0.0114543 0)
(0.957003 -0.0110785 0)
(0.972074 -0.0106943 0)
(0.987114 -0.010303 0)
(1.00227 -0.00990244 0)
(1.01767 -0.0095011 0)
(1.03341 -0.00910277 0)
(1.04956 -0.00870996 0)
(1.06616 -0.00832501 0)
(1.08321 -0.00794127 0)
(1.10068 -0.00756194 0)
(1.11854 -0.00717871 0)
(1.13674 -0.00679511 0)
(1.1552 -0.00640904 0)
(1.17387 -0.00602459 0)
(1.19269 -0.00564165 0)
(1.21158 -0.00526427 0)
(1.23049 -0.00489044 0)
(1.24935 -0.00452144 0)
(1.26812 -0.00415157 0)
(1.2867 -0.00377819 0)
(1.30501 -0.00339282 0)
(1.32293 -0.00299179 0)
(1.34028 -0.00256082 0)
(1.35684 -0.00209125 0)
(1.37229 -0.00154874 0)
(1.3862 -0.000947567 0)
(1.39803 -0.000279604 0)
(1.40682 0.000509224 0)
(1.41326 0.00139045 0)
(1.27613 0.949844 0)