/*--------------------------------*- C++ -*----------------------------------*\
| =========                 |                                                 |
| \\      /  F ield         | OpenFOAM: The Open Source CFD Toolbox           |
|  \\    /   O peration     | Version:  2112                                  |
|   \\  /    A nd           | Website:  www.openfoam.com                      |
|    \\/     M anipulation  |                                                 |
\*---------------------------------------------------------------------------*/
FoamFile
{
    version     2.0;
    format      ascii;
    arch        "LSB;label=32;scalar=64";
    class       volVectorField;
    location    "6.5";
    object      U;
}
// * * * * * * * * * * * * * * * * * * * * * * * * * * * * * * * * * * * * * //

dimensions      [0 1 -1 0 0 0 0];

internalField   nonuniform List<vector> 
8800
(
(0.979662 -0.0914125 0)
(1.00231 -0.0587679 0)
(0.999873 -0.0320186 0)
(0.999707 -0.0160482 0)
(0.999441 -0.00827262 0)
(0.999633 -0.00480519 0)
(0.999818 -0.00297126 0)
(0.999907 -0.00180103 0)
(0.999975 -0.000891813 0)
(1.00005 -0.00013619 0)
(1 0.000584498 0)
(0.99994 0.00141133 0)
(0.999865 0.00241485 0)
(0.999747 0.00383829 0)
(0.999438 0.00624586 0)
(0.999488 0.0114492 0)
(0.999917 0.0228085 0)
(0.999394 0.04314 0)
(1.00676 0.0791431 0)
(0.774989 0.0478531 0)
(0.360576 -0.0145019 0)
(1.04765 -0.0711788 0)
(1.08754 -0.0642695 0)
(1.0486 -0.0489691 0)
(1.02572 -0.0361075 0)
(1.01334 -0.0244108 0)
(1.00679 -0.015162 0)
(1.00361 -0.00885087 0)
(1.00205 -0.00466343 0)
(1.00138 -0.00172413 0)
(1.00128 0.000777408 0)
(1.00161 0.00340522 0)
(1.00266 0.00681333 0)
(1.00487 0.0119073 0)
(1.00951 0.0196495 0)
(1.01855 0.0302089 0)
(1.03565 0.042707 0)
(1.06596 0.0558599 0)
(1.09471 0.0695451 0)
(0.847464 0.0549693 0)
(0.223841 -0.0011437 0)
(1.07979 -0.046227 0)
(1.10121 -0.0437458 0)
(1.06463 -0.034541 0)
(1.0397 -0.0271547 0)
(1.02348 -0.020899 0)
(1.01363 -0.0152829 0)
(1.00807 -0.0100608 0)
(1.00526 -0.00540559 0)
(1.00428 -0.000822618 0)
(1.00455 0.0038555 0)
(1.00634 0.00825362 0)
(1.01032 0.0131173 0)
(1.01772 0.0184474 0)
(1.03036 0.0241213 0)
(1.05073 0.0309927 0)
(1.08116 0.0389387 0)
(1.10907 0.0469915 0)
(0.950597 0.0378873 0)
(0.223615 0.00115126 0)
(0.191458 -0.00015254 0)
(1.03084 -0.0236826 0)
(1.10529 -0.0303378 0)
(1.0751 -0.0289037 0)
(1.04895 -0.0257812 0)
(1.03212 -0.0216646 0)
(1.02124 -0.0168698 0)
(1.01436 -0.0117554 0)
(1.01034 -0.00639295 0)
(1.00868 -0.000892483 0)
(1.00913 0.00446676 0)
(1.01186 0.00986303 0)
(1.01715 0.0149856 0)
(1.02579 0.0198771 0)
(1.0393 0.0243289 0)
(1.06013 0.0277708 0)
(1.09214 0.0302205 0)
(1.09788 0.0291005 0)
(0.856757 0.014236 0)
(0.191103 0.00015899 0)
(0.185921 6.89442e-05 0)
(0.989691 -0.00831593 0)
(1.09112 -0.0176417 0)
(1.0732 -0.0223965 0)
(1.05092 -0.0235116 0)
(1.0357 -0.0218576 0)
(1.02526 -0.0183295 0)
(1.01826 -0.0134514 0)
(1.01392 -0.00759949 0)
(1.01186 -0.000935925 0)
(1.01245 0.00582199 0)
(1.01547 0.0119156 0)
(1.02097 0.017116 0)
(1.0295 0.021169 0)
(1.04202 0.0236433 0)
(1.0605 0.0238331 0)
(1.08555 0.0208524 0)
(1.07148 0.0138528 0)
(0.811862 0.00321682 0)
(0.185372 -6.24361e-05 0)
(0.185181 1.4968e-05 0)
(0.96358 -0.00396266 0)
(1.0703 -0.0119376 0)
(1.06521 -0.0181965 0)
(1.05148 -0.020692 0)
(1.04051 -0.0200246 0)
(1.03216 -0.0173402 0)
(1.02586 -0.0130214 0)
(1.02151 -0.00744033 0)
(1.01928 -0.000654669 0)
(1.01984 0.00631928 0)
(1.02288 0.0123149 0)
(1.02804 0.0170133 0)
(1.03518 0.0202739 0)
(1.04459 0.0216943 0)
(1.05712 0.0207525 0)
(1.07046 0.0161066 0)
(1.04486 0.00821283 0)
(0.792898 0.00138838 0)
(0.184398 -5.35075e-06 0)
(0.18508 2.94274e-05 0)
(0.948692 -0.00154197 0)
(1.05233 -0.00627109 0)
(1.0549 -0.0111196 0)
(1.04787 -0.0140629 0)
(1.04083 -0.0148482 0)
(1.03453 -0.0136111 0)
(1.02923 -0.0106031 0)
(1.02524 -0.00608632 0)
(1.02317 -0.00015139 0)
(1.02356 0.00603858 0)
(1.0263 0.0110685 0)
(1.03062 0.0145159 0)
(1.03627 0.0162811 0)
(1.04285 0.016169 0)
(1.04989 0.0139601 0)
(1.05518 0.00966811 0)
(1.02542 0.00409752 0)
(0.78385 0.000523022 0)
(0.184 -1.57416e-05 0)
(0.185141 1.05469e-05 0)
(0.94186 -0.000710777 0)
(1.04221 -0.00300706 0)
(1.04784 -0.00578019 0)
(1.0448 -0.00790642 0)
(1.04099 -0.00892188 0)
(1.03698 -0.008616 0)
(1.03308 -0.00689134 0)
(1.02985 -0.00374872 0)
(1.02807 0.00063125 0)
(1.02821 0.00517705 0)
(1.0303 0.00862189 0)
(1.03333 0.0106107 0)
(1.03705 0.0111087 0)
(1.0408 0.0102386 0)
(1.04415 0.00818377 0)
(1.04538 0.00526234 0)
(1.015 0.00217867 0)
(0.779584 0.00037145 0)
(0.183733 5.26953e-06 0)
(0.185224 1.29021e-05 0)
(0.938774 -0.000232856 0)
(1.03715 -0.00125984 0)
(1.04359 -0.00264108 0)
(1.04225 -0.00386761 0)
(1.04016 -0.00460088 0)
(1.03765 -0.00458777 0)
(1.03493 -0.0036102 0)
(1.03245 -0.00155258 0)
(1.03086 0.00141597 0)
(1.03074 0.0044567 0)
(1.03209 0.00652579 0)
(1.03399 0.0074468 0)
(1.03621 0.00729753 0)
(1.03824 0.00630383 0)
(1.03981 0.0047477 0)
(1.03957 0.00293834 0)
(1.00953 0.00125575 0)
(0.777114 0.000262291 0)
(0.183421 6.53652e-06 0)
(0.185437 1.66058e-05 0)
(0.937569 3.29512e-05 0)
(1.03492 -0.0003683 0)
(1.04156 -0.00096394 0)
(1.04094 -0.00152305 0)
(1.03974 -0.00186351 0)
(1.03814 -0.00180477 0)
(1.03624 -0.00115311 0)
(1.03433 0.000212922 0)
(1.03288 0.0021849 0)
(1.03246 0.00411912 0)
(1.03309 0.00524935 0)
(1.03412 0.00550893 0)
(1.0353 0.00508398 0)
(1.0363 0.00419101 0)
(1.037 0.00306677 0)
(1.0362 0.00190579 0)
(1.00644 0.000885003 0)
(0.77547 0.000234665 0)
(0.183121 1.08769e-05 0)
(0.185756 1.8085e-05 0)
(0.937408 0.00021329 0)
(1.03412 0.000156727 0)
(1.04079 5.33874e-06 0)
(1.04046 -0.000119047 0)
(1.03968 -0.000123788 0)
(1.03857 9.79818e-05 0)
(1.03715 0.000670078 0)
(1.03558 0.00166906 0)
(1.03417 0.00301059 0)
(1.03342 0.00418974 0)
(1.03343 0.00471424 0)
(1.03382 0.00457394 0)
(1.0343 0.00402167 0)
(1.03472 0.00322098 0)
(1.03499 0.00233963 0)
(1.03397 0.00149207 0)
(1.00435 0.000759592 0)
(0.774117 0.00024317 0)
(0.182771 1.49165e-05 0)
(0.186169 2.19797e-05 0)
(0.937827 0.000359004 0)
(1.03418 0.00052629 0)
(1.04083 0.000665669 0)
(1.04061 0.000848926 0)
(1.04002 0.00112087 0)
(1.03913 0.00153776 0)
(1.03794 0.00215829 0)
(1.03651 0.00300253 0)
(1.03501 0.0039663 0)
(1.03392 0.00464509 0)
(1.0334 0.00476959 0)
(1.03327 0.00436516 0)
(1.03329 0.00368934 0)
(1.03335 0.00290518 0)
(1.03338 0.00211735 0)
(1.03222 0.00139118 0)
(1.00266 0.00076349 0)
(0.772804 0.000276942 0)
(0.182349 1.96027e-05 0)
(0.186706 2.82676e-05 0)
(0.938785 0.000515951 0)
(1.03482 0.000867049 0)
(1.04144 0.00122775 0)
(1.04125 0.00165452 0)
(1.04071 0.00217082 0)
(1.0399 0.00279618 0)
(1.03875 0.00353967 0)
(1.03728 0.00436467 0)
(1.03557 0.00512414 0)
(1.03407 0.00545691 0)
(1.0331 0.00521161 0)
(1.03252 0.00462636 0)
(1.03219 0.00383774 0)
(1.032 0.00299824 0)
(1.03186 0.00219771 0)
(1.03061 0.00147861 0)
(1.00104 0.000853821 0)
(0.771369 0.000333012 0)
(0.181826 2.52388e-05 0)
(0.187401 3.57238e-05 0)
(0.940227 0.000688225 0)
(1.03599 0.00121556 0)
(1.04255 0.00178362 0)
(1.04234 0.00244345 0)
(1.04178 0.0032046 0)
(1.04091 0.00406343 0)
(1.03967 0.00498845 0)
(1.038 0.00589078 0)
(1.03595 0.00656571 0)
(1.03397 0.00666294 0)
(1.03253 0.00616132 0)
(1.03156 0.00533109 0)
(1.03093 0.00436553 0)
(1.03053 0.00339721 0)
(1.03026 0.00250025 0)
(1.02893 0.00170664 0)
(0.999289 0.0010139 0)
(0.769685 0.000410342 0)
(0.181172 3.20983e-05 0)
(0.188293 4.56521e-05 0)
(0.942197 0.00089846 0)
(1.03767 0.00161901 0)
(1.04415 0.00240857 0)
(1.04389 0.00331867 0)
(1.04323 0.00435197 0)
(1.04223 0.00548452 0)
(1.04077 0.00665082 0)
(1.03878 0.00770735 0)
(1.03624 0.00838147 0)
(1.03368 0.00829893 0)
(1.03171 0.00754008 0)
(1.03033 0.00643839 0)
(1.02941 0.00523456 0)
(1.0288 0.00406529 0)
(1.02841 0.00299966 0)
(1.027 0.00206381 0)
(0.99725 0.00124448 0)
(0.767631 0.000512936 0)
(0.180349 4.06558e-05 0)
(0.189441 5.87523e-05 0)
(0.944793 0.00116472 0)
(1.03994 0.00211499 0)
(1.04632 0.0031625 0)
(1.04596 0.00436619 0)
(1.04516 0.00572243 0)
(1.04393 0.0071896 0)
(1.04214 0.00866562 0)
(1.03967 0.00994865 0)
(1.03647 0.010683 0)
(1.03318 0.0104401 0)
(1.0306 0.00939077 0)
(1.02877 0.00796666 0)
(1.02752 0.00645303 0)
(1.02671 0.00500484 0)
(1.02618 0.00369684 0)
(1.02468 0.00255288 0)
(0.994773 0.00155027 0)
(0.76508 0.000643962 0)
(0.179313 5.12087e-05 0)
(0.190923 7.60211e-05 0)
(0.948168 0.00150731 0)
(1.04291 0.00274415 0)
(1.04915 0.00410996 0)
(1.04866 0.00567443 0)
(1.04765 0.00742987 0)
(1.0461 0.00931333 0)
(1.04384 0.0111829 0)
(1.04072 0.0127674 0)
(1.03667 0.0136082 0)
(1.03248 0.0131973 0)
(1.02915 0.0118014 0)
(1.02678 0.0099748 0)
(1.02516 0.00806234 0)
(1.0241 0.0062481 0)
(1.02342 0.0046164 0)
(1.02181 0.00319224 0)
(0.9917 0.00194412 0)
(0.761883 0.000809951 0)
(0.178009 6.43431e-05 0)
(0.192844 9.89573e-05 0)
(0.952535 0.00195403 0)
(1.04677 0.00355751 0)
(1.05283 0.00532732 0)
(1.05215 0.00734758 0)
(1.05084 0.0096057 0)
(1.04886 0.012014 0)
(1.04598 0.0143799 0)
(1.042 0.0163468 0)
(1.03685 0.0173295 0)
(1.03151 0.0167176 0)
(1.02727 0.0148909 0)
(1.02425 0.0125553 0)
(1.02219 0.0101332 0)
(1.02084 0.00784803 0)
(1.01997 0.00579858 0)
(1.01823 0.00401267 0)
(0.987852 0.00244597 0)
(0.757861 0.00101906 0)
(0.17637 8.06675e-05 0)
(0.195351 0.00012982 0)
(0.958176 0.00254464 0)
(1.05173 0.00462722 0)
(1.05755 0.00691881 0)
(1.05662 0.0095216 0)
(1.05492 0.0124188 0)
(1.05235 0.0154902 0)
(1.04864 0.0184775 0)
(1.04354 0.0209154 0)
(1.03698 0.0220621 0)
(1.03022 0.0211865 0)
(1.02486 0.0188127 0)
(1.02104 0.0158319 0)
(1.01843 0.012765 0)
(1.01672 0.00988211 0)
(1.01563 0.00730088 0)
(1.01373 0.0050525 0)
(0.98301 0.00307915 0)
(0.752798 0.0012811 0)
(0.174314 0.000100835 0)
(0.198652 0.000172754 0)
(0.96547 0.00334081 0)
(1.05809 0.00606373 0)
(1.06361 0.00903522 0)
(1.06234 0.0123818 0)
(1.0601 0.0160912 0)
(1.05674 0.020001 0)
(1.05192 0.0237601 0)
(1.04537 0.0267613 0)
(1.03702 0.0280737 0)
(1.02848 0.0268355 0)
(1.02174 0.0237616 0)
(1.01694 0.0199664 0)
(1.01367 0.0160877 0)
(1.01153 0.012453 0)
(1.01017 0.00920296 0)
(1.00807 0.00636871 0)
(0.976915 0.00387686 0)
(0.746422 0.00160875 0)
(0.171738 0.000125922 0)
(0.203061 0.000236914 0)
(0.974949 0.00445509 0)
(1.06628 0.00804685 0)
(1.0714 0.0118877 0)
(1.06965 0.0161673 0)
(1.06665 0.0209113 0)
(1.06219 0.0258845 0)
(1.0559 0.0305927 0)
(1.04747 0.0342437 0)
(1.03687 0.0356887 0)
(1.02615 0.0339432 0)
(1.01773 0.0299736 0)
(1.01174 0.0251596 0)
(1.00765 0.0202713 0)
(1.00498 0.0157045 0)
(1.00328 0.0116229 0)
(1.00095 0.00805261 0)
(0.96924 0.00489665 0)
(0.738385 0.00202633 0)
(0.16851 0.000158526 0)
(0.209081 0.000339785 0)
(0.98742 0.00608721 0)
(1.07698 0.0108332 0)
(1.0816 0.0157271 0)
(1.07909 0.0211689 0)
(1.07497 0.0272571 0)
(1.06896 0.0335911 0)
(1.06066 0.0394473 0)
(1.04979 0.0438067 0)
(1.03639 0.0452928 0)
(1.02302 0.042836 0)
(1.01257 0.0377332 0)
(1.00514 0.031663 0)
(1.00006 0.0255384 0)
(0.996723 0.0198356 0)
(0.994625 0.0147413 0)
(0.992002 0.0102605 0)
(0.959565 0.00624635 0)
(0.728202 0.00257824 0)
(0.164449 0.000204133 0)
(0.217531 0.000507028 0)
(1.00417 0.00855777 0)
(1.09141 0.0147504 0)
(1.09526 0.0208912 0)
(1.09151 0.027871 0)
(1.08565 0.0357727 0)
(1.07741 0.0438207 0)
(1.06639 0.0509844 0)
(1.05234 0.0560141 0)
(1.03546 0.0573392 0)
(1.01891 0.0538905 0)
(1.00606 0.04738 0)
(0.996893 0.0397969 0)
(0.990562 0.0321898 0)
(0.986371 0.0251279 0)
(0.983725 0.0188314 0)
(0.980718 0.0132618 0)
(0.947341 0.00814757 0)
(0.715221 0.00336214 0)
(0.159298 0.000273103 0)
(0.229798 0.00078189 0)
(1.02704 0.0124801 0)
(1.1111 0.0204756 0)
(1.11365 0.028303 0)
(1.1079 0.0375159 0)
(1.09946 0.0477873 0)
(1.08804 0.0577618 0)
(1.07329 0.0661569 0)
(1.05517 0.0715763 0)
(1.03404 0.0723379 0)
(1.01375 0.0675102 0)
(0.998063 0.0592899 0)
(0.986791 0.0499411 0)
(0.978876 0.0406079 0)
(0.973507 0.0319481 0)
(0.97002 0.0242399 0)
(0.966407 0.0174056 0)
(0.931911 0.0109259 0)
(0.698758 0.00453867 0)
(0.152741 0.000373169 0)
(0.248283 0.00130129 0)
(1.05855 0.0193412 0)
(1.13763 0.02967 0)
(1.13785 0.0400923 0)
(1.12895 0.052374 0)
(1.11667 0.065246 0)
(1.10076 0.0768978 0)
(1.08113 0.0860138 0)
(1.058 0.0911862 0)
(1.03192 0.0907361 0)
(1.00736 0.0840198 0)
(0.988437 0.0737706 0)
(0.974672 0.0624457 0)
(0.964763 0.051197 0)
(0.957758 0.040711 0)
(0.952939 0.0313306 0)
(0.948286 0.0229679 0)
(0.912551 0.0148276 0)
(0.678283 0.00624778 0)
(0.144462 0.000494301 0)
(0.276263 0.00256221 0)
(1.10381 0.0329922 0)
(1.17361 0.0462382 0)
(1.16881 0.0602467 0)
(1.15435 0.0756785 0)
(1.1361 0.0903764 0)
(1.11412 0.102692 0)
(1.08855 0.111459 0)
(1.05976 0.115353 0)
(1.02831 0.112808 0)
(0.999233 0.10362 0)
(0.976849 0.0910571 0)
(0.960305 0.0776576 0)
(0.948029 0.0644747 0)
(0.938915 0.0521115 0)
(0.932194 0.0409255 0)
(0.925812 0.0307667 0)
(0.887968 0.0206271 0)
(0.652546 0.00860818 0)
(0.134581 0.000597337 0)
(0.317206 0.0107674 -1.28812e-20)
(1.16391 0.0613345 -9.48117e-21)
(1.21873 0.0781992 2.51526e-21)
(1.20428 0.0951676 0)
(1.18156 0.111568 -2.33477e-36)
(1.15553 0.12589 1.90944e-22)
(1.12634 0.136998 -1.2779e-21)
(1.09413 0.143886 0)
(1.05923 0.145385 4.73692e-35)
(1.02208 0.140031 -3.57171e-21)
(0.988144 0.128108 0)
(0.961872 0.113309 -5.13926e-21)
(0.94201 0.0980967 -1.57444e-20)
(0.926674 0.083395 -7.63416e-21)
(0.914569 0.0697785 -2.40951e-21)
(0.904786 0.0576384 -1.46331e-21)
(0.895236 0.0468469 0)
(0.85536 0.0357446 1.06306e-21)
(0.618086 0.0207345 1.26072e-21)
(0.124479 0.00379772 2.25277e-20)
(0.337743 0.0295452 -2.489e-20)
(1.21354 0.110417 5.136e-22)
(1.25962 0.129137 -1.29709e-21)
(1.23657 0.143993 0)
(1.20594 0.158386 1.91291e-21)
(1.17254 0.170653 9.50824e-22)
(1.13639 0.17964 -8.05635e-22)
(1.09755 0.18428 -5.99731e-21)
(1.05623 0.183391 0)
(1.01273 0.175561 1.49918e-20)
(0.972946 0.161494 1.66276e-20)
(0.941624 0.145296 5.34551e-21)
(0.917246 0.129353 2.12486e-20)
(0.897633 0.114379 3.15181e-20)
(0.881356 0.100883 0)
(0.867332 0.0893115 4.72457e-20)
(0.853181 0.0796359 6.95949e-20)
(0.810771 0.0696678 7.80907e-20)
(0.592035 0.0489779 -9.15808e-20)
(0.123224 0.010569 -1.67537e-21)
(0.325284 0.047584 0)
(1.2428 0.174079 -7.30015e-21)
(1.2897 0.192627 0)
(1.26091 0.203319 1.12595e-20)
(1.22413 0.213441 0)
(1.18461 0.221681 5.52621e-21)
(1.14247 0.226997 8.13345e-22)
(1.09786 0.228277 -8.63868e-21)
(1.0509 0.224301 -1.49596e-21)
(1.00177 0.213698 7.1475e-21)
(0.956846 0.197609 3.84683e-20)
(0.921379 0.180386 -2.14363e-22)
(0.893605 0.1643 -1.58974e-20)
(0.871113 0.149954 -3.09209e-20)
(0.85243 0.137649 3.76939e-20)
(0.836499 0.127618 -6.7765e-20)
(0.821385 0.119758 -9.31813e-21)
(0.783346 0.110669 0)
(0.583768 0.0827473 5.65785e-22)
(0.128385 0.018651 0)
(0.311133 0.0629231 -1.851e-19)
(1.25549 0.240634 7.52575e-20)
(1.3075 0.260483 3.92679e-20)
(1.27555 0.267095 -7.40951e-21)
(1.23483 0.272433 1.12852e-20)
(1.19101 0.276097 -1.3623e-20)
(1.14441 0.277129 6.61942e-22)
(1.09524 0.27447 0)
(1.04374 0.266962 -2.72782e-20)
(0.990101 0.253258 0)
(0.941224 0.234952 -1.93196e-20)
(0.902757 0.216618 -2.75063e-20)
(0.872815 0.200284 -1.76613e-20)
(0.84889 0.186244 -2.28863e-20)
(0.829349 0.174552 0)
(0.813039 0.165292 0)
(0.798102 0.158305 -6.21165e-20)
(0.762745 0.149051 1.24451e-20)
(0.574198 0.112433 -7.33969e-21)
(0.128313 0.0254852 -8.59548e-21)
(0.299465 0.0766181 1.34701e-19)
(1.25698 0.306657 0)
(1.315 0.32842 -1.08626e-19)
(1.28141 0.331173 -2.76893e-20)
(1.23832 0.331982 -2.10499e-20)
(1.1918 0.331149 0)
(1.14217 0.327912 -2.8798e-21)
(1.08969 0.321271 7.04394e-21)
(1.03463 0.310094 1.15679e-20)
(0.977274 0.293151 3.51118e-20)
(0.92517 0.27245 0)
(0.884463 0.252732 -5.93519e-20)
(0.853125 0.235747 -3.81592e-20)
(0.828409 0.221511 -2.30214e-20)
(0.808554 0.209875 1.51878e-19)
(0.792289 0.200699 1.86649e-20)
(0.777752 0.193743 8.94799e-20)
(0.744049 0.183628 -4.35165e-19)
(0.56279 0.139106 2.6123e-19)
(0.126911 0.0317292 -3.1579e-19)
(0.290914 0.0893006 1.40374e-19)
(1.25171 0.369508 -2.57597e-20)
(1.31499 0.394182 1.88809e-20)
(1.28063 0.393438 5.12453e-20)
(1.2361 0.390144 3.14285e-20)
(1.18783 0.385268 1.54738e-21)
(1.13609 0.378055 2.67427e-21)
(1.08118 0.367585 4.56164e-21)
(1.02343 0.352799 -2.48221e-20)
(0.963258 0.332583 0)
(0.908712 0.309343 -2.53316e-20)
(0.866355 0.287983 -1.45086e-21)
(0.834073 0.269962 -4.2635e-20)
(0.808927 0.255097 0)
(0.789004 0.243025 -3.30769e-20)
(0.772911 0.233485 -8.05596e-20)
(0.758726 0.226141 2.23738e-19)
(0.726258 0.214932 -2.24632e-19)
(0.551032 0.163185 3.21309e-19)
(0.124765 0.0373053 -3.35068e-19)
(0.284562 0.101205 -5.05824e-22)
(1.24239 0.428528 3.09994e-20)
(1.30942 0.456538 8.98029e-20)
(1.27486 0.45294 -3.11879e-20)
(1.22961 0.446101 1.78168e-20)
(1.18025 0.437565 0)
(1.12711 0.426708 8.47652e-21)
(1.07051 0.412669 -2.81405e-21)
(1.01081 0.394462 -1.09013e-20)
(0.94842 0.371053 0)
(0.891895 0.345214 -2.4144e-20)
(0.848211 0.32198 -3.45132e-20)
(0.81521 0.302612 4.65132e-20)
(0.789805 0.286753 -3.00062e-20)
(0.769909 0.273924 -1.45672e-19)
(0.754032 0.263733 8.98573e-20)
(0.740215 0.255769 2.86797e-20)
(0.708774 0.243392 0)
(0.538855 0.184945 -3.12172e-19)
(0.122108 0.0422596 -1.14796e-20)
(0.279685 0.112593 2.24992e-20)
(1.23085 0.483556 -3.5264e-20)
(1.29997 0.515045 -4.8604e-20)
(1.26547 0.50908 -9.50258e-20)
(1.21994 0.499243 8.58442e-20)
(1.16997 0.487504 -4.63885e-20)
(1.11591 0.473336 -1.81577e-20)
(1.05811 0.456012 -3.24878e-21)
(0.996968 0.434652 1.12155e-20)
(0.932883 0.408224 -8.24944e-20)
(0.874718 0.37982 -2.99029e-20)
(0.829861 0.354566 0)
(0.796259 0.333605 5.08618e-20)
(0.770649 0.316468 6.32772e-20)
(0.750831 0.302594 7.82671e-20)
(0.735215 0.291544 -9.83696e-20)
(0.721764 0.282768 -2.97302e-20)
(0.691308 0.269095 3.54251e-20)
(0.526253 0.204479 0)
(0.119064 0.046596 -2.51912e-20)
(0.275659 0.123475 -2.5708e-19)
(1.21819 0.534738 1.61104e-19)
(1.288 0.569673 5.25816e-20)
(1.25353 0.561755 -7.18251e-20)
(1.20792 0.549312 5.09139e-20)
(1.15764 0.534745 -3.44257e-21)
(1.10304 0.517607 1.82207e-20)
(1.04444 0.497313 -1.49248e-21)
(0.982295 0.473081 -1.86308e-20)
(0.916907 0.443911 -1.01143e-22)
(0.857296 0.413063 -8.73373e-20)
(0.811294 0.385738 8.82376e-20)
(0.777048 0.36299 -5.72689e-20)
(0.75121 0.344312 7.18524e-20)
(0.731474 0.329163 0)
(0.716132 0.317029 -5.37772e-20)
(0.703091 0.307316 -1.37535e-21)
(0.673587 0.292183 -1.55926e-19)
(0.513138 0.221945 -2.31387e-20)
(0.115586 0.0502782 0)
(0.272262 0.133776 0)
(1.2049 0.582572 1.71737e-19)
(1.2744 0.620657 1.21756e-19)
(1.2399 0.611006 8.04843e-20)
(1.1943 0.596299 4.91055e-20)
(1.1439 0.579218 0)
(1.08901 0.559427 1.65733e-20)
(1.02995 0.536404 -1.32565e-21)
(0.96711 0.509579 3.77264e-20)
(0.900729 0.478001 -9.54833e-21)
(0.839769 0.444957 -6.3902e-20)
(0.792552 0.415601 4.36251e-20)
(0.757483 0.390925 -2.16235e-21)
(0.731305 0.370467 7.57981e-20)
(0.711592 0.353771 5.02165e-20)
(0.69653 0.340326 -1.17682e-19)
(0.683954 0.32943 1.43309e-19)
(0.6554 0.312746 4.31838e-20)
(0.499365 0.237265 1.79541e-19)
(0.111565 0.0532398 -4.80586e-19)
(0.269392 0.143711 -6.43469e-20)
(1.19168 0.627188 9.84186e-20)
(1.2597 0.66815 -7.48641e-20)
(1.22518 0.656961 -9.22044e-20)
(1.1796 0.640251 0)
(1.12916 0.620926 3.94302e-20)
(1.07419 0.598728 -4.87792e-20)
(1.01494 0.573246 -2.72871e-21)
(0.951713 0.544059 0)
(0.884593 0.510426 -1.46448e-19)
(0.822378 0.475567 1.72326e-19)
(0.773698 0.444349 0)
(0.73752 0.417654 6.8472e-20)
(0.710773 0.39516 -2.36141e-21)
(0.690965 0.376621 -1.60189e-19)
(0.676131 0.36158 6.28635e-20)
(0.664037 0.349321 0)
(0.636509 0.33091 2.35698e-19)
(0.484681 0.250578 0)
(0.107026 0.0554187 -2.30896e-19)
(0.266944 0.153282 7.08618e-20)
(1.17847 0.669249 1.11917e-19)
(1.24433 0.712439 -7.80769e-20)
(1.20975 0.699835 0)
(1.16427 0.681314 6.59209e-20)
(1.11382 0.659964 0)
(1.05886 0.635546 6.2873e-20)
(0.999632 0.607807 8.04002e-21)
(0.936371 0.5765 2.58034e-21)
(0.868791 0.541141 -7.10704e-20)
(0.805334 0.505001 1.62318e-20)
(0.754928 0.472218 0)
(0.717175 0.443459 -1.46137e-19)
(0.689453 0.418688 2.53197e-21)
(0.669325 0.397948 0)
(0.654629 0.380983 2.77566e-21)
(0.643034 0.367047 2.15765e-19)
(0.616537 0.346657 -2.09688e-19)
(0.468901 0.261644 6.20991e-20)
(0.101769 0.056708 0)
(0.264686 0.162406 0)
(1.16527 0.708996 1.23688e-19)
(1.22878 0.753642 9.04559e-20)
(1.1939 0.739852 -2.00448e-21)
(1.14854 0.719667 4.07467e-20)
(1.09818 0.696448 9.18884e-20)
(1.04328 0.66997 -2.07503e-20)
(0.984197 0.640085 4.75164e-21)
(0.921218 0.606879 1.68888e-20)
(0.853588 0.570158 -1.04663e-19)
(0.788972 0.533335 -2.34318e-21)
(0.736419 0.499488 -5.78098e-20)
(0.696484 0.468758 2.41808e-19)
(0.667227 0.441422 -3.2297e-21)
(0.646382 0.418077 -1.2992e-19)
(0.631682 0.398776 -2.38188e-19)
(0.620553 0.382836 0)
(0.595077 0.360097 0)
(0.451667 0.270401 6.99969e-20)
(0.0956001 0.0570516 -4.07299e-20)
(0.262981 0.171236 8.61886e-20)
(1.15223 0.746277 -2.66314e-19)
(1.21313 0.792083 -9.584e-20)
(1.17799 0.777179 0)
(1.13264 0.755496 -1.08441e-21)
(1.08237 0.730524 1.08639e-19)
(1.02763 0.702086 -6.74999e-20)
(0.968816 0.670147 -3.82915e-20)
(0.906373 0.63514 1.17229e-20)
(0.839188 0.59747 -7.47471e-20)
(0.77362 0.560643 -1.38965e-19)
(0.71845 0.526436 1.53483e-19)
(0.675556 0.494007 0)
(0.644021 0.463906 -5.90192e-20)
(0.621955 0.43739 -1.44856e-19)
(0.606988 0.415066 -1.75858e-19)
(0.596178 0.396712 -2.15045e-19)
(0.571566 0.371162 6.50236e-20)
(0.432357 0.276628 -3.79582e-20)
(0.0882409 0.056187 8.91128e-22)
(0.261348 0.179694 0)
(1.13952 0.781421 0)
(1.19746 0.828096 1.48976e-21)
(1.16211 0.812046 0)
(1.11676 0.788986 -1.49106e-19)
(1.06653 0.762352 -9.43971e-20)
(1.01199 0.732015 0)
(0.953601 0.69805 -8.14872e-21)
(0.89191 0.661284 1.40484e-21)
(0.82572 0.622996 -1.64833e-19)
(0.75962 0.586981 0)
(0.701432 0.553358 -9.7623e-20)
(0.654661 0.519727 -4.03153e-21)
(0.619815 0.486809 -3.33087e-21)
(0.595753 0.456585 1.57339e-19)
(0.580074 0.430295 -1.68412e-22)
(0.569155 0.408641 -4.76108e-19)
(0.545665 0.379785 1.44731e-19)
(0.41066 0.27988 4.33186e-20)
(0.0795516 0.0538035 0)
(0.25986 0.187836 -3.10685e-19)
(1.12726 0.814447 -1.59528e-19)
(1.18201 0.861789 -2.33599e-19)
(1.14639 0.844659 3.25643e-19)
(1.10102 0.820302 -2.7525e-19)
(1.05081 0.792086 0)
(0.996435 0.759887 -5.59623e-20)
(0.938576 0.723888 1.64329e-20)
(0.877942 0.68534 2.99658e-21)
(0.813228 0.646611 1.29163e-20)
(0.74721 0.612378 1.63837e-19)
(0.685795 0.580532 -3.2681e-20)
(0.634051 0.546616 -1.5163e-19)
(0.594511 0.510987 -7.31164e-20)
(0.567005 0.475768 8.96207e-20)
(0.549916 0.445302 1.76101e-23)
(0.539359 0.418808 1.34156e-19)
(0.517444 0.385933 -3.19406e-19)
(0.38521 0.279266 3.85702e-19)
(0.0692586 0.0496344 5.53642e-20)
(0.258423 0.195787 1.12911e-19)
(1.11526 0.845614 -8.56036e-20)
(1.16691 0.893343 4.63443e-21)
(1.13095 0.875216 1.80525e-19)
(1.0855 0.849628 6.32703e-20)
(1.03525 0.819884 1.8546e-19)
(0.981042 0.78585 -2.37949e-20)
(0.92372 0.747743 7.78168e-20)
(0.864454 0.707311 3.25226e-20)
(0.801816 0.668247 -7.32598e-20)
(0.736502 0.636766 0)
(0.672039 0.608233 -1.49864e-19)
(0.614214 0.575372 2.23623e-19)
(0.567717 0.537177 0)
(0.535024 0.496561 -1.94106e-19)
(0.515119 0.460985 1.23466e-19)
(0.505288 0.429035 -1.48003e-19)
(0.483951 0.390183 -1.80795e-19)
(0.354427 0.274868 -3.20932e-19)
(0.0569593 0.0433216 -2.50914e-19)
(0.25734 0.203648 -1.2262e-19)
(1.10352 0.874986 9.14926e-20)
(1.1522 0.922925 2.12107e-19)
(1.11587 0.903862 2.46215e-19)
(1.07029 0.877126 -1.31331e-19)
(1.01993 0.845911 1.25076e-19)
(0.965824 0.810048 -7.43885e-20)
(0.909051 0.769746 9.43593e-20)
(0.85133 0.727211 3.0931e-20)
(0.791536 0.687789 5.01013e-20)
(0.727885 0.659798 3.20413e-19)
(0.660773 0.636772 0)
(0.595607 0.606175 0)
(0.539932 0.565444 -8.57778e-20)
(0.499928 0.521201 0)
(0.477305 0.475783 2.73379e-19)
(0.466521 0.43621 3.31376e-19)
(0.445201 0.389635 0)
(0.31748 0.264456 0)
(0.0425088 0.0344815 2.81681e-19)
(0.25625 0.211076 1.33699e-19)
(1.09216 0.902765 1.0702e-19)
(1.13795 0.950701 1.51117e-19)
(1.10123 0.930764 -2.15315e-19)
(1.05545 0.902947 -1.44175e-19)
(1.00491 0.870315 -1.63036e-19)
(0.950819 0.832641 1.09485e-19)
(0.894546 0.789998 2.03553e-21)
(0.838521 0.745072 -3.2863e-21)
(0.782262 0.705081 -1.14389e-20)
(0.721863 0.681284 1.54908e-19)
(0.652597 0.665898 0)
(0.579265 0.639159 2.31594e-19)
(0.511898 0.597061 1.82992e-19)
(0.463453 0.548394 4.84611e-19)
(0.434023 0.497278 1.50042e-19)
(0.419284 0.445619 -1.89505e-19)
(0.398551 0.38293 -1.12726e-19)
(0.274086 0.245479 0)
(0.0277986 0.0233102 3.15137e-19)
(0.255641 0.218702 -2.90271e-19)
(1.08121 0.928995 0)
(1.12415 0.97679 1.65538e-19)
(1.08707 0.956042 -1.73609e-19)
(1.04104 0.927225 1.59397e-19)
(0.990215 0.893239 2.33885e-19)
(0.936056 0.853788 -2.48678e-19)
(0.88017 0.808624 3.5513e-21)
(0.825941 0.760982 0)
(0.773875 0.719928 -6.52128e-21)
(0.718549 0.70084 -2.81884e-19)
(0.647591 0.695565 1.86537e-20)
(0.565125 0.674158 3.20729e-19)
(0.485651 0.636405 0)
(0.426756 0.583045 3.32833e-19)
(0.386361 0.518685 0)
(0.360972 0.453474 0)
(0.340194 0.366959 -1.30017e-19)
(0.229261 0.208721 0)
(0.0326724 0.0179788 8.66749e-20)
(0.254954 0.225864 -3.13574e-19)
(1.07064 0.953904 0)
(1.11081 1.00137 2.66246e-19)
(1.07337 0.979922 0)
(1.02703 0.950225 -8.47232e-20)
(0.97581 0.91499 0)
(0.921449 0.873857 -1.78385e-20)
(0.865787 0.826059 -1.70192e-20)
(0.813321 0.775333 -7.20419e-21)
(0.766208 0.732453 2.40868e-20)
(0.718134 0.718482 5.1399e-21)
(0.646755 0.725649 1.61876e-19)
(0.55387 0.713589 3.13232e-19)
(0.466277 0.675173 4.74727e-20)
(0.39087 0.624361 2.65131e-19)
(0.328972 0.560528 0)
(0.279363 0.47027 4.25173e-19)
(0.24757 0.334511 -2.58611e-19)
(0.126545 0.158861 3.02359e-19)
(-0.0525483 0.389818 -3.60964e-19)
(0.25457 0.232964 2.53612e-19)
(1.06028 0.977621 3.9266e-19)
(1.09778 1.02474 0)
(1.06002 1.0028 1.86238e-21)
(1.01321 0.972458 2.27556e-19)
(0.961369 0.936169 -4.38577e-19)
(0.906576 0.893487 -1.06404e-19)
(0.850788 0.842967 0)
(0.799921 0.788556 -7.06518e-20)
(0.758803 0.742633 4.49139e-21)
(0.720656 0.734709 0)
(0.650506 0.758933 0)
(0.547518 0.759333 2.78071e-19)
(0.441893 0.73418 -1.54068e-19)
(0.346755 0.680733 -2.68794e-19)
(0.267314 0.60845 0)
(0.175804 0.507689 2.17695e-19)
(0.0709484 0.5774 -2.61588e-19)
(0.0637781 1.75485 -1.4231e-19)
(0.0966814 2.74111 -1.78501e-19)
(0.254397 0.239191 -1.82575e-19)
(1.05011 1.00018 -4.88852e-19)
(1.08503 1.0468 1.49338e-19)
(1.04709 1.02459 1.41835e-19)
(0.999673 0.993791 0)
(0.947019 0.956635 -3.09645e-19)
(0.891652 0.912615 -1.74019e-19)
(0.835347 0.859247 1.08367e-20)
(0.785797 0.800411 -1.18533e-20)
(0.751537 0.749833 -7.99981e-20)
(0.726737 0.747158 6.22805e-20)
(0.660768 0.792367 1.50174e-19)
(0.544843 0.816309 2.79985e-19)
(0.417961 0.792495 -3.63546e-19)
(0.301777 0.735179 -4.04279e-19)
(0.206907 0.689434 0)
(0.109491 0.926196 0)
(0.163048 2.43271 1.13108e-19)
(0.167249 3.13387 0)
(0.16555 3.33708 2.64548e-19)
(0.257328 0.24448 0)
(1.03985 1.02139 0)
(1.07234 1.06735 0)
(1.03435 1.04513 3.90002e-20)
(0.986238 1.01411 1.98105e-19)
(0.93264 0.976388 -2.29954e-19)
(0.876666 0.931402 -1.21948e-19)
(0.819405 0.875004 1.1952e-20)
(0.770784 0.810915 -1.32607e-19)
(0.744223 0.753826 -2.13983e-20)
(0.736891 0.754982 1.00604e-20)
(0.682741 0.823785 -1.97791e-20)
(0.549852 0.878084 3.05908e-20)
(0.392648 0.859884 5.39342e-20)
(0.254502 0.820524 -5.0072e-22)
(0.176913 1.02865 2.06732e-21)
(0.217029 2.521 -5.47599e-19)
(0.244094 3.23341 -2.07011e-19)
(0.222916 3.3888 9.70083e-20)
(0.201228 3.41822 -9.92265e-20)
(0.157427 0.190539 1.022e-19)
(1.02476 1.04227 0)
(1.06029 1.08676 -2.85535e-19)
(1.02235 1.06506 -3.5862e-19)
(0.973559 1.0341 4.0392e-19)
(0.918913 0.995986 2.42058e-19)
(0.862293 0.950112 1.4165e-19)
(0.803779 0.892573 -1.81134e-19)
(0.753849 0.823863 1.26532e-19)
(0.734915 0.756348 0)
(0.749297 0.752316 -6.54687e-20)
(0.719181 0.846737 -8.85193e-20)
(0.575821 0.948241 0)
(0.367561 0.957105 5.02699e-20)
(0.234421 0.991256 1.16367e-19)
(0.215662 2.12827 -1.36951e-19)
(0.326343 3.24972 1.50595e-19)
(0.304657 3.4038 7.12258e-20)
(0.257184 3.44046 8.01176e-20)
(0.225111 3.45808 9.50046e-20)
(0.311806 0.295241 -1.80385e-19)
(1.00334 1.05 0)
(1.04493 1.11402 2.85122e-19)
(1.00375 1.09403 3.60205e-19)
(0.952795 1.06303 -4.05583e-19)
(0.895509 1.02386 -2.46783e-19)
(0.834834 0.974504 -2.06039e-19)
(0.773802 0.910555 -1.43852e-20)
(0.726085 0.83085 -1.72171e-19)
(0.722141 0.749426 -2.44109e-19)
(0.785558 0.73922 -1.20833e-20)
(0.795303 0.896413 2.78662e-20)
(0.625165 1.10403 2.62374e-20)
(0.348269 1.20893 -4.97437e-20)
(0.329928 1.97791 -1.08217e-19)
(0.43359 3.20927 7.24998e-20)
(0.43016 3.43553 -5.97301e-20)
(0.379494 3.48286 -3.16093e-20)
(0.324245 3.52566 1.55581e-20)
(0.244471 3.51853 3.12121e-22)
(0.300709 0.292498 0)
(1.00095 1.07188 7.63405e-20)
(1.03443 1.13543 -5.63655e-20)
(0.991882 1.11508 -3.99151e-20)
(0.939542 1.08419 -2.60767e-19)
(0.880584 1.04455 2.38657e-19)
(0.817455 0.993567 1.34564e-19)
(0.753776 0.926337 -1.46997e-20)
(0.704332 0.838618 2.07545e-19)
(0.706405 0.739124 -2.88322e-20)
(0.813801 0.720543 5.42141e-19)
(0.909629 0.916598 6.62045e-21)
(0.727666 1.21783 -2.16183e-20)
(0.411799 1.45907 -4.71431e-20)
(0.487199 2.71488 1.96543e-20)
(0.562383 3.39404 -1.42728e-21)
(0.491691 3.51397 -5.51748e-20)
(0.444248 3.56679 -7.93354e-20)
(0.358769 3.61678 1.14368e-19)
(0.270155 3.599 4.76311e-20)
(0.282166 0.289115 1.89421e-19)
(0.996177 1.09756 5.06754e-19)
(1.02383 1.15871 -1.57096e-19)
(0.979364 1.13805 -1.48807e-19)
(0.925425 1.10705 0)
(0.864548 1.06683 3.36679e-19)
(0.798602 1.01418 1.99208e-19)
(0.731226 0.942901 -1.49e-20)
(0.678141 0.844582 2.50393e-20)
(0.684006 0.716391 4.08012e-19)
(0.841978 0.654852 4.32533e-19)
(1.06342 0.89155 7.96838e-20)
(0.879424 1.35324 -1.49233e-19)
(0.539974 1.8135 2.79184e-19)
(0.657009 3.14883 1.41976e-19)
(0.674875 3.49488 0)
(0.578579 3.58088 0)
(0.503075 3.66953 1.1255e-19)
(0.4127 3.74007 0)
(0.287892 3.71254 1.83742e-19)
(0.269245 0.289984 -2.74217e-19)
(0.989203 1.12538 -4.17702e-19)
(1.01197 1.18382 0)
(0.965562 1.16259 1.39145e-21)
(0.909937 1.13134 -2.4595e-19)
(0.846948 1.09056 4.88861e-19)
(0.77789 1.03644 1.28753e-19)
(0.705989 0.961194 -1.52669e-20)
(0.647048 0.851141 2.03603e-19)