/*--------------------------------*- C++ -*----------------------------------*\
| =========                 |                                                 |
| \\      /  F ield         | OpenFOAM: The Open Source CFD Toolbox           |
|  \\    /   O peration     | Version:  2112                                  |
|   \\  /    A nd           | Website:  www.openfoam.com                      |
|    \\/     M anipulation  |                                                 |
\*---------------------------------------------------------------------------*/
FoamFile
{
    version     2.0;
    format      ascii;
    arch        "LSB;label=32;scalar=64";
    class       surfaceScalarField;
    location    "45.5";
    object      phi;
}
// * * * * * * * * * * * * * * * * * * * * * * * * * * * * * * * * * * * * * //

dimensions      [0 3 -1 0 0 0 0];

oriented        oriented;

internalField   nonuniform List<scalar> 
17370
(
-0.091607
0.0960081
0.28461
-0.0775926
0.0594171
0.364951
-0.0430394
0.0316201
0.427587
-0.0223158
0.0162624
0.505305
-0.011668
0.00879267
0.602277
-0.00658049
0.0050964
0.720542
-0.00386282
0.00298656
0.863783
-0.00221765
0.00164228
1.03603
-0.00111338
0.000694611
1.24292
-0.000285384
-0.000106308
1.49158
0.000493022
-0.000902762
1.4916
0.00130456
-0.0018076
1.24319
0.00235817
-0.00310356
1.03638
0.00396522
-0.00518997
0.864131
0.00666885
-0.00887377
0.721262
0.0117384
-0.0163169
0.603793
0.0223545
-0.0316422
0.508727
0.043045
-0.0594122
0.432535
0.0775901
-0.0960046
0.36519
0.0916203
0.197391
-0.127088
0.0880187
0.0390698
-0.364353
0.354026
-0.071479
0.0818056
-0.446655
0.454249
-0.0791725
0.0715782
-0.52101
0.529106
-0.0637288
0.0556328
-0.612989
0.620758
-0.0482466
0.0404771
-0.727161
0.733681
-0.0338649
0.0273447
-0.86758
0.872426
-0.0221441
0.0172983
-1.03856
1.0419
-0.0136058
0.0102704
-1.24472
1.24712
-0.00772157
0.00531758
-1.49284
1.49485
-0.00335525
0.00134332
-1.49269
1.49451
0.000475673
-0.00229334
-1.24411
1.24602
0.00426568
-0.00617655
-1.03761
1.04009
0.00851286
-0.0109942
-0.866188
0.869822
0.0142568
-0.0178913
-0.724594
0.729755
0.0226856
-0.0278465
-0.609066
0.615638
0.0343248
-0.0408962
-0.515125
0.522462
0.0486173
-0.0559543
-0.43988
0.447661
0.0639794
-0.071761
-0.37471
0.377356
0.0792625
-0.081908
-0.256901
0.224442
0.0715587
-0.0390995
-0.0688042
0.0591897
0.0096145
-0.052122
0.0589547
-0.374834
0.368001
-0.0581107
0.0542716
-0.453942
0.457781
-0.0487867
0.0442289
-0.527612
0.532169
-0.0396802
0.0357857
-0.620795
0.624689
-0.031576
0.0275865
-0.734654
0.738644
-0.0232376
0.0193569
-0.873949
0.87783
-0.0153167
0.0118626
-1.04335
1.04681
-0.00834588
0.00531576
-1.24864
1.25167
-0.00211015
-0.000868611
-1.49694
1.49992
0.00382643
-0.00697235
-1.49742
1.50057
0.00991691
-0.0133194
-1.25007
1.25347
0.0166606
-0.0205767
-1.04565
1.04957
0.0243524
-0.0285991
-0.877141
0.881388
0.0325058
-0.0366308
-0.738987
0.743112
0.0404517
-0.0449261
-0.625977
0.630451
0.0494219
-0.0548466
-0.535021
0.540446
0.0586178
-0.0593812
-0.458082
0.458845
0.0524404
-0.0320578
-0.336773
0.31639
0.00967125
-0.068669
0.0589978
-0.0533989
0.0492849
0.00411399
-0.0332601
0.0436913
-0.358549
0.348118
-0.0473734
0.0467911
-0.45957
0.460153
-0.0438671
0.0406584
-0.536122
0.539331
-0.0369855
0.0336349
-0.628384
0.631734
-0.0300068
0.0267725
-0.742021
0.745255
-0.0233284
0.0201375
-0.881321
0.884512
-0.0165503
0.0132033
-1.05023
1.05358
-0.00950972
0.00610965
-1.25493
1.25833
-0.0023231
-0.00128995
-1.50327
1.50688
0.00487271
-0.00857136
-1.50407
1.50776
0.011853
-0.0153883
-1.25704
1.26057
0.0185769
-0.021986
-1.05328
1.05669
0.0250227
-0.0283153
-0.884994
0.888287
0.0314262
-0.0349314
-0.746796
0.750301
0.0381755
-0.0417359
-0.634575
0.638136
0.044847
-0.0476621
-0.544593
0.547409
0.0481328
-0.0442963
-0.456967
0.45313
0.0336765
-0.0163711
-0.297081
0.279775
0.00417616
-0.0531504
0.0489742
-0.0461134
0.0435548
0.00255856
-0.0230672
0.0334268
-0.337518
0.327159
-0.03917
0.0401256
-0.459898
0.458942
-0.0388811
0.0365583
-0.541983
0.544306
-0.033922
0.0313812
-0.634696
0.637236
-0.0284116
0.0255721
-0.748337
0.751176
-0.0223444
0.0193389
-0.887562
0.890568
-0.0159958
0.0128687
-1.05674
1.05987
-0.00932014
0.00592789
-1.26172
1.26511
-0.00202567
-0.00176584
-1.51061
1.5144
0.00551931
-0.00930566
-1.51155
1.51534
0.0125417
-0.0158813
-1.26404
1.26738
0.018798
-0.0219043
-1.05989
1.063
0.0247023
-0.0277224
-0.891482
0.894502
0.0303924
-0.0331936
-0.753481
0.756283
0.0355901
-0.0380784
-0.641094
0.643582
0.0402751
-0.0413533
-0.54925
0.550328
0.0402263
-0.0342334
-0.448014
0.442021
0.0236002
-0.0103639
-0.264599
0.251362
0.00263542
-0.0457336
0.0430981
-0.0414344
0.0396305
0.00180388
-0.016968
0.0262661
-0.31728
0.307982
-0.0328757
0.0350065
-0.457376
0.455245
-0.0345813
0.0328895
-0.546331
0.548023
-0.0306686
0.028547
-0.639542
0.641663
-0.0261176
0.0237483
-0.753769
0.756138
-0.0209438
0.0182056
-0.893414
0.896153
-0.01503
0.0120042
-1.0629
1.06593
-0.00854963
0.0052448
-1.26842
1.27173
-0.00141704
-0.00232045
-1.51816
1.5219
0.00600884
-0.00969066
-1.51908
1.52276
0.0127983
-0.0159901
-1.27066
1.27385
0.018751
-0.0216248
-1.06603
1.0689
0.0240928
-0.0266228
-0.897285
0.899815
0.0287686
-0.0309802
-0.758725
0.760937
0.0329196
-0.0349522
-0.645816
0.647848
0.0364618
-0.0366613
-0.550918
0.551117
0.034268
-0.0272947
-0.435445
0.428471
0.0176314
-0.00746049
-0.239802
0.229631
0.0018978
-0.0408931
0.0389953
-0.0380785
0.0367232
0.00135535
-0.0129716
0.0209853
-0.299331
0.291317
-0.0277699
0.0307061
-0.452683
0.449747
-0.030926
0.0298121
-0.549455
0.550568
-0.0278219
0.0259031
-0.643711
0.64563
-0.0236998
0.0215668
-0.758371
0.760504
-0.0190693
0.0166118
-0.898689
0.901146
-0.013706
0.010866
-1.06881
1.07165
-0.00755442
0.00435407
-1.27495
1.27815
-0.000636703
-0.00298287
-1.52556
1.52918
0.00654155
-0.0100782
-1.52638
1.52991
0.0130354
-0.0160218
-1.27697
1.27996
0.0185323
-0.0210587
-1.07162
1.07415
0.0231736
-0.0253186
-0.902134
0.904279
0.0271622
-0.0290849
-0.762982
0.764905
0.0307729
-0.0325397
-0.649721
0.651488
0.0333907
-0.0328573
-0.550957
0.550424
0.029548
-0.0222676
-0.421289
0.414009
0.013787
-0.00575328
-0.220632
0.212598
0.00146972
-0.0373401
0.0358704
-0.0355395
0.0344944
0.00104516
-0.0101488
0.0169395
-0.283942
0.277151
-0.0234789
0.0268829
-0.446562
0.443158
-0.0276857
0.0270068
-0.551461
0.55214
-0.0252528
0.0234796
-0.647514
0.649287
-0.0214302
0.0194382
-0.762562
0.764554
-0.0170949
0.0147946
-0.903455
0.905755
-0.0120884
0.0094346
-1.07433
1.07698
-0.00631123
0.00326026
-1.28123
1.28428
0.000307141
-0.00377782
-1.5327
1.53617
0.00717462
-0.0105181
-1.53336
1.5367
0.0132679
-0.0159883
-1.28284
1.28556
0.0182363
-0.0204773
-1.07654
1.07878
0.0223567
-0.0242636
-0.906312
0.908218
0.0258948
-0.0275929
-0.766703
0.768401
0.0290787
-0.0305216
-0.65311
0.654553
0.0308664
-0.0296282
-0.549549
0.548311
0.0257104
-0.0185212
-0.406752
0.399563
0.0111462
-0.00461796
-0.205389
0.198861
0.00118438
-0.0345614
0.0333771
-0.0335761
0.0327602
0.000815869
-0.00805752
0.0137764
-0.270927
0.265209
-0.0198435
0.0234586
-0.439642
0.436027
-0.0247528
0.024331
-0.552725
0.553147
-0.0228608
0.0212072
-0.651047
0.652701
-0.0192632
0.017367
-0.766491
0.768387
-0.0151308
0.0129323
-0.907936
0.910135
-0.010344
0.00781425
-1.0795
1.08203
-0.00484935
0.00195174
-1.28721
1.2901
0.00144027
-0.0047409
-1.53953
1.54283
0.00795141
-0.0110715
-1.53993
1.54305
0.013602
-0.0160784
-1.28817
1.29065
0.0181147
-0.020135
-1.08094
1.08296
0.0218153
-0.0235102
-0.910033
0.911728
0.0249555
-0.0264599
-0.769996
0.7715
0.0277547
-0.0288282
-0.655785
0.656859
0.0288126
-0.026916
-0.546751
0.544854
0.0226188
-0.0157207
-0.392515
0.385617
0.00927736
-0.00382739
-0.192924
0.187474
0.000985587
-0.0323065
0.0313209
-0.0320424
0.0314033
0.000639132
-0.00644775
0.0112506
-0.259978
0.255175
-0.0167371
0.0203649
-0.43241
0.428782
-0.0219941
0.0218041
-0.553492
0.553682
-0.0205728
0.0189834
-0.654367
0.655956
-0.0171007
0.0152621
-0.770245
0.772084
-0.0130989
0.0109768
-0.912216
0.914338
-0.00848059
0.00604283
-1.08443
1.08687
-0.00319129
0.000420755
-1.29288
1.29565
0.00280292
-0.00591655
-1.54601
1.54912
0.00891926
-0.0118102
-1.54605
1.54894
0.0141339
-0.0163864
-1.29304
1.29529
0.0182193
-0.02002
-1.08489
1.08669
0.0215074
-0.0230066
-0.913346
0.914845
0.0242921
-0.0256333
-0.772925
0.774267
0.0267921
-0.0274723
-0.657715
0.658395
0.0271008
-0.024672
-0.542711
0.540282
0.020159
-0.0136276
-0.378914
0.372383
0.00793342
-0.00326631
-0.182457
0.17779
0.000844977
-0.0304186
0.0295736
-0.0308439
0.0303475
0.000496368
-0.00515378
0.00916627
-0.250796
0.246783
-0.0140256
0.0175184
-0.425235
0.421742
-0.0193495
0.0193674
-0.553817
0.553799
-0.0183521
0.0168134
-0.657587
0.659126
-0.014971
0.0131624
-0.773892
0.775701
-0.0110317
0.00894405
-0.916351
0.918439
-0.00649606
0.0041169
-1.08919
1.09157
-0.00134868
-0.00132177
-1.29831
1.30098
0.00440287
-0.00734904
-1.55211
1.55505
0.0101606
-0.0128395
-1.55171
1.55439
0.0149696
-0.0170144
-1.29747
1.29951
0.0186619
-0.020266
-1.08843
1.09003
0.021581
-0.0228999
-0.916276
0.917595
0.024027
-0.0251947
-0.775534
0.776701
0.0261617
-0.0264748
-0.658865
0.659178
0.0257344
-0.0228626
-0.537648
0.534776
0.018239
-0.0120766
-0.366056
0.359893
0.00696845
-0.00287057
-0.173442
0.169345
0.00074752
-0.0287896
0.028042
-0.0299184
0.0295429
0.00037548
-0.00406841
0.0073845
-0.243145
0.239828
-0.0116
0.0148418
-0.418393
0.415151
-0.0167417
0.0169261
-0.553752
0.553568
-0.0160106
0.0145614
-0.660693
0.662142
-0.0127327
0.0109243
-0.77749
0.779299
-0.00879514
0.00671831
-0.92042
0.922496
-0.00429716
0.00195738
-1.09383
1.09617
0.000744076
-0.00333811
-1.30355
1.30614
0.00630335
-0.00910462
-1.55788
1.56068
0.0117427
-0.0142157
-1.55695
1.55942
0.0161477
-0.0179701
-1.30147
1.3033
0.0194159
-0.0208074
-1.09157
1.09296
0.0219415
-0.0230845
-0.918857
0.92
0.0240687
-0.0250747
-0.777816
0.778822
0.0257954
-0.025828
-0.659345
0.659378
0.0246982
-0.0214548
-0.53173
0.528487
0.0167818
-0.0109486
-0.353925
0.348092
0.00628657
-0.0025974
-0.165484
0.161795
0.000682144
-0.0273404
0.0266582
-0.0292266
0.0289581
0.000268527
-0.00311774
0.00580403
-0.236848
0.234162
-0.00937524
0.0122847
-0.412097
0.409187
-0.0141438
0.0144256
-0.553401
0.55312
-0.0135672
0.0121752
-0.663653
0.665045
-0.0103357
0.00850093
-0.781098
0.782933
-0.00634451
0.00425054
-0.924463
0.926557
-0.00182275
-0.000504769
-1.09839
1.10072
0.00318266
-0.00572064
-1.30863
1.31116
0.00858454
-0.0112485
-1.56337
1.56603
0.0137139
-0.0159816
-1.56178
1.56404
0.0177204
-0.0193273
-1.30504
1.30665
0.0205775
-0.0217571
-1.0943
1.09548
0.0227033
-0.0236598
-0.921085
0.922041
0.0244942
-0.0253312
-0.779759
0.780596
0.0258003
-0.0255721
-0.659259
0.659031
0.0240374
-0.0204459
-0.525096
0.521504
0.0157368
-0.0101651
-0.342431
0.33686
0.00582734
-0.00242034
-0.158282
0.154875
0.000642193
-0.0260107
0.0253685
-0.028746
0.0285786
0.000167339
-0.00223689
0.00433077
-0.231789
0.229695
-0.0072511
0.00975692
-0.406505
0.403999
-0.0114703
0.0117797
-0.552903
0.552594
-0.0109611
0.00960542
-0.666526
0.667881
-0.00774527
0.00586333
-0.78476
0.786642
-0.00364406
0.00149294
-0.928545
0.930696
0.000984245
-0.00334636
-1.10295
1.10531
0.00602543
-0.00853503
-1.3136
1.31611
0.0113253
-0.0138736
-1.56858
1.57113
0.0161811
-0.0182484
-1.56619
1.56825
0.0197893
-0.0211733
-1.30817
1.30955
0.0222248
-0.0231924
-1.09661
1.09757
0.0239466
-0.0246956
-0.922952
0.923701
0.0253499
-0.0260107
-0.781354
0.782015
0.0261747
-0.0256212
-0.658582
0.658029
0.0236909
-0.0197826
-0.5178
0.513891
0.0150367
-0.00965641
-0.331435
0.326054
0.00554219
-0.00231838
-0.151597
0.148374
0.00062242
-0.0247523
0.0241299
-0.0284681
0.0284037
6.44119e-05
-0.00137595
0.00289036
-0.227906
0.226392
-0.00514206
0.00717453
-0.401758
0.399726
-0.00862869
0.00887323
-0.552411
0.552166
-0.00803791
0.00667515
-0.669363
0.670726
-0.00475022
0.00278891
-0.788519
0.79048
-0.00047711
-0.00175167
-0.932731
0.93496
0.00429988
-0.00670663
-1.10756
1.10996
0.00941151
-0.0119141
-1.31851
1.32102
0.0146484
-0.0170866
-1.57356
1.576
0.0192313
-0.0210865
-1.57019
1.57204
0.0224139
-0.0235481
-1.31085
1.31198
0.0243626
-0.02507
-1.09848
1.09919
0.0255912
-0.0261141
-0.924407
0.92493
0.0265985
-0.0270861
-0.782549
0.783036
0.026965
-0.0260415
-0.657204
0.65628
0.0237078
-0.0194787
-0.509894
0.505665
0.014665
-0.00939202
-0.320796
0.315523
0.00540781
-0.00228116
-0.145243
0.142116
0.000619931
-0.0235284
0.0229085
-0.0283963
0.0284421
-4.57427e-05
-0.000488262
0.00141464
-0.225185
0.224258
-0.00296633
0.00446051
-0.39799
0.396496
-0.00555752
0.00565722
-0.552112
0.552012
-0.00475009
0.00332619
-0.672271
0.673695
-0.00130554
-0.000767494
-0.792441
0.794514
0.00320746
-0.00554496
-0.93707
0.939407
0.00820386
-0.0106951
-1.11226
1.11475
0.0134635
-0.0159837
-1.32341
1.32593
0.0186776
-0.0210083
-1.5783
1.58063
0.0229837
-0.0246126
-1.57374
1.57537
0.0257122
-0.0265845
-1.31301
1.31388
0.0271564
-0.0275944
-1.09985
1.10029
0.0278665
-0.0281312
-0.925429
0.925693
0.0284138
-0.0286317
-0.783268
0.783486
0.0282647
-0.0268842
-0.655055
0.653675
0.0241148
-0.0195358
-0.501376
0.496797
0.0146039
-0.00935024
-0.310344
0.30509
0.00540938
-0.00230277
-0.139051
0.135945
0.000633546
-0.022304
0.0216705
-0.0285433
0.0287037
-0.000160321
0.00044568
-0.000144247
-0.223652
0.223351
-0.000654213
0.00153021
-0.39533
0.394454
-0.00216315
0.00204557
-0.552169
0.552287
-0.00102802
-0.000499932
-0.675349
0.676877
0.00264377
-0.00486602
-0.796587
0.798809
0.00748934
-0.00999652
-0.941633
0.94414
0.0128281
-0.0154512
-1.11714
1.11976
0.0183233
-0.0208908
-1.32835
1.33092
0.02357
-0.0258116
-1.58284
1.58508
0.0276181
-0.0290038
-1.57683
1.57822
0.0298507
-0.0304217
-1.31463
1.31521
0.030717
-0.0308617
-1.10067
1.10082
0.0308712
-0.0308627
-0.925923
0.925914
0.0309068
-0.0307854
-0.783348
0.783227
0.0300879
-0.028175
-0.652019
0.650106
0.0249258
-0.019957
-0.492176
0.487208
0.014848
-0.00952162
-0.299902
0.294575
0.00553944
-0.00237963
-0.132871
0.129711
0.000662153
-0.0210477
0.0203855
-0.0289458
0.0292516
-0.000305777
0.00147463
-0.00183008
-0.223406
0.223761
0.00189192
-0.0017529
-0.393911
0.393772
0.0017308
-0.00218979
-0.552784
0.553243
0.00340763
-0.00509838
-0.678694
0.680385
0.00743604
-0.00985975
-0.801031
0.803455
0.0127131
-0.0154201
-0.946529
0.949236
0.0184506
-0.0212304
-1.12228
1.12506
0.0242343
-0.0268689
-1.33339
1.33602
0.0295405
-0.0316748
-1.58717
1.58931
0.0332839
-0.0343784
-1.5794
1.5805
0.0349417
-0.035163
-1.31562
1.31585
0.035139
-0.0349432
-1.10086
1.10067
0.034649
-0.0343279
-0.925834
0.925513
0.0341277
-0.03359
-0.782653
0.782115
0.0324871
-0.0299631
-0.647975
0.645451
0.0261941
-0.0207773
-0.482219
0.476802
0.0154101
-0.00990696
-0.289283
0.28378
0.00579604
-0.00251009
-0.126556
0.12327
0.000704988
-0.0197305
0.0190255
-0.0296283
0.0301105
-0.000482176
0.0027723
-0.00389497
-0.224513
0.225635
0.00483724
-0.00550185
-0.393968
0.394633
0.0061938
-0.00709892
-0.554223
0.555128
0.00860884
-0.010546
-0.682447
0.684384
0.0131663
-0.0158535
-0.805875
0.808562
0.0189931
-0.0219525
-0.951813
0.954773
0.0252438
-0.028234
-1.12773
1.13072
0.0314175
-0.0341449
-1.33855
1.34128
0.0368122
-0.0388237
-1.59128
1.59329
0.0401993
-0.0409679
-1.58136
1.58213
0.0411857
-0.0410233
-1.31588
1.31572
0.0406336
-0.0400473
-1.1003
1.09972
0.0394011
-0.0387139
-0.925058
0.92437
0.0382029
-0.0371823
-0.781059
0.780038
0.0355863
-0.032376
-0.642786
0.639576
0.0279959
-0.0220301
-0.471362
0.465397
0.0163062
-0.0105137
-0.278277
0.272484
0.00618259
-0.00269541
-0.119962
0.116475
0.000762508
-0.0183234
0.0175609
-0.0306643
0.0313651
-0.000700808
0.00427381
-0.00628898
-0.227181
0.229196
0.00832732
-0.00989909
-0.395704
0.397275
0.0114085
-0.0128633
-0.556711
0.558166
0.0147638
-0.0170063
-0.686755
0.688998
0.0199825
-0.0230151
-0.811244
0.814277
0.0265448
-0.0298524
-0.957624
0.960932
0.0334953
-0.0367572
-1.13362
1.13689
0.0401627
-0.0430032
-1.34389
1.34673
0.0456717
-0.0475454
-1.59512
1.59699
0.0486495
-0.0490269
-1.58264
1.58302
0.0488239
-0.0482212
-1.31531
1.3147
0.0474179
-0.0463952
-1.09888
1.09786
0.0453654
-0.0442597
-0.923468
0.922362
0.0432793
-0.0417477
-0.778456
0.776924
0.0395012
-0.035495
-0.636277
0.632271
0.0304054
-0.0237769
-0.459413
0.452784
0.0175757
-0.0113598
-0.266654
0.260438
0.00670511
-0.00293556
-0.112937
0.109167
0.000833703
-0.0167987
0.015965
-0.0321363
0.033123
-0.000986695
0.0061567
-0.00925972
-0.231645
0.234748
0.0125456
-0.0151821
-0.399387
0.402023
0.0176684
-0.0198255
-0.560499
0.562656
0.0222897
-0.0249762
-0.691768
0.694454
0.0284462
-0.0319305
-0.817305
0.820789
0.0359416
-0.0396617
-0.964141
0.967861
0.0437098
-0.0472787
-1.14006
1.14363
0.0509242
-0.0538695
-1.34944
1.35239
0.0564952
-0.0581559
-1.59865
1.60031
0.0588972
-0.0587858
-1.58308
1.58297
0.0580994
-0.0569469
-1.31375
1.3126
0.0556566
-0.0541166
-1.09647
1.09493
0.0526463
-0.0510585
-0.920939
0.919352
0.0495488
-0.0474002
-0.774781
0.772632
0.044407
-0.0394752
-0.628206
0.623274
0.0335381
-0.0260781
-0.446134
0.438674
0.019244
-0.0124491
-0.254145
0.24735
0.00735858
-0.00322466
-0.105321
0.101187
0.000915871
-0.0151302
0.0142143
-0.0341714
0.0355507
-0.0013793
0.00864495
-0.0130868
-0.238268
0.24271
0.0178515
-0.0217152
-0.405377
0.409241
0.0253378
-0.028348
-0.565951
0.568961
0.0315676
-0.0348744
-0.6978
0.701107
0.0390053
-0.0430581
-0.824271
0.828324
0.047646
-0.0518448
-0.971484
0.975683
0.0563511
-0.0602518
-1.14709
1.15099
0.0641347
-0.0671499
-1.35516
1.35818
0.0696578
-0.071008
-1.60167
1.60302
0.0712814
-0.0705678
-1.58248
1.58177
0.0692941
-0.0674686
-1.31099
1.30916
0.0655974
-0.0634518
-1.09291
1.09076
0.0614581
-0.0593475
-0.917347
0.915236
0.057217
-0.0543644
-0.769824
0.766971
0.0504892
-0.04445
-0.618299
0.61226
0.0374815
-0.0289851
-0.431189
0.422693
0.0213337
-0.0137799
-0.240437
0.232883
0.00812998
-0.00354979
-0.0969522
0.092372
0.0010029
-0.0132989
0.012296
-0.0369732
0.0389168
-0.00194362
0.0120301
-0.018163
-0.247516
0.253649
0.0247123
-0.0300089
-0.414117
0.419414
0.0349488
-0.0389686
-0.573428
0.577448
0.0431209
-0.047226
-0.705199
0.709304
0.0522061
-0.0569781
-0.832378
0.83715
0.0622891
-0.0670708
-0.979806
0.984588
0.0721029
-0.0763449
-1.15477
1.15901
0.0804142
-0.0834024
-1.36096
1.36395
0.0856425
-0.0865206
-1.60398
1.60486
0.0861572
-0.0846753
-1.58057
1.57909
0.0826831
-0.0800853
-1.3068
1.3042
0.0775445
-0.0747308
-1.08801
1.0852
0.0721685
-0.0694294
-0.912567
0.909828
0.0666016
-0.0628827
-0.763389
0.75967
0.0579423
-0.0505846
-0.60617
0.598812
0.0423734
-0.0325872
-0.414174
0.404388
0.0238858
-0.0153531
-0.225171
0.216638
0.00900357
-0.00389559
-0.0876734
0.0825654
0.0010876
-0.0112996
0.010212
-0.0408608
0.043666
-0.0028052
0.0169139
-0.0252662
-0.260081
0.268433
0.0340115
-0.0410305
-0.426253
0.433272
0.0475661
-0.0528166
-0.583362
0.588613
0.0581816
-0.0633552
-0.714336
0.71951
0.0694059
-0.0750392
-0.841926
0.847559
0.0811589
-0.0865315
-0.989294
0.994667
0.0920151
-0.0964609
-1.16305
1.1675
0.100504
-0.103235
-1.36657
1.3693
0.104926
-0.105057
-1.60519
1.60533
0.103798
-0.101314
-1.57699
1.5745
0.0984339
-0.0949292
-1.30097
1.29746
0.0916504
-0.0881119
-1.08163
1.07809
0.0849441
-0.081484
-0.906329
0.902868
0.0779455
-0.0731774
-0.755067
0.750299
0.0669897
-0.0580565
-0.59137
0.582437
0.0483325
-0.0369346
-0.394584
0.383186
0.0268971
-0.0171313
-0.207926
0.19816
0.00993839
-0.00423759
-0.0773392
0.0716384
0.00116155
-0.00914158
0.00798002
-0.046392
0.0506525
-0.00426043
0.0244889
-0.0358501
-0.277089
0.28845
0.0474294
-0.0567235
-0.442811
0.452105
0.0652316
-0.0719355
-0.596366
0.603069
0.0788389
-0.0854791
-0.725642
0.732282
0.0926997
-0.099132
-0.853151
0.859584
0.105891
-0.111618
-0.999852
1.00558
0.117222
-0.121533
-1.17157
1.17588
0.125152
-0.12725
-1.37147
1.37357
0.127977
-0.126991
-1.60472
1.60373
0.124515
-0.120753
-1.57127
1.56751
0.116782
-0.112178
-1.29323
1.28863
0.108014
-0.103681
-1.07362
1.06928
0.0999238
-0.0957161
-0.898404
0.894197
0.0914326
-0.0854205
-0.74445
0.738438
0.0777239
-0.066874
-0.573325
0.562475
0.0553056
-0.0419312
-0.371779
0.358404
0.0302438
-0.0189922
-0.18826
0.177009
0.0108427
-0.00453098
-0.0658695
0.0595578
0.00121104
-0.00685318
0.00564214
-0.0546246
0.0619494
-0.00732475
0.0378808
-0.0536453
-0.300644
0.316409
0.0691743
-0.081531
-0.465363
0.47772
0.0920945
-0.100188
-0.612925
0.621019
0.108654
-0.116551
-0.739538
0.747435
0.12467
-0.131492
-0.865789
0.87261
0.138316
-0.143818
-1.01085
1.01635
0.148902
-0.152479
-1.17951
1.18309
0.155044
-0.155923
-1.3748
1.37568
0.155115
-0.152547
-1.60174
1.59917
0.148496
-0.143189
-1.56284
1.55753
0.137943
-0.132102
-1.28322
1.27738
0.126935
-0.121662
-1.06384
1.05857
0.117188
-0.112244
-0.888702
0.883758
0.106993
-0.0994006
-0.731097
0.723504
0.0898433
-0.076649
-0.551218
0.538024
0.0628595
-0.0471988
-0.345005
0.329344
0.0336343
-0.0207699
-0.165827
0.152963
0.0116288
-0.00474319
-0.0533516
0.0464661
0.00122197
-0.00449246
0.00327049
-0.0688047
0.0728937
-0.004089
0.028929
-0.0425464
-0.334707
0.348324
0.0562718
-0.0674688
-0.495236
0.506433
0.0774521
-0.0868148
-0.632659
0.642022
0.097258
-0.106599
-0.754949
0.76429
0.11689
-0.126
-0.878579
0.887689
0.135603
-0.144029
-1.02091
1.02934
0.152639
-0.159788
-1.18555
1.1927
0.166523
-0.171433
-1.37534
1.38025
0.175051
-0.176349
-1.59531
1.59661
0.175261
-0.1723
-1.55108
1.54812
0.168345
-0.163183
-1.27061
1.26545
0.158339
-0.152655
-1.05208
1.0464
0.147798
-0.142181
-0.877008
0.871391
0.13573
-0.125178
-0.714178
0.703626
0.111457
-0.0930672
-0.524067
0.505677
0.074513
-0.0539281
-0.313385
0.2928
0.0370028
-0.0218513
-0.140591
0.12544
0.0117066
-0.00456291
-0.0401955
0.0330518
0.00111198
-0.00216704
0.00105507
-0.0800099
0.0781575
0.00185244
0.00728277
-0.0162226
-0.364804
0.373744
0.0266185
-0.0345292
-0.522364
0.530275
0.0425013
-0.0504929
-0.653698
0.661689
0.0601007
-0.0688997
-0.773318
0.782117
0.078169
-0.0865971
-0.896289
0.904717
0.0954576
-0.102893
-1.03749
1.04493
0.110653
-0.11671
-1.19964
1.2057
0.122309
-0.126025
-1.38479
1.3885
0.128018
-0.127825
-1.59691
1.59672
0.125205
-0.12066
-1.54415
1.53961
0.11513
-0.108338
-1.25957
1.25278
0.102006
-0.0949856
-1.03943
1.03241
0.0885966
-0.0814059
-0.861815
0.854625
0.0742701
-0.0650159
-0.689142
0.679888
0.0547877
-0.0423643
-0.485565
0.473142
0.031115
-0.0203287
-0.272147
0.261361
0.0127279
-0.00691083
-0.111058
0.105241
0.00352185
-0.00137693
-0.0263825
0.0242376
0.000390568
1.07197e-05
-0.000401288
-0.0814125
0.0785424
0.00287013
-0.00178121
-0.00339154
-0.385096
0.390268
0.0104454
-0.0162835
-0.542341
0.548179
0.0223245
-0.0292255
-0.671619
0.67852
0.0375417
-0.045195
-0.790057
0.79771
0.0535072
-0.0609115
-0.912449
0.919853
0.0684476
-0.0751131
-1.0522
1.05887
0.0818424
-0.0871532
-1.21131
1.21662
0.0915773
-0.0942191
-1.3915
1.39414
0.0953679
-0.0942267
-1.59571
1.59456
0.0907288
-0.0853504
-1.53428
1.5289
0.0791914
-0.0719181
-1.24565
1.23838
0.0647239
-0.0569117
-1.02442
1.01661
0.0496604
-0.0415692
-0.845148
0.837057
0.0343951
-0.026429
-0.666868
0.658902
0.0187259
-0.0106184
-0.458815
0.450708
0.00500226
-0.00124367
-0.249778
0.246019
-0.000392893
0.000862413
-0.0987681
0.0982985
-0.000678152
0.000303271
-0.0217448
0.0221196
-8.27633e-05
0.000815505
-0.000732742
-0.0801734
0.0774782
0.00269513
-0.00528213
0.00278388
-0.398633
0.401131
0.00175129
-0.00622437
-0.557266
0.561739
0.0114002
-0.0172179
-0.68644
0.692258
0.0243792
-0.0309931
-0.804773
0.811387
0.0381529
-0.0445445
-0.926765
0.933156
0.0514182
-0.0570919
-1.06511
1.07079
0.0629981
-0.067204
-1.22152
1.22573
0.0709724
-0.0731
-1.39656
1.39869
0.0736285
-0.0718458
-1.59301
1.59122
0.0682087
-0.0627753
-1.52303
1.5176
0.0565698
-0.048863
-1.23084
1.22314
0.0415104
-0.0333355
-1.00801
0.999838
0.0255262
-0.0173154
-0.82713
0.81892
0.0099978
-0.00307402
-0.647503
0.64058
-0.00256895
0.00711381
-0.441048
0.436503
-0.00887905
0.00864954
-0.239773
0.240003
-0.00731588
0.00513976
-0.0966338
0.09881
-0.00320546
0.00139139
-0.0219691
0.0237832
-0.000369712
0.000792881
-0.000423169
-0.0787276
0.0763583
0.00236925
-0.00632529
0.00538136
-0.407706
0.40865
-0.00202796
-0.00127217
-0.56933
0.57263
0.00555898
-0.0108763
-0.698944
0.704261
0.0169374
-0.0227905
-0.817327
0.82318
0.0290341
-0.0346146
-0.939125
0.944705
0.0405376
-0.0456218
-1.07634
1.08142
0.0506595
-0.0545845
-1.22982
1.23374
0.0578557
-0.0596256
-1.40049
1.40226
0.0598671
-0.0578908
-1.5893
1.58732
0.0541181
-0.0483875
-1.51147
1.50574
0.0421304
-0.0345636
-1.21534
1.20777
0.0272739
-0.0191064
-0.991146
0.982979
0.01172
-0.00399527
-0.809482
0.801758
-0.00245308
0.00822111
-0.630582
0.624814
-0.012405
0.0152135
-0.429444
0.426635
-0.0154137
0.0133955
-0.237035
0.239053
-0.010693
0.00743941
-0.0997471
0.103001
-0.0045892
0.00199276
-0.0250745
0.027671
-0.000516975
6.91254e-05
0.00044785
-0.0774169
0.0753988
0.00201813
-0.00615169
0.00568266
-0.413994
0.414463
-0.00368346
0.000996391
-0.57872
0.581407
0.00323852
-0.00781839
-0.709632
0.714212
0.0130774
-0.0181987
-0.828259
0.83338
0.0237888
-0.0288106
-0.949962
0.954984
0.0342758
-0.0387832
-1.08625
1.09076
0.0433947
-0.0470108
-1.23742
1.24104
0.0499751
-0.0515429
-1.40381
1.40538
0.0516175
-0.0499155
-1.58525
1.58355
0.0460906
-0.0405847
-1.49953
1.49403
0.0344997
-0.0272707
-1.20005
1.19282
0.020693
-0.0131305
-0.974816
0.967253
0.0064082
0.000532114
-0.793484
0.786544
-0.00636864
0.0117177
-0.616172
0.610823
-0.0152092
0.0174767
-0.421205
0.418937
-0.0170479
0.014556
-0.237799
0.240291
-0.0116212
0.0080734
-0.105045
0.108593
-0.0049981
0.00225093
-0.0295425
0.0322897
-0.00064493
-0.000912587
0.00155752
-0.076455
0.0748938
0.00156121
-0.00524061
0.00508485
-0.418721
0.418877
-0.0034629
0.00140795
-0.586961
0.589016
0.00258075
-0.00674049
-0.718958
0.723118
0.0117576
-0.0162037
-0.838111
0.842557
0.0211558
-0.0256527
-0.959998
0.964495
0.0309027
-0.0350773
-1.09533
1.0995
0.0392794
-0.0428087
-1.24452
1.24805
0.0460439
-0.0475749
-1.40701
1.40854
0.04783
-0.0462271
-1.58149
1.57989
0.0430281
-0.0378217
-1.48842
1.48322
0.0325518
-0.0263297
-1.18569
1.17947
0.0204569
-0.0139599
-0.960003
0.953505
0.00779958
-0.00102606
-0.778925
0.772151
-0.00455579
0.0101012
-0.6029
0.597354
-0.0135902
0.0154509
-0.41427
0.41241
-0.0152821
0.0132861
-0.239657
0.241653
-0.0106272
0.00739091
-0.11069
0.113926
-0.00460348
0.00211884
-0.0341386
0.0366232
-0.000636593
-0.00200432
0.00264091
-0.0760016
0.0747848
0.00121686
-0.00415248
0.0041114
-0.422523
0.422564
-0.00266697
0.000718475
-0.594166
0.596115
0.00312664
-0.00686574
-0.727378
0.731117
0.0111917
-0.0155025
-0.846945
0.851256
0.0201177
-0.0247954
-0.968829
0.973507
0.029395
-0.033468
-1.10381
1.10788
0.0378966
-0.0412833
-1.25151
1.25489
0.0441638
-0.0462223
-1.41004
1.4121
0.0468319
-0.0457748
-1.57845
1.57739
0.0431423
-0.0390715
-1.47847
1.4744
0.0347034
-0.0294276
-1.1733
1.16803
0.0243809
-0.0184551
-0.947046
0.94112
0.0126115
-0.00610732
-0.764936
0.758432
9.3165e-05
0.00532302
-0.589762
0.584346
-0.00875923
0.0107475
-0.408038
0.40605
-0.0110113
0.00965931
-0.240997
0.242349
-0.00780699
0.00548488
-0.115351
0.117673
-0.00346193
0.0016168
-0.0380232
0.0398684
-0.000504101
-0.00298789
0.00349199
-0.0760752
0.0750643
0.00101091
-0.00288057
0.00259165
-0.425957
0.426246
-0.00131861
-0.00068593
-0.600765
0.60277
0.00420137
-0.00781378
-0.735231
0.738844
0.0119704
-0.0158961
-0.855349
0.859275
0.0206592
-0.0246036
-0.977643
0.981588
0.0292386
-0.0332034
-1.11214
1.11611
0.0376014
-0.0412593
-1.25831
1.26196
0.0445173
-0.0464794
-1.41398
1.41594
0.0476276
-0.0472717
-1.57641
1.57605
0.045688
-0.0424262
-1.47051
1.46725
0.0388999
-0.034332
-1.16309
1.15852
0.0297646
-0.0240257
-0.934952
0.929214
0.0183467
-0.0117364
-0.751224
0.744614
0.00583625
-0.000274561
-0.577295
0.571733
-0.00330122
0.00521356
-0.401594
0.399682
-0.00590462
0.00543874
-0.241085
0.241551
-0.00453464
0.00320614
-0.118225
0.119553
-0.00204701
0.00100147
-0.0405599
0.0416055
-0.000326464
-0.00367381
0.00400028
-0.0764282
0.0757296
0.000698634
-0.00174699
0.00105343
-0.429514
0.430207
-8.59911e-06
-0.00228668
-0.60658
0.608876
0.00545264
-0.00893998
-0.74255
0.746037
0.012927
-0.0169928
-0.863059
0.867125
0.0211767
-0.0253206
-0.985763
0.989907
0.0299733
-0.0337869
-1.12052
1.12434
0.0383312
-0.0419988
-1.26546
1.26913
0.0453902
-0.0479774
-1.41836
1.42095
0.0497931
-0.0499767
-1.57589
1.57607
0.0489422
-0.0466604
-1.46436
1.46208
0.0438076
-0.039595
-1.15391
1.1497
0.0351268
-0.029663
-0.92325
0.917786
0.023697
-0.0173721
-0.737379
0.731054
0.0117106
-0.00631065
-0.565306
0.559906
0.00276372
-0.000316883
-0.39507
0.392623
-0.00076724
0.00121366
-0.239816
0.239369
-0.00117305
0.000918779
-0.119156
0.11941
-0.000676766
0.000390788
-0.0415962
0.0418821
-0.0001546
-0.00401897
0.00417357
-0.0771898
0.0766454
0.000544417
-0.000798802
0.000223144
-0.433305
0.433881
0.00159447
-0.00364959
-0.612648
0.614703
0.00696108
-0.0103321
-0.749371
0.752742
0.0141704
-0.0178537
-0.870863
0.874547
0.0221881
-0.0260533
-0.994078
0.997943
0.0306955
-0.0349713
-1.12862
1.1329
0.0391914
-0.0432157
-1.27286
1.27688
0.0470726
-0.0498302
-1.42348
1.42624
0.0521523
-0.0532724
-1.57658
1.5777
0.0528127
-0.0511925
-1.45976
1.45814
0.0484692
-0.0445259
-1.14547
1.14153
0.0402551
-0.0347764
-0.911772
0.906293
0.0291576
-0.0230875
-0.724044
0.717974
0.0177777
-0.0125816
-0.553736
0.54854
0.00889244
-0.00606427
-0.388143
0.385315
0.00414959
-0.00280773
-0.236837
0.235495
0.00185867
-0.00103163
-0.11805
0.117223
0.00044295
-5.39987e-05
-0.0412087
0.0408198
-4.6553e-05
-0.00400763
0.00405419
-0.0782133
0.0778519
0.000361472
0.000232635
-0.00107955
-0.437187
0.438034
0.00271101
-0.00508085
-0.618259
0.620628
0.00833066
-0.0115547
-0.75597
0.759194
0.0154798
-0.0190256
-0.87821
0.881756
0.0232267
-0.0272358
-1.0023
1.00631
0.0318023
-0.0360549
-1.13704
1.14129
0.0405021
-0.0445632
-1.28084
1.2849
0.0486325
-0.052178
-1.42932
1.43286
0.0550155
-0.0564834
-1.57882
1.58029
0.0566937
-0.0552704
-1.4564
1.45498
0.052916
-0.0492703
-1.13742
1.13378
0.0449039
-0.039602
-0.900447
0.895145
0.0342831
-0.0284555
-0.711458
0.70563
0.0235488