/*--------------------------------*- C++ -*----------------------------------*\
| =========                 |                                                 |
| \\      /  F ield         | OpenFOAM: The Open Source CFD Toolbox           |
|  \\    /   O peration     | Version:  2112                                  |
|   \\  /    A nd           | Website:  www.openfoam.com                      |
|    \\/     M anipulation  |                                                 |
\*---------------------------------------------------------------------------*/
FoamFile
{
    version     2.0;
    format      ascii;
    arch        "LSB;label=32;scalar=64";
    class       volScalarField;
    location    "57.5";
    object      p;
}
// * * * * * * * * * * * * * * * * * * * * * * * * * * * * * * * * * * * * * //

dimensions      [0 2 -2 0 0 0 0];

internalField   nonuniform List<scalar> 
8800
(
0.820661
0.772874
0.734185
0.705191
0.684328
0.6695
0.658908
0.651434
0.646623
0.644578
0.645861
0.650063
0.656717
0.666039
0.678823
0.696559
0.721338
0.75528
0.797831
0.856533
0.65191
0.659589
0.667065
0.670374
0.668871
0.663795
0.657311
0.651238
0.646523
0.643691
0.643425
0.645945
0.650444
0.656397
0.663171
0.669455
0.673097
0.672362
0.666944
0.658254
0.630313
0.636473
0.6406
0.643545
0.645595
0.646202
0.645099
0.643
0.640994
0.6401
0.641078
0.643473
0.646281
0.648468
0.649079
0.647883
0.645543
0.642151
0.637593
0.633833
0.624504
0.627155
0.629906
0.632309
0.633945
0.635108
0.635853
0.635977
0.635692
0.635657
0.636427
0.63761
0.638459
0.63853
0.637925
0.636837
0.635023
0.632453
0.630051
0.628547
0.619125
0.620549
0.622328
0.62436
0.626144
0.627487
0.628479
0.629283
0.629909
0.63049
0.63116
0.63167
0.63178
0.631499
0.630806
0.629561
0.627867
0.62602
0.624713
0.623882
0.61405
0.61497
0.616211
0.617776
0.619409
0.620935
0.622223
0.623297
0.624273
0.625185
0.625896
0.62624
0.626208
0.625776
0.6249
0.623703
0.622378
0.621119
0.620297
0.619746
0.609145
0.609815
0.610776
0.612077
0.613486
0.614944
0.616386
0.617716
0.618927
0.620055
0.6209
0.621285
0.621212
0.620711
0.61991
0.618965
0.617955
0.617033
0.616448
0.616042
0.604365
0.604881
0.605663
0.606792
0.608068
0.609442
0.61089
0.612368
0.61381
0.615168
0.6162
0.616689
0.616677
0.6163
0.615702
0.61498
0.614209
0.613526
0.613092
0.612775
0.599637
0.600047
0.600702
0.601705
0.602909
0.604235
0.605682
0.607244
0.608879
0.6105
0.611772
0.61245
0.612627
0.612466
0.612088
0.611574
0.611006
0.610514
0.610192
0.609934
0.594876
0.59521
0.595775
0.5967
0.597854
0.599164
0.600645
0.602303
0.604123
0.606028
0.607614
0.608581
0.60903
0.609117
0.608966
0.608673
0.608296
0.607963
0.607725
0.607509
0.589994
0.590271
0.590775
0.591653
0.592788
0.594122
0.595674
0.59747
0.599514
0.60175
0.603731
0.605071
0.605846
0.606217
0.606312
0.60624
0.606053
0.60586
0.605689
0.605502
0.584904
0.585136
0.585601
0.586462
0.587618
0.589019
0.590685
0.592671
0.595006
0.59765
0.600115
0.601904
0.603061
0.603756
0.604127
0.604283
0.604285
0.604219
0.604104
0.603938
0.579514
0.579712
0.580157
0.581032
0.58225
0.58376
0.585595
0.587839
0.590543
0.593703
0.596755
0.599077
0.600679
0.601744
0.602422
0.602819
0.603029
0.60308
0.603011
0.60286
0.573726
0.573896
0.574338
0.575255
0.576576
0.578248
0.580319
0.5829
0.586073
0.589872
0.593636
0.596593
0.598719
0.600209
0.601238
0.601924
0.602335
0.602502
0.602473
0.60233
0.567423
0.567569
0.568024
0.569012
0.570484
0.572377
0.57476
0.577772
0.581538
0.586122
0.590748
0.594465
0.597212
0.599201
0.600626
0.601626
0.602268
0.602555
0.602562
0.602424
0.560469
0.56059
0.561072
0.562164
0.563837
0.566021
0.568804
0.572364
0.576867
0.582412
0.588082
0.592709
0.59619
0.598768
0.600661
0.602021
0.602921
0.60333
0.603372
0.603234
0.552687
0.552785
0.55331
0.554541
0.556473
0.559027
0.562322
0.566573
0.571991
0.578711
0.585641
0.591353
0.595703
0.598971
0.601425
0.603208
0.604393
0.60493
0.605004
0.604863
0.543849
0.54395
0.544529
0.545917
0.54818
0.551214
0.555161
0.560281
0.566836
0.574995
0.583438
0.590438
0.595812
0.599894
0.60301
0.605284
0.606791
0.607467
0.60757
0.607423
0.533652
0.533734
0.534403
0.536016
0.538712
0.542363
0.547135
0.553349
0.561317
0.571234
0.581491
0.590011
0.596588
0.601627
0.605504
0.608357
0.610231
0.611052
0.611183
0.611026
0.521727
0.521793
0.522562
0.524487
0.52774
0.532184
0.538012
0.545612
0.555342
0.567403
0.579824
0.590127
0.598106
0.604263
0.609021
0.612551
0.614825
0.615794
0.615947
0.615776
0.50753
0.507585
0.508495
0.510835
0.514822
0.520312
0.527518
0.536896
0.548832
0.563498
0.578482
0.590862
0.600448
0.607885
0.613671
0.617958
0.620663
0.621777
0.621945
0.621757
0.490299
0.490342
0.491466
0.494389
0.499384
0.506285
0.515329
0.527027
0.541748
0.559578
0.577557
0.592303
0.603706
0.612591
0.619519
0.624654
0.627803
0.629046
0.629216
0.629008
0.468889
0.46893
0.4704
0.4742
0.480648
0.489541
0.501102
0.515861
0.534088
0.555718
0.577149
0.594544
0.607968
0.618457
0.626615
0.632668
0.636241
0.637579
0.637735
0.637505
0.441582
0.441643
0.443696
0.44891
0.457603
0.469418
0.484528
0.503354
0.525967
0.552091
0.577416
0.597707
0.613298
0.625505
0.635001
0.641959
0.645887
0.647259
0.64738
0.647128
0.40535
0.405508
0.408763
0.416586
0.429074
0.445347
0.465512
0.489679
0.51766
0.548968
0.578572
0.601923
0.619775
0.633762
0.644629
0.652399
0.65654
0.657856
0.657918
0.657647
0.354424
0.355392
0.361859
0.375035
0.394117
0.417285
0.444423
0.475345
0.509662
0.546736
0.580853
0.607331
0.627449
0.643181
0.655351
0.663738
0.66788
0.669037
0.669024
0.66874
0.279928
0.287143
0.302103
0.325295
0.354218
0.38662
0.422279
0.460975
0.502318
0.545657
0.584648
0.614516
0.637106
0.65476
0.668265
0.677134
0.681169
0.682151
0.682091
0.681844
0.199801
0.216897
0.241147
0.275016
0.314151
0.355926
0.40019
0.44688
0.495687
0.54602
0.590822
0.624945
0.650643
0.670664
0.685806
0.695025
0.698668
0.699385
0.699344
0.699192
0.133029
0.153175
0.185111
0.228044
0.276211
0.326822
0.379431
0.433955
0.49007
0.547193
0.59756
0.635676
0.664276
0.686363
0.702567
0.711743
0.715091
0.71573
0.715735
0.715632
0.0783386
0.100136
0.137571
0.186918
0.242221
0.30028
0.360274
0.422
0.485002
0.548612
0.604272
0.646135
0.677373
0.701233
0.718466
0.727837
0.73124
0.731932
0.731963
0.731892
0.032789
0.0557683
0.0969861
0.15143
0.212473
0.276688
0.343035
0.411168
0.480473
0.550142
0.610812
0.656222
0.689955
0.715575
0.733828
0.743864
0.747514
0.748133
0.748196
0.748157
-0.00587804
0.0177736
0.0618509
0.120339
0.186211
0.255663
0.327523
0.401348
0.476398
0.551713
0.61712
0.665919
0.702067
0.729428
0.748798
0.759509
0.763432
0.764111
0.764196
0.764186
-0.0396793
-0.0155826
0.0307631
0.0925785
0.162527
0.236532
0.313285
0.392253
0.472588
0.553186
0.623078
0.675105
0.713555
0.742576
0.762982
0.774347
0.778622
0.779432
0.779552
0.779559
-0.0701037
-0.0456134
0.00258123
0.0672429
0.140707
0.218705
0.299845
0.383501
0.468737
0.554319
0.628485
0.683591
0.724205
0.754724
0.776135
0.78808
0.792688
0.793691
0.793814
0.793823
-0.098109
-0.0732611
-0.0234872
0.0436278
0.120187
0.201722
0.286805
0.374757
0.46458
0.554906
0.633196
0.691249
0.733895
0.765773
0.788053
0.800508
0.805398
0.806541
0.806664
0.806662
-0.124491
-0.0992391
-0.047977
0.0212183
0.100543
0.18523
0.273878
0.365786
0.459913
0.554792
0.637112
0.69805
0.742639
0.775797
0.798755
0.811586
0.81666
0.817892
0.81801
0.817987
-0.149621
-0.123949
-0.0714813
-0.000296266
0.081471
0.168987
0.260867
0.356417
0.454589
0.553868
0.64018
0.704004
0.750495
0.784832
0.808371
0.821421
0.826574
0.827851
0.827945
0.82791
-0.173911
-0.147691
-0.0941944
-0.0211742
0.0627685
0.152822
0.247635
0.346535
0.448508
0.552047
0.64236
0.709136
0.757566
0.793017
0.817026
0.830153
0.835332
0.83661
0.836673
0.836609
-0.197492
-0.17087
-0.11621
-0.0415824
0.0443084
0.136639
0.234103
0.336079
0.44161
0.54927
0.643621
0.713482
0.763958
0.800539
0.824931
0.83804
0.843138
0.844355
0.844414
0.844331
-0.220494
-0.193353
-0.137671
-0.0616009
0.0260348
0.120397
0.220243
0.325018
0.43386
0.545486
0.643919
0.717071
0.769783
0.807568
0.832277
0.845238
0.850166
0.851286
0.851286
0.85118
-0.243047
-0.215333
-0.158655
-0.0812636
0.0079189
0.104093
0.206066
0.313367
0.425255
0.54066
0.643208
0.7199
0.775135
0.814258
0.839204
0.85186
0.856468
0.857428
0.857372
0.857249
-0.265168
-0.236797
-0.179193
-0.100573
-0.0100118
0.0877512
0.191613
0.301165
0.41582
0.534767
0.64143
0.721927
0.780068
0.820786
0.845911
0.858019
0.862121
0.862843
0.862727
0.862575
-0.286705
-0.257711
-0.199221
-0.119508
-0.0277275
0.0714347
0.17694
0.288482
0.405608
0.527829
0.638519
0.723078
0.784577
0.827314
0.852694
0.863984
0.867254
0.867602
0.867419
0.867268
-0.307637
-0.278051
-0.218726
-0.138025
-0.0451739
0.0551991
0.162135
0.275391
0.394693
0.519868
0.634425
0.723231
0.788583
0.833937
0.859948
0.87027
0.872191
0.871801
0.8715
0.871402
-0.328033
-0.297783
-0.237685
-0.156092
-0.0622909
0.0391247
0.147281
0.261995
0.383164
0.510948
0.629096
0.722235
0.791905
0.840566
0.86803
0.877752
0.87783
0.875849
0.875113
0.875301
-0.347721
-0.316884
-0.256044
-0.17365
-0.0790213
0.0232928
0.132472
0.248401
0.371135
0.501159
0.622519
0.719917
0.794263
0.846844
0.876912
0.887423
0.886151
0.881723
0.879049
0.878598
-0.366798
-0.335345
-0.27382
-0.19073
-0.0953977
0.00766084
0.117653
0.234554
0.35854
0.490428
0.614558
0.716004
0.795341
0.852239
0.885944
0.89954
0.899549
0.893188
0.884921
0.870865
-0.385189
-0.353153
-0.29113
-0.207531
-0.111703
-0.00809832
0.102416
0.21998
0.344853
0.478133
0.604578
0.709727
0.79458
0.856025
0.893406
0.911895
0.913874
0.901365
0.881598
0.869901
-0.402719
-0.370441
-0.30778
-0.22385
-0.127589
-0.0236442
0.0869833
0.204999
0.330374
0.464524
0.592635
0.7006
0.791135
0.85704
0.895081
0.913387
0.918097
0.894836
0.827146
0.796766
-0.418721
-0.388456
-0.323442
-0.239188
-0.142273
-0.0384768
0.0716692
0.18984
0.315319
0.449719
0.578656
0.688299
0.783567
0.854611
0.885977
0.898844
0.888106
0.833881
0.764793
0.722288
-0.474324
-0.404352
-0.337662
-0.254666
-0.15737
-0.054055
0.0564059
0.174219
0.299315
0.433254
0.562028
0.672161
0.767995
0.845566
0.85023
0.852766
0.802961
0.732496
0.655781
0.613082
-0.435741
-0.419691
-0.358909
-0.274994
-0.179676
-0.076428
0.0330057
0.150152
0.27423
0.40671
0.533514
0.641913
0.729799
0.81205
0.798658
0.685
0.579511
0.506102
0.432573
0.462998
-0.466708
-0.437332
-0.375618
-0.292512
-0.197203
-0.0940952
0.0155969
0.132094
0.255086
0.385739
0.50971
0.613887
0.69239
0.736277
0.687606
0.538337
0.410205
0.318597
0.219727
0.269695
-0.490569
-0.458255
-0.395294
-0.312021
-0.216605
-0.113601
-0.00399752
0.111656
0.233231
0.361458
0.481683
0.579678
0.649357
0.658828
0.552093
0.378986
0.226077
0.107081
-0.024158
0.00857702
-0.513931
-0.480072
-0.415916
-0.331716
-0.236204
-0.133346
-0.024267
0.0904143
0.210379
0.335801
0.451355
0.541536
0.595955
0.574095
0.415484
0.219103
0.0287454
-0.139206
-0.327798
-0.346299
-0.536705
-0.502384
-0.437324
-0.352339
-0.256667
-0.154023
-0.0455924
0.0679935
0.186091
0.308314
0.418492
0.500855
0.535938
0.477988
0.285572
0.0751461
-0.14202
-0.331196
-0.573098
-0.871222
-0.55978
-0.525446
-0.459829
-0.374341
-0.278468
-0.175983
-0.0681281
0.0443296
0.160452
0.279212
0.383705
0.457836
0.471991
0.362994
0.172605
-0.0371287
-0.241253
-0.413399
-0.482504
-0.561625
-0.584117
-0.549707
-0.483778
-0.398043
-0.302104
-0.199869
-0.0926803
0.0184766
0.132306
0.247078
0.345531
0.408714
0.398043
0.255442
0.0722887
-0.118426
-0.281042
-0.373766
-0.397787
-0.413705
-0.610022
-0.575477
-0.509344
-0.423525
-0.327704
-0.225889
-0.119606
-0.0100503
0.101067
0.211211
0.303136
0.352312
0.324124
0.155665
-0.0185809
-0.18423
-0.310552
-0.349464
-0.362337
-0.363668
-0.637699
-0.602932
-0.536591
-0.450782
-0.355218
-0.254047
-0.148921
-0.0412984
0.0666708
0.171611
0.256078
0.291258
0.243573
0.0635619
-0.101616
-0.249961
-0.325962
-0.342974
-0.344264
-0.344067
-0.667212
-0.632138
-0.565542
-0.479811
-0.38466
-0.284329
-0.180626
-0.0752793
0.0291284
0.128344
0.204424
0.227773
0.144542
-0.0205301
-0.177398
-0.299652
-0.336238
-0.334479
-0.33346
-0.332825
-0.698275
-0.662909
-0.596095
-0.510524
-0.415941
-0.316679
-0.214687
-0.111962
-0.0115184
0.0815129
0.14902
0.155838
0.0542497
-0.098851
-0.237366
-0.312594
-0.323074
-0.32584
-0.326575
-0.326272
-0.730337
-0.694811
-0.627992
-0.542689
-0.448872
-0.350935
-0.250945
-0.151209
-0.0550818
0.0314543
0.0902574
0.0819176
-0.027022
-0.165051
-0.280666
-0.311835
-0.320374
-0.321985
-0.321877
-0.32163
-0.76293
-0.727284
-0.660791
-0.575909
-0.483106
-0.386771
-0.289113
-0.192725
-0.10127
-0.0211636
0.0271387
0.0112133
-0.102289
-0.218401
-0.310709
-0.326467
-0.318987
-0.318257
-0.318304
-0.318147
-0.795157
-0.759595
-0.693597
-0.609597
-0.518097
-0.42371
-0.328733
-0.236015
-0.149599
-0.0757137
-0.0374344
-0.0549587
-0.169643
-0.258576
-0.311043
-0.322404
-0.319148
-0.317549
-0.31692
-0.316687
-0.825441
-0.790568
-0.725443
-0.642828
-0.553075
-0.461049
-0.369145
-0.280372
-0.199245
-0.131579
-0.096906
-0.129369
-0.228369
-0.294632
-0.295839
-0.314661
-0.319923
-0.318408
-0.31776
-0.317339
-0.852176
-0.818401
-0.755197
-0.674397
-0.587
-0.49785
-0.409473
-0.324915
-0.24903
-0.187774
-0.153727
-0.202371
-0.289111
-0.324283
-0.331722
-0.331756
-0.329813
-0.328005
-0.327383
-0.326815
-0.873242
-0.841185
-0.780862
-0.702896
-0.618596
-0.532958
-0.448617
-0.36859
-0.297714
-0.242843
-0.212389
-0.262794
-0.351772
-0.419879
-0.415366
-0.39027
-0.367494
-0.359119
-0.355227
-0.353096
-0.886389
-0.857041
-0.800435
-0.726482
-0.646365
-0.565065
-0.485348
-0.41015
-0.344116
-0.294745
-0.267809
-0.30855
-0.400346
-0.541795
-0.498488
-0.433039
-0.405682
-0.392713
-0.384955
-0.382966
-0.888992
-0.863712
-0.812025
-0.743321
-0.668624
-0.592779
-0.518357
-0.448312
-0.386935
-0.341143
-0.310101
-0.320827
-0.360046
-0.529863
-0.460599
-0.394064
-0.367676
-0.357447
-0.354108
-0.353123
-0.878884
-0.858512
-0.813468
-0.751825
-0.683919
-0.614652
-0.546373
-0.48182
-0.424741
-0.380895
-0.337234
-0.279752
-0.164165
-0.118774
-0.167255
-0.224114
-0.265974
-0.284784
-0.29326
-0.294808
-0.853997
-0.838634
-0.802943
-0.750793
-0.691294
-0.6297
-0.568283
-0.509563
-0.457014
-0.415659
-0.360693
-0.246017
0.0338608
0.453469
0.159387
-0.116053
-0.256378
-0.309419
-0.329337
-0.335636
-0.816856
-0.806933
-0.781221
-0.740381
-0.690745
-0.637697
-0.583547
-0.530685
-0.483459
-0.445963
-0.405904
-0.383543
-0.417413
-0.503542
-0.632442
-0.627226
-0.597357
-0.586878
-0.589285
-0.593763
-0.774161
-0.768539
-0.753182
-0.723376
-0.684148
-0.63935
-0.592211
-0.545019
-0.501923
-0.472203
-0.458712
-0.668741
-1.16111
-1.68629
-1.66795
-1.30475
-1.06615
-0.935141
-0.887872
-0.878152
-0.73577
-0.732407
-0.725078
-0.705242
-0.674353
-0.636509
-0.594911
-0.551419
-0.509829
-0.478211
-0.471439
-0.607278
-0.790541
-0.96236
-0.983257
-0.941747
-0.936104
-0.858927
-0.790255
-0.778197
-0.708536
-0.706471
-0.702874
-0.690442
-0.66568
-0.632075
-0.593348
-0.550279
-0.505659
-0.461003
-0.441002
-0.417975
-0.429958
-0.44295
-0.47681
-0.528046
-0.585416
-0.546694
-0.458582
-0.418562
-0.688074
-0.687313
-0.686211
-0.680037
-0.660694
-0.629291
-0.589929
-0.545007
-0.494113
-0.442668
-0.403763
-0.376777
-0.243125
-0.0171539
0.192812
0.33198
0.388792
0.415811
0.439618
0.456481
-0.676448
-0.676066
-0.675447
-0.672807
-0.658877
-0.628457
-0.586543
-0.536691
-0.480837
-0.417544
-0.351545
-0.286401
-0.069705
0.262245
0.58991
0.854356
0.971422
1.0215
1.0307
1.02774
-0.669627
-0.669311
-0.668604
-0.668153
-0.6599
-0.630128
-0.584113
-0.528652
-0.463968
-0.386058
-0.302182
-0.207666
0.0241896
0.350227
0.65312
0.890128
1.03325
1.11604
1.16018
1.17592
-0.666626
-0.666757
-0.667115
-0.66848
-0.663469
-0.634119
-0.583622
-0.522289
-0.448279
-0.36357
-0.266129
-0.168891
0.073934
0.37399
0.65287
0.882979
1.04184
1.15319
1.22322
1.25006
-0.661762
-0.662761
-0.66517
-0.668423
-0.664638
-0.635982
-0.584967
-0.51914
-0.438337
-0.34283
-0.240413
-0.152612
0.0549133
0.35349
0.652998
0.914087
1.11216
1.23973
1.30664
1.32804
-0.656237
-0.655806
-0.651974
-0.645095
-0.640997
-0.628377
-0.58987
-0.522252
-0.434746
-0.332966
-0.230534
-0.134639
0.0332408
0.317974
0.597333
0.839552
1.03692
1.15762
1.21316
1.22827
-0.681085
-0.675923
-0.657505
-0.630936
-0.623659
-0.63644
-0.609444
-0.533892
-0.435825
-0.327392
-0.225234
-0.129753
-0.00577406
0.236225
0.474092
0.679803
0.839992
0.935623
0.978049
0.988604
-0.75962
-0.757877
-0.759273
-0.767318
-0.763039
-0.748461
-0.665264
-0.554113
-0.437379
-0.323318
-0.221316
-0.127527
-0.0282006
0.140693
0.336891
0.496605
0.621774
0.693477
0.724457
0.730549
-0.881693
-0.899007
-0.937105
-0.964706
-0.954445
-0.887209
-0.730852
-0.570869
-0.434474
-0.31628
-0.219209
-0.137572
-0.0638482
0.057049
0.206744
0.330335
0.426272
0.478885
0.499543
0.502423
-0.91833
-0.939379
-0.975687
-1.00037
-0.986719
-0.900487
-0.721574
-0.550869
-0.413307
-0.301513
-0.215124
-0.149445
-0.0976517
-0.0148074
0.0962564
0.189118
0.258973
0.295119
0.309116
0.309805
-0.749302
-0.77126
-0.805816
-0.833879
-0.824108
-0.737361
-0.599712
-0.470645
-0.362116
-0.272215
-0.202579
-0.155604
-0.117872
-0.0638746
0.00823128
0.0757023
0.120408
0.143133
0.15067
0.150046
-0.427081
-0.440346
-0.464067
-0.48907
-0.495991
-0.465447
-0.40977
-0.347431
-0.288292
-0.231549
-0.183429
-0.14965
-0.120311
-0.08686
-0.0467913
-0.0127714
0.00978081
0.0188558
0.0220438
0.0209969
-0.125347
-0.131308
-0.146181
-0.171015
-0.199575
-0.220885
-0.22994
-0.226012
-0.210904
-0.186957
-0.161077
-0.13904
-0.116176
-0.099513
-0.0833448
-0.0733178
-0.0698198
-0.0712408
-0.0725513
-0.073179
0.0492888
0.0464114
0.0357423
0.0116415
-0.0267171
-0.0703872
-0.107672
-0.133724
-0.146613
-0.147603
-0.140197
-0.127827
-0.112892
-0.110103
-0.111775
-0.115003
-0.121415
-0.126359
-0.127853
-0.128076
0.111389
0.109495
0.101206
0.0807728
0.0461538
0.00341557
-0.038792
-0.074471
-0.100743
-0.117598
-0.126516
-0.128119
-0.124286
-0.127099
-0.131201
-0.136904
-0.143651
-0.14801
-0.149139
-0.149486
0.11672
0.11527
0.109178
0.0940814
0.0679977
0.0341236
-0.00289581
-0.038287
-0.0694975
-0.0966645
-0.122316
-0.147213
-0.163295
-0.15924
-0.152233
-0.150947
-0.151103
-0.152004
-0.15223
-0.152619
0.101775
0.10075
0.0965683
0.0861731
0.0678425
0.0428785
0.0134493
-0.0171955
-0.0477169
-0.0796641
-0.117891
-0.166146
-0.200982
-0.181675
-0.161455
-0.150458
-0.146742
-0.146056
-0.14587
-0.146124
0.0829782
0.0823161
0.0795896
0.0727255
0.0602997
0.0426647
0.0206924
-0.00379951
-0.0301517
-0.0605444
-0.100392
-0.153773
-0.180659
-0.15763
-0.137309
-0.129565
-0.128545
-0.129309
-0.129495
-0.129522
0.0660147
0.0656334
0.063963
0.0596254
0.0515067
0.0395583
0.0240864
0.00612942
-0.0136329
-0.0363339
-0.0652594
-0.100079
-0.110054
-0.0952897
-0.0876327
-0.0891053
-0.0936187
-0.0965147
-0.0970978
-0.0969525
0.0521912
0.051985
0.0510485
0.0484653
0.0434379
0.0357818
0.0256731
0.0139118
0.00152664
-0.0104895
-0.0200702
-0.0274614
-0.0215337
-0.0160363
-0.0234273
-0.0337606
-0.0423401
-0.0462945
-0.0470966
-0.0471185
0.0411342
0.0410589
0.0406065
0.039227
0.0363772
0.0319219
0.026065
0.0196835
0.0145078
0.013811
0.0231774
0.0427322
0.068083
0.0580038
0.0384502
0.022015
0.0126889
0.010582
0.00881203
0.0083645
0.0318585
0.0318814
0.0317425
0.031164
0.0298363
0.0276423
0.0249003
0.0226268
0.0230524
0.030972
0.0538271
0.0891099
0.120715
0.107304
0.0846676
0.0657657
0.0582427
0.0555376
0.0546023
0.0538905
0.023624
0.0236901
0.0237317
0.0236626
0.0232781
0.0225363
0.0218235
0.022163
0.0258888
0.0383204
0.0665419
0.106014
0.136541
0.124331
0.103105
0.0903299
0.0865406
0.085361
0.0837784
0.0825535
0.0158851
0.0159584
0.0160681
0.0162329
0.0163457
0.0164071
0.0167063
0.0181603
0.0227314
0.0351451
0.0611255
0.0921896
0.119678
0.10613
0.0930459
0.0881395
0.0874579
0.0877826
0.0861087
0.0848569
0.00848019
0.008526
0.00862557
0.00887703
0.00915415
0.00946155
0.00995626
0.0112163
0.0144985
0.0228866
0.0407426
0.0636422
0.0752928
0.0648972
0.0577426
0.0581716
0.0613917
0.0633896
0.0618904
0.060647
0.0015049
0.00152957
0.00153614
0.00160204
0.00175047
0.00183295
0.001908
0.00213709
0.00264629
0.00396899
0.00672185
0.0121485
0.0163904
0.0200949
0.0168111
0.0182646
0.018215
0.0144878
0.0125219
0.012348
-0.0995536
0.0671446
0.261758
0.431608
0.567282
0.674077
0.762361
0.837528
0.871788
0.848519
0.202666
0.32322
0.452919
0.564988
0.659415
0.737527
0.800772
0.845683
0.868165
0.880278
0.421187
0.503883
0.592536
0.670812
0.738119
0.794433
0.839228
0.871969
0.895655
0.913663
0.581774
0.640973
0.702507
0.759521
0.80911
0.851229
0.885836
0.913458
0.936228
0.954544
0.70707
0.750129
0.796044
0.839796
0.878457
0.912235
0.941157
0.965238
0.985611
1.00346
0.811302
0.844149
0.882231
0.917746
0.950353
0.979589
1.00514
1.02663
1.04448
1.06183
0.903798
0.932476
0.966428
0.998548
1.02849
1.05565
1.0794
1.09911
1.11462
1.13169
0.992358
1.02155
1.05555
1.08759
1.11718
1.14377
1.16663
1.18512
1.19849
1.21552
1.08765
1.12086
1.1575
1.19107
1.22111
1.2473
1.26925
1.28653
1.29839
1.31579
1.20264
1.24047
1.27911
1.31335
1.34269
1.36744
1.38781
1.4037
1.41517
1.43324
1.34758
1.38612
1.42226
1.45294
1.47862
1.50072
1.51977
1.5353
1.54773
1.56572
1.52265
1.55427
1.58045
1.6029
1.62287
1.64159
1.65931
1.67579
1.69114
1.7092
1.71126
1.72847
1.7435
1.75973
1.77564
1.79017
1.80337
1.8173
1.83484
1.85499
1.89298
1.90252
1.91406
1.92487
1.93415
1.94374
1.95452
1.96589
1.97725
1.9926
2.10022
2.10388
2.08893
2.07413
2.06785
2.07352
2.092
2.12231
2.15449
2.18114
2.40654
2.27167
2.19503
2.15265
2.13523
2.13919
2.16659
2.22301
2.32562
2.54999
0.71126
0.709132
0.704648
0.696024
0.6838
0.671672
0.661444
0.653551
0.647936
0.644687
0.644338
0.647082
0.65219
0.659415
0.668804
0.680344
0.692995
0.70403
0.710142
0.713196
0.635712
0.641559
0.647892
0.652385
0.654855
0.654531
0.651795
0.647987
0.64448
0.642226
0.642085
0.644287
0.647954
0.652245
0.656053
0.657936
0.657
0.653519
0.648355
0.641735
0.627284
0.629581
0.632984
0.63598
0.638055
0.639552
0.640308
0.639994
0.638972
0.638094
0.638276
0.639708
0.641526
0.642833
0.643014
0.642124
0.640575
0.638238
0.634975
0.632054
0.62177
0.622856
0.624689
0.627067
0.62909
0.630518
0.631539
0.632293
0.632699
0.632927
0.633424
0.634236
0.634836
0.634904
0.634492
0.633643
0.632173
0.630089
0.628003
0.626619
0.616563
0.617225
0.618333
0.620037
0.621818
0.62345
0.624746
0.625764
0.62665
0.627447
0.628183
0.628739
0.628934
0.628768
0.628201
0.627145
0.625717
0.624173
0.622854
0.622075
0.611581
0.612042
0.612827
0.614124
0.61561
0.617126
0.618591
0.619891
0.62103
0.622092
0.623015
0.623587
0.623734
0.62346
0.622761
0.621771
0.620644
0.619511
0.618595
0.618078
0.606746
0.60709
0.6077
0.608767
0.61006
0.611432
0.61287
0.614317
0.615693
0.616979
0.618097
0.618792
0.61897
0.618694
0.618093
0.617315
0.616462
0.615594
0.614922
0.614543
0.602002
0.60227
0.602762
0.603669
0.604836
0.606131
0.607524
0.609012
0.610555
0.612081
0.613435
0.614308
0.614609
0.614487
0.614092
0.613529
0.612879
0.612239
0.611746
0.611458
0.597269
0.597481
0.597891
0.598687
0.599773
0.601019
0.602402
0.603936
0.605609
0.607369
0.609007
0.610137
0.610674
0.610789
0.610621
0.610276
0.60983
0.60938
0.609028
0.608802
0.592458
0.59263
0.59298
0.593703
0.594743
0.595966
0.597375
0.598991
0.600818
0.60283
0.604806
0.606288
0.607142
0.607539
0.607619
0.607501
0.607265
0.606986
0.606748
0.606568
0.587484
0.587622
0.587931
0.588609
0.589631
0.590877
0.592351
0.594091
0.596126
0.598444
0.600834
0.602753
0.603988
0.604713
0.605074
0.605195
0.605167
0.605052
0.604912
0.604767
0.582256
0.582368
0.582649
0.583307
0.584346
0.585661
0.587244
0.589161
0.59147
0.594176
0.597076
0.599521
0.601206
0.602309
0.602988
0.603371
0.603552
0.603605
0.60355
0.603433
0.57668
0.576769
0.577034
0.577697
0.57879
0.580214
0.581961
0.584124
0.586784
0.589983
0.593511
0.596587
0.598804
0.600344
0.601379
0.602066
0.602486
0.602692
0.602713
0.602617
0.57065
0.570718
0.570976
0.571667
0.572851
0.574433
0.576407
0.578895
0.582004
0.58582
0.590114
0.59395
0.596797
0.59885
0.600295
0.601321
0.602
0.602375
0.602467
0.602388
0.564039
0.564086
0.564346
0.565087
0.566403
0.568198
0.570473
0.573376
0.577055
0.581633
0.58686
0.59161
0.595209
0.597868
0.599793
0.601196
0.602177
0.602732
0.602894
0.602829
0.556692
0.556723
0.556988
0.557801
0.559293
0.561366
0.564027
0.567459
0.571852
0.577369
0.583731
0.589579
0.59407
0.597444
0.599937
0.601789
0.603112
0.603861
0.604093
0.604039
0.548422
0.548439
0.548705
0.549617
0.551341
0.553758
0.556915
0.561018
0.566303
0.572977
0.580716
0.587879
0.593428
0.597641
0.600806
0.6032
0.604908
0.605868
0.606171
0.606125
0.538917
0.538904
0.539232
0.540282
0.542292
0.545163
0.548954
0.553904
0.560306
0.568408
0.577817
0.586543
0.593341
0.598541
0.602493
0.605517
0.607669
0.608866
0.609241
0.6092
0.527897
0.527858
0.52823
0.529475
0.531856
0.535314
0.539911
0.545935
0.553736
0.563599
0.575023
0.585605
0.593865
0.600226
0.605102
0.608852
0.611519
0.612968
0.613414
0.613374
0.514882
0.514817
0.515267
0.516763
0.519629
0.523854
0.529496
0.5369
0.546469
0.558504
0.572352
0.585119
0.595077
0.602776
0.608732
0.613317
0.61656
0.618275
0.618786
0.618742
0.499231
0.499136
0.499711
0.501558
0.505073
0.51032
0.517349
0.526557
0.538381
0.553104
0.569848
0.585156
0.59706
0.606279
0.613471
0.619
0.622874
0.624857
0.625422
0.625369
0.480007
0.479885
0.48066
0.483022
0.487454
0.494124
0.50305
0.514663
0.529396
0.547438
0.567607
0.585821
0.599911
0.610835
0.61938
0.625965
0.630503
0.632736
0.633333
0.633263
0.455814
0.455675
0.456781
0.459938
0.465751
0.474502
0.486115
0.500999
0.519482
0.541585
0.565747
0.587222
0.603714
0.616499
0.626502
0.634236
0.63942
0.641852
0.642449
0.642353
0.42435
0.424232
0.425946
0.430481
0.438588
0.450574
0.466127
0.485501
0.508788
0.535771
0.564485
0.589524
0.60857
0.623324
0.634877
0.643768
0.649502
0.652035
0.652587
0.65246
0.38148
0.381523
0.384574
0.39198
0.404333
0.421597
0.442979
0.468403
0.497676
0.530367
0.564107
0.592908
0.614579
0.631339
0.644446
0.654418
0.660505
0.662983
0.663439
0.663277
0.319484
0.320673
0.328133
0.341939
0.362048
0.387707
0.417296
0.450424
0.486779
0.525824
0.564882
0.597518
0.621798
0.640492
0.655036
0.665846
0.672029
0.674213
0.674502
0.674315
0.24592
0.247657
0.261935
0.285642
0.316627
0.352196
0.390744
0.43209
0.476046
0.522122
0.567368
0.604765
0.632445
0.653629
0.669966
0.681686
0.687859
0.689844
0.690096
0.690004
0.169978
0.176115
0.197205
0.231103
0.272454
0.317645
0.365123
0.414754
0.466414
0.519644
0.571263
0.613594
0.644789
0.668625
0.686937
0.69939
0.705168
0.706718
0.706899
0.706867
0.107855
0.116285
0.141932
0.182819
0.232286
0.285691
0.341218
0.398592
0.457595
0.517715
0.575459
0.622451
0.656908
0.683071
0.702795
0.715726
0.721465
0.722846
0.723086
0.723116
0.0573145
0.0663395
0.0955252
0.141634
0.197235
0.257261
0.319602
0.383829
0.449552
0.516132
0.579673
0.631081
0.668574
0.696899
0.718115
0.731606
0.737327
0.739036
0.739362
0.739437
0.0149874
0.024296
0.0559301
0.106032
0.16667
0.232195
0.300317
0.370533
0.44229
0.514818
0.583807
0.639403
0.6798
0.710218
0.732821
0.747184
0.753396
0.755396
0.755752
0.755838
-0.0214782
-0.0120544
0.0214241
0.0747263
0.139525
0.209738
0.282895
0.358414
0.435641
0.513673
0.587786
0.647366
0.690546
0.722983
0.746992
0.762271
0.769084
0.77125
0.771658
0.771739
-0.0537471
-0.0442811
-0.00938547
0.0466191
0.114903
0.189158
0.266772
0.347069
0.42931
0.512464
0.591422
0.654789
0.700616
0.73494
0.760274
0.776412
0.783808
0.786161
0.786591
0.78665
-0.083095
-0.0735821
-0.0375215
0.0208212
0.092093
0.169886
0.251463
0.33609
0.422954
0.510928
0.594508
0.661507
0.709843
0.745902
0.772429
0.789287
0.797252
0.799783
0.800232
0.800277
-0.110389
-0.100821
-0.0637261
-0.00338778
0.0705535
0.151479
0.236595
0.325163
0.41632
0.508858
0.596898
0.667425
0.718156
0.75586
0.783418
0.80087
0.809219
0.811893
0.812361
0.812384
-0.136186
-0.126555
-0.0884893
-0.0264661
0.0498898
0.133602
0.221909
0.314074
0.409218
0.506095
0.598483
0.672503
0.725589
0.764838
0.793326
0.811244
0.819765
0.822544
0.823019
0.823014
-0.160989
-0.151193
-0.112278
-0.0486514
0.0298337
0.116032
0.20722
0.302667
0.401522
0.50253
0.599192
0.676731
0.732195
0.772948
0.802257
0.820481
0.829079
0.831862
0.832339
0.832309
-0.185032
-0.17501
-0.135344
-0.0701709
0.0102016
0.0986214
0.192406
0.290849
0.393144
0.498091
0.59897
0.6801
0.738038
0.780324
0.810365
0.828789
0.837372
0.84011
0.840549
0.840487
-0.208421
-0.198188
-0.157719
-0.0911736
-0.00911409
0.0813008
0.177412
0.278572
0.384041
0.492715
0.597759
0.682612
0.743193
0.787115
0.81788
0.836398
0.844848
0.84748
0.847863
0.847781
-0.231316
-0.220779
-0.179552
-0.111729
-0.0281578
0.0640324
0.16222
0.265829
0.374203
0.486382
0.59551
0.684246
0.747721
0.793461
0.824957
0.843433
0.851648
0.85409
0.854384
0.854265
-0.253678
-0.242862
-0.200897
-0.131873
-0.0469379
0.0468265
0.146861
0.252651
0.363652
0.47908
0.59218
0.684951
0.751646
0.799487
0.831772
0.850037
0.857802
0.85996
0.860141
0.860003
-0.275566
-0.264441
-0.22169
-0.151593
-0.0654363
0.0297143
0.131372
0.239096
0.352438
0.470829
0.587732
0.684659
0.754944
0.805298
0.838549
0.856436
0.863461
0.865152
0.865189
0.86503
-0.296808
-0.285444
-0.241925
-0.17085
-0.083607
0.0127655
0.11582
0.225231
0.340632
0.461685
0.582146
0.683283
0.757533
0.810932
0.845545
0.863026
0.868924
0.8698
0.869594
0.869428
-0.317542
-0.30583
-0.26159
-0.189623
-0.101419
-0.00398236
0.100293
0.211136
0.32832
0.451725
0.575428
0.680718
0.759263
0.816306
0.852954
0.870387
0.874856
0.874248
0.873429
0.873258
-0.337605
-0.325576
-0.280655
-0.207867
-0.118795
-0.0204453
0.0848735
0.196932
0.315609
0.441014
0.567617
0.676859
0.759933
0.821174
0.860706
0.879138
0.882571
0.87971
0.877211
0.87624
-0.357059
-0.344725
-0.299066
-0.225532
-0.135698
-0.0365542
0.0696435
0.182697
0.302613
0.429686
0.558779
0.671605
0.759307
0.825128
0.86827
0.889328
0.893614
0.889346
0.882837
0.874369
-0.375819
-0.363233
-0.316917
-0.242772
-0.152336
-0.0525799
0.0542733
0.168039
0.288888
0.417248
0.548389
0.664406
0.756891
0.827793
0.874959
0.900208
0.90825
0.904315
0.894034
0.888583
-0.393838
-0.381024
-0.334192
-0.259558
-0.168712
-0.0685172
0.0387764
0.152936
0.274388
0.403581
0.536247
0.654871