/*--------------------------------*- C++ -*----------------------------------*\
| =========                 |                                                 |
| \\      /  F ield         | OpenFOAM: The Open Source CFD Toolbox           |
|  \\    /   O peration     | Version:  2112                                  |
|   \\  /    A nd           | Website:  www.openfoam.com                      |
|    \\/     M anipulation  |                                                 |
\*---------------------------------------------------------------------------*/
FoamFile
{
    version     2.0;
    format      ascii;
    arch        "LSB;label=32;scalar=64";
    class       surfaceScalarField;
    location    "57.5";
    object      phi;
}
// * * * * * * * * * * * * * * * * * * * * * * * * * * * * * * * * * * * * * //

dimensions      [0 3 -1 0 0 0 0];

oriented        oriented;

internalField   nonuniform List<scalar> 
17370
(
-0.0916067
0.0960096
0.284608
-0.077595
0.0594206
0.36495
-0.0430433
0.0316243
0.427587
-0.0223215
0.0162699
0.505303
-0.0116775
0.00880389
0.602276
-0.00659247
0.00510715
0.720543
-0.00386989
0.00298937
0.863787
-0.00221638
0.0016383
1.03603
-0.00110697
0.000686013
1.24292
-0.000274721
-0.000119112
1.49158
0.000507381
-0.000920862
1.4916
0.00132506
-0.00182978
1.2432
0.00238058
-0.00312398
1.03638
0.00398151
-0.00520052
0.864126
0.00667487
-0.00887686
0.721259
0.0117404
-0.0163183
0.603793
0.0223551
-0.0316418
0.508726
0.0430432
-0.0594099
0.432535
0.0775884
-0.0960035
0.365191
0.0916209
0.19739
-0.127091
0.0880222
0.0390686
-0.364355
0.354029
-0.0714759
0.0818018
-0.446654
0.454254
-0.0791711
0.0715712
-0.521011
0.529109
-0.0637192
0.0556217
-0.612991
0.62076
-0.0482353
0.0404663
-0.727164
0.733685
-0.0338544
0.0273334
-0.867581
0.872434
-0.0221291
0.017276
-1.03857
1.04191
-0.0135765
0.010236
-1.24472
1.24713
-0.00768432
0.00527741
-1.49284
1.49486
-0.00331198
0.00129564
-1.49269
1.49452
0.000525358
-0.00234689
-1.24411
1.24602
0.00432122
-0.00623335
-1.03761
1.04009
0.00857006
-0.0110503
-0.866187
0.869814
0.0143091
-0.0179368
-0.724594
0.729747
0.0227215
-0.0278743
-0.609064
0.615633
0.0343467
-0.0409157
-0.515123
0.522458
0.0486352
-0.0559706
-0.43988
0.447657
0.0639925
-0.0717701
-0.374707
0.377355
0.0792647
-0.081913
-0.256897
0.224434
0.0715629
-0.0391009
-0.0688108
0.0591991
0.00961168
-0.052107
0.0589335
-0.374837
0.368011
-0.0580862
0.0542444
-0.453946
0.457788
-0.0487579
0.0441989
-0.527618
0.532177
-0.0396496
0.0357541
-0.620803
0.624698
-0.0315414
0.0275457
-0.734662
0.738657
-0.0231875
0.0192983
-0.873957
0.877847
-0.0152505
0.0117909
-1.04336
1.04682
-0.0082685
0.00523323
-1.24865
1.25169
-0.00202279
-0.000960853
-1.49695
1.49993
0.00392262
-0.00707227
-1.49742
1.50057
0.0100179
-0.0134193
-1.25006
1.25347
0.0167566
-0.0206651
-1.04565
1.04955
0.0244314
-0.028667
-0.877133
0.881369
0.0325635
-0.0366792
-0.738979
0.743095
0.0404947
-0.0449655
-0.625967
0.630438
0.0494588
-0.0548811
-0.535013
0.540435
0.0586486
-0.0594079
-0.458073
0.458832
0.0524591
-0.0320679
-0.336759
0.316368
0.00967444
-0.0686597
0.0589852
-0.0534104
0.0492995
0.00411094
-0.0332397
0.0436617
-0.358566
0.348144
-0.0473363
0.0467487
-0.459582
0.46017
-0.0438198
0.040607
-0.536135
0.539348
-0.0369302
0.0335759
-0.6284
0.631754
-0.0299424
0.0267009
-0.742039
0.745281
-0.0232464
0.0200466
-0.881342
0.884542
-0.0164504
0.0130953
-1.05025
1.05361
-0.00939239
0.00598425
-1.25495
1.25836
-0.00219011
-0.00142884
-1.50328
1.5069
0.00501641
-0.00871919
-1.50406
1.50777
0.0120024
-0.0155356
-1.25702
1.26056
0.018718
-0.022116
-1.05326
1.05666
0.0251397
-0.0284175
-0.884975
0.888253
0.0315164
-0.0350104
-0.746776
0.75027
0.0382474
-0.0418023
-0.634555
0.63811
0.0449093
-0.0477192
-0.544576
0.547386
0.0481836
-0.0443377
-0.456945
0.453099
0.0337054
-0.0163852
-0.297045
0.279725
0.00418036
-0.0531337
0.0489534
-0.0461308
0.0435761
0.00255477
-0.0230418
0.0333883
-0.337555
0.327209
-0.0391193
0.0400662
-0.459922
0.458975
-0.0388133
0.0364845
-0.542006
0.544335
-0.0338421
0.0312959
-0.634725
0.637271
-0.0283189
0.0254699
-0.748369
0.751218
-0.0222298
0.0192131
-0.8876
0.890616
-0.0158583
0.0127204
-1.05678
1.05992
-0.00915934
0.00575551
-1.26175
1.26516
-0.00184152
-0.0019585
-1.51063
1.51443
0.00571817
-0.00950953
-1.51155
1.51534
0.0127484
-0.0160867
-1.26401
1.26735
0.0189976
-0.0220926
-1.05986
1.06295
0.0248761
-0.027878
-0.891447
0.894448
0.0305309
-0.0333152
-0.753447
0.756231
0.0357011
-0.0381815
-0.641059
0.64354
0.0403715
-0.0414408
-0.549217
0.550286
0.0403028
-0.0342928
-0.447968
0.441958
0.0236397
-0.0103824
-0.264529
0.251272
0.0026408
-0.0457073
0.0430665
-0.0414588
0.0396594
0.00179935
-0.0169373
0.026218
-0.317344
0.308063
-0.0328094
0.034926
-0.457418
0.455301
-0.0344882
0.0327868
-0.546368
0.54807
-0.0305568
0.0284268
-0.639587
0.641717
-0.0259865
0.023605
-0.753823
0.756204
-0.0207859
0.018035
-0.893476
0.896227
-0.0148455
0.011806
-1.06297
1.06601
-0.00833571
0.00501586
-1.26848
1.2718
-0.00117268
-0.00257649
-1.5182
1.52195
0.00627385
-0.00996283
-1.51908
1.52277
0.0130742
-0.0162631
-1.27062
1.27381
0.0190151
-0.0218723
-1.06597
1.06883
0.0243216
-0.0268312
-0.897229
0.899739
0.028959
-0.0311512
-0.758669
0.760861
0.0330766
-0.0350977
-0.645761
0.647782
0.0365966
-0.0367843
-0.55086
0.551048
0.034374
-0.0273745
-0.435358
0.428358
0.017683
-0.00748423
-0.239686
0.229487
0.00190457
-0.0408544
0.0389498
-0.038111
0.0367607
0.00135034
-0.0129366
0.0209297
-0.299429
0.291436
-0.0276908
0.0306078
-0.452751
0.449834
-0.0308104
0.0296822
-0.549512
0.55064
-0.0276796
0.0257498
-0.64378
0.64571
-0.0235334
0.0213872
-0.758452
0.760599
-0.018873
0.0163988
-0.898781
0.901255
-0.0134724
0.0106116
-1.06891
1.07177
-0.00727651
0.00405563
-1.27504
1.27826
-0.000319076
-0.0033139
-1.52561
1.52925
0.00688223
-0.0104257
-1.52637
1.52992
0.0133864
-0.0163696
-1.27692
1.2799
0.0188696
-0.021378
-1.07155
1.07406
0.023474
-0.0256001
-0.902047
0.904173
0.0274263
-0.0293273
-0.762899
0.7648
0.0309983
-0.0327507
-0.649644
0.651397
0.0335827
-0.0330318
-0.550867
0.550316
0.0296952
-0.0223755
-0.421141
0.413821
0.0138555
-0.00578462
-0.220454
0.212383
0.00147867
-0.0372857
0.035807
-0.0355813
0.0345416
0.00103972
-0.0101106
0.0168776
-0.28408
0.277313
-0.0233882
0.0267677
-0.446665
0.443286
-0.0275478
0.0268523
-0.551545
0.552241
-0.0250834
0.023297
-0.64761
0.649396
-0.0212304
0.0192197
-0.762677
0.764688
-0.0168532
0.0145305
-0.903589
0.905912
-0.0117978
0.00911785
-1.07447
1.07715
-0.00596467
0.00288719
-1.28136
1.28444
0.000706094
-0.00420036
-1.53278
1.53628
0.00761456
-0.0109694
-1.53336
1.53671
0.013725
-0.0164435
-1.28277
1.28548
0.0186797
-0.0208976
-1.07644
1.07866
0.0227519
-0.0246359
-0.906194
0.908078
0.0262488
-0.0279234
-0.766584
0.768259
0.0293891
-0.0308139
-0.653
0.654425
0.0311405
-0.0298656
-0.549416
0.548141
0.0259089
-0.018664
-0.406513
0.399268
0.0112359
-0.00465843
-0.205129
0.198552
0.00119576
-0.0344869
0.0332911
-0.0336282
0.0328181
0.000810112
-0.00801704
0.0137104
-0.271111
0.265418
-0.0197451
0.0233309
-0.439792
0.436207
-0.0245952
0.0241495
-0.552844
0.553289
-0.0226549
0.0209801
-0.651179
0.652853
-0.0190124
0.0170936
-0.766651
0.76857
-0.0148306
0.0126052
-0.908121
0.910346
-0.00998318
0.00741937
-1.0797
1.08226
-0.00441481
0.00148081
-1.28739
1.29033
0.0019455
-0.00527284
-1.53966
1.54299
0.0085036
-0.0116389
-1.53994
1.54308
0.0141785
-0.0166539
-1.28809
1.29056
0.0186756
-0.0206661
-1.08081
1.0828
0.0223151
-0.0239843
-0.909879
0.911548
0.0254129
-0.0268967
-0.76984
0.771324
0.028171
-0.0292209
-0.655637
0.656687
0.0291787
-0.0272392
-0.546538
0.544599
0.0228829
-0.0159067
-0.392154
0.385177
0.00939251
-0.0038788
-0.192558
0.187044
0.000999852
-0.0322067
0.0312069
-0.0321057
0.0314727
0.000632924
-0.00640541
0.0111813
-0.26021
0.255434
-0.0166324
0.0202266
-0.432615
0.429021
-0.0218218
0.0216056
-0.553656
0.553873
-0.0203482
0.0187378
-0.654546
0.656156
-0.0168295
0.0149631
-0.770459
0.772326
-0.012763
0.0106016
-0.912465
0.914626
-0.00805704
0.00557237
-1.08471
1.08719
-0.00266881
-0.000145187
-1.29315
1.29596
0.00342239
-0.00657912
-1.54619
1.54935
0.00961515
-0.0125314
-1.54608
1.549
0.0148721
-0.0171315
-1.29294
1.2952
0.0189547
-0.020727
-1.08473
1.0865
0.0221827
-0.0236568
-0.913145
0.914619
0.0249242
-0.0262392
-0.772724
0.774039
0.0273696
-0.0280076
-0.657513
0.658151
0.0275992
-0.0251046
-0.542397
0.539902
0.0205078
-0.0138707
-0.378382
0.371745
0.00808294
-0.00333266
-0.181952
0.177202
0.000863328
-0.0302867
0.0294234
-0.0309192
0.0304293
0.000489836
-0.00511108
0.00909651
-0.251079
0.247094
-0.0139186
0.0173726
-0.425504
0.42205
-0.0191593
0.0191388
-0.554034
0.554054
-0.0180836
0.016511
-0.657816
0.659389
-0.0146301
0.0127839
-0.774176
0.776022
-0.0106081
0.00847579
-0.916686
0.918818
-0.00597421
0.0035417
-1.08956
1.09199
-0.000710567
-0.00202196
-1.29867
1.3014
0.00516922
-0.00817117
-1.55239
1.55539
0.0110275
-0.013741
-1.55179
1.5545
0.015895
-0.0179483
-1.29737
1.29942
0.0195825
-0.0211473
-1.08824
1.0898
0.0224186
-0.0237088
-0.916031
0.917322
0.0248262
-0.0259839
-0.775274
0.776432
0.0269314
-0.0271932
-0.658586
0.658848
0.0263925
-0.0234288
-0.537187
0.534223
0.0186922
-0.0123894
-0.365296
0.358993
0.0071592
-0.00295428
-0.172759
0.168554
0.000770315
-0.0286175
0.0278472
-0.0300067
0.0296375
0.000369145
-0.00402916
0.00732095
-0.243478
0.240186
-0.0115019
0.0147054
-0.418734
0.415531
-0.0165581
0.0166979
-0.554044
0.553905
-0.0157328
0.0142386
-0.661
0.662494
-0.0123586
0.0105004
-0.777862
0.779721
-0.00831096
0.00617323
-0.920855
0.922992
-0.00367938
0.00126653
-1.09432
1.09673
0.0015196
-0.00419049
-1.30404
1.30671
0.00724043
-0.0101141
-1.55828
1.56115
0.0128109
-0.0153325
-1.5571
1.55962
0.0173002
-0.0191435
-1.30138
1.30322
0.0205864
-0.0219452
-1.09134
1.0927
0.0230379
-0.0241534
-0.918561
0.919677
0.025127
-0.0261181
-0.777504
0.778495
0.0268116
-0.0267772
-0.658978
0.658943
0.0255692
-0.0221937
-0.531072
0.527696
0.0173659
-0.0113476
-0.352861
0.346843
0.00652778
-0.00270216
-0.16457
0.160744
0.000710283
-0.0271179
0.0264076
-0.0293282
0.0290664
0.000261812
-0.00308299
0.00574963
-0.237228
0.234561
-0.00928992
0.0121602
-0.412512
0.409642
-0.013965
0.014193
-0.553776
0.553548
-0.0132749
0.0118282
-0.664049
0.665496
-0.0099251
0.00802671
-0.78158
0.783479
-0.00579167
0.00361835
-0.925036
0.927209
-0.00109639
-0.00132709
-1.09903
1.10146
0.00410789
-0.00674687
-1.30928
1.31192
0.00972361
-0.0124875
-1.56392
1.56669
0.015038
-0.0173774
-1.56202
1.56436
0.0191676
-0.0208094
-1.30497
1.30661
0.0220647
-0.0232121
-1.09406
1.09521
0.0241172
-0.0250529
-0.920747
0.921683
0.0258825
-0.0267012
-0.779396
0.780214
0.0271123
-0.0268193
-0.658775
0.658482
0.0251635
-0.0213989
-0.524147
0.520382
0.0164855
-0.010672
-0.340964
0.33515
0.00613113
-0.0025509
-0.157073
0.153493
0.000676889
-0.0257258
0.0250489
-0.0288609
0.0287008
0.00016017
-0.00220876
0.00428954
-0.232207
0.230126
-0.00718489
0.00965252
-0.406995
0.404528
-0.0113035
0.0115441
-0.55338
0.55314
-0.010644
0.0092112
-0.667036
0.668468
-0.00726302
0.00529747
-0.785382
0.787347
-0.00298128
0.000737735
-0.92929
0.931534
0.00185293
-0.00432413
-1.10379
1.10626
0.00713444
-0.00977114
-1.31447
1.31711
0.0127042
-0.0153803
-1.56935
1.57202
0.0177979
-0.0199592
-1.56657
1.56873
0.0215699
-0.023006
-1.30815
1.30959
0.0240695
-0.0249984
-1.09637
1.0973
0.0257037
-0.026442
-0.922571
0.92331
0.0271163
-0.0277885
-0.780931
0.781603
0.0278925
-0.0272359
-0.657962
0.657305
0.0251536
-0.0210079
-0.516469
0.512323
0.0159896
-0.010294
-0.329443
0.323747
0.00591998
-0.00247837
-0.150016
0.146574
0.000664037
-0.0243914
0.0237274
-0.0285964
0.0285389
5.74944e-05
-0.00135698
0.0028671
-0.228348
0.226837
-0.0051037
0.00710454
-0.402318
0.400317
-0.00849657
0.00866604
-0.553013
0.552844
-0.00773692
0.00628153
-0.670031
0.671486
-0.00424929
0.00218387
-0.789322
0.791387
0.000249587
-0.00260151
-0.933685
0.936037
0.00529742
-0.0078497
-1.10864
1.1112
0.0107235
-0.0133869
-1.31967
1.32233
0.0163018
-0.0189052
-1.5746
1.5772
0.0211966
-0.0231808
-1.57076
1.57275
0.0246094
-0.0258318
-1.31092
1.31214
0.0266898
-0.0273817
-1.09826
1.09895
0.0278746
-0.0284021
-0.924011
0.924538
0.0289141
-0.029389
-0.782105
0.78258
0.0292059
-0.0281309
-0.6564
0.655325
0.0255862
-0.0210343
-0.508043
0.503491
0.0158621
-0.0101838
-0.318119
0.312441
0.00587172
-0.00247498
-0.143192
0.139795
0.00066956
-0.023075
0.0224055
-0.0285374
0.0285889
-5.15218e-05
-0.00048234
0.00141667
-0.225631
0.224696
-0.00296744
0.0044377
-0.398606
0.397136
-0.0054692
0.00548411
-0.552848
0.552833
-0.00446998
0.00293825
-0.673124
0.674655
-0.000788885
-0.00141561
-0.793464
0.795669
0.00401322
-0.00650823
-0.938295
0.94079
0.00935301
-0.0120256
-1.11366
1.11634
0.0150044
-0.0177265
-1.32492
1.32764
0.02065
-0.0231952
-1.57971
1.58225
0.0253648
-0.0271674
-1.5746
1.5764
0.0284041
-0.0293998
-1.31323
1.31423
0.0300435
-0.0304931
-1.0997
1.10015
0.0307599
-0.0310578
-0.925031
0.925329
0.0313812
-0.0315894
-0.782769
0.782977
0.0311334
-0.0295448
-0.653989
0.652401
0.0264911
-0.0214874
-0.498817
0.493813
0.0160928
-0.0103236
-0.306787
0.301018
0.00597251
-0.00253436
-0.136419
0.132981
0.000691646
-0.0217408
0.0210491
-0.0286955
0.0288623
-0.000166755
0.000438691
-0.000110824
-0.224079
0.223751
-0.000704282
0.00156287
-0.395985
0.395127
-0.00212777
0.00190246
-0.553058
0.553283
-0.000747542
-0.000923085
-0.676425
0.678096
0.00323968
-0.00562616
-0.797889
0.800276
0.0084357
-0.0111234
-0.943197
0.945884
0.0141697
-0.0170076
-1.11893
1.12177
0.0201353
-0.0229512
-1.33029
1.33311
0.025915
-0.0284214
-1.58471
1.58721
0.0304755
-0.0320896
-1.57805
1.57967
0.0331212
-0.033862
-1.31507
1.31581
0.0342659
-0.0344543
-1.10064
1.10083
0.0344813
-0.0345285
-0.925589
0.925637
0.0346498
-0.0345249
-0.782804
0.782679
0.0337222
-0.0315313
-0.650595
0.648404
0.0279132
-0.0223871
-0.488686
0.48316
0.0166799
-0.0107013
-0.295225
0.289247
0.00621179
-0.00265102
-0.129526
0.125966
0.000728626
-0.0203564
0.0196278
-0.0291091
0.0294169
-0.000307824
0.00143475
-0.00175288
-0.223779
0.224097
0.00177915
-0.00164034
-0.394584
0.394445
0.00167456
-0.00224881
-0.553856
0.55443
0.00362976
-0.00549214
-0.680066
0.681929
0.00803652
-0.0106587
-0.802677
0.805299
0.0137379
-0.0166684
-0.948486
0.951417
0.019968
-0.0230149
-1.12454
1.12758
0.0263338
-0.0292741
-1.33586
1.3388
0.0322976
-0.0347673
-1.58962
1.59209
0.0366929
-0.0380886
-1.58111
1.58251
0.0388896
-0.0393523
-1.31638
1.31684
0.0394974
-0.0393992
-1.10102
1.10092
0.0391607
-0.038936
-0.925624
0.925399
0.0388511
-0.0382818
-0.782079
0.781509
0.0370333
-0.0341685
-0.646053
0.643188
0.0299011
-0.0237513
-0.477496
0.471346
0.0176224
-0.0113082
-0.283195
0.27688
0.00658112
-0.00282018
-0.122354
0.118593
0.000778838
-0.0188931
0.0181142
-0.0297957
0.0302796
-0.0004839
0.0027146
-0.00377781
-0.2248
0.225863
0.00467021
-0.00532538
-0.394628
0.395283
0.00607776
-0.00710655
-0.555481
0.55651
0.00879588
-0.0109213
-0.684161
0.686286
0.0137722
-0.0166967
-0.80794
0.810864
0.0201155
-0.0233516
-0.954266
0.957503
0.0269702
-0.0302803
-1.13057
1.13388
0.0338381
-0.0369315
-1.34167
1.34476
0.0400278
-0.0424547
-1.59444
1.59687
0.044229
-0.045377
-1.58371
1.58486
0.0458952
-0.0460616
-1.31709
1.31726
0.0459215
-0.0455013
-1.10078
1.10036
0.044967
-0.0444469
-0.925064
0.924544
0.0440569
-0.0430363
-0.78045
0.77943
0.0412269
-0.0375665
-0.640194
0.636534
0.0325301
-0.0256194
-0.465032
0.458121
0.0189352
-0.012145
-0.270438
0.263648
0.00707713
-0.00303898
-0.114749
0.110711
0.00084114
-0.0173251
0.0164839
-0.0308329
0.0315358
-0.000702963
0.00420456
-0.00615702
-0.227343
0.229295
0.00810892
-0.00966712
-0.396325
0.397884
0.0112418
-0.012846
-0.55818
0.559784
0.0149776
-0.0174551
-0.688863
0.691341
0.0207062
-0.0240114
-0.813813
0.817118
0.0278567
-0.0314752
-0.960669
0.964288
0.0354881
-0.0391173
-1.13713
1.14076
0.0429578
-0.0462267
-1.34779
1.35106
0.0493987
-0.051763
-1.59917
1.60153
0.0533484
-0.0541979
-1.5858
1.58665
0.0543826
-0.0542042
-1.31713
1.31695
0.0537381
-0.0529605
-1.09982
1.09904
0.0520993
-0.0512392
-0.923844
0.922984
0.05045
-0.0489255
-0.777908
0.776383
0.0464085
-0.0418034
-0.632771
0.628166
0.0358478
-0.0280055
-0.45101
0.443168
0.0206125
-0.0131972
-0.256672
0.249257
0.00768585
-0.00329879
-0.106559
0.102172
0.000912314
-0.0156297
0.0147173
-0.0323022
0.0332923
-0.000990066
0.00608171
-0.00908671
-0.231664
0.234669
0.0123027
-0.0149191
-0.399945
0.402561
0.0174631
-0.019774
-0.562235
0.564546
0.0224944
-0.0254527
-0.694367
0.697325
0.0292396
-0.0330325
-0.820464
0.824257
0.0374066
-0.0414852
-0.967847
0.971926
0.0459599
-0.0499519
-1.14434
1.14833
0.0541002
-0.0575421
-1.35424
1.35768
0.0607563
-0.0630006
-1.60373
1.60597
0.0643269
-0.0647995
-1.58724
1.58771
0.0645999
-0.0639904
-1.31637
1.31576
0.0631464
-0.0619561
-1.09806
1.09687
0.0607292
-0.0595271
-0.921866
0.920664
0.0582096
-0.0560842
-0.774337
0.772211
0.0527236
-0.0469737
-0.623465
0.617715
0.0399002
-0.030914
-0.435082
0.426096
0.0226367
-0.0144394
-0.2416
0.233403
0.0083853
-0.00358702
-0.0976465
0.0928482
0.000988018
-0.0137914
0.0128033
-0.0343322
0.0357161
-0.00138384
0.00852393
-0.0128823
-0.23808
0.242438
0.0175863
-0.0214405
-0.405856
0.409711
0.0251235
-0.028291
-0.567981
0.571149
0.0317755
-0.0353719
-0.700953
0.70455
0.0398542
-0.0442599
-0.828098
0.832504
0.0492724
-0.0538923
-0.975954
0.980574
0.058894
-0.0632792
-1.15227
1.15665
0.0677307
-0.071306
-1.36101
1.36458
0.0744825
-0.0765064
-1.60799
1.61001
0.0774612
-0.0774406
-1.58786
1.58784
0.0767724
-0.0756199
-1.31463
1.31348
0.0743424
-0.0726906
-1.09537
1.09372
0.0710611
-0.0694385
-0.919101
0.917479
0.0675378
-0.0646804
-0.769523
0.766666
0.0602718
-0.0531207
-0.611865
0.604714
0.0446856
-0.0343064
-0.416826
0.406446
0.0249527
-0.0158175
-0.224914
0.215779
0.00913449
-0.00388185
-0.0878969
0.0826443
0.00106095
-0.0118047
0.0107437
-0.0371173
0.0390576
-0.00194036
0.0119375
-0.0180086
-0.247123
0.253194
0.0245141
-0.0298209
-0.414552
0.419859
0.0348535
-0.0390607
-0.575807
0.580014
0.0435075
-0.0479306
-0.70895
0.713373
0.053299
-0.058459
-0.836958
0.842118
0.06423
-0.0694628
-0.985154
0.990387
0.07502
-0.0797743
-1.16095
1.1657
0.0844506
-0.0880466
-1.36797
1.37156
0.0910243
-0.0926528
-1.61171
1.61334
0.0930594
-0.092376
-1.5874
1.58672
0.0911015
-0.089296
-1.31173
1.30992
0.0874913
-0.0853623
-1.09162
1.08949
0.0833247
-0.0811051
-0.915358
0.913138
0.0786578
-0.0748138
-0.76311
0.759266
0.0691027
-0.060236
-0.59744
0.588573
0.0501456
-0.038087
-0.395753
0.383694
0.0274564
-0.0172425
-0.206322
0.196108
0.00987072
-0.00415227
-0.0772413
0.0715229
0.00112148
-0.00967946
0.00855798
-0.0409806
0.0437903
-0.00280968
0.0168764
-0.0252033
-0.259515
0.267842
0.033953
-0.0410166
-0.4267
0.433764
0.0477002
-0.0531785
-0.586185
0.591664
0.0588706
-0.0643783
-0.71876
0.724267
0.0708503
-0.076887
-0.847308
0.853344
0.0834668
-0.0892858
-0.995556
1.00137
0.0952996
-0.100279
-1.17028
1.17526
0.10497
-0.108358
-1.37485
1.37824
0.110857
-0.111821
-1.61451
1.61547
0.111433
-0.109867
-1.58551
1.58395
0.107822
-0.105241
-1.30745
1.30487
0.102798
-0.100102
-1.08669
1.08399
0.0976107
-0.0947119
-0.910238
0.907339
0.0916333
-0.086537
-0.754578
0.749482
0.0791853
-0.0682055
-0.579519
0.568539
0.0561172
-0.0420719
-0.371319
0.357274
0.0299729
-0.0185771
-0.185585
0.174189
0.0105032
-0.00435601
-0.0656864
0.0595392
0.00115712
-0.00744617
0.00628905
-0.0464995
0.0507744
-0.00427494
0.0245412
-0.0359397
-0.27642
0.287818
0.0475986
-0.0569874
-0.44333
0.452719
0.065689
-0.0726346
-0.599737
0.606683
0.0798575
-0.0868497
-0.73078
0.737772
0.0944815
-0.101306
-0.859348
0.866173
0.108523
-0.114707
-1.00702
1.01321
0.120861
-0.125728
-1.1799
1.18476
0.130022
-0.13281
-1.3811
1.38389
0.134393
-0.134306
-1.61576
1.61567
0.132784
-0.13006
-1.5817
1.57898
0.127056
-0.12354
-1.30154
1.29802
0.120369
-0.117028
-1.08045
1.07711
0.114018
-0.110373
-0.90355
0.899904
0.106385
-0.0996362
-0.743351
0.736602
0.0902426
-0.0767005
-0.557254
0.543712
0.0622625
-0.0459528
-0.34297
0.32666
0.0322412
-0.019634
-0.162589
0.149982
0.0109134
-0.00444007
-0.0533563
0.0468829
0.00115203
-0.00516015
0.00400812
-0.0547368
0.0620839
-0.00734712
0.0380043
-0.0538755
-0.29998
0.315851
0.069604
-0.0821962
-0.46609
0.478682
0.0930671
-0.101357
-0.616901
0.625191
0.11007
-0.118308
-0.745385
0.753622
0.126816
-0.134021
-0.872779
0.879984
0.141309
-0.147275
-1.01895
1.02492
0.152911
-0.157036
-1.18897
1.1931
0.160269
-0.161838
-1.38584
1.38741
0.161913
-0.160295
-1.61463
1.61301
0.157262
-0.153075
-1.57542
1.57123
0.148877
-0.144235
-1.29364
1.289
0.140226
-0.1362
-1.07267
1.06864
0.132531
-0.128045
-0.895127
0.890641
0.122728
-0.113791
-0.728506
0.719569
0.101785
-0.0851129
-0.529591
0.512919
0.0680174
-0.0493146
-0.310218
0.291516
0.033984
-0.0202731
-0.137453
0.123742
0.0110358
-0.00438509
-0.0405489
0.0338981
0.00109835
-0.0029086
0.00181025
-0.0689367
0.0730574
-0.00412067
0.0291323
-0.0428825
-0.334199
0.347949
0.0568069
-0.0683315
-0.496424
0.507949
0.0786031
-0.0881403
-0.63722
0.646757
0.0987254
-0.108376
-0.761467
0.771118
0.119073
-0.128583
-0.886327
0.895838
0.138675
-0.1476
-1.02994
1.03886
0.156826
-0.164625
-1.19611
1.20391
0.172202
-0.178035
-1.38778
1.39362
0.182887
-0.185581
-1.61014
1.61283
0.18608
-0.184947
-1.56598
1.56484
0.18276
-0.179688
-1.2834
1.28033
0.17697
-0.173791
-1.06314
1.05996
0.170931
-0.166503
-0.884409
0.879981
0.159205
-0.146079
-0.708803
0.695677
0.128239
-0.104427
-0.495369
0.471557
0.0812126
-0.0568465
-0.272752
0.248386
0.0379594
-0.0219045
-0.110683
0.0946284
0.0115676
-0.00446595
-0.027793
0.0206914
0.00109695
-0.000798791
-0.000298158
-0.0801969
0.0783706
0.0018263
0.0074821
-0.0165353
-0.364511
0.373564
0.0271016
-0.0352456
-0.524163
0.532307
0.0434672
-0.0515347
-0.658786
0.666854
0.0612892
-0.0703301
-0.780452
0.789493
0.0799123
-0.088642
-0.904793
0.913523
0.0978644
-0.105674
-1.04748
1.05529
0.11392
-0.12051
-1.21149
1.21808
0.126822
-0.131345
-1.39909
1.40361
0.134446
-0.135553
-1.61461
1.61572
0.134455
-0.13169
-1.56287
1.5601
0.12787
-0.123033
-1.27651
1.27168
0.118577
-0.113682
-1.05466
1.04977
0.109106
-0.103229
-0.870718
0.864841
0.0955399
-0.0839912
-0.678593
0.667044
0.0705342
-0.0543547
-0.446253
0.430074
0.0400993
-0.0267395
-0.224432
0.211073
0.0172851
-0.00976148
-0.0796349
0.0721113
0.00513449
-0.00200613
-0.014056
0.0109277
0.00043454
0.00140083
-0.00183537
-0.0816494
0.0787685
0.00288092
-0.00169512
-0.00355852
-0.384968
0.390222
0.0107616
-0.0166364
-0.544636
0.55051
0.0227249
-0.0297811
-0.677011
0.684067
0.0382059
-0.046051
-0.797679
0.805524
0.0545905
-0.0622005
-0.921509
0.929119
0.0699821
-0.0769168
-1.0629
1.06984
0.0840091
-0.0897316
-1.22419
1.22992
0.0947127
-0.09799
-1.4074
1.41067
0.100021
-0.0999037
-1.61601
1.6159
0.0975897
-0.0936048
-1.55659
1.55261
0.0888116
-0.083147
-1.26648
1.26082
0.0775263
-0.0715083
-1.04328
1.03726
0.0658451
-0.0591537
-0.855175
0.848483
0.0521381
-0.0426328
-0.652128
0.642622
0.0329903
-0.0227946
-0.412116
0.401921
0.0153181
-0.00946908
-0.197182
0.191333
0.00595218
-0.00349604
-0.0645877
0.0621316
0.0019762
-0.000819024
-0.00785466
0.00669749
0.000158626
0.00243855
-0.00259718
-0.0803991
0.077672
0.00272712
-0.00532074
0.00279705
-0.398597
0.401121
0.0018543
-0.0062877
-0.559741
0.564174
0.0114209
-0.0173281
-0.692048
0.697955
0.0245105
-0.0312186
-0.812759
0.819467
0.0385078
-0.0450259
-0.936198
0.942717
0.052064
-0.0579185
-1.07632
1.08218
0.0640717
-0.0685477
-1.23519
1.23967
0.0726776
-0.0752061
-1.41367
1.4162
0.0762686
-0.0750864
-1.61524
1.61406
0.0721552
-0.0675966
-1.54797
1.54341
0.0622981
-0.0557201
-1.25475
1.24817
0.0495433
-0.0427968
-1.03002
1.02328
0.0363285
-0.0294748
-0.838777
0.831923
0.0229718
-0.0156604
-0.630077
0.622765
0.00924843
-0.00401123
-0.390582
0.385345
0.00132114
-2.79836e-05
-0.184044
0.182751
-0.00028865
0.000106705
-0.0586853
0.0588672
2.27328e-05
-1.41222e-05
-0.00528614
0.00527753
-3.57233e-05
0.0030398
-0.00300408
-0.0788936
0.0764738
0.00241984
-0.00646326
0.00554574
-0.407669
0.408586
-0.00213133
-0.00106664
-0.571824
0.575022
0.00522861
-0.0105796
-0.70464
0.709991
0.0166013
-0.0224796
-0.825496
0.831374
0.0287826
-0.0344305
-0.948779
0.954427
0.040446
-0.045629
-1.08788
1.09307
0.050789
-0.054835
-1.24398
1.24802
0.0582524
-0.0601813
-1.41832
1.42025
0.0606488
-0.058977
-1.61264
1.61097
0.0556399
-0.050521
-1.53811
1.53299
0.0449339
-0.038201
-1.24144
1.23471
0.0317441
-0.0245175
-1.01566
1.00843
0.0179232
-0.010954
-0.822646
0.815676
0.00511313
0.000697335
-0.612774
0.606963
-0.00479127
0.00698027
-0.377865
0.375676
-0.00706438
0.00596475
-0.179302
0.180402
-0.00449036
0.00281529
-0.0582499
0.059925
-0.00155506
0.000637283
-0.00516975
0.00608752
-0.000199537
0.00322823
-0.00302869
-0.0774877
0.0754113
0.00207637
-0.0063573
0.00595361
-0.413869
0.414273
-0.00392813
0.00136287
-0.581102
0.583667
0.00267966
-0.00724746
-0.715289
0.719857
0.0124145
-0.0175137
-0.836479
0.841579
0.0231135
-0.0281508
-0.959722
0.964759
0.0336335
-0.0381442
-1.09796
1.10247
0.0427417
-0.0463244
-1.25176
1.25534
0.0492359
-0.0507609
-1.42188
1.4234
0.0508325
-0.0492336
-1.60916
1.60756
0.0456434
-0.0405115
-1.52739
1.52226
0.0348144
-0.0279996
-1.22774
1.22093
0.0217214
-0.0143341
-1.00074
0.993354
0.00766515
-0.000895026
-0.806995
0.800225
-0.00435957
0.00901198
-0.598635
0.593982
-0.011933
0.0128816
-0.370603
0.369654
-0.0116002
0.00936654
-0.17938
0.181614
-0.00714225
0.00461834
-0.0608901
0.063414
-0.00263908
0.00108489
-0.00692852
0.00848271
-0.000317971
0.00298465
-0.00266668
-0.076411
0.0747896
0.00162136
-0.0054924
0.00542514
-0.418452
0.418519
-0.00380762
0.00188883
-0.589171
0.59109
0.00188949
-0.00601278
-0.724486
0.728609
0.0109094
-0.0152944
-0.846288
0.850673
0.0202055
-0.0246594
-0.969758
0.974212
0.0298434
-0.0339198
-1.107
1.11107
0.0379702
-0.0413248
-1.25872
1.26207
0.0443395
-0.0456574
-1.42492
1.42624
0.045706
-0.0439684
-1.60554
1.6038
0.0406954
-0.0354188
-1.51691
1.51163
0.030042
-0.0235999
-1.21398
1.20754
0.0174026
-0.0104527
-0.985863
0.978913
0.00395494
0.0026971
-0.792024
0.785372
-0.00756947
0.0116462
-0.586496
0.582419
-0.0141031
0.0146102
-0.365826
0.365319
-0.0133029
0.010877
-0.181754
0.184179
-0.00839052
0.00555717
-0.0652043
0.0680377
-0.00326272
0.00137202
-0.00981546
0.0117062
-0.000409244
0.00245382
-0.00204458
-0.0758336
0.0745585
0.00127518
-0.00442986
0.0044911
-0.422071
0.42201
-0.00307741
0.00124597
-0.596177
0.598008
0.00237814
-0.0060511
-0.732731
0.736404
0.0102423
-0.014466
-0.855001
0.859225
0.0189906
-0.0235669
-0.978464
0.98304
0.0280068
-0.0318838
-1.11523
1.11911
0.0360424
-0.0391326
-1.2653
1.26839
0.0416451
-0.0433472
-1.42745
1.42915
0.0435397
-0.0420579
-1.60211
1.60062
0.0389434
-0.0342625
-1.5066
1.50191
0.0292376
-0.0231568
-1.20086
1.19478
0.0173654
-0.0107531
-0.971769
0.965157
0.00462002
0.00156416
-0.777835
0.771651
-0.00651548
0.010328
-0.575447
0.571635
-0.0124917
0.0133604
-0.362183
0.361315
-0.0125431
0.0104117
-0.184348
0.18648
-0.00817145
0.00552865
-0.0699024
0.0725452
-0.00333725
0.0014666
-0.0131781
0.0150488
-0.000427814
0.00174422
-0.00131641
-0.0757809
0.0747198
0.00106105
-0.00316595
0.00299613
-0.425305
0.425475
-0.0018427
7.01419e-05
-0.602609
0.604382
0.00341211
-0.00696205
-0.740382
0.743932
0.0109766
-0.0147872
-0.863224
0.867035
0.0194154
-0.0231924
-0.98703
0.990807
0.027587
-0.0312718
-1.12313
1.12681
0.0353038
-0.0385777
-1.27145
1.27472
0.0413616
-0.0428357
-1.4306
1.43208
0.0433644
-0.0422948
-1.59908
1.59801
0.0398427
-0.0354989
-1.49717
1.49283
0.030927
-0.0252642
-1.18886
1.1832
0.019897
-0.0136849
-0.958331
0.952119
0.00809758
-0.00216866
-0.764642
0.758713
-0.00263719
0.00654924
-0.565121
0.561209
-0.00878262
0.00979898
-0.358248
0.357232
-0.00967359
0.00830266
-0.186289
0.18766
-0.00667848
0.00461353
-0.0740503
0.0761152
-0.00283883
0.00128692
-0.0163371
0.017889
-0.000377379
0.00100208
-0.0006247
-0.0760089
0.0752717
0.000737228
-0.00202004
0.00141261
-0.428624
0.429232
-0.000432434
-0.00162379
-0.608197
0.610253
0.00467248
-0.00806528
-0.74751
0.750903
0.0119063
-0.0158389
-0.870697
0.874629
0.0198422
-0.023771
-0.994778
0.998707
0.0281218
-0.0315954
-1.13091
1.13439
0.0357129
-0.0389375
-1.27779
1.28101
0.041779
-0.0437845
-1.43396
1.43596
0.044814
-0.0440481
-1.597
1.59623
0.0418586
-0.038234
-1.48869
1.48507
0.0342159
-0.0289746
-1.17749
1.17225
0.0239712
-0.0184929
-0.94591
0.940432
0.0130072
-0.00760291
-0.752138
0.746733
0.00289943
0.00141016
-0.555366
0.551057
-0.00379093
0.00524796
-0.353663
0.352206
-0.00568075
0.00526993
-0.187046
0.187457
-0.00437237
0.00312564
-0.0769399
0.0781866
-0.00199575
0.000932569
-0.0187688
0.0198319
-0.000271494
0.000364879
-9.33847e-05
-0.0766608
0.0760811
0.000579726
-0.00104666
0.000541899
-0.432168
0.432673
0.00108598
-0.00300217
-0.613996
0.615912
0.00619964
-0.00946053
-0.754108
0.757369
0.0131488
-0.0166746
-0.878218
0.881744
0.0207958
-0.0244077
-1.00263
1.00624
0.0287082
-0.0326169
-1.1383
1.14221
0.0363769
-0.0399331
-1.28427
1.28783
0.0432006
-0.0453094
-1.43786
1.43997
0.0467297
-0.0467597
-1.59569
1.59572
0.0450208
-0.04204
-1.48135
1.47836
0.0382947
-0.0336476
-1.16715
1.1625
0.0292312
-0.024121
-0.934644
0.929534
0.0191754
-0.0139699
-0.740505
0.735299
0.00935592
-0.00479552
-0.54532
0.540759
0.00174698
0.000321106
-0.348271
0.346203
-0.00151909
0.00195066
-0.186171
0.18574
-0.0018587
0.00144963
-0.0782015
0.0786106
-0.000992827
0.000504052
-0.0201952
0.020684
-0.000157093
-7.71991e-05
0.000234292
-0.0775872
0.0771917
0.000395507
-3.2723e-05
-0.000736757
-0.435819
0.436588
0.00225773
-0.0044938
-0.619387
0.621623
0.00760419
-0.0106975
-0.760475
0.763568
0.0144731
-0.0178463
-0.885237
0.88861
0.0218101
-0.0255464
-1.01032
1.01406
0.0297535
-0.0336315
-1.14596
1.14984
0.0376179
-0.041207
-1.2913
1.29488
0.0446718
-0.0475399
-1.44237
1.44524
0.049418
-0.0497524
-1.59569
1.59602
0.048719
-0.0461182
-1.47531
1.47271
0.0430328
-0.0390808
-1.15792
1.15397
0.0348806
-0.0301333
-0.924227
0.91948
0.0254515
-0.0202403
-0.729415
0.724204
0.0156868