/*--------------------------------*- C++ -*----------------------------------*\
| =========                 |                                                 |
| \\      /  F ield         | OpenFOAM: The Open Source CFD Toolbox           |
|  \\    /   O peration     | Version:  2112                                  |
|   \\  /    A nd           | Website:  www.openfoam.com                      |
|    \\/     M anipulation  |                                                 |
\*---------------------------------------------------------------------------*/
FoamFile
{
    version     2.0;
    format      ascii;
    arch        "LSB;label=32;scalar=64";
    class       volScalarField;
    location    "0.004";
    object      mag(U);
}
// * * * * * * * * * * * * * * * * * * * * * * * * * * * * * * * * * * * * * //

dimensions      [0 1 -1 0 0 0 0];

internalField   nonuniform List<scalar> 
1000
(
8.46063e-13
8.46063e-13
9.33587e-13
1.02111e-12
8.46063e-13
1.22533e-12
1.07946e-12
1.06487e-12
9.62762e-13
7.43952e-13
6.85603e-13
5.83492e-13
6.27254e-13
5.68905e-13
5.10556e-13
3.50095e-13
3.93857e-13
4.66794e-13
4.52206e-13
5.98079e-13
5.10556e-13
5.83492e-13
3.93857e-13
6.71016e-13
3.64683e-13
7.5854e-13
7.14778e-13
9.77349e-13
1.02111e-12
9.77349e-13
1.42956e-12
1.19616e-12
1.2691e-12
1.21075e-12
1.29827e-12
1.67754e-12
1.45873e-12
1.85259e-12
1.54625e-12
2.12975e-12
1.89635e-12
2.10057e-12
1.88176e-12
2.12975e-12
1.94011e-12
1.63378e-12
1.92552e-12
1.59002e-12
1.64836e-12
1.67754e-12
1.56084e-12
1.44414e-12
1.29827e-12
1.2691e-12
1.02111e-12
1.12322e-12
1.02111e-12
8.60651e-13
1.13781e-12
8.60651e-13
1.29827e-12
9.62762e-13
1.07946e-12
8.16889e-13
9.48175e-13
9.33587e-13
9.04413e-13
9.19e-13
8.02302e-13
6.71016e-13
5.10556e-13
5.25143e-13
3.7927e-13
7.29365e-13
4.81381e-13
1.0357e-12
7.14778e-13
1.00652e-12
9.33587e-13
1.02111e-12
1.1524e-12
1.16698e-12
1.13781e-12
1.23992e-12
9.77349e-13
1.35662e-12
9.48175e-13
1.2691e-12
8.31476e-13
1.41497e-12
8.46063e-13
1.25451e-12
1.13781e-12
9.48175e-13
8.89825e-13
7.5854e-13
8.16889e-13
5.25143e-13
5.83492e-13
2.91746e-13
4.23032e-13
2.1881e-13
1.16698e-13
1.89635e-13
3.20921e-13
3.06333e-13
3.7927e-13
3.35508e-13
6.41841e-13
8.02302e-13
8.16889e-13
9.48175e-13
7.29365e-13
9.62762e-13
8.16889e-13
9.77349e-13
1.06487e-12
1.05029e-12
9.91936e-13
1.05029e-12
1.00652e-12
1.21075e-12
1.10863e-12
1.10863e-12
1.19616e-12
8.46063e-13
1.06487e-12
7.5854e-13
8.60651e-13
7.73127e-13
1.02111e-12
7.73127e-13
9.48175e-13
9.19e-13
9.48175e-13
8.60651e-13
7.29365e-13
9.77349e-13
9.77349e-13
1.0357e-12
1.13781e-12
1.2691e-12
1.34203e-12
1.29827e-12
1.32744e-12
1.1524e-12
1.13781e-12
1.05029e-12
7.87714e-13
7.5854e-13
6.71016e-13
7.73127e-13
5.25143e-13
1.0357e-12
7.87714e-13
9.62762e-13
4.66794e-13
5.25143e-13
4.66794e-13
4.23032e-13
5.10556e-13
6.27254e-13
5.68905e-13
4.52206e-13
3.35508e-13
4.08444e-13
2.47984e-13
3.64683e-13
3.64683e-13
2.77159e-13
2.62571e-13
5.83492e-14
1.16698e-13
2.1881e-13
3.06333e-13
2.1881e-13
2.47984e-13
5.83492e-14
1.16698e-13
1.89635e-13
7.14778e-13
5.3973e-13
7.29365e-13
8.75238e-13
9.04413e-13
1.05029e-12
9.04413e-13
1.25451e-12
1.16698e-12
1.28368e-12
1.53167e-12
1.50249e-12
1.42956e-12
1.41497e-12
1.51708e-12
1.23992e-12
1.4879e-12
1.16698e-12
1.16698e-12
1.0357e-12
9.62762e-13
7.73127e-13
4.66794e-13
4.81381e-13
4.52206e-13
3.20921e-13
3.35508e-13
3.50095e-13
3.64683e-13
7.29365e-14
1.6046e-13
2.47984e-13
4.66794e-13
4.52206e-13
3.20921e-13
2.91746e-13
1.16698e-13
2.33397e-13
2.91746e-14
1.45873e-14
1.45873e-13
3.20921e-13
2.77159e-13
4.52206e-13
4.81381e-13
2.62571e-13
6.12667e-13
3.50095e-13
8.46063e-13
4.52206e-13
7.73127e-13
3.20921e-13
5.10556e-13
1.89635e-13
1.6046e-13
1.31286e-13
5.83492e-14
1.6046e-13
8.75238e-14
2.04222e-13
2.1881e-13
8.75238e-14
3.50095e-13
1.6046e-13
3.64683e-13
2.47984e-13
3.35508e-13
2.33397e-13
4.23032e-13
2.47984e-13
4.08444e-13
4.81381e-13
6.71016e-13
7.87714e-13
8.46063e-13
8.60651e-13
8.89825e-13
9.33587e-13
7.14778e-13
9.77349e-13
6.41841e-13
6.27254e-13
3.64683e-13
4.52206e-13
3.06333e-13
4.08444e-13
3.06333e-13
1.89635e-13
2.91746e-14
1.75048e-13
2.91746e-14
1.6046e-13
2.91746e-14
1.31286e-13
1.6046e-13
1.02111e-13
1.82132e-26
5.83492e-13
1.13781e-12
2.77159e-12
5.13473e-12
1.0605e-11
2.0043e-11
3.86418e-11
7.29073e-11
1.38083e-10
2.5961e-10
4.85422e-10
9.02589e-10
1.66761e-09
3.06383e-09
5.5941e-09
1.01519e-08
1.83072e-08
3.28066e-08
5.84138e-08
1.03339e-07
1.81619e-07
3.17088e-07
5.49901e-07
9.47194e-07
1.62034e-06
2.75263e-06
4.64328e-06
7.77678e-06
1.2931e-05
2.1344e-05
3.49697e-05
5.68638e-05
9.17616e-05
0.000146934
0.000233437
0.000367923
0.000575215
0.000891949
0.00137161
0.00209146
0.00316182
0.00473846
0.00703865
0.0103618
0.015115
0.0218448
0.0312746
0.0443482
0.0622784
0.0865991
0.119219
0.162472
0.219159
0.29258
0.386541
0.505345
0.653737
0.836837
1.06002
1.32877
1.64852
2.02448
2.46145
2.96362
3.5345
4.17674
4.8921
5.68143
6.54466
7.48091
8.48853
9.56524
10.7082
11.9143
13.18
14.5017
15.8758
17.2987
18.7668
20.2767
21.8253
23.4095
25.0264
26.6735
28.3483
30.0488
31.7727
33.5184
35.2842
37.0685
38.87
40.6875
42.5199
44.366
46.2251
48.0962
49.9785
51.8714
53.7742
55.6863
57.6071
59.5361
61.4728
63.4167
65.3674
67.3246
69.2878
71.2566
73.2308
75.2101
77.194
79.1824
81.175
83.1715
85.1717
87.1754
89.1823
91.1923
93.2051
95.2206
97.2387
99.2591
101.282
103.306
105.333
107.361
109.391
111.423
113.456
115.49
117.526
119.563
121.601
123.64
125.679
127.72
129.761
131.803
133.845
135.888
137.931
139.975
142.019
144.063
146.107
148.152
150.196
152.24
154.284
156.328
158.372
160.416
162.459
164.502
166.543
168.586
170.626
172.667
174.706
176.745
178.782
180.819
182.854
184.888
186.922
188.953
190.983
193.012
195.039
197.064
199.087
201.108
203.127
205.143
207.157
209.168
211.176
213.181
215.182
217.18
219.175
221.165
223.15
225.131
227.107
229.078
231.042
233
234.952
236.896
238.832
240.759
242.678
244.586
246.484
248.37
250.243
252.102
253.946
255.775
257.585
259.377
261.147
262.895
264.618
266.315
267.982
269.619
271.22
272.785
274.31
275.792
277.228
278.614
279.947
281.223
282.439
283.593
284.68
285.698
286.645
287.519
288.32
289.045
289.698
290.277
290.786
291.228
291.607
291.927
292.194
292.412
292.589
292.729
292.838
292.922
292.985
293.032
293.066
293.091
293.11
293.123
293.133
293.141
293.147
293.152
293.157
293.161
293.165
293.169
293.173
293.176
293.179
293.181
293.183
293.185
293.186
293.187
293.188
293.189
293.189
293.189
293.189
293.189
293.189
293.189
293.189
293.189
293.189
293.189
293.189
293.189
293.189
293.189
293.189
293.189
293.189
293.189
293.189
293.189
293.189
293.189
293.189
293.189
293.189
293.189
293.189
293.189
293.189
293.189
293.189
293.189
293.189
293.189
293.189
293.189
293.189
293.189
293.189
293.189
293.189
293.189
293.189
293.189
293.189
293.189
293.189
293.189
293.189
293.189
293.189
293.189
293.189
293.19
293.19
293.19
293.19
293.19
293.19
293.191
293.19
293.19
293.189
293.189
293.189
293.19
293.191
293.196
293.194
293.184
293.18
293.175
293.169
293.162
293.154
293.147
293.141
293.137
293.134
293.135
293.138
293.142
293.148
293.154
293.16
293.165
293.169
293.173
293.176
293.177
293.179
293.179
293.18
293.18
293.18
293.18
293.18
293.18
293.18
293.179
293.179
293.179
293.178
293.177
293.177
293.176
293.176
293.175
293.175
293.175
293.175
293.175
293.175
293.175
293.175
293.175
293.175
293.174
293.173
293.172
293.172
293.171
293.17
293.169
293.168
293.167
293.167
293.167
293.167
293.167
293.168
293.168
293.167
293.167
293.167
293.166
293.165
293.164
293.163
293.161
293.16
293.159
293.158
293.157
293.156
293.156
293.157
293.158
293.158
293.158
293.158
293.157
293.156
293.155
293.153
293.152
293.151
293.149
293.147
293.145
293.143
293.141
293.138
293.137
293.137
293.139
293.14
293.139
293.136
293.129
293.119
293.099
293.074
293.029
292.972
292.829
292.7
292.287
291.751
290.183
286.741
278.999
260.757
221.828
156.793
84.0976
33.2347
10.4564
2.87695
0.73915
0.185148
0.046045
0.0114309
0.00283666
0.000703878
0.000174654
4.33373e-05
1.07534e-05
2.66826e-06
6.62083e-07
1.64285e-07
4.07644e-08
1.01147e-08
2.50959e-09
6.22529e-10
1.54276e-10
3.80583e-11
9.23377e-12
2.20269e-12
2.1881e-13
1.45873e-14
2.1881e-13
3.50096e-13
2.91746e-14
3.20921e-13
3.06334e-13
3.93858e-13
5.39731e-13
3.50096e-13
4.52207e-13
3.7927e-13
1.31286e-13
3.20921e-13
3.93858e-13
7.14779e-13
4.66794e-13
8.02303e-13
5.10556e-13
8.89827e-13
5.9808e-13
7.00191e-13
4.23032e-13
5.54318e-13
4.08445e-13
3.20921e-13
3.50096e-13
2.1881e-13
5.10556e-13
6.85604e-13
9.77351e-13
8.02303e-13
9.19001e-13
7.73128e-13
6.71017e-13
6.27255e-13
5.83493e-13
6.12667e-13
6.71017e-13
7.29366e-13
3.35508e-13
4.52207e-13
3.50096e-13
3.93858e-13
2.33397e-13
1.16699e-13
2.47984e-13
2.91746e-14
2.04222e-13
8.75239e-14
9.20758e-27
7.87283e-27
3.06334e-13
1.75048e-13
1.45873e-13
2.77159e-13
1.89635e-13
1.89635e-13
2.77159e-13
4.3762e-13
6.41842e-13
6.41842e-13
7.00191e-13
7.58541e-13
9.33589e-13
8.31477e-13
1.02111e-12
8.75239e-13
8.31477e-13
7.43953e-13
5.83493e-13
5.10556e-13
2.77159e-13
3.06334e-13
1.45873e-13
7.29366e-14
2.1881e-13
8.75239e-14
2.1881e-13
7.29366e-14
7.29366e-14
5.83493e-14
1.45873e-13
5.83493e-14
3.20921e-13
2.47984e-13
4.95969e-13
3.06334e-13
5.68906e-13
5.10556e-13
6.12667e-13
4.3762e-13
7.58541e-13
2.91746e-13
7.58541e-13
4.81382e-13
5.83493e-13
3.06334e-13
1.89635e-13
4.3762e-14
1.02111e-13
1.31286e-13
2.04222e-13
2.91746e-14
2.77159e-13
1.16699e-13
3.35508e-13
3.7927e-13
5.83493e-13
7.00191e-13
7.29366e-13
7.87715e-13
7.58541e-13
5.68906e-13
4.95969e-13
2.04222e-13
5.10556e-13
1.45873e-14
4.23032e-13
8.75239e-14
2.47984e-13
1.16699e-13
4.3762e-14
3.06334e-13
8.75239e-14
7.29366e-14
2.91746e-14
1.02111e-13
1.45873e-14
1.89635e-13
1.02111e-13
1.75048e-13
1.31286e-13
1.60461e-13
2.62572e-13
7.29366e-14
2.04222e-13
1.16699e-13
2.16248e-26
1.45873e-14
5.83493e-14
1.16699e-13
1.35942e-26
8.75239e-14
2.91746e-14
5.83493e-14
8.75239e-14
1.75048e-13
8.75239e-14
2.47984e-13
1.89635e-13
8.75239e-14
1.45873e-13
9.40953e-27
4.3762e-14
8.75239e-14
2.04222e-13
2.1881e-13
7.29366e-14
3.06334e-13
2.91746e-14
2.47984e-13
1.16699e-13
5.10556e-13
2.62572e-13
4.3762e-13
2.62572e-13
3.50096e-13
1.31286e-13
4.23032e-13
2.33397e-13
4.66794e-13
4.66794e-13
5.54318e-13
5.68906e-13
5.68906e-13
7.29366e-13
5.54318e-13
7.87715e-13
8.31477e-13
9.04414e-13
9.48176e-13
1.16699e-12
8.1689e-13
8.02303e-13
8.75239e-13
4.81382e-13
7.58541e-13
3.93858e-13
8.02303e-13
4.52207e-13
1.0357e-12
6.71017e-13
1.0357e-12
7.00191e-13
7.87715e-13
9.77351e-13
7.73128e-13
1.18157e-12
8.46065e-13
1.10864e-12
9.77351e-13
8.02303e-13
7.43953e-13
5.10556e-13
5.39731e-13
3.50096e-13
3.20921e-13
2.47984e-13
1.45873e-13
8.75239e-14
3.35508e-13
2.77159e-13
5.25144e-13
4.3762e-13
6.71017e-13
5.9808e-13
8.31477e-13
4.95969e-13
7.58541e-13
5.83493e-13
3.7927e-13
3.06334e-13
4.95969e-13
4.66794e-13
6.56429e-13
6.85604e-13
6.12667e-13
7.29366e-13
5.83493e-13
5.9808e-13
3.35508e-13
5.54318e-13
4.81382e-13
8.31477e-13
6.27255e-13
6.71017e-13
7.00191e-13
5.83493e-13
7.00191e-13
3.7927e-13
6.41842e-13
5.25144e-13
8.1689e-13
3.93858e-13
6.27255e-13
3.64683e-13
8.31477e-13
4.66794e-13
7.14779e-13
4.23032e-13
5.68906e-13
5.68906e-13
6.41842e-13
)
;

boundaryField
{
    sides
    {
        type            calculated;
        value           nonuniform List<scalar> 2(6.41842e-13 8.46063e-13);
    }
    empty
    {
        type            empty;
    }
}


// ************************************************************************* //
