/*--------------------------------*- C++ -*----------------------------------*\
| =========                 |                                                 |
| \\      /  F ield         | OpenFOAM: The Open Source CFD Toolbox           |
|  \\    /   O peration     | Version:  2112                                  |
|   \\  /    A nd           | Website:  www.openfoam.com                      |
|    \\/     M anipulation  |                                                 |
\*---------------------------------------------------------------------------*/
FoamFile
{
    version     2.0;
    format      ascii;
    arch        "LSB;label=32;scalar=64";
    class       volVectorField;
    location    "0.004";
    object      U;
}
// * * * * * * * * * * * * * * * * * * * * * * * * * * * * * * * * * * * * * //

dimensions      [0 1 -1 0 0 0 0];

internalField   nonuniform List<vector> 
1000
(
(8.46063e-13 0 0)
(8.46063e-13 0 0)
(9.33587e-13 0 0)
(1.02111e-12 0 0)
(8.46063e-13 0 0)
(1.22533e-12 0 0)
(1.07946e-12 0 0)
(1.06487e-12 0 0)
(9.62762e-13 0 0)
(7.43952e-13 0 0)
(6.85603e-13 0 0)
(5.83492e-13 0 0)
(6.27254e-13 0 0)
(5.68905e-13 0 0)
(5.10556e-13 0 0)
(3.50095e-13 0 0)
(3.93857e-13 0 0)
(4.66794e-13 0 0)
(4.52206e-13 0 0)
(5.98079e-13 0 0)
(5.10556e-13 0 0)
(5.83492e-13 0 0)
(3.93857e-13 0 0)
(6.71016e-13 0 0)
(3.64683e-13 0 0)
(7.5854e-13 0 0)
(7.14778e-13 0 0)
(9.77349e-13 0 0)
(1.02111e-12 0 0)
(9.77349e-13 0 0)
(1.42956e-12 0 0)
(1.19616e-12 0 0)
(1.2691e-12 0 0)
(1.21075e-12 0 0)
(1.29827e-12 0 0)
(1.67754e-12 0 0)
(1.45873e-12 0 0)
(1.85259e-12 0 0)
(1.54625e-12 0 0)
(2.12975e-12 0 0)
(1.89635e-12 0 0)
(2.10057e-12 0 0)
(1.88176e-12 0 0)
(2.12975e-12 0 0)
(1.94011e-12 0 0)
(1.63378e-12 0 0)
(1.92552e-12 0 0)
(1.59002e-12 0 0)
(1.64836e-12 0 0)
(1.67754e-12 0 0)
(1.56084e-12 0 0)
(1.44414e-12 0 0)
(1.29827e-12 0 0)
(1.2691e-12 0 0)
(1.02111e-12 0 0)
(1.12322e-12 0 0)
(1.02111e-12 0 0)
(8.60651e-13 0 0)
(1.13781e-12 0 0)
(8.60651e-13 0 0)
(1.29827e-12 0 0)
(9.62762e-13 0 0)
(1.07946e-12 0 0)
(8.16889e-13 0 0)
(9.48175e-13 0 0)
(9.33587e-13 0 0)
(9.04413e-13 0 0)
(9.19e-13 0 0)
(8.02302e-13 0 0)
(6.71016e-13 0 0)
(5.10556e-13 0 0)
(5.25143e-13 0 0)
(3.7927e-13 0 0)
(7.29365e-13 0 0)
(4.81381e-13 0 0)
(1.0357e-12 0 0)
(7.14778e-13 0 0)
(1.00652e-12 0 0)
(9.33587e-13 0 0)
(1.02111e-12 0 0)
(1.1524e-12 0 0)
(1.16698e-12 0 0)
(1.13781e-12 0 0)
(1.23992e-12 0 0)
(9.77349e-13 0 0)
(1.35662e-12 0 0)
(9.48175e-13 0 0)
(1.2691e-12 0 0)
(8.31476e-13 0 0)
(1.41497e-12 0 0)
(8.46063e-13 0 0)
(1.25451e-12 0 0)
(1.13781e-12 0 0)
(9.48175e-13 0 0)
(8.89825e-13 0 0)
(7.5854e-13 0 0)
(8.16889e-13 0 0)
(5.25143e-13 0 0)
(5.83492e-13 0 0)
(2.91746e-13 0 0)
(4.23032e-13 0 0)
(2.1881e-13 0 0)
(1.16698e-13 0 0)
(1.89635e-13 0 0)
(3.20921e-13 0 0)
(3.06333e-13 0 0)
(3.7927e-13 0 0)
(3.35508e-13 0 0)
(6.41841e-13 0 0)
(8.02302e-13 0 0)
(8.16889e-13 0 0)
(9.48175e-13 0 0)
(7.29365e-13 0 0)
(9.62762e-13 0 0)
(8.16889e-13 0 0)
(9.77349e-13 0 0)
(1.06487e-12 0 0)
(1.05029e-12 0 0)
(9.91936e-13 0 0)
(1.05029e-12 0 0)
(1.00652e-12 0 0)
(1.21075e-12 0 0)
(1.10863e-12 0 0)
(1.10863e-12 0 0)
(1.19616e-12 0 0)
(8.46063e-13 0 0)
(1.06487e-12 0 0)
(7.5854e-13 0 0)
(8.60651e-13 0 0)
(7.73127e-13 0 0)
(1.02111e-12 0 0)
(7.73127e-13 0 0)
(9.48175e-13 0 0)
(9.19e-13 0 0)
(9.48175e-13 0 0)
(8.60651e-13 0 0)
(7.29365e-13 0 0)
(9.77349e-13 0 0)
(9.77349e-13 0 0)
(1.0357e-12 0 0)
(1.13781e-12 0 0)
(1.2691e-12 0 0)
(1.34203e-12 0 0)
(1.29827e-12 0 0)
(1.32744e-12 0 0)
(1.1524e-12 0 0)
(1.13781e-12 0 0)
(1.05029e-12 0 0)
(7.87714e-13 0 0)
(7.5854e-13 0 0)
(6.71016e-13 0 0)
(7.73127e-13 0 0)
(5.25143e-13 0 0)
(1.0357e-12 0 0)
(7.87714e-13 0 0)
(9.62762e-13 0 0)
(4.66794e-13 0 0)
(5.25143e-13 0 0)
(4.66794e-13 0 0)
(4.23032e-13 0 0)
(5.10556e-13 0 0)
(6.27254e-13 0 0)
(5.68905e-13 0 0)
(4.52206e-13 0 0)
(3.35508e-13 0 0)
(4.08444e-13 0 0)
(2.47984e-13 0 0)
(3.64683e-13 0 0)
(3.64683e-13 0 0)
(2.77159e-13 0 0)
(2.62571e-13 0 0)
(5.83492e-14 0 0)
(-1.16698e-13 0 0)
(-2.1881e-13 0 0)
(-3.06333e-13 0 0)
(-2.1881e-13 0 0)
(-2.47984e-13 0 0)
(-5.83492e-14 0 0)
(1.16698e-13 0 0)
(1.89635e-13 0 0)
(7.14778e-13 0 0)
(5.3973e-13 0 0)
(7.29365e-13 0 0)
(8.75238e-13 0 0)
(9.04413e-13 0 0)
(1.05029e-12 0 0)
(9.04413e-13 0 0)
(1.25451e-12 0 0)
(1.16698e-12 0 0)
(1.28368e-12 0 0)
(1.53167e-12 0 0)
(1.50249e-12 0 0)
(1.42956e-12 0 0)
(1.41497e-12 0 0)
(1.51708e-12 0 0)
(1.23992e-12 0 0)
(1.4879e-12 0 0)
(1.16698e-12 0 0)
(1.16698e-12 0 0)
(1.0357e-12 0 0)
(9.62762e-13 0 0)
(7.73127e-13 0 0)
(4.66794e-13 0 0)
(4.81381e-13 0 0)
(4.52206e-13 0 0)
(3.20921e-13 0 0)
(3.35508e-13 0 0)
(3.50095e-13 0 0)
(3.64683e-13 0 0)
(7.29365e-14 0 0)
(-1.6046e-13 0 0)
(-2.47984e-13 0 0)
(-4.66794e-13 0 0)
(-4.52206e-13 0 0)
(-3.20921e-13 0 0)
(-2.91746e-13 0 0)
(-1.16698e-13 0 0)
(-2.33397e-13 0 0)
(-2.91746e-14 0 0)
(-1.45873e-14 0 0)
(1.45873e-13 0 0)
(3.20921e-13 0 0)
(2.77159e-13 0 0)
(4.52206e-13 0 0)
(4.81381e-13 0 0)
(2.62571e-13 0 0)
(6.12667e-13 0 0)
(3.50095e-13 0 0)
(8.46063e-13 0 0)
(4.52206e-13 0 0)
(7.73127e-13 0 0)
(3.20921e-13 0 0)
(5.10556e-13 0 0)
(1.89635e-13 0 0)
(1.6046e-13 0 0)
(-1.31286e-13 0 0)
(5.83492e-14 0 0)
(-1.6046e-13 0 0)
(8.75238e-14 0 0)
(-2.04222e-13 0 0)
(2.1881e-13 0 0)
(8.75238e-14 0 0)
(3.50095e-13 0 0)
(1.6046e-13 0 0)
(3.64683e-13 0 0)
(2.47984e-13 0 0)
(3.35508e-13 0 0)
(2.33397e-13 0 0)
(4.23032e-13 0 0)
(2.47984e-13 0 0)
(4.08444e-13 0 0)
(4.81381e-13 0 0)
(6.71016e-13 0 0)
(7.87714e-13 0 0)
(8.46063e-13 0 0)
(8.60651e-13 0 0)
(8.89825e-13 0 0)
(9.33587e-13 0 0)
(7.14778e-13 0 0)
(9.77349e-13 0 0)
(6.41841e-13 0 0)
(6.27254e-13 0 0)
(3.64683e-13 0 0)
(4.52206e-13 0 0)
(3.06333e-13 0 0)
(4.08444e-13 0 0)
(3.06333e-13 0 0)
(1.89635e-13 0 0)
(2.91746e-14 0 0)
(1.75048e-13 0 0)
(-2.91746e-14 0 0)
(1.6046e-13 0 0)
(-2.91746e-14 0 0)
(1.31286e-13 0 0)
(-1.6046e-13 0 0)
(1.02111e-13 0 0)
(1.82132e-26 0 0)
(5.83492e-13 0 0)
(1.13781e-12 0 0)
(2.77159e-12 0 0)
(5.13473e-12 0 0)
(1.0605e-11 0 0)
(2.0043e-11 0 0)
(3.86418e-11 0 0)
(7.29073e-11 0 0)
(1.38083e-10 0 0)
(2.5961e-10 0 0)
(4.85422e-10 0 0)
(9.02589e-10 0 0)
(1.66761e-09 0 0)
(3.06383e-09 0 0)
(5.5941e-09 0 0)
(1.01519e-08 0 0)
(1.83072e-08 0 0)
(3.28066e-08 0 0)
(5.84138e-08 0 0)
(1.03339e-07 0 0)
(1.81619e-07 0 0)
(3.17088e-07 0 0)
(5.49901e-07 0 0)
(9.47194e-07 0 0)
(1.62034e-06 0 0)
(2.75263e-06 0 0)
(4.64328e-06 0 0)
(7.77678e-06 0 0)
(1.2931e-05 0 0)
(2.1344e-05 0 0)
(3.49697e-05 0 0)
(5.68638e-05 0 0)
(9.17616e-05 0 0)
(0.000146934 0 0)
(0.000233437 0 0)
(0.000367923 0 0)
(0.000575215 0 0)
(0.000891949 0 0)
(0.00137161 0 0)
(0.00209146 0 0)
(0.00316182 0 0)
(0.00473846 0 0)
(0.00703865 0 0)
(0.0103618 0 0)
(0.015115 0 0)
(0.0218448 0 0)
(0.0312746 0 0)
(0.0443482 0 0)
(0.0622784 0 0)
(0.0865991 0 0)
(0.119219 0 0)
(0.162472 0 0)
(0.219159 0 0)
(0.29258 0 0)
(0.386541 0 0)
(0.505345 0 0)
(0.653737 0 0)
(0.836837 0 0)
(1.06002 0 0)
(1.32877 0 0)
(1.64852 0 0)
(2.02448 0 0)
(2.46145 0 0)
(2.96362 0 0)
(3.5345 0 0)
(4.17674 0 0)
(4.8921 0 0)
(5.68143 0 0)
(6.54466 0 0)
(7.48091 0 0)
(8.48853 0 0)
(9.56524 0 0)
(10.7082 0 0)
(11.9143 0 0)
(13.18 0 0)
(14.5017 0 0)
(15.8758 0 0)
(17.2987 0 0)
(18.7668 0 0)
(20.2767 0 0)
(21.8253 0 0)
(23.4095 0 0)
(25.0264 0 0)
(26.6735 0 0)
(28.3483 0 0)
(30.0488 0 0)
(31.7727 0 0)
(33.5184 0 0)
(35.2842 0 0)
(37.0685 0 0)
(38.87 0 0)
(40.6875 0 0)
(42.5199 0 0)
(44.366 0 0)
(46.2251 0 0)
(48.0962 0 0)
(49.9785 0 0)
(51.8714 0 0)
(53.7742 0 0)
(55.6863 0 0)
(57.6071 0 0)
(59.5361 0 0)
(61.4728 0 0)
(63.4167 0 0)
(65.3674 0 0)
(67.3246 0 0)
(69.2878 0 0)
(71.2566 0 0)
(73.2308 0 0)
(75.2101 0 0)
(77.194 0 0)
(79.1824 0 0)
(81.175 0 0)
(83.1715 0 0)
(85.1717 0 0)
(87.1754 0 0)
(89.1823 0 0)
(91.1923 0 0)
(93.2051 0 0)
(95.2206 0 0)
(97.2387 0 0)
(99.2591 0 0)
(101.282 0 0)
(103.306 0 0)
(105.333 0 0)
(107.361 0 0)
(109.391 0 0)
(111.423 0 0)
(113.456 0 0)
(115.49 0 0)
(117.526 0 0)
(119.563 0 0)
(121.601 0 0)
(123.64 0 0)
(125.679 0 0)
(127.72 0 0)
(129.761 0 0)
(131.803 0 0)
(133.845 0 0)
(135.888 0 0)
(137.931 0 0)
(139.975 0 0)
(142.019 0 0)
(144.063 0 0)
(146.107 0 0)
(148.152 0 0)
(150.196 0 0)
(152.24 0 0)
(154.284 0 0)
(156.328 0 0)
(158.372 0 0)
(160.416 0 0)
(162.459 0 0)
(164.502 0 0)
(166.543 0 0)
(168.586 0 0)
(170.626 0 0)
(172.667 0 0)
(174.706 0 0)
(176.745 0 0)
(178.782 0 0)
(180.819 0 0)
(182.854 0 0)
(184.888 0 0)
(186.922 0 0)
(188.953 0 0)
(190.983 0 0)
(193.012 0 0)
(195.039 0 0)
(197.064 0 0)
(199.087 0 0)
(201.108 0 0)
(203.127 0 0)
(205.143 0 0)
(207.157 0 0)
(209.168 0 0)
(211.176 0 0)
(213.181 0 0)
(215.182 0 0)
(217.18 0 0)
(219.175 0 0)
(221.165 0 0)
(223.15 0 0)
(225.131 0 0)
(227.107 0 0)
(229.078 0 0)
(231.042 0 0)
(233 0 0)
(234.952 0 0)
(236.896 0 0)
(238.832 0 0)
(240.759 0 0)
(242.678 0 0)
(244.586 0 0)
(246.484 0 0)
(248.37 0 0)
(250.243 0 0)
(252.102 0 0)
(253.946 0 0)
(255.775 0 0)
(257.585 0 0)
(259.377 0 0)
(261.147 0 0)
(262.895 0 0)
(264.618 0 0)
(266.315 0 0)
(267.982 0 0)
(269.619 0 0)
(271.22 0 0)
(272.785 0 0)
(274.31 0 0)
(275.792 0 0)
(277.228 0 0)
(278.614 0 0)
(279.947 0 0)
(281.223 0 0)
(282.439 0 0)
(283.593 0 0)
(284.68 0 0)
(285.698 0 0)
(286.645 0 0)
(287.519 0 0)
(288.32 0 0)
(289.045 0 0)
(289.698 0 0)
(290.277 0 0)
(290.786 0 0)
(291.228 0 0)
(291.607 0 0)
(291.927 0 0)
(292.194 0 0)
(292.412 0 0)
(292.589 0 0)
(292.729 0 0)
(292.838 0 0)
(292.922 0 0)
(292.985 0 0)
(293.032 0 0)
(293.066 0 0)
(293.091 0 0)
(293.11 0 0)
(293.123 0 0)
(293.133 0 0)
(293.141 0 0)
(293.147 0 0)
(293.152 0 0)
(293.157 0 0)
(293.161 0 0)
(293.165 0 0)
(293.169 0 0)
(293.173 0 0)
(293.176 0 0)
(293.179 0 0)
(293.181 0 0)
(293.183 0 0)
(293.185 0 0)
(293.186 0 0)
(293.187 0 0)
(293.188 0 0)
(293.189 0 0)
(293.189 0 0)
(293.189 0 0)
(293.189 0 0)
(293.189 0 0)
(293.189 0 0)
(293.189 0 0)
(293.189 0 0)
(293.189 0 0)
(293.189 0 0)
(293.189 0 0)
(293.189 0 0)
(293.189 0 0)
(293.189 0 0)
(293.189 0 0)
(293.189 0 0)
(293.189 0 0)
(293.189 0 0)
(293.189 0 0)
(293.189 0 0)
(293.189 0 0)
(293.189 0 0)
(293.189 0 0)
(293.189 0 0)
(293.189 0 0)
(293.189 0 0)
(293.189 0 0)
(293.189 0 0)
(293.189 0 0)
(293.189 0 0)
(293.189 0 0)
(293.189 0 0)
(293.189 0 0)
(293.189 0 0)
(293.189 0 0)
(293.189 0 0)
(293.189 0 0)
(293.189 0 0)
(293.189 0 0)
(293.189 0 0)
(293.189 0 0)
(293.189 0 0)
(293.189 0 0)
(293.189 0 0)
(293.189 0 0)
(293.189 0 0)
(293.189 0 0)
(293.189 0 0)
(293.189 0 0)
(293.189 0 0)
(293.189 0 0)
(293.189 0 0)
(293.189 0 0)
(293.189 0 0)
(293.19 0 0)
(293.19 0 0)
(293.19 0 0)
(293.19 0 0)
(293.19 0 0)
(293.19 0 0)
(293.191 0 0)
(293.19 0 0)
(293.19 0 0)
(293.189 0 0)
(293.189 0 0)
(293.189 0 0)
(293.19 0 0)
(293.191 0 0)
(293.196 0 0)
(293.194 0 0)
(293.184 0 0)
(293.18 0 0)
(293.175 0 0)
(293.169 0 0)
(293.162 0 0)
(293.154 0 0)
(293.147 0 0)
(293.141 0 0)
(293.137 0 0)
(293.134 0 0)
(293.135 0 0)
(293.138 0 0)
(293.142 0 0)
(293.148 0 0)
(293.154 0 0)
(293.16 0 0)
(293.165 0 0)
(293.169 0 0)
(293.173 0 0)
(293.176 0 0)
(293.177 0 0)
(293.179 0 0)
(293.179 0 0)
(293.18 0 0)
(293.18 0 0)
(293.18 0 0)
(293.18 0 0)
(293.18 0 0)
(293.18 0 0)
(293.18 0 0)
(293.179 0 0)
(293.179 0 0)
(293.179 0 0)
(293.178 0 0)
(293.177 0 0)
(293.177 0 0)
(293.176 0 0)
(293.176 0 0)
(293.175 0 0)
(293.175 0 0)
(293.175 0 0)
(293.175 0 0)
(293.175 0 0)
(293.175 0 0)
(293.175 0 0)
(293.175 0 0)
(293.175 0 0)
(293.175 0 0)
(293.174 0 0)
(293.173 0 0)
(293.172 0 0)
(293.172 0 0)
(293.171 0 0)
(293.17 0 0)
(293.169 0 0)
(293.168 0 0)
(293.167 0 0)
(293.167 0 0)
(293.167 0 0)
(293.167 0 0)
(293.167 0 0)
(293.168 0 0)
(293.168 0 0)
(293.167 0 0)
(293.167 0 0)
(293.167 0 0)
(293.166 0 0)
(293.165 0 0)
(293.164 0 0)
(293.163 0 0)
(293.161 0 0)
(293.16 0 0)
(293.159 0 0)
(293.158 0 0)
(293.157 0 0)
(293.156 0 0)
(293.156 0 0)
(293.157 0 0)
(293.158 0 0)
(293.158 0 0)
(293.158 0 0)
(293.158 0 0)
(293.157 0 0)
(293.156 0 0)
(293.155 0 0)
(293.153 0 0)
(293.152 0 0)
(293.151 0 0)
(293.149 0 0)
(293.147 0 0)
(293.145 0 0)
(293.143 0 0)
(293.141 0 0)
(293.138 0 0)
(293.137 0 0)
(293.137 0 0)
(293.139 0 0)
(293.14 0 0)
(293.139 0 0)
(293.136 0 0)
(293.129 0 0)
(293.119 0 0)
(293.099 0 0)
(293.074 0 0)
(293.029 0 0)
(292.972 0 0)
(292.829 0 0)
(292.7 0 0)
(292.287 0 0)
(291.751 0 0)
(290.183 0 0)
(286.741 0 0)
(278.999 0 0)
(260.757 0 0)
(221.828 0 0)
(156.793 0 0)
(84.0976 0 0)
(33.2347 0 0)
(10.4564 0 0)
(2.87695 0 0)
(0.73915 0 0)
(0.185148 0 0)
(0.046045 0 0)
(0.0114309 0 0)
(0.00283666 0 0)
(0.000703878 0 0)
(0.000174654 0 0)
(4.33373e-05 0 0)
(1.07534e-05 0 0)
(2.66826e-06 0 0)
(6.62083e-07 0 0)
(1.64285e-07 0 0)
(4.07644e-08 0 0)
(1.01147e-08 0 0)
(2.50959e-09 0 0)
(6.22529e-10 0 0)
(1.54276e-10 0 0)
(3.80583e-11 0 0)
(9.23377e-12 0 0)
(2.20269e-12 0 0)
(2.1881e-13 0 0)
(-1.45873e-14 0 0)
(-2.1881e-13 0 0)
(-3.50096e-13 0 0)
(-2.91746e-14 0 0)
(-3.20921e-13 0 0)
(-3.06334e-13 0 0)
(-3.93858e-13 0 0)
(-5.39731e-13 0 0)
(-3.50096e-13 0 0)
(-4.52207e-13 0 0)
(-3.7927e-13 0 0)
(-1.31286e-13 0 0)
(-3.20921e-13 0 0)
(-3.93858e-13 0 0)
(-7.14779e-13 0 0)
(-4.66794e-13 0 0)
(-8.02303e-13 0 0)
(-5.10556e-13 0 0)
(-8.89827e-13 0 0)
(-5.9808e-13 0 0)
(-7.00191e-13 0 0)
(-4.23032e-13 0 0)
(-5.54318e-13 0 0)
(-4.08445e-13 0 0)
(-3.20921e-13 0 0)
(-3.50096e-13 0 0)
(-2.1881e-13 0 0)
(-5.10556e-13 0 0)
(-6.85604e-13 0 0)
(-9.77351e-13 0 0)
(-8.02303e-13 0 0)
(-9.19001e-13 0 0)
(-7.73128e-13 0 0)
(-6.71017e-13 0 0)
(-6.27255e-13 0 0)
(-5.83493e-13 0 0)
(-6.12667e-13 0 0)
(-6.71017e-13 0 0)
(-7.29366e-13 0 0)
(-3.35508e-13 0 0)
(-4.52207e-13 0 0)
(-3.50096e-13 0 0)
(-3.93858e-13 0 0)
(-2.33397e-13 0 0)
(-1.16699e-13 0 0)
(-2.47984e-13 0 0)
(-2.91746e-14 0 0)
(-2.04222e-13 0 0)
(8.75239e-14 0 0)
(9.20758e-27 0 0)
(-7.87283e-27 0 0)
(-3.06334e-13 0 0)
(-1.75048e-13 0 0)
(-1.45873e-13 0 0)
(-2.77159e-13 0 0)
(-1.89635e-13 0 0)
(-1.89635e-13 0 0)
(-2.77159e-13 0 0)
(-4.3762e-13 0 0)
(-6.41842e-13 0 0)
(-6.41842e-13 0 0)
(-7.00191e-13 0 0)
(-7.58541e-13 0 0)
(-9.33589e-13 0 0)
(-8.31477e-13 0 0)
(-1.02111e-12 0 0)
(-8.75239e-13 0 0)
(-8.31477e-13 0 0)
(-7.43953e-13 0 0)
(-5.83493e-13 0 0)
(-5.10556e-13 0 0)
(-2.77159e-13 0 0)
(-3.06334e-13 0 0)
(-1.45873e-13 0 0)
(-7.29366e-14 0 0)
(2.1881e-13 0 0)
(-8.75239e-14 0 0)
(-2.1881e-13 0 0)
(-7.29366e-14 0 0)
(7.29366e-14 0 0)
(5.83493e-14 0 0)
(-1.45873e-13 0 0)
(-5.83493e-14 0 0)
(-3.20921e-13 0 0)
(-2.47984e-13 0 0)
(-4.95969e-13 0 0)
(-3.06334e-13 0 0)
(-5.68906e-13 0 0)
(-5.10556e-13 0 0)
(-6.12667e-13 0 0)
(-4.3762e-13 0 0)
(-7.58541e-13 0 0)
(-2.91746e-13 0 0)
(-7.58541e-13 0 0)
(-4.81382e-13 0 0)
(-5.83493e-13 0 0)
(-3.06334e-13 0 0)
(-1.89635e-13 0 0)
(-4.3762e-14 0 0)
(1.02111e-13 0 0)
(1.31286e-13 0 0)
(2.04222e-13 0 0)
(2.91746e-14 0 0)
(2.77159e-13 0 0)
(1.16699e-13 0 0)
(3.35508e-13 0 0)
(3.7927e-13 0 0)
(5.83493e-13 0 0)
(7.00191e-13 0 0)
(7.29366e-13 0 0)
(7.87715e-13 0 0)
(7.58541e-13 0 0)
(5.68906e-13 0 0)
(4.95969e-13 0 0)
(2.04222e-13 0 0)
(5.10556e-13 0 0)
(-1.45873e-14 0 0)
(4.23032e-13 0 0)
(-8.75239e-14 0 0)
(2.47984e-13 0 0)
(-1.16699e-13 0 0)
(4.3762e-14 0 0)
(-3.06334e-13 0 0)
(8.75239e-14 0 0)
(-7.29366e-14 0 0)
(-2.91746e-14 0 0)
(-1.02111e-13 0 0)
(1.45873e-14 0 0)
(-1.89635e-13 0 0)
(1.02111e-13 0 0)
(-1.75048e-13 0 0)
(1.31286e-13 0 0)
(1.60461e-13 0 0)
(2.62572e-13 0 0)
(7.29366e-14 0 0)
(2.04222e-13 0 0)
(-1.16699e-13 0 0)
(-2.16248e-26 0 0)
(-1.45873e-14 0 0)
(-5.83493e-14 0 0)
(-1.16699e-13 0 0)
(-1.35942e-26 0 0)
(-8.75239e-14 0 0)
(-2.91746e-14 0 0)
(-5.83493e-14 0 0)
(-8.75239e-14 0 0)
(-1.75048e-13 0 0)
(-8.75239e-14 0 0)
(-2.47984e-13 0 0)
(-1.89635e-13 0 0)
(-8.75239e-14 0 0)
(1.45873e-13 0 0)
(9.40953e-27 0 0)
(4.3762e-14 0 0)
(-8.75239e-14 0 0)
(2.04222e-13 0 0)
(-2.1881e-13 0 0)
(-7.29366e-14 0 0)
(-3.06334e-13 0 0)
(-2.91746e-14 0 0)
(-2.47984e-13 0 0)
(-1.16699e-13 0 0)
(-5.10556e-13 0 0)
(-2.62572e-13 0 0)
(-4.3762e-13 0 0)
(-2.62572e-13 0 0)
(-3.50096e-13 0 0)
(-1.31286e-13 0 0)
(-4.23032e-13 0 0)
(-2.33397e-13 0 0)
(-4.66794e-13 0 0)
(-4.66794e-13 0 0)
(-5.54318e-13 0 0)
(-5.68906e-13 0 0)
(-5.68906e-13 0 0)
(-7.29366e-13 0 0)
(-5.54318e-13 0 0)
(-7.87715e-13 0 0)
(-8.31477e-13 0 0)
(-9.04414e-13 0 0)
(-9.48176e-13 0 0)
(-1.16699e-12 0 0)
(-8.1689e-13 0 0)
(-8.02303e-13 0 0)
(-8.75239e-13 0 0)
(-4.81382e-13 0 0)
(-7.58541e-13 0 0)
(-3.93858e-13 0 0)
(-8.02303e-13 0 0)
(-4.52207e-13 0 0)
(-1.0357e-12 0 0)
(-6.71017e-13 0 0)
(-1.0357e-12 0 0)
(-7.00191e-13 0 0)
(-7.87715e-13 0 0)
(-9.77351e-13 0 0)
(-7.73128e-13 0 0)
(-1.18157e-12 0 0)
(-8.46065e-13 0 0)
(-1.10864e-12 0 0)
(-9.77351e-13 0 0)
(-8.02303e-13 0 0)
(-7.43953e-13 0 0)
(-5.10556e-13 0 0)
(-5.39731e-13 0 0)
(-3.50096e-13 0 0)
(-3.20921e-13 0 0)
(-2.47984e-13 0 0)
(-1.45873e-13 0 0)
(8.75239e-14 0 0)
(-3.35508e-13 0 0)
(-2.77159e-13 0 0)
(-5.25144e-13 0 0)
(-4.3762e-13 0 0)
(-6.71017e-13 0 0)
(-5.9808e-13 0 0)
(-8.31477e-13 0 0)
(-4.95969e-13 0 0)
(-7.58541e-13 0 0)
(-5.83493e-13 0 0)
(-3.7927e-13 0 0)
(-3.06334e-13 0 0)
(-4.95969e-13 0 0)
(-4.66794e-13 0 0)
(-6.56429e-13 0 0)
(-6.85604e-13 0 0)
(-6.12667e-13 0 0)
(-7.29366e-13 0 0)
(-5.83493e-13 0 0)
(-5.9808e-13 0 0)
(-3.35508e-13 0 0)
(-5.54318e-13 0 0)
(-4.81382e-13 0 0)
(-8.31477e-13 0 0)
(-6.27255e-13 0 0)
(-6.71017e-13 0 0)
(-7.00191e-13 0 0)
(-5.83493e-13 0 0)
(-7.00191e-13 0 0)
(-3.7927e-13 0 0)
(-6.41842e-13 0 0)
(-5.25144e-13 0 0)
(-8.1689e-13 0 0)
(-3.93858e-13 0 0)
(-6.27255e-13 0 0)
(-3.64683e-13 0 0)
(-8.31477e-13 0 0)
(-4.66794e-13 0 0)
(-7.14779e-13 0 0)
(-4.23032e-13 0 0)
(-5.68906e-13 0 0)
(-5.68906e-13 0 0)
(-6.41842e-13 0 0)
)
;

boundaryField
{
    sides
    {
        type            zeroGradient;
    }
    empty
    {
        type            empty;
    }
}


// ************************************************************************* //
