/*--------------------------------*- C++ -*----------------------------------*\
| =========                 |                                                 |
| \\      /  F ield         | OpenFOAM: The Open Source CFD Toolbox           |
|  \\    /   O peration     | Version:  2112                                  |
|   \\  /    A nd           | Website:  www.openfoam.com                      |
|    \\/     M anipulation  |                                                 |
\*---------------------------------------------------------------------------*/
FoamFile
{
    version     2.0;
    format      ascii;
    arch        "LSB;label=32;scalar=64";
    class       volScalarField;
    location    "50.5";
    object      p;
}
// * * * * * * * * * * * * * * * * * * * * * * * * * * * * * * * * * * * * * //

dimensions      [0 2 -2 0 0 0 0];

internalField   nonuniform List<scalar> 
8800
(
0.843939
0.796151
0.757461
0.728464
0.707598
0.692764
0.682163
0.674678
0.669852
0.667787
0.669046
0.673228
0.679868
0.689179
0.701955
0.719686
0.744462
0.778401
0.820949
0.879651
0.675192
0.682871
0.690344
0.693651
0.692145
0.687065
0.680575
0.674492
0.669762
0.666911
0.666623
0.66912
0.673601
0.67954
0.686304
0.692581
0.696219
0.695481
0.690059
0.681367
0.653602
0.659761
0.663887
0.666828
0.668874
0.669474
0.668362
0.666251
0.664227
0.663311
0.664263
0.666635
0.669426
0.6716
0.672202
0.670999
0.668653
0.665257
0.660698
0.656937
0.647806
0.650456
0.653205
0.655604
0.657234
0.65839
0.659124
0.659234
0.658929
0.658869
0.659609
0.660768
0.661597
0.661654
0.661037
0.659941
0.65812
0.655546
0.653141
0.651637
0.642443
0.643867
0.645642
0.647669
0.649448
0.650782
0.651762
0.65255
0.653153
0.653704
0.654341
0.654822
0.654909
0.65461
0.653903
0.652647
0.650945
0.649092
0.647782
0.646951
0.637389
0.638309
0.639546
0.641107
0.642732
0.644248
0.645523
0.646577
0.647527
0.648404
0.649075
0.649384
0.649325
0.648871
0.647977
0.646767
0.645431
0.644165
0.643339
0.642788
0.632512
0.633181
0.634139
0.635434
0.636834
0.638281
0.639707
0.641014
0.642195
0.643281
0.644078
0.644421
0.644315
0.643785
0.642962
0.642001
0.640977
0.640045
0.639456
0.639051
0.627765
0.628281
0.62906
0.630181
0.631448
0.632808
0.634238
0.635691
0.637097
0.638405
0.63938
0.639818
0.639762
0.63935
0.638724
0.63798
0.63719
0.636496
0.636058
0.635742
0.623078
0.623488
0.624139
0.625135
0.626328
0.627639
0.629064
0.630596
0.632188
0.63375
0.634954
0.635568
0.635691
0.635486
0.635072
0.634531
0.63394
0.633433
0.633106
0.632849
0.618367
0.618701
0.619262
0.620179
0.62132
0.622613
0.624069
0.625692
0.627461
0.629297
0.630799
0.631688
0.632071
0.632103
0.631906
0.631578
0.631171
0.63082
0.630576
0.630361
0.613547
0.613824
0.614324
0.615193
0.616314
0.617628
0.619151
0.620904
0.622888
0.625039
0.62692
0.628165
0.628859
0.629161
0.6292
0.629082
0.628859
0.628642
0.628465
0.62828
0.608532
0.608765
0.609225
0.610077
0.611217
0.612594
0.614227
0.616163
0.618425
0.620969
0.623313
0.624987
0.626044
0.626655
0.626954
0.627052
0.627008
0.626913
0.626791
0.626628
0.603235
0.603432
0.603873
0.604737
0.605938
0.607423
0.609219
0.611406
0.614027
0.617067
0.619974
0.622155
0.623634
0.624593
0.625182
0.625502
0.625651
0.625672
0.625596
0.625447
0.597559
0.597728
0.598165
0.599071
0.600374
0.602018
0.604045
0.606561
0.609639
0.613297
0.616887
0.619674
0.621648
0.623006
0.623922
0.624514
0.624849
0.624975
0.624938
0.6248
0.591393
0.591538
0.591987
0.592964
0.594416
0.596277
0.598611
0.601548
0.605202
0.609622
0.614043
0.617555
0.620117
0.621943
0.623228
0.62411
0.624658
0.624897
0.624897
0.624765
0.584607
0.584726
0.585202
0.586282
0.587933
0.590081
0.592807
0.596279
0.600651
0.606003
0.611433
0.615819
0.61908
0.621459
0.623178
0.624389
0.625175
0.625531
0.625565
0.625435
0.577031
0.577125
0.577643
0.57886
0.580769
0.583283
0.586513
0.590665
0.595933
0.60243
0.609081
0.614509
0.618595
0.621623
0.623862
0.625459
0.626506
0.626984
0.627051
0.626919
0.568438
0.568537
0.569108
0.570481
0.572719
0.575706
0.579581
0.58459
0.590979
0.598888
0.607008
0.613673
0.618732
0.622522
0.625376
0.627426
0.62877
0.629378
0.629477
0.629341
0.558541
0.55862
0.559279
0.560875
0.56354
0.56714
0.57183
0.577917
0.585696
0.595328
0.605219
0.613357
0.61957
0.624263
0.627828
0.630409
0.632092
0.632841
0.63297
0.632826
0.546974
0.547035
0.547792
0.549699
0.552914
0.557296
0.56303
0.570488
0.580005
0.59175
0.603764
0.613635
0.621194
0.626949
0.631338
0.634545
0.636607
0.637505
0.637662
0.637507
0.533202
0.533251
0.53415
0.536467
0.54041
0.545827
0.552925
0.562147
0.573851
0.588172
0.60271
0.614609
0.62372
0.630698
0.636053
0.639968
0.642443
0.643493
0.643672
0.643501
0.516472
0.516509
0.517623
0.520518
0.525458
0.532272
0.541193
0.552718
0.567191
0.584657
0.602151
0.616372
0.627256
0.635624
0.642065
0.646784
0.649699
0.650894
0.651086
0.650896
0.495665
0.4957
0.49715
0.500909
0.507283
0.516066
0.527483
0.542043
0.559991
0.581229
0.602163
0.619015
0.631893
0.641824
0.649461
0.65507
0.65843
0.659749
0.659941
0.659728
0.469043
0.469096
0.471126
0.476286
0.484879
0.49656
0.511502
0.530114
0.552443
0.578171
0.602987
0.622713
0.637739
0.649371
0.658321
0.664854
0.668624
0.670022
0.670191
0.669955
0.433605
0.433755
0.436978
0.444728
0.457084
0.473193
0.493161
0.517085
0.54476
0.575661
0.604768
0.627582
0.64488
0.65829
0.668642
0.676072
0.680157
0.681555
0.681671
0.68141
0.383605
0.38456
0.390981
0.404047
0.422935
0.445882
0.472773
0.503415
0.537406
0.574082
0.607737
0.633723
0.653322
0.668541
0.680292
0.688503
0.692743
0.694035
0.69407
0.693785
0.310138
0.317311
0.332199
0.35524
0.383894
0.416018
0.451393
0.489797
0.530828
0.573807
0.612386
0.641828
0.663971
0.681208
0.694462
0.70342
0.707774
0.70897
0.708956
0.708705
0.230959
0.247986
0.272147
0.305814
0.344636
0.386091
0.430043
0.476431
0.524948
0.574996
0.619527
0.653393
0.678828
0.69859
0.713808
0.723487
0.727726
0.72872
0.728732
0.72859
0.165009
0.185101
0.216956
0.259603
0.307412
0.357666
0.409943
0.464173
0.520039
0.576957
0.627174
0.66517
0.693664
0.715688
0.732225
0.742248
0.746327
0.747288
0.747399
0.747326
0.110987
0.132738
0.170094
0.219139
0.274037
0.331701
0.391345
0.452771
0.515539
0.578995
0.634598
0.67646
0.707712
0.731695
0.749477
0.760093
0.76464
0.765653
0.765752
0.76572
0.0659298
0.0888789
0.130025
0.18415
0.244752
0.308534
0.3745
0.442321
0.511405
0.580962
0.641639
0.687128
0.720976
0.746868
0.765979
0.777499
0.782396
0.783409
0.783557
0.783561
0.0275794
0.0512165
0.095219
0.153401
0.218795
0.287785
0.359242
0.432745
0.507572
0.58278
0.648202
0.697094
0.733383
0.76112
0.781437
0.793779
0.799096
0.80027
0.800462
0.800487
-0.00606542
0.0180418
0.064328
0.12583
0.195279
0.268794
0.345115
0.423736
0.503824
0.584286
0.654152
0.706215
0.744756
0.774056
0.795439
0.808482
0.814194
0.815638
0.815887
0.815919
-0.036469
-0.0119455
0.0362121
0.100552
0.173499
0.250972
0.331653
0.414935
0.499894
0.585292
0.659357
0.714393
0.754965
0.785619
0.807921
0.821501
0.827535
0.829222
0.829513
0.829543
-0.0645661
-0.0396562
0.0101224
0.0768825
0.152909
0.233888
0.318485
0.406034
0.49554
0.585626
0.663737
0.721611
0.764062
0.795973
0.819
0.832946
0.839235
0.84109
0.841395
0.841407
-0.0911365
-0.0657928
-0.0145076
0.0543444
0.133103
0.217207
0.305343
0.396813
0.490583
0.585175
0.66725
0.727906
0.77217
0.805248
0.828844
0.843024
0.84946
0.851399
0.851685
0.851669
-0.116523
-0.090737
-0.0382975
0.0326208
0.113794
0.200705
0.292045
0.387126
0.484907
0.583859
0.669865
0.733319
0.779407
0.81357
0.83764
0.851921
0.858391
0.860361
0.86064
0.860592
-0.141131
-0.114773
-0.0612672
0.0114695
0.0947967
0.184226
0.278475
0.376877
0.478424
0.581594
0.67155
0.737902
0.785893
0.821145
0.845584
0.859904
0.86637
0.868311
0.86858
0.868514
-0.165087
-0.13828
-0.0835853
-0.00925577
0.0760039
0.167688
0.264567
0.366016
0.471086
0.578335
0.672281
0.7417
0.791752
0.828112
0.852876
0.867184
0.873588
0.87546
0.875658
0.875555
-0.188503
-0.161144
-0.105404
-0.0296264
0.057368
0.151068
0.250306
0.354526
0.462872
0.574036
0.672017
0.744736
0.79706
0.834596
0.859664
0.873898
0.880121
0.881858
0.881981
0.881836
-0.211496
-0.183536
-0.126783
-0.0496668
0.0388702
0.13437
0.235717
0.342437
0.45379
0.568671
0.670717
0.746993
0.801877
0.840728
0.866087
0.880123
0.886037
0.887558
0.887598
0.887426
-0.234066
-0.205424
-0.147721
-0.0693705
0.0205497
0.11763
0.220849
0.329795
0.443873
0.562227
0.668328
0.748422
0.806215
0.846652
0.872351
0.886006
0.891406
0.892628
0.892582
0.892394
-0.256054
-0.226768
-0.168155
-0.088707
0.00244462
0.100918
0.205766
0.316679
0.433183
0.554735
0.664795
0.748926
0.810031
0.852508
0.87875
0.89181
0.896347
0.89711
0.896967
0.896781
-0.277433
-0.247537
-0.188066
-0.107621
-0.0153856
0.0842939
0.190563
0.30317
0.421804
0.546232
0.660076
0.748373
0.813217
0.858356
0.885651
0.898035
0.901181
0.90109
0.900783
0.900645
-0.298269
-0.26769
-0.207425
-0.126075
-0.032876
0.0678446
0.175328
0.289373
0.409831
0.536787
0.654129
0.746617
0.815575
0.864083
0.893355
0.90554
0.906853
0.905007
0.904153
0.904275
-0.318382
-0.287201
-0.226171
-0.144005
-0.049966
0.0516536
0.160157
0.275402
0.397383
0.526501
0.646948
0.743493
0.816829
0.869316
0.901751
0.915268
0.91544
0.911018
0.908078
0.907496
-0.337868
-0.306059
-0.244322
-0.161439
-0.0666884
0.0356771
0.144996
0.261198
0.384393
0.515302
0.638397
0.738729
0.816663
0.873494
0.910085
0.927347
0.929225
0.923429
0.914774
0.900243
-0.35665
-0.324251
-0.261994
-0.178575
-0.0833312
0.0195811
0.129427
0.246278
0.370322
0.502551
0.627825
0.731529
0.81447
0.875796
0.916439
0.93914
0.943617
0.931772
0.912381
0.899891
-0.374548
-0.341907
-0.278992
-0.195194
-0.099558
0.0037127
0.113678
0.230969
0.355482
0.488512
0.615315
0.721457
0.809513
0.875101
0.916396
0.938731
0.946455
0.924242
0.856279
0.825605
-0.390894
-0.360264
-0.294978
-0.210749
-0.114612
-0.0114234
0.0980587
0.2155
0.340089
0.473312
0.600815
0.708238
0.800488
0.870795
0.90513
0.92129
0.913594
0.860761
0.791757
0.749236
-0.447241
-0.37645
-0.309567
-0.226323
-0.130074
-0.0272749
0.0825058
0.199592
0.32378
0.456505
0.583734
0.691295
0.783696
0.860583
0.866369
0.871745
0.825643
0.756917
0.680834
0.638441
-0.408384
-0.392166
-0.331293
-0.247542
-0.15275
-0.0500714
0.0587112
0.175125
0.298285
0.429523
0.554623
0.660158
0.744417
0.824826
0.814316
0.704269
0.600694
0.528552
0.455747
0.487082
-0.439859
-0.410177
-0.348295
-0.265309
-0.170494
-0.0680172
0.0410285
0.156801
0.278887
0.408327
0.530595
0.631821
0.707536
0.749897
0.702651
0.556655
0.430636
0.340291
0.242042
0.292827
-0.464131
-0.431495
-0.368307
-0.285096
-0.190186
-0.0877982
0.021179
0.136124
0.256822
0.383889
0.502443
0.597626
0.664304
0.673292
0.568552
0.39743
0.246098
0.128266
-0.00232559
0.0308141
-0.487926
-0.453708
-0.389304
-0.305174
-0.210105
-0.107832
0.000652998
0.11465
0.233775
0.358104
0.472073
0.560037
0.611366
0.589585
0.433022
0.238215
0.0489571
-0.11818
-0.306449
-0.324408
-0.511119
-0.476433
-0.411107
-0.326187
-0.230902
-0.128805
-0.0209325
0.0920032
0.209313
0.330539
0.439261
0.519821
0.552525
0.49495
0.30412
0.0950562
-0.121214
-0.309795
-0.551468
-0.851191
-0.534615
-0.499914
-0.434013
-0.348566
-0.253042
-0.151063
-0.0437235
0.0681285
0.183529
0.301414
0.404627
0.476977
0.489694
0.38136
0.192108
-0.0163416
-0.219557
-0.391017
-0.459293
-0.538835
-0.559372
-0.524602
-0.458377
-0.372656
-0.277027
-0.175252
-0.06853
0.0420752
0.155261
0.269297
0.366628
0.428287
0.41671
0.274806
0.0927461
-0.096716
-0.258274
-0.350237
-0.374018
-0.389996
-0.585706
-0.550813
-0.484373
-0.398543
-0.302992
-0.201581
-0.0957092
0.0133574
0.123922
0.233474
0.324417
0.372561
0.343651
0.175968
0.00275778
-0.16166
-0.286969
-0.325487
-0.338405
-0.339719
-0.613826
-0.578726
-0.512067
-0.42622
-0.330881
-0.230052
-0.125276
-0.0180712
0.0894447
0.193935
0.277606
0.311661
0.264101
0.0846031
-0.0796038
-0.226794
-0.301923
-0.318858
-0.320229
-0.320049
-0.643797
-0.6084
-0.541482
-0.455682
-0.360707
-0.260651
-0.157229
-0.0522209
0.0518369
0.150731
0.226228
0.249359
0.165817
0.000983636
-0.155009
-0.27627
-0.312373
-0.310566
-0.309478
-0.308867
-0.675334
-0.639667
-0.572515
-0.486839
-0.392378
-0.293316
-0.19153
-0.0890602
0.0111347
0.103947
0.171043
0.177037
0.0756166
-0.0770208
-0.214676
-0.289197
-0.29939
-0.302075
-0.302782
-0.302412
-0.70788
-0.672062
-0.604909
-0.519461
-0.425703
-0.327884
-0.228019
-0.128449
-0.0324762
0.0539043
0.112427
0.103049
-0.00626321
-0.142894
-0.257496
-0.28817
-0.296714
-0.298749
-0.298685
-0.298375
-0.740975
-0.705049
-0.638213
-0.553151
-0.460332
-0.364027
-0.266403
-0.170087
-0.0787042
0.001232
0.0493107
0.0312185
-0.0834916
-0.195967
-0.286221
-0.302794
-0.295996
-0.295408
-0.295608
-0.295552
-0.773732
-0.737922
-0.671547
-0.587312
-0.495717
-0.401263
-0.30622
-0.213473
-0.127063
-0.0534352
-0.0153266
-0.037184
-0.156047
-0.23874
-0.284056
-0.298499
-0.296508
-0.294739
-0.29433
-0.294307
-0.804554
-0.769485
-0.703963
-0.621019
-0.531089
-0.438882
-0.346802
-0.257883
-0.176712
-0.109418
-0.0753986
-0.114342
-0.225145
-0.284988
-0.273277
-0.294895
-0.300986
-0.298589
-0.297248
-0.296578
-0.831888
-0.79789
-0.734328
-0.653093
-0.565405
-0.475942
-0.387261
-0.302419
-0.226423
-0.165624
-0.133188
-0.189299
-0.301774
-0.35429
-0.335563
-0.33113
-0.322273
-0.315427
-0.312423
-0.311026
-0.853606
-0.821374
-0.760595
-0.682131
-0.597394
-0.51128
-0.426487
-0.346003
-0.274875
-0.220476
-0.191676
-0.247551
-0.371951
-0.533673
-0.525145
-0.437602
-0.379075
-0.355129
-0.345561
-0.341142
-0.867498
-0.837989
-0.780871
-0.706288
-0.625543
-0.543587
-0.463227
-0.38737
-0.32084
-0.271523
-0.244589
-0.280135
-0.379279
-0.612084
-0.598764
-0.455609
-0.40418
-0.383273
-0.372716
-0.369682
-0.87093
-0.845505
-0.793245
-0.723721
-0.648173
-0.571466
-0.496156
-0.42526
-0.363037
-0.316155
-0.280139
-0.254381
-0.210462
-0.292101
-0.302612
-0.307182
-0.31531
-0.319128
-0.322494
-0.323377
-0.861825
-0.841286
-0.795542
-0.732848
-0.663807
-0.593411
-0.524014
-0.458402
-0.400109
-0.355172
-0.304695
-0.194317
0.0765283
0.466013
0.200845
-0.0954052
-0.254768
-0.290907
-0.305943
-0.310061
-0.838031
-0.822443
-0.785938
-0.732432
-0.67145
-0.608385
-0.545586
-0.485633
-0.432247
-0.390469
-0.336484
-0.248982
-0.0288092
0.191291
-0.0464802
-0.280811
-0.377559
-0.42045
-0.443328
-0.453049
-0.801839
-0.79171
-0.765028
-0.722548
-0.670991
-0.616035
-0.560161
-0.505969
-0.458351
-0.423807
-0.402387
-0.562256
-0.999027
-1.52479
-1.60977
-1.25082
-0.985078
-0.871126
-0.839297
-0.834506
-0.759586
-0.753846
-0.737472
-0.705768
-0.664111
-0.616888
-0.567419
-0.5183
-0.474385
-0.44626
-0.444713
-0.76411
-1.26923
-1.69916
-1.5869
-1.2762
-1.10033
-1.00584
-0.950689
-0.943023
-0.720691
-0.71731
-0.709276
-0.687405
-0.653575
-0.612521
-0.567794
-0.52108
-0.476987
-0.441896
-0.441851
-0.51593
-0.63838
-0.80978
-0.930232
-1.045
-1.11408
-1.05558
-0.916126
-0.851988
-0.692259
-0.690198
-0.686288
-0.671922
-0.643817
-0.606045
-0.562916
-0.515224
-0.464688
-0.41558
-0.391747
-0.378072
-0.33561
-0.242775
-0.146986
-0.0758139
-0.0872061
-0.0624442
0.0108923
0.0415645
-0.669967
-0.66925
-0.66813
-0.660568
-0.637521
-0.601033
-0.556327
-0.504992
-0.448198
-0.390029
-0.338797
-0.297623
-0.110657
0.203966
0.49953
0.710479
0.805902
0.86562
0.898222
0.908741
-0.65582
-0.655424
-0.654937
-0.651585
-0.633867
-0.597813
-0.549339
-0.492435
-0.428073
-0.352563
-0.270601
-0.173985
0.0659931
0.423017
0.76735
1.04586
1.22007
1.31741
1.36115
1.37396
-0.646534
-0.646297
-0.645803
-0.64504
-0.632358
-0.596521
-0.544014
-0.480486
-0.404215
-0.316948
-0.221341
-0.117456
0.138471
0.490602
0.840579
1.14299
1.34968
1.46736
1.52507
1.54495
-0.640249
-0.640216
-0.639903
-0.639621
-0.631118
-0.598221
-0.54286
-0.471551
-0.38603
-0.29031
-0.187553
-0.0969554
0.132853
0.486117
0.822851
1.11915
1.33627
1.46348
1.52737
1.5481
-0.639202
-0.637592
-0.63292
-0.628864
-0.628169
-0.605091
-0.547701
-0.4681
-0.374207
-0.27241
-0.173115
-0.0867435
0.0969355
0.407209
0.724536
0.994288
1.20321
1.32621
1.38377
1.4006
-0.663821
-0.65921
-0.649323
-0.644418
-0.64841
-0.629998
-0.561511
-0.468225
-0.365177
-0.257491
-0.158747
-0.0699964
0.0657035
0.351384
0.599459
0.813047
0.979853
1.08096
1.12758
1.14049
-0.729221
-0.729135
-0.736227
-0.744096
-0.742062
-0.690653
-0.583292
-0.466097
-0.353484
-0.243232
-0.145905
-0.0565381
0.0511277
0.246857
0.454363
0.620149
0.746667
0.823445
0.858814
0.867971
-0.797237
-0.811308
-0.838567
-0.851894
-0.831251
-0.733252
-0.586826
-0.451676
-0.334906
-0.227619
-0.134329
-0.0487603
0.0390078
0.174924
0.328418
0.452994
0.553491
0.613936
0.641048
0.646407
-0.745663
-0.761071
-0.788572
-0.800686
-0.772185
-0.669416
-0.532539
-0.408331
-0.30266
-0.208024
-0.12487
-0.0533695
0.0170218
0.107984
0.224001
0.320491
0.396087
0.440472
0.457865
0.460206
-0.524711
-0.538035
-0.557803
-0.569511
-0.551494
-0.487594
-0.407695
-0.327957
-0.253253
-0.180939
-0.114453
-0.0602273
-0.00619494
0.0453348
0.126046
0.200639
0.260224
0.294604
0.308314
0.307907
-0.248626
-0.254673
-0.266267
-0.280968
-0.287438
-0.280671
-0.260986
-0.231148
-0.194121
-0.149626
-0.104345
-0.0664181
-0.0349083
-0.0031284
0.0506547
0.102742
0.144838
0.167454
0.174149
0.173708
-0.0452908
-0.0479064
-0.0566314
-0.0746402
-0.101424
-0.126458
-0.142225
-0.146708
-0.139156
-0.12047
-0.0969476
-0.0753153
-0.0584147
-0.0450196
-0.0119468
0.0240525
0.049491
0.0616708
0.0652039
0.0637604
0.0554394
0.0537406
0.046277
0.0279564
-0.00211118
-0.0360917
-0.0658133
-0.0864878
-0.096406
-0.0960095
-0.0898048
-0.0828739
-0.0784779
-0.0720357
-0.0555767
-0.0372539
-0.0252475
-0.0209503
-0.0198397
-0.0208977
0.087866
0.0864803
0.0804087
0.0651953
0.039572
0.0087554
-0.021569
-0.0473778
-0.0661575
-0.0781349
-0.0860491
-0.0924009
-0.0961181
-0.0929657
-0.0842843
-0.0774627
-0.0750192
-0.075914
-0.077165
-0.0779566
0.087675
0.0866115
0.0821325
0.0709314
0.0517777
0.0274077
0.00111718
-0.0239679
-0.046014
-0.0654905
-0.0844017
-0.104113
-0.117739
-0.1149
-0.108231
-0.105136
-0.10598
-0.108525
-0.109733
-0.110297
0.0759057
0.0751584
0.0720623
0.0642841
0.0507002
0.0325652
0.0115993
-0.0101724
-0.0318118
-0.0545032
-0.0804561
-0.109961
-0.131227
-0.125927
-0.117574
-0.116778
-0.118773
-0.121599
-0.122727
-0.123075
0.0620306
0.0615417
0.0595015
0.0543088
0.0450004
0.0320317
0.0161862
-0.00148179
-0.0206442
-0.0427381
-0.0708695
-0.104614
-0.125986
-0.117684
-0.110334
-0.109499
-0.113483
-0.116807
-0.117881
-0.118047
0.0495508
0.0492592
0.0479933
0.0446659
0.0385017
0.0295872
0.0182575
0.00504732
-0.00989861
-0.0282105
-0.0522368
-0.0816882
-0.097297
-0.0881061
-0.0834183
-0.0858625
-0.0911817
-0.0948276
-0.0958555
-0.0959141
0.0393146
0.0391465
0.0384277
0.0364585
0.032654
0.0269324
0.0194442
0.0105552
0.000463558
-0.0112124
-0.0253681
-0.0426017
-0.0490403
-0.0419067
-0.041187
-0.0470515
-0.053814
-0.057704
-0.0586528
-0.0587045
0.0312032
0.0311332
0.0307957
0.0297916
0.0277155
0.0244597
0.020181
0.0153022
0.0105416
0.00697152
0.00584647
0.00605827
0.0114986
0.0177922
0.0105017
0.000405182
-0.0068373
-0.0100709
-0.0108487
-0.0110395
0.0245397
0.0245306
0.0244553
0.0241664
0.0233877
0.0220237
0.0202863
0.0187837
0.0187847
0.0230538
0.0353795
0.0546183
0.0771761
0.0751587
0.0613229
0.0484962
0.0414846
0.0394488
0.0387872
0.0382966
0.018972
0.0189987
0.0190877
0.019235
0.0192945
0.0192215
0.0192709
0.0202056
0.0237198
0.0336851
0.0558217
0.0885745
0.117086
0.112453
0.0965405
0.0848682
0.0815568
0.0805262
0.0796331
0.0786374
0.0140242
0.0140536
0.0142083
0.014581
0.0151108
0.0157629
0.0168084
0.0190709
0.0243151
0.0367689
0.0621659
0.0971073
0.125183
0.120907
0.106607
0.0993409
0.098496
0.0993833
0.0984345
0.0971886
0.00946162
0.00947222
0.00962101
0.0100229
0.0106635
0.0115429
0.0128567
0.0153046
0.0203871
0.0317708
0.0545162
0.0826929
0.105517
0.098864
0.0906843
0.0888083
0.0913209
0.093223
0.0922055
0.0909645
0.00513653
0.0051414
0.0052291
0.00550452
0.00599118
0.00665729
0.00762591
0.00930777
0.012728
0.0201155
0.0351176
0.0539115
0.064817
0.059083
0.0548857
0.0583557
0.0625027
0.0654236
0.0641123
0.0627535
0.00105302
0.0010423
0.00104005
0.00104037
0.00111396
0.00124338
0.00141255
0.0017035
0.00223386
0.00338452
0.00537429
0.00944128
0.0127962
0.0173919
0.0162961
0.0167648
0.0168744
0.0125581
0.0116312
0.0118559
-0.0767734
0.0904507
0.285899
0.456512
0.593083
0.70094
0.790294
0.866302
0.900806
0.877506
0.227192
0.348226
0.478515
0.591226
0.686346
0.765157
0.828981
0.874269
0.896938
0.909007
0.446915
0.53001
0.6191
0.697852
0.765628
0.82235
0.867456
0.900406
0.924211
0.942187
0.608292
0.667734
0.729707
0.787015
0.836885
0.879242
0.91403
0.941778
0.96462
0.982917
0.734156
0.777441
0.823558
0.867518
0.906353
0.940274
0.969307
0.993468
1.01389
1.03172
0.838745
0.871725
0.909944
0.94559
0.978307
1.00763
1.03326
1.05479
1.07267
1.09001
0.931465
0.96022
0.994264
1.02646
1.05647
1.08369
1.10748
1.12723
1.14275
1.15983
1.02016
1.0494
1.08346
1.11554
1.14518
1.1718
1.19469
1.2132
1.22658
1.24362
1.11554
1.14878
1.18545
1.21905
1.24912
1.27532
1.29729
1.31458
1.32646
1.34386
1.23058
1.26842
1.30708
1.34134
1.3707
1.39546
1.41584
1.43174
1.44322
1.46129
1.37554
1.4141
1.45025
1.48095
1.50663
1.52874
1.5478
1.56333
1.57576
1.59376
1.55064
1.58227
1.60845
1.63091
1.65089
1.66961
1.68733
1.70381
1.71917
1.73723
1.73927
1.75647
1.77151
1.78774
1.80365
1.81819
1.83139
1.84532
1.86286
1.88302
1.92098
1.93053
1.94207
1.95288
1.96217
1.97175
1.98254
1.99391
2.00527
2.02062
2.12823
2.13189
2.11695
2.10214
2.09586
2.10154
2.12002
2.15033
2.18251
2.20916
2.43455
2.29968
2.22305
2.18067
2.16325
2.16721
2.19461
2.25103
2.35364
2.57801
0.73454
0.73241
0.727926
0.7193
0.707073
0.69494
0.684705
0.676802
0.671175
0.667907
0.667536
0.670257
0.675347
0.682559
0.691939
0.703472
0.716119
0.727151
0.733261
0.736314
0.658998
0.664845
0.671176
0.675666
0.678132
0.677803
0.67506
0.671242
0.667721
0.665447
0.665282
0.667461
0.671109
0.675385
0.679183
0.681059
0.680118
0.676633
0.671468
0.664846
0.65058
0.652876
0.656278
0.659271
0.661342
0.662832
0.66358
0.663254
0.662217
0.661318
0.661473
0.662879
0.664676
0.665968
0.666137
0.665238
0.663682
0.661341
0.658074
0.655152
0.64508
0.646166
0.647997
0.650371
0.652389
0.653811
0.654822
0.655563
0.65595
0.656154
0.656621
0.657404
0.65798
0.658029
0.657603
0.656743
0.655265
0.653175
0.651084
0.6497
0.639891
0.640554
0.64166
0.64336
0.645135
0.646759
0.648044
0.649047
0.649912
0.65068
0.651381
0.651903
0.652069
0.651881
0.651296
0.650227
0.648788
0.647236
0.645913
0.645131
0.634934
0.635394
0.636178
0.63747
0.63895
0.640457
0.641909
0.643191
0.644306
0.645334
0.646215
0.646746
0.646858
0.646556
0.645836
0.644829
0.643688
0.642545
0.641623
0.641104
0.630128
0.630473
0.631081
0.632143
0.633428
0.63479
0.636213
0.63764
0.638988
0.640235
0.641302
0.641947
0.642082
0.641771
0.641143
0.640343
0.639472
0.638592
0.637911
0.637532
0.625421
0.625689
0.62618
0.627081
0.62824
0.629523
0.630899
0.632364
0.633874
0.635353
0.636648
0.637459
0.637707
0.637541
0.637111
0.636521
0.635847
0.63519
0.634689
0.634399
0.620734
0.620947
0.621354
0.622145
0.623221
0.624453
0.625816
0.627323
0.628957
0.630663
0.632229
0.633284
0.633755
0.633816
0.633604
0.633224
0.632748
0.632277
0.631914
0.631686
0.615979
0.616151
0.6165
0.617217
0.618245
0.619452
0.620839
0.622422
0.624203
0.62615
0.62804
0.62943
0.630204
0.630534
0.630559
0.630395
0.630121
0.629816
0.629566
0.629385
0.611073
0.611212
0.611518
0.61219
0.6132
0.614428
0.615876
0.617578
0.619556
0.621796
0.624082
0.625891
0.62703
0.627671
0.627964
0.628028
0.627951
0.627803
0.627648
0.627503
0.605928
0.60604
0.606319
0.60697
0.607996
0.609291
0.610845
0.612718
0.614961
0.617575
0.620351
0.622662
0.624229
0.625229
0.625822
0.626129
0.626252
0.626262
0.626191
0.626073
0.600454
0.600544
0.600806
0.601461
0.602541
0.603943
0.605656
0.607768
0.610355
0.613446
0.616826
0.619741
0.621812
0.623224
0.624151
0.624745
0.625087
0.625242
0.625243
0.625147
0.594548
0.594617
0.594872
0.595555
0.596724
0.598281
0.600218
0.602648
0.605673
0.609365
0.613485
0.617126
0.619795
0.62169
0.623001
0.623909
0.624491
0.624803
0.624872
0.624793
0.588088
0.588136
0.588393
0.589125
0.590425
0.592193
0.594425
0.597262
0.600841
0.605271
0.610294
0.614815
0.618202
0.620671
0.622429
0.623685
0.624545
0.625025
0.625163
0.625099
0.580928
0.580957
0.581218
0.582023
0.583498
0.58554
0.588153
0.59151
0.595788
0.601134
0.607258
0.612837
0.617076
0.620221
0.622509
0.624176
0.625352
0.626012
0.626216
0.626165
0.572883
0.572901
0.573162
0.574064
0.575767
0.57815
0.581252
0.58527
0.590426
0.596905
0.604371
0.611221
0.616471
0.620407
0.623322
0.625487
0.627018
0.627875
0.628149
0.628108
0.56365
0.563636
0.563959
0.564997
0.566985
0.569819
0.573548
0.578404
0.584662
0.592548
0.601646
0.610009
0.616454
0.621324
0.624973
0.627725
0.629665
0.63074
0.631086
0.631052
0.552959
0.552919
0.553286
0.554515
0.556869
0.560282
0.564808
0.570723
0.578358
0.587974
0.599049
0.609225
0.617086
0.623064
0.62758
0.631004
0.63342
0.634737
0.635157
0.635128
0.540337
0.54027
0.540713
0.542189
0.545023
0.549195
0.554756
0.562038
0.571425
0.583188
0.59665
0.608965
0.618469
0.625731
0.631261
0.635465
0.638422
0.64
0.640492
0.640464
0.525152
0.525056
0.52562
0.527443
0.53092
0.536104
0.543039
0.552109
0.563735
0.578168
0.594497
0.609309
0.620704
0.629432
0.636141
0.641234
0.64479
0.646639
0.647197
0.647163
0.506482
0.506358
0.507118
0.509449
0.51383
0.520423
0.529238
0.540696
0.555207
0.572935
0.592663
0.610351
0.623904
0.634285
0.642303
0.648402
0.652608
0.654726
0.655335
0.65529
0.482931
0.482788
0.483877
0.486994
0.492737
0.501388
0.512864
0.527567
0.545806
0.567573
0.591284
0.612221
0.628156
0.640377
0.649823
0.657038
0.661914
0.664275
0.664909
0.664843
0.452205
0.452082
0.453774
0.458256
0.466276
0.478135
0.493528
0.512702
0.535736
0.562383
0.590637
0.61513
0.633611
0.647785
0.658786
0.667167
0.672665
0.675198
0.675816
0.675719
0.410193
0.410229
0.413257
0.420588
0.432817
0.449911
0.471088
0.49627
0.525253
0.557583
0.590877
0.619179
0.640327
0.656525
0.669125
0.678689
0.684673
0.687246
0.687789
0.687653
0.349197
0.350374
0.357798
0.371485
0.391409
0.416831
0.446159
0.479007
0.515059
0.553759
0.592396
0.624565
0.648364
0.666548
0.680677
0.691242
0.697542
0.699934
0.700301
0.700127
0.27659
0.278317
0.292552
0.316117
0.346861
0.382137
0.420388
0.461439
0.505097
0.550861
0.595772
0.632826
0.660172
0.680995
0.697063
0.708876
0.715469
0.717797
0.718154
0.718074
0.201546
0.207658
0.228706
0.262412
0.303475
0.348329
0.395473
0.444791
0.496165
0.549141
0.600539
0.642671
0.673691
0.697379
0.715674
0.728488
0.735018
0.737037
0.737272
0.737249
0.140175
0.148575
0.174201
0.214895
0.264001
0.317023
0.372191
0.429248
0.487984
0.547896
0.605502
0.652422
0.686828
0.712979
0.732939
0.746648
0.753217
0.755114
0.75556
0.755614
0.0902213
0.099217
0.128386
0.174302
0.229515
0.289117
0.351066
0.414954
0.480406
0.546805
0.610272
0.661701
0.699254
0.727693
0.749251
0.763895
0.770899
0.773314
0.773869
0.773959
0.0483021
0.0575871
0.0892175
0.139133
0.19935
0.264415
0.332113
0.401971
0.47346
0.545826
0.614774
0.670437
0.710946
0.741578
0.764783
0.780463
0.788212
0.790991
0.791634
0.791736
0.0120738
0.0214853
0.0549803
0.108106
0.172453
0.242179
0.314886
0.390028
0.46697
0.544823
0.618881
0.678502
0.721781
0.754419
0.779084
0.795731
0.804238
0.80727
0.808006
0.808112
-0.020108
-0.0106419
0.0242916
0.0801295
0.147945
0.221686
0.298818
0.37871
0.460638
0.543584
0.622436
0.685773
0.731604
0.766015
0.791898
0.80937
0.81851
0.821844
0.822607
0.822697
-0.0494907
-0.0399664
-0.00385569
0.0543238
0.125129
0.202379
0.283443
0.36764
0.454162
0.541884
0.625291
0.692165
0.740365
0.776382
0.803291
0.821414
0.830982
0.834551
0.835384
0.835471
-0.0769157
-0.0673315
-0.0301576
0.0300159
0.103485
0.183838
0.268416
0.356524
0.447302
0.539541
0.62735
0.69766
0.748134
0.785641
0.813493
0.832079
0.841891
0.845636
0.846501
0.846564
-0.102939
-0.0932659
-0.0550958
0.00676947
0.082634
0.165748
0.253492
0.345165
0.439896
0.536435
0.628543
0.702263
0.754988
0.793936
0.822614
0.841519
0.851423
0.855235
0.856112
0.856147
-0.128034
-0.118169
-0.0791474
-0.0156528
0.0623174
0.1479
0.238501
0.333429
0.431838
0.532473
0.628807
0.705981
0.761013
0.801416
0.830816
0.849932
0.859873
0.863669
0.864522
0.864516
-0.152428
-0.142328
-0.102523
-0.0374553
0.0423758
0.130164
0.22334
0.321239
0.423055
0.527591
0.628096
0.708816
0.766302
0.808233
0.838317
0.857569
0.867495
0.871234
0.872033
0.872008
-0.176217
-0.16589
-0.12523
-0.0587951
0.0227194
0.112484
0.207968
0.308558
0.413517
0.521741
0.62636
0.710775
0.770922
0.8145
0.845256
0.864605
0.874457
0.878068
0.878778
0.878722
-0.199529
-0.188883
-0.14746
-0.0797229
0.00330783
0.0948347
0.19238
0.295395
0.403229
0.514911
0.623554
0.711832
0.774914
0.820316
0.851779
0.871158
0.880818
0.884222
0.884807
0.884704
-0.222337
-0.211398
-0.169206
-0.100262
-0.0158578
0.0772374
0.176615
0.28179
0.39222
0.507098
0.619644
0.711936
0.778278
0.82577
0.858047
0.877368
0.886653
0.889719
0.89015
0.890009
-0.244681
-0.233419
-0.190411
-0.120388
-0.034748
0.0597319
0.160722
0.267811
0.38055
0.498333
0.614606
0.711019
0.780952
0.830927
0.864278
0.883475
0.892108
0.894636
0.894872
0.8947
-0.266374
-0.254862
-0.211065
-0.140052
-0.0533083
0.0423936
0.144772
0.253533
0.368299
0.488683
0.608429
0.708994
0.782827
0.83579
0.87071
0.88986
0.897466
0.899079
0.899004
0.898812
-0.287555
-0.275683
-0.231145
-0.159226
-0.0715022
0.0252653
0.128861
0.239041
0.355558
0.478232
0.601132
0.705757
0.783743
0.840249
0.877492
0.897085
0.9034
0.903411
0.90262
0.902391
-0.308052
-0.295854
-0.250616
-0.17786
-0.0892472
0.00843514
0.113072
0.224458
0.342441
0.467053
0.592762
0.701214
0.783497
0.844046
0.884514
0.905713
0.911244
0.908956
0.906288
0.905211
-0.327925
-0.315414
-0.26942
-0.195898
-0.106504
-0.0080256
0.0974924
0.209868
0.329063
0.455288
0.583395
0.695274
0.78187
0.846783
0.891205
0.91566
0.922503
0.918991
0.912353
0.903597
-0.347086
-0.334319
-0.287652
-0.213495
-0.123482
-0.0243956
0.081784
0.194867
0.31497
0.442427
0.572488
0.687357
0.778329
0.848014
0.896753
0.925964
0.937293
0.934733
0.92466
0.918632
-0.365485
-0.352489
-0.305301
-0.230613
-0.140178
-0.0406728