/*--------------------------------*- C++ -*----------------------------------*\
| =========                 |                                                 |
| \\      /  F ield         | OpenFOAM: The Open Source CFD Toolbox           |
|  \\    /   O peration     | Version:  2112                                  |
|   \\  /    A nd           | Website:  www.openfoam.com                      |
|    \\/     M anipulation  |                                                 |
\*---------------------------------------------------------------------------*/
FoamFile
{
    version     2.0;
    format      ascii;
    arch        "LSB;label=32;scalar=64";
    class       surfaceScalarField;
    location    "50.5";
    object      phi;
}
// * * * * * * * * * * * * * * * * * * * * * * * * * * * * * * * * * * * * * //

dimensions      [0 3 -1 0 0 0 0];

oriented        oriented;

internalField   nonuniform List<scalar> 
17370
(
-0.0916071
0.0960096
0.284608
-0.0775951
0.0594207
0.36495
-0.0430436
0.0316247
0.427587
-0.0223215
0.0162696
0.505304
-0.0116771
0.00880344
0.602276
-0.00659249
0.00510825
0.720542
-0.0038727
0.00299354
0.863786
-0.00222125
0.00164316
1.03603
-0.00111163
0.000690698
1.24292
-0.000279894
-0.000112554
1.49158
0.000499813
-0.000911611
1.4916
0.00131423
-0.00181779
1.24319
0.00236849
-0.00311322
1.03638
0.00397316
-0.00519521
0.864129
0.00667181
-0.00887511
0.721261
0.011739
-0.0163172
0.603793
0.0223545
-0.0316419
0.508727
0.0430442
-0.0594113
0.432535
0.0775894
-0.0960041
0.36519
0.0916206
0.19739
-0.127089
0.0880198
0.0390696
-0.364354
0.354027
-0.0714783
0.081805
-0.446654
0.454251
-0.0791742
0.0715769
-0.521011
0.529106
-0.0637268
0.0556315
-0.61299
0.620758
-0.0482466
0.0404789
-0.727163
0.733683
-0.0338681
0.0273483
-0.86758
0.87243
-0.0221457
0.0172951
-1.03856
1.0419
-0.0135976
0.0102579
-1.24472
1.24712
-0.00770657
0.00530036
-1.49284
1.49485
-0.00333601
0.00132147
-1.49269
1.49451
0.000498725
-0.00231847
-1.24411
1.24602
0.00429094
-0.00620139
-1.03761
1.04009
0.00853677
-0.0110167
-0.866187
0.869819
0.0142772
-0.017909
-0.724594
0.729752
0.0226998
-0.0278579
-0.609065
0.615636
0.0343341
-0.0409047
-0.515124
0.52246
0.0486252
-0.0559614
-0.43988
0.44766
0.0639852
-0.0717652
-0.374709
0.377355
0.079264
-0.0819106
-0.256899
0.224438
0.0715608
-0.0391002
-0.0688075
0.0591937
0.00961376
-0.0521176
0.0589471
-0.374834
0.368005
-0.0581027
0.0542633
-0.453944
0.457784
-0.0487793
0.0442227
-0.527615
0.532172
-0.0396755
0.0357815
-0.620799
0.624693
-0.0315702
0.0275762
-0.734657
0.73865
-0.0232202
0.0193332
-0.873952
0.877839
-0.0152881
0.0118312
-1.04336
1.04682
-0.00831215
0.00527988
-1.24865
1.25168
-0.00207181
-0.000909858
-1.49694
1.49993
0.0038702
-0.00701805
-1.49742
1.50057
0.00996269
-0.0133644
-1.25007
1.25347
0.0167038
-0.0206165
-1.04565
1.04956
0.0243878
-0.0286294
-0.877138
0.881379
0.0325318
-0.0366533
-0.738983
0.743104
0.0404722
-0.044945
-0.625972
0.630445
0.0494395
-0.054863
-0.535017
0.540441
0.0586325
-0.059394
-0.458077
0.458839
0.0524496
-0.0320629
-0.336766
0.31638
0.00967288
-0.0686648
0.0589919
-0.0534038
0.049291
0.00411284
-0.0332523
0.0436802
-0.358557
0.348129
-0.0473603
0.046777
-0.459576
0.460159
-0.0438525
0.0406434
-0.536129
0.539338
-0.0369697
0.0336171
-0.628391
0.631743
-0.0299852
0.0267455
-0.742028
0.745268
-0.023294
0.0200971
-0.88133
0.884527
-0.0165048
0.0131542
-1.05024
1.05359
-0.00945677
0.00605341
-1.25494
1.25834
-0.00226367
-0.00135223
-1.50328
1.50689
0.00493735
-0.00863841
-1.50407
1.50777
0.0119211
-0.0154561
-1.25703
1.26057
0.0186425
-0.0220464
-1.05327
1.05667
0.0250761
-0.0283607
-0.884987
0.888272
0.0314657
-0.0349664
-0.746787
0.750287
0.0382079
-0.0417665
-0.634566
0.638124
0.0448761
-0.0476891
-0.544585
0.547398
0.048157
-0.0443161
-0.456956
0.453116
0.0336904
-0.0163779
-0.297064
0.279752
0.0041782
-0.0531427
0.0489645
-0.0461207
0.0435637
0.00255699
-0.0230573
0.033412
-0.337534
0.327179
-0.0391512
0.0401045
-0.459909
0.458956
-0.0388579
0.0365335
-0.541994
0.544319
-0.0338952
0.0313516
-0.634709
0.637252
-0.0283772
0.0255314
-0.74835
0.751196
-0.0222956
0.0192837
-0.887578
0.89059
-0.0159352
0.0128039
-1.05676
1.05989
-0.00925057
0.0058531
-1.26174
1.26513
-0.00194463
-0.00185189
-1.51062
1.51442
0.00560909
-0.00939887
-1.51155
1.51534
0.0126369
-0.0159769
-1.26403
1.26737
0.0188928
-0.0219966
-1.05988
1.06298
0.0247893
-0.0278003
-0.891467
0.894478
0.0304608
-0.0332531
-0.753467
0.756259
0.0356447
-0.0381294
-0.641078
0.643563
0.0403228
-0.0413959
-0.549235
0.550308
0.0402632
-0.0342619
-0.447993
0.441992
0.0236191
-0.0103728
-0.264566
0.25132
0.00263802
-0.0457213
0.0430833
-0.0414444
0.0396425
0.0018019
-0.0169556
0.0262469
-0.317307
0.308016
-0.0328494
0.0349748
-0.457394
0.455269
-0.0345448
0.0328489
-0.546348
0.548043
-0.0306237
0.0284973
-0.639561
0.641688
-0.0260609
0.0236837
-0.753792
0.756169
-0.0208708
0.0181266
-0.893443
0.896187
-0.014946
0.0119156
-1.06293
1.06596
-0.00845523
0.00514395
-1.26845
1.27176
-0.00130868
-0.00243478
-1.51818
1.52193
0.00612799
-0.00981422
-1.51908
1.52277
0.0129246
-0.0161167
-1.27064
1.27383
0.0188755
-0.0217433
-1.066
1.06887
0.0242024
-0.026721
-0.897262
0.899781
0.0288568
-0.0310589
-0.758701
0.760903
0.0329923
-0.0350206
-0.64579
0.647818
0.0365259
-0.0367202
-0.550891
0.551085
0.0343188
-0.027333
-0.435404
0.428418
0.0176562
-0.00747184
-0.239748
0.229563
0.00190101
-0.0408749
0.0389739
-0.0380917
0.0367384
0.00135329
-0.0129582
0.0209642
-0.299371
0.291365
-0.02774
0.0306688
-0.452713
0.449784
-0.0308817
0.0297614
-0.54948
0.550601
-0.0277653
0.0258411
-0.643742
0.645667
-0.0236315
0.0214921
-0.758407
0.760546
-0.0189866
0.0165211
-0.89873
0.901196
-0.0136055
0.0107553
-1.06886
1.07171
-0.00743202
0.00422147
-1.27499
1.2782
-0.000494695
-0.00313107
-1.52559
1.52921
0.00669449
-0.0102347
-1.52638
1.52992
0.0131937
-0.0161797
-1.27695
1.27994
0.0186879
-0.0212106
-1.07159
1.07411
0.0233203
-0.0254576
-0.902095
0.904232
0.0272915
-0.0292012
-0.762947
0.764857
0.03088
-0.0326404
-0.649687
0.651447
0.033483
-0.0329409
-0.550916
0.550374
0.0296182
-0.022319
-0.421219
0.41392
0.0138195
-0.00576809
-0.220547
0.212496
0.00147388
-0.0373143
0.0358404
-0.0355561
0.0345131
0.00104295
-0.0101349
0.016917
-0.283996
0.277214
-0.0234452
0.026839
-0.446604
0.443211
-0.0276319
0.0269457
-0.551497
0.552183
-0.0251859
0.0234076
-0.647556
0.649334
-0.0213507
0.0193494
-0.762613
0.764615
-0.0169946
0.0146836
-0.903517
0.905828
-0.0119652
0.00929926
-1.0744
1.07706
-0.00616166
0.0030976
-1.2813
1.28436
0.000483636
-0.00396817
-1.53274
1.53623
0.00737648
-0.0107275
-1.53337
1.53672
0.0134809
-0.016202
-1.28281
1.28553
0.0184468
-0.0206808
-1.0765
1.07874
0.0225513
-0.0244477
-0.906261
0.908157
0.0260677
-0.0277505
-0.766651
0.768334
0.0292245
-0.0306591
-0.653059
0.654493
0.0309962
-0.0297413
-0.549486
0.548231
0.025805
-0.0185894
-0.406639
0.399423
0.0111891
-0.00463725
-0.205265
0.198713
0.00118975
-0.034526
0.0333362
-0.0335963
0.0327826
0.000813661
-0.00804384
0.0137541
-0.270998
0.265287
-0.019809
0.0234117
-0.439703
0.4361
-0.0246917
0.0242579
-0.552776
0.55321
-0.0227757
0.0211127
-0.651107
0.65277
-0.0191593
0.0172545
-0.766565
0.76847
-0.0150078
0.0127979
-0.908022
0.910232
-0.010193
0.00764499
-1.07959
1.08214
-0.00465842
0.00174192
-1.2873
1.29022
0.00166677
-0.00498017
-1.5396
1.54291
0.00820102
-0.0113289
-1.53995
1.54308
0.0138644
-0.0163416
-1.28814
1.29062
0.0183725
-0.0203813
-1.08088
1.08289
0.0220486
-0.0237313
-0.909968
0.91165
0.0251679
-0.0266616
-0.769929
0.771423
0.0279469
-0.0290127
-0.655718
0.656783
0.028987
-0.0270723
-0.546651
0.544736
0.0227475
-0.0158117
-0.392343
0.385407
0.00933376
-0.00385254
-0.192748
0.187267
0.000992519
-0.0322589
0.0312663
-0.0320662
0.0314292
0.000637035
-0.00643518
0.0112295
-0.260063
0.255268
-0.0167029
0.0203172
-0.43249
0.428875
-0.0219329
0.021734
-0.553563
0.553762
-0.0204959
0.0189025
-0.65445
0.656043
-0.0170133
0.0151644
-0.770344
0.772192
-0.012984
0.0108416
-0.912332
0.914474
-0.00831919
0.00585574
-1.08456
1.08703
-0.00297598
0.000181366
-1.29301
1.29581
0.00307303
-0.00621381
-1.54611
1.54925
0.009239
-0.0121472
-1.54608
1.54899
0.0144834
-0.0167442
-1.29301
1.29527
0.0185777
-0.0203722
-1.08483
1.08662
0.0218495
-0.0233368
-0.91326
0.914747
0.0246094
-0.02593
-0.772839
0.77416
0.0270682
-0.027729
-0.657623
0.658284
0.0273429
-0.0248839
-0.542562
0.540103
0.0203308
-0.0137478
-0.378658
0.372075
0.00800742
-0.00329908
-0.182212
0.177504
0.000854008
-0.0303552
0.0295012
-0.0308714
0.0303768
0.000494591
-0.0051439
0.00914936
-0.250894
0.246888
-0.0139966
0.0174744
-0.425336
0.421858
-0.019286
0.019286
-0.553908
0.553908
-0.0182522
0.0166976
-0.65769
0.659244
-0.0148377
0.0130123
-0.774024
0.775849
-0.0108621
0.00875572
-0.91651
0.918617
-0.00628449
0.00388017
-1.08937
1.09177
-0.00107919
-0.00162334
-1.29849
1.30119
0.00474008
-0.00771657
-1.55226
1.55524
0.0105532
-0.0132529
-1.55177
1.55447
0.0153978
-0.0174486
-1.29744
1.29949
0.0190907
-0.0206782
-1.08835
1.08994
0.0219739
-0.0232795
-0.916177
0.917482
0.0244039
-0.0255681
-0.775422
0.776586
0.0265226
-0.0268183
-0.658737
0.659033
0.0260539
-0.0231424
-0.537428
0.534517
0.0184649
-0.0122332
-0.365688
0.359456
0.00706405
-0.00291244
-0.173109
0.168958
0.000758884
-0.0287065
0.0279477
-0.0299495
0.0295752
0.000374314
-0.00406383
0.00737685
-0.243251
0.239938
-0.0115858
0.0148178
-0.418517
0.415285
-0.0167029
0.0168712
-0.55388
0.553711
-0.0159357
0.0144676
-0.660838
0.662306
-0.0126174
0.0107872
-0.777666
0.779496
-0.00862974
0.00652213
-0.920623
0.922731
-0.0040623
0.00168333
-1.09407
1.09644
0.00106404
-0.00369886
-1.30379
1.30643
0.00670976
-0.00955135
-1.5581
1.56094
0.0122236
-0.0147272
-1.55705
1.55955
0.0166828
-0.0185214
-1.30146
1.3033
0.0199723
-0.021357
-1.09149
1.09287
0.0224771
-0.0236091
-0.918736
0.919868
0.0245888
-0.0255877
-0.777687
0.778686
0.0262937
-0.0262911
-0.659181
0.659178
0.0251309
-0.0218262
-0.531416
0.528112
0.0170768
-0.0111506
-0.353406
0.34748
0.00640876
-0.00265042
-0.165036
0.161277
0.000696393
-0.0272326
0.0265362
-0.0292605
0.0289931
0.000267372
-0.00311932
0.0058084
-0.236958
0.234269
-0.00937897
0.0122806
-0.412239
0.409338
-0.0141217
0.0143823
-0.553558
0.553297
-0.013499
0.0120843
-0.663836
0.66525
-0.0102177
0.00835333
-0.781324
0.783189
-0.0061575
0.00402279
-0.924738
0.926872
-0.00154576
-0.000828264
-1.09871
1.10108
0.00355874
-0.00615004
-1.30896
1.31155
0.00907653
-0.0117986
-1.56367
1.56639
0.0143158
-0.016629
-1.56193
1.56425
0.0184002
-0.0200307
-1.30505
1.30668
0.0212911
-0.0224668
-1.09422
1.0954
0.0233991
-0.024345
-0.920958
0.921903
0.0251756
-0.0260052
-0.779608
0.780438
0.0264484
-0.0261933
-0.65904
0.658785
0.0246054
-0.0209277
-0.524643
0.520965
0.0161163
-0.0104223
-0.341711
0.336017
0.00598131
-0.00248622
-0.157685
0.15419
0.000659574
-0.0258719
0.0252124
-0.0287819
0.0286156
0.000166288
-0.00224717
0.00435111
-0.231892
0.229788
-0.00727807
0.00977966
-0.406661
0.40416
-0.011472
0.0117508
-0.553102
0.552823
-0.0108916
0.00949625
-0.666763
0.668159
-0.00759118
0.00566704
-0.785056
0.78698
-0.00339982
0.00120382
-0.928903
0.931099
0.00132812
-0.00374234
-1.10336
1.10578
0.00648631
-0.00906034
-1.31404
1.31662
0.0119238
-0.0145381
-1.569
1.57161
0.0169038
-0.0190243
-1.56643
1.56855
0.0206062
-0.0220218
-1.30822
1.30964
0.0230833
-0.0240396
-1.09654
1.0975
0.0247765
-0.0255271
-0.922812
0.923562
0.0262005
-0.0268795
-0.781184
0.781863
0.0270259
-0.0264306
-0.658306
0.657711
0.0244307
-0.0204068
-0.51716
0.513136
0.0155235
-0.00998221
-0.330449
0.324908
0.00573489
-0.00239957
-0.150811
0.147476
0.000643363
-0.0245758
0.0239324
-0.028505
0.0284407
6.43455e-05
-0.00139643
0.00292867
-0.227988
0.226455
-0.00519588
0.00723202
-0.401917
0.399881
-0.00867211
0.00889072
-0.552661
0.552442
-0.00801731
0.00661436
-0.669684
0.671087
-0.00464036
0.00262911
-0.788907
0.790918
-0.000254123
-0.00204036
-0.93319
0.935485
0.00466823
-0.00715286
-1.10809
1.11058
0.00994638
-0.0125324
-1.3191
1.32169
0.0153614
-0.0178882
-1.57412
1.57664
0.0201145
-0.0220453
-1.57054
1.57247
0.0234351
-0.024628
-1.31096
1.31215
0.0254808
-0.0261974
-1.09844
1.09916
0.0267116
-0.027242
-0.924279
0.924809
0.0277429
-0.0282242
-0.782392
0.782873
0.0280801
-0.0270879
-0.656853
0.655861
0.0246551
-0.0202663
-0.508998
0.504609
0.0152722
-0.00979348
-0.319462
0.313983
0.00564235
-0.00237844
-0.144218
0.140954
0.000644533
-0.0233057
0.0226611
-0.0284329
0.0284772
-4.43838e-05
-0.000520035
0.00147496
-0.225228
0.224273
-0.0030549
0.00456055
-0.398138
0.396632
-0.00564323
0.00571259
-0.552406
0.552337
-0.00476047
0.00328696
-0.672673
0.674147
-0.00120393
-0.000936191
-0.792936
0.795076
0.00346047
-0.00588156
-0.93767
0.940091
0.00863591
-0.0112182
-1.11296
1.11554
0.0140922
-0.0167152
-1.32418
1.3268
0.0195282
-0.0219717
-1.57906
1.5815
0.0240514
-0.0257758
-1.57426
1.57598
0.0269529
-0.0278954
-1.31322
1.31417
0.0285157
-0.0289804
-1.09987
1.10034
0.0292617
-0.0295534
-0.925318
0.92561
0.029868
-0.0300885
-0.783094
0.783315
0.0296841
-0.0282133
-0.654584
0.653113
0.0253116
-0.0205249
-0.500128
0.495341
0.0153607
-0.00984469
-0.308564
0.303048
0.00569457
-0.00241922
-0.137731
0.134456
0.000662411
-0.0220269
0.0213645
-0.0285765
0.0287367
-0.000160118
0.000405377
-5.88726e-05
-0.223639
0.223292
-0.000782934
0.00167679
-0.395449
0.394555
-0.00229832
0.00213586
-0.55252
0.552683
-0.00105376
-0.0005488
-0.675861
0.677463
0.00278604
-0.00509501
-0.797225
0.799534
0.00781157
-0.0104055
-0.942404
0.944998
0.0133397
-0.0160676
-1.11803
1.12076
0.0190669
-0.0217587
-1.32934
1.33203
0.0245797
-0.0269527
-1.58383
1.5862
0.0288853
-0.030391
-1.57755
1.57906
0.0313441
-0.0320161
-1.31498
1.31565
0.0323814
-0.032568
-1.10078
1.10097
0.0325948
-0.0326216
-0.925879
0.925906
0.0327182
-0.032618
-0.783181
0.783081
0.0318869
-0.0298584
-0.651383
0.649355
0.0264337
-0.0211887
-0.490471
0.485226
0.015778
-0.0101201
-0.297553
0.291895
0.00587943
-0.00251587
-0.131189
0.127825
0.000695115
-0.0207073
0.0200122
-0.0289762
0.0292759
-0.000299681
0.00140071
-0.00170682
-0.223307
0.223613
0.00170976
-0.00153704
-0.393981
0.393808
0.00150703
-0.00200421
-0.5532
0.553697
0.0032941
-0.00506882
-0.679359
0.681134
0.00751057
-0.010033
-0.801844
0.804366
0.013
-0.015822
-0.94749
0.950312
0.0189918
-0.0219089
-1.1234
1.12632
0.0250734
-0.0278637
-1.33464
1.33743
0.0307167
-0.0330277
-1.58846
1.59077
0.0348051
-0.0360604
-1.58039
1.58164
0.0367542
-0.0371074
-1.31616
1.31651
0.0371858
-0.0370699
-1.10109
1.10098
0.0368203
-0.0365564
-0.925886
0.925622
0.0364277
-0.0358992
-0.782518
0.78199
0.0347527
-0.0320755
-0.647126
0.644448
0.0280642
-0.0222826
-0.479903
0.474121
0.016532
-0.0106173
-0.286218
0.280303
0.00619299
-0.00266594
-0.12444
0.120913
0.00074172
-0.0193179
0.0185762
-0.0296476
0.0301239
-0.000476358
0.0026878
-0.00374228
-0.224304
0.225358
0.00461703
-0.00524226
-0.393963
0.394589
0.00593296
-0.00688121
-0.554692
0.55564
0.00847252
-0.0105016
-0.683268
0.685297
0.0132384
-0.0160461
-0.806898
0.809705
0.0193279
-0.0224262
-0.953034
0.956132
0.025879
-0.0290254
-1.12915
1.1323
0.032392
-0.0353006
-1.34013
1.34304
0.038183
-0.040407
-1.59294
1.59516
0.0419903
-0.0429577
-1.58269
1.58365
0.0433357
-0.0433394
-1.31668
1.31668
0.0430867
-0.0426183
-1.10073
1.10026
0.0420504
-0.0414629
-0.925256
0.924669
0.041034
-0.0400477
-0.780941
0.779954
0.0383744
-0.034962
-0.641638
0.638226
0.0302676
-0.0238361
-0.468255
0.461823
0.0176318
-0.0113361
-0.274328
0.268032
0.00663256
-0.00286727
-0.117334
0.113569
0.000801409
-0.0178313
0.0170298
-0.0306713
0.0313653
-0.00069403
0.00417695
-0.00612074
-0.226834
0.228778
0.00806816
-0.00958976
-0.39561
0.397132
0.0110979
-0.0126164
-0.557253
0.558772
0.0146388
-0.0170101
-0.687769
0.69014
0.0201334
-0.0233017
-0.812524
0.815692
0.0269801
-0.0304306
-0.959136
0.962587
0.0342453
-0.037681
-1.13537
1.1388
0.0412941
-0.04434
-1.34585
1.34889
0.0472513
-0.0493648
-1.59722
1.59933
0.050711
-0.051333
-1.58438
1.585
0.0513311
-0.0509344
-1.31644
1.31605
0.0503057
-0.0494331
-1.09959
1.09872
0.0485026
-0.0475385
-0.923909
0.922945
0.046691
-0.045216
-0.778415
0.77694
0.0428825
-0.0386112
-0.634721
0.630449
0.0331095
-0.0258874
-0.455291
0.448068
0.0190959
-0.0122811
-0.261629
0.254814
0.00719699
-0.00311739
-0.109723
0.105643
0.000872839
-0.016222
0.0153492
-0.0321264
0.0331062
-0.000979759
0.00605171
-0.0090611
-0.231149
0.234158
0.0122596
-0.0148422
-0.399178
0.401761
0.0173204
-0.0195349
-0.561141
0.563356
0.0221204
-0.0249393
-0.693038
0.695857
0.0285615
-0.0321945
-0.818879
0.822511
0.0363807
-0.0402749
-0.965964
0.969858
0.0445301
-0.0483026
-1.14217
1.14594
0.0521878
-0.0553685
-1.35183
1.35501
0.0582748
-0.0602172
-1.60124
1.60318
0.0612452
-0.0614265
-1.58532
1.58551
0.0609873
-0.0601012
-1.31532
1.31443
0.0590383
-0.0577091
-1.09755
1.09622
0.0563751
-0.0549845
-0.921724
0.920333
0.0536187
-0.0515431
-0.774863
0.772787
0.0484205
-0.0431278
-0.626106
0.620813
0.03666
-0.0284676
-0.440728
0.432536
0.0209303
-0.0134447
-0.247846
0.24036
0.00787549
-0.00340847
-0.101457
0.0969898
0.000952787
-0.0144689
0.0135161
-0.0341424
0.0355117
-0.00136933
0.00850422
-0.0128624
-0.237584
0.241942
0.0175451
-0.0213631
-0.405045
0.408863
0.0249831
-0.0280561
-0.566692
0.569765
0.0314034
-0.0348497
-0.699323
0.70277
0.0391448
-0.0433669
-0.826169
0.830391
0.0481604
-0.0525618
-0.973682
0.978084
0.0573031
-0.0614301
-1.14963
1.15375
0.065576
-0.0688489
-1.35804
1.36132
0.071663
-0.0733234
-1.60486
1.60652
0.0739136
-0.0735314
-1.58533
1.58494
0.072561
-0.0710627
-1.31309
1.31159
0.0694864
-0.067619
-1.09446
1.09259
0.0658287
-0.0639733
-0.918589
0.916733
0.0619835
-0.059203
-0.770058
0.767278
0.0551325
-0.0486064
-0.61546
0.608933
0.0409654
-0.0315835
-0.424209
0.414827
0.0231195
-0.014801
-0.23268
0.224361
0.00864404
-0.00372611
-0.0923967
0.0874788
0.00103621
-0.0125573
0.0115211
-0.0369139
0.0388425
-0.00192862
0.0119044
-0.0179649
-0.24665
0.252711
0.0244476
-0.0297156
-0.41369
0.418958
0.034683
-0.038794
-0.574312
0.578423
0.0431095
-0.0473837
-0.706998
0.711272
0.0525465
-0.0574942
-0.83464
0.839588
0.0630071
-0.0679839
-0.982422
0.987399
0.0732416
-0.0777042
-1.15777
1.16223
0.0820366
-0.0852905
-1.36437
1.36762
0.0878559
-0.0890679
-1.60782
1.60903
0.0890534
-0.0879412
-1.58411
1.58299
0.086287
-0.0840629
-1.30954
1.30732
0.0818664
-0.079399
-1.09017
1.0877
0.0771045
-0.0746433
-0.914383
0.911922
0.0720359
-0.0683323
-0.763722
0.760018
0.0630997
-0.0550852
-0.60234
0.594326
0.0460284
-0.0352019
-0.405309
0.394483
0.0256085
-0.0162898
-0.215821
0.206502
0.00945351
-0.00404268
-0.0824298
0.077019
0.00111356
-0.010485
0.00937144
-0.0407662
0.0435616
-0.00279537
0.0168324
-0.0251419
-0.259059
0.267368
0.0338565
-0.0408688
-0.425775
0.432787
0.0474605
-0.0528202
-0.584455
0.589814
0.0583468
-0.0636798
-0.716457
0.72179
0.069914
-0.075717
-0.844552
0.850355
0.0820264
-0.0875823
-0.992301
0.997857
0.0932865
-0.097957
-1.1665
1.17117
0.102276
-0.10529
-1.37053
1.37355
0.107334
-0.107835
-1.60973
1.61023
0.106963
-0.104888
-1.5813
1.57922
0.10238
-0.0992832
-1.30445
1.30135
0.0963794
-0.0932417
-1.0845
1.08136
0.0903901
-0.0872132
-0.908767
0.90559
0.0839172
-0.0790698
-0.755403
0.750556
0.0724089
-0.0625882
-0.5862
0.576379
0.0518225
-0.0392507
-0.383531
0.37096
0.0283011
-0.0178152
-0.196966
0.18648
0.0102291
-0.00431798
-0.0714975
0.0655865
0.00117144
-0.00827058
0.00709914
-0.0462717
0.0505291
-0.00425736
0.0244752
-0.0358421
-0.27597
0.287337
0.047447
-0.0567744
-0.442312
0.451639
0.0653689
-0.072176
-0.597704
0.604511
0.0792082
-0.0860041
-0.728071
0.734867
0.0933864
-0.099973
-0.856125
0.862711
0.106916
-0.112829
-1.00324
1.00915
0.118658
-0.123194
-1.17548
1.18002
0.127086
-0.129464
-1.37601
1.37838
0.130541
-0.129927
-1.61001
1.60939
0.12785
-0.124528
-1.57642
1.5731
0.120974
-0.116848
-1.29752
1.29339
0.11314
-0.109274
-1.07728
1.07341
0.105832
-0.101857
-0.901479
0.897503
0.0977227
-0.0914345
-0.74459
0.738302
0.0830127
-0.0710017
-0.566344
0.554333
0.0581992
-0.0435724
-0.358304
0.343677
0.0310384
-0.0192375
-0.175857
0.164056
0.0108669
-0.00449846
-0.059635
0.0532665
0.0011917
-0.00596152
0.00476981
-0.054491
0.0618153
-0.00732428
0.0379155
-0.0537354
-0.299513
0.315333
0.0693712
-0.0818559
-0.464939
0.477424
0.0925849
-0.10075
-0.614524
0.622688
0.109298
-0.117333
-0.74225
0.750285
0.125596
-0.132554
-0.869075
0.876033
0.139546
-0.145217
-1.01461
1.02029
0.150503
-0.154283
-1.18388
1.18766
0.157101
-0.158247
-1.3799
1.38105
0.157786
-0.155601
-1.60778
1.6056
0.15197
-0.147129
-1.5689
1.56406
0.142315
-0.136966
-1.28843
1.28308
0.132286
-0.127557
-1.06838
1.06365
0.123461
-0.118693
-0.892312
0.887544
0.113387
-0.105248
-0.73063
0.722491
0.0946459
-0.0799736
-0.541876
0.527204
0.0647932
-0.0478824
-0.329015
0.312105
0.0336162
-0.0204436
-0.152356
0.139183
0.0113056
-0.00455989
-0.0470318
0.0402861
0.00116113
-0.003641
0.00247987
-0.0686619
0.0727713
-0.00410937
0.0290548
-0.0427451
-0.333663
0.347353
0.0565725
-0.0679478
-0.495059
0.506435
0.0780768
-0.0875167
-0.634498
0.643938
0.0979906
-0.10745
-0.757913
0.767372
0.117884
-0.127127
-0.88213
0.891374
0.136896
-0.145492
-1.02501
1.0336
0.154315
-0.161691
-1.19032
1.1977
0.168722
-0.173962
-1.38098
1.38622
0.178028
-0.179845
-1.60212
1.60394
0.179362
-0.177121
-1.5581
1.55586
0.173872
-0.169541
-1.27681
1.27248
0.165541
-0.160876
-1.05758
1.05291
0.156906
-0.151926
-0.880966
0.875986
0.145111
-0.133505
-0.712575
0.70097
0.118085
-0.097483
-0.511758
0.491156
0.0770464
-0.0549494
-0.295017
0.27292
0.0372517
-0.0217584
-0.126594
0.1111
0.0115714
-0.00448875
-0.0341288
0.0270461
0.00110239
-0.00142595
0.000323567
-0.0798936
0.0780753
0.00181828
0.00746642
-0.0164803
-0.363889
0.372903
0.0269609
-0.034985
-0.522533
0.530557
0.0430659
-0.0510711
-0.655751
0.663756
0.060716
-0.0695905
-0.776506
0.785381
0.0789574
-0.0874746
-0.900087
0.908604
0.0964413
-0.103987
-1.04191
1.04945
0.111893
-0.118115
-1.20485
1.21108
0.123943
-0.127933
-1.39109
1.39508
0.13032
-0.130607
-1.6048
1.60509
0.128565
-0.124708
-1.55267
1.54881
0.119847
-0.113825
-1.26744
1.26141
0.108239
-0.102069
-1.04663
1.04046
0.0964256
-0.0898551
-0.866424
0.859853
0.0827578
-0.0727163
-0.685476
0.675435
0.0612812
-0.0475133
-0.469003
0.455236
0.0351771
-0.0233915
-0.250964
0.239179
0.0149499
-0.00830144
-0.0964315
0.089783
0.00428647
-0.00164475
-0.020408
0.0177662
0.000381932
0.000760055
-0.00114199
-0.0813508
0.0784907
0.00286012
-0.00165363
-0.00359299
-0.384293
0.38954
0.0107287
-0.0165746
-0.542768
0.548614
0.0226136
-0.0295598
-0.673761
0.680708
0.0378955
-0.0456028
-0.793395
0.801103
0.0539744
-0.0614251
-0.916401
0.923852
0.0690145
-0.0757418
-1.05682
1.06354
0.0825614
-0.0879839
-1.21683
1.22226
0.0925705
-0.0954096
-1.39834
1.40118
0.0968484
-0.0960606
-1.60456
1.60377
0.0929881
-0.0881268
-1.5442
1.53934
0.0824859
-0.0758306
-1.25506
1.24841
0.0692387
-0.0621079
-1.0331
1.02597
0.0554924
-0.0480385
-0.850401
0.842947
0.0411969
-0.0327559
-0.661813
0.653372
0.0244168
-0.0157424
-0.439563
0.430889
0.00957629
-0.00505735
-0.22668
0.222161
0.00264459
-0.00128324
-0.0829228
0.0815615
0.000667671
-0.000305522
-0.0149513
0.0145892
3.24683e-05
0.0016731
-0.00170557
-0.0801339
0.0774411
0.00269276
-0.00521213
0.00266576
-0.397924
0.40047
0.00194607
-0.00639546
-0.557777
0.562226
0.0115155
-0.0173398
-0.688636
0.69446
0.0244893
-0.0311152
-0.808201
0.814827
0.0382904
-0.0446926
-0.930791
0.937194
0.0515827
-0.0572793
-1.06984
1.07553
0.0632266
-0.0674846
-1.22725
1.23151
0.0713296
-0.0735447
-1.40376
1.40598
0.0741905
-0.0725357
-1.60249
1.60084
0.06905
-0.0638206
-1.53388
1.52865
0.0578516
-0.0504809
-1.2414
1.23403
0.0435441
-0.0359671
-1.01791
1.01034
0.0288195
-0.0213805
-0.833256
0.825817
0.0146812
-0.0077225
-0.641801
0.634842
0.00181389
0.00274402
-0.420786
0.416228
-0.00468866
0.00495042
-0.215523
0.215261
-0.00425678
0.00289679
-0.0791185
0.0804785
-0.0017211
0.000698427
-0.0138234
0.0148461
-0.0002447
0.00199711
-0.00175241
-0.0786883
0.0763111
0.00237717
-0.00630156
0.00533314
-0.407052
0.40802
-0.00193063
-0.00134076
-0.56984
0.573112
0.00552583
-0.010819
-0.701138
0.706432
0.0168525
-0.0226897
-0.820764
0.826602
0.0289179
-0.0344833
-0.943156
0.948722
0.0403933
-0.0454693
-1.08109
1.08617
0.0505008
-0.0544162
-1.23563
1.23954
0.0576667
-0.0594075
-1.40783
1.40957
0.0596063
-0.0575932
-1.59897
1.59696
0.0538181
-0.0481599
-1.52266
1.51701
0.0420521
-0.0347469
-1.22654
1.21924
0.0277834
-0.0200255
-1.00217
0.994409
0.0129584
-0.00548269
-0.816518
0.809042
-0.000777479
0.00630025
-0.625105
0.619582
-0.0102876
0.012529
-0.409165
0.406923
-0.0124356
0.0106504
-0.212264
0.21405
-0.00837361
0.00566532
-0.0808328
0.083541
-0.00338877
0.00142957
-0.0155369
0.0174961
-0.000414281
0.00171235
-0.00129807
-0.0773608
0.0753307
0.00203016
-0.00615718
0.00567755
-0.413358
0.413838
-0.00364653
0.00100817
-0.579193
0.581831
0.00311994
-0.00766066
-0.711774
0.716315
0.0128744
-0.0179612
-0.831653
0.83674
0.0235187
-0.0285088
-0.953951
0.958941
0.0339381
-0.0384052
-1.09098
1.09544
0.0429577
-0.0464976
-1.24318
1.24672
0.04935
-0.0507966
-1.41105
1.41249
0.0507348
-0.0489521
-1.59484
1.59306
0.0451422
-0.0397694
-1.51094
1.50557
0.0338653
-0.0268358
-1.21182
1.20479
0.0203645
-0.0127531
-0.986427
0.978816
0.0058367
0.00127736
-0.800429
0.793315
-0.00706802
0.0119228
-0.61111
0.606255
-0.0150164
0.0165312
-0.401836
0.400322
-0.0155407
0.0129379
-0.213077
0.21568
-0.010186
0.00693146
-0.0852869
0.0885415
-0.00418361
0.00181665
-0.0190428
0.0214097
-0.000500559
0.000980424
-0.000479864
-0.0763734
0.0747989
0.00157453
-0.00526494
0.0051052
-0.41809
0.41825
-0.00346368
0.00145751
-0.587372
0.589379
0.00242717
-0.0065423
-0.721017
0.725132
0.0115047
-0.0159045
-0.841428
0.845827
0.0208097
-0.0252596
-0.963913
0.968363
0.0304487
-0.0345451
-1.09996
1.10405
0.038629
-0.0420168
-1.25009
1.25348
0.0450634
-0.0464058
-1.41397
1.41531
0.0464735
-0.044766
-1.59093
1.58922
0.0415523
-0.0363684
-1.50012
1.49493
0.0310719
-0.0246866
-1.19776
1.19137
0.0184871
-0.0114572
-0.971229
0.964199
0.00483581
0.00207654
-0.78519
0.778278
-0.00725291
0.011864
-0.598455
0.593844
-0.0146358
0.0158697
-0.396264
0.395031
-0.015188
0.0128964
-0.215393
0.217684
-0.0102168
0.00700643
-0.0907157
0.0939261
-0.00427041
0.00188814
-0.0231673
0.0255495
-0.000512664
3.79562e-05
0.000474708
-0.0758912
0.074662
0.00122924
-0.00418528
0.00414467
-0.421888
0.421928
-0.00268999
0.000782474
-0.594515
0.596422
0.00296805
-0.00665924
-0.729343
0.733034
0.0109285
-0.0151874
-0.850162
0.854421
0.0197434
-0.0243576
-0.972636
0.977251
0.0288622
-0.0328148
-1.10826
1.11221
0.0370686
-0.0402555
-1.25676
1.25995
0.0428835
-0.0447011
-1.41659
1.41841
0.0450545
-0.0437716
-1.58764
1.58636
0.040886
-0.0364291
-1.49006
1.4856
0.0315556
-0.0255734
-1.18477
1.17878
0.019827
-0.013245
-0.957049
0.950467
0.00715624
-0.000980668
-0.770975
0.7648
-0.00410738
0.00845255
-0.58688
0.582534
-0.0109569
0.0124624
-0.391279
0.389773
-0.012353
0.0106057
-0.217355
0.219102
-0.00851041
0.00591525
-0.0957101
0.0983052
-0.00366569
0.00166673
-0.027115
0.029114
-0.000489714
-0.000865424
0.00135514
-0.0759367
0.0749162
0.00102052
-0.00291503
0.00263217
-0.425314
0.425596
-0.00137626
-0.00057907
-0.601056
0.603011
0.0040451
-0.00761355
-0.737102
0.740671
0.0117183
-0.0155879
-0.858454
0.862324
0.0202809
-0.0241385
-0.981306
0.985164
0.0286436
-0.0324469
-1.11633
1.12013
0.036621
-0.0400372
-1.26313
1.26655
0.042998
-0.0446643
-1.42001
1.42168
0.0454489
-0.0446535
-1.58505
1.58426
0.0424541
-0.0383083
-1.48106
1.47692
0.033852
-0.0282874
-1.17293
1.16737
0.0230376
-0.0170398
-0.943777
0.937779
0.011714
-0.00603478
-0.758169
0.752489
0.00115345
0.00332542
-0.576251
0.571772
-0.00619527
0.00771103
-0.385873
0.384357
-0.00813864
0.00723835
-0.218319
0.21922
-0.00593711
0.00419119
-0.0994174
0.101163
-0.0026442
0.00125216
-0.0301931
0.0315852
-0.000386622
-0.00163947
0.0020261
-0.0762645
0.0755596
0.000704826
-0.00177559
0.0010825
-0.428853
0.429546
-5.10213e-05
-0.00220602
-0.606813
0.60907
0.00531478
-0.00875134
-0.74434
0.747777
0.0126917
-0.016699
-0.866043
0.87005
0.0207974
-0.0248342
-0.989236
0.993273
0.0293263
-0.0329462
-1.12437
1.12799
0.0372357
-0.0406373
-1.26978
1.27318
0.043704
-0.0459512
-1.42377
1.42602
0.0472863
-0.0468117
-1.58353
1.58305
0.0448594
-0.0414112
-1.47294
1.46949
0.0375291
-0.0324816
-1.16177
1.15672
0.0277496
-0.0226843
-0.931902
0.926837
0.0176248
-0.0125414
-0.746388
0.741305
0.0078088
-0.00301026
-0.565922
0.561124
-0.00024818
0.00236976
-0.379999
0.377878
-0.00321301
0.00327954
-0.218015
0.217949
-0.00280723
0.0020471
-0.10139
0.10215
-0.00136509
0.000691732
-0.0320526
0.0327259
-0.000233116
-0.00217661
0.00240973
-0.0770077
0.0764594
0.00054831
-0.000814961
0.000238153
-0.432626
0.433203
0.00156027
-0.00358773
-0.612833
0.61486
0.00684486
-0.0101624
-0.751082
0.754399
0.0139567
-0.0175749
-0.873716
0.877334
0.0218105
-0.0255501
-0.997319
1.00106
0.0300089
-0.0340758
-1.13206
1.13613
0.03803
-0.0417867
-1.27663
1.28039
0.0453137
-0.0477009
-1.42819
1.43058
0.0494543
-0.049784
-1.58281
1.58314
0.0483019
-0.0455633
-1.46596
1.46322
0.0420678
-0.0377794
-1.15188
1.14759
0.0337859
-0.0291989
-0.921561
0.916974
0.0246546
-0.0196137
-0.735479
0.730438
0.0147803
-0.00963294
-0.555116
0.549969
0.00585663
-0.00313908
-0.373361
0.370643
0.00150054
-0.000560128
-0.215946
0.215005
9.87389e-05
0.000143777
-0.101434
0.101191
-0.000233054
0.000205633
-0.0325592
0.0325866
-0.000100307
-0.0024155
0.00251581
-0.0780201
0.0776586
0.000361594
0.000235414
-0.00108184
-0.436497
0.437344
0.00269701
-0.00504236
-0.6184
0.620746
0.00824056
-0.0114113
-0.757599
0.76077
0.0152897
-0.0187635
-0.880919
0.884392
0.0228546
-0.0267263
-1.00528
1.00915
0.0310988
-0.0351423
-1.14005
1.14409
0.0393349
-0.0431437
-1.28407
1.28788
0.0468953
-0.0500643
-1.43327
1.43643
0.0523004
-0.0529693
-1.58342
1.58409
0.0522646
-0.0500396
-1.46047
1.45825
0.0473548
-0.0439105
-1.14345
1.14001
0.0402102
-0.0359379
-0.912203
0.907931
0.0314691
-0.0261268
-0.72468
0.719337
0.0211469