/*--------------------------------*- C++ -*----------------------------------*\
| =========                 |                                                 |
| \\      /  F ield         | OpenFOAM: The Open Source CFD Toolbox           |
|  \\    /   O peration     | Version:  2112                                  |
|   \\  /    A nd           | Website:  www.openfoam.com                      |
|    \\/     M anipulation  |                                                 |
\*---------------------------------------------------------------------------*/
FoamFile
{
    version     2.0;
    format      ascii;
    arch        "LSB;label=32;scalar=64";
    class       volScalarField;
    location    "1";
    object      T;
}
// * * * * * * * * * * * * * * * * * * * * * * * * * * * * * * * * * * * * * //

dimensions      [0 0 0 1 0 0 0];

internalField   nonuniform List<scalar> 
1000
(
0
0
0
0
0
0
0
0
0
0
0
0
0
0
0
0
0
0
0
0
0
0
0
0
0
0
0
0
0
0
0
0
0
0
0
0
0
0
0
0
0
0
0
0
0
0
0
0
0
0
0
0
0
0
0
0
0
0
0
0
0
0
0
0
0
0
0
0
0
0
0
0
0
0
0
0
0
0
0
0
0
0
0
0
0
0
0
0
0
0
0
0
0
0
0
0
0
0
0
0
0
0
0
0
0
0
0
0
0
0
0
0
0
0
0
0
0
0
0
0
0
0
0
0
0
0
0
0
0
0
0
0
0
0
0
0
0
0
0
0
0
0
0
0
0
0
0
0
0
0
0
0
0
0
0
0
0
0
0
0
0
0
0
0
0
0
0
0
0
0
0
0
0
0
0
0
0
0
0
0
0
0
0
0
0
0
0
0
0
0
0
0
0
0
0
0
0
0
0
0
0
0
0
0
0
0
0
0
0
0
0
0
0
0
0
0
0
0
0
0
0
0
0
0
0
0
0
0
0
0
0
0
0
0
0
0
0
0
0
0
0
0
0
0
0
0
0
0
0
0
0
0
0
0
0
0
0
0
0
0
0
0
0
0
0
0
0
0
0
0
0
0
0
0
0
0
0
0
0
0
0
0
0
0
0
0
4.204e-320
3.29999e-316
2.56544e-312
1.97489e-308
1.50508e-304
1.1353e-300
8.47414e-297
6.25755e-293
4.57009e-289
3.3002e-285
2.35576e-281
1.66177e-277
1.15805e-273
7.97011e-270
5.41553e-266
3.63168e-262
2.40276e-258
1.56778e-254
1.00847e-250
6.39246e-247
3.99129e-243
2.4536e-239
1.48434e-235
8.83265e-232
5.1671e-228
2.97005e-224
1.67645e-220
9.28673e-217
5.04544e-213
2.6866e-209
1.40107e-205
7.15047e-202
3.5684e-198
1.73979e-194
8.2794e-191
3.84193e-187
1.73654e-183
7.6367e-180
3.26345e-176
1.35338e-172
5.43881e-169
2.11471e-165
7.94181e-162
2.87538e-158
1.00158e-154
3.34897e-151
1.0722e-147
3.2777e-144
9.53733e-141
2.63215e-137
6.86233e-134
1.6823e-130
3.85723e-127
8.21979e-124
1.61587e-120
2.90389e-117
4.71752e-114
6.83009e-111
8.64945e-108
9.3364e-105
8.26809e-102
5.64003e-99
2.61007e-96
5.39622e-94
-1.27014e-91
-5.0938e-89
2.14972e-86
-3.98287e-84
4.89153e-82
-4.51867e-80
3.34335e-78
-2.05814e-76
1.08152e-74
-4.94196e-73
1.99141e-71
-7.15451e-70
2.31195e-68
-6.76838e-67
1.80592e-65
-4.41367e-64
9.92304e-63
-2.05975e-61
3.95971e-60
-7.069e-59
1.17462e-57
-1.8203e-56
2.63525e-55
-3.56901e-54
4.52717e-53
-5.38351e-52
6.00583e-51
-6.28871e-50
6.18225e-49
-5.70615e-48
4.94376e-47
-4.0186e-46
3.06227e-45
-2.185e-44
1.45743e-43
-9.06758e-43
5.24647e-42
-2.81169e-41
1.38795e-40
-6.26096e-40
2.55026e-39
-9.19935e-39
2.83482e-38
-6.86576e-38
9.48905e-38
1.69607e-37
-1.77378e-36
7.10493e-36
-1.72704e-35
1.49911e-35
8.38491e-35
-4.72104e-34
1.18421e-33
-7.29781e-34
-6.55662e-33
2.83487e-32
-4.5823e-32
-5.91263e-32
5.04107e-31
-1.06022e-30
-4.52346e-31
8.20058e-30
-1.78789e-29
-8.54115e-30
1.3013e-28
-2.33782e-28
-2.8244e-28
1.91405e-27
-1.99591e-27
-7.08041e-27
2.2799e-26
1.46321e-27
-1.21371e-25
1.64022e-25
3.91974e-25
-1.29518e-24
-3.88987e-25
6.55724e-24
-4.77533e-24
-2.54737e-23
4.31254e-23
7.82018e-23
-2.41556e-22
-1.76133e-22
1.10541e-21
1.57947e-22
-4.50383e-21
1.08728e-21
1.70932e-20
-8.5251e-21
-6.22471e-20
3.99746e-20
2.2175e-19
-1.4767e-19
-7.79626e-19
4.42193e-19
2.69825e-18
-9.60556e-19
-9.07129e-18
4.5476e-19
2.8955e-17
9.86398e-18
-8.48319e-17
-7.10651e-17
2.15717e-16
3.33834e-16
-4.18282e-16
-1.23433e-15
3.02692e-16
3.66375e-15
2.08876e-15
-8.17478e-15
-1.2786e-14
9.80199e-15
4.27779e-14
1.76242e-14
-9.0545e-14
-1.42232e-13
6.60443e-14
4.26522e-13
3.49178e-13
-5.97364e-13
-1.59189e-12
-6.68365e-13
2.82983e-12
5.45262e-12
1.19961e-12
-1.07056e-11
-1.86035e-11
-4.18287e-12
3.50291e-11
6.483e-11
2.78033e-11
-9.60504e-11
-2.22384e-10
-1.73734e-10
1.75657e-10
6.8568e-10
8.66722e-10
1.36776e-10
-1.58302e-09
-3.30187e-09
-3.04305e-09
9.7489e-10
8.32783e-09
1.47797e-08
1.28621e-08
-4.14616e-09
-3.5535e-08
-6.70965e-08
-7.08725e-08
-1.53453e-08
1.13332e-07
2.85374e-07
4.10269e-07
3.4592e-07
-5.21284e-08
-8.40454e-07
-1.87632e-06
-2.72818e-06
-2.66838e-06
-8.10054e-07
3.57166e-06
1.05411e-05
1.89027e-05
2.5655e-05
2.57265e-05
1.22641e-05
-2.22489e-05
-8.3824e-05
-0.000173631
-0.000283532
-0.000390713
-0.000451802
-0.000397055
-0.000125253
0.000499983
0.00165182
0.0035393
0.00640353
0.010511
0.0161442
0.0235901
0.0331266
0.0450093
0.0594574
0.0766414
0.0966726
0.119595
0.145382
0.173932
0.205074
0.238569
0.274122
0.311391
0.349995
0.389534
0.429594
0.469765
0.509652
0.548883
0.587118
0.624058
0.659446
0.693073
0.724776
0.754438
0.781988
0.807395
0.830663
0.851831
0.870964
0.888148
0.903488
0.9171
0.929109
0.939643
0.948834
0.956809
0.963693
0.969606
0.974659
0.978956
0.982592
0.985656
0.988225
0.990371
0.992154
0.99363
0.994847
0.995846
0.996663
0.997328
0.997868
0.998304
0.998655
0.998937
0.999163
0.999343
0.999485
0.999598
0.999687
0.999757
0.999812
0.999855
0.999888
0.999914
0.999934
0.99995
0.999962
0.999971
0.999978
0.999983
0.999987
0.99999
0.999993
0.999995
0.999997
0.999999
1
1
1
0.999996
0.999989
0.999981
0.999974
0.999974
0.999988
1.00002
1.00008
1.00017
1.00028
1.00039
1.00045
1.0004
1.00013
0.9995
0.998348
0.996461
0.993596
0.989489
0.983856
0.97641
0.966873
0.954991
0.940543
0.923359
0.903327
0.880405
0.854618
0.826068
0.794926
0.761431
0.725878
0.688609
0.650005
0.610466
0.570406
0.530235
0.490348
0.451117
0.412882
0.375942
0.340554
0.306927
0.275224
0.245562
0.218012
0.192605
0.169337
0.148169
0.129036
0.111852
0.096512
0.0829001
0.0708914
0.0603569
0.0511662
0.043191
0.0363065
0.0303939
0.0253413
0.0210445
0.0174077
0.014344
0.0117746
0.00962943
0.00784615
0.00637001
0.0051532
0.00415425
0.0033374
0.00267209
0.00213227
0.00169592
0.00134451
0.00106252
0.000837038
0.000657374
0.000514706
0.000401794
0.000312728
0.000242699
0.000187812
0.000144929
0.000111526
8.55876e-05
6.55045e-05
5.00007e-05
3.80663e-05
2.89057e-05
2.18936e-05
1.65409e-05
1.2466e-05
9.37194e-06
7.02887e-06
5.25907e-06
3.92566e-06
2.92355e-06
2.17228e-06
1.61043e-06
1.19125e-06
8.79241e-07
6.47549e-07
4.75891e-07
3.49e-07
2.55409e-07
1.86532e-07
1.35952e-07
9.88889e-08
7.17871e-08
5.20109e-08
3.76098e-08
2.71442e-08
1.95538e-08
1.40597e-08
1.00906e-08
7.22882e-09
5.16933e-09
3.69001e-09
2.62939e-09
1.87037e-09
1.32816e-09
9.41533e-10
6.66329e-10
4.70781e-10
3.32074e-10
2.33853e-10
1.64419e-10
1.15417e-10
8.08914e-11
5.66054e-11
3.95498e-11
2.7591e-11
1.92191e-11
1.33676e-11
9.28385e-12
6.43826e-12
4.4584e-12
3.08296e-12
2.12882e-12
1.46792e-12
1.01078e-12
6.95053e-13
4.77293e-13
3.27315e-13
2.24164e-13
1.53317e-13
1.04724e-13
7.14393e-14
4.86709e-14
3.31168e-14
2.25051e-14
1.52745e-14
1.03542e-14
7.01029e-15
4.74051e-15
3.20178e-15
2.15993e-15
1.45537e-15
9.79486e-16
6.58444e-16
4.42119e-16
2.96527e-16
1.98654e-16
1.32937e-16
8.88606e-17
5.93328e-17
3.95737e-17
2.63663e-17
1.75479e-17
1.16664e-17
7.74805e-18
5.14035e-18
3.40677e-18
2.25552e-18
1.49179e-18
9.8566e-19
6.50597e-19
4.29007e-19
2.82611e-19
1.85989e-19
1.22282e-19
8.03198e-20
5.27067e-20
3.45539e-20
2.26319e-20
1.48094e-20
9.68174e-21
6.32368e-21
4.12658e-21
2.69041e-21
1.75249e-21
1.14053e-21
7.41608e-22
4.81793e-22
3.1273e-22
2.02816e-22
1.3142e-22
8.50851e-23
5.50398e-23
3.55743e-23
2.29739e-23
1.48243e-23
9.55779e-24
6.15725e-24
3.96337e-24
2.54914e-24
1.63824e-24
1.05201e-24
6.7502e-25
4.32789e-25
2.77268e-25
1.77496e-25
1.1354e-25
7.25731e-26
4.63529e-26
2.95838e-26
1.88672e-26
1.20238e-26
7.65695e-27
4.87254e-27
3.09842e-27
1.96886e-27
1.25019e-27
7.93293e-28
5.03018e-28
3.18736e-28
2.01826e-28
1.27709e-28
8.07551e-29
5.10296e-29
3.22241e-29
2.03351e-29
1.2824e-29
8.08188e-30
5.08997e-30
3.20356e-30
2.01497e-30
1.26655e-30
7.95605e-31
4.99454e-31
3.13341e-31
1.96456e-31
1.23095e-31
7.70811e-32
4.82375e-32
3.01685e-32
1.88564e-32
1.17787e-32
7.3532e-33
4.58768e-33
2.86056e-33
1.78259e-33
1.11019e-33
6.91012e-34
4.29855e-34
2.67243e-34
1.66051e-34
1.03117e-34
6.39982e-35
3.96974e-35
2.461e-35
1.52482e-35
9.44241e-36
5.84397e-36
3.61489e-36
2.23483e-36
1.38088e-36
8.52777e-37
5.26358e-37
3.24709e-37
2.00206e-37
1.23376e-37
7.59899e-38
4.67794e-38
2.87825e-38
1.77001e-38
1.08793e-38
6.68353e-39
4.10383e-39
2.51857e-39
1.54489e-39
9.47169e-40
5.80417e-40
3.55499e-40
2.17632e-40
1.33166e-40
8.14434e-41
4.97859e-41
3.04192e-41
1.85773e-41
1.13399e-41
6.9188e-42
4.21937e-42
2.57194e-42
1.56701e-42
9.54289e-43
5.80883e-43
3.53425e-43
2.14936e-43
1.30654e-43
7.93852e-44
4.82127e-44
2.92677e-44
1.77592e-44
1.07712e-44
6.53003e-45
3.95709e-45
2.39688e-45
1.4512e-45
8.78258e-46
5.31288e-46
3.21257e-46
1.94173e-46
1.17312e-46
7.08455e-47
4.27662e-47
2.58052e-47
1.55644e-47
9.38384e-48
5.65522e-48
3.40675e-48
2.05142e-48
1.23478e-48
7.4294e-49
4.4683e-49
2.68631e-49
1.61435e-49
9.69769e-50
5.82328e-50
3.49539e-50
2.09727e-50
1.2579e-50
7.54168e-51
4.51985e-51
2.70778e-51
1.62157e-51
9.70723e-52
5.80885e-52
3.47473e-52
2.07773e-52
1.24193e-52
7.42067e-53
4.4323e-53
2.6464e-53
1.57951e-53
9.42391e-54
5.6206e-54
3.35102e-54
1.99717e-54
1.18987e-54
7.08644e-55
4.21894e-55
2.51087e-55
1.4938e-55
8.88403e-56
5.28172e-56
3.13899e-56
1.8649e-56
1.10757e-56
6.57564e-57
3.90263e-57
2.31541e-57
1.37326e-57
8.14202e-58
4.82576e-58
2.85926e-58
1.69355e-58
1.00276e-58
5.93548e-59
3.51214e-59
2.07752e-59
1.2285e-59
7.2622e-60
4.2916e-60
2.53531e-60
1.49729e-60
8.83975e-61
5.21719e-61
3.0782e-61
1.8156e-61
1.07055e-61
6.31045e-62
3.71858e-62
2.19059e-62
1.29006e-62
7.59438e-63
4.47993e-63
2.45849e-63
)
;

boundaryField
{
    sides
    {
        type            zeroGradient;
    }
    empty
    {
        type            empty;
    }
}


// ************************************************************************* //
