/*--------------------------------*- C++ -*----------------------------------*\
| =========                 |                                                 |
| \\      /  F ield         | OpenFOAM: The Open Source CFD Toolbox           |
|  \\    /   O peration     | Version:  2112                                  |
|   \\  /    A nd           | Website:  www.openfoam.com                      |
|    \\/     M anipulation  |                                                 |
\*---------------------------------------------------------------------------*/
FoamFile
{
    version     2.0;
    format      ascii;
    arch        "LSB;label=32;scalar=64";
    class       volScalarField;
    location    "6";
    object      Ma;
}
// * * * * * * * * * * * * * * * * * * * * * * * * * * * * * * * * * * * * * //

dimensions      [0 0 0 0 0 0 0];

internalField   nonuniform List<scalar> 
7000
(
3.00001
3
3
3
3
3
3
2.99999
2.99999
2.99987
2.99972
2.99859
2.99751
2.99187
2.9836
2.96243
2.87728
2.66462
2.12024
1.38318
0.61709
0.341256
0.394949
0.439289
0.442575
0.425332
0.399187
0.376223
0.360232
0.347258
0.334219
0.320463
0.306563
0.292425
0.277712
0.262711
0.247365
0.231367
0.215188
0.199162
0.182899
0.166448
0.150259
0.133954
0.116708
0.0982435
0.078402
0.0570105
0.0337943
0.0113078
3.00001
3
3
3
3
3
3
3
2.99999
2.99987
2.99973
2.99865
2.9976
2.99217
2.98324
2.96641
2.87724
2.68456
2.13584
1.41045
0.627942
0.339673
0.389967
0.432452
0.436165
0.419083
0.392849
0.369469
0.3529
0.339225
0.325423
0.31106
0.296817
0.282604
0.268172
0.253761
0.239105
0.223838
0.20838
0.192853
0.176821
0.160454
0.144179
0.127652
0.110376
0.0925168
0.0745163
0.0572251
0.0412334
0.0264722
3.00001
3
3
3
3
3
3
3
2.99999
2.99988
2.99973
2.9987
2.99767
2.99261
2.98429
2.96939
2.88142
2.69079
2.15191
1.43439
0.633796
0.330992
0.383679
0.427668
0.431357
0.414641
0.388812
0.365801
0.349378
0.335595
0.321541
0.306995
0.292553
0.278121
0.263697
0.249466
0.235037
0.220184
0.205242
0.190124
0.174425
0.158384
0.14239
0.126186
0.109633
0.0933718
0.0783059
0.0654889
0.054749
0.0433268
3.00001
3
3
3
3
3
3
3
2.99999
2.99988
2.99975
2.99876
2.9978
2.99303
2.98508
2.97113
2.88598
2.70091
2.17487
1.46505
0.646585
0.329381
0.382656
0.426266
0.42887
0.411883
0.386172
0.363608
0.347323
0.33343
0.319214
0.304536
0.289945
0.275354
0.26085
0.246644
0.232339
0.217766
0.203265
0.18862
0.173444
0.158069
0.142854
0.127609
0.112516
0.0985379
0.0866279
0.0774355
0.0698575
0.0602018
3.00001
3
3
3
3
3
3
3
2.99999
2.99989
2.99977
2.99885
2.99799
2.99348
2.98595
2.97025
2.89558
2.71139
2.20678
1.50155
0.663429
0.328055
0.381663
0.424794
0.426219
0.408912
0.383414
0.361334
0.345271
0.331449
0.317313
0.302807
0.288372
0.273864
0.259465
0.245385
0.231212
0.216877
0.202772
0.188632
0.174079
0.159558
0.145451
0.131622
0.118427
0.106903
0.0978173
0.0912752
0.0856355
0.0771216
3.00001
3
3
3
3
3
3
3
2.99999
2.99991
2.99982
2.99907
2.99847
2.99471
2.98694
2.97611
2.89779
2.7206
2.24576
1.5511
0.688676
0.333222
0.384607
0.425642
0.425553
0.407693
0.38217
0.360371
0.344386
0.330491
0.316423
0.302142
0.287902
0.27359
0.259429
0.245526
0.231553
0.217577
0.203922
0.190309
0.176546
0.163107
0.150276
0.138025
0.126869
0.117735
0.110999
0.106395
0.102022
0.0943064
3.00001
3
3
3
3
3
3
3
2.99999
2.99992
2.99984
2.99915
2.99863
2.99516
2.98765
2.97824
2.90155
2.73263
2.28966
1.60721
0.722019
0.348186
0.392506
0.428668
0.42761
0.409011
0.383107
0.360752
0.344498
0.330517
0.316444
0.302348
0.288391
0.274376
0.260556
0.247012
0.233328
0.219739
0.206641
0.193659
0.18077
0.168533
0.157196
0.146677
0.137533
0.130525
0.125688
0.122428
0.118914
0.111764
3.00001
3
3
3
3
3
3
3
2.99999
2.99992
2.99983
2.99915
2.99862
2.99525
2.98802
2.9789
2.90662
2.74534
2.33514
1.66251
0.761258
0.372216
0.402774
0.431812
0.432867
0.414714
0.388409
0.364573
0.347133
0.332452
0.318084
0.303907
0.29009
0.276338
0.26288
0.249765
0.23658
0.223604
0.211157
0.198992
0.187087
0.176089
0.166248
0.157455
0.150168
0.144963
0.141628
0.139424
0.136442
0.129863
3.00001
3
3
3
3
3
3
3
2.99999
2.99993
2.99985
2.99923
2.9988
2.99565
2.98902
2.98078
2.91165
2.7597
2.37863
1.72596
0.80644
0.398448
0.404481
0.428692
0.434599
0.419674
0.394937
0.37076
0.352795
0.337458
0.322463
0.307884
0.293817
0.280103
0.266949
0.254155
0.241451
0.229063
0.217326
0.206049
0.195301
0.18563
0.177234
0.170059
0.164495
0.160835
0.158662
0.157238
0.154816
0.148524
3.00001
3.00001
3
3
3
3
3
3
2.99999
2.99992
2.99982
2.99917
2.99865
2.99544
2.98899
2.98346
2.91687
2.77774
2.4215
1.79667
0.867623
0.435101
0.404803
0.426728
0.435244
0.423493
0.401347
0.377591
0.35945
0.343862
0.328705
0.313994
0.29969
0.285862
0.272788
0.260294
0.248086
0.236495
0.22562
0.215228
0.205616
0.197304
0.190325
0.184584
0.18047
0.178115
0.17692
0.176062
0.173947
0.168227
3.00001
3.00001
3
3
3
3
3
3
2.99999
2.99993
2.99983
2.99924
2.9987
2.99589
2.9902
2.98337
2.92605
2.79748
2.46586
1.87711
0.943849
0.482583
0.407477
0.426672
0.436942
0.427643
0.408173
0.385433
0.367179
0.351632
0.336463
0.321744
0.307435
0.293535
0.280612
0.268406
0.256566
0.24561
0.235674
0.226321
0.217852
0.210851
0.205263
0.200909
0.198101
0.19685
0.19654
0.196259
0.194486
0.188896
3.00001
3.00001
3
3
3
3
3
3
2.99999
2.99993
2.99984
2.99933
2.99889
2.99643
2.99162
2.98502
2.93399
2.81363
2.51734
1.96852
1.03827
0.540746
0.411677
0.428395
0.440558
0.434374
0.417431
0.395484
0.376584
0.360843
0.346067
0.331375
0.317183
0.30344
0.290528
0.278713
0.267406
0.256977
0.24783
0.239526
0.232199
0.226444
0.222187
0.219094
0.217465
0.217215
0.217574
0.217845
0.216541
0.211469
3.00001
3.00001
3.00001
3
3
3
3
3
2.99999
2.99993
2.99985
2.99938
2.99894
2.9967
2.99271
2.98628
2.94264
2.83715
2.57102
2.0722
1.15752
0.610179
0.416956
0.432091
0.447555
0.445515
0.430336
0.408811
0.3887
0.372503
0.357688
0.343498
0.329302
0.315808
0.303113
0.291237
0.280433
0.270705
0.262225
0.254869
0.248673
0.24411
0.24111
0.239296
0.23877
0.239485
0.240737
0.241483
0.240373
0.23555
3.00001
3.00001
3.00001
3.00001
3
3
3.00001
3
2.99999
2.99993
2.99985
2.99942
2.99899
2.99705
2.99311
2.98807
2.95155
2.86602
2.6279
2.18524
1.30082
0.690402
0.425006
0.441381
0.461434
0.462623
0.448015
0.426435
0.404767
0.387557
0.372455
0.35809
0.344256
0.330663
0.318356
0.306816
0.29606
0.28693
0.279228
0.272654
0.26756
0.264214
0.262299
0.261654
0.262391
0.264122
0.266026
0.267608
0.26729
0.263099
3.00001
3.00001
3.00001
3.00001
3.00001
3.00001
3.00001
3
3
2.99993
2.99986
2.9995
2.99912
2.99749
2.99438
2.99158
2.95916
2.89316
2.69312
2.31109
1.47299
0.785783
0.451945
0.468512
0.489774
0.491431
0.475062
0.451985
0.427738
0.408572
0.392342
0.377299
0.362876
0.349286
0.336681
0.32544
0.315035
0.306078
0.298933
0.293138
0.288982
0.286821
0.286222
0.286714
0.28866
0.291705
0.294894
0.297118
0.297282
0.293478
3.00001
3.00001
3.00001
3.00001
3.00001
3.00001
3
3
2.99997
2.99992
2.99969
2.99946
2.99813
2.99697
2.98963
2.98829
2.9694
2.91869
2.74672
2.40012
1.67737
0.874194
0.482811
0.499684
0.521551
0.527279
0.510792
0.486301
0.459263
0.437128
0.418774
0.402257
0.386738
0.372274
0.359385
0.347804
0.33753
0.328817
0.322024
0.316865
0.313482
0.312198
0.312967
0.315175
0.318376
0.322706
0.327308
0.331356
0.333058
0.330437
3.00001
3.00001
3.00001
3.00001
3.00001
3.00001
3.00001
3
2.99998
2.99996
2.99983
2.99971
2.99907
2.99818
2.99625
2.98621
2.98293
2.91647
2.7665
2.40537
1.76097
0.862736
0.473719
0.473576
0.511049
0.529231
0.523407
0.50528
0.482154
0.461795
0.444351
0.428179
0.412779
0.39824
0.385186
0.373753
0.363604
0.355087
0.348558
0.344011
0.34156
0.341362
0.343373
0.347095
0.352522
0.359167
0.366001
0.372007
0.375551
0.374388
3.00001
3.00001
3.00001
3.00001
3.00001
3.00001
3
3
2.99998
2.99996
2.99984
2.99974
2.99915
2.99828
2.99693
2.98807
2.98771
2.92965
2.80077
2.48758
1.90871
0.97458
0.529585
0.460921
0.49329
0.514438
0.517114
0.508182
0.492427
0.47661
0.462836
0.449653
0.436472
0.423652
0.411812
0.401306
0.392191
0.384453
0.37876
0.374693
0.372915
0.374122
0.377882
0.383732
0.391378
0.400994
0.411625
0.422504
0.431098
0.434304
3.00001
3.00001
3.00001
3.00001
3.00001
3.00001
3.00001
3
2.99999
2.99997
2.99989
2.99981
2.99944
2.99868
2.99768
2.99013
2.98949
2.94096
2.83914
2.55885
2.06065
1.14103
0.624527
0.466303
0.486446
0.506124
0.513005
0.508809
0.498304
0.486854
0.476596
0.466715
0.456686
0.446681
0.437266
0.428745
0.421526
0.4156
0.411373
0.408977
0.408388
0.411049
0.417119
0.426001
0.437525
0.451735
0.468035
0.486499
0.504671
0.520498
3.00001
3.00001
3.00001
3.00001
3.00001
3.00001
3.00001
3
3
3
2.99997
2.9999
2.99976
2.99897
2.99836
2.99223
2.99352
2.95361
2.87675
2.64802
2.21989
1.36451
0.749579
0.492913
0.501443
0.51749
0.524846
0.519566
0.509228
0.497903
0.489691
0.482575
0.475347
0.467896
0.461037
0.455071
0.45013
0.446357
0.44431
0.44428
0.446838
0.451632
0.459776
0.472071
0.48858
0.509973
0.537094
0.571711
0.617925
0.69647
3.00001
3.00001
3.00001
3.00001
3.00001
3.00001
3.00001
3.00001
3
3
2.99997
2.99995
2.99974
2.99943
2.99744
2.9964
2.98239
2.98185
2.90578
2.72876
2.31391
1.64039
0.825572
0.505278
0.513825
0.534875
0.545257
0.5404
0.529712
0.517796
0.509164
0.503621
0.499082
0.495068
0.491416
0.488529
0.486735
0.486141
0.487981
0.492516
0.499329
0.508808
0.521854
0.539671
0.563698
0.595682
0.638663
0.699259
0.789435
0.910196
3.00001
3.00001
3.00001
3.00001
3.00001
3.00001
3.00001
3.00001
3
3
2.99999
2.99997
2.99981
2.99956
2.99797
2.99706
2.98697
2.98409
2.92722
2.78226
2.45527
1.84913
0.944059
0.553666
0.520069
0.544251
0.557853
0.556564
0.54896
0.538664
0.531012
0.526422
0.523573
0.521589
0.52042
0.519855
0.520731
0.524094
0.52966
0.537478
0.548084
0.562155
0.580479
0.604494
0.635059
0.675312
0.726534
0.794252
0.888456
0.988656
3.00001
3.00001
3.00001
3.00001
3.00001
3.00001
3.00001
3.00001
3.00001
3
2.99999
2.99998
2.99985
2.99968
2.9986
2.99792
2.99074
2.98897
2.94673
2.84112
2.57974
2.08444
1.18821
0.698669
0.553845
0.559126
0.568127
0.571648
0.566467
0.558646
0.552157
0.54914
0.548211
0.548059
0.54871
0.550877
0.555165
0.561639
0.569865
0.580417
0.593869
0.611444
0.632695
0.660273
0.693329
0.73507
0.785682
0.84516
0.920618
0.988558
3.00001
3.00001
3.00001
3.00001
3.00001
3.00001
3.00001
3.00001
3.00001
3
3
2.99999
2.99994
2.99988
2.99943
2.99879
2.99411
2.99267
2.96459
2.91566
2.73457
2.39043
1.57963
0.927773
0.618938
0.596089
0.601925
0.604056
0.597251
0.588335
0.580236
0.575635
0.574036
0.573867
0.575578
0.579785
0.58615
0.594379
0.604477
0.617096
0.632485
0.651258
0.674134
0.700964
0.733839
0.770747
0.815866
0.863786
0.922782
0.97245
3.00001
3.00001
3.00001
3.00001
3.00001
3.00001
3.00001
3.00001
3.00001
3.00001
3
2.99999
2.99996
2.99993
2.99955
2.99902
2.9954
2.99443
2.97024
2.96781
2.8295
2.54088
1.89248
1.12205
0.667241
0.607296
0.618197
0.626914
0.62652
0.619597
0.611951
0.606073
0.60319
0.602108
0.603776
0.608498
0.615405
0.624028
0.634939
0.648049
0.664209
0.682769
0.705254
0.730159
0.760169
0.792093
0.830489
0.870624
0.916259
0.956157
3.00001
3.00001
3.00001
3.00001
3.00001
3.00001
3.00001
3.00001
3.00001
3.00001
3
2.99999
2.99999
2.99991
2.99986
2.99923
2.99847
2.99208
2.99153
2.95315
2.88512
2.65781
2.23084
1.37285
0.830393
0.629971
0.627325
0.64018
0.648129
0.645899
0.640217
0.634911
0.631508
0.629839
0.631071
0.635512
0.642185
0.650418
0.661006
0.673568
0.689068
0.706496
0.72738
0.74994
0.776402
0.804878
0.837465
0.871289
0.906244
0.939182
3.00001
3.00001
3.00001
3.00001
3.00001
3.00001
3.00001
3.00001
3.00001
3.00001
3.00001
3
2.99999
2.99994
2.9999
2.99945
2.99885
2.99415
2.99375
2.97738
2.95753
2.80815
2.49568
1.81042
1.06629
0.674893
0.637276
0.652769
0.665721
0.668433
0.66505
0.661249
0.657979
0.656157
0.657099
0.661229
0.667766
0.675381
0.685253
0.696674
0.710809
0.726451
0.744995
0.764975
0.788134
0.813345
0.840139
0.867217
0.895922
0.922798
3.00001
3.00001
3.00001
3.00001
3.00001
3.00001
3.00001
3.00001
3.00001
3.00001
3.00001
3
2.99999
2.99996
2.99994
2.99958
2.99916
2.99602
2.99451
2.97407
2.97195
2.86104
2.62896
2.05959
1.32279
0.757938
0.628919
0.643317
0.661177
0.673927
0.676694
0.675584
0.674162
0.673734
0.675534
0.68052
0.687639
0.695703
0.70516
0.716175
0.729091
0.743621
0.76019
0.77865
0.798883
0.81985
0.841232
0.863856
0.887972
0.910589
3.00001
3.00001
3.00001
3.00001
3.00001
3.00001
3.00001
3.00001
3.00001
3.00001
3.00001
3
3
2.99997
2.99995
2.99971
2.9994
2.99716
2.99611
2.98161
2.98418
2.90465
2.7513
2.37704
1.71956
0.934995
0.645745
0.634649
0.656948
0.67434
0.680061
0.681367
0.681952
0.683338
0.686743
0.693142
0.701397
0.710434
0.720162
0.731211
0.743657
0.757619
0.772984
0.789371
0.806252
0.823804
0.842375
0.862024
0.882743
0.902192
3.00001
3.00001
3.00001
3.00001
3.00001
3.00001
3.00001
3.00001
3.00001
3.00001
3.00001
3.00001
3
2.99999
2.99994
2.99992
2.9995
2.999
2.99544
2.99368
2.97171
2.96931
2.84259
2.58066
1.9641
1.20249
0.70435
0.625984
0.643829
0.66219
0.674594
0.679308
0.682343
0.685975
0.691581
0.699924
0.709474
0.719664
0.730283
0.741753
0.754181
0.767396
0.781234
0.795583
0.810623
0.826671
0.84349
0.861118
0.879375
0.896356
3.00001
3.00001
3.00001
3.00001
3.00001
3.00001
3.00001
3.00001
3.00001
3.00001
3.00001
3.00001
3
3
2.99996
2.99994
2.99968
2.99939
2.99713
2.99603
2.98028
2.98406
2.89469
2.72087
2.25576
1.56199
0.845376
0.62159
0.618669
0.640421
0.659215
0.668161
0.674019
0.680706
0.689361
0.70024
0.711651
0.723349
0.735128
0.74717
0.759559
0.772385
0.785568
0.799503
0.813833
0.828921
0.844321
0.860255
0.87656
0.891521
3.00001
3.00001
3.00001
3.00001
3.00001
3.00001
3.00001
3.00001
3.00001
3.00001
3.00001
3.00001
3.00001
3
2.99999
2.99993
2.99991
2.99946
2.99891
2.9949
2.99355
2.96826
2.96644
2.82434
2.52447
1.86485
1.08778
0.642813
0.591143
0.614466
0.638924
0.65605
0.66691
0.676604
0.687363
0.69941
0.711972
0.724631
0.737214
0.749832
0.762456
0.775419
0.788529
0.802045
0.815717
0.829663
0.843813
0.858106
0.872747
0.886108
3.00001
3.00001
3.00001
3.00001
3.00001
3.00001
3.00001
3.00001
3.00001
3.00001
3.00001
3.00001
3.00001
3
2.99999
2.99998
2.9999
2.99984
2.99924
2.9986
2.99303
2.9913
2.95793
2.90326
2.67873
2.21501
1.38909
0.79165
0.57742
0.586083
0.617316
0.649415
0.667977
0.680335
0.691635
0.703655
0.716046
0.728618
0.74095
0.75337
0.765632
0.778085
0.790565
0.803257
0.816013
0.828913
0.841872
0.854852
0.868124
0.880149
3.00001
3.00001
3.00001
3.00001
3.00001
3.00001
3.00001
3.00001
3.00001
3.00001
3.00001
3.00001
3.00001
3
3
2.99998
2.99997
2.99977
2.99954
2.99764
2.997
2.98291
2.99125
2.91092
2.76138
2.40523
1.72258
0.881678
0.544025
0.535673
0.579168
0.621851
0.649344
0.668368
0.684027
0.698666
0.712707
0.726346
0.739424
0.75226
0.764775
0.777183
0.78944
0.801671
0.813876
0.826047
0.838277
0.850449
0.86277
0.873902
3.00001
3.00001
3.00001
3.00001
3.00001
3.00001
3.00001
3.00001
3.00001
3.00001
3.00001
3.00001
3.00001
3
3
2.99998
2.99997
2.9998
2.99962
2.99816
2.99724
2.99034
2.97759
2.94397
2.83971
2.54445
1.96441
1.06251
0.615022
0.515949
0.553787
0.599731
0.634725
0.656492
0.673175
0.688648
0.703791
0.718512
0.73245
0.745931
0.758947
0.771678
0.784122
0.796399
0.808507
0.820486
0.832352
0.844073
0.855818
0.866416
3.00001
3.00001
3.00001
3.00001
3.00001
3.00001
3.00001
3.00001
3.00001
3.00001
3.00001
3.00001
3.00001
3
3
2.99999
2.99997
2.99987
2.99974
2.99906
2.99797
2.994
2.98517
2.95679
2.88521
2.69042
2.13236
1.3979
0.666443
0.458175
0.505908
0.565863
0.610232
0.635958
0.653169
0.667933
0.683333
0.699437
0.715125
0.729984
0.744102
0.757962
0.77135
0.784459
0.797226
0.809718
0.821938
0.83389
0.845762
0.856449
3.00001
3.00001
3.00001
3.00001
3.00001
3.00001
3.00001
3.00001
3.00001
3.00001
3.00001
3.00001
3.00001
3.00001
3
3
2.99998
2.99991
2.99981
2.99948
2.9983
2.99519
2.98809
2.96369
2.91232
2.74618
2.3407
1.63423
0.757549
0.439048
0.482091
0.538986
0.587684
0.614808
0.631368
0.645552
0.660136
0.675025
0.690142
0.705406
0.720357
0.735095
0.749749
0.764061
0.778142
0.791787
0.805038
0.817929
0.830625
0.842123
3.00001
3.00001
3.00001
3.00001
3.00001
3.00001
3.00001
3.00001
3.00001
3.00001
3.00001
3.00001
3.00001
3.00001
3.00001
3
2.99999
2.99994
2.99983
2.99961
2.99875
2.99689
2.9901
2.97723
2.92759
2.82836
2.5315
1.80268
1.01119
0.503537
0.476608
0.518697
0.564477
0.589484
0.603912
0.616256
0.629353
0.643659
0.658851
0.674259
0.689719
0.704936
0.719998
0.735076
0.74969
0.764408
0.77868
0.79281
0.806674
0.819308
3.00001
3.00001
3.00001
3.00001
3.00001
3.00001
3.00001
3.00001
3.00001
3.00001
3.00001
3.00001
3.00001
3.00001
3.00001
2.99999
2.99998
2.99989
2.99987
2.99962
2.99928
2.99643
2.99504
2.97211
2.97205
2.86133
2.61441
1.97558
1.20471
0.596836
0.463187
0.494102
0.536992
0.563391
0.576819
0.58702
0.598653
0.612305
0.627232
0.64267
0.658128
0.673696
0.688908
0.704136
0.719156
0.733809
0.748619
0.762949
0.777453
0.790483
3.00001
3.00001
3.00001
3.00001
3.00001
3.00001
3.00001
3.00001
3.00001
3.00001
3.00001
3.00001
3.00001
3.00001
3.00001
3
2.99999
2.99998
2.99988
2.9998
2.99905
2.99827
2.99156
2.99471
2.96226
2.94523
2.74637
2.33105
1.52422
0.812236
0.480268
0.498314
0.536389
0.565945
0.57584
0.579756
0.585805
0.594998
0.606232
0.618773
0.631991
0.645579
0.659569
0.673646
0.687996
0.702151
0.716504
0.730604
0.744799
0.75772
3.00001
3.00001
3.00001
3.00001
3.00001
3.00001
3.00001
3.00001
3.00001
3.00001
3.00001
3.00001
3.00001
3.00001
3.00001
3
3
2.99997
2.99993
2.9997
2.99958
2.99814
2.9968
2.98806
2.976
2.92286
2.80615
2.45879
1.73105
0.931472
0.472131
0.477057
0.517638
0.553598
0.566952
0.570681
0.574056
0.579999
0.588028
0.597548
0.608238
0.619587
0.632007
0.644668
0.657798
0.671198
0.684525
0.698235
0.711696
0.724344
3.00001
3.00001
3.00001
3.00001
3.00001
3.00001
3.00001
3.00001
3.00001
3.00001
3.00001
3.00001
3.00001
3.00001
3.00001
3
3
2.99998
2.99996
2.99979
2.99969
2.9985
2.99845
2.99033
2.9855
2.94346
2.84863
2.54416
1.9468
0.998988
0.554354
0.45755
0.49408
0.537003
0.561713
0.571291
0.575433
0.579276
0.584134
0.590628
0.599099
0.608054
0.617518
0.627621
0.638136
0.649326
0.660483
0.67222
0.683926
0.694966
3.00001
3.00001
3.00001
3.00001
3.00001
3.00001
3.00001
3.00001
3.00001
3.00001
3.00001
3.00001
3.00001
3.00001
3.00001
3
3
2.99999
2.99998
2.99988
2.99977
2.99921
2.9986
2.99332
2.99043
2.96517
2.91379
2.68759
2.23166
1.37486
0.731343
0.452616
0.487795
0.540726
0.578028
0.590863
0.592906
0.592834
0.59421
0.596797
0.600418
0.605875
0.612302
0.619291
0.62641
0.634271
0.64245
0.651296
0.660487
0.66928
3.00001
3.00001
3.00001
3.00001
3.00001
3.00001
3.00001
3.00001
3.00001
3.00001
3.00001
3.00001
3.00001
3.00001
3.00001
3.00001
3
2.99999
2.99996
2.99983
2.99983
2.99915
2.99853
2.99196
2.99637
2.95013
2.96874
2.75802
2.38616
1.6038
0.825302
0.400857
0.456175
0.518828
0.564943
0.582042
0.585355
0.585906
0.587165
0.589442
0.592302
0.596185
0.600352
0.605291
0.610329
0.616363
0.622788
0.63008
0.637787
0.645334
3.00001
3.00001
3.00001
3.00001
3.00001
3.00001
3.00001
3.00001
3.00001
3.00001
3.00001
3.00001
3.00001
3.00001
3.00001
3.00001
3
3
2.99996
2.99993
2.99967
2.99939
2.99702
2.99658
2.98287
2.98141
2.91672
2.78281
2.4056
1.70725
0.752365
0.379336
0.414029
0.471666
0.520877
0.544402
0.554129
0.560157
0.566053
0.572335
0.578573
0.58459
0.59016
0.595482
0.600525
0.605914
0.611466
0.617914
0.624811
0.631336
3.00001
3.00001
3.00001
3.00001
3.00001
3.00001
3.00001
3.00001
3.00001
3.00001
3.00001
3.00001
3.00001
3.00001
3.00001
3.00001
3
3
2.99996
2.99993
2.99973
2.99956
2.99816
2.99794
2.98855
2.98132
2.9374
2.82268
2.49793
1.86584
0.895853
0.473125
0.41642
0.462852
0.513688
0.540851
0.553193
0.560578
0.567381
0.574589
0.581642
0.588018
0.593567
0.598608
0.603295
0.607819
0.612298
0.617182
0.622657
0.628001
3.00001
3.00001
3.00001
3.00001
3.00001
3.00001
3.00001
3.00001
3.00001
3.00001
3.00001
3.00001
3.00001
3.00001
3.00001
3.00001
3.00001
3
2.99998
2.99997
2.9998
2.9997
2.9986
2.99867
2.99218
2.98827
2.954
2.88258
2.59443
2.01889
1.10977
0.580827
0.41753
0.468154
0.530718
0.565523
0.576227
0.578654
0.580858
0.584426
0.588832
0.593074
0.59681
0.600149
0.603258
0.606436
0.609774
0.613276
0.617367
0.621501
3.00001
3.00001
3.00001
3.00001
3.00001
3.00001
3.00001
3.00001
3.00001
3.00001
3.00001
3.00001
3.00001
3.00001
3.00001
3.00001
3.00001
3
3
2.99995
2.99995
2.99961
2.99938
2.9967
2.99555
2.97504
2.98501
2.84966
2.63084
1.98344
1.22247
0.523542
0.347314
0.414928
0.487693
0.519285
0.52834
0.532585
0.537513
0.544211
0.552027
0.559378
0.565997
0.572238
0.578328
0.584376
0.590606
0.59689
0.603302
0.609305
3.00001
3.00001
3.00001
3.00001
3.00001
3.00001
3.00001
3.00001
3.00001
3.00001
3.00001
3.00001
3.00001
3.00001
3.00001
3.00001
3
2.99999
2.99998
2.99991
2.99985
2.99939
2.99905
2.99661
2.99463
2.97828
2.97386
2.86801
2.65722
2.06901
1.32713
0.558725
0.339117
0.401095
0.465316
0.487642
0.491776
0.494473
0.49965
0.507989
0.51828
0.528574
0.538456
0.54809
0.557662
0.567227
0.576674
0.585857
0.594663
0.602517
3.00001
3.00001
3.00001
3.00001
3.00001
3.00001
3.00001
3.00001
3.00001
3.00001
3.00001
3.00001
3.00001
3.00001
3.00001
3
3
2.99999
2.99998
2.99991
2.99986
2.99951
2.99921
2.99751
2.99476
2.98185
2.98353
2.87733
2.6932
2.17112
1.43538
0.596934
0.325989
0.39436
0.459525
0.481043
0.486015
0.490322
0.496957
0.505718
0.515863
0.526543
0.5373
0.548003
0.558635
0.569037
0.578937
0.588243
0.597289
0.605241
3.00001
3.00001
3.00001
3.00001
3.00001
3.00001
3.00001
3.00001
3.00001
3.00001
3.00001
3.00001
3.00001
3.00001
3.00001
3
3
2.99999
2.99998
2.99992
2.99987
2.99951
2.99926
2.99769
2.99478
2.98921
2.9617
2.90661
2.73608
2.30207
1.56954
0.659301
0.320169
0.390797
0.455171
0.487319
0.501754
0.509688
0.517064
0.525778
0.535576
0.54577
0.555898
0.565601
0.574554
0.582875
0.590689
0.598086
0.605171
0.61147
3.00001
3.00001
3.00001
3.00001
3.00001
3.00001
3.00001
3.00001
3.00001
3.00001
3.00001
3.00001
3.00001
3.00001
3.00001
3.00001
3
2.99999
2.99999
2.99993
2.99988
2.99954
2.99929
2.99727
2.99613
2.98305
2.98394
2.90792
2.7593
2.3892
1.66924
0.725439
0.35319
0.390702
0.446509
0.495505
0.52057
0.53135
0.538864
0.546905
0.555607
0.564375
0.572595
0.58004
0.586775
0.593004
0.598811
0.6043
0.609345
0.613851
3.00001
3.00001
3.00001
3.00001
3.00001
3.00001
3.00001
3.00001
3.00001
3.00001
3.00001
3.00001
3.00001
3.00001
3.00001
3.00001
3.00001
3
2.99999
2.99996
2.99993
2.99968
2.9995
2.99782
2.99721
2.98552
2.98702
2.92023
2.78672
2.44819
1.75343
0.806873
0.391431
0.376523
0.434514
0.495179
0.525124
0.537151
0.543393
0.550333
0.558155
0.566148
0.573925
0.580789
0.586764
0.5921
0.596939
0.601393
0.605417
0.60905
3.00001
3.00001
3.00001
3.00001
3.00001
3.00001
3.00001
3.00001
3.00001
3.00001
3.00001
3.00001
3.00001
3.00001
3.00001
3.00001
3.00001
3
3
2.99996
2.99994
2.99974
2.99959
2.99826
2.99806
2.98797
2.99002
2.93083
2.81091
2.49537
1.82197
0.874284
0.424273
0.365781
0.427346
0.493541
0.525361
0.535945
0.540493
0.545861
0.552799
0.560841
0.568335
0.574908
0.580779
0.586096
0.590878
0.595098
0.598763
0.60206
3.00001
3.00001
3.00001
3.00001
3.00001
3.00001
3.00001
3.00001
3.00001
3.00001
3.00001
3.00001
3.00001
3.00001
3.00001
3.00001
3.00001
3
3
2.99997
2.99995
2.99977
2.99963
2.9985
2.99843
2.99045
2.99473
2.95146
2.85426
2.5355
1.87109
0.905003
0.447117
0.361491
0.425424
0.494406
0.527908
0.53858
0.541882
0.546167
0.551881
0.558682
0.565667
0.571716
0.576998
0.581667
0.585771
0.589276
0.592146
0.594622
3.00001
3.00001
3.00001
3.00001
3.00001
3.00001
3.00001
3.00001
3.00001
3.00001
3.00001
3.00001
3.00001
3.00001
3.00001
3.00001
3.00001
3
3
2.99996
2.99996
2.99983
2.99964
2.99812
2.99771
2.98712
2.99062
2.94903
2.86051
2.5322
1.90952
0.949102
0.475816
0.370861
0.429475
0.493705
0.527148
0.540117
0.543915
0.547416
0.552267
0.557311
0.562548
0.567732
0.572045
0.575661
0.578698
0.581211
0.583349
0.585044
3.00001
3.00001
3.00001
3.00001
3.00001
3.00001
3.00001
3.00001
3.00001
3.00001
3.00001
3.00001
3.00001
3.00001
3.00001
3.00001
3.00001
3.00001
3
2.99999
2.99995
2.9999
2.9996
2.9991
2.99621
2.9946
2.97764
2.94338
2.83952
2.5713
1.85232
1.07123
0.4552
0.360936
0.40848
0.455708
0.469266
0.467053
0.464469
0.466926
0.473365
0.482048
0.492152
0.502915
0.513806
0.52449
0.534813
0.544536
0.553419
0.560726
3.00001
3.00001
3.00001
3.00001
3.00001
3.00001
3.00001
3.00001
3.00001
3.00001
3.00001
3.00001
3.00001
3.00001
3.00001
3.00001
3
3
3
2.99999
2.99991
2.99989
2.99936
2.99913
2.99696
2.99116
2.97928
2.93625
2.83732
2.55833
1.86723
1.0917
0.474988
0.37393
0.418943
0.464313
0.477972
0.475919
0.472502
0.472369
0.476841
0.483997
0.492557
0.501964
0.512005
0.522504
0.533307
0.544272
0.554918
0.564169
3.00001
3.00001
3.00001
3.00001
3.00001
3.00001
3.00001
3.00001
3.00001
3.00001
3.00001
3.00001
3.00001
3.00001
3.00001
3.00001
3.00001
3
2.99999
2.99996
2.99993
2.99973
2.99955
2.99837
2.99834
2.99259
3.00117
2.95985
2.8806
2.52792
1.90896
0.927636
0.482021
0.392841
0.443694
0.498982
0.530185
0.542981
0.547399
0.549786
0.551859
0.554268
0.556354
0.557541
0.557801
0.557531
0.557594
0.558042
0.559429
0.560998
3.00001
3.00001
3.00001
3.00001
3.00001
3.00001
3.00001
3.00001
3.00001
3.00001
3.00001
3.00001
3.00001
3.00001
3.00001
3.00001
3.00001
3.00001
3
2.99999
2.99994
2.9999
2.99948
2.99909
2.99724
2.99077
2.9807
2.93958
2.8383
2.57478
1.86601
1.09535
0.482939
0.382189
0.425194
0.468353
0.480351
0.47802
0.475646
0.476111
0.480174
0.487234
0.495911
0.504782
0.513719
0.522763
0.53145
0.539949
0.548878
0.557323
1.17537
0.700217
0.268164
0.188589
0.334394
0.399236
0.436487
0.453643
0.468266
0.4804
0.484744
0.481604
0.476099
0.469654
0.459861
0.446201
0.429049
0.408976
0.386623
0.362774
0.337711
0.311655
0.284904
0.258059
0.231136
0.204237
0.177682
0.15141
0.125604
0.100072
0.0751074
0.050491
0.0268131
0.00923106
0.0258472
0.0493549
0.0723866
0.094685
0.116778
0.137332
0.157524
0.177476
0.197924
0.217942
0.237757
0.257107
0.276085
0.294586
0.312963
0.330932
0.348754
0.366286
0.383619
0.400724
0.417701
0.434368
0.451001
0.467391
0.483677
0.499799
0.515807
0.531636
0.547433
0.562958
0.578529
0.593845
0.609029
0.624218
0.638975
0.653924
0.668418
0.682924
0.697318
0.711373
0.725544
0.739346
0.753128
0.766746
0.78023
0.793513
0.806824
0.819804
0.832902
0.845677
0.858529
0.871081
0.883725
0.896059
0.908512
0.920564
0.932808
0.944542
0.956461
0.967755
0.979056
0.989521
0.999594
1.00818
1.01523
1.01958
1.08527
0.823688
0.450364
0.358626
0.23834
0.133198
0.045948
0.0362829
0.0864911
0.13075
0.152197
0.152723
0.145988
0.14208
0.133234
0.120551
0.106006
0.0886403
0.0700688
0.0512196
0.0347672
0.0274931
0.0362174
0.0547181
0.0751825
0.0965499
0.117927
0.139229
0.160364
0.180994
0.20151
0.221423
0.241084
0.260002
0.278357
0.296152
0.313748
0.331074
0.348231
0.364581
0.380382
0.396153
0.412525
0.428834
0.444681
0.460206
0.47545
0.490428
0.505308
0.51989
0.534411
0.54874
0.562937
0.577038
0.590905
0.604717
0.618327
0.63184
0.64532
0.658626
0.671968
0.685181
0.698273
0.711467
0.724254
0.737366
0.749989
0.762854
0.775523
0.788036
0.800806
0.813039
0.825752
0.837873
0.850427
0.86243
0.874861
0.886678
0.898986
0.910628
0.922787
0.934291
0.9464
0.957742
0.969813
0.981135
0.993147
1.00447
1.01631
1.02756
1.03915
1.05024
1.06141
1.07225
1.08272
1.09297
1.10219
1.1109
1.11724
1.12203
1.04248
0.937875
0.794882
0.702456
0.613126
0.531302
0.459248
0.395603
0.347455
0.311903
0.287502
0.265394
0.245157
0.240237
0.241233
0.248
0.258545
0.271089
0.285056
0.299652
0.315346
0.331165
0.34715
0.363262
0.379633
0.395665
0.41177
0.427577
0.443245
0.458598
0.473868
0.488725
0.503429
0.517722
0.531713
0.545248
0.558644
0.571809
0.5849
0.597484
0.609583
0.621373
0.633936
0.646816
0.659458
0.671725
0.683681
0.695613
0.707181
0.718933
0.730354
0.742023
0.753411
0.764901
0.77624
0.787454
0.798718
0.809639
0.820773
0.831435
0.842347
0.852851
0.863507
0.87391
0.884306
0.894584
0.904791
0.914896
0.925014
0.934869
0.944943
0.95447
0.964462
0.973732
0.983593
0.992801
1.00253
1.01191
1.02148
1.03111
1.04053
1.05055
1.05992
1.07025
1.07961
1.09013
1.09943
1.11007
1.11933
1.13003
1.13917
1.14985
1.15871
1.16916
1.17755
1.18742
1.1949
1.20341
1.20864
1.21353
1.03174
1.002
0.942836
0.895908
0.853067
0.806535
0.758558
0.715314
0.681573
0.657513
0.639952
0.626225
0.618794
0.615644
0.614802
0.614952
0.617616
0.622827
0.629312
0.63652
0.644316
0.652289
0.660522
0.668855
0.67734
0.685854
0.6945
0.703197
0.71183
0.720183
0.72828
0.736123
0.744125
0.752004
0.760053
0.767904
0.776021
0.783888
0.792106
0.799993
0.807764
0.815375
0.823636
0.832463
0.841913
0.851071
0.860357
0.869358
0.878693
0.887897
0.897366
0.906626
0.915929
0.925088
0.934205
0.943354
0.952471
0.961608
0.970825
0.979904
0.989259
0.998306
1.00768
1.01675
1.02594
1.03509
1.04401
1.05326
1.06193
1.07122
1.07964
1.08886
1.09704
1.10612
1.11414
1.12308
1.13121
1.14008
1.14841
1.15722
1.16572
1.17431
1.18283
1.19126
1.19977
1.20815
1.21663
1.22499
1.23346
1.24181
1.25023
1.25856
1.26682
1.275
1.28293
1.29065
1.2978
1.30428
1.30948
1.31238
1.01757
1.02288
1.00644
0.990981
0.976357
0.960728
0.942926
0.926974
0.913854
0.903378
0.894296
0.886289
0.881042
0.880425
0.882184
0.884207
0.885172
0.886726
0.889291
0.892136
0.895064
0.898032
0.900883
0.903793
0.906822
0.909939
0.913054
0.916241
0.919587
0.923079
0.926715
0.930499
0.934454
0.938515
0.942607
0.946739
0.950916
0.955135
0.959578
0.964012
0.968168
0.972372
0.976996
0.982274
0.988242
0.99411
1.00038
1.00637
1.01292
1.01917
1.02598
1.03254
1.03951
1.04643
1.05344
1.06079
1.06782
1.07559
1.08275
1.0907
1.09819
1.10614
1.11405
1.1219
1.13013
1.13787
1.14624
1.1539
1.16229
1.16999
1.17838
1.18619
1.19466
1.2025
1.21094
1.2188
1.22701
1.23494
1.24286
1.25092
1.25864
1.26673
1.2743
1.28229
1.28978
1.29768
1.3051
1.31299
1.32026
1.32821
1.33531
1.34331
1.35025
1.35817
1.36489
1.37248
1.37865
1.38524
1.38991
1.3933
0.997746
1.01869
1.02762
1.03409
1.03974
1.0443
1.04664
1.04788
1.04858
1.04912
1.04963
1.04978
1.04991
1.05083
1.0532
1.05608
1.05774
1.05714
1.05654
1.05615
1.05575
1.05523
1.05442
1.05363
1.05274
1.05214
1.05174
1.05155
1.0517
1.05231
1.05328
1.05453
1.05611
1.05802
1.06009
1.06244
1.06495
1.06772
1.07088
1.07412
1.07734
1.08048
1.08412
1.08815
1.09302
1.09782
1.10314
1.10825
1.11378
1.11915
1.12489
1.13055
1.13658
1.14251
1.14882
1.155
1.16155
1.16801
1.17477
1.18146
1.18836