/*--------------------------------*- C++ -*----------------------------------*\
| =========                 |                                                 |
| \\      /  F ield         | OpenFOAM: The Open Source CFD Toolbox           |
|  \\    /   O peration     | Version:  2112                                  |
|   \\  /    A nd           | Website:  www.openfoam.com                      |
|    \\/     M anipulation  |                                                 |
\*---------------------------------------------------------------------------*/
FoamFile
{
    version     2.0;
    format      ascii;
    arch        "LSB;label=32;scalar=64";
    class       volScalarField;
    location    "6";
    object      p;
}
// * * * * * * * * * * * * * * * * * * * * * * * * * * * * * * * * * * * * * //

dimensions      [1 -1 -2 0 0 0 0];

internalField   nonuniform List<scalar> 
7000
(
0.999999
1
1.00001
1.00001
1.00001
1.00001
1.00001
1.00001
1.00003
1.00007
1.00033
1.00075
1.00237
1.00467
1.01349
1.02523
1.11447
1.1395
2.01583
2.93431
7.01515
10.8262
10.5981
10.1499
10.0743
10.1417
10.3066
10.4797
10.5992
10.6894
10.7739
10.8587
10.942
11.0217
11.0974
11.17
11.2394
11.3053
11.3682
11.4278
11.4834
11.5352
11.5836
11.6275
11.6667
11.7017
11.7318
11.756
11.773
11.7817
1
1.00001
1.00001
1.00001
1.00001
1.00001
1.00001
1.00001
1.00003
1.00007
1.00032
1.00072
1.00233
1.00437
1.01395
1.023
1.11367
1.11425
2.01859
2.83856
6.83813
10.7665
10.5696
10.1487
10.0699
10.1356
10.2983
10.4706
10.5907
10.6818
10.7671
10.8522
10.9358
11.0156
11.0916
11.1644
11.234
11.3002
11.3635
11.4235
11.4794
11.5318
11.5805
11.6247
11.6641
11.6993
11.7294
11.7536
11.7702
11.7787
1
1.00001
1.00001
1.00001
1.00001
1.00001
1.00001
1.00001
1.00003
1.00007
1.00031
1.00069
1.00222
1.00419
1.01272
1.02087
1.10954
1.1114
1.99642
2.7763
6.69871
10.7887
10.5778
10.1492
10.0769
10.1429
10.3045
10.4734
10.5917
10.6825
10.7676
10.8524
10.9353
11.0145
11.0898
11.1621
11.231
11.2967
11.3596
11.4191
11.4747
11.5268
11.5753
11.619
11.6579
11.6921
11.721
11.7437
11.7594
11.7686
1
1.00001
1.00001
1.00001
1.00001
1.00001
1.00001
1.00001
1.00002
1.00007
1.00029
1.00066
1.00209
1.00393
1.01203
1.01949
1.10485
1.10512
1.96778
2.69665
6.49851
10.7739
10.5584
10.1277
10.0682
10.1369
10.3
10.4652
10.582
10.6731
10.7588
10.8439
10.9268
11.0059
11.0812
11.1533
11.222
11.2875
11.3502
11.4095
11.4649
11.5169
11.5651
11.6083
11.6465
11.6798
11.7074
11.7289
11.7436
11.7529
1
1
1.00001
1.00001
1.00001
1.00001
1.00001
1.00001
1.00002
1.00006
1.00027
1.00061
1.00193
1.0036
1.01148
1.01813
1.09932
1.092
1.93358
2.62157
6.25343
10.7755
10.5544
10.1186
10.0702
10.1402
10.3029
10.4631
10.5774
10.6679
10.7533
10.8379
10.9201
10.9984
11.0729
11.1443
11.2122
11.2769
11.3389
11.3974
11.4522
11.5036
11.551
11.5933
11.6306
11.6628
11.6892
11.7097
11.7235
11.7328
1
1
1.00001
1.00001
1.00001
1.00001
1.00001
1.00001
1.00002
1.00005
1.00022
1.00049
1.00157
1.00272
1.01019
1.01325
1.09905
1.09266
1.88466
2.5258
5.96352
10.7694
10.5465
10.1123
10.0704
10.1402
10.3004
10.4564
10.5686
10.6586
10.7438
10.8279
10.9095
10.9871
11.0611
11.1317
11.1989
11.2628
11.324
11.3816
11.4355
11.486
11.5324
11.5738
11.61
11.6411
11.6663
11.6856
11.6986
11.7076
1
1
1.00001
1.00001
1.00001
1.00001
1.00001
1.00001
1.00002
1.00005
1.0002
1.00044
1.00142
1.00243
1.0094
1.01154
1.09599
1.09156
1.82361
2.42717
5.63711
10.7273
10.5279
10.1253
10.0754
10.1414
10.295
10.4486
10.5595
10.6486
10.733
10.8163
10.8969
10.9735
11.0465
11.1162
11.1823
11.2453
11.3054
11.3619
11.4147
11.464
11.5092
11.5493
11.5843
11.6142
11.6383
11.6567
11.669
11.6778
1
1
1.00001
1.00001
1.00001
1.00001
1.00001
1.00001
1.00002
1.00005
1.0002
1.00044
1.00138
1.00236
1.00886
1.01128
1.09164
1.08944
1.76269
2.32739
5.33735
10.5735
10.4782
10.1682
10.088
10.1439
10.2845
10.4383
10.549
10.637
10.7201
10.8022
10.8817
10.9571
11.0289
11.0973
11.1622
11.2239
11.2826
11.3376
11.389
11.437
11.4807
11.5194
11.5531
11.5817
11.6047
11.6223
11.634
11.6425
1
1
1.00001
1.00001
1.00001
1.00001
1.00001
1.00001
1.00002
1.00005
1.00018
1.0004
1.00126
1.00217
1.00831
1.00985
1.08705
1.08499
1.70859
2.21091
5.09135
10.2627
10.4185
10.2183
10.1052
10.1476
10.2702
10.4243
10.5357
10.6227
10.7045
10.7854
10.8634
10.9373
11.0077
11.0746
11.138
11.1982
11.2552
11.3086
11.3584
11.4047
11.4467
11.4838
11.5161
11.5433
11.5651
11.5819
11.5929
11.6014
1
1
1.00001
1.00001
1.00001
1.00001
1.00001
1.00001
1.00001
1.00005
1.0002
1.00043
1.00135
1.00234
1.00842
1.00956
1.08061
1.07758
1.65174
2.10377
4.81743
9.83995
10.4004
10.2526
10.123
10.154
10.257
10.4069
10.5186
10.6053
10.6858
10.7651
10.8415
10.9139
10.9826
11.0477
11.1091
11.1673
11.2224
11.2738
11.3216
11.366
11.4061
11.4415
11.4722
11.4981
11.5188
11.5348
11.5453
11.5533
1
1
1
1.00001
1.00001
1.00001
1.00001
1.00001
1.00001
1.00005
1.00019
1.0004
1.00126
1.00224
1.00755
1.00989
1.07193
1.06909
1.59453
1.99184
4.51911
9.31286
10.4038
10.2931
10.144
10.1634
10.2436
10.3844
10.4971
10.5842
10.6634
10.7409
10.8155
10.8861
10.9529
11.0159
11.0752
11.1311
11.1839
11.2329
11.2783
11.3204
11.3584
11.3917
11.4206
11.4448
11.4643
11.4795
11.4895
11.4976
1
1
1
1
1.00001
1.00001
1.00001
1.00001
1.00001
1.00004
1.00017
1.00036
1.00108
1.00193
1.00641
1.00998
1.06167
1.07409
1.51788
1.87474
4.19644
8.66609
10.4263
10.3478
10.1734
10.174
10.228
10.3515
10.47
10.5592
10.6368
10.712
10.7846
10.8532
10.9178
10.9784
11.0351
11.0884
11.1384
11.1845
11.2272
11.2665
11.3019
11.3329
11.3597
11.3822
11.4003
11.4145
11.4236
11.4313
1
1
1
1
1.00001
1.00001
1.00001
1
1.00001
1.00004
1.00016
1.00034
1.00101
1.00189
1.00552
1.00951
1.05312
1.06451
1.45213
1.75749
3.83262
7.88494
10.4867
10.4212
10.2195
10.1689
10.2093
10.3148
10.4379
10.5296
10.6054
10.6778
10.748
10.8143
10.8766
10.9345
10.9882
11.0383
11.085
11.1278
11.1671
11.2031
11.2353
11.2634
11.2876
11.3078
11.3241
11.3373
11.346
11.354
1
1
1
1
1
1
1
1
1.00001
1.00005
1.00016
1.00032
1.00095
1.0017
1.00528
1.00805
1.04616
1.04205
1.40349
1.6069
3.46036
6.96587
10.5999
10.5193
10.2553
10.1491
10.18
10.2721
10.3995
10.4942
10.5685
10.638
10.7053
10.7689
10.8283
10.883
10.9333
10.9797
11.0224
11.0611
11.0963
11.1282
11.1564
11.1807
11.2015
11.2189
11.2328
11.244
11.2512
11.2587
1
1
1
1
1
1
1
1
1.00001
1.00004
1.00014
1.00028
1.00081
1.00153
1.00423
1.00683
1.03578
1.0382
1.3278
1.45889
3.07643
5.94432
10.7271
10.6256
10.2959
10.1225
10.1433
10.2213
10.3523
10.4507
10.524
10.5905
10.6548
10.7155
10.7716
10.8227
10.8689
10.9111
10.9491
10.9828
11.0128
11.0394
11.0624
11.0814
11.0975
11.1105
11.121
11.1297
11.136
11.1438
1
1
1
1
1
1
1
1.00001
1.00002
1.00008
1.00018
1.00051
1.00102
1.00289
1.0055
1.01664
1.02446
1.02634
1.26745
1.35721
2.74042
4.96442
10.6282
10.5987
10.3387
10.0977
10.1052
10.1669
10.2958
10.3993
10.4722
10.5353
10.5959
10.6529
10.7051
10.752
10.7936
10.8305
10.8629
10.8906
10.9141
10.9337
10.9496
10.9616
10.9708
10.9775
10.9819
10.9858
10.9882
10.9946
1
1
1
1
1
1
1
1
1.00001
1.00005
1.0001
1.00029
1.00053
1.00152
1.00273
1.00838
1.01277
1.07745
1.09519
1.65915
2.13932
4.91621
9.95135
10.4285
10.2567
10.0351
10.0421
10.1002
10.2246
10.3321
10.4063
10.4675
10.5252
10.5782
10.6264
10.6687
10.7049
10.7359
10.7616
10.7817
10.7967
10.8074
10.8135
10.8148
10.8133
10.8091
10.8036
10.7997
10.7969
10.8021
1
1
1
1
1
1
1
1.00001
1.00001
1.00004
1.00009
1.00026
1.00048
1.00138
1.00243
1.00713
1.00955
1.06513
1.07609
1.55608
1.93543
4.3968
9.01033
10.2535
10.1643
9.98557
9.98764
10.0346
10.1435
10.2521
10.327
10.3863
10.4405
10.49
10.5336
10.5706
10.6011
10.6244
10.6423
10.6533
10.6577
10.6562
10.6493
10.6353
10.6168
10.5946
10.5701
10.5474
10.5283
10.526
1
1
1
1
1
1
1
1.00001
1.00001
1.00003
1.00006
1.00019
1.00032
1.00111
1.00195
1.00596
1.00769
1.05402
1.05594
1.47243
1.75323
3.87886
7.93084
10.2184
10.1705
10.0029
9.94922
9.97846
10.0599
10.1655
10.2412
10.2972
10.3458
10.39
10.4278
10.4581
10.4814
10.4965
10.5038
10.5031
10.4954
10.4772
10.4493
10.4128
10.3677
10.3147
10.2546
10.1935
10.1352
10.105
1
1
1
1
1
1
1
1
1.00001
1.00001
1.00002
1.00009
1.00009
1.00082
1.00148
1.00448
1.00528
1.04039
1.04229
1.37322
1.55152
3.3194
6.57887
10.206
10.1974
10.0306
9.90223
9.91553
9.97181
10.0736
10.148
10.2003
10.2438
10.2807
10.3101
10.3319
10.3457
10.3501
10.3465
10.3332
10.3047
10.2634
10.2101
10.1416
10.0557
9.94951
9.82063
9.66981
9.50065
9.33383
1
1
1
1
1
1
1
1
1
1.00001
1.00002
1.00004
1.00022
1.00025
1.00186
1.00384
1.00954
1.01471
1.08772
1.10244
1.77329
2.32927
5.2706
10.1002
10.1745
10.0035
9.8249
9.8296
9.87269
9.96461
10.0399
10.0877
10.1216
10.1483
10.1678
10.1781
10.1779
10.1713
10.1513
10.111
10.0562
9.985
9.89261
9.77249
9.61597
9.40804
9.12297
8.70952
8.05671
6.74123
1
1
1
1
1
1
1
1
1
1
1.00001
1.00002
1.00016
1.00019
1.00144
1.0031
1.00673
1.01213
1.06874
1.08197
1.59969
2.00585
4.58005
9.26351
10.0295
9.90497
9.72261
9.72378
9.76067
9.84398
9.91948
9.963
9.98771
10.0026
10.0085
10.006
9.99418
9.96539
9.91555
9.84998
9.76569
9.6571
9.51724
9.3371
9.1034
8.79632
8.38567
7.82731
7.08995
6.03699
1
1
1
1
1
1
1
1
1
1
1.00002
1.00001
1.00013
1.00014
1.00108
1.00191
1.00539
1.0079
1.04855
1.05559
1.44579
1.72164
3.75996
7.61156
9.83023
9.82574
9.72433
9.65092
9.66898
9.72407
9.7952
9.83476
9.85069
9.85344
9.84967
9.83549
9.80281
9.74827
9.67806
9.58966
9.47733
9.33772
9.16218
8.94453
8.67293
8.33619
7.92089
7.41427
6.83388
6.13824
1
1
1
1
1
1
1
1
1
1
1.00001
1.00001
1.00005
1.00005
1.00051
1.00059
1.00397
1.0062
1.02863
1.02699
1.28745
1.361
2.82437
5.19612
9.54021
9.91359
9.79595
9.64216
9.62825
9.64844
9.69463
9.727
9.73332
9.72907
9.71428
9.68104
9.62629
9.5565
9.47042
9.36451
9.23455
9.07674
8.88657
8.65929
8.39019
8.07509
7.71311
7.30555
6.86208
6.37777
1
1
1
1
1
1
1
1
1
1
1.00001
1.00001
1.00003
1.00004
1.00039
1.00045
1.00323
1.00714
1.01483
1.0209
1.16818
1.21149
2.33561
3.76892
8.62754
9.87028
9.80145
9.6462
9.56884
9.57525
9.59933
9.62723
9.62914
9.62193
9.5991
9.55089
9.48374
9.40361
9.30772
9.19241
9.055
8.8929
8.70459
8.48684
8.24037
7.9619
7.65736
7.31988
6.95529
6.59428
1
1
1
1
1
1
1
1
1
1
1
1.00001
1.00002
1.00007
1.00006
1.00068
1.00082
1.00507
1.0072
1.0389
1.03729
1.37618
1.51774
3.31518
6.4633
9.62767
9.812
9.69518
9.54238
9.50971
9.51875
9.53895
9.54034
9.5323
9.50615
9.45047
9.37526
9.28881
9.18822
9.07017
8.93313
8.77531
8.59726
8.39678
8.1752
7.93294
7.66699
7.3773
7.09557
6.80168
1
1
1
1
1
1
1
1
1
1
1
1.00001
1.00001
1.00006
1.00006
1.00046
1.00047
1.00457
1.01107
1.01338
1.01497
1.20304
1.20767
2.50517
4.10348
8.96926
9.84456
9.75189
9.5612
9.47047
9.46865
9.47429
9.47593
9.46837
9.44215
9.38451
9.30359
9.21289
9.11068
8.99362
8.86065
8.71051
8.54423
8.36081
8.16224
7.94317
7.7081
7.47783
7.24416
6.99732
1
1
1
1
1
1
1
1
1
1
1
1.00001
1.00001
1.00004
1.00004
1.00034
1.00032
1.0029
1.00621
1.0138
1.02142
1.12947
1.14681
2.11526
3.1055
7.29859
9.72618
9.73221
9.61138
9.46202
9.424
9.42772
9.43394
9.42776
9.40367
9.34806
9.26278
9.1688
9.06635
8.952
8.82427
8.68313
8.52901
8.36102
8.17547
7.98147
7.79023
7.59264
7.38949
7.17551
1
1
1
1
1
1
1
1
1
1
1
1
1.00001
1.00003
1.00003
1.00025
1.00026
1.002
1.00443
1.0094
1.0141
1.08865
1.08704
1.72782
2.18222
4.91465
9.36391
9.81543
9.7008
9.49947
9.43583
9.43578
9.43775
9.4309
9.40556
9.34789
9.25822
9.16068
9.05676
8.94393
8.82019
8.68438
8.53603
8.37781
8.21487
8.05165
7.88201
7.70527
7.52365
7.33377
1
1
1
1
1
1
1
1
1
1
1
1
1.00001
1.00001
1.00005
1.00006
1.00042
1.00044
1.0032
1.0073
1.01448
1.02541
1.14599
1.17525
2.25609
3.48682
8.15256
9.80209
9.76427
9.62296
9.49836
9.47305
9.46912
9.45706
9.42542
9.35975
9.26841
9.16902
9.06394
8.95128
8.8297
8.69927
8.56167
8.42114
8.278
8.12812
7.97184
7.81045
7.64623
7.47594
1
1
1
1
1
1
1
1
1
1
1
1
1
1.00001
1.00003
1.00006
1.00025
1.00031
1.00201
1.0044
1.00954
1.01523
1.09406
1.07989
1.91102
2.44908
5.93691
9.65748
9.9341
9.82169
9.63435
9.56419
9.54591
9.52119
9.47179
9.3932
9.29804
9.19526
9.08816
8.97622
8.85913
8.7378
8.61283
8.48161
8.34498
8.20358
8.05831
7.91037
7.76184
7.6092
1
1
1
1
1
1
1
1
1
1
1
1
1
1.00001
1.00001
1.00005
1.00007
1.00044
1.00047
1.00346
1.00806
1.01519
1.02681
1.16586
1.20435
2.42012
3.88853
8.97774
10.2457
10.1374
9.89952
9.73136
9.65016
9.59195
9.52169
9.43362
9.33381
9.22874
9.12119
9.01129
8.89804
8.78097
8.66009
8.53542
8.40764
8.27715
8.1446
8.01094
7.87689
7.73969
1
1
1
1
1
1
1
1
1
1
1
1
1
1
1.00001
1.00002
1.00007
1.00008
1.00068
1.00076
1.00452
1.0085
1.03054
1.02881
1.37209
1.48572
3.38073
6.75712
10.3053
10.4321
10.2484
9.91583
9.73029
9.6275
9.54164
9.44913
9.34959
9.24627
9.14103
9.03472
8.92703
8.81711
8.70466
8.58972
8.47261
8.35397
8.2344
8.1137
7.99264
7.8689
1
1
1
1
1
1
1
1
1
1
1
1
1
1
1
1.00002
1.00003
1.00019
1.00019
1.00167
1.00392
1.00786
1.01041
1.0809
1.07528
1.71567
2.14373
5.06012
10.001
10.5615
10.3638
9.97044
9.7335
9.61044
9.52424
9.43835
9.34568
9.24956
9.15179
9.05276
8.95281
8.85189
8.74971
8.64604
8.54075
8.43388
8.32554
8.21621
8.10668
7.99481
1
1
1
1
1
1
1
1
1
1
1
1
1
1
1
1.00002
1.00002
1.00017
1.00016
1.00131
1.00279
1.00608
1.0168
1.05007
1.04203
1.53895
1.79239
4.30202
8.84153
10.6052
10.4504
10.0573
9.73506
9.57224
9.48426
9.41175
9.33454
9.25132
9.16324
9.0744
8.985
8.89442
8.80222
8.70827
8.61266
8.51563
8.41735
8.3182
8.21888
8.11709
1
1
1
1
1
1
1
1
1
1
1
1
1
1
1.00001
1.00001
1.00005
1.00006
1.00032
1.00037
1.00226
1.0026
1.01434
1.02676
1.09841
1.07775
2.10154
2.85499
7.30483
10.7434
10.5654
10.1042
9.71976
9.52657
9.43939
9.38524
9.33228
9.26145
9.18572
9.10727
9.02671
8.9443
8.86064
8.77552
8.68878
8.60058
8.51117
8.42062
8.32934
8.23505
1
1
1
1
1
1
1
1
1
1
1
1
1
1
1
1
1.00003
1.00004
1.00023
1.00018
1.0018
1.00172
1.01212
1.02075
1.08134
1.07052
1.80299
2.29788
5.62714
10.6897
10.571
10.141
9.7158
9.50834
9.42941
9.38887
9.34223
9.28594
9.22172
9.15245
9.08002
9.00517
8.92795
8.84887
8.76843
8.68675
8.60417
8.52029
8.43507
8.34632
1
1
1
1
1
1
1
1
1
1
1
1
1
1
1
1.00001
1.00001
1.00006
1.00008
1.00047
1.00047
1.00346
1.00358
1.02355
1.03976
1.16483
1.1465
2.56254
4.12241
9.79732
10.4631
10.1904
9.7378
9.51519
9.43831
9.40608
9.37228
9.3275
9.27156
9.20782
9.14015
9.06969
8.99695
8.92237
8.84617
8.7683
8.68852
8.60719
8.52472
8.43933
1
1
1
1
1
1
1
1
1
1
1
1
1
1
1
1.00001
1.00001
1.00009
1.0002
1.00033
1.00034
1.00264
1.00517
1.01365
1.0449
1.10509
1.10574
2.24666
3.41725
8.41789
10.4681
10.2647
9.82687
9.56219
9.47179
9.4455
9.42103
9.37918
9.32344
9.26013
9.1932
9.12471
9.05447
8.98267
8.90954
8.83501
8.75906
8.68183
8.60362
8.5228
1
1
1
1
1
1
1
1
1
1
1
1
1
1
1
1
1.00001
1.00002
1.00011
1.00013
1.00074
1.00076
1.00549
1.01313
1.01625
1.01004
1.28797
1.30408
3.01668
5.8014
10.5962
10.5166
10.1163
9.72089
9.56261
9.51904
9.48595
9.43631
9.37387
9.30633
9.23761
9.1688
9.10035
9.03158
8.9623
8.89175
8.82024
8.74765
8.67416
8.59819
1
1
1
1
1
1
1
1
1
1
1
1
1
1
1
1
1.00001
1.00002
1.00009
1.00014
1.00057
1.0008
1.00372
1.00488
1.02577
1.03947
1.1907
1.22952
2.62496
4.45233
10.2248
10.5031
10.2169
9.79515
9.59762
9.53243
9.49419
9.44535
9.38519
9.32084
9.25603
9.19246
9.12954
9.06626
9.00252
8.9379
8.87209
8.80588
8.73871
8.66917
1
1
1
1
1
1
1
1
1
1
1
1
1
1
1
1
1
1.00002
1.00002
1.00015
1.00038
1.00075
1.0026
1.00349
1.01638
1.04365
1.03962
1.54255
1.74418
4.38207
8.94706
10.5048
10.3226
9.91305
9.65298
9.54584
9.49952
9.45703
9.40349
9.34475
9.28339
9.22264
9.1632
9.10526
9.04692
8.98817
8.92898
8.86888
8.80793
8.74481
1
1
1
1
1
1
1
1
1
1
1
1
1
1
1
1
1
1.00001
1.00002
1.00009
1.00012
1.00067
1.00174
1.00221
1.0102
1.02335
1.01495
1.36498
1.44769
3.38818
6.81252
10.8916
10.7195
10.2078
9.78608
9.59278
9.52487
9.48294
9.43439
9.37693
9.31567
9.26106
9.20281
9.14673
9.09216
9.03777
8.98329
8.9284
8.87328
8.81694
1
1
1
1
1
1
1
1
1
1
1
1
1
1
1
1
1
1.00002
1.00003
1.00012
1.0004
1.00052
1.00046
1.00581
1.01526
1.01483
1.01428
1.24613
1.24472
2.91444
5.07998
11.0426
10.8254
10.3267
9.83815
9.61441
9.5419
9.50595
9.46569
9.41443
9.35939
9.30776
9.25339
9.2006
9.14897
9.09768
9.04639
8.9951
8.94389
8.89208
1
1
1
1
1
1
1
1
1
1
1
1
1
1
1
1
1
1
1.00003
1.00006
1.00025
1.00032
1.00201
1.00492
1.00664
1.02182
1.06801
1.06656
1.72952
2.05909
5.32024
10.5351
10.5276
10.2249
9.81953
9.61584
9.54934
9.52232
9.49272
9.45329
9.40608
9.35621
9.30575
9.25561
9.20612
9.15589
9.1056
9.05718
9.00812
8.95918
1
1
1
1
1
1
1
1
1
1
1
1
1
1
1
1
1
1.00001
1.00002
1.00009
1.00014
1.00053
1.00088
1.00321
1.00417
1.021
1.05183
1.04899
1.60371
1.85922
4.73285
9.64962
10.6048
10.3625
9.90641
9.66596
9.58453
9.56115
9.53946
9.50388
9.45831
9.40868
9.35811
9.30775
9.25756
9.20767
9.15787
9.10965
9.06176
9.01433
1
1
1
1
1
1
1
1
1
1
1
1
1
1
1
1
1
1
1.00002
1.00002
1.00016
1.00037
1.00072
1.00238
1.00243
1.01325
1.02869
1.01835
1.49268
1.60613
4.16308
8.54333
10.9457
10.7112
10.1419
9.76885
9.64205
9.62
9.60384
9.57098
9.52234
9.46696
9.41284
9.35839
9.30577
9.25396
9.20216
9.15211
9.10425
9.05556
1
1
1
1
1
1
1
1
1
1
1
1
1
1
1
1
1
1.00001
1.00001
1.00004
1.00005
1.00028
1.0003
1.00249
1.00474
1.01377
1.01091
1.12863
1.089
2.30115
3.33252
8.41032
10.9017
10.588
9.97269
9.67945
9.61658
9.61569
9.60961
9.58745
9.54001
9.48228
9.42849
9.37703
9.32645
9.27615
9.22633
9.17614
9.1268
9.07778
1
1
1
1
1
1
1
1
1
1
1
1
1
1
1
1
1
1.00001
1.00003
1.00004
1.00019
1.00031
1.00098
1.00208
1.00471
1.01269
1.02206
1.1109
1.11124
2.16184
2.99399
7.81591
10.8152
10.5093
9.92095
9.67744
9.63944
9.64017
9.63285
9.6075
9.55548
9.4969
9.44222
9.3907
9.34072
9.29103
9.24136
9.1913
9.14163
9.09139
1
1
1
1
1
1
1
1
1
1
1
1
1
1
1
1
1.00001
1.00001
1.00003
1.00005
1.00016
1.00023
1.00087
1.00098
1.00576
1.00794
1.02158
1.10115
1.0949
2.04646
2.68096
7.17947
11.0218
10.6839
10.0361
9.75704
9.68983
9.6668
9.63768
9.59743
9.54688
9.49292
9.44055
9.39037
9.34227
9.29476
9.24646
9.19836
9.14946
9.09975
1
1
1
1
1
1
1
1
1
1
1
1
1
1
1
1
1.00001
1.00001
1.00003
1.00005
1.00016
1.00024
1.00083
1.00095
1.00499
1.00635
1.02883
1.08383
1.05549
1.8973
2.39419
6.22236
11.1584
10.835
10.1742
9.82948
9.6933
9.64742
9.6201
9.58427
9.53914
9.48895
9.4391
9.38965
9.341
9.29429
9.24789
9.20148
9.15501
9.10789
1
1
1
1
1
1
1
1
1
1
1
1
1
1
1
1
1
1.00001
1.00002
1.00004
1.00014
1.00023
1.00078
1.00147
1.00388
1.01006
1.01524
1.0821
1.08035
1.7671
2.15279
5.5641
10.9981
10.8707
10.3844
9.94062
9.71653
9.64284
9.61707
9.58681
9.54405
9.49471
9.44431
9.39541
9.34874
9.30276
9.25758
9.21249
9.16751
9.12236
1
1
1
1
1
1
1
1
1
1
1
1
1
1
1
1
1
1
1.00002
1.00002
1.0001
1.00015
1.00064
1.00103
1.00381
1.00703
1.01651
1.06999
1.06803
1.68457
2.01139
5.17994
10.5264
10.9016
10.5441
10.01
9.73577
9.64684
9.62347
9.5977
9.55521
9.50523
9.45417
9.40499
9.35862
9.31352
9.26904
9.22489
9.18122
9.13736
1
1
1
1
1
1
1
1
1
1
1
1
1
1
1
1
1
1
1.00001
1.00002
1.00008
1.00013
1.00051
1.0008
1.00312
1.00471
1.01487
1.05682
1.05318
1.62057
1.90091
4.88329
10.0416
10.9424
10.604
10.0328
9.7423
9.65464
9.64016
9.616
9.5748
9.52339
9.46985
9.42084
9.3752
9.33119
9.28756
9.24434
9.20209
9.15971
1
1
1
1
1
1
1
1
1
1
1
1
1
1
1
1
1
1
1.00001
1.00002
1.00007
1.00011
1.00044
1.00072
1.0026
1.00334
1.01865
1.0241
1.01411
1.57065
1.75646
4.68667
9.62265
10.9202
10.6204
10.0469
9.7497
9.65786
9.64361
9.62354
9.5814
9.53197
9.47857
9.42951
9.38451
9.34144
9.29883
9.25662
9.21546
9.1767
1
1
1
1
1
1
1
1
1
1
1
1
1
1
1
1
1
1
1
1.00004
1.00009
1.00013
1.00018
1.00134
1.00334
1.00509
1.02332
1.02748
1.01456
1.57132
1.71935
4.58666
9.35969
10.8999
10.6341
10.0807
9.77176
9.66148
9.63368
9.61383
9.57808
9.53034
9.48696
9.44159
9.3987
9.35736
9.31625
9.27488
9.23319
9.19282
1
1
1
1
1
1
1
1
1
1
1
1
1
1
1
1
1
1
1.00001
1.00001
1.00004
1.00009
1.00029
1.00046
1.00312
1.0032
1.01925
1.03089
1.14661
1.10255
2.50349
3.80442
9.3822
10.7746
10.487
9.9827
9.73902
9.66805
9.64081
9.60784
9.56436
9.52056
9.47982
9.44152
9.40472
9.36787
9.32996
9.291
9.24938
9.20594
1
1
1
1
1
1
1
1
1
1
1
1
1
1
1
1
1
1.00001
1.00001
1.00001
1.00007
1.00017
1.00029
1.00067
1.00303
1.00358
1.02007
1.0366
1.14184
1.14419
2.41552
3.71407
9.14685
10.6231
10.3769
9.91336
9.69708
9.64906
9.64219
9.62695
9.5948
9.55128
9.50844
9.46954
9.43325
9.39712
9.35993
9.32118
9.27791
9.23137
1
1
1
1
1
1
1
1
1
1
1
1
1
1
1
1
1
1
1.00002
1.00002
1.00009
1.00014
1.00046
1.00092
1.00254
1.00243
1.01163
1.01077
0.987758
1.57069
1.65381
4.56966
9.13918
10.5199
10.3292
9.91556
9.67431
9.59592
9.58602
9.58149
9.56828
9.53904
9.49782
9.45803
9.42263
9.39056
9.35744
9.32169
9.28407
9.24436
1
1
1
1
1
1
1
1
1
1
1
1
1
1
1
1
1
1
1.00001
1.00001
1.00005
1.00011
1.00026
1.00065
1.00296
1.00349
1.01919
1.03259
1.14237
1.09733
2.46227
3.68707
9.03738
10.5178
10.2854
9.84088
9.63996
9.60374
9.60496
9.60106
9.5862
9.55367
9.51264
9.4745
9.44076
9.40905
9.37311
9.33712
9.29762
9.2543
3.03412
3.30203
4.65434
4.32039
4.13928
3.99165
3.91751
3.86423
3.80316
3.75221
3.72861
3.72096
3.71972
3.72742
3.74638
3.77843
3.82249
3.87576
3.93571
4.00005
4.06695
4.13521
4.20362
4.27063
4.33571
4.39787
4.45624
4.51043
4.55999
4.60523
4.64577
4.68209
4.71334
4.74059
4.76421
4.78387
4.79831
4.80827
4.81316
4.81416
4.81226
4.80698
4.79632
4.78223
4.76502
4.74546
4.72352
4.69944
4.67307
4.645
4.61511
4.58368
4.55078
4.51659
4.48123
4.4449
4.40762
4.3696
4.33082
4.29138
4.2513
4.21063
4.16936
4.12753
4.08511
4.04216
3.99871
3.95472
3.91034
3.86549
3.82033
3.77484
3.7291
3.68317
3.63709
3.59095
3.54483
3.49879
3.45291
3.40725
3.36191
3.31691
3.27232
3.22817
3.18461
3.14165
3.09937
3.05775
3.01685
2.97664
2.9373
2.89879
2.86119
2.82458
2.78919
2.7553
2.72346
2.69455
2.67005
2.65349
4.08025
4.25739
4.63242
4.34267
4.11052
4.001
3.94
3.88919
3.82003
3.75941
3.71925
3.70593
3.70764
3.72257
3.74322
3.77432
3.81839
3.87162
3.93138
3.99541
4.06175
4.12954
4.19776
4.26454
4.32938
4.39114
4.44922
4.50333
4.55289
4.59832
4.63893
4.67552
4.70747
4.73517
4.7588
4.77824
4.79288
4.80291
4.80807
4.80893
4.80774
4.80352
4.79386
4.77862
4.76121
4.74178
4.72013
4.69633
4.67033
4.64244
4.61272
4.5814
4.54863
4.51455
4.47928
4.44301
4.40578
4.36775
4.32897
4.28953
4.24943
4.20875
4.16746
4.12562
4.08321
4.04027
3.99684
3.95291
3.90857
3.86381
3.81873
3.77331
3.72766
3.68177
3.63577
3.58967
3.54361
3.4976
3.45176
3.40616
3.36091
3.31595
3.27139
3.2272
3.18364
3.14068
3.09842
3.05682
3.01597
2.9759
2.93656
2.89804
2.8604
2.82378
2.78829
2.75433
2.72224
2.69303
2.66785
2.64999
5.12506
4.89637
4.75367
4.46042
4.18552
4.0232
3.92034
3.8516
3.79119
3.74426
3.71902
3.71651
3.71875
3.72522
3.74119
3.772
3.81566
3.8688
3.92852
3.9931
4.05989
4.12778
4.19549
4.26221
4.32668
4.38831
4.44611
4.49994
4.54928
4.5943
4.63461
4.67059
4.70213
4.72949
4.75259
4.77157
4.78598
4.79576
4.80079
4.80132
4.80048
4.79729
4.78948
4.77379
4.7557
4.73609
4.71465
4.69116
4.66558
4.63798
4.60857
4.57748
4.54492
4.51101
4.47587
4.43966
4.40248
4.36448
4.32568
4.28623
4.2461
4.20539
4.16409
4.12222
4.07982
4.03689
3.99348
3.9496
3.90532
3.86064
3.81564
3.7703
3.72474
3.67894
3.63306
3.5871
3.54118
3.49523
3.4493
3.40383
3.35872
3.31399
3.26956
3.22577
3.18229
3.13952
3.09723
3.0558
3.0149
2.97492
2.93548
2.89707
2.8593
2.82273
2.78706
2.75302
2.72058
2.69094
2.66484
2.64519
5.65656
5.26667
5.00751
4.69987
4.38247
4.15872
4.0245
3.93637
3.86227
3.79705
3.75091
3.72877
3.72857
3.73313
3.7485
3.78155
3.82769
3.87855
3.93528
3.99682
4.06139
4.12781
4.1944
4.25975
4.32287
4.38318
4.43989
4.49273
4.54118
4.5853
4.62483
4.6599
4.69059
4.71732
4.73996
4.75861
4.77281
4.78258
4.78757
4.78797
4.78736
4.78493
4.77867
4.76539
4.74665
4.72645
4.705
4.68179
4.65662
4.6295
4.60053
4.56984
4.5376
4.50394
4.46904
4.43304
4.39601
4.35809
4.31937
4.27991
4.23981
4.19906
4.15774
4.11586
4.07346
4.03059
3.98724
3.94353
3.8994
3.85497
3.81015
3.76515
3.71979
3.67427
3.62845
3.58285
3.53714
3.49159
3.44621
3.40084
3.35557
3.31077
3.26644
3.22266
3.1794
3.13671
3.09461
3.05319
3.01244
2.97245
2.93317
2.89473
2.85708
2.82043
2.78479
2.75053
2.71789
2.68762
2.66086
2.63923
6.01914
5.61726
5.31245
4.99637
4.67735
4.41405
4.21818
4.07304
3.95952
3.87283
3.81555
3.78694
3.78358
3.78578
3.79391
3.81337
3.85285
3.9016
3.95428
4.01079
4.07067
4.13314
4.1967
4.25984
4.32125
4.38003
4.43527
4.48688
4.53398
4.57692
4.61537
4.64939
4.6791
4.70474
4.72653
4.74451
4.75825
4.76767
4.77261
4.77259
4.77192
4.76969
4.76428
4.75295
4.73555
4.71518
4.69361
4.6703
4.64542
4.61868
4.59019
4.56004
4.52826
4.49505
4.46049
4.4248
4.38798
4.35029
4.31169
4.27238
4.23232
4.19163
4.15034
4.10848
4.06612
4.02328
3.98003
3.93642
3.89254
3.84819
3.80358
3.75871
3.71367
3.66847
3.62319
3.57765
3.53211
3.48668
3.44137
3.39627
3.35131
3.3068
3.26264
3.21908
3.17596
3.13349
3.09151
3.05028
3.00959
2.96976
2.93051
2.89221
2.85456
2.81801
2.78229
2.74798
2.71507
2.68434
2.65689
2.63322
6.3315
5.96504
5.64202
5.31345
4.98453
4.68933
4.44709
4.25879
4.11478
4.00711
3.93087
3.88312
3.86031
3.85664
3.85884
3.86714
3.88734
3.9286
3.97791
4.02972
4.08362
4.14018
4.19844
4.25667
4.31433
4.37026
4.42353
4.47336
4.51915
4.56085
4.59805
4.63102
4.65985
4.68465
4.7057
4.72313
4.73669
4.74638
4.75169
4.75166
4.75107
4.74914
4.74458
4.73504
4.71923
4.69996
4.6786
4.65539
4.63059
4.60418
4.5762
4.54656
4.51537
4.48263
4.44856
4.41318
4.37674
4.33924
4.30085
4.26164
4.22166
4.18098
4.13967
4.09781
4.05543
4.0127
3.96938
3.92599
3.88226
3.8385
3.79432
3.74995
3.70517
3.66039
3.6153
3.57021
3.52492
3.47985
3.43477
3.39003
3.34537
3.30118
3.25721
3.21389
3.17092
3.1287
3.08688
3.0459
3.00536
2.96576
2.92665
2.88855
2.85103
2.81464
2.77901
2.74474
2.71176
2.68071
2.65286
2.6277
6.60368
6.27485
5.95701
5.6239
5.28964
4.97867
4.70984
4.49038
4.31681
4.18267
4.08243
4.01259
3.9702
3.95013
3.94666
3.94833
3.95513
3.9721
4.00693
4.0512
4.09979
4.15003
4.20121
4.2535
4.30601
4.35782
4.40798
4.45556
4.4998
4.54045
4.57651
4.60883
4.63717
4.66143
4.68212
4.69925
4.71279
4.72255
4.72844
4.72846
4.72791
4.72619
4.72218
4.71384
4.70001
4.6823
4.66169
4.6388
4.61415
4.58796
4.56032
4.53121
4.50053
4.46841
4.43481
4.39996
4.36387
4.32676
4.28859
4.24959
4.20971
4.16914
4.12787
4.08609
4.04373
4.0012
3.95845
3.91539
3.8719
3.82829
3.78434
3.74025
3.69579
3.65128
3.6065
3.56176
3.51683
3.47208
3.4273
3.38285
3.3385
3.2946
3.25092
3.20786
3.16512
3.12316
3.08156
3.04085
3.00053
2.96118
2.92229
2.88443
2.84714
2.81095
2.77553
2.74139
2.70852
2.67736
2.6494
2.62345
6.83513
6.53965
6.23587
5.91063
5.58151
5.26855
4.98818
4.74902
4.55179
4.3931
4.26875
4.17518
4.10944
4.06794
4.04511
4.0345
4.03489
4.03835
4.04901
4.07262
4.11274
4.15628
4.20146
4.24735
4.29394
4.3404
4.38614
4.43047
4.47252
4.51165
4.54713
4.57898
4.60717
4.63133
4.65223
4.66956
4.68339
4.69357
4.70035
4.70135
4.70091
4.6994
4.6959
4.68869
4.67662
4.66066
4.64132
4.61923
4.59503
4.56919
4.54185
4.51312
4.48293
4.45131
4.41824
4.38384
4.34818
4.31137
4.27348
4.23462
4.19486
4.15432
4.11311
4.07147
4.02952
3.98719
3.94456
3.90171
3.85847
3.81507
3.77134
3.72754
3.68342
3.63929
3.59488
3.55057
3.50606
3.46175
3.41737
3.37334
3.32938
3.28589
3.24259
3.19991
3.15751
3.11588
3.07462
3.03423
2.99426
2.95523
2.91671
2.87918
2.84226
2.80642
2.77138
2.73757
2.70506
2.6741
2.64637
2.62041
7.03209
6.76439
6.48134
6.17301
5.85653
5.55036
5.26931
5.0213
4.80808
4.62924
4.48255
4.3653
4.27511
4.20938
4.16441
4.13528
4.11853
4.1122
4.11327
4.1185
4.13237
4.16133
4.198
4.23781
4.27903
4.32069
4.36203
4.40258
4.44168
4.47869
4.51303
4.54432
4.57245
4.59715
4.61844
4.63617
4.65047
4.66132
4.66895
4.67134
4.67099
4.66977
4.66691
4.66097
4.65054
4.63616
4.61827
4.59738
4.57406
4.54881
4.52188
4.4935
4.46366
4.43248
4.39986
4.36596
4.33073
4.29432
4.25672
4.2181
4.17844
4.13817
4.09733
4.05603
4.01428
3.97218
3.9297
3.88701
3.84398
3.8008
3.75735
3.71384
3.67009
3.62633
3.58236
3.53849
3.49442
3.45061
3.40665
3.3631
3.31953
3.27649
3.23356
3.19128
3.14924
3.10796
3.06705
3.02699
2.98738
2.94872
2.91058
2.87346
2.83697
2.80159
2.76704
2.73376
2.70179
2.67141
2.64421
2.61897
7.20547
6.96273
6.70301
6.41549
6.11727
5.82474
5.54881
5.29686
5.07323
4.87895
4.71314
4.57425
4.46034
4.36965
4.3007
4.2498
4.21355
4.1895
4.17495
4.17178
4.17346
4.18019
4.19628
4.22869
4.2598
4.29745
4.33591
4.37357
4.40976
4.44417
4.47665
4.50688
4.5346
4.55944
4.58125
4.59969
4.61442
4.62597
4.63429
4.63838
4.63819
4.63734
4.63517
4.63055
4.62157
4.60876
4.5924
4.57294
4.55077
4.52637
4.5
4.47201
4.44248
4.41162
4.37935
4.34582
4.31094
4.27485
4.23748
4.19908
4.15984
4.11986
4.07924
4.03814
3.99652
3.95457
3.91223
3.8697
3.82689
3.78397
3.74083
3.69765
3.65429
3.61096
3.56745
3.52406
3.4805
3.4372
3.39375
3.35073
3.30765
3.26513
3.22268
3.1809
3.13935
3.09855
3.05812
3.01854
2.97943
2.94127
2.90366
2.8671
2.8312
2.79648
2.76261
2.73011
2.699
2.66964
2.64342
2.61948
7.36626
7.14666
6.91028
6.64497
6.36588
6.08724
5.81897
5.56812
5.33901
5.13346
4.95137
4.79257
4.65656
4.54247
4.45014
4.37646
4.31899
4.2758
4.24477
4.22511
4.21401
4.21428
4.21732
4.22677
4.24754
4.27313
4.30716
4.34302
4.37745
4.40983
4.44041
4.46916
4.49592
4.5204
4.54217
4.56127
4.57678
4.58897
4.59793
4.60353
4.60368
4.60318
4.60159
4.598
4.59064
4.5792
4.56416
4.54612
4.52522
4.50183
4.47619
4.44871
4.41954
4.38896
4.35696
4.32369
4.28908
4.25321
4.21612
4.17812
4.13924
4.09963
4.05927
4.01839
3.97696
3.93521
3.89307
3.85078
3.80822
3.76562
3.72283
3.68004
3.63711
3.59425
3.55124
3.50838
3.46538
3.42264
3.37976
3.33729
3.29477
3.25277
3.21086
3.16958
3.12855
3.08823
3.04832
3.00923
2.97066
2.93303
2.89603
2.86009
2.82492
2.79097
2.75808
2.72667
2.69685
2.66912
2.64408
2.62193
7.52105
7.32297
7.10825
6.86389
6.60283
6.33784
6.07791
5.82947
5.59664
5.38206
5.18691
5.01199
4.85743
4.72302
4.60867
4.51336
4.43528
4.37269
4.32382
4.28752
4.2624
4.24729
4.24251
4.24369
4.24872
4.2611
4.2825
4.31181
4.34444
4.37568
4.4051
4.43268
4.45841
4.48203
4.50328
4.52213
4.53827
4.55074
4.56036
4.56679
4.5682
4.56785
4.56663
4.56371
4.55769
4.54754
4.53364
4.51698
4.49727
4.47499
4.45026
4.42345
4.39473
4.36444
4.33264
4.29952
4.26502
4.22934
4.19258
4.15495
4.11638
4.07706
4.03697
3.99633
3.95514
3.91362
3.87174
3.82972
3.78747
3.74521
3.70279
3.66045
3.61798
3.57564
3.53316
3.4909
3.44847
3.40635
3.3641
3.32225
3.28036
3.23898
3.1977
3.15703
3.11663
3.07694
3.03766
2.99922
2.96132
2.92439
2.88814
2.85303
2.81881
2.78593