/*--------------------------------*- C++ -*----------------------------------*\
| =========                 |                                                 |
| \\      /  F ield         | OpenFOAM: The Open Source CFD Toolbox           |
|  \\    /   O peration     | Version:  2112                                  |
|   \\  /    A nd           | Website:  www.openfoam.com                      |
|    \\/     M anipulation  |                                                 |
\*---------------------------------------------------------------------------*/
FoamFile
{
    version     2.0;
    format      ascii;
    arch        "LSB;label=32;scalar=64";
    class       surfaceScalarField;
    location    "6";
    object      phi;
}
// * * * * * * * * * * * * * * * * * * * * * * * * * * * * * * * * * * * * * //

dimensions      [1 0 -1 0 0 0 0];

oriented        oriented;

internalField   nonuniform List<scalar> 
13790
(
0.00290515
5.67569e-09
0.00290514
2.85022e-09
0.00290514
1.08584e-09
0.00290514
1.58269e-10
0.00290514
5.28496e-10
0.00290514
7.71466e-10
0.00290514
9.83052e-10
0.00290514
9.4579e-10
0.00290514
1.78468e-09
0.00290514
9.86492e-10
0.00290513
4.88004e-09
0.00290512
1.31373e-08
0.00290514
4.48578e-08
0.00290413
1.21398e-07
0.00290643
8.16573e-08
0.00288613
-1.99955e-07
0.00290898
1.68229e-06
0.00277345
-2.14982e-07
0.00291152
-6.97781e-06
0.00290723
4.52755e-06
0.00282187
8.86494e-05
0.00278195
3.95822e-05
0.00269376
8.86805e-05
0.00261044
8.39245e-05
0.00252506
8.42334e-05
0.00244669
7.67621e-05
0.00237377
7.03959e-05
0.00230256
6.76789e-05
0.00223184
6.79249e-05
0.00216095
6.87788e-05
0.00208771
6.98225e-05
0.00201308
7.15411e-05
0.0019365
7.4542e-05
0.00185445
7.86197e-05
0.00176779
8.30293e-05
0.00167786
8.76169e-05
0.00158228
9.20314e-05
0.00148258
9.54384e-05
0.00138228
9.80399e-05
0.00127957
0.000100326
0.00117376
0.000101852
0.00106804
0.000103
0.000961101
0.000105459
0.00084823
0.000109949
0.000728164
0.000116543
0.00059934
0.000126671
0.000456981
0.000141111
0.000298176
0.000157997
0.000130028
0.000167051
0.000128314
0.00301309
6.48515e-09
0.00301309
4.73394e-09
0.00301309
3.37368e-09
0.00301309
2.42352e-09
0.00301308
2.26738e-09
0.00301308
2.25701e-09
0.00301308
2.22971e-09
0.00301308
1.95206e-09
0.00301308
3.15765e-09
0.00301308
2.17968e-09
0.00301307
7.95253e-09
0.00301311
1.70381e-08
0.00301282
7.20452e-08
0.00301338
1.27879e-07
0.00301069
6.37261e-07
0.00301869
1.21927e-06
0.00300333
2.39914e-06
0.00310652
-1.50485e-06
0.00298269
4.2744e-06
0.00300041
1.12718e-05
0.00293141
0.0001554
0.00284844
0.000121888
0.00277668
0.000160981
0.00267558
0.000185494
0.00258411
0.000174295
0.00249954
0.000159528
0.00242092
0.000146154
0.00234273
0.00014211
0.0022647
0.000143181
0.00218583
0.000145087
0.00210465
0.00014686
0.00202333
0.00014941
0.00194157
0.000153892
0.00185633
0.000160041
0.00176878
0.000167101
0.00167907
0.000175138
0.00158398
0.000183318
0.00148496
0.000190359
0.00138423
0.000196762
0.00127916
0.000202676
0.00116969
0.000207205
0.00105875
0.000211462
0.000944764
0.000217748
0.000824508
0.000226886
0.000698259
0.000239343
0.000565858
0.000257027
0.000426494
0.000279298
0.00028217
0.000301516
0.00013838
0.000309613
0.000264857
0.00312505
6.80473e-09
0.00312504
6.03207e-09
0.00312504
5.32245e-09
0.00312504
4.57195e-09
0.00312504
4.15052e-09
0.00312504
3.84587e-09
0.00312503
3.53626e-09
0.00312503
2.89525e-09
0.00312503
3.87312e-09
0.00312503
4.45889e-09
0.00312502
1.50684e-08
0.00312505
3.60896e-08
0.00312483
1.10835e-07
0.00312538
2.3568e-07
0.00312474
5.82274e-07
0.00312643
1.06138e-06
0.00311971
2.91253e-06
0.00320341
1.11935e-07
0.00309175
8.35317e-06
0.00311953
2.68675e-05
0.00301996
0.000247074
0.00291615
0.00022332
0.00282912
0.000248382
0.00274198
0.000273349
0.00265446
0.000260339
0.00256939
0.00024263
0.00248782
0.000224206
0.00240622
0.000219689
0.00232475
0.000221963
0.0022415
0.000225283
0.00215569
0.00022827
0.00206969
0.000232085
0.00198255
0.000237982
0.00189268
0.000245615
0.0018019
0.000254687
0.00170913
0.000265376
0.00161164
0.000276562
0.00151111
0.000287182
0.00140823
0.000297713
0.00129994
0.00030783
0.00118657
0.000316511
0.00107054
0.000325282
0.000949842
0.000336505
0.000822561
0.000350401
0.000690501
0.000367777
0.000554799
0.000390627
0.000415829
0.000417079
0.000275561
0.000440868
0.000136446
0.000447354
0.000399416
0.00324116
6.61996e-09
0.00324116
6.4213e-09
0.00324116
6.27815e-09
0.00324115
6.13726e-09
0.00324115
5.77705e-09
0.00324115
5.42132e-09
0.00324115
5.04773e-09
0.00324115
4.45226e-09
0.00324115
4.82293e-09
0.00324114
8.07534e-09
0.00324113
2.68224e-08
0.00324113
6.49896e-08
0.00324091
1.86275e-07
0.00324145
4.32877e-07
0.00324049
8.74689e-07
0.00324189
1.93937e-06
0.00323459
3.54856e-06
0.00332442
1.25279e-06
0.00320697
1.55952e-05
0.00323142
4.07946e-05
0.00313839
0.000335139
0.00301906
0.000339924
0.00291406
0.00035368
0.00282117
0.000367015
0.00273259
0.000347317
0.00264811
0.000325003
0.00256274
0.000305769
0.00247682
0.000301471
0.00239134
0.000304577
0.0023038
0.000309343
0.0022135
0.000313933
0.00212273
0.000319456
0.00203033
0.00032705
0.00193529
0.000336165
0.00183987
0.000346863
0.0017428
0.000359677
0.00164152
0.000373289
0.0015381
0.000386929
0.00143232
0.000401445
0.00132072
0.000415879
0.0012041
0.000429095
0.00108423
0.000443133
0.000958571
0.000459795
0.000826247
0.000478347
0.000690246
0.000499959
0.000552002
0.000526767
0.000412473
0.000555436
0.000273482
0.000578804
0.000136195
0.000583001
0.000533537
0.00336158
6.36881e-09
0.00336158
6.48904e-09
0.00336158
6.73667e-09
0.00336158
7.14998e-09
0.00336158
6.98249e-09
0.00336158
6.75665e-09
0.00336158
6.46107e-09
0.00336158
5.96826e-09
0.00336157
6.02453e-09
0.00336157
1.22423e-08
0.00336156
4.56953e-08
0.00336149
1.12408e-07
0.00336133
3.40885e-07
0.00336139
8.30107e-07
0.00335801
1.38908e-06
0.00337672
4.13627e-06
0.00335605
2.52753e-06
0.00343707
-3.31499e-06
0.00336428
2.5874e-05
0.00333205
5.36412e-05
0.00327147
0.000414453
0.00313249
0.000477458
0.00300522
0.000480949
0.00290502
0.000467486
0.00281541
0.00043481
0.00272991
0.000408042
0.00264069
0.000390814
0.00255037
0.000387266
0.0024614
0.000390461
0.00237066
0.00039618
0.00227738
0.000402338
0.00218347
0.000409927
0.00208709
0.000419645
0.00198773
0.000430605
0.00188803
0.00044332
0.00178622
0.000458432
0.00168009
0.000474412
0.00157234
0.000490911
0.00146243
0.000509315
0.00134631
0.000528083
0.00122538
0.000545703
0.00110152
0.000564918
0.000971879
0.000586969
0.000835527
0.000610325
0.000695819
0.000635982
0.000554972
0.000665532
0.000413789
0.000695396
0.000274041
0.000717436
0.000136596
0.000718804
0.000668006
0.00348648
6.0674e-09
0.00348648
6.27674e-09
0.00348648
6.71872e-09
0.00348648
7.43855e-09
0.00348648
7.5805e-09
0.00348648
7.57304e-09
0.00348648
7.42955e-09
0.00348648
7.00628e-09
0.00348648
7.5613e-09
0.00348648
9.33902e-09
0.00348651
2.36227e-08
0.00348657
5.33716e-08
0.00348666
1.52521e-07
0.00348791
3.46983e-07
0.00348635
7.6433e-07
0.00350814
1.42424e-06
0.00348638
2.2511e-06
0.00357051
-3.03675e-06
0.00349435
3.27138e-05
0.00346738
6.18618e-05
0.00344869
0.00045248
0.00328648
0.000638227
0.00311681
0.00064946
0.00300742
0.000575734
0.00291242
0.000527065
0.00282264
0.000494673
0.00272735
0.000481661
0.00263189
0.000478213
0.00253796
0.000480524
0.00244305
0.000486328
0.00234675
0.000493804
0.00224974
0.00050349
0.00214969
0.00051543
0.00204665
0.000528666
0.00194271
0.000543896
0.00183603
0.000561479
0.00172538
0.000579968
0.00161321
0.000599621
0.00149831
0.000621736
0.00137758
0.000644372
0.00125255
0.00066676
0.00112396
0.000691445
0.00098934
0.000718385
0.000848949
0.000745701
0.000706109
0.00077485
0.000562476
0.000806825
0.000419755
0.000836642
0.000278371
0.000857527
0.000139117
0.000856428
0.000804879
0.00361602
5.76708e-09
0.00361602
5.96543e-09
0.00361602
6.53333e-09
0.00361602
7.35907e-09
0.00361602
7.82718e-09
0.00361602
8.02289e-09
0.00361602
8.02936e-09
0.00361602
7.68647e-09
0.00361602
8.90247e-09
0.00361602
6.83515e-09
0.00361605
6.2905e-09
0.0036161
9.39515e-09
0.00361613
3.89146e-08
0.00361704
6.90242e-08
0.00361581
2.96795e-07
0.00363648
1.71934e-08
0.00361399
1.78917e-06
0.0036959
-2.19605e-06
0.00362807
3.35404e-05
0.00360671
6.46287e-05
0.00367969
0.000400205
0.00348353
0.000834599
0.0032642
0.000866867
0.00314327
0.000692677
0.00303328
0.000633022
0.00293234
0.000591993
0.00282636
0.000583069
0.00272311
0.000577041
0.00262371
0.00057651
0.00252365
0.000581091
0.00242297
0.000588834
0.00232247
0.000600079
0.00221891
0.00061423
0.00211233
0.000629878
0.00200478
0.000647962
0.00189322
0.000668749
0.00177713
0.000690041
0.00165998
0.000713107
0.00153953
0.000739307
0.00141327
0.000765659
0.00128358
0.000792332
0.00115081
0.000822122
0.00101165
0.000854084
0.000867011
0.000885163
0.000720788
0.000917119
0.000574257
0.000950923
0.000428242
0.000981231
0.000284519
0.00099977
0.000141894
0.000996705
0.000944116
0.00375038
5.46223e-09
0.00375038
5.58009e-09
0.00375038
6.24747e-09
0.00375038
6.97183e-09
0.00375038
7.87541e-09
0.00375038
8.20043e-09
0.00375038
8.37701e-09
0.00375038
8.25878e-09
0.00375037
9.28454e-09
0.00375037
9.29762e-09
0.00375038
1.27611e-08
0.00375041
1.99689e-08
0.00375035
5.67359e-08
0.00375081
8.37186e-08
0.00374957
3.00747e-07
0.0037692
-8.84136e-08
0.00374518
2.24229e-06
0.0038245
-3.10802e-08
0.00376181
3.13634e-05
0.00373503
7.35249e-05
0.00383894
0.00031293
0.00366313
0.00101857
0.00347597
0.00105136
0.00332199
0.000841773
0.0031916
0.000759537
0.00307352
0.000706561
0.00295502
0.000696289
0.0028388
0.000687313
0.00272725
0.000683019
0.00261799
0.000684489
0.00251029
0.000690595
0.00240423
0.000701768
0.00229589
0.000717246
0.00218495
0.00073491
0.00207333
0.000755901
0.00195768
0.000779926
0.00183754
0.000804582
0.00171573
0.000831448
0.00159026
0.000861616
0.00145834
0.000892394
0.00132304
0.000923195
0.00118513
0.000957529
0.00104121
0.000993953
0.00089181
0.00102887
0.000741232
0.00106353
0.000590922
0.00109873
0.000441447
0.00112912
0.000292712
0.00114705
0.000146987
0.00114024
0.00108843
0.00388972
5.11708e-09
0.00388972
5.21182e-09
0.00388972
5.86536e-09
0.00388972
6.55438e-09
0.00388972
7.58324e-09
0.00388972
8.06671e-09
0.00388972
8.44573e-09
0.00388972
8.54987e-09
0.00388972
9.7649e-09
0.00388972
6.46894e-09
0.00388974
5.21721e-10
0.00388979
-8.64525e-09
0.00388985
-2.29969e-08
0.00388992
-1.12725e-07
0.00388939
4.95471e-08
0.00390946
-7.97573e-07
0.00388506
3.09533e-06
0.00396275
2.86581e-06
0.00389618
3.36657e-05
0.00388274
6.99787e-05
0.00389298
0.000319598
0.0037543
0.00116865
0.00365398
0.00115094
0.00348213
0.00100723
0.0033407
0.000894857
0.00321477
0.000826962
0.00309681
0.000809007
0.00297763
0.000803306
0.00285791
0.00079942
0.00273792
0.000798188
0.00262002
0.000801848
0.00250459
0.000812093
0.0023883
0.000827337
0.0022715
0.000846066
0.00215407
0.000869415
0.0020325
0.00089603
0.00190638
0.000924144
0.00177859
0.000954799
0.00164744
0.000988818
0.00151061
0.00102364
0.00137012
0.00105939
0.00122648
0.00109832
0.00107734
0.00113847
0.000923539
0.00117673
0.000768238
0.00121459
0.000612775
0.00125147
0.000458531
0.00128135
0.000305534
0.00129778
0.000152005
0.00129122
0.00123763
0.00403424
4.72706e-09
0.00403424
4.86909e-09
0.00403424
5.39455e-09
0.00403425
6.16285e-09
0.00403425
6.99262e-09
0.00403425
7.84147e-09
0.00403425
8.56895e-09
0.00403425
9.15758e-09
0.00403425
9.14384e-09
0.00403424
8.10466e-09
0.00403425
9.9412e-09
0.00403418
1.44004e-08
0.00403413
4.93713e-08
0.00403482
4.74811e-08
0.00403339
4.28412e-07
0.00405092
9.90063e-08
0.00402809
4.03442e-06
0.00410305
4.71508e-06
0.00403921
3.58119e-05
0.00401955
7.48742e-05
0.00401822
0.000335616
0.00388803
0.00131527
0.00374538
0.00128787
0.0036149
0.00113174
0.0034865
0.00101838
0.00336605
0.000943177
0.00324764
0.000922316
0.00312415
0.000921634
0.002998
0.000920657
0.00287126
0.000918558
0.0027468
0.000920977
0.00262327
0.000930815
0.00249788
0.000945599
0.00237254
0.000964473
0.00224766
0.000989129
0.00211953
0.00101786
0.00198863
0.00104855
0.00185591
0.00108356
0.00171826
0.00112208
0.00157517
0.00116058
0.00142934
0.00120078
0.00127978
0.00124485
0.00112398
0.00128922
0.00096392
0.00133053
0.000802999
0.00137106
0.000641433
0.00141005
0.000480027
0.001441
0.000319654
0.001456
0.000161056
0.00144638
0.00139524
0.00418414
4.33238e-09
0.00418414
4.48739e-09
0.00418414
4.92848e-09
0.00418414
5.69292e-09
0.00418414
6.40429e-09
0.00418414
7.41142e-09
0.00418414
8.32851e-09
0.00418414
9.17642e-09
0.00418414
8.73987e-09
0.00418414
8.44906e-09
0.00418414
1.68104e-08
0.00418409
3.1977e-08
0.00418398
1.10954e-07
0.00418461
2.2651e-07
0.0041823
6.56078e-07
0.00419982
9.41124e-07
0.00417836
5.06545e-06
0.00425452
4.57085e-06
0.00418916
3.94794e-05
0.00416878
8.11168e-05
0.00416517
0.000356389
0.00404938
0.0014524
0.00389216
0.00143899
0.00376029
0.0012575
0.00364206
0.00113116
0.00352811
0.00105238
0.00341026
0.00103515
0.00328122
0.00104586
0.00315159
0.00104586
0.00301943
0.00104414
0.00288776
0.00104663
0.00275684
0.00105639
0.0026229
0.00107149
0.00248948
0.00109038
0.00235707
0.00111603
0.00222068
0.00114682
0.00208216
0.00117944
0.00194394
0.00121727
0.00180086
0.00126028
0.00165148
0.00130313
0.00149966
0.0013475
0.0013443
0.00139652
0.00118226
0.00144571
0.00101535
0.00149082
0.000847273
0.00153441
0.000678566
0.00157541
0.000509276
0.00160788
0.00033931
0.00162377
0.000168971
0.00161444
0.0015606
0.0043396
3.95316e-09
0.0043396
4.04738e-09
0.0043396
4.48725e-09
0.0043396
5.12601e-09
0.0043396
5.87379e-09
0.0043396
6.83644e-09
0.0043396
7.72517e-09
0.0043396
8.58613e-09
0.0043396
7.50651e-09
0.00433961
6.03038e-09
0.00433962
9.12898e-09
0.0043396
1.69381e-08
0.00433975
5.49516e-08
0.00433985
9.1535e-08
0.00434008
4.43414e-07
0.00432617
5.52586e-07
0.00434887
4.56287e-06
0.00421698
6.04864e-06
0.00435245
4.05446e-05
0.00434221
8.49102e-05
0.00431506
0.00038505
0.00424081
0.00156056
0.00407991
0.00159193
0.00394141
0.00138717
0.00383635
0.00122927
0.00370128
0.00118137
0.00357876
0.00115272
0.00345413
0.00116802
0.00332241
0.00117368
0.00318656
0.00117394
0.0030481
0.00117832
0.00290909
0.00118896
0.00276784
0.00120493
0.00262527
0.00122494
0.00248521
0.00125057
0.00234244
0.00128268
0.00219577
0.00131784
0.00204962
0.00135792
0.00190018
0.0014042
0.00174435
0.00145164
0.00158575
0.00150044
0.00142388
0.00155426
0.00125453
0.00160896
0.00107971
0.00165859
0.000902999
0.00170582
0.000724341
0.00175007
0.000545368
0.001784
0.000365208
0.00180118
0.00018361
0.00179191
0.00174022
0.00450084
3.55149e-09
0.00450084
3.5957e-09
0.00450084
4.02591e-09
0.00450084
4.52746e-09
0.00450084
5.29831e-09
0.00450084
6.04034e-09
0.00450084
6.73288e-09
0.00450084
7.35833e-09
0.00450084
6.15843e-09
0.00450085
4.5926e-09
0.00450086
7.32124e-09
0.00450084
1.38202e-08
0.00450096
4.71467e-08
0.00450016
9.62475e-08
0.00450278
3.5529e-07
0.00448247
4.81298e-07
0.00450973
4.38833e-06
0.00438567
7.97785e-06
0.00451765
3.89317e-05
0.00448695
0.000101643
0.00449028
0.000388316
0.00448995
0.0016028
0.0043355
0.00173494
0.00420673
0.00150466
0.00407047
0.00135865
0.0039298
0.00131711
0.0037909
0.00128718
0.00365757
0.001298
0.00352026
0.00130731
0.00337702
0.00131035
0.00323387
0.00131555
0.0030878
0.00132871
0.00293863
0.00134563
0.00278822
0.00136717
0.0026362
0.0013944
0.00248391
0.0014258
0.00233061
0.0014625
0.00217627
0.00150574
0.00201898
0.00155476
0.00185624
0.00160618
0.00169038
0.0016602
0.00152118
0.00171936
0.0013444
0.00177912
0.00116042
0.00183455
0.000973742
0.0018868
0.000784502
0.00193508
0.00059134
0.00197387
0.000395408
0.00199338
0.00019806
0.001985
0.00193389
0.00466807
3.12359e-09
0.00466807
3.13813e-09
0.00466807
3.5256e-09
0.00466807
3.93003e-09
0.00466807
4.52619e-09
0.00466807
5.06075e-09
0.00466807
5.53647e-09
0.00466807
5.02236e-09
0.00466808
2.70282e-09
0.00466808
-2.61067e-09
0.0046681
-2.95063e-09
0.00466813
-1.82172e-08
0.00466815
-2.85807e-09
0.0046689
-9.45889e-08
0.00466744
7.56764e-08
0.00468117
-7.11874e-07
0.00466754
3.8668e-06
0.00475021
6.05121e-06
0.00468113
4.163e-05
0.00467518
9.74513e-05
0.0047033
0.000378672
0.00484249
0.00150302
0.00470315
0.00185722
0.00453231
0.0016621
0.00436729
0.00151623
0.00421477
0.00146428
0.00405922
0.00143707
0.00390792
0.00144466
0.00375645
0.00145416
0.00360178
0.00145851
0.00344751
0.00146427
0.00329472
0.00147716
0.00313661
0.00149614
0.00297819
0.00151757
0.00281885
0.00154662
0.00265426
0.0015796
0.00249101
0.00161548
0.00232952
0.00166072
0.00216382
0.00171283
0.00199352
0.00176727
0.00182048
0.00182708
0.00164208
0.00189301
0.00145565
0.00195826
0.00126241
0.00201921
0.0010636
0.00207948
0.000859392
0.00213496
0.000652339
0.00217715
0.00043994
0.00220246
0.000221835
0.00219828
0.0021506
0.00484151
2.68381e-09
0.00484151
2.64462e-09
0.00484151
3.02438e-09
0.00484151
3.28754e-09
0.00484151
3.81602e-09
0.00484151
4.19627e-09
0.00484151
4.54017e-09
0.00484151
2.08412e-09
0.00484152
-9.62429e-10
0.00484153
-1.43914e-08
0.00484154
-1.58468e-08
0.00484163
-8.49863e-08
0.00484168
-7.37167e-08
0.004842
-4.71339e-07
0.00484338
-4.11126e-07
0.00484371
-3.39707e-06
0.00484417
3.83847e-06
0.00486691
1.03535e-06
0.00484201
3.88822e-05
0.00491872
5.38374e-05
0.00499105
0.000304702
0.00541929
0.00111695
0.0053032
0.00195953
0.00501706
0.0019344
0.00480851
0.0017151
0.0046115
0.00165537
0.00442407
0.00161915
0.00424536
0.00161785
0.00406801
0.0016262
0.00389306
0.00162734
0.00372099
0.00163045
0.00355083
0.00164174
0.00338011
0.00165904
0.00320772
0.00168136
0.00303699
0.00170917
0.00286306
0.00174358
0.00268696
0.00178055
0.00251412
0.00182518
0.00233937
0.00187924
0.0021605
0.00193682
0.00197988
0.00200051
0.00179401
0.00207282
0.00159688
0.00214688
0.00139149
0.00221627
0.0011805
0.00228348
0.000961111
0.00234849
0.000731225
0.00240292
0.000493499
0.00243498
0.000248656
0.00243809
0.00239388
0.00502139
2.17081e-09
0.00502139
2.19026e-09
0.00502139
2.43375e-09
0.0050214
2.7551e-09
0.0050214
3.13459e-09
0.0050214
3.26377e-09
0.0050214
3.24063e-09
0.0050214
3.11248e-09
0.00502139
4.71962e-09
0.00502137
1.22456e-08
0.00502132
3.37803e-08
0.00502116
8.9079e-08
0.00502079
2.2452e-07
0.00502011
5.27568e-07
0.00501822
1.2101e-06
0.00501125
2.879e-06
0.00500923
7.18371e-06
0.00503487
-1.27467e-05
0.0049816
6.83534e-05
0.00513609
-6.2726e-05
0.00516472
0.000271015
0.00586747
0.000451894
0.00585177
0.00199445
0.00567803
0.00209334
0.0053622
0.00201587
0.00511245
0.00189001
0.00487605
0.0018412
0.00466458
0.00181982
0.00446157
0.00182228
0.0042587
0.00182268
0.00406114
0.00182167
0.00386925
0.00182793
0.00367848
0.0018412
0.00349056
0.00186028
0.00330417
0.00188738
0.0031166
0.00191995
0.0029282
0.0019575
0.00274266
0.00200182
0.00255677
0.00205572
0.00236706
0.00211593
0.00217547
0.00218344
0.00198112
0.00225972
0.00177739
0.00234335
0.0015587
0.00242547
0.00133047
0.00250419
0.00109228
0.00258089
0.000842496
0.00264807
0.000575874
0.00269803
0.000293596
0.00271414
0.00268066
0.00520796
1.65972e-09
0.00520796
1.68063e-09
0.00520796
1.87693e-09
0.00520797
2.13867e-09
0.00520797
2.54073e-09
0.00520797
2.46194e-09
0.00520797
2.27219e-09
0.00520797
1.87933e-09
0.00520797
2.68922e-09
0.00520798
7.10105e-09
0.00520799
1.88265e-08
0.00520804
5.34978e-08
0.00520812
1.24635e-07
0.00520841
3.00346e-07
0.00520906
6.21778e-07
0.00521125
1.71849e-06
0.00519027
3.37632e-06
0.00521177
2.8859e-06
0.00507638
1.66056e-05
0.00518586
2.45844e-05
0.005346
0.000103688
0.00531064
0.000493675
0.00549224
0.00185349
0.00550324
0.00208485
0.00543116
0.00208209
0.00530087
0.00201085
0.00514283
0.00198672
0.00496892
0.00197995
0.00478542
0.00199663
0.00459242
0.00200719
0.00439557
0.00201115
0.00419959
0.00201795
0.00400271
0.00203063
0.00380541
0.00204811
0.0036109
0.00207374
0.00341454
0.00210657
0.00321481
0.00214417
0.00301695
0.00218869
0.00282027
0.00224238
0.00262218
0.00230272
0.00242214
0.00237307
0.00221836
0.00245622
0.00200553
0.00254696
0.0017796
0.00264043
0.00153845
0.00273659
0.00127801
0.00283419
0.000995663
0.00292458
0.000688362
0.00299989
0.000354227
0.00304205
0.00302768
0.00540147
1.12516e-09
0.00540147
1.16916e-09
0.00540147
1.2946e-09
0.00540147
1.50494e-09
0.00540147
1.69826e-09
0.00540147
2.02413e-09
0.00540147
1.87497e-09
0.00540147
2.02585e-09
0.00540147
3.4012e-09
0.00540147
9.16667e-09
0.00540146
2.18104e-08
0.00540147
5.52151e-08
0.00540148
1.23993e-07
0.00540186
2.37905e-07
0.00540228
4.03749e-07
0.0054078
9.30917e-07
0.0053842
1.24291e-06
0.00541334
6.34403e-06
0.00525083
9.19383e-06
0.00540486
4.99955e-05
0.00539311
0.000107364
0.00541505
0.000472794
0.00543655
0.00188401
0.00538813
0.00213354
0.00535704
0.00210822
0.00532336
0.00203534
0.00524439
0.0020563
0.00513737
0.00207708
0.0050003
0.00212363
0.00484054
0.00215627
0.00466968
0.00217275
0.00449286
0.00218754
0.00430954
0.00220559
0.00412164
0.0022274
0.00393166
0.00225529
0.00373939
0.00228985
0.00354107
0.00233121
0.00334015
0.0023783
0.00313577
0.00243539
0.00292734
0.00249658
0.00272433
0.00256518
0.00251843
0.00265339
0.0022993
0.00275679
0.00206226
0.00286541
0.00181019
0.00297875
0.0015357
0.00309988
0.00123049
0.0032232
0.000879037
0.00334696
0.000469361
0.00344546
0.00348939
0.00560216
5.877e-10
0.00560216
6.7113e-10
0.00560216
7.73368e-10
0.00560216
9.6553e-10
0.00560216
1.08891e-09
0.00560216
1.36133e-09
0.00560216
1.58252e-09
0.00560216
2.68277e-09
0.00560216
5.09925e-09
0.00560215
1.35128e-08
0.00560215
3.02998e-08
0.00560213
6.83457e-08
0.0056021
1.44018e-07
0.00560217
2.42259e-07
0.00560326
4.46157e-07
0.00560365
9.93273e-07
0.00560136
1.29247e-06
0.00560183
6.54353e-06
0.00564174
5.96828e-06
0.00557648
5.37422e-05
0.00563171
0.000102472
0.00564378
0.000459352
0.00572518
0.00185516
0.00561466
0.00223473
0.00553712
0.00217573
0.00545309
0.00210802
0.00537466
0.0021258
0.00528472
0.00215684
0.00518611
0.00221539
0.00506122
0.00227056
0.00491351
0.00230746
0.00475642
0.00233406
0.00459275
0.00235926
0.004424
0.00238684
0.00425
0.00242011
0.00407206
0.00245905
0.00388865
0.00250504
0.00369885
0.00255765
0.00350513
0.00261806
0.00330417
0.0026848
0.00309355
0.00276105
0.00288512
0.00285078
0.00267372
0.00295822
0.00244549
0.00308175
0.00219466
0.00321851
0.00191348
0.00337098
0.00158918
0.00353896
0.00119763
0.00373208
0.000695337
0.00394069
0.00417667
0.00581031
1.04897e-10
0.00581031
2.06295e-10
0.00581031
3.11098e-10
0.00581031
4.74433e-10
0.00581031
6.06927e-10
0.00581031
8.44817e-10
0.00581031
1.04976e-09
0.00581031
1.89492e-09
0.00581031
2.46312e-09
0.00581032
6.24202e-09
0.00581034
9.56636e-09
0.00581038
3.75795e-08
0.0058105
2.55249e-08
0.00581052
2.4011e-07
0.00581079
1.31304e-07
0.00581253
4.78418e-07
0.00581365
-1.28661e-07
0.00581004
8.33414e-06
0.0058396
-4.85297e-06
0.00576997
8.44634e-05
0.00590305
2.46426e-05
0.00591864
0.000448926
0.006366
0.0014705
0.00619697
0.00238252
0.00600088
0.00235299
0.00580618
0.0022892
0.00566534
0.0022563
0.00553553
0.00227598
0.00542224
0.00231928
0.00530478
0.00237816
0.00517764
0.00242386
0.00503856
0.00246167
0.00488867
0.00249671
0.00473263
0.00253029
0.00457476
0.00256707
0.00441384
0.00260991
0.00424903
0.00265967
0.00408406
0.00271349
0.00391184
0.00277932
0.00372753
0.00285743
0.00353274
0.00294276
0.00333411
0.00303529
0.00313591
0.0031445
0.00293028
0.0032751
0.00270963
0.00342693
0.00246373
0.00360521
0.00217316
0.00382064
0.00180223
0.00409686
0.00128514
0.0044499
0.00545158
0.00840003
9.0115e-12
0.00840003
3.6015e-11
0.00840003
8.18534e-11
0.00840003
1.41887e-10
0.00840003
2.26373e-10
0.00840003
3.09671e-10
0.00840003
4.82264e-10
0.00840003
6.82377e-10
0.00840004
1.45405e-09
0.00840003
2.38812e-09
0.00840004
4.86629e-09
0.00840008
1.05029e-08
0.00840009
2.12815e-08
0.0084002
6.37861e-08
0.0083999
1.74855e-07
0.00840144
3.88721e-07
0.00838792
7.49434e-07
0.00839637
2.64511e-06
0.00840623
5.32127e-06
0.00809736
2.15784e-05
0.00844825
7.57305e-05
0.00872897
0.000177502
0.00943145
0.000877972
0.00905246
0.00272933
0.00872552
0.00264663
0.00844573
0.00254494
0.0082135
0.00246827
0.00800678
0.00246229
0.0078234
0.00248349
0.00765487
0.00252892
0.00748929
0.00257192
0.00732437
0.00261043
0.00715579
0.00264831
0.00697974
0.00268854
0.00679696
0.00273049
0.00661602
0.00277275
0.00643979
0.00281934
0.00625998
0.00287733
0.00607883
0.0029461
0.00589964
0.00302182
0.00571717
0.00310822
0.00552971
0.0032046
0.00534535
0.00331087
0.00517171
0.00343086
0.00501919
0.00356153
0.00490118
0.00370544
0.00486087
0.00384449
0.00497345
0.00397311
0.00540735
0.0040061
0.00370637
0.00714249
0.00840003
1.25599e-12
0.00840003
5.56577e-12
0.00840003
1.52712e-11
0.00840003
3.21027e-11
0.00840003
6.05566e-11
0.00840003
1.09316e-10
0.00840003
1.90046e-10
0.00840003
3.35977e-10
0.00840003
5.37045e-10
0.00840003
1.28736e-09
0.00840005
1.94392e-09
0.00839994
3.69968e-09
0.00840004
1.83847e-08
0.00839985
3.4594e-08
0.00840084
1.67769e-07
0.00839811
4.887e-07
0.00841016
9.86513e-07
0.0083356
1.68238e-06
0.00841561
7.76722e-06
0.00812599
1.36036e-05
0.00844612
6.81983e-05
0.00845
0.000156346
0.00861479
0.00071459
0.00884566
0.00254154
0.00866489
0.00282481
0.00844431
0.0027576
0.00828125
0.00261926
0.00812513
0.00260463
0.00797958
0.00261242
0.00783635
0.00265313
0.00769446
0.0026964
0.00755208
0.00273369
0.00741137
0.00277053
0.0072718
0.00280886
0.00713307
0.00284841
0.00699549
0.0028893
0.00685908
0.00293659
0.00672671
0.00299168
0.00660741
0.00304867
0.00650099
0.00311341
0.00640679
0.00318606
0.00632624
0.00326814
0.00626786
0.00335126
0.00623804
0.00344394
0.00625568
0.00352651
0.00633719
0.00360594
0.00651345
0.00365055
0.00682695
0.00364308
0.00724749
0.00357225
0.00320594
0.00773689
0.00840003
1.7911e-13
0.00840003
9.69832e-13
0.00840003
3.458e-12
0.00840003
7.74723e-12
0.00840003
1.92452e-11
0.00840003
3.16255e-11
0.00840003
1.02361e-10
0.00840003
1.61924e-10
0.00840003
5.92124e-10
0.00840003
1.12072e-09
0.00840004
3.10303e-09
0.00840008
3.90627e-09
0.00840004
2.6854e-08
0.00840006
4.28048e-08
0.00840011
2.00877e-07
0.00840153
5.44271e-07
0.00840154
9.09854e-07
0.00836963
1.11634e-06
0.0084161
7.09971e-06
0.00816914
1.17067e-05
0.00844244
6.42787e-05
0.00840155
0.000156476
0.00851201
0.000625887
0.00895723
0.00218896
0.00875685
0.00300725
0.00859946
0.00289201
0.00842809
0.00276515
0.00826072
0.00275106
0.00812801
0.0027257
0.00801655
0.00274691
0.00790769
0.00278707
0.00780018
0.00282256
0.00769404
0.00285646
0.00759336
0.00288861
0.00749637
0.0029246
0.00739806
0.00296557
0.00730519
0.00300863
0.00722467
0.00305252
0.00715589
0.00309869
0.00710471
0.00314825
0.00707564
0.00319928
0.00707269
0.00325527
0.00710008
0.00330762
0.00716855
0.00335822
0.00727945
0.00339926
0.0074492
0.00341881
0.00766178
0.00342063
0.00792247
0.00336516
0.00821845
0.00325925
0.00305058
0.00835965
0.00840003
5.78779e-14
0.00840003
2.3331e-13
0.00840003
1.10841e-12
0.00840003
2.20175e-12
0.00840003
7.52461e-12
0.00840003
1.4393e-11
0.00840003
3.51033e-11
0.00840003
6.37169e-11
0.00840003
2.19348e-10
0.00840003
3.80308e-10
0.00840003
1.6148e-09
0.00840006
2.65348e-09
0.00840003
1.09461e-08
0.00840009
1.93784e-08
0.00840027
8.41954e-08
0.00840069
1.75534e-07
0.00840039
5.22483e-07
0.00840703
5.58841e-07
0.00840328
4.85153e-06
0.00848651
6.6721e-06
0.00844438
4.2726e-05
0.00852842
8.44735e-05
0.00882512
0.000361365
0.0100633
0.00108074
0.00975598
0.00329003
0.0093398
0.00326565
0.00896507
0.00309726
0.00873219
0.00294993
0.00852818
0.00290254
0.00836935
0.00288157
0.00823791
0.00289584
0.00812372
0.00291461
0.00802292
0.00293468
0.00793299
0.00295528
0.00785449
0.00297966
0.00778751
0.00300807
0.00773512
0.00303748
0.00769587
0.00306904
0.00767143
0.00310179
0.00766618
0.00313394
0.00768168
0.00316634
0.00772635
0.00319369
0.00779732
0.00322103
0.00790598
0.00323336
0.00804376
0.00324513
0.0082202
0.00322577
0.00841934
0.00320442
0.00864784
0.00311967
0.00887067
0.00301979
0.00290771
0.00899619
0.00840003
4.31219e-14
0.00840003
6.59002e-14
0.00840003
6.03027e-13
0.00840003
5.33638e-13
0.00840003
3.39697e-12
0.00840003
2.77096e-12
0.00840003
2.2702e-11
0.00840003
1.19822e-11
0.00840003
2.01076e-10
0.00840003
1.09074e-10
0.00840004
1.48516e-09
0.00840002
1.21375e-09
0.00840007
6.14646e-09
0.00839982
1.12955e-09
0.00840003
8.54954e-08
0.00840024
2.95414e-08
0.00839973
6.63627e-07
0.0084007
9.77347e-07
0.00839197
2.77061e-06
0.00835412
9.24851e-07
0.00844021
3.74169e-05
0.00801076
1.50756e-05
0.00856509
0.000297986
0.00905999
0.000588724
0.00970123
0.00265397
0.00947451
0.00346811
0.00926367
0.00327999
0.00910162
0.0030851
0.00893216
0.00304959
0.00877315
0.00301724
0.00863854
0.00300781
0.00852131
0.00300945
0.00842087
0.00301294
0.00833512
0.00301878
0.00826656
0.00302623
0.00821749
0.00303546
0.00818526
0.00304774
0.0081714
0.00306104
0.00817482
0.00307721
0.00819911
0.0030896
0.00824319
0.00310332
0.00831114
0.0031076
0.0084022
0.00311295
0.00851837
0.00310068
0.00865831
0.00308899
0.00881651
0.00305178
0.00900404
0.00300152
0.00919554
0.00291224
0.00934879
0.00285152
0.0027361
0.00950435
0.00840003
8.64649e-15
0.00840003
3.48187e-14
0.00840003
1.43396e-13
0.00840003
4.16584e-13
0.00840003
1.0611e-12
0.00840003
3.5011e-12
0.00840003
8.56907e-12
0.00840003
2.21586e-11
0.00840003
6.83935e-11
0.00840003
1.95089e-10
0.00840003
5.01416e-10
0.00840003
1.52617e-09
0.00840007
3.86544e-09
0.00840001
6.45028e-09
0.0084004
2.23727e-08
0.00840016
7.7283e-08
0.00840058
2.24263e-07
0.00840075
5.82216e-07
0.00841015
6.28535e-07
0.00839585
5.36289e-06
0.00852171
1.20909e-05
0.00839045
4.68637e-05
0.00859135
0.00011839
0.00866482
0.000519685
0.0097201
0.00161803
0.00970178
0.00346488
0.00958429
0.00336965
0.00936747
0.00327434
0.00924083
0.00315056
0.00911581
0.00311851
0.00900561
0.00309469
0.0089051
0.00308745
0.00881674
0.00307919
0.00874153
0.00307185
0.00868167
0.00306373
0.00864156
0.00305418
0.00861989
0.00304805
0.00861831
0.00304202
0.00863485
0.00304023
0.00867154
0.00303344
0.00872762
0.00302844
0.00880368
0.00301355
0.00889986
0.00299967
0.00901325
0.00297076
0.00914684
0.00294048
0.00929878
0.0028845
0.00946529
0.00282
0.00959735
0.00276517
0.0097517
0.00268248
0.00257982
0.00989519
0.00840003