/*--------------------------------*- C++ -*----------------------------------*\
| =========                 |                                                 |
| \\      /  F ield         | OpenFOAM: The Open Source CFD Toolbox           |
|  \\    /   O peration     | Version:  2112                                  |
|   \\  /    A nd           | Website:  www.openfoam.com                      |
|    \\/     M anipulation  |                                                 |
\*---------------------------------------------------------------------------*/
FoamFile
{
    version     2.0;
    format      ascii;
    arch        "LSB;label=32;scalar=64";
    class       volScalarField;
    location    "6";
    object      T;
}
// * * * * * * * * * * * * * * * * * * * * * * * * * * * * * * * * * * * * * //

dimensions      [0 0 0 1 0 0 0];

internalField   nonuniform List<scalar> 
7000
(
1
1
1
1
1
1
1
1.00001
1.00001
1.00006
1.00011
1.00069
1.00112
1.00397
1.00805
1.01403
1.06689
1.15007
1.51893
2.2194
2.55289
2.68379
2.66846
2.64924
2.6472
2.65793
2.66647
2.67681
2.68518
2.68981
2.69518
2.70273
2.70704
2.71144
2.71932
2.72413
2.72789
2.7367
2.74286
2.74437
2.75103
2.75933
2.76041
2.76268
2.77235
2.77907
2.77849
2.77326
2.76561
2.75907
1
1
1
1
1
1
1
1.00001
1.00001
1.00006
1.0001
1.00066
1.00108
1.00381
1.00833
1.01175
1.06803
1.13637
1.51493
2.19702
2.54052
2.68175
2.66448
2.64883
2.6471
2.65797
2.66658
2.67743
2.68576
2.69043
2.69684
2.70496
2.70933
2.71438
2.72224
2.72618
2.7302
2.73922
2.74424
2.7459
2.75368
2.76115
2.76177
2.76566
2.77545
2.78044
2.77884
2.77271
2.76479
2.75824
1
1
1
1
1
1
1
1
1.00001
1.00006
1.0001
1.00064
1.00105
1.00359
1.00784
1.01005
1.06559
1.1338
1.50493
2.1757
2.53517
2.68207
2.666
2.64808
2.64658
2.65687
2.66572
2.67708
2.68481
2.68948
2.69666
2.7041
2.70835
2.7147
2.7219
2.72508
2.73033
2.73882
2.74242
2.7448
2.75303
2.75928
2.75971
2.76515
2.77585
2.78058
2.77825
2.77149
2.76408
2.75834
1
1
1
1
1
1
1
1
1.00001
1.00005
1.0001
1.00061
1.00099
1.00339
1.00747
1.00934
1.06307
1.12856
1.49059
2.15123
2.52318
2.67972
2.66447
2.6466
2.64572
2.65591
2.6653
2.67672
2.68435
2.6895
2.69713
2.70442
2.70877
2.71541
2.72233
2.72529
2.73088
2.73918
2.74196
2.74481
2.75332
2.75803
2.75798
2.76491
2.77636
2.78037
2.77756
2.77072
2.76331
2.75683
1
1
1
1
1
1
1
1
1.00001
1.00005
1.00009
1.00057
1.00091
1.00317
1.00706
1.01041
1.05706
1.12396
1.46697
2.12313
2.50819
2.67694
2.66239
2.64453
2.64425
2.65466
2.6641
2.67577
2.68343
2.68872
2.69672
2.70374
2.70814
2.71546
2.72224
2.72492
2.73097
2.7394
2.74174
2.74463
2.75371
2.75841
2.7583
2.76477
2.77492
2.77839
2.77528
2.76924
2.76332
2.75786
1
1
1
1
1
1
1
1
1.00001
1.00004
1.00007
1.00046
1.00068
1.0025
1.00693
1.00682
1.05531
1.12116
1.43812
2.07525
2.48996
2.67222
2.65863
2.6419
2.642
2.65237
2.66257
2.67368
2.68138
2.68808
2.69645
2.70269
2.70754
2.71519
2.72127
2.72465
2.73135
2.73834
2.74011
2.74423
2.75231
2.75495
2.75586
2.76423
2.77412
2.7765
2.77335
2.76613
2.75976
2.75376
1
1
1
1
1
1
1
1
1.00001
1.00004
1.00006
1.00042
1.00061
1.00228
1.00662
1.00575
1.05296
1.11711
1.40539
2.02004
2.46601
2.66566
2.65321
2.63965
2.64015
2.65066
2.66032
2.67199
2.67882
2.68513
2.69461
2.70126
2.70629
2.7143
2.72009
2.72291
2.73081
2.73831
2.73946
2.7448
2.75319
2.75504
2.75522
2.76407
2.77391
2.77554
2.77148
2.76526
2.758
2.75425
1
1
1
1
1
1
1
1
1.00001
1.00004
1.00007
1.00042
1.00061
1.00225
1.00639
1.00562
1.04976
1.11262
1.37257
1.96677
2.43703
2.65785
2.64148
2.6386
2.63759
2.64708
2.65568
2.66758
2.67612
2.68341
2.69259
2.69987
2.70526
2.71378
2.71991
2.72291
2.7303
2.73615
2.73722
2.74165
2.75005
2.75232
2.75281
2.76119
2.77111
2.77294
2.76832
2.76117
2.75761
2.75024
1
1
1
1
1
1
1
1
1
1.00003
1.00006
1.00038
1.00053
1.00206
1.00588
1.0049
1.04698
1.1065
1.34484
1.89257
2.40278
2.65148
2.63595
2.63637
2.63577
2.64618
2.65525
2.66536
2.67102
2.6778
2.68754
2.695
2.70206
2.711
2.71613
2.7207
2.72866
2.73563
2.73825
2.74299
2.74938
2.75115
2.75307
2.7614
2.76906
2.77003
2.76603
2.75851
2.75158
2.74943
1
1
1
1
1
1
1
1
1
1.00004
1.00007
1.00041
1.0006
1.00219
1.00579
1.0036
1.04454
1.09802
1.31794
1.81299
2.35833
2.64188
2.64258
2.63774
2.63425
2.64202
2.64882
2.66099
2.66826
2.67595
2.68437
2.68963
2.69715
2.70681
2.71295
2.71834
2.72674
2.73117
2.73311
2.73998
2.74638
2.74681
2.74899
2.75863
2.76647
2.76673
2.76247
2.75684
2.75189
2.7431
1
1
1
1
1
1
1
1
1
1.00003
1.00007
1.00038
1.00059
1.00197
1.00511
1.0044
1.03933
1.08844
1.29116
1.72743
2.30661
2.62165
2.64673
2.64141
2.6349
2.64136
2.64606
2.65616
2.6638
2.67056
2.68031
2.68609
2.69304
2.70381
2.70918
2.7144
2.72501
2.73051
2.73102
2.73761
2.74473
2.74488
2.74649
2.75552
2.76294
2.763
2.75691
2.75033
2.74659
2.74473
1
1
1
1
1
1
1
1
1
1.00003
1.00007
1.00033
1.0005
1.00171
1.00435
1.00411
1.03492
1.08208
1.25947
1.63733
2.24218
2.59523
2.65013
2.64519
2.63689
2.64061
2.6469
2.65325
2.65853
2.66585
2.67278
2.68143
2.68852
2.69832
2.70653
2.70965
2.71827
2.72609
2.7277
2.73335
2.74077
2.74146
2.74242
2.75155
2.75875
2.75882
2.75482
2.7466
2.73925
2.73328
1
1
1
1
1
1
1
1
1
1.00003
1.00007
1.00031
1.00048
1.00159
1.00372
1.004
1.03023
1.07093
1.22785
1.54407
2.15663
2.56182
2.65573
2.64764
2.6404
2.63988
2.64578
2.65149
2.65617
2.66158
2.66905
2.67234
2.68168
2.68968
2.6976
2.70723
2.7143
2.71999
2.72394
2.72958
2.73642
2.73786
2.73875
2.74625
2.75401
2.75401
2.74684
2.74047
2.73854
2.73566
1
1
1
1
1
1
1
1
1
1.00004
1.00007
1.00029
1.00046
1.00141
1.00355
1.00352
1.02563
1.05587
1.19786
1.45462
2.04944
2.51325
2.65979
2.64711
2.64256
2.63702
2.64402
2.64946
2.65528
2.66077
2.66687
2.67112
2.67468
2.6853
2.68951
2.69781
2.7108
2.71523
2.71762
2.72472
2.72988
2.73007
2.73374
2.74198
2.74704
2.74738
2.74455
2.73479
2.72626
2.71889
1
1
1
1
1
1
1
1
1
1.00003
1.00006
1.00025
1.00041
1.00121
1.00286
1.00213
1.02197
1.04318
1.16232
1.36223
1.93107
2.4491
2.64838
2.6365
2.63537
2.6303
2.63932
2.64289
2.64919
2.65375
2.65862
2.66199
2.66726
2.67392
2.68218
2.68786
2.69969
2.7089
2.7123
2.71926
2.72434
2.72295
2.72439
2.7348
2.74031
2.73803
2.73145
2.7269
2.72344
2.72039
1
1
1
1
1
1
1
1
1.00002
1.00004
1.00016
1.00024
1.00093
1.00135
1.00514
1.00452
1.01681
1.03109
1.1332
1.31152
1.77772
2.48173
2.63051
2.60958
2.61425
2.61413
2.63046
2.6403
2.64833
2.6532
2.65699
2.65786
2.66029
2.66595
2.66978
2.67676
2.68692
2.69645
2.70189
2.7094
2.71649
2.71871
2.71767
2.72157
2.73059
2.73267
2.72759
2.71528
2.70531
2.69709
1
1
1
1
1
1
1
1
1.00001
1.00002
1.00009
1.00013
1.00046
1.00087
1.00159
1.00764
1.00397
1.04443
1.104
1.32832
1.8541
2.36919
2.63097
2.62796
2.61584
2.61042
2.61668
2.63317
2.64566
2.65321
2.65788
2.65888
2.6589
2.66152
2.66311
2.66522
2.67301
2.68226
2.6901
2.69803
2.70403
2.70676
2.70714
2.71191
2.71459
2.71344
2.70923
2.70252
2.69787
2.69274
1
1
1
1
1
1
1
1
1.00001
1.00002
1.00008
1.00012
1.00042
1.00083
1.00124
1.00666
1.00197
1.03758
1.08835
1.27788
1.69722
2.29049
2.59256
2.62485
2.60977
2.60716
2.60921
2.61793
2.62959
2.64479
2.65462
2.65811
2.65937
2.66008
2.65967
2.65908
2.66048
2.66623
2.67107
2.68354
2.69384
2.69431
2.69382
2.69747
2.70397
2.70338
2.69664
2.67994
2.66697
2.65754
1
1
1
1
1
1
1
1
1.00001
1.00002
1.00006
1.00009
1.00026
1.00063
1.0009
1.00549
1.00198
1.03187
1.06886
1.23785
1.5534
2.17141
2.55058
2.62959
2.61487
2.60778
2.60781
2.61179
2.61809
2.62519
2.6386
2.64985
2.65588
2.65846
2.65827
2.65716
2.65432
2.65403
2.6552
2.65926
2.67268
2.67933
2.67763
2.67593
2.6763
2.67506
2.67135
2.65533
2.64031
2.62573
1
1
1
1
1
1
1
1
1
1.00001
1.00002
1.00006
1.00009
1.00051
1.00062
1.00439
1.00056
1.02522
1.05078
1.18744
1.43125
1.99646
2.46856
2.62544
2.61273
2.60944
2.60334
2.6073
2.61039
2.61628
2.62148
2.62863
2.63707
2.64705
2.65201
2.65212
2.65072
2.64833
2.64366
2.64372
2.6463
2.6548
2.66025
2.65934
2.65673
2.65022
2.63618
2.61126
2.57177
2.48654
1
1
1
1
1
1
1
1
1
1
1.00002
1.00001
1.00014
1.00021
1.00126
1.00138
1.01005
1.00381
1.051
1.12211
1.38842
1.99314
2.36768
2.59318
2.58436
2.58685
2.58665
2.59253
2.60101
2.60734
2.61409
2.61729
2.6215
2.6254
2.6312
2.63646
2.63678
2.63565
2.63179
2.62464
2.61791
2.61444
2.61381
2.61292
2.60914
2.60117
2.58355
2.53986
2.48278
2.35751
1
1
1
1
1
1
1
1
1
1
1.00001
1.00001
1.00011
1.00016
1.001
1.00115
1.00737
1.00401
1.03859
1.09818
1.29713
1.76533
2.30361
2.58283
2.59121
2.58273
2.57584
2.57761
2.58271
2.59018
2.59571
2.6014
2.60533
2.60954
2.613
2.61828
2.62219
2.62195
2.61982
2.61405
2.60535
2.59488
2.58434
2.57048
2.55848
2.53767
2.51776
2.47712
2.41443
2.34131
1
1
1
1
1
1
1
1
1
1
1.00001
1.00001
1.00008
1.00012
1.0007
1.00079
1.00518
1.00271
1.02861
1.06916
1.22402
1.53992
2.13
2.50384
2.58379
2.57694
2.57718
2.57504
2.57852
2.58033
2.58302
2.58481
2.58592
2.58801
2.5896
2.59101
2.59303
2.59291
2.59197
2.58885
2.58305
2.56966
2.55937
2.5377
2.52045
2.49212
2.46134
2.42759
2.37352
2.33455
1
1
1
1
1
1
1
1
1
1
1
1.00001
1.00003
1.00004
1.0003
1.00044
1.0031
1.00203
1.01943
1.0311
1.14078
1.30988
1.85791
2.33602
2.55682
2.55838
2.56179
2.56234
2.56962
2.57366
2.57687
2.57855
2.57851
2.57902
2.57852
2.57727
2.57623
2.57392
2.57159
2.56679
2.56045
2.55091
2.53624
2.5217
2.49607
2.47683
2.43867
2.41392
2.36389
2.33825
1
1
1
1
1
1
1
1
1
1
1
1.00001
1.00003
1.00002
1.00024
1.00037
1.00227
1.00204
1.01761
1.00611
1.09272
1.22273
1.65925
2.38286
2.53473
2.56088
2.55352
2.54929
2.54937
2.55512
2.55949
2.56412
2.56454
2.56475
2.56378
2.56101
2.5574
2.55438
2.54921
2.54468
2.53554
2.52818
2.51272
2.50152
2.47744
2.46213
2.42903
2.40808
2.37017
2.3436
1
1
1
1
1
1
1
1
1
1
1
1.00001
1.00001
1.00005
1.00004
1.0004
1.00055
1.00428
1.00189
1.02577
1.04472
1.18351
1.42241
2.01621
2.43629
2.56373
2.56109
2.55356
2.54535
2.5468
2.54911
2.55261
2.55351
2.55347
2.55266
2.54967
2.54507
2.54181
2.53571
2.53117
2.52164
2.51477
2.49993
2.48992
2.46957
2.4531
2.42919
2.40562
2.38065
2.3557
1
1
1
1
1
1
1
1
1
1
1
1
1.00001
1.00004
1.00003
1.0003
1.00042
1.00289
1.00248
1.01302
1.01021
1.10365
1.25204
1.70356
2.39316
2.53668
2.55721
2.54914
2.543
2.53928
2.54127
2.54252
2.54245
2.5416
2.53995
2.53635
2.52966
2.52603
2.51867
2.51438
2.50523
2.49952
2.48735
2.47858
2.46337
2.44882
2.43012
2.41145
2.39111
2.37211
1
1
1
1
1
1
1
1
1
1
1
1
1
1.00003
1.00001
1.00023
1.0003
1.00195
1.00212
1.01488
1.00657
1.07709
1.16947
1.56042
2.2645
2.48196
2.5755
2.5598
2.55569
2.54729
2.54435
2.54452
2.54389
2.54228
2.53948
2.53387
2.52652
2.51941
2.51138
2.50343
2.4939
2.48494
2.47417
2.46348
2.45139
2.43834
2.42563
2.411
2.39486
2.37924
1
1
1
1
1
1
1
1
1
1
1
1
1
1.00002
1.00002
1.00016
1.00022
1.00139
1.00151
1.01054
1.00227
1.05199
1.1112
1.34816
1.92513
2.31454
2.538
2.54984
2.54402
2.53769
2.53806
2.53936
2.54133
2.54112
2.53922
2.53464
2.52807
2.51972
2.51188
2.50254
2.49278
2.48228
2.47097
2.45918
2.44745
2.43529
2.42294
2.40962
2.39596
2.38222
1
1
1
1
1
1
1
1
1
1
1
1
1
1.00001
1.00004
1.00002
1.00027
1.00037
1.00223
1.00247
1.01618
1.00669
1.08759
1.19655
1.62929
2.35237
2.52032
2.56971
2.55288
2.54749
2.54095
2.54005
2.53934
2.53797
2.53571
2.53091
2.52609
2.51892
2.51161
2.50304
2.4934
2.48339
2.4726
2.4612
2.44952
2.43692
2.42449
2.41107
2.39817
2.38558
1
1
1
1
1
1
1
1
1
1
1
1
1
1
1.00003
1.00002
1.00018
1.00022
1.00142
1.00154
1.01134
1.0019
1.05936
1.12001
1.44032
2.08037
2.41014
2.57035
2.56882
2.55813
2.54858
2.54615
2.54492
2.54211
2.53811
2.53035
2.52406
2.51684
2.50952
2.50159
2.49292
2.48319
2.47383
2.46291
2.45258
2.44053
2.42907
2.4162
2.4036
2.39198
1
1
1
1
1
1
1
1
1
1
1
1
1
1
1.00001
1.00004
1.00002
1.00029
1.0004
1.0025
1.00244
1.0185
1.007
1.09803
1.22999
1.69959
2.45053
2.57819
2.59366
2.57606
2.55876
2.54672
2.54097
2.53671
2.5322
2.52615
2.51981
2.51289
2.50569
2.49792
2.49046
2.48162
2.47312
2.46335
2.45383
2.44381
2.43346
2.42287
2.41174
2.40147
1
1
1
1
1
1
1
1
1
1
1
1
1
1
1.00001
1.00001
1.00006
1.00005
1.00039
1.00051
1.00355
1.0027
1.02421
1.03366
1.17435
1.45482
1.96469
2.5151
2.65789
2.64491
2.61834
2.58349
2.55885
2.54258
2.53191
2.52196
2.51333
2.50473
2.49766
2.48967
2.48281
2.47519
2.46802
2.46011
2.45223
2.44369
2.43506
2.42655
2.41728
2.40903
1
1
1
1
1
1
1
1
1
1
1
1
1
1
1
1.00002
1.00001
1.00013
1.00017
1.00117
1.00114
1.01013
0.998672
1.04986
1.10714
1.33317
1.93266
2.3199
2.6258
2.64549
2.63156
2.60956
2.58687
2.56299
2.54411
2.52952
2.51789
2.50693
2.49795
2.48897
2.48076
2.47236
2.4645
2.45668
2.44903
2.44165
2.43395
2.42639
2.41834
2.41124
1
1
1
1
1
1
1
1
1
1
1
1
1
1
1
1.00001
1.00001
1.00011
1.00014
1.00088
1.00113
1.00458
1.00984
1.03153
1.0654
1.25123
1.67053
2.19357
2.57132
2.64649
2.6304
2.61915
2.60522
2.59581
2.58172
2.56408
2.54575
2.52894
2.5151
2.50165
2.48956
2.47842
2.46861
2.45947
2.45101
2.44299
2.43524
2.42775
2.42017
2.41357
1
1
1
1
1
1
1
1
1
1
1
1
1
1
1
1.00001
1.00002
1.00006
1.00012
1.00043
1.00098
1.00268
1.00675
1.01953
1.06688
1.12946
1.53928
2.22814
2.57264
2.66928
2.63087
2.60148
2.58655
2.58671
2.58642
2.58324
2.57321
2.55684
2.53898
2.52317
2.50956
2.49544
2.48277
2.47079
2.46006
2.45013
2.44098
2.43252
2.42434
2.41743
1
1
1
1
1
1
1
1
1
1
1
1
1
1
1
1
1.00002
1.00004
1.00009
1.0002
1.00088
1.00215
1.00551
1.01673
1.04939
1.11168
1.37894
2.03216
2.43291
2.64153
2.61376
2.59842
2.57436
2.57234
2.57591
2.57844
2.5775
2.57369
2.56618
2.55457
2.54229
2.52913
2.51454
2.50035
2.48592
2.47263
2.46037
2.4491
2.43859
2.42944
1
1
1
1
1
1
1
1
1
1
1
1
1
1
1
1
1
1.00003
1.00007
1.00019
1.00054
1.00156
1.00452
1.01045
1.03374
1.09945
1.21903
1.7545
2.50533
2.67752
2.66753
2.6404
2.60859
2.59403
2.58881
2.58654
2.58552
2.58378
2.57985
2.57476
2.56773
2.5603
2.5515
2.54001
2.52928
2.51574
2.5032
2.48967
2.47668
2.46454
1
1
1
1
1
1
1
1
1
1
1
1
1
1
1
1.00001
1.00001
1.00006
1.00005
1.00022
1.00025
1.00179
1.00186
1.01542
1.00757
1.08178
1.17003
1.62989
2.37907
2.63484
2.68556
2.66831
2.63692
2.60726
2.5882
2.57823
2.57321
2.57092
2.56928
2.56753
2.56578
2.56186
2.5588
2.55329
2.54672
2.54024
2.53017
2.52092
2.50891
2.4987
1
1
1
1
1
1
1
1
1
1
1
1
1
1
1
1
1.00001
1.00001
1.00007
1.00007
1.00052
1.00061
1.00403
1.0011
1.02327
1.01226
1.14056
1.3694
1.87572
2.49705
2.70698
2.68303
2.66011
2.62362
2.601
2.58799
2.57935
2.57378
2.57089
2.5683
2.56656
2.56552
2.56351
2.56178
2.55791
2.55469
2.54876
2.54299
2.53544
2.5284
1
1
1
1
1
1
1
1
1
1
1
1
1
1
1
1
1
1.00002
1.00003
1.00015
1.00018
1.0009
1.00151
1.00559
1.01137
1.03458
1.10939
1.27141
1.78083
2.54663
2.69953
2.69607
2.68102
2.65572
2.63951
2.62779
2.61823
2.60689
2.59616
2.58612
2.57673
2.57056
2.56279
2.55849
2.55419
2.55018
2.54756
2.54202
2.53849
2.53285
1
1
1
1
1
1
1
1
1
1
1
1
1
1
1
1
1
1.00001
1.00002
1.0001
1.00013
1.00076
1.00062
1.00496
1.00544
1.03341
1.05769
1.25522
1.68821
2.24074
2.62284
2.67958
2.66473
2.64142
2.62798
2.62603
2.62621
2.62545
2.62268
2.61399
2.59614
2.58048
2.56771
2.55712
2.5499
2.54257
2.53955
2.53507
2.53331
2.53026
1
1
1
1
1
1
1
1
1
1
1
1
1
1
1
1
1
1.00001
1.00001
1.00007
1.00009
1.00036
1.00061
1.00335
1.00366
1.02065
1.02778
1.17179
1.44477
1.95418
2.52574
2.69135
2.66978
2.64859
2.6211
2.61743
2.61938
2.6252
2.62651
2.62569
2.62121
2.60742
2.59201
2.57749
2.56898
2.56122
2.55686
2.55207
2.54891
2.54496
1
1
1
1
1
1
1
1
1
1
1
1
1
1
1
1
1
1.00001
1.00002
1.00009
1.00006
1.00049
1.00048
1.00386
1.0004
1.0321
0.999369
1.13782
1.3181
1.85889
2.57013
2.72749
2.68729
2.67036
2.64593
2.63663
2.6367
2.63836
2.6398
2.63957
2.63752
2.6301
2.62368
2.61371
2.60773
2.5986
2.59147
2.58193
2.57372
2.56441
1
1
1
1
1
1
1
1
1
1
1
1
1
1
1
1
1
1
1.00002
1.00003
1.00018
1.00022
1.00142
1.00137
1.00884
1.00536
1.04845
1.08794
1.34205
1.95662
2.37934
2.68618
2.66868
2.66306
2.64449
2.63477
2.63336
2.63327
2.63271
2.63094
2.62855
2.62466
2.62119
2.61749
2.61547
2.61113
2.60649
2.59614
2.58479
2.57333
1
1
1
1
1
1
1
1
1
1
1
1
1
1
1
1
1
1.00001
1.00002
1.00003
1.00014
1.00019
1.00093
1.00086
1.00585
1.00736
1.03634
1.07104
1.28297
1.77212
2.30055
2.62826
2.65286
2.63807
2.6125
2.60249
2.6033
2.60598
2.6095
2.61129
2.61195
2.61266
2.61412
2.61465
2.61449
2.61364
2.61161
2.60604
2.59693
2.58581
1
1
1
1
1
1
1
1
1
1
1
1
1
1
1
1
1
1
1.00001
1.00001
1.0001
1.00012
1.0007
1.00052
1.00398
1.00461
1.02795
1.03845
1.22863
1.63409
2.1214
2.62149
2.69067
2.65894
2.63424
2.62277
2.62367
2.62584
2.62672
2.62631
2.62461
2.62324
2.62326
2.62403
2.62513
2.62585
2.62574
2.62476
2.62077
2.61466
1
1
1
1
1
1
1
1
1
1
1
1
1
1
1
1
1
1
1
1.00003
1.00001
1.00022
1.0002
1.00167
1.00165
1.01456
0.998774
1.09003
1.15683
1.64028
2.38044
2.67183
2.71414
2.68612
2.65072
2.63597
2.63478
2.63492
2.63441
2.63378
2.63371
2.6342
2.63458
2.63444
2.63382
2.6325
2.62894
2.62459
2.61883
2.61207
1
1
1
1
1
1
1
1
1
1
1
1
1
1
1
1
1
1.00001
1.00001
1.00005
1.00007
1.00031
1.0004
1.00171
1.00218
1.01198
1.0069
1.07667
1.14364
1.58677
2.2978
2.65579
2.71731
2.68714
2.64128
2.61765
2.60985
2.60693
2.60514
2.6042
2.60378
2.60387
2.60397
2.60381
2.6031
2.60159
2.59967
2.59796
2.5974
2.59735
1
1
1
1
1
1
1
1
1
1
1
1
1
1
1
1
1
1.00001
1.00001
1.00005
1.00007
1.00023
1.00036
1.00111
1.00246
1.00934
1.00108
1.07251
1.12835
1.51461
2.21465
2.6139
2.69522
2.66614
2.62617
2.60577
2.59816
2.59387
2.58991
2.58633
2.58288
2.58009
2.57855
2.57799
2.57806
2.5791
2.58203
2.58724
2.59168
2.59684
1
1
1
1
1
1
1
1
1
1
1
1
1
1
1
1
1
1.00001
1.00001
1.00004
1.00006
1.00024
1.00033
1.00105
1.00253
1.00438
1.01732
1.05404
1.11211
1.40932
2.11128
2.49229
2.67837
2.66222
2.63111
2.6096
2.59835
2.59175
2.58764
2.58445
2.58212
2.58107
2.58122
2.58274
2.5868
2.5924
2.59847
2.604
2.60828
2.61192
1
1
1
1
1
1
1
1
1
1
1
1
1
1
1
1
1
1.00001
1.00001
1.00004
1.00006
1.00023
1.0003
1.00139
1.00155
1.00936
1.00309
1.05231
1.10309
1.34965
2.0089
2.38166
2.68666
2.67304
2.65079
2.62374
2.609
2.60717
2.60747
2.60904
2.61118
2.61266
2.61392
2.61501
2.61574
2.61567
2.61511
2.61366
2.61308
2.61215
1
1
1
1
1
1
1
1
1
1
1
1
1
1
1
1
1
1
1.00001
1.00002
1.00004
1.00016
1.00022
1.00112
1.00115
1.0079
1.00228
1.046
1.09079
1.31176
1.91166
2.31449
2.68579
2.68042
2.66138
2.63326
2.63174
2.6358
2.64404
2.64651
2.64606
2.6429
2.63567
2.62843
2.62237
2.61723
2.61308
2.60961
2.60788
2.60605
1
1
1
1
1
1
1
1
1
1
1
1
1
1
1
1
1
1
1.00001
1.00002
1.00003
1.00013
1.00018
1.00088
1.00078
1.0065
1.00151
1.04083
1.07905
1.2824
1.83775
2.26174
2.675
2.6873
2.66958
2.64793
2.65102
2.6614
2.66832
2.66817
2.66339
2.6517
2.63986
2.62996
2.62166
2.61467
2.60923
2.60566
2.60413
2.60309
1
1
1
1
1
1
1
1
1
1
1
1
1
1
1
1
1
1
1
1.00002
1.00003
1.00012
1.00016
1.00075
1.00064
1.00485
1.00085
1.03171
1.05259
1.2622
1.79354
2.23412
2.65361
2.68369
2.66365
2.64198
2.64578
2.65934
2.67243
2.67521
2.6734
2.66502
2.65136
2.63881
2.62788
2.61895
2.61225
2.60816
2.60654
2.60618
1
1
1
1
1
1
1
1
1
1
1
1
1
1
1
1
1
1
1
1.00002
1.00002
1.0001
1.00013
1.00092
1.00094
1.00649
1.00265
1.03239
1.0479
1.26784
1.738
2.23929
2.6409
2.68569
2.66366
2.63455
2.63444
2.64203
2.66056
2.67181
2.6741
2.67229
2.6644
2.65156
2.6403
2.63161
2.62574
2.62269
2.62134
2.62158
1
1
1
1
1
1
1
1
1
1
1
1
1
1
1
1
1
1
1
1.00001
1.00003
1.00004
1.00022
1.00031
1.00193
1.00184
1.01151
1.02483
1.09451
1.18735
1.72949
2.49287
2.69926
2.72097
2.70736
2.68391
2.67283
2.6647
2.65553
2.63941
2.62388
2.61265
2.60423
2.59839
2.59504
2.59376
2.59368
2.5949
2.59832
2.60599
1
1
1
1
1
1
1
1
1
1
1
1
1
1
1
1
1
1
1.00001
1.00001
1.00005
1.00004
1.00037
1.00029
1.00153
1.00401
1.0095
1.02938
1.0958
1.20076
1.71453
2.47504
2.6645
2.70642
2.69668
2.68111
2.67266
2.6645
2.65196
2.63823
2.61788
2.60202
2.59006
2.58179
2.57701
2.57517
2.57504
2.57599
2.57987
2.58782
1
1
1
1
1
1
1
1
1
1
1
1
1
1
1
1
1
1
1.00001
1.00002
1.00003
1.00014
1.0002
1.00081
1.0007
1.00374
0.997346
1.02733
1.03367
1.27594
1.74039
2.25149
2.59464
2.64659
2.62725
2.61103
2.61336
2.62405
2.64125
2.65477
2.66192
2.66241
2.66134
2.65977
2.65804
2.657
2.65412
2.65163
2.64557
2.63996
1
1
1
1
1
1
1
1
1
1
1
1
1
1
1
1
1
1
1
1.00001
1.00003
1.00004
1.00029
1.00033
1.00137
1.00435
1.00872
1.0273
1.09654
1.18814
1.71914
2.46976
2.64694
2.69858
2.69122
2.68064
2.67602
2.66796
2.65164
2.63635
2.61946
2.60753
2.60084
2.59877
2.59888
2.60106
2.60835
2.61906
2.62812
2.63512
2.19302
2.61816
3.14273
3.33654
3.2476
3.2169
3.18804
3.17533
3.15589
3.14256
3.13379
3.12815
3.12516
3.12152
3.12032
3.12017
3.12257
3.12578
3.13061
3.13367
3.13784
3.14035
3.14324
3.14463
3.14573
3.14621
3.14518
3.14322
3.13919
3.13477
3.12835
3.12323
3.1152
3.11014
3.10116
3.096
3.08537
3.07945
3.06703
3.05993
3.04621
3.03709
3.02233
3.01045
2.99781
2.98535
2.97101
2.95916
2.94471
2.93235
2.91841
2.90507
2.89133
2.87788
2.86343
2.85071
2.83641
2.82306
2.80928
2.79579
2.78211
2.76901
2.75498
2.74244
2.72831
2.71538
2.70254
2.68848
2.67698
2.66273
2.65103
2.63815
2.62506
2.61352
2.60015
2.58849
2.57609
2.56397
2.552
2.5406
2.52838
2.51766
2.50575
2.49528
2.4839
2.4738
2.46278
2.45311
2.44238
2.43333
2.42281
2.41442
2.40438
2.39653
2.3873
2.38021
2.37211
2.36668
2.36095
2.35906
2.23028
2.39644
2.79145
3.14143
3.31308
3.40291
3.51822
3.56315
3.54403
3.51179
3.49803
3.4846
3.4695
3.45436
3.43551
3.42188
3.40616
3.38828
3.37248
3.35628
3.33621
3.31894
3.2993
3.28104
3.2613
3.24387
3.22501
3.20887
3.18882
3.17529
3.15745
3.1443
3.12725
3.11481
3.1005
3.08847
3.07567
3.06373
3.05099
3.04011
3.02779
3.01697
3.00536
2.99417
2.98267
2.97053
2.95835
2.94691
2.93466
2.92387
2.91186
2.8999
2.8875
2.87441
2.86216
2.84914
2.8369
2.82448
2.8114
2.79898
2.78546
2.77226
2.75933
2.74488
2.73284
2.7176
2.70519
2.69022
2.67582
2.66168
2.645
2.63112
2.61342
2.59883
2.58094
2.56584
2.5477
2.53273
2.51453
2.49973
2.48185
2.46738
2.44966
2.43583
2.4184
2.40493
2.38827
2.37512
2.35959
2.3469
2.33259
2.32033
2.30739
2.29541
2.28413
2.27251
2.26319
2.25283
2.24667
2.23953
2.2739
2.36606
2.42901
2.55041
2.75346
2.92985
3.11022
3.27406
3.37645
3.42355
3.45131
3.48892
3.50114
3.49149
3.44712
3.37534
3.32262
3.28829
3.25918
3.23767
3.20471
3.17308
3.13921
3.1065
3.07119
3.04165
3.01132
2.98423
2.95786
2.93407
2.90994
2.8889
2.8675
2.84773
2.82825
2.8115
2.79548
2.78128
2.76764
2.75515
2.74234
2.73192
2.71988
2.70869
2.69725
2.6866
2.67694
2.66651
2.6583
2.64824
2.64017
2.62982
2.62097
2.61096
2.60153
2.59249
2.58274
2.57487
2.56537
2.55854
2.54995
2.54355
2.53599
2.5296
2.52292
2.51651
2.51005
2.50366
2.49666
2.49054
2.4827
2.47716
2.46866
2.46332
2.45442
2.44828
2.43909
2.43127
2.42211
2.41242
2.40365
2.3922
2.38374
2.37107
2.36266
2.34904
2.3406
2.32629
2.3177
2.30303
2.2946
2.27976
2.27186
2.25725
2.2499
2.23591
2.22934
2.21646
2.2116
2.20139
2.28746
2.31985
2.35645
2.37935
2.42772
2.48929
2.56101
2.63948
2.72084
2.78942
2.84027
2.87708
2.89046
2.88795
2.87885
2.86266
2.84079
2.81517
2.78971
2.76644
2.74446
2.72545
2.70743
2.69125
2.67624
2.6627
2.64943
2.63682
2.62552
2.61697
2.61084
2.60669
2.60117
2.59588
2.58881
2.58281
2.57534
2.57021
2.5639
2.55885
2.55241
2.54675
2.53964
2.53269
2.52288
2.51383
2.50348
2.49465
2.48397
2.47419
2.46316
2.45347
2.44373
2.43488
2.42635
2.41777
2.40943
2.40105
2.39234
2.38437
2.3751
2.36737
2.3581
2.35023
2.34174
2.3333
2.32576
2.31653
2.30964
2.29981
2.29339
2.28333
2.27739
2.26744
2.26164
2.25209
2.24584
2.23665
2.22972
2.22097
2.21339
2.2053
2.19737
2.18973
2.18179
2.17429
2.16645
2.15902
2.15118
2.14371
2.13597
2.12841
2.1209
2.11339
2.1063
2.09918
2.0929
2.08701
2.08247
2.07988
2.29906
2.29765
2.31478
2.32045
2.32992
2.33974
2.35748
2.37474
2.39447
2.41389
2.43161
2.44454
2.45251
2.45211
2.44896
2.44186
2.43465
2.42678
2.41737
2.40889
2.40143
2.3948
2.38978
2.38562
2.38229
2.37996
2.37897
2.37888
2.37906
2.37943
2.38002
2.38061
2.38088
2.38087
2.38086
2.38089
2.38113
2.38186
2.38259
2.38312
2.38381
2.38416
2.38396
2.38322
2.38087
2.37915
2.37542
2.37314
2.36842
2.36534
2.36005
2.35623
2.35092
2.34618
2.34133
2.33522
2.33073
2.32328
2.31863
2.31081
2.30515
2.29775
2.29063
2.28385
2.27561
2.26935
2.26052
2.25443
2.24533
2.23882
2.22956
2.22257
2.21314
2.20603
2.19669
2.18937
2.18061
2.17262
2.16453
2.15589
2.14831
2.13942
2.13223
2.12357
2.11656
2.10823
2.10148
2.0932
2.08689
2.07846
2.07262
2.06395
2.05841
2.04967
2.04429
2.03579
2.03074
2.0231
2.01917
2.01419
2.31217
2.29908
2.29511
2.28946
2.28372
2.27675
2.27259
2.26908
2.26751
2.26756
2.26792
2.26879
2.26895
2.26816
2.26592
2.26293
2.25911
2.25878
2.25864
2.2589
2.25979
2.26125
2.26426
2.26757
2.27175
2.27549
2.2794
2.28366
2.28768
2.29096
2.29386
2.29647
2.29851
2.29976
2.30075
2.30107
2.30127
2.3011
2.30049
2.29987
2.29857
2.29763
2.29553
2.29379
2.29019
2.28758
2.28318
2.28
2.27537
2.27177
2.26699
2.26302
2.25796
2.25374
2.24843
2.24397
2.23844
2.23357
2.22783
2.22268
2.21699
2.2116
2.2062
2.20026
2.19543
2.1888
2.18453
2.17734
2.17313
2.16558
2.1611
2.1532
2.14863
2.14063
2.1359
2.12796
2.12308
2.11533
2.11039
2.10284
2.09777
2.09035
2.08524
2.07791
2.07292
2.06564
2.06083
2.05351
2.04891
2.04145
2.03703
2.02943
2.02506
2.01741
2.01305
2.00555
2.00133
1.99454
1.99102
1.98672
2.33218
2.3109
2.29513
2.27903
2.26374
2.24771
2.23348
2.22064
2.20993
2.20091
2.19349
2.18705
2.18312
2.17946
2.1779
2.17547
2.17373
2.17406
2.17552
2.1788
2.18295
2.18733
2.19237
2.19757
2.20349
2.2091
2.21449
2.21957
2.22385
2.22764
2.23101
2.23412
2.23738
2.24043
2.24281
2.24553
2.24739
2.24901
2.24999
2.25006
2.24995
2.2496
2.24857
2.24728
2.24447
2.2419
2.23818
2.23476
2.23116
2.22705
2.22382
2.21867
2.21548
2.20934
2.20606
2.19965
2.19626
2.18993
2.18621
2.17997
2.17567
2.16947
2.16487
2.15859
2.15368
2.14713
2.14168
2.13492
2.12914
2.12227
2.11638
2.10934
2.10344
2.09626
2.09047
2.08341
2.07767
2.07088
2.06515
2.05848
2.05292
2.04616
2.041
2.03404
2.02939
2.02216
2.01804
2.01057
2.00676
1.99923
1.99541
1.98805
1.98405
1.97701
1.97284
1.96627
1.96209
1.95639
1.95278
1.94954
2.3475
2.32478
2.30517
2.28301
2.26142
2.24052
2.22178
2.20416
2.18887
2.17501
2.16311
2.15287
2.1449
2.1389
2.13507
2.13249
2.13062
2.13043
2.13141
2.13333
2.13831
2.14397
2.14913
2.15487
2.15976
2.16463
2.1691
2.17377
2.17802
2.18186
2.18592
2.189
2.19246
2.19454
2.19661
2.19809
2.19948
2.19995
2.19971
2.19911
2.19783
2.19688
2.19524
2.19354
2.19098
2.18797
2.18481
2.18117
2.17783
2.17342
2.16961
2.16471
2.16068
2.15576
2.15148
2.14671
2.14214
2.1375
2.13254
2.12789
2.12253
2.1178
2.11217
2.1072
2.10149
2.09586
2.09032
2.08397
2.07856
2.07163
2.06631
2.05908
2.05376
2.0464
2.04106
2.03369
2.02833
2.02101
2.0156
2.00836
2.00292
1.99576
1.9904
1.98336
1.97823
1.97134
1.96649
1.95971
1.95506
1.94846
1.94396
1.93768
1.93332
1.9275
1.92325
1.91808
1.91398
1.90986
1.9063
1.90469
2.35509
2.33562
2.31609
2.29327
2.2719
2.24822
2.22443
2.20416
2.18561
2.16923
2.15453
2.14172
2.13135
2.12342
2.11731
2.11359
2.11075
2.10953
2.10963
2.11076
2.11253
2.1168
2.12195
2.12659
2.13143
2.1359
2.1405
2.14488
2.14907
2.15315
2.15703
2.16029
2.16307
2.16491
2.16648
2.16733
2.16788
2.16778
2.16734
2.16642
2.16512
2.16431
2.16264
2.16136
2.15865
2.15683
2.15349
2.15106
2.14779
2.14477
2.14177
2.13826
2.13532
2.13132
2.12816
2.12376
2.12015
2.11544
2.11134
2.10631
2.10177
2.09648
2.09169
2.08618
2.08132
2.07556
2.07055
2.06441
2.05912
2.05272
2.04716
2.04061
2.0349
2.02814
2.02252
2.01544
2.01008
2.00264
1.99749
1.98977
1.98461
1.97678
1.97144
1.96364
1.95811
1.95044
1.9449
1.93736
1.93205
1.92463
1.91967
1.91248
1.90784
1.90103
1.89661
1.89036
1.88616
1.88083
1.87725
1.87421
2.36024
2.34241
2.32298
2.3023
2.27987
2.25939
2.23823
2.21697
2.19656
2.17724
2.15991
2.14429
2.13125
2.12059
2.1116
2.10525
2.10029
2.09701
2.09562
2.09452
2.09459
2.09511
2.09642
2.09981
2.1023
2.10608
2.10987
2.11359
2.11751
2.12071
2.12394
2.12671
2.12919
2.13122
2.13322
2.13492
2.13535
2.13572
2.13559
2.13515
2.13432
2.13357
2.13268
2.13188
2.13035
2.12862
2.12682
2.12402
2.12198
2.11836
2.116
2.11172
2.10903
2.10431
2.10107
2.09594
2.09206
2.08661
2.08218
2.07646
2.07162
2.06574
2.0608
2.05502
2.05011
2.04447
2.03954
2.03392
2.02881
2.02312
2.01779
2.01188
2.00645
2.00005
1.9947
1.98769
1.98263
1.97516
1.97046
1.9629
1.95848
1.95125
1.94704
1.94028
1.93617
1.92981
1.92576
1.91947
1.91553
1.90918
1.90526
1.89888
1.89504
1.88895
1.88511
1.87945
1.87567
1.87084
1.86757
1.86487
2.36805
2.35101
2.33143
2.31101
2.28943
2.26802
2.24737
2.22648
2.20698
2.18785
2.17073
2.15388
2.13881
2.12559
2.11387
2.1049
2.09667
2.09091
2.0859
2.08229
2.0799
2.07734
2.0762
2.07603
2.07731
2.07907
2.08243
2.0853
2.08838
2.09115
2.09368
2.09626
2.09824
2.10036
2.10229
2.10366
2.10521
2.10641
2.10725
2.10801
2.10827
2.1084
2.10871
2.1086
2.10812
2.10699
2.1058
2.10337
2.10154
2.09845
2.09615
2.09261
2.08956
2.08538
2.08161
2.077
2.0729
2.06803
2.06372
2.05853
2.05394
2.04847
2.04365
2.03797
2.03309
2.02721
2.02241
2.01632
2.01146
2.0052
2.00004
1.9937
1.98828
1.98188
1.97643
1.96981
1.96456
1.95764
1.95267
1.94547
1.94061
1.93337
1.92837
1.92139
1.91617
1.90953
1.90426
1.89784
1.89277
1.88641
1.88168
1.87543
1.87096
1.86499
1.86088
1.8557
1.85201
1.84798
1.84487
1.843
2.37944
2.3625
2.3428
2.32199
2.30035
2.27826
2.25722
2.23605
2.21599
2.19619
2.17743
2.15906
2.14191
2.12616
2.11228
2.10012
2.09028
2.08168
2.0745
2.06861
2.06335
2.06041
2.05784
2.05698
2.05734
2.0582
2.06127
2.06434
2.06837
2.07152
2.07501
2.07779
2.0806
2.08367
2.08626
2.08884
2.0916
2.09359
2.09542
2.09697
2.09798
2.09863
2.09936
2.09934
2.09898
2.09794
2.09675
2.0942
2.09239
2.08891
2.08641
2.08243
2.07922
2.07487
2.07104
2.06628
2.06198
2.05674
2.05209
2.04645
2.04147
2.03554
2.03022
2.02414
2.0186
2.01243
2.00684
2.00059
1.99508
1.98877
1.98338
1.97698
1.97175
1.96515
1.96014
1.9532
1.94837
1.94113
1.93641
1.92915
1.9245
1.91753
1.9129
1.9063
1.90175
1.89536
1.89095
1.88462
1.88038
1.87416
1.87007
1.86417
1.86021
1.85473
1.85097
1.84616
1.84272
1.83893
1.83602
1.8343
2.39083
2.37649
2.3586
2.33829
2.31683
2.29398
2.27184
2.24929
2.22758
2.20658
2.18624
2.16684
2.14906
2.1317
2.11663
2.10243
2.09057
2.07979
2.07089
2.06364
2.05749
2.0538
2.05128
2.05082
2.0512
2.05249
2.05406
2.05749
2.06125
2.06468
2.06817
2.07133
2.07465
2.07791
2.0808
2.08391
2.08675
2.08913
2.0914
2.09319
2.0942
2.09515
2.09578
2.09572
2.09531
2.09412
2.0926
2.08982
2.08756
2.08408
2.08136
2.07753
2.07431
2.07007
2.06627
2.06151
2.05721
2.05201
2.04731
2.04175
2.0366
2.03072
2.02518
2.01901
2.01329
2.00688
2.00117
1.99457
1.98887
1.98211
1.97639
1.9695
1.9638
1.95666
1.95106