/*--------------------------------*- C++ -*----------------------------------*\
| =========                 |                                                 |
| \\      /  F ield         | OpenFOAM: The Open Source CFD Toolbox           |
|  \\    /   O peration     | Version:  2112                                  |
|   \\  /    A nd           | Website:  www.openfoam.com                      |
|    \\/     M anipulation  |                                                 |
\*---------------------------------------------------------------------------*/
FoamFile
{
    version     2.0;
    format      ascii;
    arch        "LSB;label=32;scalar=64";
    class       volVectorField;
    location    "6";
    object      U;
}
// * * * * * * * * * * * * * * * * * * * * * * * * * * * * * * * * * * * * * //

dimensions      [0 1 -1 0 0 0 0];

internalField   nonuniform List<vector> 
7000
(
(3 -5.7532e-07 0.000805021)
(3 -1.37596e-06 0.000764326)
(3 -1.90279e-06 0.00072386)
(3 -2.12968e-06 0.000683628)
(3 -1.88022e-06 0.000643628)
(3 -1.60155e-06 0.000603868)
(3 -1.32981e-06 0.000564358)
(3 -1.15873e-06 0.000525155)
(2.99999 -7.97405e-07 0.0004863)
(2.99995 -1.20929e-06 0.000448388)
(2.99987 -7.35726e-07 0.000411345)
(2.99962 -1.15163e-06 0.000378689)
(2.99917 4.2238e-06 0.000348726)
(2.9978 1.03727e-05 0.00034312)
(2.99558 -4.88719e-06 0.000349386)
(2.98313 -0.000448815 0.000684558)
(2.97195 0.000305048 0.000709262)
(2.85756 -0.00257888 0.0047101)
(2.61306 -0.00598076 0.00747886)
(2.06049 -0.0104624 0.0203133)
(0.985714 -0.0132059 0.0180992)
(0.558714 -0.0186005 0.00576359)
(0.645095 -0.0092907 -0.00123375)
(0.714978 -0.00635273 -0.00113053)
(0.720058 -0.00531428 -0.000349117)
(0.693405 -0.0051766 -4.00584e-05)
(0.651825 -0.00516776 2.27928e-05)
(0.615517 -0.00480563 -0.000185027)
(0.590278 -0.00409005 -0.000456021)
(0.569513 -0.00331574 -0.000642524)
(0.548681 -0.00254651 -0.000779433)
(0.526836 -0.00170841 -0.000911568)
(0.504387 -0.000738318 -0.0010507)
(0.481516 0.000349714 -0.00119525)
(0.457951 0.00148347 -0.00134193)
(0.433592 0.00260584 -0.00148753)
(0.408535 0.00366574 -0.00163454)
(0.382717 0.00460285 -0.0017857)
(0.356338 0.00541504 -0.00193651)
(0.32987 0.00614176 -0.00208679)
(0.303276 0.00679968 -0.00224254)
(0.276379 0.00744985 -0.00240018)
(0.249497 0.00825322 -0.00255345)
(0.222434 0.00938821 -0.00270964)
(0.193987 0.0110295 -0.00287389)
(0.163197 0.0134264 -0.00303688)
(0.129577 0.0166859 -0.00319454)
(0.0926141 0.0206154 -0.0033491)
(0.0511487 0.0230218 -0.00350235)
(0.0111081 0.0146979 -0.00365645)
(3 -5.96686e-07 0.000777211)
(3 -1.41038e-06 0.00073787)
(3 -1.90269e-06 0.000698756)
(3 -2.06953e-06 0.000659873)
(3 -1.69679e-06 0.000621221)
(3 -1.30847e-06 0.000582809)
(3 -9.50572e-07 0.000544641)
(3 -7.38218e-07 0.000506771)
(2.99999 1.28745e-08 0.000469243)
(2.99995 -1.28522e-07 0.000432607)
(2.99988 2.33224e-06 0.000396753)
(2.99964 7.13763e-06 0.000365203)
(2.99921 3.32119e-05 0.000335387)
(2.99786 6.90649e-05 0.000333021)
(2.99564 0.000226599 0.000328836)
(2.98378 0.000253453 0.000652876)
(2.9735 0.00148917 0.00058436)
(2.86175 -0.000108099 0.00441965)
(2.62884 0.0013121 0.00701032)
(2.09051 0.0083513 0.0192164)
(1.00003 0.0371976 0.0178149)
(0.555618 0.0258535 0.00580636)
(0.635765 0.0315744 -0.0010948)
(0.703063 0.0327049 -0.00104738)
(0.708961 0.0309182 -0.000344205)
(0.682649 0.0284209 -4.49205e-05)
(0.640974 0.0261921 1.73578e-05)
(0.604033 0.025134 -0.00017824)
(0.577808 0.0248282 -0.000436528)
(0.555866 0.0246776 -0.000615907)
(0.533844 0.0245685 -0.000749037)
(0.510998 0.0246202 -0.000877388)
(0.487922 0.0249568 -0.00101187)
(0.464896 0.0255734 -0.00115132)
(0.441674 0.0263649 -0.0012923)
(0.418097 0.027268 -0.00143177)
(0.394068 0.0282039 -0.00157286)
(0.36932 0.0290445 -0.00171773)
(0.343906 0.0297633 -0.00186151)
(0.318117 0.0303951 -0.00200562)
(0.291776 0.0309332 -0.00215565)
(0.264747 0.0314636 -0.00230627)
(0.237413 0.032233 -0.00245314)
(0.209614 0.0334873 -0.00260442)
(0.180408 0.0354652 -0.00276177)
(0.14937 0.0384529 -0.00291546)
(0.116712 0.0424141 -0.00306346)
(0.0829978 0.0467 -0.00320687)
(0.0480089 0.0488321 -0.00334844)
(0.0159725 0.0408112 -0.00349612)
(3 -4.0928e-08 0.000748287)
(3 -9.21206e-08 0.00071036)
(3 -1.26911e-07 0.000672656)
(3 -1.94442e-07 0.00063518)
(3 -1.18746e-07 0.000597934)
(3 -3.94699e-08 0.000560924)
(3 2.58238e-08 0.000524153)
(3 -2.35791e-08 0.00048767)
(2.99999 4.53169e-07 0.000451527)
(2.99995 3.37161e-07 0.000416226)
(2.99988 3.47126e-06 0.000381655)
(2.99965 9.40884e-06 0.000350992)
(2.99924 4.20456e-05 0.000322038)
(2.99797 7.68668e-05 0.000315878)
(2.99597 0.000322202 0.000308282)
(2.98426 0.000569182 0.000615736)
(2.9744 0.00162562 0.000559242)
(2.86514 -0.000544806 0.00417462)
(2.63985 0.00163939 0.00653221)
(2.11567 0.00560952 0.018164)
(1.00827 0.0381192 0.0175629)
(0.541777 0.0166837 0.00578357)
(0.626089 0.021659 -0.00108493)
(0.695374 0.0280296 -0.00100713)
(0.701182 0.0280714 -0.000319276)
(0.675339 0.0265189 -4.45761e-05)
(0.634343 0.024412 8.98376e-06)
(0.598029 0.0240809 -0.00017947)
(0.571926 0.0249038 -0.000422072)
(0.549748 0.0259768 -0.00059162)
(0.527324 0.0270747 -0.000719427)
(0.504029 0.0283315 -0.000842873)
(0.480523 0.0299304 -0.000972145)
(0.457127 0.031904 -0.00110618)
(0.433707 0.0341562 -0.00124074)
(0.410179 0.036621 -0.00137385)
(0.386382 0.039191 -0.00150916)
(0.361993 0.0416914 -0.00164688)
(0.337013 0.0440563 -0.00178307)
(0.311558 0.0462989 -0.00192078)
(0.285324 0.0484099 -0.00206387)
(0.258189 0.0505104 -0.0022065)
(0.230535 0.052922 -0.00234648)
(0.202214 0.0559668 -0.00249212)
(0.172527 0.0599268 -0.00264294)
(0.141455 0.0649967 -0.00278884)
(0.109553 0.0708884 -0.0029281)
(0.0776241 0.0764947 -0.00306231)
(0.0453464 0.0788584 -0.00319578)
(0.0168389 0.0698806 -0.00333599)
(3 -8.17835e-09 0.000718202)
(3 4.61105e-08 0.00068175)
(3 9.2251e-08 0.000645518)
(3 9.73166e-08 0.000609509)
(3 1.33204e-07 0.000573726)
(3 1.70658e-07 0.000538176)
(3 2.03158e-07 0.000502861)
(3 1.49422e-07 0.000467823)
(2.99999 5.12478e-07 0.000433115)
(2.99996 1.25213e-06 0.000399189)
(2.99989 7.66574e-06 0.000365936)
(2.99967 2.08207e-05 0.000336239)
(2.99928 6.84605e-05 0.000308035)
(2.99808 0.000145787 0.000300693)
(2.9962 0.000369532 0.000291177)
(2.98497 0.000520801 0.000574301)
(2.9756 0.00201395 0.000516456)
(2.86926 0.000333245 0.00390072)
(2.65527 0.00614854 0.00600728)
(2.14867 0.0153688 0.0170065)
(1.02491 0.0642903 0.0173161)
(0.537456 0.0428261 0.00578854)
(0.622827 0.0472279 -0.00104838)
(0.69145 0.0527925 -0.000947639)
(0.695675 0.0515693 -0.00028115)
(0.669455 0.048952 -3.60468e-05)
(0.62878 0.0458993 5.30546e-06)
(0.593176 0.045068 -0.000179282)
(0.567221 0.0456163 -0.000405008)
(0.544834 0.0464748 -0.000564028)
(0.522097 0.0473586 -0.000686374)
(0.498468 0.0483902 -0.000805189)
(0.4746 0.0497486 -0.000929363)
(0.450809 0.0514909 -0.00105768)
(0.427038 0.0535854 -0.00118613)
(0.403297 0.0560164 -0.0013133)
(0.37943 0.0587141 -0.0014426)
(0.355117 0.0615386 -0.00157366)
(0.330358 0.0644139 -0.00170286)
(0.305152 0.0673216 -0.00183416)
(0.279088 0.0702326 -0.00197024)
(0.252071 0.0732627 -0.00210467)
(0.224473 0.0767394 -0.00223744)
(0.196109 0.0809893 -0.00237706)
(0.166446 0.0862412 -0.00252089)
(0.135731 0.0925563 -0.00265853)
(0.104659 0.0994113 -0.00278963)
(0.074066 0.10545 -0.00291597)
(0.0432614 0.107723 -0.00304148)
(0.0168188 0.0984808 -0.00317252)
(3 1.58235e-08 0.000686908)
(3 2.01526e-07 0.000651994)
(3 4.20865e-07 0.000617296)
(3 6.78465e-07 0.000582817)
(3 7.91343e-07 0.00054856)
(3 8.81038e-07 0.00051453)
(3 9.47504e-07 0.000480731)
(3 9.37408e-07 0.0004472)
(2.99999 1.13881e-06 0.000413983)
(2.99996 3.46178e-06 0.000381475)
(2.9999 1.72025e-05 0.00034959)
(2.99969 4.57079e-05 0.000320855)
(2.99934 0.000143519 0.000293364)
(2.9982 0.000348644 0.000285927)
(2.99647 0.000669916 0.000274297)
(2.98566 0.00166756 0.000529502)
(2.97703 0.00204351 0.000446845)
(2.87453 -0.000727568 0.0036371)
(2.6728 0.00966948 0.00548334)
(2.18774 0.0205962 0.0157312)
(1.04711 0.0848709 0.0171417)
(0.533434 0.0591992 0.00583117)
(0.619784 0.0607207 -0.00101329)
(0.687851 0.0637305 -0.000894266)
(0.690351 0.0614306 -0.000249391)
(0.663682 0.0583625 -3.30462e-05)
(0.623339 0.0555469 -3.08449e-06)
(0.58849 0.0550624 -0.000181801)
(0.562803 0.0561102 -0.000390306)
(0.540422 0.0576294 -0.000538374)
(0.517697 0.0592871 -0.000654729)
(0.494137 0.0611447 -0.00076834)
(0.47031 0.0633302 -0.000886806)
(0.446454 0.0658779 -0.001009)
(0.422535 0.0687733 -0.00113102)
(0.398606 0.0720277 -0.00125181)
(0.374534 0.0756044 -0.00137481)
(0.350061 0.0793966 -0.00149919)
(0.325239 0.0833489 -0.0016215)
(0.300018 0.0874387 -0.00174588)
(0.27395 0.0916225 -0.00187498)
(0.246994 0.0959948 -0.00200222)
(0.219506 0.100831 -0.00212784)
(0.191231 0.106412 -0.00225947)
(0.16175 0.11291 -0.00239426)
(0.13147 0.120255 -0.00252363)
(0.101122 0.127757 -0.00264676)
(0.0715529 0.133953 -0.00276636)
(0.0416794 0.136085 -0.00288587)
(0.0165647 0.126963 -0.00300995)
(3 1.26369e-08 0.00065435)
(3 2.20072e-07 0.000621041)
(3 4.82881e-07 0.000587944)
(3 8.29843e-07 0.000555061)
(3 1.00686e-06 0.000522395)
(3 1.15154e-06 0.00048995)
(3 1.26205e-06 0.00045773)
(3 1.28947e-06 0.000425769)
(2.99999 1.547e-06 0.00039409)
(2.99997 3.81486e-06 0.000363005)
(2.99991 1.69922e-05 0.000332454)
(2.99975 4.45996e-05 0.000304415)
(2.99948 0.000140928 0.000276662)
(2.99845 0.000337707 0.000268797)
(2.99727 0.000680482 0.000246671)
(2.98623 0.00157497 0.000507631)
(2.97685 0.00169164 0.000444861)
(2.8807 -0.00215613 0.00325827)
(2.6931 0.0141174 0.0049056)
(2.23428 0.0260685 0.0142757)
(1.08161 0.103734 0.0170319)
(0.53848 0.0819642 0.00587813)
(0.621607 0.0828988 -0.000959838)
(0.687176 0.0801403 -0.000836902)
(0.687488 0.0762248 -0.000227629)
(0.659972 0.0727522 -3.50458e-05)
(0.619582 0.070677 -1.22621e-05)
(0.585031 0.0704356 -0.000181071)
(0.559374 0.0715154 -0.000373494)
(0.536886 0.0731843 -0.000511485)
(0.514132 0.0751337 -0.000621766)
(0.490654 0.0773645 -0.000729731)
(0.466933 0.07996 -0.000842331)
(0.443118 0.0829425 -0.000958094)
(0.419167 0.0863029 -0.00107333)
(0.39514 0.0900647 -0.00118808)
(0.3709 0.0942216 -0.00130478)
(0.346246 0.098707 -0.00142169)
(0.321295 0.103497 -0.00153704)
(0.295967 0.108579 -0.00165511)
(0.269827 0.113909 -0.00177613)
(0.242894 0.119545 -0.00189466)
(0.21549 0.12568 -0.00201361)
(0.18734 0.132516 -0.00213878)
(0.158132 0.140144 -0.0022653)
(0.128343 0.148354 -0.00238596)
(0.098645 0.156309 -0.00250143)
(0.0699063 0.162538 -0.00261249)
(0.0406781 0.164507 -0.00272406)
(0.0163753 0.155611 -0.00283954)
(3 1.44977e-08 0.000620474)
(3 2.27847e-07 0.000588841)
(3 5.34569e-07 0.000557413)
(3 9.62735e-07 0.000526196)
(3 1.25638e-06 0.000495189)
(3 1.49679e-06 0.000464396)
(3 1.68256e-06 0.000433822)
(3 1.73747e-06 0.000403496)
(2.99999 2.34625e-06 0.000373437)
(2.99997 1.97083e-06 0.000343913)
(2.99992 3.36987e-06 0.000314865)
(2.99977 5.73121e-06 0.000288007)
(2.99954 2.67889e-05 0.000261334)
(2.99857 4.40531e-05 0.000252494)
(2.99751 0.000197693 0.000228826)
(2.98678 2.82914e-05 0.000473026)
(2.97738 0.00101485 0.000423492)
(2.8882 -0.00210281 0.00286326)
(2.71432 0.0160778 0.00436139)
(2.28408 0.0289423 0.0127618)
(1.12857 0.107703 0.0168836)
(0.558052 0.108206 0.00591362)
(0.629372 0.112446 -0.00083429)
(0.68938 0.0990164 -0.000757697)
(0.688715 0.0917631 -0.000230545)
(0.660188 0.0870551 -4.71899e-05)
(0.618952 0.0857659 -2.33548e-05)
(0.58345 0.0855655 -0.000175435)
(0.557173 0.0864656 -0.000354998)
(0.534359 0.0882334 -0.000484513)
(0.511496 0.0905511 -0.000588558)
(0.488084 0.0933028 -0.000690605)
(0.464507 0.0964951 -0.000796896)
(0.44081 0.100116 -0.000905981)
(0.416913 0.104151 -0.00101432)
(0.392856 0.108624 -0.00112213)
(0.368482 0.113532 -0.00123241)
(0.343648 0.118842 -0.00134262)
(0.318528 0.124554 -0.00145089)
(0.293031 0.130652 -0.00156252)
(0.266771 0.137108 -0.00167627)
(0.239838 0.143968 -0.00178699)
(0.212523 0.151371 -0.00189798)
(0.184513 0.159429 -0.00201548)
(0.155572 0.168113 -0.00213381)
(0.126199 0.177073 -0.00224602)
(0.0970007 0.185385 -0.00235315)
(0.0688496 0.191576 -0.0024578)
(0.0400048 0.193371 -0.0025613)
(0.01617 0.184756 -0.00267107)
(3 1.96875e-08 0.000585223)
(3 2.07008e-07 0.000555339)
(3 5.3205e-07 0.000525654)
(3 9.35279e-07 0.000496173)
(3 1.3439e-06 0.000466896)
(3 1.63151e-06 0.000437826)
(3 1.86754e-06 0.000408967)
(3 1.98504e-06 0.000380342)
(2.99999 2.64312e-06 0.000351986)
(2.99997 2.49396e-06 0.000324133)
(2.99992 4.1213e-06 0.00029671)
(2.99977 7.18248e-06 0.000271271)
(2.99953 2.71426e-05 0.000246054)
(2.9986 4.63974e-05 0.000236374)
(2.99755 0.000192857 0.000214995)
(2.98725 1.43073e-05 0.000433064)
(2.97805 0.00135032 0.000392917)
(2.89579 -0.000923706 0.00249388)
(2.73572 0.015422 0.00383878)
(2.33128 0.0313488 0.0114057)
(1.18468 0.092446 0.0164337)
(0.592045 0.132964 0.00588326)
(0.63902 0.142023 -0.000550018)
(0.690907 0.121002 -0.000632104)
(0.694284 0.110379 -0.000266517)
(0.666685 0.103897 -7.33639e-05)
(0.624542 0.102884 -3.75393e-05)
(0.586569 0.102436 -0.000163998)
(0.558472 0.102874 -0.000334312)
(0.534491 0.104404 -0.000457358)
(0.510901 0.106808 -0.000554849)
(0.487111 0.109906 -0.000650572)
(0.463402 0.113628 -0.000750284)
(0.439693 0.117896 -0.000852546)
(0.415832 0.122655 -0.000954117)
(0.39179 0.127909 -0.00105519)
(0.367361 0.133637 -0.00115818)
(0.342421 0.139819 -0.00126056)
(0.317152 0.146485 -0.00136167)
(0.291476 0.153631 -0.00146535)
(0.265069 0.161218 -0.00157141)
(0.238086 0.169274 -0.00167481)
(0.210797 0.177889 -0.00177828)
(0.182872 0.187109 -0.0018872)
(0.154131 0.196797 -0.00199724)
(0.125066 0.206458 -0.00210164)
(0.0961905 0.215106 -0.00220068)
(0.0684095 0.221334 -0.00229721)
(0.039745 0.223051 -0.00239655)
(0.0160972 0.214744 -0.00249529)
(3 2.41175e-08 0.000548536)
(3 1.85552e-07 0.000520478)
(3 5.2085e-07 0.000492613)
(3 8.8567e-07 0.000464943)
(3 1.40828e-06 0.000437471)
(3 1.74232e-06 0.000410197)
(3 2.03475e-06 0.000383127)
(3 2.22122e-06 0.000356278)
(2.99999 2.94889e-06 0.000329681)
(2.99997 2.65294e-06 0.00030354)
(2.99993 2.55507e-06 0.000277784)
(2.9998 2.64713e-06 0.000253766)
(2.99959 7.09173e-06 0.000229972)
(2.99873 -8.04829e-06 0.000220036)
(2.99779 9.8231e-05 0.000197501)
(2.98806 -0.000307648 0.000392998)
(2.97926 0.00165415 0.00035846)
(2.90293 0.000582613 0.00216825)
(2.75838 0.015599 0.00329745)
(2.37417 0.0325618 0.0102039)
(1.24716 0.0836218 0.0155168)
(0.628767 0.159898 0.00583078)
(0.636036 0.163427 -0.000118579)
(0.681114 0.14348 -0.000499988)
(0.693229 0.131399 -0.000302242)
(0.671459 0.123293 -0.000105442)
(0.631945 0.121644 -5.5196e-05)
(0.593069 0.121061 -0.000151258)
(0.5637 0.12119 -0.000311138)
(0.538494 0.122327 -0.000427843)
(0.513761 0.124521 -0.000519075)
(0.489042 0.127678 -0.000608297)
(0.464668 0.131707 -0.000701596)
(0.440531 0.13649 -0.000796846)
(0.416427 0.141927 -0.000891032)
(0.392229 0.14798 -0.000985473)
(0.367658 0.154604 -0.00108128)
(0.342599 0.161747 -0.00117687)
(0.317213 0.169418 -0.00127156)
(0.29138 0.17763 -0.00136787)
(0.264836 0.186353 -0.00146515)
(0.237788 0.195587 -0.00156067)
(0.21047 0.205373 -0.00165718)
(0.182559 0.215704 -0.00175778)
(0.15392 0.226345 -0.00185799)
(0.125013 0.236691 -0.00195381)
(0.09627 0.245679 -0.00204569)
(0.0686166 0.251967 -0.00213458)
(0.0398539 0.253685 -0.00222382)
(0.0160505 0.245739 -0.00231911)
(3 1.85987e-08 0.000510349)
(3 1.77791e-07 0.000484199)
(3 4.774e-07 0.000458233)
(3 8.44833e-07 0.000432455)
(3 1.32069e-06 0.000406865)
(3 1.73479e-06 0.000381466)
(3 2.1299e-06 0.000356259)
(3 2.45995e-06 0.000331259)
(2.99999 2.94342e-06 0.000306515)
(2.99997 1.89492e-06 0.000282216)
(2.99992 -5.59368e-07 0.00025828)
(2.99978 -5.61362e-06 0.000236043)
(2.99955 -1.21727e-05 0.000214096)
(2.9987 -6.26026e-05 0.000204568)
(2.99762 4.8126e-05 0.000182242)
(2.98883 -0.000400149 0.000346171)
(2.98112 0.00196837 0.000312877)
(2.91068 0.0015837 0.00185857)
(2.77986 0.0168313 0.00282322)
(2.41892 0.0330559 0.00892338)
(1.3292 0.0911076 0.0143045)
(0.680895 0.191017 0.00585707)
(0.632372 0.182022 0.000355695)
(0.673409 0.163831 -0.000425097)
(0.68999 0.151448 -0.000309665)
(0.673464 0.142412 -0.00013127)
(0.637976 0.140199 -7.62519e-05)
(0.599776 0.140203 -0.000143383)
(0.570063 0.140631 -0.00028731)
(0.544362 0.141689 -0.000397013)
(0.51901 0.143752 -0.000482334)
(0.493554 0.146901 -0.000564563)
(0.468418 0.151082 -0.000650803)
(0.44361 0.15621 -0.000738921)
(0.419012 0.162197 -0.000826255)
(0.394491 0.168968 -0.00091384)
(0.369703 0.176463 -0.00100235)
(0.344492 0.184601 -0.00108937)
(0.318979 0.193333 -0.00117615)
(0.293002 0.202662 -0.00126555)
(0.266324 0.212558 -0.00135483)
(0.239177 0.222984 -0.00144176)
(0.211759 0.233952 -0.0015303)
(0.183747 0.245405 -0.00162312)
(0.155059 0.257014 -0.00171499)
(0.126112 0.26808 -0.00180229)
(0.0972571 0.277496 -0.00188628)
(0.0694475 0.283952 -0.00196916)
(0.0404147 0.285706 -0.00205255)
(0.0162575 0.278139 -0.00213506)
(3 1.01881e-08 0.000470595)
(3 1.73176e-07 0.000446438)
(3 4.27442e-07 0.000422457)
(3 8.05637e-07 0.000398653)
(3 1.20209e-06 0.000375028)
(3 1.71813e-06 0.000351582)
(3 2.24621e-06 0.00032832)
(3 2.77445e-06 0.000305253)
(2.99999 2.87297e-06 0.000282423)
(2.99997 3.00827e-06 0.00025999)
(2.99993 6.84727e-06 0.000237877)
(2.9998 1.41765e-05 0.000217244)
(2.99958 5.08153e-05 0.000197027)
(2.99883 9.54252e-05 0.000186438)
(2.99783 0.000362695 0.000168932)
(2.98991 0.000411178 0.000298134)
(2.98303 0.00288743 0.000264888)
(2.91856 0.00231592 0.0015724)
(2.80186 0.0185985 0.00236672)
(2.46685 0.0358285 0.00763155)
(1.42982 0.101346 0.0129171)
(0.748787 0.223214 0.00590942)
(0.630861 0.203633 0.000858565)
(0.668944 0.182696 -0.000373369)
(0.688763 0.169272 -0.000314897)
(0.676341 0.160029 -0.000154643)
(0.644866 0.158095 -0.00010116)
(0.607511 0.159759 -0.000138833)
(0.577301 0.160798 -0.000261227)
(0.551319 0.162008 -0.000363708)
(0.525808 0.164179 -0.000444167)
(0.500011 0.167477 -0.000519863)
(0.47434 0.17186 -0.000598546)
(0.448928 0.177284 -0.000679497)
(0.423761 0.183723 -0.000759295)
(0.398775 0.191119 -0.000839391)
(0.373653 0.199394 -0.000921058)
(0.34822 0.208463 -0.00100092)
(0.322566 0.218255 -0.00107955)
(0.296476 0.228742 -0.00116085)
(0.269678 0.239864 -0.00124231)
(0.242407 0.251534 -0.0013211)
(0.214851 0.26373 -0.00140115)
(0.18667 0.276362 -0.00148503)
(0.157786 0.289015 -0.00156811)
(0.128587 0.30088 -0.00164713)
(0.0993645 0.310833 -0.0017222)
(0.0710838 0.317614 -0.00179684)
(0.0413646 0.319647 -0.00187348)
(0.0164834 0.312508 -0.00195324)
(3 1.00593e-08 0.000429205)
(3 1.54763e-07 0.000407131)
(3 3.89543e-07 0.000385222)
(3 7.32663e-07 0.00036348)
(3 1.10718e-06 0.000341905)
(3 1.62027e-06 0.000320499)
(3 2.14719e-06 0.000299264)
(3 2.69136e-06 0.000278212)
(2.99999 2.58613e-06 0.000257376)
(2.99997 2.40338e-06 0.000236879)
(2.99994 5.48837e-06 0.000216668)
(2.99982 1.14394e-05 0.000197595)
(2.99963 4.30509e-05 0.000178926)
(2.99898 8.28904e-05 0.000167656)
(2.99811 0.000310947 0.000154718)
(2.99114 0.000348286 0.000249842)
(2.98477 0.00280853 0.000253436)
(2.92682 0.00249605 0.00127758)
(2.82504 0.020122 0.0018949)
(2.51857 0.0383221 0.0063934)
(1.55046 0.114198 0.0113507)
(0.831829 0.258618 0.0059975)
(0.630549 0.227029 0.00137428)
(0.666845 0.201902 -0.000332529)
(0.690906 0.185592 -0.000325244)
(0.682999 0.178164 -0.000180998)
(0.655817 0.176413 -0.000130637)
(0.618671 0.179533 -0.000135263)
(0.586627 0.181349 -0.000228956)
(0.560028 0.182975 -0.000328393)
(0.534483 0.185536 -0.0004045)
(0.508563 0.189231 -0.000473644)
(0.482541 0.193988 -0.000544451)
(0.456661 0.199773 -0.000617485)
(0.430995 0.206615 -0.000690584)
(0.405529 0.214552 -0.00076259)
(0.380001 0.223542 -0.000835808)
(0.354257 0.233503 -0.000908583)
(0.328371 0.244347 -0.000979779)
(0.302119 0.256011 -0.00105257)
(0.275189 0.268406 -0.00112584)
(0.247756 0.281405 -0.00119665)
(0.219985 0.29494 -0.00126802)
(0.191526 0.308862 -0.00134315)
(0.162281 0.322687 -0.00141742)
(0.132605 0.335531 -0.00148822)
(0.102739 0.346195 -0.00155664)
(0.0737104 0.353422 -0.00162281)
(0.0430953 0.355785 -0.00168968)
(0.0171139 0.349189 -0.00175888)
(3 1.58201e-08 0.000386103)
(3 1.31205e-07 0.000366207)
(3 3.5905e-07 0.000346464)
(3 6.42402e-07 0.000326875)
(3 1.03338e-06 0.000307441)
(3 1.49476e-06 0.000288163)
(3 1.97108e-06 0.000269044)
(3 2.46608e-06 0.000250096)
(2.99999 2.13244e-06 0.000231343)
(2.99997 1.4645e-06 0.000212884)
(2.99994 2.48255e-06 0.000194676)
(2.99983 5.03984e-06 0.000177432)
(2.99965 2.16036e-05 0.000160715)
(2.99907 3.28493e-05 0.000148972)
(2.99826 0.00019618 0.000138068)
(2.99224 0.000143547 0.000207847)
(2.98678 0.00244392 0.000207914)
(2.93603 0.00323728 0.00100986)
(2.84883 0.0198532 0.00149851)
(2.57456 0.043396 0.00513488)
(1.69516 0.125961 0.00960306)
(0.931062 0.29478 0.00616048)
(0.632311 0.248761 0.00187189)
(0.667902 0.219605 -0.000307687)
(0.69837 0.20289 -0.000353298)
(0.696066 0.198651 -0.000213924)
(0.671627 0.197189 -0.000141984)
(0.634784 0.200453 -0.000130849)
(0.600162 0.202774 -0.000198343)
(0.572148 0.204845 -0.000292143)
(0.546154 0.207833 -0.000364132)
(0.519966 0.212002 -0.000425386)
(0.493562 0.217247 -0.000488302)
(0.467215 0.223526 -0.000552828)
(0.441075 0.230866 -0.000618061)
(0.41513 0.239351 -0.000683958)
(0.389166 0.249015 -0.000748948)
(0.363068 0.259815 -0.000813209)
(0.336877 0.27169 -0.000877128)
(0.310371 0.284563 -0.000941624)
(0.283248 0.298302 -0.00100627)
(0.25562 0.312738 -0.00106909)
(0.227566 0.327758 -0.00113198)
(0.198718 0.343172 -0.0011975)
(0.168963 0.358411 -0.00126318)
(0.138571 0.372487 -0.00132552)
(0.107695 0.384175 -0.00138433)
(0.0774065 0.39219 -0.00144375)
(0.0453318 0.395186 -0.00150589)
(0.0178684 0.389182 -0.00156919)
(3 1.37532e-08 0.000341213)
(3 1.13903e-07 0.000323595)
(3 3.17299e-07 0.000306115)
(3 5.60102e-07 0.000288776)
(3 8.99126e-07 0.000271578)
(3 1.24214e-06 0.000254522)
(3 1.58154e-06 0.000237609)
(3 1.89521e-06 0.000220855)
(2.99999 1.64627e-06 0.000204274)
(2.99998 1.40342e-06 0.000187946)
(2.99994 3.98034e-06 0.000171835)
(2.99985 8.81976e-06 0.000156536)
(2.99968 3.42099e-05 0.000141565)
(2.99916 6.51299e-05 0.000131118)
(2.99841 0.000254906 0.000119497)
(2.99331 0.000310557 0.000170297)
(2.98912 0.00288076 0.000142921)
(2.94498 0.00392761 0.00079293)
(2.87606 0.0212332 0.00109883)
(2.63511 0.0484283 0.00401097)
(1.8573 0.135169 0.00773804)
(1.04519 0.324789 0.006372)
(0.639184 0.268096 0.0022992)
(0.678178 0.236166 -0.000320904)
(0.716876 0.22078 -0.00039198)
(0.718534 0.219271 -0.00023342)
(0.69469 0.219325 -0.000140342)
(0.657293 0.223066 -0.000120447)
(0.61966 0.225944 -0.000168423)
(0.58945 0.228463 -0.000254811)
(0.562328 0.231817 -0.000321793)
(0.535394 0.236358 -0.000376412)
(0.508334 0.242029 -0.000430466)
(0.481364 0.248781 -0.000487277)
(0.454657 0.256649 -0.000543782)
(0.428202 0.265713 -0.00060132)
(0.401749 0.276048 -0.000659556)
(0.375232 0.287647 -0.000715527)
(0.348695 0.300497 -0.000770982)
(0.321869 0.314571 -0.000827481)
(0.294457 0.329728 -0.000883031)
(0.266542 0.345741 -0.000937017)
(0.238129 0.362458 -0.000992297)
(0.208791 0.379642 -0.00104912)
(0.178334 0.396644 -0.00110472)
(0.146981 0.412374 -0.00115864)
(0.114821 0.425494 -0.00121131)
(0.0829337 0.434706 -0.00126138)
(0.0488849 0.438614 -0.00131245)
(0.0191888 0.433398 -0.00136546)
(3 1.95026e-08 0.000294452)
(3 9.08393e-08 0.000279216)
(3 2.81545e-07 0.000264104)
(3 4.63862e-07 0.000249116)
(3 7.42931e-07 0.000234254)
(3 1.01132e-06 0.000219518)
(3 1.29059e-06 0.000204909)
(3 5.94566e-07 0.00019044)
(2.99999 -8.64291e-07 0.000176121)
(2.99998 -6.77926e-06 0.000162007)
(2.99995 -1.00895e-05 0.000148079)
(2.99987 -4.1533e-05 0.000134753)
(2.99972 -5.33819e-05 0.000121808)
(2.99929 -0.000239547 0.000111568)
(2.99865 -0.000284804 0.000101263)
(2.99475 -0.00168118 0.000131334)
(2.99148 0.0014095 0.000119028)
(2.95496 0.00256716 0.00056603)
(2.9034 0.0199534 0.000726081)
(2.69705 0.0415056 0.00300352)
(2.0428 0.129445 0.00586117)
(1.18552 0.326636 0.00658483)
(0.675095 0.291854 0.00256182)
(0.710649 0.271474 -0.000320514)
(0.754233 0.251592 -0.000412019)
(0.757634 0.247425 -0.000245778)
(0.731542 0.245956 -0.000134188)
(0.691415 0.248718 -0.000108474)
(0.64911 0.251692 -0.000138799)
(0.615082 0.254294 -0.000215468)
(0.585496 0.257756 -0.000276455)
(0.556802 0.26252 -0.000324076)
(0.52831 0.268531 -0.000370351)
(0.500197 0.275721 -0.000418304)
(0.472575 0.284093 -0.000467322)
(0.445411 0.293735 -0.000516195)
(0.418398 0.304758 -0.00056583)
(0.391376 0.31718 -0.000614579)
(0.364421 0.331012 -0.00066213)
(0.337271 0.346284 -0.000710245)
(0.30955 0.36289 -0.000757331)
(0.281288 0.380633 -0.000802423)
(0.252472 0.399307 -0.000848329)
(0.222588 0.418649 -0.00089671)
(0.191311 0.437873 -0.000943469)
(0.158722 0.455839 -0.000987726)
(0.124812 0.471119 -0.00103051)
(0.0905366 0.482213 -0.00107451)
(0.0535956 0.487661 -0.0011197)
(0.020948 0.483595 -0.00116679)
(3 1.48083e-08 0.000245734)
(3 7.64832e-08 0.000232991)
(3 2.31616e-07 0.000220355)
(3 3.90498e-07 0.000207826)
(3 6.13844e-07 0.000195404)
(3 8.06319e-07 0.000183091)
(3 9.75833e-07 0.000170891)
(3 5.14693e-07 0.00015881)
(2.99999 2.52511e-07 0.000146878)
(2.99997 -1.18607e-06 0.00013509)
(2.99992 2.88194e-06 0.000123654)
(2.99982 -2.07619e-06 0.000112511)
(2.99953 2.84051e-05 0.000102934)
(2.99899 -3.58698e-06 9.42982e-05)
(2.99729 0.000153543 9.57765e-05)
(2.99502 -0.000238355 9.1903e-05)
(2.99425 0.00311812 6.92989e-05)
(2.9637 -0.00416445 0.000399995)
(2.9238 0.028924 0.000488891)
(2.74863 -0.00767357 0.00217439)
(2.23309 0.122548 0.00404247)
(1.36002 0.216496 0.00669717)
(0.72971 0.28408 0.00258406)
(0.751392 0.29492 -0.000196506)
(0.792891 0.28712 -0.000335449)
(0.803887 0.283811 -0.000241962)
(0.779126 0.281551 -0.000125011)
(0.738088 0.282177 -9.81592e-05)
(0.691306 0.284055 -0.000112472)
(0.652123 0.285848 -0.000175175)
(0.618628 0.288544 -0.000229757)
(0.586859 0.292687 -0.000270443)
(0.555784 0.298316 -0.000308445)
(0.525537 0.305416 -0.000347853)
(0.496258 0.313925 -0.000387825)
(0.467857 0.323897 -0.000428476)
(0.439971 0.335461 -0.000469318)
(0.412316 0.348619 -0.000509684)
(0.384856 0.363413 -0.000549229)
(0.357331 0.379928 -0.000588899)
(0.329349 0.398096 -0.000628021)
(0.300799 0.417738 -0.000665713)
(0.27161 0.438654 -0.000702359)
(0.241198 0.460618 -0.000739885)
(0.209037 0.482786 -0.000778483)
(0.175091 0.503904 -0.000815318)
(0.139125 0.522351 -0.000850171)
(0.101982 0.536401 -0.000883358)
(0.0611474 0.544383 -0.000918041)
(0.0239445 0.54214 -0.000954961)
(3 5.08325e-09 0.000194969)
(3 6.58655e-08 0.000184835)
(3 1.77222e-07 0.000174789)
(3 3.32753e-07 0.00016483)
(3 5.34164e-07 0.00015496)
(3 5.71221e-07 0.000145178)
(3 5.58567e-07 0.000135486)
(3 7.027e-07 0.000125889)
(2.99999 1.79194e-06 0.000116399)
(2.99998 6.77963e-06 0.000107012)
(2.99995 1.78537e-05 9.78194e-05)
(2.9999 5.22976e-05 8.8763e-05)
(2.99975 0.000122259 8.04318e-05)
(2.99949 0.000316827 7.23996e-05)
(2.99862 0.000678893 6.84492e-05)
(2.99758 0.00188664 6.34321e-05)
(2.98884 0.00351143 0.000120931)
(2.98055 -0.00274663 0.000127468)
(2.90671 0.0214734 0.000730886)
(2.7722 -0.0180243 0.00108788)
(2.39682 0.069132 0.00349017)
(1.32395 0.10269 0.00539507)
(0.720977 0.265709 0.00212797)
(0.707592 0.297814 6.58367e-05)
(0.766514 0.30925 -0.000225944)
(0.796132 0.311946 -0.000183985)
(0.786623 0.313169 -9.95593e-05)
(0.75698 0.315035 -7.9789e-05)
(0.716828 0.318115 -8.79567e-05)
(0.680432 0.320653 -0.000135234)
(0.648227 0.323405 -0.000180468)
(0.616816 0.327119 -0.000214002)
(0.585404 0.332174 -0.000244334)
(0.554392 0.338749 -0.000275306)
(0.524163 0.346945 -0.00030655)
(0.494934 0.356857 -0.000338154)
(0.466379 0.368622 -0.000370046)
(0.438217 0.382311 -0.000401764)
(0.410468 0.397921 -0.000433283)
(0.382809 0.415633 -0.000464529)
(0.354767 0.43543 -0.000494876)
(0.326172 0.45719 -0.000524205)
(0.296908 0.480655 -0.000552893)
(0.266253 0.505792 -0.000581842)
(0.233482 0.531819 -0.000609873)
(0.198256 0.55743 -0.000636975)
(0.159843 0.580833 -0.000663229)
(0.118794 0.599905 -0.000689368)
(0.0724485 0.612577 -0.000717081)
(0.0285872 0.613687 -0.000746754)
(3 4.29652e-09 0.000142059)
(3 4.88179e-08 0.000134658)
(3 1.35527e-07 0.000127322)
(3 2.48538e-07 0.000120053)
(3 4.04649e-07 0.00011285)
(3 5.05158e-07 0.000105713)
(3 4.74643e-07 9.86443e-05)
(3 3.21217e-07 9.16451e-05)
(2.99999 4.95287e-07 8.4724e-05)
(2.99998 2.09516e-06 7.78789e-05)
(2.99996 5.96319e-06 7.11703e-05)
(2.99991 1.75713e-05 6.45567e-05)
(2.99977 4.04103e-05 5.84351e-05)
(2.99952 8.47932e-05 5.24838e-05)
(2.99878 0.000142824 4.89285e-05)
(2.99799 0.000441996 4.38046e-05)
(2.99063 0.000588337 7.89559e-05)
(2.98419 0.00356111 7.9887e-05)
(2.92186 0.0047848 0.000452074)
(2.81191 0.0265141 0.000664605)
(2.48603 0.0536598 0.00224453)
(1.46749 0.1482 0.00381255)
(0.79283 0.313882 0.00177969)
(0.674169 0.32115 0.000286855)
(0.727049 0.32626 -0.000129972)
(0.763714 0.326668 -0.000123327)
(0.76686 0.331125 -7.67527e-05)
(0.750208 0.336547 -6.48989e-05)
(0.720564 0.344118 -6.69242e-05)
(0.691429 0.350295 -9.66687e-05)
(0.665084 0.355424 -0.000130381)
(0.638294 0.360579 -0.000155752)
(0.610185 0.366473 -0.000178007)
(0.581369 0.373419 -0.000200386)
(0.552534 0.381778 -0.000223055)
(0.524125 0.391825 -0.000245694)
(0.49616 0.403784 -0.000268419)
(0.468421 0.417923 -0.000291078)
(0.441052 0.434351 -0.000313372)
(0.41391 0.453246 -0.000336544)
(0.386467 0.474617 -0.000359033)
(0.35841 0.498652 -0.000379693)
(0.329742 0.525293 -0.000400001)
(0.299726 0.554407 -0.000420431)
(0.267171 0.585493 -0.000440526)
(0.231441 0.617353 -0.000459222)
(0.191237 0.64833 -0.000476529)
(0.146259 0.676019 -0.00049223)
(0.0925489 0.697908 -0.000509251)
(0.0376244 0.706998 -0.000529079)
(3 3.72241e-11 8.6904e-05)
(3 3.89321e-08 8.23652e-05)
(3 9.00668e-08 7.78681e-05)
(3 1.76708e-07 7.34125e-05)
(3 2.43117e-07 6.89987e-05)
(3 4.06864e-07 6.46268e-05)
(3 4.72608e-07 6.02976e-05)
(3 8.42754e-07 5.60112e-05)
(2.99999 1.93747e-06 5.17718e-05)
(2.99999 5.8496e-06 4.75776e-05)
(2.99997 1.44608e-05 4.34583e-05)