/*--------------------------------*- C++ -*----------------------------------*\
| =========                 |                                                 |
| \\      /  F ield         | OpenFOAM: The Open Source CFD Toolbox           |
|  \\    /   O peration     | Version:  2112                                  |
|   \\  /    A nd           | Website:  www.openfoam.com                      |
|    \\/     M anipulation  |                                                 |
\*---------------------------------------------------------------------------*/
FoamFile
{
    version     2.0;
    format      ascii;
    arch        "LSB;label=32;scalar=64";
    class       volScalarField;
    location    "27";
    object      p;
}
// * * * * * * * * * * * * * * * * * * * * * * * * * * * * * * * * * * * * * //

dimensions      [0 2 -2 0 0 0 0];

internalField   nonuniform List<scalar> 
400
(
2.5819794e-07
-0.00067258502
-0.0013850588
-0.0019424147
-0.0022197062
-0.0021562017
-0.001727496
-0.00092590495
0.00023571482
0.0017076983
0.0033875781
0.005112488
0.0066737705
0.0078493967
0.0084586876
0.008423987
0.0078137032
0.0068448243
0.0058616044
0.0052992481
0.00065812809
-4.0235089e-05
-0.00056936795
-0.00094033225
-0.0011105687
-0.0010396254
-0.00070549351
-9.5247185e-05
0.00078939637
0.001916481
0.003209878
0.0045549964
0.0057822562
0.0067165527
0.0072147229
0.0072148299
0.0067702571
0.0060530711
0.0053108296
0.0047387888
0.0014239867
0.00044093902
-0.00011630975
-0.00045295135
-0.000614515
-0.00058451644
-0.00034628443
0.00012003955
0.00082875547
0.0017702003
0.0028945821
0.0040984525
0.0052285274
0.0061112629
0.0065941609
0.0065979581
0.0061560326
0.0054218071
0.0045940444
0.0037485342
0.0020144814
0.00068197325
1.7058098e-05
-0.00035856297
-0.00057125727
-0.00062626601
-0.00050978792
-0.0001903354
0.00036879778
0.0011846815
0.0022302065
0.0034177164
0.0045916535
0.0055572302
0.0061238466
0.0061668559
0.0056839167
0.0048173477
0.0037475915
0.0024738993
0.0021675518
0.00049640302
-0.00029597213
-0.00074841678
-0.0010579628
-0.0012449779
-0.0012924543
-0.0011510063
-0.00075475311
-5.2801664e-05
0.00095732323
0.0022105796
0.0035450044
0.0047329588
0.0055221406
0.0057101818
0.0052295841
0.0042019024
0.0028064831
0.00098426164
0.0016542429
-0.00031419482
-0.001238501
-0.0017990126
-0.0022523719
-0.0026276171
-0.002898326
-0.0029907846
-0.0028022371
-0.002237376
-0.0012507934
0.00013119554
0.0017449484
0.0033274105
0.0045419427
0.0050660763
0.0047177923
0.0035664958
0.0017898914
-0.00072562257
0.00028730698
-0.0019192855
-0.0029727109
-0.0036710919
-0.0043200036
-0.0049529054
-0.0055298226
-0.0059476525
-0.0060586998
-0.0057070769
-0.0047754106
-0.0032583909
-0.0012662058
0.00090747914
0.0028234261
0.0039871344
0.0040253922
0.002888006
0.0007156773
-0.0026802006
-0.0020761444
-0.0044509045
-0.0056265142
-0.0064920292
-0.0073926224
-0.0083654614
-0.0093566178
-0.010231476
-0.010790661
-0.010804532
-0.010063052
-0.0084614538
-0.00604046
-0.0030829121
-0.00012600445
0.0021129235
0.0029641267
0.0021358808
-0.00036573468
-0.0048723089
-0.0055238781
-0.0079918226
-0.0092776277
-0.010333493
-0.011537696
-0.012935108
-0.014462397
-0.015956007
-0.017162148
-0.017765715
-0.017437764
-0.015919158
-0.013122644
-0.0092514467
-0.0048986986
-0.0010297095
0.0012697135
0.0012780654
-0.0013336567
-0.0072013735
-0.010076619
-0.0125648
-0.013936367
-0.015183705
-0.016718076
-0.018602312
-0.020773881
-0.023048444
-0.025121363
-0.026586025
-0.026969022
-0.025812615
-0.022845354
-0.018074129
-0.012050776
-0.0059516411
-0.0013704309
0.00030089867
-0.0019468994
-0.0093819189
-0.01568469
-0.018132115
-0.019537256
-0.020926506
-0.022757435
-0.025129567
-0.027996688
-0.031166079
-0.034291142
-0.036876519
-0.038293841
-0.037843946
-0.035065526
-0.029601145
-0.021822177
-0.012985261
-0.0051846641
-0.00071544337
-0.0017638942
-0.010791948
-0.022243298
-0.024612738
-0.025945291
-0.027334651
-0.029323853
-0.032078921
-0.035588629
-0.03966433
-0.043926947
-0.047800973
-0.050529856
-0.051236148
-0.048956547
-0.043143221
-0.033768694
-0.021926026
-0.01003657
-0.0014151358
-9.5615525e-06
-0.010225314
-0.029640912
-0.031923595
-0.032978446
-0.034079563
-0.035939198
-0.038831207
-0.042795306
-0.04765127
-0.052990213
-0.058163262
-0.062283918
-0.064265202
-0.062874831
-0.057111863
-0.046476423
-0.031648772
-0.015037551
-0.00086408252
0.0046470676
-0.0055212345
-0.0378657
-0.040048211
-0.04043984
-0.040752216
-0.042014736
-0.044652753
-0.048757883
-0.054143747
-0.060355716
-0.066665025
-0.072060363
-0.075267957
-0.07481104
-0.06926895
-0.057627995
-0.0399612
-0.018247666
0.0027893415
0.014445458
0.0069078459
-0.047230288
-0.049134054
-0.048140278
-0.046882005
-0.046905199
-0.048798381
-0.052667978
-0.058275702
-0.065075788
-0.072231679
-0.078595449
-0.082712003
-0.082879896
-0.077309085
-0.064523638
-0.043934658
-0.016747693
0.012503243
0.032939079
0.032409245
-0.058896501
-0.059639586
-0.0558836
-0.051940763
-0.049972032
-0.050629578
-0.053928339
-0.059495031
-0.066611549
-0.074284985
-0.081190857
-0.085679096
-0.085831495
-0.0795219
-0.064875813
-0.040688984
-0.0072406379
0.032139656
0.064981736
0.077749465
-0.076226235
-0.072613464
-0.063515867
-0.055435079
-0.050724741
-0.049781315
-0.052312047
-0.057664064
-0.064891515
-0.072774665
-0.079779062
-0.084036448
-0.083391362
-0.075348678
-0.057602397
-0.028374869
0.012933599
0.06539675
0.11555179
0.1515065
-0.10809195
-0.089556116
-0.071233565
-0.057232711
-0.049071845
-0.046329935
-0.048076979
-0.053202313
-0.060434323
-0.068295563
-0.075027094
-0.07852662
-0.07638872
-0.065809398
-0.04386521
-0.0078181834
0.044393933
0.11299842
0.18838069
0.27186103
-0.17684522
-0.10828947
-0.07620226
-0.054650989
-0.042992113
-0.038997756
-0.040570231
-0.045927757
-0.053441244
-0.061438061
-0.068027289
-0.070962266
-0.067550849
-0.054739559
-0.029148546
0.013563864
0.078147219
0.17006462
0.28949573
0.47421848
-0.37208321
-0.12470821
-0.05497281
-0.031962261
-0.022063297
-0.020300255
-0.024359183
-0.031957718
-0.04126127
-0.050640592
-0.058316606
-0.062187172
-0.059782268
-0.048056533
-0.022658259
0.021474472
0.092818984
0.21015303
0.40288868
0.77640955
)
;

boundaryField
{
    movingWall
    {
        type            zeroGradient;
    }
    fixedWalls
    {
        type            zeroGradient;
    }
    frontAndBack
    {
        type            empty;
    }
}


// ************************************************************************* //
