/*--------------------------------*- C++ -*----------------------------------*\
| =========                 |                                                 |
| \\      /  F ield         | OpenFOAM: The Open Source CFD Toolbox           |
|  \\    /   O peration     | Version:  2112                                  |
|   \\  /    A nd           | Website:  www.openfoam.com                      |
|    \\/     M anipulation  |                                                 |
\*---------------------------------------------------------------------------*/
FoamFile
{
    version     2.0;
    format      ascii;
    arch        "LSB;label=32;scalar=64";
    class       surfaceScalarField;
    location    "27";
    object      phi;
}
// * * * * * * * * * * * * * * * * * * * * * * * * * * * * * * * * * * * * * //

dimensions      [0 3 -1 0 0 0 0];

oriented        oriented;

internalField   nonuniform List<scalar> 
760
(
1.2701653e-05
-1.2704641e-05
-2.8723796e-05
4.1425452e-05
-0.00012229227
9.3568476e-05
-0.00025039688
0.00012810462
-0.00039607635
0.00014567948
-0.0005453933
0.00014931695
-0.00068627462
0.00014088133
-0.00080689591
0.00012062129
-0.00089495672
8.806081e-05
-0.00093839494
4.3438219e-05
-0.00092727854
-1.1116405e-05
-0.00085686521
-7.0413319e-05
-0.00073043153
-0.00012643367
-0.000561343
-0.0001690885
-0.00037276086
-0.0001885821
-0.00019447413
-0.00017828667
-5.6521896e-05
-0.00013795218
1.9614479e-05
-7.6136349e-05
3.041132e-05
-1.0796844e-05
3.0411315e-05
-4.3183433e-05
3.0478795e-05
-0.00020456703
0.00020280905
-0.00046832585
0.00035732731
-0.00080070964
0.00046048842
-0.001167353
0.00051232288
-0.0015364527
0.00051841659
-0.0018782314
0.00048266007
-0.0021636863
0.00040607622
-0.0023645486
0.00028892305
-0.0024553554
0.00013424505
-0.0024181481
-4.8323687e-05
-0.0022453631
-0.00024319833
-0.0019475602
-0.00042423647
-0.0015544716
-0.00056217703
-0.0011143226
-0.00062873107
-0.00068747526
-0.000605134
-0.0003345257
-0.00049090173
-0.0001008967
-0.00030976534
-1.5519165e-06
-0.00011014163
2.8859393e-05
-0.00011002767
0.00014050647
-0.00040303338
0.00049581476
-0.00083139185
0.00078568578
-0.0013456231
0.00097471973
-0.0018986067
0.0010653064
-0.0024465907
0.0010664006
-0.0029480437
0.00098411312
-0.0033626308
0.00082066334
-0.0036519029
0.00057819518
-0.0037823294
0.00026467153
-0.003729834
-0.00010081908
-0.0034858205
-0.00048721187
-0.00306328
-0.00084677704
-0.0024999968
-0.0011254603
-0.0018582361
-0.0012704918
-0.0012181449
-0.0012452253
-0.00066373688
-0.0010453097
-0.00026308968
-0.00071041254
-4.795634e-05
-0.00032527497
-1.9096936e-05
-0.00017344045
0.00031394693
-0.00059329534
0.00091566967
-0.0011777013
0.0013700917
-0.0018583795
0.001655398
-0.0025769216
0.0017838485
-0.0032813235
0.0017708026
-0.0039228108
0.0016256004
-0.0044541539
0.0013520064
-0.0048302767
0.00095431803
-0.0050112492
0.00044564401
-0.0049672659
-0.00014480235
-0.0046844411
-0.00077003679
-0.0041723546
-0.0013588636
-0.0034691299
-0.0018286851
-0.0026440111
-0.0020956107
-0.0017932016
-0.0020960347
-0.0010258508
-0.0018126605
-0.00044021503
-0.0012960483
-9.6723883e-05
-0.00066876609
-0.0001158208
-0.00022979665
0.00054374358
-0.00076507845
0.0014509515
-0.0014914927
0.002096506
-0.0023225587
0.002486464
-0.0031901554
0.0026514452
-0.0040368404
0.0026174876
-0.0048100568
0.0023988168
-0.0054589859
0.0020009355
-0.0059342028
0.001429535
-0.006189833
0.00070127426
-0.0061884126
-0.00014622276
-0.0059055819
-0.0010528674
-0.0053404176
-0.0019240279
-0.0045231163
-0.0026459863
-0.0035229766
-0.0030957504
-0.0024498048
-0.0031692065
-0.0014425393
-0.002819926
-0.00064123119
-0.0020973565
-0.00014883689
-0.0011611604
-0.00026465768
-0.00027729909
0.00082104268
-0.00091155111
0.0020852035
-0.001760738
0.0029456929
-0.0027228201
0.0034485461
-0.0037222262
0.0036508512
-0.0046987124
0.0035939738
-0.0055989109
0.0032990153
-0.0063712119
0.0027732365
-0.0069637495
0.0020220726
-0.0073248568
0.0010623816
-0.0074074782
-6.3601257e-05
-0.0071717087
-0.0012886368
-0.006598897
-0.0024968395
-0.0057016844
-0.0035431989
-0.0045400211
-0.0042574137
-0.003231843
-0.0044773846
-0.0019490208
-0.0041027481
-0.00088728756
-0.0031590897
-0.00021159417
-0.0018368538
-0.00047625186
-0.00031411659
0.0011351593
-0.001026341
0.0027974279
-0.0019735115
0.0038928634
-0.0030417595
0.0045167941
-0.0041507235
0.0047598153
-0.0052399519
0.0046832022
-0.0062580822
0.0043171456
-0.007155535
0.0036706893
-0.0078803767
0.0027469143
-0.0083768512
0.0015588561
-0.0085853975
0.00014494505
-0.0084513266
-0.0014227077
-0.0079295046
-0.0030186614
-0.0070049673
-0.0044677363
-0.0057150457
-0.0055473353
-0.0041735819
-0.0060188484
-0.0025818446
-0.0056944854
-0.0012041045
-0.0045368297
-0.00029450397
-0.0027464543
-0.00077075584
-0.00033824856
0.0014734078
-0.0011031693
0.0035623486
-0.0021176342
0.0049073283
-0.0032598897
0.0056590496
-0.0044474067
0.0059473324
-0.0056219611
0.0058577566
-0.0067369474
0.0054321319
-0.0077479648
0.0046817066
-0.0086063717
0.0036053212
-0.0092552475
0.0022077319
-0.0096270109
0.00051670843
-0.0096492023
-0.0014005165
-0.0092489772
-0.0034188864
-0.0083739404
-0.0053427731
-0.0070220704
-0.0068992053
-0.0052818123
-0.0077591065
-0.0033676659
-0.0076086318
-0.0016173629
-0.0062871327
-0.00040826881
-0.0039555484
-0.0011790246
-0.00034815607
0.0018215639
-0.0011372146
0.0043514072
-0.0021827878
0.0059529015
-0.0033586188
0.0068348805
-0.0045822409
0.0071709545
-0.00579982
0.0070753357
-0.006972192
0.006604504
-0.0080636649
0.0057731795
-0.0090334382
0.0045750946
-0.0098289901
0.0030032837
-0.010381271
0.0010689891
-0.010604522
-0.0011772651
-0.010400775
-0.0036226342
-0.0096748928
-0.0060686548
-0.0083686728
-0.0082054252
-0.006515684
-0.0096120953
-0.0043098838
-0.0098144319
-0.002148323
-0.0084486936
-0.00056492521
-0.0055389462
-0.0017439499
-0.00034393474
0.0021654986
-0.0011278594
0.0051353319
-0.0021647094
0.0069897515
-0.0033259014
0.0079960726
-0.0045308017
0.0083758548
-0.0057319433
0.0082764773
-0.0069002201
0.0077727808
-0.0080123798
0.0068853393
-0.0090408243
0.005603539
-0.0099449649
0.0039074244
-0.010663393
0.0017874169
-0.011106744
-0.00073391423
-0.011163418
-0.0035659595
-0.010697126
-0.006534947
-0.0095825976
-0.0093199536
-0.0077667759
-0.011427917
-0.0053715003
-0.012209707
-0.0028071783
-0.011013016
-0.00077836883
-0.0075677556
-0.0025223187
-0.00032890792
0.0024944066
-0.0010824214
0.0058888454
-0.002070777
0.0079781071
-0.0031636128
0.0090889083
-0.0042839018
0.0094961438
-0.0053928533
0.0093854288
-0.0064741403
0.0088540679
-0.0075205479
0.007931747
-0.0085229179
0.006605909
-0.0094603446
0.0048448512
-0.010291332
0.0026184043
-0.010933227
-9.2019317e-05
-0.011283212
-0.0032159746
-0.011173633
-0.0066445259
-0.010415713
-0.010077873
-0.0088467356
-0.012996895
-0.0064557534
-0.01460069
-0.0035815266
-0.013887242
-0.0010642227
-0.010085059
-0.0035865414
-0.00031178422
0.0028061908
-0.0010206792
0.0065977403
-0.0019261005
0.0088835284
-0.0028949497
0.010057758
-0.0038568838
0.010458078
-0.0047855648
0.01031411
-0.0056807679
0.0097492711
-0.0065544574
0.0088054366
-0.0074198912
0.0074713428
-0.0082818269
0.0057067869
-0.0091251574
0.0034617348
-0.0099086415
0.00069146479
-0.010527258
-0.002597358
-0.010827015
-0.0063447691
-0.010573629
-0.010331259
-0.0094932088
-0.014077315
-0.0073911388
-0.01670276
-0.0044189144
-0.016859467
-0.0014372115
-0.013066762
-0.0050237528
-0.00031004288
0.0031162337
-0.00098036503
0.0072680625
-0.0017790494
0.0096822128
-0.002569367
0.010848075
-0.0032945971
0.011183308
-0.0039478985
0.010967411
-0.0045499724
0.010351345
-0.005134788
0.0093902521
-0.0057399227
0.0080764776
-0.0063985271
0.0063653913
-0.0071301297
0.0041933373
-0.0079302615
0.0014915966
-0.008738808
-0.0017888115
-0.0094303607
-0.0056532164
-0.0097685825
-0.0099930375
-0.0094003445
-0.014445553
-0.0079305798
-0.018172524
-0.0052061613
-0.019583885
-0.001902612
-0.016370312
-0.0069263648
-0.00035604027
0.003472274
-0.0010239974
0.0079360196
-0.0017042308
0.010362446
-0.0022607994
0.011404644
-0.0026657228
0.011588231
-0.0029440111
0.011245699
-0.0031442505
0.010551584
-0.0033248685
0.0095708701
-0.0035471941
0.0082988031
-0.0038710471
0.0066892443
-0.0043491723
0.0046714626
-0.0050183817
0.0021608061
-0.0058766145
-0.00093057872
-0.0068578369
-0.004671994
-0.0077762897
-0.0090745846
-0.0082658364
-0.013956006
-0.0077687407
-0.01866962
-0.0057510997
-0.021601526
-0.0024366711
-0.01968474
-0.0093630359
-0.00050826119
0.0039805352
-0.0012456317
0.0086733902
-0.0017958842
0.010912699
-0.002048
0.011656759
-0.0020325071
0.011572739
-0.0018254274
0.01103862
-0.0015121941
0.010238351
-0.0011778621
0.0092365381
-0.00090471583
0.0080256568
-0.00077372335
0.0065582518
-0.00086349365
0.0047612329
-0.0012473614
0.0025446738
-0.0019828355
-0.00019510454
-0.0030818714
-0.0035729581
-0.0044600343
-0.0076964217
-0.0058274889
-0.012588551
-0.0065661649
-0.017930944
-0.0057684474
-0.022399244
-0.002951225
-0.022501963
-0.012314261
-0.00086855344
0.0048490886
-0.0017629834
0.0095678202
-0.0021213547
0.01127107
-0.0019368438
0.011472248
-0.0013509193
0.010986814
-0.00051618903
0.01020389
0.00043704548
0.0092851167
0.0013996184
0.0082739653
0.0022723818
0.0071528934
0.0029609202
0.0058697134
0.0033691548
0.0043529983
0.0033968027
0.0025170259
0.0029385479
0.00026315032
0.0019096122
-0.0025440224
0.00026968537
-0.0060564949
-0.0018541633
-0.010464703
-0.003951596
-0.015833511
-0.0048608344
-0.021490005
-0.0032547034
-0.024108094
-0.015568964
-0.001591084
0.0064401724
-0.0026108528
0.010587589
-0.0025131352
0.011173353
-0.0015899038
0.010549017
-0.00017216664
0.0095690766
0.0014928059
0.0085389168
0.0032329032
0.0075450194
0.004923243
0.0065836255
0.0064630018
0.0056131345
0.0077575059
0.0045752093
0.008707511
0.0034029932
0.0092014983
0.0020230386
0.0091033425
0.00036130617
0.0082750908
-0.0017157707
0.0065654601
-0.0043468642
0.0039042345
-0.0078034769
0.0005589537
-0.01248823
-0.0024680547
-0.018462997
-0.0030273168
-0.023548831
-0.018596281
-0.0027183593
0.0091585319
-0.0031498656
0.011019095
-0.0018029978
0.0098264855
0.0004667033
0.0082793163
0.0030894263
0.0069463537
0.0057738145
0.0058545286
0.008362902
0.0049559319
0.0107604
0.0041861278
0.012893495
0.0034800394
0.014690663
0.0027780415
0.016068347
0.0020253089
0.016923285
0.0011681004
0.017119713
0.00016487841
0.016490829
-0.0010868866
0.014816839
-0.0026728746
0.011846656
-0.0048332941
0.0074354917
-0.0080770659
0.002262929
-0.013290434
-0.0012724666
-0.020013436
-0.019868748
-0.0024132789
0.011571811
2.8056883e-05
0.0085777581
0.0042551381
0.0055994038
0.0084161224
0.004118332
0.012231485
0.0031309914
0.015656264
0.0024297498
0.018686547
0.0019256487
0.02132919
0.0015434847
0.02358349
0.0012257393
0.025429225
0.00093230684
0.026820168
0.00063436581
0.027677179
0.00031108929
0.027900203
-5.8145493e-05
0.027347224
-0.00053390729
0.025771631
-0.001097282
0.022843046
-0.0019047094
0.01805477
-0.0032887893
0.011113586
-0.0063492511
0.0033886753
-0.012288525
-0.016480072
0.011571812
0.02014957
0.025748974
0.029867306
0.032998297
0.035428047
0.037353696
0.03889718
0.04012292
0.041055227
0.041689592
0.042000682
0.041942536
0.041408629
0.040311347
0.038406637
0.035117848
0.028768597
0.016480072
)
;

boundaryField
{
    movingWall
    {
        type            calculated;
        value           uniform 0;
    }
    fixedWalls
    {
        type            calculated;
        value           uniform 0;
    }
    frontAndBack
    {
        type            empty;
        value           nonuniform List<scalar> 0();
    }
}


// ************************************************************************* //
