/*--------------------------------*- C++ -*----------------------------------*\
| =========                 |                                                 |
| \\      /  F ield         | OpenFOAM: The Open Source CFD Toolbox           |
|  \\    /   O peration     | Version:  2112                                  |
|   \\  /    A nd           | Website:  www.openfoam.com                      |
|    \\/     M anipulation  |                                                 |
\*---------------------------------------------------------------------------*/
FoamFile
{
    version     2.0;
    format      ascii;
    arch        "LSB;label=32;scalar=64";
    class       surfaceScalarField;
    location    "27";
    object      phi_0;
}
// * * * * * * * * * * * * * * * * * * * * * * * * * * * * * * * * * * * * * //

dimensions      [0 3 -1 0 0 0 0];

oriented        oriented;

internalField   nonuniform List<scalar> 
760
(
1.2701647e-05
-1.2704647e-05
-2.8723799e-05
4.1425449e-05
-0.00012229227
9.3568475e-05
-0.00025039688
0.00012810462
-0.00039607635
0.00014567948
-0.00054539329
0.00014931695
-0.00068627462
0.00014088133
-0.00080689591
0.00012062129
-0.00089495672
8.8060814e-05
-0.00093839494
4.3438223e-05
-0.00092727853
-1.1116405e-05
-0.0008568652
-7.0413323e-05
-0.00073043151
-0.00012643368
-0.00056134298
-0.00016908852
-0.00037276085
-0.00018858212
-0.00019447413
-0.00017828671
-5.6521916e-05
-0.00013795221
1.9614458e-05
-7.6136371e-05
3.0411311e-05
-1.0796851e-05
3.0411314e-05
-4.3183436e-05
3.0478792e-05
-0.00020456703
0.00020280905
-0.00046832585
0.0003573273
-0.00080070964
0.00046048842
-0.001167353
0.00051232288
-0.0015364527
0.00051841659
-0.0018782314
0.00048266007
-0.0021636863
0.00040607622
-0.0023645486
0.00028892306
-0.0024553554
0.00013424506
-0.0024181481
-4.8323692e-05
-0.002245363
-0.00024319835
-0.0019475602
-0.00042423652
-0.0015544716
-0.00056217709
-0.0011143226
-0.00062873112
-0.00068747526
-0.00060513405
-0.0003345257
-0.00049090176
-0.00010089671
-0.00030976536
-1.5519193e-06
-0.00011014163
2.8859398e-05
-0.00011002768
0.00014050647
-0.00040303338
0.00049581476
-0.00083139184
0.00078568578
-0.0013456231
0.00097471972
-0.0018986066
0.0010653064
-0.0024465907
0.0010664006
-0.0029480437
0.00098411312
-0.0033626308
0.00082066333
-0.0036519029
0.00057819517
-0.0037823294
0.00026467153
-0.003729834
-0.00010081907
-0.0034858205
-0.00048721187
-0.00306328
-0.00084677703
-0.0024999968
-0.0011254603
-0.0018582361
-0.0012704918
-0.0012181449
-0.0012452253
-0.00066373687
-0.0010453097
-0.00026308968
-0.00071041254
-4.7956336e-05
-0.00032527496
-1.9096935e-05
-0.00017344045
0.00031394692
-0.00059329534
0.00091566966
-0.0011777013
0.0013700917
-0.0018583795
0.001655398
-0.0025769216
0.0017838485
-0.0032813235
0.0017708026
-0.0039228107
0.0016256003
-0.0044541538
0.0013520064
-0.0048302767
0.00095431803
-0.0050112492
0.00044564402
-0.0049672659
-0.00014480231
-0.0046844411
-0.00077003673
-0.0041723546
-0.0013588635
-0.0034691299
-0.001828685
-0.002644011
-0.0020956106
-0.0017932016
-0.0020960347
-0.0010258508
-0.0018126605
-0.00044021502
-0.0012960483
-9.6723881e-05
-0.0006687661
-0.00011582081
-0.00022979665
0.00054374358
-0.00076507844
0.0014509515
-0.0014914927
0.002096506
-0.0023225587
0.002486464
-0.0031901553
0.0026514452
-0.0040368403
0.0026174876
-0.0048100567
0.0023988167
-0.0054589858
0.0020009355
-0.0059342027
0.0014295349
-0.006189833
0.00070127427
-0.0061884125
-0.00014622274
-0.0059055819
-0.0010528673
-0.0053404176
-0.0019240279
-0.0045231163
-0.0026459863
-0.0035229766
-0.0030957503
-0.0024498047
-0.0031692065
-0.0014425393
-0.0028199259
-0.00064123119
-0.0020973564
-0.00014883689
-0.0011611604
-0.0002646577
-0.00027729909
0.00082104267
-0.0009115511
0.0020852035
-0.001760738
0.0029456929
-0.0027228201
0.0034485461
-0.0037222262
0.0036508512
-0.0046987124
0.0035939738
-0.0055989109
0.0032990153
-0.0063712119
0.0027732365
-0.0069637494
0.0020220725
-0.0073248567
0.0010623816
-0.0074074782
-6.3601285e-05
-0.0071717086
-0.0012886369
-0.006598897
-0.0024968395
-0.0057016844
-0.0035431989
-0.0045400211
-0.0042574136
-0.003231843
-0.0044773846
-0.0019490208
-0.0041027481
-0.00088728756
-0.0031590896
-0.00021159417
-0.0018368538
-0.00047625186
-0.00031411659
0.0011351593
-0.001026341
0.0027974279
-0.0019735115
0.0038928633
-0.0030417595
0.0045167941
-0.0041507235
0.0047598153
-0.0052399518
0.0046832022
-0.0062580821
0.0043171456
-0.0071555349
0.0036706893
-0.0078803767
0.0027469143
-0.0083768512
0.0015588561
-0.0085853975
0.00014494501
-0.0084513266
-0.0014227078
-0.0079295046
-0.0030186614
-0.0070049672
-0.0044677363
-0.0057150456
-0.0055473352
-0.0041735819
-0.0060188483
-0.0025818446
-0.0056944854
-0.0012041046
-0.0045368297
-0.00029450397
-0.0027464543
-0.00077075583
-0.00033824856
0.0014734078
-0.0011031693
0.0035623486
-0.0021176342
0.0049073283
-0.0032598896
0.0056590495
-0.0044474067
0.0059473323
-0.0056219611
0.0058577565
-0.0067369474
0.0054321319
-0.0077479647
0.0046817066
-0.0086063717
0.0036053212
-0.0092552475
0.0022077319
-0.0096270109
0.00051670844
-0.0096492022
-0.0014005165
-0.0092489772
-0.0034188864
-0.0083739404
-0.0053427731
-0.0070220704
-0.0068992052
-0.0052818122
-0.0077591065
-0.0033676659
-0.0076086317
-0.0016173629
-0.0062871327
-0.00040826881
-0.0039555484
-0.0011790246
-0.00034815607
0.0018215639
-0.0011372146
0.0043514072
-0.0021827878
0.0059529015
-0.0033586187
0.0068348805
-0.0045822408
0.0071709544
-0.00579982
0.0070753357
-0.006972192
0.006604504
-0.0080636649
0.0057731795
-0.0090334382
0.0045750946
-0.0098289901
0.0030032837
-0.010381271
0.0010689892
-0.010604522
-0.001177265
-0.010400774
-0.0036226342
-0.0096748928
-0.0060686548
-0.0083686728
-0.0082054252
-0.006515684
-0.0096120953
-0.0043098838
-0.0098144319
-0.002148323
-0.0084486935
-0.00056492521
-0.0055389462
-0.0017439498
-0.00034393473
0.0021654986
-0.0011278594
0.0051353319
-0.0021647094
0.0069897514
-0.0033259014
0.0079960725
-0.0045308017
0.0083758547
-0.0057319432
0.0082764773
-0.0069002201
0.0077727808
-0.0080123798
0.0068853393
-0.0090408243
0.005603539
-0.0099449649
0.0039074244
-0.010663393
0.001787417
-0.011106743
-0.00073391419
-0.011163418
-0.0035659595
-0.010697126
-0.006534947
-0.0095825975
-0.0093199536
-0.0077667758
-0.011427917
-0.0053715003
-0.012209707
-0.0028071783
-0.011013016
-0.00077836883
-0.0075677556
-0.0025223187
-0.00032890791
0.0024944065
-0.0010824214
0.0058888454
-0.002070777
0.0079781071
-0.0031636128
0.0090889083
-0.0042839018
0.0094961437
-0.0053928532
0.0093854287
-0.0064741403
0.0088540679
-0.0075205479
0.007931747
-0.0085229179
0.0066059089
-0.0094603446
0.0048448511
-0.010291332
0.0026184043
-0.010933227
-9.2019312e-05
-0.011283212
-0.0032159745
-0.011173633
-0.0066445259
-0.010415713
-0.010077873
-0.0088467356
-0.012996895
-0.0064557533
-0.01460069
-0.0035815266
-0.013887242
-0.0010642227
-0.010085059
-0.0035865414
-0.00031178423
0.0028061908
-0.0010206792
0.0065977403
-0.0019261005
0.0088835284
-0.0028949498
0.010057758
-0.0038568838
0.010458078
-0.0047855647
0.01031411
-0.0056807679
0.0097492711
-0.0065544574
0.0088054365
-0.0074198912
0.0074713428
-0.0082818269
0.0057067869
-0.0091251574
0.0034617348
-0.0099086415
0.0006914648
-0.010527258
-0.002597358
-0.010827015
-0.0063447691
-0.010573629
-0.010331259
-0.0094932088
-0.014077315
-0.0073911388
-0.01670276
-0.0044189144
-0.016859467
-0.0014372115
-0.013066762
-0.0050237528
-0.00031004291
0.0031162337
-0.00098036505
0.0072680625
-0.0017790494
0.0096822127
-0.002569367
0.010848075
-0.0032945972
0.011183308
-0.0039478985
0.010967411
-0.0045499724
0.010351345
-0.005134788
0.0093902521
-0.0057399227
0.0080764775
-0.0063985271
0.0063653913
-0.0071301297
0.0041933374
-0.0079302616
0.0014915966
-0.008738808
-0.0017888115
-0.0094303607
-0.0056532164
-0.0097685825
-0.0099930375
-0.0094003445
-0.014445553
-0.0079305798
-0.018172524
-0.0052061613
-0.019583885
-0.001902612
-0.016370312
-0.0069263648
-0.00035604029
0.003472274
-0.0010239974
0.0079360196
-0.0017042308
0.010362446
-0.0022607994
0.011404644
-0.0026657229
0.011588231
-0.0029440111
0.011245699
-0.0031442506
0.010551584
-0.0033248686
0.0095708701
-0.0035471941
0.0082988031
-0.0038710471
0.0066892443
-0.0043491723
0.0046714626
-0.0050183817
0.0021608061
-0.0058766145
-0.0009305787
-0.0068578369
-0.004671994
-0.0077762897
-0.0090745846
-0.0082658364
-0.013956006
-0.0077687408
-0.01866962
-0.0057510997
-0.021601526
-0.0024366711
-0.01968474
-0.0093630359
-0.00050826116
0.0039805352
-0.0012456317
0.0086733901
-0.0017958843
0.010912699
-0.0020479999
0.011656759
-0.0020325071
0.011572739
-0.0018254274
0.01103862
-0.0015121942
0.010238351
-0.0011778622
0.0092365381
-0.00090471586
0.0080256568
-0.00077372337
0.0065582518
-0.00086349368
0.0047612329
-0.0012473614
0.0025446738
-0.0019828355
-0.00019510454
-0.0030818714
-0.0035729581
-0.0044600343
-0.0076964217
-0.0058274889
-0.012588551
-0.0065661649
-0.017930944
-0.0057684474
-0.022399244
-0.002951225
-0.022501963
-0.012314261
-0.00086855339
0.0048490885
-0.0017629833
0.00956782
-0.0021213548
0.01127107
-0.0019368439
0.011472248
-0.0013509192
0.010986814
-0.00051618903
0.010203889
0.00043704543
0.0092851167
0.0013996183
0.0082739652
0.0022723818
0.0071528934
0.0029609202
0.0058697134
0.0033691548
0.0043529983
0.0033968027
0.0025170259
0.0029385479
0.00026315032
0.0019096122
-0.0025440224
0.00026968535
-0.0060564949
-0.0018541633
-0.010464703
-0.003951596
-0.015833511
-0.0048608344
-0.021490005
-0.0032547034
-0.024108094
-0.015568964
-0.001591084
0.0064401725
-0.0026108526
0.010587589
-0.0025131353
0.011173353
-0.0015899039
0.010549017
-0.00017216667
0.0095690767
0.0014928059
0.0085389169
0.0032329032
0.0075450194
0.004923243
0.0065836255
0.0064630018
0.0056131345
0.0077575059
0.0045752093
0.0087075109
0.0034029932
0.0092014983
0.0020230386
0.0091033424
0.00036130618
0.0082750908
-0.0017157707
0.0065654601
-0.0043468642
0.0039042345
-0.0078034769
0.00055895368
-0.01248823
-0.0024680547
-0.018462997
-0.0030273168
-0.023548831
-0.018596281
-0.0027183595
0.009158532
-0.0031498654
0.011019095
-0.0018029977
0.0098264853
0.00046670324
0.0082793162
0.0030894263
0.0069463537
0.0057738145
0.0058545286
0.0083629019
0.0049559319
0.0107604
0.0041861278
0.012893495
0.0034800394
0.014690663
0.0027780415
0.016068347
0.0020253089
0.016923285
0.0011681004
0.017119713
0.00016487842
0.016490829
-0.0010868866
0.014816839
-0.0026728746
0.011846656
-0.0048332941
0.0074354917
-0.0080770659
0.002262929
-0.013290434
-0.0012724666
-0.020013436
-0.019868748
-0.0024132792
0.011571811
2.8056816e-05
0.0085777584
0.0042551382
0.005599404
0.0084161224
0.004118332
0.012231485
0.0031309914
0.015656264
0.0024297497
0.018686547
0.0019256487
0.02132919
0.0015434847
0.02358349
0.0012257393
0.025429225
0.00093230684
0.026820168
0.00063436582
0.027677179
0.00031108929
0.027900203
-5.8145489e-05
0.027347224
-0.00053390729
0.025771631
-0.001097282
0.022843046
-0.0019047094
0.01805477
-0.0032887893
0.011113586
-0.0063492511
0.0033886753
-0.012288525
-0.016480072
0.011571811
0.02014957
0.025748974
0.029867306
0.032998297
0.035428047
0.037353696
0.03889718
0.04012292
0.041055227
0.041689592
0.042000682
0.041942536
0.041408629
0.040311347
0.038406637
0.035117848
0.028768597
0.016480072
)
;

boundaryField
{
    movingWall
    {
        type            calculated;
        value           uniform 0;
    }
    fixedWalls
    {
        type            calculated;
        value           uniform 0;
    }
    frontAndBack
    {
        type            empty;
        value           nonuniform List<scalar> 0();
    }
}


// ************************************************************************* //
