/*--------------------------------*- C++ -*----------------------------------*\
| =========                 |                                                 |
| \\      /  F ield         | OpenFOAM: The Open Source CFD Toolbox           |
|  \\    /   O peration     | Version:  2112                                  |
|   \\  /    A nd           | Website:  www.openfoam.com                      |
|    \\/     M anipulation  |                                                 |
\*---------------------------------------------------------------------------*/
FoamFile
{
    version     2.0;
    format      ascii;
    arch        "LSB;label=32;scalar=64";
    class       volVectorField;
    location    "27";
    object      U;
}
// * * * * * * * * * * * * * * * * * * * * * * * * * * * * * * * * * * * * * //

dimensions      [0 1 -1 0 0 0 0];

internalField   nonuniform List<vector> 
400
(
(0.00028443208 -0.00028140759 0)
(0.0001106789 7.9960899e-05 0)
(-0.0013272012 0.00047803105 0)
(-0.003621908 0.00073593217 0)
(-0.0064236723 0.00086752447 0)
(-0.0094315146 0.00090727405 0)
(-0.012388054 0.00087487174 0)
(-0.015056513 0.00077153535 0)
(-0.017194632 0.00058849264 0)
(-0.018552941 0.00032008531 0)
(-0.018902707 -2.4813023e-05 0)
(-0.018086219 -0.00041826962 0)
(-0.016079948 -0.0007997256 0)
(-0.013048976 -0.0010930861 0)
(-0.009366407 -0.0012212143 0)
(-0.0055776631 -0.0011294815 0)
(-0.0023003395 -0.00081287109 0)
(-8.2951614e-05 -0.00033798256 0)
(0.00076015114 0.00015229421 0)
(0.00040944156 0.00038933837 0)
(-8.6067439e-05 -0.00012360031 0)
(-0.0018692723 0.0017872512 0)
(-0.0063065493 0.003626069 0)
(-0.012452739 0.0048625186 0)
(-0.019600744 0.0054985575 0)
(-0.027107095 0.0056207009 0)
(-0.034359081 0.0052860578 0)
(-0.040769103 0.0045044 0)
(-0.045758421 0.0032662305 0)
(-0.048776163 0.0015896531 0)
(-0.049366916 -0.00043547783 0)
(-0.047254087 -0.0026182066 0)
(-0.042452217 -0.0046645661 0)
(-0.035361657 -0.006218949 0)
(-0.02677872 -0.0069376195 0)
(-0.017827318 -0.0065922944 0)
(-0.0097755566 -0.0051797957 0)
(-0.0037462995 -0.0029994422 0)
(-0.00038875221 -0.00066553705 0)
(0.00028989507 0.00078354808 0)
(-0.00058808318 0.0014336261 0)
(-0.0042428237 0.0063775372 0)
(-0.011758625 0.010640641 0)
(-0.021468818 0.013483687 0)
(-0.032366392 0.014898391 0)
(-0.04358828 0.015017468 0)
(-0.054287744 0.01393623 0)
(-0.063642937 0.011684286 0)
(-0.07085626 0.0082813828 0)
(-0.075188799 0.0038286509 0)
(-0.076039978 -0.0014059314 0)
(-0.073058149 -0.0069356979 0)
(-0.066266985 -0.012071818 0)
(-0.056169589 -0.016000338 0)
(-0.043780971 -0.017942829 0)
(-0.03056928 -0.017380024 0)
(-0.018250698 -0.014290022 0)
(-0.0084179862 -0.0093123222 0)
(-0.0021511233 -0.0037618393 0)
(-1.9703544e-06 0.00031696713 0)
(-0.0010530692 0.0043003931 0)
(-0.0065148889 0.013565796 0)
(-0.016999212 0.020864195 0)
(-0.030031064 0.025561372 0)
(-0.044300843 0.027761594 0)
(-0.05878464 0.027688083 0)
(-0.072487954 0.025487735 0)
(-0.084447387 0.021218485 0)
(-0.093729431 0.014945147 0)
(-0.099464709 0.0068783775 0)
(-0.10093061 -0.002501314 0)
(-0.097663241 -0.012378505 0)
(-0.089593391 -0.021605509 0)
(-0.077182454 -0.02882491 0)
(-0.061505244 -0.032706192 0)
(-0.044253736 -0.032300031 0)
(-0.027562268 -0.027445975 0)
(-0.013581777 -0.019080743 0)
(-0.0040263562 -0.0092707082 0)
(-0.00026772063 -0.0011081911 0)
(-0.0014558688 0.0083650511 0)
(-0.0085490883 0.0231813 0)
(-0.021746288 0.034051755 0)
(-0.037792569 0.040763188 0)
(-0.055097064 0.043701858 0)
(-0.072519772 0.04325912 0)
(-0.088984654 0.039661544 0)
(-0.10345871 0.033001401 0)
(-0.11493249 0.023384257 0)
(-0.12243717 0.01111675 0)
(-0.12511556 -0.0031289616 0)
(-0.1223201 -0.018219426 0)
(-0.1137617 -0.032541685 0)
(-0.099698392 -0.044132714 0)
(-0.081100599 -0.05096638 0)
(-0.059776395 -0.051441317 0)
(-0.038291222 -0.045013704 0)
(-0.019520472 -0.032755587 0)
(-0.0060923455 -0.017491868 0)
(-0.00051102258 -0.0035220297 0)
(-0.0017889374 0.013475474 0)
(-0.010269736 0.034960922 0)
(-0.025805557 0.049908724 0)
(-0.044466847 0.0587949 0)
(-0.064427837 0.06245847 0)
(-0.084477707 0.06155099 0)
(-0.10351676 0.056416113 0)
(-0.12050373 0.047182254 0)
(-0.13440418 0.033970373 0)
(-0.14417415 0.01713237 0)
(-0.14880368 -0.0025359341 0)
(-0.1473935 -0.023636461 0)
(-0.13931131 -0.044142706 0)
(-0.12443572 -0.061442245 0)
(-0.10343176 -0.072642447 0)
(-0.078055987 -0.075174043 0)
(-0.051260974 -0.067706851 0)
(-0.026809477 -0.051124242 0)
(-0.0086123083 -0.028965685 0)
(-0.00078707354 -0.0070521576 0)
(-0.0020420373 0.019436548 0)
(-0.011605666 0.048528989 0)
(-0.028995832 0.067998434 0)
(-0.049757789 0.079226127 0)
(-0.071891711 0.083657501 0)
(-0.094162178 0.082297823 0)
(-0.11550015 0.075649759 0)
(-0.13491513 0.06387695 0)
(-0.15140339 0.047076007 0)
(-0.16388488 0.025567777 0)
(-0.17119249 0.00016302719 0)
(-0.17215467 -0.027610653 0)
(-0.16571578 -0.055396371 0)
(-0.15119208 -0.079945803 0)
(-0.12870068 -0.097351273 0)
(-0.099670077 -0.10369866 0)
(-0.067241884 -0.096286193 0)
(-0.036119149 -0.075220276 0)
(-0.01192974 -0.044539855 0)
(-0.0011708183 -0.012001493 0)
(-0.0022012892 0.026013393 0)
(-0.01248473 0.063419637 0)
(-0.031139943 0.087764533 0)
(-0.053354613 0.10149033 0)
(-0.077017783 0.10677719 0)
(-0.10091213 0.10507381 0)
(-0.12405015 0.097088222 0)
(-0.14555182 0.083021399 0)
(-0.16450968 0.062902203 0)
(-0.17987599 0.036930821 0)
(-0.19039928 0.005795524 0)
(-0.19465572 -0.029033424 0)
(-0.19113634 -0.065018118 0)
(-0.17848981 -0.098391125 0)
(-0.15602496 -0.12417754 0)
(-0.12444496 -0.13676288 0)
(-0.086646659 -0.13132916 0)
(-0.048063776 -0.1062329 0)
(-0.016429373 -0.065393269 0)
(-0.0017537934 -0.018878427 0)
(-0.0022557089 0.032933269 0)
(-0.012853718 0.07908852 0)
(-0.032098937 0.10853505 0)
(-0.054981866 0.1248643 0)
(-0.079334897 0.13109291 0)
(-0.10399424 0.1291993 0)
(-0.12810036 0.12015135 0)
(-0.1509451 0.10420147 0)
(-0.17179732 0.081278342 0)
(-0.18974471 0.051375579 0)
(-0.20357623 0.014915412 0)
(-0.21172907 -0.026876106 0)
(-0.21232516 -0.071532347 0)
(-0.20333816 -0.11502608 0)
(-0.18306281 -0.15144711 0)
(-0.15101791 -0.17328511 0)
(-0.1091656 -0.17282191 0)
(-0.063026378 -0.14524387 0)
(-0.022524973 -0.092978089 0)
(-0.0026589625 -0.028422196 0)
(-0.0022086329 0.039904511 0)
(-0.01271708 0.094944221 0)
(-0.031841296 0.12954016 0)
(-0.054496819 0.14845851 0)
(-0.078500079 0.15563546 0)
(-0.10277099 0.15366641 0)
(-0.12662141 0.14384601 0)
(-0.14957657 0.12651334 0)
(-0.17117089 0.10149249 0)
(-0.19075572 0.068517121 0)
(-0.20732706 0.027627567 0)
(-0.21937768 -0.020394243 0)
(-0.22488775 -0.073461925 0)
(-0.22130654 -0.12768878 0)
(-0.20585476 -0.17662057 0)
(-0.17647623 -0.210992 0)
(-0.13334654 -0.21961312 0)
(-0.080899155 -0.19275391 0)
(-0.030641891 -0.12885259 0)
(-0.0040700718 -0.04163704 0)
(-0.0020933492 0.046663275 0)
(-0.012189726 0.11041853 0)
(-0.030536211 0.14996576 0)
(-0.05201759 0.17124296 0)
(-0.074465001 0.17919247 0)
(-0.09691991 0.17712105 0)
(-0.11891405 0.16672975 0)
(-0.14026651 0.14850274 0)
(-0.16086207 0.12219245 0)
(-0.18044322 0.087272645 0)
(-0.19840292 0.043352612 0)
(-0.21353681 -0.0093896414 0)
(-0.2240146 -0.069676646 0)
(-0.22708287 -0.13413344 0)
(-0.21908958 -0.19645329 0)
(-0.19626647 -0.24625218 0)
(-0.15621926 -0.26886029 0)
(-0.10070623 -0.24798806 0)
(-0.041146009 -0.174335 0)
(-0.0062706185 -0.059833928 0)
(-0.0019963297 0.053057453 0)
(-0.011565505 0.12508347 0)
(-0.028660963 0.16904513 0)
(-0.048056628 0.19210909 0)
(-0.067638453 0.20035662 0)
(-0.086643906 0.19791279 0)
(-0.10489592 0.18696722 0)
(-0.12256945 0.16821858 0)
(-0.13996402 0.1414091 0)
(-0.15729761 0.10579907 0)
(-0.17451561 0.060571826 0)
(-0.19108372 0.0052257767 0)
(-0.20560161 -0.059922403 0)
(-0.21550588 -0.13260788 0)
(-0.21690137 -0.20752787 0)
(-0.20457805 -0.27431814 0)
(-0.17317489 -0.3157178 0)
(-0.12017097 -0.3080798 0)
(-0.054147481 -0.22988374 0)
(-0.0096749027 -0.084653147 0)
(-0.0020996034 0.059184264 0)
(-0.011414866 0.13881585 0)
(-0.027115387 0.18617335 0)
(-0.043624866 0.20994708 0)
(-0.05898125 0.21760152 0)
(-0.072777848 0.21419774 0)
(-0.085249988 0.20247362 0)
(-0.09700119 0.18339415 0)
(-0.10878863 0.15675621 0)
(-0.12135034 0.12168631 0)
(-0.135254 0.077015457 0)
(-0.1507028 0.02161825 0)
(-0.1671221 -0.045110724 0)
(-0.18274007 -0.12251605 0)
(-0.19405359 -0.20712616 0)
(-0.19523507 -0.29011473 0)
(-0.17829427 -0.35358509 0)
(-0.13540547 -0.36743809 0)
(-0.069089018 -0.29415294 0)
(-0.014795027 -0.11798446 0)
(-0.002767698 0.065619952 0)
(-0.012740997 0.15199855 0)
(-0.027329982 0.20099725 0)
(-0.040244521 0.22368365 0)
(-0.049928567 0.22933086 0)
(-0.056643368 0.22403751 0)
(-0.061232497 0.21108059 0)
(-0.064815894 0.19168177 0)
(-0.068620573 0.16572045 0)
(-0.073874863 0.13227356 0)
(-0.081728059 0.089960289 0)
(-0.093119971 0.037200169 0)
(-0.10846916 -0.027479055 0)
(-0.12721373 -0.10497637 0)
(-0.14705418 -0.19422074 0)
(-0.16280344 -0.28948643 0)
(-0.16509074 -0.37509937 0)
(-0.14090148 -0.41772694 0)
(-0.084061566 -0.36281399 0)
(-0.022011633 -0.16157406 0)
(-0.0047195859 0.07383476 0)
(-0.01722242 0.16572639 0)
(-0.03128431 0.21337833 0)
(-0.039683129 0.23217421 0)
(-0.041883354 0.23380248 0)
(-0.039350921 0.22539465 0)
(-0.033812356 0.21061253 0)
(-0.027000162 0.19081083 0)
(-0.020591804 0.16589802 0)
(-0.016215219 0.13493928 0)
(-0.015476169 0.096470924 0)
(-0.019925387 0.048690039 0)
(-0.030918478 -0.010412695 0)
(-0.049234152 -0.082920476 0)
(-0.074399005 -0.17014314 0)
(-0.10327658 -0.27050255 0)
(-0.12725453 -0.37369534 0)
(-0.12973496 -0.44868777 0)
(-0.094914809 -0.42750694 0)
(-0.030930663 -0.21612803 0)
(-0.0093000024 0.086952154 0)
(-0.027432087 0.18185341 0)
(-0.040981577 0.2230336 0)
(-0.042679313 0.23378967 0)
(-0.034405168 0.2288024 0)
(-0.019622292 0.21592309 0)
(-0.0012380229 0.19878014 0)
(0.018345984 0.17856483 0)
(0.037071978 0.15508363 0)
(0.053056186 0.1273594 0)
(0.064422059 0.093936277 0)
(0.069231389 0.053014546 0)
(0.065415461 0.0024625583 0)
(0.051047709 -0.060339396 0)
(0.024643171 -0.13837667 0)
(-0.013701832 -0.23417146 0)
(-0.058753751 -0.34517035 0)
(-0.093510911 -0.44953999 0)
(-0.094469914 -0.47558825 0)
(-0.039216117 -0.28048283 0)
(-0.018580316 0.11087147 0)
(-0.046039635 0.20177656 0)
(-0.055229961 0.2279317 0)
(-0.043984643 0.22501774 0)
(-0.019372153 0.21061306 0)
(0.012333824 0.19228016 0)
(0.046993608 0.17278506 0)
(0.081754736 0.15265406 0)
(0.11443847 0.13135289 0)
(0.14315379 0.10779555 0)
(0.16601731 0.080591586 0)
(0.18098156 0.048112103 0)
(0.18557638 0.0084491947 0)
(0.17716592 -0.04081761 0)
(0.1527596 -0.10317632 0)
(0.10948888 -0.18390631 0)
(0.047240574 -0.28855474 0)
(-0.021439261 -0.41051045 0)
(-0.072252943 -0.49101705 0)
(-0.041147486 -0.35054297 0)
(-0.033352243 0.15561543 0)
(-0.06860163 0.22040443 0)
(-0.05518728 0.21729227 0)
(-0.016078534 0.19532446 0)
(0.034511345 0.17092356 0)
(0.088508053 0.14849473 0)
(0.14176889 0.12861269 0)
(0.19196938 0.11057765 0)
(0.23754106 0.093297637 0)
(0.27712053 0.07557509 0)
(0.30921849 0.056181455 0)
(0.3320436 0.033823269 0)
(0.3431759 0.0070272029 0)
(0.33982902 -0.025910547 0)
(0.3181326 -0.067741834 0)
(0.27327731 -0.12410801 0)
(0.20044729 -0.20584716 0)
(0.10213981 -0.32506915 0)
(-0.012387267 -0.45457171 0)
(-0.023756655 -0.40864072 0)
(-0.033081114 0.23907316 0)
(-0.042647153 0.2179201 0)
(0.042207222 0.16426629 0)
(0.12760461 0.1278358 0)
(0.20769803 0.10143552 0)
(0.28028169 0.081658191 0)
(0.34487322 0.06664816 0)
(0.40158316 0.054703069 0)
(0.45055079 0.044399492 0)
(0.49162056 0.034639938 0)
(0.52416199 0.024550592 0)
(0.54698617 0.0133817 0)
(0.55822244 0.00039973354 0)
(0.55570947 -0.015137343 0)
(0.53552625 -0.034969194 0)
(0.4924466 -0.062488202 0)
(0.41797272 -0.10694763 0)
(0.30410594 -0.19317544 0)
(0.12313782 -0.33691905 0)
(0.052374206 -0.39437913 0)
(0.24299926 0.15257479 0)
(0.30529618 0.11854286 0)
(0.45481215 0.076108139 0)
(0.56000885 0.050840196 0)
(0.63223323 0.03512609 0)
(0.68654919 0.024812312 0)
(0.72943832 0.017960103 0)
(0.76379639 0.01325593 0)
(0.79127937 0.0097622046 0)
(0.81275154 0.0068543626 0)
(0.82841145 0.0041185195 0)
(0.83794402 0.0012768564 0)
(0.84057078 -0.0018442 0)
(0.83497558 -0.0053262596 0)
(0.81886698 -0.0098289646 0)
(0.78942866 -0.016232749 0)
(0.73784287 -0.026935706 0)
(0.65316763 -0.05128655 0)
(0.45609767 -0.11374603 0)
(0.31788988 -0.17206002 0)
)
;

boundaryField
{
    movingWall
    {
        type            fixedValue;
        value           uniform (1 0 0);
    }
    fixedWalls
    {
        type            fixedValue;
        value           uniform (0 0 0);
    }
    frontAndBack
    {
        type            empty;
    }
}


// ************************************************************************* //
