/*--------------------------------*- C++ -*----------------------------------*\
| =========                 |                                                 |
| \\      /  F ield         | OpenFOAM: The Open Source CFD Toolbox           |
|  \\    /   O peration     | Version:  2112                                  |
|   \\  /    A nd           | Website:  www.openfoam.com                      |
|    \\/     M anipulation  |                                                 |
\*---------------------------------------------------------------------------*/
FoamFile
{
    version     2.0;
    format      ascii;
    arch        "LSB;label=32;scalar=64";
    class       volScalarField;
    location    "71.5";
    object      p;
}
// * * * * * * * * * * * * * * * * * * * * * * * * * * * * * * * * * * * * * //

dimensions      [0 2 -2 0 0 0 0];

internalField   nonuniform List<scalar> 
8800
(
0.81373
0.765944
0.727258
0.698268
0.677411
0.662592
0.652012
0.644556
0.63977
0.637759
0.639077
0.64331
0.649986
0.659325
0.672121
0.689867
0.714651
0.748597
0.791151
0.849853
0.644971
0.65265
0.660131
0.663443
0.661945
0.656877
0.650404
0.644347
0.639654
0.636852
0.636624
0.639179
0.643707
0.64968
0.656469
0.662762
0.666412
0.665681
0.660268
0.651583
0.623363
0.629524
0.633654
0.636605
0.638663
0.63928
0.638191
0.636113
0.634135
0.633279
0.634297
0.636726
0.63956
0.641767
0.642392
0.641207
0.638875
0.635489
0.630933
0.627173
0.617533
0.620185
0.622942
0.625351
0.626996
0.628171
0.628933
0.62908
0.628826
0.628833
0.629648
0.63087
0.631749
0.631843
0.631255
0.63018
0.628375
0.625813
0.623415
0.621911
0.612127
0.613552
0.615336
0.617376
0.619171
0.620528
0.62154
0.622371
0.623034
0.623663
0.624385
0.624941
0.625085
0.624832
0.62416
0.62293
0.621248
0.61941
0.618108
0.617276
0.607016
0.607938
0.609184
0.61076
0.612405
0.613948
0.61526
0.616365
0.617385
0.618353
0.619125
0.619523
0.619534
0.619135
0.618284
0.617107
0.615797
0.61455
0.613733
0.613181
0.602068
0.602738
0.603706
0.605018
0.606442
0.607921
0.609391
0.610757
0.61202
0.613215
0.614133
0.614583
0.614563
0.614103
0.613333
0.612414
0.611423
0.610515
0.609936
0.609529
0.597232
0.597749
0.598539
0.59968
0.600975
0.602372
0.603853
0.605376
0.606877
0.608316
0.609437
0.610006
0.610057
0.609732
0.609174
0.608483
0.607737
0.607071
0.606644
0.606326
0.592437
0.592848
0.59351
0.59453
0.595754
0.597109
0.598594
0.600209
0.601915
0.603631
0.605011
0.605787
0.606043
0.605947
0.605619
0.605145
0.604609
0.604139
0.603823
0.603563
0.587595
0.587929
0.588503
0.589445
0.590624
0.591968
0.593494
0.595214
0.597119
0.599139
0.600855
0.601942
0.602489
0.602657
0.602568
0.602327
0.60199
0.601683
0.601452
0.601234
0.582614
0.582891
0.583405
0.584302
0.585466
0.586839
0.588445
0.590315
0.592461
0.594833
0.596972
0.598458
0.599354
0.599825
0.600001
0.599995
0.599859
0.599695
0.599533
0.599343
0.577405
0.577638
0.578112
0.578996
0.580185
0.581631
0.58336
0.585433
0.587887
0.590698
0.593354
0.595319
0.596624
0.597444
0.597916
0.598151
0.598222
0.598193
0.598087
0.597918
0.571873
0.57207
0.572525
0.573425
0.574681
0.576244
0.578152
0.580498
0.583342
0.586699
0.589981
0.592517
0.594302
0.595522
0.596328
0.596829
0.59712
0.597218
0.597159
0.597003
0.565912
0.566081
0.566534
0.567478
0.568843
0.570575
0.572729
0.575426
0.578766
0.582797
0.586836
0.590055
0.592406
0.594089
0.595277
0.596095
0.596609
0.59683
0.596812
0.596664
0.559401
0.559545
0.560013
0.561031
0.56255
0.56451
0.566988
0.570134
0.574093
0.57895
0.583905
0.587939
0.590963
0.593192
0.594817
0.595986
0.596754
0.597103
0.597123
0.596977
0.552197
0.552317
0.552812
0.553936
0.555661
0.557919
0.560809
0.564525
0.569252
0.575117
0.581177
0.586184
0.590002
0.592875
0.595018
0.596588
0.597643
0.598126
0.59818
0.598033
0.544109
0.544218
0.544753
0.546014
0.548002
0.550638
0.554055
0.558484
0.564161
0.571255
0.578643
0.584807
0.589562
0.593192
0.595957
0.598001
0.599375
0.599997
0.600083
0.599931
0.53491
0.535008
0.535603
0.537028
0.539351
0.542477
0.54656
0.55188
0.55873
0.56732
0.576299
0.583834
0.589697
0.594217
0.597717
0.600313
0.602049
0.602819
0.602932
0.602771
0.524275
0.524354
0.525037
0.526689
0.52945
0.533202
0.538123
0.54456
0.552862
0.563271
0.574151
0.5833
0.590462
0.596031
0.600368
0.603623
0.605763
0.606685
0.606821
0.606648
0.511822
0.511887
0.512671
0.514634
0.517954
0.522508
0.5285
0.53635
0.546456
0.559075
0.572211
0.583246
0.59191
0.5987
0.604016
0.608024
0.610602
0.611673
0.611824
0.611635
0.496981
0.497035
0.497962
0.500343
0.504403
0.51001
0.517397
0.527056
0.539415
0.554713
0.570506
0.583722
0.5941
0.602284
0.608732
0.61358
0.616617
0.617823
0.617978
0.61777
0.478966
0.479009
0.480152
0.48312
0.488195
0.495227
0.50447
0.516479
0.531668
0.550201
0.569086
0.584781
0.597096
0.606845
0.614532
0.620316
0.623803
0.625113
0.625256
0.625027
0.456596
0.456637
0.45813
0.461986
0.468524
0.477562
0.48935
0.504457
0.523206
0.54561
0.568042
0.586494
0.600939
0.612413
0.621444
0.628195
0.632079
0.633437
0.633548
0.633299
0.428087
0.428149
0.430239
0.435529
0.444349
0.456333
0.47171
0.490935
0.514127
0.541096
0.567508
0.58895
0.605665
0.618964
0.629434
0.637098
0.64126
0.642582
0.642638
0.642373
0.390348
0.390515
0.393836
0.401772
0.414441
0.430943
0.451439
0.476069
0.504694
0.536913
0.567666
0.59225
0.611314
0.626471
0.638386
0.646801
0.651041
0.652221
0.652203
0.651929
0.337454
0.338466
0.345078
0.358469
0.377836
0.401332
0.428893
0.460357
0.495378
0.533412
0.568719
0.596483
0.617889
0.634859
0.648078
0.656958
0.661008
0.661945
0.661849
0.661576
0.260326
0.267782
0.283095
0.30672
0.336064
0.368926
0.405121
0.444441
0.486538
0.530841
0.570988
0.602114
0.626013
0.644908
0.659311
0.668401
0.672089
0.672772
0.672628
0.672391
0.17747
0.195088
0.219894
0.254369
0.294092
0.336445
0.381307
0.428633
0.478139
0.529303
0.575069
0.610213
0.637021
0.658092
0.673721
0.682501
0.685412
0.685801
0.68568
0.685517
0.108367
0.129129
0.161765
0.205453
0.25432
0.305605
0.358866
0.414033
0.470786
0.528577
0.579637
0.618447
0.64778
0.670523
0.686522
0.694601
0.696981
0.697311
0.697248
0.697122
0.0517663
0.0742038
0.112426
0.162624
0.21871
0.277508
0.3382
0.40056
0.464114
0.528198
0.584246
0.626464
0.658042
0.682046
0.698287
0.706014
0.708152
0.708465
0.708441
0.708344
0.00468021
0.0283053
0.0703559
0.125714
0.187603
0.252606
0.319673
0.388424
0.458211
0.528194
0.588984
0.634418
0.668121
0.693419
0.710092
0.717585
0.719625
0.719965
0.719975
0.719902
-0.0351655
-0.0108916
0.034056
0.0934914
0.160261
0.230546
0.30316
0.377611
0.453099
0.528607
0.593936
0.642511
0.67834
0.704942
0.722082
0.729771
0.731835
0.732109
0.732152
0.732097
-0.0698239
-0.0451409
0.00207889
0.0648859
0.135785
0.210675
0.288219
0.367826
0.448582
0.529312
0.599018
0.650682
0.688629
0.716575
0.734446
0.742461
0.744571
0.744873
0.744905
0.744865
-0.100815
-0.0757844
-0.0267159
0.0389668
0.113437
0.192372
0.274349
0.358682
0.444365
0.53008
0.604037
0.658743
0.698825
0.72817
0.746866
0.755236
0.757497
0.757792
0.757817
0.757794
-0.129135
-0.103801
-0.0531575
0.0150148
0.0926239
0.175156
0.261139
0.349827
0.440145
0.530648
0.608775
0.666504
0.7087
0.739447
0.758905
0.767689
0.770118
0.770435
0.770444
0.77043
-0.155611
-0.129934
-0.0778865
-0.00752648
0.0728925
0.158647
0.248262
0.340972
0.435668
0.530808
0.613056
0.673779
0.718037
0.750147
0.770358
0.779514
0.782102
0.782438
0.782414
0.782396
-0.180639
-0.154619
-0.10125
-0.0290357
0.0539072
0.142559
0.235477
0.331912
0.430751
0.530399
0.616744
0.680462
0.726758
0.760134
0.780994
0.790443
0.793138
0.793468
0.793416
0.793385
-0.204689
-0.178246
-0.123859
-0.0497562
0.0354276
0.126687
0.222619
0.322498
0.425245
0.529275
0.619735
0.686499
0.734812
0.769373
0.790721
0.800334
0.80308
0.803392
0.803307
0.80326
-0.2279
-0.200994
-0.145662
-0.0698802
0.0173017
0.110908
0.209572
0.312623
0.419047
0.527341
0.621964
0.691877
0.742238
0.777862
0.799542
0.809221
0.811873
0.812179
0.81207
0.812
-0.250432
-0.223126
-0.16676
-0.0895281
-0.000551582
0.0951518
0.196275
0.302226
0.412093
0.524515
0.623356
0.69659
0.749111
0.785757
0.807596
0.817098
0.819689
0.819907
0.819779
0.819691
-0.272419
-0.244631
-0.187294
-0.108758
-0.0181839
0.0793902
0.182718
0.291298
0.404349
0.520727
0.623844
0.700642
0.755556
0.793237
0.815031
0.824173
0.826536
0.826684
0.826531
0.826431
-0.293935
-0.26556
-0.207341
-0.127586
-0.0355882
0.063628
0.168918
0.27985
0.39581
0.515929
0.623355
0.704012
0.761671
0.800525
0.822109
0.830601
0.832569
0.832603
0.832441
0.83233
-0.314842
-0.285909
-0.226841
-0.146004
-0.0527522
0.0479099
0.154911
0.267931
0.386507
0.510114
0.621803
0.706644
0.76751
0.807876
0.829175
0.836641
0.837907
0.837738
0.837555
0.837469
-0.335125
-0.305659
-0.245795
-0.163979
-0.0696369
0.0322778
0.140771
0.255601
0.376497
0.503282
0.619117
0.708418
0.773058
0.815509
0.836735
0.842851
0.842867
0.842217
0.842051
0.84203
-0.35486
-0.324786
-0.264194
-0.181494
-0.0861916
0.0168019
0.126571
0.242946
0.365852
0.495475
0.615225
0.709176
0.778178
0.823487
0.845339
0.85023
0.848306
0.846465
0.846214
0.846534
-0.373894
-0.34328
-0.281991
-0.198504
-0.102367
0.00155585
0.112395
0.230066
0.354672
0.486765
0.610085
0.708712
0.78261
0.83158
0.855224
0.860027
0.856355
0.852167
0.850499
0.85065
-0.39232
-0.361139
-0.299211
-0.215043
-0.118199
-0.0135043
0.098189
0.216906
0.342896
0.477084
0.603561
0.70675
0.786075
0.83938
0.866038
0.872803
0.869383
0.862016
0.854678
0.841454
-0.410073
-0.378351
-0.315968
-0.231312
-0.133965
-0.0286973
0.083554
0.20301
0.330019
0.46584
0.595066
0.702592
0.788141
0.846392
0.876459
0.887083
0.884247
0.87028
0.84912
0.839304
-0.42699
-0.395079
-0.332079
-0.247122
-0.149311
-0.0436869
0.0687059
0.188687
0.316325
0.453253
0.584589
0.695655
0.787803
0.851351
0.88246
0.893223
0.891712
0.86585
0.798868
0.769112
-0.442417
-0.412604
-0.347248
-0.261999
-0.163432
-0.0579706
0.0539644
0.174164
0.302025
0.439431
0.572019
0.68553
0.783401
0.853379
0.878513
0.884235
0.867988
0.810893
0.74144
0.698999
-0.496867
-0.428036
-0.360938
-0.277077
-0.178012
-0.0730551
0.0392537
0.159145
0.286729
0.423878
0.556677
0.67141
0.770782
0.847883
0.847567
0.845078
0.788805
0.714752
0.636822
0.593473
-0.45851
-0.442583
-0.381349
-0.296378
-0.199587
-0.0946542
0.0166327
0.135931
0.262637
0.398602
0.529882
0.643616
0.736367
0.819488
0.800058
0.679216
0.569489
0.493196
0.418126
0.446446
-0.488574
-0.459597
-0.397503
-0.313383
-0.216644
-0.111828
-0.000246237
0.11844
0.244125
0.378385
0.507031
0.616629
0.699504
0.743396
0.690106
0.534272
0.402132
0.307839
0.207662
0.255597
-0.511701
-0.479813
-0.416631
-0.332394
-0.235539
-0.130834
-0.0193292
0.0985327
0.222838
0.354736
0.479709
0.583013
0.656688
0.665514
0.553275
0.375716
0.219447
0.097929
-0.0347265
-0.00304927
-0.534257
-0.500908
-0.436625
-0.351498
-0.254579
-0.15004
-0.0390717
0.0778226
0.200536
0.329652
0.449918
0.545033
0.602862
0.579886
0.415734
0.215565
0.0226257
-0.147168
-0.33664
-0.356743
-0.556208
-0.522457
-0.45734
-0.371474
-0.274444
-0.170151
-0.0598573
0.0559309
0.176769
0.302661
0.417423
0.504119
0.541973
0.48148
0.284584
0.070774
-0.148497
-0.339006
-0.581409
-0.876824
-0.578442
-0.544715
-0.47911
-0.392804
-0.295626
-0.191536
-0.0818544
0.0327762
0.151605
0.27396
0.382794
0.46092
0.476541
0.364186
0.170234
-0.0427286
-0.249035
-0.422578
-0.49315
-0.571225
-0.601899
-0.568144
-0.502282
-0.415801
-0.318614
-0.214828
-0.105862
0.00742346
0.123902
0.242141
0.344585
0.411327
0.401303
0.255048
0.0683411
-0.125564
-0.290674
-0.384979
-0.40936
-0.425146
-0.626885
-0.593036
-0.527025
-0.440538
-0.343535
-0.240236
-0.132236
-0.0206145
0.0930713
0.206506
0.30207
0.35398
0.325894
0.15348
-0.0241738
-0.192891
-0.321553
-0.361326
-0.374116
-0.375417
-0.653598
-0.619562
-0.553402
-0.467009
-0.37034
-0.267764
-0.160998
-0.0513888
0.0590462
0.167073
0.254766
0.291927
0.242919
0.0596168
-0.108931
-0.260029
-0.337585
-0.354664
-0.356061
-0.355883
-0.682096
-0.647785
-0.581444
-0.495217
-0.399048
-0.297405
-0.192152
-0.0849149
0.0218387
0.123919
0.202798
0.227715
0.141975
-0.0261497
-0.186189
-0.310686
-0.347923
-0.346301
-0.345422
-0.344848
-0.712095
-0.677534
-0.611049
-0.525077
-0.429575
-0.329106
-0.22567
-0.121167
-0.0185105
0.0771618
0.147106
0.154666
0.0503644
-0.105587
-0.247414
-0.324981
-0.335315
-0.337959
-0.338634
-0.338371
-0.743049
-0.70835
-0.641964
-0.556368
-0.461738
-0.362714
-0.261402
-0.160012
-0.0618129
0.0271668
0.0881607
0.0804608
-0.0316785
-0.172943
-0.292405
-0.324318
-0.332913
-0.334325
-0.334057
-0.333753
-0.7745
-0.739701
-0.673733
-0.588701
-0.495199
-0.397914
-0.299072
-0.201163
-0.107776
-0.0253502
0.025134
0.0102746
-0.106555
-0.227882
-0.32322
-0.341108
-0.331892
-0.330679
-0.330553
-0.330299
-0.805549
-0.770885
-0.70552
-0.621476
-0.529422
-0.43424
-0.338236
-0.244142
-0.155921
-0.0797376
-0.0391943
-0.0536349
-0.171478
-0.269478
-0.326226
-0.334652
-0.331031
-0.329368
-0.328643
-0.328357
-0.834678
-0.800731
-0.736349
-0.653785
-0.563654
-0.471001
-0.378247
-0.288271
-0.205443
-0.135395
-0.0983849
-0.123457
-0.222125
-0.306212
-0.313139
-0.328792
-0.330878
-0.328466
-0.327579
-0.327065
-0.860273
-0.827387
-0.765111
-0.684475
-0.596872
-0.507276
-0.418253
-0.332708
-0.255219
-0.191443
-0.154377
-0.190295
-0.263196
-0.319982
-0.344871
-0.33626
-0.333273
-0.332304
-0.331689
-0.331131
-0.880226
-0.849073
-0.789669
-0.712151
-0.627805
-0.54195
-0.457185
-0.376437
-0.304146
-0.246569
-0.211636
-0.244198
-0.293016
-0.337046
-0.370183
-0.349502
-0.341331
-0.340759
-0.340061
-0.339601
-0.892336
-0.863882
-0.808283
-0.734905
-0.65498
-0.573719
-0.493864
-0.418272
-0.351187
-0.299182
-0.266702
-0.289767
-0.310469
-0.330187
-0.327125
-0.337122
-0.342839
-0.344374
-0.344708
-0.345101
-0.894012
-0.869585
-0.818947
-0.750983
-0.676719
-0.601182
-0.526979
-0.45697
-0.395191
-0.348059
-0.312762
-0.331621
-0.339056
-0.342254
-0.343535
-0.348003
-0.348049
-0.347812
-0.347969
-0.348014
-0.88301
-0.863362
-0.819504
-0.758818
-0.691581
-0.622887
-0.55521
-0.491237
-0.434907
-0.391979
-0.352391
-0.367129
-0.384764
-0.428239
-0.407444
-0.375248
-0.36076
-0.355894
-0.353816
-0.352957
-0.857472
-0.842749
-0.808186
-0.757172
-0.698579
-0.637859
-0.577398
-0.519753
-0.468876
-0.429938
-0.385274
-0.374886
-0.366491
-0.397039
-0.376083
-0.352928
-0.34645
-0.344932
-0.344111
-0.343481
-0.819977
-0.810499
-0.785852
-0.746202
-0.697712
-0.645837
-0.592909
-0.541467
-0.495548
-0.460327
-0.426666
-0.373222
-0.283144
-0.215891
-0.235554
-0.282778
-0.31467
-0.329124
-0.334009
-0.335213
-0.77721
-0.771817
-0.757328
-0.728734
-0.69092
-0.647622
-0.601898
-0.555985
-0.513744
-0.480293
-0.450205
-0.395292
-0.321269
-0.260448
-0.30464
-0.356584
-0.37388
-0.383556
-0.390375
-0.393331
-0.73889
-0.735612
-0.728743
-0.710156
-0.681094
-0.645105
-0.605426
-0.563777
-0.522969
-0.489996
-0.465936
-0.457529
-0.500187
-0.552436
-0.525607
-0.508597
-0.521286
-0.535076
-0.535092
-0.539734
-0.711473
-0.709443
-0.705945
-0.694674
-0.672053
-0.641262
-0.605461
-0.565675
-0.524528
-0.486307
-0.462891
-0.471485
-0.595129
-0.794966
-1.05179
-1.16524
-1.17055
-1.09892
-0.962347
-0.913959
-0.690731
-0.689988
-0.688838
-0.68326
-0.666335
-0.638778
-0.603871
-0.563843
-0.519055
-0.470356
-0.435194
-0.408984
-0.452138
-0.555113
-0.700373
-0.758468
-0.722365
-0.66055
-0.549446
-0.507525
-0.678608
-0.678314
-0.67767
-0.675113
-0.663414
-0.637691
-0.601905
-0.559727
-0.509999
-0.45424
-0.404812
-0.360005
-0.277861
-0.128761
0.0188815
0.156629
0.266484
0.334134
0.386504
0.409515
-0.670583
-0.670419
-0.669915
-0.669109
-0.662125
-0.638311
-0.601185
-0.554897
-0.500491
-0.434978
-0.363597
-0.29168
-0.110753
0.207898
0.543811
0.867061
1.04579
1.11675
1.13025
1.12596
-0.665334
-0.665384
-0.66546
-0.666021
-0.661542
-0.640689
-0.601964
-0.551517
-0.490747
-0.415385
-0.326748
-0.233299
-0.0184842
0.30939
0.639172
0.933026
1.12253
1.20025
1.22492
1.23074
-0.660429
-0.660458
-0.66037
-0.659988
-0.658817
-0.643404
-0.604557
-0.550351
-0.483477
-0.402645
-0.30296
-0.204662
-0.00435304
0.287742
0.57121
0.811562
0.970858
1.05972
1.11286
1.13424
-0.657209
-0.657316
-0.657276
-0.656348
-0.655565
-0.64748
-0.609402
-0.551835
-0.482173
-0.3962
-0.296098
-0.19739
-0.0307676
0.243815
0.510174
0.741123
0.916978
1.02533
1.08403
1.10402
-0.656123
-0.657273
-0.660554
-0.667226
-0.673712
-0.65959
-0.61576
-0.55787
-0.488289
-0.400338
-0.303697
-0.208951
-0.08188
0.167864
0.418544
0.6339
0.81291
0.926446
0.979393
0.993718
-0.65984
-0.661343
-0.663753
-0.66627
-0.670183
-0.653838
-0.617646
-0.569437
-0.500746
-0.411437
-0.320384
-0.232246
-0.131106
0.0754594
0.292645
0.476376
0.626021
0.718239
0.75823
0.767366
-0.691783
-0.691735
-0.6816
-0.641449
-0.589393
-0.584351
-0.6087
-0.587592
-0.518936
-0.428089
-0.338381
-0.255914
-0.17645
-0.0234806
0.154035
0.298629
0.414045
0.481653
0.509607
0.514405
-0.745752
-0.742761
-0.732306
-0.695887
-0.656787
-0.647371
-0.668738
-0.628464
-0.544612
-0.445709
-0.356839
-0.283606
-0.221173
-0.105372
0.0298911
0.139507
0.225157
0.272231
0.290577
0.292346
-0.855012
-0.865293
-0.907493
-0.959076
-0.973192
-0.938085
-0.854582
-0.710954
-0.577939
-0.46176
-0.372253
-0.306041
-0.256174
-0.172026
-0.0712934
0.00949159
0.0704089
0.102393
0.11429
0.115101
-1.01332
-1.04196
-1.10201
-1.15649
-1.17275
-1.12769
-0.985596
-0.775923
-0.600489
-0.468348
-0.378404
-0.32147
-0.281952
-0.218158
-0.148983
-0.0920129
-0.0519488
-0.0310849
-0.0236964
-0.0246954
-1.04807
-1.07076
-1.11289
-1.15092
-1.16285
-1.11693
-0.964816
-0.755056
-0.581627
-0.453201
-0.371001
-0.321795
-0.28899
-0.24687
-0.202876
-0.169888
-0.149113
-0.140206
-0.137492
-0.138351
-0.875197
-0.896734
-0.934058
-0.97284
-0.987995
-0.944246
-0.802396
-0.644762
-0.51081
-0.411148
-0.345837
-0.305898
-0.278686
-0.25279
-0.233207
-0.222316
-0.218128
-0.21945
-0.22006
-0.220428
-0.542469
-0.559034
-0.590747
-0.628523
-0.652596
-0.635278
-0.567387
-0.48434
-0.409787
-0.350551
-0.308983
-0.280778
-0.259507
-0.248124
-0.244477
-0.247523
-0.254949
-0.260043
-0.261062
-0.260984
-0.195491
-0.20499
-0.226319
-0.25928
-0.295318
-0.31956
-0.326396
-0.319208
-0.303796
-0.283514
-0.267264
-0.254687
-0.244172
-0.240742
-0.241823
-0.2482
-0.25593
-0.259951
-0.260282
-0.260287
0.0371762
0.0321876
0.0172318
-0.0119609
-0.0560841
-0.107369
-0.153234
-0.187855
-0.209491
-0.220537
-0.227772
-0.23479
-0.239194
-0.234165
-0.2319
-0.231272
-0.233189
-0.23322
-0.232849
-0.233198
0.138064
0.134836
0.123606
0.0985815
0.0567841
0.00251805
-0.0532334
-0.101956
-0.139497
-0.16766
-0.190892
-0.21632
-0.232625
-0.221983
-0.210424
-0.202807
-0.198623
-0.19643
-0.196211
-0.19697
0.157409
0.155155
0.146812
0.127554
0.0944494
0.0500594
0.000681582
-0.0475502
-0.0893627
-0.123771
-0.153233
-0.183493
-0.200378
-0.189884
-0.177573
-0.170123
-0.1649
-0.162844
-0.163053
-0.163948
0.141769
0.140284
0.13453
0.120948
0.0971525
0.0641356
0.0249479
-0.0153462
-0.0528685
-0.0856057
-0.111985
-0.133622
-0.142688
-0.139596
-0.137843
-0.137293
-0.136605
-0.136873
-0.137594
-0.138422
0.115747
0.114889
0.111171
0.102116
0.085835
0.0625123
0.0334482
0.00214193
-0.0280852
-0.0536125
-0.0704045
-0.0798875
-0.0818881
-0.088403
-0.0986004
-0.107607
-0.113589
-0.117115
-0.11859
-0.119174
0.0887337
0.0884112
0.0861822
0.0804536
0.0697672
0.0539161
0.0334597
0.010912
-0.0112656
-0.028683
-0.0356651
-0.0306568
-0.0260517
-0.0440955
-0.0639147
-0.0801877
-0.0914374
-0.097812
-0.0999626
-0.100277
0.0641475
0.0639566
0.0627279
0.059288
0.052586
0.0423344
0.0287115
0.0135244
-0.00126531
-0.011468
-0.0115243
-0.00189225
0.0038102
-0.0153237
-0.0374828
-0.0551033
-0.0673869
-0.0745903
-0.076875
-0.0770132
0.0420706
0.0420424
0.0414794
0.0396359
0.0357515
0.029603
0.0212559
0.0119013
0.00308677
-0.00180172
0.00204194
0.0119504
0.0150634
-0.00132827
-0.0191536
-0.0323704
-0.0416888
-0.0470486
-0.0489343
-0.0490579
0.0222138
0.0222999
0.0221391
0.0213274
0.0195309
0.0165304
0.0123309
0.00764408
0.00327338
0.00156326
0.00625099
0.014707
0.0166022
0.00483675
-0.00647908
-0.0140741
-0.018332
-0.0205521
-0.0216277
-0.0219037
0.00386618
0.00394585
0.00395481
0.00417021
0.00420543
0.00384225
0.00309387
0.00213103
0.00112911
0.000617713
0.000945853
0.00377788
0.00771191
0.00430804
0.00176496
-0.000136695
-0.00178914
-0.00329875
-0.00343672
-0.0033146
-0.112342
0.052893
0.245344
0.41323
0.5467
0.650964
0.736692
0.80976
0.843329
0.820137
0.185408
0.304723
0.432908
0.543382
0.636129
0.712558
0.774381
0.81834
0.840348
0.852586
0.400887
0.482577
0.570141
0.647254
0.713429
0.768753
0.812778
0.845002
0.868403
0.886495
0.559498
0.618056
0.678571
0.73491
0.783781
0.825312
0.859475
0.886788
0.909389
0.927755
0.683397
0.725916
0.771345
0.814587
0.852827
0.886252
0.914904
0.938797
0.959063
0.976937
0.786757
0.819285
0.857039
0.892235
0.924576
0.953598
0.978986
1.00035
1.01813
1.0355
0.87871
0.907203
0.940935
0.972866
1.00264
1.02967
1.05331
1.07296
1.08841
1.1055
0.96694
0.996019
1.02989
1.0618
1.0913
1.1178
1.1406
1.15904
1.17238
1.18941
1.06204
1.09517
1.13173
1.16523
1.19522
1.22135
1.24326
1.26051
1.27235
1.28975
1.17691
1.21469
1.25328
1.28748
1.31679
1.3415
1.36185
1.37772
1.38917
1.40723
1.32177
1.36029
1.39639
1.42706
1.45271
1.47478
1.49382
1.50934
1.52175
1.53975
1.4968
1.52841
1.55457
1.577
1.59696
1.61567
1.63337
1.64984
1.66519
1.68325
1.68538
1.70258
1.7176
1.73382
1.74972
1.76425
1.77744
1.79137
1.8089
1.82906
1.86709
1.87662
1.88815
1.89896
1.90824
1.91782
1.9286
1.93996
1.95132
1.96667
2.07431
2.07797
2.06302
2.04821
2.04193
2.0476
2.06608
2.09639
2.12856
2.15522
2.38063
2.24577
2.16912
2.12673
2.10931
2.11327
2.14067
2.19708
2.2997
2.52406
0.704326
0.702198
0.697716
0.689095
0.676876
0.664756
0.654539
0.646662
0.64107
0.63785
0.637538
0.640316
0.645451
0.652696
0.662099
0.673649
0.686307
0.697347
0.703461
0.706517
0.628768
0.634616
0.640951
0.645448
0.647924
0.647609
0.644884
0.641093
0.63761
0.635386
0.635283
0.637523
0.641218
0.645531
0.649354
0.651249
0.650321
0.646845
0.641685
0.635065
0.620324
0.622621
0.626027
0.629028
0.631111
0.632617
0.633387
0.633091
0.632094
0.631251
0.631474
0.632947
0.634797
0.636129
0.636328
0.635451
0.633912
0.631582
0.628324
0.625406
0.614787
0.615873
0.617709
0.620093
0.622125
0.623564
0.624601
0.625376
0.625811
0.626078
0.626623
0.627482
0.628119
0.628215
0.627824
0.626991
0.625534
0.623458
0.621378
0.619997
0.609548
0.61021
0.611322
0.613033
0.614824
0.61647
0.617784
0.618827
0.619748
0.62059
0.621382
0.621992
0.622231
0.622099
0.621558
0.620523
0.619109
0.617577
0.616266
0.615488
0.604527
0.604987
0.605776
0.607081
0.60858
0.610113
0.611599
0.612928
0.614108
0.615224
0.616212
0.616849
0.617049
0.616817
0.616151
0.615185
0.614078
0.612959
0.612053
0.611538
0.599642
0.599986
0.6006
0.601676
0.602983
0.604375
0.605839
0.607321
0.608744
0.610094
0.611291
0.612065
0.612307
0.612083
0.611522
0.610776
0.609948
0.609099
0.608437
0.60806
0.594837
0.595104
0.595601
0.596519
0.597703
0.599021
0.600444
0.601974
0.603573
0.605174
0.606624
0.607592
0.607973
0.607915
0.60757
0.607049
0.606429
0.605812
0.605333
0.605046
0.59003
0.590242
0.590655
0.591464
0.59257
0.593843
0.595262
0.596844
0.598584
0.600434
0.602187
0.603434
0.604069
0.604264
0.604159
0.603866
0.60346
0.603039
0.602701
0.602477
0.58513
0.5853
0.585655
0.586392
0.587454
0.588709
0.590161
0.591835
0.593741
0.59586
0.597975
0.599598
0.600573
0.601069
0.601229
0.601176
0.60099
0.600747
0.600527
0.600349
0.580047
0.580184
0.580497
0.581191
0.58224
0.583523
0.585046
0.586854
0.588983
0.591429
0.593986
0.596076
0.59746
0.598306
0.598768
0.598972
0.599005
0.598938
0.598819
0.598676
0.574689
0.574799
0.575084
0.575759
0.576829
0.578186
0.579826
0.581824
0.584243
0.587103
0.590203
0.592856
0.594721
0.595974
0.596778
0.597265
0.597532
0.597639
0.597608
0.597492
0.568956
0.569043
0.569313
0.569994
0.571121
0.572593
0.574406
0.576661
0.57945
0.582831
0.586597
0.589924
0.592362
0.594088
0.59528
0.596098
0.596625
0.5969
0.596948
0.596853
0.562737
0.562803
0.563066
0.563776
0.564998
0.566634
0.568682
0.571275
0.574534
0.578563
0.583139
0.587278
0.590398
0.59268
0.594321
0.59551
0.596325
0.596785
0.596907
0.596829
0.555899
0.555944
0.556208
0.556969
0.558326
0.560182
0.562541
0.565564
0.569417
0.574243
0.579804
0.584917
0.588845
0.591787
0.593956
0.595568
0.596714
0.597372
0.597569
0.597503
0.548286
0.548308
0.548574
0.549411
0.550947
0.553086
0.55584
0.559411
0.564004
0.56981
0.576565
0.582844
0.587731
0.591448
0.594247
0.596359
0.597883
0.598757
0.599028
0.598972
0.539668
0.539681
0.539963
0.540898
0.542669
0.545156
0.548419
0.552678
0.558192
0.5652
0.573398
0.581068
0.58709
0.59172
0.595259
0.597977
0.599933
0.60104
0.601385
0.601334
0.529767
0.52975
0.530082
0.531162
0.533224
0.536171
0.540079
0.545203
0.551862
0.560345
0.570283
0.579606
0.586966
0.592672
0.59708
0.600501
0.602957
0.604321
0.604738
0.60469
0.518265
0.518223
0.518604
0.519878
0.522309
0.525851
0.530574
0.536791
0.544882
0.555177
0.567208
0.578482
0.587404
0.59437
0.599796
0.604024
0.607055
0.60869
0.609175
0.609124
0.504667
0.504598
0.505059
0.506587
0.509505
0.513817
0.519597
0.527216
0.537111
0.549634
0.564171
0.577732
0.588457
0.596865
0.603483
0.608639
0.612301
0.614213
0.614755
0.614695
0.488302
0.488205
0.488794
0.490677
0.494248
0.49959
0.506772
0.516217
0.528406
0.543675
0.561193
0.5774
0.590181
0.600227
0.608184
0.614391
0.618734
0.620908
0.621485
0.621409
0.468211
0.468087
0.468882
0.471285
0.475776
0.482551
0.491646
0.503524
0.51866
0.537305
0.558334
0.577553
0.592638
0.604505
0.613924
0.621291
0.626327
0.628721
0.629303
0.629203
0.442942
0.442804
0.443938
0.447146
0.453035
0.461907
0.473717
0.488905
0.507841
0.53061
0.555713
0.578292
0.59588
0.609719
0.620725
0.629309
0.634974
0.637502
0.638044
0.637914
0.410133
0.410018
0.411774
0.416385
0.424596
0.436748
0.452543
0.472274
0.496073
0.52379
0.553515
0.579742
0.599976
0.615882
0.628529
0.638315
0.644457
0.646982
0.647434
0.647269
0.365547
0.365604
0.368733
0.376268
0.388795
0.406299
0.428002
0.453859
0.483712
0.517192
0.551998
0.582045
0.604986
0.622972
0.63725
0.648093
0.654427
0.656764
0.657079
0.656882
0.301245
0.302495
0.310153
0.324226
0.344661
0.370685
0.400714
0.434376
0.471389
0.511281
0.551434
0.585334
0.610925
0.630913
0.646634
0.658182
0.664378
0.666288
0.66643
0.666217
0.225069
0.226909
0.241578
0.265767
0.297273
0.333343
0.372433
0.414378
0.459011
0.505889
0.552126
0.590647
0.619507
0.641917
0.659225
0.671346
0.677128
0.67867
0.67876
0.678628
0.146538
0.152884
0.174548
0.209124
0.251137
0.296967
0.345072
0.395334
0.447643
0.501574
0.553994
0.597183
0.629264
0.65401
0.67301
0.685089
0.689954
0.690969
0.691002
0.690938
0.082257
0.0909816
0.117255
0.158943
0.209184
0.263318
0.319538
0.377574
0.437197
0.497898
0.556193
0.603717
0.6387
0.665348
0.685144
0.696958
0.701392
0.702301
0.702375
0.702367
0.0299847
0.0393121
0.069179
0.11616
0.172606
0.233428
0.296508
0.361406
0.427699
0.494728
0.558584
0.610192
0.647861
0.676224
0.696793
0.708599
0.71277
0.713582
0.713701
0.713747
-0.0137093
-0.00409901
0.0282397
0.0792522
0.140792
0.207164
0.276061
0.34696
0.419264
0.492151
0.561263
0.616786
0.657049
0.687148
0.708631
0.720481
0.724472
0.725438
0.725598
0.725685
-0.0512016
-0.0414899
-0.00730873
0.0469264
0.112685
0.183798
0.257774
0.334004
0.411767
0.490094
0.564206
0.623533
0.666371
0.698188
0.720578
0.732788
0.737003
0.738001
0.73817
0.738287
-0.0841882
-0.0744584
-0.0388721
0.0180802
0.0873809
0.162588
0.241069
0.322108
0.404899
0.488341
0.567251
0.630289
0.675676
0.709242
0.732717
0.745511
0.749944
0.751014
0.751173
0.751274
-0.113977
-0.10423
-0.0674993
-0.00820256
0.0641373
0.142937
0.225435
0.310858
0.398319
0.486612
0.570158
0.636847
0.684773
0.720127
0.744705
0.758094
0.762817
0.763921
0.764057
0.764134
-0.141483
-0.131713
-0.0940046
-0.0326358
0.0423851
0.124375
0.210482
0.299909
0.391723
0.484641
0.572716
0.643019
0.693449
0.730519
0.756158
0.770145
0.775202
0.776343
0.776443
0.776491
-0.167295
-0.157475
-0.118875
-0.0557575
0.021691
0.106539
0.195904
0.288998
0.38488
0.48223
0.574755
0.648651
0.701565
0.740306
0.766945
0.78144
0.786766
0.787928
0.787988
0.788001
-0.191913
-0.181988
-0.142506
-0.0778958
0.00175733
0.0891617
0.181478
0.277938
0.377628
0.47922
0.57613
0.653652
0.709045
0.749395
0.776946
0.791807
0.797259
0.798439
0.798469
0.79845
-0.215644
-0.205529
-0.165307
-0.0992345
-0.0176207
0.0720662
0.167057
0.2666
0.369832
0.475486
0.576744
0.657962
0.715886
0.757793
0.786086
0.801166
0.806688
0.807807
0.807811
0.807761
-0.238605
-0.228303
-0.187416
-0.119918
-0.0365831
0.0551583
0.152549
0.254897
0.361414
0.470937
0.576509
0.661543
0.722105
0.765567
0.794456
0.809602
0.815011
0.816076
0.816029
0.815953
-0.260998
-0.250438
-0.20883
-0.140072
-0.0551985
0.0383744
0.137911
0.242796
0.352338
0.465517
0.575344
0.664353
0.727765
0.772871
0.802228
0.817211
0.822392
0.823347
0.823264
0.823163
-0.282792
-0.27198
-0.229698
-0.15976
-0.0734947
0.021702
0.123149
0.230304
0.342593
0.459184
0.573181
0.666343
0.732922
0.779862
0.809612
0.8242
0.828958
0.829726
0.829585
0.829477
-0.304048
-0.292969
-0.249974
-0.178982
-0.0914703
0.00515312
0.108284
0.217456
0.332205
0.451933
0.569959
0.66744
0.737586
0.786713
0.816904
0.830808
0.834839
0.835303
0.835122
0.835013
-0.324649
-0.31336
-0.269657
-0.197707
-0.109096
-0.011218
0.0933639
0.204302
0.321228
0.443798
0.56563
0.667554
0.741713
0.793552
0.824461
0.837474
0.840322
0.840182
0.839902
0.839826
-0.344724
-0.333121
-0.28875
-0.215928
-0.126355
-0.0273858
0.078466
0.190909
0.309732
0.434835
0.560179
0.666564
0.745173
0.800391
0.832641
0.844911
0.846101
0.844699
0.844092
0.844109
-0.364123
-0.352233
-0.307237
-0.233618
-0.143178
-0.0432745
0.0636619
0.177386
0.297811
0.425091
0.553621
0.66434
0.747765
0.807073
0.841586
0.853961
0.853551
0.850079
0.848096
0.847635
-0.382918
-0.370751
-0.325071
-0.250733
-0.159537
-0.0588219
0.0490278
0.163804
0.285569
0.414691
0.546002
0.660748
0.749224
0.813235
0.850939
0.864951
0.864524
0.859052
0.852914
0.84536
-0.40103
-0.388635
-0.34235
-0.267429
-0.175637
-0.0742904
0.0342446
0.149788
0.272586
0.403173
0.536845
0.655305
0.749151
0.818695
0.860293
0.877641
0.879673
0.873322
0.861925
0.85769
-0.418416
-0.405807