/*--------------------------------*- C++ -*----------------------------------*\
| =========                 |                                                 |
| \\      /  F ield         | OpenFOAM: The Open Source CFD Toolbox           |
|  \\    /   O peration     | Version:  2112                                  |
|   \\  /    A nd           | Website:  www.openfoam.com                      |
|    \\/     M anipulation  |                                                 |
\*---------------------------------------------------------------------------*/
FoamFile
{
    version     2.0;
    format      ascii;
    arch        "LSB;label=32;scalar=64";
    class       surfaceScalarField;
    location    "71.5";
    object      phi;
}
// * * * * * * * * * * * * * * * * * * * * * * * * * * * * * * * * * * * * * //

dimensions      [0 3 -1 0 0 0 0];

oriented        oriented;

internalField   nonuniform List<scalar> 
17370
(
-0.091606
0.0960093
0.284608
-0.0775944
0.0594197
0.36495
-0.0430416
0.0316213
0.427588
-0.0223169
0.0162639
0.505305
-0.0116704
0.00879629
0.602276
-0.00658477
0.00509953
0.720543
-0.00386243
0.00298211
0.863787
-0.0022092
0.00163097
1.03603
-0.00109927
0.000677998
1.24292
-0.000266072
-0.000129404
1.49159
0.000518658
-0.000933027
1.49161
0.00133899
-0.00184396
1.2432
0.00239259
-0.0031321
1.03638
0.00398667
-0.00520414
0.864124
0.00667795
-0.00887959
0.721259
0.0117428
-0.0163201
0.603792
0.022356
-0.0316415
0.508725
0.0430414
-0.0594076
0.432534
0.0775867
-0.0960025
0.365191
0.0916215
0.197389
-0.127093
0.0880262
0.0390671
-0.364358
0.354034
-0.0714719
0.0817966
-0.446654
0.454259
-0.0791659
0.0715614
-0.521012
0.529114
-0.0637056
0.0556037
-0.612992
0.620764
-0.0482144
0.0404427
-0.727166
0.733689
-0.0338287
0.0273054
-0.867583
0.872437
-0.0220991
0.0172443
-1.03857
1.04191
-0.0135436
0.0102018
-1.24472
1.24713
-0.00764854
0.00523955
-1.49284
1.49486
-0.00327231
0.00125473
-1.49269
1.49452
0.000567318
-0.00238953
-1.2441
1.24602
0.0043658
-0.00627958
-1.03761
1.04008
0.00861495
-0.0110903
-0.866186
0.869808
0.0143418
-0.0179644
-0.724591
0.729743
0.0227467
-0.0278983
-0.609062
0.615629
0.0343692
-0.0409365
-0.515121
0.522454
0.0486538
-0.0559867
-0.43988
0.447654
0.0640045
-0.071778
-0.374704
0.377355
0.0792653
-0.0819165
-0.256893
0.224429
0.0715658
-0.0391017
-0.0688169
0.0592079
0.00960893
-0.0520914
0.0589127
-0.374843
0.368022
-0.0580611
0.0542158
-0.453951
0.457797
-0.048726
0.0441636
-0.527624
0.532186
-0.0396098
0.0357098
-0.620809
0.624709
-0.0314916
0.0274914
-0.734668
0.738668
-0.0231287
0.0192361
-0.873965
0.877857
-0.015185
0.0117226
-1.04337
1.04683
-0.00819713
0.00515921
-1.24866
1.2517
-0.00194634
-0.00103881
-1.49695
1.49993
0.00400146
-0.00715251
-1.49741
1.50057
0.0100993
-0.0134987
-1.25006
1.25346
0.0168291
-0.0207264
-1.04564
1.04954
0.0244841
-0.0287149
-0.877125
0.881355
0.032609
-0.0367219
-0.73897
0.743083
0.0405345
-0.0450022
-0.625959
0.630427
0.0494926
-0.0549121
-0.535007
0.540426
0.0586755
-0.0594306
-0.458066
0.458821
0.0524742
-0.0320761
-0.336748
0.31635
0.00967707
-0.068652
0.0589749
-0.0534219
0.0493139
0.00410798
-0.0332197
0.0436326
-0.358584
0.348171
-0.0472996
0.0467065
-0.459594
0.460188
-0.0437722
0.0405543
-0.536148
0.539366
-0.0368709
0.0335099
-0.628414
0.631775
-0.0298686
0.0266202
-0.742055
0.745303
-0.0231588
0.0199533
-0.881359
0.884565
-0.0163513
0.0129914
-1.05027
1.05363
-0.00928347
0.00587134
-1.25496
1.25838
-0.00207357
-0.00154733
-1.50329
1.50691
0.00513566
-0.00883908
-1.50406
1.50776
0.0121223
-0.0156515
-1.25701
1.26054
0.0188248
-0.0222085
-1.05324
1.05663
0.0252218
-0.0284943
-0.884955
0.888228
0.0315901
-0.03508
-0.746757
0.750247
0.0383122
-0.0418615
-0.634539
0.638088
0.0449632
-0.0477674
-0.544562
0.547366
0.0482256
-0.0443713
-0.456927
0.453073
0.0337286
-0.0163962
-0.297017
0.279685
0.00418362
-0.0531204
0.0489368
-0.0461484
0.0435973
0.00255108
-0.0230159
0.0333492
-0.337592
0.327259
-0.0390681
0.0400067
-0.459946
0.459007
-0.0387458
0.0364099
-0.542028
0.544364
-0.0337584
0.0312027
-0.63475
0.637305
-0.0282148
0.0253565
-0.748397
0.751256
-0.0221072
0.0190828
-0.887631
0.890656
-0.01572
0.0125752
-1.05681
1.05996
-0.0090068
0.00559708
-1.26178
1.26519
-0.00167815
-0.00212421
-1.51064
1.51445
0.00588426
-0.0096753
-1.51154
1.51533
0.0129135
-0.0162471
-1.26399
1.26732
0.019147
-0.0222248
-1.05983
1.06291
0.0249952
-0.0279894
-0.891411
0.894405
0.030638
-0.0334165
-0.753413
0.756192
0.0357956
-0.0382682
-0.64103
0.643503
0.0404513
-0.0415115
-0.54919
0.55025
0.0403638
-0.0343396
-0.447931
0.441907
0.0236705
-0.0103968
-0.264474
0.251201
0.00264498
-0.0456864
0.0430415
-0.0414838
0.0396889
0.00179484
-0.016905
0.0261679
-0.31741
0.308147
-0.0327416
0.0348455
-0.457459
0.455355
-0.0343963
0.0326854
-0.546403
0.548114
-0.0304437
0.0283023
-0.639627
0.641769
-0.0258489
0.0234557
-0.753868
0.756262
-0.0206245
0.017863
-0.893527
0.896288
-0.0146624
0.0116131
-1.06302
1.06607
-0.00813286
0.0048048
-1.26852
1.27185
-0.000954447
-0.00279878
-1.51822
1.52197
0.00649721
-0.0101853
-1.51906
1.52275
0.0132945
-0.0164758
-1.27058
1.27376
0.0192137
-0.0220491
-1.06593
1.06876
0.0244823
-0.0269834
-0.897173
0.899674
0.0291062
-0.0312912
-0.758616
0.760801
0.0332078
-0.0352187
-0.645716
0.647727
0.0367077
-0.0368828
-0.550815
0.55099
0.0344575
-0.0274366
-0.435289
0.428268
0.0177229
-0.00750252
-0.239595
0.229375
0.0019098
-0.040824
0.0389142
-0.0381451
0.0368001
0.00134497
-0.0128975
0.0208679
-0.299532
0.291562
-0.0276049
0.0305036
-0.45282
0.449921
-0.03069
0.0295478
-0.549564
0.550706
-0.0275311
0.0255869
-0.643839
0.645783
-0.0233545
0.0211941
-0.758521
0.760682
-0.018665
0.0161773
-0.898857
0.901345
-0.0132362
0.0103619
-1.06898
1.07186
-0.00701304
0.00378117
-1.2751
1.27833
-3.46462e-05
-0.00360271
-1.52565
1.52928
0.00717259
-0.0107153
-1.52635
1.5299
0.0136736
-0.0166488
-1.27686
1.27983
0.0191325
-0.0216148
-1.07148
1.07396
0.0236918
-0.0258069
-0.901966
0.904081
0.0276254
-0.029516
-0.762823
0.764713
0.0311752
-0.0329147
-0.649579
0.651318
0.033733
-0.0331643
-0.550795
0.550226
0.0298059
-0.0224557
-0.421024
0.413674
0.0139061
-0.00580763
-0.220316
0.212217
0.00148519
-0.0372434
0.0357582
-0.0356262
0.0345929
0.00103335
-0.0100637
0.0168028
-0.28423
0.277491
-0.0232821
0.0266368
-0.446772
0.443417
-0.0273947
0.0266816
-0.551624
0.552337
-0.0248948
0.0230916
-0.647693
0.649496
-0.0210063
0.0189785
-0.762775
0.764803
-0.0165934
0.0142534
-0.903697
0.906037
-0.0115016
0.00880427
-1.07458
1.07728
-0.00563276
0.0025402
-1.28145
1.28455
0.00106609
-0.0045686
-1.53283
1.53633
0.00798634
-0.0113414
-1.53333
1.53668
0.0140946
-0.0168043
-1.28269
1.2854
0.0190208
-0.0212071
-1.07635
1.07853
0.0230398
-0.024912
-0.906081
0.907953
0.0265161
-0.0281776
-0.766479
0.76814
0.0296276
-0.0310327
-0.652911
0.654316
0.0313424
-0.030042
-0.549306
0.548006
0.0260537
-0.018767
-0.40633
0.399043
0.0113001
-0.0046874
-0.204932
0.198319
0.00120393
-0.0344299
0.0332259
-0.0336859
0.0328834
0.000802545
-0.00796119
0.0136206
-0.271319
0.265659
-0.019616
0.023169
-0.43995
0.436397
-0.0244035
0.0239353
-0.552954
0.553423
-0.0224182
0.020723
-0.651292
0.652987
-0.0187325
0.0167926
-0.766785
0.768725
-0.0145065
0.0122597
-0.90827
0.910516
-0.00961358
0.0070276
-1.07985
1.08243
-0.00399943
0.00104492
-1.28752
1.29048
0.00239863
-0.00573715
-1.53973
1.54307
0.00897273
-0.0121087
-1.53991
1.54305
0.0146459
-0.0171118
-1.28798
1.29045
0.0191099
-0.0210618
-1.08068
1.08263
0.0226857
-0.0243422
-0.909726
0.911383
0.0257616
-0.0272302
-0.769697
0.771166
0.0284846
-0.0295071
-0.655513
0.656535
0.0294431
-0.0274681
-0.546372
0.544396
0.0230682
-0.0160366
-0.391879
0.384847
0.00947281
-0.00391477
-0.192284
0.186726
0.00100991
-0.0321312
0.0311213
-0.0321786
0.0315545
0.000624076
-0.00633974
0.0110752
-0.260488
0.255753
-0.0164781
0.0200312
-0.432839
0.429286
-0.0215881
0.0213433
-0.55381
0.554054
-0.0200567
0.0184226
-0.654697
0.656331
-0.016487
0.0145954
-0.770637
0.772529
-0.0123671
0.0101791
-0.912663
0.914851
-0.00760409
0.00509063
-1.08491
1.08742
-0.00215483
-0.0006873
-1.29332
1.29616
0.00398727
-0.00716077
-1.54629
1.54946
0.0102069
-0.0131271
-1.54605
1.54897
0.0154664
-0.0177174
-1.29281
1.29506
0.0195152
-0.0212439
-1.08456
1.08629
0.0226715
-0.0241306
-0.912948
0.914407
0.0253847
-0.0266784
-0.77254
0.773833
0.0277846
-0.0283842
-0.657343
0.657943
0.0279465
-0.0254012
-0.542151
0.539605
0.0207451
-0.0140353
-0.377985
0.371275
0.008184
-0.00337768
-0.181582
0.176775
0.00087586
-0.0301884
0.0293125
-0.0310099
0.0305304
0.000479506
-0.00503436
0.00897204
-0.25144
0.247502
-0.0137362
0.0171392
-0.425812
0.422409
-0.0188771
0.0188203
-0.554241
0.554298
-0.0177286
0.0161281
-0.65801
0.659611
-0.0142148
0.0123376
-0.774407
0.776285
-0.0101263
0.00796021
-0.916947
0.919113
-0.00542024
0.002952
-1.08983
1.0923
-8.61179e-05
-0.00268447
-1.29891
1.30168
0.00586684
-0.00889397
-1.55253
1.55555
0.0117667
-0.0144875
-1.55176
1.55448
0.0166398
-0.0186816
-1.29721
1.29925
0.0202826
-0.021794
-1.08802
1.08954
0.0230363
-0.0243148
-0.915778
0.917056
0.0254196
-0.026552
-0.775038
0.776171
0.0274644
-0.0276839
-0.658349
0.658568
0.0268389
-0.0238093
-0.536831
0.533801
0.0189939
-0.0125967
-0.36474
0.358342
0.00728553
-0.00301012
-0.172266
0.167991
0.000785726
-0.0284909
0.0277052
-0.0301182
0.0297611
0.000357138
-0.00394002
0.00717609
-0.243937
0.240701
-0.0112886
0.0144305
-0.419146
0.416004
-0.0162224
0.0163152
-0.554323
0.55423
-0.0153057
0.0137755
-0.66125
0.662781
-0.0118565
0.00996083
-0.778161
0.780057
-0.00772821
0.0055485
-0.921192
0.923372
-0.00300603
0.000550547
-1.09467
1.09712
0.00228993
-0.00500537
-1.30435
1.30707
0.00809727
-0.0110024
-1.55848
1.56138
0.013721
-0.0162551
-1.55707
1.5596
0.0182271
-0.0200652
-1.30118
1.30302
0.0214731
-0.0227703
-1.09108
1.09238
0.0238322
-0.0249376
-0.918246
0.919351
0.0258993
-0.0268648
-0.777211
0.778176
0.0275151
-0.0274432
-0.658656
0.658584
0.0261504
-0.0226836
-0.530564
0.527097
0.0177505
-0.011609
-0.352098
0.345957
0.00668591
-0.00277151
-0.163925
0.160011
0.000729279
-0.0269567
0.0262274
-0.029464
0.0292161
0.000247922
-0.00298012
0.00558233
-0.2378
0.235198
-0.00904291
0.01184
-0.413049
0.410252
-0.0135714
0.0137423
-0.554145
0.553974
-0.012772
0.0112839
-0.664373
0.665861
-0.00933623
0.00739271
-0.781961
0.783904
-0.00510288
0.00287518
-0.925468
0.927695
-0.000293487
-0.00219202
-1.09949
1.10197
0.00503852
-0.00773452
-1.3097
1.3124
0.0107682
-0.0135768
-1.56419
1.567
0.0161596
-0.0185191
-1.56201
1.56437
0.0203182
-0.0219581
-1.30474
1.30638
0.023174
-0.0242527
-1.09374
1.09482
0.025129
-0.0260577
-0.920361
0.92129
0.0268747
-0.0276702
-0.779031
0.779826
0.0280295
-0.0276618
-0.658366
0.657999
0.0259111
-0.0220183
-0.523439
0.519546
0.0169663
-0.0109958
-0.339934
0.333964
0.00632539
-0.00263526
-0.156237
0.152547
0.000699692
-0.0255222
0.0248225
-0.0290249
0.0288807
0.000144223
-0.00209085
0.00409769
-0.23291
0.230903
-0.00690119
0.00928284
-0.407681
0.405299
-0.0108447
0.0110141
-0.553862
0.553692
-0.0100489
0.0085642
-0.667448
0.668933
-0.00656035
0.00453841
-0.785862
0.787884
-0.00215468
-0.000152702
-0.929841
0.932149
0.00282358
-0.00536935
-1.10437
1.10692
0.00826125
-0.0109708
-1.31502
1.31773
0.0139782
-0.016713
-1.56972
1.57246
0.0191754
-0.0213686
-1.5666
1.56879
0.0229974
-0.0244382
-1.3079
1.30934
0.0254542
-0.0263
-1.096
1.09685
0.0269779
-0.0277136
-0.922108
0.922844
0.028377
-0.0290299
-0.780491
0.781144
0.0290712
-0.0283166
-0.657426
0.656671
0.0261034
-0.0217877
-0.515489
0.511173
0.0165903
-0.0106951
-0.328072
0.322177
0.00615882
-0.00258116
-0.148941
0.145364
0.000691539
-0.0241365
0.0234449
-0.0287932
0.0287536
3.95966e-05
-0.00122416
0.0026504
-0.2292
0.227774
-0.00478316
0.00668564
-0.403177
0.401275
-0.00797334
0.00805782
-0.553635
0.55355
-0.00705009
0.00553042
-0.670558
0.672078
-0.00343149
0.001297
-0.789924
0.792059
0.00122173
-0.00365433
-0.934381
0.936814
0.00644687
-0.00909201
-1.10939
1.11203
0.0120706
-0.0148289
-1.32037
1.32313
0.0178428
-0.0205275
-1.57511
1.5778
0.0228839
-0.0249169
-1.57085
1.57289
0.0263763
-0.0276139
-1.31065
1.31188
0.0284237
-0.029034
-1.09783
1.09844
0.0295074
-0.0300379
-0.923464
0.923995
0.0305311
-0.0309704
-0.781583
0.782022
0.0307199
-0.0294892
-0.655712
0.654481
0.026782
-0.0220107
-0.506698
0.501926
0.0166086
-0.0106777
-0.316312
0.310381
0.00616307
-0.00259893
-0.141822
0.138258
0.000702261
-0.0227583
0.0220561
-0.028772
0.0288404
-6.8372e-05
-0.000341297
0.0011793
-0.226652
0.225814
-0.00261198
0.00396869
-0.399665
0.398308
-0.00487736
0.00479098
-0.553637
0.553723
-0.00368246
0.00207501
-0.673791
0.675398
0.000155195
-0.00244176
-0.794217
0.796504
0.0051422
-0.00774074
-0.939167
0.941765
0.0107074
-0.0134965
-1.11461
1.1174
0.0166069
-0.0194505
-1.32584
1.32868
0.0225043
-0.0251605
-1.58041
1.58306
0.0274227
-0.0292979
-1.57478
1.57666
0.0305842
-0.0316118
-1.31296
1.31399
0.0322106
-0.0325777
-1.09922
1.09959
0.0328373
-0.0331495
-0.924401
0.924713
0.0334493
-0.0335921
-0.782145
0.782288
0.0330312
-0.0312488
-0.653059
0.651276
0.0279919
-0.0227054
-0.49699
0.491704
0.0170156
-0.010927
-0.304428
0.298339
0.0063244
-0.00268189
-0.134687
0.131045
0.000729874
-0.021351
0.0206211
-0.0289765
0.0291631
-0.000186558
0.000584455
-0.000368239
-0.225286
0.22507
-0.000310267
0.00104318
-0.397269
0.396536
-0.00146483
0.00112194
-0.554047
0.55439
0.000139789
-0.00191128
-0.67726
0.679032
0.00433577
-0.00682698
-0.798826
0.801317
0.00976291
-0.0125766
-0.944288
0.947101
0.0157711
-0.0187521
-1.12013
1.12311
0.0220431
-0.0250109
-1.33148
1.33444
0.0281382
-0.0307856
-1.58565
1.5883
0.0329596
-0.034671
-1.57839
1.5801
0.0357779
-0.0365821
-1.31483
1.31563
0.0369592
-0.0370675
-1.10013
1.10023
0.0370957
-0.0371736
-0.924881
0.924959
0.0372761
-0.0370364
-0.782066
0.781826
0.0360843
-0.0336747
-0.649328
0.646918
0.0297914
-0.0238963
-0.486227
0.480332
0.0178111
-0.011431
-0.292167
0.285787
0.00663145
-0.0028239
-0.127353
0.123545
0.000772459
-0.0198813
0.0191088
-0.0294344
0.0297704
-0.000335951
0.00162877
-0.00205282
-0.225196
0.22562
0.00222494
-0.00222391
-0.396127
0.396126
0.00242209
-0.00313338
-0.555089
0.5558
0.0046367
-0.0066089
-0.681112
0.683084
0.009277
-0.0120241
-0.803839
0.806586
0.0152577
-0.0183443
-0.949842
0.952929
0.0218289
-0.0250553
-1.12604
1.12927
0.0285793
-0.0317112
-1.33737
1.3405
0.0349447
-0.0376011
-1.59087
1.59353
0.0396899
-0.0412242
-1.58164
1.58318
0.0421283
-0.0426978
-1.3162
1.31677
0.0428413
-0.0426681
-1.10049
1.10032
0.0424405
-0.0422665
-0.924852
0.924678
0.0421615
-0.0414369
-0.78118
0.780456
0.0400051
-0.03686
-0.644361
0.641215
0.0322398
-0.0256067
-0.474209
0.467576
0.0189944
-0.0121782
-0.27926
0.272444
0.00707279
-0.00301835
-0.119649
0.115595
0.000827716
-0.0183207
0.017493
-0.030176
0.0306922
-0.000516158
0.00293024
-0.00412662
-0.226447
0.227644
0.00517422
-0.00598212
-0.396452
0.39726
0.00690647
-0.00808585
-0.556991
0.55817
0.00991676
-0.0121699
-0.685452
0.687705
0.0151702
-0.0182489
-0.809371
0.81245
0.0218586
-0.0252864
-0.955949
0.959377
0.0291307
-0.0326598
-1.13245
1.13598
0.0364701
-0.039803
-1.3436
1.34693
0.0431665
-0.0458359
-1.59611
1.59878
0.0478274
-0.0491672
-1.58453
1.58587
0.0498382
-0.0501579
-1.31704
1.31736
0.0500474
-0.0495696
-1.10028
1.0998
0.0490683
-0.0486278
-0.924255
0.923815
0.0481918
-0.047
-0.779356
0.778164
0.0449295
-0.0409052
-0.637925
0.6339
0.0354024
-0.027863
-0.460662
0.453123
0.0205665
-0.0131569
-0.265412
0.258002
0.00763573
-0.00325734
-0.111416
0.107038
0.000892788
-0.0166453
0.0157525
-0.0312765
0.0320178
-0.000741323
0.00445154
-0.00654273
-0.229247
0.231338
0.00866402
-0.0103912
-0.398458
0.400185
0.0121488
-0.0139169
-0.560006
0.561774
0.0162117
-0.0188483
-0.690445
0.693082
0.022292
-0.0257882
-0.815575
0.819071
0.0298645
-0.0337115
-0.962749
0.966596
0.0379936
-0.0418863
-1.13948
1.14337
0.0460341
-0.0495969
-1.35023
1.35379
0.0531
-0.0557694
-1.60136
1.60403
0.0576337
-0.0587382
-1.58701
1.58811
0.0591386
-0.0591664
-1.31729
1.31732
0.0587789
-0.0579746
-1.09941
1.09861
0.0571743
-0.0564333
-0.923047
0.922306
0.0555887
-0.0538634
-0.776636
0.774911
0.051011
-0.0459103
-0.629721
0.62462
0.0393285
-0.0306693
-0.445233
0.436574
0.022507
-0.0143385
-0.250304
0.242135
0.00829613
-0.00352736
-0.102503
0.0977339
0.000963098
-0.0148372
0.0138741
-0.0328202
0.033853
-0.0010328
0.0063517
-0.00950727
-0.233838
0.236994
0.0129113
-0.0157065
-0.402412
0.405207
0.0184434
-0.0209257
-0.564417
0.566899
0.0238283
-0.0269705
-0.696311
0.699453
0.0309892
-0.0350146
-0.822622
0.826647
0.0396655
-0.0440191
-0.970399
0.974753
0.0488206
-0.0531336
-1.14724
1.15155
0.0576567
-0.0614595
-1.35731
1.36111
0.0650857
-0.0677161
-1.60659
1.60922
0.0694008
-0.0702079
-1.58898
1.58979
0.0702782
-0.0699547
-1.31682
1.31649
0.0692638
-0.0680908
-1.09783
1.09666
0.0669529
-0.0659206
-0.921179
0.920147
0.0645441
-0.0621901
-0.772861
0.770507
0.0583708
-0.0519369
-0.619347
0.612913
0.0440273
-0.0339902
-0.427484
0.417447
0.0247603
-0.0156674
-0.233606
0.224513
0.00901202
-0.00380655
-0.092786
0.0875806
0.00103159
-0.0128893
0.0118577
-0.0349322
0.0363679
-0.00143563
0.0088345
-0.0133528
-0.240546
0.245064
0.0182574
-0.0222972
-0.408682
0.412722
0.0261816
-0.0295316
-0.57055
0.5739
0.0332193
-0.0370279
-0.703314
0.707123
0.0417879
-0.0464743
-0.830729
0.835415
0.0518206
-0.0567705
-0.979078
0.984028
0.0621621
-0.0669291
-1.15584
1.1606
0.0718283
-0.0758381
-1.36484
1.36885
0.0795162
-0.0820161
-1.61168
1.61418
0.0834214
-0.0838309
-1.5903
1.59071
0.0835099
-0.0827535
-1.31552
1.31476
0.0817033
-0.0801453
-1.09544
1.09388
0.0786866
-0.0772322
-0.918618
0.917164
0.0753398
-0.0721196
-0.767784
0.764564
0.0670886
-0.0589908
-0.60627
0.598172
0.04944
-0.0377209
-0.406891
0.395172
0.0272117
-0.0170465
-0.214999
0.204834
0.00971647
-0.0040626
-0.0821898
0.0765359
0.0010885
-0.0108098
0.00972134
-0.0378156
0.0398185
-0.00200291
0.0122835
-0.0185337
-0.249892
0.256143
0.0252427
-0.0307374
-0.417767
0.423261
0.0359811
-0.0403973
-0.578798
0.583215
0.0450772
-0.0497539
-0.7118
0.716476
0.0554659
-0.0609635
-0.840154
0.845651
0.0671234
-0.0727361
-0.988958
0.994571
0.0787434
-0.0839423
-1.16531
1.17051
0.089144
-0.093254
-1.37272
1.37683
0.0968318
-0.0990405
-1.61642
1.61863
0.100009
-0.099874
-1.59073
1.5906
0.0990695
-0.0977653
-1.31327
1.31197
0.0963048
-0.0943446
-1.09217
1.09021
0.0925234
-0.09053
-0.915058
0.913064
0.0880967
-0.0837486
-0.760882
0.756534
0.0771746
-0.0669789
-0.589796
0.5796
0.0554001
-0.0416581
-0.382853
0.369111
0.0296678
-0.0183277
-0.194214
0.182874
0.0103143
-0.00425245
-0.070716
0.0646542
0.00112157
-0.00862751
0.00750595
-0.0417924
0.0446759
-0.00288352
0.0172847
-0.0258002
-0.262619
0.271134
0.0347525
-0.0420089
-0.430329
0.437586
0.0488951
-0.0545815
-0.589653
0.59534
0.060575
-0.0664077
-0.722189
0.728022
0.0732624
-0.0796777
-0.851172
0.857587
0.0867041
-0.0929636
-1.00014
1.0064
0.0995002
-0.104995
-1.17557
1.18107
0.110295
-0.114283
-1.38067
1.38466
0.11749
-0.11915
-1.62044
1.6221
0.119445
-0.118561
-1.58998
1.5891
0.117113
-0.115172
-1.30985
1.30791
0.113245
-0.110848
-1.08794
1.08555
0.108643
-0.105995
-0.910234
0.907585
0.102847
-0.0969986
-0.751571
0.745722
0.088439
-0.0756094
-0.569018
0.556189
0.0615588
-0.0454509
-0.354727
0.338619
0.0318288
-0.019302
-0.171105
0.158578
0.0106803
-0.00432323
-0.0584836
0.0521266
0.00111656
-0.00639621
0.00527966
-0.0474473
0.0518213
-0.00437396
0.0250339
-0.0366346
-0.279884
0.291485
0.0485096
-0.0581043
-0.447414
0.457009
0.0670261
-0.0741866
-0.603715
0.610875
0.0817325
-0.0890969
-0.734847
0.742211
0.0971639
-0.104421
-0.863985
0.871242
0.112151
-0.118839
-1.01252
1.01921
0.125588
-0.131039
-1.18625
1.1917
0.136026
-0.139498
-1.38818
1.39165
0.141897
-0.142619
-1.62316
1.62388
0.141913
-0.140033
-1.58759
1.58571
0.137775
-0.135086
-1.30508
1.30239
0.132606
-0.129743
-1.08263
1.07976
0.127025
-0.123723
-0.903991
0.900689
0.119501
-0.111601
-0.739026
0.731126
0.100433
-0.0843272
-0.542799
0.526694
0.0673499
-0.0486057
-0.32192
0.303176
0.0333139
-0.0197312
-0.145756
0.132174
0.0106833
-0.00422381
-0.0457701
0.0393106
0.00105997
-0.00419652
0.00313655
-0.055866
0.0633721
-0.00750611
0.0386637
-0.0547574
-0.303858
0.319952
0.0707142
-0.0835269
-0.470656
0.483469
0.0946286
-0.103177
-0.621423
0.629972
0.112239
-0.120889
-0.750174
0.758823
0.129897
-0.137582
-0.87829
0.885975
0.145427
-0.151934
-1.02548
1.03199
0.158208
-0.162966
-1.19653
1.20128
0.166955
-0.169289
-1.39433
1.39666
0.170299
-0.169633
-1.62373
1.62307
0.16757
-0.16439
-1.58306
1.57988
0.161102
-0.157493
-1.2987
1.29509
0.154382
-0.151048
-1.07608
1.07275
0.147765
-0.14355
-0.896041
0.891826
0.137692
-0.126917
-0.721983
0.711208
0.112303
-0.0921821
-0.509721
0.4896
0.0719889
-0.0505792
-0.284058
0.262648
0.0338012
-0.019485
-0.118629
0.104313
0.0102841
-0.003955
-0.0330358
0.0267067
0.000954423
-0.00213442
0.00118
-0.07036
0.0745642
-0.00420424
0.0296257
-0.0435699
-0.338569
0.352513
0.0577175
-0.0694339
-0.501504
0.51322
0.0799574
-0.0897919
-0.642389
0.652224
0.100815
-0.110905
-0.767047
0.777137
0.122135
-0.132184
-0.892786
0.902834
0.142934
-0.152538
-1.03756
1.04716
0.162612
-0.171297
-1.20496
1.21365
0.179996
-0.187025
-1.39786
1.40489
0.193419
-0.197787
-1.62123
1.6256
0.200109
-0.20099
-1.57572
1.5766
0.200712
-0.19988
-1.29037
1.28954
0.199283
-0.198215
-1.06808
1.06701
0.196627
-0.192344
-0.88559
0.881307
0.183982
-0.167409
-0.698594
0.682021
0.144814
-0.115036
-0.468339
0.438561
0.0868882
-0.0586442
-0.241258
0.213014
0.0378589
-0.0210803
-0.0907117
0.0739331
0.0107714
-0.00399319
-0.0208991
0.0141209
0.000922814
-0.000311501
-0.000611313
-0.0818374
0.07998
0.00185742
0.0076587
-0.016887
-0.369311
0.378539
0.027656
-0.0359817
-0.529677
0.538003
0.044454
-0.0528099
-0.664638
0.672994
0.06295
-0.0724029
-0.786893
0.796346
0.082491
-0.0917356
-0.912337
0.921582
0.101591
-0.110053
-1.05648
1.06494
0.119119
-0.12657
-1.22215
1.22961
0.133986
-0.139703
-1.41163
1.41735
0.144374
-0.147229
-1.62921
1.63206
0.148084
-0.147524
-1.57686
1.5763
0.145801
-0.143413
-1.28782
1.28543
0.14134
-0.139093
-1.0633
1.06105
0.136371
-0.130832
-0.87255
0.867011
0.121713
-0.106466
-0.661285
0.646038
0.0883566
-0.0667028
-0.407113
0.385459
0.0482104
-0.0314518
-0.18551
0.168751
0.0199466
-0.0110676
-0.0583162
0.0494372
0.00570042
-0.0021283
-0.00769869
0.00412657
0.00042975
0.00160611
-0.00203586
-0.0833133
0.0803615
0.00295177
-0.00171688
-0.00366001
-0.390102
0.395479
0.0110264
-0.0170644
-0.550564
0.556602
0.0233494
-0.0306625
-0.683496
0.690809
0.0394376
-0.047645
-0.804907
0.813114
0.0566288
-0.0646928
-0.930073
0.938137
0.0730347
-0.0805548
-1.07321
1.08073
0.0883864
-0.0948956
-1.23659
1.2431
0.100893
-0.105282
-1.42236
1.42675
0.108796
-0.110359
-1.63419
1.63575
0.109958
-0.108175
-1.57513
1.57335
0.105488
-0.102236
-1.28262
1.27937
0.0988972
-0.09541
-1.05624
1.05275
0.0916522
-0.0858486
-0.857502
0.851698
0.0774361
-0.0646838
-0.62771
0.614957
0.0513234
-0.0369884
-0.362227
0.347892
0.0261904
-0.0172075
-0.151907
0.142924
0.0112388
-0.00659463
-0.0407881
0.0361438
0.00359052
-0.00133413
-0.000688509
-0.00156788
0.000302887
0.00268968
-0.00299257
-0.0819941
0.0791862
0.00280796
-0.00549869
0.00292579
-0.403969
0.406542
0.001848
-0.00642136
-0.566002
0.570576
0.0117091
-0.0178232
-0.699054
0.705168
0.0252917
-0.0323017
-0.820682
0.827692
0.0399638
-0.0468614
-0.945656
0.952553
0.0543698
-0.0607133
-1.08779
1.09413
0.0674916
-0.0726331
-1.24915
1.25429
0.0776341
-0.0811229
-1.43086
1.43435
0.0834781
-0.0837711
-1.63679
1.63708
0.0825398
-0.0799564
-1.57093
1.56835
0.0765605
-0.0721642
-1.27564
1.27125
0.0680431
-0.0635593
-1.04729
1.04281
0.0588457
-0.0531079
-0.841559
0.835821
0.0457001
-0.0360722
-0.599615
0.589987
0.0270873
-0.0187458
-0.332495
0.324153
0.0132299
-0.00906483
-0.133224
0.129059
0.00634416
-0.00409868
-0.031073
0.0288275
0.00236787
-0.000987351
0.0038934
-0.00527392
0.000254211
0.00355177
-0.00380598
-0.0803819
0.0778643
0.00251754
-0.00677686
0.00588039
-0.413151
0.414048
-0.0023832
-0.000892125
-0.578353
0.581629
0.00516682
-0.0106897
-0.712061
0.717584
0.0169302
-0.023046
-0.83399
0.840106
0.0296388
-0.0355797
-0.958971
0.964912
0.0419577
-0.0475223
-1.1003
1.10587
0.0531707
-0.0577441
-1.25924
1.26381
0.0618527
-0.0645471
-1.43739
1.44009
0.0660477
-0.0655549
-1.63709
1.6366
0.0635829
-0.0600608
-1.56494
1.56142
0.0560248
-0.0510649
-1.26656
1.2616
0.0462458
-0.0407818
-1.03678
1.03131
0.035585
-0.029849
-0.825975
0.820239
0.0237441
-0.0165888
-0.578096
0.570941
0.0110168
-0.00686269
-0.314504
0.31035
0.00473902
-0.00355203
-0.123785
0.122598
0.00286665
-0.0021668
-0.0259655
0.0252656
0.00136264
-0.00064485
0.00693111
-0.0076489
0.000192382
0.00430465
-0.00449704
-0.0788281
0.0766428
0.00218526
-0.00678566
0.00646529
-0.419337
0.419657
-0.00441235
0.00179073
-0.587772
0.590393
0.00228025
-0.00697428
-0.723021
0.727715
0.0122948
-0.0175686
-0.845416
0.85069
0.0233787
-0.0286263
-0.970472
0.97572
0.0343714
-0.0391568
-1.1111
1.11589
0.0441077
-0.0480712
-1.26803
1.272
0.0514795
-0.0535545
-1.44243
1.4445
0.0543713
-0.0536362
-1.63589
1.63515
0.0510535
-0.0471163
-1.5573
1.55336
0.0425762
-0.0370628
-1.25623
1.25072
0.0319639
-0.0258029
-1.02485
1.01868
0.0201588
-0.0144922
-0.811062
0.805396
0.00921163
-0.00384684
-0.561866
0.556502
0.000558522
0.00104749
-0.304224
0.302618
-0.00101398
0.000493226
-0.120004
0.120525
-1.09068e-05
-0.000377559
-0.0241179
0.0245064
0.000356473
-0.000257408
0.00853974
-0.00863881
0.000104162
0.00485921
-0.00496338
-0.0775713
0.0758374
0.00173394
-0.00600924
0.00608417
-0.423781
0.423706
-0.00448823
0.00256788
-0.595896
0.597816
0.00117648
-0.00539293
-0.732418
0.736634
0.0103866
-0.0148838
-0.855545
0.860042
0.0199316
-0.0245211
-0.980906
0.985495
0.0298768
-0.0341269
-1.12066
1.12491
0.0383963
-0.0419877
-1.27571
1.2793
0.0453142
-0.046973
-1.44651
1.44816
0.0474917
-0.0463052
-1.6339
1.63271
0.0436856
-0.0391659
-1.54906
1.54454
0.0345129
-0.0288518
-1.24486
1.2392
0.0233182
-0.0170354
-1.01195
1.00566
0.0111298
-0.00513996
-0.796723
0.790733
0.000659952
0.0035059
-0.548915
0.544749
-0.00575104
0.00596608
-0.298532
0.298317
-0.00505229
0.00373222
-0.119837
0.121157
-0.00246317
0.00126371
-0.024565
0.0257645
-0.00059816
0.000144753
0.00882274
-0.00836933
3.55598e-06
0.00514644
-0.00514999
-0.0767929
0.0754064
0.00138656
-0.00500426
0.00525369
-0.427149
0.426899
-0.00390769
0.00211283
-0.602856
0.604651
0.00142567
-0.00514349
-0.740773
0.744491
0.00937083
-0.0136557
-0.864459
0.868744
0.0182537
-0.0229053
-0.989857
0.994509
0.0274278
-0.0313877
-1.12921
1.13317
0.0356502
-0.0388456
-1.28271
1.2859
0.0414934
-0.0433538
-1.44965
1.45151
0.0437627
-0.0425351
-1.63147
1.63025
0.0397133
-0.0353609
-1.54009
1.53574
0.0306367
-0.0248651
-1.23308
1.22731
0.0193207
-0.0129313
-0.998833
0.992444
0.0069933
-0.00106071
-0.782875
0.776942
-0.00320485
0.00667931
-0.537995
0.534521
-0.00847887
0.00844714
-0.295373
0.295405
-0.00723668
0.00549965
-0.121256
0.122993
-0.00394298
0.00234708
-0.0265539
0.0281498
-0.00126578
0.00045879
0.00797153
-0.00716454
-8.62366e-05
0.0051552
-0.00506896
-0.0765316
0.0753609
0.0011707
-0.00377003
0.00381834
-0.430046
0.429998
-0.00279833
0.00106151
-0.609141
0.610878
0.00228733
-0.00583017
-0.748433
0.751976
0.00983632
-0.0136619
-0.872781
0.876607
0.0183128
-0.0221011
-0.998544
1.00233
0.0265069
-0.030194
-1.13724
1.14093
0.0342258
-0.037495
-1.28902
1.29229
0.0402698
-0.0417323
-1.45305
1.45452
0.0422528
-0.0411727
-1.62886
1.62778
0.0387116
-0.0343571
-1.53117
1.52682
0.0297938
-0.0241328
-1.22155
1.21589
0.0187228
-0.0123853
-0.985588
0.97925
0.00666221
-0.00067748
-0.769492
0.763507
-0.00360067
0.00688742
-0.52833
0.525043
-0.00870766
0.00882639
-0.292978
0.292859
-0.00788227
0.00627202
-0.123319
0.12493
-0.00472346
0.00299696
-0.0292725
0.030999
-0.00171449
0.000695613
0.00642164
-0.00540276
-0.000168284
0.00495415
-0.00478586
-0.076543
0.0757084
0.000834643
-0.00263251
0.00223588
-0.432954
0.433351
-0.00138141
-0.000396274
-0.614613
0.61639
0.00340957
-0.00677673
-0.755502
0.758869
0.0105714
-0.0144838
-0.880261
0.884173
0.0184581
-0.0223529
-1.0063
1.01019
0.026652
-0.0300572
-1.14501
1.14841
0.0340877
-0.037212
-1.29531
1.29843
0.0399205
-0.041783
-1.45633
1.45819
0.0426214
-0.0416358
-1.62666
1.62568
0.0392165
-0.035373
-1.52257
1.51873
0.0311822
-0.0257246
-1.21007
1.20461
0.0204405
-0.0145513
-0.972704
0.966815
0.00866911
-0.00299801
-0.756308
0.750637
-0.00149889
0.00492497
-0.519161
0.515735
-0.00670237
0.00739196
-0.290371
0.289681
-0.00698009
0.00590322
-0.125144
0.126221
-0.00460532
0.00306754
-0.0320974
0.0336351
-0.00183565
0.000802335
0.00450697
-0.00347366
-0.000214172
0.00458628
-0.00437211
-0.0769729
0.0763086
0.000664326
-0.00166367
0.00134573
-0.436035
0.436353
-6.09633e-05
-0.00176095
-0.620033
0.621855
0.0048773
-0.0080745
-0.761991
0.765188
0.0116833
-0.0151558
-0.887719
0.891192
0.0192136
-0.0227478
-1.01406
1.01759
0.0269434
-0.0307337
-1.15224
1.15603
0.034331
-0.0377157
-1.30155
1.30494
0.040756
-0.0426106
-1.4599
1.46175
0.0436958
-0.0433626
-1.62486
1.62453
0.0412493
-0.0379043
-1.51471
1.51137
0.033838
-0.0287876
-1.19919
1.19414
0.0239044
-0.0181737
-0.960453
0.954722
0.0126685
-0.00703015
-0.743687
0.738048
0.00235656
0.00150061
-0.509801
0.505944
-0.00364999
0.00480387
-0.286986
0.285832
-0.00506715
0.00457555
-0.125998
0.12649
-0.0037543
0.00263611
-0.0344529
0.0355711
-0.0016449
0.000770304
0.00262516
-0.00175056
-0.000223443
0.00414957
-0.00392612
-0.077694
0.0772118
0.000482178
-0.000600691
0.000170107
-0.439276
0.439707
0.00119665
-0.00325073
-0.625191
0.627245
0.00624886
-0.00926558
-0.768182
0.771198
0.01294
-0.0162332
-0.894615
0.897908
0.0201004
-0.0237278
-1.02158
1.02521
0.0277873
-0.0315035
-1.15963
1.16335
0.0352759
-0.0386348
-1.3082
1.31156
0.0417959
-0.0443329
-1.46385
1.46639
0.0457698
-0.0456317
-1.62407
1.62394
0.044115
-0.0410083
-1.50788
1.50478
0.0374554
-0.0329419
-1.18905
1.18453
0.0281467
-0.022704
-0.948699
0.943256
0.0174305
-0.0117551
-0.731427
0.725752
0.00708272