/*--------------------------------*- C++ -*----------------------------------*\
| =========                 |                                                 |
| \\      /  F ield         | OpenFOAM: The Open Source CFD Toolbox           |
|  \\    /   O peration     | Version:  2112                                  |
|   \\  /    A nd           | Website:  www.openfoam.com                      |
|    \\/     M anipulation  |                                                 |
\*---------------------------------------------------------------------------*/
FoamFile
{
    version     2.0;
    format      ascii;
    arch        "LSB;label=32;scalar=64";
    class       volVectorField;
    location    "71.5";
    object      U;
}
// * * * * * * * * * * * * * * * * * * * * * * * * * * * * * * * * * * * * * //

dimensions      [0 1 -1 0 0 0 0];

internalField   nonuniform List<vector> 
8800
(
(0.980135 -0.09152 0)
(1.00234 -0.0587302 0)
(0.999585 -0.0321282 0)
(0.999988 -0.0165203 0)
(1.0001 -0.00883888 0)
(1.00012 -0.005093 0)
(1.00007 -0.00298853 0)
(1.00003 -0.00167748 0)
(0.999998 -0.000775573 0)
(1.00007 -7.60895e-05 0)
(0.999974 0.00063386 0)
(0.999985 0.00139231 0)
(1.00003 0.00241355 0)
(1.00006 0.00400988 0)
(1.00004 0.00675338 0)
(1 0.0120538 0)
(0.999812 0.0230954 0)
(0.999035 0.043155 0)
(1.00724 0.0790246 0)
(0.775026 0.0478395 0)
(0.359001 -0.0147478 0)
(1.04651 -0.0724756 0)
(1.08848 -0.0660113 0)
(1.04945 -0.0509018 0)
(1.02556 -0.0376772 0)
(1.01278 -0.0258676 0)
(1.00661 -0.0166668 0)
(1.00365 -0.0101724 0)
(1.00219 -0.0055368 0)
(1.00151 -0.00193811 0)
(1.00137 0.00127655 0)
(1.00171 0.00458928 0)
(1.0027 0.00847667 0)
(1.00476 0.0137757 0)
(1.00898 0.0214445 0)
(1.01794 0.0319303 0)
(1.0358 0.0446972 0)
(1.06743 0.0581345 0)
(1.09468 0.069948 0)
(0.845605 0.0555092 0)
(0.217825 -0.00137936 0)
(1.0757 -0.0506275 0)
(1.09943 -0.0489048 0)
(1.06442 -0.0399818 0)
(1.03995 -0.0325146 0)
(1.02386 -0.0252908 0)
(1.01406 -0.01806 0)
(1.00854 -0.0114278 0)
(1.00566 -0.00566118 0)
(1.00447 -0.000362814 0)
(1.00477 0.00475149 0)
(1.00661 0.0100403 0)
(1.01057 0.0159945 0)
(1.01789 0.0227295 0)
(1.03047 0.0298214 0)
(1.05046 0.0368979 0)
(1.08003 0.0446643 0)
(1.10563 0.0519767 0)
(0.943204 0.0410273 0)
(0.217139 0.00140711 0)
(0.176707 -0.000627438 0)
(1.01949 -0.0354314 0)
(1.10577 -0.0413602 0)
(1.07803 -0.0363325 0)
(1.05253 -0.0302747 0)
(1.03531 -0.0243829 0)
(1.02343 -0.0185707 0)
(1.01559 -0.0125558 0)
(1.01096 -0.00644442 0)
(1.0089 -0.000195201 0)
(1.0094 0.00596623 0)
(1.01247 0.01188 0)
(1.01846 0.0176268 0)
(1.02804 0.0231728 0)
(1.04221 0.0287053 0)
(1.06303 0.0344693 0)
(1.09382 0.040339 0)
(1.09436 0.0418435 0)
(0.83003 0.0228042 0)
(0.175537 0.000649771 0)
(0.154831 -0.0004611 0)
(0.958365 -0.0256498 0)
(1.10451 -0.0350455 0)
(1.08817 -0.0325791 0)
(1.06138 -0.0280553 0)
(1.04333 -0.0230727 0)
(1.03092 -0.0177483 0)
(1.02229 -0.0121837 0)
(1.01671 -0.00625177 0)
(1.01402 0.000217472 0)
(1.01462 0.00668125 0)
(1.01839 0.0125508 0)
(1.0252 0.0178399 0)
(1.03532 0.0228087 0)
(1.05002 0.0276108 0)
(1.07195 0.0320282 0)
(1.10092 0.0358837 0)
(1.06953 0.0340613 0)
(0.742223 0.0144889 0)
(0.153074 0.000486174 0)
(0.140186 -0.000332804 0)
(0.901479 -0.0192763 0)
(1.09699 -0.0301318 0)
(1.09636 -0.0292295 0)
(1.06913 -0.0254254 0)
(1.05029 -0.0213152 0)
(1.0373 -0.0165881 0)
(1.02828 -0.01131 0)
(1.02229 -0.00555996 0)
(1.01925 0.000815833 0)
(1.01981 0.00719399 0)
(1.02378 0.0128385 0)
(1.03083 0.0177851 0)
(1.04131 0.0222079 0)
(1.05663 0.0261282 0)
(1.07942 0.0296149 0)
(1.10317 0.0323016 0)
(1.03762 0.0282506 0)
(0.675225 0.0103519 0)
(0.137709 0.000362575 0)
(0.129494 -0.000251119 0)
(0.85176 -0.0148705 0)
(1.08473 -0.0260121 0)
(1.1021 -0.0263252 0)
(1.076 -0.0229779 0)
(1.05666 -0.0192936 0)
(1.04324 -0.0150639 0)
(1.03384 -0.0101662 0)
(1.02756 -0.00463342 0)
(1.02429 0.00156014 0)
(1.02472 0.00772272 0)
(1.02868 0.0130833 0)
(1.03588 0.0176023 0)
(1.04664 0.0214141 0)
(1.06232 0.0247315 0)
(1.08555 0.0277337 0)
(1.10231 0.0295118 0)
(1.00275 0.0237407 0)
(0.622951 0.00796008 0)
(0.126137 0.000287309 0)
(0.121362 -0.00019204 0)
(0.809449 -0.0116759 0)
(1.06954 -0.0223972 0)
(1.10569 -0.0236661 0)
(1.0823 -0.0207662 0)
(1.0625 -0.0173045 0)
(1.0488 -0.0133522 0)
(1.03914 -0.00877073 0)
(1.03259 -0.00350717 0)
(1.02906 0.00245698 0)
(1.02931 0.00835116 0)
(1.03321 0.0133565 0)
(1.04046 0.0174122 0)
(1.05131 0.0207442 0)
(1.06723 0.0236635 0)
(1.09084 0.0263431 0)
(1.09856 0.027205 0)
(0.967403 0.0202042 0)
(0.580905 0.00640514 0)
(0.116933 0.000235997 0)
(0.115074 -0.000147127 0)
(0.773828 -0.00928209 0)
(1.05284 -0.0192101 0)
(1.10811 -0.0212032 0)
(1.08823 -0.0186799 0)
(1.06802 -0.0153746 0)
(1.05406 -0.0115851 0)
(1.0442 -0.00719944 0)
(1.03741 -0.00216892 0)
(1.03361 0.00353901 0)
(1.03362 0.0091241 0)
(1.03738 0.0137503 0)
(1.04456 0.0173984 0)
(1.0554 0.0203471 0)
(1.07155 0.0229329 0)
(1.09484 0.0252578 0)
(1.09196 0.0253055 0)
(0.932929 0.017477 0)
(0.546069 0.00534294 0)
(0.109343 0.000200455 0)
(0.110185 -0.00011156 0)
(0.743975 -0.00742434 0)
(1.03569 -0.0163788 0)
(1.1096 -0.0188815 0)
(1.09387 -0.0166651 0)
(1.07336 -0.0134547 0)
(1.05911 -0.009758 0)
(1.04905 -0.00549026 0)
(1.04204 -0.000623518 0)
(1.03794 0.00484202 0)
(1.03765 0.0101084 0)
(1.04117 0.0143722 0)
(1.04821 0.0176537 0)
(1.05902 0.0202509 0)
(1.07538 0.0225437 0)
(1.09755 0.0244883 0)
(1.08287 0.0237614 0)
(0.899901 0.0154115 0)
(0.51637 0.00460558 0)
(0.102872 0.000176137 0)
(0.106403 -8.21038e-05 0)
(0.719071 -0.00592585 0)
(1.01894 -0.0138323 0)
(1.11026 -0.0166324 0)
(1.0994 -0.0146919 0)
(1.07862 -0.0114951 0)
(1.06407 -0.00782824 0)
(1.05378 -0.00361879 0)
(1.0465 0.00114249 0)
(1.04207 0.00640679 0)
(1.04139 0.0113775 0)
(1.0446 0.0153018 0)
(1.05145 0.0182306 0)
(1.06221 0.0204879 0)
(1.07876 0.0225154 0)
(1.09889 0.0240486 0)
(1.07169 0.0225704 0)
(0.868435 0.0138949 0)
(0.490328 0.00410153 0)
(0.0971672 0.000160494 0)
(0.103538 -5.65611e-05 0)
(0.698476 -0.00466819 0)
(1.00321 -0.011504 0)
(1.11026 -0.0144188 0)
(1.10479 -0.0126739 0)
(1.08388 -0.00944134 0)
(1.06901 -0.00574466 0)
(1.05845 -0.00153056 0)
(1.05085 0.00317654 0)
(1.04601 0.00828899 0)
(1.04487 0.0129941 0)
(1.0477 0.0165956 0)
(1.05431 0.0191786 0)
(1.065 0.0211018 0)
(1.08168 0.0228694 0)
(1.09917 0.0240048 0)
(1.05866 0.0217475 0)
(0.838366 0.0128395 0)
(0.466836 0.00377398 0)
(0.0919663 0.000151631 0)
(0.101468 -3.29963e-05 0)
(0.681718 -0.00356303 0)
(0.988951 -0.00932421 0)
(1.10981 -0.012156 0)
(1.11001 -0.0105232 0)
(1.08924 -0.00723351 0)
(1.074 -0.00344699 0)
(1.06312 0.000837516 0)
(1.05514 0.00554796 0)
(1.04979 0.0105621 0)
(1.04809 0.0150322 0)
(1.05047 0.0183213 0)
(1.0568 0.0205599 0)
(1.06737 0.0221445 0)
(1.08411 0.0236395 0)
(1.09845 0.0243466 0)
(1.04395 0.0213032 0)
(0.809351 0.0121724 0)
(0.445022 0.00358457 0)
(0.0870618 0.000148153 0)
(0.100131 -9.72332e-06 0)
(0.668491 -0.00254087 0)
(0.976532 -0.00721844 0)
(1.10923 -0.00978385 0)
(1.11519 -0.00817899 0)
(1.09476 -0.00479569 0)
(1.07914 -0.000853744 0)
(1.06787 0.00356419 0)
(1.05942 0.00834557 0)
(1.05345 0.0133142 0)
(1.05108 0.017577 0)
(1.0529 0.0205583 0)
(1.0589 0.0224385 0)
(1.06932 0.0236683 0)
(1.08607 0.0248942 0)
(1.09646 0.0251414 0)
(1.02759 0.0212306 0)
(0.780951 0.0118416 0)
(0.424174 0.00350806 0)
(0.0822878 0.00014897 0)
(0.0995108 1.54002e-05 0)
(0.658639 -0.00154808 0)
(0.966272 -0.00511616 0)
(1.10884 -0.00723925 0)
(1.12047 -0.00556793 0)
(1.10053 -0.00204022 0)
(1.08449 0.00212594 0)
(1.07277 0.00674541 0)
(1.06374 0.0116683 0)
(1.05703 0.0166441 0)
(1.05384 0.0207251 0)
(1.055 0.0234014 0)
(1.06058 0.0249072 0)
(1.07083 0.0257732 0)
(1.08749 0.0266841 0)
(1.09321 0.0263882 0)
(1.00952 0.0215686 0)
(0.752671 0.0118191 0)
(0.403692 0.00352982 0)
(0.0775068 0.000153614 0)
(0.0996248 3.5484e-05 0)
(0.652132 -0.000541067 0)
(0.958475 -0.00294664 0)
(1.10899 -0.00444971 0)
(1.12601 -0.00260502 0)
(1.10667 0.00112934 0)
(1.09016 0.0055948 0)
(1.07789 0.0104994 0)
(1.06816 0.0156374 0)
(1.06054 0.0206748 0)
(1.05638 0.0245935 0)
(1.05675 0.0269605 0)
(1.06185 0.0280888 0)
(1.07188 0.0285629 0)
(1.08815 0.0291019 0)
(1.08837 0.0281566 0)
(0.989584 0.0223501 0)
(0.723955 0.01209 0)
(0.383029 0.00364055 0)
(0.0725953 0.000161569 0)
(0.100534 7.16127e-05 0)
(0.649074 0.000501346 0)
(0.953465 -0.000629944 0)
(1.11005 -0.00133014 0)
(1.13202 0.000807983 0)
(1.11327 0.00483359 0)
(1.09624 0.00969216 0)
(1.08332 0.0149705 0)
(1.07274 0.0204034 0)
(1.06403 0.0255571 0)
(1.05869 0.029328 0)
(1.05813 0.0313667 0)
(1.06266 0.032102 0)
(1.0724 0.0321588 0)
(1.08789 0.0322724 0)
(1.08167 0.030541 0)
(0.967452 0.0236096 0)
(0.694183 0.0126452 0)
(0.361669 0.00383261 0)
(0.0674419 0.00017232 0)
(0.10242 0.000105901 0)
(0.649833 0.00168121 0)
(0.951598 0.00192181 0)
(1.11245 0.00222405 0)
(1.13871 0.00476146 0)
(1.12049 0.0092198 0)
(1.10287 0.0145731 0)
(1.08915 0.0203257 0)
(1.07754 0.0261396 0)
(1.0675 0.0314635 0)
(1.06077 0.035095 0)
(1.0591 0.0367605 0)
(1.06294 0.0370884 0)
(1.07234 0.0366957 0)
(1.08645 0.0363198 0)
(1.07286 0.0336281 0)
(0.942702 0.0253831 0)
(0.662693 0.0134778 0)
(0.339129 0.00409786 0)
(0.0619522 0.00018514 0)
(0.105352 0.000154809 0)
(0.654857 0.00315063 0)
(0.953355 0.00486354 0)
(1.11669 0.00632874 0)
(1.1463 0.00943004 0)
(1.1285 0.0144721 0)
(1.11019 0.0204407 0)
(1.09551 0.0267833 0)
(1.08262 0.0330666 0)
(1.07098 0.0386012 0)
(1.06259 0.0420703 0)
(1.05964 0.0433251 0)
(1.06264 0.0432153 0)
(1.07162 0.0423209 0)
(1.08368 0.0414298 0)
(1.06152 0.0375306 0)
(0.914754 0.0277136 0)
(0.628766 0.0145794 0)
(0.314952 0.00442694 0)
(0.0560474 0.000199105 0)
(0.109616 0.000218325 0)
(0.664546 0.004852 0)
(0.959184 0.00833097 0)
(1.12324 0.0111526 0)
(1.15508 0.0150154 0)
(1.1375 0.0208246 0)
(1.11836 0.0275572 0)
(1.10248 0.0346182 0)
(1.08804 0.0414551 0)
(1.07446 0.0472178 0)
(1.06411 0.050476 0)
(1.05968 0.051256 0)
(1.0617 0.0506674 0)
(1.07018 0.0491994 0)
(1.07966 0.0477123 0)
(1.04712 0.0423602 0)
(0.882867 0.0306187 0)
(0.591629 0.0159249 0)
(0.288719 0.00480247 0)
(0.0496738 0.000212836 0)
(0.115553 0.000303479 0)
(0.679684 0.00696352 0)
(0.969723 0.0125213 0)
(1.13269 0.0169381 0)
(1.16543 0.0217826 0)
(1.14776 0.0285928 0)
(1.12757 0.0362635 0)
(1.11019 0.0441776 0)
(1.0938 0.0516317 0)
(1.07789 0.0575992 0)
(1.06526 0.0605583 0)
(1.05903 0.0607441 0)
(1.06004 0.0596258 0)
(1.068 0.0575464 0)
(1.07412 0.0553621 0)
(1.02898 0.0481911 0)
(0.846137 0.0340908 0)
(0.550493 0.0174612 0)
(0.260102 0.00519612 0)
(0.0428184 0.000224367 0)
(0.123669 0.000426274 0)
(0.701227 0.00973006 0)
(0.985852 0.0177498 0)
(1.14569 0.0240352 0)
(1.17783 0.0301312 0)
(1.1596 0.0382411 0)
(1.13802 0.0470449 0)
(1.11871 0.0559299 0)
(1.09991 0.0640069 0)
(1.0812 0.0700671 0)
(1.06594 0.0725592 0)
(1.05768 0.0720161 0)
(1.05757 0.0702426 0)
(1.06497 0.0674783 0)
(1.06667 0.0643505 0)
(1.00618 0.0550748 0)
(0.803504 0.0380584 0)
(0.504619 0.0190905 0)
(0.228932 0.00556506 0)
(0.0355262 0.000231222 0)
(0.134693 0.000600189 0)
(0.730403 0.0135246 0)
(1.00874 0.0244899 0)
(1.16304 0.0329957 0)
(1.19289 0.0406629 0)
(1.17337 0.0504507 0)
(1.14988 0.0605777 0)
(1.12804 0.0704833 0)
(1.10623 0.0790691 0)
(1.08422 0.084978 0)
(1.06597 0.0867341 0)
(1.05554 0.0852844 0)
(1.05422 0.0827776 0)
(1.06073 0.0791397 0)
(1.05654 0.074913 0)
(0.977533 0.0629717 0)
(0.753793 0.0423534 0)
(0.453438 0.0206558 0)
(0.195294 0.00585073 0)
(0.027919 0.000230587 0)
(0.149896 0.00088052 0)
(0.769266 0.0189572 0)
(1.04003 0.0335342 0)
(1.18567 0.0447696 0)
(1.21142 0.0545818 0)
(1.1894 0.0662571 0)
(1.1632 0.0778126 0)
(1.13804 0.088611 0)
(1.11252 0.0973788 0)
(1.08667 0.102697 0)
(1.06514 0.103317 0)
(1.05243 0.100688 0)
(1.04989 0.0973221 0)
(1.05499 0.092916 0)
(1.04288 0.0870934 0)
(0.941524 0.0716675 0)
(0.695852 0.046667 0)
(0.396768 0.021927 0)
(0.159663 0.00597995 0)
(0.0202137 0.000219473 0)
(0.171501 0.00136522 0)
(0.821107 0.027205 0)
(1.08241 0.046471 0)
(1.21472 0.0612412 0)
(1.23393 0.0738362 0)
(1.20778 0.0872847 0)
(1.17772 0.100072 0)
(1.14828 0.111253 0)
(1.11832 0.119531 0)
(1.08816 0.123548 0)
(1.06315 0.122463 0)
(1.04816 0.118322 0)
(1.04445 0.113911 0)
(1.04776 0.108636 0)
(1.02444 0.100749 0)
(0.896271 0.0807246 0)
(0.628871 0.0505276 0)
(0.3352 0.0226297 0)
(0.123062 0.00588102 0)
(0.0127356 0.000194958 0)
(0.20296 0.00244345 0)
(0.891719 0.0410116 0)
(1.1394 0.0671783 0)
(1.2506 0.085962 0)
(1.26022 0.101228 0)
(1.22788 0.115901 0)
(1.19263 0.128953 0)
(1.15793 0.139382 0)
(1.12291 0.146051 0)
(1.08816 0.147761 0)
(1.05969 0.144233 0)
(1.04258 0.138186 0)
(1.03777 0.132536 0)
(1.03844 0.126239 0)
(0.999461 0.115454 0)
(0.83959 0.0893601 0)
(0.553083 0.0533325 0)
(0.270839 0.0225761 0)
(0.0873985 0.0055484 0)
(0.00600219 0.000158712 0)
(0.245809 0.00878114 3.81524e-20)
(0.985191 0.0685851 3.3499e-20)
(1.20875 0.1019 -1.18138e-20)
(1.29028 0.122512 0)
(1.28746 0.140367 -3.12171e-34)
(1.24756 0.154431 4.59021e-21)
(1.20634 0.165966 -8.4151e-21)
(1.16588 0.174218 0)
(1.12549 0.178188 1.76273e-34)
(1.08592 0.176788 -1.07232e-20)
(1.05383 0.170354 0)
(1.03453 0.162286 -1.28903e-20)
(1.02899 0.155706 -3.81385e-20)
(1.02572 0.149078 -1.80583e-20)
(0.963448 0.133625 -5.45229e-21)
(0.764807 0.0988229 -3.24329e-21)
(0.463262 0.0552533 0)
(0.202303 0.0221023 2.26675e-21)
(0.0527144 0.00522002 2.67577e-21)
(-2.77168e-05 0.000110156 4.82641e-20)
(0.275837 0.0245053 2.5385e-20)
(1.06239 0.111702 5.50419e-22)
(1.26592 0.151395 3.03372e-21)
(1.32586 0.172206 0)
(1.31141 0.189812 -1.54473e-20)
(1.26451 0.201707 -1.77614e-20)
(1.2174 0.210925 -8.39513e-21)
(1.17114 0.216706 -3.03682e-20)
(1.12521 0.217928 0)
(1.08048 0.213491 4.55014e-20)
(1.04441 0.204287 4.5398e-20)
(1.02277 0.194272 1.35334e-20)
(1.01501 0.18613 4.96853e-20)
(1.00224 0.17747 7.01349e-20)
(0.905918 0.154467 0)
(0.662528 0.108066 9.90933e-20)
(0.357517 0.0563899 1.42018e-19)
(0.131154 0.020835 1.57643e-19)
(0.0179698 0.00368666 -1.8017e-19)
(-0.00608956 -0.000514048 -3.39591e-21)
(0.276877 0.0405725 0)
(1.11124 0.167545 3.87488e-21)
(1.30453 0.212273 0)
(1.35354 0.232498 -1.84585e-20)
(1.33025 0.246959 0)
(1.27748 0.254962 -3.41476e-20)
(1.22488 0.260427 1.69611e-20)
(1.17315 0.262606 -6.04031e-20)
(1.12197 0.260185 -1.59162e-21)
(1.07238 0.252036 2.33724e-20)
(1.03259 0.239569 9.98285e-20)
(1.0088 0.22725 -1.94005e-22)
(0.998606 0.217252 -3.60796e-20)
(0.97642 0.205387 -6.59408e-20)
(0.853311 0.173933 7.81446e-20)
(0.587756 0.115828 -1.38341e-19)
(0.294162 0.0572872 -1.82371e-20)
(0.0929505 0.0192799 0)
(-0.000545808 0.00134177 -1.53839e-23)
(-0.00956928 -0.00135418 0)
(0.270288 0.0544481 3.47224e-20)
(1.13759 0.226661 -1.93672e-20)
(1.32837 0.277621 -1.80483e-20)
(1.37195 0.297946 8.28866e-21)
(1.34257 0.3084 -1.41349e-20)
(1.2854 0.311836 7.09846e-20)
(1.22828 0.312846 3.51066e-20)
(1.17184 0.310748 0)
(1.116 0.304097 -1.15542e-19)
(1.06199 0.291707 0)
(1.01879 0.275556 -5.21218e-20)
(0.992918 0.260581 -6.49385e-20)
(0.980301 0.248353 -3.92215e-20)
(0.949684 0.232531 -4.78342e-20)
(0.810206 0.192482 0)
(0.538289 0.124427 0)
(0.258738 0.0596986 -1.18496e-19)
(0.0714443 0.0179603 2.33768e-20)
(-0.012572 -0.00144089 -1.36891e-20)
(-0.0123848 -0.00241505 -1.6015e-20)
(0.262358 0.0666649 -1.92195e-21)
(1.14906 0.285558 0)
(1.34145 0.343831 3.05617e-20)
(1.38205 0.364745 2.17841e-20)
(1.34843 0.371274 3.36079e-20)
(1.28807 0.370102 0)
(1.22741 0.366528 3.36204e-20)
(1.16711 0.359937 6.6162e-20)
(1.10727 0.348797 5.86854e-20)
(1.04931 0.33188 1.09954e-19)
(1.00298 0.311736 0)
(0.975114 0.293807 -1.39774e-19)
(0.960177 0.278948 -8.4522e-20)
(0.922983 0.258868 -5.00505e-20)
(0.77554 0.21104 3.07193e-19)
(0.507148 0.134451 3.64864e-20)
(0.24025 0.0636364 1.71273e-19)
(0.0602264 0.017106 -8.09104e-19)
(-0.020272 -0.00437424 4.78127e-19)
(-0.0147501 -0.00363232 -5.7635e-19)
(0.254629 0.0776383 1.40334e-20)
(1.15091 0.342344 -9.16448e-23)
(1.34666 0.408969 -1.75601e-21)
(1.38545 0.430995 -1.71442e-20)
(1.3488 0.433837 -2.54707e-20)
(1.28607 0.428229 1.80022e-21)
(1.22261 0.420211 -3.64889e-20)
(1.15914 0.409179 6.78536e-20)
(1.09587 0.39354 -1.26225e-19)
(1.03441 0.372014 0)
(0.985157 0.347721 -6.30521e-20)
(0.955294 0.326635 -1.57615e-21)
(0.938106 0.309012 -9.25663e-20)
(0.896303 0.284723 0)
(0.747136 0.230027 -6.64794e-20)
(0.487733 0.146106 -1.57531e-19)
(0.232232 0.0692334 4.1908e-19)
(0.0569297 0.0173302 -4.12878e-19)
(-0.0235394 -0.00680408 5.85241e-19)
(-0.0162841 -0.00482269 -6.081e-19)
(0.247982 0.0877143 -4.24463e-22)
(1.14671 0.396342 4.60192e-21)
(1.34616 0.472032 3.18664e-21)
(1.38358 0.495491 4.54718e-21)
(1.34474 0.495045 -1.23651e-20)
(1.28021 0.485285 0)
(1.21452 0.47307 -3.27728e-20)
(1.14839 0.457784 -7.07182e-20)
(1.08215 0.437776 -6.52731e-20)
(1.01753 0.411703 0)
(0.96554 0.38325 -6.51078e-20)
(0.933675 0.358944 -8.13352e-20)
(0.914361 0.338471 1.0045e-19)
(0.869511 0.310095 -6.11083e-20)
(0.722572 0.249635 -2.90319e-19)
(0.474728 0.159362 1.71993e-19)
(0.230776 0.0763724 5.09529e-20)
(0.058822 0.0188906 0)
(-0.0230277 -0.00824984 -5.66241e-19)
(-0.0168288 -0.00578993 -2.07758e-20)
(0.242548 0.0972073 5.29151e-21)
(1.13879 0.447364 -7.7392e-21)
(1.34147 0.532554 -3.06087e-21)
(1.37769 0.557519 1.96507e-20)
(1.3372 0.554238 -4.11968e-20)
(1.27132 0.540695 6.0307e-20)
(1.2038 0.524582 7.07136e-20)
(1.13542 0.505299 -1.12902e-19)
(1.06655 0.481138 4.11462e-20)
(0.999039 0.450667 -2.70109e-19)
(0.944452 0.418134 -7.40777e-20)
(0.910616 0.39062 0)
(0.889266 0.367306 1.09152e-19)
(0.842333 0.335129 1.31157e-19)
(0.69965 0.269642 1.56639e-19)
(0.464358 0.173627 -1.87267e-19)
(0.231394 0.0848261 -5.53018e-20)
(0.0634446 0.0219604 6.49997e-20)
(-0.0196946 -0.00844781 0)
(-0.016434 -0.0063921 -4.52196e-20)
(0.23827 0.106286 -7.94726e-20)
(1.12885 0.49552 4.47785e-20)
(1.33385 0.590328 4.96128e-21)
(1.36882 0.616762 8.69005e-21)
(1.32701 0.611028 -1.58393e-20)
(1.26009 0.594071 -4.11438e-21)
(1.19108 0.574407 -7.77957e-20)
(1.12076 0.551437 -4.09881e-20)
(1.04952 0.523382 -1.13676e-19)
(0.979327 0.488729 3.26914e-22)
(0.922248 0.452238 -2.31586e-19)
(0.886453 0.421572 1.97413e-19)
(0.863153 0.395518 -1.2037e-19)
(0.814713 0.359695 1.45003e-19)
(0.677345 0.289358 0)
(0.454137 0.188394 -1.02142e-19)
(0.232297 0.0940059 3.20771e-22)
(0.0690479 0.0261599 -2.84544e-19)
(-0.0148522 -0.00760856 -4.17185e-20)
(-0.0154059 -0.00667961 0)
(0.235034 0.115098 0)
(1.11788 0.54104 5.12849e-20)
(1.32425 0.64579 2.21857e-20)
(1.35778 0.673084 -4.53827e-21)
(1.31486 0.665211 -2.36435e-20)
(1.24713 0.6452 0)
(1.17689 0.622331 -3.3676e-20)
(1.10487 0.596003 -1.03983e-21)
(1.03149 0.564359 2.43926e-19)
(0.95874 0.525772 -3.69559e-20)
(0.899239 0.485469 -1.67555e-19)
(0.861551 0.451737 1.0246e-19)
(0.836431 0.422986 -2.2355e-21)
(0.786736 0.3836 1.54538e-19)
(0.65432 0.308593 9.49032e-20)
(0.44249 0.203112 -2.20742e-19)
(0.231576 0.103368 2.61127e-19)
(0.0739821 0.031053 7.73994e-20)
(-0.00950803 -0.00591886 3.18685e-19)
(-0.0139373 -0.00665106 -8.51271e-19)
(0.232767 0.123806 -2.59901e-20)
(1.10661 0.584105 3.54264e-20)
(1.31325 0.698251 -2.41393e-20)
(1.34522 0.726468 -3.25499e-21)
(1.30132 0.716694 0)
(1.23296 0.693957 -2.40095e-20)
(1.16169 0.668229 1.15198e-19)
(1.08817 0.63888 8.93623e-20)
(1.01279 0.603968 0)
(0.937581 0.561723 -5.35463e-19)
(0.8757 0.517766 4.54613e-19)
(0.836162 0.481054 0)
(0.809299 0.449594 1.41331e-19)
(0.758466 0.406586 -2.21478e-21)
(0.630334 0.326883 -3.05409e-19)
(0.429023 0.216891 1.1917e-19)
(0.22842 0.112377 0)
(0.0772105 0.0360743 4.18736e-19)
(-0.00471915 -0.00384154 0)
(-0.0123541 -0.00641794 -4.04024e-19)
(0.231334 0.132474 3.10596e-20)
(1.09547 0.624982 4.57546e-20)
(1.30148 0.747787 -2.39622e-20)
(1.33161 0.776933 0)
(1.28687 0.765459 -1.48681e-20)
(1.21801 0.740308 0)
(1.14588 0.71204 -1.10925e-19)
(1.071 0.680004 -4.02608e-20)
(0.993741 0.642161 4.26032e-20)
(0.916137 0.596551 -2.65194e-19)
(0.851861 0.549119 4.68212e-20)
(0.810488 0.509448 0)
(0.781958 0.475205 -3.02378e-19)
(0.729904 0.428412 2.11515e-21)
(0.604944 0.34386 0)
(0.413521 0.229221 9.21493e-22)
(0.222584 0.120338 3.83906e-19)
(0.0780292 0.0405457 -3.62399e-19)
(-0.00123395 -0.00187985 1.069e-19)
(-0.0109179 -0.00610028 0)
(0.230411 0.141015 0)
(1.08474 0.66378 5.49579e-20)
(1.28916 0.794551 3.48603e-20)
(1.31738 0.824531 -2.55917e-21)
(1.27188 0.811536 -7.12992e-22)
(1.20263 0.784253 -5.41309e-20)
(1.12976 0.75375 4.2478e-20)
(1.05366 0.719351 -4.87422e-20)
(0.974627 0.678908 1.91861e-19)
(0.894632 0.630251 -4.24853e-19)
(0.827899 0.579527 -4.22401e-21)
(0.784664 0.536872 -1.31828e-19)
(0.754505 0.499684 4.9177e-19)
(0.701203 0.44882 -2.56257e-21)
(0.578786 0.359062 -2.38169e-19)
(0.395966 0.239738 -4.2246e-19)
(0.214356 0.126715 0)
(0.0765293 0.0438915 0)
(0.000729497 -0.000442699 1.15562e-19)
(-0.00977182 -0.0058271 -6.77855e-20)
(0.230212 0.149548 4.3362e-20)
(1.07464 0.700396 -1.24604e-19)
(1.27653 0.838696 -3.73639e-20)
(1.30287 0.869323 0)
(1.25665 0.854985 -1.50103e-21)
(1.18711 0.825823 -4.45637e-20)
(1.11362 0.793374 9.93467e-20)
(1.0364 0.756919 1.88749e-19)
(0.955669 0.714211 2.48752e-19)
(0.873279 0.662842 -3.47003e-19)
(0.803982 0.609018 -3.92883e-19)
(0.758787 0.563334 3.53057e-19)
(0.726978 0.52295 0)
(0.672319 0.467519 -1.08599e-19)
(0.551897 0.372121 -2.57627e-19)
(0.37682 0.24789 -3.04235e-19)
(0.203899 0.131206 -3.58816e-19)
(0.0731148 0.0457974 1.05965e-19)
(0.00139294 0.000303497 -6.22779e-20)
(-0.00891886 -0.00564358 3.1488e-22)
(0.230173 0.157998 0)
(1.06527 0.73514 0)
(1.26387 0.880311 2.46311e-21)
(1.2883 0.911426 0)
(1.24143 0.895897 -1.12483e-20)
(1.17167 0.865082 2.60129e-20)
(1.09767 0.830941 0)
(1.01943 0.792722 2.18297e-20)
(0.937071 0.748079 4.14558e-19)
(0.852274 0.694353 -7.99386e-19)
(0.78025 0.637655 0)
(0.732905 0.588894 -2.27886e-19)
(0.699307 0.544943 -3.00715e-21)
(0.643193 0.484249 -2.23756e-21)
(0.524475 0.382652 2.76277e-19)
(0.356221 0.253384 7.87473e-25)
(0.191792 0.133421 -7.73733e-19)
(0.0681053 0.0462596 2.28109e-19)
(0.00099198 0.000363868 6.74404e-20)
(-0.0083211 -0.00555407 0)
(0.23026 0.166319 -1.72843e-19)
(1.0564 0.768236 -8.38078e-20)
(1.25129 0.919485 -1.09452e-19)
(1.27384 0.95098 1.07629e-19)
(1.22639 0.934351 -3.50378e-20)
(1.15649 0.902094 0)
(1.08206 0.866499 5.79153e-20)
(1.00291 0.82679 -4.93425e-20)
(0.918997 0.780532 3.93004e-21)
(0.831784 0.724822 5.92645e-20)
(0.756834 0.66552 5.10277e-19)
(0.707042 0.613666 -7.99357e-20)
(0.671402 0.565665 -3.04366e-19)
(0.613692 0.498796 -1.26847e-19)
(0.496545 0.3903 1.49907e-19)
(0.334732 0.255917 1.5674e-22)
(0.17861 0.133266 2.08539e-19)
(0.06206 0.045282 -4.91253e-19)
(-5.63617e-05 -0.000115971 5.80703e-19)
(-0.00787556 -0.00551973 8.46492e-20)
(0.23033 0.174395 6.55473e-20)
(1.04803 0.799761 -4.7144e-20)
(1.23892 0.956322 6.25595e-21)
(1.25964 0.98812 6.90039e-20)
(1.21168 0.970458 1.42126e-20)
(1.14171 0.936936 -4.1565e-20)
(1.06694 0.900101 1.52216e-20)
(0.986967 0.859145 -2.04902e-19)
(0.901584 0.811577 -4.56417e-19)
(0.811952 0.754265 -4.76976e-19)
(0.733877 0.692709 0)
(0.681225 0.637791 -3.52664e-19)
(0.643134 0.585191 4.39716e-19)
(0.583566 0.510982 0)
(0.468138 0.394626 -3.21496e-19)
(0.313156 0.255024 1.90834e-19)
(0.165422 0.130554 -2.24404e-19)
(0.0560828 0.0431007 -2.64449e-19)
(-0.0012867 -0.00091712 -4.67832e-19)
(-0.00756822 -0.00553225 -3.64827e-19)
(0.230745 0.182349 -7.40851e-20)
(1.04001 0.829715 5.04452e-20)
(1.22683 0.990898 1.14868e-19)
(1.24577 1.02293 1.00888e-19)
(1.1974 1.00431 -2.59819e-20)
(1.12741 0.969697 -1.70812e-20)
(1.0524 0.931801 5.22224e-20)
(0.971696 0.889831 -2.09068e-19)
(0.884928 0.841237 -2.70505e-19)
(0.79291 0.782705 4.99619e-19)
(0.711508 0.719309 1.12426e-18)
(0.655512 0.661436 0)
(0.614369 0.603689 0)
(0.552444 0.520764 -1.46185e-19)
(0.438959 0.395122 0)
(0.291863 0.249718 4.10124e-19)
(0.153915 0.124397 4.82442e-19)
(0.0522575 0.0395532 0)
(-0.00148587 -0.00179936 0)
(-0.00737061 -0.00558317 3.92218e-19)
(0.230869 0.189886 8.41951e-20)
(1.03236 0.858095 6.79342e-20)
(1.21507 1.02334 8.34426e-20)
(1.2323 1.05556 -9.71727e-20)
(1.18363 1.03603 -3.48088e-20)
(1.11368 1.00045 9.62503e-21)
(1.03851 0.961659 -7.07155e-20)
(0.95717 0.918878 -7.29045e-22)
(0.869117 0.869523 -5.12191e-21)
(0.774757 0.810146 -4.32839e-21)
(0.689872 0.745384 5.79796e-19)
(0.630007 0.684771 0)
(0.585017 0.62143 4.4724e-19)
(0.519868 0.528293 3.12693e-19)
(0.40823 0.391483 7.51491e-19)
(0.270467 0.238487 2.21235e-19)
(0.145779 0.111765 -2.596e-19)
(0.0555061 0.0310136 -1.52411e-19)
(0.0060329 -0.00405562 0)
(-0.00505037 -0.00490689 4.21621e-19)
(0.231335 0.197448 -1.89771e-19)
(1.02505 0.884994 0)
(1.20364 1.0537 9.81918e-20)
(1.21928 1.08605 -8.23848e-20)
(1.17041 1.0657 4.80827e-20)
(1.10056 1.02929 3.86178e-21)
(1.02531 0.989734 1.30513e-19)
(0.943431 0.94632 -1.74206e-20)
(0.854202 0.896443 0)
(0.757582 0.836567 -5.5138e-19)
(0.669114 0.770957 -1.26202e-18)
(0.604859 0.707969 5.22091e-20)
(0.555093 0.638755 6.19365e-19)
(0.485467 0.534004 0)
(0.374643 0.384042 5.08192e-19)
(0.246567 0.219909 0)
(0.138767 0.0858507 0)
(0.0710145 0.00204418 -1.64826e-19)
(0.0439675 -0.0177769 0)
(0.0262588 0.00960113 1.13064e-19)
(0.231463 0.204438 -2.12033e-19)
(1.01802 0.910764 0)
(1.19254 1.0822 1.63546e-19)
(1.20667 1.11466 0)
(1.15771 1.0936 -2.94621e-20)
(1.08798 1.0565 0)
(1.01275 1.01634 5.1865e-21)
(0.930382 0.972494 2.86706e-20)
(0.840057 0.922355 3.40564e-20)
(0.741213 0.862349 -6.04484e-19)
(0.649036 0.79646 3.77221e-20)
(0.579815 0.731691 4.22046e-19)
(0.524115 0.656513 6.05195e-19)
(0.448265 0.538523 8.17253e-20)
(0.336053 0.374116 3.99325e-19)
(0.214713 0.194941 0)
(0.120134 0.0416476 5.47381e-19)
(0.065984 -0.0396301 -3.19314e-19)
(0.0410969 0.0398271 3.71554e-19)
(-0.0690916 0.438839 -4.37665e-19)
(0.2316 0.211249 1.75607e-19)
(1.01102 0.935169 2.70464e-19)
(1.18167 1.10914 0)
(1.19432 1.14182 4.87921e-21)
(1.14533 1.1203 8.75815e-20)
(1.07568 1.08276 -4.46935e-20)
(1.0005 1.04226 4.11203e-20)
(0.917603 0.998327 0)
(0.82614 0.948333 2.22618e-19)
(0.724969 0.888784 -3.1215e-20)
(0.628706 0.823362 0)
(0.553571 0.757606 0)
(0.490004 0.676129 5.43728e-19)
(0.405739 0.542329 -2.53278e-19)
(0.289073 0.363429 -4.06042e-19)
(0.169592 0.166581 0)
(0.0707937 0.0544545 2.76538e-19)
(0.00258903 0.436088 -3.18668e-19)
(0.0323051 1.89623 -1.73532e-19)
(0.0614192 2.81465 -2.22627e-19)
(0.231592 0.217263 -1.31825e-19)
(1.00426 0.958403 -3.47055e-19)
(1.17105 1.13451 9.71063e-20)
(1.18224 1.16741 8.02642e-20)
(1.13329 1.14556 0)
(1.06374 1.10778 -4.18777e-20)
(0.988762 1.06719 4.96648e-20)
(0.905294 1.02339 -1.35677e-20)
(0.812729 0.97387 3.34647e-20)
(0.709241 0.91527 5.75587e-19)
(0.608737 0.851048 6.39811e-19)
(0.527048 0.785381 4.75057e-19)
(0.453551 0.697851 5.48734e-19)
(0.359337 0.544554 -5.97853e-19)
(0.238799 0.355739 -6.15307e-19)
(0.115224 0.212944 0)
(0.041016 0.835081 0)
(0.0983673 2.55476 1.52123e-19)
(0.0997306 3.20419 0)
(0.103163 3.38912 3.60376e-19)
(0.234119 0.222848 0)
(0.998323 0.98067 0)
(1.16044 1.15816 0)
(1.17021 1.19127 2.42467e-20)
(1.12125 1.16914 8.00191e-20)
(1.05194 1.13143 -4.3296e-20)
(0.977434 1.09103 2.95027e-20)
(0.893412 1.04758 -1.30471e-20)
(0.799792 0.998831 2.74946e-19)
(0.694067 0.941677 -8.70595e-21)
(0.589295 0.879441 1.26453e-18)
(0.50055 0.81489 -5.50819e-20)
(0.414933 0.722944 6.65068e-20)
(0.311573 0.54292 8.68089e-20)
(0.175271 0.367088 -5.93964e-21)
(0.0951962 0.961905 1.8431e-21)
(0.136531 2.72723 -8.11227e-19)
(0.144324 3.29345 -3.02491e-19)
(0.13399 3.42541 1.54686e-19)
(0.122111 3.44757 -1.71646e-19)
(0.153029 0.180357 7.80258e-20)
(0.986987 1.00471 0)
(1.14946 1.18029 -1.94068e-19)
(1.15875 1.2139 -2.17561e-19)
(1.11009 1.19187 1.88875e-19)
(1.04122 1.15442 5.04746e-20)
(0.966449 1.11386 -2.69791e-20)
(0.882072 1.07104 1.3492e-19)
(0.787504 1.02339 -2.23324e-19)
(0.679749 0.96819 0)
(0.570818 0.908772 6.20815e-19)
(0.474644 0.84604 -3.8855e-19)
(0.37634 0.754308 0)
(0.256613 0.537897 8.13788e-20)
(0.138233 0.721754 1.93859e-19)
(0.152323 2.50236 -2.23705e-19)
(0.208339 3.32176 2.49943e-19)
(0.189144 3.437 1.33226e-19)
(0.157655 3.45881 1.48429e-19)
(0.136366 3.4693 2.33184e-19)
(0.276763 0.260399 -1.42547e-19)
(0.971328 1.01413 0)
(1.13106 1.20547 2.11416e-19)
(1.14347 1.24427 2.37716e-19)
(1.09253 1.22485 -2.09328e-19)
(1.02288 1.18776 -7.33174e-20)
(0.94718 1.14885 7.65444e-21)
(0.86227 1.10725 1.07859e-20)
(0.766335 1.06179 2.09283e-19)
(0.655711 1.01054 4.92727e-19)
(0.541234 0.957641 3.47132e-20)
(0.433451 0.899491 3.45745e-19)
(0.304678 0.788005 6.26347e-20)
(0.209947 0.901303 -8.00856e-20)
(0.227012 2.34997 -1.80257e-19)
(0.28871 3.32283 1.6949e-19)
(0.271569 3.46445 -1.8532e-19)
(0.236427 3.48691 -1.06208e-19)
(0.199669 3.51501 -8.60461e-20)
(0.148327 3.50967 -1.01077e-20)
(0.264536 0.257211 0)
(0.968733 1.03655 6.1155e-20)
(1.12254 1.22883 -4.36161e-20)
(1.13267 1.26787 -2.8365e-20)
(1.08156 1.24802 -1.44808e-19)
(1.01186 1.21115 7.60985e-20)
(0.935825 1.17237 2.99355e-21)
(0.850692 1.13157 9.38762e-21)
(0.754187 1.08761 -2.15836e-19)
(0.642174 1.03927 -1.35292e-20)
(0.52469 0.991341 -1.11955e-18)
(0.411306 0.937484 4.95309e-20)
(0.284758 0.852595 -5.89687e-20)
(0.25327 1.4706 -7.3721e-20)
(0.329351 3.09903 1.82011e-20)
(0.348176 3.4611 5.99358e-23)
(0.308049 3.51779 2.58218e-19)
(0.27083 3.54539 1.21885e-19)
(0.222315 3.56936 -2.25009e-20)
(0.16345 3.56586 -4.40422e-20)
(0.248383 0.255708 1.54932e-19)
(0.964547 1.06164 4.17294e-19)
(1.11361 1.25429 -1.2499e-19)
(1.1213 1.29288 -1.07029e-19)
(1.06995 1.27252 0)
(1.0004 1.23571 1.36908e-19)
(0.924338 1.19717 1.9219e-20)
(0.839266 1.15717 7.87161e-21)
(0.742513 1.11481 -2.42969e-20)
(0.62965 1.06966 -4.40038e-19)
(0.510017 1.0271 -5.14107e-19)
(0.392676 0.976716 -4.02559e-19)
(0.285907 0.982312 -4.46385e-19)
(0.32417 2.19869 4.60656e-19)
(0.417537 3.37028 3.78311e-19)
(0.393215 3.51808 0)
(0.347994 3.56421 0)
(0.309981 3.60594 -1.64449e-20)
(0.259307 3.66657 0)
(0.176314 3.64311 -7.53598e-21)
(0.237757 0.257585 -2.31983e-19)
(0.958444 1.08782 -3.54259e-19)
(1.10324 1.28092 0)
(1.10854 1.31859 5.85299e-21)
(1.05706 1.29763 -1.56541e-19)
(0.987792 1.26075 2.21658e-19)
(0.912051 1.2225 2.0979e-20)