/*--------------------------------*- C++ -*----------------------------------*\
| =========                 |                                                 |
| \\      /  F ield         | OpenFOAM: The Open Source CFD Toolbox           |
|  \\    /   O peration     | Version:  2112                                  |
|   \\  /    A nd           | Website:  www.openfoam.com                      |
|    \\/     M anipulation  |                                                 |
\*---------------------------------------------------------------------------*/
FoamFile
{
    version     2.0;
    format      ascii;
    arch        "LSB;label=32;scalar=64";
    class       volScalarField;
    location    "14.5";
    object      p;
}
// * * * * * * * * * * * * * * * * * * * * * * * * * * * * * * * * * * * * * //

dimensions      [0 2 -2 0 0 0 0];

internalField   nonuniform List<scalar> 
8800
(
0.385671
0.33791
0.299265
0.270313
0.249503
0.234741
0.224217
0.216788
0.211973
0.209828
0.210883
0.214806
0.221188
0.230268
0.242852
0.260442
0.285116
0.318979
0.361449
0.420144
0.216851
0.224531
0.232113
0.235451
0.233996
0.228991
0.222582
0.216577
0.2119
0.209023
0.208588
0.210823
0.215019
0.220696
0.227243
0.23334
0.236849
0.23604
0.230496
0.221722
0.195133
0.201325
0.205537
0.208601
0.210772
0.21149
0.210497
0.208482
0.206478
0.20545
0.206186
0.20827
0.210753
0.212631
0.21298
0.211561
0.209015
0.205455
0.200818
0.19704
0.189206
0.1919
0.194795
0.197368
0.19917
0.200479
0.20134
0.201533
0.20124
0.201073
0.201561
0.202397
0.202895
0.202632
0.201716
0.20034
0.198256
0.195447
0.192897
0.19139
0.183674
0.185131
0.187162
0.1895
0.19156
0.193123
0.194263
0.195147
0.195793
0.196259
0.196586
0.196656
0.196346
0.195671
0.194578
0.19292
0.190805
0.188572
0.187053
0.186247
0.178696
0.17963
0.181201
0.183196
0.185266
0.187207
0.188804
0.189999
0.190901
0.191567
0.191938
0.19189
0.191396
0.190408
0.188891
0.187056
0.185137
0.183354
0.182281
0.181782
0.174136
0.174741
0.176146
0.178035
0.17992
0.181731
0.183482
0.185055
0.186304
0.187209
0.187616
0.187437
0.18669
0.185493
0.184054
0.182449
0.180683
0.179043
0.178177
0.177896
0.170951
0.171285
0.172398
0.174025
0.175669
0.177236
0.178715
0.180113
0.181411
0.182472
0.182999
0.182913
0.182391
0.181556
0.180454
0.179129
0.177657
0.176328
0.175717
0.175596
0.169113
0.169303
0.169989
0.171093
0.172338
0.173717
0.175164
0.176619
0.177992
0.179179
0.179883
0.179972
0.179583
0.178854
0.177961
0.177036
0.176085
0.175304
0.17496
0.174895
0.167154
0.167274
0.167627
0.168192
0.169044
0.169991
0.17107
0.172344
0.173724
0.175061
0.175994
0.176366
0.176338
0.176135
0.175695
0.175234
0.174895
0.174597
0.174438
0.174388
0.164353
0.164439
0.164711
0.165188
0.165719
0.166564
0.167693
0.169005
0.170471
0.171999
0.173221
0.173899
0.174139
0.174083
0.17398
0.173883
0.173715
0.17356
0.17347
0.173431
0.160882
0.160933
0.161174
0.161641
0.162256
0.162967
0.164039
0.16538
0.166984
0.168781
0.17036
0.1714
0.171987
0.172299
0.172459
0.172492
0.172416
0.172324
0.172287
0.172265
0.157036
0.15706
0.157276
0.157738
0.158364
0.159292
0.160392
0.16183
0.163638
0.165772
0.1678
0.169278
0.170233
0.170798
0.171196
0.171348
0.17135
0.171321
0.171327
0.171314
0.152899
0.152923
0.153125
0.153587
0.154282
0.155229
0.156472
0.158134
0.160261
0.16287
0.16545
0.167428
0.168801
0.169715
0.170244
0.170561
0.170693
0.17076
0.1708
0.170789
0.148309
0.148336
0.148542
0.149009
0.149742
0.150787
0.152234
0.154198
0.156773
0.159998
0.163267
0.165838
0.167669
0.16891
0.169721
0.170222
0.17051
0.170672
0.17074
0.170727
0.143068
0.143095
0.143341
0.143836
0.144665
0.145879
0.147603
0.149984
0.153156
0.157173
0.161289
0.16456
0.166923
0.168577
0.169683
0.170395
0.170835
0.171085
0.171181
0.171165
0.136976
0.137007
0.137297
0.137907
0.138883
0.140347
0.142451
0.145391
0.149338
0.154363
0.159533
0.163687
0.166715
0.168819
0.170247
0.171185
0.171777
0.172113
0.172238
0.172218
0.129813
0.12985
0.130209
0.130969
0.132194
0.133996
0.136628
0.140313
0.145261
0.151568
0.158067
0.163284
0.167077
0.16973
0.17154
0.172737
0.173496
0.173927
0.174081
0.174054
0.121297
0.121347
0.12181
0.122764
0.124316
0.126625
0.129961
0.134613
0.140852
0.148778
0.156912
0.16342
0.168142
0.171458
0.173724
0.175227
0.176182
0.17672
0.176914
0.176879
0.11106
0.111131
0.111729
0.112961
0.114963
0.117941
0.122202
0.128134
0.136045
0.146006
0.156152
0.164226
0.170075
0.174184
0.176997
0.178869
0.180056
0.180722
0.18096
0.180915
0.0985489
0.0986475
0.0994336
0.10106
0.103694
0.107565
0.1131
0.12074
0.130793
0.143296
0.155893
0.165856
0.173059
0.17812
0.181593
0.183915
0.185393
0.186214
0.186505
0.186448
0.0829721
0.0831053
0.0841694
0.0863837
0.0899224
0.0950782
0.102368
0.112262
0.125064
0.140715
0.156269
0.168481
0.177296
0.183501
0.187774
0.190645
0.192482
0.193489
0.193844
0.193773
0.0631646
0.0633551
0.0648559
0.0679713
0.0728573
0.0798753
0.0896064
0.102528
0.118857
0.138369
0.157427
0.172274
0.182989
0.190566
0.195818
0.199377
0.201674
0.202938
0.203365
0.203272
0.0373423
0.0376475
0.0398841
0.0444648
0.051475
0.0612878
0.0745069
0.0914983
0.112281
0.13642
0.159538
0.1774
0.190315
0.199524
0.205987
0.210428
0.213329
0.214937
0.215472
0.215346
0.00233206
0.00288975
0.00663592
0.0139972
0.0246203
0.0388119
0.0570231
0.0793626
0.105607
0.135125
0.162793
0.183999
0.199389
0.210503
0.218456
0.224054
0.227796
0.229881
0.230552
0.23038
-0.0479466
-0.04619
-0.0385361
-0.0254866
-0.00855268
0.012388
0.0374764
0.0665719
0.0992568
0.134779
0.167345
0.192117
0.210193
0.223456
0.233203
0.240311
0.245274
0.248165
0.249084
0.248841
-0.123377
-0.113788
-0.0962943
-0.0730074
-0.0465888
-0.0166817
0.0168128
0.0537026
0.0935519
0.135649
0.17359
0.202378
0.223616
0.239557
0.251702
0.261078
0.268123
0.272637
0.27432
0.274384
-0.203825
-0.182419
-0.154448
-0.120864
-0.0847578
-0.0457917
-0.00385252
0.0409745
0.0883735
0.137774
0.182123
0.216015
0.241426
0.260977
0.276382
0.288748
0.298616
0.306339
0.309678
0.309903
-0.266984
-0.243254
-0.207064
-0.165285
-0.120689
-0.0733608
-0.0234022
0.0290489
0.0836846
0.139972
0.190166
0.228471
0.257287
0.279596
0.297281
0.311528
0.322883
0.331688
0.334711
0.335211
-0.318143
-0.292285
-0.25139
-0.203724
-0.152604
-0.0984878
-0.0416245
0.0176572
0.0789014
0.14147
0.196827
0.238763
0.270066
0.294072
0.31289
0.327926
0.339822
0.348526
0.351925
0.352433
-0.359627
-0.333094
-0.288785
-0.236739
-0.180559
-0.120954
-0.0582992
0.00689112
0.0739938
0.142182
0.20202
0.246875
0.279963
0.305033
0.324446
0.339749
0.351719
0.360338
0.363932
0.36444
-0.394876
-0.367968
-0.321256
-0.265661
-0.205383
-0.141222
-0.0736567
-0.00330702
0.0690195
0.142265
0.206171
0.253637
0.288247
0.314126
0.333875
0.349199
0.361066
0.369496
0.373254
0.373747
-0.425815
-0.398773
-0.350218
-0.291767
-0.228037
-0.159942
-0.0880669
-0.0131222
0.063971
0.141956
0.209684
0.259544
0.295496
0.322044
0.342055
0.3574
0.369195
0.377445
0.381223
0.38172
-0.453915
-0.426748
-0.3767
-0.315825
-0.249146
-0.177646
-0.101957
-0.0228537
0.058636
0.141052
0.212434
0.264691
0.30204
0.329335
0.349684
0.365123
0.376857
0.384936
0.388705
0.389231
-0.480002
-0.452718
-0.401415
-0.338457
-0.269242
-0.194762
-0.115678
-0.0328181
0.0527332
0.139444
0.214568
0.269366
0.308255
0.336415
0.357195
0.372797
0.384537
0.392518
0.396185
0.396782
-0.504745
-0.477281
-0.424836
-0.360076
-0.288622
-0.211516
-0.129419
-0.0431388
0.046257
0.137166
0.216107
0.273632
0.314277
0.343484
0.364834
0.3807
0.392506
0.400417
0.403965
0.404574
-0.528407
-0.500699
-0.44726
-0.380989
-0.307538
-0.228105
-0.143293
-0.0538657
0.03912
0.134093
0.216953
0.277473
0.320163
0.350662
0.372762
0.389017
0.40097
0.408845
0.412249
0.412814
-0.551347
-0.523287
-0.469018
-0.401346
-0.326132
-0.244632
-0.157389
-0.0651303
0.0311857
0.130118
0.217012
0.280819
0.325876
0.357961
0.381033
0.397826
0.410016
0.417914
0.421165
0.421629
-0.573581
-0.54521
-0.490248
-0.421226
-0.34447
-0.261162
-0.171776
-0.0769645
0.0224312
0.125162
0.21616
0.283537
0.331321
0.365323
0.38964
0.407169
0.419714
0.427664
0.430795
0.431096
-0.595171
-0.566402
-0.510868
-0.44068
-0.362589
-0.277698
-0.186425
-0.0893421
0.012847
0.119157
0.214252
0.285456
0.336367
0.372684
0.398557
0.417036
0.430064
0.438104
0.441119
0.441237
-0.616182
-0.587119
-0.53088
-0.459709
-0.380464
-0.294189
-0.201286
-0.10223
0.00244467
0.112057
0.211159
0.286355
0.340801
0.379898
0.407702
0.427372
0.441006
0.449139
0.452015
0.45196
-0.636676
-0.607194
-0.550326
-0.478287
-0.398039
-0.310595
-0.216305
-0.115564
-0.00872787
0.103848
0.206766
0.286017
0.344304
0.386695
0.416937
0.438124
0.452466
0.460655
0.463275
0.463071
-0.656484
-0.626607
-0.569168
-0.496382
-0.415273
-0.326842
-0.231404
-0.12925
-0.0205899
0.0945747
0.200983
0.284232
0.346565
0.392765
0.426111
0.449284
0.464425
0.472502
0.474755
0.474383
-0.675577
-0.645346
-0.58738
-0.513934
-0.432103
-0.34286
-0.246481
-0.143195
-0.0330412
0.0842876
0.193784
0.280803
0.34725
0.39768
0.43495
0.460943
0.477084
0.484578
0.486082
0.485541
-0.694006
-0.663348
-0.604931
-0.530909
-0.448465
-0.358566
-0.261447
-0.157283
-0.0459684
0.0730912
0.185171
0.275606
0.345994
0.400838
0.44289
0.473118
0.491175
0.497369
0.496912
0.496128
-0.711625
-0.680616
-0.621773
-0.547247
-0.464307
-0.373887
-0.276207
-0.1714
-0.0592357
0.0611208
0.175213
0.268561
0.342506
0.401496
0.448891
0.485248
0.507838
0.513554
0.508626
0.506228
-0.728528
-0.697153
-0.637932
-0.562976
-0.479663
-0.388869
-0.29082
-0.185603
-0.0729073
0.0483121
0.163815
0.259441
0.336505
0.398866
0.451269
0.495357
0.526581
0.538612
0.530897
0.508524
-0.744667
-0.712968
-0.653525
-0.578267
-0.494806
-0.403819
-0.305675
-0.200358
-0.0875188
0.0340031
0.150255
0.247355
0.327105
0.391763
0.446775
0.497787
0.536798
0.549586
0.534839
0.508285
-0.759911
-0.728255
-0.66839
-0.59287
-0.509464
-0.418411
-0.320552
-0.215338
-0.102736
0.0185304
0.134773
0.232215
0.313921
0.379883
0.431296
0.481774
0.516035
0.517641
0.449103
0.405346
-0.773681
-0.743876
-0.682149
-0.606234
-0.52298
-0.432209
-0.335177
-0.230331
-0.118342
0.00206518
0.117419
0.214016
0.296318
0.36407
0.406202
0.435895
0.455415
0.413886
0.337475
0.287294
-0.82612
-0.756653
-0.694574
-0.619854
-0.536714
-0.446519
-0.349623
-0.245578
-0.134637
-0.0157275
0.0977953
0.19248
0.272302
0.345491
0.359314
0.365563
0.338011
0.271598
0.184807
0.136315
-0.784904
-0.770719
-0.712027
-0.639161
-0.556299
-0.466787
-0.371251
-0.26855
-0.159595
-0.0436548
0.0655369
0.155578
0.22754
0.288831
0.296135
0.175554
0.0586462
-0.0216198
-0.105898
-0.0604187
-0.812376
-0.785231
-0.726954
-0.653817
-0.571648
-0.482677
-0.387281
-0.285666
-0.178384
-0.0651449
0.0400363
0.12481
0.18946
0.222052
0.168385
0.000595242
-0.153703
-0.26239
-0.380923
-0.308282
-0.832985
-0.802355
-0.743892
-0.670372
-0.588495
-0.499889
-0.404971
-0.304612
-0.199274
-0.0892153
0.0112922
0.0895742
0.143955
0.148775
0.0281306
-0.194597
-0.387494
-0.535591
-0.707769
-0.640954
-0.852477
-0.820571
-0.761166
-0.687113
-0.605292
-0.517049
-0.42297
-0.323974
-0.220754
-0.114236
-0.0191633
0.0521178
0.0931374
0.0588628
-0.133913
-0.394032
-0.643673
-0.868444
-1.12091
-1.10421
-0.87068
-0.838859
-0.778869
-0.704369
-0.622605
-0.534791
-0.441643
-0.344095
-0.243214
-0.140554
-0.051399
0.0123742
0.0365998
-0.042001
-0.290423
-0.578564
-0.879503
-1.15173
-1.48494
-1.86092
-0.888719
-0.857219
-0.797199
-0.722453
-0.640765
-0.553353
-0.461064
-0.364974
-0.266488
-0.167806
-0.0847109
-0.0289466
-0.0214604
-0.150261
-0.429927
-0.72404
-1.02763
-1.28453
-1.39298
-1.56224
-0.907147
-0.876055
-0.816254
-0.741593
-0.660091
-0.573174
-0.481832
-0.387354
-0.291514
-0.197231
-0.120767
-0.0740839
-0.0884401
-0.276663
-0.552125
-0.830725
-1.0809
-1.23878
-1.26915
-1.29987
-0.926315
-0.895599
-0.836138
-0.761753
-0.680582
-0.594311
-0.504121
-0.411504
-0.318671
-0.229387
-0.160172
-0.12359
-0.168771
-0.397561
-0.660764
-0.914797
-1.12163
-1.20564
-1.22583
-1.22879
-0.946362
-0.915936
-0.856841
-0.782791
-0.702079
-0.616632
-0.527789
-0.437289
-0.347839
-0.264129
-0.20262
-0.178006
-0.251492
-0.513566
-0.763893
-0.991369
-1.17157
-1.211
-1.2006
-1.19683
-0.96712
-0.936997
-0.878168
-0.804588
-0.724453
-0.639967
-0.552647
-0.464528
-0.378729
-0.301078
-0.247839
-0.237196
-0.338961
-0.62611
-0.865865
-1.04625
-1.14714
-1.17406
-1.17421
-1.17247
-0.988303
-0.958482
-0.900007
-0.826911
-0.74745
-0.664063
-0.578444
-0.492928
-0.410995
-0.339767
-0.295686
-0.296621
-0.441608
-0.733501
-0.979049
-1.06364
-1.08566
-1.13926
-1.15854
-1.16324
-1.00928
-0.979907
-0.921951
-0.849437
-0.770687
-0.688544
-0.604786
-0.522005
-0.444142
-0.37939
-0.345289
-0.355672
-0.559289
-0.841941
-1.13514
-1.21161
-1.17553
-1.20103
-1.20604
-1.20749
-1.0295
-1.00064
-0.943724
-0.871616
-0.793718
-0.712872
-0.63111
-0.551115
-0.477386
-0.418811
-0.395178
-0.420509
-0.679319
-0.975685
-1.32418
-1.70214
-1.48371
-1.34372
-1.29537
-1.28583
-1.04835
-1.02024
-0.964087
-0.892754
-0.815752
-0.736411
-0.656608
-0.579426
-0.509648
-0.456603
-0.442991
-0.488259
-0.791017
-1.09236
-1.21068
-1.23322
-1.34032
-1.46517
-1.48768
-1.46187
-1.06471
-1.03765
-0.982518
-0.911904
-0.835979
-0.758094
-0.680455
-0.605956
-0.539533
-0.491368
-0.486405
-0.544385
-0.894107
-1.15508
-1.00367
-0.795022
-1.16865
-1.6621
-1.79851
-1.78165
-1.07746
-1.05178
-0.997892
-0.928004
-0.853141
-0.776901
-0.701432
-0.629551
-0.56562
-0.520491
-0.515413
-0.579729
-1.04297
-1.64776
-2.26674
-2.67466
-2.91228
-2.60854
-2.22463
-2.13526
-1.08519
-1.06122
-1.00884
-0.939755
-0.866008
-0.791475
-0.718318
-0.648934
-0.586402
-0.539937
-0.531239
-0.609423
-1.18856
-2.13129
-3.36565
-4.09451
-4.34557
-4.06867
-3.5421
-3.22312
-1.0866
-1.0646
-1.01371
-0.945515
-0.873018
-0.800518
-0.730089
-0.663113
-0.600936
-0.548748
-0.526178
-0.569779
-1.07186
-1.89466
-2.97619
-3.71285
-3.75387
-3.33601
-2.87647
-2.60382
-1.07918
-1.0595
-1.01053
-0.943426
-0.872573
-0.802673
-0.735479
-0.671707
-0.609755
-0.545688
-0.490402
-0.469842
-0.581763
-0.802064
-0.865322
-0.797573
-0.508235
-0.132049
0.138707
0.254665
-1.06075
-1.0431
-0.996629
-0.931472
-0.863053
-0.796597
-0.734188
-0.675843
-0.6171
-0.541118
-0.441272
-0.323289
-0.120141
0.295827
0.819628
1.4152
1.91503
2.22682
2.37021
2.40141
-1.02928
-1.01389
-0.970131
-0.908006
-0.843211
-0.781936
-0.726994
-0.679539
-0.631964
-0.553703
-0.413832
-0.20617
0.0809089
0.587681
1.27871
1.9015
2.35265
2.61294
2.72077
2.74389
-0.982385
-0.96915
-0.929183
-0.871951
-0.812743
-0.758903
-0.714884
-0.685277
-0.671436
-0.632501
-0.494176
-0.215272
0.074918
0.514858
1.09725
1.60209
1.95688
2.16348
2.25568
2.2809
-0.918534
-0.906774
-0.873059
-0.82345
-0.772421
-0.728505
-0.699605
-0.698926
-0.747702
-0.865358
-0.877113
-0.5285
-0.0934932
0.266207
0.743389
1.14587
1.43812
1.61661
1.69915
1.72184
-0.840407
-0.831071
-0.804328
-0.764067
-0.723035
-0.690552
-0.67932
-0.718741
-0.887895
-1.3352
-1.69578
-1.25067
-0.558807
-0.120586
0.332538
0.707492
0.964331
1.10961
1.1747
1.18036
-0.751103
-0.744526
-0.72368
-0.692829
-0.661943
-0.639304
-0.640905
-0.708275
-0.962907
-1.64389
-2.39159
-1.81427
-1.0546
-0.50325
-0.0299003
0.305843
0.509355
0.612182
0.657784
0.666863
-0.641131
-0.637989
-0.624675
-0.603744
-0.581554
-0.56562
-0.569872
-0.628482
-0.842502
-1.38259
-1.87814
-1.49808
-0.928825
-0.430051
-0.0658588
0.156152
0.273878
0.335659
0.367295
0.374231
-0.524568
-0.523438
-0.514447
-0.500009
-0.484028
-0.470858
-0.469367
-0.501855
-0.626213
-0.929344
-1.15981
-0.921729
-0.537949
-0.210799
-0.00522371
0.100463
0.153004
0.17984
0.191707
0.194388
-0.410222
-0.409242
-0.403105
-0.392204
-0.379418
-0.366683
-0.357893
-0.363044
-0.405001
-0.510015
-0.557152
-0.405036
-0.184045
-0.0246687
0.0553866
0.0931088
0.111017
0.119906
0.123604
0.123886
-0.301053
-0.300672
-0.2965
-0.288533
-0.27829
-0.266041
-0.252539
-0.240285
-0.233819
-0.229872
-0.178852
-0.0777984
0.00902434
0.0743947
0.0989566
0.107686
0.109954
0.109903
0.109192
0.108386
-0.202781
-0.202859
-0.200848
-0.196081
-0.188816
-0.178392
-0.164076
-0.145119
-0.119869
-0.0816361
-0.0178692
0.050215
0.0862231
0.111077
0.118302
0.11812
0.115441
0.11261
0.110724
0.109713
-0.12081
-0.121211
-0.121205
-0.119644
-0.115603
-0.107972
-0.0956022
-0.0767984
-0.0487534
-0.0069662
0.0463215
0.0910841
0.110983
0.1211
0.122972
0.120783
0.117351
0.114309
0.112466
0.111545
-0.0585515
-0.0590962
-0.0602868
-0.0608534
-0.0594128
-0.0547465
-0.0454848
-0.0298472
-0.00558085
0.0295953
0.069287
0.0990181
0.112981
0.11859
0.119119
0.117003
0.11397
0.11136
0.109853
0.109108
-0.0149831
-0.0155114
-0.0170946
-0.0186413
-0.0187197
-0.0162819
-0.0100607
0.00156531
0.0203044
0.0472278
0.0759035
0.0962869
0.106601
0.110589
0.110861
0.109113
0.106659
0.104559
0.10338
0.102806
0.013459
0.0130249
0.0115322
0.00974729
0.00895843
0.0101183
0.0141903
0.0223945
0.0359982
0.0555788
0.0759802
0.0902452
0.0978243
0.100693
0.100769
0.0993676
0.0973892
0.0956708
0.0947439
0.0943144
0.0308811
0.0305564
0.0293471
0.0277243
0.026679
0.027005
0.0295623
0.0352497
0.0448807
0.0587754
0.073151
0.0830856
0.0884071
0.0904425
0.0904539
0.0892967
0.0876692
0.0862534
0.0855206
0.0852054
0.0407938
0.040559
0.0396608
0.0383511
0.0373867
0.0373094
0.0387484
0.0424554
0.0490949
0.0587963
0.0688094
0.0757542
0.0795339
0.0809299
0.0807921
0.0798001
0.0784588
0.0772942
0.0767155
0.076486
0.0458738
0.0457
0.0450509
0.0440451
0.0432327
0.0430174
0.0438537
0.0462281
0.0506408
0.0572853
0.0642507
0.0690574
0.0715679
0.0723901
0.0721449
0.0712837
0.0701686
0.0692174
0.0687631
0.0685953
0.0478922
0.047756
0.047262
0.0464647
0.0457636
0.0454422
0.0458433
0.0473505
0.050297
0.0547667
0.0594504
0.0626614
0.0643042
0.0647722
0.0644698
0.0637298
0.0628209
0.0620633
0.0617136
0.0615898
0.0478655
0.0477559
0.0473588
0.0467014
0.046085
0.0457136
0.0458174
0.0466628
0.0485199
0.0514771
0.054627
0.056769
0.0577974
0.0579942
0.0576604
0.0570314
0.0562985
0.0557036
0.055436
0.0553434
0.0463927
0.0463048
0.045979
0.0454271
0.044882
0.0444946
0.044432
0.0448796
0.0460143
0.0479001
0.0499292
0.0512776
0.0518673
0.0518917
0.0515556
0.0510241
0.0504349
0.0499682
0.0497619
0.0496919
0.043877
0.0438071
0.0435404
0.0430756
0.0425945
0.042208
0.0420326
0.0421995
0.0428409
0.0439994
0.045266
0.0460825
0.0463853
0.046304
0.0459825
0.0455369
0.0450646
0.0446982
0.0445387
0.0444855
0.0406189
0.0405642
0.0403513
0.0399691
0.0395576
0.0391991
0.0389743
0.0389737
0.0392889
0.0399529
0.0406992
0.0411496
0.0412583
0.0411143
0.0408157
0.0404421
0.0400612
0.0397717
0.0396478
0.0396074
0.0368534
0.0368103
0.0366436
0.0363363
0.0359935
0.035675
0.035436
0.0353399
0.0354504
0.0357904
0.0361876
0.036397
0.0363863
0.0362129
0.0359436
0.035632
0.0353256
0.0350976
0.0350016
0.0349708
0.0327555
0.0327214
0.0325925
0.0323509
0.0320727
0.0318006
0.0315716
0.0314288
0.0314165
0.0315508
0.0317258
0.0317842
0.0317041
0.0315233
0.0312859
0.0310283
0.0307829
0.030604
0.0305294
0.0305059
0.028451
0.028424
0.0283251
0.0281379
0.0279165
0.0276908
0.0274849
0.0273279
0.0272495
0.0272609
0.0272996
0.0272696
0.027156
0.0269823
0.0267784
0.026568
0.0263736
0.0262343
0.0261766
0.0261586
0.0240223
0.0240012
0.0239254
0.0237814
0.0236074
0.0234245
0.0232477
0.0230962
0.0229903
0.0229369
0.0229004
0.0228252
0.022702
0.0225458
0.0223755
0.0222063
0.0220535
0.0219454
0.0219009
0.0218872
0.0195196
0.0195033
0.0194456
0.0193359
0.0192016
0.0190572
0.0189122
0.0187788
0.0186699
0.0185901
0.0185208
0.0184308
0.0183146
0.0181815
0.0180435
0.0179103
0.0177917
0.0177085
0.0176744
0.0176641
0.0149715
0.0149592
0.0149159
0.0148339
0.014733
0.0146234
0.0145109
0.0144032
0.014308
0.0142277
0.0141537
0.0140695
0.013972
0.0138662
0.0137593
0.0136576
0.0135678
0.0135049
0.0134794
0.0134718
0.0103929
0.0103841
0.010353
0.0102946
0.0102232
0.0101461
0.0100667
0.00998931
0.00991848
0.0098555
0.00979587
0.0097313
0.00965979
0.00958396
0.00950815
0.00943572
0.00937124
0.00932576
0.00930731
0.00930186
0.00578938
0.00578348
0.00576404
0.00572822
0.00568607
0.00564215
0.00559765
0.00555432
0.00551407
0.00547758
0.00544261
0.00540494
0.00536393
0.00532099
0.00527797
0.00523599
0.00519711
0.00516896
0.00515722
0.00515319
0.00117029
0.00117068
0.00117331
0.00116835
0.001158
0.00114709
0.00113601
0.00112484
0.00111364
0.00110209
0.00109061
0.0010796
0.00106871
0.00105782
0.00104702
0.00103631
0.00102577
0.00101742
0.00101671
0.00101876
-0.812641
-0.574809
-0.309013
-0.0918466
0.0844113
0.226767
0.347386
0.44921
0.496269
0.473699
-0.387732
-0.226754
-0.0594757
0.0845155
0.206889
0.30959
0.393354
0.453404
0.484763
0.495867
-0.0993516
0.00689553
0.118515
0.217785
0.30354
0.375571
0.432872
0.474746
0.504006
0.520973
0.100978
0.173781
0.251886
0.322597
0.384036
0.436037
0.478437
0.511746
0.537865
0.555518
0.25168
0.304145
0.359687
0.412137
0.458325
0.49835
0.532194
0.559882
0.582317
0.599766
0.371834
0.410485
0.45421
0.495428
0.532829
0.566006
0.594673
0.618424
0.637612
0.65478
0.473955
0.505851
0.543797
0.579349
0.612301
0.641957
0.667673
0.688835
0.705248
0.722279
0.568372
0.599589
0.636058
0.670232
0.701687
0.72984
0.753964
0.773382
0.787384
0.804446
0.667309
0.701751
0.739877
0.774765
0.805965
0.833139
0.855898
0.873779
0.886103
0.903561
0.784541
0.82304
0.862595
0.897662
0.927728
0.953099
0.97398
0.990275
1.00206
1.02019
0.930865
0.969849
1.00646
1.03765
1.06376
1.08625
1.10563
1.12141
1.13404
1.15209
1.10661
1.13862
1.16511
1.18785
1.2081
1.22705
1.24495
1.26157
1.27705
1.29516
1.29573
1.31311
1.32837
1.3448
1.36086
1.37551
1.38883
1.40285
1.42047
1.44066
1.47783
1.48741
1.49903
1.50989
1.51923
1.52893
1.53985
1.5513
1.56271
1.57809
1.68523
1.68893
1.67399
1.6592
1.65304
1.65879
1.6773
1.70766
1.73987
1.76655
1.99154
1.85668
1.78015
1.73794
1.72052
1.72449
1.75194
1.80834
1.91097
2.13535
0.276256
0.274151
0.269671
0.26109
0.248931
0.236872
0.226717
0.218894
0.213313
0.210021
0.209501
0.21197
0.216786
0.223742
0.232907
0.244271
0.256779
0.267705
0.273772
0.276784
0.200622
0.206486
0.212846
0.217426
0.219974
0.219745
0.217118
0.213392
0.209913
0.207593
0.207269
0.209196
0.212566
0.216571
0.220116
0.22178
0.220674
0.217044
0.211774
0.20512
0.192036
0.194335
0.197824
0.200943
0.203152
0.204777
0.205645
0.20543
0.20447
0.203548
0.203529
0.204644
0.206106
0.207074
0.206959
0.205808
0.204024
0.201481
0.19806
0.195071
0.186381
0.187459
0.189435
0.192058
0.194328
0.195965
0.197139
0.197987
0.198419
0.198584
0.198861
0.199313
0.199541
0.199246
0.198487
0.197286
0.195461
0.193027
0.190664
0.189198
0.181133
0.181759
0.18304
0.185073
0.187201
0.189151
0.190704
0.191873
0.192813
0.193545
0.194026
0.19416
0.193898
0.19328
0.192237
0.190688
0.188759
0.186745
0.185071
0.184216
0.176326
0.176713
0.177723
0.179533
0.181539
0.183541
0.185456
0.18707
0.188278
0.189154
0.189741
0.189924
0.189594
0.188696
0.18727
0.185548
0.183719
0.181896
0.180483
0.179905
0.172319
0.172504
0.173297
0.174924
0.176734
0.178422
0.179998
0.181544
0.182996
0.184204
0.184963
0.185068
0.184597
0.183724
0.182629
0.181318
0.179778
0.178135
0.17693
0.176574
0.169946
0.170024
0.17055
0.171764
0.173242
0.174749
0.176302
0.17777
0.179127
0.180345
0.181237
0.181549
0.181324
0.180688
0.179721
0.178599
0.177385
0.176172
0.175362
0.175163
0.168232
0.168284
0.168581
0.169249
0.170171
0.171228
0.172396
0.173719
0.175128
0.176488
0.177565
0.178067
0.178024
0.17766
0.177126
0.176435
0.175793
0.175209
0.174828
0.174713
0.165854
0.165889
0.166074
0.166467
0.167005
0.167819
0.168793
0.169985
0.171325
0.172751
0.174039
0.174847
0.175153
0.175104
0.174904
0.174681
0.174452
0.174221
0.174052
0.173984
0.162679
0.162699
0.162846
0.163208
0.163743
0.164387
0.165329
0.166532
0.167975
0.169596
0.171167
0.172299
0.172895
0.173145
0.173188
0.173186
0.173113
0.17299
0.172895
0.172862
0.158993
0.158993
0.159114
0.159477
0.16005
0.160738
0.161619
0.162865
0.164402
0.166237
0.168168
0.169721
0.170716
0.171299
0.171695
0.171853
0.171876
0.171805
0.171764
0.171758
0.155008
0.155004
0.155101
0.155445
0.15602
0.156813
0.157864
0.159201
0.160948
0.163109
0.165509
0.167555
0.168976
0.169942
0.170421
0.170792
0.170939
0.170971
0.170996
0.171007
0.150671
0.150658
0.150765
0.151103
0.15169
0.152528
0.153674
0.155223
0.157295
0.159915
0.162908
0.165553
0.167463
0.168774
0.169638
0.170166
0.170457
0.170611
0.170698
0.170717
0.145784
0.14577
0.145895
0.146238
0.146865
0.147791
0.149117
0.150968
0.153466
0.156697
0.160447
0.163832
0.166272
0.168029
0.169209
0.169976
0.170452
0.170734
0.170877
0.170904
0.140149
0.140132
0.140277
0.14069
0.141387
0.142464
0.144051
0.146304
0.149381
0.1534
0.158104
0.162367
0.165521
0.167769
0.169314
0.170342
0.171008
0.171414
0.171612
0.171647
0.133557
0.133536
0.133718
0.134215
0.13507
0.13638
0.138336
0.141128
0.144962
0.149993
0.155895
0.161267
0.165267
0.168102
0.170061
0.171383
0.172253
0.17279
0.173046
0.173091
0.125766
0.125739
0.125972
0.126591
0.127666
0.129334
0.131789
0.135295
0.140122
0.146446
0.153849
0.160573
0.165571
0.169124
0.171583
0.173247
0.174349
0.17503
0.175349
0.175408
0.116443
0.116406
0.116713
0.117524
0.118904
0.121031
0.124166
0.128642
0.134762
0.142729
0.152
0.160379
0.166583
0.171001
0.174059
0.176129
0.177502
0.178354
0.178755
0.178827
0.105118
0.105069
0.105484
0.10656
0.108367
0.111133
0.115209
0.120965
0.128758
0.138814
0.150401
0.160793
0.168458
0.173914
0.177693
0.180253
0.181954
0.183017
0.183514
0.183602
0.0911402
0.0910829
0.091663
0.0931153
0.0955214
0.0991854
0.104528
0.11199
0.121984
0.134694
0.149129
0.161949
0.171365
0.178068
0.182721
0.18588
0.187982
0.189301
0.189922
0.190027
0.0735738
0.0735164
0.0743562
0.0763529
0.0796294
0.0845713
0.0916929
0.101499
0.11438
0.130421
0.148307
0.164007
0.175493
0.183682
0.189392
0.193291
0.195896
0.197534
0.198314
0.19844
0.0509317
0.0508877
0.0521605
0.0550286
0.0596668
0.066555
0.0762797
0.0893177
0.105953
0.126118
0.148104
0.167149
0.181038
0.190977
0.197961
0.202778
0.206027
0.208081
0.209055
0.209214
0.0208133
0.0208395
0.0229103
0.027317
0.0342433
0.0442443
0.0578355
0.0753303
0.0968116
0.121984
0.148717
0.171544
0.188153
0.200121
0.208641
0.214612
0.218706
0.221324
0.22256
0.222755
-0.021052
-0.0207663
-0.0169027
-0.0093419
0.0017723
0.0169075
0.0362248
0.0597427
0.0872768
0.118314
0.150354
0.177308
0.196897
0.211152
0.221499
0.228937
0.234185
0.237624
0.239232
0.239463
-0.0827549
-0.0809683
-0.0718417
-0.0575351
-0.0385647
-0.0152349
0.0120994
0.0432661
0.077933
0.115505
0.153208
0.18447
0.207181
0.223897
0.236301
0.245536
0.25231
0.256899
0.259137
0.259433
-0.156504
-0.153594
-0.136675
-0.111385
-0.0818594
-0.0490156
-0.0129193
0.0264104
0.068741
0.113574
0.157942
0.194692
0.22172
0.242072
0.25767
0.269775
0.279256
0.285728
0.288096
0.288999
-0.232346
-0.223328
-0.198245
-0.162942
-0.12383
-0.0818611
-0.0371413
0.0102956
0.060267
0.112359
0.163445
0.20571
0.236988
0.260852
0.279522
0.294379
0.306223
0.314621
0.318924
0.32052
-0.290269
-0.279997
-0.249962
-0.208044
-0.161594
-0.112032
-0.0597506
-0.00492733
0.0521504
0.111017
0.168232
0.215286
0.249996
0.27642
0.297021
0.31333
0.326256
0.335873
0.341172
0.342911
-0.33703
-0.326258
-0.292843
-0.24626
-0.194347
-0.138884
-0.0803767
-0.0191765
0.0442282
0.109206
0.171897
0.222997
0.260299
0.288368
0.309992
0.326942
0.340263
0.350118
0.355571
0.357444
-0.37556
-0.364773
-0.329345
-0.279135
-0.222902
-0.162673
-0.099002
-0.0323872
0.0365484
0.106984
0.17453
0.229113
0.268536
0.297849
0.320154
0.337404
0.350793
0.360654
0.366105
0.36795
-0.40891
-0.398198
-0.361254
-0.308219
-0.248472
-0.184255
-0.116166
-0.0448043
0.0290669
0.104463
0.17654
0.234367
0.275683
0.306017
0.328783
0.346165
0.359513
0.369327
0.374789
0.376546
-0.438607
-0.427992
-0.389955
-0.334616
-0.271921
-0.204268
-0.132312
-0.0567371
0.0216234
0.101634
0.177961
0.238831
0.281945
0.313262
0.336502
0.35406
0.367424
0.377186
0.38269
0.384286
-0.465855
-0.45529
-0.416392
-0.359092
-0.293886
-0.223278
-0.147928
-0.0685606
0.0139038
0.098201
0.178637
0.242632
0.287664
0.320081
0.343889
0.361686
0.375117
0.384853
0.390349
0.391836
-0.491403
-0.480868
-0.441177
-0.382191
-0.314825
-0.241623
-0.16328
-0.0805241
0.00570303
0.0941262
0.178686
0.245937
0.293057
0.32673
0.351237
0.369377
0.382936
0.392662
0.398179
0.399555
-0.515684
-0.505138
-0.464777
-0.404342
-0.335038
-0.259546
-0.178548
-0.0927259
-0.00299067
0.0893714
0.178033
0.248707
0.298163
0.333327
0.35872
0.377341
0.391121
0.400899
0.406387
0.407705
-0.539081
-0.528473
-0.487445
-0.42578
-0.354757
-0.277232
-0.193851
-0.10525
-0.0123012
0.0837771
0.176549
0.250874
0.302982
0.339928
0.366436
0.385704
0.399818
0.409702
0.415121
0.416427
-0.561784
-0.551034
-0.509337
-0.446629
-0.374062
-0.294759
-0.209271
-0.118195
-0.0223154
0.0772942
0.174139
0.25232
0.307434
0.346521
0.374417
0.394523
0.409101
0.419166
0.424508
0.425795
-0.583793
-0.572883
-0.530678
-0.466944
-0.393029
-0.312174
-0.224842
-0.131564
-0.0330253
0.0698662
0.170692
0.252902
0.311351
0.352977
0.3826
0.403785
0.418973
0.429294
0.434591
0.435801
-0.605233
-0.594111
-0.551449
-0.486734
-0.411676
-0.329464
-0.240518
-0.145314
-0.0444201
0.0614693
0.16611
0.252444
0.314524
0.359089
0.390855
0.413428
0.42942
0.440087
0.44534
0.446417
-0.626038
-0.61472
-0.571588
-0.50602
-0.429964
-0.346577
-0.256246
-0.159395
-0.0564522
0.0521155
0.160328
0.250768
0.316743
0.364675
0.399068
0.423389
0.440376
0.451422
0.456623
0.457509
-0.646258
-0.634714
-0.591083
-0.524784
-0.447856
-0.363472
-0.271975
-0.173728
-0.0690458
0.0418456
0.153301
0.247708
0.317736
0.369479
0.407054
0.433612
0.451814
0.463204
0.468207
0.46887
-0.665725
-0.654032
-0.609918
-0.542975
-0.465297
-0.380067
-0.28762
-0.188223
-0.0821068
0.0307421
0.145025
0.243143
0.317204
0.37308
0.414479
0.444012
0.46382
0.475408
0.47991
0.480245
-0.68455
-0.672637
-0.628069
-0.560563
-0.482245
-0.396315
-0.303084
-0.202787
-0.0955267
0.0189139
0.135554
0.236977
0.314891
0.37499
0.420834
0.454408
0.47672
0.488339
0.491513
0.491208
-0.702605
-0.690466
-0.645511
-0.577499
-0.498626
-0.412136
-0.318289
-0.217298
-0.109182
0.00645715
0.124979
0.229186
0.310616
0.37473
0.425348
0.464241
0.490934
0.503403
0.503677
0.501261
-0.71993
-0.707608
-0.662201
-0.593741
-0.514406
-0.427469
-0.333154
-0.231672
-0.12295