/*--------------------------------*- C++ -*----------------------------------*\
| =========                 |                                                 |
| \\      /  F ield         | OpenFOAM: The Open Source CFD Toolbox           |
|  \\    /   O peration     | Version:  2112                                  |
|   \\  /    A nd           | Website:  www.openfoam.com                      |
|    \\/     M anipulation  |                                                 |
\*---------------------------------------------------------------------------*/
FoamFile
{
    version     2.0;
    format      ascii;
    arch        "LSB;label=32;scalar=64";
    class       surfaceScalarField;
    location    "14.5";
    object      phi;
}
// * * * * * * * * * * * * * * * * * * * * * * * * * * * * * * * * * * * * * //

dimensions      [0 3 -1 0 0 0 0];

oriented        oriented;

internalField   nonuniform List<scalar> 
17370
(
-0.091604
0.0960269
0.284588
-0.0776242
0.0594601
0.36494
-0.0430753
0.0316364
0.427607
-0.0223085
0.0162326
0.505328
-0.0116115
0.00871643
0.602297
-0.00649822
0.00502086
0.720535
-0.00379851
0.00293435
0.863771
-0.00218251
0.00162654
1.03601
-0.00112112
0.000718119
1.24291
-0.000319379
-4.6693e-05
1.49156
0.000415852
-0.000826088
1.4916
0.00122502
-0.00172527
1.24319
0.00227513
-0.00301877
1.03638
0.00387492
-0.00508981
0.864121
0.00656276
-0.00877754
0.721272
0.011666
-0.0162751
0.603824
0.022339
-0.031654
0.508754
0.0430806
-0.0594579
0.432545
0.0776226
-0.0960251
0.365178
0.0916121
0.197399
-0.127126
0.088088
0.0390377
-0.364389
0.354083
-0.0713996
0.0817053
-0.446612
0.45431
-0.0790974
0.0713993
-0.52097
0.52913
-0.0634734
0.0553141
-0.613005
0.620742
-0.0479216
0.0401845
-0.727212
0.733686
-0.0336267
0.027152
-0.86758
0.872434
-0.0219591
0.0171054
-1.03854
1.04184
-0.0134118
0.0101096
-1.24469
1.24702
-0.0076122
0.00528203
-1.49277
1.49469
-0.00339733
0.00147505
-1.49263
1.49437
0.000257174
-0.00199241
-1.24407
1.24593
0.00389107
-0.00575569
-1.03759
1.04007
0.00805809
-0.0105302
-0.866186
0.869853
0.0138058
-0.0174735
-0.724643
0.729805
0.0222974
-0.0274593
-0.609123
0.61565
0.033897
-0.0404238
-0.51512
0.522484
0.04813
-0.0554941
-0.439834
0.447719
0.0636133
-0.0714988
-0.374748
0.377367
0.079139
-0.0817587
-0.256974
0.224585
0.0714417
-0.0390528
-0.0689194
0.0593604
0.00955898
-0.0517912
0.05853
-0.374903
0.368164
-0.0576466
0.053769
-0.454032
0.457909
-0.0482296
0.043606
-0.527692
0.532316
-0.0389896
0.0350193
-0.620774
0.624744
-0.030762
0.0268039
-0.734553
0.738512
-0.0225676
0.0188307
-0.873851
0.877588
-0.0149652
0.0116592
-1.04322
1.04652
-0.00829771
0.00539824
-1.24846
1.25136
-0.00233884
-0.000508671
-1.49674
1.49959
0.00334067
-0.00636795
-1.49721
1.50024
0.00921997
-0.0125219
-1.24992
1.25323
0.0157662
-0.0195583
-1.04558
1.04937
0.0232318
-0.0274037
-0.877091
0.881263
0.0313066
-0.0355061
-0.738969
0.743169
0.0394217
-0.0439867
-0.626091
0.630656
0.0485739
-0.0540795
-0.535182
0.540688
0.0579197
-0.05876
-0.458248
0.459088
0.0519592
-0.0317887
-0.337015
0.316845
0.00958885
-0.0688415
0.0592526
-0.0536536
0.0496443
0.00400931
-0.0325851
0.0427764
-0.358868
0.348677
-0.0463377
0.0457728
-0.459649
0.460214
-0.0429662
0.0398903
-0.536186
0.539262
-0.0362969
0.0329655
-0.6284
0.631731
-0.0293247
0.0260676
-0.741942
0.745199
-0.0225748
0.0194023
-0.881079
0.884252
-0.0159148
0.0127157
-1.04987
1.05307
-0.00923571
0.00607529
-1.25446
1.25762
-0.00258864
-0.000724132
-1.50269
1.50601
0.00402057
-0.00746232
-1.50353
1.50697
0.0105625
-0.0139609
-1.25668
1.26008
0.0170773
-0.0204703
-1.05307
1.05646
0.0235598
-0.0269591
-0.884951
0.88835
0.0301369
-0.033709
-0.746924
0.750496
0.0369795
-0.0405013
-0.634771
0.638293
0.0435153
-0.0462559
-0.544761
0.547502
0.0467542
-0.043105
-0.457292
0.453643
0.03281
-0.0159324
-0.297862
0.280984
0.00404391
-0.0535152
0.0494713
-0.0465877
0.0441877
0.00240006
-0.0218177
0.0316343
-0.338439
0.328622
-0.0369696
0.0376888
-0.460085
0.459366
-0.0362584
0.033878
-0.541842
0.544223
-0.0312791
0.0288761
-0.634577
0.63698
-0.0261414
0.0235636
-0.74819
0.750768
-0.0206475
0.0179471
-0.887179
0.889879
-0.0149408
0.0121433
-1.05602
1.05882
-0.00897371
0.00594488
-1.26073
1.26376
-0.00242632
-0.0010289
-1.50947
1.51293
0.00445741
-0.00790867
-1.51047
1.51392
0.0108545
-0.0139173
-1.26329
1.26635
0.0166073
-0.0194875
-1.05954
1.06242
0.0220648
-0.0248437
-0.891498
0.894276
0.0272998
-0.0299072
-0.753643
0.756251
0.0322083
-0.0347137
-0.641185
0.643691
0.0370195
-0.038352
-0.549466
0.550799
0.0375335
-0.03206
-0.448887
0.443414
0.0220977
-0.00965457
-0.266383
0.25394
0.00244129
-0.0463791
0.0439378
-0.0422766
0.0407232
0.00155334
-0.0149508
0.0233002
-0.319465
0.311116
-0.0292378
0.0311292
-0.458014
0.456123
-0.0307192
0.0291485
-0.546274
0.547845
-0.027099
0.0251547
-0.639171
0.641115
-0.023017
0.0210066
-0.753
0.75501
-0.0186683
0.0163573
-0.892364
0.894675
-0.0136369
0.0110123
-1.06152
1.06414
-0.00800132
0.00513218
-1.2667
1.26957
-0.00184108
-0.00133163
-1.51623
1.51941
0.00447911
-0.00768672
-1.51724
1.52045
0.0104407
-0.0132954
-1.2693
1.27215
0.0157648
-0.0183085
-1.06511
1.06766
0.0204602
-0.0226308
-0.896713
0.898884
0.0244912
-0.0264987
-0.758523
0.76053
0.0283035
-0.03022
-0.64597
0.647886
0.0316714
-0.0319478
-0.551559
0.551835
0.0299163
-0.0237978
-0.437479
0.431361
0.0152729
-0.00636931
-0.243395
0.234491
0.00160137
-0.0419807
0.0403793
-0.0394474
0.038437
0.00101041
-0.00968292
0.0160503
-0.303697
0.29733
-0.0216299
0.0241676
-0.45386
0.451322
-0.0245722
0.0238788
-0.548964
0.549658
-0.0225702
0.0212431
-0.642713
0.64404
-0.0196165
0.0179517
-0.756837
0.758502
-0.0159893
0.0140776
-0.896798
0.89871
-0.0118351
0.0096124
-1.06661
1.06884
-0.00696646
0.00435081
-1.27236
1.27498
-0.00127719
-0.00173164
-1.52252
1.52553
0.00470351
-0.00766292
-1.52357
1.52653
0.0101235
-0.0125692
-1.27485
1.2773
0.0145916
-0.0166119
-1.06996
1.07199
0.0183243
-0.0200679
-0.900837
0.902581
0.0215411
-0.0229629
-0.762222
0.763644
0.024123
-0.0252723
-0.649389
0.650538
0.0258047
-0.0252158
-0.55169
0.551101
0.0224814
-0.0166604
-0.425296
0.419475
0.0100757
-0.0041139
-0.22708
0.221119
0.00107163
-0.0390492
0.0379776
-0.0377087
0.037249
0.000459738
-0.00499045
0.00909169
-0.2921
0.287999
-0.0135493
0.0162083
-0.448621
0.445962
-0.017271
0.017305
-0.549927
0.549893
-0.0165612
0.0156762
-0.645164
0.646049
-0.0145746
0.0134711
-0.759963
0.761067
-0.0120834
0.0106469
-0.900402
0.901839
-0.00889062
0.00712922
-1.07081
1.07257
-0.00501472
0.00289996
-1.27733
1.27945
-0.000333971
-0.00224136
-1.52833
1.53091
0.00476058
-0.00716702
-1.52923
1.53163
0.00908046
-0.0109322
-1.27944
1.28129
0.0124286
-0.0138723
-1.07373
1.07517
0.0150114
-0.0160909
-0.904069
0.905149
0.0169268
-0.0177574
-0.764795
0.765626
0.0184446
-0.0189594
-0.65135
0.651865
0.0187188
-0.0174215
-0.550077
0.54878
0.014523
-0.00978683
-0.414101
0.409365
0.00544236
-0.00208877
-0.216547
0.213194
0.000531024
-0.0371833
0.0366523
-0.0370089
0.0369195
8.93235e-05
-0.00206438
0.00443179
-0.284891
0.282524
-0.00753091
0.00970514
-0.443537
0.441362
-0.0108091
0.0110441
-0.549737
0.549502
-0.0108702
0.0105046
-0.64665
0.647016
-0.00996722
0.00937004
-0.761829
0.762426
-0.00857507
0.00768726
-0.902972
0.903859
-0.00648438
0.00516077
-1.0741
1.07543
-0.00346183
0.00167432
-1.28137
1.28316
0.000537172
-0.00276816
-1.53329
1.53552
0.00493472
-0.00696469
-1.53382
1.53585
0.0085218
-0.00991704
-1.28289
1.28429
0.0109318
-0.0117851
-1.07629
1.07714
0.0123738
-0.0128451
-0.905785
0.906256
0.013162
-0.0133412
-0.766099
0.766278
0.0133562
-0.0132449
-0.652083
0.651972
0.0127165
-0.0112818
-0.547403
0.545968
0.00878533
-0.00532697
-0.40533
0.401872
0.00264922
-0.000882263
-0.210788
0.209021
0.000182479
-0.0363318
0.0361493
-0.0369044
0.0369124
-7.97791e-06
-0.00107427
0.00272104
-0.280614
0.278967
-0.00526144
0.00741062
-0.439283
0.437133
-0.00890209
0.00956655
-0.549085
0.54842
-0.00969613
0.00962034
-0.647214
0.647289
-0.00931013
0.00881865
-0.762974
0.763466
-0.00807405
0.00719433
-0.904685
0.905564
-0.00598217
0.00462956
-1.07668
1.07804
-0.00285638
0.000996138
-1.28491
1.28677
0.00126467
-0.00348152
-1.53768
1.5399
0.0056279
-0.00766859
-1.53782
1.53986
0.00922763
-0.0106
-1.2856
1.28697
0.0115581
-0.0123217
-1.0779
1.07866
0.0127755
-0.0130461
-0.906703
0.906974
0.0130969
-0.0129662
-0.766263
0.766132
0.0126969
-0.0121841
-0.651593
0.65108
0.0111903
-0.00930452
-0.544363
0.542477
0.00677189
-0.00380251
-0.398754
0.395785
0.00178018
-0.000558159
-0.207615
0.206393
0.000101839
-0.0360314
0.0359296
-0.036929
0.0369507
-2.17394e-05
-0.000674057
0.00197612
-0.277501
0.276199
-0.00434444
0.00683013
-0.43483
0.432344
-0.00916003
0.0105737
-0.547476
0.546062
-0.0113037
0.0115247
-0.647241
0.64702
-0.0113958
0.0108715
-0.763888
0.764413
-0.00998652
0.00885148
-0.906538
0.907673
-0.00725257
0.00548703
-1.07958
1.08134
-0.003235
0.000927316
-1.28884
1.29115
0.00182623
-0.00449707
-1.5423
1.54497
0.00707283
-0.00952933
-1.54208
1.54454
0.011421
-0.0131307
-1.2885
1.29021
0.0143739
-0.0153852
-1.07951
1.08052
0.015986
-0.0163307
-0.907128
0.907473
0.0162776
-0.0158502
-0.765856
0.765429
0.0152361
-0.013965
-0.650363
0.649091
0.0120698
-0.00921031
-0.540171
0.537312
0.00623012
-0.00332449
-0.392857
0.389952
0.00155745
-0.000528888
-0.205278
0.204249
0.000117877
-0.035823
0.0357051
-0.036979
0.0370203
-4.12946e-05
-0.000232385
0.00110344
-0.275094
0.274223
-0.00304715
0.00554591
-0.429766
0.427267
-0.008485
0.0107319
-0.544163
0.541916
-0.0124206
0.0129447
-0.646655
0.646131
-0.0128929
0.0124687
-0.764945
0.765369
-0.0114089
0.00998127
-0.908983
0.910411
-0.00799855
0.00586283
-1.08332
1.08546
-0.00321246
0.000537991
-1.29367
1.29635
0.00265858
-0.0057786
-1.54791
1.55103
0.0087642
-0.0115807
-1.54722
1.55004
0.013776
-0.0157737
-1.29209
1.29409
0.0172175
-0.0184029
-1.08167
1.08285
0.0190935
-0.0193811
-0.907869
0.908156
0.019207
-0.018633
-0.764919
0.764345
0.0173522
-0.0149484
-0.647227
0.644823
0.0120855
-0.00847558
-0.533966
0.530356
0.005373
-0.00277799
-0.387145
0.38455
0.00133171
-0.000496664
-0.203313
0.202478
0.000130549
-0.0355785
0.035448
-0.0370817
0.03717
-8.83657e-05
0.000260471
8.77803e-05
-0.273598
0.27325
-0.0012479
0.00307967
-0.425032
0.4232
-0.0056183
0.00787395
-0.539525
0.537269
-0.0098608
0.0110219
-0.645266
0.644105
-0.0113218
0.0108691
-0.765775
0.766227
-0.00978567
0.00838329
-0.911884
0.913286
-0.00642422
0.00430258
-1.08764
1.08977
-0.00165496
-0.00102336
-1.29907
1.30175
0.004231
-0.0073425
-1.55421
1.55732
0.0102806
-0.0130046
-1.55287
1.55559
0.0150601
-0.0168657
-1.29607
1.29788
0.0181207
-0.0190798
-1.08396
1.08492
0.019543
-0.0195496
-0.908257
0.908264
0.0191541
-0.0178736
-0.763547
0.762266
0.0159126
-0.0130607
-0.642065
0.639213
0.0100422
-0.00669604
-0.526757
0.523411
0.00413675
-0.00217492
-0.382253
0.380292
0.00110601
-0.000452113
-0.201742
0.201088
0.000130575
-0.0353172
0.0351867
-0.0372846
0.0374265
-0.000141956
0.000746857
-0.000833799
-0.273152
0.273239
0.000485066
0.000419108
-0.421837
0.420933
-0.00191895
0.00339541
-0.535371
0.533894
-0.00477066
0.00562478
-0.643069
0.642215
-0.00600505
0.00582828
-0.766523
0.7667
-0.00513822
0.00408551
-0.914508
0.915561
-0.00250984
0.000735289
-1.09173
1.0935
0.00154347
-0.00386383
-1.30428
1.3066
0.00661805
-0.00923927
-1.56024
1.56286
0.0116542
-0.0137713
-1.55807
1.56019
0.0152757
-0.0164978
-1.29942
1.30065
0.0171952
-0.0175104
-1.08559
1.08591
0.0173919
-0.0168428
-0.908064
0.907515
0.0158306
-0.0142381
-0.760675
0.759082
0.012343
-0.00989324
-0.636512
0.634062
0.0074856
-0.0050048
-0.520481
0.518
0.00320108
-0.00182654
-0.378652
0.377277
0.00101986
-0.000452646
-0.200493
0.199926
0.000136918
-0.0350561
0.0349192
-0.0375908
0.03778
-0.000189157
0.00111573
-0.00155893
-0.273477
0.27392
0.00177743
-0.00164907
-0.420435
0.420306
0.00110922
-0.000468841
-0.532878
0.532237
-0.000166909
0.000540219
-0.641617
0.641244
-0.000635719
0.000411479
-0.766878
0.767102
0.000188303
-0.00105183
-0.916484
0.917347
0.00233006
-0.00376951
-1.09508
1.09652
0.00560939
-0.00746752
-1.30868
1.31053
0.00961298
-0.0115724
-1.56514
1.5671
0.0132674
-0.0146304
-1.56193
1.56329
0.0154006
-0.0158113
-1.30148
1.30189
0.0158541
-0.0155612
-1.08588
1.08559
0.0149686
-0.0139871
-0.906705
0.905723
0.0128092
-0.0112539
-0.757495
0.755939
0.00962528
-0.00769989
-0.631893
0.629968
0.00594107
-0.00419462
-0.515937
0.51419
0.00290858
-0.00184567
-0.376097
0.375034
0.00112087
-0.000526344
-0.19936
0.198766
0.000163611
-0.0347744
0.0346108
-0.0379946
0.0382346
-0.000239994
0.00146838
-0.00215529
-0.27447
0.275157
0.00279943
-0.00317053
-0.42043
0.420801
0.00334119
-0.00337729
-0.532007
0.532044
0.00340198
-0.00352176
-0.641197
0.641317
0.00383272
-0.00431288
-0.767463
0.767943
0.00506805
-0.00596408
-0.918177
0.919073
0.00716205
-0.00843314
-1.09781
1.09908
0.00998373
-0.0114794
-1.31216
1.31366
0.0131049
-0.0144712
-1.56873
1.5701
0.0155074
-0.0161357
-1.5643
1.56492
0.0162845
-0.0160855
-1.30196
1.30176
0.0156579
-0.0148593
-1.08496
1.08416
0.013905
-0.0126747
-0.904582
0.903352
0.0114198
-0.00993828
-0.754424
0.752942
0.00852236
-0.00695666
-0.628273
0.626707
0.00558275
-0.0042146
-0.512699
0.511331
0.00314044
-0.00214014
-0.374035
0.373035
0.00136101
-0.00065758
-0.198132
0.197428
0.000207997
-0.0344345
0.0342265
-0.0385097
0.0388119
-0.000302293
0.001875
-0.002797
-0.275961
0.276883
0.00375127
-0.00449286
-0.421345
0.422087
0.00512467
-0.00561702
-0.532414
0.532907
0.00616324
-0.00674947
-0.641783
0.642369
0.00752666
-0.00837859
-0.768602
0.769454
0.00946541
-0.0105767
-0.919992
0.921103
0.0118961
-0.0131737
-1.10028
1.10156
0.0146232
-0.0159214
-1.31498
1.31628
0.0172025
-0.0181221
-1.57119
1.57211
0.0186255
-0.0186427
-1.56524
1.56525
0.0182695
-0.0175774
-1.3013
1.30061
0.0166959
-0.0155399
-1.08313
1.08197
0.014346
-0.012948
-0.902001
0.900603
0.0116228
-0.0101495
-0.751466
0.749993
0.00880781
-0.00736947
-0.625271
0.623832
0.00611437
-0.00482575
-0.510084
0.508795
0.00373957
-0.00263363
-0.372018
0.370912
0.00170853
-0.000836378
-0.196664
0.195792
0.000267681
-0.0340081
0.0337405
-0.0391633
0.0395459
-0.000382591
0.00238401
-0.00357394
-0.277959
0.279149
0.00483846
-0.00587628
-0.423035
0.424073
0.00686229
-0.00771619
-0.53375
0.534604
0.0087077
-0.00973806
-0.643272
0.644302
0.0110057
-0.012278
-0.770439
0.771711
0.0137764
-0.0152124
-0.922227
0.923663
0.0168203
-0.0182746
-1.10282
1.10428
0.0198023
-0.021059
-1.31746
1.31872
0.0221584
-0.0227732
-1.57281
1.57343
0.0228725
-0.0224319
-1.56502
1.56458
0.0216372
-0.0204524
-1.29963
1.29845
0.0191817
-0.017658
-1.08058
1.07905
0.0162039
-0.0145888
-0.899034
0.897419
0.0131223
-0.0115441
-0.748441
0.746863
0.0101363
-0.00863664
-0.622435
0.620935
0.00731074
-0.005901
-0.507567
0.506157
0.00465056
-0.00330732
-0.369765
0.368422
0.00215819
-0.00106114
-0.194853
0.193756
0.00034155
-0.033472
0.0331305
-0.0399988
0.0404873
-0.000488544
0.0030402
-0.0045639
-0.280551
0.282075
0.00620763
-0.0075918
-0.425417
0.426801
0.00896187
-0.010181
-0.535899
0.537119
0.0115982
-0.013055
-0.645603
0.64706
0.0148272
-0.0165596
-0.77307
0.774802
0.0185435
-0.0203919
-0.925098
0.926947
0.0224024
-0.0241581
-1.1057
1.10746
0.0259047
-0.0272346
-1.31989
1.32122
0.028263
-0.0286586
-1.57387
1.57426
0.0284128
-0.0275256
-1.56388
1.563
0.0263042
-0.0246574
-1.29701
1.29536
0.0229829
-0.0210557
-1.07727
1.07534
0.0192764
-0.0173565
-0.895545
0.893625
0.0156554
-0.0138589
-0.74509
0.743293
0.0122723
-0.0105804
-0.619394
0.617702
0.00906111
-0.00739756
-0.504797
0.503133
0.00585766
-0.00416999
-0.367079
0.365392
0.00270777
-0.00132579
-0.192597
0.191215
0.000425253
-0.0327995
0.0323742
-0.0410767
0.0417206
-0.000643914
0.0039538
-0.00593131
-0.283894
0.285871
0.00807561
-0.00988767
-0.428562
0.430375
0.0116893
-0.0133079
-0.538879
0.540498
0.0152001
-0.0171309
-0.648837
0.650768
0.0194697
-0.0217528
-0.776577
0.77886
0.024342
-0.0267019
-0.928747
0.931107
0.0291978
-0.0313103
-1.10916
1.11127
0.0333376
-0.0348064
-1.32248
1.32395
0.0358287
-0.036044
-1.57449
1.57471
0.0354653
-0.0341159
-1.56185
1.5605
0.0324277
-0.0302549
-1.29343
1.29126
0.0281078
-0.025684
-1.0731
1.07068
0.0234814
-0.021139
-0.891347
0.889005
0.0190912
-0.0169544
-0.741167
0.73903
0.0150788
-0.0130752
-0.615875
0.613871
0.0112493
-0.00920648
-0.501536
0.499493
0.00731751
-0.0052314
-0.363756
0.36167
0.00341215
-0.00166258
-0.189786
0.188037
0.000531119
-0.0319624
0.0314313
-0.0424805
0.0433543
-0.000873774
0.00526436
-0.00787464
-0.288205
0.290815
0.0106874
-0.013042
-0.432656
0.435011
0.0153666
-0.01746
-0.542817
0.544911
0.0199294
-0.0224549
-0.65309
0.655615
0.025494
-0.0284182
-0.78114
0.784064
0.0316724
-0.0345878
-0.9334
0.936315
0.0376323
-0.0401717
-1.11336
1.1159
0.0425563
-0.0442128
-1.32535
1.32701
0.0452497
-0.0452725
-1.57474
1.57476
0.0443205
-0.0424414
-1.55885
1.55697
0.0402102
-0.0374138
-1.28876
1.28596
0.0346922
-0.0316511
-1.06789
1.06485
0.0289076
-0.0260085
-0.886216
0.883317
0.0234913
-0.0208863
-0.736433
0.733828
0.0186155
-0.0161985
-0.611634
0.609217
0.0139845
-0.011483
-0.497546
0.495045
0.0091376
-0.00652545
-0.359637
0.357025
0.0042477
-0.00207006
-0.186271
0.184094
0.000659594
-0.0309268
0.0302672
-0.0443398
0.0455492
-0.00120941
0.00716632
-0.0106702
-0.2938
0.297304
0.0143786
-0.0174344
-0.437962
0.441018
0.0204246
-0.0231391
-0.547936
0.55065
0.0263641
-0.0296413
-0.658605
0.661882
0.0335201
-0.037188
-0.787006
0.790674
0.0412166
-0.0447902
-0.939229
0.942803
0.0484771
-0.0514984
-1.11843
1.12145
0.0542537
-0.0560712
-1.32856
1.33038
0.057055
-0.0567949
-1.57453
1.57427
0.0553611
-0.0528284
-1.55472
1.55219
0.0499387
-0.0463889
-1.28277
1.27922
0.042973
-0.0391807
-1.06138
1.05758
0.0357723
-0.0321783
-0.87989
0.876297
0.0290661
-0.0258602
-0.730634
0.727428
0.0230813
-0.0201393
-0.606436
0.603494
0.0174409
-0.01437
-0.49261
0.489539
0.0114318
-0.00816849
-0.354505
0.351242
0.00531303
-0.00258414
-0.181899
0.17917
0.000821525
-0.0296508
0.0288293
-0.0468606
0.048568
-0.00170737
0.00993482
-0.0146544
-0.301165
0.305884
0.0194968
-0.0234169
-0.444893
0.448813
0.0272383
-0.03076
-0.554606
0.558128
0.0349689
-0.0392151
-0.665698
0.669944
0.0441713
-0.0487838
-0.794425
0.799038
0.0537753
-0.0581322
-0.94642
0.950777
0.0625354
-0.0660447
-1.12444
1.12795
0.0691168
-0.0710025
-1.33204
1.33393
0.0717926
-0.0710869
-1.57367
1.57296
0.0689978
-0.0656314
-1.54918
1.54581
0.0619276
-0.0574639
-1.27519
1.27072
0.0532135
-0.0485224
-1.05327
1.04858
0.0443186
-0.0398901
-0.872079
0.867651
0.0360584
-0.0321174
-0.723495
0.719554
0.0287112
-0.0251184
-0.600026
0.596433
0.0218188
-0.0180457
-0.486465
0.482692
0.0143994
-0.0102513
-0.348126
0.343978
0.0066481
-0.00321961
-0.176469
0.173041
0.0010163
-0.0280812
0.0270649
-0.0503632
0.0528962
-0.00253299
0.0142694
-0.0207095
-0.311016
0.317456
0.0270414
-0.0320805
-0.45401
0.459049
0.0370069
-0.0416192
-0.563321
0.567933
0.0471458
-0.0526319
-0.674802
0.680289
0.0588913
-0.064586
-0.803736
0.809431
0.0706131
-0.0757459
-0.955135
0.960268
0.080789
-0.0846658
-1.13136
1.13524
0.0878826
-0.0896477
-1.33556
1.33733
0.0900045
-0.0886136
-1.57179
1.5704
0.0856362
-0.0812107
-1.54186
1.53743
0.076512
-0.0709549
-1.26567
1.26011
0.0657185
-0.0599713
-1.04327
1.03753
0.054835
-0.0494272
-0.862483
0.857075
0.0447476
-0.0399346
-0.71472
0.709907
0.0357807
-0.0314062
-0.592113
0.587738
0.0273734
-0.0227222
-0.478812
0.474161
0.018177
-0.0129612
-0.340075
0.334859
0.00835617
-0.00399982
-0.169728
0.165371
0.0012454
-0.0261558
0.0249104
-0.0554332
0.0594464
-0.00401324
0.0215589
-0.0305809
-0.324472
0.333494
0.0389611
-0.0454248
-0.466193
0.472657
0.0518043
-0.0578552
-0.574779
0.58083
0.0650669
-0.0720281
-0.686419
0.69338
0.0797092
-0.0864747
-0.81518
0.821946
0.0934177
-0.0991392
-0.965324
0.971045
0.104537
-0.108468
-1.13886
1.14279
0.111445
-0.112721
-1.33863
1.33991
0.112242
-0.109816
-1.56834
1.56592
0.105648
-0.0999068
-1.53227
1.52653
0.0940253
-0.0872043
-1.25388
1.24706
0.0808489
-0.0739135
-1.03109
1.02415
0.0677303
-0.0612182
-0.850822
0.84431
0.0555731
-0.0497571
-0.704019
0.698203
0.0447401
-0.0394625
-0.582371
0.577094
0.0345676
-0.0288536
-0.469241
0.463527
0.0231567
-0.0165273
-0.329937
0.323307
0.0106262
-0.00504463
-0.161264
0.155682
0.00154708
-0.0237991
0.022252
-0.0632348
0.0704789
-0.0072441
0.03521
-0.0483108
-0.343825
0.356926
0.0595412
-0.0676525
-0.482624
0.490736
0.0756573
-0.0834505
-0.589661
0.597454
0.0924957
-0.100787
-0.700819
0.709111
0.109536
-0.116944
-0.828551
0.83596
0.124255
-0.130012
-0.97641
0.982166
0.135136
-0.138524
-1.14617
1.14956
0.140625
-0.140834
-1.34043
1.34064
0.138958
-0.135028
-1.56256
1.55863
0.129302
-0.12197
-1.51988
1.51255
0.114719
-0.106498
-1.23946
1.23124
0.0989319
-0.0907412
-1.01647
1.00828
0.0834628
-0.0758032
-0.836895
0.829235
0.0691517
-0.0622796
-0.691167
0.684295
0.0563384
-0.0500805
-0.570491
0.564233
0.0442348
-0.0372266
-0.4572
0.450192
0.0300525
-0.0215612
-0.316949
0.308458
0.0138368
-0.00645725
-0.150561
0.143181
0.00189084
-0.0209166
0.0190257
-0.0774257
0.0808355
-0.00340984
0.0244758
-0.035605
-0.372935
0.384064
0.0456254
-0.053539
-0.504089
0.512002
0.0624963
-0.0720862
-0.607728
0.617317
0.0827272
-0.092276
-0.717134
0.726683
0.10293
-0.112356
-0.842621
0.852047
0.122143
-0.13053
-0.986999
0.995386
0.138856
-0.145505
-1.1519
1.15855
0.151386
-0.15518
-1.33972
1.34351
0.157111
-0.156328
-1.55349
1.55271
0.152701
-0.146633
-1.50412
1.49806
0.139537
-0.130551
-1.22216
1.21317
0.121776
-0.111272
-0.999326
0.988821
0.10166
-0.0911251
-0.820669
0.810134
0.0817407
-0.0718145
-0.676146
0.66622
0.0628137
-0.0534724
-0.556308
0.546967
0.0451014
-0.0350133
-0.44224
0.432152
0.0254445
-0.0157505
-0.29993
0.290236
0.00844271
-0.00304916
-0.136541
0.131147
0.000544481
-0.0174463
0.0169018
-0.0880078
0.0849145
0.00309331
0.00162742
-0.00808598
-0.397982
0.404441
0.0160337
-0.0226803
-0.524731
0.531377
0.0312101
-0.03961
-0.627378
0.635778
0.0492345
-0.0580284
-0.736188
0.744982
0.0673999
-0.075903
-0.860993
0.869496
0.0847486
-0.0920572
-1.00349
1.0108
0.0995366
-0.105207
-1.16505
1.17072
0.110208
-0.113177
-1.34709
1.35006
0.114079
-0.11256
-1.55121
1.54969
0.108342
-0.101842
-1.49127
1.48477
0.0943264
-0.0850981
-1.20376
1.19453
0.076235
-0.0661213
-0.978057
0.967943
0.0566763
-0.0462321
-0.798723
0.788279
0.0369347
-0.02744
-0.654212
0.644718
0.0193606
-0.011075
-0.534861
0.526576
0.00405733
0.00246225
-0.420314
0.413794
-0.00632977
0.00781593
-0.279248
0.277762
-0.00700422
0.0044322
-0.124565
0.127137
-0.00181084
-0.0155223
0.0173332
-0.0873955
0.0839636
0.00343198
-0.0063628
0.00345009
-0.414079
0.416992
0.00157425
-0.00701172
-0.541733
0.547171
0.0140718
-0.0212709
-0.644572
0.651771
0.029479
-0.037024
-0.753294
0.760839
0.0452918
-0.0526494
-0.877371
0.884728
0.0600976
-0.0666266
-1.01797
1.0245
0.0731499
-0.0782229
-1.17604
1.18111
0.0823336
-0.0846245
-1.35249
1.35478
0.0852873
-0.0835806
-1.5477
1.54599
0.0794233
-0.0732762
-1.47797
1.47182
0.0663853
-0.0582417
-1.18554
1.17739
0.0501835
-0.0413354
-0.957886
0.949038
0.0331704
-0.0242583
-0.778275
0.769363
0.0165992
-0.00876214
-0.634463
0.626626
0.00231073
0.0041833
-0.516259
0.509765
-0.00905977
0.0129165
-0.405188
0.401331
-0.0143175
0.0126456
-0.272288
0.27396
-0.00931077
0.00515534
-0.126947
0.131103
-0.00186182
-0.0176623
0.0195241
-0.0850238
0.0817421
0.00328174
-0.00896971
0.00809702
-0.4241
0.424973
-0.00492183
0.000724182
-0.55513
0.559328
0.00535626
-0.0113668
-0.658854
0.664865
0.0183672
-0.0248245
-0.76813
0.774587
0.0318674
-0.0381709
-0.891682
0.897985
0.0449481
-0.0505318
-1.03069
1.03627
0.0563327
-0.0604647
-1.18589
1.19003
0.0641567
-0.0662288
-1.35701
1.35908
0.0667242
-0.0649647
-1.54411
1.54235
0.0614166
-0.0562007
-1.46556
1.46034
0.050331
-0.0431541
-1.16954
1.16236
0.0364561
-0.0292161
-0.940499
0.933259
0.0224829
-0.0155131
-0.761049
0.754079
0.00924864
-0.00312797
-0.618369
0.612248
-0.00179102
0.00620898
-0.501968
0.49755
-0.0091695
0.0112895
-0.395055
0.392935
-0.0116208
0.00937882
-0.270527
0.272769
-0.0066584
0.00354237
-0.131543
0.134659
-0.00127127
-0.0198437
0.021115
-0.0826848
0.079968
0.00271678
-0.00915236
0.00953055
-0.430517
0.430139
-0.00706402
0.00375324
-0.56609
0.5694
0.00113749
-0.00650346
-0.670916
0.676281
0.0123779
-0.0180524
-0.780657
0.786331
0.024152
-0.0296519
-0.903961
0.909461
0.0355307
-0.0405897
-1.04182
1.04687
0.0456226
-0.0495716
-1.19415
1.1981
0.0529252
-0.0548537
-1.36097
1.3629
0.0554111
-0.0539558
-1.54066
1.53921
0.050959
-0.0463488
-1.45482
1.45021
0.041355
-0.0354197
-1.15558
1.14965
0.0298283
-0.0237126
-0.926224
0.920108
0.0182775
-0.0126017
-0.747342
0.741666
0.00773798
-0.00293203
-0.606035
0.601229
-0.000792468
0.00403677
-0.49168
0.488436
-0.00625465
0.00759585
-0.388359
0.387017
-0.00750798
0.00597894
-0.269833
0.271362
-0.00420254
0.00218251
-0.134173
0.136193
-0.000850852
-0.0209688
0.0218196
-0.0808004
0.0785409
0.00225956
-0.00840885
0.00898043
-0.43464
0.434068
-0.0075532
0.00474412
-0.574688
0.577498
-0.000178073
-0.00440955
-0.681213
0.685801
0.00949626
-0.0144515
-0.79149
0.796445
0.0198989
-0.0248516
-0.91472
0.919673
0.0302943
-0.0348176
-1.05174
1.05626
0.0394849
-0.0431977
-1.20191
1.20562
0.0463504
-0.0482166
-1.36475
1.36661
0.0488522
-0.0480039
-1.53787
1.53702
0.04542
-0.0415964
-1.44543
1.44161
0.0372804
-0.0321612
-1.14384
1.13873
0.0275788
-0.0222622
-0.914223
0.908906
0.0176231
-0.0129469
-0.736226
0.73155
0.00888529
-0.00486328
-0.596429
0.592407
0.00169958
0.00121139
-0.483882
0.480971
-0.00288944
0.00399596
-0.383226
0.382119
-0.00436205
0.00360354
-0.26842
0.269178
-0.00255486
0.00140178
-0.134794
0.135947
-0.000588021
-0.0213427
0.0219307
-0.0794418
0.0776988
0.001743
-0.00709898
0.00783244
-0.437588
0.436854
-0.00655654
0.00434006
-0.5823
0.584517
-0.000236309
-0.00390994
-0.690197
0.694343
0.00875525
-0.0130611
-0.801222
0.805527
0.0178966
-0.0223448
-0.92469
0.929138
0.0275754
-0.0317714
-1.06089
1.06508
0.0360413
-0.0396918
-1.20924
1.2129
0.0431676
-0.0450824
-1.36865
1.37056
0.0460227
-0.0454025
-1.53598
1.53536
0.0435055
-0.0399512
-1.43774
1.43419
0.0362858
-0.0318705
-1.13362
1.1292
0.0276783
-0.023098
-0.903789
0.899209
0.0189114
-0.014555
-0.726748
0.722392
0.0111319
-0.00742506
-0.588173
0.584466
0.00442636
-0.00186725
-0.477067
0.474507
6.79881e-05
0.00127595
-0.37871
0.377366
-0.00185928
0.00179425
-0.266304
0.266369
-0.00138268
0.000844003
-0.134024
0.134563
-0.00041717
-0.0212566
0.0216737
-0.0786781
0.0773035
0.0013746
-0.00577198
0.00658938
-0.439889
0.439071
-0.00536835
0.00314319
-0.588904
0.591129
0.000604751
-0.00433211
-0.698303
0.70203
0.00852824
-0.0127051
-0.809951
0.814127
0.0172109
-0.0218192
-0.933487
0.938095
0.0263927
-0.0304623
-1.06943
1.0735
0.0349312
-0.0384401
-1.2165
1.22001
0.0415873
-0.0440448
-1.3725
1.37496
0.0453298
-0.0451408
-1.53494
1.53475
0.04354
-0.0406404
-1.4309
1.428
0.0373465
-0.0332722
-1.12453
1.12046
0.0294352
-0.0251277
-0.894538
0.89023
0.0212068
-0.0172468
-0.718071
0.714111
0.0137156
-0.01024
-0.580508
0.577032
0.00743452
-0.00470176
-0.470972
0.468239
0.00271086
-0.00134135
-0.373957
0.372588
0.000361284
0.000256137
-0.263339
0.262721
-0.000469459
0.000440317
-0.132338
0.132367
-0.000299711
-0.0208849
0.0211846
-0.078479
0.077321
0.00115794
-0.00434392
0.00494253
-0.442013
0.441414
-0.00392215
0.00164776
-0.594913
0.597187
0.0017813
-0.00536049
-0.705862
0.709442
0.00939835
-0.0132104
-0.818244
0.822056
0.0178522
-0.0217294
-0.94223
0.946107
0.0262983
-0.0302273
-1.07778
1.08171
0.0346337
-0.0383835
-1.22356
1.2273
0.0418771
-0.0442108
-1.37724
1.37957
0.04594
-0.0462433
-1.5346
1.5349
0.045316
-0.0427147
-1.42504
1.42244
0.0397708
-0.0359441
-1.11644
1.11261
0.0323101
-0.0280832
-0.885672
0.881446
0.0243442
-0.0203138
-0.709849
0.705818
0.0168067
-0.0132521
-0.573212
0.569657
0.0102611
-0.00759003
-0.464733
0.462062
0.00533831
-0.00359612
-0.36898
0.367238
0.00221165
-0.00113945
-0.259562
0.25849
0.00042334
0.0001116
-0.129873
0.129338
-0.000201403
-0.020261
0.0204624
-0.0785519
0.0777239
0.000827981
-0.00311337
0.00326342
-0.444324
0.444174
-0.00244049
0.000145676
-0.60019
0.602485
0.0030085
-0.0064398
-0.712916
0.716348
0.0103056
-0.0142434
-0.825849
0.829787
0.0183085
-0.0223467
-0.950244
0.954283
0.0268943
-0.0306436
-1.0861
1.08985
0.0351666
-0.0389105
-1.23092
1.23466
0.0425206
-0.0454308
-1.38236
1.38527
0.0477056
-0.0483465
-1.53532
1.53596
0.0476899
-0.045735
-1.42001
1.41805
0.0432
-0.0395422
-1.10858
1.10493
0.0359468
-0.0319753
-0.877042
0.873071
0.0279113
-0.0239724
-0.701453
0.697514
0.0203809
-0.0166216
-0.565935
0.562175
0.0136036
-0.0105643
-0.458322
0.455283
0.00811829
-0.00582558
-0.36374
0.361447
0.00418459
-0.00263891
-0.255102
0.253556
0.00129486
-0.000267955
-0.126746
0.125719
-0.000102282
-0.0194197
0.019522
-0.0790172
0.0783363
0.000680882
-0.00213647
0.00226474
-0.446835
0.446707
-0.000920301
-0.0011994
-0.605457
0.607576
0.00442457
-0.00768517
-0.719476
0.722737
0.0113836
-0.0149373
-0.833497
0.837051
0.0191186
-0.0228578
-0.958376
0.962115
0.0273647
-0.0315451
-1.09408
1.09826
0.0357474
-0.0398391
-1.2385
1.24259
0.0438996
-0.0469517
-1.38814
1.3912
0.0496562
-0.0511133
-1.5369
1.53835
0.0509152
-0.0495249
-1.41597
1.41458
0.0470846
-0.0436924
-1.1012
1.09781
0.0402979
-0.0362594
-0.868535
0.864497
0.0323101
-0.028189
-0.692975
0.688854
0.0244372
-0.0203845
-0.558109
0.554057
0.0170255
-0.0137742
-0.451548
0.448297
0.0108742
-0.00821538
-0.357762
0.355103
0.00611208
-0.00406118
-0.249836
0.247786
0.0022815
-0.000749105
-0.122951
0.121418
5.27965e-05
-0.0184069
0.0183541
-0.0797209
0.0791924
0.000528508
-0.00111308
0.00100009
-0.449511
0.449624
0.000166965
-0.00253711
-0.610326
0.612696
0.00562414
-0.00870469
-0.725744
0.728825
0.0124616
-0.0158597
-0.840645
0.844043
0.0198868
-0.0237391
-0.966356
0.970208
0.0281506
-0.0322993
-1.10234
1.10649
0.0367241
-0.0408604
-1.24666
1.25079
0.0451334
-0.0489503
-1.39459
1.39841
0.0521473
-0.0539533
-1.53983
1.54164
0.0544708
-0.0533992
-1.41312
1.41205
0.0514423
-0.0484226
-1.09432
1.0913
0.0449208
-0.0408834