/*--------------------------------*- C++ -*----------------------------------*\
| =========                 |                                                 |
| \\      /  F ield         | OpenFOAM: The Open Source CFD Toolbox           |
|  \\    /   O peration     | Version:  2112                                  |
|   \\  /    A nd           | Website:  www.openfoam.com                      |
|    \\/     M anipulation  |                                                 |
\*---------------------------------------------------------------------------*/
FoamFile
{
    version     2.0;
    format      ascii;
    arch        "LSB;label=32;scalar=64";
    class       volVectorField;
    location    "14.5";
    object      U;
}
// * * * * * * * * * * * * * * * * * * * * * * * * * * * * * * * * * * * * * //

dimensions      [0 1 -1 0 0 0 0];

internalField   nonuniform List<vector> 
8800
(
(0.980048 -0.0915161 0)
(1.00234 -0.0587747 0)
(0.999644 -0.0321463 0)
(1.00001 -0.0165033 0)
(0.999994 -0.00877639 0)
(1.00001 -0.00502015 0)
(1.00004 -0.0029401 0)
(1.00004 -0.00166367 0)
(1.00004 -0.000805268 0)
(1.00005 -0.00012544 0)
(1.00004 0.000545538 0)
(1.00003 0.00128968 0)
(1.00004 0.00231221 0)
(1.00003 0.00391242 0)
(0.999988 0.00665342 0)
(1.00003 0.011998 0)
(0.999913 0.0230963 0)
(0.999132 0.0431963 0)
(1.00713 0.0790599 0)
(0.775002 0.0478425 0)
(0.359178 -0.0147365 0)
(1.04661 -0.0723395 0)
(1.08845 -0.0658408 0)
(1.04936 -0.0506652 0)
(1.02552 -0.0374369 0)
(1.0128 -0.0257265 0)
(1.00663 -0.0165457 0)
(1.00367 -0.0100704 0)
(1.0022 -0.00554002 0)
(1.0015 -0.00208886 0)
(1.00137 0.00097887 0)
(1.00176 0.00415292 0)
(1.00278 0.00798666 0)
(1.00486 0.0133256 0)
(1.00913 0.021073 0)
(1.01805 0.0315079 0)
(1.03586 0.0442505 0)
(1.0674 0.0577882 0)
(1.09488 0.0700477 0)
(0.846011 0.0554466 0)
(0.218249 -0.00136029 0)
(1.07602 -0.050291 0)
(1.09978 -0.0485351 0)
(1.06465 -0.0395216 0)
(1.03983 -0.0319307 0)
(1.02348 -0.0246591 0)
(1.01372 -0.0176451 0)
(1.00824 -0.0113139 0)
(1.00544 -0.00581259 0)
(1.00438 -0.000755015 0)
(1.00467 0.00412555 0)
(1.00647 0.00924102 0)
(1.01039 0.0150377 0)
(1.01771 0.0216118 0)
(1.03045 0.0287133 0)
(1.05076 0.0359513 0)
(1.08064 0.0439279 0)
(1.10628 0.0513857 0)
(0.944229 0.0407262 0)
(0.21793 0.00137263 0)
(0.177656 -0.000600834 0)
(1.02056 -0.0347704 0)
(1.10581 -0.0405318 0)
(1.07799 -0.0357103 0)
(1.05244 -0.0297943 0)
(1.03511 -0.0238884 0)
(1.02318 -0.0180669 0)
(1.01536 -0.0122383 0)
(1.01075 -0.00650972 0)
(1.00871 -0.000773524 0)
(1.00931 0.00488451 0)
(1.01247 0.0104619 0)
(1.0185 0.0161094 0)
(1.02819 0.0217698 0)
(1.04254 0.0274687 0)
(1.06346 0.0333258 0)
(1.0942 0.0390377 0)
(1.09542 0.0406449 0)
(0.83304 0.0222273 0)
(0.177119 0.000611615 0)
(0.156584 -0.000434527 0)
(0.961474 -0.0243827 0)
(1.10513 -0.0331188 0)
(1.08777 -0.0303722 0)
(1.06081 -0.0259566 0)
(1.04277 -0.0213957 0)
(1.03029 -0.0166057 0)
(1.02161 -0.011658 0)
(1.01601 -0.00639942 0)
(1.0134 -0.000589087 0)
(1.01413 0.00531137 0)
(1.01806 0.0106522 0)
(1.025 0.0155357 0)
(1.03534 0.0201786 0)
(1.05021 0.0246401 0)
(1.07217 0.0288933 0)
(1.10186 0.0330259 0)
(1.07251 0.03185 0)
(0.748806 0.0134941 0)
(0.155792 0.000446347 0)
(0.14329 -0.000295025 0)
(0.90852 -0.0171639 0)
(1.09854 -0.0269748 0)
(1.09607 -0.0260524 0)
(1.06802 -0.0225931 0)
(1.04848 -0.0190356 0)
(1.03537 -0.0151008 0)
(1.02647 -0.0105973 0)
(1.02071 -0.00562778 0)
(1.01795 -0.000192056 0)
(1.01861 0.00521926 0)
(1.02261 0.0102075 0)
(1.02964 0.0146684 0)
(1.04027 0.0185946 0)
(1.05619 0.0220452 0)
(1.07984 0.0252837 0)
(1.10489 0.0279559 0)
(1.04385 0.0246591 0)
(0.687868 0.00879999 0)
(0.142186 0.000308765 0)
(0.134493 -0.000216953 0)
(0.865825 -0.0113175 0)
(1.08772 -0.0205873 0)
(1.10054 -0.0211694 0)
(1.07352 -0.0189419 0)
(1.05387 -0.016233 0)
(1.0404 -0.0130177 0)
(1.03096 -0.00926429 0)
(1.02477 -0.00486935 0)
(1.02166 0.000210492 0)
(1.02238 0.00533273 0)
(1.02658 0.00978789 0)
(1.03401 0.0134997 0)
(1.04509 0.0165992 0)
(1.06117 0.0192392 0)
(1.08489 0.0213606 0)
(1.10432 0.0225627 0)
(1.01479 0.0179482 0)
(0.645222 0.0055726 0)
(0.133012 0.000235598 0)
(0.129523 -9.04777e-05 0)
(0.835744 -0.00600157 0)
(1.07481 -0.0134397 0)
(1.1017 -0.015152 0)
(1.07736 -0.0139653 0)
(1.05802 -0.0121748 0)
(1.04476 -0.0098362 0)
(1.03558 -0.00692409 0)
(1.02948 -0.00342577 0)
(1.02634 0.000822199 0)
(1.02688 0.00516902 0)
(1.03088 0.00866069 0)
(1.03797 0.0113719 0)
(1.04873 0.0134723 0)
(1.06448 0.0150115 0)
(1.08768 0.0162422 0)
(1.10028 0.0161116 0)
(0.989037 0.0110464 0)
(0.618939 0.00282797 0)
(0.127588 0.000112715 0)
(0.127843 9.03976e-06 0)
(0.817759 -0.00264745 0)
(1.06308 -0.00781681 0)
(1.10095 -0.00958844 0)
(1.07919 -0.00931252 0)
(1.05978 -0.00836823 0)
(1.04667 -0.00709913 0)
(1.03756 -0.00508488 0)
(1.03153 -0.00224116 0)
(1.0285 0.00143309 0)
(1.02878 0.00517043 0)
(1.03247 0.00801063 0)
(1.03932 0.00987549 0)
(1.04979 0.0109443 0)
(1.06561 0.0115563 0)
(1.08826 0.0115327 0)
(1.09467 0.0107651 0)
(0.969565 0.00630198 0)
(0.605001 0.00124842 0)
(0.125345 2.07026e-05 0)
(0.127689 2.73955e-05 0)
(0.806671 -0.00147379 0)
(1.05303 -0.00569582 0)
(1.09931 -0.00811068 0)
(1.07988 -0.00845071 0)
(1.06159 -0.00789852 0)
(1.04917 -0.0066415 0)
(1.04078 -0.00464057 0)
(1.0352 -0.00169336 0)
(1.03225 0.00206334 0)
(1.03228 0.0057725 0)
(1.0354 0.00862671 0)
(1.04145 0.0103863 0)
(1.05111 0.0112268 0)
(1.06561 0.0113596 0)
(1.0871 0.0108269 0)
(1.08824 0.00917837 0)
(0.954525 0.00460468 0)
(0.596823 0.00081135 0)
(0.124485 4.80673e-06 0)
(0.127798 2.23474e-05 0)
(0.798208 -0.000968675 0)
(1.04193 -0.00493762 0)
(1.0954 -0.00879294 0)
(1.0797 -0.0099034 0)
(1.06264 -0.0097365 0)
(1.05107 -0.00821717 0)
(1.04328 -0.00556054 0)
(1.03804 -0.00182148 0)
(1.03499 0.00274852 0)
(1.03477 0.00720031 0)
(1.03737 0.0106631 0)
(1.04267 0.0129468 0)
(1.05134 0.0141002 0)
(1.06478 0.0139172 0)
(1.08451 0.0128213 0)
(1.07894 0.00946999 0)
(0.940435 0.00404209 0)
(0.590388 0.000739838 0)
(0.123739 1.93093e-05 0)
(0.128005 1.90572e-05 0)
(0.791859 -0.000409659 0)
(1.02956 -0.00369694 0)
(1.08781 -0.00855863 0)
(1.07846 -0.0112614 0)
(1.06417 -0.0111369 0)
(1.05424 -0.00933683 0)
(1.04729 -0.00604218 0)
(1.04228 -0.00163803 0)
(1.03909 0.00366454 0)
(1.03853 0.00883666 0)
(1.04058 0.0128475 0)
(1.04505 0.0154993 0)
(1.05234 0.0167692 0)
(1.06341 0.016554 0)
(1.0783 0.0141711 0)
(1.06557 0.00903381 0)
(0.92697 0.00335622 0)
(0.585006 0.000668853 0)
(0.122872 3.10915e-05 0)
(0.12844 2.99341e-05 0)
(0.788276 0.000187722 0)
(1.01882 -0.00178493 0)
(1.07823 -0.00598315 0)
(1.07553 -0.00913641 0)
(1.06525 -0.00966367 0)
(1.05757 -0.00794798 0)
(1.05143 -0.00468384 0)
(1.0466 -0.000284577 0)
(1.04331 0.00501901 0)
(1.04228 0.0101143 0)
(1.04372 0.0138755 0)
(1.04715 0.0161781 0)
(1.05257 0.0170133 0)
(1.06116 0.0162892 0)
(1.0691 0.0127806 0)
(1.05116 0.00727988 0)
(0.915938 0.00256331 0)
(0.580765 0.000595225 0)
(0.121972 3.5059e-05 0)
(0.129236 4.08877e-05 0)
(0.787729 0.000762331 0)
(1.01227 0.000137037 0)
(1.07057 -0.00235839 0)
(1.07195 -0.00459852 0)
(1.06608 -0.00520819 0)
(1.06038 -0.00406426 0)
(1.05517 -0.00144269 0)
(1.05063 0.00232087 0)
(1.04716 0.00687989 0)
(1.04556 0.0110537 0)
(1.0462 0.0138132 0)
(1.04842 0.0151159 0)
(1.05206 0.0149444 0)
(1.05673 0.0131663 0)
(1.06006 0.00978154 0)
(1.03941 0.00539384 0)
(0.908044 0.00206256 0)
(0.577325 0.000590644 0)
(0.121064 3.78097e-05 0)
(0.130373 5.56195e-05 0)
(0.789111 0.00119188 0)
(1.00988 0.00156947 0)
(1.06642 0.000666864 0)
(1.06986 -0.000367421 0)
(1.06649 -0.000515634 0)
(1.06245 0.000479317 0)
(1.05816 0.00259662 0)
(1.0539 0.00564226 0)
(1.05017 0.00918399 0)
(1.04783 0.0121207 0)
(1.04752 0.0135956 0)
(1.04837 0.0136714 0)
(1.05016 0.012622 0)
(1.05231 0.0105113 0)
(1.0528 0.00756777 0)
(1.03111 0.00436325 0)
(0.902336 0.00199811 0)
(0.574034 0.000683768 0)
(0.120046 4.58882e-05 0)
(0.13185 7.02895e-05 0)
(0.792273 0.00159943 0)
(1.01047 0.00262324 0)
(1.0654 0.00291459 0)
(1.06958 0.00296232 0)
(1.06743 0.00348447 0)
(1.06434 0.00473648 0)
(1.06059 0.00671793 0)
(1.05644 0.00927971 0)
(1.05228 0.011956 0)
(1.0491 0.0137611 0)
(1.04758 0.0140955 0)
(1.04718 0.0133057 0)
(1.04751 0.0115627 0)
(1.04808 0.00929808 0)
(1.0471 0.00673241 0)
(1.02506 0.00422433 0)
(0.897451 0.00226052 0)
(0.570316 0.000851245 0)
(0.11879 5.92782e-05 0)
(0.133731 8.79573e-05 0)
(0.796862 0.00204178 0)
(1.01302 0.0036016 0)
(1.0667 0.00466075 0)
(1.07102 0.00557128 0)
(1.0693 0.00686223 0)
(1.06652 0.0086584 0)
(1.06289 0.0108335 0)
(1.05853 0.013222 0)
(1.05367 0.0153213 0)
(1.04943 0.0161993 0)
(1.04673 0.0155367 0)
(1.04515 0.0140066 0)
(1.04437 0.0118568 0)
(1.04396 0.00945711 0)
(1.04222 0.00702313 0)
(1.0199 0.00473046 0)
(0.892385 0.00275256 0)
(0.565767 0.00107958 0)
(0.1172 7.73982e-05 0)
(0.136122 0.000111057 0)
(0.802974 0.00259821 0)
(1.0174 0.00467085 0)
(1.06984 0.00632005 0)
(1.07404 0.00797812 0)
(1.07226 0.0100744 0)
(1.06934 0.0125439 0)
(1.06545 0.0151905 0)
(1.06049 0.017701 0)
(1.05461 0.0194908 0)
(1.04908 0.0196668 0)
(1.04511 0.0182547 0)
(1.04246 0.0159807 0)
(1.04078 0.0133571 0)
(1.03966 0.0107015 0)
(1.03743 0.00814701 0)
(1.01469 0.00572558 0)
(0.88652 0.00344916 0)
(0.560072 0.0013676 0)
(0.115192 9.95944e-05 0)
(0.139189 0.000141904 0)
(0.810913 0.00331307 0)
(1.02357 0.00600486 0)
(1.07473 0.00830179 0)
(1.07847 0.0106563 0)
(1.07635 0.0135883 0)
(1.07301 0.016861 0)
(1.06847 0.0201684 0)
(1.06255 0.0230311 0)
(1.05528 0.0246949 0)
(1.04818 0.0242761 0)
(1.04281 0.0221009 0)
(1.03907 0.019092 0)
(1.03654 0.0158779 0)
(1.03482 0.0127963 0)
(1.03216 0.00991794 0)
(1.0088 0.00714703 0)
(0.879545 0.00435006 0)
(0.55297 0.00171237 0)
(0.112682 0.000123603 0)
(0.1432 0.000189696 0)
(0.821228 0.00430311 0)
(1.03159 0.0078195 0)
(1.08122 0.0108312 0)
(1.08441 0.0139826 0)
(1.08174 0.0178471 0)
(1.07771 0.0221134 0)
(1.07215 0.0262181 0)
(1.06481 0.029538 0)
(1.05572 0.0311838 0)
(1.04671 0.0301934 0)
(1.03976 0.0271807 0)
(1.03483 0.0233152 0)
(1.03144 0.0193325 0)
(1.02911 0.0156211 0)
(1.026 0.0122184 0)
(1.00186 0.00889384 0)
(0.871006 0.00544852 0)
(0.544186 0.00215669 0)
(0.109554 0.000153036 0)
(0.14851 0.000263053 0)
(0.834665 0.00572157 0)
(1.04195 0.0103356 0)
(1.08966 0.0142047 0)
(1.09212 0.018329 0)
(1.08867 0.0233511 0)
(1.08352 0.0287079 0)
(1.07645 0.0337087 0)
(1.0672 0.037616 0)
(1.05583 0.0392786 0)
(1.04454 0.0376473 0)
(1.03576 0.0336581 0)
(1.02952 0.0287533 0)
(1.02519 0.02379 0)
(1.0222 0.0192255 0)
(1.01859 0.0151046 0)
(0.993468 0.011073 0)
(0.860338 0.00680129 0)
(0.533298 0.00268324 0)
(0.1057 0.000188769 0)
(0.155627 0.000371132 0)
(0.852164 0.00778102 0)
(1.05531 0.0138592 0)
(1.10058 0.0188037 0)
(1.10206 0.0242288 0)
(1.09739 0.0306279 0)
(1.09061 0.0372524 0)
(1.08148 0.0433168 0)
(1.06976 0.0478338 0)
(1.05552 0.0494058 0)
(1.04149 0.0469468 0)
(1.03061 0.041769 0)
(1.02285 0.0356053 0)
(1.01745 0.0294361 0)
(1.01373 0.0237908 0)
(1.00954 0.0187447 0)
(0.983168 0.0138305 0)
(0.847096 0.00852747 0)
(0.519709 0.00334907 0)
(0.100955 0.000234523 0)
(0.165322 0.000531901 0)
(0.874953 0.0107625 0)
(1.07255 0.0186791 0)
(1.11479 0.0249804 0)
(1.11481 0.0320942 0)
(1.10844 0.0402566 0)
(1.09944 0.0484717 0)
(1.08752 0.0557187 0)
(1.07254 0.0607604 0)
(1.05473 0.0620141 0)
(1.03745 0.0584274 0)
(1.02411 0.0517739 0)
(1.01457 0.0440926 0)
(1.0079 0.0364783 0)
(1.00328 0.0295264 0)
(0.998372 0.0233391 0)
(0.970429 0.0173304 0)
(0.830795 0.0107408 0)
(0.502929 0.00417782 0)
(0.095159 0.000287692 0)
(0.178898 0.000805858 0)
(0.905181 0.0153694 0)
(1.09506 0.0256931 0)
(1.13331 0.0338277 0)
(1.13109 0.0431697 0)
(1.12222 0.0534713 0)
(1.11008 0.0633992 0)
(1.09444 0.0717107 0)
(1.07535 0.0770038 0)
(1.05325 0.0775459 0)
(1.0322 0.0724252 0)
(1.01604 0.0639592 0)
(1.00444 0.0544784 0)
(0.996238 0.0451642 0)
(0.990477 0.0366709 0)
(0.984597 0.02912 0)
(0.954652 0.0217826 0)
(0.810696 0.0135712 0)
(0.482461 0.00523037 0)
(0.0881576 0.000343933 0)
(0.198621 0.00129893 0)
(0.946173 0.0229665 0)
(1.12504 0.0366249 0)
(1.15756 0.0472492 0)
(1.15149 0.0593271 0)
(1.1387 0.0719773 0)
(1.12212 0.0834393 0)
(1.10168 0.0923595 0)
(1.07764 0.0972743 0)
(1.05062 0.0964429 0)
(1.02537 0.0892567 0)
(1.00609 0.0786238 0)
(0.992166 0.0670946 0)
(0.982159 0.0558649 0)
(0.974964 0.045611 0)
(0.96775 0.036476 0)
(0.935121 0.0275771 0)
(0.785778 0.0173124 0)
(0.457385 0.00663268 0)
(0.0797023 0.000414844 0)
(0.22801 0.00241667 0)
(1.00368 0.036652 0)
(1.16478 0.0551394 0)
(1.18861 0.0688172 0)
(1.17618 0.0837201 0)
(1.15744 0.0981805 0)
(1.13485 0.110277 0)
(1.1085 0.118761 0)
(1.07875 0.12223 0)
(1.04633 0.119075 0)
(1.0166 0.109167 0)
(0.994001 0.0960123 0)
(0.97753 0.0822622 0)
(0.965456 0.0690309 0)
(0.956488 0.0569277 0)
(0.947411 0.0460904 0)
(0.910842 0.0354294 0)
(0.75478 0.0225103 0)
(0.427134 0.00859753 0)
(0.07001 0.000462233 0)
(0.268844 0.00931008 -1.81292e-20)
(1.08075 0.0647782 -1.43259e-20)
(1.21283 0.0871981 4.20926e-21)
(1.22391 0.104239 0)
(1.20284 0.120325 3.37274e-35)
(1.17657 0.134531 -3.14787e-22)
(1.14687 0.145501 -5.08415e-22)
(1.11386 0.152151 0)
(1.07788 0.153172 3.42631e-35)
(1.03957 0.147007 -2.88195e-21)
(1.00485 0.134032 0)
(0.978406 0.118282 -4.41556e-21)
(0.958806 0.102389 -1.36643e-20)
(0.943991 0.0873583 -6.66255e-21)
(0.932434 0.073812 -2.12525e-21)
(0.920414 0.0617515 -1.29419e-21)
(0.879731 0.0496935 0)
(0.714522 0.0331624 9.36178e-22)
(0.390184 0.0149876 1.11113e-21)
(0.0609571 0.00197831 1.9656e-20)
(0.294542 0.026141 -2.93301e-20)
(1.14199 0.110766 5.07903e-22)
(1.25537 0.135871 -1.80697e-21)
(1.25578 0.153229 0)
(1.2267 0.1677 3.87976e-21)
(1.19306 0.180052 3.03801e-21)
(1.15637 0.189061 1.01999e-24)
(1.11663 0.193565 -3.5633e-21)
(1.0741 0.192221 0)
(1.02919 0.183383 1.21712e-20)
(0.988349 0.167824 1.40191e-20)
(0.956712 0.150037 4.62384e-21)
(0.932628 0.132622 1.87272e-20)
(0.913763 0.116386 2.80025e-20)
(0.89834 0.10188 0)
(0.881862 0.0891553 4.22482e-20)
(0.835848 0.0761215 6.21733e-20)
(0.67176 0.0558774 6.95251e-20)
(0.364774 0.0299412 -8.09679e-20)
(0.0571851 0.00492637 -1.47386e-21)
(0.289538 0.0423037 0)
(1.17688 0.169675 -8.53801e-21)
(1.28737 0.197453 0)
(1.28067 0.212076 1.48325e-20)
(1.2453 0.222989 0)
(1.20533 0.231856 9.95771e-21)
(1.16238 0.237584 -8.7492e-22)
(1.1165 0.238934 -3.5201e-21)
(1.0679 0.234482 -1.54112e-21)
(1.01693 0.222619 5.71935e-21)
(0.970542 0.204516 3.3259e-20)
(0.934373 0.185084 -2.72642e-22)
(0.906485 0.166836 -1.41826e-20)
(0.884257 0.150393 -2.80008e-20)
(0.865812 0.136077 3.42088e-20)
(0.846932 0.123761 -6.16965e-20)
(0.802517 0.110757 -8.52895e-21)
(0.656043 0.0866414 0)
(0.373745 0.0502516 1.87021e-22)
(0.064825 0.00927536 0)
(0.279331 0.0562046 -2.07439e-19)
(1.19266 0.231593 8.59033e-20)
(1.30753 0.263647 4.66012e-20)
(1.29691 0.275559 -9.36325e-21)
(1.25715 0.28256 1.44417e-20)
(1.21252 0.287358 -2.29826e-20)
(1.16459 0.289215 -2.81821e-21)
(1.11356 0.286857 0)
(1.05973 0.278867 -1.96294e-20)
(1.00347 0.263651 0)
(0.952369 0.242946 -1.67539e-20)
(0.912528 0.221981 -2.45809e-20)
(0.881839 0.203097 -1.59838e-20)
(0.857476 0.186657 -2.09598e-20)
(0.837477 0.172732 0)
(0.817964 0.161111 0)
(0.777347 0.148511 -5.75228e-20)
(0.647112 0.121523 1.15222e-20)
(0.381328 0.0730668 -6.71757e-21)
(0.07062 0.0139535 -7.87459e-21)
(0.269432 0.0686027 1.50717e-19)
(1.19633 0.292806 0)
(1.3183 0.330536 -1.28466e-19)
(1.30549 0.340183 -3.4311e-20)
(1.26273 0.343376 -2.77778e-20)
(1.21467 0.344195 0)
(1.1629 0.342163 -6.63287e-21)
(1.10775 0.335987 1.59492e-21)
(1.0496 0.324283 7.60438e-21)
(0.988905 0.305536 2.96005e-20)
(0.933985 0.28202 0)
(0.89146 0.259288 -5.35678e-20)
(0.858991 0.23951 -3.48519e-20)
(0.833484 0.222803 -2.11163e-20)
(0.812826 0.209029 1.40732e-19)
(0.793533 0.197723 1.73728e-20)
(0.756626 0.184924 8.33629e-20)
(0.637043 0.154415 -4.04692e-19)
(0.381938 0.0938695 2.40843e-19)
(0.0726531 0.0181288 -2.91404e-19)
(0.260863 0.0797095 1.57379e-19)
(1.19235 0.351327 -2.94245e-20)
(1.32203 0.396209 2.22339e-20)
(1.30799 0.404016 6.15591e-20)
(1.2631 0.403676 3.92265e-20)
(1.2125 0.400784 1.63884e-21)
(1.1578 0.395024 6.59157e-21)
(1.09932 0.385167 -1.04829e-21)
(1.03758 0.369796 -1.68909e-20)
(0.973231 0.347432 0)
(0.915118 0.320846 -2.26124e-20)
(0.870422 0.296062 -1.48226e-21)
(0.836662 0.275033 -3.92103e-20)
(0.810494 0.257651 0)
(0.78969 0.24351 -3.07363e-20)
(0.770998 0.231939 -7.50912e-20)
(0.737059 0.218391 2.09053e-19)
(0.624408 0.183846 -2.09026e-19)
(0.377215 0.111887 2.97508e-19)
(0.0724141 0.0216262 -3.10183e-19)
(0.253951 0.0899814 -4.37628e-22)
(1.18377 0.406672 3.55305e-20)
(1.32058 0.45954 1.05178e-19)
(1.30592 0.465967 -3.71248e-20)
(1.25949 0.462459 2.21891e-20)
(1.20691 0.456194 0)
(1.14986 0.446976 1.29586e-20)
(1.08865 0.433618 3.01143e-21)
(1.02384 0.414727 -6.79382e-21)
(0.95623 0.388749 0)
(0.8954 0.358929 -2.16274e-20)
(0.849035 0.331755 -3.15871e-20)
(0.814435 0.309033 4.29721e-20)
(0.788007 0.290461 -2.78833e-20)
(0.767338 0.275485 -1.35616e-19)
(0.749287 0.263195 8.38762e-20)
(0.717407 0.248546 2.679e-20)
(0.609289 0.209661 0)
(0.368812 0.127191 -2.89237e-19)
(0.0708205 0.0244866 -1.06297e-20)
(0.24853 0.0997333 2.54487e-20)
(1.17256 0.458715 -4.05861e-20)
(1.31532 0.519953 -5.73217e-20)
(1.30035 0.52542 -1.14748e-19)
(1.25277 0.519153 1.05803e-19)
(1.19868 0.509874 -6.03168e-20)
(1.13974 0.497482 -2.7502e-20)
(1.07625 0.480878 5.70347e-21)
(1.00877 0.458646 9.49851e-21)
(0.938301 0.429143 -7.18421e-20)
(0.875199 0.396003 -2.73019e-20)
(0.827388 0.366135 0)
(0.792092 0.341295 4.70938e-20)
(0.765491 0.321107 5.87172e-20)
(0.745037 0.304916 7.27957e-20)
(0.727592 0.291598 -9.16492e-20)
(0.697097 0.275335 -2.76855e-20)
(0.59214 0.232143 3.29093e-20)
(0.357823 0.139895 0)
(0.0683611 0.0267223 -2.31983e-20)
(0.244354 0.109114 -2.93157e-19)
(1.16006 0.507616 1.84993e-19)
(1.30726 0.577236 6.28069e-20)
(1.29223 0.582084 -8.69146e-20)
(1.24379 0.573418 6.23836e-20)
(1.18853 0.561471 -3.83582e-21)
(1.12804 0.546238 2.78467e-20)
(1.06264 0.526671 1.49479e-21)
(0.992901 0.501308 -1.2581e-20)
(0.919786 0.468418 1.46246e-22)
(0.8544 0.431908 -8.01675e-20)
(0.805197 0.399107 8.16568e-20)
(0.769231 0.371829 -5.30712e-20)
(0.742518 0.349659 6.66067e-20)
(0.722341 0.331891 0)
(0.705456 0.317252 -4.98383e-20)
(0.675911 0.299118 -1.3161e-21)
(0.573378 0.251455 -1.44144e-19)
(0.344944 0.150399 -2.1335e-20)
(0.0651857 0.0283176 0)
(0.241205 0.118211 0)
(1.14704 0.553662 2.00083e-19)
(1.29721 0.631335 1.45357e-19)
(1.28225 0.635814 9.7512e-20)
(1.23314 0.625069 6.09327e-20)
(1.17694 0.61076 0)
(1.11522 0.593009 2.24199e-20)
(1.0482 0.570781 -1.22322e-21)
(0.976375 0.542579 2.62902e-20)
(0.9008 0.506488 -8.33683e-21)
(0.833077 0.466605 -5.90629e-20)
(0.782446 0.430704 4.04613e-20)
(0.745745 0.400742 -1.93631e-21)
(0.71887 0.376306 7.00515e-20)
(0.698964 0.35664 4.63785e-20)
(0.682638 0.340389 -1.08775e-19)
(0.65379 0.320077 1.32185e-19)
(0.553124 0.267823 3.96163e-20)
(0.330374 0.15861 1.64005e-19)
(0.0614048 0.0292689 -4.39049e-19)
(0.238914 0.12715 -7.44377e-20)
(1.13405 0.596972 1.14794e-19)
(1.28583 0.682347 -8.94759e-20)
(1.27097 0.686625 -1.12204e-19)
(1.22134 0.674022 0)
(1.16442 0.657625 4.9625e-20)
(1.10166 0.63767 -6.65246e-20)
(1.03319 0.613104 -8.8288e-21)
(0.959467 0.582368 0)
(0.881537 0.543371 -1.33684e-19)
(0.811422 0.500194 1.61432e-19)
(0.759163 0.461018 0)
(0.72159 0.428142 6.31388e-20)
(0.694433 0.401185 -1.96086e-21)
(0.674778 0.379324 -1.46717e-19)
(0.658974 0.361165 5.7733e-20)
(0.630585 0.338395 0)
(0.531385 0.281303 2.15034e-19)
(0.314171 0.16449 0)
(0.0570685 0.0295637 -2.09743e-19)
(0.237287 0.135938 8.26824e-20)
(1.12137 0.637811 1.30535e-19)
(1.27369 0.730327 -9.38499e-20)
(1.25881 0.734501 0)
(1.2088 0.720268 8.18977e-20)
(1.1513 0.702042 0)
(1.0877 0.680165 8.32093e-20)
(1.018 0.653578 1.19826e-20)
(0.942532 0.620645 7.32811e-22)
(0.862221 0.579026 -6.59537e-20)
(0.789596 0.532738 1.53546e-20)
(0.735409 0.490258 0)
(0.69682 0.45421 -1.34305e-19)
(0.669289 0.424429 2.04157e-21)
(0.649794 0.400143 0)
(0.634297 0.379738 2.43508e-21)
(0.606082 0.354157 1.95426e-19)
(0.507903 0.291816 -1.8904e-19)
(0.296263 0.167961 5.58358e-20)
(0.0521862 0.0291739 0)
(0.235974 0.144471 0)
(1.10908 0.676402 1.45422e-19)
(1.26117 0.775342 1.09254e-19)
(1.24612 0.779529 -2.16418e-21)
(1.19584 0.763837 5.03669e-20)
(1.13793 0.744023 1.16543e-19)
(1.07364 0.720488 -2.74673e-20)
(1.00287 0.692176 7.90883e-21)
(0.925775 0.657392 1.12157e-20)
(0.843083 0.613534 -1.01496e-19)
(0.767707 0.564414 -3.04769e-21)
(0.711204 0.518749 -5.39378e-20)
(0.671281 0.479361 2.20878e-19)
(0.643213 0.446431 -2.46003e-21)
(0.623638 0.41936 -1.16428e-19)
(0.608292 0.396405 -2.13637e-19)
(0.580036 0.367492 0)
(0.482608 0.299395 0)
(0.276589 0.168896 6.16361e-20)
(0.0468151 0.0280261 -3.60255e-20)
(0.235198 0.152835 1.02046e-19)
(1.09728 0.712727 -3.17243e-19)
(1.2484 0.81754 -1.16885e-19)
(1.23316 0.82177 0)
(1.18273 0.804789 -1.4793e-21)
(1.12452 0.7836 1.37688e-19)
(1.05968 0.758649 -8.74465e-20)
(0.987971 0.728889 -5.34602e-20)
(0.909379 0.692589 5.83183e-21)
(0.824313 0.646903 -7.58857e-20)
(0.745944 0.595353 -1.35802e-19)
(0.686646 0.546674 1.43709e-19)
(0.644695 0.503843 0)
(0.615744 0.467397 -5.23557e-20)
(0.596071 0.437112 -1.28365e-19)
(0.580869 0.411197 -1.55377e-19)
(0.552359 0.378434 -1.89521e-19)
(0.455199 0.303901 5.69053e-20)
(0.254993 0.166907 -3.33752e-20)
(0.0409615 0.0261023 4.61926e-22)
(0.234484 0.160922 0)
(1.08641 0.746652 0)
(1.23559 0.857046 2.39357e-21)
(1.22016 0.86131 0)
(1.16967 0.843212 -1.87293e-19)
(1.11126 0.820833 -1.20089e-19)
(1.04601 0.794674 0)
(0.973503 0.763734 -1.05378e-20)
(0.893524 0.726247 -4.2215e-21)
(0.80613 0.679151 -1.74052e-19)
(0.724567 0.62557 0)
(0.662094 0.574095 -9.19419e-20)
(0.617393 0.527707 -3.02137e-21)
(0.587011 0.487407 -2.50304e-21)
(0.567038 0.45362 1.37262e-19)
(0.551869 0.424223 -3.91348e-22)
(0.522779 0.387004 -4.13169e-19)
(0.425114 0.305166 1.24607e-19)
(0.23137 0.161992 3.70491e-20)
(0.0346335 0.0233773 0)
(0.233781 0.168715 -3.73025e-19)
(1.07598 0.778689 -1.93804e-19)
(1.22287 0.893984 -2.90383e-19)
(1.20729 0.898267 4.08995e-19)
(1.1568 0.879187 -3.49206e-19)
(1.09829 0.855792 0)
(1.03275 0.828616 -7.13505e-20)
(0.959593 0.79674 2.05956e-20)
(0.878355 0.758384 3.64905e-21)
(0.788691 0.71032 1.41995e-20)
(0.703782 0.655215 1.68213e-19)
(0.637745 0.601307 -3.12087e-20)
(0.589869 0.55153 -1.36527e-19)
(0.557195 0.507236 -6.25899e-20)
(0.536384 0.469247 7.68949e-20)
(0.521052 0.435812 -3.34643e-22)
(0.491043 0.39308 1.14029e-19)
(0.392366 0.302897 -2.7109e-19)
(0.205215 0.153551 3.23864e-19)
(0.0278752 0.0199202 4.68309e-20)
(0.232951 0.176138 1.36589e-19)
(1.06598 0.808879 -1.05715e-19)
(1.21039 0.928481 5.79366e-21)
(1.19466 0.932783 2.29821e-19)
(1.14424 0.912835 8.08803e-20)
(1.08572 0.888551 2.3822e-19)
(1.02001 0.860529 -3.04569e-20)
(0.946332 0.827929 9.52656e-20)
(0.863982 0.788996 2.86308e-20)
(0.772127 0.740373 -9.03169e-20)
(0.683816 0.684308 0)
(0.613785 0.628473 -1.41355e-19)
(0.562201 0.575671 1.98609e-19)
(0.526372 0.52729 0)
(0.503977 0.484485 -1.64696e-19)
(0.488055 0.445775 1.02967e-19)
(0.456875 0.396414 -1.2355e-19)
(0.356958 0.296662 -1.49511e-19)
(0.17731 0.141823 -2.64749e-19)
(0.0209177 0.0157981 -2.06644e-19)
(0.232252 0.183289 -1.49744e-19)
(1.05626 0.837238 1.13025e-19)
(1.1982 0.960655 2.68798e-19)
(1.18234 0.964964 3.15088e-19)
(1.13207 0.944251 -1.69549e-19)
(1.07362 0.919201 1.62784e-19)
(1.00785 0.890471 -9.52016e-20)
(0.93379 0.857348 1.1303e-19)
(0.850472 0.8181 2.36446e-20)
(0.756574 0.769323 8.12461e-20)
(0.664818 0.712842 3.52728e-19)
(0.590528 0.655706 0)
(0.534489 0.600339 0)
(0.494477 0.547972 -7.24894e-20)
(0.469338 0.499783 0)
(0.452179 0.454368 2.25033e-19)
(0.419614 0.395964 2.71447e-19)
(0.319063 0.285397 0)
(0.148704 0.12676 0)
(0.0142959 0.0113929 2.26256e-19)
(0.231315 0.189886 1.64652e-19)
(1.04684 0.863796 1.3422e-19)
(1.18635 0.99064 1.92913e-19)
(1.1704 0.994948 -2.8001e-19)
(1.12032 0.973546 -1.88155e-19)
(1.06204 0.947821 -2.14205e-19)
(0.996318 0.91851 1.40239e-19)
(0.922007 0.88503 4.52867e-22)
(0.837883 0.845702 -4.66841e-21)
(0.742111 0.797134 -6.0728e-21)
(0.646993 0.740808 1.77515e-19)
(0.568236 0.682993 0)
(0.507158 0.625759 2.00221e-19)
(0.461753 0.569924 1.52294e-19)
(0.432215 0.51614 3.93942e-19)
(0.412195 0.461646 1.21414e-19)
(0.377803 0.390261 -1.51179e-19)
(0.279342 0.266466 -8.91544e-20)
(0.122774 0.10795 0)
(0.00945018 0.00738366 2.47244e-19)
(0.230573 0.196358 -3.61104e-19)
(1.03772 0.888673 0)
(1.17486 1.01853 2.14591e-19)
(1.15887 1.02283 -2.28777e-19)
(1.10906 1.00082 2.11643e-19)
(1.05099 0.974507 3.10531e-19)
(0.985435 0.944712 -3.20905e-19)
(0.910997 0.911019 5.03268e-21)
(0.826231 0.871809 0)
(0.728786 0.823768 -6.60151e-20)
(0.630482 0.768145 -3.60965e-19)
(0.547183 0.710367 1.87705e-20)
(0.480765 0.652037 2.70708e-19)
(0.428759 0.593781 0)
(0.392453 0.534924 2.65426e-19)
(0.366356 0.469371 0)
(0.327139 0.377718 0)
(0.236524 0.232207 -1.00179e-19)
(0.110955 0.0761373 0)
(0.0260418 0.0121495 6.7015e-20)
(0.229517 0.202191 -3.93639e-19)
(1.02885 0.912218 0)
(1.16371 1.04453 3.46699e-19)
(1.14771 1.04884 0)
(1.09824 1.02632 -1.14312e-19)
(1.04043 0.999531 0)
(0.975131 0.969378 -2.34601e-20)
(0.900661 0.935637 -1.87741e-20)
(0.815403 0.896762 -4.19875e-21)
(0.716467 0.849588 -5.7448e-20)
(0.61516 0.795227 8.9161e-21)
(0.527329 0.7383 1.56261e-19)
(0.455217 0.679667 2.61377e-19)
(0.395543 0.620392 3.7909e-20)
(0.349535 0.558545 2.07081e-19)
(0.312135 0.481315 0)
(0.256402 0.361058 3.32283e-19)
(0.168797 0.168863 -1.9887e-19)
(0.0657219 0.0725455 2.29195e-19)
(-0.0648728 0.383464 -2.68666e-19)
(0.228463 0.207747 3.20317e-19)
(1.02005 0.934269 5.06921e-19)
(1.15282 1.06897 0)
(1.13681 1.07338 4.55411e-21)
(1.08769 1.05058 3.09441e-19)
(1.03013 1.02353 -5.95488e-19)
(0.965143 0.993244 -1.39403e-19)
(0.890665 0.95976 0)
(0.804969 0.921595 -5.21463e-20)
(0.704623 0.875849 -2.11122e-22)
(0.600304 0.823512 0)
(0.507729 0.768551 0)
(0.429449 0.710545 2.27507e-19)
(0.361488 0.651684 -1.1841e-19)
(0.302336 0.591128 -2.05041e-19)
(0.246508 0.506172 0)
(0.145126 0.351877 1.68655e-19)
(0.0349023 0.450176 -2.00945e-19)
(0.0482922 1.73135 -1.03617e-19)
(0.0853161 2.73139 -1.34188e-19)
(0.227295 0.212451 -2.33824e-19)
(1.01157 0.954989 -6.38179e-19)
(1.14218 1.09182 1.99056e-19)
(1.12616 1.0963 1.92486e-19)
(1.07746 1.07341 0)
(1.02011 1.04623 -4.24839e-19)
(0.955625 1.01602 -2.31154e-19)
(0.881151 0.982981 1.18914e-20)
(0.795138 0.945803 -7.32511e-21)
(0.693561 0.901918 3.00361e-20)
(0.586437 0.852256 1.51122e-19)
(0.489295 0.800386 1.55273e-19)
(0.404653 0.744177 2.21006e-19)
(0.329065 0.685912 -2.67473e-19)
(0.257186 0.633582 -3.00637e-19)
(0.17777 0.55028 0)
(0.0823319 0.809066 0)
(0.139854 2.42929 8.67567e-20)
(0.146269 3.15105 0)
(0.147329 3.36783 1.96583e-19)
(0.2284 0.217118 0)
(1.00386 0.974442 0)
(1.1316 1.11296 0)
(1.11555 1.1174 5.33529e-20)
(1.06724 1.09459 2.75526e-19)
(1.01017 1.06752 -3.22476e-19)
(0.946473 1.03762 -1.64709e-19)
(0.872072 1.0052 1.32525e-20)
(0.785872 0.969251 -9.97598e-20)
(0.683288 0.927635 -1.01837e-20)
(0.573671 0.881297 2.59041e-19)
(0.472294 0.833488 -1.82882e-20)
(0.381404 0.780865 2.41941e-20)
(0.299439 0.720589 3.78642e-20)
(0.221701 0.681342 1.19448e-21)
(0.145138 0.915262 1.59203e-21)
(0.187899 2.54618 -4.18096e-19)
(0.214309 3.26048 -1.57922e-19)
(0.195551 3.42324 7.12602e-20)
(0.175189 3.45159 -7.12057e-20)
(0.145675 0.17471 1.32964e-19)
(0.989208 0.995656 0)
(1.12088 1.13256 -3.88988e-19)
(1.1058 1.13737 -4.96976e-19)
(1.05777 1.11489 5.70929e-19)
(1.00117 1.08801 3.41832e-19)
(0.937598 1.05813 1.91521e-19)
(0.863516 1.02654 -2.17937e-19)
(0.777319 0.992071 9.98779e-20)
(0.674144 0.952957 0)
(0.562582 0.910377 1.02083e-19)
(0.457553 0.867164 -1.11299e-19)
(0.360693 0.82153 0)
(0.273402 0.760333 3.24554e-20)
(0.209773 0.8552 7.8063e-20)
(0.189216 2.16226 -9.77871e-20)
(0.287412 3.29515 1.08299e-19)
(0.264417 3.44592 4.9469e-20)
(0.22145 3.47468 5.62454e-20)
(0.192217 3.4877 6.00569e-20)
(0.268327 0.250175 -2.47409e-19)
(0.970628 0.999855 0)
(1.10068 1.15328 3.95614e-19)
(1.092 1.16683 5.11603e-19)
(1.04256 1.14427 -5.85135e-19)
(0.986124 1.11796 -3.60685e-19)
(0.922539 1.08954 -2.91247e-19)
(0.848679 1.05931 -1.62343e-20)
(0.762176 1.02735 -1.32761e-19)
(0.657597 0.992759 -4.91752e-20)
(0.542689 0.957509 2.61593e-21)
(0.432356 0.923624 7.89357e-20)
(0.325791 0.892844 1.85192e-20)
(0.249951 0.986053 -2.76276e-20)
(0.291076 2.08422 -6.53584e-20)
(0.369556 3.29022 3.74132e-20)
(0.359373 3.48793 -2.60869e-20)
(0.31548 3.51652 -1.39268e-20)
(0.270165 3.54985 2.5499e-20)
(0.205165 3.54094 1.58122e-21)
(0.254339 0.245344 0)
(0.965845 1.01838 1.03608e-19)
(1.09216 1.1737 -7.82216e-20)
(1.08198 1.18715 -5.68697e-20)
(1.0331 1.16472 -3.83409e-19)
(0.977085 1.13863 3.51686e-19)
(0.913649 1.11041 1.95064e-19)
(0.840291 1.08109 -1.68316e-20)
(0.754198 1.05084 1.60175e-19)
(0.649642 1.01948 -1.39854e-20)
(0.533783 0.989487 -8.81162e-20)
(0.421683 0.962929 1.10902e-20)
(0.317381 0.95304 -1.52533e-20)
(0.298364 1.35961 -2.16111e-20)
(0.408291 2.9328 1.90066e-20)
(0.453816 3.47161 7.13842e-22)
(0.401227 3.56098 -8.98255e-20)
(0.356892 3.58982 -8.74755e-20)
(0.295735 3.61822 1.05301e-19)
(0.221932 3.61172 4.87182e-20)
(0.236636 0.24203 2.53516e-19)
(0.958989 1.03932 6.95783e-19)
(1.08287 1.19564 -2.23111e-19)
(1.07152 1.20873 -2.15829e-19)
(1.02315 1.18616 0)
(0.967642 1.1601 5.11528e-19)
(0.904692 1.13216 2.95891e-19)
(0.832138 1.1037 -1.74993e-20)
(0.746798 1.07519 1.68113e-20)
(0.642787 1.04717 1.17229e-19)
(0.526733 1.02262 -4.17795e-21)
(0.414644 1.00402 -6.56428e-20)
(0.325066 1.04596 -9.12818e-20)
(0.382352 1.90628 1.0266e-19)
(0.513353 3.32361 2.20098e-20)
(0.518434 3.55336 0)
(0.454076 3.61196 0)
(0.408631 3.67129 9.89914e-20)
(0.324401 3.74218 0)
(0.235486 3.71007 2.07092e-19)
(0.2241 0.241566 -3.68999e-19)
(0.950305 1.06105 -5.77829e-19)
(1.07204 1.21836 0)
(1.05985 1.23086 5.10016e-21)
(1.01205 1.2079 -3.7109e-19)
(0.95719 1.18173 7.57566e-19)
(0.895086 1.15407 1.97975e-19)
(0.823586 1.12639 -2.10462e-20)
(0.739304 1.09953 1.69713e-19)
(0.636327 1.07485 -1.0197e-20)