/*--------------------------------*- C++ -*----------------------------------*\
| =========                 |                                                 |
| \\      /  F ield         | OpenFOAM: The Open Source CFD Toolbox           |
|  \\    /   O peration     | Version:  2112                                  |
|   \\  /    A nd           | Website:  www.openfoam.com                      |
|    \\/     M anipulation  |                                                 |
\*---------------------------------------------------------------------------*/
FoamFile
{
    version     2.0;
    format      ascii;
    arch        "LSB;label=32;scalar=64";
    class       volScalarField;
    location    "65";
    object      T;
}
// * * * * * * * * * * * * * * * * * * * * * * * * * * * * * * * * * * * * * //

dimensions      [0 0 0 1 0 0 0];

internalField   nonuniform List<scalar> 
10000
(
7.4568e-14
6.6894e-14
5.87247e-14
5.21218e-14
4.68445e-14
4.32025e-14
4.13901e-14
4.13885e-14
4.3567e-14
4.67716e-14
4.27076e-13
3.81344e-13
3.3406e-13
2.95257e-13
2.64548e-13
2.43637e-13
2.33477e-13
2.34025e-13
2.46635e-13
2.65873e-13
1.36056e-12
1.20536e-12
1.04722e-12
9.1723e-13
8.16956e-13
7.50344e-13
7.19473e-13
7.25101e-13
7.69032e-13
8.34496e-13
3.82314e-12
3.36857e-12
2.89796e-12
2.51092e-12
2.2193e-12
2.0305e-12
1.94835e-12
1.97507e-12
2.10973e-12
2.29873e-12
1.02491e-11
8.99864e-12
7.67161e-12
6.57752e-12
5.76623e-12
5.25172e-12
5.03982e-12
5.13219e-12
5.51254e-12
6.01957e-12
2.69119e-11
2.35664e-11
1.99378e-11
1.6934e-11
1.47277e-11
1.33479e-11
1.27977e-11
1.30685e-11
1.40863e-11
1.53957e-11
6.99076e-11
6.10895e-11
5.1371e-11
4.32843e-11
3.7369e-11
3.36931e-11
3.22365e-11
3.29443e-11
3.55622e-11
3.88646e-11
1.80378e-10
1.57366e-10
1.31717e-10
1.10253e-10
9.45554e-11
8.47935e-11
8.08566e-11
8.25322e-11
8.90579e-11
9.72428e-11
4.6331e-10
4.03686e-10
3.36662e-10
2.8028e-10
2.38933e-10
2.13056e-10
2.02247e-10
2.05819e-10
2.2166e-10
2.4166e-10
1.18629e-09
1.03258e-09
8.5868e-10
7.11646e-10
6.03319e-10
5.34798e-10
5.04835e-10
5.11411e-10
5.48948e-10
5.97214e-10
3.03064e-09
2.6358e-09
2.1869e-09
1.80544e-09
1.52269e-09
1.34139e-09
1.25794e-09
1.26677e-09
1.35363e-09
1.46868e-09
7.72952e-09
6.71816e-09
5.5638e-09
4.57769e-09
3.84174e-09
3.3622e-09
3.12958e-09
3.12891e-09
3.32452e-09
3.59553e-09
1.96883e-08
1.71036e-08
1.41433e-08
1.16009e-08
9.68945e-09
8.42191e-09
7.77412e-09
7.7074e-09
8.13316e-09
8.76361e-09
5.00958e-08
4.35009e-08
3.59242e-08
2.93856e-08
2.44292e-08
2.1083e-08
1.92837e-08
1.89336e-08
1.98199e-08
2.12621e-08
1.2734e-07
1.10541e-07
9.11841e-08
7.44048e-08
6.15734e-08
5.27505e-08
4.77672e-08
4.63851e-08
4.81072e-08
5.13391e-08
3.2334e-07
2.8062e-07
2.31279e-07
1.88326e-07
1.55159e-07
1.3193e-07
1.18174e-07
1.13325e-07
1.16277e-07
1.23329e-07
8.1996e-07
7.11502e-07
5.86183e-07
4.76531e-07
3.90953e-07
3.29873e-07
2.9202e-07
2.76109e-07
2.7978e-07
2.94632e-07
2.07552e-06
1.80134e-06
1.48441e-06
1.20539e-06
9.85158e-07
8.24664e-07
7.20806e-07
6.70884e-07
6.69918e-07
6.99536e-07
5.24019e-06
4.55167e-06
3.75406e-06
3.04753e-06
2.48289e-06
2.06183e-06
1.77772e-06
1.62558e-06
1.59574e-06
1.64916e-06
1.31861e-05
1.14688e-05
9.47531e-06
7.69858e-06
6.25828e-06
5.15717e-06
4.38274e-06
3.92839e-06
3.77954e-06
3.85775e-06
3.30266e-05
2.87773e-05
2.38456e-05
1.94202e-05
1.57712e-05
1.29066e-05
1.08048e-05
9.46974e-06
8.89782e-06
8.94501e-06
8.21577e-05
7.17863e-05
5.97594e-05
4.88763e-05
3.9723e-05
3.23199e-05
2.66466e-05
2.2782e-05
2.0815e-05
2.05356e-05
0.000202455
0.000177649
0.000148882
0.000122579
9.99439e-05
8.09875e-05
6.57878e-05
5.47545e-05
4.83918e-05
4.66378e-05
0.000492585
0.000434789
0.000367794
0.000305778
0.000250898
0.000203041
0.000162747
0.000131668
0.000111906
0.000104698
0.00117802
0.00104814
0.000897755
0.000756478
0.000627119
0.00050882
0.000403671
0.000317484
0.000257915
0.000232253
0.00275336
0.00247578
0.00215489
0.00184812
0.00155525
0.00127186
0.001004
0.000769908
0.000594837
0.000509574
0.00624641
0.00569261
0.00505452
0.00443186
0.00380624
0.00315839
0.00250089
0.00188406
0.00138282
0.00110929
0.013646
0.0126424
0.0114941
0.0103472
0.00911895
0.0077384
0.00621541
0.00466676
0.00328741
0.00242709
0.028457
0.0268756
0.0250962
0.0232718
0.0211469
0.0185007
0.015277
0.0116761
0.0081244
0.00547976
0.0561365
0.0541584
0.052026
0.0497724
0.0467779
0.0424878
0.0366196
0.0293331
0.0217777
0.0146343
6.78073e-14
6.10408e-14
5.37522e-14
4.78174e-14
4.304e-14
3.97389e-14
3.80625e-14
3.80209e-14
3.99131e-14
4.26645e-14
3.86524e-13
3.47298e-13
3.05478e-13
2.70649e-13
2.42897e-13
2.23964e-13
2.14585e-13
2.14879e-13
2.25659e-13
2.41486e-13
1.22184e-12
1.09191e-12
9.54084e-13
8.37853e-13
7.47556e-13
6.87317e-13
6.59194e-13
6.63642e-13
7.00387e-13
7.52638e-13
3.41378e-12
3.03811e-12
2.63228e-12
2.28847e-12
2.02679e-12
1.85635e-12
1.78172e-12
1.80282e-12
1.91308e-12
2.06314e-12
9.11793e-12
8.09055e-12
6.95585e-12
5.99044e-12
5.26476e-12
4.80115e-12
4.60712e-12
4.67826e-12
4.98478e-12
5.3851e-12
2.38795e-11
2.11422e-11
1.80628e-11
1.54267e-11
1.34578e-11
1.22145e-11
1.17055e-11
1.19072e-11
1.27165e-11
1.37435e-11
6.19189e-11
5.47204e-11
4.65142e-11
3.94482e-11
3.41806e-11
3.0866e-11
2.95048e-11
3.0008e-11
3.20664e-11
3.46479e-11
1.59581e-10
1.40817e-10
1.19212e-10
1.00519e-10
8.65655e-11
7.77564e-11
7.40505e-11
7.51653e-11
8.02418e-11
8.66302e-11
4.09573e-10
3.60972e-10
3.0461e-10
2.55621e-10
2.18917e-10
1.9555e-10
1.85336e-10
1.87459e-10
1.99645e-10
2.15229e-10
1.04814e-09
9.22837e-10
7.76764e-10
6.49211e-10
5.53141e-10
4.91238e-10
4.62901e-10
4.659e-10
4.94414e-10
5.31932e-10
2.67673e-09
2.3548e-09
1.97802e-09
1.64737e-09
1.3968e-09
1.23293e-09
1.15412e-09
1.15451e-09
1.21944e-09
1.30863e-09
6.82529e-09
6.00037e-09
5.03169e-09
4.17734e-09
3.52541e-09
3.09201e-09
2.87291e-09
2.85311e-09
2.99635e-09
3.20551e-09
1.73827e-08
1.52733e-08
1.27881e-08
1.0587e-08
8.89328e-09
7.74871e-09
7.14077e-09
7.03194e-09
7.3355e-09
7.81849e-09
4.42272e-08
3.88429e-08
3.24805e-08
2.68207e-08
2.24274e-08
1.94071e-08
1.77246e-08
1.72881e-08
1.78937e-08
1.8989e-08
1.12429e-07
9.87064e-08
8.24481e-08
6.79251e-08
5.6545e-08
4.85843e-08
4.39414e-08
4.23971e-08
4.34873e-08
4.59159e-08
2.85517e-07
2.50618e-07
2.09173e-07
1.71984e-07
1.42554e-07
1.21589e-07
1.08812e-07
1.03721e-07
1.05281e-07
1.10504e-07
7.24158e-07
6.35647e-07
5.30377e-07
4.35371e-07
3.59439e-07
3.04226e-07
2.69157e-07
2.53139e-07
2.53835e-07
2.64576e-07
1.83373e-06
1.60985e-06
1.34359e-06
1.10187e-06
9.06495e-07
7.61312e-07
6.65318e-07
6.16265e-07
6.09309e-07
6.29847e-07
4.63308e-06
4.07017e-06
3.40005e-06
2.78801e-06
2.2869e-06
1.90618e-06
1.64415e-06
1.49691e-06
1.45588e-06
1.4901e-06
1.1669e-05
1.02651e-05
8.58997e-06
7.05058e-06
5.77088e-06
4.77599e-06
4.06293e-06
3.62831e-06
3.46138e-06
3.50062e-06
2.92599e-05
2.5791e-05
2.16498e-05
1.78121e-05
1.45681e-05
1.19776e-05
1.00442e-05
8.77968e-06
8.18625e-06
8.15983e-06
7.29284e-05
6.44737e-05
5.43825e-05
4.49315e-05
3.6789e-05
3.00823e-05
2.4864e-05
2.12276e-05
1.92632e-05
1.88595e-05
0.000180264
0.000160048
0.000135913
0.000113052
9.28824e-05
7.56844e-05
6.16921e-05
5.13368e-05
4.512e-05
4.31866e-05
0.00044041
0.000393348
0.00033715
0.000283195
0.000234202
0.000190705
0.000153553
0.000124393
0.000105298
9.79178e-05
0.00105906
0.000953508
0.000827432
0.000704399
0.000588692
0.000480928
0.000383748
0.000302749
0.000245397
0.000219787
0.00249338
0.00226865
0.00200007
0.00173282
0.00147043
0.00121164
0.000963319
0.000742549
0.000573614
0.00048886
0.00570977
0.00526525
0.00473331
0.00419171
0.00363096
0.00303814
0.00242658
0.001842
0.00135479
0.00108042
0.01262
0.0118298
0.0108824
0.00989154
0.00879439
0.00753117
0.00611056
0.004635
0.00328017
0.00240231
0.0266882
0.0255004
0.0240728
0.0225301
0.020658
0.018252
0.0152447
0.0118095
0.00825433
0.00550097
0.0534985
0.0522079
0.0506479
0.0488765
0.046356
0.0425492
0.0371305
0.0302414
0.022687
0.014789
6.12595e-14
5.53384e-14
4.88708e-14
4.35785e-14
3.92952e-14
3.63172e-14
3.47843e-14
3.47086e-14
3.63661e-14
3.87576e-14
3.4851e-13
3.14506e-13
2.7761e-13
2.46631e-13
2.21779e-13
2.04703e-13
1.96138e-13
1.96142e-13
2.05446e-13
2.19015e-13
1.09278e-12
9.8245e-13
8.62525e-13
7.60041e-13
6.79748e-13
6.2576e-13
6.00115e-13
6.03054e-13
6.33838e-13
6.7754e-13
3.02502e-12
2.71151e-12
2.36527e-12
2.06602e-12
1.83539e-12
1.68369e-12
1.61537e-12
1.62981e-12
1.71899e-12
1.84101e-12
8.01267e-12
7.16922e-12
6.21808e-12
5.38855e-12
4.75426e-12
4.34341e-12
4.16452e-12
4.21109e-12
4.45117e-12
4.76853e-12
2.08434e-11
1.86309e-11
1.60845e-11
1.38443e-11
1.21357e-11
1.10367e-11
1.05625e-11
1.06844e-11
1.13001e-11
1.20963e-11
5.37707e-11
4.80203e-11
4.13043e-11
3.53524e-11
3.08082e-11
2.78824e-11
2.66013e-11
2.68696e-11
2.83942e-11
3.03604e-11
1.38068e-10
1.23196e-10
1.05654e-10
9.00137e-11
7.80287e-11
7.02587e-11
6.67482e-11
6.72193e-11
7.08863e-11
7.56846e-11
3.5344e-10
3.15128e-10
2.69618e-10
2.28821e-10
1.97389e-10
1.76786e-10
1.67089e-10
1.67545e-10
1.76129e-10
1.87699e-10
9.02886e-10
8.04471e-10
6.86951e-10
5.8106e-10
4.98939e-10
4.44371e-10
4.17506e-10
4.1638e-10
4.3592e-10
4.63482e-10
2.30305e-09
2.05079e-09
1.7483e-09
1.47437e-09
1.26038e-09
1.116e-09
1.04156e-09
1.03211e-09
1.07518e-09
1.14002e-09
5.86794e-09
5.22249e-09
4.44568e-09
3.73878e-09
3.18219e-09
2.80052e-09
2.59461e-09
2.55225e-09
2.64331e-09
2.79372e-09
1.49376e-08
1.32886e-08
1.12974e-08
9.47671e-09
8.03102e-09
7.02302e-09
6.4548e-09
6.29696e-09
6.47801e-09
6.82125e-09
3.79971e-08
3.37898e-08
2.86946e-08
2.40131e-08
2.02629e-08
1.76029e-08
1.6039e-08
1.55023e-08
1.5826e-08
1.65935e-08
9.65849e-08
8.58654e-08
7.28508e-08
6.08352e-08
5.11197e-08
4.4106e-08
3.98128e-08
3.8084e-08
3.85396e-08
4.02099e-08
2.45316e-07
2.18051e-07
1.84883e-07
1.54107e-07
1.28977e-07
1.105e-07
9.8743e-08
9.33706e-08
9.35422e-08
9.70401e-08
6.22461e-07
5.53271e-07
4.68998e-07
3.90379e-07
3.2551e-07
2.76886e-07
2.44761e-07
2.28478e-07
2.26262e-07
2.33162e-07
1.57729e-06
1.40234e-06
1.18908e-06
9.88966e-07
8.21943e-07
6.94175e-07
6.06582e-07
5.5811e-07
5.45335e-07
5.57565e-07
3.98932e-06
3.54942e-06
3.01262e-06
2.50566e-06
2.07703e-06
1.74197e-06
1.50364e-06
1.36131e-06
1.30955e-06
1.32644e-06
1.00639e-05
8.96554e-06
7.62438e-06
6.3486e-06
5.25379e-06
4.37745e-06
3.73039e-06
3.31695e-06
3.13296e-06
3.13774e-06
2.52969e-05
2.25802e-05
1.92641e-05
1.60827e-05
1.33052e-05
1.10218e-05
9.26957e-06
8.07897e-06
7.46778e-06
7.37675e-06
6.32649e-05
5.66345e-05
4.85506e-05
4.07169e-05
3.37372e-05
2.78215e-05
2.30937e-05
1.969e-05
1.77409e-05
1.72268e-05
0.000157082
0.000141204
0.00012188
0.000102931
8.56273e-05
7.04362e-05
5.77492e-05
4.80856e-05
4.20338e-05
3.99392e-05
0.000386086
0.000349077
0.000304136
0.000259437
0.00021737
0.000178879
0.000145127
0.000117909
9.94605e-05
9.189e-05
0.000935786
0.000852759
0.000752197
0.000650427
0.000551034
0.000455479
0.000366932
0.00029109
0.000235633
0.000209786
0.00222566
0.00204926
0.00183623
0.00161602
0.00139079
0.00116092
0.000933839
0.000726
0.000561468
0.000475671
0.00516225
0.00481612
0.00439933
0.00395708
0.00347748
0.00295068
0.00238948
0.00183546
0.00135559
0.00107396
0.0115898
0.0109884
0.0102664
0.00947429
0.00854576
0.00742655
0.00612078
0.00471378
0.00336217
0.00244525
0.0249692
0.0241237
0.0231099
0.0219413
0.0204011
0.0182947
0.0155411
0.0122567
0.00867429
0.00574451
0.0511275
0.0504305
0.0495795
0.0484682
0.0465659
0.0433557
0.0384861
0.0319455
0.024392
0.0159047
5.7012e-14
5.16157e-14
4.56847e-14
4.08237e-14
3.68728e-14
3.41083e-14
3.26674e-14
3.25633e-14
3.40681e-14
3.62515e-14
3.23143e-13
2.92291e-13
2.58662e-13
2.30323e-13
2.07485e-13
1.91686e-13
1.8366e-13
1.8346e-13
1.91815e-13
2.04151e-13
1.00513e-12
9.05891e-13
7.97841e-13
7.05017e-13
6.31892e-13
5.82358e-13
5.58406e-13
5.60322e-13
5.87484e-13
6.2682e-13
2.75649e-12
2.47861e-12
2.17149e-12
1.904e-12
1.69615e-12
1.55809e-12
1.49428e-12
1.50426e-12
1.58087e-12
1.68842e-12
7.23788e-12
6.50219e-12
5.67209e-12
4.9406e-12
4.37473e-12
4.00314e-12
3.83521e-12
3.86515e-12
4.06501e-12
4.3382e-12
1.86871e-11
1.67869e-11
1.45976e-11
1.26465e-11
1.11358e-11
1.01463e-11
9.69771e-12
9.76508e-12
1.02607e-11
1.093e-11
4.79188e-11
4.3048e-11
3.73463e-11
3.22157e-11
2.82265e-11
2.55999e-11
2.43798e-11
2.4486e-11
2.56722e-11
2.7289e-11
1.22488e-10
1.10029e-10
9.52833e-11
8.19066e-11
7.14405e-11
6.44773e-11
6.11211e-11
6.1146e-11
6.39042e-11
6.77745e-11
3.12546e-10
2.80716e-10
2.42735e-10
2.08038e-10
1.80687e-10
1.62243e-10
1.52966e-10
1.52265e-10
1.58499e-10
1.6768e-10
7.96633e-10
7.15356e-10
6.1777e-10
5.2805e-10
4.56752e-10
4.07936e-10
3.8228e-10
3.78302e-10
3.91951e-10
4.13512e-10
2.02895e-09
1.82148e-09
1.57113e-09
1.33959e-09
1.15404e-09
1.02494e-09
9.54103e-10
9.37934e-10
9.66613e-10
1.01668e-09
5.16449e-09
4.6351e-09
3.99355e-09
3.39687e-09
2.91454e-09
2.57341e-09
2.37833e-09
2.32083e-09
2.37752e-09
2.49224e-09
1.31391e-08
1.17888e-08
1.01465e-08
8.61071e-09
7.35824e-09
6.45759e-09
5.92187e-09
5.73174e-09
5.8325e-09
6.09091e-09
3.34119e-08
2.99702e-08
2.57705e-08
2.18229e-08
1.8574e-08
1.6198e-08
1.47308e-08
1.413e-08
1.42705e-08
1.48396e-08
8.49239e-08
7.61591e-08
6.54363e-08
5.53044e-08
4.68866e-08
4.0624e-08
3.66153e-08
3.47743e-08
3.48226e-08
3.60374e-08
2.15732e-07
1.93442e-07
1.66122e-07
1.40168e-07
1.1839e-07
1.01897e-07
9.09674e-08
8.54471e-08
8.47436e-08
8.72171e-08
5.47616e-07
4.91064e-07
4.21653e-07
3.55344e-07
2.99104e-07
2.55715e-07
2.25969e-07
2.09676e-07
2.05666e-07
2.10319e-07
1.38867e-06
1.24568e-06
1.07002e-06
9.01196e-07
7.56331e-07
6.42337e-07
5.61504e-07
5.13971e-07
4.97765e-07
5.05227e-07
3.51644e-06
3.15665e-06
2.71447e-06
2.28674e-06
1.91485e-06
1.61589e-06
1.39654e-06
1.25908e-06
1.20149e-06
1.20869e-06
8.88644e-06
7.98709e-06
6.88238e-06
5.80587e-06
4.85566e-06
4.07357e-06
3.47917e-06
3.08424e-06
2.89265e-06
2.87893e-06
2.23918e-05
2.01643e-05
1.74329e-05
1.47486e-05
1.23369e-05
1.02982e-05
8.69026e-06
7.56131e-06
6.94818e-06
6.82484e-06
5.6186e-05
5.07403e-05
4.40834e-05
3.74762e-05
3.1413e-05
2.61273e-05
2.17888e-05
1.85745e-05
1.66595e-05
1.60968e-05
0.00014013
0.000127062
0.000111162
9.51908e-05
8.01542e-05
6.65651e-05
5.49101e-05
4.57943e-05
3.99066e-05
3.7756e-05
0.000346451
0.00031593
0.000279016
0.000241393
0.000204837
0.000170355
0.000139281
0.00011356
9.56452e-05
8.80367e-05
0.000846121
0.000777554
0.000695228
0.000609824
0.000523504
0.000437775
0.000356004
0.000284031
0.000229952
0.000204029
0.00203181
0.00188617
0.00171301
0.00152932
0.00133414
0.00112769
0.000917268
0.000718856
0.000557041
0.000470286
0.00476868
0.00448453
0.00415082
0.00378649
0.00337316
0.00290025
0.00237865
0.00184632
0.00136933
0.00108078
0.0108592
0.0103753
0.00981686
0.00918195
0.00839229
0.00739166
0.00617693
0.00481806
0.00345985
0.00250697
0.0237849
0.0231486
0.0224364
0.0215649
0.020298
0.0184383
0.0158866
0.0127083
0.00908602
0.00600594
0.0496127
0.0492699
0.0489339
0.0483418
0.046939
0.0442117
0.0397748
0.0335037
0.0259297
0.0169611
5.47227e-14
4.96071e-14
4.39592e-14
3.93219e-14
3.55502e-14
3.2902e-14
3.1512e-14
3.14002e-14
3.2826e-14
3.48955e-14
3.0955e-13
2.80379e-13
2.4845e-13
2.21498e-13
1.99743e-13
1.84636e-13
1.76902e-13
1.76615e-13
1.84493e-13
1.96158e-13
9.59236e-13
8.65322e-13
7.63477e-13
6.75756e-13
6.06448e-13
5.59276e-13
5.36204e-13
5.37578e-13
5.62873e-13
6.00198e-13
2.61737e-12
2.35639e-12
2.06901e-12
1.818e-12
1.6222e-12
1.49133e-12
1.42987e-12
1.43764e-12
1.50815e-12
1.60912e-12
6.83791e-12
6.15307e-12
5.38268e-12
4.70165e-12
4.17189e-12
3.82113e-12
3.65906e-12
3.68097e-12
3.86201e-12
4.11529e-12
1.75747e-11
1.58208e-11
1.38063e-11
1.20038e-11
1.05977e-11
9.66664e-12
9.23219e-12
9.27343e-12
9.71341e-12
1.03261e-11
4.48982e-11
4.04373e-11
3.52324e-11
3.0524e-11
2.68288e-11
2.43628e-11
2.31775e-11
2.32062e-11
2.42354e-11
2.56964e-11
1.14435e-10
1.03101e-10
8.97275e-11
7.75167e-11
6.7857e-11
6.1329e-11
5.80633e-11
5.78753e-11
6.02095e-11
6.36647e-11
2.91375e-10
2.62574e-10
2.28299e-10
1.9675e-10
1.7157e-10
1.54295e-10
1.45268e-10
1.44017e-10
1.49151e-10
1.57257e-10
7.41545e-10
6.6829e-10
5.80552e-10
4.99194e-10
4.33663e-10
3.87971e-10
3.63037e-10
3.57713e-10
3.68601e-10
3.8745e-10
1.88663e-09
1.70022e-09
1.47572e-09
1.26612e-09
1.09574e-09
9.74955e-10
9.06257e-10
8.86952e-10
9.08892e-10
9.52275e-10
4.79873e-09
4.32422e-09
3.74986e-09
3.21028e-09
2.76762e-09
2.44859e-09
2.25989e-09
2.19547e-09
2.23612e-09
2.33469e-09
1.22031e-08
1.09947e-08
9.52582e-09
8.13785e-09
6.98868e-09
6.14664e-09
5.62991e-09
5.42547e-09
5.489e-09
5.7091e-09
3.10252e-08
2.79473e-08
2.41933e-08
2.06266e-08
1.76459e-08
1.54252e-08
1.40141e-08
1.33865e-08
1.34428e-08
1.39229e-08
7.8856e-08
7.10188e-08
6.14361e-08
5.22834e-08
4.45606e-08
3.87091e-08
3.48642e-08
3.29818e-08
3.2846e-08
3.38578e-08
2.00345e-07
1.80411e-07
1.56e-07
1.32556e-07
1.12574e-07
9.71685e-08
8.67123e-08
8.11596e-08
8.00691e-08
8.20915e-08
5.08701e-07
4.58119e-07
3.96116e-07
3.36213e-07
2.84607e-07
2.4409e-07
2.15697e-07
1.99515e-07
1.94739e-07
1.9842e-07
1.29057e-06
1.16271e-06
1.00582e-06
8.53299e-07
7.20346e-07
6.13915e-07
5.3691e-07
4.90166e-07
4.72581e-07
4.78029e-07
3.27041e-06
2.94873e-06
2.55382e-06
2.16739e-06
1.82601e-06
1.5469e-06
1.33826e-06
1.20409e-06
1.14445e-06
1.14771e-06
8.27382e-06
7.46937e-06
6.48279e-06
5.51033e-06
4.63798e-06
3.90771e-06
3.34291e-06
2.95955e-06
2.76633e-06
2.74553e-06
2.08809e-05
1.8887e-05
1.64474e-05
1.40231e-05
1.18087e-05
9.90458e-06
8.37741e-06
7.28536e-06
6.67665e-06
6.54228e-06
5.25075e-05
4.7627e-05
4.16814e-05
3.57161e-05
3.01485e-05
2.52096e-05
2.10884e-05
1.79844e-05
1.60993e-05
1.5524e-05
0.000131328
0.000119587
0.000105402
9.09935e-05
7.71858e-05
6.44801e-05
5.33995e-05
4.4596e-05
3.88195e-05
3.66668e-05
0.000325875
0.000298409
0.000265523
0.000231627
0.000198066
0.000165799
0.000136212
0.00011133
9.37427e-05
8.61679e-05
0.000799576
0.000737844
0.000664652
0.000587893
0.000508703
0.000428415
0.000350402
0.000280567
0.000227282
0.000201413
0.00193128
0.00180007
0.00164692
0.0014826
0.00130387
0.00111043
0.000909236
0.00071597
0.000555629
0.000468498
0.00456496
0.0043096
0.0040177
0.00369479
0.00331788
0.00287499
0.00237533
0.00185473
0.00137902
0.00108687
0.0104827
0.0100527
0.00957665
0.00902538
0.008312
0.00737741
0.00621313
0.00488008
0.0035175
0.00254517
0.023182
0.0226404
0.0220794
0.0213647
0.0202466
0.0185239
0.0160841
0.0129638
0.00931641
0.00615458
0.0488708
0.0486874
0.0486038
0.0482794
0.0471426
0.0446781
0.0404791
0.0343483
0.0267525
0.0175082
5.4601e-14
4.94987e-14
4.38735e-14
3.92527e-14
3.54867e-14
3.2841e-14
3.1451e-14
3.13312e-14
3.27449e-14
3.48071e-14
3.0883e-13
2.79759e-13
2.47954e-13
2.21073e-13
1.99351e-13
1.8426e-13
1.76528e-13
1.76215e-13
1.84029e-13
1.95633e-13
9.56784e-13
8.63676e-13
7.6201e-13
6.74411e-13
6.0519e-13
5.58074e-13
5.35023e-13
5.36376e-13
5.61595e-13
5.98427e-13
2.61111e-12
2.35171e-12
2.06491e-12
1.81436e-12
1.61882e-12
1.48812e-12
1.42668e-12
1.43429e-12
1.50452e-12
1.60455e-12
6.82232e-12
6.1402e-12
5.37161e-12
4.6919e-12
4.16295e-12
3.81262e-12
3.65057e-12
3.67201e-12
3.85211e-12
4.10373e-12
1.75351e-11
1.57867e-11
1.37768e-11
1.19778e-11
1.0574e-11
9.64419e-12
9.20981e-12
9.2498e-12
9.68725e-12
1.02966e-11
4.47967e-11
4.03478e-11
3.51536e-11
3.04545e-11
2.67657e-11
2.43033e-11
2.31184e-11
2.31441e-11
2.41671e-11
2.56207e-11
1.14173e-10
1.02869e-10
8.9517e-11
7.73305e-11
6.7689e-11
6.11716e-11
5.79076e-11
5.77126e-11
6.00324e-11
6.34709e-11
2.90706e-10
2.61966e-10
2.27737e-10
1.96253e-10
1.71124e-10
1.5388e-10
1.4486e-10
1.43594e-10
1.48695e-10
1.56763e-10
7.39838e-10
6.6663e-10
5.79057e-10
4.97877e-10
4.32488e-10
3.86884e-10
3.61978e-10
3.56623e-10
3.67436e-10
3.86199e-10
1.88212e-09
1.69574e-09
1.47178e-09
1.26266e-09
1.09267e-09
9.72136e-10
9.03531e-10
8.84169e-10
9.05943e-10
9.49131e-10
4.78666e-09
4.31269e-09
3.73962e-09
3.20128e-09
2.75966e-09
2.44133e-09
2.25294e-09
2.18843e-09
2.22873e-09
2.32684e-09
1.21714e-08
1.09651e-08
9.49929e-09
8.11458e-09
6.96818e-09
6.12807e-09
5.6123e-09
5.40785e-09
5.47062e-09
5.68971e-09
3.09436e-08
2.78723e-08
2.41248e-08
2.05666e-08
1.75933e-08
1.5378e-08
1.39698e-08
1.33427e-08
1.33976e-08
1.38754e-08
7.86499e-08
7.08296e-08
6.12592e-08
5.21286e-08
4.4426e-08
3.85894e-08
3.47532e-08
3.28736e-08
3.27353e-08
3.37422e-08
1.99832e-07
1.79914e-07
1.55541e-07
1.32157e-07
1.1223e-07
9.68664e-08
8.64362e-08
8.08939e-08
7.98005e-08
8.1813e-08
5.07394e-07
4.56777e-07
3.9493e-07
3.35191e-07
2.83734e-07
2.43331e-07
2.15014e-07
1.98867e-07
1.94093e-07
1.97755e-07
1.28712e-06
1.15922e-06
1.00279e-06
8.50696e-07
7.18134e-07
6.12015e-07
5.35226e-07
4.88597e-07
4.7104e-07
4.76456e-07
3.26127e-06
2.93993e-06
2.5461e-06
2.16078e-06
1.82043e-06
1.54216e-06
1.33412e-06
1.20031e-06
1.14079e-06
1.14402e-06
8.25016e-06
7.44709e-06
6.46316e-06
5.49357e-06
4.6239e-06
3.89588e-06
3.33276e-06
2.95049e-06
2.75775e-06
2.73697e-06
2.08201e-05
1.88297e-05
1.63975e-05
1.39806e-05
1.17732e-05
9.87508e-06
8.35259e-06
7.26372e-06
6.65663e-06
6.52258e-06
5.23499e-05
4.74796e-05
4.1555e-05
3.56086e-05
3.00589e-05
2.51359e-05
2.10275e-05
1.79327e-05
1.60528e-05
1.54789e-05
0.00013092
0.000119223
0.000105084
9.07223e-05
7.696e-05
6.42957e-05
5.32499e-05
4.44723e-05
3.87117e-05
3.65644e-05
0.000324849
0.000297508
0.00026473
0.000230946
0.000197496
0.000165336
0.000135843
0.000111035
9.34939e-05
8.59376e-05
0.000797069
0.000735592
0.000662689
0.000586191
0.00050727
0.000427251
0.000349488
0.000279858
0.000226709
0.0002009
0.00192526
0.00179469
0.00164215
0.00147839
0.00130028
0.0011075
0.000906955
0.000714251
0.000554314
0.000467379
0.00455108
0.00429713
0.00400631
0.0036845
0.00330891
0.00286756
0.00236957
0.0018505
0.00137596
0.00108443
0.0104522
0.0100248
0.00955031
0.00900082
0.00828991
0.00735865
0.00619831
0.00486926
0.00351051
0.00254052
0.0231189
0.0225811
0.022021
0.0213084
0.0201941
0.0184777
0.016047
0.0129386
0.00930043
0.00614112
0.0487489
0.0485675
0.0484824
0.0481576
0.0470238
0.0445685
0.040386
0.0342775
0.026722
0.0175241
5.66371e-14
5.13183e-14
4.5436e-14
4.05981e-14
3.66622e-14
3.39065e-14
3.24696e-14
3.23616e-14
3.38442e-14
3.59861e-14
3.20995e-13
2.90612e-13
2.57254e-13
2.29044e-13
2.06291e-13
1.90539e-13
1.82536e-13
1.8231e-13
1.90543e-13
2.02626e-13
9.98456e-13
9.00651e-13
7.93439e-13
7.01049e-13
6.28197e-13
5.78823e-13
5.54919e-13
5.56727e-13
5.83485e-13
6.22038e-13
2.73857e-12
2.46391e-12
2.15913e-12
1.89304e-12
1.68602e-12
1.54842e-12
1.48468e-12
1.49423e-12
1.56965e-12
1.67536e-12
7.19132e-12
6.46286e-12
5.63872e-12
4.91116e-12
4.34772e-12
3.97745e-12
3.80965e-12
3.83826e-12
4.03497e-12
4.30383e-12
1.85672e-11
1.66831e-11
1.45082e-11
1.25678e-11
1.10642e-11
1.00784e-11
9.63012e-12
9.69384e-12
1.01816e-11
1.08409e-11
4.76097e-11
4.27735e-11
3.71065e-11
3.20047e-11
2.80356e-11
2.542e-11
2.42011e-11
2.4298e-11
2.54653e-11
2.70593e-11
1.21686e-10
1.09303e-10
9.46408e-11
8.13413e-11
7.0932e-11
6.40011e-11
6.06501e-11
6.0653e-11
6.33667e-11
6.71857e-11
3.10459e-10
2.78794e-10
2.41022e-10
2.06531e-10
1.79339e-10
1.60988e-10
1.51733e-10
1.50983e-10
1.57114e-10
1.66178e-10
7.91181e-10
7.10276e-10
6.13236e-10
5.24065e-10
4.53202e-10
4.04653e-10
3.79078e-10
3.74998e-10
3.88412e-10
4.09708e-10
2.01465e-09
1.80814e-09
1.55923e-09
1.32914e-09
1.14476e-09
1.01642e-09
9.45862e-10
9.29503e-10
9.57654e-10
1.00712e-09
5.12707e-09
4.6003e-09
3.96251e-09
3.36966e-09
2.89049e-09
2.55148e-09
2.3573e-09
2.29952e-09
2.35506e-09
2.4684e-09
1.30415e-08
1.16984e-08
1.00659e-08
8.54021e-09
7.29626e-09
6.4015e-09
5.86862e-09
5.67835e-09
5.77667e-09
6.03195e-09
3.31591e-08
2.9736e-08
2.55615e-08
2.16407e-08
1.84148e-08
1.60552e-08
1.45967e-08
1.39971e-08
1.41328e-08
1.4695e-08
8.42725e-08
7.55528e-08
6.4895e-08
5.48346e-08
4.64792e-08
4.02619e-08
3.62795e-08
3.44458e-08
3.44859e-08
3.56857e-08
2.14056e-07
1.91872e-07
1.64724e-07
1.3896e-07
1.1735e-07
1.00983e-07
9.01312e-08
8.46405e-08
8.39263e-08
8.6369e-08
5.43301e-07
4.87014e-07
4.18064e-07
3.52252e-07
2.96461e-07
2.53419e-07
2.23898e-07
2.07708e-07
2.03699e-07
2.08294e-07
1.37756e-06
1.23532e-06
1.06086e-06
8.93324e-07
7.49638e-07
6.36586e-07
5.56398e-07
5.09206e-07
4.93075e-07
5.00439e-07
3.48798e-06
3.13038e-06
2.69116e-06
2.26676e-06
1.89796e-06
1.60153e-06
1.384e-06
1.24761e-06
1.19039e-06
1.19747e-06
8.81431e-06
7.9205e-06
6.82308e-06
5.75524e-06
4.81314e-06
4.03781e-06
3.44847e-06
3.05678e-06
2.8666e-06
2.85289e-06
2.22098e-05
1.99935e-05
1.72823e-05
1.46204e-05
1.22299e-05
1.02092e-05
8.61524e-06
7.49577e-06
6.88746e-06
6.76496e-06
5.57229e-05
5.03048e-05
4.37028e-05
3.71521e-05
3.11432e-05
2.59053e-05
2.16052e-05
1.84182e-05
1.65186e-05
1.596e-05
0.000138951
0.000125971
0.000110206
9.43749e-05
7.94753e-05
6.60108e-05
5.446e-05
4.54216e-05
3.95809e-05
3.74462e-05
0.000343505
0.00031323
0.000276636
0.000239351
0.000203132
0.000168969
0.000138175
0.000112671
9.48954e-05
8.73415e-05
0.000838934
0.000770956
0.000689371
0.000604747
0.000519233
0.000434307
0.000353275
0.000281906
0.000228231
0.000202483
0.00201475
0.00187041
0.00169882
0.00151683
0.00132348
0.00111899
0.000910486
0.000713731
0.000553088
0.00046688
0.00472962
0.00444792
0.0041172
0.0037562
0.00334678
0.00287841
0.00236162
0.00183378
0.00136016
0.00107331
0.0107736
0.0102934
0.00973964
0.0091103
0.00832798
0.007337
0.00613364
0.00478667
0.00343808
0.00249054
0.0236073
0.0229745
0.0222668
0.0214019
0.020146
0.0183043
0.0157771
0.0126283
0.00903183
0.00596785
0.0492683
0.048923
0.0485843
0.0479924
0.046599
0.0438974
0.0395048
0.0332935
0.0257818
0.0168601
6.06431e-14
5.48565e-14
4.84673e-14
4.32093e-14
3.89498e-14
3.5985e-14
3.44597e-14
3.43794e-14
3.60056e-14
3.83354e-14
3.4498e-13
3.11797e-13
2.75341e-13
2.44546e-13
2.19822e-13
2.02813e-13
1.94296e-13
1.94276e-13
2.034e-13
2.16585e-13
1.08177e-12
9.73956e-13
8.55372e-13
7.53544e-13
6.73674e-13
6.19937e-13
5.94387e-13
5.97198e-13
6.27371e-13
6.69827e-13
2.99514e-12
2.68724e-12
2.34477e-12
2.04775e-12
1.81845e-12
1.66753e-12
1.59939e-12
1.61324e-12
1.70054e-12
1.81951e-12
7.93457e-12
7.10314e-12
6.16182e-12
5.33887e-12
4.70866e-12
4.30008e-12
4.12156e-12
4.16611e-12
4.40104e-12
4.71109e-12
2.06416e-11
1.84546e-11
1.59324e-11
1.37106e-11
1.20142e-11
1.09218e-11
1.04482e-11
1.05642e-11
1.11666e-11
1.19459e-11
5.3249e-11
4.75526e-11
4.08952e-11
3.49937e-11
3.04846e-11
2.75781e-11
2.62992e-11
2.65514e-11
2.80433e-11
2.99709e-11
1.36711e-10
1.21956e-10
1.04561e-10
8.90557e-11
7.71694e-11
6.94552e-11
6.59535e-11
6.63852e-11
6.99737e-11
7.46845e-11
3.499e-10
3.11858e-10
2.66716e-10
2.26277e-10
1.95118e-10
1.74675e-10
1.65014e-10
1.65379e-10
1.73779e-10
1.85148e-10
8.93645e-10
7.95878e-10
6.79293e-10
5.7435e-10
4.92972e-10
4.38861e-10
4.12125e-10
4.10806e-10
4.29923e-10
4.57026e-10
2.2789e-09
2.02826e-09
1.72821e-09
1.45679e-09
1.2448e-09
1.10171e-09
1.02772e-09
1.0179e-09
1.06002e-09
1.1238e-09
5.80482e-09
5.16374e-09
4.39334e-09
3.69303e-09
3.14179e-09
2.76374e-09
2.5593e-09
2.51633e-09
2.60529e-09
2.75328e-09
1.4773e-08
1.3136e-08
1.11615e-08
9.35811e-09
7.92687e-09
6.92886e-09
6.3653e-09
6.2069e-09
6.38347e-09
6.72122e-09
3.75697e-08
3.33936e-08
2.83417e-08
2.37062e-08
1.99952e-08
1.73629e-08
1.58133e-08
1.52779e-08
1.55926e-08
1.63479e-08
9.54794e-08
8.48365e-08
7.19353e-08
6.00424e-08
5.04336e-08
4.34966e-08
3.92467e-08
3.75286e-08
3.7968e-08
3.9612e-08
2.42454e-07
2.15377e-07
1.82514e-07
1.52066e-07
1.27224e-07
1.0896e-07
9.73317e-08
9.20053e-08
9.21538e-08
9.55975e-08
6.15045e-07
5.46367e-07
4.62912e-07
3.85155e-07
3.2105e-07
2.73013e-07
2.41264e-07
2.25146e-07
2.22921e-07
2.29716e-07
1.55817e-06
1.38469e-06
1.17356e-06
9.75668e-07
8.10646e-07
6.84469e-07
5.97954e-07
5.50038e-07
5.37369e-07
5.49421e-07
3.9405e-06
3.50452e-06
2.97311e-06
2.47192e-06
2.04855e-06
1.71774e-06
1.48244e-06
1.34189e-06
1.29071e-06
1.30737e-06
9.94042e-06
8.85158e-06
7.5241e-06
6.26322e-06
5.18224e-06
4.31721e-06
3.67858e-06
3.27051e-06
3.08882e-06
3.0936e-06
2.49856e-05
2.22916e-05
1.90105e-05
1.58672e-05
1.31255e-05
1.08722e-05
9.14331e-06
7.96841e-06
7.36517e-06
7.27551e-06
6.24801e-05
5.59078e-05
4.79123e-05
4.01743e-05
3.32857e-05
2.74498e-05
2.27858e-05
1.9427e-05
1.75035e-05
1.69963e-05
0.000155117
0.000139393
0.000120286
0.000101573
8.44971e-05
6.95127e-05
5.69976e-05
4.74613e-05
4.14869e-05
3.94188e-05
0.000381244
0.000344619
0.000300199
0.00025606
0.000214553
0.000176587
0.000143291
0.000116428
9.82068e-05
9.07268e-05
0.000924112
0.000841975
0.000742599
0.000642112
0.000544043
0.000449792
0.000362437
0.000287568
0.000232765
0.000207208
0.00219828
0.00202377
0.00181323
0.00159578
0.00137354
0.0011468
0.000922774
0.000717559
0.000554894
0.000470007
0.00510022
0.0047576
0.00434551
0.00390865
0.00343534
0.00291571
0.00236205
0.00181499
0.00134036
0.00106159
0.0114552
0.0108592
0.0101446
0.0093614
0.00844461
0.00734052
0.00605236
0.00466331
0.00332617
0.00241827
0.0246929
0.0238523
0.0228462
0.0216885
0.0201661
0.0180877
0.0153718
0.0121316
0.00858591
0.00568265
0.050598
0.0498972
0.0490437
0.0479345
0.0460484
0.0428791
0.0380752
0.0316289
0.024162
0.0157448
6.69276e-14
6.03571e-14
5.31882e-14
4.73012e-14
4.25544e-14
3.92722e-14
3.76083e-14
3.75625e-14
3.94163e-14
4.20896e-14
3.81502e-13
3.43467e-13
3.02291e-13
2.67723e-13
2.40142e-13
2.21298e-13
2.12009e-13
2.12278e-13
2.22842e-13
2.38177e-13
1.20607e-12
1.08012e-12
9.43923e-13
8.28613e-13
7.38933e-13
6.79053e-13
6.51099e-13
6.55403e-13
6.91406e-13
7.42061e-13
3.37159e-12
3.00387e-12
2.60271e-12
2.26219e-12
2.00257e-12
1.8334e-12
1.75897e-12
1.77929e-12
1.88715e-12
2.03336e-12
9.00854e-12
7.99523e-12
6.87423e-12
5.91887e-12
5.19945e-12
4.73945e-12
4.54593e-12
4.61426e-12
4.91391e-12
5.30496e-12
2.35967e-11
2.08888e-11
1.78435e-11
1.52352e-11
1.32846e-11
1.20513e-11
1.15435e-11
1.17366e-11
1.25276e-11
1.35326e-11
6.11883e-11
5.40606e-11
4.59316e-11
3.89393e-11
3.37234e-11
3.04372e-11
2.90794e-11
2.95591e-11
3.15708e-11
3.41006e-11
1.577e-10
1.39078e-10
1.17671e-10
9.91733e-11
8.53622e-11
7.66336e-11
7.29399e-11
7.3996e-11
7.89584e-11
8.52255e-11
4.04705e-10
3.56414e-10
3.00557e-10
2.52075e-10
2.15758e-10
1.9262e-10
1.82452e-10
1.84438e-10
1.96354e-10
2.11655e-10
1.0354e-09
9.10961e-10
7.66121e-10
6.39899e-10