/*--------------------------------*- C++ -*----------------------------------*\
| =========                 |                                                 |
| \\      /  F ield         | OpenFOAM: The Open Source CFD Toolbox           |
|  \\    /   O peration     | Version:  2112                                  |
|   \\  /    A nd           | Website:  www.openfoam.com                      |
|    \\/     M anipulation  |                                                 |
\*---------------------------------------------------------------------------*/
FoamFile
{
    version     2.0;
    format      ascii;
    arch        "LSB;label=32;scalar=64";
    class       volScalarField;
    location    "30";
    object      T;
}
// * * * * * * * * * * * * * * * * * * * * * * * * * * * * * * * * * * * * * //

dimensions      [0 0 0 1 0 0 0];

internalField   nonuniform List<scalar> 
10000
(
0.998125
1.00296
0.998192
0.99894
0.999077
0.998986
0.998943
0.99819
1.0029
0.998157
0.990565
0.997035
0.99262
0.993915
0.994191
0.994117
0.993915
0.992601
0.996842
0.990694
0.991735
0.996122
0.993126
0.993922
0.994152
0.994215
0.993945
0.993156
0.996017
0.991765
0.994515
0.997273
0.995407
0.995663
0.995748
0.995839
0.995711
0.99548
0.997385
0.994463
0.99569
0.997586
0.99664
0.996745
0.996769
0.996821
0.996786
0.996685
0.997761
0.995689
0.99609
0.997391
0.996958
0.997065
0.997091
0.997121
0.997098
0.996984
0.997502
0.996092
0.996327
0.997199
0.997
0.997123
0.997161
0.997178
0.997143
0.997016
0.997235
0.996306
0.996302
0.996901
0.996855
0.99699
0.997046
0.997051
0.996999
0.996859
0.996916
0.99629
0.995908
0.996359
0.996419
0.996577
0.996651
0.996651
0.99658
0.99642
0.996372
0.995904
0.995096
0.995483
0.995635
0.995823
0.995917
0.995916
0.995825
0.995635
0.9955
0.995099
0.99378
0.994155
0.99439
0.994637
0.994746
0.994761
0.994647
0.994393
0.994203
0.993758
0.991816
0.99223
0.99256
0.992895
0.993029
0.993064
0.992916
0.992573
0.992314
0.991763
0.989007
0.989522
0.989998
0.990421
0.990623
0.990648
0.990449
0.990026
0.989605
0.989016
0.985106
0.98577
0.98643
0.986983
0.987271
0.987297
0.987032
0.986496
0.985872
0.985208
0.979796
0.980716
0.981599
0.982315
0.982722
0.982726
0.982374
0.981719
0.980857
0.98005
0.972723
0.973992
0.975139
0.976085
0.976641
0.976624
0.976177
0.975354
0.974241
0.973185
0.96363
0.965151
0.966664
0.967934
0.968651
0.968712
0.968173
0.967065
0.965646
0.964345
0.952077
0.953835
0.95584
0.95746
0.958384
0.958566
0.957932
0.956549
0.954713
0.953255
0.937405
0.939637
0.942194
0.944228
0.94544
0.945735
0.945016
0.943413
0.941153
0.939397
0.919198
0.922102
0.925293
0.927838
0.929475
0.929904
0.929147
0.927355
0.924625
0.922619
0.897196
0.900723
0.904668
0.9079
0.910053
0.910778
0.910086
0.908094
0.904961
0.902749
0.870781
0.875017
0.879834
0.883933
0.886738
0.887975
0.887509
0.885418
0.882003
0.879554
0.839324
0.844534
0.850348
0.855464
0.859182
0.86116
0.861195
0.859286
0.855664
0.853145
0.80244
0.808769
0.815733
0.822081
0.827017
0.830112
0.831073
0.829755
0.826127
0.823784
0.759673
0.767238
0.775498
0.783309
0.789819
0.794538
0.79705
0.796964
0.793688
0.791793
0.710569
0.71945
0.729099
0.738557
0.747016
0.753978
0.758903
0.761085
0.758814
0.75762
0.65475
0.664912
0.675913
0.687071
0.697767
0.7076
0.715992
0.721971
0.721814
0.721141
0.592042
0.603251
0.615309
0.627934
0.640873
0.654019
0.667019
0.679229
0.684683
0.684613
0.522652
0.534364
0.546805
0.560177
0.574767
0.59095
0.608855
0.62928
0.645724
0.648103
0.447488
0.458817
0.470492
0.483295
0.498145
0.516098
0.538498
0.569837
0.622565
0.663115
1.00288
1.00829
1.00332
1.00423
1.00441
1.00441
1.00423
1.00335
1.00821
1.00289
0.99677
1.00551
1.00106
1.00249
1.00288
1.00293
1.0025
1.00118
1.00546
0.996815
0.996122
1.00288
1.00033
1.00096
1.0012
1.00117
1.00094
1.00041
1.003
0.996035
0.997399
1.0014
0.999964
0.99999
1.00002
0.999922
0.999941
0.999889
1.00134
0.997452
0.997757
0.999964
0.999144
0.999051
0.999016
0.998953
0.999012
0.999053
0.999835
0.997838
0.9975
0.998832
0.998467
0.998394
0.998347
0.998319
0.998374
0.998416
0.998809
0.997562
0.997205
0.998048
0.997965
0.997934
0.997902
0.997892
0.997928
0.997946
0.998127
0.997274
0.996881
0.997462
0.997474
0.997486
0.99748
0.997478
0.997486
0.997472
0.997535
0.996941
0.996341
0.996787
0.996853
0.99691
0.996935
0.996934
0.996913
0.996862
0.996838
0.99639
0.995471
0.995854
0.995981
0.996086
0.996145
0.996144
0.996093
0.995995
0.995893
0.995518
0.99416
0.99453
0.994766
0.994905
0.995026
0.995
0.994911
0.994783
0.994582
0.994235
0.992258
0.992657
0.993033
0.993208
0.993412
0.993346
0.993218
0.993059
0.99273
0.99237
0.989544
0.990013
0.990491
0.990789
0.991025
0.990987
0.990815
0.990533
0.990094
0.989664
0.985775
0.986369
0.986985
0.987438
0.987716
0.987711
0.98748
0.98705
0.986468
0.985936
0.980692
0.981453
0.982214
0.982871
0.983206
0.98328
0.98298
0.982332
0.981581
0.980918
0.973917
0.97495
0.975905
0.976791
0.977207
0.977394
0.977009
0.976116
0.975146
0.974319
0.965025
0.966456
0.967759
0.968839
0.969431
0.969581
0.969094
0.968106
0.966803
0.965774
0.953714
0.955428
0.957199
0.958603
0.959448
0.959537
0.958948
0.957791
0.956153
0.954883
0.939558
0.941605
0.943882
0.945723
0.946864
0.947031
0.946366
0.944913
0.942944
0.94142
0.921984
0.924589
0.927337
0.929727
0.931146
0.931577
0.930878
0.929098
0.926802
0.925031
0.900414
0.903663
0.907068
0.910054
0.911927
0.912659
0.912002
0.910033
0.907349
0.905457
0.874447
0.878473
0.882725
0.886374
0.888937
0.890046
0.889594
0.887636
0.884566
0.882677
0.843707
0.848662
0.853813
0.858353
0.861764
0.863557
0.863567
0.861771
0.858503
0.856718
0.807616
0.813664
0.819824
0.825467
0.829991
0.83284
0.833711
0.832425
0.829186
0.827739
0.765662
0.772948
0.78024
0.787193
0.793168
0.797553
0.799876
0.799703
0.796842
0.796028
0.717366
0.725982
0.734475
0.742913
0.750703
0.757216
0.761825
0.76374
0.761895
0.762009
0.662274
0.672218
0.68186
0.691827
0.701714
0.710963
0.718897
0.724376
0.724564
0.725445
0.60009
0.611144
0.621652
0.63292
0.644911
0.657323
0.669672
0.681075
0.686946
0.688848
0.530821
0.542453
0.553188
0.565067
0.578588
0.593892
0.610895
0.630662
0.646032
0.651654
0.455108
0.466409
0.476291
0.487504
0.501177
0.518093
0.539274
0.570556
0.624203
0.66045
0.998204
1.00337
0.998073
0.998865
0.99905
0.999067
0.998842
0.998071
1.00337
0.998189
0.992618
1.00113
0.996211
0.997531
0.997976
0.998049
0.997561
0.996337
1.00121
0.992589
0.993144
1.00035
0.99743
0.997934
0.998256
0.998289
0.997993
0.997575
1.0004
0.993163
0.995418
0.99994
0.998607
0.998614
0.998728
0.998729
0.998645
0.998633
0.999833
0.99553
0.996642
0.999106
0.998649
0.998629
0.998651
0.998645
0.998639
0.998628
0.998998
0.996757
0.996963
0.99844
0.998391
0.998409
0.998399
0.998392
0.998408
0.998357
0.998382
0.997054
0.997012
0.997955
0.998058
0.998109
0.998105
0.998099
0.998103
0.998024
0.99793
0.99707
0.996867
0.997474
0.997616
0.997694
0.99771
0.997707
0.997686
0.997592
0.997466
0.996899
0.996428
0.996855
0.997015
0.997117
0.997157
0.997156
0.997113
0.997004
0.996858
0.996454
0.995634
0.99598
0.996167
0.996299
0.996364
0.996364
0.9963
0.996166
0.995992
0.995663
0.994405
0.994725
0.994959
0.995128
0.995225
0.995224
0.995136
0.994968
0.994746
0.994439
0.992599
0.992936
0.993241
0.993462
0.9936
0.993598
0.993479
0.99326
0.99297
0.99265
0.990019
0.990419
0.99082
0.991122
0.991304
0.991306
0.991149
0.990855
0.990471
0.990105
0.986431
0.986942
0.987474
0.987885
0.988123
0.98813
0.987923
0.987533
0.987025
0.986584
0.981555
0.982223
0.982918
0.983477
0.983787
0.98381
0.98354
0.983019
0.98236
0.981811
0.975064
0.975944
0.976841
0.977585
0.977996
0.978047
0.977702
0.977022
0.976169
0.975484
0.966583
0.967718
0.968885
0.96985
0.970406
0.970491
0.970064
0.969207
0.968113
0.96727
0.955687
0.957126
0.958645
0.959884
0.960632
0.960765
0.960261
0.959207
0.957833
0.956816
0.941938
0.943769
0.945704
0.947289
0.948274
0.948495
0.947928
0.946666
0.944994
0.943799
0.924877
0.927193
0.929611
0.931633
0.932922
0.9333
0.932707
0.93124
0.92926
0.927907
0.904007
0.906911
0.909906
0.91246
0.914166
0.914797
0.914255
0.912634
0.910345
0.908897
0.878842
0.882454
0.88613
0.889329
0.891605
0.892639
0.892289
0.890628
0.888075
0.886636
0.848885
0.853345
0.857815
0.861811
0.864848
0.866514
0.866592
0.865087
0.862385
0.861111
0.813618
0.819098
0.82448
0.829452
0.833503
0.836132
0.837005
0.835995
0.833347
0.832463
0.772535
0.779204
0.785601
0.79174
0.797114
0.801155
0.803372
0.803417
0.801161
0.800939
0.725121
0.733095
0.740571
0.748034
0.755064
0.76107
0.765407
0.767422
0.766181
0.766918
0.67086
0.680158
0.688656
0.697482
0.706421
0.71496
0.722389
0.727771
0.728604
0.730175
0.609318
0.619753
0.629
0.638969
0.649813
0.661259
0.672792
0.683796
0.690382
0.693529
0.540282
0.551365
0.56074
0.571182
0.583371
0.597426
0.613277
0.632207
0.648289
0.656026
0.464062
0.474925
0.483382
0.493062
0.505254
0.520657
0.540303
0.570034
0.624752
0.665198
0.998953
1.00425
0.998852
0.999666
0.999872
0.999874
0.999646
0.998832
1.00425
0.998933
0.993928
1.00251
0.997507
0.998777
0.99922
0.999247
0.998781
0.997568
1.00254
0.993864
0.993955
1.00095
0.997932
0.998303
0.998596
0.998621
0.998334
0.998031
1.00094
0.993942
0.995675
0.999982
0.998628
0.998526
0.99861
0.998622
0.998555
0.998664
0.999874
0.995787
0.996753
0.999044
0.998637
0.998567
0.998565
0.998568
0.998581
0.998634
0.998945
0.996885
0.99708
0.998384
0.998409
0.998431
0.998412
0.998413
0.998439
0.998394
0.998328
0.997189
0.997131
0.997925
0.998107
0.998189
0.99819
0.99819
0.998192
0.998088
0.997902
0.997213
0.996989
0.99748
0.99769
0.997805
0.997832
0.997832
0.997805
0.997677
0.997476
0.997049
0.996571
0.996908
0.997116
0.997248
0.997297
0.997298
0.997248
0.99711
0.996911
0.996621
0.995815
0.996088
0.996303
0.996453
0.996522
0.996523
0.996455
0.996303
0.996097
0.995864
0.994641
0.994894
0.995138
0.995315
0.995408
0.995408
0.99532
0.995146
0.994916
0.994692
0.992907
0.993183
0.993477
0.993695
0.993818
0.993819
0.993707
0.993495
0.993218
0.992972
0.990427
0.990764
0.991133
0.991414
0.991576
0.991581
0.991437
0.991166
0.990817
0.990526
0.986972
0.987411
0.987885
0.988257
0.98847
0.988481
0.988296
0.987943
0.987493
0.98713
0.982266
0.982851
0.983463
0.983957
0.984239
0.984263
0.984026
0.983566
0.982983
0.982522
0.975991
0.976761
0.977558
0.978209
0.978583
0.978629
0.978328
0.977737
0.976986
0.976402
0.967776
0.968775
0.969816
0.970662
0.971159
0.971235
0.970865
0.970121
0.969166
0.968441
0.957212
0.95849
0.959834
0.960926
0.961589
0.961711
0.961273
0.960356
0.959164
0.958286
0.943858
0.945489
0.947194
0.948593
0.949469
0.949676
0.949184
0.948083
0.946629
0.945596
0.927246
0.929316
0.931449
0.933231
0.934387
0.934737
0.934226
0.93295
0.931222
0.930055
0.906881
0.909495
0.91214
0.914396
0.915929
0.916512
0.916053
0.914645
0.912646
0.911398
0.882279
0.885565
0.888813
0.89165
0.893694
0.894649
0.894371
0.892931
0.890698
0.889465
0.852961
0.857039
0.861004
0.864556
0.867289
0.868827
0.868946
0.867656
0.86529
0.864217
0.818402
0.823429
0.828222
0.832649
0.836306
0.838735
0.839592
0.838768
0.836456
0.835757
0.778071
0.784225
0.789925
0.795402
0.80027
0.804007
0.806116
0.806286
0.804352
0.804293
0.731422
0.738822
0.745486
0.752154
0.758537
0.7641
0.768195
0.770232
0.769291
0.770182
0.677875
0.686556
0.694125
0.702009
0.710135
0.718055
0.725051
0.73031
0.731484
0.733287
0.616887
0.626681
0.634887
0.643766
0.653623
0.664241
0.675115
0.685823
0.692711
0.696359
0.548045
0.558492
0.566736
0.575965
0.586998
0.599986
0.614879
0.633076
0.649557
0.65845
0.471362
0.481641
0.48892
0.497317
0.508236
0.522366
0.540748
0.569426
0.624609
0.667009
0.998945
1.00449
0.999066
0.999825
1.00003
1.00003
0.999811
0.999054
1.0045
0.99893
0.994044
1.003
0.99804
0.999231
0.999652
0.999664
0.999235
0.998093
1.00304
0.994
0.994295
1.00102
0.998252
0.998616
0.998904
0.998919
0.998641
0.998344
1.00103
0.99429
0.99586
0.999871
0.998706
0.998586
0.998661
0.998674
0.998612
0.998747
0.999791
0.995964
0.996819
0.998949
0.998632
0.998545
0.99853
0.998536
0.998559
0.998634
0.998866
0.99695
0.997115
0.99832
0.998385
0.998402
0.998374
0.998377
0.998411
0.998372
0.998269
0.997235
0.99717
0.99789
0.998095
0.998185
0.998182
0.998184
0.998191
0.998081
0.997867
0.997263
0.997039
0.997476
0.997701
0.997829
0.997856
0.997857
0.997832
0.997696
0.99747
0.997111
0.996636
0.996941
0.99715
0.997296
0.997347
0.997347
0.997298
0.997151
0.996935
0.996699
0.995907
0.99615
0.996365
0.996522
0.996593
0.996595
0.996526
0.996367
0.996153
0.995962
0.994765
0.994985
0.995232
0.995407
0.995498
0.9955
0.995412
0.995236
0.995006
0.994818
0.993069
0.993314
0.993604
0.993814
0.993931
0.993934
0.993825
0.993617
0.993349
0.993138
0.990641
0.990947
0.991302
0.991571
0.991722
0.991729
0.991592
0.991333
0.991001
0.990743
0.987256
0.98766
0.988105
0.98846
0.98866
0.988673
0.988499
0.988168
0.987745
0.987416
0.98264
0.983194
0.983756
0.984223
0.984489
0.984513
0.984292
0.983864
0.98332
0.982899
0.976483
0.977219
0.977951
0.978558
0.978909
0.978951
0.978673
0.978127
0.977429
0.976892
0.968421
0.96936
0.970331
0.971113
0.971578
0.971648
0.971307
0.970621
0.969736
0.969067
0.958039
0.959234
0.960495
0.961503
0.96212
0.962237
0.961834
0.960986
0.959882
0.959071
0.944892
0.946426
0.948021
0.949316
0.950132
0.95033
0.949878
0.948861
0.947512
0.946557
0.928522
0.930476
0.932467
0.934122
0.935202
0.935535
0.935067
0.933888
0.93228
0.931201
0.908427
0.910939
0.913384
0.915479
0.916914
0.917467
0.91705
0.91575
0.913885
0.912731
0.884129
0.887338
0.890315
0.892951
0.894864
0.895771
0.895526
0.894196
0.892111
0.890974
0.85519
0.859097
0.862785
0.866092
0.868654
0.870116
0.87025
0.869062
0.866847
0.86587
0.821035
0.825811
0.830306
0.834435
0.83787
0.84018
0.84102
0.840278
0.838108
0.837504
0.781107
0.787025
0.792334
0.797446
0.802027
0.805585
0.807624
0.807841
0.806033
0.806063
0.734889
0.742012
0.748223
0.754451
0.760464
0.76577
0.769719
0.77175
0.770916
0.771897
0.681747
0.69011
0.697166
0.704523
0.712188
0.719753
0.726504
0.731682
0.732959
0.734883
0.621081
0.630517
0.638152
0.646421
0.655716
0.665863
0.676363
0.686891
0.69389
0.697765
0.552357
0.562425
0.570053
0.578597
0.588977
0.601375
0.615759
0.633627
0.650186
0.659545
0.475402
0.485343
0.491966
0.499638
0.509844
0.523282
0.541015
0.569089
0.624271
0.667049
0.999086
1.00441
0.99904
0.999862
1.00008
1.00007
0.999848
0.999027
1.00443
0.999068
0.99419
1.00288
0.997955
0.999207
0.99965
0.999657
0.999209
0.998009
1.00294
0.994126
0.994138
1.00122
0.998268
0.998599
0.998884
0.998896
0.998622
0.998355
1.00122
0.99412
0.995739
1.00005
0.998745
0.998618
0.99869
0.998701
0.998641
0.998781
0.99996
0.995843
0.996773
0.999028
0.998655
0.998567
0.99855
0.998556
0.998578
0.998654
0.998942
0.996908
0.997096
0.998353
0.998397
0.998412
0.998381
0.998386
0.99842
0.998383
0.998296
0.997221
0.99716
0.997907
0.9981
0.99819
0.998185
0.998187
0.998194
0.998085
0.997875
0.99726
0.997017
0.997515
0.997705
0.997831
0.997858
0.997859
0.997833
0.997695
0.997471
0.997113
0.996599
0.997019
0.997158
0.997298
0.997349
0.997349
0.997299
0.99715
0.996936
0.996701
0.995905
0.996173
0.99637
0.996524
0.996595
0.996595
0.996526
0.996367
0.996154
0.995964
0.994792
0.994936
0.995231
0.995408
0.995499
0.995501
0.995414
0.995236
0.995008
0.994821
0.993084
0.993276
0.993602
0.993815
0.993932
0.993936
0.993827
0.993618
0.993352
0.99314
0.990651
0.990931
0.991299
0.991573
0.991724
0.991732
0.991596
0.991336
0.991005
0.990746
0.98725
0.987689
0.988109
0.988464
0.988664
0.988678
0.988504
0.988173
0.987751
0.987422
0.982601
0.983298
0.983772
0.984233
0.984497
0.98452
0.984298
0.983873
0.98333
0.982908
0.97645
0.977317
0.97797
0.97857
0.97892
0.97896
0.978683
0.978138
0.977441
0.976906
0.96844
0.969343
0.970344
0.971126
0.971592
0.971662
0.971322
0.970636
0.969752
0.969086
0.958087
0.959157
0.960503
0.961517
0.962137
0.962256
0.961854
0.961008
0.959905
0.959095
0.944932
0.946381
0.94803
0.949335
0.950154
0.950355
0.949904
0.948889
0.947541
0.946587
0.928551
0.930474
0.932485
0.934146
0.93523
0.935566
0.935099
0.933923
0.932316
0.931238
0.908468
0.910941
0.913414
0.915513
0.91695
0.917506
0.917091
0.915794
0.913932
0.91278
0.884198
0.887319
0.890356
0.892995
0.894911
0.89582
0.895578
0.894251
0.892169
0.891033
0.855252
0.85913
0.862842
0.866148
0.868713
0.870176
0.870311
0.869126
0.866914
0.865937
0.821098
0.825897
0.830378
0.834505
0.83794
0.840251
0.841091
0.840352
0.838185
0.837579
0.781202
0.787094
0.79242
0.797531
0.80211
0.805668
0.807707
0.807926
0.80612
0.806148
0.734999
0.742108
0.748328
0.75455
0.760562
0.765867
0.769814
0.771845
0.771016
0.772
0.681879
0.690243
0.697293
0.704642
0.712304
0.719865
0.726613
0.731788
0.733056
0.734978
0.621231
0.630692
0.638308
0.646566
0.655854
0.665991
0.676472
0.686969
0.694019
0.698013
0.552528
0.562644
0.570241
0.578776
0.589151
0.601544
0.615933
0.633865
0.650317
0.659358
0.475607
0.485581
0.492191
0.499858
0.51006
0.523497
0.54123
0.569283
0.624606
0.667919
0.998928
1.00424
0.998858
0.99965
0.999851
0.999848
0.999633
0.99884
1.00425
0.998908
0.993877
1.00252
0.997544
0.99878
0.999216
0.999218
0.998777
0.997587
1.00258
0.993811
0.993911
1.00097
0.997972
0.998322
0.99861
0.998619
0.99834
0.998054
1.00098
0.993885
0.995697
0.999967
0.998631
0.998541
0.998625
0.998635
0.998561
0.998663
0.999871
0.995796
0.996779
0.999025
0.998627
0.99857
0.998569
0.998574
0.99858
0.998625
0.998932
0.996913
0.99709
0.99838
0.998401
0.998432
0.998415
0.998418
0.998438
0.998387
0.998321
0.997211
0.99713
0.997931
0.998098
0.998189
0.998192
0.998194
0.998192
0.998081
0.997898
0.997229
0.996977
0.997493
0.997681
0.997804
0.997832
0.997833
0.997804
0.99767
0.997474
0.997058
0.996559
0.996928
0.997109
0.997247
0.997298
0.997298
0.997247
0.997105
0.996913
0.996626
0.995813
0.996102
0.996304
0.996454
0.996525
0.996525
0.996456
0.996301
0.996101
0.995871
0.994645
0.9949
0.995145
0.995319
0.995411
0.995412
0.995324
0.995147
0.994922
0.994702
0.992918
0.993188
0.993485
0.993702
0.993822
0.993826
0.993714
0.993499
0.993226
0.992985
0.99044
0.99077
0.991141
0.991424
0.991583
0.991592
0.991449
0.991176
0.99083
0.990541
0.986977
0.987423
0.987891
0.988269
0.988481
0.988496
0.988312
0.987959
0.987512
0.98715
0.982265
0.982883
0.983475
0.983976
0.98426
0.984284
0.984048
0.983591
0.98301
0.98255
0.975998
0.976802
0.977584
0.978237
0.978614
0.978657
0.978359
0.977772
0.977023
0.976442
0.967808
0.968808
0.969856
0.9707
0.971201
0.971274
0.970908
0.970167
0.969215
0.968495
0.957271
0.958526
0.959888
0.960978
0.961643
0.961768
0.961333
0.96042
0.959233
0.958359
0.94391
0.945567
0.947261
0.948661
0.949539
0.94975
0.949262
0.948167
0.946718
0.945687
0.927281
0.929459
0.931535
0.933318
0.934478
0.934831
0.934323
0.933056
0.93133
0.930164
0.906962
0.909614
0.912251
0.914506
0.916044
0.91663
0.916175
0.914779
0.912782
0.911534
0.882423
0.88564
0.888952
0.891788
0.893837
0.894796
0.894523
0.893092
0.890867
0.889631
0.853138
0.857155
0.861173
0.864727
0.867463
0.869005
0.869129
0.867846
0.86549
0.864415
0.818613
0.823608
0.828425
0.832857
0.836515
0.838947
0.839807
0.838989
0.836684
0.835989
0.778326
0.784458
0.790173
0.795652
0.800518
0.804254
0.806363
0.806539
0.80461
0.804554
0.73173
0.739117
0.745786
0.752452
0.758829
0.764385
0.768474
0.770516
0.769581
0.770472
0.678247
0.686918
0.694484
0.702361
0.710478
0.718385
0.725368
0.730624
0.731797
0.733594
0.617329
0.627121
0.635319
0.644188
0.65403
0.664622
0.675458
0.68616
0.693051
0.696702
0.548565
0.559022
0.567256
0.576478
0.587495
0.600453
0.615292
0.633482
0.649902
0.65872
0.471963
0.482264
0.489544
0.497941
0.508851
0.522956
0.541283
0.569888
0.625036
0.667304
0.998194
1.00336
0.998078
0.998853
0.999048
0.999045
0.99884
0.998065
1.00337
0.998175
0.992594
1.00116
0.996319
0.997562
0.997997
0.998006
0.997579
0.99639
1.00126
0.992541
0.993137
1.00041
0.997554
0.998009
0.998321
0.998337
0.998047
0.997671
1.00047
0.993123
0.995456
0.999909
0.998617
0.998639
0.998751
0.99876
0.998657
0.998651
0.999805
0.995547
0.996658
0.999059
0.998615
0.998617
0.998638
0.998642
0.998621
0.998607
0.998946
0.996782
0.996962
0.998414
0.998349
0.998386
0.998379
0.99838
0.998385
0.998322
0.998336
0.99707
0.997002
0.997951
0.998018
0.998086
0.998086
0.998085
0.998081
0.997987
0.997896
0.997079
0.996837
0.997473
0.997587
0.997677
0.997697
0.997696
0.997671
0.997563
0.997445
0.996903
0.996398
0.996864
0.997003
0.997109
0.997151
0.99715
0.997105
0.996987
0.99685
0.996455
0.995626
0.996001
0.996169
0.996302
0.996367
0.996366
0.996302
0.996162
0.995996
0.995671
0.99441
0.994742
0.99497
0.995142
0.995233
0.995235
0.995146
0.994973
0.994761
0.994462
0.992612
0.99295
0.993259
0.993485
0.99361
0.993615
0.993497
0.993273
0.992991
0.992681
0.990038
0.990434
0.990841
0.991148
0.991321
0.991329
0.991174
0.990876
0.990498
0.990144
0.986452
0.986964
0.987489
0.987909
0.988145
0.988161
0.987955
0.987561
0.987058
0.986627
0.981585
0.98227
0.982942
0.983505
0.983823
0.983849
0.983582
0.983064
0.982403
0.981866
0.975098
0.975996
0.976883
0.977624
0.978048
0.978094
0.977753
0.977086
0.976229
0.975555
0.966626
0.967764
0.968952
0.969912
0.970476
0.970554
0.970134
0.969289
0.968198
0.967361
0.955762
0.95719
0.958737
0.959976
0.960725
0.960859
0.960361
0.959315
0.957953
0.956939
0.942041
0.943868
0.945812
0.947406
0.948395
0.948622
0.948061
0.946805
0.945143
0.943951
0.924995
0.927335
0.929744
0.931772
0.933076
0.933457
0.932869
0.931416
0.92944
0.928091
0.904152
0.907078
0.910079
0.912631
0.914354
0.914989
0.914453
0.91285
0.910568
0.909119
0.879032
0.882646
0.886351
0.889549
0.891833
0.892873
0.892532
0.890884
0.888345
0.886897
0.84913
0.853587
0.858089
0.862088
0.86513
0.866803
0.866887
0.865393
0.862704
0.861422
0.813928
0.819403
0.824813
0.829792
0.833845
0.83648
0.837358
0.836358
0.833718
0.832836
0.772919
0.779582
0.786001
0.792148
0.797522
0.801563
0.80378
0.803834
0.801583
0.801373
0.725587
0.733559
0.741048
0.748515
0.75554
0.761539
0.765871
0.76789
0.766657
0.767417
0.671418
0.680718
0.689222
0.698046
0.706974
0.715499
0.722913
0.728292
0.729127
0.730742
0.609978
0.620423
0.629673
0.639634
0.650461
0.661878
0.673371
0.684372
0.690978
0.694226
0.541056
0.552157
0.561538
0.571976
0.584148
0.59817
0.613978
0.63294
0.648948
0.656669
0.464955
0.475852
0.484324
0.494012
0.506196
0.521576
0.541144
0.57092
0.625716
0.665985
1.00289
1.0082
1.00335
1.00423
1.00441
1.00441
1.00423
1.00337
1.00823
1.00288
0.99682
1.00543
1.00116
1.00252
1.00291
1.00292
1.00254
1.00125
1.00554
0.996758
0.99599
1.00305
1.00039
1.00096
1.00124
1.00125
1.00097
1.00047
1.00306
0.995959
0.997331
1.00147
0.999844
0.999902
0.999992
0.999988
0.999878
0.999809
1.00122
0.997432
0.997748
0.999881
0.998996
0.99896
0.998964
0.998959
0.998936
0.998949
0.999717
0.997863
0.997529
0.998792
0.998375
0.998335
0.99831
0.998307
0.998322
0.998337
0.998748
0.997611
0.997223
0.998173
0.99793
0.997908
0.997884
0.997882
0.997899
0.997895
0.998105
0.997319
0.996933
0.997551
0.997465
0.99748
0.997476
0.997474
0.997475
0.997444
0.997532
0.996973
0.996431
0.996833
0.996861
0.996914
0.996937
0.996937
0.996912
0.996849
0.996843
0.996413
0.99548
0.995938
0.996
0.9961
0.996154
0.996155
0.996101
0.995996
0.995905
0.995536
0.99414
0.994539
0.994749
0.994914
0.995004
0.995006
0.994921
0.994761
0.994582
0.994229
0.992273
0.992582
0.992967
0.993207
0.993341
0.993347
0.993225
0.992991
0.992708
0.992334
0.989568
0.989965
0.990454
0.990795
0.990987
0.990997
0.990827
0.990498
0.990085
0.989654
0.98581
0.986411
0.986982
0.987455
0.987719
0.987736
0.987504
0.987056
0.986482
0.985959
0.980697
0.981612
0.982279
0.982918
0.983274
0.9833
0.982995
0.982399
0.981627
0.98097
0.973888
0.975061
0.976009
0.976861
0.97734
0.977385
0.976994
0.976219
0.975209
0.97438
0.965093
0.966382
0.967811
0.968923
0.969565
0.969647
0.969162
0.968177
0.966886
0.965856
0.953869
0.955389
0.957283
0.958718
0.95957
0.959715
0.959137
0.957918
0.956303
0.95505
0.939678
0.941716
0.944002
0.945836
0.946958
0.947204
0.946549
0.945084
0.943112
0.941622
0.922071
0.924769
0.927518
0.929844
0.931317
0.93173
0.931037
0.929339
0.92699
0.925281
0.900584
0.9039
0.907362
0.910293
0.912233
0.912922
0.91228
0.910399
0.907682
0.905809
0.874751
0.878761
0.883082
0.886749
0.889316
0.890448
0.890011
0.888063
0.88503
0.883093
0.84408
0.84901
0.854218
0.858785
0.862192
0.864013
0.864035
0.862235
0.859
0.857169
0.808055
0.81408
0.820287
0.825953
0.830476
0.833341
0.834219
0.832935
0.829707
0.828226
0.766178
0.773445
0.780773
0.787746
0.793721
0.79811
0.800435
0.800269
0.7974
0.796549
0.717966
0.726576
0.735095
0.743544
0.751333
0.75784
0.762442
0.764364
0.7625
0.762565
0.662982
0.672921
0.682584
0.692553
0.702433
0.711672
0.719582
0.725064
0.725204
0.726025
0.600919
0.61197
0.622497
0.633768
0.645748
0.658131
0.670426
0.681852
0.687667
0.689546
0.531789
0.543422
0.554178
0.566069
0.579578
0.594844
0.611809
0.631638
0.646695
0.65208
0.456216
0.467531
0.477445
0.488684
0.502352
0.519243
0.540337
0.571789
0.625054
0.661407
0.998168
1.0029
0.998203
0.99893
0.99907
0.999066
0.998918
0.998184
1.00288
0.998171
0.990735
0.996826
0.992594
0.993845
0.994114
0.994106
0.993816
0.992553
0.996763
0.990726
0.991727
0.996038
0.993132
0.99388
0.994065
0.99406
0.993865
0.993121
0.995959
0.99174
0.994366
0.997477
0.99549
0.995748
0.995799
0.995808
0.99577
0.995537
0.997428
0.994477
0.99564
0.997868
0.996722
0.996864
0.996876
0.996887
0.996891
0.996773
0.997859
0.995736
0.996064
0.99757
0.997026
0.99717
0.997189
0.997199
0.997195
0.997063
0.997607
0.996132
0.996255
0.997291
0.997051
0.997196
0.997234
0.99724
0.997216
0.997071
0.997315
0.996336
0.996245
0.996965
0.99688
0.997034
0.997095
0.997099
0.997047
0.996895
0.996969
0.996318
0.995827
0.996413
0.996434
0.996607
0.996688
0.99669
0.996614
0.996449
0.996408
0.995937
0.995058
0.995516
0.995652
0.995854
0.995951
0.995952
0.995857
0.995665
0.995531
0.995137
0.993862
0.994155
0.994441
0.99468
0.994801
0.994805
0.994687
0.99445
0.994221
0.993841
0.991919
0.992231
0.99265
0.992949
0.99311
0.993118
0.992965
0.992662
0.992322
0.991907
0.989085
0.989539
0.990079
0.990479
0.990701
0.990713
0.990511
0.990119
0.989638
0.989144
0.985121
0.985834
0.986497
0.987048
0.987351
0.98737
0.987107
0.986592
0.985934
0.985322
0.979753
0.980821
0.981645
0.982388
0.982793
0.982824
0.982484
0.981812
0.980935
0.980161
0.972829
0.974056
0.975202
0.976176
0.976712
0.976765
0.976336
0.975472
0.974327
0.973346
0.963857
0.965188
0.966798
0.968047
0.968756
0.968849
0.968323
0.967234
0.965776
0.964545
0.952238
0.953926
0.95601
0.957609
0.958549
0.95871
0.958083
0.956746
0.954928
0.953414
0.937537
0.939826
0.942395
0.944447
0.945686
0.945961
0.945249
0.943652
0.941435
0.939622
0.919375
0.922379
0.925517
0.928129
0.929756
0.930216
0.929468
0.927627
0.924993
0.922884
0.897433
0.901002
0.904923
0.908215
0.910356
0.911114
0.910428
0.908402
0.905364
0.902997
0.871074
0.87529
0.880158
0.884271
0.887097
0.888334
0.887877
0.885798
0.88241
0.87987
0.839687
0.844871
0.850752
0.855876
0.859615
0.861595
0.861638
0.859745
0.856128
0.853564
0.802888
0.8092
0.816219
0.822586
0.827537
0.830637
0.831604
0.830293
0.826666
0.824295
0.760216
0.767769
0.776074
0.78391
0.79043
0.795152
0.797663
0.797584
0.7943
0.792386
0.711215
0.720086
0.729778
0.739258
0.747723
0.754682
0.759602
0.761792
0.759504
0.758299
0.655516
0.665673
0.676712
0.687887
0.69858
0.708406
0.716785
0.722775
0.722588
0.721909
0.592939
0.604149
0.616243
0.628882
0.641816
0.654947
0.667916
0.680164
0.685606
0.685547
0.523694
0.53542
0.547897
0.56129
0.575879
0.592042
0.60991
0.630404
0.646774
0.649081
0.448676
0.460033
0.471758
0.484601
0.499464
0.517411
0.539771
0.571224
0.624066
0.664112
0.368476
0.378234
0.387631
0.397989
0.410632
0.426638
0.447347
0.472198
0.523631
0.577841
0.288803
0.29582
0.301566
0.307813
0.316112
0.327521
0.343709
0.364546
0.401704
0.468091
0.212877
0.216484
0.217956
0.219427
0.222441
0.227997
0.237286
0.251149
0.271797
0.309126
0.14562
0.145995
0.143766
0.141223
0.139657
0.139749
0.141975
0.146616
0.153666
0.165397
0.0911779
0.0893623
0.0851037
0.080583
0.076777
0.0740046
0.072355
0.0717955
0.0722215
0.0742104
0.0516151
0.0490045
0.0446311
0.0402758
0.0365322
0.0334963
0.0311013
0.0292263
0.0277778
0.0269253
0.0261479
0.0238445
0.0205432
0.0174687
0.0149078
0.0128387
0.0111556
0.00974384
0.00853198
0.00759565
0.011769
0.0102292
0.00826489
0.00655816
0.00520748
0.00415732
0.00332292
0.00263545
0.00205478
0.00162358
0.00468635
0.00386674
0.00291555
0.00214398
0.00156917
0.00114556
0.000826318
0.000576192
0.000381045
0.000259632
0.00165376
0.00129513
0.000911324
0.000619597
0.000415826
0.000275168
0.000176709
0.000105567
5.73152e-05
3.71347e-05
0.374627
0.38438
0.391959
0.400663
0.412022
0.42683
0.446242
0.46869
0.522566
0.576866
0.292485
0.299514
0.303463
0.308002
0.314854
0.324735
0.339281
0.357539
0.39259
0.463025
0.213434
0.217041
0.216864
0.216688
0.218186
0.222063
0.22938
0.240701
0.257572
0.293792
0.143234
0.143586
0.140096
0.136268
0.133495
0.132215
0.132716
0.135093
0.138911
0.147223
0.0870439
0.0852441
0.0803752
0.0752975
0.0709716
0.0675837
0.0651281
0.0634623
0.0623366
0.0624638
0.0474227
0.0449138
0.0405269
0.0362026
0.0324888
0.0294239
0.0269054
0.0247537
0.0228567
0.0214743
0.0230197
0.0208708
0.0178455
0.015058
0.0127414
0.0108613
0.00929761
0.00792275
0.00670369
0.0057853
0.00990538
0.00853057
0.00685717
0.00542022
0.00428444
0.00340039
0.00268087
0.00206685
0.00154824
0.00121549
0.00377297
0.00307362
0.00231122
0.00170038
0.00124502
0.000908464
0.000648349
0.000436217
0.000281277
0.000204822
0.00127744
0.000984019
0.00069143
0.000471888
0.000318188
0.000211217
0.000134886
7.6719e-05
4.20889e-05
3.18799e-05
0.381953
0.391418
0.397562
0.404689
0.414474
0.427608
0.44497
0.464632
0.51804
0.575111
0.296894
0.303774
0.306371
0.309368
0.314611
0.322696
0.334936
0.350649
0.381856
0.452994
0.213976
0.217551
0.216267
0.214762
0.214783
0.216885
0.221905
0.230268
0.243002
0.274812
0.140054
0.140462
0.13633
0.131686
0.127933
0.12541
0.124269
0.124455
0.125288
0.130073
0.0817396
0.0800861
0.0752355
0.0700681
0.0654937
0.0616737
0.058577
0.0560353
0.0537706
0.052605
0.0422044
0.039947
0.0359978
0.0320589
0.0285907
0.0256397
0.0231228
0.0208923
0.0188689
0.017357