/*--------------------------------*- C++ -*----------------------------------*\
| =========                 |                                                 |
| \\      /  F ield         | OpenFOAM: The Open Source CFD Toolbox           |
|  \\    /   O peration     | Version:  2112                                  |
|   \\  /    A nd           | Website:  www.openfoam.com                      |
|    \\/     M anipulation  |                                                 |
\*---------------------------------------------------------------------------*/
FoamFile
{
    version     2.0;
    format      ascii;
    arch        "LSB;label=32;scalar=64";
    class       volScalarField;
    location    "18.5";
    object      p;
}
// * * * * * * * * * * * * * * * * * * * * * * * * * * * * * * * * * * * * * //

dimensions      [0 2 -2 0 0 0 0];

internalField   nonuniform List<scalar> 
8800
(
0.405295
0.357516
0.31884
0.289858
0.269006
0.254185
0.243593
0.236106
0.23125
0.229096
0.230182
0.234175
0.240637
0.249803
0.262469
0.28012
0.304838
0.338734
0.38124
0.439938
0.236527
0.244206
0.25171
0.255029
0.253542
0.248486
0.242023
0.23596
0.231216
0.228294
0.227864
0.23017
0.234462
0.240229
0.24685
0.253016
0.256574
0.255791
0.250303
0.241573
0.214904
0.221076
0.225227
0.228205
0.230287
0.230923
0.22984
0.227735
0.225675
0.224649
0.225414
0.227572
0.230162
0.232161
0.232613
0.231291
0.228847
0.225374
0.220779
0.217007
0.209055
0.211722
0.214534
0.217007
0.218709
0.219922
0.220694
0.220821
0.220482
0.220296
0.22083
0.22175
0.222342
0.222186
0.221386
0.220124
0.218156
0.215454
0.212973
0.211468
0.203654
0.205093
0.20696
0.209103
0.210994
0.212424
0.213464
0.214264
0.214827
0.215253
0.215643
0.215837
0.215652
0.215102
0.214152
0.212667
0.210754
0.208724
0.207317
0.206493
0.198594
0.199522
0.200899
0.202645
0.204459
0.206147
0.207558
0.208677
0.209599
0.210327
0.210712
0.210676
0.210263
0.209444
0.208194
0.206647
0.205003
0.203477
0.202529
0.201999
0.193813
0.194469
0.195616
0.19719
0.198866
0.200567
0.202204
0.203624
0.204762
0.205633
0.206117
0.206084
0.205532
0.204519
0.203211
0.20179
0.200331
0.199039
0.198311
0.197949
0.18943
0.189911
0.190896
0.19235
0.193914
0.195482
0.197064
0.198639
0.20007
0.201204
0.201764
0.201661
0.201039
0.200108
0.19901
0.19777
0.196458
0.195338
0.194759
0.194506
0.185418
0.185741
0.186618
0.187994
0.189512
0.191062
0.192605
0.194091
0.195523
0.19679
0.197544
0.197662
0.197315
0.196606
0.195632
0.194501
0.193307
0.192302
0.191843
0.191691
0.182204
0.182384
0.183106
0.184364
0.185778
0.187243
0.188787
0.190392
0.191973
0.193422
0.194406
0.194731
0.194525
0.193954
0.19317
0.192249
0.191222
0.190397
0.190081
0.190013
0.179735
0.179835
0.180289
0.181175
0.182252
0.183429
0.184726
0.186189
0.1878
0.189452
0.190739
0.191427
0.19164
0.191545
0.191205
0.190701
0.190122
0.189683
0.189529
0.189489
0.177144
0.177227
0.177515
0.178094
0.178907
0.179955
0.181251
0.182801
0.184586
0.186516
0.188185
0.189234
0.189759
0.189884
0.189842
0.189731
0.189563
0.189437
0.189372
0.189331
0.173785
0.173858
0.174092
0.174529
0.175212
0.176122
0.177376
0.179021
0.181017
0.183326
0.185444
0.186933
0.187887
0.18844
0.188713
0.188942
0.18907
0.189109
0.189088
0.189048
0.169575
0.169627
0.169876
0.170352
0.171024
0.172045
0.173458
0.175331
0.17767
0.180449
0.183139
0.185144
0.186478
0.187372
0.188017
0.188398
0.188643
0.18873
0.188736
0.188702
0.164703
0.164741
0.165014
0.16562
0.166483
0.167601
0.169257
0.171455
0.174259
0.177691
0.181081
0.183694
0.185538
0.186789
0.187639
0.188194
0.188487
0.188609
0.188653
0.188628
0.159243
0.159271
0.159561
0.160271
0.161371
0.162734
0.16469
0.167327
0.170726
0.174955
0.179228
0.182588
0.18501
0.186713
0.187827
0.188553
0.188932
0.189126
0.189208
0.189185
0.153161
0.153188
0.153503
0.15429
0.155533
0.157314
0.159679
0.162859
0.167043
0.172293
0.177647
0.181912
0.18501
0.187156
0.188665
0.189609
0.190165
0.190468
0.190583
0.190557
0.146193
0.146225
0.146628
0.147491
0.148953
0.151043
0.153942
0.157887
0.163092
0.169636
0.176332
0.181703
0.185581
0.188386
0.190275
0.191519
0.192288
0.192714
0.192864
0.192831
0.137912
0.137949
0.138418
0.139495
0.141243
0.143796
0.147387
0.152322
0.158834
0.167011
0.175365
0.182052
0.186964
0.190428
0.192818
0.194415
0.195428
0.195987
0.196173
0.196129
0.127879
0.127929
0.128533
0.129861
0.132044
0.135251
0.13979
0.146009
0.154191
0.164419
0.174811
0.183104
0.18918
0.193474
0.196451
0.198459
0.199744
0.200444
0.200674
0.200619
0.11556
0.115628
0.116412
0.118132
0.120942
0.125051
0.13085
0.138761
0.149099
0.161891
0.174761
0.18498
0.192426
0.197711
0.201386
0.203879
0.205477
0.206342
0.206623
0.206553
0.100188
0.100286
0.101335
0.103621
0.107338
0.11272
0.120258
0.130433
0.143535
0.159491
0.175335
0.187819
0.196896
0.203352
0.207858
0.210934
0.212912
0.213967
0.214306
0.214218
0.080605
0.0807426
0.0822047
0.0853819
0.0904683
0.097712
0.107699
0.120902
0.137523
0.157338
0.176689
0.191805
0.20278
0.210614
0.216118
0.219906
0.222363
0.223671
0.224075
0.22396
0.0550391
0.0552637
0.0574346
0.0620903
0.0693203
0.0793662
0.0928409
0.110102
0.131169
0.155604
0.178998
0.197106
0.210254
0.219697
0.226399
0.231067
0.234119
0.235741
0.236223
0.236074
0.0204508
0.020894
0.0244904
0.0318811
0.0427085
0.0571181
0.0755784
0.0981938
0.124725
0.154527
0.182443
0.203852
0.219425
0.23072
0.238863
0.244644
0.24848
0.25051
0.251079
0.250881
-0.0291136
-0.0275887
-0.0202662
-0.00729802
0.00982322
0.0309607
0.0562926
0.0856575
0.118621
0.154411
0.187189
0.212105
0.230284
0.24364
0.25348
0.260659
0.265569
0.268211
0.268916
0.26864
-0.10311
-0.0943124
-0.0775351
-0.0544511
-0.0278802
0.00221629
0.0359408
0.0730906
0.113216
0.155573
0.193688
0.22255
0.243789
0.259688
0.271774
0.281032
0.287708
0.291556
0.292724
0.292652
-0.182246
-0.162379
-0.135516
-0.10208
-0.0658315
-0.0266449
0.0155597
0.0606868
0.108395
0.158081
0.202607
0.23653
0.261856
0.281235
0.296407
0.308426
0.317564
0.3238
0.326083
0.326163
-0.245526
-0.223129
-0.188102
-0.146368
-0.101596
-0.0540129
-0.00372667
0.0490861
0.104085
0.160706
0.211131
0.24952
0.278294
0.30046
0.317924
0.331836
0.342573
0.349897
0.351828
0.352174
-0.2969
-0.272438
-0.232538
-0.18491
-0.133514
-0.0790182
-0.021732
0.0380069
0.0997084
0.162704
0.218381
0.26051
0.291926
0.316
0.33485
0.349816
0.36129
0.368893
0.371266
0.371683
-0.338862
-0.313581
-0.270199
-0.218073
-0.161471
-0.101387
-0.0382181
0.0275253
0.0951885
0.1639
0.224192
0.269402
0.302765
0.328066
0.347686
0.363126
0.374847
0.382537
0.385157
0.385523
-0.374573
-0.348825
-0.302981
-0.247214
-0.186377
-0.121611
-0.0533987
0.0176008
0.0905689
0.164434
0.228828
0.276667
0.311604
0.337797
0.357847
0.373403
0.385106
0.392723
0.39551
0.395874
-0.405967
-0.379979
-0.33224
-0.27347
-0.209088
-0.140278
-0.0676651
0.00801105
0.0857924
0.164395
0.232642
0.282947
0.319288
0.346182
0.366503
0.382059
0.393699
0.401223
0.404114
0.40446
-0.434503
-0.4083
-0.358983
-0.297717
-0.23029
-0.157971
-0.0814413
-0.00152365
0.0807136
0.163814
0.235751
0.288407
0.326096
0.353695
0.374321
0.389954
0.401551
0.408943
0.411893
0.412236
-0.461027
-0.434625
-0.383977
-0.32055
-0.250466
-0.175045
-0.0950158
-0.0112493
0.0751273
0.162501
0.23807
0.29319
0.33237
0.360804
0.381828
0.3976
0.409202
0.416444
0.41937
0.4198
-0.486227
-0.459566
-0.407699
-0.342381
-0.269947
-0.191792
-0.108636
-0.0213602
0.0688688
0.160399
0.239734
0.297506
0.338343
0.367762
0.389315
0.405321
0.416972
0.424128
0.426956
0.427396
-0.510372
-0.483423
-0.430436
-0.363522
-0.288992
-0.208391
-0.122427
-0.0319455
0.0619221
0.157531
0.240696
0.301332
0.34409
0.374704
0.396962
0.413334
0.425113
0.432225
0.434915
0.435279
-0.533806
-0.506472
-0.4526
-0.384127
-0.307718
-0.224942
-0.136446
-0.0430351
0.0542216
0.153748
0.240829
0.304608
0.349612
0.381693
0.404848
0.421726
0.43371
0.440815
0.443337
0.443604
-0.556569
-0.52878
-0.474198
-0.404286
-0.326219
-0.241513
-0.15075
-0.0546912
0.0456745
0.14897
0.240056
0.307239
0.354819
0.388679
0.412965
0.430505
0.442786
0.44989
0.452283
0.452396
-0.578729
-0.550621
-0.495205
-0.424049
-0.344519
-0.2581
-0.16534
-0.066931
0.0362853
0.143157
0.238241
0.309088
0.359594
0.395592
0.421281
0.439653
0.452298
0.459378
0.461629
0.461596
-0.600367
-0.57183
-0.515668
-0.443408
-0.362598
-0.274676
-0.180172
-0.0796848
0.0260843
0.136258
0.235264
0.30996
0.363781
0.402327
0.42974
0.449124
0.462189
0.469205
0.471257
0.471094
-0.621519
-0.592485
-0.535603
-0.462349
-0.380408
-0.291191
-0.195174
-0.0928938
0.015105
0.128261
0.231023
0.309653
0.36713
0.408716
0.438287
0.458901
0.472394
0.479258
0.481025
0.480747
-0.642009
-0.612521
-0.554955
-0.480833
-0.397903
-0.307566
-0.210275
-0.106476
0.00342448
0.119204
0.225435
0.307971
0.369349
0.414506
0.446843
0.469031
0.482866
0.489331
0.490705
0.490313
-0.661806
-0.631893
-0.573702
-0.498799
-0.415016
-0.323739
-0.225382
-0.120338
-0.00885491
0.109141
0.218462
0.304733
0.370129
0.419341
0.455269
0.479731
0.493863
0.499353
0.500015
0.499534
-0.680973
-0.65056
-0.591812
-0.516213
-0.43169
-0.339628
-0.240402
-0.134365
-0.0216262
0.0981652
0.210106
0.29981
0.369122
0.422682
0.46317
0.491265
0.506259
0.509816
0.508731
0.508162
-0.699349
-0.668513
-0.609232
-0.533013
-0.447869
-0.355154
-0.25524
-0.148444
-0.0347571
0.0864088
0.200426
0.293117
0.366045
0.423823
0.469657
0.503409
0.521607
0.523479
0.518325
0.516472
-0.717025
-0.685748
-0.625988
-0.549226
-0.463583
-0.370363
-0.269954
-0.162632
-0.0483123
0.0738054
0.189314
0.284419
0.360595
0.421937
0.47313
0.514588
0.540168
0.54619
0.53696
0.516188
-0.733943
-0.702275
-0.642201
-0.565031
-0.479112
-0.385571
-0.28494
-0.177398
-0.0628274
0.0596969
0.17606
0.27282
0.351939
0.415805
0.470327
0.519477
0.552421
0.557234
0.541462
0.516889
-0.749958
-0.718274
-0.657703
-0.58018
-0.49418
-0.400446
-0.299978
-0.192416
-0.0779717
0.0444125
0.16089
0.258171
0.339694
0.404951
0.456597
0.506295
0.5372
0.531829
0.461265
0.419957
-0.764486
-0.734757
-0.672137
-0.594114
-0.508104
-0.414535
-0.314787
-0.207469
-0.0935263
0.0281133
0.143846
0.240415
0.323173
0.389872
0.432385
0.462916
0.478984
0.434662
0.35913
0.310122
-0.81775
-0.748656
-0.685224
-0.608244
-0.522265
-0.429174
-0.329431
-0.222803
-0.109799
0.0104459
0.124503
0.219268
0.299943
0.372241
0.382338
0.392511
0.363626
0.297857
0.213949
0.166769
-0.777854
-0.762916
-0.703883
-0.628287
-0.542587
-0.450005
-0.351469
-0.246022
-0.134846
-0.0174032
0.092555
0.182909
0.25443
0.320724
0.324685
0.208819
0.0955628
0.0174914
-0.0639258
-0.0210009
-0.806332
-0.778599
-0.71936
-0.643683
-0.558487
-0.466326
-0.36779
-0.263291
-0.153662
-0.0387929
0.0672589
0.152528
0.21642
0.25062
0.199295
0.039117
-0.107313
-0.211163
-0.326041
-0.25794
-0.827935
-0.79698
-0.737113
-0.661056
-0.576016
-0.484085
-0.385873
-0.282493
-0.174689
-0.0628859
0.0386113
0.117516
0.171432
0.176405
0.0596397
-0.148064
-0.329512
-0.469308
-0.63507
-0.575198
-0.848608
-0.816187
-0.755426
-0.678684
-0.593576
-0.501868
-0.404345
-0.302189
-0.196376
-0.0879638
0.00827451
0.0801674
0.119807
0.0866546
-0.0948624
-0.336758
-0.570382
-0.781417
-1.02007
-1.01109
-0.868193
-0.835669
-0.774258
-0.696928
-0.611737
-0.520307
-0.423558
-0.322708
-0.219087
-0.114362
-0.0238821
0.0405882
0.0634598
-0.0105816
-0.243905
-0.509226
-0.787478
-1.03861
-1.35107
-1.71606
-0.88778
-0.855527
-0.79381
-0.716141
-0.630862
-0.539668
-0.443608
-0.34406
-0.242682
-0.141786
-0.0572208
-0.000765005
0.00456982
-0.120115
-0.375538
-0.643868
-0.919393
-1.15329
-1.24852
-1.39399
-0.90802
-0.876088
-0.814331
-0.736587
-0.651327
-0.560442
-0.465137
-0.367022
-0.268149
-0.171507
-0.0932948
-0.0458348
-0.0638042
-0.241567
-0.491075
-0.741788
-0.963445
-1.10121
-1.12882
-1.15615
-0.929257
-0.89764
-0.835942
-0.758274
-0.673176
-0.582725
-0.488356
-0.391905
-0.295882
-0.204044
-0.132632
-0.0956237
-0.142784
-0.354482
-0.59473
-0.821115
-0.995864
-1.06736
-1.08466
-1.08853
-0.951655
-0.920118
-0.858673
-0.781125
-0.696282
-0.606424
-0.51316
-0.418605
-0.325776
-0.239264
-0.175208
-0.151026
-0.225096
-0.462187
-0.691139
-0.899267
-1.0395
-1.06182
-1.06122
-1.06074
-0.97512
-0.943577
-0.882441
-0.805056
-0.720566
-0.631413
-0.539409
-0.446957
-0.357615
-0.276877
-0.220805
-0.208455
-0.312415
-0.5675
-0.778705
-0.962038
-1.03745
-1.04767
-1.04657
-1.04532
-0.999386
-0.967918
-0.907011
-0.829886
-0.745836
-0.657503
-0.566898
-0.476723
-0.391095
-0.316432
-0.269109
-0.266695
-0.41327
-0.671678
-0.862373
-0.986023
-1.03962
-1.03195
-1.03148
-1.03122
-1.02389
-0.992768
-0.932035
-0.855348
-0.771819
-0.684393
-0.595281
-0.507509
-0.425689
-0.35735
-0.318878
-0.330783
-0.512199
-0.779125
-0.96337
-0.969238
-0.995532
-1.02207
-1.03025
-1.03129
-1.04818
-1.01762
-0.95731
-0.881015
-0.798089
-0.711634
-0.624072
-0.538735
-0.460664
-0.398808
-0.368525
-0.40096
-0.602096
-0.883408
-1.16881
-1.13915
-1.10573
-1.07021
-1.05034
-1.04722
-1.07153
-1.04139
-0.98224
-0.906376
-0.824054
-0.738647
-0.652601
-0.569603
-0.495055
-0.439328
-0.416633
-0.464325
-0.682514
-0.950745
-1.43093
-1.60785
-1.31082
-1.15001
-1.08118
-1.06131
-1.09301
-1.06378
-1.00567
-0.930653
-0.849078
-0.764623
-0.680023
-0.599045
-0.527628
-0.476615
-0.461428
-0.519532
-0.732911
-0.870187
-1.05423
-1.43791
-1.33244
-1.34009
-1.2876
-1.26464
-1.11145
-1.08363
-1.02694
-0.952883
-0.872238
-0.788732
-0.705279
-0.625801
-0.556724
-0.50828
-0.501762
-0.564886
-0.757085
-0.62961
-0.0534324
-0.227233
-0.989345
-1.33695
-1.34565
-1.35036
-1.12573
-1.09979
-1.04509
-0.972173
-0.892436
-0.809853
-0.727308
-0.648553
-0.580228
-0.533071
-0.534838
-0.602628
-0.923554
-1.15536
-1.19569
-1.6301
-1.79387
-1.64692
-1.48059
-1.49631
-1.1347
-1.11125
-1.05897
-0.987498
-0.908689
-0.826892
-0.744795
-0.665946
-0.596127
-0.548037
-0.548986
-0.671907
-1.31223
-2.40469
-3.53277
-4.13222
-4.06675
-3.52921
-2.93843
-2.67686
-1.13739
-1.11686
-1.06767
-0.99793
-0.920023
-0.838799
-0.756657
-0.676529
-0.60318
-0.546621
-0.535356
-0.662789
-1.41709
-2.55979
-3.82796
-4.39319
-4.28157
-3.78187
-3.26959
-3.03368
-1.13254
-1.11558
-1.0704
-1.00275
-0.925741
-0.844886
-0.762171
-0.679735
-0.600018
-0.528632
-0.485404
-0.476965
-0.863803
-1.26568
-1.53166
-1.49933
-1.19243
-0.831976
-0.566865
-0.446072
-1.11999
-1.10638
-1.06613
-1.00137
-0.925258
-0.844653
-0.761304
-0.675966
-0.588465
-0.497485
-0.403163
-0.328506
-0.170564
0.16505
0.641031
1.18105
1.61476
1.8872
2.02308
2.06297
-1.09955
-1.08969
-1.05469
-0.993028
-0.917921
-0.838264
-0.755064
-0.667568
-0.572389
-0.461821
-0.340144
-0.21694
0.0268989
0.62691
1.33785
1.96353
2.41784
2.68215
2.79965
2.83135
-1.07133
-1.06498
-1.03538
-0.976984
-0.903547
-0.826246
-0.745041
-0.657846
-0.559361
-0.438604
-0.306112
-0.172994
-0.0026955
0.533702
1.15487
1.68012
2.0455
2.25656
2.359
2.39281
-1.03246
-1.02907
-1.00505
-0.950878
-0.882006
-0.808685
-0.73285
-0.651445
-0.556946
-0.434188
-0.28665
-0.154116
-0.0517713
0.308853
0.768637
1.14552
1.42687
1.59867
1.69062
1.72443
-0.977824
-0.975529
-0.957175
-0.911343
-0.850292
-0.786124
-0.721517
-0.652781
-0.569755
-0.452645
-0.296473
-0.145694
-0.0146627
0.163603
0.439812
0.682806
0.877637
1.00498
1.07135
1.09337
-0.899736
-0.898095
-0.885519
-0.853317
-0.808076
-0.760022
-0.712797
-0.664322
-0.602624
-0.502893
-0.349366
-0.175191
-0.0254103
0.0978464
0.258117
0.414629
0.535876
0.618765
0.668974
0.680271
-0.820954
-0.81892
-0.811256
-0.792872
-0.766041
-0.737331
-0.711075
-0.687921
-0.662372
-0.610192
-0.484354
-0.302318
-0.130074
-0.0522175
0.0449086
0.159906
0.254545
0.318043
0.347255
0.353076
-0.76434
-0.762991
-0.759147
-0.750924
-0.739103
-0.728784
-0.726098
-0.738255
-0.773021
-0.827033
-0.786124
-0.578998
-0.361642
-0.273706
-0.189347
-0.0850828
0.00471651
0.0666331
0.09796
0.101023
-0.728501
-0.728508
-0.728042
-0.726608
-0.726469
-0.73331
-0.756854
-0.815843
-0.946939
-1.18105
-1.31374
-1.06044
-0.726526
-0.550468
-0.430538
-0.304305
-0.198234
-0.128
-0.097224
-0.0978621
-0.694152
-0.695595
-0.69776
-0.701496
-0.7107
-0.732801
-0.781899
-0.891574
-1.14071
-1.61476
-2.00681
-1.70752
-1.20686
-0.916733
-0.720016
-0.529676
-0.387692
-0.301626
-0.271941
-0.274552
-0.642758
-0.645074
-0.649141
-0.65656
-0.672216
-0.704444
-0.768408
-0.912693
-1.24046
-1.879
-2.38987
-2.07377
-1.50997
-1.16742
-0.906486
-0.697984
-0.561514
-0.494335
-0.474603
-0.475293
-0.566427
-0.56895
-0.573619
-0.582263
-0.599075
-0.632087
-0.698021
-0.839198
-1.15724
-1.76662
-2.19195
-1.9021
-1.4816
-1.18898
-0.928017
-0.768327
-0.69225
-0.668924
-0.658073
-0.654605
-0.467891
-0.46995
-0.47396
-0.481098
-0.49481
-0.520915
-0.571873
-0.678492
-0.915414
-1.3596
-1.65419
-1.48395
-1.21457
-0.960286
-0.789748
-0.707314
-0.70217
-0.70754
-0.702794
-0.698543
-0.358651
-0.359887
-0.362476
-0.366849
-0.375162
-0.390577
-0.419924
-0.479556
-0.608396
-0.849633
-1.01438
-0.911311
-0.747389
-0.600245
-0.541385
-0.555211
-0.582321
-0.595849
-0.596909
-0.594416
-0.252749
-0.253188
-0.254358
-0.256165
-0.259453
-0.265214
-0.275727
-0.29625
-0.338494
-0.413262
-0.462419
-0.396568
-0.334005
-0.313987
-0.348164
-0.391424
-0.417772
-0.429317
-0.432156
-0.432131
-0.161341
-0.161251
-0.161477
-0.161668
-0.161785
-0.161558
-0.160744
-0.159124
-0.156452
-0.148051
-0.128624
-0.0938098
-0.102194
-0.15398
-0.205003
-0.243145
-0.263551
-0.273154
-0.277109
-0.277908
-0.0899429
-0.0896137
-0.0894316
-0.0889953
-0.0878016
-0.0850867
-0.0798161
-0.0702797
-0.0541985
-0.0292741
-0.00771568
-0.00135233
-0.0230363
-0.0686933
-0.108867
-0.135649
-0.150285
-0.157172
-0.160669
-0.161713
-0.0388016
-0.0384395
-0.0381915
-0.0377457
-0.0364622
-0.0334642
-0.0277135
-0.0177631
-0.00211704
0.0187439
0.0318449
0.0263093
0.00561174
-0.0248213
-0.0510885
-0.0683858
-0.0780278
-0.0829591
-0.085499
-0.0863276
-0.00496169
-0.00467075
-0.00451301
-0.00430786
-0.0034538
-0.00118249
0.00333421
0.0110584
0.0225075
0.0359641
0.041625
0.0335878
0.0171696
-0.00210663
-0.018321
-0.0292417
-0.0355529
-0.0388801
-0.0405728
-0.0411335
0.015682
0.0158745
0.01591
0.0158333
0.0161797
0.0175378
0.0204565
0.0254744
0.0326486
0.040168
0.0415016
0.034195
0.0224199
0.010115
-4.61984e-06
-0.00702362
-0.0112742
-0.0135573
-0.0146687
-0.0150214
0.0270169
0.0271223
0.0270556
0.0267784
0.0267185
0.0273133
0.0289189
0.031792
0.0357555
0.0393584
0.038599
0.0326523
0.0244551
0.0164295
0.00990926
0.00525014
0.00230111
0.000699351
-3.78593e-05
-0.000274987
0.032136
0.0321798
0.0320442
0.0316399
0.0313215
0.0313693
0.0320153
0.0333827
0.0352573
0.0365414
0.0348805
0.0302104
0.0245048
0.0191422
0.0147998
0.0116197
0.00953353
0.00839105
0.00788978
0.00774575
0.0332499
0.0332565
0.0330849
0.0326334
0.032173
0.0318872
0.031922
0.0323165
0.0328837
0.032882
0.0309856
0.0273816
0.0233412
0.0196551
0.0166752
0.0144521
0.0129545
0.0121315
0.0117871
0.011688
0.0318504
0.0318378
0.0316602
0.0312191
0.0307097
0.0302574
0.0299534
0.0298034
0.0296553
0.0290034
0.0271381
0.0243422
0.0214218
0.0188235
0.0167255
0.0151393
0.0140505
0.0134517
0.013211
0.0131439
0.0289175
0.0288972
0.0287325
0.028332
0.0278335
0.0273244
0.0268584
0.0264262
0.0259173
0.0250012
0.0233194
0.0211574
0.0190172
0.0171512
0.0156478
0.0145016
0.013705
0.0132675
0.0130974
0.0130499
0.0250726
0.0250513
0.0249103
0.0245669
0.0241185
0.0236258
0.0231207
0.0225895
0.0219521
0.0209939
0.0195546
0.0178895
0.0163105
0.0149564
0.0138683
0.0130344
0.01245
0.0121296
0.0120087
0.0119758
0.0206995
0.0206808
0.0205676
0.0202878
0.0199076
0.019474
0.0190033
0.0184826
0.0178566
0.0169875
0.0158183
0.0145596
0.0134041
0.0124259
0.0116413
0.0110369
0.0106105
0.0103775
0.0102924
0.0102696
0.0160264
0.0160116
0.015926
0.0157099
0.0154076
0.0150566
0.0146653
0.0142231
0.0136926
0.0129873
0.0120989
0.0111872
0.0103692
0.00968183
0.00912933
0.00870025
0.00839503
0.00822946
0.00817105
0.0081554
0.0111858
0.0111749
0.0111146
0.0109591
0.0107393
0.010485
0.0102004
0.00987734
0.00949174
0.00899213
0.00838701
0.00778412
0.00725053
0.00680287
0.00643974
0.0061528
0.00594545
0.00583355
0.00579522
0.00578456
0.00625094
0.00624352
0.00620708
0.00611133
0.00597982
0.00583349
0.00567208
0.00548988
0.00527379
0.00499824
0.00467097
0.00434978
0.00406777
0.00383056
0.00363519
0.00347544
0.00335544
0.00329068
0.0032687
0.00326092
0.00127668
0.00127983
0.00129757
0.00130667
0.00128531
0.00124944
0.00120769
0.00116188
0.0011086
0.00104267
0.000961969
0.000877891
0.000803343
0.000739957
0.000687905
0.000646638
0.000618287
0.000612332
0.00062653
0.000635632
-0.732407
-0.510534
-0.258671
-0.0517136
0.116349
0.25176
0.366006
0.462363
0.506413
0.483929
-0.333614
-0.180778
-0.0213286
0.116111
0.232818
0.330593
0.410155
0.467007
0.496524
0.507811
-0.0597233
0.0417999
0.148687
0.243729
0.325731
0.394553
0.449271
0.489231
0.517322
0.534452
0.132603
0.202377
0.277221
0.345143
0.40418
0.45416
0.494942
0.527067
0.552461
0.570216
0.277945
0.328404
0.382034
0.432736
0.477406
0.516147
0.548965
0.575893
0.597879
0.615391
0.3948
0.432233
0.474882
0.514929
0.55135
0.583706
0.611718
0.63499
0.653889
0.671087
0.494983
0.526217
0.56337
0.598213
0.630529
0.659664
0.684962
0.70582
0.72204
0.739078
0.588215
0.619025
0.654975
0.688686
0.719751
0.747583
0.771445
0.790669
0.80454
0.821595
0.686423
0.72053
0.758367
0.792999
0.823962
0.850939
0.873531
0.891287
0.903513
0.920957
0.803259
0.841439
0.880855
0.915805
0.945721
0.970955
0.991728
1.00793
1.01964
1.03776
0.949369
0.988298
1.02467
1.05573
1.08175
1.10414
1.12344
1.13917
1.15175
1.16979
1.12477
1.15681
1.18324
1.20587
1.22605
1.24495
1.2628
1.27939
1.29484
1.31294
1.31376
1.33114
1.3464
1.36278
1.3788
1.39342
1.40672
1.42071
1.43832
1.4585
1.49593
1.5054
1.517
1.52787
1.53719
1.54687
1.55776
1.56919
1.58059
1.59597
1.70315
1.70686
1.69193
1.67715
1.67097
1.6767
1.69521
1.72556
1.75776
1.78443
2.0095
1.87465
1.79808
1.75582
1.73842
1.74239
1.76983
1.82624
1.92887
2.15325
0.29589
0.293769
0.289285
0.280669
0.268461
0.256351
0.246139
0.238247
0.232603
0.229273
0.228766
0.231295
0.236198
0.243248
0.252494
0.263923
0.276492
0.287468
0.293556
0.296585
0.220312
0.226164
0.232516
0.237038
0.239534
0.239235
0.236519
0.23272
0.229192
0.226851
0.226538
0.228519
0.231962
0.236056
0.239708
0.241466
0.240431
0.236866
0.231639
0.224994
0.211855
0.214153
0.217584
0.220623
0.222747
0.224291
0.225086
0.224791
0.22374
0.222759
0.222751
0.223947
0.225529
0.226612
0.226595
0.225541
0.223852
0.221402
0.218058
0.215103
0.206305
0.207388
0.209272
0.211736
0.213845
0.215343
0.216412
0.21718
0.217566
0.217705
0.217996
0.218515
0.218821
0.218628
0.217989
0.216935
0.215277
0.213021
0.210804
0.209381
0.201093
0.201745
0.202924
0.204765
0.206696
0.20847
0.209878
0.210942
0.211793
0.212472
0.212969
0.213192
0.213059
0.212576
0.211691
0.210324
0.20861
0.206814
0.205315
0.204494
0.196155
0.196588
0.197462
0.198965
0.200673
0.202401
0.204049
0.205473
0.206633
0.207567
0.208203
0.208386
0.208102
0.207377
0.206237
0.204826
0.203306
0.201819
0.200664
0.200112
0.191581
0.19188
0.192586
0.193933
0.195544
0.197185
0.198847
0.200459
0.201875
0.203006
0.203781
0.204025
0.203686
0.202847
0.201694
0.200395
0.199022
0.197673
0.196706
0.196306
0.187358
0.187555
0.188132
0.189342
0.190835
0.192369
0.193884
0.195399
0.196906
0.198288
0.199258
0.199534
0.199232
0.198574
0.197682
0.196595
0.19538
0.194194
0.193382
0.193097
0.183688
0.183786
0.184252
0.185393
0.186853
0.188382
0.189976
0.191564
0.193086
0.194504
0.195642
0.196202
0.19617
0.195669
0.194829
0.193821
0.192704
0.191605
0.190913
0.190737
0.180922
0.180958
0.181268
0.18214
0.18335
0.184626
0.185969
0.187431
0.189023
0.190641
0.192025
0.192824
0.19302
0.192838
0.192398
0.191765
0.190976
0.190203
0.189766
0.189676
0.178508
0.178533
0.178727
0.179267
0.180112
0.181126
0.182325
0.183719
0.185296
0.187026
0.188702
0.18989
0.190504
0.190676
0.190591
0.190324
0.189996
0.189664
0.189488
0.189434
0.175577
0.175601
0.175753
0.176119
0.176722
0.177574
0.17868
0.180098
0.18186
0.183886
0.185951
0.187548
0.188509
0.189036
0.189188
0.189297
0.189328
0.189314
0.189278
0.189239
0.171771
0.171788
0.171933
0.172273
0.172821
0.173593
0.174717
0.176213
0.178159
0.180509
0.183058
0.185169
0.186571
0.18747
0.18814
0.188507
0.188771
0.188908
0.188928
0.188903
0.167217
0.167219
0.167364
0.167766
0.168389
0.169304
0.170586
0.17235
0.174656
0.177486
0.180633
0.183352
0.185266
0.186552
0.187428
0.18802
0.188413
0.188595
0.18865
0.188648
0.162055
0.162046
0.162186
0.16266
0.163451
0.164541
0.166039
0.16812
0.170856
0.174311
0.178246
0.181718
0.184235
0.186
0.18721
0.188027
0.188499
0.188738
0.188844
0.188862
0.156309
0.156283
0.156434
0.156951
0.157842
0.159259
0.161162
0.163611
0.166916
0.171161
0.176052
0.18045
0.183693
0.186003
0.187578
0.188633
0.189257
0.189609
0.189782
0.189815
0.14983
0.149796
0.149992
0.150563
0.151654
0.153256
0.155479
0.158543
0.162634
0.167898
0.174004
0.17953
0.18363
0.186512
0.188584
0.189964
0.190832
0.191346
0.191593
0.191635
0.142248
0.142207
0.142438
0.143165
0.144406
0.146298
0.149034
0.152829
0.15792
0.164491
0.172119
0.179035
0.18416
0.187893
0.190459
0.192204
0.19335
0.194049
0.19437
0.194421
0.13313
0.13308
0.133381
0.134249
0.135799
0.138148
0.141547
0.146288
0.152678
0.160915
0.170438
0.179039
0.185441
0.19005
0.193271
0.195473
0.196942
0.197845
0.198248
0.198309
0.122022
0.121962
0.12237
0.123491
0.125438
0.128409
0.132715
0.138734
0.146817
0.15716
0.169022
0.179668
0.187578
0.193252
0.197232
0.19997
0.201809
0.202942
0.203444
0.203518
0.108242
0.108168
0.108729
0.110219
0.112767
0.116632
0.122211
0.129951
0.14023
0.153227
0.167951
0.181046
0.190722
0.197671
0.202554
0.205925
0.208201
0.20961
0.210231
0.210318
0.0908657
0.0907841
0.091589
0.0936302
0.09705
0.102207
0.109578
0.119655
0.132816
0.149152
0.167335
0.183318
0.19507
0.203515
0.209471
0.213603
0.216407
0.218145
0.218914
0.219015
0.0684832
0.0684105
0.0696214
0.072513
0.0772699
0.0843726
0.09434
0.107648
0.124579
0.145045
0.167327
0.186647
0.20079
0.210978
0.218211
0.223269
0.226727
0.228871
0.22981
0.229929
0.0387219
0.0387042
0.0406537
0.0450368
0.0520759
0.0622901
0.0761234
0.093888
0.115655
0.141119
0.168134
0.191209
0.208035
0.220216
0.228955
0.235151
0.239437
0.242103
0.243254
0.24339
-0.00261879
-0.0024168
0.00119346
0.00867718
0.0199094
0.0352509
0.0548018
0.0785723
0.106376
0.137692
0.16999
0.197145
0.216888
0.231283
0.241772
0.249365
0.254742
0.258099
0.259505
0.259648
-0.0633433
-0.0617749
-0.053114
-0.0390641
-0.0200989
0.00339489
0.0309483
0.0623646
0.0973037
0.135147
0.173083
0.204494
0.227282
0.244037
0.256465
0.265709
0.272418
0.276719
0.278507
0.278682
-0.135991
-0.133438
-0.117232
-0.0926254
-0.0630934
-0.0301072
0.00621119
0.0458132
0.0884362
0.133551
0.178147
0.215008
0.242031
0.26229
0.277724
0.289597
0.298723
0.304354
0.306214
0.306733
-0.210784
-0.20262
-0.178712
-0.144038
-0.104881
-0.0627136
-0.0177369
0.0300076
0.0803157
0.132734
0.184069
0.226449
0.257708
0.281444
0.299892
0.314412
0.325721
0.332706
0.336007
0.337014
-0.268962
-0.259358
-0.230558
-0.189221
-0.142626
-0.0927894
-0.0401642
0.015048
0.0725431
0.131818
0.189374
0.236627
0.271402
0.297799
0.318312
0.334468
0.347022
0.355398
0.359734
0.360931
-0.316058
-0.30591
-0.273711
-0.2276
-0.175439
-0.119569
-0.0606097
0.00107016
0.0649693
0.130445
0.193572
0.245003
0.282554
0.310816
0.332596
0.349651
0.362888
0.372039
0.376719
0.377976
-0.355069
-0.344829
-0.310524
-0.260757
-0.204114
-0.143361
-0.0791351
-0.0119142
0.0576267
0.128641
0.196743
0.251766
0.291514
0.321106
0.343671
0.361147
0.374568
0.383906
0.388582
0.389965
-0.388867
-0.378641
-0.342778
-0.290094
-0.229805
-0.164947
-0.0961718
-0.0241164
0.0504403
0.126477
0.199098
0.257372
0.299075
0.329769
0.352869
0.370523
0.383961
0.393284
0.397968
0.399338
-0.419002
-0.408825
-0.371798
-0.316695
-0.253385
-0.184986
-0.11225
-0.0358887
0.0432232
0.123908
0.200831
0.262212
0.30572
0.33738
0.360927
0.378741
0.392169
0.401491
0.406203
0.407439
-0.446682
-0.436518
-0.398541
-0.341402
-0.275498
-0.204025
-0.127783
-0.0475341
0.0357586
0.120811
0.201849
0.266258
0.311613
0.344319
0.368405
0.386436
0.399925
0.409235
0.413964
0.415044
-0.472664
-0.462488
-0.423679
-0.364769
-0.296577
-0.222396
-0.143048
-0.0593067
0.0278305
0.116991
0.202069
0.269664
0.317058
0.350967
0.3757
0.39404
0.407635
0.416925
0.421644
0.422623
-0.497407
-0.487203
-0.447639
-0.387184
-0.316967
-0.240385
-0.158265
-0.0713652
0.0193127
0.112416
0.201574
0.2725
0.322125
0.357451
0.383006
0.401783
0.415576
0.424889
0.429577
0.430522
-0.521295
-0.510992
-0.470666
-0.408915
-0.336864
-0.25814
-0.173537
-0.0837755
0.0101934
0.107057
0.200247
0.274684
0.326807
0.363813
0.390417
0.409798
0.423901
0.433298
0.437882
0.43882
-0.544508
-0.534035
-0.493053
-0.430073
-0.356376
-0.275756
-0.188934
-0.0965841
0.000395063
0.100785
0.19797
0.276136
0.33109
0.37007
0.397971
0.41814
0.432671
0.442208
0.446686
0.447592
-0.567068
-0.556399
-0.514871
-0.450725
-0.375579
-0.293279
-0.204484
-0.10983
-0.0101363
0.0935526
0.194669
0.276722
0.334845
0.376166
0.405642
0.426795
0.441868
0.451574
0.455955
0.456749
-0.589107
-0.578214
-0.536088
-0.47089
-0.39448
-0.310697
-0.220171
-0.123491
-0.0213562
0.0853699
0.19025
0.276294
0.337883
0.381953
0.413356
0.435721
0.451447
0.461339
0.465589
0.466248
-0.610558
-0.59944
-0.556743
-0.490589
-0.413049
-0.327969
-0.235937
-0.137491
-0.0332162
0.0762259
0.184646
0.274692
0.340007
0.38724
0.421008
0.444878
0.461368
0.471424
0.475494
0.475972
-0.631437
-0.620071
-0.576801
-0.50979
-0.431253
-0.345047
-0.251718
-0.151757
-0.0456532
0.0661634
0.177821
0.271761
0.340982
0.391807
0.428481
0.454258
0.471611
0.481682
0.485414
0.485695
-0.651601
-0.640055
-0.596215
-0.528443
-0.44903
-0.361847
-0.26744
-0.166212
-0.0585747
0.0552659
0.16977
0.267379
0.340539
0.395319
0.435554
0.463895
0.482311
0.492085
0.495161
0.495181
-0.671145
-0.659341
-0.61497
-0.546519
-0.46634
-0.378329
-0.283009
-0.180759
-0.0718721
0.0436348
0.160536
0.261458
0.33844
0.397356
0.441838
0.473793
0.493946
0.502995
0.504579
0.504124
-0.689945
-0.677886
-0.633036
-0.563968
-0.483109
-0.39441
-0.298343
-0.195274
-0.0854266
0.0313632
0.150206
0.253963
0.334489
0.39744
0.446653
0.483622
0.507249
0.515908
0.514354
0.512166
-0.708032
-0.695761
-0.650368
-0.58074
-0.4993