/*--------------------------------*- C++ -*----------------------------------*\
| =========                 |                                                 |
| \\      /  F ield         | OpenFOAM: The Open Source CFD Toolbox           |
|  \\    /   O peration     | Version:  2112                                  |
|   \\  /    A nd           | Website:  www.openfoam.com                      |
|    \\/     M anipulation  |                                                 |
\*---------------------------------------------------------------------------*/
FoamFile
{
    version     2.0;
    format      ascii;
    arch        "LSB;label=32;scalar=64";
    class       surfaceScalarField;
    location    "18.5";
    object      phi;
}
// * * * * * * * * * * * * * * * * * * * * * * * * * * * * * * * * * * * * * //

dimensions      [0 3 -1 0 0 0 0];

oriented        oriented;

internalField   nonuniform List<scalar> 
17370
(
-0.0916056
0.096015
0.284602
-0.0776039
0.0594326
0.364947
-0.0430535
0.0316289
0.427593
-0.0223151
0.0162491
0.505318
-0.0116366
0.00874265
0.602296
-0.00651358
0.00502424
0.720547
-0.00379846
0.00294061
0.863764
-0.00219822
0.00164582
1.036
-0.00113753
0.000732568
1.24291
-0.000330068
-5.74901e-05
1.49158
0.00044171
-0.000846528
1.4916
0.00124764
-0.00174912
1.24319
0.0022935
-0.00302649
1.03637
0.00387662
-0.00509445
0.864124
0.00657735
-0.00879942
0.72128
0.0116842
-0.0162844
0.603815
0.022339
-0.0316411
0.508741
0.0430545
-0.059427
0.432541
0.0776005
-0.0960119
0.365187
0.091614
0.197397
-0.127102
0.0880432
0.0390589
-0.364366
0.354045
-0.0714525
0.0817734
-0.446645
0.454267
-0.0791495
0.0715271
-0.520996
0.529114
-0.0636551
0.0555376
-0.612979
0.620742
-0.0481501
0.040387
-0.727171
0.733671
-0.0337881
0.0272881
-0.867591
0.87243
-0.0221004
0.0172615
-1.03856
1.04187
-0.0135748
0.010259
-1.2447
1.24707
-0.00773383
0.00536336
-1.4928
1.49476
-0.00343659
0.0014767
-1.49265
1.49442
0.000289919
-0.00205376
-1.24408
1.24599
0.00399523
-0.00589854
-1.0376
1.0401
0.00823981
-0.010738
-0.866202
0.869856
0.0140222
-0.0176768
-0.724625
0.729779
0.0224781
-0.027632
-0.609075
0.615646
0.0340981
-0.0406691
-0.515124
0.522479
0.0484002
-0.0557546
-0.439871
0.447695
0.0638242
-0.0716486
-0.374736
0.377369
0.0792045
-0.0818382
-0.256943
0.224518
0.0715026
-0.0390773
-0.0688427
0.0592535
0.00958918
-0.0519841
0.058779
-0.374859
0.368064
-0.0579103
0.0540511
-0.453967
0.457826
-0.0485437
0.0439594
-0.527636
0.53222
-0.0393855
0.0354675
-0.620785
0.624703
-0.0312448
0.0272716
-0.734613
0.738586
-0.0229744
0.0191589
-0.873901
0.877716
-0.015202
0.0118255
-1.04328
1.04665
-0.00840113
0.00545693
-1.24855
1.25149
-0.00234612
-0.000547943
-1.49683
1.49972
0.00343197
-0.00651166
-1.49732
1.5004
0.00940988
-0.012776
-1.25
1.25337
0.0160918
-0.0199777
-1.04563
1.04952
0.0237272
-0.0279531
-0.877149
0.881374
0.031862
-0.0360175
-0.739016
0.743171
0.0398805
-0.0444032
-0.626045
0.630568
0.0489479
-0.0544171
-0.535098
0.540567
0.0582323
-0.0590493
-0.458165
0.458982
0.0521813
-0.0319127
-0.336903
0.316634
0.00962386
-0.0687561
0.0591322
-0.0534904
0.0494132
0.00407714
-0.0330085
0.043351
-0.358657
0.348315
-0.0469885
0.04641
-0.459598
0.460177
-0.0435246
0.0403667
-0.536138
0.539296
-0.0367298
0.0333892
-0.628381
0.631722
-0.0297553
0.0265124
-0.741981
0.745224
-0.0230501
0.0198777
-0.881205
0.884377
-0.0163615
0.013108
-1.05005
1.0533
-0.0095435
0.00628272
-1.25467
1.25793
-0.00266027
-0.000805727
-1.50294
1.50641
0.00425139
-0.00781901
-1.50379
1.50735
0.011014
-0.0144886
-1.25688
1.26036
0.0176544
-0.021072
-1.05322
1.05664
0.0241551
-0.0275194
-0.885031
0.888396
0.0306771
-0.0342265
-0.746909
0.750458
0.0374916
-0.0410472
-0.634704
0.63826
0.0441349
-0.0469451
-0.544707
0.547517
0.04745
-0.0437161
-0.457152
0.453418
0.0332591
-0.0161629
-0.297466
0.28037
0.00411465
-0.0533336
0.049219
-0.0462877
0.0437911
0.00249664
-0.0226139
0.0327739
-0.337858
0.327698
-0.0383582
0.0392096
-0.45997
0.459119
-0.0378653
0.0354772
-0.541923
0.544311
-0.032805
0.0302892
-0.634624
0.63714
-0.0274067
0.0246916
-0.748238
0.750953
-0.02163
0.0187954
-0.887364
0.890198
-0.0156412
0.0127001
-1.05637
1.05931
-0.00936397
0.00617282
-1.26119
1.26438
-0.0024811
-0.00112304
-1.51002
1.51362
0.0047037
-0.00832296
-1.511
1.51462
0.0114205
-0.0146358
-1.26371
1.26692
0.0174542
-0.0204658
-1.0598
1.06281
0.0231692
-0.0260923
-0.891569
0.894492
0.0286861
-0.0314408
-0.753633
0.756388
0.0338491
-0.0364178
-0.641226
0.643794
0.0387237
-0.0399615
-0.549437
0.550674
0.039001
-0.0332616
-0.448482
0.442743
0.0229354
-0.0100468
-0.265467
0.252579
0.00254405
-0.0460512
0.0435072
-0.0417443
0.0400319
0.00171236
-0.0162206
0.0251641
-0.318076
0.309132
-0.0315211
0.0335654
-0.457638
0.455593
-0.0331546
0.0315163
-0.546367
0.548005
-0.0293524
0.0272662
-0.639412
0.641498
-0.0248953
0.0226302
-0.753401
0.755666
-0.0200002
0.0174534
-0.892883
0.89543
-0.0145047
0.0116942
-1.06218
1.06499
-0.00848548
0.00543089
-1.2675
1.27055
-0.00192356
-0.00146804
-1.51713
1.52052
0.00483216
-0.0082491
-1.51815
1.52157
0.0111771
-0.0142181
-1.27005
1.27309
0.0168622
-0.0196234
-1.06571
1.06847
0.0220041
-0.0244627
-0.897155
0.899614
0.0265771
-0.0287994
-0.758816
0.761039
0.0307476
-0.0327721
-0.646105
0.648129
0.0342837
-0.0345457
-0.551382
0.551644
0.0323387
-0.0257654
-0.436469
0.429896
0.0166085
-0.00698892
-0.241452
0.231833
0.00176847
-0.0414093
0.0396408
-0.0385862
0.0373726
0.00121363
-0.0117444
0.0191157
-0.300951
0.29358
-0.0253818
0.0280968
-0.453137
0.450422
-0.0283211
0.027321
-0.549272
0.550272
-0.0255725
0.0238664
-0.643366
0.645072
-0.0218735
0.0199014
-0.757802
0.759774
-0.017593
0.0153549
-0.897855
0.900093
-0.0127655
0.0102608
-1.06769
1.0702
-0.00736119
0.00456039
-1.2735
1.2763
-0.00130057
-0.00189562
-1.5238
1.527
0.0050491
-0.0081894
-1.52485
1.52799
0.0108352
-0.0135327
-1.276
1.27869
0.0158335
-0.0181908
-1.07107
1.07343
0.0202156
-0.0222875
-0.901904
0.903976
0.0240514
-0.0258334
-0.763041
0.764823
0.0273636
-0.028941
-0.649879
0.651457
0.0297657
-0.0293415
-0.551524
0.5511
0.0264006
-0.0198469
-0.42324
0.416686
0.0122113
-0.00504629
-0.223517
0.216352
0.00128224
-0.0381327
0.0368505
-0.0363604
0.0355127
0.000847688
-0.00834189
0.0141051
-0.287028
0.281264
-0.0197163
0.0226163
-0.447573
0.444673
-0.0232297
0.0225793
-0.551078
0.551728
-0.0209987
0.0194483
-0.646699
0.64825
-0.0177222
0.0161254
-0.761557
0.763153
-0.0143041
0.012537
-0.902072
0.903839
-0.0104495
0.00837352
-1.07246
1.07454
-0.00589444
0.00342613
-1.27894
1.28141
-0.000479493
-0.00243462
-1.53009
1.53301
0.00529282
-0.00807862
-1.53098
1.53376
0.0103435
-0.0125511
-1.28114
1.28335
0.014356
-0.0161388
-1.07547
1.07725
0.0176254
-0.0191507
-0.905763
0.907288
0.02048
-0.0219242
-0.766428
0.767872
0.0232529
-0.0246054
-0.652937
0.65429
0.0250302
-0.0241435
-0.550435
0.549548
0.0209494
-0.0149809
-0.410382
0.404413
0.00890082
-0.0036355
-0.2102
0.204934
0.00093078
-0.0357627
0.0348319
-0.0348092
0.0342515
0.000557715
-0.00548724
0.00972775
-0.276261
0.27202
-0.0144772
0.0173999
-0.441757
0.438834
-0.0184939
0.0182415
-0.552224
0.552476
-0.0171874
0.0160409
-0.649646
0.650792
-0.0147407
0.0134801
-0.764563
0.765824
-0.0119686
0.0104299
-0.905473
0.907012
-0.00853965
0.00664342
-1.07651
1.0784
-0.00436678
0.0021247
-1.28374
1.28598
0.000504069
-0.00304593
-1.53571
1.53825
0.00552861
-0.00797242
-1.53635
1.53879
0.00995987
-0.0119011
-1.2854
1.28734
0.0134616
-0.0149538
-1.07887
1.08036
0.0161274
-0.0172538
-0.908582
0.909708
0.0182005
-0.019174
-0.769119
0.770092
0.0200306
-0.0207733
-0.6554
0.656143
0.0207259
-0.019267
-0.548406
0.546947
0.0159625
-0.0107726
-0.398815
0.393625
0.00615665
-0.0024933
-0.20048
0.196817
0.000660477
-0.0340357
0.0333752
-0.0338505
0.0336072
0.00024335
-0.00277638
0.00544821
-0.26857
0.265898
-0.00904688
0.0117956
-0.435944
0.433195
-0.0134202
0.0138103
-0.552391
0.552001
-0.0134838
0.012795
-0.651684
0.652373
-0.0118077
0.0107503
-0.76699
0.768048
-0.00943611
0.00809011
-0.908459
0.909805
-0.00646748
0.00480947
-1.0802
1.08185
-0.00280128
0.000791413
-1.28813
1.29014
0.00157729
-0.00387559
-1.54068
1.54298
0.00609084
-0.00821086
-1.5411
1.54322
0.00988591
-0.011444
-1.28912
1.29068
0.0126612
-0.0138118
-1.0817
1.08285
0.0147218
-0.0155637
-0.910738
0.91158
0.0161867
-0.0167185
-0.770807
0.771339
0.0170124
-0.0169182
-0.656441
0.656347
0.0161332
-0.0140355
-0.545124
0.543027
0.0108225
-0.00670777
-0.388924
0.384809
0.00359304
-0.00139852
-0.193926
0.191732
0.00036983
-0.0328612
0.0324914
-0.0334975
0.0334825
1.49668e-05
-0.000995881
0.00243959
-0.263917
0.262474
-0.00474317
0.00680172
-0.430739
0.428681
-0.00829337
0.00884384
-0.551445
0.550895
-0.00882649
0.00842379
-0.652903
0.653306
-0.00780377
0.00707731
-0.768947
0.769674
-0.00609228
0.00503189
-0.911022
0.912082
-0.00368413
0.00231126
-1.08337
1.08474
-0.000659943
-0.000988183
-1.29196
1.29361
0.00295695
-0.00488705
-1.5451
1.54703
0.00670368
-0.00834503
-1.5451
1.54674
0.00955796
-0.0106442
-1.29201
1.2931
0.011431
-0.0120784
-1.08376
1.08441
0.0124974
-0.0128167
-0.912143
0.912462
0.0130163
-0.0131552
-0.771681
0.771819
0.0131475
-0.0126748
-0.655998
0.655526
0.0116521
-0.00959393
-0.540861
0.538803
0.00697125
-0.0040296
-0.381317
0.378375
0.00202827
-0.000732488
-0.190082
0.188786
0.000173435
-0.032242
0.0320686
-0.0335191
0.0335856
-6.64241e-05
-0.000325985
0.00119432
-0.261388
0.26052
-0.00269935
0.0040986
-0.427005
0.425605
-0.00511192
0.0054475
-0.550459
0.550123
-0.00537665
0.00502953
-0.653635
0.653983
-0.00442448
0.00379849
-0.770335
0.770961
-0.00303842
0.00221299
-0.912998
0.913824
-0.00115837
5.15002e-05
-1.08595
1.08706
0.00133662
-0.00274682
-1.2951
1.29651
0.00444274
-0.00608242
-1.54879
1.55043
0.00759067
-0.00890127
-1.5482
1.54951
0.00981618
-0.010562
-1.29398
1.29473
0.0110571
-0.0114205
-1.08486
1.08522
0.0116088
-0.0116592
-0.912614
0.912665
0.011567
-0.0113376
-0.771764
0.771535
0.0110097
-0.0103814
-0.654967
0.654339
0.00940503
-0.00764011
-0.536915
0.53515
0.00551092
-0.0031944
-0.375835
0.373518
0.00162232
-0.000586825
-0.18768
0.186645
0.000133522
-0.0319319
0.0317984
-0.0336617
0.0337427
-8.1029e-05
-0.000110213
0.000787114
-0.259759
0.259082
-0.00207145
0.00334348
-0.424333
0.423061
-0.00430171
0.00460949
-0.549865
0.549557
-0.00446693
0.00400814
-0.654433
0.654892
-0.00341353
0.00280637
-0.771606
0.772213
-0.00202339
0.00116493
-0.91464
0.915499
-4.25596e-05
-0.00115794
-1.08813
1.08933
0.00266645
-0.00419496
-1.29789
1.29942
0.00597242
-0.00762406
-1.552
1.55365
0.00911147
-0.0103849
-1.55074
1.55202
0.0112259
-0.011855
-1.29538
1.29601
0.0121747
-0.0122963
-1.08549
1.08561
0.0122636
-0.0121572
-0.912653
0.912546
0.0120135
-0.0117272
-0.771201
0.770915
0.0113956
-0.0107155
-0.653688
0.653008
0.00963156
-0.00773033
-0.533407
0.531505
0.00554329
-0.0032454
-0.371269
0.368971
0.0016972
-0.000652446
-0.185622
0.184578
0.000163599
-0.0316588
0.0314952
-0.0338254
0.0339266
-0.000101284
0.000194685
0.000316535
-0.258471
0.25796
-0.00155613
0.0030727
-0.421674
0.420157
-0.00460951
0.00545565
-0.549101
0.548255
-0.00569809
0.00557116
-0.655242
0.655369
-0.00506599
0.0043376
-0.772933
0.773661
-0.00333127
0.00214253
-0.916499
0.917688
-0.000552945
-0.00112539
-1.09069
1.09237
0.00318746
-0.00521722
-1.30113
1.30316
0.00753825
-0.00967309
-1.55548
1.55761
0.0116004
-0.0132793
-1.55349
1.55517
0.0144499
-0.0154194
-1.29673
1.2977
0.0160154
-0.0163354
-1.08573
1.08605
0.016398
-0.0162478
-0.912296
0.912146
0.0158341
-0.0152678
-0.770567
0.770001
0.0145551
-0.0131685
-0.652145
0.650758
0.0112551
-0.00850765
-0.529278
0.526531
0.00585464
-0.00338245
-0.366587
0.364114
0.00181072
-0.000744277
-0.183527
0.18246
0.000208033
-0.03132
0.0311119
-0.0340462
0.0341939
-0.000147725
0.000634536
-0.000502627
-0.257609
0.257477
-0.000399956
0.00190621
-0.418619
0.417113
-0.0039325
0.00555064
-0.547045
0.545427
-0.00658914
0.0067109
-0.655261
0.655139
-0.00638683
0.00576071
-0.774501
0.775127
-0.00453444
0.00296236
-0.919076
0.920648
-0.000835889
-0.00137764
-1.09425
1.09646
0.00403856
-0.00662564
-1.30543
1.30801
0.00957057
-0.0122863
-1.56003
1.56275
0.014728
-0.016856
-1.55713
1.55926
0.0183678
-0.0196433
-1.29885
1.30013
0.020457
-0.0210387
-1.08653
1.08711
0.0212319
-0.0209821
-0.911872
0.911622
0.0204469
-0.019411
-0.769212
0.768176
0.0177317
-0.015115
-0.648796
0.646179
0.0121167
-0.00858099
-0.523369
0.519833
0.00569806
-0.0032977
-0.361664
0.359264
0.00182845
-0.000798248
-0.18143
0.1804
0.000239855
-0.0309053
0.0306654
-0.0343767
0.0345891
-0.000212401
0.00124628
-0.00153947
-0.257555
0.257849
0.00129054
-0.000277253
-0.415871
0.414858
-0.0015482
0.00334046
-0.543707
0.541914
-0.00486546
0.0055322
-0.654706
0.65404
-0.00537463
0.00468744
-0.775887
0.776575
-0.00325904
0.00143039
-0.922316
0.924145
0.00102036
-0.00353365
-1.09876
1.10127
0.00651219
-0.00936737
-1.3107
1.31356
0.0125893
-0.0155193
-1.56559
1.56852
0.0181142
-0.0203011
-1.56154
1.56372
0.021789
-0.0229733
-1.30145
1.30264
0.0236826
-0.0239994
-1.08756
1.08787
0.0238869
-0.0234547
-0.911118
0.910686
0.0225724
-0.0207281
-0.766689
0.764845
0.0182343
-0.014906
-0.643175
0.639847
0.0115227
-0.00797266
-0.516291
0.512741
0.00533064
-0.00321327
-0.357063
0.354945
0.00187422
-0.000858065
-0.179426
0.17841
0.000266867
-0.0304418
0.0301749
-0.0348626
0.035161
-0.000298377
0.00186275
-0.00266481
-0.258376
0.259178
0.00314119
-0.00300019
-0.414387
0.414246
0.00206271
-0.000916778
-0.540535
0.539389
-0.000191339
0.000797062
-0.653258
0.652653
-0.000718206
-6.83093e-05
-0.777351
0.778137
0.00154483
-0.00334118
-0.925866
0.927662
0.00571284
-0.00815104
-1.10362
1.10606
0.0110367
-0.0137785
-1.31629
1.31903
0.0168083
-0.0194706
-1.57131
1.57398
0.0216986
-0.0234369
-1.56577
1.56751
0.0244346
-0.0250349
-1.30366
1.30426
0.0251657
-0.0249509
-1.08783
1.08762
0.024483
-0.0234417
-0.909858
0.908817
0.0218363
-0.0194934
-0.762603
0.760261
0.0168406
-0.0135703
-0.63653
0.633259
0.0105207
-0.00748559
-0.509568
0.506532
0.0052519
-0.00337062
-0.353089
0.351207
0.00205963
-0.000969132
-0.177431
0.176341
0.000303703
-0.029926
0.0296223
-0.0355378
0.0359416
-0.000403739
0.00253874
-0.00375811
-0.260242
0.261461
0.00489693
-0.00553981
-0.414597
0.41524
0.00569018
-0.0055079
-0.538924
0.538742
0.00528246
-0.00533168
-0.652488
0.652537
0.00584249
-0.00679267
-0.778881
0.779831
0.00832561
-0.0100826
-0.929183
0.93094
0.0123239
-0.0145808
-1.10822
1.11048
0.0172057
-0.0196406
-1.32152
1.32395
0.0222145
-0.0243237
-1.57632
1.57843
0.0259062
-0.026896
-1.56889
1.56988
0.0271935
-0.0269548
-1.30454
1.3043
0.0264066
-0.0254766
-1.08695
1.08602
0.024221
-0.0224476
-0.907146
0.905373
0.0205396
-0.0181296
-0.757762
0.755352
0.0156611
-0.0128018
-0.630259
0.6274
0.0102394
-0.00768644
-0.503955
0.501403
0.00570353
-0.00385859
-0.349527
0.347682
0.00242988
-0.0011597
-0.175249
0.173978
0.000364111
-0.0293282
0.0289641
-0.0364254
0.0369555
-0.000530071
0.00332283
-0.00499472
-0.262988
0.26466
0.00674282
-0.00807062
-0.416295
0.417623
0.00906752
-0.00972524
-0.539262
0.53992
0.0104112
-0.0112333
-0.653095
0.653917
0.0124565
-0.0138852
-0.780844
0.782272
0.0157527
-0.0176685
-0.932506
0.934422
0.019954
-0.0221509
-1.11251
1.11471
0.0245975
-0.0267478
-1.32611
1.32826
0.028843
-0.0303372
-1.58014
1.58163
0.031174
-0.031305
-1.57043
1.57056
0.0308291
-0.0298111
-1.3037
1.30268
0.028558
-0.0268292
-1.08451
1.08278
0.0249989
-0.0228224
-0.903246
0.901069
0.0207058
-0.0182736
-0.752803
0.75037
0.0159647
-0.0134004
-0.624785
0.622221
0.0111092
-0.00872589
-0.499208
0.496825
0.00671135
-0.00465839
-0.345942
0.343889
0.00297738
-0.00142874
-0.172677
0.171128
0.000448323
-0.0286091
0.0281608
-0.0375651
0.0382625
-0.000697454
0.00435029
-0.00657317
-0.26664
0.268863
0.00898407
-0.010959
-0.419378
0.421353
0.0127114
-0.0140908
-0.541278
0.542657
0.0155742
-0.0171343
-0.655229
0.656789
0.0191181
-0.021146
-0.78378
0.785808
0.0235488
-0.0258471
-0.936271
0.938569
0.0284296
-0.0307729
-1.11677
1.11912
0.0332202
-0.0352079
-1.33017
1.33216
0.0369232
-0.0378635
-1.58274
1.58368
0.0379987
-0.0372953
-1.57021
1.56951
0.0360646
-0.0342672
-1.30125
1.29945
0.0323155
-0.0299469
-1.08066
1.07829
0.0276569
-0.0250926
-0.89854
0.895976
0.0227404
-0.0201821
-0.747712
0.745154
0.017855
-0.0153144
-0.619753
0.617213
0.0129993
-0.0104653
-0.494697
0.492163
0.00818261
-0.00575094
-0.341901
0.339469
0.00369439
-0.00177477
-0.169528
0.167608
0.000556838
-0.0277238
0.0271669
-0.0390512
0.0399788
-0.000927587
0.00572792
-0.0086419
-0.271403
0.274317
0.0118148
-0.0144445
-0.423772
0.426402
0.0168909
-0.0189313
-0.544818
0.546858
0.0211999
-0.023513
-0.658865
0.661178
0.0263228
-0.0290678
-0.78793
0.790675
0.0321864
-0.0350513
-0.940857
0.943722
0.0381324
-0.0407906
-1.12138
1.12404
0.0434014
-0.0453526
-1.33396
1.33591
0.0468031
-0.0472728
-1.58429
1.58476
0.0467667
-0.0452937
-1.56837
1.56689
0.0433413
-0.0407498
-1.29722
1.29463
0.0381153
-0.0350807
-1.0755
1.07247
0.0322721
-0.0292315
-0.892994
0.889953
0.0265304
-0.023675
-0.742229
0.739374
0.0211299
-0.0183623
-0.614606
0.611838
0.0157862
-0.0128581
-0.489829
0.486901
0.010136
-0.00714631
-0.33708
0.33409
0.0045904
-0.00220076
-0.165635
0.163246
0.000688897
-0.0266335
0.0259446
-0.0410021
0.0422733
-0.00127121
0.00769731
-0.0115485
-0.277577
0.281429
0.015697
-0.0191058
-0.429612
0.433021
0.0223169
-0.0250619
-0.549867
0.552612
0.0281732
-0.0313169
-0.664042
0.667186
0.0350609
-0.0386333
-0.793504
0.797077
0.0425932
-0.0461337
-0.946583
0.950123
0.0498209
-0.0528828
-1.12665
1.12971
0.0557441
-0.0577219
-1.3377
1.33968
0.0589489
-0.058958
-1.58489
1.58489
0.0577947
-0.0555098
-1.56497
1.56268
0.0527878
-0.0493559
-1.29158
1.28815
0.0459915
-0.0422097
-1.06898
1.0652
0.0387771
-0.0351246
-0.886393
0.88274
0.0319301
-0.0285988
-0.73599
0.732659
0.0256558
-0.0224583
-0.608841
0.605643
0.019443
-0.0159436
-0.484135
0.480636
0.0125932
-0.00888754
-0.331162
0.327456
0.00570388
-0.00273032
-0.160814
0.157841
0.000851701
-0.0252973
0.0244456
-0.0436181
0.045402
-0.00178396
0.010588
-0.0157421
-0.285617
0.290771
0.021151
-0.0254985
-0.437257
0.441605
0.0295873
-0.0331403
-0.556637
0.56019
0.0372534
-0.0413955
-0.670957
0.6751
0.0462559
-0.0507992
-0.800732
0.805275
0.0557315
-0.0600463
-0.953679
0.957993
0.0644219
-0.0679308
-1.13273
1.13624
0.0710452
-0.0730105
-1.34146
1.34343
0.0739322
-0.0733809
-1.5845
1.58395
0.0714533
-0.0682405
-1.55988
1.55666
0.0646449
-0.0602633
-1.28421
1.27983
0.0560603
-0.0514004
-1.06089
1.05623
0.0472128
-0.0427929
-0.878454
0.874034
0.0389555
-0.0349806
-0.728627
0.724652
0.0314859
-0.0276903
-0.602037
0.598242
0.0240797
-0.0198386
-0.477218
0.472977
0.0156924
-0.0110377
-0.32386
0.319205
0.00704976
-0.00333956
-0.154865
0.151154
0.00102896
-0.0236625
0.0226335
-0.0472352
0.0498317
-0.00259649
0.0149835
-0.0219378
-0.296258
0.303213
0.0289663
-0.0344862
-0.447283
0.452803
0.0396871
-0.0443152
-0.565489
0.570117
0.0497735
-0.0551793
-0.679941
0.685347
0.0613697
-0.0670114
-0.809884
0.815526
0.0729867
-0.0780813
-0.962281
0.967376
0.0830935
-0.0869521
-1.13962
1.14348
0.090164
-0.0919428
-1.3451
1.34688
0.0923424
-0.0910208
-1.58288
1.58156
0.0881305
-0.0838015
-1.55282
1.5485
0.0791818
-0.0736987
-1.27486
1.26938
0.0685234
-0.06284
-1.05096
1.04528
0.0577623
-0.0524209
-0.868867
0.863525
0.0477971
-0.0430229
-0.719794
0.715019
0.0388367
-0.0342834
-0.593829
0.589275
0.029906
-0.0247083
-0.468704
0.463506
0.0195597
-0.0137183
-0.314743
0.308901
0.00869196
-0.00407666
-0.147519
0.142904
0.00124025
-0.0216864
0.0204461
-0.0524257
0.0564778
-0.00405205
0.022245
-0.0318071
-0.310652
0.320214
0.0410606
-0.048153
-0.460562
0.467655
0.0547925
-0.0608342
-0.577087
0.583129
0.0680024
-0.0748984
-0.691433
0.698329
0.082509
-0.0892142
-0.821159
0.827864
0.0960937
-0.10176
-0.972326
0.977992
0.107108
-0.111005
-1.14703
1.15093
0.113952
-0.115207
-1.34817
1.34943
0.114718
-0.112302
-1.57954
1.57713
0.108166
-0.102476
-1.5434
1.53771
0.0966528
-0.0899033
-1.26321
1.25646
0.0836252
-0.0767887
-1.03891
1.03207
0.0707082
-0.0643198
-0.857334
0.850946
0.05879
-0.0530791
-0.709174
0.703463
0.0480745
-0.0426146
-0.583843
0.578383
0.0372998
-0.0309036
-0.458127
0.451731
0.0244825
-0.0171454
-0.303322
0.295985
0.0108041
-0.0050088
-0.138458
0.132663
0.00149705
-0.0193153
0.0178183
-0.0603078
0.0675123
-0.00720448
0.0357662
-0.0495649
-0.331034
0.344833
0.0618914
-0.0708284
-0.478291
0.487228
0.0791163
-0.0868076
-0.592182
0.599873
0.0957949
-0.104017
-0.705676
0.713898
0.11267
-0.119977
-0.834359
0.841665
0.127171
-0.132826
-0.98325
0.988905
0.137857
-0.141179
-1.1542
1.15752
0.143228
-0.143395
-1.34987
1.35004
0.141476
-0.137513
-1.57375
1.56979
0.131776
-0.124457
-1.53109
1.52377
0.117241
-0.109081
-1.24893
1.24077
0.101594
-0.093517
-1.02449
1.01641
0.0863686
-0.0788797
-0.843636
0.836147
0.0723969
-0.065687
-0.696517
0.689807
0.05979
-0.0533212
-0.571731
0.565263
0.0468987
-0.0389572
-0.444886
0.436944
0.0308963
-0.0216514
-0.288874
0.279629
0.0135946
-0.00623187
-0.127265
0.119902
0.00178731
-0.0164947
0.0147074
-0.0744245
0.0779972
-0.00357268
0.0255664
-0.0374739
-0.36157
0.373478
0.048213
-0.0566074
-0.501247
0.509641
0.0655181
-0.0750568
-0.610549
0.620087
0.0856813
-0.0952202
-0.721799
0.731338
0.10584
-0.11522
-0.848213
0.857594
0.124948
-0.133278
-0.993634
1.00196
0.141545
-0.148151
-1.15974
1.16635
0.154001
-0.157785
-1.34898
1.35277
0.159722
-0.158949
-1.56456
1.56379
0.155339
-0.149304
-1.51532
1.50929
0.14226
-0.133364
-1.23173
1.22283
0.124712
-0.114386
-1.00754
0.997217
0.104995
-0.0947723
-0.827697
0.817475
0.0857308
-0.0761994
-0.68174
0.672208
0.0674646
-0.0581125
-0.557174
0.547822
0.0491047
-0.0378518
-0.428266
0.417013
0.0274615
-0.0169862
-0.270327
0.259851
0.00918136
-0.00341386
-0.113213
0.107446
0.000694676
-0.0132493
0.0125546
-0.0851146
0.0824031
0.00271155
0.00318351
-0.0102303
-0.388281
0.395328
0.0183851
-0.0250374
-0.522839
0.529491
0.0335068
-0.0419158
-0.6304
0.638809
0.0515681
-0.0603657
-0.740769
0.749566
0.0697266
-0.078215
-0.866487
0.874976
0.087033
-0.0943038
-1.01002
1.01729
0.101724
-0.10732
-1.1728
1.1784
0.112225
-0.115097
-1.35627
1.35915
0.115887
-0.11426
-1.56217
1.56054
0.109924
-0.103299
-1.50241
1.49579
0.0956691
-0.0863256
-1.2134
1.20405
0.0773736
-0.0671789
-0.986504
0.97631
0.057685
-0.0472253
-0.806142
0.795683
0.0379741
-0.0286126
-0.660179
0.650817
0.020697
-0.0126217
-0.535427
0.527352
0.00577293
0.000455809
-0.405029
0.3988
-0.00392437
0.00542246
-0.248343
0.246845
-0.00503667
0.00320197
-0.100779
0.102614
-0.0013216
-0.0111786
0.0125002
-0.0850568
0.081826
0.00323081
-0.00509647
0.00175194
-0.40551
0.408855
0.00345235
-0.00876606
-0.540194
0.545507
0.0157972
-0.0230484
-0.647696
0.654947
0.0312954
-0.0388585
-0.757852
0.765415
0.0471318
-0.0544814
-0.882815
0.890165
0.061911
-0.0684165
-1.02441
1.03092
0.0748948
-0.079901
-1.18365
1.18865
0.0838956
-0.0860398
-1.36147
1.36362
0.0865016
-0.0845663
-1.55835
1.55641
0.0801592
-0.0737348
-1.48871
1.48229
0.0665695
-0.0581049
-1.19479
1.18633
0.0497297
-0.0405213
-0.965996
0.956787
0.0320079
-0.0227086
-0.785433
0.776134
0.0147078
-0.00654642
-0.640247
0.632086
-0.00013219
0.00666967
-0.516774
0.510237
-0.0114465
0.0147692
-0.390583
0.38726
-0.0150423
0.0126159
-0.241767
0.244194
-0.00914185
0.00490299
-0.102566
0.106805
-0.00171534
-0.0126873
0.0144026
-0.0830293
0.0799347
0.00309461
-0.0079044
0.00671823
-0.416267
0.417453
-0.00351311
-0.000586458
-0.553816
0.557915
0.00670108
-0.0127582
-0.662091
0.668148
0.0198055
-0.0262871
-0.772708
0.77919
0.0333392
-0.0396386
-0.897105
0.903405
0.0464071
-0.0519768
-1.03706
1.04263
0.0577465
-0.0618214
-1.19335
1.19742
0.0654094
-0.0673366
-1.3657
1.36763
0.0676035
-0.0655533
-1.5543
1.55225
0.061658
-0.0560307
-1.47564
1.47001
0.0497584
-0.0421084
-1.17801
1.17036
0.0349535
-0.0271949
-0.947716
0.939957
0.0199661
-0.0124418
-0.767233
0.759708
0.00566444
0.000984488
-0.62318
0.616531
-0.00632145
0.0110195
-0.501965
0.497267
-0.0140215
0.0157528
-0.381123
0.379392
-0.0151048
0.0117835
-0.24199
0.245311
-0.00830535
0.00429064
-0.108192
0.112207
-0.00145546
-0.0149259
0.0163813
-0.080971
0.0783804
0.0025906
-0.00828835
0.00839661
-0.423229
0.423121
-0.00591794
0.00265664
-0.564934
0.568195
0.00225374
-0.00762523
-0.674279
0.679651
0.0135519
-0.0192693
-0.785277
0.790994
0.025394
-0.0308998
-0.909395
0.914901
0.0367656
-0.041802
-1.04814
1.05318
0.0467996
-0.0507004
-1.20145
1.20535
0.0539706
-0.0557751
-1.36935
1.37116
0.0561159
-0.0543699
-1.55029
1.54854
0.0510189
-0.0459975
-1.46407
1.45905
0.0406108
-0.034217
-1.16309
1.15669
0.0281858
-0.021568
-0.932365
0.925748
0.015664
-0.0094659
-0.752331
0.746133
0.00413958
0.00111473
-0.609605
0.604351
-0.00513156
0.00847186
-0.490853
0.487513
-0.0105089
0.0114026
-0.375148
0.374254
-0.0104303
0.00786371
-0.243676
0.246243
-0.00536621
0.00268101
-0.112894
0.115579
-0.000948727
-0.0166248
0.0175736
-0.0792878
0.0771275
0.00216032
-0.00768075
0.00802916
-0.427821
0.427472
-0.00662278
0.00383352
-0.573669
0.576458
0.000774355
-0.0053692
-0.684674
0.689269
0.010511
-0.0155178
-0.79618
0.801187
0.0210049
-0.0259816
-0.920189
0.925166
0.0314318
-0.0359445
-1.05804
1.06255
0.0405738
-0.0442296
-1.20907
1.21273
0.0472988
-0.0490555
-1.37283
1.37458
0.0495096
-0.0484187
-1.54692
1.54583
0.0455267
-0.0413374
-1.45388
1.44969
0.0366642
-0.0311261
-1.15045
1.14491
0.0261478
-0.020395
-0.919362
0.91361
0.0153704
-0.010298
-0.740154
0.735082
0.00591097
-0.00160544
-0.599016
0.594711
-0.00170244
0.00456766
-0.482582
0.479716
-0.00599174
0.00670467
-0.37084
0.370127
-0.00634314
0.0047002
-0.244188
0.245831
-0.0031137
0.00161854
-0.115243
0.116738
-0.000612742
-0.0174134
0.0180261
-0.0780863
0.0764218
0.00166456
-0.00648069
0.00697975
-0.431165
0.430666
-0.00571449
0.00354126
-0.581435
0.583608
0.00062444
-0.00478863
-0.693762
0.697926
0.0097009
-0.0140673
-0.806013
0.810379
0.018957
-0.0234384
-0.930221
0.934702
0.0286885
-0.0328833
-1.06718
1.07137
0.0371275
-0.040726
-1.21631
1.21991
0.0441094
-0.0459062
-1.37647
1.37827
0.0466746
-0.045845
-1.54451
1.54368
0.0436988
-0.0398506
-1.44546
1.44161
0.0359084
-0.0311851
-1.13942
1.1347
0.0267116
-0.0218298
-0.908111
0.903229
0.0173752
-0.0127445
-0.729913
0.725282
0.00910598
-0.00522892
-0.590131
0.586254
0.00215993
0.000344604
-0.475608
0.473103
-0.00187323
0.00287942
-0.367058
0.366052
-0.00294169
0.00228692
-0.243507
0.244162
-0.00157757
0.000889395
-0.115595
0.116283
-0.000397113
-0.0175966
0.0179938
-0.07745
0.0761417
0.00130834
-0.00523438
0.00577685
-0.433818
0.433275
-0.00453071
0.0023931
-0.588224
0.590362
0.00143765
-0.00518346
-0.701997
0.705743
0.00944788
-0.0136949
-0.814856
0.819103
0.0182635
-0.022921
-0.939092
0.94375
0.0275288
-0.0316117
-1.07573
1.07982
0.0360681
-0.0395319
-1.22348
1.22694
0.0425906
-0.0449317
-1.38008
1.38242
0.0460601
-0.0457011
-1.54301
1.54265
0.0439005
-0.0407546
-1.43801
1.43487
0.037229
-0.0329335
-1.1297
1.1254
0.028934
-0.0244669
-0.898262
0.893795
0.0203974
-0.0162753
-0.720728
0.716606
0.0126092
-0.00903491
-0.582087
0.578512
0.00620812
-0.00355023
-0.469455
0.466797
0.00175315
-0.000668223
-0.362875
0.36179
-3.20228e-06
0.000314009
-0.241482
0.241171
-0.000417574
0.000373854
-0.114525
0.114569
-0.000255256
-0.0173847
0.0176399
-0.0773574
0.0762577
0.00109977
-0.00387704
0.00420503
-0.436287
0.435959
-0.00314933
0.000951705
-0.594448
0.596646
0.00258468
-0.00621333
-0.709684
0.713313
0.0103317
-0.0142197
-0.82328
0.827168
0.0189373
-0.0228723
-0.947935
0.95187
0.0274917
-0.0314491
-1.08412
1.08808
0.0358602
-0.0395844
-1.23046
1.23419
0.0430139
-0.0452503
-1.38462
1.38685
0.0468267
-0.046951
-1.54229
1.54242
0.0458324
-0.0430106
-1.43164
1.42882
0.0398724
-0.0358795
-1.12115
1.11716
0.0321575
-0.0278776
-0.889011
0.884731
0.0240909
-0.0199994
-0.71221
0.708119
0.0164275
-0.0128194
-0.574595
0.570987
0.00983733
-0.00725528
-0.463214
0.460632
0.00516455
-0.00364763
-0.358236
0.356719
0.00242051
-0.00138253
-0.238237
0.237199
0.000611373
8.38402e-07
-0.112338
0.111726
-0.00015606
-0.016836
0.016992
-0.0775291
0.076751
0.000778038
-0.00269553
0.00261406
-0.438954
0.439035
-0.00171623
-0.000579166
-0.599914
0.602209
0.00380514
-0.00731051
-0.716888
0.720394
0.0112661
-0.0152926
-0.831035
0.835061
0.0194448
-0.0235565
-0.956069
0.960181
0.0281701
-0.0319622
-1.0925
1.09629
0.0365061
-0.0402367
-1.23778
1.24152
0.0437887
-0.0466062
-1.38955
1.39237
0.0487465
-0.049226
-1.54264
1.54312
0.0483942
-0.0462559
-1.42617
1.42404
0.043576
-0.0397891
-1.113
1.10922
0.0361061
-0.032084
-0.880203
0.876181
0.0280048
-0.0240652
-0.703675
0.699736
0.0204746
-0.0167173
-0.567237
0.563479
0.0137388
-0.0107924
-0.456827
0.453881
0.00846014
-0.00629325
-0.353139
0.350972
0.00467364
-0.0029962
-0.233897
0.232219
0.0015289
-0.000389865
-0.109255
0.108116
-4.72144e-05
-0.0160376
0.0160849
-0.0780936
0.0774604
0.000633163
-0.00174141
0.00171269
-0.441843
0.441872
-0.000329968
-0.00190373
-0.605382
0.607615
0.00522156
-0.00858218
-0.723617
0.726978
0.0123901
-0.0160433
-0.838856
0.842509
0.0203288
-0.0241516
-0.964351
0.968174
0.0287352
-0.0329677
-1.10057
1.1048
0.0371949
-0.041282
-1.24534
1.24943
0.0452961
-0.0482637
-1.39515
1.39812
0.0508306
-0.0521205
-1.54386
1.54515
0.0517528
-0.0502118
-1.42176
1.42022
0.0476822
-0.044218
-1.10539
1.10193
0.0407474
-0.036628
-0.87163
0.867511
0.0326534
-0.0285537
-0.69517
0.69107
0.0248545
-0.0208731
-0.559405
0.555424
0.0175862
-0.0144102
-0.450084
0.446908
0.0115571
-0.00890478
-0.347111
0.344459
0.00672745
-0.00446398
-0.228462
0.226199
0.0025276
-0.000888843
-0.105403
0.103765
0.000121017
-0.0150817
0.0149606
-0.0788969
0.0784207
0.000476227
-0.000735079
0.000521245
-0.444872
0.445085
0.000835649
-0.00325925
-0.610557
0.612981
0.00644719
-0.00963964
-0.730091
0.733283
0.013523
-0.0170341
-0.846207
0.849718
0.021177
-0.0251251
-0.972504
0.976452
0.0296236
-0.0338342
-1.10893
1.11314
0.0382956
-0.0424343
-1.25349
1.25763
0.0466679
-0.0504057
-1.40143
1.40516
0.0534637
-0.0550967
-1.54643
1.54807
0.0554396
-0.054209
-1.41856
1.41733
0.0521668
-0.0491064
-1.0983
1.09524
0.0455579