/*--------------------------------*- C++ -*----------------------------------*\
| =========                 |                                                 |
| \\      /  F ield         | OpenFOAM: The Open Source CFD Toolbox           |
|  \\    /   O peration     | Version:  2112                                  |
|   \\  /    A nd           | Website:  www.openfoam.com                      |
|    \\/     M anipulation  |                                                 |
\*---------------------------------------------------------------------------*/
FoamFile
{
    version     2.0;
    format      ascii;
    arch        "LSB;label=32;scalar=64";
    class       volScalarField;
    location    "4.0005";
    object      Ma;
}
// * * * * * * * * * * * * * * * * * * * * * * * * * * * * * * * * * * * * * //

dimensions      [0 0 0 0 0 0 0];

internalField   nonuniform List<scalar> 
7000
(
3.00001
3
3
3
3
3
3
2.99999
2.99999
2.99995
2.9999
2.99934
2.99877
2.99548
2.99283
2.97585
2.9582
2.87651
2.69199
2.27598
1.44812
0.653942
0.250977
0.357228
0.433109
0.445314
0.430066
0.406681
0.385869
0.371116
0.358361
0.344856
0.330424
0.315377
0.300013
0.284232
0.268082
0.251249
0.233957
0.216046
0.197584
0.178625
0.159212
0.1393
0.119154
0.0986951
0.0781178
0.0579209
0.0362422
0.0229149
3.00001
3
3
3
3
3
3
3
2.99999
2.99995
2.9999
2.99934
2.99879
2.9956
2.99306
2.97712
2.96065
2.88852
2.69663
2.29875
1.49343
0.690291
0.282933
0.377164
0.450788
0.462122
0.446298
0.422297
0.400486
0.384458
0.370284
0.355405
0.339663
0.323431
0.306997
0.290302
0.273392
0.256024
0.238345
0.220229
0.201679
0.182781
0.163505
0.143811
0.123913
0.103745
0.083488
0.0638205
0.0439518
0.0351668
3.00001
3
3
3
3
3
3
3
2.99999
2.99994
2.9999
2.99933
2.99879
2.99561
2.99305
2.97759
2.96018
2.88876
2.70004
2.31029
1.53317
0.701358
0.276632
0.37598
0.450976
0.462199
0.446457
0.422843
0.401745
0.386271
0.372491
0.357883
0.342378
0.326281
0.309974
0.293328
0.276497
0.259165
0.241606
0.223591
0.205284
0.18666
0.167847
0.148709
0.129613
0.110545
0.0918851
0.0748284
0.0597702
0.0557946
3.00001
3
3
3
3
3
3
3
3
2.99994
2.9999
2.99933
2.99878
2.99568
2.9931
2.97819
2.95976
2.8828
2.72004
2.3211
1.57302
0.718934
0.28126
0.37818
0.450835
0.460255
0.44341
0.419111
0.397701
0.381851
0.367676
0.352893
0.337405
0.321538
0.305573
0.289436
0.273178
0.256582
0.239804
0.222732
0.205396
0.187956
0.170358
0.152751
0.135359
0.118455
0.102564
0.0891085
0.0788215
0.0779815
3.00001
3
3
3
3
3
3
3
3
2.99994
2.99989
2.99934
2.99878
2.99589
2.99337
2.97957
2.962
2.88827
2.72715
2.33676
1.58666
0.725476
0.26958
0.369456
0.44135
0.450551
0.434452
0.411055
0.390614
0.375265
0.361393
0.346881
0.331701
0.316191
0.300576
0.28491
0.26914
0.253231
0.237213
0.221129
0.204926
0.188855
0.172878
0.157146
0.142078
0.127838
0.115254
0.10549
0.0990637
0.100461
3.00001
3
3
3
3
3
3
3
2.99999
2.99997
2.99975
2.99946
2.99817
2.99667
2.99151
2.98293
2.96929
2.9027
2.72835
2.34681
1.58379
0.73343
0.2636
0.360792
0.42988
0.438343
0.422782
0.400327
0.380724
0.366152
0.352791
0.33905
0.324523
0.309826
0.294907
0.280033
0.265034
0.249995
0.234976
0.219981
0.205162
0.190594
0.176499
0.162903
0.150327
0.139082
0.12969
0.123362
0.120158
0.123338
3.00001
3
3
3
3
3
3
3.00001
2.99999
2.99997
2.99973
2.99945
2.99791
2.99668
2.98799
2.98678
2.96807
2.91184
2.73442
2.36443
1.60219
0.752388
0.275189
0.362402
0.426162
0.433367
0.417901
0.395702
0.375913
0.361062
0.347581
0.333881
0.319663
0.305269
0.290952
0.276571
0.2624
0.248093
0.23419
0.220293
0.206911
0.194024
0.181794
0.170579
0.160522
0.152115
0.145854
0.14232
0.141631
0.146211
3.00001
3
3
3
3
3
3
3.00001
2.99999
2.99997
2.99974
2.99947
2.99801
2.99682
2.98892
2.98656
2.96627
2.91853
2.74691
2.38418
1.62154
0.771815
0.286462
0.362591
0.421024
0.4289
0.414658
0.393042
0.373158
0.358008
0.344676
0.331012
0.317144
0.303009
0.289174
0.275359
0.261812
0.248426
0.235388
0.22284
0.210745
0.199649
0.189287
0.180236
0.172773
0.166934
0.16323
0.162285
0.163622
0.16943
3.00001
3
3
3
3
3
3
3.00001
2.99999
2.99997
2.99975
2.99951
2.99816
2.99709
2.98965
2.98787
2.96853
2.92388
2.76139
2.40465
1.64793
0.799923
0.307174
0.366087
0.416083
0.426812
0.414241
0.393117
0.372537
0.357031
0.343784
0.330351
0.316695
0.303013
0.289521
0.276403
0.263464
0.25103
0.238998
0.22764
0.217069
0.207512
0.199223
0.192142
0.186827
0.183437
0.182027
0.182831
0.185889
0.19252
3.00001
3.00001
3
3
3
3
3
3.00001
2.99999
2.99997
2.99978
2.99955
2.99834
2.99744
2.99075
2.98951
2.97139
2.93177
2.77218
2.42954
1.6794
0.834711
0.33305
0.371374
0.412119
0.426619
0.416015
0.395521
0.373965
0.358238
0.345001
0.331957
0.318518
0.305359
0.29235
0.279887
0.267707
0.256137
0.245194
0.235018
0.225884
0.217874
0.211291
0.206357
0.20294
0.201353
0.201877
0.204544
0.208761
0.216342
3.00001
3.00001
3
3
3
3
3
3
2.99999
2.99997
2.9998
2.99961
2.99855
2.99779
2.99205
2.99125
2.97437
2.93992
2.78942
2.45473
1.7136
0.873043
0.359263
0.374842
0.411137
0.427043
0.418145
0.398335
0.376477
0.360766
0.347811
0.335164
0.322209
0.309553
0.297263
0.285498
0.274255
0.263649
0.253883
0.24499
0.237307
0.230814
0.225774
0.222438
0.220982
0.221159
0.223057
0.226829
0.232359
0.240304
3.00001
3.00001
3
3
3
3
3
3
2.99999
2.99998
2.99981
2.99964
2.99868
2.99785
2.99279
2.99253
2.9772
2.95242
2.80635
2.48524
1.75334
0.919778
0.389332
0.378231
0.4123
0.428587
0.42076
0.401794
0.380195
0.364854
0.352284
0.340204
0.327827
0.31586
0.304317
0.293414
0.283117
0.273581
0.264978
0.25737
0.251146
0.24625
0.24277
0.240945
0.240767
0.242432
0.245899
0.250966
0.25706
0.265865
3.00001
3.00001
3.00001
3
3
3
3
3
2.99999
2.99998
2.99985
2.9997
2.99893
2.99817
2.99408
2.99376
2.98107
2.96139
2.82745
2.51566
1.80102
0.980108
0.427522
0.38463
0.415626
0.431986
0.424654
0.406505
0.385453
0.370521
0.358443
0.346904
0.335328
0.324105
0.313536
0.30356
0.294392
0.285995
0.27865
0.272337
0.267371
0.263959
0.262019
0.261717
0.263115
0.265945
0.270244
0.276209
0.283459
0.292271
3.00001
3.00001
3.00001
3.00001
3
3.00001
3
3
2.99999
2.99998
2.99988
2.99975
2.99918
2.9986
2.99531
2.99454
2.97375
2.9716
2.83227
2.54707
1.86038
1.04598
0.464162
0.384409
0.414399
0.432229
0.426517
0.409892
0.390454
0.376424
0.365314
0.354644
0.344116
0.333963
0.324464
0.315694
0.307695
0.300674
0.294674
0.289904
0.286373
0.28432
0.283821
0.284829
0.287463
0.291789
0.297536
0.304458
0.312055
0.321773
3.00001
3.00001
3.00001
3.00001
3.00001
3
3.00001
3
3
2.99997
2.99992
2.99967
2.9994
2.99827
2.99589
2.99339
2.97417
2.97159
2.84565
2.584
1.92979
1.1277
0.505375
0.377547
0.40689
0.427068
0.423802
0.409847
0.392851
0.380573
0.370977
0.362016
0.353087
0.344594
0.336633
0.329372
0.322898
0.317314
0.312824
0.309579
0.307707
0.307278
0.308407
0.311089
0.315153
0.320527
0.327223
0.335353
0.344213
0.353771
3.00001
3.00001
3.00001
3.00001
3.00001
3.00001
3.00001
3
3
2.99997
2.99994
2.99973
2.99955
2.99862
2.99686
2.99485
2.97925
2.97591
2.86528
2.62841
2.0153
1.22887
0.569092
0.376917
0.403053
0.424407
0.423181
0.411138
0.395758
0.384226
0.375972
0.368715
0.361766
0.355201
0.349307
0.344015
0.339511
0.335897
0.333199
0.33175
0.331557
0.332844
0.335665
0.340076
0.346051
0.353453
0.362011
0.371345
0.381036
0.391992
3.00001
3.00001
3.00001
3.00001
3.00001
3.00001
3.00001
3
3
2.99995
2.9999
2.99962
2.99935
2.99793
2.99644
2.9875
2.98659
2.96167
2.89147
2.65913
2.22294
1.3429
0.695748
0.408519
0.426214
0.444487
0.442715
0.4285
0.411177
0.39695
0.387212
0.379725
0.373282
0.36778
0.363272
0.359792
0.357206
0.355723
0.355228
0.355962
0.358035
0.36151
0.366528
0.373203
0.381229
0.390688
0.401501
0.413613
0.425813
0.437264
3.00001
3.00001
3.00001
3.00001
3.00001
3.00001
3.00001
3.00001
3
2.99999
2.99993
2.99988
2.99962
2.99923
2.99842
2.9945
2.99367
2.96711
2.90336
2.73557
2.36385
1.62803
0.845677
0.471
0.47558
0.489688
0.489617
0.471693
0.449919
0.429319
0.414614
0.403552
0.3948
0.387921
0.382955
0.379768
0.378217
0.378161
0.379589
0.382407
0.386721
0.392697
0.400453
0.410214
0.421945
0.435168
0.449995
0.465764
0.482278
0.498636
3.00001
3.00001
3.00001
3.00001
3.00001
3.00001
3.00001
3
3
2.99998
2.99996
2.99986
2.99974
2.99927
2.99865
2.99551
2.99269
2.97635
2.94492
2.79749
2.46818
1.74526
0.9378
0.486932
0.483703
0.508657
0.518437
0.506745
0.487977
0.467047
0.450123
0.436952
0.425908
0.41706
0.410422
0.406285
0.404519
0.405016
0.40761
0.412314
0.419253
0.428085
0.439162
0.452215
0.468143
0.48678
0.508207
0.532974
0.559379
0.587203
3.00001
3.00001
3.00001
3.00001
3.00001
3.00001
3.00001
3.00001
3
3
2.99998
2.99994
2.99989
2.99947
2.99893
2.99534
2.9939
2.9702
2.973
2.82966
2.55454
1.87333
1.06883
0.535635
0.47046
0.499264
0.518507
0.517695
0.507177
0.492714
0.479551
0.468678
0.458952
0.450251
0.443308
0.4384
0.435945
0.435999
0.43928
0.445455
0.454433
0.46627
0.481023
0.499483
0.52112
0.548041
0.580491
0.621291
0.676232
0.769959
3.00001
3.00001
3.00001
3.00001
3.00001
3.00001
3.00001
3.00001
3
3
2.99998
2.99997
2.99984
2.99971
2.99848
2.99672
2.98441
2.98638
2.95552
2.86545
2.5975
2.11556
1.20392
0.672272
0.486702
0.501753
0.52025
0.527837
0.523671
0.515552
0.507166
0.500952
0.495724
0.4909
0.48673
0.483731
0.482667
0.484455
0.489135
0.49678
0.50762
0.522516
0.541686
0.56603
0.597439
0.636312
0.688218
0.757926
0.8625
1.00533
3.00001
3.00001
3.00001
3.00001
3.00001
3.00001
3.00001
3.00001
3.00001
3
3
2.99999
2.99993
2.99988
2.99939
2.99878
2.99363
2.9938
2.96371
2.90884
2.73685
2.37659
1.64555
0.884677
0.535529
0.536787
0.55676
0.568873
0.565182
0.555991
0.54705
0.54018
0.53562
0.532034
0.529566
0.528977
0.530807
0.534895
0.541729
0.551379
0.56525
0.583005
0.606665
0.636146
0.673727
0.722718
0.784576
0.86945
0.990234
1.13291
3.00001
3.00001
3.00001
3.00001
3.00001
3.00001
3.00001
3.00001
3.00001
3.00001
3
2.99999
2.99995
2.99989
2.99956
2.99913
2.99619
2.99404
2.97524
2.96273
2.81685
2.50647
1.80817
1.01946
0.555915
0.537097
0.570483
0.596132
0.600915
0.595621
0.588677
0.582848
0.578882
0.576326
0.575369
0.577217
0.581022
0.586783
0.595306
0.606909
0.622776
0.64342
0.66942
0.702983
0.743518
0.795577
0.859407
0.939556
1.04632
1.15702
3.00001
3.00001
3.00001
3.00001
3.00001
3.00001
3.00001
3.00001
3.00001
3.00001
3
2.99999
2.99996
2.99993
2.99959
2.9992
2.99616
2.99482
2.97419
2.97712
2.84776
2.61264
1.99919
1.24552
0.660779
0.54745
0.576539
0.603947
0.615692
0.616307
0.614036
0.61218
0.611899
0.612603
0.615799
0.621114
0.627972
0.636207
0.646834
0.660637
0.677725
0.699916
0.7264
0.76025
0.800473
0.849975
0.909232
0.980032
1.06878
1.15894
3.00001
3.00001
3.00001
3.00001
3.00001
3.00001
3.00001
3.00001
3.00001
3.00001
3
3
2.99997
2.99994
2.99971
2.99944
2.99734
2.99621
2.98154
2.97968
2.89242
2.69971
2.22357
1.51298
0.810458
0.588946
0.594107
0.614381
0.629502
0.633118
0.632931
0.633469
0.635703
0.639806
0.646848
0.656094
0.665833
0.677442
0.69054
0.706952
0.725733
0.748847
0.775676
0.807952
0.845671
0.89049
0.942475
1.00333
1.07624
1.15051
3.00001
3.00001
3.00001
3.00001
3.00001
3.00001
3.00001
3.00001
3.00001
3.00001
3.00001
3
2.99998
2.99991
2.99981
2.99916
2.99825
2.9921
2.99305
2.96382
2.97179
2.81939
2.53051
1.86229
1.10024
0.672831
0.627802
0.642893
0.657806
0.661939
0.661242
0.660808
0.662805
0.668368
0.676914
0.687142
0.698356
0.711637
0.726616
0.744644
0.764861
0.788845
0.815467
0.847085
0.881755
0.922939
0.968128
1.0209
1.08154
1.1435
3.00001
3.00001
3.00001
3.00001
3.00001
3.00001
3.00001
3.00001
3.00001
3.00001
3.00001
3
3
2.99996
2.99995
2.99961
2.99928
2.9966
2.99541
2.97789
2.98187
2.87019
2.67104
2.12392
1.41896
0.808651
0.657554
0.662127
0.677125
0.688522
0.690502
0.690324
0.692569
0.698187
0.706351
0.716549
0.728137
0.741912
0.757427
0.775796
0.796073
0.81992
0.845752
0.876031
0.908657
0.946314
0.987271
1.03355
1.08645
1.13952
3.00001
3.00001
3.00001
3.00001
3.00001
3.00001
3.00001
3.00001
3.00001
3.00001
3.00001
3
3
2.99997
2.99995
2.99974
2.99946
2.99743
2.99651
2.98352
2.98581
2.9162
2.77962
2.4559
1.85626
1.04038
0.727508
0.690813
0.702263
0.713869
0.718606
0.719339
0.721327
0.726635
0.734517
0.744743
0.756692
0.770651
0.786421
0.80447
0.8243
0.846954
0.871399
0.899357
0.929442
0.963584
1.0006
1.0419
1.0887
1.13552
3.00001
3.00001
3.00001
3.00001
3.00001
3.00001
3.00001
3.00001
3.00001
3.00001
3.00001
3.00001
3
2.99999
2.99998
2.99989
2.9998
2.99906
2.9984
2.99181
2.99319
2.95196
2.87953
2.6481
2.20912
1.39409
0.902733
0.74783
0.73656
0.743424
0.749311
0.75048
0.751398
0.755319
0.762076
0.7718
0.783543
0.797523
0.813138
0.831145
0.850474
0.872515
0.89563
0.921728
0.949213
0.979832
1.01287
1.04942
1.09083
1.13209
3.00001
3.00001
3.00001
3.00001
3.00001
3.00001
3.00001
3.00001
3.00001
3.00001
3.00001
3.00001
3
3
2.99997
2.99991
2.9998
2.99927
2.99851
2.99604
2.9883
2.96669
2.92993
2.78622
2.51794
1.9161
1.16601
0.844863
0.779984
0.777156
0.780169
0.784323
0.785826
0.78843
0.793521
0.801462
0.811764
0.824432
0.838898
0.855601
0.874093
0.894751
0.917176
0.941447
0.967826
0.995913
1.02664
1.05928
1.09605
1.13225
3.00001
3.00001
3.00001
3.00001
3.00001
3.00001
3.00001
3.00001
3.00001
3.00001
3.00001
3.00001
3.00001
3
3
2.99999
2.99992
2.99986
2.99934
2.99882
2.99425
2.99203
2.964
2.9169
2.73687
2.37055
1.62909
1.06104
0.837656
0.811201
0.812827
0.818733
0.824185
0.828238
0.832957
0.839454
0.847783
0.858234
0.870454
0.884767
0.900684
0.918648
0.938549
0.960309
0.984088
1.00983
1.03778
1.06806
1.10171
1.13509
3.00001
3.00001
3.00001
3.00001
3.00001
3.00001
3.00001
3.00001
3.00001
3.00001
3.00001
3.00001
3.00001
3
3
2.99998
2.99997
2.99981
2.99968
2.99839
2.9978
2.98932
2.99053
2.94174
2.84428
2.61716
2.10185
1.3646
0.957704
0.845351
0.836518
0.844511
0.854967
0.863873
0.870762
0.877861
0.88604
0.895493
0.906457
0.918674
0.932632
0.947896
0.964885
0.98359
1.00411
1.02668
1.05104
1.07791
1.10779
1.13798
3.00001
3.00001
3.00001
3.00001
3.00001
3.00001
3.00001
3.00001
3.00001
3.00001
3.00001
3.00001
3.00001
3.00001
3
3
2.99997
2.99994
2.99971
2.99942
2.99737
2.99677
2.98354
2.98663
2.9193
2.78783
2.50367
1.89657
1.2127
0.919899
0.864033
0.868241
0.879685
0.893839
0.904916
0.913153
0.921161
0.929758
0.939494
0.950482
0.962739
0.976554
0.99168
1.0086
1.02672
1.0468
1.0683
1.09183
1.11819
1.14461
3.00001
3.00001
3.00001
3.00001
3.00001
3.00001
3.00001
3.00001
3.00001
3.00001
3.00001
3.00001
3.00001
3.00001
3.00001
3
3
2.99996
2.99993
2.99968
2.99939
2.99717
2.99615
2.98173
2.98744
2.89618
2.73279
2.32294
1.67536
1.05899
0.887161
0.876094
0.892109
0.910862
0.928331
0.940373
0.949515
0.958279
0.967469
0.977593
0.98859
1.00091
1.01415
1.02908
1.04519
1.06298
1.08235
1.10347
1.12756
1.15159
3.00001
3.00001
3.00001
3.00001
3.00001
3.00001
3.00001
3.00001
3.00001
3.00001
3.00001
3.00001
3.00001
3.00001
3.00001
3
3
2.99998
2.99997
2.99983
2.99969
2.99846
2.99818
2.99068
2.98635
2.95413
2.88542
2.651
2.1844
1.40348
1.02532
0.922801
0.918401
0.931632
0.947579
0.962015
0.972188
0.981165
0.990197
1.00026
1.01087
1.02262
1.03506
1.04857
1.0632
1.07914
1.0966
1.11597
1.13782
1.15973
3.00001
3.00001
3.00001
3.00001
3.00001
3.00001
3.00001
3.00001
3.00001
3.00001
3.00001
3.00001
3.00001
3.00001
3.00001
3.00001
3
2.99999
2.99998
2.99994
2.99979
2.99932
2.99872
2.99603
2.99101
2.9734
2.93834
2.82914
2.58388
2.03033
1.32363
1.04013
0.974342
0.966809
0.972491
0.981545
0.990491
0.998709
1.0066
1.01539
1.02503
1.03594
1.04791
1.06097
1.0751
1.09057
1.10743
1.12588
1.14624
1.16673
3.00001
3.00001
3.00001
3.00001
3.00001
3.00001
3.00001
3.00001
3.00001
3.00001
3.00001
3.00001
3.00001
3.00001
3.00001
3.00001
3
3
2.99998
2.99995
2.99973
2.99971
2.99915
2.99836
2.99215
2.99549
2.95908
2.97523
2.81596
2.55195
1.95704
1.35156
1.06336
1.01947
1.0111
1.01255
1.01842
1.02496
1.03094
1.03759
1.04514
1.0538
1.06379
1.07511
1.08779
1.10199
1.11754
1.13439
1.15334
1.17235
3.00001
3.00001
3.00001
3.00001
3.00001
3.00001
3.00001
3.00001
3.00001
3.00001
3.00001
3.00001
3.00001
3.00001
3.00001
3.00001
3.00001
3
3
2.99999
2.99994
2.99989
2.99959
2.99935
2.99756
2.99637
2.98684
2.97577
2.91317
2.82312
2.52181
1.93555
1.35338
1.08842
1.04211
1.0351
1.03824
1.04588
1.05442
1.06185
1.06961
1.07762
1.08688
1.09685
1.1082
1.12001
1.13349
1.14765
1.16459
1.18139
3.00001
3.00001
3.00001
3.00001
3.00001
3.00001
3.00001
3.00001
3.00001
3.00001
3.00001
3.00001
3.00001
3.00001
3.00001
3.00001
3.00001
3.00001
3
3
2.99997
2.99996
2.99981
2.99974
2.99901
2.99806
2.99394
2.98662
2.96026
2.9144
2.78539
2.48006
1.91458
1.29658
1.08596
1.04992
1.04943
1.05681
1.06685
1.07677
1.08578
1.09458
1.10395
1.11403
1.12499
1.13685
1.14973
1.16384
1.17977
1.19601
3.00001
3.00001
3.00001
3.00001
3.00001
3.00001
3.00001
3.00001
3.00001
3.00001
3.00001
3.00001
3.00001
3.00001
3.00001
3.00001
3.00001
3.00001
3.00001
3.00001
3
2.99999
2.99993
2.99991
2.99954
2.99962
2.99785
2.99464
2.98629
2.96303
2.91426
2.78791
2.46964
1.87386
1.26727
1.0922
1.06337
1.065
1.07228
1.08287
1.09366
1.10422
1.11451
1.12518
1.13629
1.14835
1.161
1.17492
1.19056
1.20657
3.00001
3.00001
3.00001
3.00001
3.00001
3.00001
3.00001
3.00001
3.00001
3.00001
3.00001
3.00001
3.00001
3.00001
3.00001
3.00001
3.00001
3.00001
3.00001
3.00001
3
3
2.99996
2.99992
2.99961
2.99956
2.99876
2.99782
2.99008
2.98967
2.95864
2.95675
2.77953
2.49256
1.87377
1.36962
1.15573
1.11364
1.1062
1.10743
1.11411
1.12343
1.13217
1.14143
1.15101
1.16188
1.17369
1.18692
1.20167
1.21706
3.00001
3.00001
3.00001
3.00001
3.00001
3.00001
3.00001
3.00001
3.00001
3.00001
3.00001
3.00001
3.00001
3.00001
3.00001
3.00001
3.00001
3.00001
3.00001
3.00001
3
3
2.99999
2.99998
2.99992
2.99987
2.99947
2.99927
2.99703
2.99589
2.98357
2.97324
2.91535
2.81181
2.52748
1.96649
1.45044
1.19778
1.14616
1.13737
1.13826
1.14511
1.1542
1.16373
1.17317
1.18343
1.19402
1.20601
1.21921
1.23335
3.00001
3.00001
3.00001
3.00001
3.00001
3.00001
3.00001
3.00001
3.00001
3.00001
3.00001
3.00001
3.00001
3.00001
3.00001
3.00001
3.00001
3.00001
3.00001
3.00001
3.00001
3.00001
3.00001
3
2.99999
2.99995
2.99992
2.99972
2.99952
2.99791
2.99712
2.98571
2.9931
2.91961
2.82697
2.50343
2.01559
1.44419
1.21863
1.16388
1.15692
1.16081
1.16864
1.17936
1.18976
1.20076
1.21178
1.22386
1.23686
1.2505
3.00001
3.00001
3.00001
3.00001
3.00001
3.00001
3.00001
3.00001
3.00001
3.00001
3.00001
3.00001
3.00001
3.00001
3.00001
3.00001
3.00001
3.00001
3.00001
3.00001
3.00001
3.00001
3
3
2.99999
2.99998
2.99992
2.99987
2.99949
2.99931
2.99725
2.99628
2.98652
2.97435
2.92772
2.83088
2.58973
2.12036
1.57411
1.26469
1.20665
1.19339
1.19194
1.19722
1.20606
1.21707
1.22757
1.23862
1.25067
1.26345
3.00001
3.00001
3.00001
3.00001
3.00001
3.00001
3.00001
3.00001
3.00001
3.00001
3.00001
3.00001
3.00001
3.00001
3.00001
3.00001
3.00001
3.00001
3.00001
3.00001
3.00001
3.00001
3.00001
3.00001
3
3
2.99999
3
2.9999
2.99977
2.99936
2.99825
2.99602
2.98969
2.97496
2.9276
2.8533
2.65605
2.24543
1.71791
1.32763
1.24017
1.21857
1.21686
1.22193
1.23046
1.2411
1.25113
1.2626
1.2743
3.00001
3.00001
3.00001
3.00001
3.00001
3.00001
3.00001
3.00001
3.00001
3.00001
3.00001
3.00001
3.00001
3.00001
3.00001
3.00001
3.00001
3.00001
3.00001
3.00001
3.00001
3.00001
3.00001
3.00001
3.00001
3
2.99999
2.99999
2.99995
2.99992
2.99958
2.99958
2.99862
2.99748
2.98807
2.98559
2.95768
2.91721
2.7289
2.39747
1.89554
1.49309
1.31376
1.26852
1.25964
1.25982
1.26404
1.27233
1.28227
1.29222
3.00001
3.00001
3.00001
3.00001
3.00001
3.00001
3.00001
3.00001
3.00001
3.00001
3.00001
3.00001
3.00001
3.00001
3.00001
3.00001
3.00001
3.00001
3.00001
3.00001
3.00001
3.00001
3.00001
3.00001
3.00001
3.00001
3
3
2.99999
2.99998
2.99987
2.99987
2.99956
2.99938
2.99646
2.99623
2.9816
2.98835
2.91959
2.82592
2.50478
2.08671
1.61733
1.38645
1.31616
1.29788
1.29417
1.29626
1.30291
1.31149
3.00001
3.00001
3.00001
3.00001
3.00001
3.00001
3.00001
3.00001
3.00001
3.00001
3.00001
3.00001
3.00001
3.00001
3.00001
3.00001
3.00001
3.00001
3.00001
3.00001
3.00001
3.00001
3.00001
3.00001
3.00001
3.00001
3.00001
3
3
2.99998
2.99998
2.99992
2.99986
2.99934
2.99926
2.998
2.99678
2.98515
2.98447
2.94856
2.90681
2.66097
2.30636
1.85649
1.53784
1.38421
1.34193
1.33258
1.33206
1.3349
3.00001
3.00001
3.00001
3.00001
3.00001
3.00001
3.00001
3.00001
3.00001
3.00001
3.00001
3.00001
3.00001
3.00001
3.00001
3.00001
3.00001
3.00001
3.00001
3.00001
3.00001
3.00001
3.00001
3.00001
3.00001
3.00001
3.00001
3.00001
3.00001
3
3
3
2.99999
2.99994
2.9999
2.9997
2.99952
2.99783
2.999
2.98904
3.00529
2.91861
2.79862
2.5161
2.13255
1.70902
1.48155
1.40128
1.37543
1.37006
3.00001
3.00001
3.00001
3.00001
3.00001
3.00001
3.00001
3.00001
3.00001
3.00001
3.00001
3.00001
3.00001
3.00001
3.00001
3.00001
3.00001
3.00001
3.00001
3.00001
3.00001
3.00001
3.00001
3.00001
3.00001
3.00001
3.00001
3.00001
3.00001
3.00001
3.00001
3
3
2.99999
2.99996
2.99994
2.99981
3.00001
2.99908
3.00249
2.99557
2.98712
2.93491
2.89045
2.74792
2.41406
2.06382
1.68565
1.48577
1.44117
3.00001
3.00001
3.00001
3.00001
3.00001
3.00001
3.00001
3.00001
3.00001
3.00001
3.00001
3.00001
3.00001
3.00001
3.00001
3.00001
3.00001
3.00001
3.00001
3.00001
3.00001
3.00001
3.00001
3.00001
3.00001
3.00001
3.00001
3.00001
3.00001
3.00001
3.00001
3.00001
3
3
2.99999
2.99999
2.99992
2.99988
2.99953
2.9995
2.99771
2.99803
2.99022
2.98235
2.91836
2.86481
2.70831
2.36404
2.03444
1.7146
3.00001
3.00001
3.00001
3.00001
3.00001
3.00001
3.00001
3.00001
3.00001
3.00001
3.00001
3.00001
3.00001
3.00001
3.00001
3.00001
3.00001
3.00001
3.00001
3.00001
3.00001
3.00001
3.00001
3.00001
3.00001
3.00001
3.00001
3.00001
3.00001
3.00001
3.00001
3.00001
3.00001
3.00001
3.00001
3.00001
3.00002
3.00002
3.00008
3.00006
3.00045
2.99968
2.9985
2.98674
2.9879
2.94311
3.06321
2.87187
2.67246
2.14779
3.00001
3.00001
3.00001
3.00001
3.00001
3.00001
3.00001
3.00001
3.00001
3.00001
3.00001
3.00001
3.00001
3.00001
3.00001
3.00001
3.00001
3.00001
3.00001
3.00001
3.00001
3.00001
3.00001
3.00001
3.00001
3.00001
3.00001
3.00001
3.00001
3.00001
3.00001
3.00001
3.00001
3.00001
3.00001
3.00001
3.00001
3.00001
3.00002
3.00002
3.00011
2.9999
2.99969
2.99702
2.99833
2.98489
3.01437
2.95367
2.87197
2.45046
3.00001
3.00001
3.00001
3.00001
3.00001
3.00001
3.00001
3.00001
3.00001
3.00001
3.00001
3.00001
3.00001
3.00001
3.00001
3.00001
3.00001
3.00001
3.00001
3.00001
3.00001
3.00001
3.00001
3.00001
3.00001
3.00001
3.00001
3.00001
3.00001
3.00001
3.00001
3.00001
3.00001
3.00001
3.00001
3.00001
3.00001
3.00001
3.00002
3.00002
3.00005
3.00005
3.00018
2.99969
3.00245
2.99254
3.02761
2.96731
2.88346
2.43843
3.00001
3.00001
3.00001
3.00001
3.00001
3.00001
3.00001
3.00001
3.00001
3.00001
3.00001
3.00001
3.00001
3.00001
3.00001
3.00001
3.00001
3.00001
3.00001
3.00001
3.00001
3.00001
3.00001
3.00001
3.00001
3.00001
3.00001
3.00001
3.00001
3.00001
3.00001
3.00001
3.00001
3.00001
3.00001
3.00001
3.00001
3.00001
3.00001
3
3.00004
3.00005
3.00043
3.00031
3.00225
2.99451
3.04072
2.95542
2.89598
2.44871
3.00001
3.00001
3.00001
3.00001
3.00001
3.00001
3.00001
3.00001
3.00001
3.00001
3.00001
3.00001
3.00001
3.00001
3.00001
3.00001
3.00001
3.00001
3.00001
3.00001
3.00001
3.00001
3.00001
3.00001
3.00001
3.00001
3.00001
3.00001
3.00001
3.00001
3.00001
3.00001
3.00001
3.00001
3.00001
3.00001
3.00001
3.00001
3.00001
3.00002
3.00005
3.00006
3.00025
2.99998
3.00192
2.99437
3.03922
2.95623
2.89991
2.46474
3.00001
3.00001
3.00001
3.00001
3.00001
3.00001
3.00001
3.00001
3.00001
3.00001
3.00001
3.00001
3.00001
3.00001
3.00001
3.00001
3.00001
3.00001
3.00001
3.00001
3.00001
3.00001
3.00001
3.00001
3.00001
3.00001
3.00001
3.00001
3.00001
3.00001
3.00001
3.00001
3.00001
3.00001
3.00001
3.00001
3
3
2.99998
2.99998
2.99987
2.99986
2.99924
2.99903
2.99565
2.99618
2.97665
2.9887
2.88564
2.75646
3.00001
3.00001
3.00001
3.00001
3.00001
3.00001
3.00001
3.00001
3.00001
3.00001
3.00001
3.00001
3.00001
3.00001
3.00001
3.00001
3.00001
3.00001
3.00001
3.00001
3.00001
3.00001
3.00001
3.00001
3.00001
3.00001
3.00001
3.00001
3.00001
3.00001
3.00001
3.00001
3.00001
3.00001
3.00001
3.00001
3
3
2.99998
2.99998
2.99987
2.99986
2.99927
2.99907
2.99597
2.99615
2.97852
2.98566
2.8971
2.79043
3.00001
3.00001
3.00001
3.00001
3.00001
3.00001
3.00001
3.00001
3.00001
3.00001
3.00001
3.00001
3.00001
3.00001
3.00001
3.00001
3.00001
3.00001
3.00001
3.00001
3.00001
3.00001
3.00001
3.00001
3.00001
3.00001
3.00001
3.00001
3.00001
3.00001
3.00001
3.00001
3.00001
3.00001
3.00001
3.00001
3.00001
3.00001
3.00001
3.00001
3.00001
2.99998
3.0001
2.99968
3.00166
2.99445
3.03369
2.95867
2.90708
2.50974
3.00001
3.00001
3.00001
3.00001
3.00001
3.00001
3.00001
3.00001
3.00001
3.00001
3.00001
3.00001
3.00001
3.00001
3.00001
3.00001
3.00001
3.00001
3.00001
3.00001
3.00001
3.00001
3.00001
3.00001
3.00001
3.00001
3.00001
3.00001
3.00001
3.00001
3.00001
3.00001
3.00001
3.00001
3.00001
3.00001
3
3
2.99998
2.99998
2.99987
2.99986
2.99927
2.9991
2.99587
2.99637
2.97933
2.991
2.89903
2.78849
1.4862
1.58595
1.35656
0.682196
0.236518
0.414517
0.450053
0.547
0.585122
0.607769
0.621773
0.630119
0.636041
0.643369
0.652291
0.662897
0.676226
0.693221
0.711556
0.729333
0.743653
0.751419
0.755684
0.754366
0.741614
0.711848
0.666255
0.608801
0.543314
0.474744
0.406989
0.342807
0.283065
0.227049
0.174658
0.125914
0.0808147
0.0425546
0.0260163
0.0554501
0.0910826
0.12528
0.158005
0.188349
0.216733
0.244663
0.274053
0.302638
0.330088
0.355939
0.381257
0.405633
0.429436
0.452512
0.475146
0.496959
0.518551
0.539221
0.55991
0.579624
0.599513
0.618427
0.637594
0.655797
0.674285
0.691825
0.709654
0.726596
0.743799
0.76018
0.776837
0.792653
0.808837
0.824113
0.839836
0.854619
0.869897
0.884202
0.899075
0.912932
0.927429
0.940882
0.955041
0.968136
0.981946
0.994744
1.00818
1.02068
1.03374
1.04596
1.05873
1.07063
1.08313
1.09459
1.1067
1.11745
1.12863
1.1377
1.14581
1.15026
1.42756
1.47845
1.35028
1.03893
0.608143
0.397768
0.30277
0.186139
0.0889536
0.077866
0.129229
0.178532
0.225673
0.27834
0.331029
0.377591
0.417714
0.451918
0.479392
0.501239
0.517176
0.524848
0.527452
0.523986
0.507455
0.474417
0.424852
0.364552
0.300258
0.234565
0.175224
0.12261
0.0824615
0.0641843
0.0795616
0.110508
0.145137
0.178781
0.210507
0.24099
0.271918
0.301517
0.330706
0.357839
0.383759
0.408215
0.434166
0.459864
0.484766
0.507921
0.530955
0.552808
0.57466
0.595536
0.616289
0.636222
0.655991
0.675054
0.693998
0.712242
0.730498
0.748004
0.765618
0.782508
0.799455
0.815869
0.832138
0.84817
0.863814
0.879489
0.89458
0.909893
0.924473
0.939408
0.953529
0.968046
0.981795
0.995866
1.00932
1.02295
1.03615
1.04936
1.06235
1.07518
1.08794
1.10048
1.11306
1.12534
1.13773
1.14972
1.16185
1.17346
1.18532
1.19647
1.20798
1.21843
1.22914
1.238
1.24597
1.25028
1.3593
1.42745
1.4313
1.34719
1.15044
0.923946
0.791581
0.673104
0.562081
0.457899
0.36805
0.291002
0.225383
0.165839
0.115661
0.0813851
0.0695739
0.0904185
0.127184
0.169384
0.213956
0.243882
0.25858
0.262545
0.244289
0.209066
0.166782
0.129513
0.112312
0.118946
0.145569
0.179653
0.214503
0.246693
0.277757
0.307641
0.337568
0.365681
0.392796
0.418571
0.444304
0.468994
0.493482
0.516543
0.538576
0.559038
0.580429
0.602266
0.623976
0.644169
0.663976
0.683101
0.701922
0.720439
0.738343
0.756343
0.773414
0.790946
0.807288
0.824341
0.840076
0.856639
0.871887
0.887943
0.902759
0.918316
0.932698
0.947813
0.961805
0.976544
0.990231
1.00463
1.01806
1.03209
1.04532
1.05885
1.07197
1.08498
1.09798
1.11055
1.12343
1.1357
1.1485
1.16058
1.17327
1.18511
1.19756
1.2091
1.22134
1.23255
1.24456
1.25541
1.26712
1.27758
1.28886
1.29873
1.30917
1.31758
1.32542
1.32927
1.32833
1.40752
1.46039
1.45987
1.39676
1.267
1.13935
1.02289
0.923553
0.831207
0.739594
0.658767
0.587291
0.519465
0.455692
0.399197
0.349554
0.301132
0.253207
0.206281
0.160443
0.118579
0.0841732
0.0630997
0.0531835
0.111334
0.174991
0.234567
0.28659
0.326925
0.362967
0.394905
0.423217
0.448548
0.471952
0.494358
0.516429
0.537551
0.558305
0.578365
0.598544
0.618145
0.637767
0.656631
0.674687
0.691418
0.708256
0.726287
0.744576
0.762297
0.778887
0.795623
0.811404
0.827674
0.842892
0.858701
0.873536
0.888949
0.903566
0.918651
0.93304
0.947814
0.961933
0.976373
0.990287
1.00434
1.01815
1.03176
1.04548
1.05866
1.07224
1.08506
1.09846
1.11103
1.12418
1.13651
1.14938
1.16144
1.17408
1.1859
1.19852
1.21026
1.2228
1.23437
1.24682
1.25814
1.27047
1.28148
1.29364
1.30435
1.3163
1.32682
1.33839
1.3488
1.35986
1.36994
1.38021
1.38917
1.39705
1.4019
1.29943
1.38503
1.45199
1.49143
1.48932
1.44031
1.36019
1.26672
1.17783
1.09329
1.02089
0.947519
0.876197
0.811365
0.751599
0.6963
0.645287
0.595744
0.546787
0.499037
0.453402
0.412299
0.379242
0.355493
0.343532
0.367685
0.416515
0.46937
0.517623
0.555137
0.582503
0.602853
0.619473
0.634428
0.648901
0.66325
0.677593
0.691802
0.705871
0.719964
0.734395
0.748932
0.763703
0.778378
0.792613
0.805857
0.819
0.833221
0.848362
0.863563
0.87778
0.892023
0.905644
0.919643
0.933037
0.946679
0.95981
0.973003
0.986126
0.999066
1.0124
1.02512
1.03845
1.05078
1.06381
1.07575
1.08853
1.10031
1.11303
1.12485
1.13756
1.14932
1.16185
1.17341
1.18573
1.19714
1.20928
1.22071
1.23275
1.24422
1.25596
1.2673
1.27877
1.29007
1.30143
1.31272
1.32405
1.33524
1.34646
1.3574
1.36839
1.3791
1.38981
1.40031
1.41071
1.42086
1.43068
1.43975
1.44748
1.45245
1.2737
1.35617
1.42814
1.48501
1.51563
1.51372
1.48187
1.42228
1.34973
1.28286
1.21625
1.15581
1.0964
1.03915
0.985288
0.935326
0.888858
0.841852
0.794715
0.747643
0.701415
0.658167
0.619854
0.582588
0.561882
0.577156
0.621579
0.672455
0.719694
0.756834
0.783196
0.795792
0.800197
0.802501
0.805788
0.811145
0.818546
0.82711
0.835857
0.845012
0.85432
0.864342
0.874649
0.885493
0.896024
0.905913
0.915576
0.92602
0.937853
0.950269
0.962298
0.973963
0.985539
0.997086
1.00892
1.02062
1.03271
1.04421
1.05618
1.06735
1.07938
1.09068
1.10303
1.1145
1.12684
1.13814
1.15018
1.16124
1.17311
1.18407
1.19598
1.20694
1.21889
1.2298
1.24161
1.25237
1.26404
1.27466
1.28617
1.29665
1.30814
1.31858
1.33005
1.34046
1.35178
1.36218
1.37328
1.38381
1.39465
1.40538
1.41596
1.42676
1.43706
1.44769
1.45772
1.46799
1.47754
1.48697
1.49468
1.50035
1.25359
1.33126
1.40105
1.46412
1.51225
1.5358
1.53491
1.51209
1.46394
1.40667
1.35534
1.30328
1.2522
1.20637
1.16143
1.12035
1.07963
1.03962
0.995815
0.950665
0.905477
0.860133
0.812011
0.756318
0.723524
0.73622
0.778831
0.83203
0.88176
0.921182
0.951134
0.966133