/*--------------------------------*- C++ -*----------------------------------*\
| =========                 |                                                 |
| \\      /  F ield         | OpenFOAM: The Open Source CFD Toolbox           |
|  \\    /   O peration     | Version:  2112                                  |
|   \\  /    A nd           | Website:  www.openfoam.com                      |
|    \\/     M anipulation  |                                                 |
\*---------------------------------------------------------------------------*/
FoamFile
{
    version     2.0;
    format      ascii;
    arch        "LSB;label=32;scalar=64";
    class       volScalarField;
    location    "4.0005";
    object      p;
}
// * * * * * * * * * * * * * * * * * * * * * * * * * * * * * * * * * * * * * //

dimensions      [1 -1 -2 0 0 0 0];

internalField   nonuniform List<scalar> 
7000
(
0.999998
1
1.00001
1.00001
1.00001
1.00001
1.00001
1.00001
1.00003
1.00003
1.00014
1.00037
1.00121
1.00245
1.00722
1.01287
1.04311
1.06127
1.33284
1.54137
3.15365
6.38958
12.1229
11.5142
10.7506
10.555
10.6094
10.7513
10.9065
11.0124
11.0926
11.171
11.2533
11.337
11.4197
11.5005
11.5796
11.6564
11.7309
11.8023
11.8704
11.9348
11.9949
12.0502
12.1003
12.1441
12.1815
12.2118
12.2341
12.2522
1
1.00001
1.00001
1.00001
1.00001
1.00001
1.00001
1.00001
1.00003
1.00003
1.00014
1.00036
1.00119
1.0024
1.00695
1.01223
1.04026
1.05175
1.33164
1.48465
3.08431
6.13153
12.0443
11.531
10.751
10.5486
10.6016
10.7421
10.8978
11.0038
11.0843
11.1631
11.2456
11.3294
11.4122
11.4933
11.5726
11.6497
11.7245
11.7962
11.8646
11.9294
11.99
12.0457
12.0964
12.1408
12.179
12.2101
12.233
12.2517
1
1.00001
1.00001
1.00001
1.00001
1.00001
1.00001
1.00001
1.00003
1.00003
1.00014
1.00037
1.0012
1.0024
1.00694
1.01194
1.04068
1.05112
1.32512
1.47354
3.03235
5.98142
12.1165
11.5424
10.7428
10.5431
10.5982
10.741
10.8955
11.0005
11.0809
11.1597
11.2421
11.3254
11.4077
11.4882
11.5669
11.6433
11.7174
11.7885
11.8564
11.9206
11.9808
12.0363
12.0868
12.1311
12.1692
12.2005
12.223
12.2408
1
1.00001
1.00001
1.00001
1.00001
1.00001
1.00001
1.00001
1.00002
1.00003
1.00015
1.00037
1.00119
1.00236
1.00692
1.01165
1.0418
1.05786
1.30075
1.4905
2.94577
5.78026
12.0578
11.5046
10.7157
10.5281
10.5855
10.7302
10.8814
10.9849
11.0656
11.145
11.2275
11.3107
11.3927
11.473
11.5514
11.6275
11.7012
11.772
11.8394
11.9034
11.9632
12.0184
12.0686
12.1128
12.1508
12.1818
12.2038
12.2207
1
1.00001
1.00001
1.00001
1.00001
1.00001
1.00001
1.00001
1.00002
1.00003
1.00015
1.00037
1.00116
1.0023
1.00662
1.01098
1.04009
1.05363
1.29524
1.46212
2.9258
5.62962
12.017
11.4491
10.6908
10.5221
10.5804
10.7239
10.8702
10.9717
11.0524
11.1318
11.2137
11.2961
11.3772
11.4564
11.5337
11.6087
11.6813
11.7509
11.8172
11.8802
11.9391
11.9935
12.043
12.0865
12.1238
12.1544
12.1759
12.1924
1
1
1.00001
1.00001
1.00001
1.00001
1.00001
1.00001
1.00001
1.00004
1.00015
1.00047
1.00109
1.00251
1.00579
1.00994
1.03288
1.03726
1.29909
1.41062
2.92748
5.50657
11.8879
11.3646
10.6566
10.5087
10.5672
10.7084
10.8501
10.9507
11.0319
11.1116
11.1933
11.2751
11.3554
11.4337
11.51
11.5839
11.6552
11.7235
11.7886
11.8502
11.9078
11.9611
12.0094
12.052
12.0884
12.118
12.1386
12.1544
1
1
1.00001
1.00001
1.00001
1.00001
1.00001
1.00001
1
1.00005
1.00015
1.00054
1.00115
1.00327
1.00625
1.01895
1.02698
1.02206
1.29495
1.38516
2.88823
5.3737
11.7351
11.2891
10.6337
10.4987
10.5546
10.69
10.8287
10.9287
11.0099
11.0891
11.17
11.2506
11.3297
11.4067
11.4815
11.5537
11.6234
11.69
11.7534
11.8134
11.8693
11.921
11.9678
12.009
12.0441
12.0727
12.0925
12.1076
1
1
1.00001
1.00001
1.00001
1.00001
1.00001
1.00001
1
1.00005
1.00015
1.00052
1.0011
1.00316
1.00586
1.01806
1.02725
1.02659
1.27933
1.35643
2.84299
5.23335
11.5531
11.1993
10.6193
10.4843
10.5351
10.6623
10.8014
10.9025
10.9837
11.0622
11.1421
11.2215
11.2991
11.3745
11.4475
11.5179
11.5856
11.6503
11.7116
11.7696
11.8236
11.8733
11.9182
11.9576
11.991
12.0181
12.0366
12.0507
1
1
1.00001
1.00001
1.00001
1.00001
1.00001
1.00001
1
1.00004
1.00014
1.00048
1.00102
1.00293
1.00541
1.01633
1.02501
1.02761
1.26037
1.3315
2.79209
5.068
11.3372
11.0919
10.6314
10.4703
10.5107
10.6259
10.7691
10.8728
10.9537
11.031
11.1095
11.1875
11.2634
11.3369
11.4077
11.476
11.5414
11.6038
11.6629
11.7184
11.77
11.8174
11.8601
11.8973
11.9289
11.9545
11.9719
11.9853
1
1
1
1.00001
1.00001
1.00001
1.00001
1.00001
1
1.00004
1.00013
1.00043
1.00092
1.00261
1.0048
1.01495
1.02182
1.02057
1.25096
1.30301
2.73417
4.88686
11.0811
10.978
10.6506
10.4551
10.4829
10.584
10.7325
10.839
10.9191
10.9949
11.0717
11.148
11.2218
11.293
11.3615
11.4273
11.4902
11.5499
11.6064
11.6592
11.7081
11.7528
11.7929
11.8279
11.8572
11.8808
11.8968
11.9091
1
1
1
1.00001
1.00001
1.00001
1.00001
1.00001
1.00001
1.00004
1.00011
1.00038
1.00081
1.0023
1.00405
1.01286
1.01855
1.01961
1.22931
1.2721
2.67329
4.685
10.7757
10.8912
10.6355
10.4312
10.4518
10.5424
10.6926
10.8004
10.8795
10.9536
11.0284
11.1025
11.1739
11.2425
11.3082
11.3711
11.431
11.4876
11.5412
11.591
11.6369
11.6786
11.7157
11.748
11.7751
11.797
11.8116
11.8232
1
1
1
1.00001
1.00001
1.00001
1.00001
1.00001
1.00001
1.00004
1.00011
1.00035
1.00074
1.00208
1.00387
1.01168
1.0154
1.0128
1.21383
1.23659
2.60299
4.46598
10.4037
10.8251
10.604
10.3999
10.4171
10.501
10.6493
10.7565
10.8342
10.9063
10.9788
11.0503
11.1188
11.1843
11.2468
11.3064
11.3629
11.4161
11.4661
11.5124
11.5548
11.5932
11.6272
11.6564
11.6806
11.7002
11.7133
11.7238
1
1
1
1
1.00001
1.00001
1
1.00001
1.00001
1.00004
1.00009
1.0003
1.00061
1.00174
1.00329
1.00973
1.01223
1.01588
1.1852
1.1999
2.52271
4.21771
9.95318
10.7624
10.5708
10.3647
10.3794
10.4578
10.6021
10.7071
10.783
10.8527
10.9224
10.9907
11.0558
11.1176
11.1764
11.232
11.2847
11.334
11.3798
11.4221
11.4603
11.4945
11.5246
11.5506
11.5721
11.5895
11.6008
11.6108
1
1
1
1
1
1
1
1.00001
1.00001
1.00003
1.00007
1.00023
1.00049
1.00132
1.00271
1.00691
1.0144
1.00907
1.17709
1.17762
2.42915
3.94685
9.40859
10.6942
10.5365
10.3271
10.3395
10.412
10.5501
10.6518
10.7255
10.7924
10.8587
10.9231
10.9842
11.0417
11.096
11.1471
11.1949
11.2393
11.2803
11.3176
11.3511
11.3805
11.406
11.4273
11.4447
11.4591
11.4685
11.4772
1
1
1
1
1
1
1
1
1.00001
1.00002
1.00009
1.00019
1.00056
1.00105
1.00302
1.00606
1.01569
1.01327
1.15736
1.15386
2.31811
3.63775
8.77197
10.6328
10.506
10.2894
10.2982
10.3632
10.4924
10.5909
10.6622
10.7255
10.7874
10.847
10.9032
10.9557
11.0048
11.0505
11.0925
11.131
11.1658
11.1966
11.2236
11.2467
11.2662
11.2824
11.2951
11.3054
11.3119
11.3199
1
1
1
1
1
1
1
1
1.00001
1.00002
1.00007
1.00015
1.00044
1.00081
1.00235
1.00477
1.0116
1.01706
1.12296
1.148
2.15174
3.31449
8.00629
10.6373
10.5157
10.2721
10.2609
10.313
10.4274
10.5254
10.5946
10.6531
10.7092
10.7629
10.813
10.8592
10.9017
10.9405
10.9755
11.0066
11.0336
11.0564
11.0751
11.0897
11.1004
11.1079
11.1129
11.1171
11.1193
11.1249
1
1
1
1
1
1
1
1
1.00001
1.00003
1.0001
1.00021
1.00061
1.00117
1.0035
1.00651
1.02028
1.03005
1.03137
1.3604
1.52699
3.36477
6.78318
10.7041
10.5896
10.3016
10.2269
10.2646
10.3587
10.4565
10.5238
10.5765
10.6254
10.6718
10.7145
10.7529
10.7872
10.8174
10.8431
10.8644
10.881
10.8929
10.9
10.9023
10.901
10.8964
10.889
10.882
10.8757
10.8781
1
1
1
1
1
1
1
1
1.00001
1.00002
1.00004
1.00012
1.00023
1.00064
1.00121
1.00337
1.00529
1.02894
1.03262
1.28103
1.41445
2.7964
5.32308
10.6919
10.6555
10.3939
10.203
10.2173
10.2807
10.3802
10.4477
10.4945
10.5352
10.5731
10.607
10.6362
10.6605
10.68
10.6943
10.7033
10.7061
10.7035
10.6948
10.6785
10.6569
10.6307
10.6018
10.5734
10.5484
10.5398
1
1
1
1
1
1
1
1
1.00001
1.00002
1.00004
1.00009
1.00024
1.00045
1.00141
1.00238
1.00766
1.01671
1.01813
1.22219
1.25063
2.62619
4.51515
10.2422
10.5963
10.378
10.1456
10.1466
10.1899
10.2837
10.3553
10.3993
10.433
10.4628
10.4879
10.5071
10.5203
10.5273
10.5271
10.5217
10.5076
10.4835
10.4512
10.4093
10.3582
10.2967
10.2263
10.1518
10.0791
10.0334
1
1
1
1
1
1
1
1
1
1.00001
1.00002
1.00005
1.00006
1.00048
1.0006
1.00322
1.00714
1.01536
1.01642
1.16985
1.16988
2.41059
3.87073
9.13555
10.4199
10.2961
10.0691
10.0509
10.0865
10.1682
10.2403
10.2827
10.3108
10.333
10.3497
10.3592
10.3605
10.3558
10.3415
10.3141
10.277
10.2279
10.1647
10.0852
9.98632
9.86537
9.71841
9.54491
9.34716
9.14018
1
1
1
1
1
1
1
1
1
1
1.00002
1.00004
1.00011
1.00011
1.00134
1.00149
1.01042
1.02647
1.03783
1.02897
1.44016
1.66161
3.72269
7.61772
10.3488
10.2912
10.0812
9.9646
9.97689
10.0234
10.0898
10.1296
10.151
10.1639
10.17
10.1683
10.1593
10.1369
10.0978
10.0468
9.98088
9.89661
9.78844
9.65049
9.47315
9.23968
8.92127
8.45714
7.72816
6.22709
1
1
1
1
1
1
1
1
1
1
1.00001
1.00001
1.00006
1.00005
1.00056
1.00069
1.00405
1.00538
1.03115
1.02977
1.28941
1.39152
2.76271
5.14859
10.3204
10.3966
10.1769
9.92026
9.87124
9.88685
9.92451
9.95395
9.96393
9.96311
9.95734
9.94085
9.90686
9.85773
9.79485
9.71515
9.61451
9.48697
9.32567
9.12003
8.85473
8.50586
8.03615
7.38937
6.51254
5.11335
1
1
1
1
1
1
1
1
1
1
1.00001
1.00001
1.00005
1.00009
1.00034
1.00043
1.00292
1.00594
1.01508
1.01114
1.20144
1.19739
2.52565
4.16942
9.59395
10.2802
10.0902
9.77871
9.67092
9.67918
9.70617
9.73446
9.73843
9.73279
9.71453
9.67546
9.61929
9.54976
9.46435
9.35712
9.224
9.05915
8.85499
8.60158
8.28519
7.8886
7.39075
6.76323
6.01776
5.05585
1
1
1
1
1
1
1
1
1
1
1.00001
1.00001
1.00004
1.00006
1.00032
1.00043
1.00267
1.00555
1.01356
1.01398
1.14598
1.13994
2.2265
3.30233
7.89337
9.91928
9.82162
9.57171
9.43864
9.44279
9.46544
9.49599
9.49735
9.48795
9.4593
9.40087
9.32742
9.24101
9.1363
9.00805
8.85185
8.66375
8.43652
8.16409
7.83795
7.44925
6.99036
6.45103
5.84457
5.1018
1
1
1
1
1
1
1
1
1
1
1
1.00001
1.00003
1.00006
1.00023
1.00027
1.00199
1.0037
1.01006
1.01555
1.09683
1.10934
1.91567
2.53128
6.09458
9.57012
9.64339
9.49265
9.29498
9.25214
9.26073
9.27875
9.2757
9.25833
9.21448
9.13882
9.05206
8.95264
8.83418
8.69234
8.52366
8.32502
8.09255
7.82218
7.51001
7.15215
6.74635
6.28892
5.7895
5.20144
1
1
1
1
1
1
1
1
1
1
1
1.00001
1.00001
1.00007
1.00014
1.00064
1.00085
1.00551
1.01358
1.01726
1.01681
1.18566
1.18236
2.43078
3.8756
8.68279
9.56974
9.45235
9.22128
9.11663
9.10149
9.09913
9.08704
9.05379
8.98651
8.902
8.80611
8.69686
8.5688
8.41914
8.2456
8.04617
7.81862
7.56102
7.27125
6.94827
6.59099
6.19841
5.7771
5.28892
1
1
1
1
1
1
1
1
1
1
1
1.00001
1.00001
1.00004
1.00005
1.0003
1.00039
1.00241
1.0049
1.01199
1.01239
1.11958
1.10806
2.05491
2.82676
6.6732
9.27392
9.31124
9.1796
8.98897
8.92493
8.9127
8.89078
8.84619
8.77532
8.68827
8.58745
8.47217
8.33875
8.18634
8.01297
7.81794
7.59997
7.35829
7.0919
6.80059
6.48397
6.14102
5.77639
5.35809
1
1
1
1
1
1
1
1
1
1
1
1
1.00001
1.00002
1.00003
1.00023
1.00024
1.00181
1.00401
1.00841
1.01264
1.07852
1.0778
1.62746
1.97424
4.4
8.43797
9.17366
9.09255
8.90282
8.78581
8.74652
8.71661
8.66631
8.59337
8.50282
8.39758
8.27769
8.14193
7.98932
7.8191
7.6307
7.42358
7.19733
6.95145
6.68645
6.40266
6.09837
5.77665
5.4105
1
1
1
1
1
1
1
1
1
1
1
1
1
1.00001
1.00002
1.00008
1.0001
1.00081
1.00122
1.00497
1.00612
1.03973
1.03455
1.39398
1.53788
3.30086
6.36112
8.76587
8.9698
8.87654
8.70591
8.61866
8.57028
8.51529
8.43891
8.3437
8.23367
8.11033
7.97334
7.82214
7.65619
7.47537
7.27934
7.06838
6.84239
6.60096
6.34295
6.06715
5.77792
5.4535
1
1
1
1
1
1
1
1
1
1
1
1
1
1
1.00003
1.00004
1.00025
1.00031
1.00159
1.00167
1.01136
1.01801
1.07029
1.08921
1.54245
1.87878
4.03401
7.63765
8.7952
8.79007
8.70355
8.55276
8.45631
8.38169
8.29802
8.19786
8.08321
7.95765
7.82126
7.67274
7.51199
7.33912
7.15418
6.95706
6.74771
6.52581
6.29155
6.04426
5.78286
5.49032
1
1
1
1
1
1
1
1
1
1
1
1
1
1
1.00001
1.00002
1.00007
1.00011
1.00053
1.0007
1.00394
1.00741
1.02746
1.02601
1.29383
1.35441
2.77326
5.00667
8.22453
8.74023
8.68818
8.54912
8.39535
8.28009
8.17843
8.07144
7.95281
7.82351
7.68484
7.53784
7.38183
7.21604
7.0411
6.8569
6.66301
6.45876
6.24383
6.01722
5.78022
5.5147
1
1
1
1
1
1
1
1
1
1
1
1
1
1
1
1.00002
1.00003
1.00014
1.00017
1.00117
1.0022
1.0058
1.0078
1.05171
1.05766
1.43611
1.62127
3.45403
6.50274
8.3915
8.59803
8.51755
8.34006
8.17146
8.04221
7.92647
7.80745
7.68084
7.54689
7.40596
7.25802
7.10293
6.93952
6.76743
6.58666
6.39732
6.19871
5.99016
5.77333
5.53026
1
1
1
1
1
1
1
1
1
1
1
1
1
1
1
1.00001
1.00003
1.00005
1.00023
1.00032
1.00182
1.00405
1.0085
1.00798
1.07831
1.07454
1.58373
1.85746
3.96891
7.31681
8.39333
8.38751
8.28516
8.0794
7.90509
7.77334
7.65616
7.53727
7.41209
7.28023
7.1418
6.99671
6.84459
6.68535
6.51884
6.3451
6.16398
5.97378
5.77489
5.55252
1
1
1
1
1
1
1
1
1
1
1
1
1
1
1
1
1.00001
1.00004
1.00006
1.00025
1.00029
1.0021
1.00398
1.00999
1.01151
1.08901
1.08843
1.82324
2.14545
4.98768
7.79706
8.21565
8.15478
7.99301
7.77784
7.62151
7.50382
7.39585
7.28385
7.16438
7.03751
6.90378
6.7633
6.61626
6.46292
6.30306
6.13647
5.96163
5.77858
5.5724
1
1
1
1
1
1
1
1
1
1
1
1
1
1
1
1
1
1.00002
1.00002
1.00014
1.00013
1.0011
1.00256
1.0038
1.01441
1.03622
1.03076
1.4088
1.47223
3.28672
6.0137
7.71194
7.92929
7.86262
7.69945
7.51535
7.38298
7.27918
7.17956
7.07386
6.95977
6.83787
6.70899
6.57367
6.43171
6.28308
6.12752
5.96358
5.78955
5.59777
1
1
1
1
1
1
1
1
1
1
1
1
1
1
1
1
1.00001
1.00001
1.00002
1.00003
1.00022
1.00032
1.00131
1.00181
1.00844
1.01641
1.05412
1.0576
1.49237
1.63836
3.54521
6.37474
7.50417
7.64079
7.58844
7.4597
7.32001
7.20271
7.09985
7.00063
6.89798
6.78841
6.67136
6.54677
6.41451
6.27592
6.12911
5.97178
5.80988
5.62988
1
1
1
1
1
1
1
1
1
1
1
1
1
1
1
1
1.00001
1.00002
1.00002
1.00003
1.0002
1.00045
1.00064
1.00089
1.00536
1.01359
1.01463
1.01509
1.18231
1.16986
2.26414
3.1926
6.47543
7.40321
7.50948
7.46184
7.34995
7.21714
7.10345
6.99664
6.8892
6.77919
6.6635
6.54193
6.41417
6.27871
6.13632
5.98763
5.83351
5.66249
1
1
1
1
1
1
1
1
1
1
1
1
1
1
1
1
1
1
1.00001
1.00002
1.00004
1.00014
1.0002
1.00079
1.0011
1.00438
1.0057
1.02702
1.04198
1.18267
1.21777
2.21553
3.44297
6.3805
7.30689
7.42065
7.37622
7.26911
7.12743
7.00257
6.88828
6.77656
6.66209
6.54285
6.41862
6.28912
6.15485
6.01533
5.86886
5.70411
1
1
1
1
1
1
1
1
1
1
1
1
1
1
1
1
1
1
1
1.00001
1.00002
1.00006
1.00009
1.00033
1.00041
1.0022
1.00259
1.01263
1.02578
1.07823
1.07588
1.64435
1.72596
3.80353
6.43021
7.21801
7.296
7.24962
7.13759
7.00367
6.88306
6.76981
6.658
6.54227
6.42348
6.29989
6.171
6.03575
5.89423
5.73556
1
1
1
1
1
1
1
1
1
1
1
1
1
1
1
1
1
1
1
1
1.00001
1.00001
1.00006
1.00011
1.00026
1.00035
1.00195
1.00221
1.01254
1.02445
1.07456
1.06811
1.67656
1.73756
3.99823
6.40666
7.07274
7.14885
7.11203
7.00953
6.88497
6.76587
6.6511
6.53894
6.42405
6.30447
6.18063
6.05089
5.91503
5.76217
1
1
1
1
1
1
1
1
1
1
1
1
1
1
1
1
1
1
1
1
1.00001
1.00001
1.00003
1.00004
1.0003
1.00069
1.00092
1.00122
1.00714
1.01695
1.02285
1.01893
1.2385
1.22441
2.3367
3.7383
6.11612
6.896
7.03708
7.00961
6.92991
6.79584
6.66883
6.55075
6.43358
6.31543
6.19347
6.06607
5.93319
5.78447
1
1
1
1
1
1
1
1
1
1
1
1
1
1
1
1
1
1
1
1
1
1
1.00001
1.00003
1.00004
1.00017
1.00024
1.0009
1.00135
1.00497
1.00761
1.02975
1.03533
1.20544
1.18261
2.20468
3.35408
5.83526
6.74554
6.92921
6.90651
6.83541
6.70751
6.57867
6.45397
6.33166
6.20845
6.08236
5.95276
5.80842
1
1
1
1
1
1
1
1
1
1
1
1
1
1
1
1
1
1
1
1
1
1
1
1.00001
1.00001
1.00004
1.00008
1.00021
1.00029
1.0017
1.00246
1.00869
1.00775
1.06427
1.045
1.60432
1.63002
3.40013
5.58624
6.50538
6.74688
6.74016
6.68385
6.56826
6.44376
6.3216
6.19937
6.07569
5.94931
5.80934
1
1
1
1
1
1
1
1
1
1
1
1
1
1
1
1
1
1
1
1
1
1
1
1.00001
1.00001
1.00003
1.00004
1.00016
1.00023
1.00086
1.00118
1.00467
1.00525
1.02786
1.03339
1.17403
1.16658
2.08571
2.49607
5.18657
6.2357
6.52902
6.56087
6.52383
6.43
6.2997
6.17524
6.05647
5.93804
5.80724
1
1
1
1
1
1
1
1
1
1
1
1
1
1
1
1
1
1
1
1
1
1
1
1
1
1.00001
1.00001
1.00001
1.00009
1.00008
1.00064
1.00101
1.0035
1.00358
1.02522
1.04023
1.14033
1.13912
1.9386
2.10575
4.45531
5.83483
6.29102
6.39244
6.37128
6.30254
6.18061
6.06372
5.94551
5.81547
1
1
1
1
1
1
1
1
1
1
1
1
1
1
1
1
1
1
1
1
1
1
1
1
1
1
1.00001
1.00003
1.00004
1.00004
1.00032
1.00071
1.00093
1.00107
1.00858
1.01925
1.02884
1.04874
1.29233
1.33904
2.28066
3.60763
5.30099
6.01063
6.22574
6.22903
6.19244
6.10473
5.98366
5.85129
1
1
1
1
1
1
1
1
1
1
1
1
1
1
1
1
1
1
1
1
1
1
1
1
1
1
1
1.00001
1.00001
1.00001
1.00011
1.00024
1.0003
1.00032
1.00256
1.00582
1.00726
1.02533
1.06288
1.03974
1.5748
1.63644
3.01919
4.6757
5.6302
5.99138
6.09052
6.07014
6.02259
5.91488
1
1
1
1
1
1
1
1
1
1
1
1
1
1
1
1
1
1
1
1
1
1
1
1
1
1
1
1
1
1.00002
1.00005
1.00006
1.00007
1.00052
1.00111
1.00163
1.00173
1.01076
1.02577
1.03518
1.03796
1.37761
1.4024
2.39979
3.63632
5.0507
5.69104
5.91247
5.93547
5.90707
1
1
1
1
1
1
1
1
1
1
1
1
1
1
1
1
1
1
1
1
1
1
1
1
1
1
1
1
1
1
1
1.00001
1.00001
1.00006
1.0001
1.00025
1.00024
1.0017
1.00396
1.00238
1.00438
1.07362
1.041
1.56477
1.60558
2.83856
4.27917
5.20947
5.63428
5.77712
1
1
1
1
1
1
1
1
1
1
1
1
1
1
1
1
1
1
1
1
1
1
1
1
1
1
1
1
1
1
1
1
1
1.00002
1.00002
1.00008
1.00011
1.00032
1.00012
1.00116
1.00021
0.996162
1.0531
1.12749
1.10061
1.62114
1.89918
2.95147
4.51865
5.19748
1
1
1
1
1
1
1
1
1
1
1
1
1
1
1
1
1
1
1
1
1
1
1
1
1
1
1
1
1
1
1
1
1
1.00001
1.00001
1.00003
1.00004
1.00016
1.0002
1.0008
1.00072
1.00383
1.0054
1.00208
1.06997
1.15557
1.12847
1.6559
2.03732
3.05712
1
1
1
1
1
1
1
1
1
1
1
1
1
1
1
1
1
1
1
1
1
1
1
1
1
1
1
1
1
1
1
1
1
1
1
0.999998
0.999998
0.999984
0.999976
0.999884
0.999885
0.999573
0.998878
1.01006
1.02358
1.01948
1.05621
1.09193
1.00001
1.8473
1
1
1
1
1
1
1
1
1
1
1
1
1
1
1
1
1
1
1
1
1
1
1
1
1
1
1
1
1
1
1
1
1
1
1
1
1
0.999996
0.999993
0.999971
0.999975
0.99991
0.999756
1.00223
1.00516
1.00409
1.01896
1.01499
0.997627
1.54786
1
1
1
1
1
1
1
1
1
1
1
1
1
1
1
1
1
1
1
1
1
1
1
1
1
1
1
1
1
1
1
1
1
1
1
1
0.999999
0.999997
0.999996
0.999986
0.999975
0.999936
0.999936
0.999853
1.00031
0.997439
1.00695
0.998911
0.978491
1.56004
1
1
1
1
1
1
1
1
1
1
1
1
1
1
1
1
1
1
1
1
1
1
1
1
1
1
1
1
1
1
1
1
1
1
1
1
0.999999
0.999999
1
0.999998
1.00001
1.00003
0.999689
0.999347
0.99931
0.995996
0.998768
1.00614
0.962325
1.56715
1
1
1
1
1
1
1
1
1
1
1
1
1
1
1
1
1
1
1
1
1
1
1
1
1
1
1
1
1
1
1
1
1
1
1
1
0.999999
0.999998
0.999998
0.999988
0.999984
0.999946
0.99987
0.9996
0.999598
0.996465
0.99923
1.00645
0.964591
1.54951
1
1
1
1
1
1
1
1
1
1
1
1
1
1
1
1
1
1
1
1
1
1
1
1
1
1
1
1
1
1
1
1
1
1
1
1
1
1.00001
1.00001
1.00004
1.00005
1.00023
1.00024
1.00131
1.00158
1.00726
1.00755
1.03632
1.07296
1.03742
1
1
1
1
1
1
1
1
1
1
1
1
1
1
1
1
1
1
1
1
1
1
1
1
1
1
1
1
1
1
1
1
1
1
1
1
1
1.00001
1.00001
1.00004
1.00005
1.00022
1.00024
1.00124
1.00147
1.00675
1.00705
1.0342
1.06772
1.04027
1
1
1
1
1
1
1
1
1
1
1
1
1
1
1
1
1
1
1
1
1
1
1
1
1
1
1
1
1
1
1
1
1
1
1
1
1
1
1
1
1
1
1.00003
0.999955
1.00072
0.996366
1.00079
1.00735
0.969965
1.50192
1
1
1
1
1
1
1
1
1
1
1
1
1
1
1
1
1
1
1
1
1
1
1
1
1
1
1
1
1
1
1
1
1
1
1
1
1
1.00001
1.00001
1.00004
1.00005
1.00022
1.00025
1.00118
1.00172
1.00654
1.00691
1.0276
1.06423
1.06671
2.00392
1.00526
1.02095
1.34982
2.57245
2.61191
2.53439
2.54689
2.55899
2.59611
2.6427
2.68438
2.70746
2.71712
2.71971
2.71707
2.70155
2.67585
2.64468
2.61405
2.59914
2.5934
2.59229
2.61004
2.66324
2.75967
2.89855
3.06909
3.25867
3.45437
3.6401
3.80853
3.95751
4.08855
4.2024
4.2999
4.38051
4.44608
4.50349
4.55064
4.58232
4.60408
4.61604
4.62075
4.6192
4.61299
4.59865
4.57721
4.55143
4.52319
4.49118
4.45647
4.41897
4.37927
4.33737
4.29384
4.24844
4.20186
4.15378
4.10497
4.05511
4.00488
3.95396
3.90289
3.85137
3.79979
3.74796
3.69617
3.64433
3.59264
3.5411
3.48986
3.43895
3.38848
3.3385
3.2891
3.24036
3.19233
3.14508
3.09863
3.05305
3.00827
2.96436
2.9212
2.87885
2.83718
2.79625
2.7559
2.71637
2.67744
2.63918
2.60148
2.56455
2.5283
2.49304
2.45884
2.42637
2.39637
2.37062
2.35345
2.65744
1.59715
1.58972
1.79678
2.49951
2.60639
2.5726
2.56867
2.59081
2.60621
2.64609
2.68852
2.71695
2.72868
2.73081
2.71927
2.69546
2.66619
2.63775
2.61196
2.59807
2.59297
2.59234
2.60888
2.65629
2.74825
2.88528
3.05516
3.24137
3.43417
3.61696
3.78336
3.93098
4.06402
4.18216
4.28136
4.36225
4.43046
4.48827
4.53594
4.56914
4.59238
4.6052
4.61088
4.60989
4.60526
4.59313
4.5703
4.54422
4.51646
4.48505
4.45083
4.4135
4.37402
4.33231
4.28893
4.24386
4.19746
4.14981
4.10118
4.05168
4.00156
3.9509
3.89988
3.84854
3.79702
3.74535
3.69364
3.64194
3.59036
3.53895
3.48783
3.43702
3.38668
3.3368
3.28753
3.23887
3.19096
3.14376
3.09739
3.05183
3.0071
2.96318
2.92004
2.87768
2.83611
2.79528
2.75511
2.71553
2.67653
2.63826
2.60058
2.56368
2.52745
2.49219
2.45793
2.42532
2.39505
2.36872
2.35094
3.53588
2.61965
2.12544
2.11967
2.26515
2.55342
2.57635
2.58468
2.59719
2.61641
2.65811
2.69584
2.71912
2.72993
2.72915
2.71912
2.69998
2.6697
2.6413
2.61824
2.59746
2.58532
2.58195
2.59276
2.63452
2.7193
2.84963
3.01442
3.19548
3.3976
3.58802
3.75912
3.91054
4.04509
4.16189
4.2616
4.3438
4.41331
4.47098
4.51845
4.55313
4.57749
4.59149
4.59761
4.59698
4.59352
4.58376
4.56308
4.53548
4.50695
4.47606
4.44228
4.40549
4.36619
4.3248
4.28159
4.2369
4.1908
4.14357
4.0953
4.0462
3.99638
3.946
3.8952
3.84404
3.7927
3.74118
3.68966
3.63812
3.58674
3.5355
3.48458
3.43395
3.3838
3.33411
3.28502
3.23655
3.18879
3.14177
3.09554
3.05016
3.00546
2.96169
2.91863
2.87644
2.83479
2.79396
2.7537
2.7142
2.67522
2.63704
2.59937
2.56255
2.52631
2.49107
2.45675
2.42401
2.39343
2.36659
2.34773
3.99171
3.18691
2.6087
2.28483
2.30138
2.38948
2.55403
2.61339
2.64407
2.66883
2.69141
2.7135
2.73014
2.73738
2.73564
2.72638
2.70285
2.66742
2.63761
2.61492
2.59717
2.58535
2.58309
2.59593
2.6326
2.70347
2.83081
2.99054
3.16704
3.36111
3.54782
3.71858
3.87056
4.00538
4.12322
4.22471
4.30986
4.38171
4.44122
4.48975
4.52638
4.55241
4.5682
4.57556
4.57531
4.57309
4.56607
4.54999
4.52179
4.49202
4.46117
4.42796
4.392
4.35333
4.31252
4.26982
4.22566
4.18013
4.13348
4.08578
4.0372
3.98785
3.93788
3.88743
3.83661
3.78554
3.73434
3.68305
3.63183
3.58065
3.52973
3.479
3.42869
3.37873
3.32936
3.28048
3.2323
3.18475
3.13792
3.09185
3.04673
3.00227
2.95865
2.91563
2.87348
2.83187
2.79111
2.75088
2.71149
2.67256
2.63447
2.59687
2.56012
2.52397
2.48876
2.45445
2.42157
2.39072
2.36317
2.34335
4.29518
3.58793
3.01601
2.59583
2.40369
2.41717
2.47779
2.59784
2.66687
2.71948
2.74247
2.75129
2.75468
2.75432
2.75052
2.73857
2.71109
2.67737
2.64939
2.62796
2.61304
2.60626
2.60871
2.62264
2.66226
2.74189
2.84866
2.98476
3.14204
3.30336
3.4795
3.65064
3.80945
3.9518
4.07547
4.18057
4.26879
4.34301
4.40472
4.45493
4.49373
4.52175
4.53961
4.54859
4.54885
4.54754
4.54268
4.53067
4.5059
4.47489
4.44329
4.41031
4.37508
4.33728
4.29726
4.25531
4.21182
4.16696
4.12096
4.07388
4.02591
3.97708
3.92766
3.87761
3.82726
3.77654
3.72577
3.67481
3.624
3.57315
3.52262
3.47221
3.42229
3.37266
3.32367
3.27516
3.22725
3.18009
3.13386
3.0881
3.04312
2.9988
2.95528
2.91241
2.8703
2.82883
2.78811
2.748
2.70862
2.66985
2.6318
2.59438
2.55769
2.52171
2.48655
2.45235
2.41939
2.38839
2.36035
2.3396
4.52185
3.90421
3.3677
2.92412
2.61889
2.4909
2.50104
2.54716
2.6455
2.72031
2.77518
2.7938
2.79257
2.78803
2.77752
2.75622
2.72656
2.69745
2.67286
2.65637
2.64991
2.65204
2.66326
2.69586
2.76846
2.85923
2.93959
3.03069
3.13959
3.26229
3.38189
3.53211
3.69758
3.85985
4.00245
4.12057
4.21663
4.29491
4.35888
4.41089
4.45196
4.48237
4.50279
4.51394
4.51606
4.51518
4.51173
4.50285
4.48382
4.45344
4.42135
4.38829
4.35357
4.31671
4.27773
4.2368
4.19425
4.15023
4.10503
4.05865
4.01141
3.96321
3.91443
3.86495
3.81517
3.76494
3.71467
3.66414
3.61377
3.56332
3.51321
3.46319
3.41369
3.36447
3.31581
3.26773
3.22062
3.17376
3.12779
3.08228
3.03759
2.99342
2.95008
2.9073
2.86533
2.82396
2.78334
2.74337
2.70409
2.66552
2.62758
2.5904
2.55384
2.51812
2.4831
2.44911
2.4162
2.38523
2.35691
2.33561
4.69343
4.15097
3.65627
3.21918
2.86953
2.63752
2.55053
2.55981
2.59891
2.68865
2.76919
2.81469
2.8249
2.82174
2.81158
2.78942
2.75506
2.72471
2.7037
2.69943
2.70223
2.7145
2.74899
2.82696
2.96772
3.06328
3.1095
3.14914
3.19424
3.2517
3.32039
3.3948
3.51924
3.69672
3.86992
4.02122
4.14156
4.2337
4.30399
4.35903
4.40199
4.43458
4.45763
4.47155
4.47668
4.47623
4.47406
4.46807
4.45471
4.42797
4.39653
4.36338
4.32894
4.29287
4.25499
4.21521
4.17379
4.13076
4.0865
4.04096
3.99452
3.94706
3.89902
3.85022
3.80112
3.7515
3.70184
3.65186
3.60202
3.55208
3.50247
3.45295
3.40392
3.35525
3.30748
3.25993
3.21314
3.16681
3.12116
3.07602
3.03157
2.98769
2.94449
2.90196
2.86007
2.81895
2.7784
2.73869
2.69952
2.66121
2.62343
2.58654
2.55019
2.51479
2.48001
2.44635
2.41364
2.38289
2.35457
2.3331
4.82669
4.34429
3.89283
3.47165
3.11043
2.82872
2.64688
2.58976
2.60092
2.63931
2.72654
2.80287
2.83774
2.84424
2.84011
2.82709
2.79887
2.76398
2.75014
2.75288
2.76504
2.79944
2.87997
3.0506
3.26182
3.3479
3.35173
3.34499
3.32421
3.29577
3.30362
3.33216
3.39202
3.49777
3.6608
3.84478
4.00809
4.13546
4.2284
4.29561
4.34388
4.37955
4.40496
4.42146
4.42991
4.43011
4.42912
4.42554
4.41666
4.39783
4.36794
4.33517
4.30108
4.26567
4.2288
4.1902
4.15
4.1081
4.06491
4.02032
3.97479
3.92818
3.88097
3.83295
3.78461
3.73569
3.68668
3.63732
3.58806
3.53869
3.48963
3.44073
3.39248
3.34452
3.29722
3.25029
3.20395
3.15806
3.11274
3.06796
3.02373
2.98016
2.93713
2.89488
2.85316
2.81228
2.77193
2.73247
2.69354
2.65553
2.61804
2.5815
2.54551
2.51049
2.47615
2.44293
2.41071
2.38042
2.35243
2.33139
4.93247
4.49851
4.08719
3.68917
3.32846
3.02753
2.7953
2.64902
2.61536
2.62704
2.6649
2.74996
2.82302
2.85131
2.85802
2.85443
2.84278
2.81755
2.81336
2.81999
2.84606
2.91532
3.07065
3.39021
3.63988
3.67591
3.65952
3.60738
3.49452
3.37581
3.31984
3.32453
3.34772
3.39788
3.48676
3.62045
3.79915
3.96539
4.10068
4.20023
4.26865
4.31485
4.34509
4.36467
4.37588
4.3789
4.3784
4.37635
4.37086
4.35874
4.33433
4.3036
4.27043
4.23573
4.19975
4.1622
4.12319
4.08251
4.0405
3.99702
3.95255
3.90693
3.86064
3.81351
3.76599
3.71787
3.66957
3.6209
3.5723
3.52355
3.47528
3.42729
3.37983
3.33266
3.28594
3.23962
3.19374
3.14835
3.10341
3.05905
3.01515
2.97193
2.9292
2.88725
2.8458
2.80522
2.76515
2.72602
2.6874
2.64976
2.61266
2.57656
2.54106
2.5066
2.47288
2.44035
2.4089
2.37945
2.35218
2.33198
5.01572
4.62012
4.24441
3.87284
3.52378
3.21277
2.95788
2.76541
2.65009
2.63382
2.64569
2.6836
2.76737
2.836
2.86212
2.87783
2.87721
2.8755
2.87986
2.89941
2.95558
3.08932
3.37505
3.87256
4.05772
4.04718
3.99896
3.88281
3.67674
3.50779
3.39866
3.34963
3.35207
3.36903
3.40961
3.47687
3.58092
3.73387
3.89814
4.04144
4.14979
4.22398
4.27122
4.29938
4.31564
4.32239
4.32231
4.32133
4.31819
4.3106
4.2946
4.26742
4.23649
4.20299
4.16798
4.1314
4.09349
4.05398
4.0132
3.97093
3.92763
3.88311
3.83786
3.79172
3.74509
3.69782
3.65027
3.60235
3.55452
3.50686
3.45949
3.41238
3.36564
3.31919
3.27308
3.22734
3.18198
3.13707
3.09257
3.04862
3.0051
2.96226
2.91986
2.87827
2.83715
2.79695
2.75725
2.71853
2.68036
2.64319
2.60666
2.57113
2.53637
2.50264
2.46988
2.43834
2.40813
2.37995
2.35342
2.33442
5.08278
4.71847
4.3727
4.02639
3.69328
3.3868
3.11951
2.90314
2.7314
2.65088
2.6492
2.66123
2.69851
2.7807
2.84847
2.88094
2.90557
2.91869
2.94534
3.00265
3.12662
3.38865
3.92527
4.38616
4.45449
4.42418
4.32862
4.12269
3.8738
3.67598
3.53332
3.44068
3.38998
3.38712
3.39507
3.4198
3.46934
3.54732
3.67083
3.82269
3.96701
4.08238
4.16372
4.21537
4.24523
4.25939
4.26315
4.26265
4.26075
4.25597
4.24572
4.22511
4.19778
4.16656
4.1331
4.09767
4.06086
4.0225
3.98293
3.94192
3.89986
3.85657
3.81246
3.7674
3.72174
3.67539
3.62863
3.58176
3.53501
3.48838
3.44199
3.39577
3.3498
3.30408
3.25865
3.21355
3.16878
3.12444
3.08045
3.03701
2.99395
2.95157
2.90962
2.86848
2.82783
2.78808
2.74892
2.71071
2.67319
2.63663
2.60091
2.56617
2.53245
2.4998
2.46842
2.43842
2.40948
2.38252
2.35719
2.34069
5.1344
4.80019
4.48099
4.15855
3.84233
3.54505
3.27542
3.04367
2.8558
2.70575
2.65738
2.65947
2.67371
2.71339
2.79913
2.87017
2.9258
2.97049
3.03
3.15091
3.40029
3.91373
4.62209
4.85248
4.83545
4.76433
4.59704
4.31548
4.06355
3.85972
3.70057
3.57924
3.49188
3.43625
3.41175
3.41451
3.4281
3.45846
3.51625
3.60784
3.74292
3.88061
4.00022
4.08987
4.14863
4.18189
4.19699
4.19939
4.19858
4.19585
4.18942
4.17595
4.15343
4.12536
4.09436
4.06067
4.02526
3.98818
3.94988
3.91016
3.86939
3.8274
3.78452
3.74062
3.69601
3.65064
3.60511
3.55939
3.51376
3.46819
3.42275
3.37744
3.33229
3.28737
3.24267
3.19827
3.15414
3.11042
3.06702
3.02412
2.98163
2.93976
2.89839
2.85775
2.81773
2.77854
2.7401
2.70254
2.66589
2.63018
2.59556
2.56198
2.52972
2.49875
2.46921
2.4405
2.41327
2.38866
2.36537
2.35332
5.18573
4.87155
4.57539
4.27419
3.97543
3.68895
3.42297
3.18471
2.98124
2.81637
2.69496
2.6636
2.66838
2.68719
2.73386
2.83139
2.92932
3.02769
3.14562
3.37822
3.84686
4.74228
5.20915
5.2122
5.16944
5.04397
4.7834
4.49758
4.25496
4.05332
3.88474
3.74415
3.62818
3.53734
3.47288
3.43149
3.4246
3.42942
3.4459
3.48296
3.55071
3.66026
3.78795
3.90833
4.00469
4.07114
4.11026
4.12816
4.13158
4.1306
4.12727
4.11948
4.10353
4.07948
4.05127
4.01987
3.98634
3.95088
3.91401
3.87567
3.83625
3.79559
3.75399
3.71129
3.66782
3.62378
3.57956
3.53512
3.49066
3.44614
3.40169
3.35732
3.31306
3.26899
3.22509
3.18147
3.13807
3.09504
3.05232
3.01007
2.96824
2.92701
2.88634
2.84639
2.80715
2.76874
2.73122
2.69463
2.65914
2.62469
2.59162
2.55978
2.52968
2.50038
2.47243
2.44604
2.42152
2.40079
2.38143
2.37614
5.23074
4.93631
4.65967
4.37751
4.0952
3.82005
3.56029
3.32128
3.10832
2.92945
2.78035
2.6876
2.67794
2.68843
2.7205
2.79139
2.93327
3.09504
3.32047
3.76808
4.67152
5.45905
5.58443
5.5499
5.44393
5.21833
4.93279
4.67382
4.44795
4.25001
4.07449
3.91976
3.78428
3.66871
3.57306
3.49914
3.44859
3.42361
3.42455
3.43081
3.45185
3.49803
3.58024
3.69259
3.80855
3.9091
3.98364
4.03039
4.05418
4.05941
4.05849
4.05497
4.04661
4.02932
4.0043
3.9753
3.94388
3.91034
3.87519
3.83846
3.80055
3.76133
3.72106
3.67964
3.6376
3.59503
3.55221
3.50907
3.46582
3.42242
3.37903
3.33564
3.29234
3.24917
3.20615
3.16335
3.12078
3.07853
3.0366
2.99511
2.95408
2.91364
2.87383
2.83475
2.79651
2.75916
2.72287
2.68764
2.65378
2.62118
2.59039
2.56086
2.53233
2.5053
2.48014
2.45739
2.43772
2.42212
2.4111
2.41174
5.27764
4.99922
4.73798
4.47194
4.20375
3.94036
3.6869
3.45053
3.2338
3.04361
2.88518
2.75236
2.70571
2.7118
2.73875
2.80701
2.95182
3.20213
3.61441
4.44864
5.52787