/*--------------------------------*- C++ -*----------------------------------*\
| =========                 |                                                 |
| \\      /  F ield         | OpenFOAM: The Open Source CFD Toolbox           |
|  \\    /   O peration     | Version:  2112                                  |
|   \\  /    A nd           | Website:  www.openfoam.com                      |
|    \\/     M anipulation  |                                                 |
\*---------------------------------------------------------------------------*/
FoamFile
{
    version     2.0;
    format      ascii;
    arch        "LSB;label=32;scalar=64";
    class       surfaceScalarField;
    location    "4.0005";
    object      phi;
}
// * * * * * * * * * * * * * * * * * * * * * * * * * * * * * * * * * * * * * //

dimensions      [1 0 -1 0 0 0 0];

oriented        oriented;

internalField   nonuniform List<scalar> 
13790
(
0.00290515
5.66201e-09
0.00290514
2.88803e-09
0.00290514
1.03973e-09
0.00290514
5.05154e-11
0.00290514
5.20321e-10
0.00290514
8.2142e-10
0.00290514
1.08698e-09
0.00290514
1.09717e-09
0.00290514
2.12135e-09
0.00290514
3.41538e-10
0.00290514
-3.42986e-09
0.00290515
-8.61999e-09
0.00290514
-1.466e-08
0.00290518
-3.35105e-08
0.00290496
-2.15434e-08
0.00290483
-5.33104e-08
0.00290258
2.58446e-07
0.00290166
6.45241e-07
0.00290812
-3.68088e-06
0.00288039
1.19722e-05
0.00289185
-5.51204e-06
0.00276698
0.000112534
0.00276262
5.85402e-07
0.00275471
5.32749e-06
0.0027117
4.11261e-05
0.00264977
6.13868e-05
0.00258373
6.58431e-05
0.00251716
6.75232e-05
0.00244952
6.84701e-05
0.00237832
7.20205e-05
0.00230251
7.6031e-05
0.00222289
7.95467e-05
0.00213979
8.3055e-05
0.0020528
8.68952e-05
0.00196144
9.12394e-05
0.00186575
9.59732e-05
0.00176461
0.000101118
0.00165806
0.000106352
0.0015462
0.000111896
0.00142848
0.000117368
0.00130548
0.000122803
0.0011774
0.000127955
0.00104419
0.000132827
0.000906963
0.000137207
0.000765806
0.000141305
0.000621622
0.000144198
0.000475671
0.000146187
0.000328907
0.000147047
0.000176409
0.000152729
0.000176626
0.00301309
6.49346e-09
0.00301309
4.75485e-09
0.00301309
3.37185e-09
0.00301309
2.41142e-09
0.00301308
2.27852e-09
0.00301308
2.30444e-09
0.00301308
2.31247e-09
0.00301308
2.09648e-09
0.00301308
3.86979e-09
0.00301308
1.05523e-09
0.00301308
-4.50272e-09
0.00301308
-1.38088e-08
0.00301312
-3.50731e-08
0.00301316
-6.71566e-08
0.00301345
-1.46965e-07
0.0030138
-1.62706e-07
0.00301649
-1.08234e-06
0.00302053
-3.2483e-06
0.00301434
5.33998e-07
0.00303741
-6.59768e-06
0.0030274
5.43058e-06
0.00303766
9.66238e-05
0.00304796
-9.77457e-06
0.00300393
4.82018e-05
0.00293206
0.000111378
0.00286035
0.000132543
0.00278622
0.000139568
0.00271352
0.000140665
0.00263586
0.000146431
0.00255289
0.000155265
0.00246509
0.000163636
0.00237351
0.000170744
0.00227875
0.00017762
0.00218059
0.000184971
0.00207875
0.000193018
0.00197328
0.000201688
0.00186345
0.000211002
0.001749
0.00022068
0.00163012
0.000230828
0.00150585
0.000241216
0.00137705
0.000251464
0.00124326
0.000261786
0.00110439
0.000271452
0.00096086
0.000280725
0.000812857
0.000289308
0.00066046
0.000296521
0.000503608
0.000303294
0.000341719
0.000309161
0.000174341
0.000320183
0.00035112
0.00312505
6.84249e-09
0.00312504
6.03406e-09
0.00312504
5.34397e-09
0.00312504
4.6332e-09
0.00312504
4.21121e-09
0.00312504
3.8824e-09
0.00312503
3.52789e-09
0.00312503
2.65757e-09
0.00312503
6.10245e-09
0.00312503
3.58343e-09
0.00312503
-2.66706e-09
0.00312503
-1.32858e-08
0.00312506
-2.75035e-08
0.00312505
-5.38063e-08
0.00312532
-9.83812e-08
0.00312564
-6.50318e-08
0.00312822
-8.99007e-07
0.00313127
-5.11182e-06
0.00311908
7.37694e-06
0.0031574
-1.76321e-05
0.00314946
6.76228e-07
0.00316043
9.20958e-05
0.00316937
-1.9126e-05
0.00311017
0.000106999
0.00303782
0.000182969
0.00296672
0.000203585
0.00289496
0.000211288
0.00282268
0.000213604
0.00274523
0.000224358
0.00266212
0.000238683
0.00257344
0.000251842
0.00248012
0.000263171
0.00238256
0.000274312
0.00228107
0.000285886
0.00217531
0.000298439
0.00206566
0.000311521
0.00195105
0.000325665
0.00183171
0.000339934
0.00170722
0.000355257
0.00157751
0.00037038
0.0014426
0.000386081
0.00130316
0.000401184
0.00115764
0.000416611
0.00100776
0.000430376
0.000852554
0.000444371
0.000692417
0.000456442
0.000527558
0.000468346
0.000355736
0.000481181
0.000178994
0.000496945
0.000530211
0.00324116
6.72531e-09
0.00324116
6.33516e-09
0.00324116
6.40292e-09
0.00324115
6.11129e-09
0.00324115
5.8708e-09
0.00324115
5.61228e-09
0.00324115
5.38443e-09
0.00324115
4.6437e-09
0.00324114
1.11197e-08
0.00324114
7.10612e-09
0.00324114
-3.02233e-10
0.00324116
-3.2146e-08
0.00324119
-4.27495e-08
0.00324132
-1.58203e-07
0.00324145
-1.13945e-07
0.00324199
-3.59956e-07
0.00324095
4.42935e-07
0.00323418
2.23884e-06
0.00323924
3.38602e-06
0.00320627
9.62877e-06
0.00323833
-2.61622e-05
0.00331509
1.69108e-05
0.00330829
-7.77922e-06
0.00322313
0.000192222
0.00313485
0.000270614
0.00305485
0.000283382
0.00297682
0.000288957
0.0028958
0.000294684
0.00280966
0.000310371
0.0027192
0.000328917
0.00262475
0.00034545
0.00252685
0.000360022
0.00242567
0.000374524
0.00232127
0.000389627
0.00221342
0.000405905
0.0021021
0.000422974
0.00198636
0.000441375
0.00186599
0.000460218
0.00174082
0.000480328
0.00160994
0.000500696
0.00147432
0.0005214
0.0013329
0.000542556
0.00118606
0.000562982
0.00103302
0.00058318
0.000874895
0.000602215
0.000710443
0.000620567
0.000540846
0.000638139
0.000365975
0.000656188
0.000184554
0.000678345
0.000714796
0.00336158
6.51791e-09
0.00336158
6.32047e-09
0.00336158
6.96911e-09
0.00336158
7.08612e-09
0.00336158
7.28878e-09
0.00336158
7.42516e-09
0.00336158
7.7623e-09
0.00336157
7.81263e-09
0.00336156
1.8335e-08
0.00336157
5.7393e-09
0.00336157
-6.5445e-10
0.00336165
-1.01296e-07
0.00336171
-7.35572e-08
0.00336216
-4.90668e-07
0.0033623
-1.79309e-07
0.00336387
-1.51227e-06
0.00336338
1.71292e-06
0.00335608
9.9116e-06
0.00335692
3.31836e-06
0.00333865
2.54877e-05
0.00334729
-3.55159e-05
0.00339064
-2.96607e-05
0.00333762
4.50848e-05
0.00325145
0.000278223
0.00317365
0.000348088
0.00310041
0.000356825
0.00302554
0.000363986
0.00294442
0.000376118
0.0028566
0.000398163
0.00276431
0.000421017
0.00266779
0.000441295
0.00256744
0.000459565
0.00246344
0.000477845
0.00235586
0.000496717
0.00224493
0.000516602
0.00213046
0.000537674
0.002012
0.000559833
0.00188903
0.000583175
0.00176181
0.000607466
0.00162901
0.00063296
0.00149173
0.000658492
0.00134897
0.000685213
0.0012002
0.000711336
0.00104632
0.000736845
0.000885486
0.000762684
0.000719861
0.000786006
0.000547331
0.000810827
0.000368703
0.000834831
0.000185852
0.000861037
0.000900594
0.00348648
6.16065e-09
0.00348648
6.18711e-09
0.00348648
6.8324e-09
0.00348648
7.37248e-09
0.00348648
7.83248e-09
0.00348648
8.21821e-09
0.00348648
8.67786e-09
0.00348648
9.2183e-09
0.00348648
1.25094e-08
0.00348649
6.76237e-09
0.00348648
-8.52239e-11
0.00348665
-4.37751e-08
0.00348641
-6.4004e-08
0.00348807
-4.5625e-07
0.00348577
-4.33019e-07
0.00349649
-4.5897e-06
0.00349475
1.28726e-06
0.00348773
6.08417e-06
0.00349082
6.53598e-06
0.00350017
1.09254e-05
0.00347752
-1.16781e-05
0.00346149
-1.6495e-05
0.00335088
0.000153684
0.00326633
0.000361738
0.00319425
0.00041942
0.0031244
0.000426598
0.00305108
0.000437197
0.00296775
0.000459626
0.00287898
0.000486949
0.00278661
0.00051332
0.00269067
0.000536657
0.0025904
0.000559271
0.00248634
0.000581386
0.00237799
0.000604743
0.002266
0.000628495
0.00214993
0.000653941
0.00202959
0.000680218
0.0019048
0.000707879
0.00177535
0.000736869
0.0016411
0.000766683
0.00150176
0.000797754
0.00135785
0.000829084
0.00120731
0.000861406
0.00105159
0.000892321
0.000890266
0.000923625
0.000721846
0.000954088
0.000549706
0.000983012
0.000370993
0.00101358
0.000186896
0.00104493
0.00108735
0.00361602
5.77712e-09
0.00361602
5.96407e-09
0.00361602
6.53987e-09
0.00361602
7.29942e-09
0.00361602
7.81386e-09
0.00361602
8.15294e-09
0.00361602
8.35862e-09
0.00361602
8.48684e-09
0.00361603
8.49869e-09
0.00361603
5.76952e-09
0.00361602
5.30798e-09
0.00361599
1.11703e-08
0.0036159
3.01875e-08
0.00361564
5.38181e-08
0.00361478
1.94634e-07
0.00360623
-1.88809e-07
0.00361059
7.42519e-07
0.00367433
-5.55269e-07
0.00362502
6.10481e-06
0.00361986
9.39518e-06
0.00360963
-3.42263e-06
0.00358479
7.52384e-06
0.00347309
0.000260458
0.00335388
0.000478765
0.0032763
0.000495768
0.00320205
0.000500379
0.00312201
0.000516906
0.00303028
0.000551278
0.00293369
0.000583382
0.00283506
0.000611699
0.00273356
0.000637516
0.00262899
0.000663346
0.00252056
0.000689332
0.00240902
0.000716102
0.0022932
0.000744232
0.00217425
0.000773083
0.00205016
0.000804159
0.0019228
0.000835284
0.00178999
0.000869537
0.00165299
0.000903209
0.00151139
0.000939331
0.00136451
0.00097594
0.00121308
0.00101239
0.00105491
0.00105024
0.000891837
0.00108636
0.000723685
0.00112199
0.000548315
0.00115842
0.000369258
0.00119251
0.000185692
0.0012281
0.00127281
0.00375038
5.37593e-09
0.00375038
5.68663e-09
0.00375038
6.11886e-09
0.00375038
7.11318e-09
0.00375038
7.42211e-09
0.00375038
7.53331e-09
0.00375038
7.36746e-09
0.00375038
6.85863e-09
0.00375038
5.49693e-09
0.00375038
4.90706e-09
0.00375038
8.74745e-09
0.00375037
2.99905e-08
0.0037503
6.88573e-08
0.00375031
2.01313e-07
0.00375022
4.14965e-07
0.00374431
1.32664e-06
0.00374618
2.43408e-06
0.00378085
1.44553e-06
0.00374503
7.78793e-06
0.00374639
1.0274e-05
0.00373234
6.59689e-06
0.00369738
3.92537e-05
0.00357095
0.00038484
0.00343077
0.000617159
0.00336468
0.000560862
0.00328684
0.000577726
0.00320078
0.000602589
0.00310248
0.000649395
0.00300031
0.000685267
0.00289688
0.000714834
0.00279013
0.000743623
0.00268092
0.000772127
0.00256781
0.000802072
0.00245173
0.00083196
0.0023319
0.000864083
0.00220823
0.000896795
0.00208048
0.000931635
0.00194815
0.000967519
0.00181229
0.00100506
0.00167064
0.00104433
0.0015261
0.00108388
0.00137528
0.00112655
0.00122006
0.00116727
0.00106094
0.00120918
0.000894779
0.00125211
0.000724008
0.00129245
0.000550159
0.00133232
0.000369542
0.001373
0.000186078
0.00141127
0.00145861
0.00388972
5.00689e-09
0.00388972
5.33073e-09
0.00388972
5.70509e-09
0.00388972
6.76923e-09
0.00388972
7.04295e-09
0.00388972
7.06562e-09
0.00388972
6.76555e-09
0.00388972
6.03935e-09
0.00388973
4.19715e-09
0.00388973
4.96988e-09
0.00388972
1.1093e-08
0.00388971
3.87034e-08
0.00388973
8.89015e-08
0.00388956
2.55419e-07
0.00388949
5.67599e-07
0.00389358
1.51637e-06
0.00389023
2.9977e-06
0.0038537
3.96029e-06
0.00388314
9.12805e-06
0.0038781
1.35284e-05
0.00386817
1.79013e-05
0.00384186
6.62876e-05
0.00371262
0.000511901
0.0035916
0.000737238
0.00349244
0.000659684
0.00339471
0.000675297
0.0032941
0.000702957
0.0031892
0.00075414
0.00308181
0.000792332
0.00297251
0.000823817
0.00286044
0.00085517
0.00274547
0.000886727
0.00262766
0.000919648
0.00250599
0.000953503
0.00238155
0.000988535
0.00225279
0.00102574
0.00212056
0.00106364
0.00198392
0.00110428
0.00184293
0.00114575
0.00169768
0.00118917
0.00154787
0.00123377
0.0013945
0.00127963
0.00123415
0.00132726
0.00107026
0.00137293
0.000902958
0.00141911
0.000729614
0.00146554
0.000550782
0.0015112
0.000370553
0.00155304
0.000185424
0.00159598
0.00164369
0.00403424
4.65832e-09
0.00403424
4.90918e-09
0.00403424
5.32243e-09
0.00403425
6.23603e-09
0.00403425
6.74983e-09
0.00403425
6.87806e-09
0.00403425
6.77951e-09
0.00403425
5.77423e-09
0.00403425
3.66006e-09
0.00403425
4.45447e-09
0.00403425
1.11351e-08
0.00403425
3.97536e-08
0.00403421
9.41041e-08
0.00403432
2.67512e-07
0.0040341
5.74297e-07
0.00403034
1.58943e-06
0.00403261
3.0952e-06
0.00406614
3.37345e-06
0.00403359
1.12709e-05
0.00403234
1.68061e-05
0.00402096
2.60112e-05
0.00399305
9.18597e-05
0.00386246
0.000641857
0.00379342
0.000806504
0.00364524
0.000808414
0.00351993
0.000800866
0.00340172
0.000821347
0.00329152
0.000864257
0.00317947
0.000904204
0.00306394
0.000938947
0.00294647
0.000972207
0.00282599
0.00100689
0.00270322
0.00104212
0.00257676
0.00107989
0.002447
0.00111817
0.00231324
0.00115937
0.00217528
0.00120134
0.00203353
0.00124595
0.00188685
0.00129212
0.00173611
0.0013396
0.00158085
0.00138905
0.00142157
0.00143856
0.00125893
0.00148956
0.00108941
0.00154227
0.000915692
0.00159257
0.00073983
0.00164124
0.00056013
0.00169085
0.000374375
0.00173859
0.00018838
0.00178161
0.00183171
0.00418414
4.31007e-09
0.00418414
4.46401e-09
0.00418414
4.92697e-09
0.00418414
5.64329e-09
0.00418414
6.40158e-09
0.00418414
6.8887e-09
0.00418414
7.31333e-09
0.00418414
5.3085e-09
0.00418414
2.92465e-09
0.00418414
2.76909e-09
0.00418415
8.02193e-09
0.00418415
2.57448e-08
0.00418422
6.84009e-08
0.00418416
1.88732e-07
0.00418483
2.98166e-07
0.00418815
1.05879e-06
0.004187
2.53622e-06
0.00415699
3.1217e-06
0.00418369
1.12545e-05
0.00418037
1.93229e-05
0.00416969
3.75872e-05
0.00414601
0.000115666
0.00399545
0.000790589
0.00389884
0.000903093
0.00377512
0.000932595
0.00364557
0.000930704
0.00351909
0.000948119
0.00340185
0.000981479
0.00328478
0.00102121
0.0031646
0.0010588
0.00304213
0.00109432
0.00291722
0.00113157
0.00278948
0.0011696
0.0026589
0.00121041
0.00252439
0.00125261
0.00238624
0.00129723
0.00224356
0.00134364
0.00209707
0.00139215
0.00194567
0.00144312
0.00178979
0.0014952
0.00162868
0.00155019
0.00146234
0.00160468
0.00129247
0.00165928
0.00111983
0.00171471
0.00094108
0.00177103
0.000757138
0.00182496
0.000570804
0.00187721
0.000383275
0.0019259
0.000190869
0.00197362
0.00202218
0.0043396
3.91681e-09
0.0043396
4.04959e-09
0.0043396
4.45424e-09
0.0043396
5.12007e-09
0.0043396
5.80304e-09
0.0043396
6.63344e-09
0.0043396
7.32483e-09
0.0043396
6.22595e-09
0.0043396
4.87204e-09
0.00433959
6.75908e-09
0.00433958
1.45968e-08
0.00433958
4.61481e-08
0.00433948
1.06373e-07
0.00433959
2.94694e-07
0.00433929
5.40229e-07
0.00433809
1.67216e-06
0.00434284
3.07263e-06
0.00438241
1.50454e-06
0.00435033
1.21966e-05
0.00434672
1.77974e-05
0.00433528
4.30639e-05
0.00430954
0.000138875
0.00416136
0.00093637
0.00402677
0.0010377
0.00390488
0.00105453
0.00377552
0.00106003
0.00364784
0.00107585
0.00352483
0.0011043
0.00340332
0.00114267
0.00327918
0.00118281
0.00315281
0.00122054
0.00302383
0.00126051
0.00289183
0.00130139
0.00275671
0.00134551
0.00261779
0.00139143
0.00247483
0.00143994
0.00232744
0.00149068
0.00217577
0.0015436
0.00201921
0.00159909
0.00185862
0.00165564
0.00169313
0.00171561
0.00152102
0.00177647
0.00134352
0.00183664
0.00116107
0.00189706
0.000976095
0.0019558
0.000787559
0.00201335
0.000594241
0.00207048
0.000395991
0.00212388
0.000199209
0.00216996
0.00222096
0.00450084
3.50061e-09
0.00450084
3.6202e-09
0.00450084
3.96647e-09
0.00450084
4.57683e-09
0.00450084
5.20825e-09
0.00450084
5.72693e-09
0.00450084
6.02903e-09
0.00450084
7.18973e-09
0.00450084
6.92717e-09
0.00450083
1.0138e-08
0.00450083
1.56307e-08
0.00450083
4.96532e-08
0.00450086
9.64099e-08
0.00450067
3.03396e-07
0.00450131
5.36244e-07
0.00450305
1.85394e-06
0.00450554
9.98532e-07
0.00444973
2.34353e-07
0.00450498
6.03905e-06
0.0045174
5.81948e-06
0.00451431
4.6777e-05
0.00449603
0.000158337
0.00435634
0.00107379
0.00419537
0.00119817
0.00405173
0.00119789
0.00391708
0.00119434
0.00378735
0.00120533
0.00366134
0.00122982
0.00353526
0.0012685
0.0034073
0.00131049
0.00327715
0.00135052
0.0031453
0.00139236
0.00300989
0.00143663
0.00287164
0.00148367
0.00272906
0.00153385
0.00258252
0.00158621
0.00243109
0.00164181
0.00227486
0.0016997
0.0021129
0.00176059
0.00194551
0.00182285
0.00177406
0.00188709
0.00159664
0.00195373
0.00141307
0.00202002
0.00122405
0.00208592
0.00102791
0.0021516
0.000826936
0.0022141
0.000624094
0.0022732
0.0004186
0.00232908
0.000207841
0.00238041
0.00242841
0.00466807
3.0658e-09
0.00466807
3.17125e-09
0.00466807
3.46121e-09
0.00466807
4.00509e-09
0.00466807
4.5706e-09
0.00466807
4.84719e-09
0.00466807
4.84908e-09
0.00466807
7.25747e-09
0.00466807
6.4713e-09
0.00466807
8.88828e-09
0.00466808
3.60147e-09
0.00466811
3.18943e-08
0.00466818
2.00623e-08
0.00466828
1.79059e-07
0.00466829
1.28874e-07
0.00467171
7.51377e-07
0.00466599
3.54224e-07
0.00473958
-1.71898e-06
0.00467226
6.77941e-06
0.00471221
6.76139e-06
0.00467766
5.79504e-05
0.0046169
0.000186032
0.00447606
0.00122045
0.00430418
0.00137256
0.00415891
0.00134274
0.00403064
0.00132194
0.003909
0.00132651
0.00378881
0.00134935
0.0036644
0.0013925
0.00353744
0.00143704
0.00340793
0.00147984
0.00327582
0.0015243
0.00314001
0.00157221
0.00300007
0.00162341
0.00285598
0.00167763
0.0027069
0.0017349
0.00255335
0.00179496
0.00239442
0.00185845
0.00222989
0.00192471
0.00205835
0.00199422
0.00188009
0.00206526
0.00169538
0.00213825
0.00150312
0.0022122
0.00130425
0.00228469
0.00110022
0.00235534
0.000889545
0.00242455
0.000671623
0.002491
0.000448475
0.00255199
0.000225712
0.00260277
0.00265364
0.00484151
2.6202e-09
0.00484151
2.68835e-09
0.00484151
2.95347e-09
0.00484151
3.37981e-09
0.00484151
3.88079e-09
0.00484151
4.35546e-09
0.00484151
4.51058e-09
0.00484151
5.08474e-09
0.00484151
4.19254e-09
0.00484152
3.66378e-09
0.00484152
1.77598e-09
0.00484155
1.05333e-08
0.00484153
1.34631e-08
0.00484168
7.21511e-08
0.00484155
5.93523e-08
0.00484478
3.47986e-07
0.0048391
1.19925e-07
0.00490322
-2.47855e-06
0.00483757
1.47254e-05
0.00493398
-6.36075e-06
0.0048262
0.000111175
0.00471713
0.000230579
0.00455439
0.0014102
0.00435083
0.00157725
0.0042076
0.0014856
0.00409455
0.00143453
0.00398975
0.0014309
0.00388266
0.00145594
0.00376781
0.00150706
0.0036499
0.00155466
0.0035292
0.00160033
0.00340414
0.00164925
0.00327416
0.00170196
0.00313851
0.00175893
0.00299667
0.00181918
0.0028488
0.0018825
0.00269444
0.00194913
0.00253396
0.00201876
0.00236724
0.00209133
0.00219393
0.00216747
0.00201278
0.00224629
0.00182339
0.00232745
0.00162512
0.00241032
0.00141612
0.00249348
0.00119678
0.00257439
0.000969775
0.00265126
0.000736625
0.00272398
0.00049586
0.00279238
0.000246782
0.00285146
0.0029
0.00502139
2.15105e-09
0.00502139
2.19272e-09
0.00502139
2.41635e-09
0.0050214
2.75405e-09
0.0050214
3.18395e-09
0.0050214
3.75189e-09
0.0050214
3.558e-09
0.0050214
3.17431e-09
0.0050214
9.04509e-10
0.00502141
-1.66143e-09
0.00502141
-4.01458e-09
0.00502144
-1.1708e-08
0.00502147
-1.55558e-08
0.00502154
-5.77908e-08
0.00502185
-1.3493e-07
0.00502255
-2.10426e-07
0.0050235
-1.08773e-06
0.0049888
-5.53595e-06
0.00501991
3.19362e-05
0.00479553
-6.17025e-05
0.0049567
0.000240672
0.00499022
0.000170322
0.00472109
0.00167696
0.00447443
0.00182519
0.00430489
0.0016553
0.00419555
0.00154352
0.00407917
0.00154695
0.00397374
0.00156093
0.00386675
0.00161377
0.00375614
0.00166502
0.00364328
0.00171299
0.00352752
0.0017647
0.00340685
0.00182221
0.00328079
0.00188462
0.00314763
0.00195188
0.00300674
0.00202271
0.00285822
0.00209734
0.00270067
0.00217605
0.0025347
0.00225701
0.00235988
0.00234234
0.00217603
0.00243017
0.00198221
0.00252111
0.0017779
0.00261444
0.00156206
0.00270915
0.0013334
0.0028027
0.00109043
0.00289397
0.000832357
0.00298178
0.000562562
0.00306182
0.000285387
0.00312834
0.00318498
0.00520796
1.66351e-09
0.00520796
1.66999e-09
0.00520796
1.87877e-09
0.00520797
2.10145e-09
0.00520797
2.42899e-09
0.00520797
2.60586e-09
0.00520797
3.26836e-09
0.00520797
3.34475e-09
0.00520796
5.0528e-09
0.00520795
7.65634e-09
0.00520792
2.59909e-08
0.00520786
4.64297e-08
0.0052077
1.6077e-07
0.00520728
2.70022e-07
0.0052065
8.98569e-07
0.00520435
1.51647e-06
0.00519591
5.43185e-06
0.00518757
2.56218e-06
0.00522965
8.04958e-06
0.00511706
1.23688e-05
0.00532095
7.7904e-05
0.0050918
0.000384193
0.00526916
0.00149127
0.00502223
0.00207263
0.00473634
0.00194164
0.00456124
0.0017185
0.00439612
0.00171193
0.00424391
0.00171287
0.00409686
0.00176047
0.00395882
0.00180281
0.00382717
0.00184448
0.00370011
0.00189163
0.00357466
0.00194741
0.00344815
0.00201093
0.0033187
0.00208116
0.00318351
0.00215755
0.00304176
0.00223885
0.0028918
0.00232581
0.00273204
0.00241651
0.00256253
0.00251172
0.00238138
0.00261123
0.00218809
0.00271427
0.00198133
0.002821
0.0017575
0.00293263
0.00151498
0.00304492
0.00125409
0.0031544
0.00097371
0.00326198
0.000669476
0.00336568
0.000339761
0.00345751
0.0035242
0.00540147
1.13711e-09
0.00540147
1.15827e-09
0.00540147
1.30621e-09
0.00540147
1.49964e-09
0.00540147
1.7301e-09
0.00540147
1.92778e-09
0.00540147
2.24464e-09
0.00540147
2.3166e-09
0.00540147
2.3383e-09
0.00540148
5.67681e-09
0.00540149
1.1595e-08
0.0054015
3.43327e-08
0.00540157
7.18569e-08
0.00540168
1.88849e-07
0.00540226
3.45309e-07
0.00540297
9.09153e-07
0.0053995
1.25166e-06
0.0054072
6.34742e-06
0.005308
6.7106e-06
0.00539192
3.06569e-05
0.00538748
8.23293e-05
0.00555323
0.000204285
0.0062601
0.000786194
0.00596217
0.00237039
0.0056596
0.00224367
0.00530252
0.00207532
0.00502697
0.00198732
0.00478589
0.00195371
0.00457493
0.00197124
0.00437484
0.00200276
0.00418935
0.00202989
0.00401832
0.00206242
0.00385934
0.00210607
0.00370897
0.00216098
0.00356395
0.00222585
0.0034209
0.00230029
0.00327625
0.00238337
0.00312777
0.00247425
0.00297161
0.00257257
0.0028076
0.00267565
0.00263333
0.00278541
0.00244512
0.00290234
0.00224062
0.00302528
0.00201994
0.00315299
0.00177442
0.00328999
0.00149983
0.00342871
0.00119016
0.00357119
0.000842336
0.00371302
0.000448993
0.00385044
0.0039727
0.00560216
6.06246e-10
0.00560216
6.57543e-10
0.00560216
7.94095e-10
0.00560216
9.45613e-10
0.00560216
1.15423e-09
0.00560216
1.32215e-09
0.00560216
1.45877e-09
0.00560216
1.67242e-09
0.00560216
2.89952e-09
0.00560216
5.39876e-09
0.00560216
1.41779e-08
0.00560217
2.63732e-08
0.00560214
8.31329e-08
0.00560236
6.87605e-08
0.00560209
2.92343e-07
0.00560453
8.09592e-08
0.00560274
-1.77454e-07
0.00561106
3.83474e-07
0.00558346
-1.83356e-06
0.0056221
2.2891e-05
0.0056739
3.19761e-05
0.00571473
0.00016466
0.00600243
0.000495792
0.00612574
0.00224577
0.00596409
0.00240407
0.00571535
0.00232308
0.00549956
0.00220221
0.00527515
0.00217733
0.00506422
0.00218175
0.0048551
0.00221178
0.00464631
0.00223873
0.00444377
0.00226491
0.00425228
0.00229739
0.00407191
0.00234118
0.00390173
0.00239568
0.00374026
0.0024613
0.00358444
0.00253886
0.00343325
0.00262517
0.00328267
0.00272292
0.00312362
0.00283451
0.00295359
0.00295527
0.00277318
0.00308259
0.00257806
0.00322018
0.00236359
0.00336721
0.00212739
0.00352565
0.00185614
0.00369944
0.00154068
0.00388632
0.00115584
0.00409747
0.000669226
0.00433655
0.00464128
0.00581031
1.12899e-10
0.00581031
2.04012e-10
0.00581031
3.17411e-10
0.00581031
4.71509e-10
0.00581031
6.15193e-10
0.00581031
8.24706e-10
0.00581031
1.02022e-09
0.00581031
1.56009e-09
0.00581031
1.92464e-09
0.00581031
4.83458e-09
0.00581032
6.43064e-09
0.00581033
1.54264e-08
0.00581045
2.2571e-08
0.00581029
1.37135e-07
0.00581082
2.99044e-08
0.00580941
5.15295e-07
0.00581048
-1.54269e-07
0.00580825
-1.31207e-06
0.00586063
-6.26018e-06
0.0057884
3.59899e-05
0.00598978
-3.38848e-05
0.0058054
0.000251639
0.00590029
0.000333607
0.00596611
0.00222028
0.00585886
0.00251143
0.00575399
0.00242669
0.00566118
0.00229357
0.00553418
0.00230342
0.00539508
0.0023201
0.00523481
0.00237151
0.0050591
0.00241429
0.00487377
0.00245017
0.00468433
0.00248659
0.00449703
0.00252834
0.00431367
0.00257881
0.00413805
0.00263655
0.00397286
0.00270373
0.00381288
0.00278482
0.00365362
0.00288186
0.00349932
0.00298851
0.00334602
0.00310836
0.00318625
0.0032421
0.00301866
0.00338763
0.00283379
0.00355167
0.00262877
0.00373026
0.00239378
0.00393386
0.00210811
0.00417156
0.00174617
0.00445866
0.00125265
0.00482942
0.00589392
0.00840003
9.28785e-12
0.00840003
3.7592e-11
0.00840003
8.27696e-11
0.00840003
1.47293e-10
0.00840003
2.3162e-10
0.00840003
3.28022e-10
0.00840003
4.83217e-10
0.00840003
6.75129e-10
0.00840003
1.33131e-09
0.00840004
2.01666e-09
0.00840003
5.34832e-09
0.00840008
1.1952e-08
0.00839996
2.05366e-08
0.00840057
4.52222e-08
0.00840004
2.0242e-07
0.0084016
3.93687e-07
0.00839523
1.71886e-06
0.00837691
4.90987e-06
0.00837294
4.4269e-06
0.00859731
1.04518e-05
0.00834939
3.76814e-05
0.00846057
0.000112572
0.00824815
0.000556909
0.00852767
0.00193609
0.00834057
0.00269758
0.00820097
0.0025656
0.0080548
0.00243869
0.00790829
0.00244913
0.0077541
0.00247367
0.0076034
0.00252192
0.00743073
0.00258681
0.00724
0.00264077
0.00703615
0.00269011
0.00682409
0.00273988
0.00661119
0.00279105
0.00639965
0.00284739
0.00618717
0.00291555
0.00597903
0.00299244
0.00578285
0.00307753
0.00559706
0.00317374
0.00542154
0.00328336
0.00525933
0.00340402
0.00510692
0.00353923
0.00497505
0.00368371
0.00486039
0.00384415
0.00478174
0.00401147
0.00478074
0.00417165
0.00492484
0.00431416
0.00543224
0.00432104
0.0038761
0.00744764
0.00840003
1.23416e-12
0.00840003
5.66901e-12
0.00840003
1.52894e-11
0.00840003
3.09154e-11
0.00840003
5.75529e-11
0.00840003
9.17445e-11
0.00840003
1.46156e-10
0.00840003
1.95717e-10
0.00840003
4.57423e-10
0.00840003
6.88213e-10
0.00840004
1.99381e-09
0.00840007
4.40333e-09
0.00840006
9.88268e-09
0.0084003
1.05732e-08
0.0084003
9.37336e-08
0.0084004
1.92122e-07
0.00840163
6.84072e-07
0.00841066
1.54418e-06
0.00840022
6.0775e-06
0.00848201
8.54332e-06
0.008408
3.40415e-05
0.00843502
8.23668e-05
0.00873951
0.000260538
0.00981124
0.000851087
0.00951041
0.0029964
0.00918382
0.00289128
0.00881311
0.0028083
0.00853658
0.00272486
0.008309
0.0027008
0.00809076
0.00273961
0.00788471
0.00279299
0.00768278
0.00284278
0.00748486
0.00288799
0.0072932
0.00293103
0.00710657
0.00297707
0.00692261
0.00303064
0.00674862
0.00308876
0.00658833
0.00315199
0.0064402
0.00322504
0.00630995
0.00330344
0.00619793
0.00339498
0.00611063
0.00349081
0.00605503
0.00359489
0.00603523
0.0037023
0.00608078
0.00379862
0.00620103
0.0038907
0.00644089
0.00393047
0.00683763
0.00391551
0.00737895
0.00377934
0.00333464
0.00791624
0.00840003
1.49778e-13
0.00840003
8.74112e-13
0.00840003
2.78714e-12
0.00840003
6.53406e-12
0.00840003
1.36362e-11
0.00840003
2.34548e-11
0.00840003
4.42242e-11
0.00840003
6.96023e-11
0.00840003
1.22171e-10
0.00840003
1.89155e-10
0.00840003
5.65971e-10
0.00840002
8.23032e-10
0.00840008
5.12168e-09
0.00839982
1.04348e-08
0.00840029
2.6349e-08
0.00839862
4.91859e-08
0.00840088
1.88492e-07
0.00840106
3.55703e-07
0.00840967
1.45859e-06
0.00852859
2.22932e-06
0.00845117
1.95798e-05
0.00852617
3.43002e-05
0.00861377
0.00017812
0.00892947
0.000521825
0.0093154
0.0025602
0.00919212
0.00300859
0.00898216
0.00301752
0.00883505
0.0028711
0.00865885
0.00287627
0.00847869
0.00291907
0.00829934
0.00297153
0.00811942
0.00302245
0.00794241
0.003065
0.00776797
0.00310533
0.00760029
0.00314428
0.00744371
0.00318675
0.0072994
0.00323251
0.00717015
0.00328061
0.0070608
0.00333382
0.00697405
0.00338967
0.00691946
0.00344888
0.00689611
0.0035139
0.00691878
0.00357172
0.0069862
0.00363416
0.00711188
0.00367212
0.00730562
0.00369538
0.0075663
0.00367078
0.00788769
0.00359002
0.00822624
0.00344108
0.00306526
0.00849046
0.00840003
4.34455e-14
0.00840003
2.00629e-13
0.00840003
7.95795e-13
0.00840003
1.65845e-12
0.00840003
4.16065e-12
0.00840003
7.65234e-12
0.00840003
1.6094e-11
0.00840003
2.57029e-11
0.00840003
1.06583e-10
0.00840003
1.40591e-10
0.00840003
7.92947e-10
0.00840003
1.28256e-09
0.00840001
3.76961e-09
0.00839996
5.5157e-09
0.00840009
3.55348e-08
0.00839933
3.62453e-08
0.00839876
2.4063e-07
0.00839963
5.48131e-07
0.00840172
1.01091e-06
0.00844172
9.53969e-07
0.00839275
1.51888e-05
0.00875655
2.33845e-05
0.00838815
0.000157761
0.0085874
0.000404162
0.00894168
0.00216546
0.00891725
0.00303042
0.00882288
0.00311182
0.00869074
0.00300266
0.00858894
0.00297778
0.00849335
0.00301447
0.00840157
0.00306299
0.0083043
0.00311924
0.00820351
0.00316546
0.00810005
0.00320846
0.00799372
0.00325018
0.00789154
0.00328866
0.00779781
0.00332579
0.00771353
0.00336445
0.00764731
0.00339981
0.00759908
0.00343777
0.0075801
0.0034677
0.00759292
0.00350094
0.00764456
0.00351978
0.00774294
0.00353598
0.00788438
0.00353007
0.00807262
0.00350582
0.00829816
0.00344484
0.00854291
0.00334363
0.00878783
0.00319412
0.00292544
0.00892476
0.00840003
2.6354e-14
0.00840003
2.22568e-14
0.00840003
3.08782e-13
0.00840003
1.83734e-13
0.00840003
2.60614e-12
0.00840003
1.30613e-12
0.00840003
1.63918e-11
0.00840003
8.46405e-12
0.00840003
1.00807e-10
0.00840003
3.8999e-11
0.00840003
9.55578e-10
0.00840004
3.92021e-10
0.00839999
5.46114e-09
0.00840006
1.50888e-09
0.00839988
3.47038e-08
0.00840051
-1.84779e-08
0.00839983
3.4931e-07
0.00840042
1.67328e-07
0.00839941
3.16846e-07
0.00837683
5.16903e-07
0.00840158
2.07445e-05
0.00814853
5.30186e-06
0.00837513
0.000206387
0.0085336
0.000233895
0.00933176
0.00135692
0.00905108
0.0033075
0.00891148
0.00325126
0.00873103
0.00318348
0.00860841
0.00310081
0.00852775
0.0030954
0.00846313
0.00312784
0.00840727
0.00317516
0.00835411
0.00321859
0.00830011
0.00326224
0.00824744
0.0033024
0.00820115
0.00333436
0.0081647
0.00336187
0.00813654
0.00339246
0.0081212
0.00341472
0.00812037
0.00343856
0.00813745
0.00345001
0.00817857
0.00346002
0.00824448
0.00345338
0.00834006
0.00344042
0.00846625
0.00340327
0.00861845
0.00335337
0.00879273
0.0032691
0.00897495
0.00316071
0.00915216
0.00301475
0.00280074
0.00927478
0.00840003
4.99678e-15
0.00840003
4.92037e-14
0.00840003
1.28554e-13
0.00840003
4.42727e-13
0.00840003
1.0221e-12
0.00840003
3.38503e-12
0.00840003
6.68584e-12
0.00840003
2.33815e-11
0.00840003
4.71039e-11
0.00840003
1.37517e-10
0.00840002
3.73292e-10
0.00840002
1.52283e-09
0.00840002
3.48681e-09
0.00840007
1.2294e-08
0.00839945
3.18316e-08
0.00840038
9.1927e-08
0.00839649
1.90601e-07
0.00840094
8.63778e-07
0.0083946
2.37993e-06
0.00839874
2.67157e-06
0.00850296
6.19341e-06
0.00838264
1.97662e-05
0.00874868
5.16625e-05
0.00859305
0.000225953
0.00924012
0.000617122
0.0097554
0.00285559
0.00945869
0.00354538
0.00916596
0.00347203
0.00900034
0.00326656
0.00887177
0.00322395
0.00876539
0.00323467
0.00868289
0.00325836
0.00861261
0.00328958
0.00855448
0.00332059
0.00851498
0.00334134
0.00848843
0.00336046
0.00847491
0.00337503
0.00847585
0.00339088
0.00849208
0.00339871
0.0085238
0.00340637
0.00857267
0.00340178
0.00863661
0.00339539
0.00871987
0.00337066
0.00881732
0.00334247
0.00893135
0.00328878
0.00905775
0.00322704
0.00919041
0.0031351
0.00932462
0.00302635
0.00944768
0.00288971
0.00270347
0.00954372