/*--------------------------------*- C++ -*----------------------------------*\
| =========                 |                                                 |
| \\      /  F ield         | OpenFOAM: The Open Source CFD Toolbox           |
|  \\    /   O peration     | Version:  2112                                  |
|   \\  /    A nd           | Website:  www.openfoam.com                      |
|    \\/     M anipulation  |                                                 |
\*---------------------------------------------------------------------------*/
FoamFile
{
    version     2.0;
    format      ascii;
    arch        "LSB;label=32;scalar=64";
    class       volScalarField;
    location    "4.0005";
    object      T;
}
// * * * * * * * * * * * * * * * * * * * * * * * * * * * * * * * * * * * * * //

dimensions      [0 0 0 1 0 0 0];

internalField   nonuniform List<scalar> 
7000
(
1
1
1
1
1
1
1
1.00001
1.00001
1.00003
1.00003
1.00032
1.00053
1.00225
1.00322
1.01181
1.02029
1.05351
1.15697
1.39257
1.92985
2.56454
2.72926
2.71139
2.68011
2.6753
2.68493
2.6927
2.70191
2.70826
2.71292
2.71868
2.72356
2.72915
2.73425
2.74007
2.74398
2.75045
2.75424
2.75926
2.76358
2.76739
2.771
2.77586
2.77714
2.78102
2.78238
2.7841
2.78344
2.78628
1
1
1
1
1
1
1
1.00001
1
1.00003
1.00003
1.00032
1.00053
1.00219
1.00311
1.01111
1.01919
1.04531
1.15854
1.37808
1.89063
2.54366
2.72663
2.70741
2.67516
2.67047
2.6805
2.68871
2.69861
2.70554
2.71098
2.71704
2.72241
2.72796
2.73304
2.73869
2.74288
2.74882
2.75286
2.75769
2.76242
2.76569
2.76914
2.77354
2.77524
2.77948
2.78071
2.78164
2.78317
2.78337
1
1
1
1
1
1
1
1.00001
1
1.00003
1.00003
1.00033
1.00053
1.00218
1.00313
1.01073
1.01934
1.04571
1.15676
1.37045
1.85176
2.55918
2.72598
2.70615
2.67264
2.66826
2.67784
2.68616
2.69549
2.70225
2.70752
2.71414
2.71989
2.72644
2.73158
2.73772
2.74138
2.74767
2.75097
2.7566
2.7606
2.76494
2.76753
2.77292
2.77476
2.77924
2.78112
2.7806
2.78294
2.78525
1
1
1
1
1
1
1
1.00001
1
1.00003
1.00003
1.00033
1.00053
1.00214
1.00313
1.01032
1.01932
1.05176
1.14068
1.36672
1.82452
2.58164
2.72663
2.70581
2.67342
2.66957
2.67954
2.68828
2.698
2.7048
2.71049
2.71683
2.72263
2.7288
2.73407
2.73964
2.74359
2.74902
2.75258
2.75701
2.7616
2.76404
2.76799
2.77127
2.77449
2.77825
2.78061
2.78127
2.78105
2.78127
1
1
1
1
1
1
1
1
1
1.00003
1.00004
1.00032
1.00054
1.00203
1.00302
1.00956
1.01826
1.04866
1.13809
1.35418
1.82443
2.60692
2.728
2.70641
2.67554
2.67237
2.68166
2.69022
2.69926
2.70626
2.71179
2.71813
2.72392
2.72978
2.73552
2.74048
2.74518
2.74974
2.75391
2.75745
2.76217
2.76421
2.76756
2.7715
2.77251
2.77779
2.77777
2.77861
2.78163
2.78282
1
1
1
1
1
1
1
1
1.00001
1.00001
1.00012
1.00023
1.0009
1.00148
1.00414
1.00755
1.0151
1.03919
1.14216
1.3489
1.83817
2.61557
2.72369
2.70233
2.67348
2.67091
2.68028
2.68781
2.69775
2.70297
2.70991
2.71468
2.72174
2.72655
2.73338
2.73798
2.74349
2.74839
2.7525
2.7573
2.76061
2.76422
2.76596
2.77044
2.77249
2.77476
2.77796
2.77656
2.77687
2.77667
1
1
1
1
1
1
1
1
1.00001
1.00001
1.00013
1.00024
1.00104
1.00146
1.00603
1.00518
1.0175
1.03401
1.13991
1.33549
1.82786
2.61212
2.72073
2.69933
2.67264
2.6703
2.67961
2.68615
2.69612
2.70113
2.70771
2.7128
2.71864
2.72463
2.72941
2.7361
2.7395
2.74704
2.74887
2.75606
2.75877
2.76203
2.7662
2.76705
2.77107
2.77375
2.77265
2.77528
2.77697
2.77793
1
1
1
1
1
1
1
1
1.00001
1.00001
1.00013
1.00023
1.00099
1.00141
1.0055
1.00539
1.01854
1.03025
1.13356
1.32121
1.81846
2.60907
2.71932
2.69887
2.67374
2.67132
2.67914
2.68638
2.69454
2.70109
2.70553
2.71214
2.71581
2.72278
2.72638
2.73245
2.73664
2.74199
2.74686
2.75035
2.75664
2.75719
2.76379
2.76666
2.76652
2.77097
2.7726
2.76954
2.77146
2.76971
1
1
1
1
1
1
1
1
1.00001
1.00001
1.00012
1.00022
1.00092
1.00128
1.00517
1.00484
1.01739
1.02795
1.12551
1.30718
1.80551
2.60149
2.71674
2.6966
2.67608
2.67214
2.67923
2.68649
2.69403
2.70114
2.70523
2.71123
2.71574
2.72088
2.72647
2.73001
2.73589
2.73884
2.74376
2.7476
2.75161
2.75526
2.75664
2.76326
2.76609
2.76596
2.76573
2.76983
2.76902
2.77085
1
1
1
1
1
1
1
1
1.00001
1.00001
1.00011
1.0002
1.00083
1.00113
1.00462
1.0041
1.01598
1.02388
1.1207
1.28996
1.78875
2.58713
2.71511
2.68573
2.68014
2.67339
2.68086
2.68597
2.69451
2.70002
2.70551
2.70905
2.71494
2.71779
2.72366
2.72636
2.73174
2.73501
2.7389
2.74354
2.74687
2.7518
2.75478
2.75499
2.76031
2.76508
2.76271
2.75978
2.76324
2.76008
1
1
1
1
1
1
1
1
1.00001
1.00001
1.0001
1.00017
1.00072
1.00097
1.00396
1.00337
1.0145
1.02004
1.11153
1.27353
1.77144
2.5777
2.70213
2.68295
2.67913
2.67314
2.6801
2.68595
2.69513
2.70062
2.7063
2.70979
2.71518
2.7185
2.72267
2.72592
2.72934
2.73264
2.73483
2.73847
2.74027
2.74523
2.75057
2.75363
2.75297
2.75564
2.75825
2.76063
2.75794
2.76094
1
1
1
1
1
1
1
1
1.00001
1.00001
1.00009
1.00016
1.00066
1.00096
1.00356
1.00279
1.01297
1.01322
1.10333
1.25385
1.74948
2.55882
2.68908
2.68597
2.67621
2.66994
2.67607
2.68189
2.69226
2.69707
2.70363
2.70674
2.71275
2.71616
2.72073
2.7239
2.72737
2.73036
2.73254
2.73579
2.73569
2.73729
2.74157
2.74562
2.75092
2.75236
2.7489
2.74702
2.75173
2.74716
1
1
1
1
1
1
1
1
1.00001
1.00001
1.00008
1.00014
1.00053
1.00082
1.00291
1.00242
1.01069
1.00933
1.09254
1.23566
1.72306
2.52397
2.6738
2.6831
2.67556
2.6682
2.67451
2.67924
2.68971
2.69457
2.70054
2.70441
2.709
2.71349
2.71665
2.72068
2.72288
2.72599
2.72764
2.73108
2.73339
2.73344
2.73533
2.73726
2.7383
2.74266
2.74657
2.74608
2.74292
2.7467
1
1
1
1
1
1
1
1
1.00001
1.00001
1.00006
1.00011
1.0004
1.00063
1.00236
1.00204
1.0156
1.00356
1.09138
1.21503
1.68727
2.48698
2.65393
2.68283
2.67483
2.6672
2.67121
2.6775
2.68567
2.69186
2.69623
2.70105
2.70515
2.70962
2.71348
2.71675
2.71994
2.72143
2.7229
2.72326
2.72512
2.72642
2.7278
2.73127
2.73409
2.73348
2.73129
2.73087
2.73491
2.72971
1
1
1
1
1
1
1
1
1
1.00002
1.00004
1.00016
1.00028
1.00084
1.00201
1.00272
1.01485
1.00485
1.08452
1.19234
1.64614
2.43186
2.63002
2.68614
2.67741
2.66964
2.67171
2.67762
2.68494
2.68949
2.69377
2.6967
2.7008
2.7038
2.70759
2.71106
2.71417
2.71725
2.71923
2.71984
2.71943
2.71891
2.71782
2.71731
2.71988
2.72474
2.72762
2.72459
2.72151
2.72607
1
1
1
1
1
1
1
1
1
1.00002
1.00003
1.00013
1.00021
1.00067
1.00153
1.00212
1.01183
1.00472
1.07473
1.16719
1.5909
2.35715
2.58622
2.68147
2.67453
2.66865
2.6705
2.67695
2.6836
2.68876
2.69229
2.6952
2.69757
2.7002
2.70154
2.70396
2.70574
2.70711
2.70984
2.71068
2.71203
2.71198
2.7113
2.71034
2.70884
2.70733
2.70623
2.70732
2.70929
2.70301
1
1
1
1
1
1
1
1
1
1.00003
1.00005
1.00019
1.0003
1.00101
1.00159
1.00622
1.005
1.02152
1.04238
1.1831
1.4268
2.0356
2.54571
2.68207
2.67063
2.66229
2.66276
2.66887
2.67567
2.68197
2.68715
2.69082
2.69409
2.69678
2.69893
2.69997
2.70154
2.70117
2.70197
2.70142
2.70032
2.69874
2.69656
2.69407
2.69489
2.69681
2.69659
2.6911
2.68722
2.69169
1
1
1
1
1
1
1
1
1
1.00001
1.00004
1.00006
1.00019
1.00037
1.00069
1.00301
1.00144
1.01776
1.04039
1.13632
1.34195
1.78275
2.44474
2.65532
2.645
2.64537
2.64359
2.65506
2.66058
2.66939
2.67405
2.67884
2.6822
2.68566
2.68823
2.69016
2.69128
2.6921
2.69217
2.69192
2.69125
2.68954
2.68692
2.68125
2.67287
2.6696
2.66642
2.66723
2.66315
2.65361
1
1
1
1
1
1
1
1
1
1.00001
1.00002
1.00007
1.00013
1.00034
1.0006
1.0022
1.00296
1.01338
1.01733
1.10787
1.26713
1.75097
2.50484
2.64602
2.64194
2.63354
2.62667
2.63703
2.64409
2.65338
2.66136
2.66622
2.67158
2.67453
2.67801
2.67967
2.6806
2.68011
2.6783
2.67635
2.67293
2.67094
2.66671
2.66496
2.65753
2.65004
2.64235
2.62922
2.62036
2.61414
1
1
1
1
1
1
1
1
1
1.00001
1.00001
1.00003
1.00003
1.00027
1.00041
1.0023
1.00234
1.0175
1.00276
1.09426
1.20909
1.68273
2.46257
2.62483
2.65369
2.64342
2.62965
2.63013
2.63494
2.6404
2.64634
2.65076
2.65473
2.65909
2.6618
2.66567
2.6671
2.66902
2.66765
2.66537
2.6607
2.65389
2.64697
2.63437
2.62715
2.61161
2.59787
2.58159
2.55018
2.46388
1
1
1
1
1
1
1
1
1
1
1.00001
1.00002
1.00009
1.00008
1.0008
1.00123
1.00762
1.00406
1.02463
1.05435
1.21793
1.51012
2.13796
2.5462
2.64877
2.63924
2.63724
2.63145
2.6332
2.63428
2.63723
2.6389
2.63969
2.64038
2.64083
2.64078
2.64067
2.63991
2.63866
2.63574
2.63325
2.62689
2.61954
2.60844
2.58686
2.56769
2.53155
2.48625
2.42378
2.30022
1
1
1
1
1
1
1
1
1
1
1.00001
1.00001
1.00004
1.00004
1.00031
1.00044
1.00348
1.00118
1.01978
1.03605
1.13739
1.33358
1.77251
2.42527
2.61232
2.60696
2.59938
2.59795
2.60288
2.61253
2.61791
2.62309
2.62542
2.62713
2.62707
2.62652
2.62391
2.62031
2.61314
2.6074
2.59587
2.5881
2.5726
2.55887
2.53946
2.5062
2.47317
2.40374
2.32692
2.20707
1
1
1
1
1
1
1
1
1
1
1
1.00001
1.00003
1.00004
1.00024
1.00031
1.00185
1.0023
1.01427
1.00723
1.09909
1.24255
1.71685
2.46332
2.61248
2.61123
2.59475
2.58158
2.57741
2.58135
2.5855
2.58909
2.59348
2.59543
2.59939
2.59905
2.5981
2.59602
2.59049
2.58454
2.57308
2.5581
2.54173
2.51507
2.49227
2.45299
2.41228
2.35229
2.27316
2.18796
1
1
1
1
1
1
1
1
1
1
1
1
1.00003
1.00002
1.00022
1.00029
1.00191
1.00195
1.01514
1.0022
1.08476
1.17578
1.60497
2.32396
2.55096
2.61798
2.59852
2.58645
2.57737
2.576
2.57656
2.57633
2.5753
2.57425
2.57109
2.56874
2.56401
2.56035
2.55515
2.54709
2.53934
2.52298
2.50951
2.48267
2.45631
2.41833
2.37518
2.31991
2.25212
2.17953
1
1
1
1
1
1
1
1
1
1
1
1
1.00002
1.00002
1.00016
1.0002
1.00133
1.00142
1.01054
1.00446
1.05935
1.13234
1.45793
2.12977
2.39988
2.56024
2.55817
2.55982
2.56037
2.56254
2.56512
2.56589
2.56483
2.56247
2.55905
2.55188
2.54629
2.53587
2.52882
2.5153
2.50539
2.48849
2.4727
2.4502
2.42531
2.392
2.35497
2.30679
2.25123
2.18951
1
1
1
1
1
1
1
1
1
1
1
1.00001
1.00001
1.00005
1.00007
1.00045
1.00064
1.00374
1.00224
1.02175
1.00224
1.09951
1.22702
1.69141
2.40016
2.53313
2.54377
2.53444
2.52506
2.52616
2.52992
2.53556
2.53846
2.53797
2.53618
2.53148
2.52698
2.51754
2.50917
2.49437
2.48114
2.46107
2.44385
2.41741
2.3957
2.36175
2.33187
2.28897
2.24507
2.19536
1
1
1
1
1
1
1
1
1
1
1
1
1
1.00003
1.00001
1.00021
1.00025
1.00169
1.00174
1.01286
1.00131
1.07301
1.14435
1.52558
2.18026
2.45502
2.54473
2.53398
2.5246
2.51564
2.51204
2.51258
2.51177
2.50939
2.50749
2.50351
2.50047
2.49384
2.48792
2.476
2.46519
2.44606
2.42973
2.40326
2.38028
2.34791
2.31724
2.27917
2.23808
2.19596
1
1
1
1
1
1
1
1
1
1
1
1
1
1.00002
1.00001
1.00014
1.0002
1.00126
1.00135
1.00945
1.00211
1.04528
1.0986
1.29884
1.77242
2.24176
2.4985
2.51747
2.51172
2.50557
2.49989
2.49718
2.49449
2.48852
2.48286
2.47561
2.46929
2.46183
2.45472
2.4451
2.43621
2.42207
2.40931
2.38897
2.36949
2.34175
2.31358
2.2792
2.24149
2.20257
1
1
1
1
1
1
1
1
1
1
1
1
1
1.00001
1.00001
1.00006
1.00006
1.00047
1.00058
1.00455
1.00082
1.0269
1.04761
1.1889
1.45292
1.96032
2.37093
2.48285
2.48942
2.4887
2.48663
2.48509
2.48364
2.47834
2.47279
2.46322
2.45361
2.44171
2.43111
2.41722
2.40625
2.39015
2.37809
2.35986
2.3443
2.3234
2.30193
2.2749
2.24277
2.20924
1
1
1
1
1
1
1
1
1
1
1
1
1
1
1.00002
1.00004
1.0001
1.00034
1.00072
1.0016
1.00575
1.01539
1.03597
1.1
1.25567
1.71939
2.13486
2.40884
2.44678
2.44848
2.45227
2.45313
2.45575
2.45549
2.45379
2.44878
2.44146
2.43057
2.41961
2.40596
2.39194
2.37525
2.35805
2.33995
2.31994
2.30034
2.27737
2.25509
2.229
2.20336
1
1
1
1
1
1
1
1
1
1
1
1
1
1
1.00001
1.00001
1.00005
1.00005
1.00035
1.00042
1.00294
1.00254
1.02023
1.02985
1.14007
1.33955
1.79606
2.25726
2.42525
2.42953
2.42797
2.42391
2.42004
2.4174
2.41484
2.41171
2.40855
2.40284
2.39596
2.38596
2.37575
2.3628
2.34759
2.33078
2.31199
2.29186
2.26982
2.24574
2.21967
2.19354
1
1
1
1
1
1
1
1
1
1
1
1
1
1
1
1.00001
1.00001
1.00011
1.00011
1.00081
1.00082
1.00609
1.00145
1.03158
1.06788
1.20268
1.55506
1.96738
2.33253
2.41351
2.41639
2.41128
2.4054
2.398
2.39233
2.38598
2.37916
2.37198
2.36335
2.35483
2.34417
2.33395
2.32241
2.30971
2.29542
2.27872
2.26128
2.24
2.21713
2.19231
1
1
1
1
1
1
1
1
1
1
1
1
1
1
1
1
1.00002
1.00002
1.00016
1.00022
1.00129
1.0012
1.00965
1.00183
1.04352
1.09635
1.2685
1.75388
2.08484
2.34139
2.38763
2.38483
2.38151
2.37471
2.36794
2.36347
2.35779
2.35173
2.34418
2.33524
2.32529
2.31348
2.30138
2.28701
2.27319
2.25674
2.24065
2.22258
2.20303
2.18307
1
1
1
1
1
1
1
1
1
1
1
1
1
1
1
1
1
1.00003
1.00002
1.00018
1.00021
1.00141
1.00146
1.01049
1.0002
1.05916
1.11526
1.39738
1.96717
2.22166
2.36052
2.37177
2.35913
2.35214
2.34189
2.33524
2.33105
2.32636
2.3214
2.31505
2.30814
2.29903
2.29003
2.2779
2.26534
2.25054
2.23469
2.21761
2.19809
2.17908
1
1
1
1
1
1
1
1
1
1
1
1
1
1
1
1
1
1.00001
1.00001
1.0001
1.00011
1.00074
1.00073
1.00475
1.00517
1.02616
1.04156
1.19059
1.48852
1.96105
2.26602
2.33706
2.3386
2.32861
2.3225
2.31328
2.3076
2.30161
2.29628
2.28916
2.28271
2.2743
2.26609
2.25672
2.2465
2.23491
2.22185
2.20674
2.18972
2.17213
1
1
1
1
1
1
1
1
1
1
1
1
1
1
1
1
1
1.00001
1.00001
1.00002
1.0001
1.00032
1.00063
1.00181
1.00406
1.01229
1.03394
1.07385
1.22415
1.62618
2.01688
2.25137
2.28799
2.29595
2.29455
2.29348
2.29122
2.28767
2.28435
2.27888
2.27319
2.2657
2.25739
2.24817
2.238
2.22619
2.21352
2.19885
2.18296
2.16645
1
1
1
1
1
1
1
1
1
1
1
1
1
1
1
1
1
1
1.00002
1.00002
1.00013
1.00011
1.00047
1.00059
1.00374
1.00087
1.02563
1.00011
1.1029
1.22025
1.61238
2.13237
2.24584
2.25057
2.24914
2.24809
2.24524
2.24276
2.24266
2.24232
2.24148
2.23971
2.23627
2.23108
2.22426
2.21525
2.20471
2.19254
2.17818
2.16354
1
1
1
1
1
1
1
1
1
1
1
1
1
1
1
1
1
1
1.00001
1.00001
1.00003
1.00005
1.0002
1.00029
1.00119
1.00166
1.00616
1.01126
1.04151
1.09518
1.2435
1.61173
2.10781
2.25724
2.26654
2.26112
2.25235
2.24091
2.2304
2.22303
2.21525
2.20952
2.20263
2.19703
2.18993
2.18479
2.17685
2.17021
2.15948
2.15011
1
1
1
1
1
1
1
1
1
1
1
1
1
1
1
1
1
1
1
1
1.00002
1.00002
1.0001
1.00012
1.00045
1.00093
1.00281
1.00592
1.01861
1.04707
1.09047
1.2914
1.74376
2.05904
2.24401
2.25966
2.25739
2.24788
2.23697
2.22607
2.21585
2.20636
2.19666
2.18697
2.17696
2.16706
2.15702
2.14642
2.13519
2.12368
1
1
1
1
1
1
1
1
1
1
1
1
1
1
1
1
1
1
1
1
1
1.00001
1.00004
1.00004
1.00027
1.00007
1.00113
1.00236
1.00622
1.0171
1.04805
1.08547
1.30145
1.78697
2.06384
2.21724
2.23997
2.23877
2.23505
2.22691
2.21736
2.20717
2.19737
2.18668
2.1763
2.16476
2.15381
2.14157
2.12859
2.11533
1
1
1
1
1
1
1
1
1
1
1
1
1
1
1
1
1
1
1
1
1
1
1.00003
1.00003
1.00019
1.00017
1.00068
1.00076
1.00471
1.00374
1.0243
1.0075
1.12142
1.26493
1.63405
2.01339
2.18215
2.19832
2.19782
2.19695
2.19258
2.1855
2.18002
2.17295
2.16641
2.15725
2.14761
2.13596
2.12391
2.11059
1
1
1
1
1
1
1
1
1
1
1
1
1
1
1
1
1
1
1
1
1
1
1.00001
1.00001
1.00004
1.00006
1.00026
1.00032
1.00147
1.00184
1.00795
1.01282
1.0381
1.10075
1.24127
1.57507
1.9728
2.16931
2.19316
2.19115
2.18781
2.17812
2.1685
2.15831
2.14952
2.13948
2.13078
2.11987
2.10951
2.09732
1
1
1
1
1
1
1
1
1
1
1
1
1
1
1
1
1
1
1
1
1
1
1
1
1.00001
1.00003
1.00003
1.00016
1.00016
1.00106
1.00103
1.00808
0.998586
1.04689
1.06466
1.28265
1.64861
1.94562
2.14896
2.18018
2.18103
2.17607
2.16818
2.15684
2.14694
2.13559
2.12542
2.11314
2.1015
2.08838
1
1
1
1
1
1
1
1
1
1
1
1
1
1
1
1
1
1
1
1
1
1
1
1
1.00001
1.00001
1.00004
1.00006
1.00026
1.0003
1.00137
1.0017
1.00632
1.01198
1.03226
1.09302
1.20243
1.51747
1.97221
2.09894
2.13606
2.14168
2.14703
2.14329
2.13857
2.12935
2.12107
2.11084
2.10025
2.08822
1
1
1
1
1
1
1
1
1
1
1
1
1
1
1
1
1
1
1
1
1
1
1
1
1
1
1.00001
0.999999
1.00006
1.0001
1.0003
1.00081
1.00214
1.00452
1.01166
1.03501
1.08112
1.15601
1.44384
1.88788
2.05469
2.11094
2.12116
2.12225
2.11816
2.11393
2.10683
2.1007
2.09258
2.08389
1
1
1
1
1
1
1
1
1
1
1
1
1
1
1
1
1
1
1
1
1
1
1
1
1
1
1.00001
1.00001
1.00003
1.00003
1.0002
1.00016
1.00078
1.00087
1.00574
1.00571
1.02314
1.02764
1.14622
1.34306
1.61331
1.93139
2.06829
2.09303
2.09175
2.08942
2.0846
2.07762
2.07101
2.06403
1
1
1
1
1
1
1
1
1
1
1
1
1
1
1
1
1
1
1
1
1
1
1
1
1
1
1
1
1.00001
1.00001
1.00007
1.00005
1.00025
1.00018
1.0017
1.00152
1.00964
1.00091
1.04781
1.06686
1.27875
1.57716
1.82344
2.01282
2.06024
2.0672
2.06654
2.06197
2.05412
2.04677
1
1
1
1
1
1
1
1
1
1
1
1
1
1
1
1
1
1
1
1
1
1
1
1
1
1
1
1
1
1.00001
1.00001
1.00005
1.00005
1.00032
1.00029
1.00109
1.00116
1.00726
1.0058
1.02902
1.02753
1.18875
1.40898
1.65012
1.89317
2.01724
2.04455
2.04423
2.0413
2.03663
1
1
1
1
1
1
1
1
1
1
1
1
1
1
1
1
1
1
1
1
1
1
1
1
1
1
1
1
1
1
1
1.00001
1.00001
1.00003
1.00004
1.00016
1.00017
1.00101
1.0002
1.00681
0.989934
1.04719
1.08814
1.26522
1.53255
1.7519
1.94264
2.00005
2.01465
2.01436
1
1
1
1
1
1
1
1
1
1
1
1
1
1
1
1
1
1
1
1
1
1
1
1
1
1
1
1
1
1
1
1
1
1.00001
1.00002
1.00003
1.0001
0.99997
1.00054
0.998253
1.00331
1.00431
1.02968
1.05756
1.11399
1.31581
1.55034
1.77321
1.94939
1.97223
1
1
1
1
1
1
1
1
1
1
1
1
1
1
1
1
1
1
1
1
1
1
1
1
1
1
1
1
1
1
1
1
1
1
1.00001
1.00001
1.00005
1.00006
1.00024
1.00021
1.00115
1.00065
1.00608
1.0057
1.03768
1.07099
1.13631
1.34081
1.54966
1.76721
1
1
1
1
1
1
1
1
1
1
1
1
1
1
1
1
1
1
1
1
1
1
1
1
1
1
1
1
1
1
1
1
1
1
1
1
0.999995
0.999995
0.999963
0.999983
0.999748
1.00035
1.00022
1.00622
1.00477
1.03251
0.946961
1.08077
1.15219
1.46189
1
1
1
1
1
1
1
1
1
1
1
1
1
1
1
1
1
1
1
1
1
1
1
1
1
1
1
1
1
1
1
1
1
1
1
1
0.999999
0.999998
0.999991
0.999996
0.99994
1.0001
1.00004
1.00139
1.00046
1.00847
0.987706
1.03099
1.03937
1.2989
1
1
1
1
1
1
1
1
1
1
1
1
1
1
1
1
1
1
1
1
1
1
1
1
1
1
1
1
1
1
1
1
1
1
1
1
0.999999
0.999999
0.999996
0.999993
0.999978
0.999987
0.999908
1.00021
0.998616
1.0049
0.981381
1.02463
1.03186
1.30815
1
1
1
1
1
1
1
1
1
1
1
1
1
1
1
1
1
1
1
1
1
1
1
1
1
1
1
1
1
1
1
1
1
1
1
1
1
1
0.999998
1.00001
0.999976
0.999995
0.999796
0.999908
0.998843
1.00376
0.97295
1.03332
1.0247
1.30574
1
1
1
1
1
1
1
1
1
1
1
1
1
1
1
1
1
1
1
1
1
1
1
1
1
1
1
1
1
1
1
1
1
1
1
1
1
0.999999
0.999997
0.999995
0.999981
0.999981
0.999871
1.00006
0.998976
1.00376
0.973827
1.0325
1.0234
1.29565
1
1
1
1
1
1
1
1
1
1
1
1
1
1
1
1
1
1
1
1
1
1
1
1
1
1
1
1
1
1
1
1
1
1
1
1
1
1
1.00001
1.00001
1.00007
1.00006
1.00039
1.00043
1.00219
1.00144
1.01255
0.999291
1.07202
1.09724
1
1
1
1
1
1
1
1
1
1
1
1
1
1
1
1
1
1
1
1
1
1
1
1
1
1
1
1
1
1
1
1
1
1
1
1
1
1
1.00001
1.00001
1.00007
1.00006
1.00037
1.00041
1.00202
1.00152
1.01143
1.00184
1.06347
1.08329
1
1
1
1
1
1
1
1
1
1
1
1
1
1
1
1
1
1
1
1
1
1
1
1
1
1
1
1
1
1
1
1
1
1
1
1
1
1
1
1
0.999998
1.00002
0.999944
1.00019
0.999101
1.00362
0.977243
1.03029
1.0223
1.26738
1
1
1
1
1
1
1
1
1
1
1
1
1
1
1
1
1
1
1
1
1
1
1
1
1
1
1
1
1
1
1
1
1
1
1
1
1
1
1.00001
1.00001
1.00007
1.00006
1.00037
1.00039
1.0021
1.00141
1.01113
0.99866
1.06188
1.08666
1.94895
1.90975
2.17263
2.87925
3.39648
3.09034
2.81045
2.73331
2.73064
2.75174
2.7614
2.76428
2.76675
2.76832
2.76774
2.76545
2.7627
2.752
2.74061
2.73297
2.72151
2.7165
2.71217
2.71234
2.71763
2.73432
2.76047
2.78916
2.82331
2.849
2.87535
2.89422
2.9079
2.92307
2.93027
2.93529
2.93649
2.93661
2.92886
2.92743
2.92008
2.91603
2.90626
2.90123
2.89008
2.8842
2.87149
2.8647
2.8509
2.84315
2.83074
2.82062
2.80915
2.7989
2.78655
2.77715
2.76419
2.75554
2.74178
2.73303
2.71875
2.70971
2.69534
2.68616
2.67206
2.66295
2.6494
2.64031
2.62739
2.61841
2.60586
2.59734
2.5849
2.57682
2.56458
2.55678
2.54481
2.53739
2.52567
2.51868
2.50726
2.50066
2.48955
2.48326
2.47259
2.46632
2.45623
2.44992
2.44031
2.434
2.42452
2.41844
2.40889
2.40316
2.39363
2.38854
2.3795
2.37581
2.36932
2.36969
1.96773
1.91706
2.05868
2.41039
2.88963
3.09556
3.16178
3.14489
3.08796
3.00581
2.96196
2.96556
2.97942
2.97916
2.97614
2.97855
2.97721
2.96064
2.94616
2.93896
2.92863
2.92269
2.92015
2.91944
2.92047
2.92693
2.93466
2.94328
2.95186
2.95653
2.9584
2.95044
2.93793
2.93233
2.91386
2.90644
2.88884
2.87911
2.85911
2.85052
2.83227
2.82262
2.80357
2.79384
2.7763
2.76599
2.74821
2.73684
2.7191
2.7083
2.69152
2.68051
2.66448
2.6525
2.6374
2.62527
2.61097
2.59894
2.58486
2.57323
2.55909
2.54796
2.53409
2.52315
2.51012
2.49881
2.48688
2.47494
2.46393
2.45151
2.44116
2.42852
2.41873
2.40611
2.3967
2.38442
2.3751
2.36343
2.35401
2.34308
2.33353
2.32338
2.31374
2.30431
2.29473
2.28581
2.27634
2.2678
2.2585
2.25038
2.24124
2.23364
2.22459
2.21763
2.20867
2.20257
2.19401
2.18951
2.18297
2.18248
2.02656
1.96555
1.96082
2.05786
2.25785
2.52749
2.68244
2.79215
2.87636
2.90788
2.91266
2.92418
2.95176
2.9875
3.0206
3.04795
3.06156
3.05942
3.0567
3.06147
3.07491
3.08831
3.08857
3.08215
3.07853
3.06782
3.05375
3.02266
2.99254
2.96489
2.92213
2.89142
2.85972
2.84019
2.81578
2.80338
2.78283
2.77007
2.75302
2.7417
2.72584
2.71539
2.70042
2.69072
2.67702
2.66802
2.65432
2.64408
2.6298
2.61912
2.60607
2.59466
2.58269
2.57018
2.55949
2.5458
2.53617
2.52157
2.5127
2.49777
2.48927
2.47449
2.46602
2.45182
2.44336
2.42986
2.42158
2.40856
2.40034
2.38753
2.37903
2.3663
2.35741
2.345
2.33551
2.32401
2.31375
2.30335
2.29245
2.28287
2.27165
2.26257
2.25121
2.24254
2.23127
2.223
2.21209
2.20424
2.19355
2.18625
2.1758
2.16906
2.15901
2.15281
2.14335
2.13786
2.12929
2.12537
2.1191
2.11965
2.0456
1.98633
1.94119
1.95055
2.01826
2.15474
2.28096
2.42568
2.51063
2.57307
2.65995
2.70983
2.73001
2.76446
2.81577
2.88229
2.93962
2.98114
3.00931
3.032
3.05495
3.0735
3.08569
3.08947
3.08434
3.05565
3.00108
2.94032
2.88653
2.84206
2.80659
2.77961
2.75832
2.74042
2.72549
2.71231
2.69754
2.68606
2.67268
2.66167
2.64769
2.63664
2.62329
2.61282
2.60075
2.5908
2.58032
2.56899
2.55802
2.54506
2.53512
2.52176
2.51285
2.49961
2.4914
2.4785
2.47001
2.45719
2.44772
2.43478
2.42463
2.41167
2.4013
2.38863
2.3779
2.36591
2.35454
2.3435
2.33152
2.32145
2.3091
2.29956
2.28711
2.27765
2.26536
2.2559
2.24393
2.23474
2.22295
2.21407
2.20215
2.1933
2.18131
2.17252
2.1604
2.15196
2.13986
2.13195
2.12
2.11256
2.10091
2.09357
2.08263
2.07504
2.06506
2.05751
2.04855
2.04193
2.03519
2.03196
2.07058
2.0018
1.9495
1.92099
1.92756
1.98376
2.0642
2.16066
2.24974
2.32957
2.37777
2.44213
2.50457
2.54637
2.58427
2.63645
2.69394
2.75057
2.80343
2.84786
2.88156
2.90556
2.92041
2.92576
2.91666
2.88532
2.83803
2.78145
2.74091
2.70877
2.6843
2.66754
2.6539
2.64147
2.6294
2.61857
2.60857
2.59949
2.59113
2.58268
2.57256
2.56248
2.55136
2.54131
2.53057
2.52039
2.50992
2.49855
2.48751
2.47474
2.46421
2.4516
2.44153
2.429
2.41931
2.40798
2.39886
2.38904
2.37916
2.36974
2.35807
2.34889
2.3366
2.32848
2.31699
2.30997
2.29908
2.29208
2.2809
2.27313
2.26151
2.25336
2.24188
2.23389
2.2227
2.21465
2.20365
2.19514
2.18443
2.17558
2.16555
2.15663
2.14711
2.13797
2.12843
2.11892
2.10909
2.09953
2.08968
2.08047
2.07095
2.06207
2.05296
2.0442
2.03541
2.02692
2.01864
2.0112
2.0047
2.00082
2.09225
2.02792
1.97021
1.92607
1.9062
1.91205
1.94704
2.01261
2.08501
2.13897
2.19934
2.24951
2.29995
2.34457
2.38785
2.433
2.4748
2.5245
2.57585
2.62317
2.6689
2.71202
2.73768
2.76895
2.76639
2.74747
2.70137
2.65362
2.60375
2.57574
2.54706
2.53036
2.52368
2.52123
2.51888
2.51433
2.50622
2.4968
2.48957
2.48221
2.47609
2.46807
2.46046
2.45194
2.44468
2.43764
2.4305
2.42219
2.41291
2.40316
2.39366
2.38456
2.37528
2.36602
2.3555
2.34568
2.33428
2.32566
2.31502
2.30785
2.29689
2.28899
2.27657
2.26775
2.25532
2.24702
2.23575
2.22825
2.21756
2.21019
2.19917
2.19146
2.18006
2.17222
2.16107
2.15359
2.14305
2.13599
2.12578
2.11886
2.10854
2.10148
2.09107
2.08387
2.07371
2.06628
2.05661
2.04852
2.03934
2.03036
2.02165
2.01216
2.00389
1.99452
1.98654
1.97755
1.9699
1.9615
1.95526
1.94977
2.10559
2.04413
1.9917
1.94211
1.90702
1.8949
1.89968
1.92497
1.98128
2.0342
2.07011
2.1166
2.16554
2.19842
2.23398
2.26658
2.30543
2.34104
2.38549
2.42947
2.47495
2.5182
2.55726
2.60475
2.62134
2.60809
2.56816
2.5142
2.47074
2.43536
2.40409
2.38917
2.38532
2.39331
2.40258
2.40752
2.40743
2.40576
2.40235
2.39864
2.39597
2.39123
2.38605
2.37844
2.3707
2.36347
2.35804
2.35286
2.34618
2.3384
2.32928
2.32182
2.31326
2.30702
2.29837
2.29222
2.28246
2.27603
2.26584
2.25993
2.25029
2.24469
2.23486
2.2285
2.21788
2.21097
2.20048
2.19393
2.18426
2.17798
2.16863
2.16187
2.15225
2.14468
2.1349
2.12702
2.11772
2.11019
2.10148
2.09428
2.08588
2.07837
2.07019
2.06183
2.05412
2.04504
2.03798
2.02862
2.02183
2.01235
2.00532
1.99567
1.98834
1.97849
1.97132
1.96159
1.955
1.94611
1.94071
1.93516
2.11934
2.06123
2.00632
1.95606
1.91413
1.88635
1.88025
1.8846
1.90585
1.94984
1.99579
2.0271
2.06555
2.10157
2.12709
2.15205
2.18216
2.21053
2.24824
2.28557
2.32689
2.37445
2.426
2.48792
2.51536
2.50293
2.46271
2.41595
2.37244
2.33134
2.30698
2.28868
2.27817
2.28306
2.29499
2.30958
2.31795
2.32248
2.32482
2.32694
2.326
2.32417
2.32169
2.31708
2.3117
2.3068
2.30237
2.29959
2.29466
2.28962
2.28142
2.27453
2.2658
2.25951
2.25127
2.2456
2.23693
2.23079
2.22121
2.21492
2.20545
2.19956
2.19024
2.18392
2.1739
2.16662
2.15622
2.1487
2.13899
2.13196
2.1231
2.11643
2.10759
2.10073
2.09156
2.0843
2.07518
2.06752
2.05914
2.05104
2.04362
2.03508
2.02832
2.0195
2.01306
2.00422
1.99799
1.98928
1.98333
1.97475
1.96892
1.96029
1.95426
1.94552
1.93905
1.93048
1.92376
1.91603
1.91024
1.90564
2.13831
2.08319
2.02968
1.9787
1.92969
1.89225
1.86824
1.86523
1.86911
1.88701
1.92074
1.96093
1.99199
2.01888
2.0497
2.06692
2.09587
2.116
2.15036
2.18343
2.22211
2.27657
2.34806
2.42286
2.44771
2.43022
2.39084
2.34858
2.2961
2.25103
2.22223
2.20005
2.18936
2.1823
2.18948
2.20397
2.2218
2.2384
2.24756
2.25428
2.25764
2.25925
2.25839
2.25662
2.25412
2.25103
2.24786
2.24621
2.2431
2.2404
2.23477
2.23001
2.22242
2.21746
2.21011
2.20587
2.19871
2.19437
2.18655
2.1813
2.1727
2.1668
2.15809
2.15205
2.14343
2.13722
2.1284
2.12193
2.11294
2.10629
2.09745
2.09052
2.08211
2.07478
2.06686
2.05902
2.05155
2.04343
2.03636
2.02827
2.02155
2.01364
2.00726
1.99935
1.99325
1.98502
1.97913
1.97045
1.9647
1.95578
1.95016
1.94138
1.93584
1.9275
1.92191
1.91428
1.90856
1.90202
1.89695
1.89348
2.14162
2.09834
2.05102
2.00348
1.95806
1.91354
1.87855
1.85632
1.85564
1.85903
1.87323
1.90183
1.93746
1.95875
1.98235
2.00177
2.0246
2.04939
2.07004
2.11081
2.14749
2.22107
2.31245
2.38711
2.39754
2.37305
2.33883
2.29077
2.23902
2.19316
2.1599
2.14139
2.12668
2.12383
2.12488
2.13353
2.14931
2.16752
2.18521
2.20197
2.21213
2.21877
2.2211
2.22093
2.21906
2.21668
2.21323
2.21119
2.20885
2.20686
2.20256
2.199
2.1916
2.18628
2.17785
2.17236
2.16396
2.15862
2.15018
2.14468
2.13597
2.13001
2.12136
2.1152
2.10709
2.10083
2.09311
2.08642
2.0786
2.07122
2.06327
2.05554
2.04772
2.04006
2.03245
2.02498
2.01749
2.01004
2.00267
1.99504
1.98805
1.98018
1.97387
1.96587
1.96027
1.95226
1.94708
1.93915
1.934
1.92625
1.92091
1.91352
1.90797
1.90118
1.89547
1.88959
1.88385
1.87922
1.87421
1.87255
2.1387
2.1006
2.05975
2.0176
1.97516
1.93609
1.89748
1.87
1.84827
1.84984
1.85449
1.86667
1.89489
1.91944
1.93914
1.95641
1.97423
2.00079
2.02092
2.05844
2.11326
2.20263
2.30939
2.35832
2.35585
2.33005
2.29306
2.24867
2.20108
2.16298
2.13158
2.10838
2.09406
2.08889
2.08817
2.08684
2.09153
2.10158
2.11812
2.13591
2.15339
2.16494
2.17172
2.17393
2.17438
2.1731
2.17042
2.16861
2.16561
2.1636
2.15922
2.1561
2.14976
2.14553
2.13771
2.13267
2.12468
2.11946
2.11133
2.10569
2.09746
2.09146
2.0834
2.07717
2.06946
2.06312
2.05572
2.04927
2.04188
2.03515
2.02763
2.02058
2.01302
2.00577
1.99844
1.99109
1.9842
1.97672
1.97034
1.96259
1.95659
1.94849
1.94276
1.93457
1.92908
1.92129
1.91599
1.90897
1.9037
1.89753
1.89208
1.88664
1.88089
1.87609
1.87013
1.86603
1.86003
1.85685
1.85183
1.8514
2.1409
2.10214
2.06727
2.02674
1.98877
1.94973
1.9151
1.88169
1.8589
1.84128
1.84426
1.84988
1.86297
1.88612
1.91513
1.92849
1.94491
1.96964
2.00108
2.04463
2.12331
2.23844
2.32739
2.34024
2.32927
2.30412
2.26816
2.22492
2.18469
2.15065
2.12006
2.09485
2.07664
2.06602
2.05726
2.0556
2.05167
2.05457
2.06199
2.076
2.09196
2.10899
2.12156
2.12945
2.13309
2.13443
2.13289
2.13121
2.1282
2.12645
2.12281
2.12019
2.11465
2.11131
2.10448
2.09992
2.09205
2.08692
2.07913
2.07374
2.06611
2.06037
2.05287
2.04674
2.03922
2.03264
2.02501
2.01803
2.01052
2.00334
1.99605
1.98878
1.98177
1.97449
1.9677
1.96042
1.95374
1.94647
1.93987
1.9327
1.92617
1.91916
1.91265
1.90578
1.89926
1.89257
1.88614
1.87984
1.87367
1.868
1.86219
1.8573
1.85177
1.84781
1.84232
1.83919
1.83368
1.83159
1.82738
1.82767
2.1379
2.10607
2.0699
2.03544
1.99882
1.96238
1.92812
1.89603
1.86747
1.84792
1.83613
1.83881
1.8445
1.85846
1.88054
1.91374
1.9356
1.95768
1.99827
2.06775
2.18144
2.29827
2.33672
2.33383
2.32016
2.29275
2.25331
2.21452
2.17996
2.14892
2.12018
2.09364
2.0728
2.05365
2.03988
2.03111
2.02527
2.0233
2.02267
2.02663
2.03577
2.04995
2.06684
2.08052
2.08978
2.09461
2.09597
2.09524
2.09283
2.09134
2.08835
2.0861
2.08119
2.07789
2.07122
2.06677
2.05954
2.05476
2.04768
2.04276
2.03589
2.03069
2.02376
2.01793
2.01061
2.00408
1.99654
1.98962
1.9821
1.975
1.96778
1.96079
1.95405
1.94722
1.94072
1.93382
1.92724
1.92014
1.91344
1.90624
1.89966
1.89262
1.88634
1.87965
1.87362
1.86738
1.8614
1.8557
1.84964
1.84464
1.83842
1.83427
1.82798
1.82451
1.81834
1.8154
1.81017
1.80828
1.80539
1.8062
2.13619
2.10621
2.0746
2.04078
2.00538
1.97367
1.938
1.90846
1.87724
1.85412
1.83629
1.8306
1.83364
1.84111
1.85857
1.88401
1.92631
1.96355
2.02172
2.13836
2.26735
2.34369
2.34559
2.33737
2.31633
2.28355
2.24608
2.21296
2.18378
2.15302
2.12368
2.09487
2.07142
2.04881
2.03156
2.01565
2.00586
1.99802
1.9956
1.99159
1.99303
1.99935
2.0112
2.02571
2.03936
2.04967
2.05675
2.06024
2.06166
2.06065
2.05861
2.05701
2.05333
2.05046
2.04472
2.04072
2.03444
2.03014
2.02379
2.01905
2.01237
2.007
2.00005
1.99419
1.98707
1.98096
1.97392
1.96771
1.96077
1.95437
1.94747
1.94088
1.93409
1.92744
1.92077
1.91408
1.9074
1.90056
1.89378
1.88681
1.87999
1.87308
1.86642
1.8599
1.85354
1.84769
1.84163
1.83661
1.83079
1.82666
1.82106
1.81773
1.81208
1.80931
1.80391
1.80185
1.79766
1.79654
1.79532
1.79549
2.13471
2.10594
2.0782
2.04724
2.01424
1.9803
1.95014
1.91692
1.88927
1.86181
1.84067
1.82689
1.8289
1.83415
1.8465
1.87272
1.91198
1.97962
2.07756
2.22002
2.33411
2.35119
2.3466
2.33243
2.30881
2.27542
2.24596
2.21643
2.18681
2.15509
2.12509
2.09694
2.07128
2.04787
2.02679
2.00812
1.99286
1.98021
1.97156
1.9662
1.96468
1.96283
1.96677
1.97617
1.98936
2.00371
2.01576
2.02495
2.03005
2.03217
2.03157
2.03041
2.02816
2.02613
2.02193
2.01825
2.01255
2.00808
2.00197
1.99708
1.99061
1.98518
1.97826
1.97236
1.96535
1.95943
1.95263
1.94676
1.94016
1.93422
1.92771
1.92156
1.91503
1.90862
1.90199
1.89538
1.88871
1.88206
1.87546
1.86888
1.86239
1.85597
1.8496
1.84351
1.83726
1.83172
1.8256
1.82079
1.81484
1.81091
1.80498
1.80172
1.79621
1.79358
1.78957
1.78767
1.78578
1.78599
1.78638
1.78636
2.13145