/*--------------------------------*- C++ -*----------------------------------*\
| =========                 |                                                 |
| \\      /  F ield         | OpenFOAM: The Open Source CFD Toolbox           |
|  \\    /   O peration     | Version:  2112                                  |
|   \\  /    A nd           | Website:  www.openfoam.com                      |
|    \\/     M anipulation  |                                                 |
\*---------------------------------------------------------------------------*/
FoamFile
{
    version     2.0;
    format      ascii;
    arch        "LSB;label=32;scalar=64";
    class       volVectorField;
    location    "4.0005";
    object      U;
}
// * * * * * * * * * * * * * * * * * * * * * * * * * * * * * * * * * * * * * //

dimensions      [0 1 -1 0 0 0 0];

internalField   nonuniform List<vector> 
7000
(
(3 -5.80427e-07 0.000805021)
(3 -1.36445e-06 0.000764326)
(3 -1.91753e-06 0.000723861)
(3 -2.17055e-06 0.000683627)
(3 -1.88999e-06 0.000643625)
(3 -1.58592e-06 0.000603867)
(3 -1.29133e-06 0.000564355)
(3 -1.11136e-06 0.000525162)
(2.99999 -6.19566e-07 0.000486162)
(2.99998 -1.05115e-06 0.000447739)
(2.99994 -2.36234e-06 0.000410104)
(2.99981 -5.21255e-06 0.000374863)
(2.99956 -8.7163e-06 0.000341233)
(2.99884 -2.30416e-05 0.000321092)
(2.99763 -2.37115e-05 0.000304046)
(2.99335 -9.02758e-05 0.000387362)
(2.98805 7.77167e-05 0.000410621)
(2.95246 -0.000119466 0.00155849)
(2.89557 -0.00217292 0.00228352)
(2.6858 0.000500669 0.00859939)
(2.01159 -0.0130265 0.017564)
(1.04698 -0.0057585 0.0221032)
(0.414242 -0.0161505 0.00753907)
(0.588084 -0.0124833 -0.00240275)
(0.708999 -0.00767302 -0.00195116)
(0.728346 -0.00577406 -0.000697657)
(0.704674 -0.005372 -0.00023786)
(0.667319 -0.00516474 -0.000190555)
(0.634251 -0.00483275 -0.000380366)
(0.610722 -0.00408574 -0.000633227)
(0.590244 -0.00318754 -0.000805682)
(0.568606 -0.00228352 -0.000931337)
(0.545301 -0.00135275 -0.00105385)
(0.521004 -0.000350866 -0.00118654)
(0.496085 0.000732319 -0.00132583)
(0.470486 0.0018838 -0.00146848)
(0.444063 0.00308656 -0.00161271)
(0.416656 0.00432346 -0.00176103)
(0.388227 0.00558364 -0.00191065)
(0.358803 0.00685234 -0.00206414)
(0.328355 0.00812004 -0.00221959)
(0.296992 0.00938279 -0.00237728)
(0.264803 0.0106385 -0.00253746)
(0.231765 0.0118938 -0.00270082)
(0.19811 0.013146 -0.00286288)
(0.163931 0.0143665 -0.00302912)
(0.129342 0.0154818 -0.00319329)
(0.0951822 0.0164076 -0.00335813)
(0.0575955 0.0180665 -0.00351879)
(0.0295191 0.0240436 -0.00368382)
(3 -6.00419e-07 0.000777211)
(3 -1.39704e-06 0.00073787)
(3 -1.91624e-06 0.000698757)
(3 -2.10958e-06 0.000659871)
(3 -1.70649e-06 0.000621219)
(3 -1.28895e-06 0.000582808)
(3 -9.0268e-07 0.000544639)
(3 -6.46455e-07 0.000506778)
(2.99999 1.21835e-07 0.00046912)
(2.99998 -6.73409e-07 0.000432023)
(2.99994 -3.09293e-06 0.000395668)
(2.99981 -6.64593e-06 0.000361575)
(2.99957 -1.15658e-05 0.000329008)
(2.99887 -2.39095e-05 0.000308671)
(2.99771 -2.9716e-05 0.000290715)
(2.9936 -4.213e-05 0.000362047)
(2.98892 -6.46708e-05 0.000356038)
(2.95322 -0.000517413 0.00151078)
(2.90252 -0.000368614 0.001997)
(2.69853 0.00358247 0.00812976)
(2.05339 0.00594639 0.0162809)
(1.10006 0.0381222 0.021751)
(0.466943 0.0131606 0.00767115)
(0.620401 0.0152143 -0.00217953)
(0.736979 0.021783 -0.00190464)
(0.754776 0.0246152 -0.000681463)
(0.730246 0.0253895 -0.000232185)
(0.691984 0.0253975 -0.000183532)
(0.657396 0.0256202 -0.000362765)
(0.63183 0.0262758 -0.000605411)
(0.609076 0.0269431 -0.00077062)
(0.585183 0.0274849 -0.00089131)
(0.559732 0.0280075 -0.00100918)
(0.533425 0.0286252 -0.0011364)
(0.506671 0.0293735 -0.0012698)
(0.479463 0.030258 -0.00140626)
(0.451697 0.0312668 -0.0015444)
(0.423234 0.0323936 -0.00168593)
(0.394019 0.0336226 -0.00182899)
(0.36404 0.0349386 -0.00197534)
(0.333221 0.0363047 -0.00212385)
(0.301615 0.0376984 -0.00227365)
(0.269252 0.0390788 -0.00242602)
(0.236053 0.0404089 -0.00258106)
(0.202158 0.0416702 -0.00273561)
(0.167551 0.0428231 -0.00289414)
(0.132097 0.0438534 -0.00305036)
(0.0965323 0.0447318 -0.00320711)
(0.0565267 0.0465813 -0.00336327)
(0.0261243 0.0524151 -0.00351482)
(3 -2.97759e-08 0.000748287)
(3 -8.59787e-08 0.00071036)
(3 -1.19672e-07 0.000672657)
(3 -1.64923e-07 0.000635179)
(3 -9.3208e-08 0.000597931)
(3 -1.33982e-08 0.000560922)
(3 5.46645e-08 0.00052415)
(3 3.63101e-09 0.000487678)
(2.99999 8.83242e-07 0.000451417)
(2.99998 -4.728e-08 0.000415707)
(2.99994 -3.20486e-06 0.000380691)
(2.99981 -9.26982e-06 0.000347863)
(2.99957 -1.87521e-05 0.000316468)
(2.99887 -3.87623e-05 0.000296869)
(2.99773 -7.54369e-05 0.000278471)
(2.99351 -0.000111352 0.000350015)
(2.98865 -0.000606644 0.00034084)
(2.95404 -0.00294619 0.00142268)
(2.90396 0.00183632 0.00188159)
(2.70454 -0.00838078 0.00762204)
(2.08626 0.000306055 0.0151332)
(1.12158 0.0210161 0.0217628)
(0.456513 -0.0119824 0.00756166)
(0.618495 0.000538823 -0.00220678)
(0.737149 0.0128651 -0.001853)
(0.754773 0.01812 -0.000645699)
(0.730296 0.0206023 -0.000215382)
(0.692679 0.02165 -0.000174097)
(0.659159 0.0235753 -0.000350766)
(0.634429 0.0262149 -0.000581056)
(0.612236 0.0288413 -0.000737276)
(0.588768 0.031266 -0.000852837)
(0.563647 0.0336471 -0.000966211)
(0.537538 0.0361286 -0.00108841)
(0.510837 0.0387601 -0.00121585)
(0.483559 0.0415375 -0.0013463)
(0.455633 0.0444586 -0.00147778)
(0.426956 0.0475022 -0.00161281)
(0.397507 0.0506678 -0.00174857)
(0.367287 0.0539168 -0.00188823)
(0.336239 0.0572218 -0.00202879)
(0.304414 0.0605193 -0.00217174)
(0.271836 0.0637804 -0.00231553)
(0.238406 0.0669182 -0.00246337)
(0.204245 0.0699375 -0.00261001)
(0.169288 0.0727813 -0.00276058)
(0.133312 0.0754989 -0.00290932)
(0.0971501 0.0782423 -0.00305641)
(0.0566037 0.0820226 -0.00320542)
(0.0247946 0.0896914 -0.00335108)
(3 9.80958e-09 0.000718202)
(3 3.99386e-08 0.00068175)
(3 1.06752e-07 0.000645518)
(3 1.05721e-07 0.000609508)
(3 1.38229e-07 0.000573724)
(3 1.62083e-07 0.000538174)
(3 1.64926e-07 0.000502858)
(3 -1.91156e-08 0.000467827)
(2.99999 1.61035e-06 0.000433018)
(2.99998 1.02752e-06 0.000398749)
(2.99994 -1.30635e-06 0.000365125)
(2.99981 -7.62694e-06 0.000333585)
(2.99958 -1.01331e-05 0.00030337)
(2.99888 -2.38e-05 0.000284581)
(2.99778 5.11231e-06 0.000266003)
(2.99351 3.86127e-05 0.000340206)
(2.98822 7.92174e-05 0.000355844)
(2.95646 -0.00107682 0.00125405)
(2.90507 0.00295271 0.00185186)
(2.71351 -0.00275375 0.00699278)
(2.1247 -0.00318792 0.0139247)
(1.15482 0.0164019 0.0217251)
(0.464353 0.00372479 0.00750671)
(0.621495 0.0268942 -0.00207222)
(0.73605 0.0400478 -0.00174258)
(0.75075 0.0433473 -0.000596493)
(0.724479 0.0442765 -0.000199553)
(0.685729 0.0444974 -0.000168298)
(0.651606 0.0462613 -0.000342318)
(0.626096 0.0488599 -0.000557704)
(0.603137 0.0514061 -0.000704387)
(0.579175 0.0537554 -0.000815073)
(0.553893 0.0561316 -0.000924418)
(0.527896 0.058686 -0.00104154)
(0.501508 0.0614882 -0.00116336)
(0.474703 0.0645219 -0.00128761)
(0.447373 0.0678099 -0.00141308)
(0.419392 0.0713218 -0.00154126)
(0.390704 0.0750779 -0.00167051)
(0.361281 0.0790314 -0.00180241)
(0.331035 0.0831613 -0.00193604)
(0.300003 0.0874066 -0.0020701)
(0.268167 0.0917276 -0.00220712)
(0.23543 0.0960673 -0.0023452)
(0.201864 0.100394 -0.00248487)
(0.167388 0.104677 -0.00262633)
(0.131796 0.108959 -0.00276712)
(0.0960225 0.113381 -0.00290683)
(0.0561817 0.118796 -0.00304433)
(0.0240955 0.127759 -0.00317915)
(3 4.86589e-08 0.000686908)
(3 1.63006e-07 0.000651993)
(3 4.76361e-07 0.000617296)
(3 6.59903e-07 0.000582816)
(3 8.50837e-07 0.000548558)
(3 1.02323e-06 0.000514529)
(3 1.23891e-06 0.00048073)
(3 1.29013e-06 0.000447196)
(2.99999 5.42551e-06 0.000413901)
(2.99998 2.15441e-06 0.000381131)
(2.99994 -5.84751e-07 0.000348961)
(2.99981 -3.70777e-05 0.000318681)
(2.99958 -3.69022e-05 0.000289675)
(2.99892 -0.00018611 0.000270921)
(2.99788 -8.91502e-05 0.000251848)
(2.99378 -0.000519295 0.000319407)
(2.98892 0.000645095 0.000325751)
(2.9577 0.00347326 0.00118266)
(2.90935 0.00166166 0.00167676)
(2.71923 0.00955702 0.00666615)
(2.14305 -0.0118855 0.0130055)
(1.17114 -0.00544655 0.0214011)
(0.445174 -0.00429975 0.00733708)
(0.607136 0.0282794 -0.00196615)
(0.720596 0.0436374 -0.00159803)
(0.73499 0.0476463 -0.000541672)
(0.709709 0.0496904 -0.000190746)
(0.672226 0.0516473 -0.000169048)
(0.639373 0.0552326 -0.000336063)
(0.614471 0.0593965 -0.000534673)
(0.591744 0.0633293 -0.000671664)
(0.567955 0.0669843 -0.000777722)
(0.542872 0.0706281 -0.000882901)
(0.517083 0.0744226 -0.000994792)
(0.490904 0.0784498 -0.00111096)
(0.464338 0.0827174 -0.0012289)
(0.437305 0.0872471 -0.00134846)
(0.409702 0.0920351 -0.00146968)
(0.38149 0.0970809 -0.00159249)
(0.352634 0.102375 -0.00171673)
(0.323046 0.107862 -0.00184306)
(0.292743 0.113518 -0.00196924)
(0.261688 0.119282 -0.00209795)
(0.229756 0.125096 -0.00222836)
(0.197006 0.130955 -0.00235793)
(0.163321 0.136807 -0.00249204)
(0.128515 0.142743 -0.00262196)
(0.0935326 0.148878 -0.00275306)
(0.054688 0.15588 -0.00288495)
(0.0231338 0.165955 -0.0030122)
(3 4.51763e-08 0.00065435)
(3 1.83496e-07 0.000621041)
(3 5.38247e-07 0.000587944)
(3 8.17721e-07 0.00055506)
(3 1.12149e-06 0.000522392)
(3 1.42664e-06 0.000489948)
(3 1.82111e-06 0.000457729)
(3 2.23519e-06 0.000425735)
(2.99999 5.70891e-06 0.000394068)
(2.99998 1.79736e-06 0.000362849)
(2.99992 -1.38004e-06 0.000332453)
(2.9998 -4.18335e-05 0.00030307)
(2.99951 -4.62064e-05 0.000276124)
(2.99889 -0.000278128 0.000255067)
(2.99769 -0.000223767 0.000235518)
(2.99416 -0.00192949 0.000279649)
(2.99162 0.000652395 0.000252169)
(2.95903 0.00455907 0.0011735)
(2.91584 0.00307654 0.00146336)
(2.7256 0.00983775 0.00647584)
(2.14723 -0.00837834 0.012278)
(1.18595 -0.0070542 0.0205329)
(0.434773 0.0132857 0.0070948)
(0.591251 0.046719 -0.00175835)
(0.700351 0.0596224 -0.00142742)
(0.713632 0.0626722 -0.000486428)
(0.689134 0.0646352 -0.000184046)
(0.652841 0.0674633 -0.000169519)
(0.621211 0.0716522 -0.000326116)
(0.597138 0.0761841 -0.000507733)
(0.575147 0.0805202 -0.000636276)
(0.552168 0.084702 -0.000737415)
(0.527947 0.0889393 -0.000838502)
(0.502995 0.0933871 -0.000944658)
(0.477594 0.0980995 -0.00105526)
(0.451742 0.103125 -0.00116687)
(0.425375 0.108466 -0.00128043)
(0.398413 0.114157 -0.0013952)
(0.37085 0.120181 -0.00151119)
(0.342655 0.126549 -0.001629)
(0.313768 0.133208 -0.00174714)
(0.284211 0.140119 -0.00186677)
(0.253926 0.147248 -0.00198646)
(0.222815 0.154497 -0.00210918)
(0.190919 0.161857 -0.00223123)
(0.158143 0.169291 -0.00235432)
(0.124303 0.176823 -0.00247833)
(0.0904511 0.18457 -0.00259853)
(0.0529179 0.193092 -0.00271885)
(0.0221695 0.204304 -0.00283591)
(3 2.63606e-08 0.000620474)
(3 2.16391e-07 0.00058884)
(3 5.48588e-07 0.000557414)
(3 9.30514e-07 0.000526194)
(3 1.30386e-06 0.000495185)
(3 1.66125e-06 0.000464393)
(3 2.02095e-06 0.000433819)
(3 2.42329e-06 0.000403462)
(2.99999 2.92903e-06 0.000373438)
(2.99998 1.61146e-06 0.000343832)
(2.99992 4.22297e-07 0.000315153)
(2.9998 -4.76754e-06 0.000287281)
(2.99946 -3.13355e-06 0.000263798)
(2.99885 -7.40005e-05 0.000242879)
(2.99697 -4.81243e-05 0.00025149)
(2.99449 -0.00115207 0.000241168)
(2.99392 0.000488535 0.000153651)
(2.96094 0.000676886 0.00112136)
(2.91943 0.00306546 0.00135434)
(2.73239 0.00388112 0.00604632)
(2.16609 -0.00297466 0.0114122)
(1.21585 -0.000878894 0.0195813)
(0.453065 0.0268662 0.00684693)
(0.592424 0.0595556 -0.00151125)
(0.693285 0.0688489 -0.001268)
(0.704468 0.0722775 -0.000446655)
(0.679905 0.0754924 -0.000184623)
(0.643529 0.0804209 -0.000170979)
(0.61126 0.0857253 -0.000312075)
(0.586396 0.0909466 -0.000479867)
(0.563829 0.0960256 -0.00060119)
(0.540548 0.101091 -0.000697647)
(0.516245 0.106259 -0.000793411)
(0.491361 0.111661 -0.000894178)
(0.466135 0.117343 -0.000997929)
(0.440533 0.123359 -0.00110391)
(0.41448 0.129726 -0.00121002)
(0.387886 0.136463 -0.0013191)
(0.360749 0.143595 -0.00142696)
(0.333036 0.151103 -0.00153873)
(0.304683 0.158978 -0.00164903)
(0.275741 0.167157 -0.00176087)
(0.246117 0.175622 -0.00187424)
(0.215733 0.184304 -0.00198631)
(0.184634 0.193155 -0.0021015)
(0.152726 0.202118 -0.00221627)
(0.119841 0.211226 -0.00232812)
(0.0870351 0.220526 -0.00244295)
(0.050816 0.230466 -0.0025557)
(0.0211088 0.242761 -0.00266538)
(3 1.04597e-08 0.000585223)
(3 2.21915e-07 0.000555338)
(3 5.15094e-07 0.000525655)
(3 9.44543e-07 0.000496172)
(3 1.26176e-06 0.000466893)
(3 1.52996e-06 0.000437823)
(3 1.72724e-06 0.000408964)
(3 1.83901e-06 0.000380314)
(2.99999 1.73611e-06 0.000351989)
(2.99998 1.26293e-06 0.000324045)
(2.99992 2.22604e-06 0.000296953)
(2.99981 9.79406e-06 0.000270593)
(2.99949 2.45051e-05 0.000248266)
(2.99892 7.90329e-05 0.000227769)
(2.99713 0.000174366 0.000234356)
(2.9946 0.000517604 0.000229469)
(2.99363 0.000922325 0.000163134)
(2.96233 -0.000383468 0.000995552)
(2.92459 0.00358362 0.00117072)
(2.74045 0.00422008 0.00563001)
(2.18661 0.000224427 0.0105524)
(1.24652 0.00663238 0.0185546)
(0.470379 0.0429806 0.00658601)
(0.590493 0.0783641 -0.00123635)
(0.683703 0.0806024 -0.001104)
(0.695932 0.084136 -0.00042685)
(0.672898 0.0886543 -0.00018952)
(0.63704 0.0957878 -0.000169301)
(0.603991 0.101979 -0.000290618)
(0.578463 0.107601 -0.000449134)
(0.555526 0.113183 -0.000564986)
(0.532002 0.118901 -0.000656902)
(0.507523 0.124805 -0.000746678)
(0.482528 0.130975 -0.000841842)
(0.457251 0.137489 -0.000938984)
(0.431665 0.144377 -0.00103829)
(0.405674 0.151694 -0.00113793)
(0.379216 0.159423 -0.00123913)
(0.352275 0.167617 -0.00134119)
(0.324827 0.176241 -0.00144368)
(0.296804 0.185302 -0.00154826)
(0.268262 0.194763 -0.00165079)
(0.239127 0.204547 -0.0017577)
(0.209317 0.21461 -0.00186298)
(0.178873 0.224905 -0.00196697)
(0.147708 0.235365 -0.00207447)
(0.115706 0.245928 -0.00217981)
(0.083967 0.256679 -0.00228141)
(0.0489706 0.267944 -0.00238551)
(0.0201888 0.281238 -0.00248424)
(3 -5.76421e-09 0.000548536)
(3 2.20782e-07 0.000520478)
(3 4.71544e-07 0.000492613)
(3 9.5558e-07 0.000464943)
(3 1.21164e-06 0.000437468)
(3 1.39771e-06 0.000410195)
(3 1.47032e-06 0.000383125)
(3 1.37463e-06 0.000356255)
(2.99999 8.31524e-07 0.000329689)
(2.99998 1.05853e-06 0.000303469)
(2.99993 3.4232e-06 0.000278006)
(2.99982 1.5897e-05 0.000253189)
(2.99953 3.83011e-05 0.00023193)
(2.99901 0.000119816 0.000212203)
(2.99737 0.000251959 0.000214879)
(2.99509 0.000717143 0.000209241)
(2.99422 0.00162438 0.000161367)
(2.96445 0.0014689 0.000882749)
(2.92956 0.00506172 0.00101667)
(2.74927 0.00574033 0.00519278)
(2.21428 0.00454786 0.00960378)
(1.28999 0.0159907 0.0174301)
(0.502448 0.0620208 0.00631479)
(0.593044 0.0984547 -0.00091424)
(0.674083 0.09437 -0.000926253)
(0.690813 0.0977535 -0.000440654)
(0.670148 0.103162 -0.000202277)
(0.634536 0.111962 -0.000166091)
(0.599788 0.11891 -0.000262988)
(0.573313 0.125014 -0.000416334)
(0.550009 0.131193 -0.000528544)
(0.526256 0.137605 -0.000615158)
(0.501557 0.144278 -0.000699183)
(0.47639 0.151239 -0.000787765)
(0.450982 0.158595 -0.000879152)
(0.425315 0.166357 -0.000971059)
(0.399277 0.174596 -0.00106445)
(0.372813 0.183299 -0.00115756)
(0.345919 0.192512 -0.00125233)
(0.318566 0.202222 -0.00134742)
(0.290738 0.212418 -0.00144331)
(0.262419 0.22311 -0.00153961)
(0.23357 0.234206 -0.00163538)
(0.204143 0.245636 -0.00173473)
(0.174179 0.257306 -0.00183234)
(0.143588 0.269166 -0.00192819)
(0.112227 0.28114 -0.00202361)
(0.0812586 0.293222 -0.00212189)
(0.0472958 0.305681 -0.00221539)
(0.0193258 0.319874 -0.0023089)
(3 -7.43796e-09 0.000510349)
(3 2.0002e-07 0.000484198)
(3 4.41413e-07 0.000458233)
(3 8.97221e-07 0.000432455)
(3 1.17919e-06 0.000406864)
(3 1.35718e-06 0.000381463)
(3 1.42883e-06 0.000356258)
(3 1.34141e-06 0.000331244)
(2.99999 8.33868e-07 0.000306508)
(2.99998 1.47348e-06 0.000282084)
(2.99993 4.64137e-06 0.000258315)
(2.99984 1.93937e-05 0.00023513)
(2.99958 4.67893e-05 0.000214856)
(2.99912 0.000141365 0.000195793)
(2.99764 0.000311668 0.000196656)
(2.99563 0.000831441 0.000187099)
(2.99503 0.00186051 0.000133134)
(2.96655 0.00189027 0.00079507)
(2.9347 0.00596874 0.000886445)
(2.75936 0.0074964 0.00469962)
(2.24606 0.00841807 0.00863798)
(1.34228 0.0241618 0.0162084)
(0.542687 0.0813504 0.00604263)
(0.598101 0.112625 -0.000572516)
(0.665351 0.111823 -0.000754913)
(0.687864 0.115781 -0.000458606)
(0.670277 0.121236 -0.000215563)
(0.635077 0.129844 -0.000162167)
(0.598379 0.136996 -0.000234387)
(0.570873 0.143552 -0.000382738)
(0.547202 0.150307 -0.000491357)
(0.523222 0.15736 -0.000571962)
(0.498295 0.164746 -0.000650059)
(0.472932 0.172487 -0.000731643)
(0.447374 0.180671 -0.000816444)
(0.421579 0.189324 -0.000901146)
(0.395443 0.19849 -0.000987204)
(0.368902 0.208191 -0.00107308)
(0.341969 0.218443 -0.00115995)
(0.314595 0.229266 -0.00124763)
(0.286812 0.240607 -0.00133542)
(0.258601 0.252484 -0.00142456)
(0.229885 0.264828 -0.00151306)
(0.20066 0.277576 -0.00160047)
(0.170935 0.29062 -0.00169102)
(0.140691 0.30382 -0.00178144)
(0.109814 0.317063 -0.0018671)
(0.0794165 0.330384 -0.001952)
(0.0461706 0.343932 -0.00203998)
(0.0187258 0.358924 -0.00212157)
(3 2.17186e-09 0.000470595)
(3 1.71019e-07 0.000446438)
(3 4.22302e-07 0.000422457)
(3 7.99885e-07 0.000398653)
(3 1.17878e-06 0.000375027)
(3 1.44064e-06 0.000351581)
(3 1.65456e-06 0.00032832)
(3 1.20404e-06 0.00030524)
(2.99999 4.39937e-07 0.000282411)
(2.99998 5.37619e-07 0.000259861)
(2.99994 3.03855e-06 0.000237866)
(2.99986 1.42775e-05 0.000216361)
(2.99963 3.75185e-05 0.000197259)
(2.99924 0.000111172 0.000178774)
(2.99795 0.000200914 0.00017649)
(2.99628 0.000623865 0.000165584)
(2.99585 0.00154575 0.000125587)
(2.96922 0.00140237 0.000684075)
(2.94086 0.00634139 0.00073811)
(2.77016 0.0088731 0.00424659)
(2.28067 0.0124992 0.00765192)
(1.40123 0.0325655 0.0149351)
(0.581388 0.103521 0.00578218)
(0.601084 0.125169 -0.000258185)
(0.66008 0.130977 -0.000633239)
(0.684767 0.136306 -0.000437062)
(0.669729 0.141647 -0.000214835)
(0.635587 0.149027 -0.000156481)
(0.598015 0.156108 -0.000211314)
(0.569971 0.163167 -0.00035045)
(0.546179 0.170514 -0.000453104)
(0.522158 0.178194 -0.000527799)
(0.497181 0.186265 -0.000599585)
(0.471757 0.194778 -0.0006747)
(0.446158 0.203789 -0.000752253)
(0.42032 0.213346 -0.000830063)
(0.394146 0.223463 -0.000908218)
(0.367566 0.234181 -0.000986633)
(0.340594 0.245502 -0.00106519)
(0.313171 0.257459 -0.00114458)
(0.285328 0.270006 -0.00122364)
(0.257086 0.28312 -0.00130462)
(0.228364 0.296741 -0.00138611)
(0.199179 0.310759 -0.00146677)
(0.169537 0.3251 -0.00154562)
(0.139352 0.339647 -0.0016261)
(0.108559 0.354185 -0.00170623)
(0.0783716 0.368635 -0.0017861)
(0.045526 0.38318 -0.00186188)
(0.0182706 0.398867 -0.00193986)
(3 5.70945e-09 0.000429205)
(3 1.49568e-07 0.000407131)
(3 3.87856e-07 0.000385222)
(3 7.17798e-07 0.00036348)
(3 1.10587e-06 0.000341905)
(3 1.53145e-06 0.000320499)
(3 1.96892e-06 0.000299268)
(3 1.39115e-06 0.000278205)
(2.99999 6.37567e-07 0.000257367)
(2.99998 8.69164e-07 0.000236778)
(2.99994 3.63099e-06 0.000216676)
(2.99987 1.54775e-05 0.000196999)
(2.99966 3.99917e-05 0.0001793)
(2.99928 0.000115686 0.00016259)
(2.99809 0.000186067 0.000158436)
(2.99669 0.000634129 0.000143727)
(2.99644 0.00152827 0.000100352)
(2.97186 0.00104025 0.00058607)
(2.94776 0.00700633 0.000604961)
(2.78283 0.0101246 0.00375665)
(2.31903 0.0172841 0.00667065)
(1.47063 0.0422483 0.0135204)
(0.625139 0.129526 0.00553784)
(0.603029 0.143544 5.43081e-05)
(0.657403 0.150837 -0.00054547)
(0.682487 0.156978 -0.000399658)
(0.668888 0.16234 -0.000203381)
(0.635955 0.168873 -0.000148697)
(0.598495 0.175965 -0.000192979)
(0.570378 0.183569 -0.000318773)
(0.546663 0.191545 -0.000413098)
(0.522795 0.199895 -0.000481412)
(0.49798 0.2087 -0.000546929)
(0.472695 0.21804 -0.000615201)
(0.447215 0.227947 -0.00068566)
(0.421469 0.238469 -0.000756081)
(0.395358 0.249608 -0.000826696)
(0.368818 0.261399 -0.000897373)
(0.34186 0.273845 -0.000968173)
(0.314434 0.286961 -0.00103955)
(0.28654 0.30074 -0.00110986)
(0.258208 0.315139 -0.0011811)
(0.229354 0.330115 -0.00125358)
(0.199994 0.345537 -0.00132614)
(0.1702 0.361243 -0.00139948)
(0.139925 0.377072 -0.0014709)
(0.108976 0.392856 -0.00153927)
(0.0785651 0.408463 -0.00160818)
(0.0456501 0.423965 -0.00168)
(0.0181787 0.44028 -0.00174538)
(3 3.54608e-09 0.000386103)
(3 1.36256e-07 0.000366207)
(3 3.43424e-07 0.000346464)
(3 6.5211e-07 0.000326875)
(3 9.90512e-07 0.000307441)
(3 1.39775e-06 0.000288163)
(3 1.78344e-06 0.000269051)
(3 1.96052e-06 0.00025009)
(2.99999 1.8921e-06 0.000231324)
(2.99998 3.41141e-06 0.000212777)
(2.99995 7.63247e-06 0.000194625)
(2.99989 2.54288e-05 0.000176808)
(2.99972 5.71714e-05 0.000160541)
(2.9994 0.000168547 0.00014517)
(2.99843 0.000324079 0.000138897)
(2.99737 0.00103305 0.000123522)
(2.99695 0.00138424 0.000101291)
(2.97517 0.00062891 0.000469035)
(2.95537 0.0058456 0.000457913)
(2.7964 0.00598859 0.00328349)
(2.36402 0.0188892 0.00566949)
(1.55624 0.0502758 0.0119604)
(0.681416 0.156034 0.00529364)
(0.607829 0.165767 0.000368619)
(0.657726 0.171996 -0.00046777)
(0.68282 0.17797 -0.00036178)
(0.669895 0.183125 -0.000188202)
(0.637906 0.189232 -0.000139839)
(0.600846 0.196477 -0.000176517)
(0.57276 0.20462 -0.000287439)
(0.549093 0.213225 -0.000371835)
(0.525404 0.22227 -0.00043365)
(0.500853 0.231858 -0.00049244)
(0.475848 0.242081 -0.000553817)
(0.450634 0.252959 -0.00061646)
(0.425125 0.264524 -0.00067942)
(0.399211 0.276788 -0.000741909)
(0.372824 0.289773 -0.000804695)
(0.345951 0.303489 -0.000867276)
(0.318565 0.317919 -0.000930603)
(0.290644 0.333058 -0.000993697)
(0.262213 0.348844 -0.00105616)
(0.233221 0.365235 -0.0011193)
(0.203614 0.382138 -0.00118235)
(0.173396 0.399379 -0.0012449)
(0.142592 0.416707 -0.00130881)
(0.111094 0.433869 -0.00137237)
(0.0800913 0.450649 -0.0014338)
(0.0465931 0.467137 -0.00149333)
(0.0183279 0.484035 -0.00155566)
(3 2.27078e-09 0.000341213)
(3 1.20824e-07 0.000323594)
(3 3.00556e-07 0.000306115)
(3 5.78865e-07 0.000288776)
(3 8.93793e-07 0.000271578)
(3 1.12772e-06 0.000254522)
(3 1.24467e-06 0.000237615)
(3 2.26141e-06 0.000220847)
(3 2.3008e-06 0.000204248)
(2.99999 3.83332e-06 0.000187837)
(2.99996 3.34914e-06 0.000171724)
(2.99991 1.89136e-05 0.000155904)
(2.99978 2.12558e-05 0.000141074)
(2.99953 0.000117929 0.000127294)
(2.99884 0.000131536 0.000118095)
(2.99757 0.000620217 0.000114328)
(2.99684 0.000170429 8.15175e-05)
(2.97688 -0.00114402 0.000389759)
(2.95884 0.00282514 0.000376794)
(2.80758 0.000860274 0.0027193)
(2.41645 0.0202013 0.0046465)
(1.64844 0.0590302 0.0103399)
(0.732957 0.185813 0.00503276)
(0.600019 0.19083 0.00067247)
(0.64904 0.195155 -0.00039144)
(0.676881 0.200299 -0.000322884)
(0.66631 0.204858 -0.000171026)
(0.636784 0.210603 -0.000130686)
(0.601551 0.218118 -0.000160789)
(0.574501 0.226647 -0.000255653)
(0.551596 0.235718 -0.000329168)
(0.528682 0.245379 -0.000384211)
(0.504901 0.255745 -0.000436197)
(0.480606 0.266876 -0.000490177)
(0.456013 0.278777 -0.000545187)
(0.431056 0.291459 -0.000600147)
(0.40562 0.304934 -0.000654959)
(0.379642 0.319218 -0.000709375)
(0.353073 0.334328 -0.000763781)
(0.325883 0.350247 -0.000817907)
(0.29803 0.366963 -0.000872445)
(0.269496 0.384405 -0.000926791)
(0.240286 0.402488 -0.00098117)
(0.210356 0.421106 -0.00103621)
(0.179653 0.440061 -0.00109089)
(0.148177 0.459099 -0.00114407)
(0.115709 0.477917 -0.00119625)
(0.0834495 0.496156 -0.00124912)
(0.0487118 0.513755 -0.00130373)
(0.0190226 0.531284 -0.00135389)
(3 2.6757e-09 0.000294452)
(3 1.02446e-07 0.000279216)
(3 2.59822e-07 0.000264104)
(3 4.94825e-07 0.000249117)
(3 7.66776e-07 0.000234255)
(3 9.82486e-07 0.000219519)
(3 1.14424e-06 0.00020491)
(3 1.99279e-06 0.000190433)
(3 1.99061e-06 0.000176099)
(2.99999 2.8775e-06 0.000161951)
(2.99997 2.29296e-06 0.000147973)
(2.99991 1.26961e-05 0.000134462)
(2.99981 1.45587e-05 0.000121237)
(2.99951 7.93543e-05 0.000110095)
(2.9989 8.79293e-05 0.000100769)
(2.99745 0.000355001 0.000100225)
(2.99616 0.000473551 7.8724e-05)
(2.97878 -0.000452666 0.000298781)
(2.96345 0.00586665 0.000279054)
(2.82157 0.00547842 0.00217306)
(2.47576 0.0308364 0.00364602)
(1.75701 0.0737862 0.00866268)
(0.788126 0.224834 0.00474823)
(0.579794 0.216157 0.000937726)
(0.630183 0.214798 -0.000323746)
(0.662858 0.218001 -0.000285109)
(0.655918 0.222779 -0.000153715)
(0.630211 0.229357 -0.000121835)
(0.597939 0.23841 -0.000144682)
(0.572811 0.247827 -0.00022213)
(0.551684 0.257625 -0.000285398)
(0.530581 0.268141 -0.000333359)
(0.508506 0.279516 -0.000378257)
(0.485728 0.29177 -0.000424227)
(0.462456 0.304897 -0.000471125)
(0.438645 0.318905 -0.000517982)
(0.414196 0.333809 -0.000564624)
(0.389057 0.349612 -0.00061124)
(0.363178 0.366334 -0.000657613)
(0.336516 0.383955 -0.000703596)
(0.30903 0.402473 -0.000749227)
(0.280644 0.421848 -0.000794607)
(0.25132 0.441974 -0.000839559)
(0.221007 0.462737 -0.000884398)
(0.189601 0.483933 -0.000929944)
(0.157112 0.50522 -0.000976192)
(0.123307 0.526168 -0.00102168)
(0.0892634 0.546298 -0.00106518)
(0.0523759 0.565425 -0.00110863)
(0.0202315 0.583752 -0.00115513)
(3 3.54162e-09 0.000245734)
(3 8.31881e-08 0.000232991)
(3 2.18051e-07 0.000220355)
(3 4.08172e-07 0.000207826)
(3 6.46602e-07 0.000195404)
(3 9.687e-07 0.000183091)
(3 1.03998e-06 0.000170887)
(3 9.94993e-07 0.000158796)
(3 1.14475e-07 0.000146825)
(2.99999 -1.24334e-06 0.000135001)
(2.99997 -3.80355e-06 0.000123312)
(2.99993 -7.96356e-06 0.000111956)
(2.99985 -1.7731e-05 0.000100791)
(2.99962 -4.05737e-05 9.10314e-05)
(2.99915 -0.000123916 8.25522e-05)
(2.99801 -0.000192187 7.8795e-05)
(2.99682 -0.000932776 7.27403e-05)
(2.98291 -0.00307029 0.000205424)
(2.97037 0.0136649 0.000220912)
(2.83956 -0.0202524 0.00165312)
(2.54031 0.0901404 0.00269942)
(1.88498 0.079679 0.00684471)
(0.863926 0.301985 0.00441852)
(0.55872 0.262248 0.00115367)
(0.612453 0.243684 -0.000279684)
(0.651477 0.237182 -0.000261317)
(0.648332 0.240631 -0.000144487)
(0.625664 0.247062 -0.000114894)
(0.59502 0.257424 -0.000127206)
(0.570349 0.267658 -0.000185323)
(0.550618 0.278183 -0.00023988)
(0.531517 0.289659 -0.000281249)
(0.511568 0.302224 -0.000318575)
(0.490848 0.315825 -0.000356451)
(0.469517 0.330426 -0.000394763)
(0.447507 0.346032 -0.000433177)
(0.424688 0.362662 -0.000471271)
(0.400991 0.380314 -0.000509192)
(0.37634 0.399019 -0.000547257)
(0.350677 0.418755 -0.000584856)
(0.323966 0.439521 -0.00062245)
(0.296093 0.461274 -0.000659488)
(0.266974 0.483949 -0.000696075)
(0.236538 0.507447 -0.000732255)
(0.204598 0.531531 -0.000767911)
(0.171009 0.555858 -0.000803233)
(0.135382 0.579937 -0.000838412)
(0.0986974 0.602982 -0.000874451)
(0.0585527 0.624441 -0.000911127)
(0.0225704 0.64407 -0.00094584)
(3 5.77858e-09 0.000194968)
(3 6.29311e-08 0.000184835)
(3 1.77538e-07 0.000174789)
(3 3.19049e-07 0.00016483)
(3 5.11079e-07 0.00015496)
(3 7.13028e-07 0.000145179)
(3 8.66447e-07 0.000135486)
(3 8.46127e-07 0.000125888)
(2.99999 8.79937e-07 0.000116388)
(2.99998 6.75295e-07 0.000107016)
(2.99996 4.09548e-06 9.77614e-05)
(2.9999 5.53401e-06 8.8841e-05)
(2.99979 3.02246e-05 8.01466e-05)
(2.99944 3.49751e-05 7.312e-05)
(2.99881 0.000160271 6.68267e-05)
(2.99677 0.000230157 7.08139e-05)
(2.99403 0.000968114 6.96337e-05)
(2.99336 -0.00101064 4.80481e-05)
(2.95209 0.0102165 0.000418878)
(2.8923 -0.0158958 0.000559972)
(2.65433 0.0704554 0.00228624)
(1.91353 0.0965703 0.00445611)
(1.05383 0.348866 0.00389178)
(0.595161 0.305587 0.00139002)
(0.637906 0.279671 -0.000232822)
(0.67719 0.259607 -0.00024798)
(0.673815 0.260504 -0.000144743)
(0.647675 0.26562 -0.000103821)
(0.613066 0.276612 -0.00010754)
(0.583145 0.28729 -0.000146109)
(0.560349 0.298163 -0.000191451)
(0.540112 0.310273 -0.000226056)
(0.520107 0.32385 -0.000255875)
(0.500001 0.338773 -0.000285561)
(0.479774 0.354942 -0.000315688)
(0.459221 0.372324 -0.000345692)
(0.438047 0.39092 -0.000375502)
(0.416064 0.410722 -0.000404913)
(0.393102 0.431766 -0.000434333)
(0.368988 0.454027 -0.000463327)
(0.343608 0.47758 -0.000491978)
(0.316806 0.502324 -0.000520236)
(0.288457 0.528256 -0.000548047)
(0.258305 0.555435 -0.000575238)
(0.226045 0.583579 -0.000602599)
(0.191529 0.612329 -0.000630027)
(0.154038 0.641068 -0.000656686)
(0.114024 0.668863 -0.000682186)
(0.0689021 0.694613 -0.000708515)
(0.026588 0.716896 -0.000738106)
(3 5.57996e-09 0.000142059)
(3 4.62216e-08 0.000134658)
(3 1.36609e-07 0.000127322)
(3 2.42323e-07 0.000120053)
(3 3.78053e-07 0.00011285)
(3 4.72936e-07 0.000105713)
(3 7.8335e-07 9.86429e-05)
(3 9.72453e-07 9.16412e-05)
(3 1.78676e-06 8.47119e-05)
(2.99999 3.90975e-06 7.78546e-05)
(2.99998 1.15642e-05 7.10959e-05)
(2.99996 2.66616e-05 6.44222e-05)
(2.9999 7.3764e-05 5.80035e-05)
(2.99978 0.000160825 5.17623e-05)
(2.99944 0.000423243 4.66076e-05)
(2.999 0.000910246 4.13298e-05)
(2.99582 0.00241826 5.25407e-05)
(2.99332 0.0038374 4.80081e-05)
(2.9614 0.00380574 0.000239289)
(2.916 0.0194102 0.000318054)
(2.73801 0.042485 0.00128076)
(2.17047 0.119169 0.00250342)
(1.28343 0.318098 0.00359353)
(0.693418 0.328977 0.00140078)
(0.705104 0.317901 -0.000136167)
(0.73786 0.299843 -0.000201258)
(0.738347 0.297613 -0.000143469)
(0.707972 0.299179 -8.97553e-05)
(0.666594 0.30696 -8.49508e-05)
(0.626361 0.315717 -0.000103957)
(0.595122 0.324821 -0.000138773)
(0.5689 0.335576 -0.000166104)
(0.544645 0.348463 -0.000188277)
(0.521633 0.363377 -0.000209773)
(0.499721 0.380155 -0.000231557)
(0.478568 0.398693 -0.000253326)
(0.457691 0.418928 -0.000274824)
(0.436669 0.440798 -0.000296129)
(0.415098 0.464327 -0.000317128)
(0.392696 0.489326 -0.000337984)
(0.369103 0.515991 -0.000358472)
(0.343965 0.544465 -0.000378401)
(0.317298 0.574632 -0.00039816)
(0.288546 0.606569 -0.00041691)
(0.257001 0.640172 -0.000434426)
(0.222252 0.675385 -0.000452174)
(0.183233 0.71159 -0.000469462)
(0.13961 0.747745 -0.000487304)
(0.0877356 0.782129 -0.00050466)
(0.0348624 0.811523 -0.000522661)
(3 4.66652e-09 8.6904e-05)
(3 3.54039e-08 8.23652e-05)
(3 9.61759e-08 7.78681e-05)
(3 1.74781e-07 7.34125e-05)
(3 2.78897e-07 6.89987e-05)
(3 3.88652e-07 6.46267e-05)
(3 4.75636e-07 6.02969e-05)
(3 4.96674e-07 5.60103e-05)
(3 7.23155e-07 5.17668e-05)