/*--------------------------------*- C++ -*----------------------------------*\
| =========                 |                                                 |
| \\      /  F ield         | OpenFOAM: The Open Source CFD Toolbox           |
|  \\    /   O peration     | Version:  2112                                  |
|   \\  /    A nd           | Website:  www.openfoam.com                      |
|    \\/     M anipulation  |                                                 |
\*---------------------------------------------------------------------------*/
FoamFile
{
    version     2.0;
    format      ascii;
    arch        "LSB;label=32;scalar=64";
    class       volScalarField;
    location    "3";
    object      T;
}
// * * * * * * * * * * * * * * * * * * * * * * * * * * * * * * * * * * * * * //

dimensions      [0 0 0 1 0 0 0];

internalField   nonuniform List<scalar> 
1000
(
1.38575e-61
1.77074e-61
2.64667e-61
4.2543e-61
7.03472e-61
1.17493e-60
1.96858e-60
3.30073e-60
5.5335e-60
9.27239e-60
1.55287e-59
2.59906e-59
4.34736e-59
7.26711e-59
1.21401e-58
2.02678e-58
3.38154e-58
5.63826e-58
9.39501e-58
1.56448e-57
2.60353e-57
4.32988e-57
7.19627e-57
1.19525e-56
1.98392e-56
3.29085e-56
5.45516e-56
9.03695e-56
1.49607e-55
2.4751e-55
4.09212e-55
6.76108e-55
1.11634e-54
1.84198e-54
3.03727e-54
5.00487e-54
8.24156e-54
1.35623e-53
2.23031e-53
3.66524e-53
6.01929e-53
9.87853e-53
1.6201e-52
2.6552e-52
4.34863e-52
7.11721e-52
1.16404e-51
1.9025e-51
3.10729e-51
5.0715e-51
8.27158e-51
1.34815e-50
2.19574e-50
3.57373e-50
5.81239e-50
9.44674e-50
1.53427e-49
2.49008e-49
4.03845e-49
6.54496e-49
1.05996e-48
1.71537e-48
2.77406e-48
4.48292e-48
7.2392e-48
1.16817e-47
1.88367e-47
3.03521e-47
4.88713e-47
7.86324e-47
1.26424e-46
2.03113e-46
3.26081e-46
5.23107e-46
8.38559e-46
1.34324e-45
2.15005e-45
3.43889e-45
5.49619e-45
8.77766e-45
1.40077e-44
2.23372e-44
3.55925e-44
5.66708e-44
9.0163e-44
1.43339e-43
2.27703e-43
3.61441e-43
5.73287e-43
9.08596e-43
1.43891e-42
2.27697e-42
3.60033e-42
5.68837e-42
8.98036e-42
1.41663e-41
2.23295e-41
3.51688e-41
5.53468e-41
8.70325e-41
1.36749e-40
2.14695e-40
3.36798e-40
5.27921e-40
8.26834e-40
1.29395e-39
2.02332e-39
3.16125e-39
4.93514e-39
7.69814e-39
1.19982e-38
1.86849e-38
2.90742e-38
4.52028e-38
7.02205e-38
1.08994e-37
1.69036e-37
2.61934e-37
4.05549e-37
6.27379e-37
9.6973e-37
1.49763e-36
2.31096e-36
3.56296e-36
5.48858e-36
8.44771e-36
1.29911e-35
1.9961e-35
3.06438e-35
4.70034e-35
7.20345e-35
1.103e-34
1.68746e-34
2.57936e-34
3.93922e-34
6.01074e-34
9.16356e-34
1.39578e-33
2.12416e-33
3.22977e-33
4.90649e-33
7.44702e-33
1.12929e-32
1.71096e-32
2.58991e-32
3.91686e-32
5.91832e-32
8.9344e-32
1.34753e-31
2.03056e-31
3.057e-31
4.59809e-31
6.90973e-31
1.0374e-30
1.55606e-30
2.33189e-30
3.49128e-30
5.22225e-30
7.80413e-30
1.16516e-29
1.73795e-29
2.5899e-29
3.85582e-29
5.73508e-29
8.52218e-29
1.26517e-28
1.87642e-28
2.78034e-28
4.11575e-28
6.0867e-28
8.99282e-28
1.32736e-27
1.95732e-27
2.88345e-27
4.24364e-27
6.23936e-27
9.16465e-27
1.34482e-26
1.97144e-26
2.88719e-26
4.22411e-26
6.17397e-26
9.01488e-26
1.31499e-25
1.91623e-25
2.78957e-25
4.05685e-25
5.8939e-25
8.55413e-25
1.24025e-24
1.79638e-24
2.59922e-24
3.75702e-24
5.42499e-24
7.82541e-24
1.12763e-23
1.62321e-23
2.33418e-23
3.35306e-23
4.81166e-23
6.89754e-23
9.87728e-23
1.41294e-22
2.01907e-22
2.88218e-22
4.10988e-22
5.8543e-22
8.33025e-22
1.18407e-21
1.68124e-21
2.38461e-21
3.37859e-21
4.78172e-21
6.76025e-21
9.54706e-21
1.3468e-20
1.89785e-20
2.67145e-20
3.75624e-20
5.27573e-20
7.40172e-20
1.03729e-19
1.45207e-19
2.03045e-19
2.83605e-19
3.95683e-19
5.51436e-19
7.67634e-19
1.06739e-18
1.48253e-18
2.05679e-18
2.85026e-18
3.94534e-18
5.45491e-18
7.53346e-18
1.03921e-17
1.4319e-17
1.97069e-17
2.7091e-17
3.71986e-17
5.10181e-17
6.98901e-17
9.56313e-17
1.307e-16
1.78419e-16
2.43274e-16
3.31313e-16
4.50678e-16
6.12322e-16
8.30954e-16
1.12631e-15
1.52482e-15
2.06185e-15
2.78469e-15
3.75641e-15
5.06111e-15
6.81072e-15
9.15406e-15
1.22887e-14
1.64767e-14
2.2065e-14
2.95125e-14
3.94252e-14
5.26028e-14
7.00983e-14
9.32974e-14
1.24021e-13
1.64656e-13
2.18335e-13
2.89151e-13
3.82458e-13
5.05241e-13
6.66603e-13
8.78394e-13
1.15601e-12
1.51945e-12
1.99462e-12
2.61506e-12
3.42413e-12
4.4778e-12
5.8482e-12
7.62822e-12
9.93724e-12
1.29285e-11
1.67985e-11
2.17988e-11
2.82507e-11
3.65647e-11
4.72638e-11
6.10139e-11
7.86612e-11
1.0128e-10
1.30231e-10
1.67238e-10
2.14478e-10
2.74699e-10
3.51362e-10
4.48824e-10
5.72558e-10
7.29432e-10
9.28045e-10
1.17916e-09
1.49621e-09
1.89597e-09
2.3993e-09
3.03215e-09
3.82675e-09
4.82305e-09
6.07049e-09
7.6302e-09
9.57759e-09
1.20056e-08
1.50286e-08
1.8787e-08
2.34531e-08
2.92379e-08
3.63994e-08
4.52526e-08
5.61813e-08
6.96529e-08
8.62352e-08
1.06617e-07
1.31633e-07
1.62292e-07
1.99812e-07
2.45663e-07
3.01613e-07
3.69786e-07
4.52732e-07
5.53503e-07
6.75752e-07
8.23837e-07
1.00295e-06
1.21929e-06
1.48018e-06
1.79435e-06
2.17211e-06
2.62566e-06
3.16939e-06
3.82026e-06
4.59821e-06
5.52667e-06
6.63308e-06
7.94957e-06
9.51367e-06
1.13691e-05
1.35669e-05
1.61663e-05
1.92358e-05
2.28552e-05
2.71162e-05
3.21252e-05
3.80043e-05
4.4894e-05
5.29559e-05
6.23748e-05
7.33621e-05
8.61592e-05
0.000101041
0.000118321
0.000138354
0.000161543
0.000188343
0.000219268
0.000254898
0.000295884
0.000342957
0.000396937
0.00045874
0.000529389
0.000610023
0.000701908
0.000806448
0.000925198
0.00105988
0.00121238
0.00138479
0.00157939
0.0017987
0.00204545
0.00232265
0.00263353
0.00298165
0.00337084
0.00380523
0.00428932
0.0048279
0.00542617
0.00608964
0.00682425
0.00763631
0.00853252
0.00952002
0.0106063
0.0117994
0.0131076
0.0145397
0.0161049
0.0178127
0.0196732
0.0216966
0.0238936
0.0262753
0.0288528
0.0316378
0.0346421
0.0378774
0.041356
0.0450898
0.0490912
0.0533721
0.0579445
0.0628203
0.0680109
0.0735276
0.0793811
0.0855818
0.0921393
0.0990627
0.10636
0.11404
0.122107
0.130568
0.139428
0.148688
0.158353
0.168422
0.178894
0.189769
0.201042
0.212709
0.224762
0.237195
0.249998
0.26316
0.276667
0.290507
0.304664
0.319119
0.333856
0.348855
0.364094
0.379552
0.395205
0.411029
0.426999
0.44309
0.459276
0.475529
0.491822
0.508128
0.52442
0.54067
0.556851
0.572936
0.588899
0.604714
0.620356
0.635799
0.651022
0.666001
0.680716
0.695146
0.709271
0.723076
0.736543
0.749658
0.762407
0.774778
0.786761
0.798347
0.809529
0.820299
0.830653
0.840587
0.850099
0.859188
0.867852
0.876094
0.883915
0.891317
0.898304
0.904879
0.911047
0.916814
0.922183
0.927161
0.931754
0.935966
0.939804
0.943273
0.946378
0.949124
0.951516
0.953559
0.955255
0.956607
0.95762
0.958294
0.95863
0.95863
0.958294
0.95762
0.956607
0.955255
0.953559
0.951516
0.949124
0.946378
0.943273
0.939804
0.935966
0.931754
0.927161
0.922183
0.916814
0.911047
0.904879
0.898304
0.891317
0.883915
0.876094
0.867852
0.859188
0.850099
0.840587
0.830653
0.820299
0.809529
0.798347
0.786761
0.774778
0.762407
0.749658
0.736543
0.723076
0.709271
0.695146
0.680716
0.666001
0.651022
0.635799
0.620356
0.604714
0.588899
0.572936
0.556851
0.54067
0.52442
0.508128
0.491822
0.475529
0.459276
0.44309
0.426999
0.411029
0.395205
0.379552
0.364094
0.348855
0.333856
0.319119
0.304664
0.290507
0.276667
0.26316
0.249998
0.237195
0.224762
0.212709
0.201042
0.189769
0.178894
0.168422
0.158353
0.148688
0.139428
0.130568
0.122107
0.11404
0.10636
0.0990627
0.0921393
0.0855818
0.0793811
0.0735276
0.0680109
0.0628203
0.0579445
0.0533721
0.0490912
0.0450898
0.041356
0.0378774
0.0346421
0.0316378
0.0288528
0.0262753
0.0238936
0.0216966
0.0196732
0.0178127
0.0161049
0.0145397
0.0131076
0.0117994
0.0106063
0.00952002
0.00853252
0.00763631
0.00682425
0.00608964
0.00542617
0.0048279
0.00428932
0.00380523
0.00337084
0.00298165
0.00263353
0.00232265
0.00204545
0.0017987
0.00157939
0.00138479
0.00121238
0.00105988
0.000925198
0.000806448
0.000701908
0.000610023
0.000529389
0.00045874
0.000396937
0.000342957
0.000295884
0.000254898
0.000219268
0.000188343
0.000161543
0.000138354
0.000118321
0.000101041
8.61592e-05
7.33621e-05
6.23748e-05
5.29559e-05
4.4894e-05
3.80043e-05
3.21252e-05
2.71162e-05
2.28552e-05
1.92358e-05
1.61663e-05
1.35669e-05
1.13691e-05
9.51367e-06
7.94957e-06
6.63308e-06
5.52667e-06
4.59821e-06
3.82026e-06
3.16939e-06
2.62566e-06
2.17211e-06
1.79435e-06
1.48018e-06
1.21929e-06
1.00295e-06
8.23837e-07
6.75752e-07
5.53503e-07
4.52732e-07
3.69786e-07
3.01613e-07
2.45663e-07
1.99812e-07
1.62292e-07
1.31633e-07
1.06617e-07
8.62352e-08
6.96529e-08
5.61813e-08
4.52526e-08
3.63994e-08
2.92379e-08
2.34531e-08
1.8787e-08
1.50286e-08
1.20056e-08
9.57759e-09
7.6302e-09
6.07049e-09
4.82305e-09
3.82675e-09
3.03215e-09
2.3993e-09
1.89597e-09
1.49621e-09
1.17916e-09
9.28045e-10
7.29432e-10
5.72558e-10
4.48824e-10
3.51362e-10
2.74699e-10
2.14478e-10
1.67238e-10
1.30231e-10
1.0128e-10
7.86612e-11
6.10139e-11
4.72638e-11
3.65647e-11
2.82507e-11
2.17988e-11
1.67985e-11
1.29285e-11
9.93724e-12
7.62822e-12
5.8482e-12
4.4778e-12
3.42413e-12
2.61506e-12
1.99462e-12
1.51945e-12
1.15601e-12
8.78394e-13
6.66603e-13
5.05241e-13
3.82458e-13
2.89151e-13
2.18335e-13
1.64656e-13
1.24021e-13
9.32974e-14
7.00983e-14
5.26028e-14
3.94252e-14
2.95125e-14
2.2065e-14
1.64767e-14
1.22887e-14
9.15406e-15
6.81072e-15
5.06111e-15
3.75641e-15
2.78469e-15
2.06185e-15
1.52482e-15
1.12631e-15
8.30954e-16
6.12322e-16
4.50678e-16
3.31313e-16
2.43274e-16
1.78419e-16
1.307e-16
9.56313e-17
6.98901e-17
5.10181e-17
3.71986e-17
2.7091e-17
1.97069e-17
1.4319e-17
1.03921e-17
7.53346e-18
5.45491e-18
3.94534e-18
2.85026e-18
2.05679e-18
1.48253e-18
1.06739e-18
7.67634e-19
5.51436e-19
3.95683e-19
2.83605e-19
2.03045e-19
1.45207e-19
1.03729e-19
7.40172e-20
5.27573e-20
3.75624e-20
2.67145e-20
1.89785e-20
1.3468e-20
9.54706e-21
6.76025e-21
4.78172e-21
3.37859e-21
2.38461e-21
1.68124e-21
1.18407e-21
8.33025e-22
5.8543e-22
4.10988e-22
2.88218e-22
2.01907e-22
1.41294e-22
9.87728e-23
6.89754e-23
4.81166e-23
3.35306e-23
2.33418e-23
1.62321e-23
1.12763e-23
7.82541e-24
5.42499e-24
3.75702e-24
2.59922e-24
1.79638e-24
1.24025e-24
8.55413e-25
5.8939e-25
4.05685e-25
2.78957e-25
1.91623e-25
1.31499e-25
9.01488e-26
6.17397e-26
4.22411e-26
2.88719e-26
1.97144e-26
1.34482e-26
9.16465e-27
6.23936e-27
4.24364e-27
2.88345e-27
1.95732e-27
1.32736e-27
8.99282e-28
6.0867e-28
4.11575e-28
2.78034e-28
1.87642e-28
1.26517e-28
8.52218e-29
5.73508e-29
3.85582e-29
2.5899e-29
1.73795e-29
1.16516e-29
7.80413e-30
5.22225e-30
3.49128e-30
2.33189e-30
1.55606e-30
1.0374e-30
6.90973e-31
4.59809e-31
3.057e-31
2.03056e-31
1.34753e-31
8.9344e-32
5.91832e-32
3.91686e-32
2.58991e-32
1.71096e-32
1.12929e-32
7.44702e-33
4.90649e-33
3.22977e-33
2.12416e-33
1.39578e-33
9.16356e-34
6.01074e-34
3.93922e-34
2.57936e-34
1.68746e-34
1.103e-34
7.20345e-35
4.70034e-35
3.06438e-35
1.9961e-35
1.29911e-35
8.44771e-36
5.48858e-36
3.56296e-36
2.31096e-36
1.49763e-36
9.6973e-37
6.27379e-37
4.05549e-37
2.61934e-37
1.69036e-37
1.08994e-37
7.02205e-38
4.52028e-38
2.90742e-38
1.86849e-38
1.19982e-38
7.69814e-39
4.93514e-39
3.16125e-39
2.02332e-39
1.29395e-39
8.26834e-40
5.27921e-40
3.36798e-40
2.14695e-40
1.36749e-40
8.70325e-41
5.53468e-41
3.51688e-41
2.23295e-41
1.41663e-41
8.98036e-42
5.68837e-42
3.60033e-42
2.27697e-42
1.43891e-42
9.08596e-43
5.73287e-43
3.61441e-43
2.27703e-43
1.43339e-43
9.0163e-44
5.66708e-44
3.55925e-44
2.23372e-44
1.40077e-44
8.77766e-45
5.49619e-45
3.43889e-45
2.15005e-45
1.34324e-45
8.38559e-46
5.23107e-46
3.26081e-46
2.03113e-46
1.26424e-46
7.86324e-47
4.88713e-47
3.03521e-47
1.88367e-47
1.16817e-47
7.2392e-48
4.48292e-48
2.77406e-48
1.71537e-48
1.05996e-48
6.54496e-49
4.03845e-49
2.49008e-49
1.53427e-49
9.44674e-50
5.81239e-50
3.57373e-50
2.19574e-50
1.34815e-50
8.27158e-51
5.0715e-51
3.10729e-51
1.9025e-51
1.16404e-51
7.11721e-52
4.34863e-52
2.6552e-52
1.6201e-52
9.87853e-53
6.01929e-53
3.66524e-53
2.23031e-53
1.35623e-53
8.24156e-54
5.00487e-54
3.03727e-54
1.84198e-54
1.11634e-54
6.76108e-55
4.09212e-55
2.4751e-55
1.49607e-55
9.03695e-56
5.45516e-56
3.29085e-56
1.98392e-56
1.19525e-56
7.19627e-57
4.32988e-57
2.60353e-57
1.56448e-57
9.39501e-58
5.63826e-58
3.38154e-58
2.02678e-58
1.21401e-58
7.26711e-59
4.34736e-59
2.59906e-59
1.55287e-59
9.27239e-60
5.5335e-60
3.30073e-60
1.96858e-60
1.17493e-60
7.03472e-61
4.2543e-61
2.64667e-61
1.77074e-61
1.38575e-61
)
;

boundaryField
{
    sides
    {
        type            zeroGradient;
    }
    empty
    {
        type            empty;
    }
}


// ************************************************************************* //
