/*--------------------------------*- C++ -*----------------------------------*\
| =========                 |                                                 |
| \\      /  F ield         | OpenFOAM: The Open Source CFD Toolbox           |
|  \\    /   O peration     | Version:  2112                                  |
|   \\  /    A nd           | Website:  www.openfoam.com                      |
|    \\/     M anipulation  |                                                 |
\*---------------------------------------------------------------------------*/
FoamFile
{
    version     2.0;
    format      ascii;
    arch        "LSB;label=32;scalar=64";
    class       volScalarField;
    location    "2";
    object      T;
}
// * * * * * * * * * * * * * * * * * * * * * * * * * * * * * * * * * * * * * //

dimensions      [0 0 0 1 0 0 0];

internalField   nonuniform List<scalar> 
1000
(
0
0
0
0
0
0
0
0
0
0
0
0
0
0
0
0
0
0
0
0
0
0
0
0
0
0
0
0
0
0
0
0
0
0
0
0
0
0
0
0
0
0
0
0
0
0
0
0
0
0
0
0
0
0
0
0
0
0
0
0
0
0
0
0
0
0
0
0
0
0
0
0
0
0
0
0
0
0
0
0
0
0
0
0
0
0
0
0
0
0
0
0
0
0
0
0
0
0
0
0
0
0
0
0
0
0
0
0
0
0
0
0
0
0
0
0
0
0
0
0
0
0
0
0
0
0
0
0
0
0
0
0
0
0
0
0
0
0
0
0
0
0
0
0
0
0
0
0
0
0
0
0
0
0
0
0
0
0
0
0
0
0
0
0
0
0
0
0
0
0
0
0
0
0
0
0
0
0
0
0
0
0
0
0
0
0
0
0
0
0
0
0
0
0
0
0
0
0
0
0
0
0
0
0
0
0
5.78057e-322
2.08861e-318
7.38754e-315
2.56226e-311
8.7092e-308
2.8994e-304
9.44802e-301
3.01153e-297
9.383e-294
2.85552e-290
8.48154e-287
2.45668e-283
6.93304e-280
1.90453e-276
5.08747e-273
1.32008e-269
3.32335e-266
8.10756e-263
1.91408e-259
4.3667e-256
9.61136e-253
2.03755e-249
4.15248e-246
8.1187e-243
1.51934e-239
2.71465e-236
4.61782e-233
7.45498e-230
1.1381e-226
1.63623e-223
2.20486e-220
2.76927e-217
3.22049e-214
3.44006e-211
3.34178e-208
2.91496e-205
2.24476e-202
1.49009e-199
8.21857e-197
3.52886e-194
1.01344e-191
8.70471e-190
-6.5832e-187
-2.17302e-184
3.59673e-182
2.0143e-179
-5.08953e-177
-8.46672e-175
7.11013e-172
-2.07657e-169
4.06842e-167
-6.15873e-165
7.66862e-163
-8.14065e-161
7.54238e-159
-6.20184e-157
4.58305e-155
-3.07387e-153
1.88607e-151
-1.06566e-149
5.57509e-148
-2.71332e-146
1.23346e-144
-5.25599e-143
2.10593e-141
-7.9559e-140
2.84093e-138
-9.6098e-137
3.08544e-135
-9.42002e-134
2.73925e-132
-7.59809e-131
2.01311e-129
-5.1011e-128
1.23765e-126
-2.87825e-125
6.42222e-124
-1.37613e-122
2.83412e-121
-5.6143e-120
1.07055e-118
-1.96624e-117
3.48062e-116
-5.94173e-115
9.78667e-114
-1.55608e-112
2.38947e-111
-3.54504e-110
5.08338e-109
-7.04768e-108
9.45012e-107
-1.22588e-105
1.53881e-104
-1.86958e-103
2.19892e-102
-2.50408e-101
2.76134e-100
-2.94895e-99
3.05017e-98
-3.05566e-97
2.96494e-96
-2.78642e-95
2.53613e-94
-2.23538e-93
1.90778e-92
-1.57626e-91
1.26052e-90
-9.75402e-90
7.30103e-89
-5.28427e-88
3.69648e-87
-2.49783e-86
1.62942e-85
-1.02537e-84
6.2192e-84
-3.63201e-83
2.03983e-82
-1.10014e-81
5.68783e-81
-2.81292e-80
1.32713e-79
-5.95286e-79
2.52712e-78
-1.00907e-77
3.75607e-77
-1.28538e-76
3.94841e-76
-1.03679e-75
2.03099e-75
-1.07904e-75
-1.47717e-74
9.42632e-74
-3.71886e-73
1.07598e-72
-2.06086e-72
3.13904e-73
1.7972e-71
-9.21235e-71
2.81554e-70
-4.99633e-70
-2.05139e-70
5.36832e-69
-2.2161e-68
5.04208e-68
-2.65807e-68
-3.13349e-67
1.50512e-66
-3.46496e-66
1.40275e-66
2.23481e-65
-9.5133e-65
1.75588e-64
1.01498e-64
-1.69563e-63
5.08156e-63
-4.52653e-63
-2.24124e-62
1.05199e-61
-1.71161e-61
-2.17931e-61
1.85764e-60
-3.97058e-60
-1.27346e-60
3.04786e-59
-7.54384e-59
1.31055e-60
4.90317e-58
-1.26796e-57
4.25949e-59
7.92142e-57
-1.92085e-56
-4.21743e-57
1.27247e-55
-2.57168e-55
-2.0531e-55
1.95858e-54
-2.83022e-54
-5.68525e-54
2.73725e-53
-1.98408e-53
-1.17112e-52
3.21845e-52
7.95459e-53
-1.89008e-51
2.71075e-51
5.71558e-51
-2.32913e-50
5.56607e-51
1.12406e-49
-1.89694e-49
-3.06941e-49
1.36679e-48
-2.5519e-49
-6.41262e-48
9.07303e-48
2.02793e-47
-6.6515e-47
-2.2972e-47
3.36491e-46
-2.36736e-46
-1.31649e-45
2.32261e-45
3.84021e-45
-1.37308e-44
-5.58486e-45
6.47369e-44
-2.49505e-44
-2.60895e-43
2.86597e-43
9.15879e-43
-1.77038e-42
-2.76448e-42
8.81812e-42
6.68456e-42
-3.89062e-41
-9.05835e-42
1.58305e-40
-2.63483e-41
-6.07941e-40
3.01927e-40
2.23961e-39
-1.74678e-39
-8.01835e-39
8.18733e-39
2.82157e-38
-3.42456e-38
-9.85358e-38
1.32524e-37
3.44079e-37
-4.81945e-37
-1.20673e-36
1.65569e-36
4.25321e-36
-5.35889e-36
-1.5016e-35
1.61474e-35
5.27584e-35
-4.40352e-35
-1.82853e-34
1.0124e-34
6.18713e-34
-1.49917e-34
-2.01976e-33
-1.99494e-34
6.27074e-33
3.02183e-33
-1.81585e-32
-1.70996e-32
4.75138e-32
7.44181e-32
-1.05149e-31
-2.76806e-31
1.58886e-31
9.02839e-31
7.38932e-32
-2.56469e-30
-1.85209e-30
6.08389e-30
9.40214e-30
-1.04599e-29
-3.38504e-29
3.62144e-30
9.59689e-29
6.61404e-29
-2.06814e-28
-3.51063e-28
2.53867e-28
1.15728e-27
3.66757e-28
-2.70555e-27
-3.4966e-27
3.67163e-27
1.2615e-26
3.1856e-27
-2.89096e-26
-3.80996e-26
3.25004e-26
1.30457e-25
6.22408e-26
-2.53536e-25
-4.41331e-25
1.1109e-25
1.20557e-24
1.16944e-24
-1.48865e-24
-4.63705e-24
-2.24185e-24
8.16785e-24
1.58055e-23
1.41501e-24
-3.51252e-23
-5.04081e-23
1.29594e-23
1.34263e-22
1.57506e-22
-8.49122e-23
-4.80648e-22
-5.03149e-22
3.5001e-22
1.65297e-21
1.69394e-21
-1.12744e-21
-5.5061e-21
-6.03829e-21
2.71961e-21
1.76362e-20
2.22709e-20
-2.62631e-21
-5.29873e-20
-8.17918e-20
-2.12417e-20
1.41548e-19
2.86633e-19
1.86742e-19
-2.93149e-19
-9.13402e-19
-9.83757e-19
2.00634e-19
2.45795e-18
4.025e-18
2.13217e-18
-4.60482e-18
-1.30644e-17
-1.47357e-17
-2.62673e-19
3.05285e-17
5.90896e-17
5.00827e-17
-2.63807e-17
-1.5662e-16
-2.54331e-16
-1.79086e-16
1.71666e-16
7.19946e-16
1.10639e-15
7.67276e-16
-7.18439e-16
-3.08482e-15
-4.95321e-15
-4.01676e-15
1.76683e-15
1.20852e-14
2.22451e-14
2.29647e-14
3.81377e-15
-3.91644e-14
-9.39012e-14
-1.26519e-13
-8.71475e-14
6.65599e-14
3.29595e-13
6.07602e-13
7.006e-13
3.46834e-13
-6.49353e-13
-2.21623e-12
-3.8067e-12
-4.31189e-12
-2.25904e-12
3.57563e-12
1.31426e-11
2.39272e-11
3.01359e-11
2.30606e-11
-6.54175e-12
-6.35737e-11
-1.41632e-10
-2.15758e-10
-2.38356e-10
-1.43121e-10
1.37935e-10
6.40974e-10
1.32157e-09
1.99952e-09
2.31615e-09
1.73346e-09
-3.88008e-10
-4.59637e-09
-1.10181e-08
-1.88995e-08
-2.60842e-08
-2.85618e-08
-2.03121e-08
6.24784e-09
5.88481e-08
1.42616e-07
2.55723e-07
3.83388e-07
4.9062e-07
5.14686e-07
3.59122e-07
-1.07837e-07
-1.04635e-06
-2.6242e-06
-4.97559e-06
-8.13163e-06
-1.19141e-05
-1.57832e-05
-1.8632e-05
-1.85175e-05
-1.23264e-05
4.62976e-06
3.90882e-05
0.00010037
0.000200967
0.000357165
0.000589678
0.000924269
0.00139233
0.00203136
0.0028854
0.00400517
0.00544823
0.0072787
0.00956697
0.0123889
0.0158252
0.0199598
0.0248788
0.030669
0.0374157
0.045201
0.0541019
0.0641882
0.0755207
0.0881491
0.102111
0.117429
0.134111
0.15215
0.171521
0.192184
0.21408
0.237136
0.261266
0.286366
0.312325
0.339018
0.366315
0.394076
0.422161
0.450426
0.478729
0.506929
0.534891
0.562484
0.589587
0.616088
0.641884
0.666884
0.691008
0.714189
0.736371
0.757511
0.777578
0.796551
0.814421
0.831187
0.846861
0.861458
0.875004
0.887529
0.899071
0.90967
0.91937
0.928217
0.93626
0.943549
0.950132
0.95606
0.961382
0.966144
0.970392
0.974172
0.977524
0.980489
0.983103
0.985402
0.987418
0.989181
0.990719
0.992056
0.993216
0.99422
0.995087
0.995832
0.996473
0.997021
0.997489
0.997889
0.998229
0.998517
0.998762
0.99897
0.999145
0.999294
0.99942
0.999526
0.999615
0.999686
0.999739
0.999771
0.999777
0.999749
0.999676
0.999543
0.999329
0.99901
0.998554
0.997925
0.99708
0.995967
0.994529
0.992703
0.990419
0.987599
0.984166
0.980033
0.975115
0.969326
0.962581
0.954796
0.945896
0.93581
0.924478
0.91185
0.897888
0.88257
0.865888
0.847849
0.828478
0.807816
0.78592
0.762864
0.738734
0.713634
0.687675
0.660982
0.633685
0.605924
0.577839
0.549574
0.521271
0.493071
0.465109
0.437516
0.410413
0.383912
0.358116
0.333116
0.308992
0.285811
0.263629
0.242489
0.222422
0.203449
0.185579
0.168813
0.153139
0.138542
0.124996
0.112471
0.100929
0.0903301
0.0806304
0.0717832
0.06374
0.0564514
0.0498679
0.0439397
0.0386184
0.0338563
0.0296075
0.025828
0.0224758
0.0195112
0.0168969
0.0145979
0.012582
0.0108189
0.00928133
0.00794391
0.00678368
0.00577979
0.00491341
0.00416761
0.00352723
0.00297872
0.00251007
0.00211061
0.00177095
0.00148282
0.00123898
0.00103309
0.000859646
0.000713869
0.000591618
0.000489323
0.000403914
0.000332759
0.000273606
0.000224534
0.000183912
0.000150353
0.000122688
9.99261e-05
8.12372e-05
6.59229e-05
5.33985e-05
4.31758e-05
3.4848e-05
2.80767e-05
2.25815e-05
1.81303e-05
1.45314e-05
1.1627e-05
9.28737e-06
7.40605e-06
5.89599e-06
4.68607e-06
3.71834e-06
2.94566e-06
2.32979e-06
1.83973e-06
1.45046e-06
1.14175e-06
8.97344e-07
7.04165e-07
5.51725e-07
4.31628e-07
3.37163e-07
2.62977e-07
2.0481e-07
1.59273e-07
1.23679e-07
9.59002e-08
7.42535e-08
5.74106e-08
4.43252e-08
3.41742e-08
2.6311e-08
2.0229e-08
1.55314e-08
1.19085e-08
9.11824e-09
6.97238e-09
5.3244e-09
4.06054e-09
3.09261e-09
2.35233e-09
1.78693e-09
1.35568e-09
1.02719e-09
7.77311e-10
5.87476e-10
4.43447e-10
3.34313e-10
2.51726e-10
1.89309e-10
1.42196e-10
1.06679e-10
7.99367e-11
5.98271e-11
4.47235e-11
3.33936e-11
2.49048e-11
1.85524e-11
1.38044e-11
1.02598e-11
7.61667e-12
5.64811e-12
4.18363e-12
3.09543e-12
2.28775e-12
1.68896e-12
1.24553e-12
9.17532e-13
6.7518e-13
4.9631e-13
3.64439e-13
2.67324e-13
1.95883e-13
1.43384e-13
1.04847e-13
7.65889e-14
5.58895e-14
4.0743e-14
2.96714e-14
2.15867e-14
1.56893e-14
1.13917e-14
8.26316e-15
5.98796e-15
4.335e-15
3.13531e-15
2.26544e-15
1.63536e-15
1.17939e-15
8.49759e-16
6.11682e-16
4.39897e-16
3.16063e-16
2.2688e-16
1.62713e-16
1.16587e-16
8.34618e-17
5.96945e-17
4.26572e-17
3.04554e-17
2.17247e-17
1.54832e-17
1.10252e-17
7.844e-18
5.57587e-18
3.96019e-18
2.81026e-18
1.99255e-18
1.41158e-18
9.99169e-19
7.06657e-19
4.99365e-19
3.52589e-19
2.4875e-19
1.75349e-19
1.23507e-19
8.69215e-20
6.11246e-20
4.29494e-20
3.01546e-20
2.11548e-20
1.48293e-20
1.03871e-20
7.26994e-21
5.0843e-21
3.55302e-21
2.48103e-21
1.73116e-21
1.20702e-21
8.40935e-22
5.85445e-22
4.07274e-22
2.83117e-22
1.96664e-22
1.3651e-22
9.46868e-23
6.56294e-23
4.54562e-23
3.14613e-23
2.17596e-23
1.50389e-23
1.03866e-23
7.16844e-24
4.94393e-24
3.40736e-24
2.34673e-24
1.61513e-24
1.11085e-24
7.63494e-25
5.24398e-25
3.59934e-25
2.46884e-25
1.69228e-25
1.15921e-25
7.93533e-26
5.42851e-26
3.71118e-26
2.53547e-26
1.73111e-26
1.18116e-26
8.054e-27
5.4883e-27
3.73755e-27
2.54367e-27
1.73005e-27
1.17594e-27
7.98805e-28
5.42281e-28
3.67908e-28
2.49452e-28
1.69031e-28
1.14467e-28
7.74698e-29
5.23987e-29
3.54198e-29
2.39283e-29
1.61554e-29
1.0901e-29
7.35116e-30
4.9544e-30
3.33711e-30
2.24652e-30
1.5108e-30
1.022e-30
6.25785e-31
)
;

boundaryField
{
    sides
    {
        type            zeroGradient;
    }
    empty
    {
        type            empty;
    }
}


// ************************************************************************* //
