/*--------------------------------*- C++ -*----------------------------------*\
| =========                 |                                                 |
| \\      /  F ield         | OpenFOAM: The Open Source CFD Toolbox           |
|  \\    /   O peration     | Version:  2112                                  |
|   \\  /    A nd           | Website:  www.openfoam.com                      |
|    \\/     M anipulation  |                                                 |
\*---------------------------------------------------------------------------*/
FoamFile
{
    version     2.0;
    format      ascii;
    arch        "LSB;label=32;scalar=64";
    class       volScalarField;
    location    "4";
    object      T;
}
// * * * * * * * * * * * * * * * * * * * * * * * * * * * * * * * * * * * * * //

dimensions      [0 0 0 1 0 0 0];

internalField   nonuniform List<scalar> 
1000
(
0.0596728
0.0596744
0.0596775
0.0596821
0.0596883
0.0596961
0.0597054
0.0597162
0.0597286
0.0597426
0.0597581
0.0597751
0.0597937
0.0598138
0.0598355
0.0598587
0.0598835
0.0599098
0.0599376
0.059967
0.0599979
0.0600304
0.0600644
0.0600999
0.060137
0.0601756
0.0602158
0.0602574
0.0603006
0.0603454
0.0603916
0.0604394
0.0604887
0.0605395
0.0605919
0.0606458
0.0607011
0.060758
0.0608164
0.0608763
0.0609378
0.0610007
0.0610651
0.061131
0.0611985
0.0612674
0.0613378
0.0614097
0.0614831
0.061558
0.0616344
0.0617122
0.0617916
0.0618724
0.0619546
0.0620384
0.0621236
0.0622103
0.0622984
0.062388
0.062479
0.0625715
0.0626655
0.0627609
0.0628577
0.062956
0.0630557
0.0631568
0.0632594
0.0633633
0.0634687
0.0635756
0.0636838
0.0637934
0.0639045
0.0640169
0.0641307
0.064246
0.0643626
0.0644806
0.0645999
0.0647207
0.0648428
0.0649663
0.0650912
0.0652174
0.0653449
0.0654739
0.0656041
0.0657357
0.0658686
0.0660029
0.0661385
0.0662754
0.0664136
0.0665531
0.066694
0.0668361
0.0669795
0.0671243
0.0672703
0.0674176
0.0675661
0.0677159
0.067867
0.0680194
0.068173
0.0683278
0.0684839
0.0686412
0.0687998
0.0689596
0.0691206
0.0692828
0.0694462
0.0696108
0.0697766
0.0699436
0.0701118
0.0702812
0.0704517
0.0706234
0.0707962
0.0709702
0.0711454
0.0713217
0.0714991
0.0716776
0.0718573
0.0720381
0.07222
0.0724029
0.072587
0.0727722
0.0729584
0.0731457
0.0733341
0.0735236
0.073714
0.0739056
0.0740982
0.0742918
0.0744864
0.074682
0.0748787
0.0750763
0.075275
0.0754746
0.0756752
0.0758768
0.0760794
0.0762829
0.0764873
0.0766928
0.0768991
0.0771064
0.0773145
0.0775236
0.0777336
0.0779445
0.0781563
0.078369
0.0785825
0.0787969
0.0790122
0.0792283
0.0794452
0.079663
0.0798816
0.080101
0.0803213
0.0805423
0.0807641
0.0809867
0.0812101
0.0814342
0.0816591
0.0818848
0.0821112
0.0823383
0.0825662
0.0827947
0.083024
0.083254
0.0834846
0.083716
0.083948
0.0841806
0.084414
0.0846479
0.0848825
0.0851178
0.0853536
0.0855901
0.0858272
0.0860648
0.0863031
0.0865419
0.0867813
0.0870212
0.0872617
0.0875027
0.0877442
0.0879863
0.0882289
0.0884719
0.0887155
0.0889595
0.0892041
0.089449
0.0896945
0.0899403
0.0901866
0.0904334
0.0906805
0.0909281
0.091176
0.0914244
0.0916731
0.0919222
0.0921716
0.0924214
0.0926715
0.092922
0.0931728
0.0934239
0.0936752
0.0939269
0.0941789
0.0944311
0.0946836
0.0949363
0.0951893
0.0954425
0.0956959
0.0959496
0.0962034
0.0964575
0.0967117
0.0969661
0.0972206
0.0974753
0.0977301
0.0979851
0.0982402
0.0984954
0.0987507
0.0990061
0.0992616
0.0995171
0.0997728
0.100028
0.100284
0.10054
0.100796
0.101051
0.101307
0.101563
0.101819
0.102074
0.10233
0.102586
0.102841
0.103097
0.103352
0.103607
0.103863
0.104118
0.104373
0.104628
0.104882
0.105137
0.105391
0.105645
0.105899
0.106153
0.106407
0.10666
0.106914
0.107167
0.107419
0.107672
0.107924
0.108176
0.108427
0.108679
0.10893
0.109181
0.109431
0.109681
0.109931
0.11018
0.110429
0.110678
0.110926
0.111174
0.111421
0.111668
0.111915
0.112161
0.112407
0.112652
0.112897
0.113141
0.113385
0.113629
0.113871
0.114114
0.114355
0.114597
0.114837
0.115078
0.115317
0.115556
0.115795
0.116033
0.11627
0.116506
0.116742
0.116978
0.117212
0.117447
0.11768
0.117913
0.118145
0.118376
0.118607
0.118837
0.119066
0.119294
0.119522
0.119749
0.119976
0.120201
0.120426
0.12065
0.120873
0.121095
0.121317
0.121537
0.121757
0.121976
0.122194
0.122412
0.122628
0.122844
0.123058
0.123272
0.123485
0.123697
0.123908
0.124118
0.124327
0.124535
0.124743
0.124949
0.125154
0.125359
0.125562
0.125764
0.125966
0.126166
0.126365
0.126564
0.126761
0.126957
0.127152
0.127346
0.127539
0.127731
0.127922
0.128111
0.1283
0.128488
0.128674
0.128859
0.129043
0.129226
0.129408
0.129588
0.129768
0.129946
0.130123
0.130299
0.130474
0.130647
0.130819
0.130991
0.13116
0.131329
0.131496
0.131662
0.131827
0.131991
0.132153
0.132314
0.132474
0.132632
0.132789
0.132945
0.133099
0.133253
0.133404
0.133555
0.133704
0.133852
0.133998
0.134144
0.134287
0.13443
0.134571
0.13471
0.134849
0.134985
0.135121
0.135255
0.135387
0.135519
0.135648
0.135777
0.135904
0.136029
0.136153
0.136276
0.136397
0.136517
0.136635
0.136751
0.136867
0.13698
0.137093
0.137204
0.137313
0.137421
0.137527
0.137632
0.137735
0.137837
0.137937
0.138036
0.138133
0.138228
0.138322
0.138415
0.138506
0.138595
0.138683
0.13877
0.138854
0.138937
0.139019
0.139099
0.139178
0.139254
0.13933
0.139403
0.139476
0.139546
0.139615
0.139682
0.139748
0.139812
0.139875
0.139936
0.139995
0.140053
0.140109
0.140163
0.140216
0.140267
0.140317
0.140364
0.140411
0.140455
0.140498
0.14054
0.140579
0.140618
0.140654
0.140689
0.140722
0.140753
0.140783
0.140811
0.140838
0.140863
0.140886
0.140908
0.140928
0.140946
0.140963
0.140977
0.140991
0.141002
0.141012
0.141021
0.141027
0.141032
0.141036
0.141037
0.141037
0.141036
0.141032
0.141027
0.141021
0.141012
0.141002
0.140991
0.140977
0.140963
0.140946
0.140928
0.140908
0.140886
0.140863
0.140838
0.140811
0.140783
0.140753
0.140722
0.140689
0.140654
0.140618
0.140579
0.14054
0.140498
0.140455
0.140411
0.140364
0.140317
0.140267
0.140216
0.140163
0.140109
0.140053
0.139995
0.139936
0.139875
0.139812
0.139748
0.139682
0.139615
0.139546
0.139476
0.139403
0.13933
0.139254
0.139178
0.139099
0.139019
0.138937
0.138854
0.13877
0.138683
0.138595
0.138506
0.138415
0.138322
0.138228
0.138133
0.138036
0.137937
0.137837
0.137735
0.137632
0.137527
0.137421
0.137313
0.137204
0.137093
0.13698
0.136867
0.136751
0.136635
0.136517
0.136397
0.136276
0.136153
0.136029
0.135904
0.135777
0.135648
0.135519
0.135387
0.135255
0.135121
0.134985
0.134849
0.13471
0.134571
0.13443
0.134287
0.134144
0.133998
0.133852
0.133704
0.133555
0.133404
0.133253
0.133099
0.132945
0.132789
0.132632
0.132474
0.132314
0.132153
0.131991
0.131827
0.131662
0.131496
0.131329
0.13116
0.130991
0.130819
0.130647
0.130474
0.130299
0.130123
0.129946
0.129768
0.129588
0.129408
0.129226
0.129043
0.128859
0.128674
0.128488
0.1283
0.128111
0.127922
0.127731
0.127539
0.127346
0.127152
0.126957
0.126761
0.126564
0.126365
0.126166
0.125966
0.125764
0.125562
0.125359
0.125154
0.124949
0.124743
0.124535
0.124327
0.124118
0.123908
0.123697
0.123485
0.123272
0.123058
0.122844
0.122628
0.122412
0.122194
0.121976
0.121757
0.121537
0.121317
0.121095
0.120873
0.12065
0.120426
0.120201
0.119976
0.119749
0.119522
0.119294
0.119066
0.118837
0.118607
0.118376
0.118145
0.117913
0.11768
0.117447
0.117212
0.116978
0.116742
0.116506
0.11627
0.116033
0.115795
0.115556
0.115317
0.115078
0.114837
0.114597
0.114355
0.114114
0.113871
0.113629
0.113385
0.113141
0.112897
0.112652
0.112407
0.112161
0.111915
0.111668
0.111421
0.111174
0.110926
0.110678
0.110429
0.11018
0.109931
0.109681
0.109431
0.109181
0.10893
0.108679
0.108427
0.108176
0.107924
0.107672
0.107419
0.107167
0.106914
0.10666
0.106407
0.106153
0.105899
0.105645
0.105391
0.105137
0.104882
0.104628
0.104373
0.104118
0.103863
0.103607
0.103352
0.103097
0.102841
0.102586
0.10233
0.102074
0.101819
0.101563
0.101307
0.101051
0.100796
0.10054
0.100284
0.100028
0.0997728
0.0995171
0.0992616
0.0990061
0.0987507
0.0984954
0.0982402
0.0979851
0.0977301
0.0974753
0.0972206
0.0969661
0.0967117
0.0964575
0.0962034
0.0959496
0.0956959
0.0954425
0.0951893
0.0949363
0.0946836
0.0944311
0.0941789
0.0939269
0.0936752
0.0934239
0.0931728
0.092922
0.0926715
0.0924214
0.0921716
0.0919222
0.0916731
0.0914244
0.091176
0.0909281
0.0906805
0.0904334
0.0901866
0.0899403
0.0896945
0.089449
0.0892041
0.0889595
0.0887155
0.0884719
0.0882289
0.0879863
0.0877442
0.0875027
0.0872617
0.0870212
0.0867813
0.0865419
0.0863031
0.0860648
0.0858272
0.0855901
0.0853536
0.0851178
0.0848825
0.0846479
0.084414
0.0841806
0.083948
0.083716
0.0834846
0.083254
0.083024
0.0827947
0.0825662
0.0823383
0.0821112
0.0818848
0.0816591
0.0814342
0.0812101
0.0809867
0.0807641
0.0805423
0.0803213
0.080101
0.0798816
0.079663
0.0794452
0.0792283
0.0790122
0.0787969
0.0785825
0.078369
0.0781563
0.0779445
0.0777336
0.0775236
0.0773145
0.0771064
0.0768991
0.0766928
0.0764873
0.0762829
0.0760794
0.0758768
0.0756752
0.0754746
0.075275
0.0750763
0.0748787
0.074682
0.0744864
0.0742918
0.0740982
0.0739056
0.073714
0.0735236
0.0733341
0.0731457
0.0729584
0.0727722
0.072587
0.0724029
0.07222
0.0720381
0.0718573
0.0716776
0.0714991
0.0713217
0.0711454
0.0709702
0.0707962
0.0706234
0.0704517
0.0702812
0.0701118
0.0699436
0.0697766
0.0696108
0.0694462
0.0692828
0.0691206
0.0689596
0.0687998
0.0686412
0.0684839
0.0683278
0.068173
0.0680194
0.067867
0.0677159
0.0675661
0.0674176
0.0672703
0.0671243
0.0669795
0.0668361
0.066694
0.0665531
0.0664136
0.0662754
0.0661385
0.0660029
0.0658686
0.0657357
0.0656041
0.0654739
0.0653449
0.0652174
0.0650912
0.0649663
0.0648428
0.0647207
0.0645999
0.0644806
0.0643626
0.064246
0.0641307
0.0640169
0.0639045
0.0637934
0.0636838
0.0635756
0.0634687
0.0633633
0.0632594
0.0631568
0.0630557
0.062956
0.0628577
0.0627609
0.0626655
0.0625715
0.062479
0.062388
0.0622984
0.0622103
0.0621236
0.0620384
0.0619546
0.0618724
0.0617916
0.0617122
0.0616344
0.061558
0.0614831
0.0614097
0.0613378
0.0612674
0.0611985
0.061131
0.0610651
0.0610007
0.0609378
0.0608763
0.0608164
0.060758
0.0607011
0.0606458
0.0605919
0.0605395
0.0604887
0.0604394
0.0603916
0.0603454
0.0603006
0.0602574
0.0602158
0.0601756
0.060137
0.0600999
0.0600644
0.0600304
0.0599979
0.059967
0.0599376
0.0599098
0.0598835
0.0598587
0.0598355
0.0598138
0.0597937
0.0597751
0.0597581
0.0597426
0.0597286
0.0597162
0.0597054
0.0596961
0.0596883
0.0596821
0.0596775
0.0596744
0.0596728
)
;

boundaryField
{
    sides
    {
        type            zeroGradient;
    }
    empty
    {
        type            empty;
    }
}


// ************************************************************************* //
