0.005 	0.00348 	1
0.015 	0.00348 	1
0.025 	0.00348 	1
0.035 	0.00348 	1
0.045 	0.00348 	1
0.055 	0.00348 	1
0.065 	0.00348 	1
0.075 	0.00348 	1
0.085 	0.00348 	1
0.095 	0.00348 	1
0.105 	0.00348 	1
0.115 	0.00348 	1
0.125 	0.00348 	1
0.135 	0.00348 	1
0.145 	0.00348 	1
0.155 	0.00348 	1
0.165 	0.00348 	1
0.175 	0.00348 	1
0.185 	0.00348 	1
0.195 	0.00348 	1
0.205 	0.00348 	1
0.215 	0.00348 	1
0.225 	0.00348 	1
0.235 	0.00348 	1
0.245 	0.00348 	1
0.255 	0.00348 	1
0.265 	0.00348 	1
0.275 	0.00348 	1
0.285 	0.00348 	1
0.295 	0.00348 	1
0.305 	0.00348 	0.99999999
0.315 	0.0034799999 	0.99999984
0.325 	0.003479997 	0.99999695
0.335 	0.0034799583 	0.99995795
0.345 	0.0034795936 	0.99959112
0.355 	0.0034773064 	0.99729613
0.365 	0.0034680898 	0.98808856
0.375 	0.0034440226 	0.9643092
0.385 	0.0034002806 	0.92207393
0.395 	0.0033385885 	0.86469369
0.405 	0.0032639787 	0.79870538
0.415 	0.0031811637 	0.72973754
0.425 	0.0030934332 	0.66142799
0.435 	0.0030028029 	0.59579429
0.445 	0.0029099058 	0.53359217
0.455 	0.0028174128 	0.47697337
0.465 	0.0027090223 	0.41139646
0.475 	0.002652343 	0.38743553
0.485 	0.0025988067 	0.35212966
0.495 	0.0025521119 	0.33134578
0.505 	0.0025149862 	0.31343528
0.515 	0.0024900933 	0.30280008
0.525 	0.0024891088 	0.30205396
0.535 	0.0024892179 	0.30267882
0.545 	0.0024909826 	0.30299501
0.555 	0.0024940313 	0.30342946
0.565 	0.0024979971 	0.303812
0.575 	0.0025302757 	0.3043648
0.585 	0.0027609611 	0.30404035
0.595 	0.0033216032 	0.30355914
0.605 	0.0037977231 	0.30360956
0.615 	0.0039363845 	0.30390791
0.625 	0.0039513703 	0.30393679
0.635 	0.0039531258 	0.30440825
0.645 	0.0039534337 	0.30463396
0.655 	0.0039542256 	0.30485879
0.665 	0.0039202098 	0.29636584
0.675 	0.0034073528 	0.19196909
0.685 	0.0027851582 	0.10071036
0.695 	0.0027800103 	0.1000014
0.705 	0.00278 	0.1
0.715 	0.00278 	0.1
0.725 	0.00278 	0.1
0.735 	0.00278 	0.1
0.745 	0.00278 	0.1
0.755 	0.00278 	0.1
0.765 	0.00278 	0.1
0.775 	0.00278 	0.1
0.785 	0.00278 	0.1
0.795 	0.00278 	0.1
0.805 	0.00278 	0.1
0.815 	0.00278 	0.1
0.825 	0.00278 	0.1
0.835 	0.00278 	0.1
0.845 	0.00278 	0.1
0.855 	0.00278 	0.1
0.865 	0.00278 	0.1
0.875 	0.00278 	0.1
0.885 	0.00278 	0.1
0.895 	0.00278 	0.1
0.905 	0.00278 	0.1
0.915 	0.00278 	0.1
0.925 	0.00278 	0.1
0.935 	0.00278 	0.1
0.945 	0.00278 	0.1
0.955 	0.00278 	0.1
0.965 	0.00278 	0.1
0.975 	0.00278 	0.1
0.985 	0.00278 	0.1
0.995 	0.00278 	0.1
