0.0005 	0.00348 	8.8755469e-22 	1
0.0015 	0.00348 	1.8272653e-11 	1
0.0025 	0.00348 	1.0733613e-11 	1
0.0035 	0.00348 	2.7953635e-11 	1
0.0045 	0.00348 	4.0261304e-11 	1
0.0055 	0.00348 	4.0519627e-11 	1
0.0065 	0.00348 	2.6162828e-11 	1
0.0075 	0.00348 	1.8507411e-11 	1
0.0085 	0.00348 	3.7509347e-11 	1
0.0095 	0.00348 	1.2686038e-12 	1
0.0105 	0.00348 	4.4012317e-11 	1
0.0115 	0.00348 	1.0528311e-11 	1
0.0125 	0.00348 	3.9979306e-11 	1
0.0135 	0.00348 	7.1194322e-13 	1
0.0145 	0.00348 	3.1690309e-11 	1
0.0155 	0.00348 	1.1239254e-11 	1
0.0165 	0.00348 	2.5174778e-11 	1
0.0175 	0.00348 	9.4864624e-12 	1
0.0185 	0.00348 	3.0043224e-11 	1
0.0195 	0.00348 	7.6723133e-12 	1
0.0205 	0.00348 	4.0573981e-11 	1
0.0215 	0.00348 	8.6146793e-12 	1
0.0225 	0.00348 	1.1601506e-11 	1
0.0235 	0.00348 	9.6370764e-12 	1
0.0245 	0.00348 	2.5131094e-11 	1
0.0255 	0.00348 	1.7846932e-12 	1
0.0265 	0.00348 	8.4477253e-13 	1
0.0275 	0.00348 	1.0806197e-11 	1
0.0285 	0.00348 	3.1424205e-11 	1
0.0295 	0.00348 	1.6773181e-12 	1
0.0305 	0.00348 	4.5035937e-11 	1
0.0315 	0.00348 	1.64286e-13 	1
0.0325 	0.00348 	2.3256255e-11 	1
0.0335 	0.00348 	4.8283198e-12 	1
0.0345 	0.00348 	2.2983149e-11 	1
0.0355 	0.00348 	1.3398093e-11 	1
0.0365 	0.00348 	8.522977e-12 	1
0.0375 	0.00348 	1.1698655e-11 	1
0.0385 	0.00348 	8.3994846e-12 	1
0.0395 	0.00348 	1.9472119e-11 	1
0.0405 	0.00348 	9.1014239e-12 	1
0.0415 	0.00348 	1.4485737e-11 	1
0.0425 	0.00348 	2.5002155e-11 	1
0.0435 	0.00348 	2.4439826e-11 	1
0.0445 	0.00348 	1.9087858e-11 	1
0.0455 	0.00348 	1.7320616e-11 	1
0.0465 	0.00348 	1.3126209e-11 	1
0.0475 	0.00348 	1.3104534e-11 	1
0.0485 	0.00348 	1.6955919e-11 	1
0.0495 	0.00348 	1.3026837e-11 	1
0.0505 	0.00348 	4.9831132e-11 	1
0.0515 	0.00348 	2.7873382e-11 	1
0.0525 	0.00348 	2.1826589e-11 	1
0.0535 	0.00348 	1.7490015e-11 	1
0.0545 	0.00348 	1.2527421e-11 	1
0.0555 	0.00348 	1.3321285e-11 	1
0.0565 	0.00348 	8.621682e-12 	1
0.0575 	0.00348 	1.0819202e-11 	1
0.0585 	0.00348 	6.0263407e-12 	1
0.0595 	0.00348 	2.0526639e-11 	1
0.0605 	0.00348 	1.3794247e-11 	1
0.0615 	0.00348 	6.3775882e-12 	1
0.0625 	0.00348 	8.5345371e-12 	1
0.0635 	0.00348 	1.1445557e-12 	1
0.0645 	0.00348 	1.5747005e-11 	1
0.0655 	0.00348 	7.6131792e-12 	1
0.0665 	0.00348 	1.3336847e-11 	1
0.0675 	0.00348 	3.2547086e-12 	1
0.0685 	0.00348 	1.1789246e-11 	1
0.0695 	0.00348 	2.1615173e-11 	1
0.0705 	0.00348 	1.3106757e-11 	1
0.0715 	0.00348 	2.0772179e-11 	1
0.0725 	0.00348 	5.7986967e-12 	1
0.0735 	0.00348 	2.3010048e-11 	1
0.0745 	0.00348 	4.2337555e-12 	1
0.0755 	0.00348 	3.3382188e-11 	1
0.0765 	0.00348 	2.4994819e-11 	1
0.0775 	0.00348 	2.4757838e-11 	1
0.0785 	0.00348 	9.6001732e-12 	1
0.0795 	0.00348 	2.5441437e-11 	1
0.0805 	0.00348 	1.2652692e-11 	1
0.0815 	0.00348 	7.9859907e-12 	1
0.0825 	0.00348 	1.3192346e-11 	1
0.0835 	0.00348 	1.3035396e-11 	1
0.0845 	0.00348 	1.2489296e-12 	1
0.0855 	0.00348 	1.3751119e-11 	1
0.0865 	0.00348 	8.4677333e-13 	1
0.0875 	0.00348 	2.0941467e-13 	1
0.0885 	0.00348 	9.1730073e-12 	1
0.0895 	0.00348 	1.1213022e-11 	1
0.0905 	0.00348 	3.2567093e-12 	1
0.0915 	0.00348 	1.4686371e-11 	1
0.0925 	0.00348 	9.470345e-13 	1
0.0935 	0.00348 	8.1800661e-12 	1
0.0945 	0.00348 	9.6435234e-12 	1
0.0955 	0.00348 	8.1576129e-13 	1
0.0965 	0.00348 	8.6654768e-12 	1
0.0975 	0.00348 	7.5295912e-13 	1
0.0985 	0.00348 	2.0637238e-11 	1
0.0995 	0.00348 	8.718942e-12 	1
0.1005 	0.00348 	1.378202e-11 	1
0.1015 	0.00348 	1.1651748e-11 	1
0.1025 	0.00348 	7.9914372e-12 	1
0.1035 	0.00348 	2.2589885e-12 	1
0.1045 	0.00348 	4.1193777e-13 	1
0.1055 	0.00348 	3.5602716e-13 	1
0.1065 	0.00348 	2.0938799e-11 	1
0.1075 	0.00348 	2.5269481e-11 	1
0.1085 	0.00348 	1.4724497e-11 	1
0.1095 	0.00348 	2.2813083e-11 	1
0.1105 	0.00348 	2.8044115e-11 	1
0.1115 	0.00348 	3.1476003e-11 	1
0.1125 	0.00348 	5.1240791e-11 	1
0.1135 	0.00348 	3.116077e-11 	1
0.1145 	0.00348 	4.8701916e-11 	1
0.1155 	0.00348 	1.4031005e-12 	1
0.1165 	0.00348 	4.8881208e-11 	1
0.1175 	0.00348 	1.3291496e-11 	1
0.1185 	0.00348 	3.5871044e-11 	1
0.1195 	0.00348 	1.2820202e-11 	1
0.1205 	0.00348 	2.3258256e-11 	1
0.1215 	0.00348 	2.273772e-12 	1
0.1225 	0.00348 	2.8150934e-11 	1
0.1235 	0.00348 	1.1085417e-12 	1
0.1245 	0.00348 	1.6619122e-11 	1
0.1255 	0.00348 	4.5584372e-12 	1
0.1265 	0.00348 	4.3841473e-12 	1
0.1275 	0.00348 	2.1139322e-12 	1
0.1285 	0.00348 	3.0644124e-12 	1
0.1295 	0.00348 	1.1742783e-11 	1
0.1305 	0.00348 	4.1777338e-12 	1
0.1315 	0.00348 	1.7036172e-11 	1
0.1325 	0.00348 	5.4652338e-12 	1
0.1335 	0.00348 	3.793529e-11 	1
0.1345 	0.00348 	1.9054957e-11 	1
0.1355 	0.00348 	2.8574321e-11 	1
0.1365 	0.00348 	1.9084857e-11 	1
0.1375 	0.00348 	8.7654045e-12 	1
0.1385 	0.00348 	9.5515988e-12 	1
0.1395 	0.00348 	3.4541194e-12 	1
0.1405 	0.00348 	1.4369359e-11 	1
0.1415 	0.00348 	2.913465e-12 	1
0.1425 	0.00348 	1.5769125e-11 	1
0.1435 	0.00348 	2.4605112e-12 	1
0.1445 	0.00348 	1.4840209e-12 	1
0.1455 	0.00348 	2.4542532e-11 	1
0.1465 	0.00348 	7.2936106e-12 	1
0.1475 	0.00348 	2.9159214e-11 	1
0.1485 	0.00348 	3.3566371e-12 	1
0.1495 	0.00348 	1.9202681e-11 	1
0.1505 	0.00348 	1.3955643e-11 	1
0.1515 	0.00348 	1.1239477e-11 	1
0.1525 	0.00348 	2.3841371e-11 	1
0.1535 	0.00348 	1.4453503e-11 	1
0.1545 	0.00348 	1.159417e-11 	1
0.1555 	0.00348 	6.5890036e-12 	1
0.1565 	0.00348 	2.2701706e-11 	1
0.1575 	0.00348 	3.6958577e-11 	1
0.1585 	0.00348 	3.4684249e-11 	1
0.1595 	0.00348 	2.9639512e-11 	1
0.1605 	0.00348 	2.7414648e-11 	1
0.1615 	0.00348 	4.862233e-11 	1
0.1625 	0.00348 	2.9069958e-11 	1
0.1635 	0.00348 	3.5153987e-11 	1
0.1645 	0.00348 	3.4429039e-11 	1
0.1655 	0.00348 	2.6555981e-11 	1
0.1665 	0.00348 	4.0850644e-11 	1
0.1675 	0.00348 	3.0675804e-11 	1
0.1685 	0.00348 	5.1219449e-11 	1
0.1695 	0.00348 	4.77441e-12 	1
0.1705 	0.00348 	2.655398e-11 	1
0.1715 	0.00348 	3.1386969e-11 	1
0.1725 	0.00348 	3.4213511e-11 	1
0.1735 	0.00348 	3.624141e-11 	1
0.1745 	0.00348 	1.6622679e-11 	1
0.1755 	0.00348 	2.5780791e-11 	1
0.1765 	0.00348 	2.4026665e-11 	1
0.1775 	0.00348 	3.4672912e-11 	1
0.1785 	0.00348 	3.4961802e-11 	1
0.1795 	0.00348 	4.0297207e-11 	1
0.1805 	0.00348 	1.2481292e-11 	1
0.1815 	0.00348 	2.0136821e-11 	1
0.1825 	0.00348 	1.155471e-11 	1
0.1835 	0.00348 	6.5982295e-12 	1
0.1845 	0.00348 	1.4902899e-11 	1
0.1855 	0.00348 	5.9878813e-12 	1
0.1865 	0.00348 	8.4771815e-12 	1
0.1875 	0.00348 	3.4797627e-11 	1
0.1885 	0.00348 	1.4078135e-11 	1
0.1895 	0.00348 	1.2861551e-11 	1
0.1905 	0.00348 	1.4217078e-11 	1
0.1915 	0.00348 	2.1404981e-12 	1
0.1925 	0.00348 	1.2843099e-11 	1
0.1935 	0.00348 	6.4858527e-13 	1
0.1945 	0.00348 	1.2323787e-11 	1
0.1955 	0.00348 	1.2841877e-11 	1
0.1965 	0.00348 	3.1050505e-11 	1
0.1975 	0.00348 	4.7659733e-11 	1
0.1985 	0.00348 	1.9660414e-11 	1
0.1995 	0.00348 	5.4314429e-11 	1
0.2005 	0.00348 	2.442382e-11 	1
0.2015 	0.00348 	5.7484994e-11 	1
0.2025 	0.00348 	1.7082524e-11 	1
0.2035 	0.00348 	2.6238524e-11 	1
0.2045 	0.00348 	2.5719323e-11 	1
0.2055 	0.00348 	3.2529301e-12 	1
0.2065 	0.00348 	1.2547429e-11 	1
0.2075 	0.00348 	2.1220464e-12 	1
0.2085 	0.00348 	1.3222358e-11 	1
0.2095 	0.00348 	5.7659062e-12 	1
0.2105 	0.00348 	2.8632788e-11 	1
0.2115 	0.00348 	6.9821563e-12 	1
0.2125 	0.00348 	8.9501429e-12 	1
0.2135 	0.00348 	3.6701033e-11 	1
0.2145 	0.00348 	9.392537e-12 	1
0.2155 	0.00348 	2.6822418e-11 	1
0.2165 	0.00348 	2.0672807e-11 	1
0.2175 	0.00348 	3.2724488e-11 	1
0.2185 	0.00348 	2.9320499e-11 	1
0.2195 	0.00348 	1.7357964e-11 	1
0.2205 	0.00348 	2.0273208e-11 	1
0.2215 	0.00348 	5.9623159e-13 	1
0.2225 	0.00348 	3.8840641e-12 	1
0.2235 	0.00348 	1.1987434e-11 	1
0.2245 	0.00348 	1.1992325e-11 	1
0.2255 	0.00348 	1.167987e-11 	1
0.2265 	0.00348 	1.5016833e-11 	1
0.2275 	0.00348 	6.9690401e-12 	1
0.2285 	0.00348 	1.071016e-11 	1
0.2295 	0.00348 	5.2178044e-12 	1
0.2305 	0.00348 	1.2835207e-11 	1
0.2315 	0.00348 	3.3371851e-12 	1
0.2325 	0.00348 	1.4056015e-11 	1
0.2335 	0.00348 	1.9366189e-11 	1
0.2345 	0.00348 	1.4011331e-11 	1
0.2355 	0.00348 	2.3000156e-11 	1
0.2365 	0.00348 	5.0676683e-11 	1
0.2375 	0.00348 	3.700215e-12 	1
0.2385 	0.00348 	3.983914e-11 	1
0.2395 	0.00348 	2.8753501e-11 	1
0.2405 	0.00348 	4.2976137e-11 	1
0.2415 	0.00348 	3.1558369e-11 	1
0.2425 	0.00348 	4.0128364e-11 	1
0.2435 	0.00348 	2.7488788e-11 	1
0.2445 	0.00348 	4.5937731e-11 	1
0.2455 	0.00348 	3.1377521e-11 	1
0.2465 	0.00348 	3.7956298e-11 	1
0.2475 	0.00348 	2.371899e-11 	1
0.2485 	0.00348 	3.973121e-11 	1
0.2495 	0.00348 	1.0394926e-11 	1
0.2505 	0.00348 	2.6689255e-11 	1
0.2515 	0.00348 	1.6875999e-11 	1
0.2525 	0.00348 	2.4361129e-11 	1
0.2535 	0.00348 	5.4975797e-12 	1
0.2545 	0.00348 	3.1841145e-11 	1
0.2555 	0.00348 	1.5992656e-11 	1
0.2565 	0.00348 	1.7503243e-11 	1
0.2575 	0.00348 	1.3029505e-11 	1
0.2585 	0.00348 	1.2633018e-11 	1
0.2595 	0.00348 	1.9364521e-11 	1
0.2605 	0.00348 	9.046736e-12 	1
0.2615 	0.00348 	4.2479833e-12 	1
0.2625 	0.00348 	3.8152596e-12 	1
0.2635 	0.00348 	3.0043891e-12 	1
0.2645 	0.00348 	1.8084357e-11 	1
0.2655 	0.00348 	1.1009721e-11 	1
0.2665 	0.00348 	2.5575378e-11 	1
0.2675 	0.00348 	2.2657022e-11 	1
0.2685 	0.00348 	2.4589551e-11 	1
0.2695 	0.00348 	2.361206e-11 	1
0.2705 	0.00348 	2.7337952e-11 	1
0.2715 	0.00348 	2.7915287e-11 	1
0.2725 	0.00348 	7.6091777e-12 	1
0.2735 	0.00348 	8.3942603e-12 	1
0.2745 	0.00348 	2.236024e-11 	1
0.2755 	0.00348 	1.2721719e-11 	1
0.2765 	0.00348 	1.8846431e-11 	1
0.2775 	0.00348 	2.3197232e-11 	1
0.2785 	0.00348 	1.0804974e-11 	1
0.2795 	0.00348 	1.9368745e-11 	1
0.2805 	0.00348 	4.2606548e-12 	1
0.2815 	0.00348 	7.4951334e-13 	1
0.2825 	0.00348 	1.3374862e-11 	1
0.2835 	0.00348 	4.3480221e-12 	1
0.2845 	0.00348 	1.0584111e-11 	1
0.2855 	0.00348 	1.3272933e-12 	1
0.2865 	0.00348 	1.8003215e-11 	1
0.2875 	0.00348 	1.7960198e-11 	1
0.2885 	0.00348 	2.2397699e-11 	1
0.2895 	0.00348 	3.3285484e-11 	1
0.2905 	0.00348 	3.7689861e-11 	1
0.2915 	0.00348 	5.3303481e-11 	1
0.2925 	0.00348 	9.9480416e-11 	1
0.2935 	0.00348 	7.7390503e-11 	1
0.2945 	0.00348 	1.7477177e-10 	1
0.2955 	0.00348 	2.272775e-10 	1
0.2965 	0.00348 	3.0180055e-10 	1
0.2975 	0.00348 	4.3190998e-10 	1
0.2985 	0.00348 	6.1628025e-10 	1
0.2995 	0.00348 	8.5127097e-10 	1
0.3005 	0.00348 	1.2009967e-09 	1
0.3015 	0.00348 	1.6950411e-09 	1
0.3025 	0.00348 	2.3772034e-09 	1
0.3035 	0.00348 	3.3206575e-09 	1
0.3045 	0.00348 	4.6423437e-09 	0.99999999
0.3055 	0.00348 	6.4769579e-09 	0.99999999
0.3065 	0.00348 	9.0289383e-09 	0.99999999
0.3075 	0.00348 	1.2518788e-08 	0.99999999
0.3085 	0.00348 	1.7366293e-08 	0.99999998
0.3095 	0.00348 	2.3993656e-08 	0.99999997
0.3105 	0.00348 	3.3123488e-08 	0.99999996
0.3115 	0.0034799999 	4.5587198e-08 	0.99999995
0.3125 	0.0034799999 	6.2621576e-08 	0.99999993
0.3135 	0.0034799999 	8.5697329e-08 	0.9999999
0.3145 	0.0034799999 	1.1700797e-07 	0.99999986
0.3155 	0.0034799998 	1.5926845e-07 	0.99999981
0.3165 	0.0034799997 	2.1624124e-07 	0.99999975
0.3175 	0.0034799997 	2.9268777e-07 	0.99999966
0.3185 	0.0034799995 	3.9509373e-07 	0.99999954
0.3195 	0.0034799994 	5.31683e-07 	0.99999938
0.3205 	0.0034799992 	7.1341492e-07 	0.99999917
0.3215 	0.0034799989 	9.5435111e-07 	0.99999888
0.3225 	0.0034799985 	1.2728411e-06 	0.99999851
0.3235 	0.003479998 	1.6923936e-06 	0.99999802
0.3245 	0.0034799974 	2.2433017e-06 	0.99999737
0.3255 	0.0034799966 	2.9642088e-06 	0.99999653
0.3265 	0.0034799955 	3.9044963e-06 	0.99999543
0.3275 	0.0034799941 	5.1265713e-06 	0.99999399
0.3285 	0.0034799922 	6.7095317e-06 	0.99999214
0.3295 	0.0034799898 	8.7526142e-06 	0.99998974
0.3305 	0.0034799868 	1.1380275e-05 	0.99998666
0.3315 	0.0034799829 	1.4747547e-05 	0.9999827
0.3325 	0.0034799778 	1.9046987e-05 	0.99997765
0.3335 	0.0034799715 	2.4516235e-05 	0.99997123
0.3345 	0.0034799634 	3.1447689e-05 	0.99996309
0.3355 	0.0034799532 	4.0198829e-05 	0.9999528
0.3365 	0.0034799403 	5.120511e-05 	0.99993987
0.3375 	0.0034799242 	6.499374e-05 	0.99992365
0.3385 	0.0034799041 	8.2200111e-05 	0.99990342
0.3395 	0.0034798791 	0.0001035856 	0.99987826
0.3405 	0.0034798482 	0.0001300579 	0.99984712
0.3415 	0.00347981 	0.0001626927 	0.99980871
0.3425 	0.0034797631 	0.00020275786 	0.99976155
0.3435 	0.0034797057 	0.0002517386 	0.99970389
0.3445 	0.0034796359 	0.00031136464 	0.99963368
0.3455 	0.0034795512 	0.00038363743 	0.99954856
0.3465 	0.0034794489 	0.00047085867 	0.99944582
0.3475 	0.003479326 	0.0005756576 	0.99932236
0.3485 	0.003479179 	0.00070101771 	0.99917466
0.3495 	0.0034790038 	0.00085030094 	0.99899876
0.3505 	0.0034787961 	0.0010272691 	0.99879022
0.3515 	0.0034785508 	0.0012361002 	0.99854413
0.3525 	0.0034782627 	0.0014814008 	0.99825508
0.3535 	0.0034779258 	0.0017682101 	0.99791712
0.3545 	0.0034775336 	0.0021019974 	0.99752386
0.3555 	0.0034770792 	0.0024886507 	0.99706839
0.3565 	0.0034765551 	0.0029344562 	0.99654336
0.3575 	0.0034759537 	0.0034460673 	0.99594101
0.3585 	0.0034752666 	0.0040304647 	0.99525323
0.3595 	0.0034744854 	0.0046949055 	0.9944716
0.3605 	0.0034736012 	0.0054468639 	0.99358751
0.3615 	0.0034726052 	0.0062939633 	0.99259222
0.3625 	0.0034714883 	0.0072439014 	0.99147694
0.3635 	0.0034702416 	0.0083043699 	0.99023298
0.3645 	0.0034688562 	0.0094829708 	0.98885184
0.3655 	0.0034673234 	0.010787131 	0.98732528
0.3665 	0.003465635 	0.012224019 	0.98564551
0.3675 	0.003463783 	0.013800462 	0.98380519
0.3685 	0.0034617602 	0.015522872 	0.98179763
0.3695 	0.0034595598 	0.017397174 	0.97961679
0.3705 	0.0034571756 	0.019428746 	0.97725744
0.3715 	0.0034546024 	0.02162237 	0.97471513
0.3725 	0.0034518354 	0.023982191 	0.97198631
0.3735 	0.003448871 	0.026511687 	0.96906833
0.3745 	0.0034457062 	0.029213656 	0.96595947
0.3755 	0.0034423389 	0.032090202 	0.96265892
0.3765 	0.0034387677 	0.03514275 	0.95916679
0.3775 	0.0034349922 	0.038372053 	0.95548406
0.3785 	0.0034310127 	0.041778217 	0.95161256
0.3795 	0.0034268302 	0.045360735 	0.94755494
0.3805 	0.0034224463 	0.04911852 	0.94331456
0.3815 	0.0034178635 	0.053049949 	0.93889547
0.3825 	0.0034130846 	0.057152909 	0.93430232
0.3835 	0.0034081131 	0.061424846 	0.92954031
0.3845 	0.0034029529 	0.06586281 	0.9246151
0.3855 	0.0033976083 	0.070463511 	0.91953276
0.3865 	0.0033920839 	0.075223362 	0.91429967
0.3875 	0.0033863845 	0.080138533 	0.90892248
0.3885 	0.0033805155 	0.085204989 	0.90340804
0.3895 	0.003374482 	0.090418541 	0.89776332
0.3905 	0.0033682895 	0.09577488 	0.89199538
0.3915 	0.0033619436 	0.10126961 	0.88611132
0.3925 	0.0033554497 	0.1068983 	0.88011822
0.3935 	0.0033488135 	0.11265649 	0.8740231
0.3945 	0.0033420406 	0.11853973 	0.86783291
0.3955 	0.0033351364 	0.12454359 	0.86155446
0.3965 	0.0033281063 	0.13066372 	0.85519444
0.3975 	0.0033209557 	0.13689581 	0.84875936
0.3985 	0.0033136898 	0.14323565 	0.84225554
0.3995 	0.0033063136 	0.14967913 	0.83568912
0.4005 	0.0032988322 	0.15622222 	0.82906603
0.4015 	0.0032912504 	0.16286103 	0.82239199
0.4025 	0.0032835728 	0.16959178 	0.81567249
0.4035 	0.0032758039 	0.17641082 	0.80891279
0.4045 	0.003267948 	0.1833146 	0.80211795
0.4055 	0.0032600094 	0.19029974 	0.7952928
0.4065 	0.003251992 	0.19736295 	0.78844192
0.4075 	0.0032438997 	0.20450109 	0.78156972
0.4085 	0.0032357363 	0.21171115 	0.77468037
0.4095 	0.0032275052 	0.21899023 	0.76777782
0.4105 	0.0032192099 	0.22633556 	0.76086585
0.4115 	0.0032108536 	0.23374448 	0.75394802
0.4125 	0.0032024394 	0.24121448 	0.7470277
0.4135 	0.0031939703 	0.24874313 	0.74010809
0.4145 	0.003185449 	0.25632813 	0.7331922
0.4155 	0.0031768784 	0.26396728 	0.72628287
0.4165 	0.003168261 	0.27165847 	0.7193828
0.4175 	0.0031595991 	0.27939973 	0.7124945
0.4185 	0.0031508952 	0.28718915 	0.70562034
0.4195 	0.0031421515 	0.29502494 	0.69876257
0.4205 	0.0031333699 	0.30290538 	0.69192326
0.4215 	0.0031245527 	0.31082886 	0.68510439
0.4225 	0.0031157015 	0.31879385 	0.67830777
0.4235 	0.0031068182 	0.32679891 	0.67153512
0.4245 	0.0030979045 	0.33484267 	0.66478802
0.4255 	0.0030889619 	0.34292387 	0.65806795
0.4265 	0.003079992 	0.35104133 	0.65137626
0.4275 	0.0030709961 	0.35919394 	0.64471421
0.4285 	0.0030619754 	0.36738069 	0.63808293
0.4295 	0.0030529312 	0.37560068 	0.63148344
0.4305 	0.0030438644 	0.3838531 	0.62491667
0.4315 	0.0030347759 	0.39213724 	0.61838343
0.4325 	0.003025667 	0.40045251 	0.61188438
0.4335 	0.0030165367 	0.40879849 	0.60542012
0.4345 	0.0030073897 	0.41717482 	0.59899106
0.4355 	0.002998216 	0.42558146 	0.59259751
0.4365 	0.0029890402 	0.43401829 	0.5862396
0.4375 	0.0029798059 	0.442486 	0.57991732
0.4385 	0.0029706359 	0.45098432 	0.57363042
0.4395 	0.0029612721 	0.45951561 	0.56737851
0.4405 	0.0029522237 	0.46807855 	0.56116092
0.4415 	0.0029425307 	0.47667818 	0.55497681
0.4425 	0.0029338932 	0.48531154 	0.5488254
0.4435 	0.0029234659 	0.49398337 	0.54270567
0.4445 	0.0029157069 	0.50269278 	0.5366186
0.4455 	0.0029041047 	0.51142777 	0.53056574
0.4465 	0.002897495 	0.52019435 	0.52455499
0.4475 	0.0028848677 	0.52894898 	0.5185992
0.4485 	0.0028791201 	0.53767062 	0.51271886
0.4495 	0.00286443 	0.54619037 	0.50692594
0.4505 	0.0028640517 	0.55499055 	0.5012786
0.4515 	0.0028439388 	0.56387567 	0.4957317
0.4525 	0.0028451744 	0.57088999 	0.4901173
0.4535 	0.0028251099 	0.58186201 	0.48488229
0.4545 	0.0028310666 	0.5861534 	0.4798171
0.4555 	0.0028037589 	0.60021703 	0.47412963
0.4565 	0.0028115471 	0.60134738 	0.46896954
0.4575 	0.0027867805 	0.61785314 	0.46364967
0.4585 	0.0027981269 	0.61911379 	0.45839541
0.4595 	0.0027666132 	0.63651665 	0.45270968
0.4605 	0.0027764455 	0.63678505 	0.44747663
0.4615 	0.0027412625 	0.65784138 	0.4411786
0.4625 	0.0027572835 	0.6578795 	0.43365343
0.4635 	0.0027070238 	0.68603009 	0.42547843
0.4645 	0.0027375605 	0.68845669 	0.41583665
0.4655 	0.0026804841 	0.71563473 	0.40695627
0.4665 	0.0026928814 	0.7134741 	0.40290043
0.4675 	0.0026859172 	0.71776554 	0.40217628
0.4685 	0.0026832108 	0.72108445 	0.40108999
0.4695 	0.0026829114 	0.72489199 	0.39911852
0.4705 	0.0026690758 	0.72923484 	0.39593675
0.4715 	0.0026698908 	0.73324986 	0.393497
0.4725 	0.0026698929 	0.73173841 	0.39196856
0.4735 	0.002665853 	0.73678235 	0.39082888
0.4745 	0.0026671116 	0.73840361 	0.38893967
0.4755 	0.0026375744 	0.74979991 	0.38593139
0.4765 	0.0026604647 	0.75581631 	0.37780436
0.4775 	0.0026313012 	0.77310827 	0.37316141
0.4785 	0.0026356181 	0.7704936 	0.37134306
0.4795 	0.0026211939 	0.78042619 	0.37005822
0.4805 	0.0026321784 	0.78220028 	0.36775784
0.4815 	0.0026013578 	0.7940975 	0.36458356
0.4825 	0.0026254579 	0.79340896 	0.36214169
0.4835 	0.0025792687 	0.80760385 	0.35648627
0.4845 	0.002597641 	0.81136595 	0.35275866
0.4855 	0.0025999724 	0.80745767 	0.35150066
0.4865 	0.0025964252 	0.80743041 	0.35208269
0.4875 	0.0025993112 	0.80738714 	0.35182272
0.4885 	0.002579605 	0.8133333 	0.35075295
0.4895 	0.0026072717 	0.81768179 	0.34853559
0.4905 	0.0025636591 	0.83020585 	0.34437813
0.4915 	0.0025770193 	0.83392377 	0.33969552
0.4925 	0.0025470851 	0.84706516 	0.33336622
0.4935 	0.0025493878 	0.84821172 	0.3314149
0.4945 	0.0025548795 	0.84909587 	0.33159476
0.4955 	0.0025493443 	0.85421756 	0.33109679
0.4965 	0.0025571273 	0.85347514 	0.32975973
0.4975 	0.002527902 	0.86521386 	0.32814176
0.4985 	0.0025647293 	0.86563354 	0.32530186
0.4995 	0.0025103968 	0.88757134 	0.31955969
0.5005 	0.0025292248 	0.88371381 	0.31715042
0.5015 	0.0025136361 	0.89109113 	0.31544237
0.5025 	0.0025175832 	0.89310991 	0.31508011
0.5035 	0.0025174256 	0.89495336 	0.31462239
0.5045 	0.0025197739 	0.89530943 	0.31409601
0.5055 	0.0025101985 	0.90088965 	0.31277454
0.5065 	0.0025162822 	0.9056695 	0.31046136
0.5075 	0.0025113205 	0.90624354 	0.31002557
0.5085 	0.0025111466 	0.90462222 	0.30975779
0.5095 	0.0025002125 	0.90913183 	0.30927898
0.5105 	0.0025126806 	0.90974483 	0.30846046
0.5115 	0.0024855906 	0.91466033 	0.30650135
0.5125 	0.0025025746 	0.91320631 	0.30506778
0.5135 	0.0024872746 	0.91956892 	0.30389557
0.5145 	0.0024969921 	0.91835912 	0.30324371
0.5155 	0.0024831945 	0.92343729 	0.30235644
0.5165 	0.0024887536 	0.92382604 	0.3017622
0.5175 	0.0024823039 	0.92693279 	0.30120257
0.5185 	0.0024849174 	0.92690753 	0.30100378
0.5195 	0.0024840061 	0.92814953 	0.30077895
0.5205 	0.0024859549 	0.92854157 	0.30084353
0.5215 	0.0024861825 	0.92852411 	0.30101402
0.5225 	0.0024887654 	0.92780793 	0.30138662
0.5235 	0.002488024 	0.92735543 	0.30182924
0.5245 	0.0024888799 	0.92691682 	0.30197825
0.5255 	0.0024893377 	0.92688725 	0.30212967
0.5265 	0.0024898502 	0.9267973 	0.30223018
0.5275 	0.0024898011 	0.92683193 	0.30226815
0.5285 	0.0024897092 	0.92684918 	0.30231736
0.5295 	0.0024899154 	0.92670024 	0.30235906
0.5305 	0.0024894398 	0.92654014 	0.30250066
0.5315 	0.0024900141 	0.92619538 	0.30257084
0.5325 	0.0024891915 	0.92608007 	0.30263109
0.5335 	0.0024898372 	0.92586642 	0.30264514
0.5345 	0.0024888234 	0.92592779 	0.30264811
0.5355 	0.0024896123 	0.92550746 	0.30270953
0.5365 	0.0024890725 	0.92549336 	0.30271767
0.5375 	0.0024895004 	0.92519671 	0.30274734
0.5385 	0.0024892085 	0.92510795 	0.30278009
0.5395 	0.0024899199 	0.92486953 	0.30283169
0.5405 	0.0024898092 	0.92480406 	0.30285964
0.5415 	0.002490414 	0.92477448 	0.30289195
0.5425 	0.0024902928 	0.92478989 	0.30291221
0.5435 	0.0024908995 	0.92478722 	0.30295552
0.5445 	0.0024905922 	0.92486421 	0.30297062
0.5455 	0.0024913731 	0.92485254 	0.3030194
0.5465 	0.0024909795 	0.92500294 	0.30303809
0.5475 	0.0024917746 	0.92502212 	0.30308184
0.5485 	0.0024914509 	0.92520048 	0.30309977
0.5495 	0.0024923914 	0.92511055 	0.30316566
0.5505 	0.0024922173 	0.92517063 	0.30323234
0.5515 	0.0024931644 	0.92517352 	0.3032762
0.5525 	0.0024928477 	0.92527893 	0.30332301
0.5535 	0.0024937846 	0.92528055 	0.30336295
0.5545 	0.0024935775 	0.92535972 	0.30340434
0.5555 	0.0024944852 	0.92536251 	0.30345458
0.5565 	0.002494397 	0.92539352 	0.3034998
0.5575 	0.0024952695 	0.92544885 	0.30354223
0.5585 	0.0024949647 	0.92554893 	0.30354787
0.5595 	0.0024959359 	0.92559441 	0.30357363
0.5605 	0.0024954104 	0.92564226 	0.30359676
0.5615 	0.0024966748 	0.92546138 	0.30368278
0.5625 	0.0024963773 	0.92548614 	0.30373374
0.5635 	0.0024974794 	0.92552699 	0.30380322
0.5645 	0.0024974752 	0.92546651 	0.30380085
0.5655 	0.0024985191 	0.92542342 	0.30382316
0.5665 	0.002498344 	0.92534365 	0.30388952
0.5675 	0.0024995875 	0.92535393 	0.30391919
0.5685 	0.0025009758 	0.92537345 	0.30394335
0.5695 	0.0025020272 	0.92523031 	0.30403196
0.5705 	0.0025048574 	0.9252568 	0.30395609
0.5715 	0.0025051437 	0.92505143 	0.30407443
0.5725 	0.0025137392 	0.9249375 	0.30419001
0.5735 	0.0025160011 	0.92487305 	0.3042965
0.5745 	0.0025250634 	0.92485538 	0.30439423
0.5755 	0.0025354881 	0.92463872 	0.30433537
0.5765 	0.0025415387 	0.92422622 	0.30458226
0.5775 	0.0025633556 	0.92384466 	0.30442825
0.5785 	0.0025667584 	0.92351762 	0.30476389
0.5795 	0.002601434 	0.92330762 	0.304044
0.5805 	0.0025939147 	0.92339761 	0.30403069
0.5815 	0.0026588869 	0.92297597 	0.30421312
0.5825 	0.0026450127 	0.92342119 	0.30368001
0.5835 	0.0027243346 	0.92266706 	0.30421778
0.5845 	0.0027237393 	0.92357812 	0.3045571
0.5855 	0.002798183 	0.92389217 	0.30352359
0.5865 	0.0028059717 	0.92388786 	0.30342652
0.5875 	0.0028755659 	0.92420779 	0.30354144
0.5885 	0.002924528 	0.92468576 	0.30356833
0.5895 	0.0029821715 	0.92435758 	0.30357174
0.5905 	0.0030382264 	0.92440925 	0.30353705
0.5915 	0.0031015382 	0.92437358 	0.30352455
0.5925 	0.0031613125 	0.92438647 	0.30352016
0.5935 	0.0032280645 	0.92439618 	0.30353253
0.5945 	0.0032884162 	0.9243746 	0.30355074
0.5955 	0.0033547903 	0.92442331 	0.30356754
0.5965 	0.0034128143 	0.92447101 	0.30357858
0.5975 	0.0034748771 	0.92455341 	0.30357204
0.5985 	0.0035286113 	0.92467416 	0.30357983
0.5995 	0.0035828719 	0.92476762 	0.30357473
0.6005 	0.003630373 	0.92486624 	0.30358409
0.6015 	0.0036756954 	0.92492277 	0.3035816
0.6025 	0.0037153953 	0.92502235 	0.30358888
0.6035 	0.00375197 	0.92511518 	0.30358065
0.6045 	0.0037833144 	0.92534355 	0.30359534
0.6055 	0.0038121319 	0.92523595 	0.30362378
0.6065 	0.0038358777 	0.92525984 	0.30365898
0.6075 	0.0038574446 	0.92497355 	0.30373724
0.6085 	0.0038750892 	0.92495751 	0.30378203
0.6095 	0.0038906196 	0.92494348 	0.30382028
0.6105 	0.0039024431 	0.92493844 	0.30385793
0.6115 	0.0039141914 	0.92494037 	0.303892
0.6125 	0.0039208349 	0.9249994 	0.30391672
0.6135 	0.00393013 	0.92507841 	0.30391416
0.6145 	0.0039326646 	0.92526106 	0.30391024
0.6155 	0.0039401045 	0.92523889 	0.30390557
0.6165 	0.0039407139 	0.92552905 	0.30389319
0.6175 	0.0039452908 	0.92556646 	0.30389084
0.6185 	0.0039465116 	0.92580527 	0.30389546
0.6195 	0.0039481752 	0.92587979 	0.30389855
0.6205 	0.0039491688 	0.92601391 	0.3039046
0.6215 	0.0039497954 	0.9260997 	0.30393235
0.6225 	0.0039509965 	0.92623408 	0.30390816
0.6235 	0.0039505128 	0.92650175 	0.30390794
0.6245 	0.0039515264 	0.92670573 	0.30391657
0.6255 	0.0039512143 	0.92672 	0.30395701
0.6265 	0.0039522179 	0.9264975 	0.30404167
0.6275 	0.003952012 	0.92642097 	0.30411145
0.6285 	0.0039526325 	0.92643383 	0.30415267
0.6295 	0.0039524211 	0.92653644 	0.30418615
0.6305 	0.0039526884 	0.92657195 	0.30422879
0.6315 	0.0039528581 	0.92656547 	0.30428911
0.6325 	0.0039529641 	0.92653991 	0.30434531
0.6335 	0.0039531273 	0.92654973 	0.30439059
0.6345 	0.0039530263 	0.92677317 	0.30440942
0.6355 	0.0039532253 	0.92675649 	0.30440709
0.6365 	0.0039525586 	0.92710071 	0.30439895
0.6375 	0.0039534081 	0.92713023 	0.30437621
0.6385 	0.0039524893 	0.92744911 	0.30437302
0.6395 	0.0039527291 	0.92763419 	0.30437898
0.6405 	0.0039527798 	0.92775855 	0.30440207
0.6415 	0.0039528921 	0.92771742 	0.3044556
0.6425 	0.0039530537 	0.92759541 	0.30453072
0.6435 	0.0039532941 	0.92761257 	0.30458265
0.6445 	0.0039533168 	0.92770025 	0.30461427
0.6455 	0.0039535507 	0.92775435 	0.30465365
0.6465 	0.0039536869 	0.92774143 	0.30472024
0.6475 	0.0039542061 	0.92765611 	0.30481983
0.6485 	0.0039539938 	0.92784568 	0.3048876
0.6495 	0.003954314 	0.92794316 	0.30488764
0.6505 	0.0039540709 	0.92835903 	0.30485634
0.6515 	0.0039540363 	0.92857216 	0.30482704
0.6525 	0.0039539627 	0.92895711 	0.30480308
0.6535 	0.0039542092 	0.92898694 	0.3048217
0.6545 	0.0039542622 	0.92887355 	0.3048555
0.6555 	0.0039541889 	0.92885884 	0.30486208
0.6565 	0.0039539193 	0.92890899 	0.30481927
0.6575 	0.0039533444 	0.92882222 	0.30471095
0.6585 	0.0039525095 	0.92849467 	0.30453756
0.6595 	0.0039515217 	0.92815199 	0.30418762
0.6605 	0.0039484472 	0.92705378 	0.30359598
0.6615 	0.003945349 	0.92504573 	0.30272744
0.6625 	0.0039405598 	0.92195214 	0.30152486
0.6635 	0.00393421 	0.91754425 	0.29991677
0.6645 	0.003925807 	0.91146947 	0.29777677
0.6655 	0.0039146126 	0.90331449 	0.29495491
0.6665 	0.0038998625 	0.89244729 	0.29126905
0.6675 	0.0038804855 	0.87812935 	0.28649922
0.6685 	0.0038552147 	0.85940026 	0.28039178
0.6695 	0.0038224099 	0.83510999 	0.27266491
0.6705 	0.0037801062 	0.80387083 	0.26302772
0.6715 	0.0037259469 	0.7640899 	0.25121511
0.6725 	0.0036573314 	0.7140365 	0.23704737
0.6735 	0.0035717787 	0.65203482 	0.22052037
0.6745 	0.0034677989 	0.57693332 	0.20192737
0.6755 	0.0033469066 	0.48907501 	0.1820108
0.6765 	0.0032164864 	0.39176494 	0.1620744
0.6775 	0.0030903581 	0.29237997 	0.14379896
0.6785 	0.002983437 	0.20176242 	0.12871397
0.6795 	0.002904381 	0.12922921 	0.11759815
0.6805 	0.0028523819 	0.077781305 	0.11023172
0.6815 	0.0028208254 	0.04470325 	0.10574142
0.6825 	0.0028025866 	0.024914804 	0.10315396
0.6835 	0.0027923467 	0.013636957 	0.10171227
0.6845 	0.0027866988 	0.0073884694 	0.10092385
0.6855 	0.0027836176 	0.0039820163 	0.10049687
0.6865 	0.002781948 	0.0021403102 	0.10026679
0.6875 	0.0027810471 	0.0011488503 	0.10014313
0.6885 	0.0027805623 	0.0006162604 	0.10007676
0.6895 	0.0027803017 	0.00033046778 	0.10004116
0.6905 	0.0027801619 	0.0001771866 	0.10002207
0.6915 	0.0027800868 	9.4995694e-05 	0.10001183
0.6925 	0.0027800465 	5.0928843e-05 	0.10000634
0.6935 	0.002780025 	2.7303412e-05 	0.1000034
0.6945 	0.0027800134 	1.4637492e-05 	0.10000182
0.6955 	0.0027800072 	7.8471456e-06 	0.10000098
0.6965 	0.0027800038 	4.2068227e-06 	0.10000052
0.6975 	0.0027800021 	2.2552263e-06 	0.10000028
0.6985 	0.0027800011 	1.2090172e-06 	0.10000015
0.6995 	0.0027800006 	6.4813081e-07 	0.10000008
0.7005 	0.0027800003 	3.4746604e-07 	0.10000004
0.7015 	0.0027800002 	1.8628374e-07 	0.10000002
0.7025 	0.0027800001 	9.9837153e-08 	0.10000001
0.7035 	0.00278 	5.3508618e-08 	0.10000001
0.7045 	0.00278 	2.8684448e-08 	0.1
0.7055 	0.00278 	1.5368512e-08 	0.1
0.7065 	0.00278 	8.2270942e-09 	0.1
0.7075 	0.00278 	4.4169899e-09 	0.1
0.7085 	0.00278 	2.3592016e-09 	0.1
0.7095 	0.00278 	1.2645366e-09 	0.1
0.7105 	0.00278 	6.5020614e-10 	0.1
0.7115 	0.00278 	3.5471392e-10 	0.1
0.7125 	0.00278 	1.6778529e-10 	0.1
0.7135 	0.00278 	1.0050526e-10 	0.1
0.7145 	0.00278 	5.1615698e-11 	0.1
0.7155 	0.00278 	1.0800772e-11 	0.1
0.7165 	0.00278 	1.7813076e-11 	0.1
0.7175 	0.00278 	4.995311e-11 	0.1
0.7185 	0.00278 	3.1669195e-11 	0.1
0.7195 	0.00278 	3.3961344e-11 	0.1
0.7205 	0.00278 	1.1708041e-11 	0.1
0.7215 	0.00278 	2.5872614e-11 	0.1
0.7225 	0.00278 	1.0639829e-11 	0.1
0.7235 	0.00278 	1.9704757e-11 	0.1
0.7245 	0.00278 	4.8069532e-12 	0.1
0.7255 	0.00278 	1.7319594e-11 	0.1
0.7265 	0.00278 	2.2914165e-11 	0.1
0.7275 	0.00278 	8.8837842e-12 	0.1
0.7285 	0.00278 	1.4515871e-12 	0.1
0.7295 	0.00278 	4.1505313e-12 	0.1
0.7305 	0.00278 	1.3497718e-11 	0.1
0.7315 	0.00278 	2.0270718e-11 	0.1
0.7325 	0.00278 	3.6340735e-12 	0.1
0.7335 	0.00278 	4.1322172e-12 	0.1
0.7345 	0.00278 	2.1671026e-11 	0.1
0.7355 	0.00278 	5.2655829e-12 	0.1
0.7365 	0.00278 	2.0408351e-11 	0.1
0.7375 	0.00278 	1.8707248e-11 	0.1
0.7385 	0.00278 	2.5831435e-11 	0.1
0.7395 	0.00278 	8.2879649e-13 	0.1
0.7405 	0.00278 	1.7264541e-11 	0.1
0.7415 	0.00278 	2.4574207e-13 	0.1
0.7425 	0.00278 	1.8723787e-11 	0.1
0.7435 	0.00278 	5.4721549e-11 	0.1
0.7445 	0.00278 	5.3244099e-12 	0.1
0.7455 	0.00278 	4.0799387e-12 	0.1
0.7465 	0.00278 	3.1560754e-11 	0.1
0.7475 	0.00278 	1.171348e-11 	0.1