/*--------------------------------*- C++ -*----------------------------------*\
| =========                 |                                                 |
| \\      /  F ield         | OpenFOAM: The Open Source CFD Toolbox           |
|  \\    /   O peration     | Version:  2112                                  |
|   \\  /    A nd           | Website:  www.openfoam.com                      |
|    \\/     M anipulation  |                                                 |
\*---------------------------------------------------------------------------*/
FoamFile
{
    version     2.0;
    format      ascii;
    arch        "LSB;label=32;scalar=64";
    class       surfaceScalarField;
    location    "0.05";
    object      phi;
}
// * * * * * * * * * * * * * * * * * * * * * * * * * * * * * * * * * * * * * //

dimensions      [1 0 -1 0 0 0 0];

oriented        oriented;

internalField   nonuniform List<scalar> 
13790
(
0.00290515
7.40732e-10
0.00290515
1.63122e-10
0.00290515
-1.60531e-10
0.00290515
-3.16781e-10
0.00290515
-2.05714e-10
0.00290515
-8.16398e-11
0.00290515
3.56777e-11
0.00290515
1.2307e-10
0.00290515
1.74591e-10
0.00290515
1.95156e-10
0.00290515
1.93888e-10
0.00290515
1.79748e-10
0.00290515
1.59682e-10
0.00290515
1.38082e-10
0.00290515
1.21655e-10
0.00290515
1.1231e-10
0.00290515
1.01314e-10
0.00290515
8.97497e-11
0.00290515
7.83273e-11
0.00290515
6.80022e-11
0.00290515
1.26509e-11
0.00290515
6.77047e-11
0.00290515
4.25325e-10
0.00290515
1.23581e-09
0.00290515
2.58858e-09
0.00290515
4.51007e-09
0.00290515
6.96449e-09
0.00290514
9.86008e-09
0.00290512
1.306e-08
0.0029051
1.64055e-08
0.00290508
1.97367e-08
0.00290503
2.29262e-08
0.002905
2.58819e-08
0.0029049
2.85479e-08
0.00290485
3.07249e-08
0.00290441
3.20133e-08
0.00290423
3.10485e-08
0.00290233
2.5647e-08
0.00290054
9.13375e-09
0.00289535
-2.25368e-08
0.00287387
-8.82844e-08
0.00284763
-2.46771e-07
0.00276071
-6.82029e-07
0.00257098
-2.02398e-06
0.00217063
-6.98601e-06
-0.000720165
-1.64313e-05
-0.0010814
2.42239e-05
0.000831535
-9.46919e-06
0.000538105
2.66331e-06
3.43056e-06
0.00301309
7.59688e-10
0.00301309
2.90546e-10
0.00301309
-4.66874e-12
0.00301309
-1.74579e-10
0.00301309
-1.27141e-10
0.00301309
-5.1026e-11
0.00301309
2.13925e-11
0.00301309
7.56197e-11
0.00301309
1.07169e-10
0.00301309
1.16833e-10
0.00301309
1.08575e-10
0.00301309
8.75054e-11
0.00301309
5.85053e-11
0.00301309
2.55253e-11
0.00301309
-8.51993e-12
0.00301309
-4.16309e-11
0.00301309
-6.59569e-11
0.00301309
-8.18475e-11
0.00301309
-1.0099e-10
0.00301309
-1.23069e-10
0.00301309
-1.86415e-10
0.00301309
-1.05697e-10
0.00301309
3.92939e-10
0.00301309
1.52122e-09
0.0030131
3.38037e-09
0.00301309
6.0255e-09
0.0030131
9.43236e-09
0.00301309
1.35083e-08
0.00301309
1.81054e-08
0.00301307
2.30442e-08
0.00301306
2.81342e-08
0.00301303
3.32101e-08
0.00301301
3.81355e-08
0.00301291
4.28063e-08
0.00301287
4.69577e-08
0.00301244
5.00945e-08
0.00301224
5.06519e-08
0.00301031
4.62657e-08
0.00300838
3.03344e-08
0.00300325
-5.37826e-09
0.00298093
-8.51925e-08
0.00295264
-2.78318e-07
0.00286518
-8.06112e-07
0.00266969
-2.39393e-06
0.00225277
-8.01962e-06
-0.000794503
-1.67122e-05
-0.0011434
4.89895e-05
0.000834695
-2.07368e-05
0.000561696
-1.17183e-05
3.25486e-06
0.00312505
8.2866e-10
0.00312505
4.77457e-10
0.00312504
2.08774e-10
0.00312504
-1.80546e-11
0.00312505
-5.9042e-11
0.00312505
-2.07312e-11
0.00312505
2.29299e-12
0.00312505
1.68077e-11
0.00312505
2.20891e-11
0.00312505
1.66817e-11
0.00312505
2.11433e-13
0.00312505
-2.62279e-11
0.00312505
-6.053e-11
0.00312505
-1.00042e-10
0.00312505
-1.42204e-10
0.00312504
-1.532e-10
0.00312504
-1.81454e-10
0.00312504
-2.13444e-10
0.00312504
-2.48094e-10
0.00312504
-2.84092e-10
0.00312504
-3.5332e-10
0.00312504
-2.6893e-10
0.00312505
2.30165e-10
0.00312505
1.35782e-09
0.00312505
3.23399e-09
0.00312505
5.92879e-09
0.00312506
9.44479e-09
0.00312505
1.37221e-08
0.00312505
1.86492e-08
0.00312504
2.40804e-08
0.00312504
2.98482e-08
0.00312501
3.57905e-08
0.003125
4.17455e-08
0.00312491
4.75564e-08
0.00312487
5.2893e-08
0.00312443
5.72037e-08
0.00312422
5.88612e-08
0.00312225
5.5462e-08
0.00312017
4.01492e-08
0.00311515
3.46621e-09
0.003092
-7.10528e-08
0.00306119
-2.53628e-07
0.00297304
-7.4569e-07
0.00277175
-2.19234e-06
0.00233729
-6.93355e-06
-0.00087924
-1.09232e-05
-0.00120756
6.63909e-05
0.000861681
-2.71716e-05
0.000598393
-2.56996e-05
-2.53875e-07
0.00324116
8.00136e-10
0.00324116
4.85472e-10
0.00324116
2.46976e-10
0.00324116
8.84448e-11
0.00324116
5.72316e-11
0.00324116
8.78939e-11
0.00324116
1.21327e-10
0.00324116
1.47422e-10
0.00324116
1.60608e-10
0.00324116
1.58136e-10
0.00324116
1.39891e-10
0.00324116
1.08007e-10
0.00324116
6.57912e-11
0.00324116
1.67842e-11
0.00324116
-3.57147e-11
0.00324116
-8.88836e-11
0.00324116
-1.15186e-10
0.00324116
-1.52409e-10
0.00324116
-1.93666e-10
0.00324116
-2.37381e-10
0.00324116
-3.12132e-10
0.00324116
-2.3388e-10
0.00324116
2.48145e-10
0.00324116
1.33984e-09
0.00324116
3.16383e-09
0.00324116
5.79375e-09
0.00324117
9.24206e-09
0.00324116
1.34638e-08
0.00324116
1.83674e-08
0.00324116
2.38292e-08
0.00324115
2.97021e-08
0.00324113
3.58385e-08
0.00324112
4.20793e-08
0.00324103
4.82593e-08
0.003241
5.40325e-08
0.00324055
5.88369e-08
0.00324033
6.10467e-08
0.00323833
5.83237e-08
0.0032361
4.38656e-08
0.00323122
9.81417e-09
0.00320746
-6.32536e-08
0.0031741
-2.4158e-07
0.00308528
-7.25355e-07
0.00287974
-2.15622e-06
0.0024316
-6.74372e-06
-0.000847283
-9.76565e-06
-0.00127294
8.4081e-05
0.000883161
-2.55366e-05
0.000638153
-3.65421e-05
-5.89211e-06
0.00336158
7.72061e-10
0.00336158
5.05599e-10
0.00336158
3.02742e-10
0.00336158
2.22858e-10
0.00336158
1.97465e-10
0.00336158
2.04198e-10
0.00336158
2.25046e-10
0.00336158
2.45236e-10
0.00336158
2.54428e-10
0.00336158
2.47443e-10
0.00336158
2.23613e-10
0.00336158
1.85283e-10
0.00336158
1.36408e-10
0.00336158
8.11491e-11
0.00336158
2.30673e-11
0.00336158
-3.50549e-11
0.00336158
-8.66569e-11
0.00336158
-1.1627e-10
0.00336158
-1.60786e-10
0.00336158
-2.10222e-10
0.00336158
-3.03894e-10
0.00336158
-2.28531e-10
0.00336158
2.33124e-10
0.00336158
1.28686e-09
0.00336159
3.03887e-09
0.00336158
5.56498e-09
0.00336159
8.88051e-09
0.00336159
1.29466e-08
0.00336159
1.76822e-08
0.00336158
2.29773e-08
0.00336158
2.86991e-08
0.00336156
3.47133e-08
0.00336155
4.08705e-08
0.00336146
4.70078e-08
0.00336143
5.2776e-08
0.00336096
5.76078e-08
0.00336073
5.98857e-08
0.00335869
5.73081e-08
0.0033563
4.30387e-08
0.00335157
9.82255e-09
0.00332737
-6.05218e-08
0.00329118
-2.30341e-07
0.00320123
-6.8635e-07
0.00299139
-2.03502e-06
0.0025282
-6.16656e-06
-0.000791683
-7.76114e-06
-0.00135233
9.86646e-05
0.000902014
-2.34627e-05
0.000683227
-4.3767e-05
-1.45288e-05
0.00348648
7.34913e-10
0.00348648
4.83326e-10
0.00348648
2.95859e-10
0.00348648
2.31239e-10
0.00348648
2.44264e-10
0.00348648
2.69755e-10
0.00348648
3.05327e-10
0.00348648
3.36321e-10
0.00348648
3.7137e-10
0.00348648
4.04456e-10
0.00348648
3.95931e-10
0.00348648
3.58124e-10
0.00348648
3.00698e-10
0.00348648
2.31062e-10
0.00348648
1.54385e-10
0.00348648
7.1507e-11
0.00348648
1.25639e-11
0.00348648
-3.37129e-11
0.00348648
-7.28252e-11
0.00348648
-1.12834e-10
0.00348648
-1.784e-10
0.00348648
-1.05409e-10
0.00348648
3.41529e-10
0.00348648
1.34032e-09
0.00348649
3.00798e-09
0.00348648
5.41354e-09
0.00348649
8.5721e-09
0.00348649
1.24485e-08
0.00348649
1.69685e-08
0.00348648
2.20313e-08
0.00348648
2.75145e-08
0.00348646
3.32928e-08
0.00348645
3.92234e-08
0.00348635
4.51454e-08
0.00348632
5.07081e-08
0.00348585
5.53405e-08
0.0034856
5.74268e-08
0.00348351
5.46633e-08
0.00348097
4.03794e-08
0.00347637
7.79688e-09
0.00345197
-6.02406e-08
0.00341278
-2.23141e-07
0.00332135
-6.56346e-07
0.00310785
-1.92924e-06
0.00262957
-5.67176e-06
-0.00071208
-5.77584e-06
-0.00143561
0.000109804
0.000915527
-1.88902e-05
0.000729344
-4.65747e-05
-2.05536e-05
0.00361602
6.96436e-10
0.00361602
4.60067e-10
0.00361602
2.90599e-10
0.00361602
2.43371e-10
0.00361602
2.88359e-10
0.00361602
3.28332e-10
0.00361602
3.7962e-10
0.00361602
4.7255e-10
0.00361602
5.46613e-10
0.00361602
5.71297e-10
0.00361602
5.57949e-10
0.00361602
5.16662e-10
0.00361602
4.56337e-10
0.00361602
3.84365e-10
0.00361602
3.06674e-10
0.00361602
2.27774e-10
0.00361602
1.50915e-10
0.00361602
7.80536e-11
0.00361602
8.78793e-12
0.00361602
-3.00328e-11
0.00361602
-9.60648e-11
0.00361602
-2.64771e-11
0.00361602
3.91801e-10
0.00361602
1.34554e-09
0.00361603
2.93096e-09
0.00361602
5.21523e-09
0.00361603
8.21293e-09
0.00361603
1.1892e-08
0.00361603
1.61827e-08
0.00361602
2.0992e-08
0.00361602
2.62057e-08
0.003616
3.17052e-08
0.00361599
3.73532e-08
0.00361589
4.29908e-08
0.00361586
4.82669e-08
0.00361537
5.26045e-08
0.0036151
5.43806e-08
0.00361297
5.12959e-08
0.00361028
3.68426e-08
0.00360576
4.42226e-09
0.00358146
-6.13434e-08
0.00353915
-2.17275e-07
0.00344572
-6.26484e-07
0.00322884
-1.82539e-06
0.0027348
-5.17592e-06
-0.000620113
-3.98858e-06
-0.00153069
0.000124606
0.000918838
-1.47425e-05
0.000777098
-4.76093e-05
-2.25023e-05
0.00375038
6.55972e-10
0.00375038
4.31685e-10
0.00375038
2.7455e-10
0.00375038
2.26212e-10
0.00375038
2.79166e-10
0.00375038
3.34098e-10
0.00375038
3.93078e-10
0.00375038
5.15504e-10
0.00375038
5.87233e-10
0.00375038
6.1221e-10
0.00375038
6.00356e-10
0.00375038
5.61032e-10
0.00375038
5.02774e-10
0.00375038
4.32761e-10
0.00375038
3.56775e-10
0.00375038
2.79307e-10
0.00375038
2.03762e-10
0.00375038
1.32636e-10
0.00375038
6.74242e-11
0.00375038
6.75342e-12
0.00375038
-4.49428e-11
0.00375038
2.60277e-11
0.00375038
4.34397e-10
0.00375038
1.33188e-09
0.00375038
2.8275e-09
0.00375038
4.98151e-09
0.00375038
7.80764e-09
0.00375038
1.12766e-08
0.00375038
1.53238e-08
0.00375038
1.98634e-08
0.00375037
2.47894e-08
0.00375035
2.99897e-08
0.00375034
3.53303e-08
0.00375024
4.065e-08
0.0037502
4.55902e-08
0.0037497
4.95601e-08
0.00374941
5.09295e-08
0.00374726
4.741e-08
0.00374441
3.26986e-08
0.00373988
-1.37034e-10
0.00371597
-6.3992e-08
0.00367057
-2.1523e-07
0.00357471
-6.07095e-07
0.00335476
-1.74256e-06
0.00284409
-4.7902e-06
-0.00050254
-2.5099e-06
-0.00162924
0.000135514
0.000917104
-8.45567e-06
0.000827269
-4.57135e-05
-1.95915e-05
0.00388972
6.13742e-10
0.00388972
4.02341e-10
0.00388972
2.57724e-10
0.00388972
2.08799e-10
0.00388972
2.68177e-10
0.00388972
3.35667e-10
0.00388972
4.26829e-10
0.00388972
5.52911e-10
0.00388972
6.22173e-10
0.00388972
6.46433e-10
0.00388972
6.35125e-10
0.00388972
5.9724e-10
0.00388972
5.40936e-10
0.00388972
4.73071e-10
0.00388972
3.99178e-10
0.00388972
3.23547e-10
0.00388972
2.49424e-10
0.00388972
1.79311e-10
0.00388972
1.15056e-10
0.00388972
5.83033e-11
0.00388972
-7.33864e-12
0.00388972
6.02054e-11
0.00388972
4.43816e-10
0.00388972
1.28867e-09
0.00388972
2.69248e-09
0.00388972
4.71198e-09
0.00388973
7.36037e-09
0.00388973
1.06116e-08
0.00388973
1.44064e-08
0.00388972
1.86657e-08
0.00388972
2.32919e-08
0.0038897
2.81798e-08
0.00388969
3.31984e-08
0.00388958
3.81846e-08
0.00388954
4.27727e-08
0.00388902
4.63597e-08
0.00388871
4.73163e-08
0.00388655
4.34441e-08
0.00388356
2.90633e-08
0.00387887
-3.65946e-09
0.0038557
-6.64129e-08
0.00380731
-2.09892e-07
0.00370852
-5.76069e-07
0.00348535
-1.63286e-06
0.00295819
-4.33528e-06
-0.000373602
-7.87398e-07
-0.00173771
0.000149251
0.000905558
4.46119e-07
0.00087937
-4.11307e-05
-1.28905e-05
0.00403424
5.69573e-10
0.00403424
3.72241e-10
0.00403424
2.37946e-10
0.00403424
1.90313e-10
0.00403424
2.44851e-10
0.00403424
3.13091e-10
0.00403424
4.04929e-10
0.00403424
5.2488e-10
0.00403424
5.91045e-10
0.00403424
6.14792e-10
0.00403424
6.05055e-10
0.00403424
5.70263e-10
0.00403424
5.18058e-10
0.00403424
4.54874e-10
0.00403424
3.85906e-10
0.00403424
3.1519e-10
0.00403424
2.45786e-10
0.00403424
1.80054e-10
0.00403424
1.19743e-10
0.00403424
6.64054e-11
0.00403424
2.61012e-12
0.00403424
7.41994e-11
0.00403424
4.33305e-10
0.00403424
1.22133e-09
0.00403425
2.52865e-09
0.00403425
4.40763e-09
0.00403425
6.87089e-09
0.00403425
9.89543e-09
0.00403425
1.34274e-08
0.00403424
1.73944e-08
0.00403424
2.1707e-08
0.00403422
2.62664e-08
0.00403421
3.09438e-08
0.0040341
3.5571e-08
0.00403406
3.97719e-08
0.00403352
4.29349e-08
0.00403319
4.34781e-08
0.00403108
3.9576e-08
0.00402776
2.60973e-08
0.00402304
-6.35968e-09
0.0040008
-7.08445e-08
0.00394965
-2.11581e-07
0.00384762
-5.58527e-07
0.00362094
-1.53095e-06
0.0030775
-3.79281e-06
-0.000286417
2.95414e-06
-0.00184753
0.000172886
0.000888776
1.57761e-05
0.00093567
-3.02387e-05
5.66797e-06
0.00418414
5.23438e-10
0.00418414
3.41062e-10
0.00418414
2.17431e-10
0.00418414
1.71712e-10
0.00418414
2.21129e-10
0.00418414
2.88073e-10
0.00418414
3.78856e-10
0.00418414
4.91688e-10
0.00418414
5.54124e-10
0.00418414
5.7698e-10
0.00418414
5.68629e-10
0.00418414
5.36911e-10
0.00418414
4.88918e-10
0.00418414
4.30627e-10
0.00418414
3.6686e-10
0.00418414
3.01371e-10
0.00418414
2.37011e-10
0.00418414
1.75982e-10
0.00418414
1.19918e-10
0.00418414
7.02623e-11
0.00418414
1.39338e-11
0.00418414
7.81713e-11
0.00418414
4.12762e-10
0.00418414
1.14181e-09
0.00418414
2.34812e-09
0.00418414
4.08001e-09
0.00418414
6.34958e-09
0.00418414
9.13691e-09
0.00418414
1.23937e-08
0.00418414
1.60539e-08
0.00418413
2.00357e-08
0.00418411
2.42469e-08
0.0041841
2.85624e-08
0.00418399
3.2813e-08
0.00418394
3.66274e-08
0.0041834
3.94338e-08
0.00418305
3.97676e-08
0.00418113
3.61044e-08
0.00417701
2.34486e-08
0.00417229
-6.93573e-09
0.00415168
-6.69561e-08
0.00409815
-1.9479e-07
0.00399244
-4.93097e-07
0.00376174
-1.26028e-06
0.00320281
-2.40185e-06
-0.000182542
1.13165e-05
-0.0019633
0.00022705
0.000861833
4.64027e-05
0.00099377
-6.8534e-06
4.31457e-05
0.0043396
4.75234e-10
0.0043396
3.08775e-10
0.0043396
1.96067e-10
0.0043396
1.52979e-10
0.0043396
1.96819e-10
0.0043396
2.58508e-10
0.0043396
3.40054e-10
0.0043396
4.44453e-10
0.0043396
5.02521e-10
0.0043396
5.24338e-10
0.0043396
5.1756e-10
0.0043396
4.89342e-10
0.0043396
4.4616e-10
0.0043396
3.9348e-10
0.0043396
3.35716e-10
0.0043396
2.76313e-10
0.0043396
2.17882e-10
0.0043396
1.62443e-10
0.0043396
1.11492e-10
0.0043396
6.63456e-11
0.0043396
1.65223e-11
0.0043396
7.7577e-11
0.0043396
3.85164e-10
0.0043396
1.05161e-09
0.0043396
2.15169e-09
0.0043396
3.72934e-09
0.0043396
5.79606e-09
0.0043396
8.33489e-09
0.0043396
1.1303e-08
0.0043396
1.46412e-08
0.0043396
1.82744e-08
0.00433957
2.21169e-08
0.00433956
2.60495e-08
0.00433945
2.99087e-08
0.0043394
3.33359e-08
0.00433886
3.58005e-08
0.00433846
3.58629e-08
0.0043368
3.24531e-08
0.00433199
2.11607e-08
0.00432662
-5.8013e-09
0.0043078
-6.03275e-08
0.0042531
-1.77121e-07
0.00414442
-3.84831e-07
0.00390953
-7.84543e-07
0.00333562
4.34244e-07
-4.17782e-05
2.9632e-05
-0.00207184
0.000345
0.000828626
0.000111669
0.00105842
3.7727e-05
0.000126943
0.00450084
4.24863e-10
0.00450084
2.75266e-10
0.00450084
1.74092e-10
0.00450084
1.34175e-10
0.00450084
1.7242e-10
0.00450084
2.28218e-10
0.00450084
3.00184e-10
0.00450084
3.95274e-10
0.00450084
4.48422e-10
0.00450084
4.6888e-10
0.00450084
4.63546e-10
0.00450084
4.38843e-10
0.00450084
4.00595e-10
0.00450084
3.53725e-10
0.00450084
3.02213e-10
0.00450084
2.49164e-10
0.00450084
1.9694e-10
0.00450084
1.4736e-10
0.00450084
1.01773e-10
0.00450084
6.13586e-11
0.00450084
1.79894e-11
0.00450084
7.45749e-11
0.00450084
3.53333e-10
0.00450084
9.53427e-10
0.00450084
1.94151e-09
0.00450084
3.35704e-09
0.00450084
5.21087e-09
0.00450084
7.48891e-09
0.00450084
1.01541e-08
0.00450084
1.31541e-08
0.00450083
1.64216e-08
0.00450081
1.98789e-08
0.0045008
2.34156e-08
0.00450068
2.68784e-08
0.00450063
2.9919e-08
0.0045001
3.20693e-08
0.00449962
3.2015e-08
0.00449829
2.93989e-08
0.00449303
2.08757e-08
0.00448652
4.09011e-10
0.00446844
-3.92606e-08
0.00441723
-1.06514e-07
0.00430343
-1.40956e-07
0.00406639
2.42439e-07
0.00348087
5.24279e-06
0.000164438
6.60801e-05
-0.00216927
0.000584242
0.00078173
0.000229702
0.00112902
0.000115299
0.000284251
0.00466806
3.7221e-10
0.00466806
2.40487e-10
0.00466806
1.51508e-10
0.00466806
1.15356e-10
0.00466807
1.48035e-10
0.00466807
1.97262e-10
0.00466807
2.59027e-10
0.00466807
3.43847e-10
0.00466807
3.91488e-10
0.00466807
4.10263e-10
0.00466807
4.06252e-10
0.00466807
3.85104e-10
0.00466807
3.51946e-10
0.00466807
3.11122e-10
0.00466807
2.66148e-10
0.00466807
2.19768e-10
0.00466807
1.7407e-10
0.00466807
1.30661e-10
0.00466807
9.07336e-11
0.00466807
5.53228e-11
0.00466807
1.83739e-11
0.00466806
7.00677e-11
0.00466807
3.17585e-10
0.00466806
8.47167e-10
0.00466807
1.71702e-09
0.00466807
2.96196e-09
0.00466807
4.59207e-09
0.00466807
6.59613e-09
0.00466807
8.94277e-09
0.00466806
1.15873e-08
0.00466806
1.44708e-08
0.00466804
1.75241e-08
0.00466803
2.06453e-08
0.00466791
2.3698e-08
0.00466785
2.63664e-08
0.00466734
2.83289e-08
0.00466679
2.85625e-08
0.00466573
2.76743e-08
0.00466044
2.44354e-08
0.00465258
1.81617e-08
0.00463459
1.73702e-08
0.00458826
5.61296e-08
0.00447571
3.24233e-07
0.00423814
1.8624e-06
0.00364728
1.3532e-05
0.000491084
0.000122794
-0.00225422
0.000974034
0.000731506
0.000430607
0.00121812
0.000231034
0.00053073
0.00484151
3.17152e-10
0.00484151
2.04393e-10
0.00484151
1.28361e-10
0.00484151
9.66238e-11
0.00484151
1.23835e-10
0.00484151
1.66541e-10
0.00484151
2.1909e-10
0.00484151
2.92681e-10
0.00484151
3.34217e-10
0.00484151
3.50921e-10
0.00484151
3.48021e-10
0.00484151
3.30363e-10
0.00484151
3.02341e-10
0.00484151
2.6769e-10
0.00484151
2.29428e-10
0.00484151
1.89917e-10
0.00484151
1.50954e-10
0.00484151
1.13918e-10
0.00484151
7.98347e-11
0.00484151
4.95835e-11
0.00484151
1.89299e-11
0.00484151
6.44845e-11
0.00484151
2.78351e-10
0.00484151
7.32991e-10
0.00484151
1.47797e-09
0.00484151
2.54328e-09
0.00484151
3.93821e-09
0.00484151
5.65428e-09
0.00484151
7.66595e-09
0.00484151
9.9364e-09
0.00484151
1.24162e-08
0.00484148
1.5048e-08
0.00484147
1.77468e-08
0.00484135
2.04216e-08
0.00484129
2.28578e-08
0.00484081
2.50692e-08
0.00484019
2.67885e-08
0.00483929
2.94736e-08
0.00483452
3.60495e-08
0.00482592
5.59821e-08
0.00480772
1.18628e-07
0.00476543
3.22403e-07
0.00466118
1.05322e-06
0.00443428
4.17374e-06
0.00385052
2.35247e-05
0.000998374
0.000175881
-0.00238922
0.00150876
0.000677746
0.000769548
0.00134731
0.000381953
0.000889484
0.00502139
2.59568e-10
0.00502139
1.6696e-10
0.00502139
1.04694e-10
0.00502139
7.81473e-11
0.00502139
1.0009e-10
0.00502139
1.36401e-10
0.00502139
1.80722e-10
0.00502139
2.41839e-10
0.00502139
2.76557e-10
0.00502139
2.90765e-10
0.00502139
2.88756e-10
0.00502139
2.74526e-10
0.00502139
2.51698e-10
0.00502139
2.23359e-10
0.00502139
1.92e-10
0.00502139
1.59577e-10
0.00502139
1.27572e-10
0.00502139
9.71276e-11
0.00502139
6.90887e-11
0.00502139
4.41761e-11
0.00502139
1.96834e-11
0.00502139
5.86192e-11
0.00502139
2.35822e-10
0.00502139
6.10636e-10
0.00502139
1.22354e-09
0.00502139
2.09939e-09
0.0050214
3.24643e-09
0.0050214
4.65895e-09
0.0050214
6.31734e-09
0.00502139
8.19343e-09
0.00502139
1.02497e-08
0.00502137
1.24495e-08
0.00502136
1.47438e-08
0.00502125
1.71495e-08
0.00502117
1.96767e-08
0.00502077
2.31112e-08
0.00502004
2.84959e-08
0.00501921
3.89897e-08
0.00501534
6.35427e-08
0.00500703
1.25705e-07
0.00498903
2.88865e-07
0.00495054
7.40395e-07
0.00485867
2.1224e-06
0.00465727
7.20778e-06
0.00411732
3.37044e-05
0.00198989
0.000207049
-0.00245455
0.00202607
0.000709542
0.0013944
0.00152827
0.000571457
0.00134871
0.00520796
1.99305e-10
0.00520796
1.283e-10
0.00520796
8.09312e-11
0.00520796
6.063e-11
0.00520796
7.84957e-11
0.00520796
1.09435e-10
0.00520796
1.5013e-10
0.00520796
1.96932e-10
0.00520796
2.23858e-10
0.00520796
2.34948e-10
0.00520796
2.33418e-10
0.00520796
2.22347e-10
0.00520796
2.0455e-10
0.00520796
1.8243e-10
0.00520796
1.57928e-10
0.00520796
1.32568e-10
0.00520796
1.07504e-10
0.00520796
8.36201e-11
0.00520796
6.15687e-11
0.00520796
4.18912e-11
0.00520796
2.30613e-11
0.00520796
5.27466e-11
0.00520796
1.90789e-10
0.00520796
4.80756e-10
0.00520796
9.53873e-10
0.00520796
1.62973e-09
0.00520797
2.51542e-09
0.00520797
3.60826e-09
0.00520797
4.89487e-09
0.00520796
6.35859e-09
0.00520796
7.97717e-09
0.00520794
9.75167e-09
0.00520793
1.16881e-08
0.00520783
1.40159e-08
0.00520775
1.70567e-08
0.00520752
2.24195e-08
0.00520659
3.2785e-08
0.00520556
5.48654e-08
0.00520264
1.05431e-07
0.0051959
2.24583e-07
0.00517959
5.12916e-07
0.00514605
1.25041e-06
0.00506992
3.29386e-06
0.00490494
9.96675e-06
0.00446276
3.94927e-05
0.003227
0.000207062
-0.00213227
0.00202001
0.000848879
0.0028286
0.0017644
0.000837177
0.00187049
0.00540147
1.36467e-10
0.00540147
8.8555e-11
0.00540147
5.67734e-11
0.00540147
4.41918e-11
0.00540147
5.87927e-11
0.00540147
8.37209e-11
0.00540147
1.21702e-10
0.00540147
1.53229e-10
0.00540147
1.71749e-10
0.00540147
1.79389e-10
0.00540147
1.7822e-10
0.00540147
1.70335e-10
0.00540147
1.57679e-10
0.00540147
1.41924e-10
0.00540147
1.24429e-10
0.00540147
1.06263e-10
0.00540147
8.82453e-11
0.00540147
7.10088e-11
0.00540147
5.50229e-11
0.00540147
4.06804e-11
0.00540147
2.73806e-11
0.00540147
4.88059e-11
0.00540147
1.43911e-10
0.00540147
3.43819e-10
0.00540147
6.70369e-10
0.00540147
1.13792e-09
0.00540147
1.7532e-09
0.00540147
2.51706e-09
0.00540147
3.42608e-09
0.00540147
4.48169e-09
0.00540147
5.69376e-09
0.00540145
7.13431e-09
0.00540144
8.94399e-09
0.00540138
1.1629e-08
0.00540124
1.61324e-08
0.00540105
2.48086e-08
0.00540045
4.30064e-08
0.00539925
8.28586e-08
0.00539645
1.72332e-07
0.00539068
3.7642e-07
0.00537821
8.51739e-07
0.00535051
1.995e-06
0.00528927
4.928e-06
0.00515872
1.35386e-05
0.00483602
4.53713e-05
0.00420594
0.000205615
-1.88997e-05
0.00156527
0.00113049
0.00522183
0.00190443
0.00129813
0.0024106
0.00560216
7.15216e-11
0.00560216
5.02243e-11
0.00560216
3.72615e-11
0.00560216
3.58892e-11
0.00560216
4.87907e-11
0.00560216
7.91138e-11
0.00560216
1.04283e-10
0.00560216
1.20183e-10
0.00560216
1.28777e-10
0.00560216
1.3159e-10
0.00560216
1.29783e-10
0.00560216
1.24272e-10
0.00560216
1.16016e-10
0.00560216
1.05955e-10
0.00560216
9.49464e-11
0.00560216
8.37178e-11
0.00560216
7.27703e-11
0.00560216
6.23591e-11
0.00560216
5.25336e-11
0.00560216
4.34812e-11
0.00560216
3.46308e-11
0.00560216
4.42733e-11
0.00560216
9.40244e-11
0.00560216
2.01609e-10
0.00560216
3.77166e-10
0.00560216
6.30444e-10
0.00560216
9.67551e-10
0.00560216
1.39451e-09
0.00560216
1.91759e-09
0.00560216
2.55831e-09
0.00560216
3.35823e-09
0.00560215
4.44139e-09
0.00560214
6.06071e-09
0.00560209
8.80781e-09
0.005602
1.40095e-08
0.00560182
2.4763e-08
0.00560133
4.80218e-08
0.00560031
9.95278e-08
0.00559819
2.15265e-07
0.00559324
4.78517e-07
0.00558248
1.08466e-06
0.00555933
2.5104e-06
0.00550932
6.02353e-06
0.00540087
1.56263e-05
0.00518674
4.73519e-05
0.00491427
0.000196484
0.00298477
0.00102675
0.00225169
0.00725822
0.00186829
0.00260107
0.00324949
0.00581031
7.2811e-12
0.00581031
8.10213e-12
0.00581031
1.43426e-11
0.00581031
2.68424e-11
0.00581031
4.3753e-11
0.00581031
6.09812e-11
0.00581031
7.48905e-11
0.00581031
8.37739e-11
0.00581031
8.82568e-11
0.00581031
8.98916e-11
0.00581031
8.94991e-11
0.00581031
8.72762e-11
0.00581031
8.3546e-11
0.00581031
7.87604e-11
0.00581031
7.34255e-11
0.00581031
6.80446e-11
0.00581031
6.29882e-11
0.00581031
5.82911e-11
0.00581031
5.37234e-11
0.00581031
4.94962e-11
0.00581031
4.51299e-11
0.00581031
4.53353e-11
0.00581031
5.80389e-11
0.00581031
9.03217e-11
0.00581031
1.46479e-10
0.00581031
2.31518e-10
0.00581031
3.51209e-10
0.00581031
5.14084e-10
0.00581031
7.35422e-10
0.00581031
1.04841e-09
0.00581031
1.52559e-09
0.0058103
2.34417e-09
0.00581029
3.81855e-09
0.00581027
6.66256e-09
0.00581021
1.24813e-08
0.00581007
2.47877e-08
0.00580979
5.13023e-08
0.00580913
1.09029e-07
0.00580769
2.35491e-07
0.00580455
5.14089e-07
0.0057976
1.13272e-06
0.00578213
2.52683e-06
0.00574755
5.76648e-06
0.00566961
1.37989e-05
0.00551289
3.64795e-05
0.00515748
0.000127407
0.00431751
0.000671481
0.0037786
0.00459058
0.00205321
0.00501061
0.00481592
0.00840003
1.13522e-12
0.00840003
4.08048e-12
0.00840003
8.00549e-12
0.00840003
1.27663e-11
0.00840003
1.90953e-11
0.00840003
2.67602e-11
0.00840003
3.43116e-11
0.00840003
4.03972e-11
0.00840003
4.47721e-11
0.00840003
4.71542e-11
0.00840003
4.79698e-11
0.00840003
4.77613e-11
0.00840003
4.67498e-11
0.00840003
4.50814e-11
0.00840003
4.2839e-11
0.00840003
4.00652e-11
0.00840003
3.69712e-11
0.00840003
3.38092e-11
0.00840003
3.09094e-11
0.00840003
2.80756e-11
0.00840003
2.59645e-11
0.00840003
2.44908e-11
0.00840003
2.45259e-11
0.00840003
2.69444e-11
0.00840003
3.28662e-11
0.00840003
4.39579e-11
0.00840003
6.30546e-11
0.00840003
9.54165e-11
0.00840003
1.51513e-10
0.00840003
2.53075e-10
0.00840003
4.46203e-10
0.00840003
8.30037e-10
0.00840002
1.61923e-09
0.0084
3.2808e-09
0.00839996
6.8342e-09
0.00839985
1.45089e-08
0.00839962
3.1188e-08
0.0083991
6.75786e-08
0.00839798
1.47185e-07
0.00839554
3.21662e-07
0.00839031
7.04997e-07
0.00837914
1.5514e-06
0.00835541
3.44239e-06
0.00830508
7.79481e-06
0.00820205
1.85844e-05
0.00800612
5.0441e-05
0.00811456
0.000179385
0.010523
0.000968871
0.0101464
0.00386407
0.00323481
0.0114299
0.00840003
1.23669e-13
0.00840003
4.37466e-13
0.00840003
1.09844e-12
0.00840003
2.26829e-12
0.00840003
4.20695e-12
0.00840003
6.9973e-12
0.00840003
1.02068e-11
0.00840003
1.3257e-11
0.00840003
1.58459e-11
0.00840003
1.7572e-11
0.00840003
1.84313e-11
0.00840003
1.87263e-11
0.00840003
1.86471e-11
0.00840003
1.8256e-11
0.00840003
1.75463e-11
0.00840003
1.64744e-11
0.00840003
1.50171e-11
0.00840003
1.335e-11
0.00840003
1.16773e-11
0.00840003
1.01231e-11
0.00840003
8.72152e-12
0.00840003
7.78839e-12
0.00840003
7.1334e-12
0.00840003
6.82097e-12
0.00840003
7.03268e-12
0.00840003
8.29537e-12
0.00840003
1.14975e-11
0.00840003
1.84678e-11
0.00840003
3.30788e-11
0.00840003
6.36713e-11
0.00840003
1.28388e-10
0.00840003
2.66888e-10
0.00840003
5.66062e-10
0.00840002
1.21653e-09
0.0084
2.63678e-09
0.00839997
5.74605e-09
0.00839991
1.25647e-08
0.00839976
2.75364e-08
0.00839943
6.04435e-08
0.00839869
1.32848e-07
0.00839706
2.92371e-07
0.00839347
6.44657e-07
0.00838558
1.4264e-06
0.00836832
3.18094e-06
0.00833072
7.23146e-06
0.00825226
1.72785e-05
0.00810671
4.65162e-05
0.00846681
0.000163744
0.0096767
0.000818926
0.0015156
0.0114066
0.00840003
1.46098e-14
0.00840003
8.5961e-14
0.00840003
2.62835e-13
0.00840003
6.00746e-13
0.00840003
1.16165e-12
0.00840003
1.97865e-12
0.00840003
2.96362e-12
0.00840003
3.94935e-12
0.00840003
4.80305e-12
0.00840003
5.41902e-12
0.00840003
5.7523e-12
0.00840003
5.8708e-12
0.00840003
5.86418e-12
0.00840003
5.77232e-12
0.00840003
5.59763e-12
0.00840003
5.3224e-12
0.00840003
4.92708e-12
0.00840003
4.43046e-12
0.00840003
3.90113e-12
0.00840003
3.41088e-12
0.00840003
2.96422e-12
0.00840003
2.59411e-12
0.00840003
2.34523e-12
0.00840003
2.19201e-12
0.00840003
2.15513e-12
0.00840003
2.30873e-12
0.00840003
2.83092e-12
0.00840003
4.11963e-12
0.00840003
7.05258e-12
0.00840003
1.3572e-11
0.00840003
2.79927e-11
0.00840003
5.99207e-11
0.00840003
1.30756e-10
0.00840003
2.88169e-10
0.00840003
6.38293e-10
0.00840002
1.41727e-09
0.00840001
3.1502e-09
0.00839998
7.00417e-09
0.00839991
1.55724e-08
0.00839976
3.46171e-08
0.00839943
7.69471e-08
0.00839871
1.7108e-07
0.00839714
3.80742e-07
0.00839381
8.49565e-07
0.00838701
1.90766e-06
0.00837384
4.34928e-06
0.00835598
1.02892e-05
0.00834869
2.67399e-05
0.00911181
8.6441e-05
0.000200397
0.0102945
0.00840003
1.86994e-15
0.00840003
1.12519e-14
0.00840003
3.47519e-14
0.00840003
8.41671e-14
0.00840003
1.78761e-13
0.00840003
3.37957e-13
0.00840003
5.60037e-13
0.00840003
8.0624e-13
0.00840003
1.03468e-12
0.00840003
1.21543e-12
0.00840003
1.32607e-12
0.00840003
1.37248e-12
0.00840003
1.38001e-12
0.00840003
1.36526e-12
0.00840003
1.33174e-12
0.00840003
1.27514e-12
0.00840003
1.18704e-12
0.00840003
1.06273e-12
0.00840003
9.19384e-13
0.00840003
7.83823e-13
0.00840003
6.60682e-13
0.00840003
5.53872e-13
0.00840003
4.62342e-13
0.00840003
4.048e-13
0.00840003
3.69908e-13
0.00840003
3.63841e-13
0.00840003
4.06317e-13
0.00840003
5.46629e-13
0.00840003
8.96488e-13
0.00840003
1.70511e-12
0.00840003
3.52937e-12
0.00840003
7.61654e-12
0.00840003
1.67667e-11
0.00840003
3.72783e-11
0.00840003
8.3338e-11
0.00840003
1.86938e-10
0.00840003
4.20279e-10
0.00840003
9.46412e-10
0.00840003
2.13363e-09
0.00840002
4.81381e-09
0.00840001
1.08653e-08
0.00839998
2.4528e-08
0.00839992
5.53709e-08
0.0083998
1.25006e-07
0.00839962
2.82368e-07
0.00839954
6.39197e-07
0.00840059
1.45486e-06
0.00840826
3.37206e-06
0.00845905
8.07293e-06
1.92814e-05
0.00861466
0.00840003
4.03015e-16
0.00840003
2.31491e-15
0.00840003
6.89106e-15
0.00840003
1.61227e-14
0.00840003
3.3943e-14
0.00840003
6.47123e-14
0.00840003
1.09944e-13
0.00840003
1.61609e-13
0.00840003
2.10316e-13
0.00840003
2.49982e-13
0.00840003
2.75106e-13
0.00840003
2.8638e-13
0.00840003
2.8858e-13
0.00840003
2.86088e-13
0.00840003
2.80119e-13
0.00840003
2.70039e-13
0.00840003
2.53982e-13
0.00840003
2.303e-13
0.00840003
2.01066e-13
0.00840003
1.73202e-13
0.00840003
1.47843e-13
0.00840003
1.25733e-13
0.00840003
1.06345e-13
0.00840003
9.16516e-14
0.00840003
8.31911e-14
0.00840003
7.96695e-14
0.00840003
8.31614e-14
0.00840003
9.9905e-14
0.00840003
1.44797e-13
0.00840003
2.51457e-13
0.00840003
4.94729e-13
0.00840003
1.04099e-12
0.00840003
2.25991e-12
0.00840003
4.97261e-12
0.00840003
1.10028e-11
0.00840003
2.44003e-11
0.00840003
5.4157e-11
0.00840003
1.20239e-10
0.00840003
2.66996e-10
0.00840003
5.9298e-10
0.00840003
1.31734e-09
0.00840003
2.92774e-09
0.00840003
6.5098e-09
0.00840004
1.44809e-08
0.00840005
3.22216e-08
0.00840012
7.16968e-08
0.00840033
1.59471e-07
0.00840103
3.54461e-07
0.00840336
7.86589e-07
1.73215e-06
0.0084116
0.00840003
2.66365e-16
0.00840003
7.20029e-16
0.00840003
1.4719e-15
0.00840003
2.78739e-15
0.00840003
5.12054e-15
0.00840003
9.10697e-15
0.00840003
1.5409e-14
0.00840003
2.38217e-14
0.00840003
3.24546e-14
0.00840003
3.97961e-14
0.00840003
4.49411e-14
0.00840003
4.7449e-14
0.00840003
4.82325e-14
0.00840003
4.79743e-14
0.00840003
4.71037e-14
0.00840003
4.56611e-14
0.00840003
4.32769e-14
0.00840003
3.95632e-14
0.00840003
3.47603e-14
0.00840003
2.96897e-14
0.00840003
2.46715e-14
0.00840003
2.05075e-14
0.00840003
1.69664e-14
0.00840003
1.39078e-14
0.00840003
1.17914e-14
0.00840003