/*--------------------------------*- C++ -*----------------------------------*\
| =========                 |                                                 |
| \\      /  F ield         | OpenFOAM: The Open Source CFD Toolbox           |
|  \\    /   O peration     | Version:  2112                                  |
|   \\  /    A nd           | Website:  www.openfoam.com                      |
|    \\/     M anipulation  |                                                 |
\*---------------------------------------------------------------------------*/
FoamFile
{
    version     2.0;
    format      ascii;
    arch        "LSB;label=32;scalar=64";
    class       volVectorField;
    location    "0.05";
    object      U;
}
// * * * * * * * * * * * * * * * * * * * * * * * * * * * * * * * * * * * * * //

dimensions      [0 1 -1 0 0 0 0];

internalField   nonuniform List<vector> 
7000
(
(3 -1.5666e-07 0.000130532)
(3 -3.33835e-07 0.000124287)
(3 -4.28839e-07 0.000118046)
(3 -4.70224e-07 0.000111811)
(3 -4.05023e-07 0.000105581)
(3 -3.24279e-07 9.93562e-05)
(3 -2.46812e-07 9.31377e-05)
(3 -1.82721e-07 8.69254e-05)
(3 -1.34496e-07 8.07194e-05)
(3 -1.00056e-07 7.45199e-05)
(3 -7.55867e-08 6.83272e-05)
(3 -5.74185e-08 6.21415e-05)
(3 -4.28068e-08 5.59631e-05)
(3 -3.01161e-08 4.97921e-05)
(3 -1.8528e-08 4.36288e-05)
(3 -7.80167e-09 3.74735e-05)
(3 2.18936e-09 3.13264e-05)
(3 1.14555e-08 2.51877e-05)
(3 1.99244e-08 1.90577e-05)
(3 2.76629e-08 1.29367e-05)
(3 1.12748e-08 6.82909e-06)
(3 8.54962e-09 7.36226e-07)
(2.99999 9.26159e-08 -5.34617e-06)
(2.99999 3.28672e-07 -1.14192e-05)
(2.99999 7.63399e-07 -1.74827e-05)
(2.99998 1.42123e-06 -2.35366e-05)
(2.99997 2.30165e-06 -2.95808e-05)
(2.99997 3.37878e-06 -3.56145e-05)
(2.99996 4.60363e-06 -4.16383e-05)
(2.99996 5.91154e-06 -4.76492e-05)
(2.99995 7.23138e-06 -5.36481e-05)
(2.99995 8.49852e-06 -5.96272e-05)
(2.99994 9.65579e-06 -6.55822e-05)
(2.99992 1.06461e-05 -7.14847e-05)
(2.99989 1.13072e-05 -7.73056e-05)
(2.99983 1.12882e-05 -8.29052e-05)
(2.99969 9.58816e-06 -8.81532e-05)
(2.99937 4.37187e-06 -9.23239e-05)
(2.9986 -8.82583e-06 -9.49233e-05)
(2.99678 -3.78328e-05 -9.23889e-05)
(2.99235 -0.00010174 -8.083e-05)
(2.98088 -0.000250822 -4.21976e-05)
(2.94661 -0.000640173 7.85357e-05)
(2.81708 -0.00181332 0.000515082)
(2.25594 -0.00559009 0.00201766)
(0.422575 -0.0107591 0.00222139)
(-0.696683 -0.0036527 -0.000219283)
(0.129493 -0.00313008 -0.00130864)
(0.18078 0.000874158 -0.000690755)
(0.255706 -0.000497454 -0.000492378)
(3 -2.10641e-07 0.000126059)
(3 -4.12786e-07 0.000120018)
(3 -5.09376e-07 0.000113983)
(3 -5.26876e-07 0.000107954)
(3 -4.27778e-07 0.000101931)
(3 -3.28584e-07 9.59141e-05)
(3 -2.32093e-07 8.9904e-05)
(3 -1.50398e-07 8.39009e-05)
(3 -8.79695e-08 7.79047e-05)
(3 -4.39139e-08 7.19158e-05)
(3 -1.47026e-08 6.59344e-05)
(3 3.74563e-09 5.99607e-05)
(3 1.49709e-08 5.39949e-05)
(3 2.15182e-08 4.80372e-05)
(3 2.50872e-08 4.20879e-05)
(3 2.66102e-08 3.61472e-05)
(3 2.65771e-08 3.02153e-05)
(3 2.52911e-08 2.42925e-05)
(3 2.30721e-08 1.8379e-05)
(3 2.04425e-08 1.2475e-05)
(3 -4.16232e-09 6.58457e-06)
(3 5.36921e-08 7.08954e-07)
(3 3.40291e-07 -5.15572e-06)
(2.99999 9.78998e-07 -1.10103e-05)
(2.99999 2.05683e-06 -1.68548e-05)
(2.99998 3.6182e-06 -2.2689e-05)
(2.99998 5.66099e-06 -2.85128e-05)
(2.99997 8.137e-06 -3.43255e-05)
(2.99996 1.09581e-05 -4.01276e-05)
(2.99996 1.40103e-05 -4.59164e-05)
(2.99995 1.71712e-05 -5.16925e-05)
(2.99995 2.03359e-05 -5.74488e-05)
(2.99994 2.34293e-05 -6.3181e-05)
(2.99993 2.64034e-05 -6.88623e-05)
(2.9999 2.91199e-05 -7.44647e-05)
(2.99984 3.12579e-05 -7.98549e-05)
(2.99969 3.18164e-05 -8.4909e-05)
(2.99937 2.91097e-05 -8.89347e-05)
(2.99861 1.88252e-05 -9.14611e-05)
(2.99681 -4.65521e-06 -8.91145e-05)
(2.99242 -5.7141e-05 -7.81128e-05)
(2.98108 -0.000181257 -4.14608e-05)
(2.94732 -0.000496937 7.27261e-05)
(2.8203 -0.00130981 0.000484937)
(2.27095 -0.00337217 0.00190166)
(0.440778 -0.00192247 0.00217887)
(-0.696014 0.00957094 -0.000197796)
(0.11817 -0.000634728 -0.00125862)
(0.179235 0.000438256 -0.000667728)
(0.260269 0.00144342 -0.000473001)
(3 -1.17824e-07 0.000121405)
(3 -2.11493e-07 0.000115577)
(3 -2.76675e-07 0.000109757)
(3 -3.27547e-07 0.000103943)
(3 -3.11042e-07 9.81354e-05)
(3 -2.72e-07 9.2335e-05)
(3 -2.38407e-07 8.65422e-05)
(3 -2.08556e-07 8.0757e-05)
(3 -1.82863e-07 7.49794e-05)
(3 -1.62531e-07 6.92098e-05)
(3 -1.4836e-07 6.34484e-05)
(3 -1.40363e-07 5.76952e-05)
(3 -1.37908e-07 5.19506e-05)
(3 -1.39994e-07 4.62148e-05)
(3 -1.45574e-07 4.04879e-05)
(3 -1.53592e-07 3.47703e-05)
(3 -1.63171e-07 2.9062e-05)
(3 -1.73567e-07 2.33634e-05)
(3 -1.84201e-07 1.76746e-05)
(3 -1.94526e-07 1.19959e-05)
(3 -2.24757e-07 6.33095e-06)
(3 -1.68931e-07 6.80748e-07)
(3 1.18233e-07 -4.95807e-06)
(2.99999 7.63461e-07 -1.05863e-05)
(2.99999 1.8633e-06 -1.62038e-05)
(2.99998 3.47864e-06 -2.18104e-05)
(2.99998 5.63087e-06 -2.74061e-05)
(2.99997 8.30112e-06 -3.29901e-05)
(2.99997 1.14346e-05 -3.85629e-05)
(2.99996 1.49493e-05 -4.4122e-05)
(2.99996 1.87457e-05 -4.96679e-05)
(2.99995 2.27224e-05 -5.5194e-05)
(2.99994 2.67802e-05 -6.06959e-05)
(2.99993 3.08153e-05 -6.6148e-05)
(2.9999 3.46113e-05 -7.15236e-05)
(2.99984 3.77363e-05 -7.66949e-05)
(2.9997 3.90189e-05 -8.15434e-05)
(2.99938 3.64153e-05 -8.54071e-05)
(2.99862 2.48367e-05 -8.78349e-05)
(2.99682 -2.78943e-06 -8.56307e-05)
(2.99245 -6.60061e-05 -7.50833e-05)
(2.98116 -0.000216373 -4.01461e-05)
(2.94768 -0.000597467 6.84143e-05)
(2.82216 -0.00160381 0.000459544)
(2.27977 -0.00431293 0.00180428)
(0.451416 -0.00534411 0.0021161)
(-0.696394 0.00553134 -0.000180823)
(0.109699 -0.00651479 -0.00120704)
(0.183917 -0.00601128 -0.000645591)
(0.267464 -0.00036043 -0.000453098)
(3 -1.17081e-07 0.000116561)
(3 -2.19874e-07 0.000110956)
(3 -2.9574e-07 0.000105359)
(3 -3.59803e-07 9.97697e-05)
(3 -3.42004e-07 9.41876e-05)
(3 -2.83616e-07 8.86131e-05)
(3 -2.32474e-07 8.30468e-05)
(3 -1.88837e-07 7.74887e-05)
(3 -1.53358e-07 7.19389e-05)
(3 -1.26608e-07 6.63977e-05)
(3 -1.08631e-07 6.08652e-05)
(3 -9.88496e-08 5.53416e-05)
(3 -9.62735e-08 4.98272e-05)
(3 -9.96528e-08 4.43221e-05)
(3 -1.07694e-07 3.88266e-05)
(3 -1.19107e-07 3.33408e-05)
(3 -1.32655e-07 2.78649e-05)
(3 -1.47239e-07 2.23991e-05)
(3 -1.62144e-07 1.69437e-05)
(3 -1.76777e-07 1.14989e-05)
(3 -2.09584e-07 6.06788e-06)
(3 -1.5537e-07 6.51566e-07)
(3 1.27554e-07 -4.75299e-06)
(2.99999 7.64656e-07 -1.01465e-05)
(2.99999 1.85473e-06 -1.55288e-05)
(2.99998 3.46509e-06 -2.08997e-05)
(2.99998 5.62805e-06 -2.62592e-05)
(2.99997 8.33962e-06 -3.16066e-05)
(2.99997 1.15636e-05 -3.69422e-05)
(2.99996 1.5238e-05 -4.22639e-05)
(2.99996 1.9281e-05 -4.75719e-05)
(2.99995 2.36026e-05 -5.286e-05)
(2.99995 2.81042e-05 -5.8124e-05)
(2.99993 3.26711e-05 -6.33395e-05)
(2.9999 3.70715e-05 -6.84808e-05)
(2.99984 4.08694e-05 -7.34265e-05)
(2.9997 4.29161e-05 -7.80633e-05)
(2.99938 4.12619e-05 -8.17616e-05)
(2.99863 3.09999e-05 -8.40927e-05)
(2.99684 5.818e-06 -8.20496e-05)
(2.9925 -5.21397e-05 -7.20121e-05)
(2.98129 -0.000189737 -3.89472e-05)
(2.94819 -0.000533642 6.34923e-05)
(2.82477 -0.001415 0.00043141)
(2.29282 -0.00352216 0.00168975)
(0.473974 -0.00232876 0.00206044)
(-0.692238 0.0118835 -0.000160046)
(0.0974435 -0.00413412 -0.00115413)
(0.189715 -0.00731151 -0.000623362)
(0.274653 0.00017412 -0.000432556)
(3 -1.05971e-07 0.000111518)
(3 -1.75354e-07 0.000106147)
(3 -2.19356e-07 0.000100784)
(3 -2.15772e-07 9.54284e-05)
(3 -1.90424e-07 9.00812e-05)
(3 -1.53509e-07 8.47424e-05)
(3 -1.11339e-07 7.94122e-05)
(3 -7.11433e-08 7.40909e-05)
(3 -3.7908e-08 6.87784e-05)
(3 -1.43309e-08 6.34751e-05)
(3 -1.23634e-09 5.81811e-05)
(3 2.08328e-09 5.28965e-05)
(3 -2.7471e-09 4.76216e-05)
(3 -1.38572e-08 4.23565e-05)
(3 -2.94957e-08 3.71014e-05)
(3 -4.82158e-08 3.18566e-05)
(3 -6.888e-08 2.66222e-05)
(3 -9.05288e-08 2.13983e-05)
(3 -1.12392e-07 1.61853e-05)
(3 -1.33759e-07 1.09833e-05)
(3 -1.71283e-07 5.79502e-06)
(3 -1.23427e-07 6.2142e-07)
(3 1.45368e-07 -4.54013e-06)
(2.99999 7.55206e-07 -9.69019e-06)
(2.99999 1.8011e-06 -1.48287e-05)
(2.99999 3.3487e-06 -1.99553e-05)
(2.99998 5.43126e-06 -2.50702e-05)
(2.99998 8.04856e-06 -3.01726e-05)
(2.99997 1.11718e-05 -3.52628e-05)
(2.99997 1.47489e-05 -4.03388e-05)
(2.99996 1.87097e-05 -4.54007e-05)
(2.99996 2.2976e-05 -5.04429e-05)
(2.99995 2.74575e-05 -5.5461e-05)
(2.99994 3.20437e-05 -6.04322e-05)
(2.99991 3.65015e-05 -6.53316e-05)
(2.99985 4.03915e-05 -7.00439e-05)
(2.99971 4.25639e-05 -7.44619e-05)
(2.99939 4.10922e-05 -7.79885e-05)
(2.99864 3.10174e-05 -8.02179e-05)
(2.99686 6.43868e-06 -7.83376e-05)
(2.99255 -4.9941e-05 -6.88185e-05)
(2.98142 -0.000183655 -3.76399e-05)
(2.94869 -0.000517224 5.8709e-05)
(2.82731 -0.00137668 0.000403716)
(2.30527 -0.00339714 0.00157791)
(0.494886 -0.0025083 0.00199859)
(-0.69021 0.0122144 -0.000139622)
(0.0836069 -0.00505306 -0.00109802)
(0.195737 -0.0112684 -0.000600981)
(0.283229 -0.00230689 -0.000411567)
(3 -1.02193e-07 0.000106269)
(3 -1.68268e-07 0.000101141)
(3 -2.15339e-07 9.60219e-05)
(3 -2.13655e-07 9.09114e-05)
(3 -1.89664e-07 8.58094e-05)
(3 -1.54848e-07 8.07163e-05)
(3 -1.16036e-07 7.56325e-05)
(3 -7.89656e-08 7.0558e-05)
(3 -4.83427e-08 6.54929e-05)
(3 -2.69428e-08 6.04374e-05)
(3 -1.53152e-08 5.53917e-05)
(3 -1.25742e-08 5.03559e-05)
(3 -1.70821e-08 4.53303e-05)
(3 -2.7082e-08 4.03149e-05)
(3 -4.10178e-08 3.531e-05)
(3 -5.76161e-08 3.03157e-05)
(3 -7.59484e-08 2.53321e-05)
(3 -9.52716e-08 2.03596e-05)
(3 -1.14973e-07 1.53983e-05)
(3 -1.3433e-07 1.04483e-05)
(3 -1.68291e-07 5.51201e-06)
(3 -1.19606e-07 5.90264e-07)
(3 1.40733e-07 -4.31919e-06)
(2.99999 7.27029e-07 -9.21682e-06)
(2.99999 1.72998e-06 -1.41025e-05)
(2.99999 3.21271e-06 -1.89761e-05)
(2.99998 5.20805e-06 -2.38376e-05)
(2.99998 7.71752e-06 -2.86862e-05)
(2.99997 1.07164e-05 -3.35225e-05)
(2.99997 1.41588e-05 -3.83443e-05)
(2.99997 1.79818e-05 -4.31518e-05)
(2.99996 2.21139e-05 -4.79398e-05)
(2.99995 2.64704e-05 -5.27039e-05)
(2.99994 3.09429e-05 -5.74226e-05)
(2.99991 3.52973e-05 -6.20722e-05)
(2.99985 3.90935e-05 -6.65438e-05)
(2.99971 4.11862e-05 -7.07359e-05)
(2.9994 3.96756e-05 -7.40854e-05)
(2.99865 2.96467e-05 -7.62101e-05)
(2.99689 5.69545e-06 -7.44983e-05)
(2.9926 -4.8499e-05 -6.55208e-05)
(2.98156 -0.000175793 -3.62831e-05)
(2.94923 -0.000490326 5.38344e-05)
(2.83003 -0.00129428 0.000375403)
(2.31871 -0.0030715 0.00146414)
(0.518863 -0.00169239 0.00193207)
(-0.686868 0.0144462 -0.000118969)
(0.0689332 -0.00369733 -0.00103916)
(0.200832 -0.0114339 -0.000577922)
(0.291699 -0.00293773 -0.000390038)
(3 -9.72169e-08 0.000100803)
(3 -1.58226e-07 9.593e-05)
(3 -1.94377e-07 9.10658e-05)
(3 -1.80471e-07 8.62108e-05)
(3 -1.26848e-07 8.13649e-05)
(3 -7.57276e-08 7.65283e-05)
(3 -2.14923e-08 7.17015e-05)
(3 2.77512e-08 6.68844e-05)
(3 6.66011e-08 6.20771e-05)
(3 9.3005e-08 5.72799e-05)
(3 1.07386e-07 5.24929e-05)
(3 1.11366e-07 4.77161e-05)
(3 1.06949e-07 4.29499e-05)
(3 9.6105e-08 3.81943e-05)
(3 8.06319e-08 3.34495e-05)
(3 6.20197e-08 2.87157e-05)
(3 4.14083e-08 2.3993e-05)
(3 1.97015e-08 1.92815e-05)
(3 -2.45886e-09 1.45815e-05)
(3 -2.44371e-08 9.89316e-06)
(3 -5.94827e-08 5.21847e-06)
(3 -1.46153e-08 5.58087e-07)
(3 2.32302e-07 -4.08984e-06)
(2.99999 7.89164e-07 -8.72569e-06)
(2.99999 1.74152e-06 -1.33494e-05)
(2.99999 3.14898e-06 -1.79608e-05)
(2.99998 5.04266e-06 -2.25597e-05)
(2.99998 7.42464e-06 -2.71457e-05)
(2.99998 1.02721e-05 -3.1719e-05)
(2.99997 1.35435e-05 -3.6278e-05)
(2.99997 1.71805e-05 -4.08224e-05)
(2.99996 2.11165e-05 -4.53474e-05)
(2.99996 2.52703e-05 -4.98491e-05)
(2.99994 2.95356e-05 -5.4307e-05)
(2.99992 3.36771e-05 -5.86988e-05)
(2.99986 3.72539e-05 -6.29218e-05)
(2.99972 3.9118e-05 -6.68805e-05)
(2.9994 3.73836e-05 -7.00477e-05)
(2.99866 2.7252e-05 -7.20649e-05)
(2.99691 3.69657e-06 -7.05235e-05)
(2.99266 -4.87321e-05 -6.21063e-05)
(2.98171 -0.000170252 -3.48463e-05)
(2.9498 -0.000467453 4.89575e-05)
(2.83286 -0.00122313 0.000346987)
(2.33261 -0.00280628 0.00135113)
(0.543672 -0.00118836 0.00185992)
(-0.683352 0.0161487 -9.87768e-05)
(0.051845 -0.0031801 -0.000978201)
(0.205259 -0.0124935 -0.000553513)
(0.300065 -0.00382081 -0.000367961)
(3 -9.24738e-08 9.51115e-05)
(3 -1.5043e-07 9.05044e-05)
(3 -1.85278e-07 8.59068e-05)
(3 -1.72573e-07 8.13187e-05)
(3 -1.21985e-07 7.67402e-05)
(3 -7.47269e-08 7.21714e-05)
(3 -2.3697e-08 6.76127e-05)
(3 2.28519e-08 6.3064e-05)
(3 5.99688e-08 5.85256e-05)
(3 8.57406e-08 5.39975e-05)
(3 1.00169e-07 4.948e-05)
(3 1.04521e-07 4.4973e-05)
(3 1.00646e-07 4.04768e-05)
(3 9.04569e-08 3.59916e-05)
(3 7.57125e-08 3.15173e-05)
(3 5.79173e-08 2.70543e-05)
(3 3.83325e-08 2.26027e-05)
(3 1.79443e-08 1.81625e-05)
(3 -2.56329e-09 1.3734e-05)
(3 -2.26771e-08 9.3172e-06)
(3 -5.43264e-08 4.91398e-06)
(3 -9.07802e-09 5.24838e-07)
(3 2.28197e-07 -3.8518e-06)
(3 7.58959e-07 -8.21621e-06)
(2.99999 1.66362e-06 -1.25683e-05)
(2.99999 2.99821e-06 -1.6908e-05)
(2.99999 4.79209e-06 -2.12351e-05)
(2.99998 7.04766e-06 -2.55491e-05)
(2.99998 9.74379e-06 -2.98504e-05)
(2.99998 1.28423e-05 -3.41373e-05)
(2.99997 1.62891e-05 -3.84096e-05)
(2.99997 2.00211e-05 -4.2663e-05)
(2.99996 2.39592e-05 -4.68934e-05)
(2.99995 2.79969e-05 -5.1082e-05)
(2.99992 3.18959e-05 -5.52076e-05)
(2.99986 3.52102e-05 -5.91741e-05)
(2.99973 3.67839e-05 -6.28919e-05)
(2.99941 3.47467e-05 -6.58712e-05)
(2.99867 2.44188e-05 -6.7777e-05)
(2.99694 1.04487e-06 -6.6406e-05)
(2.99272 -5.00886e-05 -5.85708e-05)
(2.98188 -0.000166779 -3.33213e-05)
(2.9504 -0.00044911 4.4075e-05)
(2.83584 -0.0011628 0.000318286)
(2.34718 -0.00258099 0.00123848)
(0.571202 -0.00075761 0.00178037)
(-0.678786 0.0179861 -7.91678e-05)
(0.0348957 -0.00206624 -0.000914243)
(0.208686 -0.0120263 -0.000527706)
(0.309153 -0.00360023 -0.00034528)
(3 -8.72944e-08 8.91834e-05)
(3 -1.42641e-07 8.48547e-05)
(3 -1.7295e-07 8.05356e-05)
(3 -1.6331e-07 7.62265e-05)
(3 -1.06694e-07 7.19273e-05)
(3 -4.72001e-08 6.76381e-05)
(3 1.12904e-08 6.33592e-05)
(3 6.23835e-08 5.90907e-05)
(3 1.02459e-07 5.48326e-05)
(3 1.3015e-07 5.05851e-05)
(3 1.45891e-07 4.63483e-05)
(3 1.51185e-07 4.21223e-05)
(3 1.47981e-07 3.79073e-05)
(3 1.38224e-07 3.37033e-05)
(3 1.23672e-07 2.95106e-05)
(3 1.05813e-07 2.53292e-05)
(3 8.5865e-08 2.11593e-05)
(3 6.48389e-08 1.70009e-05)
(3 4.35287e-08 1.28543e-05)
(3 2.26929e-08 8.7196e-06)
(3 -7.93748e-09 4.59816e-06)
(3 3.49497e-08 4.90476e-07)
(3 2.58903e-07 -3.60473e-06)
(3 7.58544e-07 -7.68767e-06)
(2.99999 1.60889e-06 -1.17583e-05)
(2.99999 2.86235e-06 -1.58164e-05)
(2.99999 4.54652e-06 -1.98619e-05)
(2.99999 6.66431e-06 -2.38945e-05)
(2.99998 9.19657e-06 -2.79142e-05)
(2.99998 1.21084e-05 -3.19197e-05)
(2.99998 1.53503e-05 -3.59108e-05)
(2.99997 1.88628e-05 -3.98833e-05)
(2.99996 2.25683e-05 -4.38336e-05)
(2.99995 2.63587e-05 -4.7744e-05)
(2.99993 2.99899e-05 -5.15946e-05)
(2.99987 3.30083e-05 -5.52963e-05)
(2.99973 3.42525e-05 -5.87659e-05)
(2.99942 3.18959e-05 -6.15513e-05)
(2.99868 2.15363e-05 -6.3341e-05)
(2.99696 -1.8996e-06 -6.2137e-05)
(2.99279 -5.17747e-05 -5.49023e-05)
(2.98206 -0.000163246 -3.1685e-05)
(2.95103 -0.000429696 3.92479e-05)
(2.83889 -0.00109734 0.000289669)
(2.36217 -0.00235136 0.0011267)
(0.600387 -0.000295307 0.00169281)
(-0.673546 0.0196738 -6.0629e-05)
(0.0160213 -0.000972868 -0.000848519)
(0.212194 -0.0113369 -0.00049991)
(0.317703 -0.00289347 -0.000321944)
(3 -8.1894e-08 8.30081e-05)
(3 -1.33944e-07 7.89706e-05)
(3 -1.62324e-07 7.49429e-05)
(3 -1.54192e-07 7.09254e-05)
(3 -1.01487e-07 6.6918e-05)
(3 -4.52526e-08 6.29208e-05)
(3 1.00126e-08 5.8934e-05)
(3 5.83813e-08 5.49577e-05)
(3 9.63816e-08 5.0992e-05)
(3 1.2274e-07 4.7037e-05)
(3 1.37857e-07 4.30928e-05)
(3 1.43135e-07 3.91595e-05)
(3 1.40394e-07 3.52373e-05)
(3 1.31463e-07 3.13262e-05)
(3 1.17997e-07 2.74263e-05)
(3 1.01402e-07 2.35378e-05)
(3 8.28219e-08 1.96607e-05)
(3 6.32057e-08 1.57952e-05)
(3 4.3299e-08 1.19415e-05)
(3 2.37972e-08 8.09953e-06)
(3 -4.01878e-09 4.27057e-06)
(3 3.79403e-08 4.54957e-07)
(3 2.49593e-07 -3.3483e-06)
(3 7.18649e-07 -7.13939e-06)
(2.99999 1.51467e-06 -1.09182e-05)
(2.99999 2.68634e-06 -1.46847e-05)
(2.99999 4.25945e-06 -1.84386e-05)
(2.99999 6.23739e-06 -2.21798e-05)
(2.99998 8.60291e-06 -2.59082e-05)
(2.99998 1.13244e-05 -2.96227e-05)
(2.99998 1.43564e-05 -3.33229e-05)
(2.99997 1.76434e-05 -3.70053e-05)
(2.99997 2.1109e-05 -4.0666e-05)
(2.99996 2.46423e-05 -4.42892e-05)
(2.99993 2.79917e-05 -4.78562e-05)
(2.99987 3.06956e-05 -5.12848e-05)
(2.99974 3.16019e-05 -5.44991e-05)
(2.99942 2.90544e-05 -5.70897e-05)
(2.9987 1.90885e-05 -5.87499e-05)
(2.99699 -4.77595e-06 -5.77033e-05)
(2.99286 -5.43816e-05 -5.10992e-05)
(2.98225 -0.000161368 -2.99389e-05)
(2.9517 -0.000412563 3.44655e-05)
(2.84209 -0.00103417 0.000261048)
(2.37786 -0.0021296 0.00101634)
(0.632132 0.000228931 0.00159582)
(-0.666679 0.0220672 -4.34772e-05)
(-0.0025179 0.000999689 -0.00078016)
(0.215313 -0.00943364 -0.000470239)
(0.327502 -0.00106103 -0.000297892)
(3 -7.61538e-08 7.65742e-05)
(3 -1.24734e-07 7.28414e-05)
(3 -1.50873e-07 6.91186e-05)
(3 -1.44252e-07 6.54059e-05)
(3 -9.56465e-08 6.17035e-05)
(3 -3.97897e-08 5.80113e-05)
(3 1.39994e-08 5.43295e-05)
(3 6.05714e-08 5.06583e-05)
(3 9.69815e-08 4.69976e-05)
(3 1.22228e-07 4.33476e-05)
(3 1.36786e-07 3.97085e-05)
(3 1.42014e-07 3.60801e-05)
(3 1.39643e-07 3.24627e-05)
(3 1.31401e-07 2.88564e-05)
(3 1.1885e-07 2.52612e-05)
(3 1.03316e-07 2.16773e-05)
(3 8.58855e-08 1.81048e-05)
(3 6.7462e-08 1.45436e-05)
(3 4.87594e-08 1.09941e-05)
(3 3.04415e-08 7.45614e-06)
(3 5.17203e-09 3.93077e-06)
(3 4.54234e-08 4.1825e-07)
(3 2.43152e-07 -3.08217e-06)
(3 6.78942e-07 -6.57063e-06)
(3 1.41677e-06 -1.00471e-05)
(2.99999 2.50152e-06 -1.35113e-05)
(2.99999 3.9572e-06 -1.69634e-05)
(2.99999 5.78762e-06 -2.04029e-05)
(2.99999 7.97755e-06 -2.38299e-05)
(2.99998 1.04983e-05 -2.72434e-05)
(2.99998 1.33085e-05 -3.06431e-05)
(2.99998 1.63563e-05 -3.40256e-05)
(2.99997 1.95662e-05 -3.73874e-05)
(2.99996 2.2825e-05 -4.0714e-05)
(2.99993 2.5877e-05 -4.39883e-05)
(2.99988 2.8271e-05 -4.71356e-05)
(2.99974 2.89107e-05 -5.00887e-05)
(2.99943 2.64104e-05 -5.24776e-05)
(2.99871 1.70932e-05 -5.40025e-05)
(2.99702 -6.23897e-06 -5.31024e-05)
(2.99293 -5.47091e-05 -4.713e-05)
(2.98246 -0.000155489 -2.80472e-05)
(2.9524 -0.000382458 2.97792e-05)
(2.84536 -0.000916307 0.00023252)
(2.39409 -0.00165481 0.000906231)
(0.667362 0.00194922 0.00148776)
(-0.65818 0.0272158 -2.74936e-05)
(-0.0226785 0.00445233 -0.000709497)
(0.219093 -0.0054531 -0.000438657)
(0.336684 0.00285676 -0.000273031)
(3 -7.00668e-08 6.98697e-05)
(3 -1.14855e-07 6.64558e-05)
(3 -1.38926e-07 6.3052e-05)
(3 -1.33523e-07 5.96582e-05)
(3 -8.94196e-08 5.62746e-05)
(3 -3.79871e-08 5.29011e-05)
(3 1.16138e-08 4.95379e-05)
(3 5.46376e-08 4.61851e-05)
(3 8.83552e-08 4.28428e-05)
(3 1.11819e-07 3.95109e-05)
(3 1.25444e-07 3.61897e-05)
(3 1.30467e-07 3.28791e-05)
(3 1.28475e-07 2.95793e-05)
(3 1.21059e-07 2.62904e-05)
(3 1.0966e-07 2.30123e-05)
(3 9.55027e-08 1.97452e-05)
(3 7.95918e-08 1.64892e-05)
(3 6.27616e-08 1.32444e-05)
(3 4.56717e-08 1.00108e-05)
(3 2.89324e-08 6.78853e-06)
(3 6.50529e-09 3.57829e-06)
(3 4.5023e-08 3.80311e-07)
(3 2.28199e-07 -2.806e-06)
(3 6.29267e-07 -5.98068e-06)
(3 1.30643e-06 -9.14372e-06)
(2.99999 2.30064e-06 -1.2295e-05)
(2.99999 3.63402e-06 -1.54344e-05)
(2.99999 5.31069e-06 -1.85617e-05)
(2.99999 7.31736e-06 -2.1677e-05)
(2.99999 9.62823e-06 -2.47793e-05)
(2.99998 1.22052e-05 -2.78682e-05)
(2.99998 1.5e-05 -3.09409e-05)
(2.99998 1.79391e-05 -3.39941e-05)
(2.99996 2.09106e-05 -3.70147e-05)
(2.99994 2.3664e-05 -3.99873e-05)
(2.99988 2.57803e-05 -4.28451e-05)
(2.99975 2.62185e-05 -4.5528e-05)
(2.99944 2.38882e-05 -4.77076e-05)
(2.99872 1.53483e-05 -4.90939e-05)
(2.99705 -6.01779e-06 -4.83477e-05)
(2.99301 -5.05996e-05 -4.30319e-05)
(2.98269 -0.000142562 -2.60498e-05)
(2.95321 -0.000322195 2.50582e-05)
(2.84911 -0.000685793 0.00020343)
(2.41265 -0.000648497 0.00079418)
(0.710996 0.00623921 0.0013701)
(-0.645221 0.0386024 -1.25902e-05)
(-0.0432984 0.0116878 -0.000636289)
(0.223958 0.00271962 -0.000404713)
(0.347557 0.0114798 -0.000247231)
(3 -6.35977e-08 6.28818e-05)
(3 -1.04336e-07 5.9802e-05)
(3 -1.2619e-07 5.6732e-05)
(3 -1.21904e-07 5.36719e-05)
(3 -8.24833e-08 5.06216e-05)
(3 -3.55295e-08 4.75813e-05)
(3 9.72852e-09 4.45509e-05)
(3 4.90193e-08 4.15307e-05)
(3 7.98691e-08 3.85206e-05)
(3 1.01406e-07 3.55206e-05)
(3 1.13992e-07 3.25309e-05)
(3 1.18743e-07 2.95516e-05)
(3 1.17097e-07 2.65826e-05)
(3 1.10502e-07 2.3624e-05)
(3 1.00272e-07 2.0676e-05)
(3 8.75234e-08 1.77385e-05)
(3 7.31739e-08 1.48117e-05)
(3 5.7985e-08 1.18956e-05)
(3 4.25591e-08 8.99028e-06)
(3 2.74511e-08 6.09579e-06)
(3 7.83963e-09 3.21267e-06)
(3 4.41225e-08 3.41075e-07)
(3 2.11484e-07 -2.51939e-06)
(3 5.75583e-07 -5.36878e-06)
(3 1.18867e-06 -8.20702e-06)
(3 2.08767e-06 -1.10341e-05)
(2.99999 3.29275e-06 -1.38498e-05)
(2.99999 4.80823e-06 -1.66541e-05)
(2.99999 6.62283e-06 -1.94468e-05)
(2.99999 8.71373e-06 -2.22273e-05)
(2.99999 1.10463e-05 -2.49952e-05)
(2.99998 1.35759e-05 -2.77479e-05)
(2.99998 1.62331e-05 -3.04825e-05)
(2.99997 1.89107e-05 -3.31874e-05)
(2.99994 2.13659e-05 -3.58488e-05)
(2.99988 2.32173e-05 -3.84075e-05)
(2.99975 2.34695e-05 -4.08116e-05)
(2.99945 2.14474e-05 -4.27763e-05)
(2.99874 1.42241e-05 -4.40183e-05)
(2.99708 -3.80127e-06 -4.34136e-05)
(2.99309 -4.101e-05 -3.8743e-05)
(2.98295 -0.000112957 -2.40012e-05)
(2.95418 -0.000207168 2.01358e-05)
(2.85358 -0.000240968 0.000173303)
(2.43549 0.00132715 0.000677872)
(0.769231 0.0151651 0.00123844)
(-0.622977 0.0619313 2.66351e-06)
(-0.0675324 0.0260537 -0.000558818)
(0.231891 0.019413 -0.00036921)
(0.35893 0.0291449 -0.000220483)
(3 -5.67172e-08 5.55971e-05)
(3 -9.31179e-08 5.28674e-05)
(3 -1.12619e-07 5.0147e-05)
(3 -1.09325e-07 4.74361e-05)
(3 -7.46959e-08 4.47345e-05)
(3 -3.28719e-08 4.20425e-05)
(3 7.52573e-09 3.93599e-05)
(3 4.26763e-08 3.6687e-05)
(3 7.03486e-08 3.40237e-05)
(3 8.97379e-08 3.13701e-05)
(3 1.01145e-07 2.87262e-05)
(3 1.05553e-07 2.6092e-05)
(3 1.04238e-07 2.34677e-05)
(3 9.8493e-08 2.08533e-05)
(3 8.94918e-08 1.82488e-05)
(3 7.82358e-08 1.56543e-05)
(3 6.55462e-08 1.30698e-05)
(3 5.21046e-08 1.04954e-05)
(3 3.8451e-08 7.93106e-06)
(3 2.50792e-08 5.37695e-06)
(3 8.28222e-09 2.8334e-06)
(3 4.18712e-08 3.00497e-07)
(3 1.92179e-07 -2.22199e-06)
(3 5.17048e-07 -4.73411e-06)
(3 1.0626e-06 -7.23581e-06)
(3 1.86155e-06 -9.72703e-06)
(3 2.93207e-06 -1.22077e-05)
(2.99999 4.27859e-06 -1.46777e-05)
(2.99999 5.89184e-06 -1.71369e-05)
(2.99999 7.75226e-06 -1.95847e-05)
(2.99999 9.82923e-06 -2.20208e-05)
(2.99999 1.20826e-05 -2.44431e-05)
(2.99998 1.44481e-05 -2.68488e-05)
(2.99997 1.68275e-05 -2.92279e-05)
(2.99995 1.89909e-05 -3.15684e-05)
(2.99989 2.06282e-05 -3.3819e-05)
(2.99976 2.08791e-05 -3.59356e-05)
(2.99946 1.9698e-05 -3.7679e-05)
(2.99876 1.5289e-05 -3.87748e-05)
(2.99712 4.75641e-06 -3.83093e-05)
(2.9932 -1.3429e-05 -3.43664e-05)
(2.98331 -3.0551e-05 -2.19244e-05)
(2.95551 4.2278e-05 1.4863e-05)
(2.85979 0.000644286 0.000140958)
(2.46758 0.0051153 0.00055325)
(0.858151 0.0318967 0.00109741)
(-0.58208 0.106603 2.03585e-05)
(-0.0962475 0.0511072 -0.000475965)
(0.246842 0.0449452 -0.000332981)
(0.373677 0.060632 -0.000192786)
(3 -4.9395e-08 4.80015e-05)
(3 -8.11519e-08 4.56387e-05)
(3 -9.81281e-08 4.32845e-05)
(3 -9.56946e-08 4.09392e-05)
(3 -6.59806e-08 3.86025e-05)
(3 -2.95349e-08 3.62747e-05)
(3 5.69006e-09 3.39558e-05)
(3 3.64242e-08 3.16457e-05)
(3 6.06815e-08 2.93446e-05)
(3 7.77363e-08 2.70524e-05)
(3 8.7835e-08 2.47692e-05)
(3 9.1823e-08 2.2495e-05)
(3 9.08092e-08 2.02299e-05)
(3 8.59219e-08 1.79739e-05)
(3 7.81857e-08 1.5727e-05)
(3 6.84771e-08 1.34894e-05)
(3 5.7515e-08 1.12609e-05)
(3 4.58953e-08 9.04161e-06)
(3 3.40906e-08 6.83166e-06)
(3 2.25307e-08 4.63103e-06)
(3 8.50794e-09 2.43996e-06)
(3 3.88517e-08 2.58534e-07)
(3 1.70711e-07 -1.91342e-06)
(3 4.53861e-07 -4.07588e-06)
(3 9.28074e-07 -6.22886e-06)
(3 1.62175e-06 -8.37228e-06)
(3 2.55089e-06 -1.05061e-05)
(3 3.71998e-06 -1.26302e-05)
(2.99999 5.12169e-06 -1.47445e-05)
(2.99999 6.73981e-06 -1.68485e-05)
(2.99999 8.54808e-06 -1.89419e-05)
(2.99999 1.05116e-05 -2.10229e-05)
(2.99998 1.25728e-05 -2.30892e-05)
(2.99997 1.46516e-05 -2.51322e-05)
(2.99995 1.65574e-05 -2.71421e-05)
(2.99989 1.81349e-05 -2.90756e-05)
(2.99976 1.88689e-05 -3.08963e-05)
(2.99947 1.94086e-05 -3.24126e-05)
(2.99879 2.03022e-05 -3.33712e-05)
(2.99719 2.41568e-05 -3.30603e-05)
(2.99338 4.3052e-05 -2.99079e-05)
(2.98385 0.000124379 -1.99183e-05)
(2.95748 0.000467928 9.13085e-06)
(2.86901 0.00198098 0.000106147)
(2.51512 0.0103523 0.000419138)
(1.00219 0.0537692 0.000950129)
(-0.506638 0.17612 4.2447e-05)
(-0.133468 0.0931359 -0.000386958)
(0.27428 0.0791887 -0.000296687)
(0.396752 0.107568 -0.000164307)
(3 -4.15975e-08 4.00801e-05)
(3 -6.83713e-08 3.81019e-05)
(3 -8.2618e-08 3.61315e-05)
(3 -8.08831e-08 3.4169e-05)
(3 -5.61633e-08 3.22144e-05)
(3 -2.50322e-08 3.02677e-05)
(3 4.87237e-09 2.83289e-05)
(3 3.10346e-08 2.63981e-05)
(3 5.17144e-08 2.44752e-05)
(3 6.62867e-08 2.25603e-05)
(3 7.49607e-08 2.06535e-05)
(3 7.84535e-08 1.87547e-05)
(3 7.77041e-08 1.6864e-05)
(3 7.36697e-08 1.49814e-05)
(3 6.72189e-08 1.31069e-05)
(3 5.90953e-08 1.12405e-05)
(3 4.99092e-08 9.3823e-06)
(3 4.01666e-08 7.53229e-06)
(3 3.02685e-08 5.69051e-06)
(3 2.05773e-08 3.85697e-06)
(3 9.25747e-09 2.03181e-06)
(3 3.5719e-08 2.15111e-07)
(3 1.47604e-07 -1.59327e-06)
(3 3.8636e-07 -3.39328e-06)
(3 7.85222e-07 -5.18493e-06)
(3 1.36811e-06 -6.96817e-06)
(3 2.14883e-06 -8.74294e-06)
(3 3.13184e-06 -1.05092e-05)
(3 4.31185e-06 -1.22669e-05)
(3 5.67654e-06 -1.40155e-05)
(2.99999 7.20549e-06 -1.57549e-05)
(2.99999 8.87356e-06 -1.74836e-05)
(2.99999 1.06406e-05 -1.91998e-05)
(2.99998 1.2477e-05 -2.08965e-05)
(2.99995 1.43051e-05 -2.25659e-05)
(2.9999 1.636e-05 -2.41744e-05)
(2.99977 1.88768e-05 -2.56902e-05)
(2.99949 2.34427e-05 -2.69714e-05)
(2.99883 3.45016e-05 -2.78034e-05)
(2.9973 6.40203e-05 -2.76542e-05)
(2.99366 0.000146104 -2.53239e-05)
(2.98466 0.000384664 -1.78596e-05)
(2.96031 0.00113552 3.4239e-06)
(2.88164 0.00384171 7.1409e-05)
(2.57816 0.016535 0.000283037)
(1.22857 0.0763068 0.000785462)
(-0.379175 0.278092 7.0383e-05)
(-0.17634 0.175467 -0.000290381)
(0.310104 0.128531 -0.000260239)
(0.432488 0.181237 -0.000135584)
(3 -3.32796e-08 3.18171e-05)
(3 -5.4694e-08 3.02423e-05)
(3 -6.60002e-08 2.86743e-05)
(3 -6.47381e-08 2.71129e-05)
(3 -4.5045e-08 2.55583e-05)
(3 -1.95338e-08 2.40104e-05)
(3 4.5617e-09 2.24692e-05)
(3 2.57262e-08 2.09348e-05)
(3 4.24998e-08 1.94072e-05)
(3 5.4353e-08 1.78863e-05)
(3 6.14456e-08 1.63723e-05)
(3 6.43536e-08 1.4865e-05)
(3 6.38342e-08 1.33646e-05)
(3 6.06609e-08 1.1871e-05)
(3 5.55347e-08 1.03842e-05)
(3 4.90566e-08 8.90434e-06)
(3 4.172e-08 7.43132e-06)
(3 3.39334e-08 5.9652e-06)
(3 2.60205e-08 4.50599e-06)
(3 1.82735e-08 3.05371e-06)
(3 9.58114e-09 1.60842e-06)
(3 3.1511e-08 1.70164e-07)
(3 1.21789e-07 -1.26114e-06)
(3 3.13247e-07 -2.68543e-06)
(3 6.32299e-07 -4.10272e-06)
(3 1.0981e-06 -5.51299e-06)
(3 1.72189e-06 -6.91621e-06)
(3 2.50804e-06 -8.3123e-06)
(3 3.45298e-06 -9.70125e-06)
(3 4.54852e-06 -1.10828e-05)
(3 5.78013e-06 -1.24566e-05)
(2.99999 7.13802e-06 -1.38217e-05)
(2.99999 8.60563e-06 -1.51767e-05)
(2.99998 1.02554e-05 -1.65165e-05)
(2.99996 1.21832e-05 -1.78357e-05)
(2.9999 1.52195e-05 -1.91102e-05)
(2.99979 2.07362e-05 -2.03129e-05)
(2.99952 3.21946e-05 -2.13511e-05)
(2.9989 5.88391e-05 -2.20583e-05)
(2.99748 0.000124075 -2.20666e-05)
(2.99412 0.000288231 -2.05494e-05)
(2.98594 0.000720564 -1.55557e-05)
(2.96436 0.00193558 -1.61495e-06)
(2.89817 0.00581178 4.02181e-05)
(2.65443 0.0215632 0.000166027)
(1.5852 0.0898445 0.000547812)
(-0.16629 0.369407 0.000110325)
(-0.202061 0.317479 -0.000181862)
(0.337333 0.191593 -0.000224189)
(0.49038 0.270988 -0.000107198)
(3 -2.44236e-08 2.31956e-05)
(3 -3.99193e-08 2.20443e-05)
(3 -4.77986e-08 2.08981e-05)
(3 -4.66103e-08 1.97572e-05)
(3 -3.11442e-08 1.86216e-05)
(3 -1.01359e-08 1.74912e-05)
(3 8.75612e-09 1.63661e-05)
(3 2.50015e-08 1.52462e-05)
(3 3.78869e-08 1.41316e-05)
(3 4.69913e-08 1.30223e-05)
(3 5.24443e-08 1.19182e-05)
(3 5.46987e-08 1.08194e-05)
(3 5.43402e-08 9.72597e-06)
(3 5.19625e-08 8.63778e-06)
(3 4.8101e-08 7.55487e-06)
(3 4.3214e-08 6.47731e-06)
(3 3.76771e-08 5.40502e-06)
(3 3.18006e-08 4.33806e-06)
(3 2.58309e-08 3.27643e-06)
(3 1.99897e-08 2.22012e-06)
(3 1.37292e-08 1.16918e-06)
(3 3.03002e-08 1.23622e-07)
(3 9.72002e-08 -9.16613e-07)
(3 2.38399e-07 -1.95145e-06)
(3 4.7337e-07 -2.98094e-06)
(3 8.16527e-07 -4.00503e-06)
(3 1.27688e-06 -5.02372e-06)
(3 1.85891e-06 -6.03698e-06)
(3 2.56236e-06 -7.04478e-06)
(3 3.38698e-06 -8.04692e-06)
(3 4.33273e-06 -9.04325e-06)
(2.99999 5.4276e-06 -1.00331e-05)
(2.99999 6.72454e-06 -1.10155e-05)
(2.99998 8.48994e-06 -1.19875e-05)
(2.99996 1.11997e-05 -1.29449e-05)
(2.99991 1.63081e-05 -1.38744e-05)
(2.99981 2.68851e-05 -1.47532e-05)
(2.99956 5.00842e-05 -1.55289e-05)
(2.99901 0.000102877 -1.60931e-05)
(2.99774 0.000225594 -1.62166e-05)
(2.99477 0.000516375 -1.54e-05)
(2.98764 0.00122799 -1.25106e-05)
(2.96935 0.00305728 -4.54351e-06)
(2.91612 0.00826951 1.78842e-05)
(2.72924 0.0262376 8.36397e-05)
(1.97909 0.0966185 0.000284092)
(0.149861 0.405395 0.000145061)
(-0.13301 0.553198 -8.96149e-05)
(0.28495 0.310326 -0.000173804)
(0.560531 0.388532 -7.84777e-05)
(3 -1.47294e-08 1.41981e-05)
(3 -2.39346e-08 1.34912e-05)
(3 -2.86786e-08 1.27878e-05)
(3 -2.69536e-08 1.20878e-05)
(3 -1.61434e-08 1.13912e-05)
(3 -1.97597e-09 1.06981e-05)
(3 1.06602e-08 1.00084e-05)
(3 2.13384e-08 9.3221e-06)
(3 2.98299e-08 8.63927e-06)
(3 3.58701e-08 7.95988e-06)
(3 3.95354e-08 7.28394e-06)
(3 4.11082e-08 6.61141e-06)
(3 4.09578e-08 5.94234e-06)
(3 3.94602e-08 5.27669e-06)
(3 3.69584e-08 4.61447e-06)
(3 3.37499e-08 3.95573e-06)
(3 3.00827e-08 3.30039e-06)
(3 2.61667e-08 2.64851e-06)
(3 2.21728e-08 2.00005e-06)
(3 1.8253e-08 1.35506e-06)
(3 1.42445e-08 7.13502e-07)
(3 2.47054e-08 7.54028e-08)
(3 6.65933e-08 -5.59261e-07)
(3 1.54823e-07 -1.19046e-06)
(3 3.01833e-07 -1.81821e-06)
(3 5.17377e-07 -2.44249e-06)
(3 8.084e-07 -3.06331e-06)
(3 1.18027e-06 -3.68066e-06)
(3 1.63727e-06 -4.29451e-06)