/*--------------------------------*- C++ -*----------------------------------*\
| =========                 |                                                 |
| \\      /  F ield         | OpenFOAM: The Open Source CFD Toolbox           |
|  \\    /   O peration     | Version:  2112                                  |
|   \\  /    A nd           | Website:  www.openfoam.com                      |
|    \\/     M anipulation  |                                                 |
\*---------------------------------------------------------------------------*/
FoamFile
{
    version     2.0;
    format      ascii;
    arch        "LSB;label=32;scalar=64";
    class       volScalarField;
    location    "30.5";
    object      p;
}
// * * * * * * * * * * * * * * * * * * * * * * * * * * * * * * * * * * * * * //

dimensions      [0 2 -2 0 0 0 0];

internalField   nonuniform List<scalar> 
8800
(
1.54867
1.50088
1.46219
1.43318
1.41231
1.39746
1.38683
1.37931
1.37444
1.37231
1.37348
1.37758
1.38415
1.39341
1.40615
1.42386
1.44862
1.48254
1.52508
1.58378
1.37993
1.38761
1.39507
1.39838
1.39687
1.39177
1.38527
1.37916
1.37439
1.37148
1.3711
1.37351
1.37791
1.38379
1.39051
1.39675
1.40036
1.39961
1.39417
1.38547
1.35836
1.36452
1.36864
1.37157
1.37361
1.3742
1.37306
1.37092
1.36884
1.36784
1.36869
1.37097
1.37369
1.3758
1.37636
1.37512
1.37275
1.36933
1.36476
1.361
1.35259
1.35524
1.35798
1.36038
1.362
1.36315
1.36386
1.36393
1.36356
1.36341
1.36404
1.3651
1.36584
1.36582
1.36515
1.36401
1.36215
1.35955
1.35713
1.35562
1.34727
1.34869
1.35047
1.35249
1.35427
1.35559
1.35655
1.35729
1.35783
1.35828
1.35878
1.35914
1.35912
1.35874
1.35796
1.35664
1.35489
1.353
1.35167
1.35084
1.34226
1.34318
1.34443
1.34599
1.34762
1.34913
1.35038
1.35139
1.35227
1.35303
1.35355
1.3537
1.35351
1.35295
1.35196
1.35066
1.34926
1.34794
1.34709
1.34654
1.33746
1.33813
1.3391
1.34041
1.34182
1.34327
1.34468
1.34595
1.34705
1.348
1.34862
1.34877
1.3485
1.34782
1.34686
1.34579
1.34467
1.34367
1.34305
1.34265
1.33281
1.33333
1.33412
1.33527
1.33655
1.33792
1.33935
1.34077
1.3421
1.34325
1.344
1.34421
1.34393
1.34332
1.34252
1.34163
1.34072
1.33993
1.33946
1.33915
1.32826
1.32867
1.32934
1.33038
1.3316
1.33293
1.33435
1.33585
1.33735
1.33873
1.33967
1.33999
1.33984
1.3394
1.33877
1.33804
1.33728
1.33666
1.33629
1.33605
1.32375
1.32407
1.32466
1.32563
1.32682
1.32813
1.32958
1.33114
1.33277
1.33438
1.33557
1.33613
1.3362
1.33595
1.33549
1.33492
1.33431
1.33381
1.33353
1.33334
1.31921
1.31947
1.32
1.32093
1.32211
1.32346
1.32498
1.32667
1.3285
1.33038
1.33189
1.33274
1.33305
1.333
1.33271
1.33228
1.3318
1.33141
1.33119
1.33103
1.31458
1.31479
1.31528
1.31621
1.31743
1.31885
1.32048
1.32234
1.32442
1.32663
1.32854
1.32976
1.33036
1.33053
1.33042
1.33013
1.32976
1.32947
1.32931
1.32918
1.30984
1.31
1.31047
1.31142
1.3127
1.31421
1.31597
1.31805
1.32046
1.32314
1.32553
1.32714
1.32808
1.32855
1.32867
1.32855
1.3283
1.32809
1.32798
1.32788
1.30493
1.30505
1.3055
1.30647
1.30782
1.30945
1.31139
1.31372
1.31648
1.31967
1.32268
1.32488
1.32629
1.3271
1.32749
1.32759
1.32748
1.32737
1.32731
1.32722
1.29977
1.29985
1.30029
1.30131
1.30278
1.30459
1.3068
1.30951
1.31283
1.31673
1.32047
1.32328
1.32516
1.32635
1.32704
1.32735
1.32742
1.32741
1.32741
1.32734
1.29433
1.29438
1.29479
1.29582
1.29738
1.29935
1.30182
1.30493
1.30883
1.31354
1.31823
1.32189
1.32448
1.32622
1.32732
1.32798
1.3283
1.32845
1.3285
1.32844
1.28825
1.2883
1.28873
1.28978
1.29146
1.29368
1.29656
1.30027
1.30499
1.31078
1.3166
1.3212
1.32452
1.32686
1.3285
1.32955
1.33019
1.33051
1.33059
1.33053
1.28123
1.28127
1.28173
1.28286
1.28473
1.28728
1.29066
1.29511
1.30085
1.30796
1.31517
1.32096
1.32524
1.32832
1.33053
1.33205
1.33303
1.33352
1.33364
1.33358
1.2728
1.27283
1.27336
1.27466
1.27684
1.27988
1.28397
1.28941
1.29645
1.30521
1.31414
1.32134
1.32669
1.33061
1.33349
1.33552
1.33685
1.3375
1.33767
1.33759
1.26252
1.26256
1.26321
1.26478
1.26745
1.27121
1.27627
1.28301
1.29174
1.30256
1.31355
1.32243
1.32904
1.33393
1.33754
1.3401
1.34178
1.3426
1.3428
1.3427
1.24988
1.24992
1.25074
1.25273
1.25608
1.26081
1.26718
1.27565
1.28653
1.29991
1.31341
1.32425
1.33234
1.33834
1.34278
1.34596
1.34803
1.34901
1.34924
1.34913
1.23412
1.23418
1.23525
1.23784
1.24217
1.24824
1.25642
1.26719
1.28086
1.29741
1.31388
1.327
1.33679
1.34405
1.34945
1.35334
1.35584
1.35698
1.35725
1.35712
1.21407
1.21415
1.2156
1.2191
1.2249
1.23292
1.24363
1.25748
1.2747
1.29511
1.31506
1.33081
1.34251
1.35121
1.35775
1.36244
1.3654
1.36673
1.36703
1.36687
1.18804
1.18816
1.19024
1.19521
1.20329
1.21426
1.22855
1.24652
1.26821
1.29321
1.31715
1.33586
1.34973
1.36007
1.36784
1.37343
1.37687
1.3784
1.37873
1.37853
1.15315
1.15341
1.15675
1.16437
1.17624
1.19174
1.21113
1.23451
1.26166
1.29198
1.32036
1.34229
1.35852
1.37068
1.37983
1.38638
1.39036
1.39209
1.39242
1.39219
1.10386
1.10499
1.11166
1.12465
1.14301
1.16538
1.19175
1.22193
1.2555
1.29175
1.32489
1.35021
1.36894
1.38302
1.39363
1.40123
1.40584
1.40776
1.40806
1.40777
1.03137
1.03896
1.05433
1.07724
1.10511
1.13652
1.17137
1.20938
1.25012
1.29289
1.33127
1.3604
1.38198
1.39832
1.41075
1.41976
1.42526
1.42761
1.42803
1.42781
0.953861
0.971383
0.99617
1.0294
1.06703
1.10759
1.15099
1.19708
1.24548
1.29562
1.3404
1.37446
1.39985
1.41918
1.43409
1.44521
1.45203
1.45484
1.45556
1.45553
0.890126
0.910548
0.94316
0.98487
1.03099
1.08006
1.13168
1.18562
1.24151
1.29878
1.34959
1.38814
1.41688
1.43881
1.45567
1.4681
1.47602
1.47965
1.48022
1.48028
0.838223
0.860439
0.898223
0.945937
0.998734
1.05485
1.11366
1.17476
1.23763
1.30158
1.35795
1.40047
1.432
1.45595
1.47435
1.48806
1.49715
1.50086
1.50155
1.50168
0.795149
0.818448
0.8597
0.912213
0.970322
1.03223
1.09717
1.16457
1.23373
1.30379
1.36516
1.41114
1.44502
1.47063
1.49026
1.5048
1.51442
1.51859
1.51955
1.51972
0.758329
0.782256
0.826272
0.882454
0.944991
1.01179
1.08201
1.15497
1.22978
1.30537
1.37126
1.42027
1.45612
1.48303
1.50351
1.51868
1.52865
1.53325
1.53444
1.53462
0.725815
0.750176
0.796267
0.855573
0.921858
0.992905
1.06779
1.1457
1.22564
1.30631
1.37634
1.42807
1.46561
1.49354
1.51464
1.53021
1.54034
1.54521
1.54649
1.54665
0.696195
0.720945
0.768782
0.830737
0.900255
0.975022
1.05406
1.13648
1.22114
1.30655
1.3805
1.43479
1.47385
1.50264
1.52415
1.53992
1.55013
1.55509
1.55644
1.55656
0.668602
0.693705
0.743099
0.807315
0.879685
0.957745
1.04051
1.12703
1.21609
1.30603
1.38378
1.44059
1.48115
1.51075
1.53267
1.54857
1.55883
1.56384
1.56527
1.56536
0.64232
0.667833
0.718637
0.784858
0.85978
0.940785
1.02691
1.1172
1.21037
1.30466
1.3862
1.4456
1.48772
1.51823
1.54061
1.5567
1.56698
1.5719
1.57337
1.57351
0.617078
0.643019
0.694905
0.763087
0.840283
0.923934
1.01311
1.10685
1.20388
1.30239
1.38777
1.4499
1.49378
1.52532
1.54826
1.5646
1.57494
1.57981
1.58117
1.58125
0.592515
0.619008
0.671928
0.741817
0.821045
0.907075
0.999006
1.09591
1.19656
1.29917
1.38846
1.45356
1.4994
1.53216
1.5558
1.57248
1.58289
1.58769
1.58891
1.58891
0.568552
0.595482
0.649519
0.72093
0.801985
0.890148
0.984565
1.08436
1.18838
1.29495
1.38826
1.45654
1.50462
1.53881
1.56329
1.58038
1.59086
1.59553
1.59662
1.59652
0.545112
0.572579
0.627569
0.700374
0.783074
0.87314
0.969784
1.0722
1.17934
1.2897
1.38705
1.45878
1.50942
1.5453
1.57077
1.58831
1.5988
1.60328
1.6042
1.60402
0.522101
0.550161
0.60607
0.680149
0.764312
0.856078
0.954702
1.05946
1.16943
1.28336
1.38473
1.46016
1.51373
1.55163
1.57826
1.59626
1.60668
1.61086
1.61158
1.61134
0.499528
0.528237
0.585048
0.66028
0.745753
0.839007
0.939375
1.0462
1.1587
1.27593
1.38125
1.46056
1.51744
1.55778
1.58583
1.60426
1.61442
1.61817
1.61866
1.61837
0.477566
0.506877
0.564543
0.64081
0.727441
0.822002
0.923874
1.03249
1.14723
1.26744
1.37653
1.45982
1.52037
1.5637
1.5936
1.61247
1.62204
1.62508
1.62531
1.62498
0.456243
0.486128
0.544587
0.621795
0.709442
0.805131
0.908299
1.01844
1.1351
1.25793
1.37051
1.45777
1.5223
1.56923
1.60171
1.6213
1.62982
1.63158
1.63138
1.63107
0.435503
0.466031
0.525221
0.603279
0.691826
0.788481
0.892742
1.00415
1.12241
1.24748
1.36317
1.45427
1.52292
1.57402
1.61014
1.63143
1.63875
1.63817
1.63685
1.63672
0.415517
0.446609
0.506504
0.585329
0.674653
0.772136
0.877301
0.989741
1.1093
1.23621
1.35453
1.4492
1.52193
1.5775
1.61841
1.64334
1.65089
1.64739
1.64318
1.64214
0.396198
0.427873
0.488418
0.56792
0.657893
0.756049
0.861917
0.975146
1.09568
1.22403
1.34448
1.4423
1.519
1.5789
1.62532
1.65635
1.66793
1.66521
1.65472
1.63753
0.37762
0.40983
0.470841
0.550862
0.641253
0.739887
0.846172
0.959875
1.08102
1.2103
1.33231
1.4327
1.51343
1.57699
1.62817
1.66643
1.68305
1.6742
1.65786
1.63969
0.359951
0.392341
0.453957
0.534397
0.625032
0.723996
0.830294
0.944264
1.06563
1.1953
1.31819
1.42009
1.50473
1.57086
1.6218
1.66035
1.67978
1.6622
1.59135
1.55756
0.343838
0.374252
0.438099
0.519116
0.609941
0.708863
0.814577
0.928537
1.04973
1.17918
1.30213
1.4043
1.49185
1.56065
1.60225
1.63224
1.63527
1.58562
1.51357
1.46855
0.288014
0.358443
0.423558
0.50384
0.594541
0.693095
0.798961
0.912428
1.03298
1.16153
1.28361
1.38497
1.47154
1.5476
1.55089
1.56635
1.5317
1.46711
1.38955
1.34583
0.326906
0.34282
0.402404
0.482187
0.572189
0.670434
0.775252
0.887803
1.00696
1.13344
1.25255
1.35104
1.42897
1.50475
1.502
1.39659
1.29246
1.22044
1.14631
1.18195
0.295975
0.325156
0.385544
0.46484
0.554804
0.652697
0.757647
0.869419
0.987296
1.11163
1.22745
1.32164
1.39196
1.43181
1.38683
1.24172
1.11214
1.02003
0.918801
0.974245
0.272178
0.30435
0.36591
0.445518
0.535526
0.633255
0.73801
0.84881
0.965092
1.08676
1.19856
1.28699
1.34745
1.35629
1.25206
1.07432
0.91596
0.793122
0.657869
0.695618
0.248977
0.282687
0.345414
0.425853
0.516026
0.613604
0.717777
0.827485
0.941995
1.06067
1.16769
1.24974
1.29544
1.27118
1.11261
0.908125
0.707618
0.526901
0.327126
0.319373
0.226534
0.260582
0.324174
0.405337
0.495709
0.593083
0.696567
0.805081
0.91759
1.03294
1.13466
1.2095
1.23766
1.17878
0.979711
0.758861
0.527365
0.320855
0.0601144
-0.265485
0.203867
0.23786
0.301934
0.383582
0.474164
0.571386
0.674257
0.781564
0.891993
1.00383
1.10008
1.16668
1.1775
1.06752
0.86427
0.643402
0.423833
0.236831
0.165256
0.0656944
0.180131
0.214084
0.278385
0.360264
0.450928
0.547915
0.650085
0.756023
0.864073
0.971918
1.06228
1.11902
1.10509
0.957646
0.762474
0.560775
0.387156
0.286156
0.261843
0.243435
0.155004
0.18894
0.253375
0.33532
0.425898
0.522494
0.623741
0.72802
0.833286
0.936522
1.02052
1.0653
1.03023
0.856108
0.670309
0.494724
0.359375
0.316171
0.301064
0.299032
0.128284
0.162291
0.22686
0.30879
0.399156
0.495159
0.595252
0.697558
0.79961
0.897656
0.974593
1.00597
0.953216
0.76092
0.584921
0.427815
0.337458
0.3228
0.320681
0.32061
0.0999642
0.134145
0.198844
0.280715
0.370732
0.465968
0.564671
0.664683
0.763103
0.855435
0.924329
0.944032
0.857915
0.673457
0.505358
0.374348
0.335568
0.330913
0.330464
0.331067
0.070359
0.104742
0.169477
0.251226
0.340765
0.43504
0.532102
0.629506
0.723864
0.810006
0.870342
0.874153
0.759577
0.590815
0.439975
0.348932
0.340286
0.337859
0.336714
0.33702
0.0400467
0.0744852
0.139046
0.220585
0.309499
0.402605
0.497785
0.592268
0.682185
0.761654
0.813566
0.797932
0.667734
0.514437
0.385337
0.359003
0.341519
0.339405
0.339981
0.340454
0.00949806
0.0438378
0.108105
0.18924
0.277334
0.369069
0.462108
0.553383
0.638536
0.711053
0.754122
0.722004
0.574756
0.441807
0.350836
0.31239
0.329406
0.337812
0.3406
0.341296
-0.0204738
0.0136011
0.0774331
0.157794
0.244858
0.335003
0.425657
0.513482
0.593628
0.659068
0.69202
0.645283
0.478226
0.366115
0.326274
0.331887
0.324126
0.325878
0.329905
0.331882
-0.0483202
-0.0151243
0.0478426
0.127159
0.21294
0.30121
0.389259
0.473464
0.548493
0.606699
0.631507
0.568742
0.378607
0.240736
0.257906
0.254596
0.261183
0.266747
0.274134
0.278912
-0.0727638
-0.0405572
0.0204232
0.0985251
0.182616
0.268749
0.353986
0.434504
0.504531
0.555509
0.576301
0.492522
0.284927
0.0504946
0.0161392
0.0920812
0.152992
0.175837
0.185008
0.189905
-0.0918852
-0.0615134
-0.00274925
0.0732079
0.155155
0.23887
0.32117
0.398037
0.46354
0.507755
0.526422
0.431858
0.243377
-0.0516393
-0.280629
-0.0731515
0.0317169
0.0636001
0.0750757
0.0837235
-0.103883
-0.0760747
-0.02034
0.0528646
0.132127
0.213052
0.292322
0.365791
0.427426
0.466548
0.482764
0.403741
0.319649
0.266988
0.0655638
0.0340175
-0.0296516
-0.038822
-0.0311344
-0.0274773
-0.106536
-0.0824557
-0.0306944
0.039064
0.115132
0.192868
0.269113
0.339709
0.398097
0.43439
0.445209
0.394179
0.442514
0.826105
0.932751
0.438329
0.0571868
-0.00976028
-0.0296036
-0.0317384
-0.0985535
-0.0787464
-0.0320434
0.033148
0.105474
0.179835
0.253295
0.321725
0.378161
0.412191
0.413723
0.313321
0.19439
0.165617
-0.0318298
-0.4066
-0.414199
-0.259873
-0.150743
-0.16398
-0.0781855
-0.0625143
-0.0231519
0.0360375
0.10402
0.175038
0.246229
0.313724
0.37102
0.404875
0.392986
0.159919
-0.506924
-1.58708
-2.27198
-2.5719
-2.35479
-1.83498
-1.38974
-1.18549
-0.0468342
-0.0360268
-0.00436631
0.0475258
0.110801
0.178732
0.248658
0.31721
0.379228
0.423149
0.417664
0.178352
-0.500687
-1.3946
-2.07961
-2.29175
-2.0554
-1.66637
-1.30318
-1.1406
-0.00869901
-0.00225333
0.0209973
0.0655273
0.124245
0.189918
0.26008
0.332446
0.402534
0.469255
0.507468
0.482522
0.353418
0.347123
0.451448
0.725462
1.04998
1.31238
1.47874
1.548
0.0304725
0.0340411
0.0485093
0.0860668
0.141338
0.206125
0.277841
0.35586
0.439774
0.52921
0.635734
0.780863
1.07077
1.59966
2.2279
2.80458
3.21672
3.44524
3.54106
3.56635
0.0648441
0.066872
0.0750519
0.105241
0.157544
0.22325
0.297964
0.381713
0.476847
0.586246
0.712154
0.846974
1.12036
1.69577
2.3283
2.88403
3.27746
3.49943
3.59705
3.62366
0.0987494
0.0994553
0.102304
0.123063
0.171221
0.238209
0.31542
0.402348
0.498263
0.608193
0.720731
0.840306
0.999739
1.43932
1.94526
2.36593
2.67316
2.85215
2.93393
2.95834
0.126848
0.128077
0.128871
0.141347
0.184609
0.251999
0.330793
0.417116
0.509922
0.61434
0.716469
0.814369
0.913344
1.18459
1.56078
1.86781
2.0931
2.22693
2.28834
2.30449
0.142037
0.14214
0.140956
0.151507
0.19745
0.268712
0.348687
0.432108
0.520013
0.615539
0.704807
0.780394
0.846062
1.01796
1.2679
1.48182
1.63795
1.72736
1.76762
1.77848
0.163579
0.16
0.15684
0.169764
0.221175
0.295608
0.374097
0.451543
0.530813
0.614517
0.691773
0.753817
0.811207
0.917402
1.08391
1.22141
1.32019
1.37703
1.40141
1.40598
0.237602
0.232172
0.228534
0.241686
0.285696
0.348068
0.413342
0.478083
0.544415
0.614547
0.680952
0.73447
0.783201
0.851832
0.959032
1.04599
1.10591
1.14078
1.15423
1.1551
0.367357
0.364255
0.3617
0.368343
0.391747
0.426351
0.467138
0.511809
0.561036
0.616261
0.670321
0.715653
0.760084
0.801761
0.866423
0.922814
0.961614
0.983008
0.992351
0.992445
0.496567
0.495424
0.493395
0.492184
0.495395
0.504966
0.522042
0.546467
0.578651
0.618554
0.660053
0.697753
0.735959
0.763111
0.799407
0.835365
0.861736
0.878139
0.884297
0.883557
0.583042
0.582629
0.580353
0.574597
0.567215
0.563271
0.565862
0.57609
0.594191
0.619735
0.647839
0.675722
0.704138
0.723728
0.745706
0.770193
0.790535
0.803066
0.808208
0.80694
0.625914
0.625526
0.623223
0.617179
0.608069
0.599927
0.595959
0.597886
0.606063
0.619667
0.634561
0.648535
0.663215
0.67228
0.690495
0.713579
0.73245
0.744019
0.748512
0.747214
0.642218
0.641729
0.639721
0.634972
0.627634
0.620016
0.614469
0.612596
0.614647
0.619013
0.620692
0.617298
0.611447
0.61375
0.634705
0.66127
0.682513
0.695096
0.700051
0.698757
0.6464
0.645898
0.644294
0.640864
0.635848
0.630224
0.625347
0.622427
0.621407
0.619817
0.609492
0.587841
0.558415
0.559915
0.592452
0.624529
0.646351
0.658033
0.662089
0.66097
0.645985
0.645584
0.644431
0.641948
0.638526
0.634797
0.63147
0.629311
0.628287
0.625513
0.612048
0.57841
0.535038
0.544123
0.582731
0.612892
0.629925
0.637213
0.63988
0.639798
0.643112
0.642915
0.642304
0.640705
0.638404
0.636154
0.63463
0.634544
0.636111
0.636812
0.628927
0.602004
0.571373
0.58927
0.619125
0.638401
0.64737
0.650844
0.652026
0.651781
0.63675
0.636785
0.636735
0.636107
0.635035
0.634343
0.634861
0.637386
0.644063
0.652345
0.658066
0.653115
0.649452
0.666471
0.68254
0.691027
0.695663
0.698563
0.699522
0.698557
0.625018
0.625268
0.625702
0.626018
0.626404
0.627689
0.631072
0.637891
0.650401
0.668304
0.69025
0.708622
0.729907
0.745955
0.746785
0.745884
0.747434
0.75097
0.75243
0.751527
0.60621
0.606685
0.607598
0.608802
0.610665
0.614208
0.620785
0.632232
0.651254
0.678967
0.715766
0.748567
0.787291
0.796595
0.789907
0.789645
0.794189
0.799175
0.798981
0.796768
0.578641
0.579366
0.580711
0.582712
0.585909
0.591486
0.601038
0.617065
0.642259
0.678661
0.721416
0.759543
0.799646
0.805597
0.803836
0.808158
0.815479
0.818799
0.817388
0.816307
0.539333
0.540351
0.542174
0.544913
0.549194
0.556195
0.567667
0.586548
0.615561
0.65796
0.705109
0.741301
0.766252
0.772804
0.788446
0.811867
0.827069
0.832077
0.82952
0.828677
0.485258
0.486549
0.488707
0.491919
0.496667
0.503722
0.514483
0.531721
0.559128
0.603145
0.657645
0.696811
0.703143
0.713354
0.758461
0.805662
0.831422
0.838132
0.834733
0.835241
0.414383
0.41575
0.417882
0.42095
0.424819
0.429165
0.434106
0.441038
0.454713
0.490363
0.564581
0.624157
0.631224
0.651639
0.73244
0.806997
0.855361
0.860875
0.85615
0.855217
0.327712
0.328799
0.330306
0.332127
0.332828
0.330028
0.320783
0.302355
0.28001
0.29995
0.413926
0.515635
0.534245
0.589156
0.700825
0.792228
0.845959
0.847579
0.842564
0.840198
0.231746
0.232119
0.232362
0.231622
0.226409
0.211065
0.176527
0.111166
0.0255456
0.022418
0.200533
0.370715
0.430357
0.516744
0.637518
0.738332
0.76811
0.762569
0.756319
0.753019
0.139522
0.138886
0.137669
0.133848
0.121528
0.0906264
0.0220759
-0.107585
-0.276102
-0.291286
-0.0367514
0.195474
0.296422
0.429343
0.542241
0.604599
0.605415
0.60359
0.602195
0.601049
0.0677237
0.0661857
0.0640047
0.0582981
0.0415683
-0.000288645
-0.0956683
-0.274542
-0.486854
-0.516775
-0.219232
0.0518726
0.188151
0.343561
0.43949
0.454365
0.44486
0.438445
0.436672
0.436168
0.0257394
0.0243507
0.0233487
0.0200897
0.00730931
-0.0273408
-0.115496
-0.287683
-0.481264
-0.497167
-0.229654
-0.0310509
0.106356
0.277197
0.328176
0.302365
0.284141
0.272139
0.2671
0.265637
0.0120205
0.0116231
0.0127346
0.0146777
0.0148388
0.0108408
-0.00738943
-0.0591705
-0.125809
-0.170733
-0.115889
-0.0203341
0.020728
-0.00450452
0.114278
0.0951147
0.0721791
0.0614012
0.0568723
0.0551319
0.571869
0.755269
0.969158
1.15185
1.29905
1.41654
1.51465
1.59748
1.63453
1.61163
0.905842
1.03683
1.17669
1.29776
1.4003
1.48566
1.5548
1.60384
1.62872
1.64052
1.14287
1.23218
1.32719
1.41147
1.48414
1.54498
1.59331
1.62856
1.6538
1.67148
1.3147
1.37738
1.44389
1.50477
1.55777
1.6027
1.6395
1.66872
1.69242
1.71053
1.44721
1.49307
1.54142
1.58765
1.62846
1.66401
1.69432
1.71942
1.74038
1.75811
1.5557
1.59013
1.62993
1.66707
1.70106
1.73141
1.75785
1.77999
1.79822
1.81552
1.65086
1.68049
1.71564
1.74874
1.77954
1.80742
1.83173
1.85187
1.86764
1.88471
1.74112
1.77091
1.80564
1.83828
1.86842
1.89546
1.9187
1.93746
1.95102
1.96806
1.83749
1.87097
1.90808
1.94206
1.97245
1.99894
2.02113
2.03858
2.05059
2.068
1.95324
1.99104
2.03002
2.06456
2.09412
2.11904
2.13956
2.15557
2.16712
2.18521
2.09867
2.13738
2.17348
2.20429
2.23009
2.25229
2.27143
2.28703
2.29952
2.31753
2.27367
2.30558
2.33184
2.35431
2.37436
2.39314
2.4109
2.42742
2.44281
2.46089
2.46241
2.47971
2.49487
2.51116
2.5271
2.54167
2.5549
2.56886
2.58642
2.60659
2.64442
2.65385
2.66542
2.67626
2.68556
2.69518
2.706
2.71739
2.72877
2.74413
2.85155
2.85524
2.84031
2.82552
2.81927
2.82498
2.84347
2.87379
2.90598
2.93264
3.15789
3.02303
2.94641
2.90409
2.88668
2.89065
2.91807
2.97448
3.07711
3.30148
1.43927
1.43714
1.43265
1.42402
1.41179
1.39964
1.38939
1.38147
1.3758
1.37247
1.37202
1.37465
1.37966
1.38681
1.39615
1.40765
1.42027
1.43129
1.43739
1.44043
1.36373
1.36958
1.37592
1.3804
1.38286
1.38252
1.37976
1.37592
1.37236
1.37002
1.36976
1.37185
1.37541
1.37963
1.38337
1.38521
1.38425
1.38074
1.37556
1.36893
1.35535
1.35764
1.36104
1.36403
1.3661
1.36758
1.36831
1.36795
1.36687
1.3659
1.36596
1.36726
1.36897
1.37019
1.3703
1.36935
1.36776
1.36539
1.36211
1.35918
1.34988
1.35096
1.3528
1.35517
1.35718
1.3586
1.35959
1.3603
1.36063
1.36076
1.36112
1.36178
1.36225
1.36221
1.36172
1.3608
1.35928
1.35715
1.35503
1.35364
1.34474
1.3454
1.34651
1.34821
1.34999
1.35161
1.35288
1.35385
1.35465
1.35534
1.35591
1.35629
1.35633
1.35603
1.35536
1.35421
1.35271
1.3511
1.34974
1.34895
1.33984
1.3403
1.34109
1.34239
1.34388
1.34539
1.34683
1.34809
1.34914
1.35007
1.3508
1.35116
1.35111
1.35067
1.34983
1.34872
1.34749
1.34628
1.34531
1.34478
1.33512
1.33546
1.33608
1.33716
1.33846
1.33984
1.34126
1.34267
1.34396
1.3451
1.34599
1.34642
1.34635
1.34586
1.34507
1.34413
1.34314
1.34216
1.34142
1.34104
1.33053
1.33079
1.33129
1.33222
1.33341
1.33472
1.3361
1.33755
1.339
1.34036
1.34144
1.342
1.34199
1.34159
1.34095
1.34018
1.33935
1.33857
1.338
1.3377
1.326
1.32621
1.32662
1.32745
1.32858
1.32984
1.33122
1.33269
1.33425
1.33582
1.33714
1.33787
1.33803
1.33782
1.33736
1.33675
1.33607
1.33544
1.335
1.33477
1.32148
1.32164
1.322
1.32276
1.32386
1.32511
1.32651
1.32805
1.32973
1.33148
1.33307
1.3341
1.33452
1.33453
1.33425
1.3338
1.33327
1.33276
1.33242
1.33224
1.31691
1.31703
1.31734
1.31807
1.31916
1.32044
1.32191
1.32358
1.32545
1.32746
1.32938
1.33077
1.33148
1.33171
1.33162
1.33133
1.33093
1.33054
1.33028
1.33014
1.31223
1.31232
1.3126
1.31331
1.31443
1.31579
1.31736
1.31919
1.3213
1.32365
1.32601
1.32781
1.32887
1.32938
1.32952
1.3294
1.32912
1.32883
1.32864
1.32854
1.30741
1.30747
1.30772
1.30843
1.30959
1.31104
1.31272
1.31472
1.3171
1.31986
1.32275
1.32508
1.32658
1.32747
1.32791
1.32801
1.3279
1.32772
1.32761
1.32753
1.30238
1.30241
1.30264
1.30337
1.3046
1.30616
1.30803
1.31033
1.3131
1.31637
1.31991
1.32291
1.32495
1.32622
1.32695
1.3273
1.32738
1.32733
1.32728
1.32724
1.29711
1.29711
1.29732
1.29804
1.29934
1.30104
1.30311
1.30572
1.30896
1.31292
1.3173
1.32107
1.32375
1.32557
1.3267
1.32733
1.32768
1.3278
1.32784
1.32783
1.29138
1.29137
1.29159
1.2923
1.29365
1.29548
1.29782
1.30082
1.30464
1.30938
1.31476
1.31956
1.32306
1.32551
1.32714
1.32826
1.32894
1.32929
1.32943
1.32944
1.28489
1.28486
1.28509
1.28585
1.28729
1.28933
1.29204
1.29561
1.30024
1.30606
1.3127
1.31866
1.32308
1.32627
1.32854
1.33011
1.33117
1.33177
1.33201
1.33202
1.27721
1.27717
1.27743
1.27827
1.27988
1.28223
1.28543
1.2897
1.2953
1.30242
1.31062
1.31805
1.32364
1.32774
1.3307
1.33284
1.33433
1.3352
1.33553
1.33555
1.2679
1.26785
1.26816
1.26916
1.27108
1.27391
1.27782
1.28309
1.29001
1.29881
1.30892
1.31809
1.325
1.33012
1.33388
1.33663
1.33854
1.33966
1.34008
1.3401
1.2565
1.25643
1.25683
1.25809
1.26045
1.26398
1.26886
1.27542
1.28404
1.29494
1.30741
1.31867
1.32717
1.33347
1.33812
1.34155
1.34394
1.34532
1.34583
1.34585
1.24237
1.24227
1.24282
1.24445
1.24745
1.25195
1.25816
1.26648
1.27733
1.2909
1.30623
1.31996
1.33029
1.33796
1.34365
1.34784
1.35078
1.35244
1.35303
1.35306
1.22457
1.22446
1.22523
1.22742
1.23134
1.23722
1.24529
1.25601
1.26978
1.2867
1.30548
1.3221
1.33452
1.34375
1.3506
1.35569
1.35925
1.36121
1.36189
1.36192
1.20169
1.20157
1.20269
1.20572
1.21107
1.21902
1.2298
1.24382
1.26139
1.28245
1.3053
1.32522
1.34003
1.35101
1.35925
1.36534
1.36956
1.37183
1.37262
1.37264
1.17151
1.17142
1.17318
1.17764
1.18534
1.19656
1.21133
1.2299
1.25235
1.27838
1.30592
1.32952
1.34697
1.35993
1.36966
1.37689
1.3818
1.38442
1.38531
1.38532
1.1301
1.13018
1.13338
1.14076
1.15267
1.1692
1.18982
1.21448
1.24299
1.27485
1.30758
1.33516
1.35544
1.37055
1.38192
1.39036
1.39604
1.39902
1.39998
1.39996
1.07002
1.07128
1.07905
1.09283
1.11234
1.13714
1.16588
1.19825
1.23391
1.27226
1.31055
1.34228
1.36546
1.38275
1.3958
1.40547
1.41204
1.4154
1.41633
1.41626
0.998615
1.00065
1.01532
1.03901
1.06917
1.10351
1.1411
1.18173
1.22512
1.27076
1.31568
1.35274
1.37995
1.40038
1.41588
1.4274
1.43525
1.4393
1.4404
1.44038
0.925303
0.93197
0.953659
0.987245
1.02714
1.07074
1.11709
1.16598
1.21719
1.27026
1.32201
1.36461
1.39591
1.41955
1.43767
1.45141
1.4607
1.46467
1.46598
1.46626
0.866349
0.874966
0.901351
0.941666
0.989075
1.04041
1.09454
1.1511
1.20973
1.2699
1.3281
1.37574
1.41065
1.43693
1.45703
1.47217
1.48238
1.48744
1.48954
1.48994
0.818468
0.827652
0.857477
0.90265
0.955791
1.01331
1.07396
1.13723
1.20255
1.26927
1.33341
1.38557
1.42354
1.45199
1.47369
1.49013
1.5015
1.50736
1.50976
1.5102
0.778331
0.787741
0.819894
0.868817
0.926566
0.989181
1.05533
1.1244
1.19568
1.26831
1.33784
1.394
1.4346
1.46482
1.48776
1.5051
1.51721
1.52368
1.52635
1.52684
0.743433
0.752938
0.78679
0.838785
0.900349
0.967279
1.03819
1.11238
1.18899
1.26698
1.3414
1.40117
1.44405
1.47571
1.49958
1.51755
1.5301
1.5371
1.5399
1.54041
0.712202
0.721747
0.756945
0.811486
0.876262
0.946922
1.02203
1.10079
1.18224
1.26516
1.34415
1.40726
1.45219
1.48507
1.50963
1.52797
1.54077
1.54799
1.55084
1.55136
0.683459
0.693059
0.729371
0.786123
0.853666
0.927589
1.00642
1.0893
1.17519
1.26274
1.34607
1.41239
1.45927
1.49327
1.51843
1.53703
1.54992
1.55728
1.56009
1.56065
0.656428
0.666086
0.703391
0.762053
0.832081
0.908905
0.99106
1.07768
1.16768
1.25959
1.34714
1.41666
1.46553
1.50067
1.52644
1.54534
1.55835
1.56573
1.56857
1.56895
0.63061
0.640363
0.678596
0.73888
0.811164
0.890582
0.975731
1.06576
1.15955
1.25562
1.34733
1.42013
1.4711
1.50753
1.534
1.55325
1.56639
1.57375
1.57657
1.57692
0.605602
0.615537
0.654601
0.716432
0.790699
0.872441
0.960294
1.05342
1.15074
1.25076
1.34659
1.42282
1.47611
1.51399
1.54132
1.56103
1.57436
1.58171
1.58442
1.58477
0.581221
0.591398
0.631218
0.69453
0.770563
0.854386
0.944674
1.04062
1.14119
1.24497
1.3449
1.42475
1.4806
1.52016
1.54851
1.56878
1.58234
1.58967
1.59224
1.59254
0.557415
0.56781
0.608421
0.673048
0.750685
0.836377
0.928844
1.02734
1.13089
1.23821
1.34221
1.42583
1.48453
1.52604
1.5556
1.57653
1.59034
1.59759
1.59999
1.6002
0.534067
0.544777
0.586113
0.651963
0.731046
0.818407
0.912816
1.01359
1.11986
1.23048
1.33841
1.42597
1.48784
1.53164
1.56263
1.58431
1.59833
1.60545
1.60761
1.60771
0.511241
0.52224
0.56432
0.631282
0.71167
0.800512
0.896643
0.99943
1.10812
1.22176
1.33347
1.42505
1.49041
1.53689
1.56962
1.59214
1.60628
1.6131
1.61497
1.61496
0.488907
0.500216
0.543062
0.611042
0.692596
0.782741
0.880379
0.984934
1.09575
1.2121
1.32735
1.42297
1.49209
1.54171
1.57662
1.60014
1.61421
1.62049
1.62195
1.62184
0.467253
0.478798
0.522378
0.59129
0.673884
0.765177
0.864102
0.97018
1.08283
1.20157
1.32005
1.4196
1.49268
1.54593
1.58364
1.60854
1.62234
1.62761
1.62844
1.62821
0.446148
0.458035
0.502305
0.57206
0.655578
0.747868
0.847911
0.955261
1.06947
1.19026
1.31159
1.41486
1.49197
1.54924
1.59057
1.61769
1.63131
1.63481
1.63439
1.63396
0.425762
0.43796
0.482878
0.553411
0.637761
0.730902
0.831892
0.940304
1.05579
1.17825
1.30202
1.40866
1.48974
1.55127
1.597
1.62776
1.64232
1.64366
1.64043
1.63885
0.40604
0.418528
0.464151
0.535398
0.620476
0.71435
0.81613
0.925392
1.04189
1.16569
1.29145
1.40097
1.48582
1.55151
1.6021
1.63814
1.65633
1.65769
1.6505
1.64039
0.387064
0.399787
0.446023
0.51787
0.603515
0.697928
0.800284
0.910111
1.02731
1.15206
1.2793
1.39114
1.4796
1.54932
1.60454
1.64713
1.67222
1.67745
1.66904
1.65961
0.368892
0.381828
0.428492
0.500871
0.586891
0.681634
0.784376
0.894448
1.01203
1.13724
1.26542
1.37885
1.47043
1.544
1.60178
1.64904
1.67744
1.68776
1.652
1.5977
0.351783
0.36542
0.411662
0.484458
0.570492
0.665337
0.768364
0.878526
0.996102
1.12134
1.24978
1.36399
1.45739
1.53534
1.59199
1.63243
1.66187
1.65302
1.59568
1.52932
0.335435
0.349871
0.395723
0.469238
0.554643
0.649514
0.752031
0.862407
0.979682
1.10451
1.23242
1.34647
1.43947
1.52447
1.57434
1.62739
1.60193
1.56284
1.49299
1.42302
0.349612
0.367645
0.416171
0.493693
0.583931
0.682492
0.790222
0.903397
1.02353
1.15147
1.27285
1.37365
1.45824
1.54827
1.59933
1.51863
1.47499
1.41318
1.33946
1.2903
0.325276
0.341738
0.377254
0.445129
0.530118
0.624441
0.727046
0.836709
0.95303
1.07634
1.20196
1.31368
1.4029
1.48188
1.55258
1.55499
1.4346
1.35084
1.28787
1.20292
0.305367
0.321061
0.362344
0.431643
0.516885
0.610772
0.712171
0.820856
0.936074
1.05776
1.18132
1.29045
1.37648
1.44264
1.46946
1.39977
1.25738
1.15978
1.08339
0.992314
0.285059
0.29758
0.343369
0.413975
0.49939
0.593437
0.694744
0.803015
0.917197
1.03716
1.15761
1.26195
1.34083
1.39123
1.36904
1.23917
1.08272
0.961592
0.861127
0.720323
0.261566
0.274653
0.322461
0.394205
0.47994
0.574006
0.675158
0.782752
0.895694
1.01358
1.1304
1.22926
1.30013
1.33088
1.27207
1.08534
0.896433
0.735931
0.588112
0.386468
0.239188
0.251896
0.300929
0.373841
0.460075
0.554096
0.654841
0.76151
0.872967
0.988404
1.10123
1.19408
1.25619
1.2579
1.14683
0.939927
0.71731
0.501119
0.315662
-0.106776
0.216878
0.229153
0.278673
0.352453
0.439091
0.533131
0.633461
0.739196
0.849057
0.961819
1.07032
1.15652
1.20826
1.17504
1.0217
0.810882
0.581466
0.354382
0.159575
-0.156968
0.193725
0.205834
0.25549
0.329799
0.416718
0.510787
0.610741
0.715563
0.823772
0.93369
1.03762
1.11674
1.15527
1.10229
0.908849
0.706163
0.496519
0.31717
0.240852
0.204399
0.169281
0.181208
0.231023
0.305597
0.392598
0.486537
0.585962
0.689648
0.795877
0.902465
1.00119
1.07256
1.09642
1.01397
0.808115
0.618016
0.445433
0.329645
0.291782
0.279709
0.143351
0.155213
0.205121
0.27985
0.366811
0.460454
0.559145
0.661442
0.765323
0.868073
0.960894
1.02427
1.02656
0.908544
0.716802
0.540533
0.393014
0.331388
0.316239
0.3115
0.115899
0.12752
0.177731
0.25257
0.339395
0.432575
0.530331
0.630956
0.732126
0.830577
0.916777
0.971842
0.946804
0.808177
0.630292
0.465031
0.3573
0.318488
0.324975
0.325486
0.0869344
0.0985397
0.148894
0.223833
0.310432
0.402995
0.499591
0.598273
0.696368
0.790027
0.869119
0.913929
0.870848
0.712503
0.551132
0.402672
0.353667
0.338745
0.334442
0.334062
0.0568759
0.0684871
0.118832
0.193847
0.280099
0.371879
0.467092
0.563557
0.658212
0.746623
0.81821
0.851044
0.799032
0.626078
0.479079
0.371194
0.32214
0.335362
0.337978
0.338366
0.0262056
0.0377446
0.0881148
0.162949
0.248743
0.339543
0.433153
0.527122
0.618008
0.700792
0.76446
0.788023
0.71304
0.543409
0.417256
0.343759
0.33697
0.337781
0.339668
0.34065
-0.00421333