/*--------------------------------*- C++ -*----------------------------------*\
| =========                 |                                                 |
| \\      /  F ield         | OpenFOAM: The Open Source CFD Toolbox           |
|  \\    /   O peration     | Version:  2112                                  |
|   \\  /    A nd           | Website:  www.openfoam.com                      |
|    \\/     M anipulation  |                                                 |
\*---------------------------------------------------------------------------*/
FoamFile
{
    version     2.0;
    format      ascii;
    arch        "LSB;label=32;scalar=64";
    class       surfaceScalarField;
    location    "30.5";
    object      phi;
}
// * * * * * * * * * * * * * * * * * * * * * * * * * * * * * * * * * * * * * //

dimensions      [0 3 -1 0 0 0 0];

oriented        oriented;

internalField   nonuniform List<scalar> 
17370
(
-0.0916072
0.0960065
0.284611
-0.0775898
0.0594132
0.364952
-0.043035
0.0316158
0.427587
-0.0223106
0.0162554
0.505307
-0.0116575
0.00877794
0.602282
-0.00656084
0.00507389
0.720544
-0.00384114
0.0029704
0.863777
-0.00221234
0.00164878
1.03601
-0.00113213
0.000721927
1.24291
-0.000316629
-7.0571e-05
1.49158
0.000454679
-0.000862806
1.4916
0.00126742
-0.00177449
1.2432
0.00232856
-0.00307625
1.03639
0.0039379
-0.00516118
0.86413
0.00663928
-0.00884578
0.721264
0.0117144
-0.0162987
0.603799
0.0223411
-0.0316326
0.508731
0.0430375
-0.059407
0.432538
0.0775861
-0.0960029
0.365192
0.091618
0.197393
-0.127086
0.0880172
0.0390692
-0.364349
0.354023
-0.0714788
0.081805
-0.446655
0.454245
-0.0791677
0.0715775
-0.521008
0.529105
-0.0637288
0.0556318
-0.612985
0.620755
-0.0482452
0.0404749
-0.727156
0.733678
-0.0338611
0.0273391
-0.867578
0.872419
-0.0221387
0.0172979
-1.03857
1.04188
-0.0136159
0.0102988
-1.24472
1.2471
-0.00776861
0.00538422
-1.49283
1.49483
-0.00343759
0.00144268
-1.49268
1.49449
0.000368086
-0.0021757
-1.24411
1.24602
0.00414496
-0.00605835
-1.03761
1.0401
0.00840125
-0.0108911
-0.866192
0.869833
0.0141632
-0.0178041
-0.7246
0.729762
0.0226014
-0.0277637
-0.609069
0.615646
0.0342454
-0.0408227
-0.515126
0.522472
0.0485523
-0.0558981
-0.439881
0.447672
0.0639361
-0.0717278
-0.374715
0.377364
0.079237
-0.0818868
-0.256911
0.224461
0.0715425
-0.0390926
-0.0687988
0.0591853
0.00961347
-0.0521188
0.0589548
-0.37483
0.367994
-0.0581094
0.0542693
-0.453936
0.457776
-0.0487814
0.0442198
-0.527602
0.532163
-0.0396654
0.0357656
-0.620783
0.624683
-0.0315524
0.0275672
-0.734644
0.738629
-0.023235
0.0193798
-0.87394
0.877795
-0.0153755
0.0119538
-1.04334
1.04676
-0.00846849
0.00546176
-1.24863
1.25163
-0.00227745
-0.000684394
-1.49692
1.49989
0.00363212
-0.00677256
-1.49741
1.50055
0.0097183
-0.0131263
-1.25007
1.25348
0.0164726
-0.0203919
-1.04566
1.04958
0.0241712
-0.0284229
-0.877158
0.88141
0.0323348
-0.0364689
-0.739008
0.743142
0.0403026
-0.044794
-0.625992
0.630483
0.049305
-0.0547437
-0.535036
0.540474
0.0585269
-0.0593059
-0.4581
0.458879
0.052378
-0.0320234
-0.336803
0.316448
0.00965999
-0.0686878
0.0590279
-0.0533934
0.0492803
0.00411314
-0.0332562
0.0436875
-0.358537
0.348105
-0.0473705
0.0467903
-0.459559
0.460139
-0.0438681
0.0406607
-0.536107
0.539315
-0.0369898
0.0336422
-0.628362
0.63171
-0.0300201
0.0267973
-0.741996
0.745219
-0.0233717
0.0202047
-0.881293
0.88446
-0.0166508
0.0133341
-1.05019
1.0535
-0.00967447
0.00630587
-1.25488
1.25825
-0.00255533
-0.00102659
-1.50322
1.5068
0.00458399
-0.00826432
-1.50403
1.50771
0.0115424
-0.0150882
-1.25703
1.26058
0.0182944
-0.0217238
-1.05329
1.05672
0.0247801
-0.0280901
-0.885027
0.888337
0.0312105
-0.0347234
-0.746837
0.75035
0.0379752
-0.0415475
-0.634616
0.638188
0.044672
-0.0475032
-0.544629
0.54746
0.0479907
-0.0441804
-0.457015
0.453205
0.0335951
-0.0163307
-0.297168
0.279903
0.00416403
-0.0531911
0.0490271
-0.0461087
0.0435529
0.0025557
-0.0230505
0.033404
-0.337504
0.327151
-0.0391408
0.0400918
-0.459874
0.458923
-0.0388429
0.0365174
-0.541947
0.544272
-0.0338769
0.0313345
-0.63465
0.637192
-0.0283709
0.0255523
-0.74829
0.751108
-0.0223665
0.0194113
-0.887512
0.890467
-0.0161251
0.013048
-1.05666
1.05974
-0.00955058
0.00619991
-1.26161
1.26496
-0.00233731
-0.00142177
-1.51051
1.51427
0.00514897
-0.00891282
-1.51148
1.51525
0.0121342
-0.015471
-1.26403
1.26736
0.0183925
-0.021506
-1.05993
1.06304
0.0243094
-0.0273374
-0.891546
0.894574
0.030017
-0.0328334
-0.753549
0.756366
0.0352476
-0.0377589
-0.641153
0.643665
0.0399778
-0.0410895
-0.549312
0.550423
0.0399974
-0.0340569
-0.448121
0.442181
0.023482
-0.0103077
-0.264777
0.251603
0.00261868
-0.0458003
0.0431816
-0.0414335
0.0396348
0.00179876
-0.0169283
0.0262098
-0.317276
0.307994
-0.0328095
0.0349383
-0.457349
0.45522
-0.0345152
0.032827
-0.546291
0.547979
-0.0306088
0.0284933
-0.639481
0.641597
-0.0260796
0.0237395
-0.753682
0.756022
-0.0209847
0.0183013
-0.8933
0.895983
-0.0151848
0.0122075
-1.06275
1.06572
-0.00880131
0.00554672
-1.26824
1.27149
-0.00178556
-0.00188157
-1.51799
1.52165
0.00550678
-0.00914016
-1.51897
1.5226
0.012225
-0.0154175
-1.27062
1.27382
0.0181881
-0.021078
-1.06606
1.06895
0.0235652
-0.0261177
-0.897358
0.89991
0.028281
-0.0305088
-0.758833
0.761061
0.0324605
-0.0345097
-0.645929
0.647978
0.0360421
-0.036277
-0.551043
0.551278
0.0339326
-0.0270382
-0.435662
0.428768
0.0174632
-0.00738268
-0.240116
0.230035
0.00187567
-0.0409952
0.0391195
-0.0380876
0.0367409
0.00134661
-0.0128985
0.0208749
-0.299362
0.291386
-0.0276283
0.0305509
-0.452647
0.449724
-0.0307725
0.0296697
-0.549374
0.550477
-0.027701
0.0258054
-0.643602
0.645498
-0.0236381
0.0215526
-0.758239
0.760324
-0.0191238
0.0167348
-0.898518
0.900907
-0.0139033
0.0111276
-1.06858
1.07135
-0.00788788
0.00475715
-1.27465
1.27779
-0.00111748
-0.0024313
-1.52525
1.5288
0.00592635
-0.00940415
-1.52618
1.52966
0.0123213
-0.0152843
-1.27692
1.27989
0.0177885
-0.0203203
-1.07168
1.07421
0.0224538
-0.0246247
-0.902242
0.904412
0.0264892
-0.0284262
-0.763118
0.765055
0.0301187
-0.0318845
-0.649858
0.651624
0.0327621
-0.0322804
-0.551144
0.550662
0.0290541
-0.021902
-0.421681
0.414529
0.0135527
-0.00564682
-0.221143
0.213237
0.00144004
-0.0374908
0.0360508
-0.035566
0.0345353
0.00103068
-0.0100241
0.016748
-0.284054
0.27733
-0.0232291
0.0265999
-0.446551
0.44318
-0.0273808
0.0266914
-0.551352
0.552041
-0.0249311
0.0231647
-0.647342
0.649108
-0.0211519
0.0192298
-0.762345
0.764267
-0.016997
0.0148075
-0.903174
0.905364
-0.0122212
0.00967269
-1.07395
1.0765
-0.00666517
0.00372
-1.28079
1.28373
-0.000270892
-0.00309012
-1.53224
1.5356
0.00638556
-0.00963365
-1.53305
1.5363
0.0123111
-0.0149716
-1.28272
1.28538
0.017181
-0.0193916
-1.07657
1.07878
0.0212611
-0.023175
-0.906418
0.908332
0.0248246
-0.0265526
-0.766859
0.768587
0.0280667
-0.0295473
-0.653284
0.654764
0.0299482
-0.0287957
-0.549868
0.548715
0.0250084
-0.018008
-0.407427
0.400427
0.0108211
-0.00447219
-0.20618
0.199831
0.00114438
-0.034777
0.0336326
-0.0336313
0.0328361
0.000795136
-0.00786336
0.0134689
-0.271185
0.26558
-0.0194331
0.0229982
-0.439684
0.436119
-0.0242857
0.0238876
-0.552592
0.55299
-0.0224591
0.0208519
-0.65082
0.652427
-0.0189779
0.0171691
-0.766171
0.76798
-0.015047
0.0129524
-0.90749
0.909585
-0.0104785
0.00806041
-1.07893
1.08134
-0.00523488
0.00248198
-1.28654
1.28929
0.000735133
-0.00387716
-1.53883
1.54197
0.00693997
-0.00991871
-1.53942
1.5424
0.0123485
-0.0147516
-1.28793
1.29034
0.0167489
-0.018749
-1.0809
1.0829
0.0204269
-0.0221364
-0.910132
0.911841
0.023608
-0.0251366
-0.770188
0.771717
0.0264315
-0.0275011
-0.656042
0.657111
0.0275254
-0.0257419
-0.547253
0.545469
0.0216305
-0.015009
-0.393607
0.386985
0.0088339
-0.00363259
-0.194106
0.188905
0.000933596
-0.0326089
0.0316753
-0.0321402
0.0315317
0.000608449
-0.00615895
0.0107854
-0.260484
0.255858
-0.016096
0.0196143
-0.432561
0.429043
-0.0211913
0.0210083
-0.553275
0.553458
-0.0198191
0.0183053
-0.653991
0.655505
-0.0165368
0.0148346
-0.769782
0.771484
-0.0128413
0.0108737
-0.911603
0.913571
-0.0085481
0.00627679
-1.08363
1.0859
-0.00362327
0.00104588
-1.29191
1.29448
0.00195438
-0.00485907
-1.54497
1.54787
0.00766564
-0.0103712
-1.54525
1.54795
0.0125501
-0.0146749
-1.29263
1.29476
0.0164183
-0.0181512
-1.08479
1.08653
0.0196005
-0.0210777
-0.913439
0.914916
0.0223599
-0.0237062
-0.773097
0.774443
0.024854
-0.0255682
-0.657992
0.658706
0.025261
-0.0230237
-0.543475
0.541237
0.0187976
-0.0126647
-0.380621
0.374488
0.00734106
-0.00300973
-0.18418
0.179848
0.000777656
-0.0308338
0.0300561
-0.0310033
0.0305474
0.000455846
-0.00475092
0.00850605
-0.251683
0.247928
-0.0131024
0.0164259
-0.425612
0.422288
-0.0181654
0.0181715
-0.553559
0.553553
-0.0171853
0.0157278
-0.657033
0.658491
-0.0140242
0.0123969
-0.773196
0.774824
-0.0105049
0.008645
-0.915434
0.917294
-0.00644952
0.00430488
-1.08802
1.09017
-0.00180415
-0.000610862
-1.29693
1.29935
0.00339616
-0.00605046
-1.55062
1.55328
0.0085854
-0.0110087
-1.55053
1.55295
0.0129396
-0.0148028
-1.29679
1.29866
0.0163073
-0.0177684
-1.08814
1.08961
0.01898
-0.0202136
-0.916257
0.917491
0.0212965
-0.0224645
-0.775648
0.776816
0.0234634
-0.0238381
-0.659236
0.65961
0.0232043
-0.0206173
-0.538862
0.536275
0.0164038
-0.010795
-0.368643
0.363034
0.00619057
-0.00253936
-0.175894
0.172243
0.000662302
-0.0293508
0.0286885
-0.0301607
0.0298372
0.000323576
-0.00352375
0.00647862
-0.244584
0.241629
-0.0103174
0.0133216
-0.419116
0.416112
-0.0151198
0.0153344
-0.553458
0.553243
-0.0145402
0.0132601
-0.659916
0.661196
-0.0116586
0.0100807
-0.776463
0.778041
-0.0082087
0.00636442
-0.919083
0.920927
-0.00421267
0.00214337
-1.0922
1.09427
0.000232636
-0.00250467
-1.30164
1.30391
0.00509127
-0.00753164
-1.55578
1.55823
0.00982349
-0.0119649
-1.55524
1.55738
0.0136376
-0.0152231
-1.30042
1.302
0.0164891
-0.0177276
-1.09099
1.09223
0.0187573
-0.0198001
-0.918632
0.919675
0.0207008
-0.021639
-0.777826
0.778764
0.0223153
-0.0223535
-0.659817
0.659855
0.0213455
-0.0184687
-0.533576
0.530699
0.0143558
-0.00927628
-0.357717
0.352637
0.00528509
-0.00217822
-0.168897
0.16579
0.000577069
-0.0280839
0.0275068
-0.0295801
0.029381
0.000199131
-0.00239303
0.00458803
-0.239063
0.236868
-0.0076273
0.0101743
-0.413338
0.410791
-0.0118473
0.0121459
-0.552995
0.552696
-0.0114507
0.0102942
-0.66246
0.663616
-0.00875559
0.00721677
-0.779638
0.781177
-0.00539649
0.00361742
-0.922664
0.924443
-0.00156088
-0.000397891
-1.09619
1.09815
0.00263614
-0.00475436
-1.30604
1.30816
0.00714782
-0.00937373
-1.56053
1.56276
0.0114112
-0.0132431
-1.55938
1.56122
0.0146193
-0.0158692
-1.30349
1.30474
0.0168347
-0.0177444
-1.0934
1.09431
0.0184872
-0.0192715
-0.920593
0.921378
0.0199665
-0.02066
-0.779467
0.78016
0.0210628
-0.0208357
-0.659722
0.659495
0.0194971
-0.0164733
-0.527785
0.524761
0.0125596
-0.00800645
-0.347864
0.343311
0.00454968
-0.00189193
-0.162947
0.160289
0.000511168
-0.026982
0.0264708
-0.029244
0.0291645
7.95049e-05
-0.0013289
0.00280092
-0.235048
0.233576
-0.00503628
0.00705768
-0.408529
0.406508
-0.00848046
0.00873936
-0.552465
0.552206
-0.00805243
0.00694655
-0.664837
0.665943
-0.00547419
0.004015
-0.782702
0.784161
-0.00229497
0.000611034
-0.926051
0.927735
0.00135402
-0.00324115
-1.09995
1.10184
0.00539446
-0.00741043
-1.31014
1.31216
0.00963154
-0.0116248
-1.56481
1.56681
0.0133949
-0.0149379
-1.5629
1.56444
0.0160315
-0.0169648
-1.30588
1.30681
0.0176238
-0.0181953
-1.09509
1.09566
0.0186381
-0.0190394
-0.92197
0.922371
0.019393
-0.0198142
-0.780689
0.78111
0.0199042
-0.0194115
-0.659063
0.658571
0.0178503
-0.0147433
-0.52177
0.518663
0.0110454
-0.00697254
-0.33906
0.334987
0.00396954
-0.00167562
-0.157858
0.155564
0.000465146
-0.0260043
0.0255392
-0.0291439
0.0291856
-4.17577e-05
-0.000220682
0.000971623
-0.232478
0.231727
-0.00239054
0.00385313
-0.404783
0.40332
-0.00502565
0.00530801
-0.552002
0.551719
-0.00475467
0.00378736
-0.667103
0.668071
-0.00239257
0.000932716
-0.785626
0.787086
0.000837405
-0.00257454
-0.929288
0.931025
0.00457422
-0.00646299
-1.10359
1.10548
0.00858012
-0.0105226
-1.31406
1.316
0.0126114
-0.0144291
-1.56867
1.57049
0.0159616
-0.0172092
-1.56585
1.5671
0.0180193
-0.0186196
-1.30768
1.30828
0.0189946
-0.0192626
-1.09613
1.0964
0.0194237
-0.0195621
-0.922655
0.922794
0.0196207
-0.0196584
-0.781239
0.781276
0.0194245
-0.0185264
-0.657802
0.656904
0.0165717
-0.0132975
-0.515549
0.512275
0.00978233
-0.00613193
-0.33119
0.32754
0.00351126
-0.00151234
-0.153465
0.151466
0.00043454
-0.0251122
0.0246776
-0.0293009
0.0294883
-0.000187449
0.000796911
-0.00077916
-0.231364
0.231347
0.000218871
0.000582893
-0.402221
0.401419
-0.00133316
0.00149412
-0.551568
0.551407
-0.000974954
6.72747e-05
-0.669118
0.670025
0.00129841
-0.00278792
-0.788547
0.790037
0.00462448
-0.00642296
-0.932628
0.934427
0.0084752
-0.0103858
-1.10724
1.10915
0.0124807
-0.0143529
-1.31781
1.31968
0.0163026
-0.0179174
-1.57214
1.57376
0.0191817
-0.0200825
-1.56816
1.56906
0.0205468
-0.0207825
-1.30877
1.309
0.0208199
-0.0207394
-1.09657
1.09649
0.0205862
-0.0203498
-0.922756
0.922519
0.0201155
-0.019811
-0.781019
0.780714
0.0191385
-0.0177122
-0.655642
0.654216
0.0154843
-0.0121737
-0.509101
0.50579
0.00886679
-0.00556302
-0.324173
0.32087
0.00321526
-0.00140458
-0.149638
0.147827
0.000408838
-0.0242882
0.0238793
-0.0297362
0.0300397
-0.000303507
0.00175574
-0.00234054
-0.231619
0.232203
0.00259219
-0.00248717
-0.40103
0.400925
0.00231717
-0.00247274
-0.551546
0.551702
0.00315081
-0.00417203
-0.671118
0.672139
0.00564234
-0.00721744
-0.791508
0.793083
0.00912776
-0.0109739
-0.936043
0.937889
0.0130578
-0.0149798
-1.1109
1.11282
0.0170699
-0.0189082
-1.32141
1.32325
0.0207702
-0.0222264
-1.57522
1.57668
0.0232443
-0.0238253
-1.56981
1.57039
0.0239558
-0.0237825
-1.30911
1.30894
0.023434
-0.0229119
-1.09621
1.09569
0.0223744
-0.0217775
-0.922047
0.92145
0.0212324
-0.0205496
-0.780033
0.779351
0.0195198
-0.0177587
-0.652665
0.650904
0.0153169
-0.0119309
-0.502621
0.499235
0.00870333
-0.00553685
-0.317768
0.314601
0.00325605
-0.00144404
-0.146102
0.14429
0.000423285
-0.0235015
0.0230782
-0.030415
0.0308442
-0.000429122
0.00260544
-0.00375498
-0.2331
0.23425
0.00473625
-0.00530886
-0.401207
0.40178
0.0057147
-0.00621554
-0.552273
0.552774
0.00713517
-0.0083681
-0.673436
0.674669
0.0100509
-0.0118056
-0.794641
0.796396
0.0138911
-0.0158831
-0.939555
0.941546
0.01813
-0.0202046
-1.11461
1.11668
0.0224412
-0.0243646
-1.32498
1.3269
0.0262197
-0.027551
-1.57798
1.57931
0.0283592
-0.028642
-1.57078
1.57107
0.0284855
-0.0279486
-1.30862
1.30809
0.027247
-0.0263257
-1.09496
1.09403
0.0254038
-0.0243924
-0.920579
0.919567
0.023499
-0.0224438
-0.778295
0.77724
0.0210989
-0.0189427
-0.649045
0.646889
0.016202
-0.0126097
-0.495976
0.492384
0.00929813
-0.00604401
-0.311555
0.308301
0.00362147
-0.00162523
-0.142486
0.14049
0.000477583
-0.0226742
0.0221966
-0.031342
0.0319074
-0.000565458
0.00351819
-0.00522513
-0.235701
0.237408
0.00691421
-0.00813182
-0.402675
0.403893
0.00912933
-0.0099747
-0.55376
0.554605
0.0110953
-0.0125197
-0.676194
0.677618
0.014465
-0.0165029
-0.798123
0.800161
0.0189452
-0.0212861
-0.943427
0.945768
0.0239152
-0.0263088
-1.1187
1.12109
0.0288381
-0.0309549
-1.32877
1.33089
0.0329089
-0.0342066
-1.58053
1.58183
0.0348567
-0.0348643
-1.57117
1.57118
0.0343901
-0.0334929
-1.30736
1.30646
0.0324307
-0.0311072
-1.09287
1.09154
0.0298453
-0.028462
-0.91825
0.916866
0.0271975
-0.0256765
-0.775787
0.774266
0.0238664
-0.0211979
-0.644632
0.641963
0.0180609
-0.0141466
-0.488911
0.484997
0.0105835
-0.00700046
-0.305081
0.301498
0.00424231
-0.00191505
-0.138439
0.136112
0.000563531
-0.0217273
0.0211638
-0.0325473
0.0332904
-0.000743025
0.00464717
-0.00699394
-0.23944
0.241787
0.00948091
-0.0114519
-0.405521
0.407492
0.0131836
-0.0145461
-0.556063
0.557425
0.0160488
-0.0177796
-0.679378
0.681109
0.0201288
-0.0226061
-0.802193
0.804671
0.0255631
-0.0283644
-0.94805
0.950851
0.0314585
-0.0342063
-1.12345
1.12619
0.0370193
-0.0392747
-1.33293
1.33518
0.0412467
-0.042416
-1.58297
1.58414
0.0427889
-0.0423917
-1.57094
1.57055
0.0415137
-0.0401462
-1.3053
1.30393
0.0386529
-0.0368923
-1.08995
1.08819
0.0352337
-0.0334121
-0.915103
0.913282
0.0317491
-0.0296775
-0.772293
0.770222
0.0274018
-0.0242445
-0.639207
0.63605
0.0207309
-0.0164216
-0.481217
0.476908
0.0124188
-0.00828166
-0.297883
0.293746
0.00503528
-0.00227534
-0.1337
0.13094
0.000669414
-0.0206059
0.0199365
-0.0341123
0.0351006
-0.000988208
0.0061577
-0.00929579
-0.244476
0.247614
0.0126976
-0.0155186
-0.409999
0.41282
0.0181563
-0.0202882
-0.559652
0.561783
0.0225429
-0.0249239
-0.683372
0.685753
0.0279717
-0.0310434
-0.807159
0.810231
0.0345852
-0.0378671
-0.953571
0.956852
0.0414008
-0.044453
-1.12885
1.1319
0.0474634
-0.0497638
-1.33728
1.33958
0.0516094
-0.0524681
-1.58505
1.58591
0.0523716
-0.051365
-1.5698
1.56879
0.049889
-0.0479061
-1.30224
1.30025
0.0459204
-0.0436187
-1.08604
1.08374
0.0414746
-0.0391542
-0.910984
0.908664
0.0370383
-0.0344866
-0.767688
0.765136
0.0318148
-0.028223
-0.632868
0.629276
0.0242601
-0.0193225
-0.472715
0.467777
0.0146352
-0.00974192
-0.289537
0.284644
0.00591159
-0.00266782
-0.128092
0.124848
0.000783898
-0.0192719
0.018488
-0.0361694
0.0375121
-0.00134273
0.00826641
-0.0124473
-0.251114
0.255295
0.0169524
-0.0206998
-0.416302
0.42005
0.0242814
-0.0272783
-0.565013
0.56801
0.0305035
-0.0337757
-0.688837
0.692109
0.0377204
-0.0415289
-0.81332
0.817128
0.0457906
-0.0496201
-0.960043
0.963873
0.0536393
-0.0570179
-1.13483
1.13821
0.0602523
-0.0626083
-1.34168
1.34404
0.0643073
-0.064818
-1.58643
1.58694
0.0641849
-0.0624745
-1.56734
1.56563
0.0602796
-0.0574711
-1.29779
1.29498
0.0547282
-0.0517374
-1.08102
1.07803
0.0491403
-0.0464121
-0.905856
0.903128
0.0439738
-0.0410296
-0.762135
0.759191
0.0379487
-0.0337275
-0.625634
0.621413
0.0289264
-0.0228879
-0.462805
0.456767
0.0172167
-0.011407
-0.279653
0.273844
0.00690887
-0.00311337
-0.121524
0.117729
0.000912445
-0.0177166
0.0168042
-0.0389146
0.0407723
-0.00185771
0.0112773
-0.0168731
-0.259823
0.265419
0.0227489
-0.0274946
-0.424667
0.429413
0.0319552
-0.0357416
-0.572332
0.576118
0.0398958
-0.0440753
-0.696116
0.700296
0.0490473
-0.0537353
-0.820996
0.825684
0.0588418
-0.0633515
-0.967638
0.972147
0.0680112
-0.071875
-1.1415
1.14536
0.0755045
-0.0780584
-1.34624
1.3488
0.0797682
-0.0800841
-1.58715
1.58747
0.0791007
-0.0768826
-1.56353
1.56132
0.0741505
-0.0706788
-1.29173
1.28826
0.0672633
-0.0634596
-1.07441
1.07061
0.0600669
-0.0566174
-0.899739
0.896289
0.0536481
-0.0500987
-0.755702
0.752152
0.0461462
-0.0405918
-0.616858
0.611303
0.0343934
-0.0268951
-0.45058
0.443082
0.0201085
-0.0132941
-0.267988
0.261174
0.00803895
-0.00360843
-0.113863
0.109432
0.00105002
-0.0159113
0.0148613
-0.0426572
0.0453303
-0.00267303
0.0158394
-0.023419
-0.271344
0.278923
0.0311192
-0.0371348
-0.435529
0.441545
0.0426002
-0.0471769
-0.581541
0.586117
0.0522273
-0.0573057
-0.705186
0.710264
0.0632385
-0.0687512
-0.83035
0.835863
0.0747452
-0.0800269
-0.976608
0.98189
0.0854559
-0.0899041
-1.14917
1.15361
0.0939931
-0.0967864
-1.35121
1.35401
0.0985441
-0.0987044
-1.58752
1.58768
0.0974162
-0.0947735
-1.55877
1.55613
0.0916004
-0.0875996
-1.28444
1.28044
0.0836591
-0.0792023
-1.06627
1.06181
0.0751414
-0.0707473
-0.891949
0.887554
0.0665429
-0.0614991
-0.747581
0.742538
0.0558049
-0.048252
-0.60499
0.597437
0.0404027
-0.0314182
-0.435481
0.426496
0.0234821
-0.0155269
-0.254398
0.246443
0.00936162
-0.00417123
-0.104943
0.0997529
0.00120041
-0.0138395
0.012639
-0.0479589
0.0520552
-0.00409631
0.0231832
-0.0335944
-0.2869
0.297311
0.043825
-0.0517207
-0.449926
0.457822
0.0585752
-0.0640908
-0.59282
0.598336
0.0701351
-0.076124
-0.715946
0.721935
0.0829812
-0.0893031
-0.841274
0.847596
0.0961424
-0.102097
-0.987084
0.993039
0.108103
-0.112884
-1.1579
1.16268
0.117111
-0.11982
-1.35651
1.35922
0.121249
-0.120892
-1.58742
1.58706
0.118941
-0.11554
-1.55302
1.54962
0.111669
-0.106875
-1.276
1.27121
0.102178
-0.0968242
-1.05672
1.05137
0.0917968
-0.0860404
-0.881962
0.876206
0.0802791
-0.0732038
-0.735886
0.728811
0.0656578
-0.0562885
-0.589049
0.57968
0.0470485
-0.0367073
-0.4176
0.407259
0.0275029
-0.018145
-0.238624
0.229266
0.0108542
-0.0047691
-0.094563
0.0884778
0.00134652
-0.0114881
0.0101416
-0.0558965
0.06305
-0.00715349
0.0365522
-0.0512643
-0.308696
0.323408
0.0651549
-0.0756064
-0.469487
0.479938
0.0840702
-0.0907089
-0.606635
0.613274
0.0980427
-0.104962
-0.728343
0.735263
0.112564
-0.119359
-0.85366
0.860455
0.126503
-0.132518
-0.99865
1.00466
0.138339
-0.142702
-1.16695
1.17131
0.14623
-0.148054
-1.36124
1.36306
0.148309
-0.146657
-1.58588
1.58423
0.143342
-0.138527
-1.5454
1.54059
0.133399
-0.127257
-1.26569
1.25955
0.121333
-0.114607
-1.04514
1.03841
0.108217
-0.100847
-0.868967
0.861597
0.093584
-0.0848948
-0.719999
0.71131
0.0760554
-0.0654192
-0.56959
0.558953
0.0549998
-0.0431654
-0.397051
0.385217
0.0323657
-0.0212602
-0.220164
0.209058
0.0125851
-0.00543175
-0.0825671
0.0754138
0.00149098
-0.00888495
0.00739397
-0.0698054
0.073648
-0.00384263
0.0273516
-0.0400629
-0.340758
0.353469
0.0524502
-0.0618613
-0.495505
0.504916
0.0701574
-0.0783481
-0.623266
0.631457
0.0876901
-0.0960758
-0.741922
0.750308
0.105777
-0.114699
-0.866452
0.875374
0.124382
-0.133073
-1.00973
1.01842
0.142152
-0.149863
-1.17456
1.18227
0.157344
-0.163023
-1.36366
1.36934
0.167529
-0.169584
-1.58126
1.58332
0.169007
-0.16615
-1.53451
1.53165
0.161778
-0.155453
-1.25235
1.24602
0.148736
-0.139939
-1.03058
1.02178
0.131283
-0.121051
-0.852683
0.842452
0.111121
-0.0996113
-0.700868
0.689357
0.0879708
-0.0742602
-0.547489
0.533778
0.0611331
-0.0461131
-0.373183
0.358163
0.0328625
-0.0200363
-0.198168
0.185341
0.0108787
-0.0042346
-0.0689594
0.0623153
0.00099818
-0.00615169
0.00515351
-0.0806223
0.0785104
0.00211192
0.00569674
-0.0137656
-0.369083
0.377152
0.0230247
-0.0299201
-0.519042
0.525937
0.0371481
-0.0444096
-0.641771
0.649033
0.0530909
-0.0610911
-0.758637
0.766638
0.0698194
-0.0780197
-0.883823
0.892024
0.0868561
-0.0944293
-1.02679
1.03436
0.102495
-0.108951
-1.18971
1.19616
0.115091
-0.119345
-1.37454
1.37879
0.121905
-0.1221
-1.58414
1.58433
0.119583
-0.114688
-1.52734
1.52245
0.108352
-0.100078
-1.23847
1.23019
0.0917442
-0.0817814
-1.01189
1.00193
0.0721056
-0.0611112
-0.830224
0.81923
0.0512232
-0.0411811
-0.674418
0.664376
0.032683
-0.0235979
-0.518113
0.509027
0.0157864
-0.00879779
-0.342589
0.335601
0.00424941
-0.00113859
-0.17287
0.169759
-0.000238011
0.000538386
-0.0558451
0.0555447
-0.000297383
-0.00392867
0.00422605
-0.081519
0.0785734
0.00294561
-0.00287417
-0.00157093
-0.388039
0.392484
0.00763013
-0.0129148
-0.536896
0.542181
0.0188525
-0.0252612
-0.657926
0.664334
0.0328685
-0.0398881
-0.774097
0.781117
0.0477279
-0.0548817
-0.899569
0.906723
0.0623075
-0.0689942
-1.04172
1.04841
0.0758697
-0.081408
-1.2021
1.20763
0.0861547
-0.089108
-1.3822
1.38515
0.0905506
-0.0895269
-1.58352
1.58249
0.0858681
-0.0799526
-1.51653
1.51061
0.0729766
-0.0644418
-1.22141
1.21288
0.0557581
-0.0460062
-0.991337
0.981585
0.0368534
-0.0268047
-0.808006
0.797958
0.0181914
-0.00962669
-0.652285
0.64372
0.00298638
0.00337638
-0.497909
0.491546
-0.00752428
0.00944397
-0.326491
0.324572
-0.00920565
0.00749685
-0.164584
0.166293
-0.00524427
0.00268343
-0.0544419
0.0570027
-0.000888969
-0.00405577
0.00494474
-0.0800623
0.0773028
0.00275952
-0.00595943
0.00392718
-0.40054
0.402573
-0.000271625
-0.00391743
-0.550606
0.554795
0.00930163
-0.0148062
-0.671502
0.677007
0.0214257
-0.0275625
-0.787855
0.793992
0.0343361
-0.0404979
-0.913455
0.919616
0.047239
-0.0528868
-1.05466
1.06031
0.0588515
-0.0631745
-1.21272
1.21704
0.0671046
-0.0693718
-1.38779
1.39005
0.0699892
-0.0681565
-1.58088
1.57905
0.064288
-0.0584117
-1.50407
1.49819
0.0516568
-0.0432416
-1.20412
1.19571
0.0352084
-0.0263471
-0.97158
0.962719
0.0180161
-0.00929132
-0.787724
0.778999
0.0015578
0.00567056
-0.633295
0.626066
-0.0110233
0.0153352
-0.483163
0.478851
-0.0171815
0.016508
-0.319176
0.319849
-0.0140672
0.0103606
-0.165644
0.169351
-0.00692505
0.0033592
-0.0584045
0.0619704
-0.00105329
-0.00530945
0.00636273
-0.0785094
0.0761437
0.00236572
-0.00667361
0.00603968
-0.408913
0.409547
-0.00327831
0.000230374
-0.562016
0.565064
0.0044056
-0.00953378
-0.683146
0.688274
0.0151999
-0.0207048
-0.799714
0.805219
0.0266503
-0.0320504
-0.925445
0.930845
0.0378656
-0.0429127
-1.06585
1.0709
0.0479629
-0.0519324
-1.22122
1.22519
0.0552711
-0.0571008
-1.39195
1.39377
0.0573824
-0.055421
-1.57703
1.57507
0.0516544
-0.0459519
-1.4917
1.486
0.0397451
-0.0322604
-1.18745
1.17996
0.0250862
-0.0171065
-0.953771
0.945791
0.00990421
-0.00230742
-0.770045
0.762448
-0.00415413
0.010253
-0.617581
0.611482
-0.0145394
0.0175678
-0.47207
0.469041
-0.0187544
0.017477
-0.316516
0.317793
-0.0144609
0.0105422
-0.170372
0.17429
-0.00695206
0.00329641
-0.0640659
0.0677215
-0.00103324
-0.00687817
0.00791141
-0.0771977
0.0752081
0.00198957
-0.0063086
0.00603801
-0.414732
0.415002
-0.00444753
0.00181877
-0.570922
0.573551
0.00271847
-0.00719055
-0.693272
0.697744
0.0121767
-0.0170616
-0.810165
0.81505
0.0224386
-0.0273335
-0.936012
0.940907
0.0327203
-0.0371926
-1.07571
1.08018
0.0417883
-0.0454043
-1.22891
1.23252
0.0483842
-0.0499906
-1.39536
1.39697
0.0501609
-0.0486487
-1.57307
1.57156
0.0451403
-0.0400886
-1.48
1.47495
0.0344888
-0.0278218
-1.17251
1.16584
0.0217228
-0.014642
-0.937949
0.930868
0.0083518
-0.0019063
-0.754837
0.748391
-0.00360391
0.00876983
-0.604522
0.599356
-0.0123851
0.015015
-0.463588
0.460958
-0.0157415
0.0146633
-0.31553
0.316608
-0.012259
0.00884076
-0.175365
0.178783
-0.00574981
0.00276095
-0.0695033
0.0724922
-0.000879634
-0.0083412
0.00922084
-0.0762832
0.0747552
0.00152803
-0.00529957
0.00525439
-0.419138
0.419183
-0.00379754
0.00169694
-0.578924
0.581025
0.00246569
-0.00656415
-0.702268
0.706367
0.0114014
-0.0157049
-0.819723
0.824026
0.020523
-0.0249411
-0.945874
0.950293
0.0301308
-0.0342627
-1.08474
1.08887
0.0384201
-0.0419151
-1.236
1.23949
0.0451347
-0.0466992
-1.39864
1.4002
0.0470881
-0.0457511
-1.56973
1.56839
0.0429455
-0.0382323
-1.46982
1.46511
0.0334055
-0.0276391
-1.1592
1.15343
0.0221749
-0.0161874
-0.924027
0.918039
0.0107137
-0.00499784
-0.741807
0.736091
0.000484558
0.00402132
-0.593417
0.588911
-0.00721157
0.00929541
-0.456297
0.454213
-0.0100469
0.00959897
-0.314802
0.31525
-0.00795232
0.00556691
-0.179201
0.181586
-0.00354755
0.00172502
-0.0734792
0.0753017
-0.000575889
-0.00944407
0.01002
-0.0758895
0.0747038
0.00118568
-0.00416395
0.00418032
-0.422734
0.422717
-0.00272991
0.00068231
-0.586059
0.588106
0.00322292
-0.00695892
-0.710504
0.71424
0.0111951
-0.0154211
-0.828413
0.832639
0.0199538
-0.0245727
-0.954614
0.959233
0.0291193
-0.0331335
-1.09315
1.09716
0.0374876
-0.0408151
-1.24292
1.24624
0.0436598
-0.0457351
-1.40172
1.4038
0.0464491
-0.0455663
-1.56717
1.56628
0.0431349
-0.0392437
-1.46067
1.45678
0.0349959
-0.0298637
-1.14749
1.14236
0.0250719
-0.0197355
-0.912047
0.90671
0.0149058
-0.0100199
-0.730478
0.725592
0.00576737
-0.00179076
-0.583761
0.579785
-0.00107565
0.0032374
-0.450171
0.448009
-0.00418841
0.00411163
-0.313132
0.313208
-0.003489
0.00244285
-0.180941
0.181988
-0.00156402
0.000780059
-0.0753194
0.0761034
-0.000295533
-0.00997853
0.0102741
-0.0760222
0.0750355
0.000986659
-0.00288557
0.00267552
-0.426057
0.426267
-0.00139015
-0.000759978
-0.592634
0.594785
0.00436799
-0.00802337
-0.718286
0.721942
0.0121506
-0.0160432
-0.836773
0.840665
0.0207547
-0.0246602
-0.963368
0.967273
0.0292335
-0.0331244
-1.10138
1.10527
0.0374285
-0.0410111
-1.2496
1.25318
0.0442161
-0.0461674
-1.40569
1.40764
0.0473328
-0.0469695
-1.56538
1.56502
0.0452925
-0.041842
-1.45282
1.44936
0.0381384
-0.033523
-1.13736
1.13274
0.0292234
-0.0243185
-0.901213
0.896309
0.0200131
-0.015435
-0.720481
0.715903
0.0115276
-0.00773832
-0.575247
0.571458
0.00482934
-0.00266394
-0.444165
0.441999
0.00128517
-0.000684065
-0.310434
0.309833
0.000268154
-8.03937e-05
-0.180429
0.180241
-3.49621e-05
0.000162896
-0.0752254
0.0750975
-0.00012704
-0.0099951
0.0101221
-0.0764242
0.0757428
0.000681458
-0.00176263
0.00118885
-0.429548
0.430122
-0.000114834
-0.00233966
-0.598451
0.600905
0.0056154
-0.0091672
-0.725633
0.729185
0.0131658
-0.0172253
-0.844515
0.848575
0.0213879
-0.0254932
-0.971447
0.975552
0.0300775
-0.0338109
-1.10963
1.11336
0.0382569
-0.0418493
-1.25661
1.2602
0.045181
-0.0477242
-1.41003
1.41257
0.0494578
-0.049462
-1.56473
1.56473
0.048113
-0.0454244
-1.4461
1.44341
0.0422833
-0.0380412
-1.128
1.12375
0.0339872
-0.0295943
-0.891311
0.886918
0.0252133
-0.0210199
-0.711042
0.706848
0.0172872
-0.0135039
-0.567338
0.563555
0.0106598
-0.00807059
-0.438048
0.435459
0.00628573
-0.00479361
-0.30668
0.305188
0.00357857
-0.00228118
-0.177919
0.176621
0.00115878
-0.000307297
-0.0734761
0.0726246
-1.74148e-05
-0.00956787
0.00958529
-0.0772203
0.0766859
0.000534357
-0.000828248
0.000360671
-0.43326
0.433727
0.00144037
-0.00366425
-0.6045
0.606724
0.00707437
-0.0105116
-0.732534
0.735972
0.0143863
-0.018088
-0.85239
0.856092
0.0224092
-0.026242
-0.979718
0.983551
0.0308143
-0.03501
-1.11757
1.12177
0.0391468
-0.0431067
-1.26387
1.26783
0.0469069
-0.0495994
-1.41505
1.41775
0.0517715
-0.0526105
-1.56498
1.56582
0.0517486
-0.0497024
-1.4406
1.43855
0.0467694
-0.0429482
-1.11951
1.11569
0.0392423
-0.0349458
-0.882082
0.877786
0.0308609
-0.0266997
-0.702111
0.697949
0.0230069
-0.0191032
-0.559318
0.555414
0.0159714
-0.0130696
-0.431516
0.428615
0.0105893
-0.00831985
-0.301455
0.299186
0.00626163
-0.00407084
-0.173494
0.171304
0.00228114
-0.000841982
-0.0704583
0.0690191
0.000151961
-0.00890205
0.00875009
-0.0782622
0.0779017
0.000360547
0.000170283
-0.000903112
-0.437053
0.437786
0.00254272
-0.00503806
-0.61012
0.612615
0.00836715
-0.011656
-0.739226
0.742515
0.0156245
-0.0192
-0.859832
0.863408
0.0233972
-0.0273753
-0.987898
0.991876
0.0318815
-0.0360702
-1.12585
1.13004
0.040457
-0.0444765
-1.27175
1.27577
0.0485032
-0.0519758
-1.42075
1.42422
0.0546397
-0.0558194
-1.56662
1.5678
0.0556777
-0.0539679
-1.43639
1.43468
0.0515687
-0.048223
-1.11176
1.10842
0.0445245
-0.040365
-0.873158
0.868999
0.0363713
-0.0320888
-0.693355