/*--------------------------------*- C++ -*----------------------------------*\
| =========                 |                                                 |
| \\      /  F ield         | OpenFOAM: The Open Source CFD Toolbox           |
|  \\    /   O peration     | Version:  2112                                  |
|   \\  /    A nd           | Website:  www.openfoam.com                      |
|    \\/     M anipulation  |                                                 |
\*---------------------------------------------------------------------------*/
FoamFile
{
    version     2.0;
    format      ascii;
    arch        "LSB;label=32;scalar=64";
    class       volVectorField;
    location    "30.5";
    object      U;
}
// * * * * * * * * * * * * * * * * * * * * * * * * * * * * * * * * * * * * * //

dimensions      [0 1 -1 0 0 0 0];

internalField   nonuniform List<vector> 
8800
(
(0.980155 -0.0915212 0)
(1.00234 -0.0587227 0)
(0.999611 -0.0321238 0)
(0.999997 -0.0165143 0)
(1.00004 -0.00882527 0)
(1.00002 -0.00507005 0)
(0.999995 -0.00297313 0)
(0.999987 -0.00168704 0)
(0.999987 -0.000810151 0)
(1.00005 -0.000122914 0)
(0.999993 0.00057341 0)
(1 0.00132953 0)
(1.00001 0.00236072 0)
(1.00002 0.00397024 0)
(1.00004 0.00672142 0)
(1.00004 0.0120315 0)
(0.999877 0.0230858 0)
(0.999071 0.0431528 0)
(1.00722 0.0790276 0)
(0.775025 0.0478395 0)
(0.358977 -0.0147489 0)
(1.04649 -0.0724936 0)
(1.08849 -0.0660308 0)
(1.04946 -0.0509239 0)
(1.02553 -0.0377046 0)
(1.01266 -0.0258953 0)
(1.00648 -0.0167065 0)
(1.00355 -0.0102458 0)
(1.00214 -0.00565269 0)
(1.00149 -0.00209317 0)
(1.00137 0.00109532 0)
(1.00174 0.00439627 0)
(1.00271 0.00829592 0)
(1.00473 0.01363 0)
(1.00896 0.021324 0)
(1.01798 0.0318279 0)
(1.03588 0.0446151 0)
(1.0675 0.0580738 0)
(1.09474 0.0699572 0)
(0.845697 0.055498 0)
(0.217759 -0.00138112 0)
(1.07567 -0.0506628 0)
(1.09943 -0.0489485 0)
(1.06438 -0.0400303 0)
(1.03983 -0.0325626 0)
(1.02369 -0.025347 0)
(1.0139 -0.0181672 0)
(1.00842 -0.0116116 0)
(1.0056 -0.0059094 0)
(1.00446 -0.00065944 0)
(1.00479 0.00442679 0)
(1.00665 0.00971254 0)
(1.01057 0.0156951 0)
(1.01789 0.0224691 0)
(1.03053 0.0295921 0)
(1.05056 0.0367058 0)
(1.08017 0.0445117 0)
(1.10579 0.0518606 0)
(0.943436 0.0409728 0)
(0.217295 0.00140017 0)
(0.176606 -0.000629001 0)
(1.01937 -0.0354723 0)
(1.10571 -0.0414284 0)
(1.07795 -0.0364205 0)
(1.05234 -0.0303833 0)
(1.03506 -0.0245223 0)
(1.02321 -0.0187714 0)
(1.01543 -0.0128341 0)
(1.01085 -0.00680082 0)
(1.00884 -0.000629393 0)
(1.00941 0.00547788 0)
(1.01253 0.0113806 0)
(1.01849 0.017186 0)
(1.02808 0.0228083 0)
(1.04231 0.0283869 0)
(1.06319 0.0341866 0)
(1.09403 0.0400977 0)
(1.09466 0.0416592 0)
(0.830576 0.022722 0)
(0.175818 0.000644266 0)
(0.154691 -0.000462455 0)
(0.958123 -0.0256893 0)
(1.10436 -0.0351156 0)
(1.088 -0.0326682 0)
(1.0611 -0.0281632 0)
(1.04301 -0.0232212 0)
(1.03064 -0.0180021 0)
(1.02206 -0.012565 0)
(1.01654 -0.00674976 0)
(1.01394 -0.000372248 0)
(1.01463 0.00603486 0)
(1.01847 0.0118738 0)
(1.02528 0.0171978 0)
(1.03543 0.0222308 0)
(1.05021 0.0270882 0)
(1.07217 0.0315692 0)
(1.10124 0.0354971 0)
(1.07011 0.0337792 0)
(0.74325 0.0143714 0)
(0.153515 0.000479727 0)
(0.140012 -0.000334339 0)
(0.901104 -0.0193038 0)
(1.09674 -0.0302032 0)
(1.09612 -0.0293426 0)
(1.06876 -0.0255792 0)
(1.04985 -0.0215352 0)
(1.03689 -0.0169347 0)
(1.02793 -0.0117939 0)
(1.02203 -0.00616905 0)
(1.0191 5.8729e-05 0)
(1.0198 0.00631254 0)
(1.02387 0.0119093 0)
(1.03093 0.0169163 0)
(1.04147 0.0214388 0)
(1.05693 0.0254309 0)
(1.07979 0.0289844 0)
(1.10369 0.0317501 0)
(1.03866 0.0278476 0)
(0.676925 0.0101898 0)
(0.13836 0.000354951 0)
(0.129297 -0.000252488 0)
(0.85129 -0.0148728 0)
(1.08431 -0.0260436 0)
(1.10166 -0.0264128 0)
(1.07543 -0.0231446 0)
(1.05606 -0.0195666 0)
(1.04269 -0.0155077 0)
(1.03334 -0.0107868 0)
(1.02715 -0.00543418 0)
(1.02401 0.000583071 0)
(1.02463 0.0066157 0)
(1.02876 0.0119003 0)
(1.03603 0.0164554 0)
(1.04689 0.0203702 0)
(1.06271 0.0237627 0)
(1.08598 0.0268294 0)
(1.10305 0.0287027 0)
(1.00451 0.0231717 0)
(0.62559 0.00774098 0)
(0.127067 0.000277532 0)
(0.121162 -0.000192801 0)
(0.808989 -0.011632 0)
(1.06903 -0.0223607 0)
(1.10511 -0.023665 0)
(1.08155 -0.0208068 0)
(1.06168 -0.0174656 0)
(1.04802 -0.0137703 0)
(1.03841 -0.00946285 0)
(1.03196 -0.004465 0)
(1.02863 0.00123527 0)
(1.02912 0.00691688 0)
(1.03326 0.0117855 0)
(1.04061 0.0158248 0)
(1.0516 0.0192224 0)
(1.06775 0.022215 0)
(1.09146 0.0250221 0)
(1.09977 0.0260569 0)
(0.970303 0.0194174 0)
(0.584838 0.00611048 0)
(0.118228 0.000223417 0)
(0.114901 -0.000147719 0)
(0.773535 -0.00916931 0)
(1.05221 -0.0190552 0)
(1.1073 -0.0211342 0)
(1.08721 -0.0187497 0)
(1.06691 -0.0156365 0)
(1.05297 -0.0121178 0)
(1.04318 -0.00801847 0)
(1.0365 -0.00332957 0)
(1.03292 0.00200841 0)
(1.03327 0.00729662 0)
(1.03735 0.0117238 0)
(1.0447 0.0153604 0)
(1.05576 0.0184114 0)
(1.07222 0.0210829 0)
(1.09569 0.0235073 0)
(1.09381 0.0237206 0)
(0.937434 0.0164002 0)
(0.551759 0.00495403 0)
(0.111114 0.000185141 0)
(0.110081 -0.000110993 0)
(0.74414 -0.0072149 0)
(1.0351 -0.0160296 0)
(1.10843 -0.0185641 0)
(1.09241 -0.016504 0)
(1.07188 -0.0135729 0)
(1.05771 -0.0102633 0)
(1.04771 -0.00640441 0)
(1.04085 -0.00201399 0)
(1.03705 0.00295961 0)
(1.03718 0.00781678 0)
(1.0411 0.0117809 0)
(1.04837 0.014955 0)
(1.05948 0.0175988 0)
(1.07613 0.0199261 0)
(1.09865 0.0220051 0)
(1.0857 0.0215593 0)
(0.90674 0.0139632 0)
(0.524431 0.00409687 0)
(0.105253 0.000156978 0)
(0.106423 -8.1165e-05 0)
(0.720059 -0.00559392 0)
(1.0186 -0.0132407 0)
(1.10881 -0.0160426 0)
(1.09748 -0.0142671 0)
(1.07658 -0.0114291 0)
(1.06206 -0.00829136 0)
(1.05185 -0.0046481 0)
(1.04478 -0.000503287 0)
(1.04072 0.00410579 0)
(1.04058 0.00848648 0)
(1.04429 0.0120064 0)
(1.05143 0.0147517 0)
(1.06258 0.0169621 0)
(1.07956 0.0189239 0)
(1.10042 0.0206711 0)
(1.07603 0.0195994 0)
(0.878511 0.0119754 0)
(0.501532 0.00344763 0)
(0.100327 0.000137449 0)
(0.103744 -5.53441e-05 0)
(0.700766 -0.00417793 0)
(1.00333 -0.0105826 0)
(1.1084 -0.0135071 0)
(1.10219 -0.0120996 0)
(1.08111 -0.0094069 0)
(1.06627 -0.00630489 0)
(1.05584 -0.00274317 0)
(1.04851 0.00120424 0)
(1.04412 0.00548199 0)
(1.04364 0.00944153 0)
(1.04705 0.0124987 0)
(1.05404 0.0148127 0)
(1.06523 0.0166873 0)
(1.08247 0.0183172 0)
(1.10115 0.0195469 0)
(1.06505 0.0178145 0)
(0.852808 0.0103308 0)
(0.482129 0.00294555 0)
(0.0960904 0.000124799 0)
(0.101954 -2.98691e-05 0)
(0.68594 -0.00287192 0)
(0.989941 -0.00795831 0)
(1.10732 -0.0106924 0)
(1.10632 -0.00949854 0)
(1.08551 -0.00690886 0)
(1.07042 -0.00389062 0)
(1.05965 -0.000489305 0)
(1.05193 0.00321097 0)
(1.04712 0.00716726 0)
(1.04622 0.0106931 0)
(1.04938 0.01321 0)
(1.05624 0.0149664 0)
(1.06735 0.0163258 0)
(1.0845 0.0175954 0)
(1.10073 0.0183892 0)
(1.05319 0.0160814 0)
(0.829675 0.00893132 0)
(0.465592 0.00254444 0)
(0.0923891 0.000115791 0)
(0.100997 -4.00793e-06 0)
(0.675419 -0.00164794 0)
(0.979012 -0.00540336 0)
(1.10632 -0.0077356 0)
(1.11032 -0.00657324 0)
(1.08979 -0.00410146 0)
(1.07435 -0.00125164 0)
(1.06336 0.00199881 0)
(1.05539 0.00556191 0)
(1.05016 0.00922308 0)
(1.04869 0.012283 0)
(1.05127 0.0142932 0)
(1.05774 0.0155269 0)
(1.06877 0.0163168 0)
(1.08609 0.0169584 0)
(1.09942 0.0172904 0)
(1.041 0.0145504 0)
(0.809026 0.00777691 0)
(0.451411 0.00223727 0)
(0.0890807 0.000111652 0)
(0.100873 1.81674e-05 0)
(0.669094 -0.000383885 0)
(0.970662 -0.00277963 0)
(1.10535 -0.00471404 0)
(1.114 -0.00377945 0)
(1.09378 -0.0014469 0)
(1.078 0.00148609 0)
(1.06669 0.00478999 0)
(1.05823 0.00828091 0)
(1.05234 0.0117301 0)
(1.05025 0.014393 0)
(1.05237 0.015883 0)
(1.05848 0.016563 0)
(1.0694 0.016891 0)
(1.08654 0.0169991 0)
(1.09696 0.0167255 0)
(1.02829 0.0132779 0)
(0.790536 0.006825 0)
(0.43914 0.00200284 0)
(0.0860406 0.000110998 0)
(0.101659 6.05366e-05 0)
(0.666968 0.00082607 0)
(0.965253 -0.000151185 0)
(1.10453 -0.00140043 0)
(1.11733 -0.000519737 0)
(1.09795 0.00174395 0)
(1.08203 0.00478965 0)
(1.07039 0.00817868 0)
(1.06146 0.011636 0)
(1.05488 0.0148447 0)
(1.05194 0.0170276 0)
(1.05328 0.0179106 0)
(1.05883 0.0180171 0)
(1.06934 0.0177656 0)
(1.08608 0.0172831 0)
(1.09285 0.0161978 0)
(1.01524 0.0122223 0)
(0.774037 0.0061693 0)
(0.428368 0.00186034 0)
(0.0832364 0.000105454 0)
(0.103375 8.63109e-05 0)
(0.668531 0.00184763 0)
(0.963212 0.00222089 0)
(1.10474 0.0019311 0)
(1.12076 0.00310174 0)
(1.10212 0.00554828 0)
(1.08597 0.00871121 0)
(1.07382 0.0121458 0)
(1.06418 0.0155912 0)
(1.0567 0.0186465 0)
(1.05274 0.0204196 0)
(1.05325 0.0207082 0)
(1.05821 0.0201005 0)
(1.0683 0.0191206 0)
(1.08454 0.0181316 0)
(1.08758 0.0163577 0)
(1.00211 0.0119694 0)
(0.758749 0.00609404 0)
(0.418151 0.0019182 0)
(0.0804884 0.000108624 0)
(0.105958 0.000123719 0)
(0.673693 0.00283567 0)
(0.964418 0.00443222 0)
(1.10651 0.00503806 0)
(1.12483 0.00664178 0)
(1.10662 0.00945007 0)
(1.09014 0.0128953 0)
(1.07751 0.0166002 0)
(1.06712 0.0202849 0)
(1.05854 0.0233215 0)
(1.05333 0.024728 0)
(1.0527 0.0244826 0)
(1.05674 0.0232278 0)
(1.06628 0.0215775 0)
(1.08188 0.0199095 0)
(1.08124 0.017545 0)
(0.988542 0.0125954 0)
(0.743638 0.00659247 0)
(0.407416 0.00216429 0)
(0.0775251 0.00012161 0)
(0.109428 0.000163138 0)
(0.682106 0.00385805 0)
(0.968526 0.00659039 0)
(1.10977 0.00818335 0)
(1.12965 0.0101329 0)
(1.11169 0.013393 0)
(1.09484 0.0174187 0)
(1.08162 0.0217509 0)
(1.07026 0.025916 0)
(1.06023 0.029115 0)
(1.05347 0.0302443 0)
(1.05152 0.0294469 0)
(1.0545 0.0275449 0)
(1.06336 0.0252798 0)
(1.0781 0.022901 0)
(1.07352 0.0196868 0)
(0.974043 0.0140307 0)
(0.727619 0.00759875 0)
(0.395207 0.00255129 0)
(0.0740875 0.000143234 0)
(0.113947 0.000215271 0)
(0.693962 0.00510432 0)
(0.976044 0.00915773 0)
(1.11478 0.0119647 0)
(1.13522 0.0145251 0)
(1.11767 0.0184802 0)
(1.10047 0.023353 0)
(1.08634 0.0284493 0)
(1.0736 0.0330683 0)
(1.06176 0.0362923 0)
(1.05313 0.0369568 0)
(1.04961 0.0354168 0)
(1.05143 0.032752 0)
(1.05943 0.0297717 0)
(1.07289 0.0266132 0)
(1.06411 0.0224995 0)
(0.958259 0.0161822 0)
(0.709621 0.00897765 0)
(0.380862 0.00303147 0)
(0.0700105 0.000170187 0)
(0.119846 0.000288694 0)
(0.70978 0.0067663 0)
(0.987624 0.0123317 0)
(1.12264 0.0166371 0)
(1.14246 0.0204281 0)
(1.12506 0.0255472 0)
(1.1072 0.0313831 0)
(1.09175 0.0371984 0)
(1.07714 0.0421459 0)
(1.06306 0.0451491 0)
(1.05216 0.0449939 0)
(1.04691 0.0423957 0)
(1.04736 0.0388298 0)
(1.05436 0.0349691 0)
(1.06622 0.0309856 0)
(1.05331 0.0261109 0)
(0.940816 0.0190042 0)
(0.688754 0.0105815 0)
(0.363983 0.00355455 0)
(0.0651898 0.000198793 0)
(0.127655 0.000398076 0)
(0.730512 0.00907768 0)
(1.0036 0.0164306 0)
(1.13416 0.0223264 0)
(1.15242 0.0277638 0)
(1.13418 0.0343152 0)
(1.11505 0.0413331 0)
(1.09766 0.0479411 0)
(1.08064 0.0532564 0)
(1.0638 0.0560188 0)
(1.05022 0.0549596 0)
(1.04295 0.051062 0)
(1.04218 0.0461222 0)
(1.04818 0.0414543 0)
(1.05832 0.0368939 0)
(1.04098 0.0312012 0)
(0.920188 0.0226234 0)
(0.664055 0.012396 0)
(0.344304 0.00415372 0)
(0.059593 0.000229887 0)
(0.138113 0.000558924 0)
(0.757489 0.0123673 0)
(1.02445 0.0219341 0)
(1.14955 0.0293063 0)
(1.16544 0.0363126 0)
(1.14552 0.0445145 0)
(1.12422 0.0529285 0)
(1.10428 0.0606028 0)
(1.08432 0.0665712 0)
(1.06416 0.06936 0)
(1.04745 0.0677044 0)
(1.03776 0.0628222 0)
(1.03536 0.056662 0)
(1.04072 0.0505685 0)
(1.04923 0.0451986 0)
(1.02572 0.0377899 0)
(0.894688 0.0266995 0)
(0.635148 0.0144525 0)
(0.321458 0.00482805 0)
(0.0531353 0.000260235 0)
(0.152437 0.000819674 0)
(0.792754 0.0173057 0)
(1.05132 0.0297913 0)
(1.1686 0.038874 0)
(1.18143 0.0473858 0)
(1.15911 0.0571437 0)
(1.13501 0.067007 0)
(1.1119 0.07598 0)
(1.08837 0.0827284 0)
(1.06431 0.0856092 0)
(1.0441 0.0834307 0)
(1.03166 0.0777389 0)
(1.02716 0.0706162 0)
(1.03118 0.0632857 0)
(1.03733 0.0557142 0)
(1.00478 0.0453479 0)
(0.863601 0.031193 0)
(0.601809 0.0168967 0)
(0.295002 0.00560416 0)
(0.0457652 0.000290755 0)
(0.172786 0.0012824 0)
(0.83973 0.0250814 0)
(1.08705 0.0416683 0)
(1.19173 0.0531648 0)
(1.20007 0.0633203 0)
(1.17474 0.074558 0)
(1.14743 0.0858449 0)
(1.12044 0.095785 0)
(1.09259 0.10279 0)
(1.0641 0.105148 0)
(1.04003 0.10182 0)
(1.02462 0.0948364 0)
(1.01756 0.0863223 0)
(1.0189 0.0771938 0)
(1.01993 0.0667046 0)
(0.977265 0.053036 0)
(0.82758 0.0363543 0)
(0.563607 0.0198143 0)
(0.264573 0.00644819 0)
(0.0375169 0.000313901 0)
(0.202549 0.00233108 0)
(0.904226 0.0385838 0)
(1.13472 0.06134 0)
(1.21954 0.0757071 0)
(1.22113 0.0880439 0)
(1.19212 0.100421 0)
(1.16083 0.112275 0)
(1.12904 0.121927 0)
(1.09618 0.12779 0)
(1.0628 0.128219 0)
(1.03459 0.122488 0)
(1.0159 0.11317 0)
(1.00579 0.102397 0)
(1.00293 0.0907683 0)
(0.996957 0.0774989 0)
(0.944714 0.0614445 0)
(0.787055 0.0426629 0)
(0.519977 0.023325 0)
(0.230476 0.00740159 0)
(0.0287015 0.000327861 0)
(0.243462 0.00864078 1.51327e-19)
(0.990186 0.065871 1.30181e-19)
(1.19266 0.0948238 -4.43205e-20)
(1.2512 0.110721 0)
(1.24323 0.125779 -1.00479e-33)
(1.20951 0.137769 1.43659e-20)
(1.17343 0.148355 -2.39875e-20)
(1.13621 0.155981 0)
(1.09786 0.159164 4.51262e-34)
(1.05912 0.156261 -2.58158e-20)
(1.02624 0.146979 0)
(1.00358 0.134417 -2.89303e-20)
(0.989475 0.12075 -8.41925e-20)
(0.981023 0.106526 -3.93894e-20)
(0.967542 0.0916556 -1.16708e-20)
(0.90598 0.0746427 -6.88187e-21)
(0.737501 0.052917 0)
(0.46655 0.0289815 4.80337e-21)
(0.193199 0.00977992 5.67579e-21)
(0.0206632 0.000771566 1.02452e-19)
(0.271168 0.0242996 1.36979e-19)
(1.06069 0.108671 5.07701e-22)
(1.23994 0.142907 1.30152e-20)
(1.28089 0.160045 0)
(1.26314 0.174571 -5.47832e-20)
(1.22448 0.185063 -5.98327e-20)
(1.18335 0.193581 -2.51343e-20)
(1.14054 0.19871 -8.34108e-20)
(1.0963 0.198882 0)
(1.05135 0.192244 1.10579e-19)
(1.01247 0.178924 1.06424e-19)
(0.984266 0.162701 3.09368e-20)
(0.964464 0.145988 1.09562e-19)
(0.949252 0.129411 1.50873e-19)
(0.927216 0.113064 0)
(0.857631 0.094893 2.09791e-19)
(0.680946 0.0688249 3.00571e-19)
(0.413343 0.0388982 3.3347e-19)
(0.161733 0.0142893 -3.81252e-19)
(0.0144369 0.00126787 -7.18584e-21)
(0.270785 0.03966 0)
(1.10436 0.16451 3.01049e-20)
(1.27248 0.202538 0)
(1.30392 0.219798 -8.84238e-20)
(1.27873 0.231363 0)
(1.23553 0.238775 -1.24561e-19)
(1.18948 0.24389 5.29182e-20)
(1.1413 0.245436 -1.74369e-19)
(1.09139 0.241729 -1.57244e-21)
(1.04042 0.230877 5.83936e-20)
(0.995737 0.213496 2.31181e-19)
(0.962391 0.194068 -3.12231e-22)
(0.937747 0.175163 -7.90114e-20)
(0.917813 0.157415 -1.4077e-19)
(0.89165 0.140452 1.65627e-19)
(0.821748 0.120555 -2.92398e-19)
(0.649924 0.0893655 -3.84085e-20)
(0.396984 0.0530559 0)
(0.161886 0.0213284 2.60652e-23)
(0.0157719 0.0022181 0)
(0.263862 0.0531732 5.49506e-19)
(1.12729 0.223533 -2.44638e-19)
(1.29301 0.26701 -1.57244e-19)
(1.31892 0.284096 4.58809e-20)
(1.2885 0.2923 -7.48992e-20)
(1.2417 0.296021 2.64939e-19)
(1.19147 0.297187 1.12346e-19)
(1.13859 0.29464 0)
(1.08357 0.286693 -3.08085e-19)
(1.02717 0.271448 0)
(0.977245 0.250218 -1.22768e-19)
(0.939452 0.228035 -1.45321e-19)
(0.911072 0.207404 -8.54652e-20)
(0.888072 0.188743 -1.01515e-19)
(0.860034 0.170955 0)
(0.79346 0.149307 0)
(0.634346 0.114421 -2.49988e-19)
(0.400442 0.0720892 4.91805e-20)
(0.174474 0.0315495 -2.90326e-20)
(0.0204446 0.00394768 -3.39403e-20)
(0.256416 0.0652599 -3.33729e-19)
(1.13682 0.282335 0)
(1.30454 0.332362 3.79707e-19)
(1.32679 0.349535 1.42921e-19)
(1.2926 0.354444 1.63528e-19)
(1.24296 0.354454 0)
(1.18935 0.351647 1.16531e-19)
(1.13255 0.344948 1.97331e-19)
(1.07317 0.332735 1.6196e-19)
(1.012 0.313164 2.71455e-19)
(0.957616 0.288222 0)
(0.916185 0.263517 -3.12514e-19)
(0.884922 0.241317 -1.83969e-19)
(0.859727 0.221785 -1.0769e-19)
(0.830965 0.203366 6.45834e-19)
(0.768395 0.180543 7.65881e-20)
(0.624257 0.142434 3.60115e-19)
(0.408449 0.0936993 -1.70017e-18)
(0.188936 0.0439074 1.0097e-18)
(0.02555 0.00625865 -1.21697e-18)
(0.249663 0.0762438 -3.02576e-19)
(1.13795 0.339065 6.48341e-20)
(1.30915 0.39675 -5.53905e-20)
(1.32894 0.41427 -1.90889e-19)
(1.29191 0.416094 -1.65138e-19)
(1.23999 0.412549 1.72779e-21)
(1.18361 0.405963 -1.25251e-19)
(1.12355 0.395292 2.08498e-19)
(1.06046 0.378965 -3.47522e-19)
(0.995224 0.355218 0)
(0.937072 0.326676 -1.44256e-19)
(0.89275 0.299471 -1.58474e-21)
(0.859313 0.275759 -1.99074e-19)
(0.832585 0.255301 0)
(0.803647 0.236228 -1.3905e-19)
(0.745311 0.212224 -3.29226e-19)
(0.614622 0.171364 8.77791e-19)
(0.414465 0.116215 -8.63672e-19)
(0.200252 0.0569279 1.22733e-18)
(0.029762 0.0087802 -1.27527e-18)
(0.244202 0.0864851 -4.07559e-22)
(1.13389 0.393091 -6.51269e-20)
(1.30904 0.459784 -2.26849e-19)
(1.32667 0.477261 9.77669e-20)
(1.28744 0.476277 -8.71164e-20)
(1.23363 0.469433 0)
(1.17494 0.459327 -1.27927e-19)
(1.11212 0.444935 -2.21221e-19)
(1.04586 0.424726 -1.83701e-19)
(0.977129 0.396962 0)
(0.915772 0.364893 -1.52005e-19)
(0.86911 0.335144 -1.80314e-19)
(0.834079 0.309762 2.14356e-19)
(0.806375 0.288314 -1.27349e-19)
(0.777607 0.268545 -6.00665e-19)
(0.722923 0.243262 3.5643e-19)
(0.603215 0.200146 1.06294e-19)
(0.415127 0.138369 0)
(0.205748 0.0692726 -1.17603e-18)
(0.0323346 0.0111213 -4.30488e-20)
(0.240023 0.0962897 -4.01644e-20)
(1.12675 0.444309 6.69827e-20)
(1.30516 0.520279 1.20013e-19)
(1.32101 0.53788 3.182e-19)
(1.28003 0.534417 -3.61438e-19)
(1.22466 0.524583 3.16164e-19)
(1.16403 0.511243 2.74144e-19)
(1.09884 0.493414 -3.54306e-19)
(1.02981 0.469574 1.04418e-19)
(0.957982 0.437971 -6.65743e-19)
(0.893857 0.402384 -1.66999e-19)
(0.845244 0.36999 0)
(0.809059 0.342751 2.307e-19)
(0.780796 0.32004 2.71942e-19)
(0.752481 0.299289 3.21861e-19)
(0.700961 0.272706 -3.8372e-19)
(0.589283 0.22685 -1.13331e-19)
(0.410042 0.158092 1.33544e-19)
(0.205204 0.0794824 0)
(0.0329921 0.0128842 -9.25758e-20)
(0.236972 0.105797 4.07029e-19)
(1.11801 0.492813 -2.75254e-19)
(1.29859 0.577957 -1.26576e-19)
(1.31285 0.595818 2.21557e-19)
(1.2704 0.590169 -1.87281e-19)
(1.21374 0.577652 -3.99044e-21)
(1.15146 0.5614 -2.95076e-19)
(1.08421 0.540438 -1.26978e-19)
(1.0127 0.513227 -3.16702e-19)
(0.938071 0.47797 2.25733e-22)
(0.871429 0.438878 -5.2897e-19)
(0.821168 0.403667 4.22996e-19)
(0.784066 0.37433 -2.49808e-19)
(0.755542 0.350093 2.95062e-19)
(0.727749 0.328017 0)
(0.678719 0.299705 -2.06225e-19)
(0.572809 0.250526 -8.98996e-22)
(0.399932 0.174496 -5.75503e-19)
(0.200264 0.0871333 -8.48359e-20)
(0.0322797 0.014006 0)
(0.234887 0.115109 0)
(1.1085 0.538795 -2.90907e-19)
(1.29013 0.632733 -2.59479e-19)
(1.30288 0.650966 -2.32162e-19)
(1.25917 0.643367 -2.06428e-19)
(1.20141 0.628458 0)
(1.13771 0.609596 -1.50001e-19)
(1.06864 0.58581 -1.17306e-21)
(0.994893 0.555519 6.77417e-19)
(0.917656 0.516813 -9.33685e-20)
(0.848634 0.474241 -3.79317e-19)
(0.796834 0.436064 2.23e-19)
(0.758992 0.40435 -2.0129e-21)
(0.730294 0.378248 3.14363e-19)
(0.702985 0.354553 1.89174e-19)
(0.655756 0.324016 -4.43409e-19)
(0.553815 0.270711 5.24736e-19)
(0.385485 0.187534 1.54867e-19)
(0.191302 0.0921244 6.38487e-19)
(0.0302624 0.0144067 -1.71056e-18)
(0.233693 0.124351 8.53451e-20)
(1.0988 0.582459 -1.47571e-19)
(1.28052 0.684624 1.26601e-19)
(1.29161 0.7033 2.40101e-19)
(1.24682 0.693935 0)
(1.18813 0.676902 -1.80407e-19)
(1.1232 0.655727 4.87334e-19)
(1.05252 0.629419 2.85357e-19)
(0.976698 0.596344 0)
(0.89696 0.554429 -1.3176e-18)
(0.825594 0.508434 1.01848e-18)
(0.772247 0.467158 0)
(0.733637 0.432811 2.88332e-19)
(0.704811 0.404562 -1.9994e-21)
(0.6779 0.378891 -6.04668e-19)
(0.631863 0.345655 2.36687e-19)
(0.532459 0.287495 0)
(0.367598 0.196943 8.32273e-19)
(0.179297 0.094648 0)
(0.0274523 0.0142445 -8.04768e-19)
(0.233194 0.133579 -8.78904e-20)
(1.08932 0.623927 -1.49984e-19)
(1.26998 0.733696 1.37026e-19)
(1.27948 0.752802 0)
(1.23377 0.741864 -2.23479e-19)
(1.17427 0.722956 0)
(1.10828 0.699736 -5.08767e-19)
(1.03613 0.671204 -1.45084e-19)
(0.958376 0.635652 1.24925e-19)
(0.876195 0.590795 -6.50654e-19)
(0.802409 0.541495 1.07022e-19)
(0.747384 0.497011 0)
(0.707919 0.459807 -6.15899e-19)
(0.678921 0.429098 2.04869e-21)
(0.652258 0.401118 0)
(0.606826 0.364692 2.28731e-21)
(0.508694 0.300911 7.56757e-19)
(0.346544 0.202686 -7.16176e-19)
(0.164963 0.0947091 2.11142e-19)
(0.0240983 0.0135168 0)
(0.233069 0.14264 0)
(1.08027 0.663305 -1.54285e-19)
(1.2589 0.780094 -1.37157e-19)
(1.26684 0.799526 -2.28157e-21)
(1.22031 0.787185 -1.12546e-19)
(1.16014 0.766624 -4.09881e-19)
(1.09321 0.741612 1.8376e-19)
(1.01973 0.711141 -1.60394e-19)
(0.940158 0.673417 5.4303e-19)
(0.85554 0.625925 -1.04027e-18)
(0.779185 0.573487 -3.33501e-21)
(0.722284 0.525744 -2.77616e-19)
(0.681818 0.485454 9.93233e-19)
(0.652525 0.452016 -2.41316e-21)
(0.62596 0.421375 -4.6504e-19)
(0.580552 0.381157 -8.26504e-19)
(0.482747 0.310997 0)
(0.322867 0.20495 0)
(0.148808 0.0923514 2.27359e-19)
(0.0204302 0.0122699 -1.33015e-19)
(0.233463 0.151683 -9.23823e-20)
(1.07164 0.700435 3.22938e-19)
(1.24758 0.823885 1.46152e-19)
(1.25397 0.843554 0)
(1.20671 0.829954 -1.54786e-21)
(1.14597 0.80794 -4.24519e-19)
(1.07823 0.78137 4.76798e-19)
(1.00355 0.749227 6.65868e-19)
(0.922241 0.709643 7.16922e-19)
(0.83518 0.659851 -8.57302e-19)
(0.756103 0.604515 -8.70853e-19)
(0.697052 0.553522 7.41936e-19)
(0.655285 0.509949 0)
(0.62554 0.473451 -2.11885e-19)
(0.598907 0.439748 -5.00751e-19)
(0.552988 0.395091 -5.91659e-19)
(0.454363 0.317621 -7.01022e-19)
(0.29694 0.203734 2.07168e-19)
(0.131153 0.0875919 -1.22021e-19)
(0.0164626 0.0105408 3.27295e-22)
(0.233913 0.160591 0)
(1.0636 0.73583 0)
(1.23619 0.865158 2.57878e-21)
(1.24106 0.884982 0)
(1.19316 0.870256 3.7045e-19)
(1.13194 0.846961 3.30237e-19)
(1.06351 0.81904 0)
(0.987746 0.785481 8.54591e-20)
(0.904801 0.744341 1.2128e-18)
(0.815313 0.692612 -1.96579e-18)
(0.733331 0.634688 0)
(0.671751 0.580529 -4.76091e-19)
(0.628326 0.533477 -2.94828e-21)
(0.597879 0.493548 -2.41295e-21)
(0.57101 0.456276 5.35036e-19)
(0.524134 0.406371 -4.14455e-22)
(0.423975 0.32072 -1.5053e-18)
(0.268825 0.198879 4.44898e-19)
(0.112651 0.0807239 1.31429e-19)
(0.012488 0.0084991 0)
(0.234364 0.169302 2.90504e-19)
(1.05589 0.769512 1.7173e-19)
(1.22483 0.903981 3.08524e-19)
(1.22825 0.923908 -5.68986e-19)
(1.17981 0.908157 6.43734e-19)
(1.11821 0.883748 0)
(1.04918 0.854668 3.15306e-19)
(0.97246 0.819928 -1.8496e-19)
(0.887984 0.777532 3.82459e-21)
(0.796102 0.724244 1.42042e-19)
(0.711008 0.664095 1.13027e-18)
(0.64651 0.606956 -1.68178e-19)
(0.600956 0.556292 -6.08934e-19)
(0.569425 0.512502 -2.44762e-19)
(0.542098 0.470931 2.89144e-19)
(0.49393 0.41475 -2.68196e-22)
(0.391973 0.320036 4.04782e-19)
(0.239427 0.19052 -9.55114e-19)
(0.094002 0.0721342 1.12895e-18)
(0.00865563 0.00626138 1.64664e-19)
(0.23465 0.177693 -9.93692e-20)
(1.04852 0.801562 8.9173e-20)
(1.21363 0.940478 6.08338e-21)
(1.21566 0.960449 -2.91903e-19)
(1.16678 0.943762 -1.30843e-19)
(1.10487 0.918371 -6.18868e-19)
(1.03537 0.888305 1.0697e-19)
(0.957799 0.852593 -7.83648e-19)
(0.871908 0.809217 -1.36352e-18)
(0.777667 0.754747 -1.18363e-18)
(0.689313 0.692812 0)
(0.62149 0.632978 -7.27729e-19)
(0.573231 0.578694 8.72112e-19)
(0.540014 0.530564 0)
(0.511862 0.483636 -6.1843e-19)
(0.462263 0.419749 3.67677e-19)
(0.358696 0.315079 -4.34067e-19)
(0.209866 0.178802 -5.13172e-19)
(0.0761517 0.0623578 -9.0811e-19)
(0.00519971 0.00401451 -7.07922e-19)
(0.235228 0.185902 1.014e-19)
(1.04135 0.831955 -9.51649e-20)
(1.20265 0.974727 -2.41736e-19)
(1.20337 0.994689 -3.80705e-19)
(1.15414 0.977158 2.82743e-19)
(1.09201 0.950914 -3.86135e-19)
(1.02214 0.920002 3.45632e-19)
(0.943835 0.883518 -8.26119e-19)
(0.856642 0.839418 -8.13939e-19)
(0.76013 0.78414 1.25089e-18)
(0.668414 0.720893 2.48659e-18)
(0.59687 0.658754 0)
(0.545251 0.600988 0)
(0.509458 0.548104 -2.80811e-19)
(0.479757 0.494366 0)
(0.428682 0.420545 7.89843e-19)
(0.324653 0.304792 9.32668e-19)
(0.181757 0.163542 0)
(0.060469 0.0519711 0)
(0.00233382 0.00198271 7.59782e-19)
(0.235419 0.193624 -1.03301e-19)
(1.0344 0.860687 -8.72088e-20)
(1.19194 1.00684 -1.70065e-19)
(1.19144 1.02676 3.13402e-19)
(1.14195 1.00845 2.94646e-19)
(1.07968 0.981449 4.68907e-19)
(1.00953 0.94982 -4.87646e-19)
(0.93062 0.912733 1.89076e-22)
(0.842256 0.868145 -4.93626e-21)
(0.743585 0.812415 -5.69423e-21)
(0.648475 0.748362 1.28187e-18)
(0.572863 0.684396 0)
(0.517213 0.623482 8.75386e-19)
(0.477639 0.565638 5.98592e-19)
(0.444968 0.503413 1.43082e-18)
(0.392033 0.416237 4.23662e-19)
(0.290045 0.286978 -5.01963e-19)
(0.158141 0.142838 -2.95192e-19)
(0.0513418 0.0407634 0)
(0.0014481 0.000783389 8.15264e-19)
(0.235886 0.201318 2.08497e-19)
(1.02766 0.887856 0)
(1.1815 1.03689 -1.72014e-19)
(1.17991 1.05673 2.45679e-19)
(1.13026 1.03771 -3.03143e-19)
(1.06791 1.01006 -6.26249e-19)
(0.997594 0.977817 1.01915e-18)
(0.918181 0.940276 -6.19709e-20)
(0.828786 0.895408 0)
(0.7281 0.839543 -1.40363e-18)
(0.62964 0.775203 -2.80438e-18)
(0.549704 0.709978 1.08649e-19)
(0.489426 0.646423 1.20143e-18)
(0.444624 0.583804 0)
(0.406585 0.511632 9.60054e-19)
(0.349991 0.406717 0)
(0.252235 0.258183 0)
(0.141455 0.106792 -3.18652e-19)
(0.0669025 0.0174453 0)
(0.0260335 0.0105302 2.18358e-19)
(0.235958 0.208379 2.1258e-19)
(1.02108 0.913804 0)
(1.17135 1.06507 -2.62667e-19)
(1.16873 1.08483 0)
(1.11903 1.06521 1.52702e-19)
(1.05663 1.03703 0)
(0.986252 1.0043 6.20328e-20)
(0.906423 0.966485 1.17237e-19)
(0.816114 0.921572 1.0271e-19)
(0.713526 0.865913 -1.55527e-18)
(0.611775 0.801848 8.66451e-20)
(0.527254 0.736073 8.61649e-19)
(0.46169 0.670426 1.16984e-18)
(0.409929 0.603612 1.54475e-19)
(0.363005 0.520835 7.47316e-19)
(0.298392 0.394134 0)
(0.199542 0.218514 1.0516e-18)
(0.102314 0.0451178 -6.16351e-19)
(0.0459595 0.0456769 7.18014e-19)
(-0.068155 0.420209 -8.5e-19)
(0.235994 0.2152 -1.64368e-19)
(1.01445 0.938334 -2.8684e-19)
(1.16139 1.0917 0)
(1.15779 1.1115 5.10394e-21)
(1.10808 1.09151 -3.9043e-19)
(1.04561 1.06302 1.08482e-18)
(0.975213 1.03006 3.95006e-19)
(0.89496 0.99229 0)
(0.803738 0.947715 7.16981e-19)
(0.699233 0.892816 -8.52354e-20)
(0.594023 0.829755 0)
(0.504435 0.764452 0)
(0.432673 0.69727 1.04558e-18)
(0.372204 0.626867 -4.71962e-19)
(0.311564 0.534274 -7.52053e-19)
(0.232708 0.384388 0)
(0.114864 0.201165 5.2712e-19)
(0.0102492 0.429936 -6.12413e-19)
(0.0392382 1.85262 -3.4633e-19)
(0.0698746 2.79142 -4.35991e-19)
(0.235882 0.221165 1.08868e-19)
(1.00796 0.961611 3.41353e-19)
(1.15163 1.11677 -1.40543e-19)
(1.14706 1.13657 -1.73218e-19)
(1.09745 1.11639 0)
(1.03489 1.08775 7.42909e-19)
(0.964658 1.05478 5.99991e-19)
(0.883964 1.01726 -6.06997e-20)
(0.791908 0.973325 1.05651e-19)
(0.685581 0.919637 1.5083e-18)
(0.576964 0.858229 1.4399e-18)
(0.482214 0.794639 9.72604e-19)
(0.40349 0.726591 1.04928e-18)
(0.333622 0.652058 -1.10192e-18)
(0.258287 0.554793 -1.12978e-18)
(0.155466 0.410375 0)
(0.0572912 0.817449 0)
(0.113789 2.52431 2.98384e-19)
(0.115425 3.18532 0)
(0.118287 3.38195 7.38907e-19)
(0.23827 0.226631 0)
(1.0022 0.983787 0)
(1.14186 1.14014 0)
(1.13633 1.15983 -4.24136e-20)
(1.08685 1.13961 -3.38045e-19)
(1.02425 1.11109 5.27969e-19)
(0.954479 1.07836 4.09195e-19)
(0.873389 1.0413 -6.15824e-20)
(0.780588 0.998268 9.41187e-19)
(0.672596 0.946234 -1.00294e-20)
(0.560744 0.887151 2.87797e-18)
(0.460953 0.826425 -1.1036e-19)
(0.374645 0.759193 1.28934e-19)
(0.296386 0.676179 1.57861e-19)
(0.198906 0.58285 -3.11366e-22)
(0.119487 0.948113 1.78906e-21)
(0.156991 2.67238 -1.53081e-18)
(0.169912 3.28217 -5.88371e-19)
(0.155924 3.42521 3.20065e-19)
(0.140264 3.44914 -3.64489e-19)
(0.155791 0.183109 -5.28502e-20)
(0.990865 1.00771 0)
(1.13183 1.16202 2.39334e-19)
(1.12623 1.1818 4.06908e-19)
(1.07702 1.16194 -6.34236e-19)
(1.01459 1.13367 -5.46119e-19)
(0.944576 1.1009 -4.53191e-19)
(0.863332 1.06452 7.91493e-19)
(0.769968 1.02266 -7.95792e-19)
(0.660611 0.972676 0)
(0.545838 0.916577 1.4396e-18)
(0.441288 0.859519 -8.03372e-19)
(0.346868 0.797711 0)
(0.261488 0.702796 1.49075e-19)
(0.172229 0.818073 3.5182e-19)
(0.17268 2.41888 -4.2165e-19)
(0.239186 3.31775 4.79152e-19)
(0.215802 3.44245 2.69588e-19)
(0.179178 3.46536 3.09904e-19)
(0.154903 3.47622 5.21457e-19)
(0.281015 0.2646 1.07521e-19)
(0.975428 1.01693 0)
(1.1136 1.18654 -2.23592e-19)
(1.11189 1.21403 -3.84225e-19)
(1.06114 1.19475 6.0332e-19)
(0.998233 1.16697 5.16672e-19)
(0.927419 1.1356 5.93173e-19)
(0.845619 1.10036 6.04433e-20)
(0.751073 1.06058 8.11848e-19)
(0.639285 1.01432 1.39512e-18)
(0.519986 0.964348 8.55502e-20)
(0.408084 0.914872 7.32009e-19)
(0.298212 0.863637 1.24375e-19)
(0.228583 0.976459 -1.49492e-19)
(0.24691 2.26373 -3.43624e-19)
(0.314185 3.32166 3.57154e-19)
(0.299217 3.47701 -4.10957e-19)
(0.260864 3.49994 -2.40904e-19)
(0.221294 3.52813 -2.37773e-19)
(0.166462 3.5209 -2.70214e-20)
(0.268591 0.261139 0)
(0.972836 1.03901 -4.14916e-20)
(1.10572 1.20949 3.88924e-20)
(1.10219 1.23695 3.75171e-20)
(1.05124 1.21758 3.72901e-19)
(0.988412 1.19002 -4.90396e-19)
(0.917291 1.15881 -3.73378e-19)
(0.835423 1.12435 5.75279e-20)
(0.740601 1.086 -8.76183e-19)
(0.627982 1.04247 -1.43441e-20)
(0.506773 0.997157 -2.71101e-18)
(0.391861 0.953823 1.03636e-19)
(0.285559 0.929152 -1.20052e-19)
(0.269212 1.44318 -1.43142e-19)
(0.35079 3.06064 1.79551e-20)
(0.378359 3.47297 9.32537e-22)
(0.335003 3.53719 7.07017e-19)
(0.295736 3.56171 3.84673e-19)
(0.244298 3.58595 -1.7007e-19)
(0.181255 3.58137 -1.62371e-19)
(0.251889 0.259153 -8.51229e-20)
(0.968572 1.06366 -2.6196e-19)
(1.09731 1.23447 1.09248e-19)
(1.09194 1.26128 1.43227e-19)
(1.04085 1.24171 0)
(0.978173 1.21417 -6.39496e-19)
(0.907043 1.18319 -5.25359e-19)
(0.825389 1.14947 5.4496e-20)
(0.730614 1.11262 -9.55795e-20)
(0.617669 1.07199 -1.35763e-18)
(0.495307 1.03158 -1.29596e-18)
(0.379244 0.995313 -8.88272e-19)
(0.289162 1.05047 -9.23599e-19)
(0.339584 2.10052 9.43199e-19)
(0.441019 3.36993 8.47891e-19)
(0.425782 3.53733 0)
(0.375851 3.58405 0)
(0.337471 3.6273 -1.44694e-19)
(0.279335 3.69159 0)
(0.193577 3.66364 -2.46708e-19)
(0.240633 0.260472 1.05769e-19)
(0.962323 1.0893 1.95032e-19)
(1.08749 1.26057 0)
(1.08041 1.28643 6.02731e-21)
(1.02927 1.26644 3.15513e-19)
(0.966856 1.23877 -8.94357e-19)
(0.896051 1.20802 -3.28453e-19)
(0.814821 1.17493 4.82256e-20)
(0.720342 1.13949 -7.02296e-19)
(0.607466 1.10171 7.44993e-20)
(0.484733 1.06633 0)
(0.369753 1.03955 0)