/*--------------------------------*- C++ -*----------------------------------*\
| =========                 |                                                 |
| \\      /  F ield         | OpenFOAM: The Open Source CFD Toolbox           |
|  \\    /   O peration     | Version:  2112                                  |
|   \\  /    A nd           | Website:  www.openfoam.com                      |
|    \\/     M anipulation  |                                                 |
\*---------------------------------------------------------------------------*/
FoamFile
{
    version     2.0;
    format      ascii;
    arch        "LSB;label=32;scalar=64";
    class       volScalarField;
    location    "38";
    object      p;
}
// * * * * * * * * * * * * * * * * * * * * * * * * * * * * * * * * * * * * * //

dimensions      [0 2 -2 0 0 0 0];

internalField   nonuniform List<scalar> 
400
(
9.9570173e-09
-0.0006728649
-0.0013853428
-0.0019427008
-0.0022199937
-0.0021564905
-0.0017277862
-0.00092619554
0.00023542571
0.0017074109
0.0033872902
0.005112197
0.0066734762
0.0078490993
0.0084583853
0.0084236802
0.0078133974
0.0068445252
0.0058613125
0.0052989594
0.00065784985
-4.0517244e-05
-0.00056965134
-0.00094061746
-0.001110855
-0.0010399123
-0.00070578169
-9.5537488e-05
0.00078910544
0.0019161922
0.0032095912
0.0045547082
0.0057819645
0.0067162591
0.0072144287
0.0072145335
0.0067699582
0.0060527728
0.0053105342
0.0047384969
0.0014237072
0.00044065803
-0.00011659179
-0.00045323556
-0.00061480137
-0.00058480388
-0.00034657268
0.00011974912
0.00082846235
0.0017699078
0.0028942951
0.0040981721
0.00522825
0.0061109847
0.00659388
0.0065976719
0.0061557394
0.0054215088
0.0045937457
0.0037482364
0.0020142017
0.00068169198
1.6776406e-05
-0.00035884599
-0.00057154304
-0.00062655447
-0.00051007751
-0.00019062573
0.00036850465
0.0011843851
0.0022299121
0.0034174313
0.0045913758
0.0055569524
0.0061235632
0.0061665659
0.0056836213
0.0048170482
0.0037472899
0.0024735966
0.0021672724
0.00049612096
-0.00029625491
-0.00074869971
-0.0010582473
-0.001245266
-0.0012927455
-0.0011512985
-0.00075504775
-5.3103354e-05
0.00095701513
0.0022102736
0.0035447064
0.004732666
0.0055218467
0.005709885
0.0052292858
0.0042016031
0.0028061817
0.00098395774
0.0016539636
-0.00031447733
-0.0012387859
-0.0017992981
-0.0022526574
-0.0026279048
-0.0028986185
-0.0029910812
-0.0028025362
-0.0022376806
-0.0012511083
0.00013087302
0.0017446319
0.0033271054
0.0045416442
0.0050657787
0.004717494
0.0035661967
0.0017895901
-0.00072592635
0.00028702588
-0.0019195687
-0.0029729977
-0.0036713823
-0.0043202951
-0.0049531966
-0.0055301162
-0.005947952
-0.006059003
-0.0057073801
-0.0047757199
-0.0032587095
-0.0012665253
0.00090716798
0.002823124
0.0039868358
0.0040250929
0.0028877046
0.00071537392
-0.002680506
-0.0020764296
-0.0044511904
-0.0056268022
-0.0064923234
-0.0073929235
-0.0083657633
-0.0093569162
-0.010231777
-0.010790968
-0.010804838
-0.010063356
-0.0084617632
-0.0060407775
-0.0030832304
-0.00012631714
0.0021126165
0.0029638219
0.0021355756
-0.00036604105
-0.0048726175
-0.0055241684
-0.0079921145
-0.0092779179
-0.010333787
-0.011538004
-0.012935425
-0.014462711
-0.015956315
-0.017162462
-0.017766035
-0.017438083
-0.015919476
-0.013122966
-0.0092517726
-0.0048990227
-0.001030028
0.0012694007
0.0012777559
-0.0013339657
-0.0072016853
-0.010076914
-0.012565099
-0.013936664
-0.015183999
-0.016718381
-0.018602638
-0.020774219
-0.023048775
-0.02512169
-0.026586361
-0.026969365
-0.025812956
-0.022845689
-0.018074461
-0.012051105
-0.0059519667
-0.0013707506
0.00030058451
-0.0019472113
-0.0093822331
-0.015684988
-0.018132417
-0.019537561
-0.020926808
-0.022757734
-0.025129883
-0.027997039
-0.031166436
-0.034291487
-0.036876862
-0.038294193
-0.037844302
-0.035065875
-0.029601483
-0.02182251
-0.012985589
-0.0051849872
-0.0007157609
-0.0017642084
-0.010792264
-0.022243605
-0.024613038
-0.025945599
-0.027334968
-0.029324159
-0.032079218
-0.035588961
-0.039664694
-0.043927307
-0.04780132
-0.050530203
-0.051236502
-0.0489569
-0.043143566
-0.033769031
-0.021926356
-0.010036894
-0.0014154543
-9.876088e-06
-0.010225628
-0.029641232
-0.031923897
-0.032978747
-0.034079885
-0.035939526
-0.038831503
-0.042795606
-0.04765161
-0.052990574
-0.058163618
-0.062284267
-0.06426555
-0.062875178
-0.057112206
-0.046476759
-0.031649102
-0.015037873
-0.0008643992
0.0046467553
-0.0055215449
-0.037866031
-0.040048531
-0.040440136
-0.040752518
-0.042015079
-0.044653082
-0.048758186
-0.05414406
-0.060356055
-0.06666538
-0.072060717
-0.075268305
-0.074811381
-0.069269284
-0.057628323
-0.039961522
-0.018247982
0.0027890302
0.014445151
0.006907542
-0.047230607
-0.049134399
-0.048140603
-0.046882277
-0.046905515
-0.048798736
-0.05266832
-0.058276023
-0.065076109
-0.072232015
-0.078595793
-0.082712345
-0.082880229
-0.077309408
-0.064523953
-0.043934967
-0.016747997
0.012502941
0.03293878
0.03240895
-0.058896784
-0.059639917
-0.055883981
-0.051941046
-0.049972294
-0.050629896
-0.053928691
-0.059495377
-0.06661188
-0.074285313
-0.081191188
-0.085679426
-0.085831818
-0.079522212
-0.064876114
-0.040689278
-0.0072409277
0.032139368
0.064981448
0.07774918
-0.076226495
-0.072613711
-0.063516261
-0.055435425
-0.050725005
-0.04978158
-0.052312351
-0.057664391
-0.064891846
-0.072774993
-0.079779387
-0.084036768
-0.083391675
-0.07534898
-0.057602688
-0.028375151
0.012933322
0.065396474
0.11555151
0.15150623
-0.10809226
-0.089556265
-0.071233853
-0.057233078
-0.049072177
-0.046330232
-0.048077274
-0.053202622
-0.060434644
-0.068295888
-0.075027416
-0.078526936
-0.076389028
-0.065809694
-0.043865495
-0.007818459
0.044393664
0.11299815
0.18838042
0.27186077
-0.17684566
-0.10828965
-0.076202415
-0.054651234
-0.042992405
-0.038998056
-0.040570531
-0.045928062
-0.053441558
-0.061438381
-0.068027608
-0.070962581
-0.067551154
-0.054739854
-0.02914883
0.01356359
0.078146951
0.17006436
0.28949546
0.47421822
-0.37208376
-0.12470863
-0.054973106
-0.031962521
-0.022063565
-0.020300539
-0.024359478
-0.031958021
-0.041261582
-0.050640909
-0.058316924
-0.062187487
-0.059782576
-0.048056831
-0.022658545
0.021474195
0.092818714
0.21015277
0.40288842
0.77640929
)
;

boundaryField
{
    movingWall
    {
        type            zeroGradient;
    }
    fixedWalls
    {
        type            zeroGradient;
    }
    frontAndBack
    {
        type            empty;
    }
}


// ************************************************************************* //
