/*--------------------------------*- C++ -*----------------------------------*\
| =========                 |                                                 |
| \\      /  F ield         | OpenFOAM: The Open Source CFD Toolbox           |
|  \\    /   O peration     | Version:  2112                                  |
|   \\  /    A nd           | Website:  www.openfoam.com                      |
|    \\/     M anipulation  |                                                 |
\*---------------------------------------------------------------------------*/
FoamFile
{
    version     2.0;
    format      ascii;
    arch        "LSB;label=32;scalar=64";
    class       volVectorField;
    location    "38";
    object      U_0;
}
// * * * * * * * * * * * * * * * * * * * * * * * * * * * * * * * * * * * * * //

dimensions      [0 1 -1 0 0 0 0];

internalField   nonuniform List<vector> 
400
(
(0.00028445179 -0.00028138874 0)
(0.00011070622 7.9970839e-05 0)
(-0.001327191 0.00047803609 0)
(-0.0036219058 0.00073593495 0)
(-0.0064236757 0.00086752622 0)
(-0.0094315227 0.00090727538 0)
(-0.012388067 0.00087487287 0)
(-0.015056529 0.00077153628 0)
(-0.01719465 0.00058849327 0)
(-0.018552961 0.00032008558 0)
(-0.018902726 -2.4813131e-05 0)
(-0.018086237 -0.00041827019 0)
(-0.016079963 -0.00079972664 0)
(-0.013048987 -0.0010930874 0)
(-0.009366413 -0.0012212156 0)
(-0.0055776649 -0.0011294825 0)
(-0.0023003381 -0.00081287169 0)
(-8.2949007e-05 -0.0003379827 0)
(0.00076015324 0.00015229454 0)
(0.00040944231 0.00038933875 0)
(-8.6057438e-05 -0.00012357428 0)
(-0.0018692572 0.0017872698 0)
(-0.0063065445 0.0036260827 0)
(-0.012452746 0.0048625296 0)
(-0.019600762 0.0054985668 0)
(-0.027107123 0.005620709 0)
(-0.034359119 0.0052860649 0)
(-0.04076915 0.0045044055 0)
(-0.045758473 0.003266234 0)
(-0.048776218 0.001589654 0)
(-0.04936697 -0.00043547971 0)
(-0.047254137 -0.0026182111 0)
(-0.042452259 -0.0046645728 0)
(-0.035361689 -0.006218957 0)
(-0.026778741 -0.0069376275 0)
(-0.017827329 -0.006592301 0)
(-0.0097755604 -0.0051798 0)
(-0.0037462988 -0.0029994437 0)
(-0.00038875023 -0.00066553623 0)
(0.00028989603 0.00078354927 0)
(-0.00058807918 0.0014336382 0)
(-0.0042428194 0.0063775569 0)
(-0.01175863 0.010640664 0)
(-0.021468838 0.013483711 0)
(-0.032366427 0.014898414 0)
(-0.043588332 0.015017489 0)
(-0.054287809 0.013936248 0)
(-0.063643013 0.0116843 0)
(-0.070856344 0.0082813911 0)
(-0.075188886 0.0038286522 0)
(-0.076040062 -0.0014059375 0)
(-0.073058227 -0.0069357108 0)
(-0.066267051 -0.012071836 0)
(-0.056169641 -0.016000359 0)
(-0.043781008 -0.01794285 0)
(-0.030569303 -0.017380042 0)
(-0.01825071 -0.014290034 0)
(-0.0084179897 -0.0093123277 0)
(-0.0021511228 -0.0037618392 0)
(-1.9697095e-06 0.00031696902 0)
(-0.0010530686 0.0043004038 0)
(-0.0065148927 0.013565823 0)
(-0.016999229 0.020864232 0)
(-0.030031098 0.025561412 0)
(-0.044300897 0.027761634 0)
(-0.058784713 0.027688121 0)
(-0.072488043 0.025487767 0)
(-0.084447489 0.021218509 0)
(-0.093729541 0.014945161 0)
(-0.099464823 0.0068783789 0)
(-0.10093072 -0.0025013256 0)
(-0.097663343 -0.012378529 0)
(-0.08959348 -0.021605542 0)
(-0.077182526 -0.028824947 0)
(-0.061505298 -0.03270623 0)
(-0.044253772 -0.032300064 0)
(-0.027562288 -0.027445999 0)
(-0.013581786 -0.019080756 0)
(-0.0040263579 -0.0092707112 0)
(-0.00026772042 -0.0011081892 0)
(-0.0014558702 0.0083650655 0)
(-0.0085490979 0.023181338 0)
(-0.021746314 0.034051808 0)
(-0.037792615 0.040763249 0)
(-0.055097133 0.043701919 0)
(-0.072519861 0.043259177 0)
(-0.088984761 0.039661592 0)
(-0.10345883 0.033001436 0)
(-0.11493262 0.023384276 0)
(-0.1224373 0.011116751 0)
(-0.12511569 -0.0031289791 0)
(-0.12232022 -0.018219461 0)
(-0.11376181 -0.032541734 0)
(-0.099698481 -0.044132771 0)
(-0.081100669 -0.050966437 0)
(-0.059776444 -0.051441369 0)
(-0.038291252 -0.045013744 0)
(-0.019520486 -0.032755611 0)
(-0.0060923496 -0.017491877 0)
(-0.00051102282 -0.003522029 0)
(-0.0017889398 0.013475495 0)
(-0.010269749 0.034960975 0)
(-0.025805589 0.049908797 0)
(-0.044466902 0.058794982 0)
(-0.064427915 0.062458553 0)
(-0.084477806 0.061551066 0)
(-0.10351687 0.056416176 0)
(-0.12050386 0.0471823 0)
(-0.13440432 0.033970398 0)
(-0.14417429 0.017132371 0)
(-0.14880382 -0.002535957 0)
(-0.14739363 -0.023636507 0)
(-0.13931143 -0.04414277 0)
(-0.12443582 -0.061442321 0)
(-0.10343184 -0.072642527 0)
(-0.078056048 -0.075174116 0)
(-0.051261013 -0.067706911 0)
(-0.026809497 -0.051124281 0)
(-0.0086123147 -0.028965703 0)
(-0.00078707417 -0.0070521593 0)
(-0.00204204 0.019436576 0)
(-0.01160568 0.048529058 0)
(-0.028995866 0.067998528 0)
(-0.049757846 0.079226232 0)
(-0.071891791 0.083657606 0)
(-0.094162278 0.082297919 0)
(-0.11550027 0.075649838 0)
(-0.13491526 0.063877007 0)
(-0.15140353 0.047076037 0)
(-0.16388502 0.025567778 0)
(-0.17119263 0.00016299916 0)
(-0.17215481 -0.027610708 0)
(-0.1657159 -0.05539645 0)
(-0.15119218 -0.079945898 0)
(-0.12870077 -0.097351374 0)
(-0.099670146 -0.10369876 0)
(-0.06724193 -0.096286274 0)
(-0.036119175 -0.075220333 0)
(-0.011929749 -0.044539884 0)
(-0.0011708193 -0.012001499 0)
(-0.0022012917 0.026013429 0)
(-0.012484743 0.063419722 0)
(-0.031139975 0.087764648 0)
(-0.053354666 0.10149045 0)
(-0.077017856 0.10677731 0)
(-0.10091222 0.10507392 0)
(-0.12405026 0.097088315 0)
(-0.14555194 0.083021466 0)
(-0.1645098 0.062902238 0)
(-0.17987612 0.036930822 0)
(-0.1903994 0.0057954919 0)
(-0.19465585 -0.029033487 0)
(-0.19113646 -0.065018207 0)
(-0.17848991 -0.098391234 0)
(-0.15602505 -0.12417766 0)
(-0.12444503 -0.136763 0)
(-0.08664671 -0.13132926 0)
(-0.048063806 -0.10623298 0)
(-0.016429383 -0.065393312 0)
(-0.0017537949 -0.018878437 0)
(-0.0022557109 0.032933312 0)
(-0.012853728 0.07908862 0)
(-0.032098963 0.10853518 0)
(-0.054981909 0.12486444 0)
(-0.079334956 0.13109305 0)
(-0.10399431 0.12919943 0)
(-0.12810044 0.12015145 0)
(-0.15094519 0.10420154 0)
(-0.17179742 0.08127838 0)
(-0.18974481 0.051375581 0)
(-0.20357633 0.014915377 0)
(-0.21172916 -0.026876174 0)
(-0.21232525 -0.071532443 0)
(-0.20333824 -0.1150262 0)
(-0.18306288 -0.15144724 0)
(-0.15101798 -0.17328524 0)
(-0.10916565 -0.17282204 0)
(-0.06302641 -0.14524397 0)
(-0.022524986 -0.092978148 0)
(-0.0026589644 -0.028422213 0)
(-0.002208634 0.039904559 0)
(-0.012717086 0.094944332 0)
(-0.031841312 0.1295403 0)
(-0.054496845 0.14845866 0)
(-0.078500117 0.15563562 0)
(-0.10277104 0.15366655 0)
(-0.12662147 0.14384612 0)
(-0.14957662 0.12651342 0)
(-0.17117095 0.10149253 0)
(-0.19075578 0.068517123 0)
(-0.20732711 0.027627532 0)
(-0.21937773 -0.020394312 0)
(-0.2248878 -0.073462024 0)
(-0.22130659 -0.1276889 0)
(-0.20585481 -0.17662071 0)
(-0.17647628 -0.21099215 0)
(-0.13334659 -0.21961326 0)
(-0.080899186 -0.19275403 0)
(-0.030641905 -0.12885266 0)
(-0.0040700743 -0.041637063 0)
(-0.0020933491 0.046663325 0)
(-0.012189727 0.11041864 0)
(-0.030536214 0.14996592 0)
(-0.052017597 0.17124312 0)
(-0.074465011 0.17919263 0)
(-0.096919923 0.1771212 0)
(-0.11891407 0.16672986 0)
(-0.14026652 0.14850282 0)
(-0.16086208 0.12219249 0)
(-0.18044322 0.087272644 0)
(-0.19840292 0.043352575 0)
(-0.21353681 -0.0093897115 0)
(-0.2240146 -0.069676742 0)
(-0.22708288 -0.13413355 0)
(-0.21908959 -0.19645343 0)
(-0.1962665 -0.24625233 0)
(-0.15621929 -0.26886044 0)
(-0.10070625 -0.24798819 0)
(-0.041146022 -0.17433509 0)
(-0.0062706216 -0.05983396 0)
(-0.0019963283 0.053057501 0)
(-0.0115655 0.12508359 0)
(-0.028660952 0.16904528 0)
(-0.048056612 0.19210926 0)
(-0.067638432 0.20035678 0)
(-0.086643882 0.19791293 0)
(-0.10489589 0.18696733 0)
(-0.12256942 0.16821865 0)
(-0.13996398 0.14140914 0)
(-0.15729756 0.10579906 0)
(-0.17451556 0.060571787 0)
(-0.19108366 0.0052257084 0)
(-0.20560156 -0.059922494 0)
(-0.21550583 -0.13260799 0)
(-0.21690134 -0.207528 0)
(-0.20457804 -0.27431827 0)
(-0.17317489 -0.31571794 0)
(-0.12017098 -0.30807993 0)
(-0.054147492 -0.22988384 0)
(-0.0096749059 -0.084653185 0)
(-0.0020996004 0.059184306 0)
(-0.011414854 0.13881595 0)
(-0.027115363 0.1861735 0)
(-0.043624828 0.20994723 0)
(-0.058981198 0.21760167 0)
(-0.072777786 0.21419787 0)
(-0.085249917 0.20247372 0)
(-0.09700111 0.18339422 0)
(-0.10878854 0.15675624 0)
(-0.12135024 0.1216863 0)
(-0.1352539 0.077015416 0)
(-0.1507027 0.021618184 0)
(-0.167122 -0.045110807 0)
(-0.18273999 -0.12251615 0)
(-0.19405352 -0.20712626 0)
(-0.19523503 -0.29011485 0)
(-0.17829425 -0.35358521 0)
(-0.13540546 -0.36743821 0)
(-0.069089023 -0.29415304 0)
(-0.014795029 -0.11798451 0)
(-0.0027676943 0.065619987 0)
(-0.012740979 0.15199863 0)
(-0.027329944 0.20099738 0)
(-0.040244464 0.22368379 0)
(-0.04992849 0.22933099 0)
(-0.056643272 0.22403763 0)
(-0.061232388 0.21108068 0)
(-0.064815776 0.19168183 0)
(-0.068620446 0.16572047 0)
(-0.073874731 0.13227354 0)
(-0.081727925 0.089960247 0)
(-0.093119839 0.037200107 0)
(-0.10846904 -0.027479131 0)
(-0.12721362 -0.10497645 0)
(-0.14705408 -0.19422083 0)
(-0.16280336 -0.28948652 0)
(-0.16509069 -0.37509947 0)
(-0.14090145 -0.41772704 0)
(-0.084061562 -0.36281408 0)
(-0.022011634 -0.16157411 0)
(-0.0047195825 0.073834786 0)
(-0.0172224 0.16572646 0)
(-0.031284261 0.21337843 0)
(-0.039683056 0.23217433 0)
(-0.041883258 0.2338026 0)
(-0.039350802 0.22539475 0)
(-0.03381222 0.21061261 0)
(-0.027000014 0.19081087 0)
(-0.020591651 0.16589803 0)
(-0.016215065 0.13493926 0)
(-0.015476017 0.096470885 0)
(-0.01992524 0.048689982 0)
(-0.03091834 -0.010412762 0)
(-0.049234025 -0.082920545 0)
(-0.074398893 -0.17014321 0)
(-0.10327649 -0.27050262 0)
(-0.12725447 -0.3736954 0)
(-0.12973492 -0.44868785 0)
(-0.094914796 -0.42750701 0)
(-0.030930662 -0.21612807 0)
(-0.0092999999 0.086952167 0)
(-0.027432068 0.18185346 0)
(-0.040981525 0.22303367 0)
(-0.04267923 0.23378976 0)
(-0.034405061 0.22880249 0)
(-0.019622163 0.21592318 0)
(-0.0012378749 0.1987802 0)
(0.018346144 0.17856487 0)
(0.037072142 0.15508364 0)
(0.053056349 0.12735939 0)
(0.064422215 0.093936244 0)
(0.069231536 0.053014498 0)
(0.065415596 0.0024625023 0)
(0.051047831 -0.060339453 0)
(0.024643279 -0.13837673 0)
(-0.013701741 -0.23417151 0)
(-0.05875368 -0.34517039 0)
(-0.093510865 -0.44954003 0)
(-0.094469895 -0.4755883 0)
(-0.039216113 -0.28048286 0)
(-0.018580313 0.11087147 0)
(-0.046039622 0.20177658 0)
(-0.055229921 0.22793175 0)
(-0.043984567 0.2250178 0)
(-0.019372051 0.21061312 0)
(0.012333946 0.19228022 0)
(0.046993748 0.17278511 0)
(0.081754888 0.15265409 0)
(0.11443863 0.1313529 0)
(0.14315394 0.10779554 0)
(0.16601746 0.080591562 0)
(0.1809817 0.048112066 0)
(0.1855765 0.0084491519 0)
(0.17716602 -0.040817654 0)
(0.15275969 -0.10317636 0)
(0.10948896 -0.18390634 0)
(0.047240635 -0.28855476 0)
(-0.021439218 -0.41051048 0)
(-0.072252923 -0.49101708 0)
(-0.041147482 -0.35054299 0)
(-0.03335224 0.15561542 0)
(-0.068601623 0.22040443 0)
(-0.055187261 0.21729229 0)
(-0.016078488 0.1953245 0)
(0.034511417 0.1709236 0)
(0.088508147 0.14849477 0)
(0.141769 0.12861272 0)
(0.19196951 0.11057767 0)
(0.23754119 0.093297646 0)
(0.27712066 0.075575087 0)
(0.30921861 0.05618144 0)
(0.33204371 0.033823245 0)
(0.34317599 0.0070271748 0)
(0.3398291 -0.025910575 0)
(0.31813267 -0.067741859 0)
(0.27327737 -0.12410803 0)
(0.20044733 -0.20584717 0)
(0.10213984 -0.32506916 0)
(-0.012387251 -0.45457172 0)
(-0.023756651 -0.40864073 0)
(-0.033081113 0.23907315 0)
(-0.042647151 0.21792009 0)
(0.042207223 0.16426629 0)
(0.12760462 0.12783582 0)
(0.20769806 0.10143554 0)
(0.28028174 0.081658208 0)
(0.34487328 0.066648176 0)
(0.40158324 0.05470308 0)
(0.45055087 0.044399497 0)
(0.49162064 0.034639937 0)
(0.52416207 0.024550585 0)
(0.54698625 0.013381689 0)
(0.55822251 0.00039972088 0)
(0.55570952 -0.015137355 0)
(0.53552629 -0.034969205 0)
(0.49244663 -0.06248821 0)
(0.41797274 -0.10694763 0)
(0.30410596 -0.19317544 0)
(0.12313783 -0.33691905 0)
(0.052374208 -0.39437913 0)
(0.24299926 0.15257479 0)
(0.30529618 0.11854286 0)
(0.45481215 0.076108135 0)
(0.56000885 0.050840197 0)
(0.63223324 0.035126093 0)
(0.6865492 0.024812316 0)
(0.72943835 0.017960107 0)
(0.76379643 0.013255932 0)
(0.79127941 0.0097622054 0)
(0.81275158 0.0068543619 0)
(0.82841148 0.0041185175 0)
(0.83794405 0.0012768536 0)
(0.8405708 -0.0018442025 0)
(0.83497559 -0.0053262623 0)
(0.81886698 -0.009828967 0)
(0.78942866 -0.01623275 0)
(0.73784287 -0.026935706 0)
(0.65316763 -0.05128655 0)
(0.45609767 -0.11374603 0)
(0.31788988 -0.17206002 0)
)
;

boundaryField
{
    movingWall
    {
        type            fixedValue;
        value           uniform (1 0 0);
    }
    fixedWalls
    {
        type            fixedValue;
        value           uniform (0 0 0);
    }
    frontAndBack
    {
        type            empty;
    }
}


// ************************************************************************* //
