/*--------------------------------*- C++ -*----------------------------------*\
| =========                 |                                                 |
| \\      /  F ield         | OpenFOAM: The Open Source CFD Toolbox           |
|  \\    /   O peration     | Version:  2112                                  |
|   \\  /    A nd           | Website:  www.openfoam.com                      |
|    \\/     M anipulation  |                                                 |
\*---------------------------------------------------------------------------*/
FoamFile
{
    version     2.0;
    format      ascii;
    arch        "LSB;label=32;scalar=64";
    class       volScalarField;
    location    "9";
    object      Ma;
}
// * * * * * * * * * * * * * * * * * * * * * * * * * * * * * * * * * * * * * //

dimensions      [0 0 0 0 0 0 0];

internalField   nonuniform List<scalar> 
5250
(
2.99998
2.99995
2.99982
2.99964
2.99889
2.99785
2.99372
2.98722
2.965
2.91809
2.80012
2.48382
1.88458
0.8747
0.375927
0.344107
0.353492
0.343262
0.307638
0.254467
0.206203
0.165288
0.123609
0.0773979
0.0434394
2.99998
2.99995
2.99982
2.99964
2.99891
2.99788
2.99384
2.98739
2.96557
2.91886
2.80249
2.48795
1.89541
0.883633
0.382845
0.345225
0.354429
0.344382
0.309301
0.257128
0.210081
0.1706
0.13129
0.0906686
0.0669998
2.99998
2.99995
2.99983
2.99965
2.99895
2.99794
2.99404
2.98772
2.96659
2.92065
2.80695
2.49735
1.91736
0.903403
0.398821
0.348476
0.357668
0.348691
0.31539
0.265762
0.221679
0.185882
0.152017
0.120599
0.105843
2.99999
2.99996
2.99984
2.99967
2.999
2.99803
2.99434
2.98822
2.96812
2.92343
2.8138
2.51202
1.95156
0.935623
0.423927
0.35302
0.362938
0.356334
0.325627
0.27981
0.239824
0.208853
0.181318
0.157724
0.148103
2.99999
2.99996
2.99985
2.99969
2.99906
2.99815
2.99468
2.98887
2.96997
2.92753
2.82325
2.53294
1.99879
0.983382
0.45922
0.358859
0.370408
0.367416
0.339737
0.298441
0.263189
0.237261
0.215708
0.198505
0.192435
2.99999
2.99996
2.99986
2.99971
2.99912
2.99828
2.99506
2.98963
2.97209
2.93247
2.83539
2.56273
2.06232
1.05491
0.508196
0.368007
0.381873
0.383245
0.358498
0.321913
0.291569
0.270976
0.255233
0.243839
0.241358
2.99999
2.99997
2.99987
2.99974
2.99919
2.99842
2.99545
2.99048
2.97431
2.9381
2.84842
2.59811
2.1307
1.15301
0.569023
0.380155
0.397447
0.404151
0.382243
0.350354
0.324722
0.309466
0.300024
0.295383
0.298548
2.99999
2.99997
2.99988
2.99976
2.99927
2.99856
2.99585
2.99143
2.97668
2.94488
2.86361
2.64078
2.21467
1.28379
0.643634
0.398147
0.419178
0.431066
0.411444
0.384445
0.363568
0.35396
0.351363
0.355566
0.36918
2.99999
2.99997
2.99989
2.99979
2.99934
2.99872
2.99624
2.99244
2.97909
2.95245
2.88015
2.6885
2.31065
1.44597
0.732769
0.431248
0.453396
0.466415
0.448119
0.424739
0.408175
0.403981
0.410107
0.428556
0.465302
3
2.99998
2.99991
2.99982
2.99945
2.99891
2.99685
2.99358
2.98248
2.95992
2.89898
2.73934
2.41748
1.66587
0.837654
0.484446
0.504249
0.513049
0.496179
0.474742
0.461052
0.461059
0.479551
0.524339
0.624819
3
2.99998
2.99994
2.9998
2.9996
2.99881
2.99763
2.99326
2.98589
2.96204
2.91045
2.78154
2.45649
1.79614
0.897266
0.522105
0.536554
0.547153
0.541679
0.525609
0.517231
0.524844
0.559816
0.639946
0.804351
3
2.99998
2.99993
2.99986
2.99957
2.99915
2.99751
2.99505
2.98604
2.97035
2.92118
2.80756
2.55096
1.92797
1.05235
0.595589
0.563699
0.575829
0.580045
0.573059
0.572255
0.589212
0.637133
0.730773
0.891456
3
2.99999
2.99994
2.99988
2.99962
2.99926
2.9978
2.99572
2.98753
2.97477
2.93094
2.83821
2.61494
2.05954
1.21498
0.680968
0.580815
0.596157
0.610308
0.615241
0.623531
0.648262
0.700873
0.788597
0.918339
3
2.99999
2.99995
2.9999
2.99969
2.99939
2.99818
2.99645
2.98987
2.97894
2.9435
2.86379
2.67788
2.18819
1.40003
0.77533
0.599343
0.616049
0.636638
0.652972
0.669589
0.699318
0.750218
0.826241
0.932422
3
2.99999
2.99996
2.99992
2.99974
2.99948
2.99845
2.99701
2.99122
2.98254
2.95133
2.89267
2.73221
2.3492
1.61966
0.891056
0.637265
0.647048
0.666416
0.688213
0.70995
0.741627
0.791285
0.856565
0.944995
3
3
2.99997
2.99993
2.99979
2.99958
2.99875
2.99757
2.9929
2.98594
2.96049
2.91543
2.78183
2.49138
1.84441
1.01563
0.693277
0.685798
0.702891
0.72455
0.746816
0.777228
0.823852
0.883875
0.957604
3
3
2.99998
2.99995
2.99983
2.99967
2.99902
2.9981
2.99446
2.98897
2.96966
2.93193
2.83091
2.57123
2.06596
1.15382
0.764852
0.716606
0.734061
0.754916
0.779686
0.80958
0.850521
0.905945
0.970312
3
3
2.99998
2.99996
2.99987
2.99975
2.99924
2.99852
2.99571
2.99138
2.97639
2.94648
2.86615
2.65509
2.24663
1.37595
0.87994
0.74805
0.758882
0.778476
0.805546
0.83746
0.875606
0.92414
0.982434
3.00001
3
2.99999
2.99997
2.9999
2.99981
2.99942
2.99886
2.99669
2.99339
2.98182
2.95973
2.89749
2.73934
2.41906
1.67548
1.03649
0.803552
0.793332
0.806851
0.831283
0.861833
0.897166
0.939881
0.990794
3.00001
3
3
2.99997
2.99994
2.99982
2.99963
2.99892
2.99786
2.99386
2.98755
2.96581
2.92509
2.80889
2.55369
1.96076
1.19091
0.872236
0.832738
0.841459
0.861884
0.888844
0.919001
0.954456
0.997556
3.00001
3
3
2.99998
2.99996
2.99986
2.99973
2.99919
2.99842
2.99543
2.99087
2.97494
2.94442
2.86068
2.65101
2.21887
1.41199
0.9742
0.868132
0.870473
0.886814
0.912408
0.939789
0.970415
1.00493
3.00001
3.00001
3
2.99999
2.99996
2.99992
2.99976
2.99951
2.99858
2.99717
2.99194
2.98346
2.9554
2.89797
2.74935
2.40015
1.69504
1.11939
0.922669
0.90291
0.911557
0.931085
0.956002
0.984177
1.01329
3.00001
3.00001
3
2.99999
2.99998
2.99993
2.99986
2.99959
2.99918
2.99766
2.99528
2.98708
2.97202
2.92765
2.82264
2.59337
2.04046
1.29273
0.992084
0.943412
0.943696
0.95517
0.973459
0.995275
1.01735
3.00001
3.00001
3
3
2.99999
2.99996
2.99988
2.99976
2.99931
2.99862
2.99618
2.99191
2.97874
2.94935
2.87692
2.68414
2.3114
1.52773
1.09595
0.976219
0.969897
0.976949
0.99111
1.00573
1.01728
3.00001
3.00001
3
3
2.99999
2.99998
2.99992
2.99983
2.99949
2.99901
2.99708
2.99434
2.98388
2.96682
2.91282
2.79162
2.52621
1.90616
1.27289
1.03068
0.998607
0.996871
1.00533
1.01328
1.01402
3.00001
3.00001
3.00001
3
3
2.99999
2.99994
2.99988
2.99965
2.99931
2.998
2.99609
2.98901
2.97708
2.93966
2.85508
2.66652
2.17608
1.46821
1.10077
1.02121
1.01219
1.01228
1.01183
1.00261
3.00001
3.00001
3.00001
3
3
2.99999
2.99997
2.9999
2.99981
2.99943
2.99887
2.9968
2.99351
2.98255
2.96079
2.90187
2.75376
2.45201
1.76781
1.2422
1.05482
1.02569
1.01423
1.00034
0.981577
3.00001
3.00001
3.00001
3.00001
3
2.99999
2.99998
2.99993
2.99986
2.99959
2.9992
2.99766
2.99548
2.98697
2.97396
2.92998
2.84075
2.62363
2.12024
1.4318
1.11327
1.03424
1.00225
0.974168
0.94655
3.00001
3.00001
3.00001
3.00001
3
3
2.99999
2.99996
2.99991
2.99972
2.99945
2.99839
2.99687
2.99102
2.98204
2.95101
2.89131
2.7352
2.3644
1.68566
1.21265
1.0352
0.967752
0.926965
0.900311
3.00001
3.00001
3.00001
3.00001
3
3
2.99999
2.99998
2.99992
2.99985
2.99954
2.9991
2.99741
2.99489
2.98568
2.9704
2.92236
2.81993
2.57314
2.0493
1.35112
1.03374
0.914983
0.872944
0.858217
3.00001
3.00001
3.00001
3.00001
3.00001
3
3
2.99999
2.99995
2.99989
2.99967
2.99935
2.99811
2.99633
2.98947
2.97881
2.94293
2.86836
2.68873
2.23925
1.52839
1.0188
0.825892
0.80162
0.809277
3.00001
3.00001
3.00001
3.00001
3.00001
3
3
2.99999
2.99996
2.99992
2.99976
2.99952
2.99858
2.99722
2.99196
2.98389
2.9554
2.90257
2.75368
2.42101
1.73866
1.00883
0.726035
0.719913
0.753618
3.00001
3.00001
3.00001
3.00001
3.00001
3.00001
3
2.99999
2.99998
2.99993
2.99985
2.99954
2.99908
2.99735
2.99463
2.98508
2.96753
2.91525
2.7904
2.5099
1.87706
1.01774
0.620661
0.62219
0.688131
3.00001
3.00001
3.00001
3.00001
3.00001
3.00001
3
3
2.99998
2.99995
2.99984
2.99969
2.99907
2.99813
2.9947
2.98856
2.9694
2.92471
2.81751
2.51992
1.95884
1.0021
0.533053
0.514169
0.603337
3.00001
3.00001
3.00001
3.00001
3.00001
3.00001
3
3
2.99998
2.99996
2.99986
2.99972
2.99914
2.99831
2.99499
2.98973
2.97116
2.93223
2.82986
2.55374
2.01684
1.0341
0.498297
0.425514
0.523227
3.00001
3.00001
3.00001
3.00001
3.00001
3.00001
3
3
2.99999
2.99996
2.99988
2.99975
2.99927
2.9985
2.99583
2.99042
2.97483
2.93609
2.84334
2.57539
2.06393
1.08768
0.497788
0.367936
0.466001
3.00001
3.00001
3.00001
3.00001
3.00001
3.00001
3
3
2.99999
2.99996
2.99991
2.99971
2.99942
2.99832
2.99642
2.99024
2.97677
2.94005
2.84415
2.63489
2.04967
1.2021
0.516881
0.335474
0.429095
3.00001
3.00001
3.00001
3.00001
3.00001
3.00001
3
3
2.99999
2.99996
2.99991
2.99972
2.99945
2.99838
2.99666
2.99081
2.97861
2.94491
2.85603
2.66274
2.10494
1.27117
0.536512
0.306888
0.402979
3.00001
3.00001
3.00001
3.00001
3.00001
3.00001
3
3
2.99999
2.99997
2.9999
2.9998
2.9994
2.99876
2.99659
2.99218
2.97959
2.9481
2.8731
2.65277
2.23101
1.32003
0.584487
0.306616
0.40506
3.00001
3.00001
3.00001
3.00001
3.00001
3.00001
3
3
2.99999
2.99997
2.9999
2.9998
2.99938
2.99879
2.99637
2.99272
2.97961
2.95356
2.88117
2.68764
2.29587
1.42614
0.636817
0.316818
0.420396
3.00001
3.00001
3.00001
3.00001
3.00001
3.00001
3
3
2.99999
2.99997
2.99991
2.99982
2.99945
2.9989
2.99688
2.99335
2.98218
2.95675
2.89244
2.71387
2.35774
1.54085
0.682947
0.319411
0.428549
3.00001
3.00001
3.00001
3.00001
3.00001
3.00001
3.00001
3
2.99999
2.99997
2.99993
2.99977
2.99954
2.99861
2.99726
2.992
2.98366
2.95487
2.89575
2.74131
2.35869
1.61632
0.682483
0.294352
0.414006
3.00001
3.00001
3.00001
3.00001
3.00001
3.00001
3.00001
3
2.99999
2.99997
2.99993
2.99977
2.99955
2.99864
2.99736
2.99218
2.98438
2.95589
2.90281
2.75161
2.39618
1.66537
0.70456
0.294572
0.402553
3.00001
3.00001
3.00001
3.00001
3.00001
3.00001
3.00001
3
2.99999
2.99997
2.99993
2.99978
2.99957
2.99871
2.99747
2.99261
2.98501
2.95859
2.90517
2.76423
2.41203
1.70786
0.736256
0.306265
0.395781
3.00001
3.00001
3.00001
3.00001
3.00001
3.00001
3
3
2.99999
2.99998
2.99992
2.99983
2.99949
2.999
2.99708
2.99415
2.98372
2.96431
2.9071
2.76568
2.46168
1.75649
0.818474
0.351264
0.412447
3.00001
3.00001
3.00001
3.00001
3.00001
3.00001
3
3
2.99999
2.99998
2.99992
2.99984
2.9995
2.99902
2.99708
2.99431
2.98352
2.9658
2.90795
2.77821
2.47521
1.78898
0.853167
0.368195
0.412874
3.00001
3.00001
3.00001
3.00001
3.00001
3.00001
3
3
2.99999
2.99998
2.99992
2.99984
2.99952
2.99906
2.99724
2.99448
2.98444
2.96654
2.91143
2.78135
2.48715
1.80545
0.874527
0.380052
0.409103
3.00001
3.00001
3.00001
3.00001
3.00001
3.00001
3.00001
3
3
2.99997
2.99994
2.99982
2.99964
2.99895
2.99784
2.99411
2.98654
2.96543
2.91274
2.79325
2.45543
1.82285
0.829725
0.362577
0.383663
3.00001
3.00001
3.00001
3.00001
3.00001
3.00001
3.00001
3
2.99999
2.99998
2.99992
2.99985
2.99953
2.99908
2.99729
2.99458
2.9847
2.96724
2.91309
2.78659
2.49827
1.82923
0.906482
0.39707
0.403687
3.00001
3.00001
3.00001
3.00001
3.00001
3.00001
3
3
2.99999
2.99998
2.99992
2.99984
2.99952
2.99907
2.99723
2.99459
2.98431
2.96762
2.91248
2.79064
2.50253
1.83841
0.910334
0.394015
0.399603
0.953227
0.74126
0.250313
0.233126
0.302488
0.3898
0.423489
0.449835
0.483297
0.516526
0.543929
0.564804
0.576775
0.579766
0.57787
0.569617
0.554155
0.532445
0.506949
0.479933
0.451952
0.423925
0.395631
0.367265
0.338657
0.309898
0.280871
0.251641
0.221549
0.191712
0.162156
0.133112
0.104625
0.0768874
0.0498473
0.0251588
0.0163182
0.0387881
0.0633721
0.0885369
0.112976
0.136812
0.159315
0.181021
0.202722
0.225294
0.247296
0.268812
0.289495
0.309872
0.329748
0.349379
0.368525
0.387501
0.40599
0.424348
0.442247
0.460079
0.477465
0.494762
0.511735
0.528552
0.545135
0.56155
0.577716
0.59378
0.609555
0.625287
0.640689
0.656113
0.671129
0.686239
0.70088
0.715622
0.729924
0.74424
0.758226
0.772101
0.785747
0.799214
0.812472
0.825559
0.838398
0.851098
0.863501
0.875806
0.887767
0.899638
0.9111
0.922496
0.933404
0.944218
0.954417
0.96441
0.973639
0.982418
0.990066
0.996791
1.00144
1.00562
0.958137
0.832347
0.568537
0.41021
0.2786
0.142887
0.0525203
0.140282
0.21407
0.266599
0.300566
0.320979
0.331597
0.331489
0.323907
0.314157
0.298462
0.275473
0.250799
0.225186
0.19905
0.172996
0.146888
0.12099
0.0952892
0.0706317
0.0483497
0.0346759
0.0388584
0.0577988
0.0804355
0.104623
0.128749
0.15283
0.176557
0.199725
0.22181
0.243333
0.264748
0.286086
0.307222
0.327817
0.347898
0.366854
0.386021
0.405472
0.425166
0.443834
0.462254
0.480007
0.497701
0.514894
0.531981
0.548629
0.5652
0.581321
0.59746
0.613093
0.628805
0.644021
0.6593
0.674167
0.689047
0.703624
0.718143
0.732473
0.746653
0.760752
0.774604
0.788459
0.802005
0.815568
0.828841
0.842052
0.85506
0.867892
0.880608
0.893085
0.905472
0.917623
0.929656
0.941496
0.953158
0.964677
0.975961
0.987163
0.99806
1.0089
1.01938
1.02983
1.03988
1.04983
1.05931
1.06855
1.07715
1.08525
1.09235
1.09852
1.10275
1.10642
0.978077
0.948368
0.838407
0.737887
0.625836
0.511057
0.395454
0.294079
0.209803
0.137225
0.0759444
0.0213632
0.0266802
0.0517771
0.0365794
0.0304436
0.030838
0.043356
0.0565195
0.0742223
0.0925954
0.112571
0.133473
0.155225
0.177184
0.199528
0.221843
0.244035
0.265616
0.286939
0.308308
0.32943
0.35028
0.370746
0.390839
0.41037
0.429344
0.447861
0.466014
0.484163
0.501823
0.519512
0.53637
0.552675
0.568502
0.585049
0.601717
0.617991
0.633607
0.648992
0.664101
0.679019
0.693789
0.708319
0.722719
0.73689
0.750914
0.764754
0.778434
0.791961
0.805321
0.818561
0.831613
0.8446
0.857364
0.870125
0.882644
0.895175
0.907502
0.919769
0.931948
0.943904
0.955947
0.967566
0.979442
0.990737
1.00239
1.0134
1.02479
1.03551
1.04661
1.05706
1.06787
1.07809
1.08865
1.09864
1.10893
1.11867
1.12863
1.13799
1.14749
1.15634
1.16527
1.17343
1.18152
1.18861
1.19532
1.20064
1.20463
1.20753
1.00118
1.02206
0.987764
0.935048
0.863755
0.780134
0.692589
0.602268
0.525056
0.454083
0.394951
0.348074
0.313687
0.295077
0.292867
0.302908
0.313987
0.324957
0.337557
0.351779
0.3666
0.38204
0.39811
0.415018
0.432191
0.449925
0.467453
0.485047
0.502032
0.51891
0.535421
0.551857
0.567825
0.583681
0.598984
0.614074
0.628532
0.642726
0.656509
0.670256
0.683691
0.697185
0.710125
0.722562
0.734618
0.747115
0.760182
0.773123
0.785724
0.797941
0.810148
0.822145
0.834242
0.846101
0.85806
0.869756
0.881565
0.893113
0.904776
0.916195
0.927721
0.939035
0.950439
0.96166
0.972959
0.984078
0.995285
1.00628
1.0174
1.02824
1.03927
1.04993
1.06083
1.07129
1.08202
1.0923
1.10283
1.11294
1.12326
1.13327
1.14345
1.15335
1.16335
1.17309
1.18282
1.19233
1.20178
1.21102
1.22018
1.22909
1.23787
1.24631
1.25457
1.26237
1.26984
1.27665
1.28281
1.28798
1.29154
1.29444
1.01849
1.05845
1.06673
1.04586
1.00989
0.957398
0.896373
0.832706
0.768696
0.711386
0.657333
0.615062
0.586765
0.573589
0.575312
0.5857
0.598111
0.607212
0.61498
0.623345
0.632521
0.641989
0.652279
0.663042
0.674466
0.686026
0.697525
0.70878
0.719487
0.73001
0.740048
0.749959
0.75948
0.768989
0.778121
0.787268
0.796047
0.804919
0.813581
0.822489
0.831355
0.840538
0.849524
0.858221
0.866709
0.875595
0.885247
0.895232
0.905072
0.914739
0.924377
0.934034
0.943741
0.953506
0.963273
0.973128
0.982925
0.992866
1.00268
1.0127
1.02252
1.03263
1.04246
1.05264
1.06251
1.07273
1.08265
1.09286
1.10281
1.11295
1.12291
1.13294
1.14284
1.15272
1.1625
1.1723
1.18205
1.19186
1.20154
1.21122
1.2207
1.23019
1.23947
1.24875
1.25781
1.26684
1.27566
1.28441
1.29294
1.30135
1.30953
1.31749
1.32515
1.3325
1.33938
1.34582
1.35142
1.35631
1.35941
1.36219
1.02869
1.07893
1.10328
1.10924
1.09406
1.06616
1.02556
0.981088
0.934033
0.887369
0.847996
0.816221
0.799382
0.794086
0.800154
0.81098
0.825338
0.83856
0.846938
0.851265
0.854461
0.857506
0.860748
0.864515
0.868718
0.873102
0.877552
0.881837
0.885896
0.889842
0.893653
0.897616
0.901546
0.905768
0.910019
0.914576
0.919183
0.924105
0.929201
0.934639
0.940411
0.94656
0.952924
0.959069
0.965235
0.971674
0.979019
0.986903
0.994952
1.00295
1.01101
1.01915
1.02738
1.03579
1.04423
1.0529
1.0615
1.0704
1.07913
1.08822
1.09705
1.10629
1.11523
1.12457
1.13364
1.14306
1.15227
1.16172
1.17106
1.18049
1.18988
1.19925
1.20861
1.21796
1.22738
1.23673
1.24605
1.25528
1.26446
1.2736
1.28262
1.29164
1.30047
1.30935
1.31798
1.32667
1.33505
1.34348
1.35156
1.35964
1.36733
1.37492
1.38208
1.38899
1.39537
1.40129
1.40637
1.41071
1.41333
1.41573
1.03478
1.0883
1.12228
1.13928
1.14187
1.1276
1.10345
1.06971
1.03487
0.999037
0.969276
0.949451
0.939872
0.943906
0.955602
0.970645
0.984821
0.996871
1.00689
1.01186
1.01069
1.00796
1.00519
1.00331
1.00246
1.00207
1.00224
1.00242
1.00273
1.00293
1.00333
1.00382
1.00466
1.00581
1.00745
1.00943
1.01181
1.0145
1.0177
1.0211
1.02515
1.02944
1.03431
1.03888
1.04371
1.04859
1.05449
1.06086
1.06778
1.07463
1.08177
1.08887
1.09621
1.10364
1.11126
1.11908
1.12697
1.13513
1.14325
1.15169
1.15997
1.16862
1.17707
1.18586
1.19449
1.20339
1.21219
1.22115
1.23009
1.23907
1.24808
1.25707
1.26619
1.27515
1.28418
1.293
1.30193
1.31063
1.31946
1.32804
1.33673
1.34518
1.35371
1.362
1.37031
1.3784
1.38647
1.39429
1.40204
1.4095
1.41684
1.42381
1.43057
1.43686
1.44278
1.44804
1.45256
1.45621
1.45823
1.46022
1.03951
1.09078
1.13023
1.15228
1.16261
1.15703
1.14036
1.11434
1.08562
1.05903
1.03683
1.02529
1.02435
1.03646
1.05439
1.07421
1.09089
1.10299
1.11149
1.11802
1.11934
1.11547
1.10958
1.10417
1.0998
1.09664
1.09418
1.09231
1.09065
1.08921
1.08781
1.08666
1.08565
1.08514
1.08499
1.08543
1.08625
1.08749
1.08921
1.09122
1.09385
1.09681
1.10042
1.10388
1.1076
1.11141
1.11609
1.12134
1.12724
1.13327
1.13961
1.146
1.15259
1.15933
1.16624
1.17341
1.18067
1.18824
1.1958
1.20367
1.21148
1.21958
1.22763
1.2359
1.2442
1.25263
1.26118
1.26972
1.27846
1.2871
1.29603
1.30465
1.31357
1.32213
1.33103
1.33954
1.34838
1.35682
1.36557
1.37392
1.38255
1.3908
1.39924
1.40734
1.41557
1.42346
1.43141
1.439
1.44659
1.45377
1.46089
1.4675
1.47398
1.47982
1.48532
1.48995
1.49388
1.49671
1.49799
1.49957
1.04389
1.09042
1.12946
1.15475
1.16699
1.16499
1.15039
1.12867
1.10439
1.08378
1.06852
1.06235
1.07005
1.08982
1.11384
1.13711
1.15671
1.17097
1.17981
1.1863
1.19011
1.19009
1.18526
1.17893
1.17261
1.16719
1.16268
1.15917
1.15607
1.15343
1.15083
1.14855
1.14637
1.14465
1.14329
1.1424
1.14197
1.14201
1.14255
1.14352
1.14502
1.14701
1.14966
1.15239
1.15526
1.15833
1.16205
1.16654
1.17158
1.17705
1.18272
1.18868
1.19469
1.20105
1.20741
1.21421
1.22094
1.22816
1.23524
1.24279
1.25018
1.25798
1.26565
1.27366
1.28162
1.28981
1.29804
1.30638
1.31489
1.32327
1.33183
1.34018
1.34877
1.35709
1.36569
1.37399
1.38256
1.39083
1.39933
1.40757
1.41596
1.42413
1.43235
1.44039
1.44839
1.45621
1.46393
1.47143
1.47877
1.48581
1.49262
1.49903
1.50511
1.51062
1.5155
1.5196
1.52264
1.52464
1.52506
1.52672
1.04487
1.08681
1.1223
1.14554
1.15638
1.15397
1.13982
1.12165
1.10413
1.08873
1.07996
1.07984
1.09552
1.12221
1.1501
1.17534
1.19675
1.21306
1.2247
1.2318
1.23732
1.24049
1.24053
1.23652
1.23072
1.22437
1.21843
1.21322
1.20898
1.20524
1.20202
1.19897
1.19625
1.19381
1.19178
1.1902
1.18906
1.18841
1.18821
1.18849
1.18932
1.19061
1.19264
1.1948
1.19718
1.19965
1.20276
1.20655
1.21098
1.21587
1.22106
1.2266
1.23222
1.23824
1.24426
1.25074
1.25716
1.26406
1.27087
1.27811
1.28525
1.29274
1.30018
1.30789
1.31564
1.32354
1.33161
1.33965
1.34786
1.35591
1.36421
1.37226
1.38059
1.38862
1.39694
1.40493
1.41322
1.42119
1.42943
1.43736
1.44552
1.45339
1.46139
1.46913
1.47687
1.48437
1.49175
1.49888
1.50578
1.51234
1.51863
1.52441
1.52986
1.53446
1.53849
1.54137
1.54324
1.54372
1.54319
1.54507
1.04412
1.07992
1.10889
1.1277
1.13346
1.12782
1.1144
1.10028
1.08803
1.07964
1.07788
1.08811
1.11092
1.13972
1.16857
1.1945
1.21664
1.23487
1.24901
1.25956
1.26663
1.27156
1.27492
1.27571
1.27302
1.26796
1.26235
1.25631
1.25072
1.24587
1.24167
1.23802
1.23482
1.23204
1.22962
1.2276
1.22596
1.22473
1.22396
1.22361
1.22385
1.22459
1.22604
1.22778
1.22978
1.2318
1.23442
1.23763
1.24157
1.24595
1.25072
1.25586
1.26121
1.26691
1.27271
1.27889
1.28512
1.29171
1.29835
1.3053
1.31231
1.31955
1.32692
1.33438
1.3421
1.34979
1.35773
1.36551
1.37362
1.38149
1.38974
1.39766
1.40599
1.41392
1.42225
1.43019
1.43846
1.44641
1.45459
1.46252
1.47059
1.47846
1.48636
1.49406
1.50173
1.50913
1.51641
1.52338
1.53006
1.53641
1.54229
1.5478
1.55247
1.55656
1.55943
1.56137
1.56174
1.5614
1.5603
1.5621
1.04236
1.06909
1.089
1.09961
1.10012
1.09192
1.082
1.07176
1.06578
1.0643
1.07324
1.09295
1.11938
1.14746
1.17475
1.19999
1.22243
1.24216
1.2589
1.2727
1.28348
1.29132
1.29661
1.29988
1.30159
1.30038
1.29695
1.29251
1.28661
1.28078
1.27555
1.27111
1.26737
1.2643
1.26168
1.25956
1.25774
1.25632
1.25526
1.25467
1.25454
1.25495
1.25603
1.25749
1.25922
1.26099
1.26323
1.26608
1.26959
1.27363
1.27803
1.28292
1.28799
1.2935
1.29908
1.30509
1.31112
1.31754
1.32398
1.33075
1.33757
1.34465
1.35183
1.35921
1.36672
1.37424
1.38196
1.38958
1.39748
1.40516
1.41319
1.4209
1.42896
1.4367
1.44473
1.45249
1.46045
1.46823
1.47608
1.48387
1.49158
1.49929
1.50683
1.51433
1.5216
1.52871
1.53558
1.54209
1.54834
1.55404
1.55945
1.56398
1.56787
1.57064
1.57229
1.57255
1.57193
1.57092
1.56831
1.56926
1.03698
1.05341
1.06336
1.06552
1.06085
1.05354
1.04614
1.04194
1.04222
1.05219
1.07134
1.09564
1.12165
1.14777
1.17309
1.1973
1.21977
1.24052
1.25934
1.27575
1.28983
1.3011
1.30993
1.31584
1.31978
1.32184
1.32218
1.3205
1.31693
1.31168
1.30606
1.3008
1.29649
1.29288
1.29003
1.28771
1.28578
1.28428
1.28307
1.28233
1.28196
1.28214
1.28293
1.28414
1.28573
1.28727
1.28928
1.29179
1.29502
1.29873
1.30289
1.30749
1.31238
1.31768
1.32314
1.32896
1.33489
1.3411
1.34746
1.35402
1.36078
1.36765
1.37481
1.38196
1.3893
1.39664
1.40412
1.41164
1.41925
1.42693
1.43463
1.44238
1.45015
1.4579
1.46572
1.47341
1.48123
1.48885
1.49662
1.50417
1.51179
1.51924
1.52659
1.53385
1.54078
1.54764
1.55396
1.56012
1.56567
1.57085
1.57528
1.57882
1.58142
1.58265
1.58277
1.5821
1.58069
1.57795
1.57291
1.57178
1.02582
1.02967
1.02976
1.02557
1.01955
1.01473
1.01191
1.01473
1.02669
1.04694
1.07037
1.095
1.11953
1.14361
1.16719
1.19023
1.2128
1.23421
1.25438
1.27277
1.28929
1.30339
1.31529
1.32458
1.33165
1.33615
1.33893
1.34039
1.34023
1.33792
1.33381
1.32877
1.32402
1.31977
1.3164
1.31352
1.31135
1.3096
1.30829
1.30742
1.30696
1.30698
1.30758
1.30866
1.31016
1.31159
1.3134
1.31571
1.31865
1.32217
1.32601
1.33042
1.33501
1.34013
1.34534
1.35099
1.35671
1.36277
1.36891
1.37535
1.38192
1.38873
1.39568
1.40265
1.40982
1.41692
1.42427
1.43154
1.43903
1.44649
1.45406
1.46167
1.46927
1.47695
1.48452
1.49219
1.49973
1.50731
1.5148
1.52222
1.52963
1.53681
1.54402
1.55085
1.55763
1.56391
1.56991
1.57543
1.58044
1.58479
1.58812
1.59054
1.59145
1.59142
1.5907
1.58893
1.58576
1.58051
1.57286
1.57021
1.00898
1.00237
0.993615
0.985838
0.980581
0.978271
0.98213
0.995917
1.01825
1.04257
1.06703
1.09063
1.11378
1.13624
1.15873
1.18089
1.20322
1.22486
1.24594
1.2657
1.28406
1.30051
1.31498
1.32728
1.33743
1.34536
1.35113
1.35481
1.357
1.35785
1.35704
1.35415
1.35005
1.34586
1.34202
1.33871
1.3362
1.33418
1.33286
1.33196
1.33156
1.3316
1.33214
1.33317
1.33466
1.33608
1.33779
1.33988
1.34266
1.34593
1.34964
1.3537
1.35814
1.36289
1.36796
1.3733
1.37888
1.3847
1.3907
1.39696
1.40339
1.41002
1.41667
1.42351
1.43036
1.43736
1.4444
1.45153
1.45877
1.46602
1.4734
1.48075
1.48819
1.49561
1.50304
1.51046
1.5178
1.52517
1.53236
1.53961
1.5466
1.55359
1.56028
1.56682
1.573
1.57876
1.58415
1.58893
1.59313
1.59617
1.59836
1.59892
1.59867
1.59775
1.59586
1.59183
1.58573
1.57833
1.56977
1.567
0.988642
0.972422
0.959444
0.951111
0.947822
0.951529
0.966068
0.989601
1.01518
1.03991
1.06316
1.08533
1.10683
1.12828
1.14969
1.1715
1.19332
1.21522
1.23663
1.25733
1.27688
1.29498
1.31153
1.32622
1.33917
1.35003
1.35899
1.36586
1.37063
1.37366
1.37554
1.3762
1.37497
1.37214
1.36879
1.36553
1.36263
1.36034
1.35867
1.35759
1.35705
1.35701
1.35747
1.35855
1.35993
1.36153
1.36314
1.36523
1.36776
1.37089
1.37436
1.37822
1.38243
1.38696
1.39184
1.39695
1.40237
1.40798
1.41387
1.41994
1.42621
1.43258
1.43905
1.44565
1.45229
1.45906
1.46586
1.47277
1.47971
1.48671
1.49378
1.50085
1.508
1.51512
1.52228
1.52937
1.53647
1.54346
1.55039
1.55718
1.5638
1.57026
1.57639
1.58228
1.58764
1.59265
1.59705
1.60083
1.60351
1.60515
1.60544
1.60485
1.60374
1.60119
1.59678
1.58981
1.58194
1.57404
1.56594
1.56369
0.959648
0.939931
0.927077
0.922231
0.924203
0.938351
0.962701
0.989314
1.01479
1.03802
1.05961
1.08009
1.10041
1.12079
1.14159
1.16275
1.18424
1.20605
1.22751
1.2487
1.26887
1.28826
1.30614
1.32292
1.33801
1.35173
1.36345
1.37355
1.38153
1.38772
1.39187
1.39501
1.39689
1.39778
1.39656
1.39405
1.3913
1.38876
1.38663
1.38515
1.38424
1.38398
1.38423
1.38511
1.38647
1.38804
1.38963
1.39158
1.39389
1.39682
1.40002
1.40371
1.40766
1.41204
1.41668
1.42165
1.4269
1.43236
1.43815
1.44404
1.45019
1.45632
1.46266
1.469
1.47548
1.482
1.4886
1.49526
1.50197
1.50873
1.51552
1.52232
1.52914
1.53592
1.54273
1.5494
1.55612
1.56261
1.56913
1.57535
1.58149
1.58729
1.59276
1.59786
1.60235
1.60653
1.60974
1.61216
1.6131
1.6131
1.61234
1.61058
1.60745
1.60189
1.5946
1.58625
1.57796
1.57077
1.56402
1.56266
0.923442
0.908576
0.90274
0.903721
0.917959
0.941878
0.968742
0.994243
1.01732
1.0383
1.05804
1.07724
1.09643
1.11605
1.1361
1.15673
1.17774
1.19915
1.22057
1.24185
1.26256
1.28265
1.30178
1.31998
1.33696
1.35272
1.36694
1.37973
1.39067
1.40001
1.40728
1.41297
1.41715
1.42047
1.42215
1.4227
1.42137
1.41911
1.41675
1.41469
1.41311
1.41224
1.41197
1.41235
1.41346
1.41485
1.41639
1.41802
1.42012
1.4227
1.42568
1.42905
1.43273
1.43684
1.44118
1.44596
1.4509
1.45625
1.46175
1.46752
1.47336
1.47933
1.48542
1.49155
1.49781
1.50409
1.51048
1.51692
1.52338
1.52998
1.53645
1.54315
1.54961
1.55629
1.56273
1.56923
1.57558
1.58175
1.58789
1.59355
1.59923
1.6042
1.60903
1.61306
1.61681
1.61961
1.6215
1.62195
1.62156
1.62043
1.61838
1.61417
1.60794
1.59991
1.59143
1.58312
1.57578
1.57017
1.5653
1.56486
0.88521
0.87983
0.882631
0.898672
0.924867
0.952317
0.97781
1.00092
1.02162
1.0408
1.05904
1.07727
1.09577
1.1148
1.13438
1.15446
1.17502
1.19589
1.21697
1.23796
1.25879
1.27913
1.29896
1.31801
1.33628
1.35348
1.3697
1.38448
1.39803
1.40993
1.42022
1.42861
1.43529
1.44071
1.44469
1.44714
1.44847
1.44854
1.44693
1.44481
1.44262
1.44088
1.43984
1.43931
1.4397
1.44072
1.44207
1.44339
1.44512
1.44721
1.44994
1.4529
1.45637
1.46002
1.46416
1.46852
1.47326
1.47833
1.4836
1.48915
1.49476
1.50059
1.50645
1.51244
1.51852
1.52459
1.53084
1.53699
1.54336
1.5496
1.55599
1.56235
1.56866
1.57507
1.58123
1.58753
1.59345
1.59944
1.60496
1.61036
1.61522
1.61964
1.6235
1.62679
1.62931
1.63063
1.63077
1.63
1.62866
1.62578
1.62089
1.61365
1.60537
1.59678
1.58846
1.58162
1.57577
1.57243
1.56908
1.56978
0.854354
0.860479
0.879721
0.908457
0.936692
0.962677
0.985628
1.00614
1.02486
1.04276
1.06041
1.07822
1.09643
1.11511
1.13428
1.15385
1.17386
1.19419
1.21491
1.23562
1.25636
1.27676
1.29692
1.31649
1.33556
1.35386
1.37134
1.38778
1.4031
1.41709
1.4295
1.44053
1.44957
1.45716
1.46333
1.46836
1.47157
1.47339
1.47417
1.4736
1.47192
1.46954
1.46778
1.46624
1.46557
1.46567
1.46644
1.46757
1.46875
1.47038
1.47253
1.4752
1.47831
1.48171
1.48552
1.48961
1.49411
1.49893
1.50402
1.50933
1.51482
1.52047
1.52623
1.53208
1.53802
1.54396
1.55003
1.55601
1.56217
1.56819
1.57436
1.58038
1.58647
1.59241
1.59831
1.60403
1.60959
1.61489
1.61986
1.62444
1.62842
1.63188
1.63472
1.63684
1.63756
1.63738
1.63645
1.63464
1.63088
1.6252
1.61741
1.60911
1.60027
1.59255
1.58554
1.58074
1.57699
1.5755
1.57371
1.57517
0.825174
0.853598
0.887452
0.919426
0.947033
0.970656
0.991229
1.00982
1.02738
1.04451
1.06179
1.07935
1.09743
1.1159
1.13484
1.15413
1.17389
1.19392
1.21435
1.23477
1.25536
1.27567
1.29596
1.31577
1.33532
1.35416
1.37247
1.38985
1.40634
1.42166
1.43596
1.44885
1.46043
1.47032
1.47858
1.48558
1.49156
1.49549
1.49772
1.49877
1.49894
1.49777
1.49552
1.4936
1.49151
1.49061
1.49004
1.49062
1.49143
1.49249
1.49392
1.49606
1.49882
1.50198
1.50555
1.50943
1.51368
1.51826
1.52305
1.52815
1.53335
1.53886
1.54437
1.55014
1.55585
1.56176
1.5676
1.57354
1.57947
1.58537
1.59132
1.59711
1.60297
1.60858
1.61419
1.61945
1.62458
1.62923
1.63357
1.63713
1.6403
1.64264
1.6443
1.64456
1.64394
1.64276
1.64011
1.63564
1.62856
1.6207
1.61176
1.6035
1.59556
1.58949
1.58467
1.58191
1.5802
1.57992
1.57942
1.58165
0.79723
0.846306
0.888141
0.921632
0.948579
0.971013
0.990742
1.00895
1.02659
1.044
1.06161
1.07943
1.09763
1.11612
1.13497
1.15413
1.17365
1.19349
1.21359
1.23382
1.25409
1.27436
1.29448
1.31444
1.33405
1.35329
1.37197
1.39006
1.4074
1.42397
1.43956
1.45405
1.46719
1.47902
1.48922
1.49797
1.50532
1.51183
1.51631
1.51894
1.5199
1.52015
1.51953
1.51766
1.51522
1.51302
1.51139
1.51049
1.5107
1.51136
1.51223
1.51362
1.51575
1.51867
1.5221
1.52582
1.53003
1.53433
1.5391
1.54394
1.54916
1.55445
1.55996
1.56557
1.57125
1.5771
1.58284
1.58882
1.59457
1.60055
1.60623
1.61204
1.61756
1.62303
1.62818
1.63311
1.63761
1.64162
1.64501
1.64765
1.64978
1.65073
1.65067
1.64989
1.64801
1.6446
1.63871
1.63134
1.62261
1.61393
1.60543
1.59819
1.59221
1.5882
1.58559
1.58469
1.58457
1.58514
1.58554
1.58796
0.759894
0.823974
0.871339
0.906866
0.934559
0.957634
0.978433
0.998181
1.01767
1.03675
1.05576
1.07468
1.09371
1.11275
1.13203
1.15137
1.17109
1.19085
1.211
1.2311
1.25131
1.27138
1.29142
1.31128
1.33091
1.35024
1.36914
1.38756
1.4054
1.42254
1.43891
1.45427
1.46876
1.4819
1.49389
1.50425
1.51319
1.52081
1.52739
1.532
1.53487
1.536
1.53606
1.53568
1.5343
1.53206
1.52976
1.5278
1.52681
1.52657
1.52718
1.528
1.52931
1.53144
1.53442
1.53801
1.54189
1.54615
1.55062
1.55541
1.56046
1.56567
1.57121
1.5767
1.58258
1.58826
1.59431
1.60008
1.60612
1.6119
1.61776
1.62341
1.6289
1.63419
1.63906
1.64363
1.64748
1.65079
1.65313
1.6551
1.65562
1.6554
1.65443
1.65212
1.64739
1.64067
1.63253
1.62375
1.61503
1.60677
1.59991
1.59444
1.59074
1.58874
1.58789
1.58835
1.58907
1.59008
1.59096
1.59332
0.698985
0.77796
0.832694
0.871919
0.902674
0.928915
0.952836
0.975378
0.997106
1.01834
1.03928
1.05985
1.08024
1.10042
1.12066
1.14081
1.16115
1.18133
1.20172
1.222
1.24235
1.26257
1.28277
1.3028
1.32258
1.34208
1.36118
1.37983
1.39792
1.4154
1.43212
1.44809
1.46311
1.47713
1.4901
1.50172
1.51217
1.52097
1.52896
1.53574
1.54102
1.54422
1.54604
1.54638
1.54596
1.545
1.54324
1.54086
1.53857
1.53723
1.53659
1.53698
1.53782
1.53911
1.54117
1.5441
1.54772
1.55173
1.55606
1.56067
1.56553
1.57066
1.57602
1.5816
1.58734
1.59324
1.59919
1.60526
1.61121
1.61723
1.62302
1.62869
1.63407
1.63907
1.6437