/*--------------------------------*- C++ -*----------------------------------*\
| =========                 |                                                 |
| \\      /  F ield         | OpenFOAM: The Open Source CFD Toolbox           |
|  \\    /   O peration     | Version:  2112                                  |
|   \\  /    A nd           | Website:  www.openfoam.com                      |
|    \\/     M anipulation  |                                                 |
\*---------------------------------------------------------------------------*/
FoamFile
{
    version     2.0;
    format      ascii;
    arch        "LSB;label=32;scalar=64";
    class       volScalarField;
    location    "9";
    object      p;
}
// * * * * * * * * * * * * * * * * * * * * * * * * * * * * * * * * * * * * * //

dimensions      [1 -1 -2 0 0 0 0];

internalField   nonuniform List<scalar> 
5250
(
1.00001
1.00005
1.00012
1.00036
1.00075
1.00213
1.00425
1.01276
1.02341
1.08135
1.14144
1.52708
2.19297
4.71166
10.5603
11.0675
10.9541
10.9582
11.0583
11.2924
11.5065
11.6453
11.7566
11.8453
11.9143
1.00001
1.00005
1.00012
1.00036
1.00074
1.0021
1.00417
1.0126
1.02293
1.08065
1.13902
1.52222
2.17652
4.6728
10.4792
11.0571
10.9464
10.9506
11.0504
11.2836
11.4969
11.6361
11.7488
11.8386
11.909
1.00001
1.00005
1.00012
1.00034
1.00071
1.00204
1.00404
1.01229
1.02212
1.07904
1.13451
1.51236
2.13901
4.5921
10.2962
11.0336
10.9256
10.9269
11.0219
11.2492
11.4592
11.5961
11.7076
11.7959
11.8652
1.00001
1.00005
1.00011
1.00033
1.00068
1.00195
1.00383
1.01182
1.02094
1.07648
1.12777
1.49701
2.08236
4.46697
10.0056
11.0047
10.898
10.8851
10.9732
11.1902
11.394
11.5255
11.6328
11.7176
11.7865
1.00001
1.00004
1.00011
1.00031
1.00064
1.00184
1.0036
1.01118
1.01965
1.07259
1.11946
1.47514
2.0078
4.29486
9.59796
10.9797
10.8688
10.8266
10.9068
11.1098
11.3049
11.4287
11.5292
11.609
11.6777
1.00001
1.00004
1.0001
1.00029
1.0006
1.00171
1.00335
1.01042
1.01825
1.06763
1.11062
1.44215
1.92125
4.06587
9.05164
10.972
10.8441
10.7532
10.8229
11.0071
11.1891
11.3005
11.3896
11.4607
11.529
1.00001
1.00004
1.00009
1.00027
1.00055
1.00157
1.00308
1.00956
1.01678
1.06203
1.10125
1.4029
1.83494
3.77058
8.35326
10.9853
10.8273
10.6654
10.7219
10.8817
11.0454
11.138
11.2068
11.2588
11.319
1.00001
1.00003
1.00008
1.00024
1.0005
1.00142
1.00281
1.00859
1.01535
1.05527
1.09104
1.35704
1.73418
3.42673
7.4873
11.0256
10.8189
10.5639
10.6039
10.7312
10.8692
10.9332
10.9691
10.9836
11.0165
1
1.00003
1.00007
1.00022
1.00045
1.00127
1.00254
1.00754
1.01401
1.04767
1.0806
1.30735
1.62568
3.05784
6.50008
11.0762
10.8131
10.4574
10.4734
10.5566
10.6591
10.6803
10.6634
10.6001
10.5419
1
1.00003
1.00006
1.00018
1.00038
1.00108
1.00216
1.00639
1.01181
1.04012
1.06755
1.25557
1.50689
2.67483
5.38973
11.005
10.7658
10.3618
10.3202
10.3589
10.4071
10.3807
10.28
10.0555
9.72653
1
1.00002
1.00006
1.00014
1.0004
1.00082
1.00233
1.00464
1.01394
1.02584
1.08777
1.15888
1.56388
2.30047
4.8736
10.5258
10.5281
10.2845
10.1327
10.1346
10.1213
10.0318
9.78133
9.21351
7.8065
1
1.00002
1.00005
1.00014
1.0003
1.00084
1.0017
1.00488
1.00958
1.02958
1.0531
1.19137
1.35024
2.28852
4.11871
9.57714
10.2786
10.1403
9.94234
9.89553
9.82314
9.64991
9.26987
8.51851
7.10536
1
1.00002
1.00004
1.00013
1.00026
1.00073
1.00149
1.00423
1.00845
1.02516
1.04687
1.16083
1.29552
2.08291
3.5739
8.36788
10.1201
10.0156
9.78211
9.65592
9.53231
9.28419
8.82673
8.08243
6.97949
1
1.00001
1.00004
1.0001
1.00022
1.00061
1.00124
1.00352
1.00692
1.02111
1.03782
1.13572
1.23778
1.90148
3.07433
7.07431
10.0244
9.91736
9.64372
9.42849
9.25015
8.96508
8.50084
7.82657
6.96038
1
1.00001
1.00003
1.00009
1.00018
1.00052
1.00105
1.00296
1.00597
1.01722
1.03378
1.10603
1.20119
1.69645
2.61675
5.71357
9.8732
9.80099
9.53364
9.22304
8.99492
8.69777
8.25898
7.65728
6.93263
1
1.00001
1.00002
1.00007
1.00015
1.00042
1.00085
1.0024
1.00485
1.01385
1.02746
1.08297
1.16431
1.52902
2.2304
4.56309
9.41757
9.60033
9.41438
9.04364
8.77521
8.47432
8.06695
7.5304
6.90147
1
1.00001
1.00002
1.00006
1.00012
1.00033
1.00067
1.00188
1.00378
1.01094
1.0208
1.06783
1.11973
1.43378
1.93775
3.90766
8.35032
9.32587
9.20341
8.90343
8.59439
8.28835
7.9059
7.42518
6.86926
1
1.00001
1.00002
1.00004
1.00009
1.00026
1.00052
1.00147
1.00293
1.0086
1.01598
1.05378
1.09101
1.34436
1.69758
3.27415
6.81927
9.07917
9.01976
8.80084
8.45266
8.13328
7.77383
7.33991
6.84746
1
1
1.00001
1.00003
1.00007
1.0002
1.0004
1.00113
1.00227
1.00655
1.01246
1.04042
1.06939
1.25674
1.50503
2.65408
5.17151
8.80233
8.88617
8.72716
8.37204
8.01352
7.66512
7.27319
6.83818
1
1
1.00001
1.00002
1.00006
1.00013
1.00037
1.00075
1.00211
1.00424
1.01219
1.02409
1.0729
1.14418
1.45653
2.05707
3.97764
8.1028
8.73824
8.61419
8.30464
7.92131
7.58079
7.22463
6.84036
1
1
1.00001
1.00002
1.00005
1.0001
1.00027
1.00056
1.00156
1.00314
1.00901
1.01738
1.05513
1.0987
1.34747
1.73951
3.25723
6.66585
8.47913
8.43583
8.24491
7.86185
7.5246
7.20121
6.85234
1
1
1
1.00001
1.00003
1.00009
1.00017
1.00049
1.00099
1.00278
1.00559
1.01625
1.03116
1.09984
1.18866
1.63647
2.46093
5.06217
8.14131
8.29598
8.1689
7.86259
7.51256
7.20344
6.88321
1
1
1
1.00001
1.00003
1.00005
1.00014
1.00029
1.00081
1.00163
1.00464
1.00904
1.02784
1.0496
1.17474
1.32198
2.10669
3.56413
7.40364
8.18825
8.10179
7.86708
7.52523
7.22145
6.94591
1
1
1
1.00001
1.00002
1.00004
1.00009
1.00024
1.00049
1.00136
1.00267
1.0081
1.01428
1.05067
1.08339
1.31409
1.62171
2.98228
5.83275
7.9621
7.97975
7.86506
7.58101
7.27732
7.05414
1
1
1
1.00001
1.00001
1.00003
1.00006
1.00018
1.00036
1.00099
1.002
1.00562
1.01111
1.03319
1.06084
1.20548
1.40038
2.2723
4.05472
7.48793
7.93989
7.87119
7.68437
7.40138
7.23587
1
1
1
1
1.00001
1.00002
1.00004
1.00012
1.00025
1.00068
1.00138
1.00388
1.00763
1.02293
1.04139
1.1436
1.25686
1.91213
3.05606
6.3924
7.81517
7.86622
7.79074
7.6174
7.51149
1
1
1
1
1.00001
1.00001
1.00004
1.00007
1.0002
1.0004
1.00112
1.00223
1.00644
1.01209
1.0392
1.06738
1.24306
1.47103
2.50594
4.63183
7.46661
7.90018
7.90109
7.88928
7.9022
1
1
1
1
1
1.00001
1.00003
1.00005
1.00014
1.00029
1.00079
1.00161
1.00448
1.009
1.02587
1.04954
1.15762
1.30386
1.98806
3.28032
6.65347
7.87135
8.13259
8.27326
8.42156
1
1
1
1
1
1.00001
1.00002
1.00004
1.0001
1.0002
1.00055
1.00112
1.0031
1.00624
1.01776
1.03464
1.10756
1.20284
1.68039
2.51928
5.08823
7.72957
8.55629
8.88577
9.09857
1
1
1
1
1
1.00001
1.00001
1.00003
1.00006
1.00016
1.00032
1.00089
1.00181
1.00505
1.01008
1.02937
1.05547
1.17797
1.35395
2.10808
3.59337
7.29273
9.16176
9.71063
9.828
1
1
1
1
1
1
1.00001
1.00002
1.00004
1.00012
1.00024
1.00065
1.00131
1.00365
1.0073
1.02125
1.03968
1.13224
1.23811
1.84905
2.90469
6.20364
9.84865
10.55
10.5081
1
1
1
1
1
1
1.00001
1.00002
1.00003
1.00009
1.00018
1.00049
1.00099
1.00277
1.00559
1.01603
1.03165
1.09694
1.18907
1.6239
2.43712
5.09277
10.4029
11.2347
11.0824
1
1
1
1
1
1
1
1.00001
1.00003
1.00006
1.00016
1.00033
1.00092
1.00186
1.00535
1.01047
1.03268
1.05862
1.21005
1.4057
2.40696
4.53672
10.383
11.5821
11.3509
1
1
1
1
1
1
1
1.00001
1.00002
1.00006
1.00011
1.00032
1.00065
1.00189
1.00369
1.01166
1.02053
1.07593
1.12896
1.49585
2.11015
4.47119
10.1048
11.5862
11.3304
1
1
1
1
1
1
1
1.00001
1.00002
1.00005
1.0001
1.00029
1.00059
1.00172
1.00343
1.01056
1.01938
1.0689
1.1188
1.45782
2.01357
4.26395
9.72171
11.551
11.2501
1
1
1
1
1
1
1
1.00001
1.00002
1.00004
1.00009
1.00025
1.00051
1.00153
1.00283
1.00976
1.01639
1.06449
1.10662
1.43305
1.93896
4.07323
9.34626
11.5446
11.1669
1
1
1
1
1
1
1
1.00001
1.00002
1.00004
1.0001
1.0002
1.00059
1.00116
1.00362
1.00649
1.02354
1.03919
1.15568
1.27646
2.10572
3.64628
8.94435
11.5781
11.1132
1
1
1
1
1
1
1
1.00001
1.00002
1.00003
1.00009
1.00019
1.00055
1.00111
1.00335
1.00618
1.02161
1.03618
1.14356
1.25074
2.02698
3.43125
8.46047
11.6678
11.1107
1
1
1
1
1
1
1
1.00001
1.00001
1.00004
1.00007
1.00021
1.00042
1.00125
1.00232
1.00794
1.0133
1.05224
1.08514
1.34913
1.72488
3.44326
7.7932
11.8306
11.1735
1
1
1
1
1
1
1
1.00001
1.00001
1.00004
1.00007
1.00021
1.00043
1.00122
1.00246
1.00734
1.01379
1.04727
1.08064
1.31469
1.65065
3.18993
7.09459
12.0633
11.3177
1
1
1
1
1
1
1
1.00001
1.00001
1.00003
1.00007
1.00019
1.00038
1.0011
1.00215
1.00671
1.01178
1.04375
1.07139
1.28515
1.58041
2.95236
6.40811
12.2717
11.4536
1
1
1
1
1
1
1
1
1.00001
1.00003
1.00008
1.00016
1.00047
1.00095
1.00272
1.00548
1.01628
1.03109
1.10355
1.19261
1.69223
2.63582
5.96979
12.2726
11.4553
1
1
1
1
1
1
1
1
1.00001
1.00003
1.00008
1.00016
1.00045
1.00092
1.00263
1.00531
1.01551
1.03052
1.09651
1.18534
1.64501
2.52715
5.68794
12.0759
11.4204
1
1
1
1
1
1
1
1
1.00001
1.00003
1.00008
1.00015
1.00043
1.00088
1.00251
1.00505
1.01487
1.02847
1.09384
1.17346
1.62145
2.45671
5.46945
11.849
11.3908
1
1
1
1
1
1
1
1.00001
1.00001
1.00003
1.00006
1.00017
1.00035
1.00099
1.002
1.00579
1.01121
1.03583
1.06269
1.23284
1.45021
2.56572
5.09712
11.6493
11.3788
1
1
1
1
1
1
1
1.00001
1.00001
1.00003
1.00006
1.00017
1.00035
1.00097
1.00198
1.00566
1.0112
1.03431
1.06284
1.22126
1.43297
2.51733
4.90403
11.4643
11.336
1
1
1
1
1
1
1
1
1.00001
1.00003
1.00006
1.00016
1.00033
1.00093
1.00189
1.00545
1.01069
1.03349
1.05998
1.21771
1.41681
2.49058
4.79116
11.2902
11.2562
1
1
1
1
1
1
1
1
1.00001
1.00002
1.00006
1.00013
1.00036
1.00073
1.00216
1.00401
1.01346
1.02283
1.08588
1.1475
1.56326
2.28297
4.97249
11.1539
11.2017
1
1
1
1
1
1
1
1
1.00001
1.00003
1.00006
1.00016
1.00032
1.00092
1.00186
1.00535
1.01051
1.03276
1.05896
1.21258
1.40546
2.45508
4.66631
11.0563
11.2484
1
1
1
1
1
1
1
1
1.00001
1.00003
1.00006
1.00016
1.00033
1.00093
1.00188
1.00537
1.01066
1.03243
1.05971
1.20905
1.40304
2.43738
4.63399
11.034
11.276
3.8642
3.32079
4.24671
4.28289
4.04066
3.93357
3.88041
3.80322
3.71138
3.62865
3.56116
3.51234
3.48927
3.48196
3.48306
3.51191
3.56318
3.63247
3.71167
3.79467
3.87933
3.96394
4.04812
4.13149
4.21394
4.29503
4.37457
4.45175
4.52647
4.59793
4.66436
4.72494
4.77987
4.82892
4.87261
4.91045
4.94588
4.97662
5.00063
5.01789
5.02977
5.03634
5.03833
5.03664
5.03113
5.01958
5.00374
4.98439
4.96234
4.93715
4.90913
4.87828
4.84506
4.80944
4.77188
4.73235
4.69124
4.64855
4.6046
4.55942
4.51323
4.46612
4.41823
4.36967
4.32055
4.27095
4.221
4.17074
4.12031
4.06974
4.01916
3.96859
3.91816
3.86791
3.81793
3.76827
3.71899
3.67011
3.62168
3.57372
3.52627
3.47934
3.43298
3.38722
3.34209
3.29762
3.25379
3.21076
3.16856
3.12724
3.08685
3.04756
3.00959
2.97322
2.93871
2.90648
2.87712
2.85153
2.83061
2.81741
4.7321
4.22164
4.35419
4.23372
4.0162
3.96479
3.92701
3.82146
3.70563
3.60935
3.54385
3.50508
3.48505
3.4772
3.48066
3.50782
3.55754
3.62733
3.70801
3.79145
3.87608
3.9605
4.04425
4.12689
4.20867
4.28889
4.36752
4.44263
4.51779
4.58932
4.65571
4.7162
4.77137
4.82102
4.86517
4.90403
4.93889
4.96929
4.99362
5.01147
5.02354
5.03043
5.03223
5.03107
5.02643
5.0157
4.99855
4.97921
4.9573
4.93257
4.90474
4.87421
4.84113
4.8058
4.76837
4.72911
4.68812
4.64566
4.60181
4.55682
4.51073
4.46377
4.41598
4.36753
4.31849
4.26899
4.2191
4.16891
4.11852
4.068
4.01744
3.96691
3.91651
3.86629
3.81634
3.76672
3.71748
3.66864
3.62025
3.57233
3.52491
3.478
3.43169
3.38597
3.34088
3.2964
3.2525
3.20955
3.16742
3.12617
3.0859
3.04677
3.0089
2.97254
2.93801
2.90578
2.8764
2.85075
2.82963
2.81653
5.51805
4.77151
4.51421
4.27164
4.05465
3.9598
3.87962
3.79252
3.69524
3.60911
3.54729
3.5103
3.48898
3.46473
3.46384
3.4992
3.54892
3.61765
3.69915
3.78227
3.86743
3.95213
4.03614
4.11912
4.20117
4.28174
4.36092
4.43768
4.51213
4.58318
4.64935
4.71004
4.76525
4.81493
4.85919
4.89828
4.93283
4.96258
4.9867
5.0046
5.01681
5.02353
5.02512
5.02412
5.02025
5.01081
4.99302
4.97284
4.95074
4.92608
4.89854
4.86826
4.83541
4.80029
4.76308
4.72402
4.68324
4.64097
4.59732
4.55249
4.50658
4.45976
4.41211
4.36379
4.31486
4.26545
4.21564
4.16552
4.11518
4.06471
4.01418
3.96368
3.91331
3.86312
3.81324
3.76366
3.7145
3.66569
3.61739
3.56954
3.52227
3.4754
3.42923
3.38366
3.33876
3.29447
3.25101
3.20803
3.16588
3.12461
3.08442
3.04537
3.00766
2.97146
2.93713
2.90502
2.87575
2.85016
2.8289
2.81619
5.87737
5.09137
4.64867
4.35635
4.13306
3.99008
3.89755
3.80614
3.7092
3.6203
3.55509
3.51121
3.48559
3.47602
3.48088
3.50319
3.55241
3.62005
3.6985
3.78083
3.86483
3.94914
4.0329
4.11551
4.19698
4.27669
4.35488
4.43048
4.50375
4.57363
4.63898
4.6989
4.75357
4.80285
4.84698
4.88587
4.91999
4.94912
4.97295
4.99091
5.00323
5.00999
5.01137
5.01055
5.00739
4.99946
4.9831
4.96187
4.93906
4.91442
4.88734
4.85756
4.8252
4.79048
4.75367
4.71496
4.67457
4.63262
4.58933
4.5448
4.4992
4.45265
4.40528
4.35718
4.30849
4.25926
4.20963
4.15965
4.10944
4.05906
4.00864
3.95824
3.90799
3.85794
3.80822
3.75881
3.70983
3.66121
3.61307
3.56542
3.51833
3.47184
3.42585
3.38035
3.33549
3.29129
3.24784
3.20511
3.16319
3.12219
3.08225
3.04348
3.00608
2.97022
2.93623
2.90449
2.87552
2.85028
2.82911
2.81691
6.06032
5.32142
4.81771
4.48501
4.24471
4.06871
3.95378
3.8587
3.76637
3.68542
3.6261
3.58435
3.55749
3.54029
3.53666
3.54436
3.5706
3.62684
3.70187
3.78209
3.86416
3.94777
4.03123
4.11346
4.194
4.27255
4.34888
4.42306
4.49474
4.56302
4.62716
4.68643
4.74057
4.7893
4.83279
4.87103
4.90438
4.93274
4.95599
4.97376
4.98602
4.99285
4.99403
4.99332
4.99063
4.98392
4.96977
4.94847
4.92508
4.90022
4.87334
4.84402
4.8122
4.77802
4.74171
4.70349
4.66353
4.62203
4.57914
4.53501
4.48977
4.44358
4.39651
4.34873
4.30027
4.2513
4.20185
4.15206
4.10199
4.05176
4.00148
3.95125
3.90113
3.85132
3.80182
3.75261
3.70379
3.65547
3.60765
3.56031
3.51344
3.46713
3.42132
3.37607
3.33141
3.28744
3.2442
3.20178
3.1602
3.11957
3.07999
3.04164
3.00468
2.96936
2.93595
2.90484
2.8765
2.85204
2.83141
2.82033
6.17208
5.50677
4.99791
4.63558
4.37824
4.19328
4.06661
3.97119
3.89237
3.82757
3.77661
3.73393
3.69693
3.66416
3.64099
3.63408
3.6391
3.65976
3.70726
3.78267
3.86464
3.94993
4.03456
4.1168
4.19599
4.27192
4.34481
4.41521
4.48321
4.54838
4.61008
4.6677
4.72077
4.7688
4.81169
4.84947
4.88238
4.91028
4.93322
4.95096
4.96341
4.97057
4.97191
4.97131
4.96904
4.9634
4.9514
4.93129
4.90805
4.88299
4.85608
4.82705
4.79573
4.76217
4.72647
4.68883
4.64941
4.60843
4.566
4.52234
4.47752
4.43173
4.38503
4.3376
4.28945
4.24075
4.19154
4.14197
4.09209
4.04206
3.99198
3.94196
3.89203
3.84253
3.79341
3.7447
3.6964
3.64849
3.60099
3.5539
3.50727
3.46115
3.41558
3.37061
3.32625
3.28259
3.23967
3.1976
3.15643
3.11629
3.07726
3.03953
3.00329
2.96879
2.93629
2.90622
2.87906
2.85605
2.83667
2.8277
6.2488
5.65879
5.17084
4.80051
4.52982
4.34203
4.21554
4.13163
4.07606
4.03263
3.99373
3.95339
3.90838
3.85492
3.80249
3.75792
3.7317
3.73357
3.74707
3.78311
3.85702
3.94254
4.03214
4.11732
4.19648
4.27003
4.33927
4.40565
4.46967
4.53142
4.59043
4.64612
4.69783
4.74498
4.78719
4.82448
4.85705
4.88447
4.90714
4.92477
4.93742
4.94493
4.94657
4.94603
4.94406
4.93919
4.92889
4.91064
4.88832
4.86342
4.83649
4.80759
4.77667
4.74367
4.7086
4.6716
4.63279
4.59237
4.55048
4.50732
4.46297
4.41764
4.37136
4.3243
4.27651
4.22812
4.1792
4.12988
4.08027
4.03053
3.98075
3.93118
3.88202
3.83297
3.78428
3.73592
3.68794
3.64028
3.59305
3.54622
3.49989
3.45406
3.40882
3.36419
3.32024
3.277
3.23456
3.193
3.15243
3.11294
3.0747
3.03785
3.00266
2.9693
2.93809
2.90962
2.88436
2.86362
2.84641
2.84067
6.31134
5.78644
5.33361
4.97311
4.70448
4.52093
4.40822
4.34581
4.31697
4.29664
4.27201
4.23558
4.17909
4.09518
4.00095
3.91367
3.84863
3.81768
3.81955
3.83183
3.86529
3.93496
4.02164
4.10968
4.1913
4.26525
4.33278
4.39564
4.45539
4.51286
4.56822
4.62102
4.67066
4.71644
4.75779
4.7943
4.82644
4.85357
4.87601
4.89369
4.90663
4.91464
4.91684
4.91639
4.91469
4.91052
4.90169
4.88548
4.86465
4.84048
4.81381
4.78512
4.75453
4.72202
4.68757
4.65123
4.61308
4.5733
4.532
4.4894
4.44558
4.40073
4.35491
4.30827
4.26085
4.2128
4.16419
4.11519
4.06592
4.01662
3.96755
3.91859
3.86993
3.82139
3.77313
3.72509
3.67746
3.63013
3.58328
3.53683
3.49092
3.44551
3.40073
3.35657
3.31314
3.27046
3.22866
3.18778
3.148
3.1094
3.07221
3.03659
3.00282
2.971
2.94174
2.91559
2.89308
2.87558
2.86198
2.8602
6.36793
5.90536
5.49286
5.15598
4.90543
4.74119
4.65328
4.62222
4.61784
4.61142
4.59612
4.56126
4.48795
4.35707
4.21493
4.08732
3.98872
3.92669
3.90437
3.90692
3.91917
3.95038
4.01488
4.09271
4.17259
4.24838
4.31755
4.38004
4.4375
4.49155
4.54321
4.59265
4.63959
4.68341
4.72349
4.75936
4.79096
4.81786
4.84027
4.8582
4.87169
4.88032
4.88346
4.88312
4.88173
4.87824
4.87082
4.85658
4.83746
4.81446
4.7885
4.76027
4.73007
4.69803
4.66413
4.62844
4.59095
4.55185
4.51119
4.4692
4.42595
4.38163
4.33629
4.29009
4.24307
4.19539
4.1471
4.09857
4.05002
4.00146
3.95304
3.90465
3.85647
3.80839
3.76059
3.71298
3.66576
3.61887
3.57246
3.52647
3.48105
3.43615
3.39191
3.34833
3.30553
3.26355
3.22253
3.18254
3.14376
3.10634
3.07052
3.03653
3.00443
2.97482
2.94824
2.92529
2.90662
2.89348
2.88578
2.88627
6.42711
6.02137
5.65792
5.36131
5.14465
5.01535
4.96332
4.96323
4.96569
4.9632
4.94842
4.90382
4.80222
4.61703
4.43223
4.27497
4.15232
4.0662
4.01603
3.99728
3.99895
4.00824
4.03297
4.08487
4.1496
4.21955
4.28944
4.35418
4.41277
4.46619
4.51571
4.56228
4.60624
4.64749
4.68565
4.72027
4.75108
4.77779
4.80033
4.81854
4.83257
4.84192
4.84638
4.84616
4.84508
4.84224
4.83611
4.82382
4.80639
4.78484
4.76
4.73255
4.70292
4.67138
4.638
4.60289
4.56604
4.5276
4.48761
4.44626
4.40361
4.35985
4.31502
4.26927
4.22267
4.1754
4.12785
4.08005
4.03224
3.98435
3.93652
3.88868
3.84101
3.79344
3.74615
3.69907
3.65238
3.60601
3.56014
3.51472
3.46988
3.42561
3.38205
3.33919
3.29719
3.2561
3.21607
3.17723
3.13977
3.10389
3.0699
3.0378
3.00811
2.98145
2.9584
2.93975
2.92614
2.91897
2.91752
2.91872
6.49225
6.14604
5.84038
5.59924
5.43548
5.35466
5.34358
5.34782
5.35178
5.34399
5.31271
5.23285
5.06778
4.85457
4.65271
4.47934
4.34046
4.23499
4.16028
4.11355
4.08897
4.08662
4.09073
4.10559
4.13977
4.19438
4.25126
4.31419
4.37514
4.43117
4.48182
4.52782
4.57002
4.60898
4.64493
4.67781
4.70746
4.73365
4.75617
4.77486
4.78938
4.79952
4.80554
4.80551
4.80481
4.80264
4.79765
4.78743
4.7716
4.75169
4.7283
4.70197
4.67317
4.64226
4.60945
4.5749
4.53867
4.50088
4.46156
4.42087
4.37887
4.33569
4.29139
4.24608
4.20003
4.1535
4.10676
4.05978
4.01268
3.96545
3.91824
3.871
3.82393
3.77694
3.73025
3.68377
3.63768
3.59194
3.5467
3.50194
3.4578
3.41428
3.37152
3.32955
3.28853
3.24854
3.20977
3.17238
3.1366
3.10274
3.07089
3.04132
3.01489
2.99215
2.97377
2.96084
2.95357
2.95377
2.95527
2.96012
6.58146
6.30049
6.06301
5.88878
5.78748
5.75693
5.75908
5.7636
5.75701
5.72865
5.65378
5.49788
5.28907
5.07329
4.8729
4.69623
4.54761
4.42572
4.32884
4.25577
4.20432
4.17295
4.15745
4.15857
4.16586
4.18596
4.22745
4.27036
4.32596
4.38338
4.43723
4.48571
4.52886
4.56736
4.60199
4.63331
4.66163
4.68696
4.70915
4.72792
4.74309
4.75387
4.76093
4.76213
4.76162
4.75987
4.75576
4.74727
4.73317
4.71501
4.69324
4.66828
4.64055
4.61048
4.57834
4.54441
4.50879
4.47162
4.43297
4.39294
4.35159
4.30899
4.26521
4.22054
4.17531
4.12966
4.08372
4.0375
3.99112
3.94459
3.89806
3.85151
3.8051
3.7588
3.71279
3.667
3.62162
3.57661
3.53211
3.48815
3.44484
3.40223
3.36044
3.31957
3.27975
3.24116
3.20397
3.16843
3.13485
3.10343
3.0742
3.04817
3.02594
3.0083
2.99605
2.99019
2.9906
2.99302
2.99962
3.01502
6.70558
6.50073
6.34305
6.24482
6.20263
6.20094
6.20023
6.19186
6.15975
6.07877
5.91401
5.70774
5.49281
5.28569
5.09358
4.91812
4.76388
4.62887
4.51326
4.41718
4.34016
4.28186
4.2413
4.21658
4.20944
4.21216
4.22317
4.24901
4.28203
4.32858
4.38128
4.43234
4.47849
4.51908
4.55462
4.58591
4.61365
4.6383
4.65997
4.67853
4.6939
4.70515
4.71296
4.71557
4.71522
4.71388
4.71058
4.70366
4.69115
4.67467
4.65455
4.63111
4.60468
4.57567
4.54441
4.51121
4.47625
4.43974
4.40174
4.36237
4.32165
4.27962
4.23655
4.19278
4.14848
4.1037
4.05859
4.01317
3.96757
3.92183
3.87605
3.83028
3.78462
3.7391
3.69384
3.64886
3.60428
3.56011
3.5165
3.47347
3.43115
3.38963
3.34902
3.30949
3.27118
3.23432
3.19914
3.16598
3.13518
3.10647
3.08103
3.05956
3.04281
3.03179
3.02724
3.02796
3.03112
3.03917
3.05599
3.09051
6.88863
6.76858
6.69561
6.66598
6.6641
6.66134
6.64892
6.60946
6.51549
6.33049
6.11781
5.90086
5.69261
5.49633
5.31227
5.14143
4.98112
4.8351
4.70441
4.58958
4.49134
4.40986
4.34515
4.29662
4.26438
4.24531
4.24545
4.24946
4.26216
4.2879
4.32396
4.37094
4.41757
4.46076
4.49921
4.53273
4.56179
4.58697
4.60867
4.6271
4.64241
4.65399
4.66219
4.66605
4.66587
4.66493
4.66239
4.65691
4.64593
4.63092
4.61232
4.59041
4.56543
4.5377
4.50752
4.47522
4.44105
4.40526
4.36795
4.32923
4.28909
4.24778
4.20567
4.16287
4.1195
4.07565
4.03142
3.98687
3.94213
3.89724
3.85231
3.80739
3.76257
3.71793
3.67353
3.62946
3.5858
3.54262
3.50003
3.45811
3.41698
3.37676
3.33763
3.29973
3.26332
3.22866
3.19605
3.166
3.138
3.11331
3.09287
3.07723
3.06756
3.0649
3.06601
3.07017
3.08042
3.10199
3.13005
3.1803
7.1525
7.11942
7.12211
7.13176
7.13193
7.12037
7.07658
6.96974
6.7613
6.52887
6.30168
6.08849
5.88991
5.70301
5.52504
5.35501
5.19203
5.03859
4.89641
4.76686
4.65128
4.55049
4.46503
4.39487
4.34042
4.30011
4.2752
4.26402
4.26523
4.27154
4.2862
4.31485
4.35249
4.39414
4.43421
4.47076
4.50293
4.53045
4.5536
4.57275
4.58835
4.60029
4.60884
4.61371
4.61367
4.61305
4.61111
4.60667
4.59759
4.58377
4.56653
4.54611
4.52264
4.49632
4.46741
4.4362
4.40299
4.36803
4.33147
4.29338
4.25398
4.21364
4.17251
4.13071
4.08833
4.04545
4.00218
3.9586
3.9148
3.87085
3.82685
3.78288
3.73901
3.69534
3.65194
3.6089
3.56631
3.52428
3.48289
3.44228
3.40258
3.36396
3.32661
3.29078
3.25676
3.22487
3.19568
3.16863
3.14486
3.12561
3.11156
3.10298
3.10268
3.10423
3.10952
3.122
3.14733
3.18482
3.21944
3.27394
7.51616
7.54117
7.596
7.61738
7.60551
7.55769
7.43942
7.20623
6.94925
6.70328
6.47868
6.27407
6.08409
5.90354
5.72888
5.55893
5.39338
5.23456
5.08397
4.94356
4.81484
4.69896
4.59666
4.50834
4.43419
4.37426
4.32799
4.29564
4.27595
4.27044
4.2722
4.27908
4.29522
4.32739
4.36222
4.3993
4.43428
4.46526
4.49151
4.51296
4.53003
4.54316
4.55233
4.55814
4.55879
4.55831
4.55671
4.55297
4.54529
4.53289
4.5171
4.49817
4.47622
4.45138
4.42386
4.39392
4.36185
4.32787
4.29214
4.25485
4.21642
4.1771
4.13701
4.09626
4.05492
4.01311
3.97088
3.92834
3.88558
3.84268
3.79972
3.7568
3.71401
3.67143
3.62917
3.58731
3.54597
3.50526
3.46531
3.42626
3.3883
3.35165
3.31654
3.28332
3.25232
3.22415
3.19826
3.17562
3.15779
3.14541
3.13907
3.13949
3.14208
3.1493
3.16496
3.19572
3.23341
3.2778
3.31373
3.36486
7.95223
8.05582
8.11284
8.1028
8.05256
7.92324
7.6651
7.37858
7.10897
6.86766
6.65262
6.45669
6.2728
6.09562
5.92222
5.75168
5.58434
5.42142
5.26509
5.11723
4.97907
4.8519
4.73639
4.63317
4.54231
4.46473
4.3999
4.34792
4.30852
4.28204
4.2677
4.26415
4.26581
4.27337
4.29107
4.32247
4.35556
4.38865
4.41847
4.44375
4.4642
4.47993
4.49119
4.49825
4.50042
4.50003
4.49867
4.49551
4.489
4.47807
4.46377
4.44636
4.42595
4.40266
4.37664
4.34813
4.31736
4.28452
4.2498
4.21358
4.17628
4.13806
4.09909
4.05944
4.01923
3.97854
3.93745
3.89606
3.85444
3.81269
3.7709
3.72917
3.68759
3.64627
3.60531
3.56482
3.52495
3.4858
3.44758
3.41043
3.37462
3.3404
3.30814
3.27823
3.25129
3.22673
3.20555
3.18923
3.17884
3.17506
3.17603
3.17997
3.18989
3.21071
3.24429
3.28555
3.3288
3.37289
3.40478
3.44789
8.55511
8.63162
8.62248
8.56782
8.42295
8.13366
7.81681
7.52085
7.25937
7.02993
6.82446
6.6348
6.45404
6.27793
6.10441
5.93304
5.76431
5.59893
5.43914
5.2863
5.14156
5.00603
4.88046
4.76552
4.66156
4.56891
4.48774
4.41822
4.36039
4.31456
4.28063
4.2596
4.24754
4.24247
4.24499
4.25401
4.27395
4.30312
4.33298
4.36159
4.38657
4.40673
4.42183
4.43174
4.43695
4.43683
4.43595
4.43361
4.42861
4.41915
4.40628
4.39038
4.37157
4.34994
4.32557
4.29864
4.26935
4.23783
4.20439
4.16954
4.13352
4.09654
4.05877
4.02032
3.98131
3.94183
3.90198
3.86182
3.82146
3.781
3.7405
3.70012
3.6599
3.62002
3.58056
3.54168
3.50352
3.46627
3.43012
3.39531
3.36219
3.33107
3.30244
3.27696
3.25397
3.23435
3.2203
3.21128
3.21095
3.21255
3.21807
3.2311
3.25761
3.29482
3.33799
3.38339
3.42524
3.46316
3.48728
3.52012
9.19572
9.18288
9.11366
8.93589
8.60239
8.25682
7.9371
7.65552
7.41036
7.19352
6.99552
6.80875
6.62839
6.45166
6.2773
6.10515
5.93568
5.76908
5.60764
5.45171
5.30246
5.16079
5.02752
4.9032
4.78832
4.68308
4.58799
4.50317
4.42893
4.36553
4.31331
4.27255
4.24361
4.22484
4.20943
4.20931
4.21238
4.22179
4.24184
4.26845
4.29562
4.32005
4.34014
4.35504
4.3646
4.36785
4.36748
4.36604
4.36266
4.35569
4.34453
4.33018
4.31301
4.2931
4.27051
4.24535
4.21772
4.1878
4.15601
4.12272
4.08817
4.05259
4.01614
3.97901
3.94131
3.90314
3.86462
3.82582
3.78685
3.74778
3.70875
3.66985
3.6312
3.59296
3.55524
3.51825
3.48214
3.44716
3.41355
3.38167
3.35193
3.32477
3.30103
3.27984
3.26212
3.25017
3.24451
3.24509
3.24817
3.25646
3.27427
3.30673
3.34704
3.39207
3.43784
3.47992
3.51494
3.5431
3.5584
3.58071
9.80474
9.70422
9.46629
9.08753
8.70105
8.35477
8.05416
7.79395
7.56484
7.35723
7.16322
6.97744
6.79661
6.61893
6.44382
6.27125
6.10152
5.93514
5.77197
5.61368
5.46104
5.31465
5.17528
5.04336
4.91948
4.8039
4.69709
4.59925
4.51074
4.43198
4.36313
4.30468
4.25696
4.22106
4.19419
4.17305
4.16117
4.16194
4.16609
4.17655
4.19789
4.22141
4.24478
4.26473
4.28001
4.28918
4.29218
4.29172
4.29001
4.28603
4.27792
4.26568
4.25028
4.23214
4.2114
4.18816
4.16244
4.13445
4.10458
4.0731
4.04024
4.00625
3.97131
3.93564
3.89937
3.86264
3.82557
3.78824
3.75078
3.71327
3.67586
3.63864
3.60179
3.56544
3.52978
3.49502
3.46139
3.42918
3.39876
3.37058
3.34517
3.32336
3.30423
3.2888
3.279
3.27714
3.27848
3.28344
3.29539
3.31999
3.35622
3.39991
3.44696
3.49308
3.53452
3.5684
3.59316
3.61047
3.61762
3.6312
10.3567
10.0264
9.58588
9.15314
8.77381
8.45243
8.17844
7.93898
7.72276
7.52131
7.32918
7.14299
6.96101
6.78235
6.60664
6.43371
6.26367
6.0967
5.93268
5.77271
5.61735
5.46706
5.32259
5.18436
5.05296
4.92869
4.81197
4.70316
4.60259
4.51038
4.42698
4.35282
4.28845
4.23442
4.19125
4.15802
4.12886
4.10897
4.10311
4.10431
4.10921
4.12068
4.14113
4.16193
4.18147
4.19681
4.20684
4.21022
4.20984
4.20821
4.20422
4.19595
4.18314
4.16694
4.1481
4.12684
4.10326
4.07752
4.04987
4.02048
3.98958
3.95742
3.92422
3.89021
3.85554
3.82041
3.78493
3.74924
3.71344
3.67768
3.64208
3.6068
3.57201
3.53788
3.50466
3.47258
3.44198
3.41325
3.38686
3.36341
3.34391
3.32697
3.31424
3.30747
3.30793
3.31071
3.31847
3.33527
3.36744
3.40786
3.45411
3.50218
3.54844
3.58883
3.62099
3.64389
3.65802
3.66568
3.66793
3.67309
10.6949
10.1162
9.60881
9.19083
8.84759
8.56152
8.31483
8.09296
7.88562
7.68731
7.49507
7.30759
7.12414
6.94427
6.76767
6.59406
6.42334
6.25546
6.09028
5.92856
5.77061
5.6169
5.46798
5.32435
5.18647
5.05475
4.92954
4.81119
4.70001
4.59636
4.5006
4.4133
4.3347
4.26519
4.2051
4.15554
4.1153
4.07918
4.05292
4.03829
4.03592
4.03741
4.0428
4.05495
4.07353
4.09158
4.10714
4.11806
4.12296
4.12277
4.12151
4.11804
4.11054
4.09735
4.08081
4.06166
4.04034
4.01705
3.99185
3.96482
3.93617
3.90612
3.87493
3.84282
3.80999
3.77665
3.74295
3.70907
3.67513
3.64133
3.6078
3.57475
3.54235
3.51087
3.48058
3.45182
3.42499
3.40068
3.37943
3.36255
3.34819
3.33801
3.33548
3.33683
3.34187
3.35389
3.37867
3.41513
3.45978
3.50845
3.55752
3.60314
3.64236
3.67253
3.69348
3.70542
3.71051
3.71078
3.71039
3.71113
10.7842
10.1111
9.6105
9.23346
8.93676
8.68756
8.46414
8.25409
8.05158
7.85431
7.6614
7.47246
7.28751
7.10621
6.92834
6.75337
6.58124
6.41164
6.24488
6.08054
5.91987
5.76289
5.60997
5.46154
5.31803
5.17988
5.04743
4.92103
4.80101
4.6877
4.58142
4.48244
4.39121
4.3081
4.23369
4.16833
4.113
4.06692
4.02504
3.99211
3.97236
3.96101
3.96099
3.96284
3.96877
3.98136
3.99785
4.01338
4.02494
4.03149
4.03193
4.03107
4.02826
4.02188
4.0091
3.99279
3.97393
3.95308
3.93038
3.9059
3.87979
3.85219
3.82334
3.79342
3.76272
3.73141
3.69974
3.6679
3.6361
3.60452
3.57339
3.54293
3.51339
3.48509
3.45839
3.43375
3.41172
3.3931
3.37894
3.3677
3.36074
3.36125
3.36425
3.37267
3.39058
3.42354
3.46489
3.51242
3.56284
3.61227
3.65704
3.69453
3.72263
3.7414
3.75159
3.75375
3.75319
3.75112
3.74605
3.74549
10.7229
10.0725
9.6152
9.29442
9.04642
8.82904
8.62219
8.41899
8.21819
8.02003
7.8255
7.63502
7.44853
7.26568
7.08608
6.90932
6.7352
6.56345
6.39418
6.22726
6.06387
5.90369
5.74706
5.59433
5.44588
5.30212
5.16339
5.03006
4.90244
4.78084
4.66557
4.55692
4.45523
4.36082
4.27416
4.19558
4.1257
4.06501
4.0134
3.96599
3.92785
3.90149
3.88547
3.87827
3.8788
3.88165
3.88872
3.90304
3.91738
3.92943
3.9371
3.93912
3.93854
3.93635
3.931
3.92005
3.90461
3.88633
3.8661
3.84423
3.82085
3.79599
3.76978
3.74241
3.71412
3.68517
3.65582
3.62634
3.59698
3.568
3.53966
3.51227
3.48617
3.46175
3.43952
3.42007
3.40423
3.39348
3.38466
3.3828
3.38438
3.39005
3.40334
3.43035
3.46789
3.51379
3.56463
3.61652
3.66589
3.70945
3.74492
3.77105
3.78753
3.79606
3.79633
3.79548
3.79277
3.78683
3.77485
3.77284
10.5773
10.0025
9.63439
9.38271
9.17599
8.97856
8.7796
8.57868
8.37792
8.17926
7.9839
7.79222
7.60414
7.41937
7.23765
7.05857
6.88202
6.70774
6.5359
6.36639
6.19958
6.03624
5.87634
5.71997
5.56733
5.41887
5.27483
5.13567
5.00162
4.87306
4.75024
4.63344
4.52294
4.41901
4.32203
4.23231
4.15036
4.0766
4.01173
3.95535
3.90353
3.86107
3.82963
3.80823
3.79536
3.79278
3.79383
3.79767
3.80641
3.82001
3.83223
3.84133
3.84549
3.84527
3.84384
3.83989
3.83137
3.81688
3.7996
3.78044
3.75978
3.73773
3.71435
3.6898
3.66428
3.63806
3.61141
3.58467
3.55815
3.53222
3.50719
3.48349
3.46159
3.44201
3.42549
3.41263
3.40519
3.4004
3.40117
3.40499
3.41494
3.43582
3.47001
3.51292
3.56248
3.61541
3.66819
3.7171
3.75922
3.79269
3.81667
3.83162
3.83775
3.8376
3.83639
3.83305
3.82584
3.81495
3.79956
3.79649
10.4309
9.96745
9.68684
9.49044
9.30772
9.11908
8.92349
8.72436
8.5249
8.32711
8.13182
7.93938
7.74991
7.56331
7.37951
7.19815
7.01928
6.84258
6.66828
6.49601
6.32628
6.1599
5.99683
5.83707
5.68072
5.52818
5.37959
5.2355
5.09603
4.96164
4.83249
4.7089
4.59107
4.47928
4.37379
4.2749
4.18299
4.09846
4.02175
3.95357
3.89308
3.83774
3.79192
3.75657
3.7306
3.71451
3.70632
3.70648
3.70832
3.71335
3.7239
3.73594
3.746
3.75202
3.75275
3.75203
3.74945
3.74337
3.73107
3.71549
3.69764
3.6783
3.65775
3.63616
3.61369
3.59057
3.5671
3.54363
3.52054
3.49825
3.4773
3.45812
3.44153
3.42774
3.41867
3.41366
3.41386
3.41615
3.42317