/*--------------------------------*- C++ -*----------------------------------*\
| =========                 |                                                 |
| \\      /  F ield         | OpenFOAM: The Open Source CFD Toolbox           |
|  \\    /   O peration     | Version:  2112                                  |
|   \\  /    A nd           | Website:  www.openfoam.com                      |
|    \\/     M anipulation  |                                                 |
\*---------------------------------------------------------------------------*/
FoamFile
{
    version     2.0;
    format      ascii;
    arch        "LSB;label=32;scalar=64";
    class       surfaceScalarField;
    location    "9";
    object      phi;
}
// * * * * * * * * * * * * * * * * * * * * * * * * * * * * * * * * * * * * * //

dimensions      [1 0 -1 0 0 0 0];

oriented        oriented;

internalField   nonuniform List<scalar> 
10325
(
0.00840003
1.1157e-10
0.00840003
8.70039e-10
0.00840002
2.6697e-09
0.00840002
8.06869e-09
0.0084
1.93018e-08
0.00839994
4.98148e-08
0.00839982
1.21484e-07
0.00839952
2.65668e-07
0.00839878
7.23855e-07
0.00839721
1.40941e-06
0.00839317
3.96281e-06
0.00838231
1.01379e-05
0.00835016
3.22905e-05
0.0082229
0.000124888
0.00764777
0.000570006
0.00704062
0.000606817
0.00642654
0.000613795
0.00579632
0.000629857
0.00513839
0.000657374
0.00443261
0.000704996
0.00366864
0.000763185
0.00284552
0.000822253
0.00196518
0.000879354
0.00102234
0.000942044
0.00102153
0.00840003
2.16177e-10
0.00840003
1.67704e-09
0.00840002
5.16102e-09
0.00840002
1.55223e-08
0.0084
3.7003e-08
0.00839995
9.6031e-08
0.00839984
2.27149e-07
0.00839955
5.31303e-07
0.00839896
1.31746e-06
0.00839724
2.96176e-06
0.00839352
7.66367e-06
0.00838282
2.02472e-05
0.00834592
6.87039e-05
0.00821888
0.000250018
0.00762941
0.00115426
0.00701365
0.00122229
0.00640511
0.00122207
0.00578432
0.00125031
0.00512736
0.00131376
0.00441385
0.00141772
0.00364312
0.00153313
0.0028133
0.00165118
0.00192367
0.00176805
0.000978056
0.00188678
0.00199869
0.00840003
3.14814e-10
0.00840003
2.44263e-09
0.00840003
7.48677e-09
0.00840002
2.25753e-08
0.0084
5.37314e-08
0.00839995
1.40199e-07
0.00839985
3.30779e-07
0.00839957
7.83299e-07
0.00839897
1.92171e-06
0.00839729
4.47333e-06
0.00839346
1.14745e-05
0.0083823
3.08032e-05
0.00834668
0.000103823
0.00821638
0.000378417
0.00762061
0.00174467
0.00699635
0.00184649
0.00640077
0.00181756
0.00577963
0.00187121
0.00512909
0.00196377
0.00442314
0.00212284
0.00365494
0.00230061
0.00282185
0.00248338
0.00192734
0.00266156
0.000977476
0.00283582
0.0029753
0.00840003
3.82041e-10
0.00840003
2.96139e-09
0.00840003
9.09885e-09
0.00840002
2.74211e-08
0.00840001
6.50467e-08
0.00839997
1.72097e-07
0.00839991
3.92079e-07
0.00839966
1.00877e-06
0.00839934
2.24481e-06
0.00839744
6.20458e-06
0.00839438
1.45527e-05
0.00838247
4.20923e-05
0.00834785
0.000137958
0.00821779
0.000506535
0.00761753
0.00233917
0.00698847
0.0024757
0.00640617
0.00239992
0.00579949
0.00247756
0.00516109
0.0026018
0.0044663
0.00281684
0.00370838
0.0030578
0.00288156
0.00330935
0.00197614
0.00356602
0.00100582
0.00380496
0.00398016
0.00840003
4.30905e-10
0.00840003
3.34105e-09
0.00840003
1.02641e-08
0.00840002
3.09623e-08
0.00840001
7.32424e-08
0.00839999
1.95741e-07
0.00839994
4.37249e-07
0.00839975
1.17705e-06
0.00839949
2.51255e-06
0.00839797
7.54037e-06
0.0083962
1.63347e-05
0.00838111
5.65297e-05
0.00835422
0.000164334
0.00822336
0.00063541
0.00763298
0.00292319
0.007003
0.00310632
0.00643464
0.00296866
0.00584806
0.00306395
0.00522874
0.00322082
0.00455219
0.00349289
0.00380416
0.00380528
0.0029817
0.00413111
0.00207209
0.00447463
0.0010692
0.00480746
0.00504836
0.00840003
4.63557e-10
0.00840003
3.59303e-09
0.00840003
1.10467e-08
0.00840002
3.33264e-08
0.00840002
7.86258e-08
0.0084
2.119e-07
0.00839997
4.64956e-07
0.00839982
1.29934e-06
0.00839964
2.70355e-06
0.00839863
8.382e-06
0.00839715
1.78605e-05
0.00838765
6.53375e-05
0.00837593
0.000175677
0.00825157
0.000757122
0.00773219
0.00343546
0.00709549
0.00374418
0.00652306
0.00354171
0.00594869
0.003638
0.00534799
0.00382113
0.00469485
0.0041455
0.00396669
0.00453279
0.00314614
0.00495115
0.00221746
0.00540242
0.00116367
0.00586003
0.00621096
0.00840003
4.88613e-10
0.00840003
3.78691e-09
0.00840003
1.16432e-08
0.00840003
3.5152e-08
0.00840002
8.25737e-08
0.0084
2.25694e-07
0.00839999
4.79385e-07
0.00839983
1.43372e-06
0.00839976
2.77378e-06
0.00839835
9.62765e-06
0.00839666
1.95737e-05
0.00838756
7.37218e-05
0.00836475
0.000198033
0.00828701
0.000832307
0.00791938
0.00379473
0.00726087
0.0044045
0.00668137
0.00412237
0.00611558
0.00420382
0.00553239
0.00440404
0.00489912
0.00477832
0.00419168
0.00523961
0.00338535
0.00575701
0.00244732
0.00633975
0.00133061
0.00697607
0.00754055
0.00840003
5.15769e-10
0.00840003
4.00519e-09
0.00840003
1.24234e-08
0.00840002
3.74282e-08
0.00840002
8.81869e-08
0.0084
2.4112e-07
0.00839997
5.07222e-07
0.00839982
1.55991e-06
0.00839974
2.86645e-06
0.00839848
1.07164e-05
0.00839735
2.07378e-05
0.00839131
7.90458e-05
0.00837767
0.000211115
0.00835048
0.000857328
0.00827943
0.00385654
0.00758143
0.005105
0.00694916
0.00475585
0.00637997
0.00477292
0.00581891
0.00496482
0.00520793
0.00538899
0.00452262
0.00592448
0.00372652
0.00655256
0.00278586
0.00727971
0.00159566
0.00816567
0.00913535
0.00840003
4.5893e-10
0.00840003
4.7359e-09
0.00840003
1.36444e-08
0.00840002
4.29662e-08
0.00840001
9.72102e-08
0.00839998
2.70945e-07
0.00839991
5.7542e-07
0.00839981
1.63862e-06
0.00839946
3.20711e-06
0.00839923
1.07864e-05
0.00840016
1.98154e-05
0.00839881
7.96635e-05
0.00840894
0.000200515
0.00844634
0.000816526
0.00888167
0.00341217
0.00816462
0.00582539
0.00737634
0.00554587
0.006794
0.00535526
0.00620833
0.00555013
0.00561947
0.00597748
0.00496105
0.00658254
0.00423659
0.00727671
0.00334657
0.00816925
0.00209342
0.00941803
0.011228
0.00840003
7.28325e-11
0.00840003
5.42626e-09
0.00840004
6.57989e-09
0.00840003
4.61203e-08
0.00840008
4.83535e-08
0.00840006
2.87768e-07
0.00840036
2.69113e-07
0.00840016
1.82558e-06
0.00840215
1.21043e-06
0.00839957
1.32227e-05
0.00841286
6.79027e-06
0.00839951
9.25852e-05
0.00850182
9.65954e-05
0.00870009
0.000623283
0.00991177
0.00218601
0.00912161
0.0066186
0.00805059
0.00661933
0.00745032
0.00595701
0.00681628
0.0061839
0.00621951
0.00657336
0.00561193
0.00718924
0.00495314
0.00793474
0.00411906
0.00900277
0.00291953
0.0106172
0.0141469
0.00840003
9.48855e-10
0.00840003
1.59446e-09
0.00840002
1.46776e-08
0.00840005
1.73975e-08
0.0084
1.01824e-07
0.00840017
1.12663e-07
0.00839981
6.17311e-07
0.00840097
6.54026e-07
0.00839824
3.9093e-06
0.00840782
3.51216e-06
0.00838565
2.84352e-05
0.00845581
2.18321e-05
0.00833492
0.000216515
0.0086504
0.000307552
0.00901072
0.00182171
0.00898118
0.00664404
0.00870418
0.00689519
0.00796171
0.0066998
0.00740085
0.00674666
0.00687812
0.00709618
0.00638914
0.00767789
0.00587393
0.00844911
0.00542425
0.00945145
0.00538909
0.0106514
0.0114429
0.00809249
0.00840003
4.89456e-10
0.00840003
2.72445e-09
0.00840003
9.26449e-09
0.00840002
2.62483e-08
0.00840006
6.60262e-08
0.0084
1.67987e-07
0.00840022
4.0029e-07
0.00839985
1.00783e-06
0.00840137
2.39308e-06
0.00839858
6.20076e-06
0.00841182
1.52338e-05
0.00839071
4.24368e-05
0.00849336
0.000113884
0.00837649
0.00042366
0.00890676
0.00128653
0.00909652
0.00644753
0.00874389
0.00724543
0.00826137
0.00718098
0.0078152
0.00719189
0.00737992
0.00753132
0.00700794
0.00804965
0.00671226
0.00874438
0.0065943
0.0095687
0.00697727
0.0102677
0.0105046
0.00791498
0.00840003
4.00536e-10
0.00840003
3.10754e-09
0.00840003
9.45025e-09
0.00840003
2.86532e-08
0.00840002
6.77534e-08
0.00840001
1.81768e-07
0.0084
4.10036e-07
0.00839992
1.07252e-06
0.00839988
2.43358e-06
0.00839977
6.23922e-06
0.00840048
1.4502e-05
0.00840198
4.05768e-05
0.00841265
0.000103059
0.00846648
0.000368629
0.0086279
0.0011229
0.00912127
0.00594695
0.00886428
0.00750093
0.0085231
0.00752003
0.00818361
0.00753039
0.0078682
0.00784602
0.00758553
0.0083319
0.00744415
0.00888507
0.00756096
0.00945074
0.00798726
0.00984031
0.00989014
0.00860081
0.00840003
3.37385e-10
0.00840003
2.61189e-09
0.00840003
8.1131e-09
0.00840004
2.4313e-08
0.00840005
5.76514e-08
0.00840007
1.52058e-07
0.00840014
3.40485e-07
0.00840031
8.99863e-07
0.00840086
1.87712e-06
0.00840121
5.83473e-06
0.00840557
1.01437e-05
0.0084038
4.20315e-05
0.00842815
7.86461e-05
0.00843282
0.000362949
0.00858296
0.000971284
0.00938189
0.00514106
0.00914987
0.00773238
0.00879872
0.0078698
0.00852966
0.00779694
0.00832322
0.00805111
0.00816954
0.0084848
0.00812633
0.00892797
0.00825426
0.00932181
0.00860012
0.00949299
0.00941187
0.00907663
0.00840003
3.29608e-10
0.00840003
2.55379e-09
0.00840003
7.83691e-09
0.00840003
2.36218e-08
0.00840003
5.59149e-08
0.00840003
1.48621e-07
0.00840004
3.34188e-07
0.00840006
8.72196e-07
0.00840001
1.92749e-06
0.00840062
5.18008e-06
0.00839956
1.11892e-05
0.00840671
3.46192e-05
0.00841281
7.24789e-05
0.00848322
0.000291597
0.00867321
0.000780025
0.0101047
0.00370235
0.0096522
0.00818453
0.00926367
0.00825782
0.00891625
0.00814299
0.00873091
0.00823404
0.00865735
0.00855614
0.00868788
0.00889559
0.00882306
0.00918658
0.00907145
0.00924372
0.00904679
0.0094348
0.00840003
3.01409e-10
0.00840003
2.34114e-09
0.00840003
7.17427e-09
0.00840003
2.16772e-08
0.00840004
5.12994e-08
0.00840005
1.36868e-07
0.00840007
3.08186e-07
0.00840014
8.03479e-07
0.00840026
1.80278e-06
0.0084008
4.60737e-06
0.00840104
1.09313e-05
0.00840918
2.62868e-05
0.00840982
7.17329e-05
0.00850532
0.000195265
0.00868962
0.000595725
0.010039
0.00234823
0.0101147
0.00810443
0.00982127
0.00854965
0.00934895
0.00861418
0.00913383
0.00844786
0.00907031
0.00861808
0.00911652
0.00884714
0.00927369
0.00902627
0.00947028
0.00904626
0.00879712
0.00971844
0.00840003
2.50045e-10
0.00840003
1.93964e-09
0.00840003
5.98703e-09
0.00840004
1.79976e-08
0.00840004
4.27354e-08
0.00840007
1.12889e-07
0.00840012
2.54735e-07
0.00840026
6.55169e-07
0.00840059
1.47156e-06
0.0084014
3.76499e-06
0.00840386
8.45884e-06
0.00840721
2.2772e-05
0.00842679
5.20097e-05
0.00845956
0.000161764
0.00858428
0.000470127
0.00911558
0.00181446
0.0100811
0.00713026
0.00995716
0.00867104
0.00972548
0.00884411
0.00950301
0.00866928
0.00943956
0.00868007
0.00946914
0.00881691
0.00960144
0.00889127
0.00978336
0.00886103
0.00862109
0.00995684
0.00840003
1.93599e-10
0.00840003
1.59055e-09
0.00840003
4.91632e-09
0.00840003
1.46386e-08
0.00840004
3.48992e-08
0.00840006
9.12344e-08
0.00840011
2.06289e-07
0.00840023
5.29864e-07
0.00840054
1.16373e-06
0.00840115
3.12898e-06
0.00840314
6.46749e-06
0.00840602
1.97352e-05
0.00841784
4.02094e-05
0.00843844
0.000140435
0.00853937
0.000368634
0.00887065
0.00148098
0.0101431
0.00584986
0.0101387
0.00867438
0.00998426
0.00899673
0.00977982
0.00887191
0.00974001
0.00871775
0.00978853
0.00876605
0.00989041
0.00878734
0.0100467
0.00870181
0.00847612
0.0101876
0.00840003
6.44807e-11
0.00840003
1.61808e-09
0.00840003
2.87346e-09
0.00840003
1.40873e-08
0.00840005
2.11031e-08
0.00840005
8.68605e-08
0.00840013
1.24693e-07
0.00840016
5.02556e-07
0.00840062
6.93164e-07
0.00840075
2.98255e-06
0.00840363
3.58465e-06
0.00840352
1.97041e-05
0.00842414
1.95743e-05
0.00842522
0.000138678
0.0085817
0.000211533
0.00899177
0.00106883
0.0109765
0.00385549
0.0107214
0.00892828
0.0105426
0.00917537
0.0102511
0.0091624
0.0100647
0.00890222
0.0100546
0.00877337
0.0101288
0.00870965
0.0102517
0.00857508
0.00833164
0.0103905
0.00840003
1.61836e-10
0.00840003
9.19653e-10
0.00840003
3.43841e-09
0.00840004
8.75171e-09
0.00840003
2.43365e-08
0.00840006
5.51481e-08
0.00840004
1.4518e-07
0.00840022
3.21053e-07
0.00840007
8.38831e-07
0.0084012
1.85364e-06
0.00839991
4.829e-06
0.00840847
1.11311e-05
0.00839921
2.85947e-05
0.0084642
7.35693e-05
0.00846434
0.000210365
0.00889936
0.000633581
0.0103096
0.00244028
0.0111349
0.00809677
0.0109623
0.00934585
0.0106883
0.00943441
0.010452
0.00913681
0.0103599
0.00886179
0.0103704
0.00869511
0.0104357
0.00850451
0.0082101
0.0105513
0.00840003
1.9332e-10
0.00840003
5.59682e-10
0.00840003
3.28543e-09
0.00840003
5.73394e-09
0.00840003
2.27428e-08
0.00840005
3.64846e-08
0.00840006
1.34387e-07
0.00840017
2.10751e-07
0.00840023
7.72354e-07
0.0084009
1.18573e-06
0.00840115
4.54465e-06
0.00840582
6.4417e-06
0.00840489
2.93406e-05
0.00844078
3.75599e-05
0.0084471
0.000203206
0.00869549
0.000384186
0.00946037
0.00167265
0.011058
0.00648826
0.0111059
0.00929491
0.0109954
0.00954215
0.0107554
0.00937384
0.0106566
0.00895729
0.0106467
0.00869939
0.0106688
0.00847543
0.00815863
0.0107134
0.00840003
6.905e-11
0.00840003
7.66076e-10
0.00840003
1.74446e-09
0.00840003
6.90311e-09
0.00840004
1.26202e-08
0.00840003
4.32077e-08
0.00840009
7.57701e-08
0.00840005
2.51982e-07
0.00840038
4.37074e-07
0.0084001
1.45534e-06
0.00840215
2.49664e-06
0.00839989
8.62878e-06
0.0084151
1.41262e-05
0.00839685
5.53819e-05
0.00850878
9.11446e-05
0.00846893
0.000422447
0.00913826
0.00100124
0.0115539
0.00405987
0.0115391
0.00930554
0.0113862
0.0096924
0.011161
0.00959587
0.0109341
0.00918001
0.0108907
0.00873566
0.0109169
0.00844014
0.00815159
0.0109154
0.00840003
9.93901e-11
0.00840003
3.49737e-10
0.00840003
1.82415e-09
0.00840003
3.50661e-09
0.00840003
1.27511e-08
0.00840005
2.23865e-08
0.00840005
7.58256e-08
0.00840017
1.30566e-07
0.00840017
4.37592e-07
0.00840088
7.40404e-07
0.00840078
2.57771e-06
0.00840537
4.03633e-06
0.00840325
1.61134e-05
0.00843657
2.20442e-05
0.00841992
0.000107086
0.00867737
0.000164616
0.00884172
0.000834737
0.0106233
0.00227316
0.0119742
0.00794367
0.0118653
0.00979637
0.0115861
0.00986931
0.0112658
0.0094943
0.0111456
0.0088479
0.0111149
0.00846025
0.00814079
0.0111106
0.00840003
4.86427e-11
0.00840003
3.20824e-10
0.00840003
1.02001e-09
0.00840003
3.01278e-09
0.00840004
7.23432e-09
0.00840004
1.88312e-08
0.00840007
4.26842e-08
0.00840009
1.08246e-07
0.00840029
2.41729e-07
0.0084004
6.21155e-07
0.00840164
1.34121e-06
0.00840188
3.75079e-06
0.0084104
7.59242e-06
0.00840843
2.37463e-05
0.00846584
4.966e-05
0.00846368
0.000165579
0.00886925
0.000428251
0.00939351
0.00174402
0.0116183
0.00570625
0.0119671
0.0094417
0.0120067
0.0098229
0.0118306
0.00966027
0.0114963
0.00917285
0.0113586
0.00858356
0.00815054
0.0113291
0.00840003
3.18448e-11
0.00840003
2.52502e-10
0.00840003
7.8277e-10
0.00840003
2.32916e-09
0.00840003
5.56408e-09
0.00840004
1.45313e-08
0.00840005
3.29781e-08
0.00840007
8.38295e-08
0.00840012
1.87904e-07
0.00840026
4.76248e-07
0.00840054
1.05981e-06
0.00840154
2.72223e-06
0.0084031
5.99233e-06
0.00841037
1.62776e-05
0.00842443
3.54761e-05
0.00848243
0.000106459
0.00863506
0.000274252
0.00942714
0.000948206
0.0120732
0.00304363
0.0124882
0.0090186
0.0123212
0.00998115
0.0121347
0.00983447
0.0118988
0.00939199
0.0117085
0.00875198
0.00818851
0.0116405
0.00840003
1.32539e-11
0.00840003
2.20201e-10
0.00840003
4.62202e-10
0.00840003
1.94209e-09
0.00840003
3.37358e-09
0.00840004
1.19894e-08
0.00840005
2.01109e-08
0.00840006
6.89247e-08
0.00840014
1.14467e-07
0.00840022
3.91229e-07
0.00840063
6.41183e-07
0.00840107
2.25612e-06
0.0084036
3.44379e-06
0.00840576
1.39779e-05
0.00842351
1.76196e-05
0.00843547
9.36786e-05
0.00858297
0.000126104
0.00882224
0.000705753
0.0100365
0.00182307
0.0122753
0.00676231
0.0124035
0.00984255
0.0124872
0.00972998
0.0122905
0.00956484
0.012086
0.00892991
0.00822526
0.0120027
0.00840003
1.81578e-11
0.00840003
1.11186e-10
0.00840003
4.04505e-10
0.00840003
1.05454e-09
0.00840003
2.85761e-09
0.00840004
6.58881e-09
0.00840004
1.68219e-08
0.00840007
3.7752e-08
0.00840009
9.51421e-08
0.00840027
2.11881e-07
0.00840036
5.36361e-07
0.00840143
1.1819e-06
0.00840171
3.11881e-06
0.00840907
6.60273e-06
0.00840708
1.92842e-05
0.00846005
4.06031e-05
0.00845387
0.000130718
0.00882805
0.000329745
0.00938325
0.00126262
0.0121769
0.00394814
0.0127426
0.00925837
0.0125013
0.0099493
0.0124776
0.00955433
0.012367
0.00899682
0.00822427
0.0123165
0.00840003
1.49539e-11
0.00840003
8.05023e-11
0.00840003
2.95839e-10
0.00840003
7.65797e-10
0.00840003
2.07565e-09
0.00840003
4.79501e-09
0.00840004
1.22222e-08
0.00840005
2.75451e-08
0.00840007
6.92509e-08
0.00840013
1.55095e-07
0.00840027
3.89292e-07
0.00840057
8.6862e-07
0.00840145
2.20026e-06
0.00840315
4.86552e-06
0.00840929
1.29219e-05
0.00842181
2.78087e-05
0.0084683
8.30149e-05
0.00859733
0.00019902
0.00914807
0.000706202
0.0109961
0.00208727
0.0127731
0.00744796
0.0127712
0.00992123
0.0126979
0.0095825
0.0127541
0.0088729
0.00802042
0.012879
0.00840003
1.43576e-11
0.00840003
4.39145e-11
0.00840003
2.43396e-10
0.00840003
4.49346e-10
0.00840003
1.6802e-09
0.00840003
2.85602e-09
0.00840004
9.86058e-09
0.00840005
1.64872e-08
0.00840006
5.59244e-08
0.00840012
9.30344e-08
0.00840019
3.15376e-07
0.00840053
5.21129e-07
0.00840091
1.78711e-06
0.00840284
2.89545e-06
0.00840508
1.04728e-05
0.00841705
1.56733e-05
0.00843086
6.79212e-05
0.00852952
9.92336e-05
0.00873111
0.000499137
0.00953738
0.00127131
0.0124881
0.00445782
0.0129675
0.0093884
0.0129917
0.00948055
0.0131034
0.00865947
0.00772496
0.0133106
0.00840003
5.95922e-12
0.00840003
3.94861e-11
0.00840003
1.25468e-10
0.00840003
3.70416e-10
0.00840003
8.88212e-10
0.00840003
2.30851e-09
0.00840004
5.22916e-09
0.00840004
1.32049e-08
0.00840006
2.95259e-08
0.00840008
7.40763e-08
0.00840023
1.65071e-07
0.00840032
4.14047e-07
0.00840117
9.22423e-07
0.00840164
2.32608e-06
0.00840682
5.20045e-06
0.00840854
1.33967e-05
0.00844512
3.06969e-05
0.00845915
8.22423e-05
0.00873299
0.00022083
0.0092874
0.000702858
0.0115166
0.00219384
0.0131321
0.00769897
0.0134452
0.00903151
0.0136448
0.00834422
0.00737069
0.0139158
0.00840003
3.4076e-12
0.00840003
2.71664e-11
0.00840003
8.46056e-11
0.00840003
2.49869e-10
0.00840003
5.97636e-10
0.00840003
1.54005e-09
0.00840003
3.49345e-09
0.00840004
8.72219e-09
0.00840005
1.95399e-08
0.00840007
4.83502e-08
0.00840012
1.0784e-07
0.00840026
2.66153e-07
0.00840057
5.9084e-07
0.00840133
1.46994e-06
0.00840321
3.19671e-06
0.00840747
8.49111e-06
0.00842099
1.68739e-05
0.00844433
5.47457e-05
0.00855215
0.000110288
0.00879955
0.000438767
0.00976811
0.00118987
0.0125654
0.00477128
0.0134201
0.00800326
0.0139188
0.00776418
0.0068579
0.0143581
0.00840003
1.25562e-12
0.00840003
2.25944e-11
0.00840003
4.34513e-11
0.00840003
1.97439e-10
0.00840003
3.13885e-10
0.00840003
1.20671e-09
0.00840003
1.83488e-09
0.00840003
6.83777e-09
0.00840004
1.01937e-08
0.00840005
3.80672e-08
0.0084001
5.56972e-08
0.00840013
2.11098e-07
0.0084004
3.00798e-07
0.00840057
1.17366e-06
0.00840204
1.58721e-06
0.00840305
6.748e-06
0.00841128
7.75561e-06
0.00841919
4.26102e-05
0.00848162
4.2691e-05
0.00861252
0.000287457
0.00926917
0.000515925
0.0115742
0.00232254
0.0129369
0.00638773
0.0138542
0.00681846
0.00643133
0.0142726
0.00840003
2.61474e-12
0.00840003
6.86567e-12
0.00840003
4.43695e-11
0.00840003
7.03958e-11
0.00840003
3.05892e-10
0.00840003
4.42006e-10
0.00840003
1.78712e-09
0.00840003
2.49814e-09
0.00840003
1.00637e-08
0.00840006
1.37051e-08
0.00840005
5.62153e-08
0.00840017
7.39735e-08
0.0084001
3.14321e-07
0.00840083
3.83269e-07
0.00840029
1.82892e-06
0.00840494
1.71954e-06
0.00839928
1.1581e-05
0.00843418
6.41711e-06
0.00839443
7.28265e-05
0.00861608
4.61603e-05
0.00866706
0.000431687
0.00985346
0.000983173
0.0115692
0.00438387
0.0129461
0.00551773
0.00576079
0.0136898
0.00840003
1.03643e-12
0.00840003
5.59039e-12
0.00840003
1.94717e-11
0.00840003
5.36892e-11
0.00840003
1.37058e-10
0.00840003
3.3454e-10
0.00840003
8.03309e-10
0.00840003
1.89784e-09
0.00840004
4.51624e-09
0.00840003
1.05105e-08
0.00840006
2.51211e-08
0.00840004
5.75776e-08
0.00840019
1.38911e-07
0.00840009
3.15092e-07
0.00840096
7.67528e-07
0.00840007
1.73033e-06
0.0084061
4.37963e-06
0.00839893
8.80299e-06
0.00843653
2.73338e-05
0.00840501
5.73984e-05
0.00861028
0.000194289
0.00877881
0.000717549
0.00976317
0.00306334
0.011131
0.00427034
0.00484135
0.012156
0.00840003
3.84514e-13
0.00840003
4.65691e-12
0.00840003
1.30024e-11
0.00840003
4.17414e-11
0.00840003
9.26279e-11
0.00840003
2.59164e-10
0.00840003
5.48654e-10
0.00840003
1.50515e-09
0.00840003
3.14415e-09
0.00840003
8.69523e-09
0.00840003
1.80641e-08
0.0084
5.00294e-08
0.00839999
1.06166e-07
0.00839981
2.7485e-07
0.0083998
6.08677e-07
0.008399
1.52278e-06
0.00839889
2.75667e-06
0.00839364
9.58641e-06
0.00839809
1.32209e-05
0.00836854
6.58055e-05
0.00839074
0.000137792
0.00845189
0.000577417
0.00862298
0.00255607
0.00961252
0.00340691
0.00392243
0.0106486
0.00840003
-5.45277e-13
0.00840003
4.85876e-12
0.00840003
1.45497e-12
0.00840003
3.89597e-11
0.00840003
1.25397e-11
0.00840003
2.37357e-10
0.00840003
7.52231e-11
0.00840003
1.37473e-09
0.00840003
4.19852e-10
0.00840003
7.97046e-09
0.00840004
2.30506e-09
0.00840002
4.75715e-08
0.00840009
8.51464e-09
0.00839989
3.20655e-07
0.00840039
-8.00667e-08
0.00839842
2.53637e-06
0.00840224
-2.03847e-06
0.00838745
1.91035e-05
0.00840942
-1.60954e-05
0.00832429
0.000132269
0.00841407
1.28922e-05
0.0082595
0.000667966
0.00806221
0.00239032
0.00868586
0.00292583
0.00326372
0.0094495
0.00840003
2.89758e-13
0.00840003
1.64137e-12
0.00840003
6.14284e-12
0.00840003
1.56747e-11
0.00840003
4.34955e-11
0.00840003
9.93858e-11
0.00840003
2.58873e-10
0.00840003
5.77427e-10
0.00840003
1.47544e-09
0.00840003
3.25682e-09
0.00840002
8.34182e-09
0.00840004
1.83758e-08
0.00839995
5.02552e-08
0.0084001
1.03406e-07
0.0083993
3.41276e-07
0.00840078
6.4457e-07
0.00839424
2.32033e-06
0.00840615
4.85687e-06
0.00836339
1.61376e-05
0.0084405
4.08796e-05
0.00826562
0.000155148
0.00838793
0.000468048
0.00794135
0.00248991
0.00822596
0.0028071
0.00281205
0.00877725
0.00840003
1.09183e-12
0.00840003
-3.75767e-13
0.00840003
1.23323e-11
0.00840003
1.82493e-12
0.00840003
8.33257e-11
0.00840003
1.73371e-11
0.00840003
5.04512e-10
0.00840003
1.19638e-10
0.00840003
3.00147e-09
0.00840003
7.42632e-10
0.00840001
1.78846e-08
0.00840002
4.03435e-09
0.00839993
1.10158e-07
0.00839998
7.21383e-09
0.0083993
7.80721e-07
0.00840027
-3.97814e-07
0.00839473
6.08299e-06
0.00840371
-5.03301e-06
0.00836542
4.48271e-05
0.00841694
-2.39329e-05
0.00823246
0.000305402
0.00827341
0.000357448
0.0077087
0.00271072
0.00784404
0.0028699
0.00242209
0.00833554
0.00840003
2.81184e-13
0.00840003
3.48158e-13
0.00840003
3.63907e-12
0.00840003
4.98309e-12
0.00840003
2.55146e-11
0.00840003
3.32008e-11
0.00840003
1.54621e-10
0.00840003
1.86254e-10
0.00840003
9.07492e-10
0.00840003
1.0543e-09
0.00840004
5.30108e-09
0.00840002
6.44703e-09
0.00840008
3.08945e-08
0.00839993
5.8365e-08
0.00840044
1.88562e-07
0.00839887
4.99839e-07
0.00840278
1.63416e-06
0.00839039
3.36743e-06
0.00841561
1.50194e-05
0.00833913
3.28109e-05
0.00847734
0.00014042
0.00817626
0.000566415
0.00794643
0.00258163
0.00815746
0.00287859
0.00223699
0.008461
0.00840003
-6.86599e-14
0.00840003
1.46035e-12
0.00840003
2.0131e-12
0.00840003
1.25298e-11
0.00840003
1.62184e-11
0.00840003
8.17301e-11
0.00840003
1.04937e-10
0.00840003
5.12561e-10
0.00840003
6.61829e-10
0.00840002
3.19251e-09
0.00840002
4.20057e-09
0.0084
1.99871e-08
0.00839999
2.6339e-08
0.00839984
1.24543e-07
0.00839976
1.6448e-07
0.008399
7.10381e-07
0.00839933
1.04701e-06
0.00839338
5.17911e-06
0.00840018
6.6123e-06
0.00836701
4.53905e-05
0.00838319
0.000102109
0.00836236
0.000472752
0.00844071
0.00216539
0.00878149
0.00275691
0.00222234
0.00889791
0.00840003
-6.71565e-13
0.00840003
2.39973e-12
0.00840003
-4.25941e-12
0.00840003
1.73308e-11
0.00840003
-2.53513e-11
0.00840003
1.02526e-10
0.00840003
-1.48045e-10
0.00840003
5.84814e-10
0.00840003
-8.72855e-10
0.00840003
3.31611e-09
0.00840004
-5.24187e-09
0.00840003
1.89453e-08
0.00840008
-3.22949e-08
0.00840004
1.15903e-07
0.00840035
-2.23816e-07
0.00839973
8.98805e-07
0.00840249
-1.89881e-06
0.00839541
8.80567e-06
0.00841324
-1.38181e-05
0.00836828
7.0552e-05
0.00844279
-6.39647e-06
0.00846575
0.000382627
0.0089533
0.00131345
0.00923145
0.00257959
0.00234555
0.00914403
0.00840003
-1.01042e-13
0.00840003
7.26757e-13
0.00840003
1.39356e-13
0.00840003
5.98438e-12
0.00840003
2.34501e-12
0.00840003
3.68812e-11
0.00840003
1.61983e-11
0.00840003
2.15407e-10
0.00840003
9.72749e-11
0.00840003
1.24496e-09
0.00840002
5.51172e-10
0.00840003
7.22533e-09
0.00839997
3.01854e-09
0.00840002
4.4045e-08
0.00839964
1.17464e-08
0.00840006
3.11587e-07
0.00839726
2.67762e-08
0.00840252
2.47877e-06
0.00838264
9.87363e-07
0.00842476
2.0764e-05
0.00835293
4.26979e-05
0.00852012
0.000172855
0.00876565
0.00087116
0.00883148
0.00244714
0.00230183
0.00886105
0.00840003
2.72049e-13
0.00840003
3.75153e-13
0.00840003
3.55867e-12
0.00840003
5.12849e-12
0.00840003
2.44323e-11
0.00840003
3.52195e-11
0.00840003
1.4797e-10
0.00840003
2.18532e-10
0.00840003
8.80064e-10
0.00840003
1.33999e-09
0.00840002
5.25348e-09
0.00840002
8.23199e-09
0.00839997
3.16625e-08
0.00839995
5.05021e-08
0.00839967
1.93553e-07
0.00839958
2.97205e-07
0.00839776
1.22888e-06
0.00839802
1.49134e-06
0.00838659
8.65332e-06
0.00839448
7.89471e-06
0.00835026
6.71743e-05
0.00836753
0.00014163
0.00838976
0.000692782
0.00847953
0.00219956
0.0021662
0.00858694
0.00840003
7.82852e-13
0.00840003
-1.11059e-12
0.00840003
7.76922e-12
0.00840003
-5.05483e-12
0.00840003
5.1376e-11
0.00840003
-2.31489e-11
0.00840003
3.0759e-10
0.00840003
-1.08705e-10
0.00840003
1.81407e-09
0.00840003
-4.92874e-10
0.00840002
1.07285e-08
0.00840003
-2.166e-09
0.00839999
6.41798e-08
0.00840004
-1.1227e-08
0.00839976
3.9375e-07
0.00840009
-1.15461e-07
0.0083981
2.73572e-06
0.00840152
-2.4134e-06
0.00838485
2.2297e-05
0.00841279
-2.35269e-05
0.00832226
0.000142167
0.00841501
3.86929e-05
0.00824954
0.000735084
0.00827884
0.00202326
0.00201664
0.00840617
0.00840003
2.21773e-13
0.00840003
1.69507e-13
0.00840003
2.70495e-12
0.00840003
3.4201e-12
0.00840003
1.86835e-11
0.00840003
2.4287e-11
0.00840003
1.12667e-10
0.00840003
1.48607e-10
0.00840003
6.58729e-10
0.00840003
8.72482e-10
0.00840004
3.81382e-09
0.00840002
4.99549e-09
0.00840006
2.20079e-08
0.0084
2.81149e-08
0.00840025
1.27465e-07
0.00839984
1.60083e-07
0.00840163
7.79871e-07
0.00839754
6.83996e-07
0.0084134
5.83456e-06
0.00838205
2.70003e-06
0.00846835
4.49173e-05
0.00839523
9.37677e-05
0.00858685
0.0004393
0.00878356
0.00168608
0.00179335
0.00896851
0.00840003
-4.77267e-14
0.00840003
1.13379e-12
0.00840003
2.05614e-12
0.00840003
9.68762e-12
0.00840003
1.59135e-11
0.00840003
6.05077e-11
0.00840003
9.9533e-11
0.00840003
3.58929e-10
0.00840003
6.00325e-10
0.00840003
2.11002e-09
0.00840003
3.5749e-09
0.00840002
1.23554e-08
0.00840001
2.05893e-08
0.00839995
7.25845e-08
0.00839995
1.04783e-07
0.00839954
4.35796e-07
0.00839984
3.22031e-07
0.00839702
2.63923e-06
0.00840221
-2.48575e-07
0.00838396
1.66505e-05
0.00841522
2.75963e-06
0.00840095
9.36483e-05
0.00847146
0.000279285
0.00879374
0.00123454
0.00138635
0.00913644
0.00840003
-2.92336e-13
0.00840003
2.11048e-12
0.00840003
-4.58229e-13
0.00840003
1.61177e-11
0.00840003
-8.50687e-13
0.00840003
9.8716e-11
0.00840003
1.45632e-12
0.00840003
5.84554e-10
0.00840003
3.91231e-11
0.00840003
3.45668e-09
0.00840003
3.66587e-10
0.00840002
2.05308e-08
0.00840004
1.88188e-09
0.00839996
1.25308e-07
0.00840006
-1.3956e-08
0.00839954
8.29061e-07
0.0084003
-5.73726e-07
0.00839646
5.68474e-06
0.00840359
-8.2084e-06
0.0083784
3.77205e-05
0.00841874
-4.69028e-05
0.00834573
0.000153177
0.00846576
8.00288e-05
0.00873983
0.000853382
0.00097712
0.00908132
0.00840003
3.60331e-13
0.00840003
-1.58063e-12
0.00840003
2.18821e-12
0.00840003
-1.12205e-11
0.00840003
1.28251e-11
0.00840003
-6.72602e-11
0.00840003
7.05536e-11
0.00840003
-3.96439e-10
0.00840003
3.79396e-10
0.00840004
-2.35313e-09
0.00840003
2.03877e-09
0.00840007
-1.41092e-08
0.00840004
1.20953e-08
0.00840025
-8.79489e-08
0.00840007
1.00933e-07
0.00840138
-6.04845e-07
0.00839931
1.12288e-06
0.00840868
-4.19682e-06
0.00838654
1.14284e-05
0.00844868
-2.66367e-05
0.00831242
7.69583e-05
0.00851672
-4.59501e-05
0.00821887
0.00030578
0.00818436
0.000757707
0.000603017
0.00852194
0.00840003
9.64463e-14
0.00840003
-6.55311e-13
0.00840003
-5.77043e-14
0.00840003
-5.14961e-12
0.00840003
-1.33822e-12
0.00840003
-3.11549e-11
0.00840003
-9.87572e-12
0.00840003
-1.8268e-10
0.00840003
-6.89121e-11
0.00840003
-1.0744e-09
0.00840003
-5.25213e-10
0.00840002
-6.34305e-09
0.00840003
-2.91241e-09
0.00839996
-3.79991e-08
0.00840005
-2.73883e-09
0.00839955
-2.33067e-07
0.00840037
1.86414e-07
0.00839673
-1.32777e-06
0.00840475
2.64475e-06
0.00838132
-7.42528e-06
0.00842965
2.15358e-05
0.00837579
-9.21341e-06
0.00851479
0.000102957
0.00873884
0.00039917
0.000330987
0.00899693
0.00840003
0.00840003
0.00840003
0.00840003
0.00840003
0.00840003
0.00840003
0.00840003
0.00840003
0.00840003
0.00840003
0.00840002
0.00840001
0.00839996
0.00839993
0.00839959
0.00839964
0.00839757
0.00839957
0.00838796
0.00840332
0.00837626
0.00841773
0.00868085
0.00900295
0.00374176
0.00435075
0.00143684
0.00230494
-0.000686953
0.0021276
-0.00160367
0.000919894
-0.00223139
0.000629781
-0.00255398
0.000325314
-0.00265827
0.000106743
-0.00278009
0.000123678
-0.00292465
0.00014539
-0.00304621
0.0001218
-0.00312118
7.51696e-05
-0.00316021
3.6987e-05
-0.00319301
2.90335e-05
-0.0032201
2.30314e-05
-0.00321915
-6.88328e-06
-0.00318894
-3.71047e-05
-0.00313735
-5.92592e-05
-0.00305998
-8.41036e-05
-0.00296496
-0.000102146
-0.00285836
-0.000112781
-0.00274213
-0.000121763
-0.0026181
-0.00012927
-0.00248584
-0.000136759
-0.00234554
-0.000144629
-0.00219646
-0.000153162
-0.00203864
-0.000161718
-0.00187077
-0.000171288
-0.0016945
-0.000179661
-0.00150556
-0.000192233
-0.00130984
-0.000198441
-0.00110969
-0.000202839
-0.000906381
-0.000206181
-0.0007
-0.000209144
-0.000491323
-0.000211212
-0.000279166
-0.000214436
-5.96435e-05
-0.000221323
0.000163524
-0.000224804
0.000379682
-0.000217306
0.00058825
-0.000209183
0.000791486
-0.000203632
0.00098963
-0.000197663
0.00118307
-0.00019256
0.00136885
-0.000184697
0.00154886
-0.000178761
0.00172518
-0.000174831
0.00190121
-0.000174343
0.00207131
-0.000168414
0.00223603
-0.00016292
0.00239373
-0.000156522
0.00254588
-0.000150861
0.00269209
-0.000144828
0.00283278
-0.000139321
0.00296785
-0.000133496
0.00309761
-0.000128114
0.00322167