/*--------------------------------*- C++ -*----------------------------------*\
| =========                 |                                                 |
| \\      /  F ield         | OpenFOAM: The Open Source CFD Toolbox           |
|  \\    /   O peration     | Version:  2112                                  |
|   \\  /    A nd           | Website:  www.openfoam.com                      |
|    \\/     M anipulation  |                                                 |
\*---------------------------------------------------------------------------*/
FoamFile
{
    version     2.0;
    format      ascii;
    arch        "LSB;label=32;scalar=64";
    class       volScalarField;
    location    "9";
    object      T;
}
// * * * * * * * * * * * * * * * * * * * * * * * * * * * * * * * * * * * * * //

dimensions      [0 0 0 1 0 0 0];

internalField   nonuniform List<scalar> 
5250
(
1.00001
1.00002
1.00009
1.00016
1.00051
1.00094
1.00284
1.0057
1.01522
1.03839
1.08781
1.26128
1.66657
2.46425
2.72035
2.72538
2.7253
2.7308
2.74427
2.75793
2.7705
2.77855
2.78595
2.79089
2.79484
1.00001
1.00002
1.00009
1.00016
1.0005
1.00092
1.00279
1.00564
1.01492
1.03811
1.0866
1.25942
1.65602
2.45787
2.71787
2.72534
2.72519
2.73057
2.74383
2.75723
2.76952
2.77739
2.78457
2.78855
2.7921
1.00001
1.00002
1.00008
1.00015
1.00049
1.0009
1.00269
1.0055
1.01442
1.03735
1.0844
1.25517
1.63597
2.44162
2.71112
2.72428
2.724
2.72909
2.74214
2.75512
2.76729
2.77443
2.78197
2.78606
2.78811
1.00001
1.00002
1.00008
1.00015
1.00047
1.00086
1.00254
1.0053
1.01367
1.03616
1.08105
1.24844
1.60563
2.41486
2.69989
2.72244
2.72187
2.72595
2.73904
2.75086
2.76345
2.77038
2.77546
2.78048
2.78355
1.00001
1.00002
1.00007
1.00014
1.00044
1.00081
1.00238
1.00502
1.01283
1.03427
1.07643
1.23845
1.56542
2.37474
2.6836
2.71987
2.71872
2.72085
2.73336
2.7442
2.75557
2.76457
2.77018
2.77268
2.77332
1.00001
1.00002
1.00007
1.00013
1.00041
1.00076
1.00221
1.00468
1.0119
1.03192
1.07084
1.22265
1.51306
2.31731
2.65998
2.71678
2.71489
2.71509
2.72695
2.73681
2.74568
2.75152
2.75789
2.76184
2.76407
1.00001
1.00002
1.00006
1.00012
1.00037
1.00069
1.00203
1.00429
1.01096
1.0292
1.06524
1.20275
1.46634
2.24264
2.62823
2.71235
2.70912
2.70684
2.71786
2.72814
2.73766
2.74258
2.74604
2.74645
2.74436
1.00001
1.00002
1.00006
1.00011
1.00034
1.00063
1.00187
1.00384
1.01002
1.02585
1.05875
1.17916
1.41117
2.13728
2.58563
2.70534
2.70223
2.69523
2.70575
2.71209
2.7199
2.72295
2.72711
2.72616
2.72257
1.00001
1.00001
1.00005
1.0001
1.00031
1.00056
1.00171
1.00336
1.00911
1.02206
1.05172
1.15333
1.351
2.00553
2.53022
2.69157
2.68896
2.68218
2.69446
2.69975
2.7069
2.70617
2.70301
2.69479
2.67376
1.00001
1.00001
1.00004
1.00008
1.00026
1.00048
1.00143
1.00286
1.0076
1.01857
1.04352
1.12716
1.28759
1.80192
2.46762
2.664
2.66151
2.65428
2.66866
2.67263
2.67849
2.68012
2.67156
2.64988
2.60051
1
1.00001
1.00003
1.00009
1.00018
1.00055
1.00104
1.00303
1.00631
1.01654
1.04186
1.09755
1.27397
1.77458
2.41306
2.64654
2.63794
2.64203
2.65039
2.6572
2.65464
2.64823
2.62897
2.5815
2.42356
1
1.00001
1.00003
1.00006
1.0002
1.00037
1.00114
1.00217
1.00623
1.01342
1.03426
1.09307
1.21045
1.61386
2.41348
2.59905
2.61059
2.61333
2.61765
2.63064
2.63014
2.61699
2.5833
2.52542
2.3676
1
1.00001
1.00003
1.00006
1.00018
1.00032
1.00102
1.00186
1.00567
1.01126
1.03043
1.0771
1.17714
1.52301
2.30853
2.56185
2.60863
2.60046
2.59336
2.59794
2.59801
2.58621
2.54782
2.49239
2.36989
1
1.00001
1.00003
1.00005
1.00015
1.00027
1.00084
1.00155
1.00455
1.00948
1.02444
1.06511
1.14463
1.44278
2.13922
2.50079
2.60373
2.59199
2.58007
2.56689
2.56069
2.54739
2.51719
2.47322
2.37797
1
1.00001
1.00002
1.00004
1.00013
1.00023
1.00072
1.0013
1.00403
1.00767
1.0218
1.04954
1.12152
1.33506
1.94224
2.40379
2.58362
2.57477
2.56808
2.55194
2.53335
2.51541
2.47742
2.44674
2.37847
1
1
1.00002
1.00003
1.0001
1.00018
1.00058
1.00105
1.00326
1.00615
1.01787
1.0382
1.10001
1.24951
1.7451
2.31191
2.54492
2.54376
2.54007
2.53121
2.51244
2.49511
2.45521
2.41384
2.37001
1
1
1.00001
1.00003
1.00008
1.00014
1.00046
1.00082
1.00253
1.00487
1.01335
1.03151
1.07419
1.21381
1.52306
2.22724
2.50841
2.52681
2.51458
2.50684
2.48784
2.46944
2.44437
2.39573
2.35523
1
1
1.00001
1.00002
1.00006
1.00011
1.00035
1.00064
1.00195
1.00383
1.01029
1.02485
1.05795
1.17133
1.39144
2.03567
2.43222
2.51357
2.49963
2.4917
2.47394
2.44499
2.42117
2.38385
2.33664
1
1
1.00001
1.00002
1.00005
1.00009
1.00027
1.0005
1.00151
1.00292
1.00798
1.01852
1.04433
1.12709
1.28651
1.79447
2.29712
2.47863
2.47761
2.46948
2.45903
2.43482
2.40817
2.37519
2.33184
1
1
1
1.00002
1.00003
1.00009
1.00016
1.0005
1.00093
1.0028
1.00547
1.01531
1.03386
1.08697
1.21587
1.63681
2.17681
2.43418
2.44907
2.44248
2.4289
2.41183
2.39116
2.36765
2.33272
1
1
1
1.00001
1.00002
1.00007
1.00012
1.00037
1.00068
1.00209
1.00402
1.01106
1.02553
1.06106
1.17047
1.41907
1.99107
2.35738
2.43252
2.42907
2.41676
2.39435
2.37059
2.34799
2.32861
1
1
1
1.00001
1.00002
1.00004
1.00012
1.00021
1.00066
1.00123
1.00365
1.00734
1.0197
1.04728
1.11384
1.30511
1.86653
2.20328
2.3724
2.4022
2.39994
2.38846
2.3671
2.33855
2.31715
1
1
1
1.00001
1.00001
1.00003
1.00006
1.00019
1.00036
1.00107
1.00207
1.00571
1.0127
1.03135
1.08524
1.1894
1.53563
2.17157
2.31989
2.34653
2.35777
2.3613
2.3563
2.33916
2.31863
1
1
1
1
1.00001
1.00002
1.00006
1.00011
1.00032
1.00061
1.0017
1.00365
1.00908
1.02373
1.05325
1.15632
1.34966
1.93172
2.27952
2.34208
2.33831
2.33261
2.32849
2.32715
2.32131
1
1
1
1
1.00001
1.00001
1.00004
1.00008
1.00024
1.00043
1.00135
1.00246
1.00728
1.01492
1.03838
1.09939
1.22797
1.61131
2.11627
2.32023
2.32599
2.32494
2.31575
2.31399
2.31806
1
1
1
1
1.00001
1.00001
1.00003
1.00005
1.00016
1.0003
1.00092
1.00171
1.00493
1.01032
1.02619
1.06922
1.15074
1.44768
2.01702
2.26324
2.31778
2.31677
2.31646
2.31614
2.3255
1
1
1
1
1
1.00001
1.00002
1.00005
1.00009
1.00027
1.00049
1.00145
1.00288
1.00761
1.01805
1.04253
1.11968
1.26709
1.7357
2.14627
2.30062
2.31309
2.31881
2.32867
2.34319
1
1
1
1
1
1.00001
1.00001
1.00003
1.00006
1.00019
1.00035
1.00108
1.00196
1.00596
1.01155
1.03118
1.0746
1.17634
1.47111
2.02518
2.25435
2.31827
2.33502
2.35417
2.37426
1
1
1
1
1
1
1.00001
1.00002
1.00004
1.00013
1.00024
1.00074
1.00136
1.0041
1.00791
1.02185
1.05031
1.12017
1.32751
1.87148
2.14841
2.30602
2.36641
2.40335
2.42244
1
1
1
1
1
1
1.00001
1.00001
1.00004
1.00007
1.00021
1.00039
1.00119
1.00223
1.00647
1.01324
1.03445
1.08444
1.20531
1.51817
2.10462
2.30622
2.40527
2.44088
2.45481
1
1
1
1
1
1
1
1.00001
1.00003
1.00005
1.00016
1.00028
1.00088
1.00159
1.00479
1.00944
1.02511
1.06228
1.1411
1.41011
2.00667
2.32288
2.48442
2.5019
2.49633
1
1
1
1
1
1
1
1.00001
1.00002
1.00004
1.00012
1.00021
1.00066
1.00121
1.00368
1.00709
1.02006
1.04458
1.11294
1.29236
1.84233
2.31438
2.55946
2.56575
2.54274
1
1
1
1
1
1
1
1.00001
1.00001
1.00004
1.00007
1.00021
1.0004
1.00121
1.00236
1.00663
1.01481
1.03691
1.10125
1.23643
1.64641
2.42896
2.63159
2.62346
2.56941
1
1
1
1
1
1
1
1
1.00001
1.00002
1.00008
1.00014
1.00043
1.00083
1.00236
1.0052
1.01309
1.03572
1.07966
1.24383
1.61018
2.36587
2.71469
2.7083
2.63546
1
1
1
1
1
1
1
1
1.00001
1.00002
1.00007
1.00013
1.0004
1.00074
1.00227
1.0046
1.01256
1.03183
1.07439
1.22514
1.56188
2.32128
2.72855
2.74388
2.68568
1
1
1
1
1
1
1
1
1.00001
1.00002
1.00006
1.00011
1.00033
1.00067
1.00181
1.00442
1.01064
1.03047
1.0673
1.21515
1.52551
2.26383
2.73646
2.76051
2.71695
1
1
1
1
1
1
1
1
1.00001
1.00002
1.00004
1.00014
1.00026
1.00075
1.00162
1.00419
1.01083
1.02554
1.07605
1.16287
1.54564
2.29396
2.73543
2.76059
2.72553
1
1
1
1
1
1
1
1
1.00001
1.00002
1.00004
1.00013
1.00024
1.00074
1.0015
1.00398
1.00993
1.0233
1.07016
1.14815
1.5072
2.23945
2.73793
2.75936
2.72787
1
1
1
1
1
1
1
1
1.00001
1.00002
1.00005
1.00009
1.00027
1.00055
1.00148
1.00361
1.00859
1.02469
1.05401
1.17419
1.40292
2.07982
2.72627
2.76315
2.72936
1
1
1
1
1
1
1
1
1.00001
1.00002
1.00005
1.00009
1.00029
1.00053
1.00167
1.00324
1.00893
1.02161
1.05133
1.15436
1.36317
1.99361
2.68188
2.75669
2.72831
1
1
1
1
1
1
1
1
1.00001
1.00001
1.00005
1.00008
1.00026
1.00048
1.00139
1.00301
1.00759
1.02037
1.04616
1.14113
1.32479
1.90168
2.62323
2.75747
2.73545
1
1
1
1
1
1
1
1
1.00001
1.00002
1.00004
1.00011
1.0002
1.00064
1.00119
1.00364
1.00727
1.01994
1.04875
1.11681
1.33136
1.94918
2.55699
2.75498
2.73776
1
1
1
1
1
1
1
1
1.00001
1.00002
1.00003
1.00011
1.0002
1.00063
1.00115
1.00359
1.00687
1.01981
1.0447
1.11295
1.30674
1.90456
2.54141
2.75652
2.73669
1
1
1
1
1
1
1
1
1.00001
1.00002
1.00003
1.0001
1.00019
1.0006
1.0011
1.00337
1.00665
1.0183
1.04416
1.10572
1.29946
1.85633
2.53792
2.7533
2.73338
1
1
1
1
1
1
1
1
1.00001
1.00001
1.00004
1.00008
1.00024
1.00043
1.00134
1.00258
1.00719
1.01634
1.04022
1.11401
1.2622
1.72336
2.58405
2.75078
2.72138
1
1
1
1
1
1
1
1
1.00001
1.00001
1.00004
1.00007
1.00024
1.00042
1.00135
1.00248
1.00745
1.01542
1.04056
1.10654
1.2551
1.70077
2.58115
2.74945
2.71585
1
1
1
1
1
1
1
1
1.00001
1.00001
1.00004
1.00007
1.00022
1.00041
1.00127
1.00242
1.00693
1.01521
1.03858
1.1058
1.24732
1.69161
2.5743
2.74332
2.71849
1
1
1
1
1
1
1
1
1
1.00001
1.00003
1.00009
1.00016
1.00047
1.00097
1.00256
1.00619
1.01467
1.04154
1.08999
1.2788
1.73082
2.49672
2.74495
2.72958
1
1
1
1
1
1
1
1
1.00001
1.00001
1.00004
1.00007
1.00022
1.0004
1.00124
1.00237
1.00682
1.01487
1.0379
1.1031
1.24105
1.67622
2.55002
2.7307
2.72221
1
1
1
1
1
1
1
1
1.00001
1.00001
1.00004
1.00007
1.00022
1.0004
1.00128
1.00236
1.0071
1.01457
1.03858
1.10043
1.23895
1.66846
2.55323
2.73439
2.72598
2.44757
2.75865
2.96978
3.21385
3.18675
3.15122
3.13747
3.12503
3.10977
3.0912
3.07625
3.06362
3.05486
3.05199
3.05122
3.05364
3.0593
3.06782
3.07814
3.08711
3.09839
3.10648
3.11613
3.12386
3.13128
3.13699
3.14232
3.14582
3.14743
3.14799
3.14785
3.14468
3.14089
3.13487
3.12997
3.1233
3.12035
3.11349
3.10623
3.09948
3.09356
3.08248
3.07617
3.06532
3.05841
3.04652
3.03847
3.02595
3.01706
3.00573
2.99597
2.9839
2.97378
2.96101
2.95062
2.93791
2.9275
2.91448
2.90379
2.89132
2.87987
2.86772
2.85584
2.84362
2.832
2.81958
2.80822
2.79568
2.78456
2.77178
2.76103
2.7481
2.73753
2.7248
2.71404
2.70184
2.69071
2.67906
2.66776
2.65644
2.64531
2.63411
2.62333
2.61224
2.60183
2.59089
2.58083
2.57008
2.56044
2.54991
2.54073
2.53055
2.52193
2.51241
2.50453
2.49602
2.48947
2.48263
2.47873
2.47393
2.3453
2.52149
2.70793
3.02359
3.17451
3.28335
3.37979
3.38557
3.38908
3.39106
3.39314
3.39371
3.39289
3.40002
3.40169
3.40223
3.39959
3.39494
3.38729
3.37694
3.36701
3.35387
3.33959
3.32175
3.30421
3.28762
3.27933
3.26465
3.24971
3.23104
3.21506
3.19578
3.17709
3.15765
3.13943
3.12008
3.10262
3.08357
3.06462
3.04641
3.02696
3.01076
2.991
2.97588
2.95609
2.94198
2.92322
2.9087
2.89067
2.87662
2.86011
2.84626
2.83081
2.81733
2.80223
2.78936
2.77427
2.76202
2.74736
2.73546
2.72159
2.70976
2.69661
2.68468
2.67212
2.65997
2.64798
2.63567
2.62422
2.61192
2.60084
2.58884
2.57786
2.56643
2.5554
2.54458
2.53362
2.52321
2.51251
2.50231
2.49197
2.48187
2.4719
2.46186
2.45224
2.44229
2.43299
2.42317
2.41424
2.40461
2.39598
2.38672
2.37847
2.36983
2.36225
2.3546
2.34833
2.3423
2.33864
2.33471
2.3102
2.34739
2.45388
2.57259
2.76786
2.9417
3.16705
3.30016
3.38425
3.43604
3.46107
3.50972
3.53721
3.54279
3.5458
3.54208
3.53141
3.51158
3.48848
3.46166
3.43367
3.40399
3.37507
3.34103
3.3126
3.27953
3.2472
3.21401
3.17793
3.14418
3.10868
3.0749
3.0416
3.00972
2.97834
2.94857
2.91942
2.89127
2.86574
2.83926
2.81699
2.7928
2.77246
2.75119
2.73276
2.71323
2.69565
2.67735
2.66114
2.64474
2.62927
2.61422
2.59927
2.58512
2.57096
2.55754
2.54431
2.53154
2.51912
2.50701
2.49532
2.48379
2.47284
2.46175
2.45146
2.44072
2.43086
2.42048
2.41077
2.4009
2.39104
2.38183
2.37169
2.36313
2.35278
2.3447
2.33438
2.32657
2.31645
2.30882
2.29896
2.29146
2.28192
2.2745
2.26519
2.25786
2.24889
2.24168
2.23304
2.22613
2.21795
2.2115
2.20384
2.19804
2.19111
2.18623
2.18054
2.17714
2.17383
2.1724
2.31273
2.28033
2.31692
2.36027
2.44799
2.56063
2.68527
2.87285
3.02549
3.19403
3.29191
3.3623
3.4087
3.43587
3.43465
3.42143
3.39576
3.3642
3.3256
3.28337
3.2424
3.20082
3.16001
3.11597
3.07429
3.02903
2.98811
2.94513
2.90617
2.86729
2.83226
2.79777
2.76714
2.73654
2.70972
2.6832
2.66028
2.63829
2.61924
2.60068
2.58475
2.56873
2.555
2.54156
2.52955
2.51755
2.50558
2.49413
2.48282
2.47262
2.46189
2.45217
2.44164
2.43225
2.42202
2.413
2.4031
2.39438
2.38481
2.3763
2.36703
2.35862
2.34956
2.34122
2.3323
2.32405
2.31519
2.30713
2.29825
2.29042
2.28148
2.27387
2.26489
2.25741
2.24846
2.24099
2.23213
2.22461
2.21592
2.20828
2.19975
2.19204
2.18369
2.17595
2.16784
2.16014
2.15222
2.14461
2.13687
2.12945
2.12193
2.11489
2.10773
2.10125
2.09475
2.0891
2.08381
2.07949
2.0765
2.07403
2.31197
2.27435
2.2533
2.27177
2.29965
2.35697
2.42271
2.50535
2.61266
2.70529
2.8163
2.90518
2.96962
3.01094
3.0144
3.00326
2.97771
2.94904
2.91685
2.88442
2.84784
2.81253
2.77589
2.74124
2.70612
2.67339
2.64281
2.61443
2.58999
2.56707
2.54797
2.5304
2.5161
2.50251
2.49175
2.48109
2.47279
2.46412
2.45725
2.44977
2.44352
2.43661
2.43057
2.42444
2.41886
2.41299
2.40656
2.39986
2.39313
2.3866
2.38001
2.37341
2.36673
2.35992
2.35321
2.34616
2.33946
2.33213
2.32545
2.31781
2.31117
2.3032
2.29651
2.28824
2.28137
2.27294
2.26581
2.2574
2.24998
2.24171
2.23405
2.22594
2.21818
2.21019
2.20243
2.19445
2.18665
2.17854
2.17072
2.16262
2.15495
2.14696
2.13942
2.1316
2.1242
2.11657
2.10929
2.10187
2.09473
2.08754
2.0806
2.07372
2.06715
2.06071
2.05479
2.04905
2.04427
2.03975
2.03717
2.03438
2.31173
2.26642
2.24435
2.22595
2.23816
2.25726
2.29624
2.33724
2.38937
2.45055
2.50036
2.55512
2.58234
2.60314
2.59808
2.58679
2.56419
2.5407
2.51903
2.50161
2.4867
2.47273
2.46056
2.44922
2.43885
2.43
2.42222
2.41579
2.41069
2.40638
2.40324
2.39998
2.3979
2.39544
2.39394
2.39184
2.39042
2.38833
2.38639
2.38394
2.38114
2.37805
2.37444
2.37109
2.36741
2.3638
2.35902
2.35397
2.3484
2.34299
2.33733
2.33155
2.32573
2.31947
2.31347
2.30673
2.30062
2.29346
2.28728
2.27978
2.27354
2.26581
2.25946
2.25162
2.24502
2.23716
2.2302
2.22238
2.21506
2.20739
2.19984
2.1923
2.1847
2.17718
2.16947
2.16193
2.15428
2.14674
2.13918
2.1316
2.12417
2.11655
2.10927
2.10164
2.09452
2.08693
2.07998
2.07253
2.0658
2.05864
2.05217
2.04546
2.03939
2.03331
2.02789
2.02269
2.01839
2.01456
2.01239
2.01024
2.3097
2.26333
2.2364
2.21891
2.20713
2.21703
2.23126
2.26097
2.28581
2.32166
2.35197
2.37206
2.39038
2.38872
2.38047
2.36757
2.35327
2.34064
2.33005
2.32131
2.32135
2.32203
2.32342
2.3247
2.32525
2.32666
2.32727
2.32857
2.32962
2.33139
2.33267
2.33428
2.33532
2.33628
2.33634
2.33613
2.33538
2.33451
2.33263
2.3312
2.32829
2.32602
2.32218
2.31945
2.31559
2.31259
2.30787
2.30353
2.29783
2.2929
2.2871
2.28185
2.27597
2.2702
2.26413
2.25773
2.25144
2.24444
2.238
2.23059
2.22408
2.21646
2.20983
2.20216
2.19531
2.18768
2.18055
2.173
2.16566
2.15821
2.15073
2.14345
2.13582
2.12871
2.12122
2.11433
2.10695
2.10024
2.09301
2.08644
2.07936
2.07288
2.06599
2.05959
2.05289
2.04661
2.0401
2.03399
2.0277
2.02185
2.01586
2.01037
2.00483
1.99986
1.995
1.99084
1.98716
1.9843
1.98273
1.98126
2.30205
2.26383
2.22944
2.21639
2.20193
2.20506
2.21464
2.23476
2.25489
2.27304
2.29315
2.29982
2.30426
2.29344
2.27987
2.26314
2.25086
2.24113
2.23567
2.23134
2.23133
2.23577
2.24225
2.24812
2.25347
2.25748
2.26116
2.26398
2.2666
2.26864
2.27087
2.27259
2.27457
2.27571
2.27675
2.27667
2.2764
2.27583
2.27462
2.27361
2.27155
2.26987
2.26681
2.26451
2.26131
2.2587
2.25477
2.2509
2.24584
2.24122
2.23598
2.23107
2.22578
2.22043
2.21494
2.20898
2.2032
2.1967
2.19064
2.18382
2.17756
2.17061
2.16411
2.15712
2.15027
2.14322
2.13597
2.12889
2.12129
2.11425
2.10638
2.09944
2.09153
2.08475
2.07687
2.07019
2.06241
2.05581
2.04818
2.04166
2.03424
2.02779
2.02062
2.01428
2.0074
2.00123
1.99465
1.98874
1.98249
1.97695
1.9711
1.96605
1.96072
1.95632
1.9518
1.94839
1.94521
1.94329
1.94234
1.94152
2.28984
2.26037
2.22878
2.21128
2.20075
2.20175
2.21407
2.22966
2.25034
2.2651
2.2766
2.28173
2.27539
2.25901
2.23876
2.21991
2.20471
2.19378
2.18828
2.18414
2.18389
2.18459
2.19046
2.19728
2.20414
2.20985
2.21496
2.21866
2.22234
2.22501
2.22803
2.23032
2.23292
2.23474
2.23642
2.23755
2.23832
2.23872
2.23852
2.23807
2.237
2.23576
2.23347
2.23134
2.22888
2.2264
2.22334
2.21954
2.21526
2.21058
2.20601
2.20098
2.19632
2.19087
2.18597
2.17999
2.17476
2.16832
2.16279
2.15606
2.15027
2.14344
2.13737
2.1305
2.12406
2.11714
2.11027
2.10331
2.09604
2.08914
2.08172
2.07496
2.06747
2.06083
2.05334
2.04675
2.03931
2.0327
2.02537
2.01871
2.01155
2.00487
1.99793
1.99132
1.98464
1.97821
1.9718
1.96566
1.95957
1.95382
1.94817
1.94296
1.93791
1.93341
1.9294
1.92602
1.92362
1.92198
1.92183
1.92067
2.29022
2.26134
2.23314
2.21825
2.21054
2.2122
2.2248
2.23856
2.25163
2.26549
2.27093
2.27336
2.26008
2.23752
2.21395
2.19347
2.17612
2.16402
2.15505
2.15124
2.14732
2.14685
2.14724
2.15185
2.15762
2.16381
2.16937
2.17446
2.17813
2.18159
2.18423
2.18708
2.18947
2.19173
2.1935
2.19481
2.19574
2.19623
2.19638
2.19615
2.19532
2.19437
2.19236
2.19068
2.18835
2.18633
2.18356
2.18036
2.17654
2.17241
2.16824
2.16358
2.15922
2.15405
2.1494
2.1437
2.13868
2.13256
2.12721
2.12087
2.11525
2.10886
2.10299
2.0966
2.09039
2.08396
2.07732
2.07087
2.06396
2.05758
2.05052
2.04427
2.03723
2.03113
2.02418
2.01819
2.01132
2.00534
1.99854
1.99251
1.98578
1.97973
1.97318
1.96717
1.96095
1.95511
1.94932
1.94381
1.93847
1.9335
1.92864
1.9244
1.92015
1.91693
1.9138
1.91196
1.91067
1.91075
1.91197
1.91059
2.2944
2.2663
2.24385
2.22948
2.22818
2.23377
2.24759
2.26018
2.26989
2.27654
2.27904
2.27089
2.25226
2.22826
2.20376
2.18242
2.16467
2.15032
2.13973
2.13194
2.12706
2.12382
2.12216
2.12219
2.12484
2.12985
2.13475
2.13991
2.14461
2.14865
2.15222
2.15535
2.15815
2.16049
2.16257
2.16423
2.16566
2.16677
2.1675
2.16801
2.16787
2.16733
2.16601
2.16477
2.16273
2.16118
2.15883
2.15629
2.15295
2.14942
2.14561
2.14143
2.13725
2.13248
2.12793
2.12264
2.11769
2.11201
2.10666
2.10074
2.09502
2.08901
2.08295
2.07692
2.07049
2.06438
2.05762
2.05144
2.04436
2.0381
2.03078
2.02451
2.01709
2.01086
2.00352
1.99731
1.99015
1.98388
1.97692
1.97057
1.96379
1.95742
1.95081
1.94458
1.93821
1.93227
1.9263
1.92073
1.9154
1.91031
1.90579
1.90134
1.89791
1.89461
1.89267
1.89122
1.89133
1.8918
1.89354
1.89221
2.29598
2.27507
2.26082
2.25421
2.25481
2.26454
2.27265
2.28456
2.28834
2.29223
2.28538
2.26985
2.24794
2.22447
2.2019
2.18111
2.16303
2.14705
2.13368
2.12248
2.11377
2.10779
2.10385
2.1019
2.10086
2.10186
2.1051
2.10845
2.11341
2.11833
2.12283
2.12664
2.12989
2.13242
2.13463
2.13622
2.13773
2.13883
2.1398
2.14028
2.14051
2.14019
2.13918
2.13813
2.13649
2.13514
2.13324
2.13096
2.12812
2.12477
2.12136
2.11729
2.11344
2.10878
2.1045
2.09935
2.09462
2.08909
2.08396
2.07819
2.07271
2.06682
2.06102
2.05501
2.04884
2.04279
2.03629
2.03022
2.02342
2.01737
2.01042
2.00443
1.9975
1.99154
1.98477
1.97879
1.97223
1.96614
1.9598
1.95358
1.94743
1.94119
1.93522
1.92916
1.92339
1.91774
1.91229
1.90728
1.90229
1.89806
1.89373
1.89047
1.88746
1.88556
1.88451
1.8847
1.88565
1.8867
1.88967
1.88926
2.30253
2.28774
2.27984
2.27968
2.2855
2.2925
2.30174
2.30561
2.30853
2.30156
2.28682
2.26714
2.24606
2.22451
2.20399
2.18402
2.16566
2.1487
2.13299
2.11958
2.10766
2.0985
2.09109
2.08666
2.08338
2.08234
2.08195
2.08353
2.08665
2.09121
2.09595
2.1007
2.1043
2.10749
2.10977
2.11162
2.11327
2.11447
2.11565
2.11628
2.11684
2.11677
2.11612
2.11541
2.11394
2.11293
2.11122
2.10934
2.10671
2.10374
2.10045
2.09668
2.09284
2.08841
2.08408
2.07917
2.07438
2.06915
2.06392
2.05849
2.05286
2.04728
2.04132
2.03558
2.0295
2.02359
2.0174
2.01124
2.00494
1.99856
1.99218
1.98575
1.97931
1.973
1.96651
1.96038
1.95389
1.94789
1.94147
1.93553
1.9293
1.92336
1.91748
1.9116
1.90623
1.90063
1.8959
1.89096
1.88691
1.88297
1.87975
1.87733
1.87555
1.87513
1.87547
1.87644
1.87811
1.88088
1.88509
1.88723
2.31437
2.31355
2.31198
2.31541
2.32101
2.32428
2.32807
2.32639
2.31819
2.3025
2.28448
2.26479
2.24509
2.22575
2.2066
2.18803
2.16953
2.152
2.1351
2.11996
2.10615
2.0949
2.08519
2.07807
2.07255
2.06916
2.06692
2.06619
2.06633
2.06855
2.07219
2.07675
2.08099
2.08504
2.08793
2.09082
2.09276
2.09451
2.09593
2.09686
2.09757
2.09781
2.09737
2.09677
2.09546
2.09454
2.09304
2.09127
2.08903
2.08612
2.08323
2.0795
2.07605
2.07172
2.06774
2.06299
2.05854
2.05347
2.04856
2.04319
2.03782
2.03221
2.02644
2.02082
2.01482
2.00918
2.00299
1.99717
1.99083
1.98468
1.97829
1.97187
1.96554
1.95901
1.95281
1.94635
1.94023
1.93395
1.92782
1.9218
1.91563
1.9099
1.90383
1.89844
1.89277
1.88782
1.88296
1.87864
1.87482
1.87144
1.86916
1.86738
1.86721
1.86759
1.86855
1.87063
1.87341
1.87851
1.88482
1.8882
2.32836
2.33482
2.34455
2.35269
2.3567
2.35961
2.35707
2.34709
2.32851
2.30906
2.28888
2.26985
2.25032
2.23226
2.21354
2.19589
2.1773
2.15976
2.142
2.12575
2.11047
2.09718
2.08562
2.07591
2.06797
2.06185
2.05719
2.05436
2.05294
2.05303
2.054
2.05699
2.06117
2.06516
2.06878
2.07201
2.07416
2.07614
2.07722
2.07812
2.07853
2.07859
2.07813
2.07747
2.07613
2.07512
2.07368
2.0721
2.06982
2.06725
2.06426
2.06108
2.05758
2.05388
2.04991
2.04571
2.0413
2.03663
2.03183
2.0267
2.02155
2.01605
2.01074
2.00508
1.9996
1.99385
1.98813
1.98228
1.97627
1.97029
1.96406
1.95794
1.95164
1.94544
1.9392
1.93299
1.92693
1.92075
1.91492
1.90883
1.90322
1.89735
1.89194
1.88652
1.88146
1.8768
1.87238
1.8687
1.86526
1.86316
1.86145
1.8615
1.86198
1.8632
1.86507
1.86902
1.87413
1.88112
1.88829
1.89156
2.33874
2.35797
2.36937
2.37899
2.3837
2.38149
2.37106
2.35252
2.33192
2.31223
2.29366
2.27539
2.25772
2.23975
2.22235
2.20417
2.18647
2.16813
2.1504
2.13311
2.11704
2.10244
2.08913
2.07764
2.06727
2.05894
2.05186
2.04659
2.04304
2.04104
2.04022
2.04029
2.04156
2.0443
2.04748
2.0502
2.0527
2.05457
2.05599
2.05691
2.0574
2.05745
2.05704
2.05599
2.05491
2.05332
2.05205
2.05014
2.04816
2.04553
2.04277
2.03969
2.03634
2.03284
2.02895
2.025
2.02065
2.01625
2.0115
2.00667
2.0016
1.99646
1.99126
1.98589
1.98058
1.97506
1.96961
1.964
1.95839
1.9527
1.94691
1.94114
1.93521
1.92939
1.92341
1.91761
1.91173
1.90603
1.90036
1.89485
1.88954
1.8843
1.87949
1.87474
1.87061
1.86664
1.86338
1.86045
1.85862
1.85759
1.85779
1.85868
1.85988
1.86258
1.86621
1.87271
1.87938
1.88669
1.89354
1.89627
2.36261
2.37921
2.39557
2.40136
2.40377
2.39503
2.37596
2.35493
2.33434
2.31603
2.29859
2.2823
2.26552
2.2489
2.23173
2.21432
2.19664
2.17826
2.16064
2.14273
2.12645
2.11037
2.09634
2.08265
2.07071
2.05919
2.04987
2.04141
2.03517
2.03002
2.02706
2.02438
2.02339
2.02233
2.02331
2.02533
2.02758
2.02953
2.03132
2.03245
2.0332
2.03326
2.033
2.03215
2.03092
2.02944
2.02813
2.02635
2.02457
2.02204
2.01959
2.01649
2.01342
2.00982
2.00614
2.00213
1.99788
1.99352
1.98874
1.98408
1.97896
1.97412
1.96889
1.96386
1.95859
1.95337
1.94805
1.94269
1.93729
1.93184
1.92638
1.92093
1.91542
1.91004
1.90454
1.89933
1.89391
1.88893
1.8837
1.87896
1.87412
1.86965
1.86546
1.86147
1.85821
1.85495
1.85282
1.851
1.85085
1.85123
1.85226
1.85436
1.8573
1.86249
1.86884
1.87648
1.88379
1.89046
1.89637
1.89824
2.39052
2.40424
2.40753
2.41078
2.4016
2.38667
2.36664
2.34754
2.33023
2.31433
2.29893
2.28378
2.26874
2.25301
2.23711
2.22034
2.20332
2.18552
2.16768
2.14971
2.13251
2.11574
2.10003
2.08486
2.07081
2.05757
2.04581
2.03498
2.02605
2.01808
2.01219
2.00723
2.004
2.00091
1.99991
1.99906
2.00017
2.00208
2.00409
2.0058
2.00718
2.00784
2.00813
2.00782
2.00679
2.00574
2.00436
2.00314
2.00146
1.99948
1.99715
1.99447
1.99162
1.98828
1.98495
1.981
1.9772
1.97274
1.96845
1.96372
1.95907
1.95427
1.94935
1.94449
1.93941
1.93442
1.92927
1.92406
1.91891
1.91345
1.90837
1.90274
1.89769
1.8921
1.88705
1.88173
1.87667
1.87185
1.86688
1.86271
1.85806
1.85456
1.85069
1.84793
1.84509
1.84325
1.84204
1.8422
1.84287
1.84444
1.84654
1.85067
1.85616
1.8636
1.87115
1.87874
1.88537
1.89072
1.89509
1.89616
2.43401
2.4355
2.43286
2.42075
2.39788
2.3744
2.35496
2.33691
2.32104
2.3061
2.29262
2.27867
2.26452
2.2496
2.23414
2.21813
2.20153
2.18458
2.16717
2.14997
2.13273
2.11611
2.09972
2.08413
2.06893
2.05477
2.04107
2.02894
2.01749
2.00762
1.99904
1.99221
1.98675
1.98257
1.97945
1.97763
1.97709
1.97706
1.97879
1.98055
1.98263
1.98429
1.98516
1.98595
1.98569
1.98498
1.98389
1.98313
1.98182
1.98046
1.97829
1.97624
1.97346
1.97084
1.96756
1.96427
1.96053
1.95651
1.95236
1.94782
1.94339
1.93861
1.93391
1.92907
1.92412
1.91931
1.91414
1.90932
1.90401
1.89906
1.89376
1.88856
1.88343
1.87802
1.87312
1.86772
1.86306
1.85797
1.85366
1.84917
1.8454
1.84187
1.8389
1.83646
1.8346
1.83383
1.83405
1.83513
1.83653
1.83949
1.84373
1.85035
1.85784
1.86554
1.87326
1.87925
1.88506
1.88792
1.89162
1.89137
2.4593
2.45504
2.44112
2.41489
2.39097
2.36872
2.35024
2.3337
2.3189
2.3045
2.29036
2.27616
2.26164
2.24684
2.23166
2.21631
2.20037
2.18419
2.16728
2.15051
2.1334
2.11687
2.10023
2.08432
2.06851
2.05341
2.03884
2.02524
2.01255
2.00112
1.99136
1.98243
1.97561
1.96953
1.96503
1.96116
1.95883
1.95764
1.95745
1.95805
1.95943
1.96216
1.96353
1.96525
1.96598
1.96619
1.96583
1.9651
1.96453
1.96349
1.96203
1.96012
1.95779
1.95537
1.95246
1.9494
1.94588
1.94208
1.93801
1.9337
1.92924
1.92459
1.91988
1.91509
1.91021
1.90544
1.90043
1.8957
1.89059
1.88586
1.88074
1.87598
1.87096
1.86622
1.8614
1.85682
1.85233
1.84809
1.84414
1.8405
1.83742
1.83471
1.83263
1.83098
1.83069
1.83099
1.83205
1.83374
1.83724
1.8419
1.84893
1.85589
1.86404
1.87063
1.87743
1.88154
1.88562
1.88683
1.88925
1.88828
2.48481
2.46111
2.43385
2.40653
2.38297
2.36311
2.34618
2.33106
2.3168
2.3033
2.28943
2.27557
2.26093
2.24618
2.23091
2.21553
2.19944
2.18327
2.16635
2.14984
2.13281
2.1165
2.09979
2.08384
2.0677
2.05254
2.0375
2.02352
2.01029
1.99833
1.98691
1.97679
1.96744
1.95956
1.95294
1.94749
1.94271
1.93973
1.938
1.93758
1.93767
1.93879
1.94118
1.9427
1.94526
1.94589
1.9472
1.94687
1.94659
1.94604
1.94527
1.94375
1.94173
1.93945
1.93673
1.93382
1.93051
1.92692
1.92321
1.91911
1.91507
1.91055
1.90624
1.90145
1.89696
1.89208
1.88746
1.88263
1.87788
1.87318
1.86834
1.86378
1.85896
1.85458
1.84997
1.84585
1.84167
1.83807
1.83454
1.83189
1.82932
1.82773
1.8264
1.82648
1.82723
1.82834
1.83096
1.8345
1.84092
1.84741
1.85559
1.86248
1.86991
1.87509
1.87987
1.88235
1.88447
1.88484
1.88601
1.88423
2.51727
2.47791
2.43994
2.40969
2.38559
2.36576
2.34834
2.33283
2.318
2.30402
2.28981
2.27575
2.26114
2.24644
2.23133
2.216
2.20019
2.18408
2.16772
2.15126
2.13485
2.1184
2.10215
2.08595
2.0701
2.05449
2.03943
2.02482
2.01086
1.99737
1.98468
1.97288
1.9624
1.95291
1.94492
1.93782
1.93234
1.927
1.92366
1.9215
1.92122
1.92149
1.92227
1.92424
1.92675
1.92899
1.9307
1.932
1.93198
1.9317
1.93125
1.93027
1.92872
1.92645
1.92367
1.92079
1.91728
1.914
1.90999
1.90625
1.90195
1.89779
1.89335
1.88885
1.88436
1.87959
1.87513
1.87015
1.86574
1.86074
1.85635
1.85156
1.84725
1.84281
1.83878
1.83484
1.83131
1.82822
1.82555
1.82367
1.82209
1.8216
1.82188
1.82279
1.82478
1.82764
1.83296
1.8391
1.84695
1.8544
1.86208
1.86839
1.874
1.87757
1.88036
1.88126
1.88183
1.88149
1.88146
1.87977
2.5257
2.48369
2.44956
2.42155
2.39919
2.38059
2.36327
2.34643
2.32889
2.31258
2.29657
2.28111
2.26545
2.25016
2.23442
2.21904
2.20283
2.18705
2.17045
2.1544
2.13797
2.12197
2.10583
2.08989
2.07408
2.05846
2.04318
2.02821
2.01371
1.99977
1.98638
1.97401
1.96203
1.9515
1.94162
1.93338
1.92605
1.92021
1.91514
1.91189
1.90986
1.90938
1.90974
1.9103
1.9118
1.914
1.91597
1.91783
1.91858
1.91909
1.91852
1.91797
1.91701
1.91539
1.91307
1.91013
1.90712
1.90368
1.90018
1.89637
1.89232
1.88825
1.8837
1.87949
1.87456
1.87026
1.86515
1.86074
1.85566
1.85112
1.84625
1.8417
1.83722
1.83287
1.829
1.82521
1.82226
1.8195
1.81793
1.81629
1.81629
1.81664
1.81764
1.81973
1.82405
1.82986
1.83713
1.84489
1.85249
1.86
1.86605
1.87122
1.87477
1.87672
1.87818
1.87794
1.87763
1.8772
1.87673
1.8752
2.57033
2.5076
2.46665
2.43805
2.41533
2.39663
2.37986
2.36431
2.34906
2.33344
2.31705
2.30084
2.2843
2.26811
2.25134
2.23488
2.21783
2.20158
2.18483
2.16868
2.15192
2.13531
2.11845
2.10168
2.08515
2.06881
2.05291
2.03741
2.02244
2.00802
1.99437
1.98129
1.96912
1.95778
1.94718
1.93792
1.92928
1.92233
1.91564
1.91024
1.90565
1.90321
1.90151
1.90129
1.90169
1.90261
1.90404
1.90612
1.90849
1.90964
1.91061
1.91033
1.90973
1.90879
1.90728
1.90513
1.90237
1.89936
1.89607
1.89257
1.88887
1.88495
1.88083
1.87651
1.87204
1.86734
1.86263
1.85766
1.8529
1.84787
1.84317
1.83844
1.83399
1.82992
1.826
1.82301
1.82015
1.81859
1.81705
1.81692
1.81705
1.81812
1.82095
1.82534
1.83183
1.83856
1.84638
1.85365
1.86053
1.86638
1.87054
1.87414
1.87524
1.87652
1.87607
1.87575
1.87507
1.87392
1.8728
1.87123
2.62049
2.56089
2.51267
2.47665
2.44845
2.42366
2.40088
2.38136
2.36352
2.34697
2.33084
2.31475
2.29871
2.28269
2.26649
2.25059
2.23424
2.21837
2.20182
2.18552
2.16875
2.15222
2.13563
2.11885
2.10246
2.08582
2.06996
2.05413
2.03906
2.02439
2.01025
1.99676
1.98372
1.97149
1.95978
1.94903
1.93904
1.93005
1.92223
1.91504
1.90888
1.90377
1.90031
1.898
1.89655
1.89653
1.89683
1.89747
1.8989
1.90032
1.90186
1.90278
1.90299
1.90273
1.90221
1.90121
1.89936
1.89686
1.89395
1.89082
1.88741
1.88377
1.87994
1.87585
1.8716
1.86711
1.86263
1.85782
1.85324
1.84835
1.84386
1.83927
1.83513
1.83126
1.82797
1.82541
1.82349
1.82229
1.82198
1.82212
1.82361
1.82728
1.83221
1.83861
1.84565
1.85287
1.86015
1.86606
1.87174
1.87512
1.87808
1.87936
1.87956
1.87928
1.87888
1.87806
1.87675
1.87495
1.87344
1.87189
2.65388
2.60701
2.56747
2.5328
2.49944
2.47022
2.44196
2.41601
2.39221
2.37071
2.35142
2.33299
2.31526
2.29802
2.28064
2.26416
2.24693
2.23073
2.21341
2.19714
2.1798
2.16327
2.1463
2.12968
2.11345
2.0973
2.08199
2.0667
2.05207
2.03771
2.02379
2.01031
1.9972
1.98454
1.97222
1.96047
1.94909
1.93862
1.9287
1.91995
1.91188
1.90477
1.89903
1.89502
1.8924
1.89138
1.89154
1.89262
1.89363
1.89595
1.89743
1.90041
1.9014
1.90273
1.90256
1.90219
1.9014
1.89985
1.89754
1.89457
1.8914
1.88782
1.88417
1.88021
1.87618
1.872
1.86765
1.8634
1.85904
1.85486
1.85078
1.84693
1.84338
1.84044
1.838
1.83645
1.83525
1.83489
1.83516
1.8373
1.84127
1.84673
1.85294
1.86029
1.86685
1.87377
1.87909
1.88359
1.88701
1.8885
1.88992
1.88956
1.889
1.88834
1.8875
1.88594
1.88402
1.88199