/*--------------------------------*- C++ -*----------------------------------*\
| =========                 |                                                 |
| \\      /  F ield         | OpenFOAM: The Open Source CFD Toolbox           |
|  \\    /   O peration     | Version:  2112                                  |
|   \\  /    A nd           | Website:  www.openfoam.com                      |
|    \\/     M anipulation  |                                                 |
\*---------------------------------------------------------------------------*/
FoamFile
{
    version     2.0;
    format      ascii;
    arch        "LSB;label=32;scalar=64";
    class       volVectorField;
    location    "9";
    object      U;
}
// * * * * * * * * * * * * * * * * * * * * * * * * * * * * * * * * * * * * * //

dimensions      [0 1 -1 0 0 0 0];

internalField   nonuniform List<vector> 
5250
(
(2.99999 1.66108e-08 0)
(2.99998 1.29757e-07 0)
(2.99994 3.99205e-07 0)
(2.99987 1.20679e-06 0)
(2.99966 2.89234e-06 0)
(2.99924 7.46089e-06 0)
(2.99797 1.82147e-05 0)
(2.99572 3.97656e-05 0)
(2.98747 0.000107409 0)
(2.97358 0.000204977 0)
(2.92047 0.000548926 0)
(2.78949 0.00126894 0)
(2.4329 0.00349712 0)
(1.37306 0.00935684 0)
(0.619678 0.0209672 0)
(0.567624 0.0226116 0)
(0.583068 0.0239591 0)
(0.566675 0.0253973 0)
(0.508908 0.0270623 0)
(0.421586 0.0291383 0)
(0.34175 0.0317335 0)
(0.273318 0.0347422 0)
(0.202783 0.0380266 0)
(0.122283 0.0420168 0)
(0.0545025 0.0479923 0)
(2.99999 4.87865e-08 0)
(2.99998 3.79558e-07 0)
(2.99994 1.16862e-06 0)
(2.99987 3.52071e-06 0)
(2.99966 8.40707e-06 0)
(2.99926 2.17537e-05 0)
(2.998 5.19816e-05 0)
(2.99579 0.000118307 0)
(2.9876 0.000301278 0)
(2.97395 0.000630309 0)
(2.92131 0.00161447 0)
(2.79207 0.0038133 0)
(2.4391 0.0110778 0)
(1.38502 0.0287981 0)
(0.627924 0.0637923 0)
(0.566112 0.065746 0)
(0.581254 0.0669318 0)
(0.564919 0.0686052 0)
(0.507367 0.0712078 0)
(0.420312 0.0750347 0)
(0.340425 0.0796264 0)
(0.271441 0.0845776 0)
(0.20002 0.0893856 0)
(0.118352 0.0944282 0)
(0.050411 0.0999618 0)
(2.99999 7.91262e-08 0)
(2.99998 6.15216e-07 0)
(2.99994 1.89443e-06 0)
(2.99987 5.70738e-06 0)
(2.99967 1.36099e-05 0)
(2.99928 3.53868e-05 0)
(2.99805 8.35778e-05 0)
(2.99593 0.00019613 0)
(2.98789 0.000480098 0)
(2.97468 0.00107816 0)
(2.923 0.00267202 0)
(2.79788 0.00645891 0)
(2.45232 0.019115 0)
(1.41075 0.0496514 0)
(0.647224 0.111017 0)
(0.564175 0.111932 0)
(0.579522 0.112358 0)
(0.564323 0.115565 0)
(0.508182 0.120471 0)
(0.422216 0.127775 0)
(0.342723 0.13612 0)
(0.27352 0.145083 0)
(0.201495 0.15391 0)
(0.118879 0.162445 0)
(0.0494974 0.169659 0)
(2.99999 1.03832e-07 0)
(2.99998 8.06953e-07 0)
(2.99995 2.48431e-06 0)
(2.99988 7.49004e-06 0)
(2.99969 1.78193e-05 0)
(2.99931 4.67908e-05 0)
(2.99813 0.000108346 0)
(2.99612 0.000267472 0)
(2.98833 0.000618795 0)
(2.9758 0.0015516 0)
(2.92559 0.00366526 0)
(2.80675 0.00928569 0)
(2.47274 0.0269159 0)
(1.45219 0.0713688 0)
(0.677802 0.160594 0)
(0.560632 0.15802 0)
(0.577991 0.156397 0)
(0.565639 0.161788 0)
(0.511665 0.169188 0)
(0.427708 0.180109 0)
(0.349108 0.192519 0)
(0.280071 0.205918 0)
(0.207516 0.219507 0)
(0.123185 0.232367 0)
(0.0507472 0.241826 0)
(2.99999 1.21024e-07 0)
(2.99998 9.39444e-07 0)
(2.99995 2.89147e-06 0)
(2.99989 8.71858e-06 0)
(2.9997 2.06657e-05 0)
(2.99936 5.49099e-05 0)
(2.99823 0.000123798 0)
(2.99635 0.000324841 0)
(2.98895 0.000704879 0)
(2.97726 0.00199396 0)
(2.92914 0.00437645 0)
(2.81877 0.012718 0)
(2.50058 0.0342279 0)
(1.51243 0.0949272 0)
(0.720978 0.214742 0)
(0.555251 0.204841 0)
(0.577272 0.199422 0)
(0.56968 0.206793 0)
(0.518226 0.216626 0)
(0.437003 0.231185 0)
(0.3597 0.24797 0)
(0.29102 0.266331 0)
(0.217901 0.285333 0)
(0.131223 0.303374 0)
(0.0541277 0.315862 0)
(2.99999 1.33129e-07 0)
(2.99998 1.0329e-06 0)
(2.99995 3.17825e-06 0)
(2.9999 9.58779e-06 0)
(2.99972 2.26601e-05 0)
(2.9994 6.07724e-05 0)
(2.99835 0.000134465 0)
(2.99661 0.000367796 0)
(2.98971 0.000771263 0)
(2.9789 0.00231171 0)
(2.93409 0.00483051 0)
(2.83365 0.0158387 0)
(2.53648 0.0388187 0)
(1.60144 0.119074 0)
(0.782654 0.272807 0)
(0.551349 0.252873 0)
(0.58075 0.24214 0)
(0.579427 0.251091 0)
(0.530252 0.263251 0)
(0.452014 0.281589 0)
(0.376159 0.303185 0)
(0.307937 0.327434 0)
(0.233994 0.35342 0)
(0.143756 0.378874 0)
(0.059906 0.396771 0)
(2.99999 1.41697e-07 0)
(2.99998 1.09859e-06 0)
(2.99996 3.37948e-06 0)
(2.9999 1.01986e-05 0)
(2.99975 2.4015e-05 0)
(2.99945 6.51459e-05 0)
(2.99849 0.000140589 0)
(2.99688 0.000405512 0)
(2.99056 0.000810299 0)
(2.98068 0.00262032 0)
(2.93986 0.00531373 0)
(2.84928 0.0182717 0)
(2.57975 0.0432015 0)
(1.72087 0.141501 0)
(0.859974 0.333808 0)
(0.548151 0.302508 0)
(0.588535 0.285603 0)
(0.59564 0.295532 0)
(0.548842 0.309639 0)
(0.474049 0.331887 0)
(0.399901 0.358814 0)
(0.332484 0.39001 0)
(0.258202 0.424869 0)
(0.163954 0.461247 0)
(0.0702736 0.489559 0)
(3 1.48854e-07 0)
(2.99999 1.15145e-06 0)
(2.99996 3.54274e-06 0)
(2.99991 1.06786e-05 0)
(2.99977 2.5061e-05 0)
(2.9995 6.85621e-05 0)
(2.99864 0.000144215 0)
(2.99717 0.000438102 0)
(2.99154 0.000820651 0)
(2.98269 0.00293023 0)
(2.94651 0.0057443 0)
(2.86753 0.0202459 0)
(2.63042 0.0482204 0)
(1.87016 0.157955 0)
(0.959312 0.388392 0)
(0.553426 0.350101 0)
(0.60548 0.32894 0)
(0.621297 0.338835 0)
(0.576418 0.354663 0)
(0.505432 0.381286 0)
(0.433323 0.414428 0)
(0.367236 0.454188 0)
(0.293627 0.500458 0)
(0.196154 0.553338 0)
(0.0886921 0.602662 0)
(3 1.7195e-07 0)
(2.99999 1.33052e-06 0)
(2.99997 4.08935e-06 0)
(2.99992 1.23394e-05 0)
(2.9998 2.91092e-05 0)
(2.99955 7.88315e-05 0)
(2.9988 0.00017182 0)
(2.99745 0.000489715 0)
(2.99262 0.000984811 0)
(2.98482 0.00319621 0)
(2.95367 0.00642697 0)
(2.88718 0.0216936 0)
(2.68521 0.0522982 0)
(2.04084 0.167835 0)
(1.08234 0.432604 0)
(0.580645 0.404244 0)
(0.638031 0.381676 0)
(0.659772 0.384952 0)
(0.616485 0.401272 0)
(0.549175 0.430636 0)
(0.479243 0.470437 0)
(0.4153 0.518818 0)
(0.345479 0.579013 0)
(0.250201 0.657513 0)
(0.124029 0.750666 0)
(3 1.43176e-08 0)
(2.99999 1.60251e-06 0)
(2.99997 2.69771e-06 0)
(2.99993 1.38607e-05 0)
(2.99983 1.97873e-05 0)
(2.99962 8.66069e-05 0)
(2.99898 0.000112068 0)
(2.99785 0.000539806 0)
(2.99379 0.00051244 0)
(2.98727 0.00376792 0)
(2.96138 0.00239849 0)
(2.90817 0.0252543 0)
(2.74296 0.0319971 0)
(2.23096 0.152831 0)
(1.25965 0.380411 0)
(0.662108 0.432226 0)
(0.697266 0.436521 0)
(0.715827 0.43156 0)
(0.674008 0.450242 0)
(0.60923 0.480823 0)
(0.540978 0.526026 0)
(0.480108 0.582427 0)
(0.421242 0.661006 0)
(0.343239 0.781485 0)
(0.192575 0.989013 0)
(3 1.21693e-07 0)
(2.99999 9.39822e-07 0)
(2.99998 2.89727e-06 0)
(2.99994 8.69296e-06 0)
(2.99986 2.04986e-05 0)
(2.99962 5.48123e-05 0)
(2.99917 0.000118721 0)
(2.99778 0.000336469 0)
(2.99529 0.00064713 0)
(2.98642 0.00217791 0)
(2.97073 0.00417579 0)
(2.91402 0.0135057 0)
(2.77239 0.0366469 0)
(2.39092 0.0919932 0)
(1.36112 0.300113 0)
(0.712269 0.462709 0)
(0.721115 0.48931 0)
(0.746036 0.484136 0)
(0.725348 0.50153 0)
(0.67181 0.53175 0)
(0.612519 0.578799 0)
(0.563128 0.642159 0)
(0.532436 0.735127 0)
(0.530431 0.880819 0)
(0.559635 1.12018 0)
(3 2.55617e-07 0)
(2.99999 4.90489e-07 0)
(2.99998 3.74057e-06 0)
(2.99995 5.5585e-06 0)
(2.99986 2.60731e-05 0)
(2.9997 3.63542e-05 0)
(2.99921 0.000159593 0)
(2.99829 0.00020805 0)
(2.99532 0.00101593 0)
(2.99021 0.00103635 0)
(2.97078 0.00706003 0)
(2.9353 0.00614385 0)
(2.8062 0.0448289 0)
(2.44807 0.0758204 0)
(1.6147 0.255919 0)
(0.809167 0.51691 0)
(0.736404 0.535945 0)
(0.762149 0.534463 0)
(0.761974 0.547819 0)
(0.727209 0.578842 0)
(0.685228 0.625911 0)
(0.654467 0.692973 0)
(0.653266 0.788605 0)
(0.703022 0.924338 0)
(0.81956 1.09992 0)
(3 1.1298e-07 0)
(2.99999 8.84178e-07 0)
(2.99998 2.71787e-06 0)
(2.99995 8.25678e-06 0)
(2.99988 1.95569e-05 0)
(2.99974 5.25448e-05 0)
(2.99932 0.0001182 0)
(2.9985 0.000313899 0)
(2.99599 0.000690204 0)
(2.99146 0.00191284 0)
(2.97519 0.00405773 0)
(2.94557 0.0122207 0)
(2.83696 0.0278124 0)
(2.54016 0.0877541 0)
(1.83216 0.225721 0)
(0.935446 0.559382 0)
(0.74685 0.567647 0)
(0.774528 0.569488 0)
(0.791662 0.582434 0)
(0.776744 0.616474 0)
(0.753943 0.664567 0)
(0.744033 0.730237 0)
(0.763764 0.817439 0)
(0.832511 0.925688 0)
(0.963911 1.03417 0)
(3 1.10392e-07 0)
(2.99999 8.5686e-07 0)
(2.99998 2.63712e-06 0)
(2.99996 7.95254e-06 0)
(2.9999 1.88496e-05 0)
(2.99978 5.0129e-05 0)
(2.99943 0.000112793 0)
(2.99876 0.000295489 0)
(2.99665 0.000646048 0)
(2.99302 0.00179105 0)
(2.97924 0.00362122 0)
(2.95553 0.0116946 0)
(2.86489 0.0245862 0)
(2.62698 0.0850079 0)
(2.03679 0.211026 0)
(1.07737 0.585299 0)
(0.762388 0.595022 0)
(0.790516 0.598985 0)
(0.820999 0.609653 0)
(0.823891 0.644709 0)
(0.816819 0.69346 0)
(0.822963 0.754001 0)
(0.856043 0.826998 0)
(0.928508 0.908994 0)
(1.05297 0.979119 0)
(3 9.89496e-08 0)
(2.99999 7.64518e-07 0)
(2.99999 2.35448e-06 0)
(2.99997 7.06948e-06 0)
(2.99992 1.67112e-05 0)
(2.99981 4.42009e-05 0)
(2.99952 9.88695e-05 0)
(2.99894 0.000259659 0)
(2.99723 0.000552267 0)
(2.99395 0.00160186 0)
(2.98331 0.00303796 0)
(2.96343 0.0107998 0)
(2.89338 0.0207469 0)
(2.71325 0.0781688 0)
(2.24922 0.189919 0)
(1.25999 0.566542 0)
(0.815511 0.619807 0)
(0.823619 0.632162 0)
(0.856366 0.638076 0)
(0.872802 0.668509 0)
(0.875833 0.713998 0)
(0.890965 0.767904 0)
(0.9308 0.827524 0)
(1.00217 0.889288 0)
(1.11457 0.939002 0)
(3 9.40155e-08 0)
(3 7.31084e-07 0)
(2.99999 2.25003e-06 0)
(2.99997 6.7927e-06 0)
(2.99993 1.6112e-05 0)
(2.99985 4.2889e-05 0)
(2.99961 9.67157e-05 0)
(2.99914 0.000251925 0)
(2.99777 0.000562048 0)
(2.9951 0.00146649 0)
(2.98682 0.00330227 0)
(2.97056 0.00883575 0)
(2.91755 0.0202311 0)
(2.78425 0.0599826 0)
(2.43168 0.153032 0)
(1.47409 0.460191 0)
(0.908502 0.630705 0)
(0.870416 0.66238 0)
(0.895148 0.673529 0)
(0.921122 0.69307 0)
(0.931514 0.730445 0)
(0.950992 0.776439 0)
(0.992578 0.825354 0)
(1.06046 0.872458 0)
(1.16042 0.909244 0)
(3 8.21081e-08 0)
(3 6.37915e-07 0)
(2.99999 1.96363e-06 0)
(2.99998 5.9203e-06 0)
(2.99995 1.40415e-05 0)
(2.99988 3.72879e-05 0)
(2.9997 8.40907e-05 0)
(2.99933 0.000217705 0)
(2.99824 0.000488747 0)
(2.99624 0.00124452 0)
(2.98941 0.00287298 0)
(2.97775 0.00708738 0)
(2.93398 0.0174495 0)
(2.83243 0.0452294 0)
(2.54685 0.119166 0)
(1.68708 0.344817 0)
(1.01874 0.655416 0)
(0.904688 0.69218 0)
(0.923105 0.709112 0)
(0.955752 0.717754 0)
(0.978276 0.745222 0)
(1.00286 0.782801 0)
(1.04468 0.822714 0)
(1.10811 0.859269 0)
(1.19639 0.886624 0)
(3 6.81647e-08 0)
(3 5.26244e-07 0)
(2.99999 1.62168e-06 0)
(2.99998 4.86469e-06 0)
(2.99996 1.15298e-05 0)
(2.99991 3.04156e-05 0)
(2.99976 6.84103e-05 0)
(2.99948 0.000176405 0)
(2.99862 0.000390229 0)
(2.99709 0.00102256 0)
(2.99166 0.00219843 0)
(2.98285 0.00617899 0)
(2.94799 0.0132105 0)
(2.87327 0.039886 0)
(2.64824 0.0991838 0)
(1.93992 0.301169 0)
(1.1881 0.686778 0)
(0.940393 0.722629 0)
(0.947185 0.736463 0)
(0.981652 0.739176 0)
(1.01636 0.756545 0)
(1.04669 0.786893 0)
(1.08839 0.819553 0)
(1.14733 0.848238 0)
(1.22533 0.868227 0)
(3 3.12946e-08 0)
(3 4.78975e-07 0)
(2.99999 1.12179e-06 0)
(2.99999 4.26317e-06 0)
(2.99997 8.09243e-06 0)
(2.99993 2.63622e-05 0)
(2.99982 4.76894e-05 0)
(2.9996 0.000152521 0)
(2.99895 0.000265488 0)
(2.99775 0.000901313 0)
(2.99368 0.00140519 0)
(2.987 0.00577688 0)
(2.96099 0.00804373 0)
(2.90795 0.0383983 0)
(2.74289 0.0707631 0)
(2.22871 0.265204 0)
(1.43212 0.645649 0)
(1.02631 0.739682 0)
(0.994358 0.755374 0)
(1.0152 0.759618 0)
(1.05353 0.767679 0)
(1.0881 0.790259 0)
(1.12776 0.81639 0)
(1.18101 0.838691 0)
(1.24972 0.852816 0)
(3 2.59567e-08 0)
(3 3.78295e-07 0)
(3 9.02118e-07 0)
(2.99999 3.38321e-06 0)
(2.99998 6.53858e-06 0)
(2.99994 2.1009e-05 0)
(2.99987 3.88388e-05 0)
(2.99966 0.000121836 0)
(2.99925 0.000219778 0)
(2.99804 0.00071563 0)
(2.9957 0.00118216 0)
(2.98842 0.00454801 0)
(2.97418 0.0063584 0)
(2.92833 0.0295087 0)
(2.81539 0.0515342 0)
(2.50164 0.185958 0)
(1.68085 0.511876 0)
(1.1359 0.749419 0)
(1.04685 0.776151 0)
(1.05421 0.786156 0)
(1.08946 0.785718 0)
(1.12673 0.797443 0)
(1.16403 0.815173 0)
(1.21113 0.830698 0)
(1.27113 0.839971 0)
(3 5.81536e-08 0)
(3 2.11003e-07 0)
(3 1.00539e-06 0)
(2.99999 2.1108e-06 0)
(2.99998 7.0095e-06 0)
(2.99996 1.34037e-05 0)
(2.9999 4.1624e-05 0)
(2.99975 7.77396e-05 0)
(2.99944 0.000240221 0)
(2.99855 0.000441531 0)
(2.99687 0.00140287 0)
(2.99134 0.00247485 0)
(2.98175 0.00859211 0)
(2.94668 0.0146154 0)
(2.86755 0.0550352 0)
(2.64072 0.114992 0)
(1.95569 0.380666 0)
(1.29417 0.749949 0)
(1.09422 0.797465 0)
(1.08754 0.811057 0)
(1.11713 0.80786 0)
(1.15846 0.806984 0)
(1.19546 0.81521 0)
(1.23792 0.82381 0)
(1.29036 0.828607 0)
(3 3.61245e-08 0)
(3 1.97032e-07 0)
(3 7.32328e-07 0)
(2.99999 1.87941e-06 0)
(2.99999 5.16498e-06 0)
(2.99997 1.18361e-05 0)
(2.99992 3.06884e-05 0)
(2.99982 6.8576e-05 0)
(2.99955 0.000176218 0)
(2.99901 0.000389938 0)
(2.99739 0.00101855 0)
(2.99438 0.0021983 0)
(2.98435 0.00613078 0)
(2.96564 0.0130973 0)
(2.90137 0.0380253 0)
(2.74012 0.100453 0)
(2.29974 0.272021 0)
(1.49684 0.721272 0)
(1.16299 0.816766 0)
(1.12771 0.828645 0)
(1.14409 0.827789 0)
(1.18347 0.818528 0)
(1.22279 0.817409 0)
(1.2624 0.81943 0)
(1.30758 0.818167 0)
(3 2.15437e-08 0)
(3 1.68108e-07 0)
(3 5.17328e-07 0)
(3 1.56371e-06 0)
(2.99999 3.71017e-06 0)
(2.99998 9.86597e-06 0)
(2.99995 2.22712e-05 0)
(2.99987 5.77446e-05 0)
(2.99971 0.000128962 0)
(2.99925 0.000332546 0)
(2.99838 0.00074687 0)
(2.9956 0.00191768 0)
(2.99083 0.0043169 0)
(2.97315 0.0113594 0)
(2.94036 0.026639 0)
(2.82736 0.0728948 0)
(2.52007 0.20683 0)
(1.82598 0.54294 0)
(1.27088 0.817413 0)
(1.17526 0.840969 0)
(1.17648 0.845951 0)
(1.20773 0.834089 0)
(1.24709 0.823193 0)
(1.28392 0.817708 0)
(1.32157 0.808225 0)
(3 2.3959e-08 0)
(3 9.13154e-08 0)
(3 4.20154e-07 0)
(3 9.10827e-07 0)
(2.99999 2.93063e-06 0)
(2.99998 5.77853e-06 0)
(2.99996 1.73275e-05 0)
(2.99991 3.34057e-05 0)
(2.99978 9.90871e-05 0)
(2.99952 0.000188821 0)
(2.99871 0.000571418 0)
(2.99735 0.00104472 0)
(2.99222 0.00347828 0)
(2.98413 0.00571173 0)
(2.95243 0.022305 0)
(2.88604 0.0391051 0)
(2.68144 0.14325 0)
(2.08948 0.377637 0)
(1.44867 0.799537 0)
(1.22343 0.857454 0)
(1.20725 0.8615 0)
(1.22651 0.849686 0)
(1.26437 0.829838 0)
(1.29992 0.814907 0)
(1.33007 0.795697 0)
(3 1.09403e-08 0)
(3 8.45959e-08 0)
(3 2.60907e-07 0)
(3 7.82269e-07 0)
(2.99999 1.85331e-06 0)
(2.99999 4.87112e-06 0)
(2.99997 1.09301e-05 0)
(2.99994 2.79838e-05 0)
(2.99984 6.18122e-05 0)
(2.99965 0.00015984 0)
(2.99909 0.000341094 0)
(2.99802 0.00095036 0)
(2.99471 0.00188164 0)
(2.98886 0.00592117 0)
(2.96817 0.0117597 0)
(2.92683 0.0370937 0)
(2.79796 0.0890969 0)
(2.40428 0.272087 0)
(1.72378 0.676363 0)
(1.32463 0.842707 0)
(1.25667 0.86039 0)
(1.25582 0.856343 0)
(1.28247 0.834127 0)
(1.31289 0.807563 0)
(1.33402 0.777097 0)
(3 6.15271e-09 0)
(3 7.07151e-08 0)
(3 1.83763e-07 0)
(3 6.37437e-07 0)
(3 1.32339e-06 0)
(2.99999 3.95679e-06 0)
(2.99998 7.87429e-06 0)
(2.99996 2.28129e-05 0)
(2.99989 4.49333e-05 0)
(2.99976 0.000129685 0)
(2.99937 0.000253159 0)
(2.99864 0.000743275 0)
(2.99635 0.00139098 0)
(2.99239 0.00446325 0)
(2.97788 0.00739269 0)
(2.9521 0.0279725 0)
(2.86 0.0498474 0)
(2.61181 0.183384 0)
(2.03612 0.449599 0)
(1.43484 0.826763 0)
(1.29005 0.867692 0)
(1.27692 0.862028 0)
(1.29185 0.839532 0)
(1.31552 0.800414 0)
(1.33 0.754142 0)
(3 4.15562e-09 0)
(3 4.8353e-08 0)
(3 1.24935e-07 0)
(3 4.35812e-07 0)
(3 8.99217e-07 0)
(2.99999 2.69789e-06 0)
(2.99999 5.32754e-06 0)
(2.99997 1.54731e-05 0)
(2.99993 3.01973e-05 0)
(2.99982 8.7349e-05 0)
(2.9996 0.000169192 0)
(2.99897 0.000496903 0)
(2.99781 0.000933298 0)
(2.99387 0.00295641 0)
(2.98739 0.00508157 0)
(2.96286 0.018809 0)
(2.91371 0.0327543 0)
(2.75738 0.122605 0)
(2.30841 0.309094 0)
(1.66108 0.743379 0)
(1.34806 0.861691 0)
(1.29967 0.86272 0)
(1.29859 0.836004 0)
(1.30773 0.787462 0)
(1.316 0.725109 0)
(3 5.10204e-09 0)
(3 2.75016e-08 0)
(3 1.02282e-07 0)
(3 2.6226e-07 0)
(3 7.17353e-07 0)
(3 1.64031e-06 0)
(2.99999 4.2174e-06 0)
(2.99998 9.39597e-06 0)
(2.99995 2.38427e-05 0)
(2.99987 5.26733e-05 0)
(2.99971 0.000134126 0)
(2.99927 0.000292346 0)
(2.9984 0.000772836 0)
(2.99585 0.00159778 0)
(2.99107 0.00470536 0)
(2.97528 0.00927782 0)
(2.94465 0.0293135 0)
(2.84475 0.0677717 0)
(2.56323 0.207477 0)
(1.96296 0.546307 0)
(1.44647 0.837659 0)
(1.31966 0.859202 0)
(1.2954 0.816993 0)
(1.29042 0.754273 0)
(1.29016 0.680218 0)
(3 4.45113e-09 0)
(3 1.81645e-08 0)
(3 8.02035e-08 0)
(3 1.78712e-07 0)
(3 5.57684e-07 0)
(3 1.12698e-06 0)
(2.99999 3.27915e-06 0)
(2.99998 6.49303e-06 0)
(2.99996 1.86018e-05 0)
(2.99991 3.66333e-05 0)
(2.9998 0.000104799 0)
(2.9995 0.000205335 0)
(2.9989 0.000592111 0)
(2.99714 0.00114322 0)
(2.9938 0.00343932 0)
(2.98306 0.00622389 0)
(2.96306 0.0213096 0)
(2.89462 0.038833 0)
(2.72056 0.140571 0)
(2.28125 0.337062 0)
(1.59379 0.786829 0)
(1.32165 0.851149 0)
(1.26382 0.786771 0)
(1.25434 0.701244 0)
(1.25661 0.620045 0)
(3 3.01102e-09 0)
(3 1.19769e-08 0)
(3 5.37179e-08 0)
(3 1.18367e-07 0)
(3 3.73413e-07 0)
(3 7.46649e-07 0)
(3 2.19379e-06 0)
(2.99999 4.29593e-06 0)
(2.99997 1.24265e-05 0)
(2.99994 2.41929e-05 0)
(2.99986 6.98965e-05 0)
(2.99968 0.000135432 0)
(2.99919 0.000394261 0)
(2.99822 0.000754797 0)
(2.99532 0.00227353 0)
(2.98999 0.00413761 0)
(2.97223 0.014009 0)
(2.93646 0.0239541 0)
(2.82354 0.0892727 0)
(2.51659 0.206172 0)
(1.87531 0.570292 0)
(1.35594 0.791127 0)
(1.21776 0.728512 0)
(1.20694 0.635071 0)
(1.2236 0.557528 0)
(3 1.26483e-09 0)
(3 9.75915e-09 0)
(3 3.01118e-08 0)
(3 8.99786e-08 0)
(3 2.13107e-07 0)
(3 5.56651e-07 0)
(3 1.24994e-06 0)
(2.99999 3.16637e-06 0)
(2.99998 7.01986e-06 0)
(2.99996 1.76491e-05 0)
(2.9999 3.8954e-05 0)
(2.99977 9.78431e-05 0)
(2.99941 0.000215225 0)
(2.99871 0.000544374 0)
(2.99662 0.0011831 0)
(2.99283 0.00311851 0)
(2.97964 0.00650699 0)
(2.95626 0.0185127 0)
(2.87184 0.0423937 0)
(2.65617 0.123906 0)
(2.14001 0.328416 0)
(1.38681 0.698416 0)
(1.12593 0.653363 0)
(1.13241 0.570402 0)
(1.17629 0.501259 0)
(3 5.58823e-10 0)
(3 7.45923e-09 0)
(3 1.83049e-08 0)
(3 6.64153e-08 0)
(3 1.30773e-07 0)
(3 4.06528e-07 0)
(3 7.63179e-07 0)
(2.99999 2.2995e-06 0)
(2.99999 4.24527e-06 0)
(2.99997 1.27569e-05 0)
(2.99992 2.32438e-05 0)
(2.99983 7.03692e-05 0)
(2.99956 0.000125822 0)
(2.99902 0.000389369 0)
(2.99746 0.000662679 0)
(2.99443 0.00224551 0)
(2.98489 0.00320324 0)
(2.96652 0.014126 0)
(2.90496 0.017739 0)
(2.75085 0.0878158 0)
(2.35379 0.169996 0)
(1.44822 0.508025 0)
(1.02592 0.544645 0)
(1.03825 0.501782 0)
(1.11207 0.455432 0)
(3 5.32691e-10 0)
(3 4.10085e-09 0)
(3 1.26645e-08 0)
(3 3.77518e-08 0)
(3 8.94297e-08 0)
(3 2.3284e-07 0)
(3 5.22805e-07 0)
(3 1.31881e-06 0)
(2.99999 2.92499e-06 0)
(2.99997 7.31023e-06 0)
(2.99994 1.61656e-05 0)
(2.99985 4.01914e-05 0)
(2.99968 8.88999e-05 0)
(2.99916 0.000217572 0)
(2.99816 0.000494252 0)
(2.99495 0.00113064 0)
(2.98941 0.00275564 0)
(2.96856 0.00579755 0)
(2.92821 0.0148312 0)
(2.79066 0.0339613 0)
(2.40677 0.0911719 0)
(1.56849 0.236095 0)
(0.926098 0.39507 0)
(0.917701 0.416435 0)
(1.02262 0.413418 0)
(3 6.02476e-10 0)
(3 1.45651e-09 0)
(3 9.23131e-09 0)
(3 1.55637e-08 0)
(3 6.33985e-08 0)
(3 9.8367e-08 0)
(3 3.70178e-07 0)
(3 5.55328e-07 0)
(2.99999 2.08317e-06 0)
(2.99998 3.03217e-06 0)
(2.99995 1.16224e-05 0)
(2.99989 1.62107e-05 0)
(2.99971 6.46907e-05 0)
(2.99936 8.2697e-05 0)
(2.99822 0.000371585 0)
(2.99631 0.000348291 0)
(2.98876 0.00234554 0)
(2.97648 0.000727007 0)
(2.92753 0.0143351 0)
(2.81039 0.00509537 0)
(2.48482 0.063325 0)
(1.53709 0.114714 0)
(0.833547 0.276702 0)
(0.778725 0.331024 0)
(0.909771 0.362851 0)
(3 1.96027e-10 0)
(3 1.51716e-09 0)
(3 4.67398e-09 0)
(3 1.40034e-08 0)
(3 3.31294e-08 0)
(3 8.694e-08 0)
(3 1.9513e-07 0)
(3 4.9832e-07 0)
(2.99999 1.10709e-06 0)
(2.99998 2.81512e-06 0)
(2.99995 6.25636e-06 0)
(2.9999 1.57955e-05 0)
(2.99973 3.57884e-05 0)
(2.99941 8.64368e-05 0)
(2.99839 0.00020445 0)
(2.9966 0.000470591 0)
(2.98976 0.00105195 0)
(2.97853 0.0026954 0)
(2.93322 0.00582678 0)
(2.82658 0.0152285 0)
(2.52024 0.0385639 0)
(1.5723 0.100655 0)
(0.79114 0.227142 0)
(0.653928 0.263038 0)
(0.801224 0.305425 0)
(3 -6.02131e-11 0)
(3 1.44269e-09 0)
(3 1.56873e-09 0)
(3 1.20811e-08 0)
(3 1.22227e-08 0)
(3 7.41631e-08 0)
(3 7.31917e-08 0)
(3 4.3103e-07 0)
(2.99999 4.17377e-07 0)
(2.99998 2.50673e-06 0)
(2.99996 2.37255e-06 0)
(2.99991 1.4824e-05 0)
(2.99976 1.30048e-05 0)
(2.9995 9.25291e-05 0)
(2.99854 4.82226e-05 0)
(2.99702 0.000636469 0)
(2.9906 -7.37721e-05 0)
(2.98048 0.00437909 0)
(2.93745 -0.00153746 0)
(2.83881 0.0271437 0)
(2.54916 0.0107421 0)
(1.63286 0.109423 0)
(0.794885 0.215011 0)
(0.570291 0.22017 0)
(0.7241 0.256284 0)
(3 -1.08536e-10 0)
(3 9.55475e-10 0)
(3 2.4157e-10 0)
(3 7.68182e-09 0)
(3 2.71877e-09 0)
(3 4.65993e-08 0)
(3 1.57305e-08 0)
(3 2.67586e-07 0)
(2.99999 7.50144e-08 0)
(2.99998 1.52558e-06 0)
(2.99996 2.99145e-07 0)
(2.99991 8.94426e-06 0)
(2.9998 1.9543e-07 0)
(2.99944 5.96482e-05 0)
(2.99884 -2.62665e-05 0)
(2.9965 0.000486287 0)
(2.99283 -0.000356322 0)
(2.97735 0.00379178 0)
(2.9503 -0.00236013 0)
(2.84127 0.0243577 0)
(2.54822 0.00602362 0)
(1.81822 0.0945165 0)
(0.82659 0.218083 0)
(0.521624 0.196444 0)
(0.674621 0.216136 0)
(3 2.57157e-10 0)
(3 9.92765e-11 0)
(3 3.15297e-09 0)
(3 2.20955e-09 0)
(3 2.16566e-08 0)
(3 1.63196e-08 0)
(3 1.31322e-07 0)
(3 1.02717e-07 0)
(2.99999 7.78364e-07 0)
(2.99998 6.12258e-07 0)
(2.99997 4.61658e-06 0)
(2.99991 3.42491e-06 0)
(2.99981 2.85087e-05 0)
(2.99948 1.29893e-05 0)
(2.99889 0.000202242 0)
(2.99675 -2.96527e-05 0)
(2.99335 0.0014887 0)
(2.97902 -0.000611057 0)
(2.9545 0.0100536 0)
(2.85317 -0.00168625 0)
(2.5835 0.059521 0)
(1.90059 0.079901 0)
(0.851371 0.251523 0)
(0.468657 0.200592 0)
(0.637158 0.192383 0)
(3 2.14158e-10 0)
(3 -1.26741e-10 0)
(3 2.3008e-09 0)
(3 2.33039e-11 0)
(3 1.55663e-08 0)
(3 2.04976e-09 0)
(3 9.39546e-08 0)
(3 1.62979e-08 0)
(2.99999 5.54648e-07 0)
(2.99999 1.03222e-07 0)
(2.99997 3.26854e-06 0)
(2.99993 5.55694e-07 0)
(2.99981 1.9647e-05 0)
(2.99959 1.47994e-06 0)
(2.9988 0.00013239 0)
(2.99756 -4.15506e-05 0)
(2.99235 0.00109456 0)
(2.98427 -0.00062652 0)
(2.94966 0.00862864 0)
(2.87454 -0.00209151 0)
(2.64201 0.0515863 0)
(1.9019 0.0824527 0)
(0.925826 0.272402 0)
(0.467272 0.203541 0)
(0.646977 0.170977 0)
(3 3.47884e-11 0)
(3 2.77505e-10 0)
(3 8.44283e-10 0)
(3 2.60086e-09 0)
(3 6.15076e-09 0)
(3 1.68367e-08 0)
(3 3.80025e-08 0)
(3 1.02469e-07 0)
(2.99999 2.28375e-07 0)
(2.99999 6.22576e-07 0)
(2.99997 1.37674e-06 0)
(2.99993 3.92256e-06 0)
(2.99981 8.16685e-06 0)
(2.99957 2.78613e-05 0)
(2.99886 4.73119e-05 0)
(2.99755 0.000214277 0)
(2.99288 0.000385714 0)
(2.9853 0.00156438 0)
(2.95417 0.00329013 0)
(2.8876 0.0123909 0)
(2.68035 0.0311215 0)
(2.01104 0.102132 0)
(1.00496 0.278646 0)
(0.485477 0.20251 0)
(0.675128 0.162423 0)
(3 -1.18572e-10 0)
(3 6.37578e-10 0)
(3 -3.71058e-10 0)
(3 4.91212e-09 0)
(3 -1.63538e-09 0)
(3 3.00478e-08 0)
(3 -7.88851e-09 0)
(3 1.77992e-07 0)
(2.99999 -3.7484e-08 0)
(2.99999 1.05595e-06 0)
(2.99997 -1.69598e-07 0)
(2.99993 6.32556e-06 0)
(2.99983 -7.94907e-07 0)
(2.99962 3.86706e-05 0)
(2.99896 -6.30462e-06 0)
(2.99785 0.000260183 0)
(2.99347 -0.000138851 0)
(2.98671 0.00219535 0)
(2.95843 -0.00151561 0)
(2.899 0.0166616 0)
(2.71373 0.00718341 0)
(2.12303 0.087817 0)
(1.08486 0.215835 0)
(0.499727 0.177755 0)
(0.690261 0.160982 0)
(3 -1.38013e-10 0)
(3 4.29994e-10 0)
(3 -9.35805e-10 0)
(3 3.0258e-09 0)
(3 -5.77386e-09 0)
(3 1.75863e-08 0)
(3 -3.44323e-08 0)
(3 9.84466e-08 0)
(3 -2.07711e-07 0)
(2.99999 5.44078e-07 0)
(2.99997 -1.2805e-06 0)
(2.99993 3.01265e-06 0)
(2.99983 -8.06171e-06 0)
(2.99957 1.83128e-05 0)
(2.99904 -5.58216e-05 0)
(2.99744 0.000151261 0)
(2.99448 -0.000423879 0)
(2.98417 0.00151407 0)
(2.96548 -0.00255243 0)
(2.89696 0.0118579 0)
(2.72156 -0.00203196 0)
(2.25597 0.0527313 0)
(1.08344 0.130938 0)
(0.463227 0.155303 0)
(0.665562 0.162115 0)
(3 3.67394e-11 0)
(3 1.9581e-10 0)
(3 7.40417e-10 0)
(3 1.89544e-09 0)
(3 5.33897e-09 0)
(3 1.22841e-08 0)
(3 3.29034e-08 0)
(3 7.41815e-08 0)
(3 1.97787e-07 0)
(2.99999 4.44258e-07 0)
(2.99997 1.19152e-06 0)
(2.99993 2.67396e-06 0)
(2.99984 7.24224e-06 0)
(2.99958 1.62668e-05 0)
(2.99907 4.47012e-05 0)
(2.99754 0.000100099 0)
(2.99461 0.000286786 0)
(2.98502 0.00061514 0)
(2.96697 0.00192394 0)
(2.90284 0.00432422 0)
(2.73909 0.0140165 0)
(2.29803 0.0352847 0)
(1.11867 0.100736 0)
(0.464814 0.152108 0)
(0.646769 0.158632 0)
(3 1.76364e-10 0)
(3 -1.29052e-10 0)
(3 1.85789e-09 0)
(3 -2.28003e-10 0)
(3 1.24073e-08 0)
(3 1.51553e-10 0)
(3 7.44813e-08 0)
(3 6.06275e-09 0)
(3 4.40535e-07 0)
(2.99999 6.33989e-08 0)
(2.99997 2.61696e-06 0)
(2.99993 5.29401e-07 0)
(2.99985 1.5729e-05 0)
(2.9996 3.74694e-06 0)
(2.99911 9.65138e-05 0)
(2.99764 1.34914e-05 0)
(2.99491 0.00064604 0)
(2.98553 -0.000216087 0)
(2.96862 0.00481868 0)
(2.90667 -0.00278149 0)
(2.74942 0.0277758 0)
(2.32683 0.0175346 0)
(1.1683 0.103931 0)
(0.485368 0.15057 0)
(0.636385 0.152235 0)
(3 1.6088e-10 0)
(3 -2.03002e-10 0)
(3 1.55089e-09 0)
(3 -8.98962e-10 0)
(3 1.03135e-08 0)
(3 -4.02748e-09 0)
(3 6.19531e-08 0)
(3 -1.90662e-08 0)
(3 3.64981e-07 0)
(2.99999 -9.18275e-08 0)
(2.99997 2.14674e-06 0)
(2.99994 -4.5795e-07 0)
(2.99984 1.272e-05 0)
(2.99965 -2.54377e-06 0)
(2.99908 7.70018e-05 0)
(2.998 -2.22258e-05 0)
(2.99442 0.000523549 0)
(2.98843 -0.000401558 0)
(2.96497 0.00419228 0)
(2.91907 -0.00364847 0)
(2.76553 0.0239269 0)
(2.30584 0.00926616 0)
(1.31288 0.0859374 0)
(0.56713 0.133305 0)
(0.666349 0.137538 0)
(3 2.75425e-11 0)
(3 2.16263e-10 0)
(3 6.61279e-10 0)
(3 2.00143e-09 0)
(3 4.74088e-09 0)
(3 1.26352e-08 0)
(3 2.8566e-08 0)
(3 7.39155e-08 0)
(3 1.65515e-07 0)
(2.99999 4.2295e-07 0)
(2.99997 9.43515e-07 0)
(2.99994 2.3861e-06 0)
(2.99984 5.28859e-06 0)
(2.99965 1.33171e-05 0)
(2.99909 2.88713e-05 0)
(2.99801 7.62483e-05 0)
(2.9946 0.000149317 0)
(2.98858 0.000482304 0)
(2.96632 0.000849054 0)
(2.92246 0.00304918 0)
(2.77299 0.00749655 0)
(2.333 0.0185828 0)
(1.36947 0.0579761 0)
(0.600774 0.108657 0)
(0.670163 0.117629 0)
(3 -8.15834e-11 0)
(3 6.41909e-10 0)
(3 9.16834e-11 0)
(3 5.10568e-09 0)
(3 1.57528e-09 0)
(3 3.1512e-08 0)
(3 1.20395e-08 0)
(3 1.87398e-07 0)
(3 8.33498e-08 0)
(2.99999 1.11236e-06 0)
(2.99997 5.50103e-07 0)
(2.99994 6.62238e-06 0)
(2.99985 3.18577e-06 0)
(2.99967 4.02225e-05 0)
(2.99913 9.73903e-06 0)
(2.9981 0.000258292 0)
(2.99476 -9.73746e-05 0)
(2.98901 0.00165019 0)
(2.96705 -0.00189039 0)
(2.92476 0.00972388 0)
(2.7777 -0.0102817 0)
(2.348 0.0303035 0)
(1.40304 0.0170001 0)
(0.625768 0.0682345 0)
(0.669714 0.0803834 0)
(3 7.17124e-12 0)
(3 5.7605e-11 0)
(3 1.7531e-10 0)
(3 5.37545e-10 0)
(3 1.27428e-09 0)
(3 3.44159e-09 0)
(3 7.79233e-09 0)
(3 2.04312e-08 0)
(3 4.57583e-08 0)
(2.99999 1.18751e-07 0)
(2.99998 2.64736e-07 0)
(2.99994 6.8387e-07 0)
(2.99987 1.51903e-06 0)
(2.99966 3.93066e-06 0)
(2.99928 8.623e-06 0)
(2.99793 2.32336e-05 0)
(2.99575 4.78402e-05 0)
(2.9871 0.000150998 0)
(2.97261 0.000289805 0)
(2.91622 0.00102467 0)
(2.77669 0.00262539 0)
(2.39814 0.00759815 0)
(1.3108 0.0252218 0)
(0.59797 0.05733 0)
(0.631452 0.0552562 0)
(3 9.98667e-11 0)
(3 -4.96103e-10 0)
(3 3.51498e-10 0)
(3 -3.74392e-09 0)
(3 1.65959e-09 0)
(3 -2.27079e-08 0)
(3 7.9955e-09 0)
(3 -1.34287e-07 0)
(3 3.64292e-08 0)
(2.99999 -7.97649e-07 0)
(2.99997 1.56893e-07 0)
(2.99994 -4.77272e-06 0)
(2.99985 9.4837e-07 0)
(2.99967 -2.93926e-05 0)
(2.99914 1.43153e-05 0)
(2.99813 -0.000193963 0)
(2.99486 0.000235429 0)
(2.98921 -0.00124629 0)
(2.96778 0.00271189 0)
(2.92671 -0.0071196 0)
(2.78307 0.0167871 0)
(2.36825 -0.011595 0)
(1.44709 0.0360986 0)
(0.654219 0.0502973 0)
(0.664879 0.0394349 0)
(3 -7.09366e-12 0)
(3 -5.53861e-11 0)
(3 -1.65699e-10 0)
(3 -4.82543e-10 0)
(3 -1.10933e-09 0)
(3 -2.86385e-09 0)
(3 -6.30571e-09 0)
(3 -1.59479e-08 0)
(3 -3.52141e-08 0)
(2.99999 -8.78738e-08 0)
(2.99997 -1.9831e-07 0)
(2.99994 -4.77027e-07 0)
(2.99985 -1.11395e-06 0)
(2.99967 -2.44702e-06 0)
(2.99914 -5.88382e-06 0)
(2.99811 -8.85804e-06 0)
(2.99489 -3.19679e-05 0)
(2.98915 1.85356e-05 0)
(2.96812 -0.000105579 0)
(2.92741 0.000443675 0)
(2.78551 0.000719533 0)
(2.37465 0.00353276 0)
(1.45458 0.00774078 0)
(0.651422 0.0124889 0)
(0.659705 0.00886386 0)
(1.11392 0.99153 0)
(1.01098 0.70263 0)
(0.0907949 0.421702 0)
(-0.417271 0.0234474 0)
(-0.539808 -0.0138193 0)
(-0.691435 -0.0269314 0)
(-0.750022 -0.0121559 0)
(-0.795156 0.00887391 0)
(-0.852107 0.0166607 0)
(-0.908032 0.0142434 0)
(-0.953987 0.00650247 0)
(-0.988584 -0.00018479 0)
(-1.00809 -0.0024587 0)
(-1.01284 -0.00372197 0)
(-1.00939 -0.00533884 0)
(-0.995366 -0.00622861 0)
(-0.969231 -0.00770565 0)
(-0.932536 -0.00964318 0)
(-0.889355 -0.0109292 0)
(-0.843171 -0.0114003 0)
(-0.795452 -0.0115221 0)
(-0.747086 -0.0114752 0)
(-0.698296 -0.0113618 0)
(-0.649022 -0.0112586 0)
(-0.59916 -0.0112836 0)
(-0.548757 -0.0114022 0)
(-0.497749 -0.0117404 0)
(-0.44615 -0.0123543 0)
(-0.39279 -0.0142762 0)
(-0.339801 -0.0152793 0)
(-0.287244 -0.0161804 0)
(-0.235432 -0.017073 0)
(-0.184514 -0.0183258 0)
(-0.134665 -0.0199359 0)
(-0.0855085 -0.0215751 0)
(-0.0376516 -0.0236492 0)
(0.0130988 -0.0256771 0)
(0.064089 -0.0240179 0)
(0.109438 -0.0223169 0)
(0.154378 -0.0215242 0)
(0.197615 -0.0208124 0)
(0.239346 -0.020237 0)
(0.278755 -0.0192993 0)
(0.316384 -0.0186185 0)
(0.354048 -0.0184074 0)
(0.392788 -0.0187202 0)
(0.430682 -0.0181659 0)
(0.467273 -0.0175985 0)
(0.502557 -0.0169607 0)
(0.536973 -0.0164183 0)
(0.570534 -0.0158493 0)
(0.60332 -0.0153354 0)
(0.635334 -0.0147989 0)
(0.666639 -0.0143042 0)
(0.697246 -0.0137896 0)
(0.727222 -0.0133079 0)
(0.756572 -0.0128092 0)
(0.785341 -0.012338 0)
(0.813536 -0.0118498 0)
(0.841208 -0.0113836 0)
(0.868351 -0.010912 0)
(0.895005 -0.0104543 0)
(0.921178 -0.00999978 0)
(0.946893 -0.00955614 0)
(0.972167 -0.00911784 0)
(0.997012 -0.00868991 0)
(1.02144 -0.00826626 0)
(1.04547 -0.00785211 0)
(1.06909 -0.00744194 0)
(1.09232 -0.00704135 0)
(1.11515 -0.00664521 0)
(1.13758 -0.00625999 0)
(1.15962 -0.00588137 0)
(1.18126 -0.00551551 0)
(1.20249 -0.00516104 0)
(1.22332 -0.00482109 0)