/*--------------------------------*- C++ -*----------------------------------*\
| =========                 |                                                 |
| \\      /  F ield         | OpenFOAM: The Open Source CFD Toolbox           |
|  \\    /   O peration     | Version:  2112                                  |
|   \\  /    A nd           | Website:  www.openfoam.com                      |
|    \\/     M anipulation  |                                                 |
\*---------------------------------------------------------------------------*/
FoamFile
{
    version     2.0;
    format      ascii;
    arch        "LSB;label=32;scalar=64";
    class       volScalarField;
    location    "12";
    object      p;
}
// * * * * * * * * * * * * * * * * * * * * * * * * * * * * * * * * * * * * * //

dimensions      [0 2 -2 0 0 0 0];

internalField   nonuniform List<scalar> 
400
(
1.3855254e-06
-0.00066901418
-0.0013780757
-0.001931883
-0.0022058739
-0.0021395581
-0.0017087288
-0.00090590125
0.00025593656
0.0017271601
0.0034055822
0.0051288774
0.0066890568
0.0078647352
0.0084756171
0.0084439812
0.0078377062
0.0068730244
0.0058925604
0.0053311799
0.00065739112
-3.8579692e-05
-0.00056505142
-0.00093312279
-0.0011004
-0.0010265905
-0.00068987363
-7.7561332e-05
0.00080842255
0.0019360565
0.0032293381
0.0045740163
0.0058010313
0.0067358043
0.0072355042
0.0072381693
0.0067967793
0.0060827323
0.0053426901
0.0047717372
0.0014197867
0.00044029668
-0.00011421688
-0.00044805805
-0.00060654081
-0.0005732626
-0.00033175928
0.00013751073
0.00084852215
0.0017914028
0.0029163649
0.0041202788
0.0052503262
0.0061335217
0.0066177768
0.0066238994
0.0061849432
0.0054537149
0.0046282922
0.0037841414
0.0020069634
0.00067931108
1.7507025e-05
-0.00035505645
-0.00056417123
-0.00061510827
-0.00049433328
-0.00017080136
0.00039170744
0.001209895
0.0022565388
0.0034442606
0.0046179762
0.0055835684
0.0061510093
0.0061959078
0.0057157429
0.0048522669
0.0037852871
0.0025138822
0.0021581219
0.00049295372
-0.00029584746
-0.00074472085
-0.0010498264
-0.0012315636
-0.0012733073
-0.0011262879
-0.00072530743
-2.0041168e-05
0.00099170584
0.0022451864
0.00357886
0.0047659032
0.0055548175
0.0057437792
0.0052653713
0.0042407096
0.002848531
0.0010296938
0.0016455126
-0.00031622968
-0.0012364986
-0.0017927004
-0.0022404099
-0.0026087569
-0.0028718704
-0.0029568709
-0.0027619231
-0.0021925385
-0.0012038687
0.00017840366
0.0017905842
0.0033706593
0.0045831037
0.0051064011
0.0047590304
0.0036102186
0.0018371279
-0.00067384944
0.00028272833
-0.0019170101
-0.0029659911
-0.0036591433
-0.0043009017
-0.0049249249
-0.0054919927
-0.0059000877
-0.0060026994
-0.0056449091
-0.0047097941
-0.0031930365
-0.0012035854
0.0009657257
0.0028769809
0.0040371272
0.0040740472
0.0029378323
0.00076884249
-0.0026214507
-0.0020727793
-0.0044411603
-0.005612028
-0.0064712911
-0.0073630428
-0.0083247922
-0.009303584
-0.010166146
-0.010714558
-0.010720472
-0.0099747584
-0.0083730085
-0.005955721
-0.0030047381
-5.5689386e-05
0.0021760396
0.0030225373
0.0021930905
-0.00030609987
-0.0048063487
-0.005509032
-0.0079717206
-0.0092526658
-0.010301286
-0.01149496
-0.012879061
-0.014391449
-0.015870159
-0.01706313
-0.017656834
-0.017323477
-0.015804413
-0.013012336
-0.0091496707
-0.0048079816
-0.00095028094
0.0013401669
0.0013438048
-0.0012674077
-0.0071286568
-0.010047624
-0.012532278
-0.013899145
-0.015138478
-0.016660905
-0.018529916
-0.02068438
-0.022941789
-0.024999497
-0.026452726
-0.026829305
-0.025671891
-0.022709712
-0.017948512
-0.011938752
-0.0058545405
-0.0012866933
0.00037565793
-0.0018746025
-0.0093039802
-0.015640271
-0.018086406
-0.019487409
-0.020868392
-0.022686564
-0.025042221
-0.02789075
-0.031041505
-0.034150126
-0.036723271
-0.038133652
-0.037681651
-0.034910134
-0.029456955
-0.021692939
-0.012873081
-0.0050890594
-0.00063276592
-0.0016872758
-0.010711821
-0.022183897
-0.024554645
-0.025884155
-0.027265755
-0.029242303
-0.031980603
-0.035471211
-0.039527847
-0.04377392
-0.047636079
-0.050359511
-0.051068338
-0.048793868
-0.042991885
-0.033632442
-0.021806903
-0.0099348294
-0.0013284307
6.7946522e-05
-0.010147789
-0.029568764
-0.031855509
-0.03290905
-0.034003899
-0.035852078
-0.038728058
-0.042673487
-0.047510868
-0.052834164
-0.05799688
-0.062113995
-0.064098817
-0.062717703
-0.056967985
-0.046347741
-0.031535888
-0.014940199
-0.0007808446
0.0047198655
-0.0054526692
-0.037784717
-0.039973929
-0.04036668
-0.040675343
-0.04192863
-0.04455215
-0.048639587
-0.054007763
-0.060205402
-0.066506507
-0.07190128
-0.075115901
-0.074671915
-0.069145983
-0.057521403
-0.039869233
-0.018168011
0.0028585766
0.014505838
0.0069604968
-0.047145894
-0.049058573
-0.048069018
-0.046810505
-0.046827312
-0.04870774
-0.052560439
-0.058151076
-0.0649377
-0.072087051
-0.078452856
-0.082579987
-0.082764969
-0.077214339
-0.064448124
-0.043874257
-0.016697351
0.012547603
0.032978568
0.032440232
-0.058815547
-0.059569026
-0.055820855
-0.051881673
-0.049909277
-0.050555147
-0.053836709
-0.059386088
-0.066488787
-0.074156193
-0.081065765
-0.085567287
-0.085740252
-0.079454895
-0.064831911
-0.040662557
-0.0072248617
0.032152939
0.064994356
0.077756116
-0.076156642
-0.07255484
-0.063468628
-0.055394881
-0.050682556
-0.049726814
-0.05223945
-0.057572265
-0.064784662
-0.072661156
-0.079669444
-0.083941165
-0.08331853
-0.075302931
-0.057583002
-0.028376658
0.012918216
0.06538254
0.11553801
0.15148955
-0.10803978
-0.089514883
-0.071206256
-0.057214175
-0.049051098
-0.046295701
-0.04802251
-0.053126577
-0.060341878
-0.068195174
-0.074929716
-0.078443099
-0.076327404
-0.06577562
-0.043859251
-0.0078353315
0.044362195
0.11296301
0.18834719
0.27182571
-0.17680976
-0.10826197
-0.076191903
-0.05464938
-0.042987572
-0.038978765
-0.040529786
-0.045864814
-0.053360272
-0.061347635
-0.06793823
-0.070885665
-0.067496499
-0.054709237
-0.029144627
0.013544562
0.078112187
0.17002244
0.28945295
0.47417731
-0.37204823
-0.12468455
-0.054966048
-0.031966562
-0.022066607
-0.020290625
-0.024328903
-0.031904786
-0.041189091
-0.050556726
-0.058230935
-0.062109724
-0.05972158
-0.048021529
-0.022649086
0.021461198
0.092789164
0.21011475
0.40284862
0.77637038
)
;

boundaryField
{
    movingWall
    {
        type            zeroGradient;
    }
    fixedWalls
    {
        type            zeroGradient;
    }
    frontAndBack
    {
        type            empty;
    }
}


// ************************************************************************* //
