/*--------------------------------*- C++ -*----------------------------------*\
| =========                 |                                                 |
| \\      /  F ield         | OpenFOAM: The Open Source CFD Toolbox           |
|  \\    /   O peration     | Version:  2112                                  |
|   \\  /    A nd           | Website:  www.openfoam.com                      |
|    \\/     M anipulation  |                                                 |
\*---------------------------------------------------------------------------*/
FoamFile
{
    version     2.0;
    format      ascii;
    arch        "LSB;label=32;scalar=64";
    class       surfaceScalarField;
    location    "12";
    object      phi;
}
// * * * * * * * * * * * * * * * * * * * * * * * * * * * * * * * * * * * * * //

dimensions      [0 3 -1 0 0 0 0];

oriented        oriented;

internalField   nonuniform List<scalar> 
760
(
1.2600714e-05
-1.2615545e-05
-2.875831e-05
4.1358787e-05
-0.00012209361
9.3335143e-05
-0.00024984634
0.00012775281
-0.00039510959
0.00014526332
-0.00054399226
0.00014888264
-0.00068446397
0.00014047166
-0.00080474537
0.00012028138
-0.00089258325
8.7837901e-05
-0.00093595768
4.3374481e-05
-0.00092496397
-1.0993648e-05
-0.00085485817
-7.0105747e-05
-0.00072888244
-0.00012597568
-0.00056033378
-0.00016854863
-0.00037228126
-0.0001880525
-0.00019441803
-0.0001778632
-5.6711231e-05
-0.00013770677
1.9376113e-05
-7.608733e-05
3.0280198e-05
-1.0904098e-05
3.0280176e-05
-4.3103224e-05
3.0487499e-05
-0.00020404401
0.00020229936
-0.00046701412
0.00035630525
-0.00079838044
0.00045911925
-0.0011638997
0.00051078265
-0.0015318838
0.00051686682
-0.0018726664
0.00048125431
-0.0021573523
0.00040496732
-0.0023577709
0.00028825657
-0.0024485322
0.00013413583
-0.0024117079
-4.7817885e-05
-0.0022397095
-0.00024210407
-0.0019430083
-0.00042267688
-0.0015511918
-0.00056036514
-0.0011123046
-0.00062693967
-0.00068652574
-0.00060364205
-0.00033430854
-0.00048992389
-0.00010101323
-0.00030938251
-1.665688e-06
-0.00011025133
2.861441e-05
-0.00010968624
0.00014017369
-0.00040173866
0.0004943518
-0.00082869914
0.00078326574
-0.0013412727
0.00097169297
-0.0018925166
0.0010620266
-0.0024388439
0.0010631942
-0.0029388777
0.00098128806
-0.0033524242
0.00081851391
-0.0036411507
0.00057698312
-0.0037716008
0.00026458591
-0.003719718
-9.9700637e-05
-0.0034768504
-0.00048497168
-0.0030558719
-0.00084365535
-0.0024943892
-0.0011218479
-0.0018544497
-0.0012668791
-0.0012159742
-0.0012421175
-0.0006627862
-0.0010431118
-0.00026286194
-0.00070930674
-4.7987976e-05
-0.0003251251
-1.9373496e-05
-0.00017282589
0.0003129996
-0.00059122284
0.0009127488
-0.0011736547
0.0013656976
-0.001852113
0.0016501513
-0.0025684164
0.00177833
-0.0032707578
0.0017655355
-0.0039105372
0.0016210676
-0.0044406746
0.0013486513
-0.0048162052
0.00095251377
-0.0049972593
0.00044564014
-0.0049540347
-0.00014292516
-0.0046725742
-0.00076643219
-0.004162338
-0.0013538915
-0.0034612733
-0.0018229125
-0.0026384035
-0.0020897489
-0.0017896867
-0.0020908343
-0.0010240389
-0.0018087594
-0.00043955386
-0.0012937917
-9.6627404e-05
-0.00066805139
-0.00011600081
-0.00022895148
0.0005419511
-0.00076235847
0.0014461558
-0.0014863417
0.0020896807
-0.0023147672
0.0024785769
-0.0031797794
0.0026433422
-0.0040241485
0.0026099046
-0.0047954926
0.0023924116
-0.0054431297
0.0019962885
-0.0059177256
0.0014271097
-0.0061734447
0.00070135931
-0.0061728194
-0.00014355048
-0.0058914091
-0.0010478424
-0.005328197
-0.0019171036
-0.0045132345
-0.002637875
-0.0035156255
-0.0030873578
-0.0024449325
-0.0031615273
-0.0014398221
-0.0028138698
-0.00064010378
-0.00209351
-0.00014860395
-0.001159551
-0.00026460465
-0.00027630425
0.0008182554
-0.00090842085
0.0020782724
-0.0017549069
0.0029361667
-0.0027141226
0.0034377928
-0.0037107848
0.0036400044
-0.0046848636
0.0035839835
-0.0055831512
0.0032906992
-0.0063541483
0.0027672856
-0.0069460493
0.0020190108
-0.0073071936
0.0010625036
-0.0073905463
-6.0197699e-05
-0.0071560811
-0.0012823077
-0.0065851247
-0.0024880599
-0.0056902185
-0.0035327812
-0.0045311728
-0.0042464036
-0.0032257112
-0.0044669888
-0.0019454126
-0.0040941684
-0.00088568347
-0.003153239
-0.00021121991
-0.0018340144
-0.00047582449
-0.00031308041
0.0011313359
-0.0010231135
0.0027883055
-0.0019675483
0.0038806016
-0.0030329365
0.004503181
-0.0041392099
0.0047462779
-0.005226121
0.0046708946
-0.0062424434
0.0043070217
-0.0071386747
0.003663517
-0.0078629069
0.002743243
-0.0083593798
0.0015589765
-0.008568433
0.00014885548
-0.0084354438
-0.0014152969
-0.0079151877
-0.0030083161
-0.0069926821
-0.0044552869
-0.0057052029
-0.0055338828
-0.0041664555
-0.0060057363
-0.0025774406
-0.0056831833
-0.001202036
-0.0045286437
-0.00029398246
-0.0027420677
-0.00076980694
-0.00033729465
0.0014686306
-0.0011001986
0.0035512095
-0.0021121532
0.0048925563
-0.0032518072
0.005642835
-0.0044369141
0.0059313848
-0.0056094362
0.0058434168
-0.0067228761
0.0054204617
-0.0077328737
0.0046735145
-0.0085907745
0.0036011438
-0.0092396076
0.0022078096
-0.0096117351
0.00052098305
-0.0096346584
-0.0013923736
-0.0092355371
-0.0034074375
-0.0083620054
-0.0053288185
-0.0070120857
-0.0068838025
-0.005274208
-0.0077436141
-0.0033626987
-0.0075946926
-0.0016148891
-0.0062764532
-0.00040759865
-0.0039493581
-0.0011774057
-0.00034740854
0.0018160392
-0.001134856
0.004338657
-0.0021784038
0.0059361041
-0.0033521414
0.0068165726
-0.0045738578
0.0071531013
-0.0057898845
0.0070594435
-0.0069611381
0.0065917153
-0.0080519337
0.0057643101
-0.0090214205
0.0045706307
-0.0098169926
0.0030033816
-0.010369511
0.0010735016
-0.010593151
-0.0011687342
-0.010389949
-0.0036106392
-0.0096648448
-0.0060539225
-0.0083597707
-0.0081888766
-0.0065084326
-0.0095949522
-0.0043047891
-0.0097983362
-0.0021455892
-0.0084356531
-0.00056412071
-0.0055308265
-0.0017415266
-0.00034350182
0.002159541
-0.0011264264
0.0051215816
-0.0021619679
0.0069716457
-0.0033217966
0.0079764013
-0.0045254922
0.0083567968
-0.0057257287
0.0082596801
-0.006893458
0.0077594447
-0.0080054083
0.0068762604
-0.0090339011
0.0055991235
-0.0099382327
0.0039077132
-0.010656867
0.0017921361
-0.01110029
-0.00072531147
-0.011156968
-0.003553961
-0.010690648
-0.0065202429
-0.0095762483
-0.0093032761
-0.0077609936
-0.011410207
-0.0053669512
-0.012192379
-0.0028044553
-0.010998149
-0.00077747463
-0.0075578071
-0.0025190015
-0.00032886706
0.0024884081
-0.0010821455
0.0058748601
-0.0020700875
0.0079595878
-0.0031624581
0.0090687718
-0.0042823837
0.0094767223
-0.0053911842
0.0093684806
-0.0064725709
0.0088408314
-0.0075192934
0.0079229829
-0.0085220968
0.0066019269
-0.0094599417
0.0048455581
-0.010291234
0.0026234283
-0.010932875
-8.3670717e-05
-0.011282486
-0.0032043491
-0.011172144
-0.0066305849
-0.010413313
-0.010062108
-0.0088436376
-0.012979882
-0.0064526069
-0.014583409
-0.0035792285
-0.013871527
-0.0010633292
-0.010073706
-0.0035823308
-0.00031217216
0.0028005803
-0.0010216802
0.0065843682
-0.001927684
0.0088655917
-0.0028970586
0.010038146
-0.0038595322
0.010439196
-0.0047888348
0.010297783
-0.0056847585
0.0097367551
-0.0065592237
0.0087974481
-0.0074253948
0.007468098
-0.0082878984
0.0057080617
-0.0091314207
0.0034669505
-0.0099149388
0.00069984759
-0.010532735
-0.0025865533
-0.010831173
-0.006332146
-0.010576036
-0.010317245
-0.0094937552
-0.014062163
-0.0073902461
-0.016686918
-0.0044175579
-0.016844215
-0.0014364645
-0.0130548
-0.0050187953
-0.00031085226
0.0031114326
-0.00098263491
0.007256151
-0.0017829077
0.0096658646
-0.0025747458
0.010829984
-0.0033013944
0.011165844
-0.0039560195
0.010952408
-0.0045593134
0.010340049
-0.0051452063
0.009383341
-0.0057512084
0.0080741001
-0.0064103846
0.006367238
-0.0071421762
0.0041987421
-0.0079420283
0.0014996997
-0.0087496783
-0.0017789032
-0.0094396746
-0.0056421497
-0.0097756996
-0.0099812194
-0.0094048296
-0.014433033
-0.0079324788
-0.018159269
-0.0052062342
-0.01957046
-0.0019022038
-0.01635883
-0.0069209989
-0.00035721821
0.0034686507
-0.0010273901
0.007926323
-0.0017101262
0.010348601
-0.0022691223
0.01138898
-0.0026762385
0.01157296
-0.002956411
0.011232581
-0.0031581826
0.010541821
-0.0033399545
0.0095651129
-0.0035630316
0.0082971772
-0.0038872207
0.006691427
-0.0043652565
0.0046767779
-0.0050339297
0.0021683729
-0.005891126
-0.00092170684
-0.006870749
-0.0046625266
-0.0077869559
-0.0090650125
-0.0082736392
-0.01394635
-0.007773353
-0.018659555
-0.0057528514
-0.021590961
-0.002436794
-0.019674887
-0.0093577926
-0.00050969772
0.0039783484
-0.0012498332
0.0086664586
-0.0018032937
0.010902061
-0.0020585531
0.01164424
-0.0020458493
0.011560257
-0.0018410369
0.011027768
-0.0015294519
0.010230236
-0.0011961539
0.0092318149
-0.00092343243
0.0080244558
-0.00079233113
0.0065603257
-0.00088156208
0.0047660088
-0.0012645382
0.0025513489
-0.0019987848
-0.00018746019
-0.0030962319
-0.0035650795
-0.0044723451
-0.0076888993
-0.0058371704
-0.012581524
-0.0065726921
-0.017924034
-0.0057716903
-0.022391963
-0.0029519753
-0.022494602
-0.012309768
-0.00087003928
0.0048483877
-0.0017674268
0.0095638464
-0.0021293453
0.01126398
-0.0019483732
0.011463268
-0.0013655841
0.010977467
-0.0005333089
0.010195493
0.0004182125
0.0092787146
0.0013799145
0.0082701131
0.0022525497
0.0071518208
0.0029415942
0.0058712813
0.0033508263
0.0043567767
0.0033798057
0.0025223694
0.002923096
0.00026924947
0.0018958298
-0.0025378133
0.0002577654
-0.006050835
-0.001863931
-0.010459828
-0.0039587666
-0.015829198
-0.0048648802
-0.02148585
-0.0032559527
-0.024103529
-0.01556572
-0.0015922363
0.0064406241
-0.0026146129
0.010586223
-0.0025202118
0.011169579
-0.0016004357
0.010543492
-0.00018582592
0.0095628575
0.0014766006
0.0085330666
0.0032149807
0.0075403346
0.0049044505
0.0065806434
0.0064441666
0.0056121049
0.007739344
0.0045761039
0.0086905768
0.0034055439
0.0091861599
0.0020267864
0.0090898036
0.00036560563
0.0082633471
-0.0017113569
0.0065554886
-0.0043429766
0.0038961052
-0.0078004448
0.00055298473
-0.012486078
-0.0024718991
-0.018460966
-0.0030287636
-0.023546665
-0.018594484
-0.002718801
0.0091594253
-0.0031518104
0.011019233
-0.0018073844
0.0098251536
0.00045945456
0.0082766528
0.0030793306
0.0069429815
0.0057612623
0.0058511349
0.0083485151
0.0049530818
0.010744944
0.004184215
0.012877777
0.0034792715
0.014675442
0.0027784391
0.016054255
0.0020267308
0.016910757
0.0011702846
0.01710902
0.00016734223
0.016481987
-0.0010843241
0.01480972
-0.0026707098
0.011841027
-0.0048317508
0.0074311492
-0.0080762
0.0022600709
-0.013289887
-0.0012737797
-0.020012814
-0.019868263
-0.0024129077
0.011572333
2.8163484e-05
0.0085781614
0.0042541254
0.005599192
0.0084132321
0.0041175459
0.012226367
0.0031298464
0.015648973
0.0024285289
0.018677456
0.0019245989
0.02131889
0.0015427812
0.023572688
0.0012254736
0.025418641
0.00093248531
0.026810457
0.00063491535
0.027668871
0.00031187061
0.027893279
-5.7065598e-05
0.027342013
-0.00053305775
0.025767903
-0.0010965991
0.022840443
-0.0019042905
0.018052936
-0.0032886933
0.011112374
-0.0063493249
0.0033881632
-0.012288603
-0.0164801
0.011572334
0.020150495
0.025749687
0.029867233
0.032997079
0.035425608
0.037350207
0.038892989
0.040118463
0.041050948
0.041685863
0.041997734
0.041940668
0.041407611
0.040311012
0.038406721
0.035118028
0.028768703
0.0164801
)
;

boundaryField
{
    movingWall
    {
        type            calculated;
        value           uniform 0;
    }
    fixedWalls
    {
        type            calculated;
        value           uniform 0;
    }
    frontAndBack
    {
        type            empty;
        value           nonuniform List<scalar> 0();
    }
}


// ************************************************************************* //
