/*--------------------------------*- C++ -*----------------------------------*\
| =========                 |                                                 |
| \\      /  F ield         | OpenFOAM: The Open Source CFD Toolbox           |
|  \\    /   O peration     | Version:  2112                                  |
|   \\  /    A nd           | Website:  www.openfoam.com                      |
|    \\/     M anipulation  |                                                 |
\*---------------------------------------------------------------------------*/
FoamFile
{
    version     2.0;
    format      ascii;
    arch        "LSB;label=32;scalar=64";
    class       surfaceScalarField;
    location    "12";
    object      phi_0;
}
// * * * * * * * * * * * * * * * * * * * * * * * * * * * * * * * * * * * * * //

dimensions      [0 3 -1 0 0 0 0];

oriented        oriented;

internalField   nonuniform List<scalar> 
760
(
1.2601265e-05
-1.261393e-05
-2.8757742e-05
4.1358891e-05
-0.00012209189
9.3334147e-05
-0.00024984304
0.00012775106
-0.00039510428
0.00014526116
-0.00054398467
0.00014888035
-0.00068445417
0.00014046947
-0.00080473372
0.00012027954
-0.00089257039
8.7836657e-05
-0.00093594448
4.3374071e-05
-0.00092495144
-1.0993057e-05
-0.00085484732
-7.0104151e-05
-0.00072887408
-0.00012597326
-0.00056032835
-0.00016854575
-0.0003722787
-0.00018804966
-0.00019441775
-0.00017786095
-5.6712255e-05
-0.00013770553
1.9374853e-05
-7.6087218e-05
3.0279472e-05
-1.0904819e-05
3.0279331e-05
-4.310236e-05
3.048832e-05
-0.00020404054
0.00020229727
-0.00046700635
0.00035630006
-0.00079836744
0.00045911196
-0.0011638808
0.00051077432
-0.001531859
0.00051685838
-0.0018726363
0.00048124662
-0.002157318
0.00040496122
-0.0023577342
0.00028825287
-0.0024484952
0.00013413512
-0.002411673
-4.7815286e-05
-0.0022396789
-0.0002420983
-0.0019429836
-0.0004226686
-0.001551174
-0.00056035549
-0.0011122937
-0.0006269301
-0.00068652064
-0.00060363402
-0.0003343074
-0.00048991857
-0.00010101378
-0.00030938041
-1.6660836e-06
-0.00011025197
2.8613095e-05
-0.00010968411
0.00014017232
-0.00040173133
0.00049434434
-0.00082868411
0.00078325286
-0.0013412489
0.00097167662
-0.0018924835
0.0010620088
-0.0024388019
0.0010631767
-0.002938828
0.00098127261
-0.0033523689
0.00081850212
-0.0036410924
0.00057697642
-0.0037715426
0.00026458534
-0.0037196632
-9.9694684e-05
-0.0034768018
-0.00048495965
-0.0030558317
-0.00084363856
-0.0024943587
-0.0011218285
-0.0018544291
-0.0012668598
-0.0012159624
-0.0012421009
-0.00066278106
-0.0010431001
-0.00026286071
-0.00070930082
-4.798812e-05
-0.00032512434
-1.9375056e-05
-0.00017282236
0.00031299467
-0.00059121151
0.00091273321
-0.0011736325
0.0013656739
-0.0018520789
0.0016501229
-0.0025683703
0.0017783
-0.0032707005
0.0017655068
-0.0039104707
0.0016210429
-0.0044406015
0.001348633
-0.0048161289
0.00095250383
-0.0049971835
0.00044563995
-0.004953963
-0.00014291515
-0.0046725099
-0.00076641282
-0.0041622837
-0.0013538647
-0.0034612307
-0.0018228814
-0.0026383731
-0.0020897172
-0.0017896675
-0.0020908063
-0.001024029
-0.0018087385
-0.00043955025
-0.0012937797
-9.6626879e-05
-0.00066804763
-0.00011600191
-0.00022894679
0.0005419415
-0.00076234374
0.00144613
-0.0014863136
0.0020896438
-0.0023147249
0.0024785342
-0.0031797231
0.0026432982
-0.0040240797
0.0026098634
-0.0047954136
0.0023923768
-0.0054430437
0.0019962632
-0.0059176363
0.0014270965
-0.0061733559
0.00070135961
-0.0061727348
-0.00014353617
-0.0058913323
-0.0010478154
-0.0053281307
-0.0019170663
-0.004513181
-0.0026378312
-0.0035155857
-0.0030873125
-0.002444906
-0.0031614859
-0.0014398073
-0.0028138371
-0.00064009759
-0.0020934893
-0.0001486027
-0.0011595425
-0.00026460457
-0.00027629884
0.00081824033
-0.00090840394
0.0020782349
-0.0017548752
0.0029361151
-0.0027140755
0.0034377345
-0.0037107228
0.0036399456
-0.0046847886
0.0035839293
-0.0055830658
0.0032906541
-0.0063540558
0.0027672533
-0.0069459534
0.0020189941
-0.0073070978
0.0010625041
-0.0073904545
-6.0179383e-05
-0.0071559963
-0.0012822735
-0.0065850501
-0.0024880125
-0.0056901564
-0.0035327249
-0.0045311248
-0.0042463441
-0.0032256779
-0.0044669326
-0.0019453929
-0.004094122
-0.00088567468
-0.0031532075
-0.00021121792
-0.0018339992
-0.00047582241
-0.00031307485
0.0011313151
-0.001023096
0.0027882561
-0.001967516
0.0038805352
-0.0030328887
0.0045031072
-0.0041391475
0.0047462045
-0.0052260461
0.0046708279
-0.0062423587
0.0043069668
-0.0071385833
0.0036634781
-0.0078628122
0.0027432231
-0.0083592851
0.0015589771
-0.0085683411
0.00014887663
-0.0084353577
-0.0014152568
-0.0079151101
-0.0030082601
-0.0069926154
-0.0044552195
-0.0057051495
-0.00553381
-0.0041664168
-0.0060056653
-0.0025774166
-0.0056831221
-0.0012020247
-0.0045285994
-0.00029397971
-0.0027420441
-0.00076980198
-0.00033728956
0.0014686047
-0.0011001826
0.0035511492
-0.0021121236
0.0048924763
-0.0032517635
0.0056427471
-0.0044368572
0.0059312984
-0.0056093683
0.0058433391
-0.0067227999
0.0054203984
-0.0077327919
0.0046734702
-0.0085906899
0.0036011212
-0.0092395228
0.00220781
-0.0096116523
0.00052100623
-0.0096345796
-0.0013923295
-0.0092354642
-0.0034073754
-0.0083619407
-0.0053287429
-0.0070120315
-0.006883719
-0.0052741667
-0.0077435301
-0.0033626717
-0.007594617
-0.0016148757
-0.0062763953
-0.00040759514
-0.0039493245
-0.001177397
-0.00034740456
0.0018160093
-0.0011348433
0.004338588
-0.0021783801
0.0059360132
-0.0033521063
0.0068164734
-0.0045738124
0.0071530045
-0.0057898306
0.0070593574
-0.0069610782
0.0065916461
-0.0080518701
0.0057642621
-0.0090213554
0.0045706066
-0.0098169275
0.0030033822
-0.010369447
0.0010735261
-0.010593089
-0.0011686879
-0.01038989
-0.0036105742
-0.0096647903
-0.0060538426
-0.0083597224
-0.0081887869
-0.0065083932
-0.0095948592
-0.0043047613
-0.0097982489
-0.0021455744
-0.0084355822
-0.00056411649
-0.0055307823
-0.0017415133
-0.00034349953
0.0021595088
-0.0011264186
0.0051215072
-0.0021619531
0.0069715477
-0.0033217745
0.0079762948
-0.0045254634
0.0083566936
-0.005725695
0.0082595891
-0.0068934213
0.0077593725
-0.0080053705
0.0068762112
-0.0090338636
0.0055990997
-0.0099381962
0.0039077149
-0.010656832
0.0017921618
-0.011100255
-0.00072526481
-0.011156933
-0.0035538958
-0.010690613
-0.0065201631
-0.0095762137
-0.0093031856
-0.0077609621
-0.011410111
-0.0053669263
-0.012192285
-0.0028044405
-0.010998068
-0.00077746988
-0.0075577529
-0.0025189831
-0.00032886686
0.0024883757
-0.001082144
0.0058747845
-0.0020700839
0.0079594876
-0.0031624519
0.0090686628
-0.0042823754
0.0094766171
-0.0053911751
0.0093683888
-0.0064725624
0.0088407598
-0.0075192866
0.0079229355
-0.0085220924
0.0066019055
-0.0094599396
0.004845562
-0.010291233
0.0026234556
-0.010932873
-8.3625351e-05
-0.011282482
-0.003204286
-0.011172136
-0.0066305092
-0.0104133
-0.010062022
-0.0088436206
-0.01297979
-0.0064525896
-0.014583316
-0.003579216
-0.013871442
-0.0010633244
-0.010073645
-0.0035823076
-0.00031217425
0.00280055
-0.0010216856
0.0065842959
-0.0019276928
0.0088654947
-0.0028970702
0.01003804
-0.0038595465
0.010439094
-0.0047888525
0.010297695
-0.0056847802
0.0097366874
-0.0065592497
0.0087974049
-0.0074254248
0.0074680805
-0.0082879314
0.0057080687
-0.0091314547
0.0034669789
-0.0099149731
0.00069989302
-0.010532764
-0.0025864947
-0.010831196
-0.0063320775
-0.010576049
-0.010317168
-0.0094937579
-0.014062081
-0.007390241
-0.016686832
-0.0044175504
-0.016844133
-0.0014364604
-0.013054735
-0.005018768
-0.0003108566
0.0031114067
-0.00098264716
0.0072560866
-0.0017829288
0.0096657761
-0.0025747752
0.010829887
-0.0033014313
0.01116575
-0.0039560635
0.010952327
-0.0045593642
0.010339988
-0.0051452629
0.0093833036
-0.0057512697
0.0080740873
-0.006410449
0.006367248
-0.0071422417
0.0041987715
-0.0079420922
0.0014997437
-0.0087497373
-0.0017788494
-0.0094397251
-0.0056420896
-0.0097757381
-0.0099811553
-0.0094048536
-0.014432965
-0.0079324887
-0.018159197
-0.0052062344
-0.019570387
-0.0019022014
-0.016358768
-0.0069209696
-0.00035722455
0.0034686312
-0.0010274084
0.0079262705
-0.0017101584
0.010348526
-0.0022691676
0.011388896
-0.0026762956
0.011572878
-0.0029564782
0.01123251
-0.0031582582
0.010541768
-0.0033400364
0.0095650817
-0.0035631177
0.0082971685
-0.0038873086
0.0066914389
-0.0043653439
0.0046768068
-0.0050340141
0.0021684139
-0.0058912047
-0.00092165869
-0.006870819
-0.0046624752
-0.0077870136
-0.0090649605
-0.0082736813
-0.013946297
-0.0077733776
-0.018659501
-0.0057528606
-0.021590904
-0.0024367945
-0.019674834
-0.0093577641
-0.00050970547
0.0039783366
-0.001249856
0.0086664211
-0.0018033341
0.010902004
-0.0020586106
0.011644172
-0.0020459218
0.011560189
-0.0018411216
0.011027709
-0.0015295455
0.010230192
-0.0011962532
0.0092317893
-0.00092353411
0.0080244493
-0.00079243222
0.006560337
-0.00088166021
0.0047660348
-0.0012646314
0.0025513851
-0.0019988713
-0.00018741868
-0.0030963097
-0.0035650367
-0.0044724117
-0.0076888584
-0.0058372227
-0.012581486
-0.0065727272
-0.017923996
-0.0057717076
-0.022391923
-0.0029519792
-0.022494562
-0.012309743
-0.00087004731
0.0048483839
-0.0017674511
0.0095638249
-0.0021293888
0.011263942
-0.0019484359
0.011463219
-0.0013656637
0.010977417
-0.00053340176
0.010195448
0.00041811039
0.0092786798
0.0013798076
0.0082700922
0.002252442
0.0071518149
0.0029414892
0.0058712898
0.0033507268
0.0043567972
0.0033797135
0.0025223985
0.0029230122
0.00026928264
0.0018957552
-0.0025377795
0.00025770097
-0.0060508041
-0.0018639837
-0.010459801
-0.0039588051
-0.015829174
-0.0048649018
-0.021485827
-0.0032559594
-0.024103504
-0.015565703
-0.0015922425
0.0064406264
-0.0026146336
0.010586216
-0.0025202504
0.011169559
-0.001600493
0.010543462
-0.00018590011
0.0095628237
0.0014765127
0.0085330348
0.0032148835
0.0075403091
0.0049043486
0.0065806272
0.0064440644
0.0056120993
0.0077392454
0.0045761088
0.0086904849
0.0034055579
0.0091860767
0.0020268068
0.0090897303
0.00036562911
0.0082632836
-0.0017113328
0.0065554348
-0.0043429552
0.0038960615
-0.007800428
0.00055295255
-0.012486066
-0.0024719196
-0.018460954
-0.0030287714
-0.023546653
-0.018594474
-0.0027188034
0.00915943
-0.0031518212
0.011019233
-0.0018074085
0.0098251463
0.00045941505
0.0082766382
0.0030792758
0.0069429632
0.0057611942
0.0058511165
0.0083484372
0.0049530664
0.01074486
0.0041842047
0.012877692
0.0034792676
0.014675359
0.0027784415
0.016054178
0.0020267388
0.016910689
0.0011702967
0.017108962
0.00016735582
0.016481939
-0.0010843101
0.014809682
-0.002670698
0.011840996
-0.0048317425
0.0074311259
-0.0080761953
0.0022600556
-0.013289884
-0.0012737867
-0.02001281
-0.019868261
-0.0024129058
0.011572336
2.8163833e-05
0.0085781633
0.0042541195
0.0055991905
0.0084132163
0.0041175416
0.012226339
0.0031298404
0.015648934
0.0024285225
0.018677407
0.0019245934
0.021318834
0.0015427776
0.023572629
0.0012254723
0.025418584
0.00093248639
0.026810404
0.00063491841
0.027668826
0.00031187486
0.027893242
-5.7059865e-05
0.027341985
-0.00053305323
0.025767883
-0.0010965955
0.022840429
-0.0019042883
0.018052926
-0.0032886928
0.011112368
-0.0063493253
0.0033881605
-0.012288604
-0.0164801
0.011572336
0.0201505
0.025749691
0.029867232
0.032997073
0.035425595
0.037350189
0.038892966
0.040118438
0.041050925
0.041685843
0.041997718
0.041940658
0.041407605
0.04031101
0.038406722
0.035118029
0.028768704
0.0164801
)
;

boundaryField
{
    movingWall
    {
        type            calculated;
        value           uniform 0;
    }
    fixedWalls
    {
        type            calculated;
        value           uniform 0;
    }
    frontAndBack
    {
        type            empty;
        value           nonuniform List<scalar> 0();
    }
}


// ************************************************************************* //
