/*--------------------------------*- C++ -*----------------------------------*\
| =========                 |                                                 |
| \\      /  F ield         | OpenFOAM: The Open Source CFD Toolbox           |
|  \\    /   O peration     | Version:  2112                                  |
|   \\  /    A nd           | Website:  www.openfoam.com                      |
|    \\/     M anipulation  |                                                 |
\*---------------------------------------------------------------------------*/
FoamFile
{
    version     2.0;
    format      ascii;
    arch        "LSB;label=32;scalar=64";
    class       volVectorField;
    location    "12";
    object      U;
}
// * * * * * * * * * * * * * * * * * * * * * * * * * * * * * * * * * * * * * //

dimensions      [0 1 -1 0 0 0 0];

internalField   nonuniform List<vector> 
400
(
(0.00028303771 -0.00028013582 0)
(0.00010853223 8.0370092e-05 0)
(-0.0013262175 0.00047721982 0)
(-0.003614791 0.00073422851 0)
(-0.0064086399 0.00086529469 0)
(-0.0094077633 0.00090479149 0)
(-0.012355656 0.00087237304 0)
(-0.015016417 0.00076929462 0)
(-0.017148728 0.00058683977 0)
(-0.018504051 0.00031935711 0)
(-0.018854382 -2.4359398e-05 0)
(-0.018042297 -0.00041655428 0)
(-0.016043911 -0.00079693754 0)
(-0.013023245 -0.0010896984 0)
(-0.0093517378 -0.0012179112 0)
(-0.0055728808 -0.0011269956 0)
(-0.0023025474 -0.00081174328 0)
(-8.7953583e-05 -0.00033830471 0)
(0.00075611788 0.00015080801 0)
(0.00040801423 0.0003879555 0)
(-8.6374464e-05 -0.00012161166 0)
(-0.0018652376 0.0017837953 0)
(-0.006289637 0.0036166039 0)
(-0.01241711 0.0048487965 0)
(-0.019543096 0.005482534 0)
(-0.027026472 0.0056041163 0)
(-0.034256789 0.0052705551 0)
(-0.04064866 0.0044916813 0)
(-0.04562546 0.0032580221 0)
(-0.048638101 0.0015874533 0)
(-0.049232272 -0.00043078674 0)
(-0.047131459 -0.0026067527 0)
(-0.042349041 -0.0046476682 0)
(-0.035282972 -0.006199092 0)
(-0.0267262 -0.0069180865 0)
(-0.017798861 -0.0065764714 0)
(-0.0097656166 -0.0051702399 0)
(-0.0037470504 -0.0029969422 0)
(-0.00039261894 -0.00066872168 0)
(0.00028800633 0.00077953172 0)
(-0.00058641869 0.0014315793 0)
(-0.0042294864 0.006360196 0)
(-0.01172068 0.010609131 0)
(-0.02139922 0.013442701 0)
(-0.032261919 0.014852923 0)
(-0.043449005 0.014972167 0)
(-0.054116938 0.013895535 0)
(-0.063446889 0.01165255 0)
(-0.070643908 0.0082626378 0)
(-0.074971066 0.0038260037 0)
(-0.075828774 -0.0013910743 0)
(-0.072865015 -0.0069043066 0)
(-0.066101674 -0.012027415 0)
(-0.056038838 -0.015948832 0)
(-0.043687464 -0.0178917 0)
(-0.030511126 -0.017336918 0)
(-0.018221638 -0.014260894 0)
(-0.0084085932 -0.0092995441 0)
(-0.0021512044 -0.0037628092 0)
(-3.1485266e-06 0.00031124904 0)
(-0.0010492938 0.0042886072 0)
(-0.0064919441 0.013524043 0)
(-0.016940213 0.020798439 0)
(-0.029928585 0.025480881 0)
(-0.044152643 0.027675476 0)
(-0.05859245 0.027604713 0)
(-0.07225722 0.025414973 0)
(-0.084186865 0.021163724 0)
(-0.093450547 0.014914812 0)
(-0.099180661 0.0068769823 0)
(-0.10065525 -0.0024722159 0)
(-0.097409667 -0.012321149 0)
(-0.089372722 -0.021525967 0)
(-0.077002823 -0.028732809 0)
(-0.06137077 -0.032613574 0)
(-0.044163791 -0.032219377 0)
(-0.02751126 -0.027387491 0)
(-0.013559919 -0.019049359 0)
(-0.0040216455 -0.0092636562 0)
(-0.00026808582 -0.0011133926 0)
(-0.0014502962 0.0083383863 0)
(-0.0085180651 0.023105632 0)
(-0.021669876 0.033941198 0)
(-0.037663505 0.040633281 0)
(-0.054914449 0.043566707 0)
(-0.072287094 0.043131279 0)
(-0.088709254 0.039552458 0)
(-0.1031511 0.032921405 0)
(-0.11460549 0.023341854 0)
(-0.1221049 0.011117454 0)
(-0.12479249 -0.0030837543 0)
(-0.12201972 -0.018133332 0)
(-0.11349569 -0.032423117 0)
(-0.099476091 -0.043994656 0)
(-0.080927973 -0.050825165 0)
(-0.059655025 -0.051314429 0)
(-0.038217422 -0.044916419 0)
(-0.019485213 -0.032696796 0)
(-0.0060824611 -0.017470289 0)
(-0.00051056154 -0.0035239386 0)
(-0.0017821848 0.013430026 0)
(-0.010233526 0.034844332 0)
(-0.025718223 0.049745871 0)
(-0.044321617 0.058608954 0)
(-0.064225107 0.06226916 0)
(-0.084222424 0.061375205 0)
(-0.10321755 0.056268709 0)
(-0.12017196 0.047076089 0)
(-0.13405289 0.033915468 0)
(-0.14381708 0.017134663 0)
(-0.14845463 -0.0024755549 0)
(-0.14706523 -0.023522191 0)
(-0.13901514 -0.043984897 0)
(-0.12418171 -0.061256473 0)
(-0.10322774 -0.072448556 0)
(-0.077906384 -0.07499425 0)
(-0.051165186 -0.067562194 0)
(-0.026760605 -0.051029273 0)
(-0.0085970249 -0.028922823 0)
(-0.00078575201 -0.0070479964 0)
(-0.0020349369 0.019370335 0)
(-0.011568127 0.048368171 0)
(-0.028906088 0.067780106 0)
(-0.049609728 0.078981857 0)
(-0.071686721 0.083412926 0)
(-0.093906138 0.082074064 0)
(-0.11520226 0.075464669 0)
(-0.13458671 0.063745295 0)
(-0.15105678 0.047008689 0)
(-0.16353241 0.025570772 0)
(-0.17084546 0.00023670665 0)
(-0.17182392 -0.027471485 0)
(-0.16541174 -0.055202991 0)
(-0.15092428 -0.079715029 0)
(-0.128478 -0.097105055 0)
(-0.099499746 -0.10346296 0)
(-0.067127336 -0.096087899 0)
(-0.036057328 -0.075081275 0)
(-0.011908882 -0.044469007 0)
(-0.001168518 -0.011988347 0)
(-0.0021947945 0.025926803 0)
(-0.012450249 0.063215736 0)
(-0.031057386 0.087492609 0)
(-0.053218607 0.10119038 0)
(-0.076830266 0.10648069 0)
(-0.10067932 0.10480583 0)
(-0.12378111 0.096869072 0)
(-0.14525707 0.082867031 0)
(-0.16419995 0.062823686 0)
(-0.17956125 0.036933651 0)
(-0.19008819 0.0058792875 0)
(-0.19435592 -0.028875194 0)
(-0.19085503 -0.064796688 0)
(-0.17823451 -0.098123163 0)
(-0.1558041 -0.12388521 0)
(-0.12426759 -0.13647394 0)
(-0.086520495 -0.13107533 0)
(-0.047991342 -0.10604437 0)
(-0.016403038 -0.065288391 0)
(-0.0017503334 -0.018853264 0)
(-0.0022507719 0.032829217 0)
(-0.012826693 0.078847392 0)
(-0.032033193 0.10821669 0)
(-0.054872808 0.12451639 0)
(-0.079184529 0.1307524 0)
(-0.10380852 0.12889479 0)
(-0.12788764 0.11990502 0)
(-0.15071456 0.10402973 0)
(-0.1715576 0.081191611 0)
(-0.18950299 0.051378008 0)
(-0.20333774 0.015005051 0)
(-0.2114972 -0.02670644 0)
(-0.21210267 -0.071293519 0)
(-0.20312862 -0.11473371 0)
(-0.18287187 -0.15112161 0)
(-0.15085435 -0.1729532 0)
(-0.10904033 -0.1725175 0)
(-0.062948483 -0.1450048 0)
(-0.022493971 -0.092834895 0)
(-0.0026541636 -0.028382061 0)
(-0.0022060632 0.039788285 0)
(-0.012701356 0.094676177 0)
(-0.03180089 0.12918754 0)
(-0.054427951 0.14807517 0)
(-0.078404328 0.15526313 0)
(-0.10265346 0.15333675 0)
(-0.12648919 0.14358255 0)
(-0.14943705 0.12633233 0)
(-0.17103038 0.10140296 0)
(-0.19061851 0.068521137 0)
(-0.20719472 0.027720973 0)
(-0.21924856 -0.020220168 0)
(-0.22475947 -0.073217531 0)
(-0.22117769 -0.1273883 0)
(-0.20572588 -0.17628093 0)
(-0.17635293 -0.21063567 0)
(-0.13324031 -0.219272 0)
(-0.080824758 -0.19247034 0)
(-0.03060831 -0.12867026 0)
(-0.0040638684 -0.041579512 0)
(-0.0020936887 0.046542068 0)
(-0.01218808 0.11013756 0)
(-0.03052751 0.14959524 0)
(-0.051998911 0.1708407 0)
(-0.074436999 0.17880394 0)
(-0.096886166 0.17678046 0)
(-0.1188797 0.16646156 0)
(-0.14023666 0.14832257 0)
(-0.16084046 0.12210751 0)
(-0.1804313 0.08728251 0)
(-0.198399 0.04345093 0)
(-0.21353411 -0.0092131658 0)
(-0.22400624 -0.069436879 0)
(-0.22706256 -0.13384188 0)
(-0.21905137 -0.19612194 0)
(-0.19621024 -0.24589655 0)
(-0.1561535 -0.26850549 0)
(-0.10064808 -0.24767518 0)
(-0.041113762 -0.17411832 0)
(-0.0062632332 -0.059757913 0)
(-0.0019997815 0.052939636 0)
(-0.011579283 0.12480604 0)
(-0.028687362 0.16867596 0)
(-0.048093634 0.19170711 0)
(-0.067685304 0.19996962 0)
(-0.08670186 0.19757682 0)
(-0.10496725 0.18670728 0)
(-0.12265616 0.16804943 0)
(-0.14006661 0.14133592 0)
(-0.15741408 0.10581859 0)
(-0.17464102 0.060674505 0)
(-0.19121224 0.0053980516 0)
(-0.20572266 -0.059696722 0)
(-0.21560549 -0.13233981 0)
(-0.21696915 -0.20722585 0)
(-0.20460765 -0.27399006 0)
(-0.17316867 -0.31537834 0)
(-0.12014348 -0.30776179 0)
(-0.054122499 -0.22964494 0)
(-0.0096670847 -0.084559962 0)
(-0.0021060278 0.05907852 0)
(-0.011443827 0.1385593 0)
(-0.027176844 0.18582599 0)
(-0.043717792 0.2095656 0)
(-0.059103072 0.21723418 0)
(-0.072926696 0.21388143 0)
(-0.085424249 0.20223344 0)
(-0.097198774 0.18324398 0)
(-0.10900631 0.15669947 0)
(-0.12158319 0.12171728 0)
(-0.13549529 0.077121243 0)
(-0.15094423 0.021781974 0)
(-0.16735242 -0.044904003 0)
(-0.18294587 -0.12227975 0)
(-0.1942212 -0.20686757 0)
(-0.19535264 -0.28983578 0)
(-0.17835671 -0.35328914 0)
(-0.13542013 -0.36714413 0)
(-0.069078475 -0.29391191 0)
(-0.01478828 -0.11787898 0)
(-0.0027766209 0.065534409 0)
(-0.012783235 0.1517794 0)
(-0.027422699 0.20069143 0)
(-0.04038783 0.22334215 0)
(-0.050117965 0.22900005 0)
(-0.056873286 0.22375374 0)
(-0.061496563 0.2108685 0)
(-0.065107058 0.19155462 0)
(-0.068931219 0.16568067 0)
(-0.074196908 0.13231441 0)
(-0.082053125 0.090067825 0)
(-0.093439411 0.037356423 0)
(-0.10877334 -0.027291955 0)
(-0.1274919 -0.10477341 0)
(-0.14729375 -0.19400985 0)
(-0.16299079 -0.28926702 0)
(-0.16521509 -0.37486613 0)
(-0.14096114 -0.41748365 0)
(-0.08407154 -0.36259524 0)
(-0.022008185 -0.16146533 0)
(-0.0047300842 0.073776041 0)
(-0.017273978 0.16555838 0)
(-0.031399967 0.21313095 0)
(-0.039864404 0.23188946 0)
(-0.042124242 0.23352226 0)
(-0.0396423 0.22515295 0)
(-0.034142933 0.21043277 0)
(-0.027357845 0.19070604 0)
(-0.020964608 0.1658706 0)
(-0.016591838 0.13498315 0)
(-0.01584667 0.096573118 0)
(-0.020281418 0.048833158 0)
(-0.031252887 -0.010247291 0)
(-0.049540463 -0.082749191 0)
(-0.074669098 -0.16997618 0)
(-0.10349941 -0.2703407 0)
(-0.12741808 -0.37352987 0)
(-0.12983033 -0.4485113 0)
(-0.094946548 -0.42733301 0)
(-0.030932703 -0.21602832 0)
(-0.0093103162 0.086923821 0)
(-0.027485772 0.18174471 0)
(-0.041105273 0.22285576 0)
(-0.042876396 0.23357329 0)
(-0.034669554 0.22858238 0)
(-0.019942881 0.21572912 0)
(-0.0015998723 0.198634 0)
(0.017958584 0.17847886 0)
(0.036674202 0.15506139 0)
(0.052662237 0.12739687 0)
(0.064043323 0.094023161 0)
(0.068876133 0.053135979 0)
(0.065089312 0.0026014876 0)
(0.050753576 -0.060199224 0)
(0.024383915 -0.13824746 0)
(-0.013920743 -0.23405728 0)
(-0.058924754 -0.34506475 0)
(-0.093622155 -0.44943125 0)
(-0.09451665 -0.47547164 0)
(-0.039223976 -0.28040428 0)
(-0.018587402 0.11087097 0)
(-0.046083481 0.20172534 0)
(-0.055337549 0.22782431 0)
(-0.044162194 0.22487253 0)
(-0.019616623 0.21045626 0)
(0.012032325 0.19213609 0)
(0.046649815 0.17267252 0)
(0.081384876 0.15258432 0)
(0.11405929 0.1313309 0)
(0.14278095 0.10781979 0)
(0.1656637 0.080655106 0)
(0.1806565 0.048203805 0)
(0.18528592 0.008555452 0)
(0.17691166 -0.040711125 0)
(0.15254146 -0.10308158 0)
(0.10930663 -0.18383001 0)
(0.047093253 -0.28849513 0)
(-0.021542064 -0.41045468 0)
(-0.072301042 -0.49095492 0)
(-0.041158154 -0.35049355 0)
(-0.033352547 0.15563184 0)
(-0.068620907 0.22039544 0)
(-0.055249483 0.21724424 0)
(-0.016194656 0.19524418 0)
(0.034337716 0.17082794 0)
(0.088280611 0.14840151 0)
(0.14149778 0.12853585 0)
(0.19166851 0.11052672 0)
(0.23722633 0.093277532 0)
(0.27680793 0.075586029 0)
(0.30892222 0.056219585 0)
(0.33177467 0.033881623 0)
(0.34294186 0.0070970791 0)
(0.33963225 -0.025841027 0)
(0.31797265 -0.067681576 0)
(0.27315016 -0.12406339 0)
(0.2003477 -0.2058198 0)
(0.1020679 -0.32504859 0)
(-0.01242446 -0.45454946 0)
(-0.023766168 -0.40862093 0)
(-0.033076038 0.23908961 0)
(-0.042638485 0.21793098 0)
(0.042201759 0.16425701 0)
(0.12756759 0.12780716 0)
(0.20761956 0.10139517 0)
(0.28015824 0.081615549 0)
(0.34470877 0.066611314 0)
(0.40138744 0.05467783 0)
(0.45033709 0.044389031 0)
(0.49140358 0.034644736 0)
(0.52395581 0.024568693 0)
(0.54680312 0.013409188 0)
(0.55806817 0.00043114606 0)
(0.55558721 -0.015105743 0)
(0.53543668 -0.034942091 0)
(0.49238439 -0.062469585 0)
(0.41793012 -0.10693873 0)
(0.30407651 -0.19317256 0)
(0.12312076 -0.33691724 0)
(0.052368616 -0.39437745 0)
(0.24300509 0.1525805 0)
(0.30531191 0.11855082 0)
(0.45482981 0.076111327 0)
(0.56001708 0.050837841 0)
(0.63222214 0.035119527 0)
(0.68651371 0.024803944 0)
(0.72937915 0.017952345 0)
(0.76371879 0.013250644 0)
(0.79119143 0.0097604576 0)
(0.81266239 0.0068563784 0)
(0.82832954 0.0041236797 0)
(0.83787602 0.0012839469 0)
(0.84052109 -0.001838081 0)
(0.83494613 -0.0053198898 0)
(0.81885393 -0.0098233491 0)
(0.78942704 -0.016229311 0)
(0.73784678 -0.026934711 0)
(0.65317153 -0.051287245 0)
(0.45609928 -0.11374741 0)
(0.31788993 -0.1720612 0)
)
;

boundaryField
{
    movingWall
    {
        type            fixedValue;
        value           uniform (1 0 0);
    }
    fixedWalls
    {
        type            fixedValue;
        value           uniform (0 0 0);
    }
    frontAndBack
    {
        type            empty;
    }
}


// ************************************************************************* //
