/*--------------------------------*- C++ -*----------------------------------*\
| =========                 |                                                 |
| \\      /  F ield         | OpenFOAM: The Open Source CFD Toolbox           |
|  \\    /   O peration     | Version:  2112                                  |
|   \\  /    A nd           | Website:  www.openfoam.com                      |
|    \\/     M anipulation  |                                                 |
\*---------------------------------------------------------------------------*/
FoamFile
{
    version     2.0;
    format      ascii;
    arch        "LSB;label=32;scalar=64";
    class       volVectorField;
    location    "12";
    object      U_0;
}
// * * * * * * * * * * * * * * * * * * * * * * * * * * * * * * * * * * * * * //

dimensions      [0 1 -1 0 0 0 0];

internalField   nonuniform List<vector> 
400
(
(0.00028304555 -0.00028011313 0)
(0.00010854361 8.0379649e-05 0)
(-0.0013261983 0.000477219 0)
(-0.0036147431 0.00073422118 0)
(-0.0064085546 0.0008652837 0)
(-0.0094076339 0.00090477868 0)
(-0.01235548 0.00087235984 0)
(-0.0150162 0.00076928252 0)
(-0.017148479 0.00058683052 0)
(-0.018503786 0.00031935259 0)
(-0.01885412 -2.4357651e-05 0)
(-0.01804206 -0.00041654569 0)
(-0.016043716 -0.00079692306 0)
(-0.013023106 -0.0010896806 0)
(-0.009351659 -0.0012178937 0)
(-0.0055728555 -0.0011269825 0)
(-0.0023025596 -0.00081173789 0)
(-8.7980341e-05 -0.00033830762 0)
(0.00075609609 0.00015079926 0)
(0.00040800626 0.00038794684 0)
(-8.6369132e-05 -0.00012157745 0)
(-0.0018652023 0.0017837907 0)
(-0.0062895323 0.0036165597 0)
(-0.012416907 0.0048487253 0)
(-0.019542779 0.0054824485 0)
(-0.027026033 0.0056040267 0)
(-0.034256234 0.0052704708 0)
(-0.040648006 0.0044916116 0)
(-0.045624739 0.0032579763 0)
(-0.048637352 0.0015874396 0)
(-0.049231541 -0.00043076347 0)
(-0.047130794 -0.0026066929 0)
(-0.042348482 -0.004647579 0)
(-0.035282545 -0.0061989866 0)
(-0.026725916 -0.0069179823 0)
(-0.017798707 -0.0065763866 0)
(-0.0097655635 -0.0051701887 0)
(-0.003747054 -0.0029969296 0)
(-0.00039263963 -0.00066874023 0)
(0.00028799551 0.00077950881 0)
(-0.00058640608 0.0014315799 0)
(-0.0042294073 0.0063601135 0)
(-0.011720467 0.010608966 0)
(-0.021398836 0.013442481 0)
(-0.032261349 0.014852676 0)
(-0.043448248 0.01497192 0)
(-0.054116012 0.013895312 0)
(-0.063445826 0.011652376 0)
(-0.070642757 0.0082625339 0)
(-0.074969886 0.003825987 0)
(-0.07582763 -0.0013909963 0)
(-0.072863968 -0.0069041392 0)
(-0.066100778 -0.012027178 0)
(-0.056038129 -0.015948556 0)
(-0.043686956 -0.017891427 0)
(-0.03051081 -0.017336687 0)
(-0.01822148 -0.014260737 0)
(-0.0084085424 -0.0092994753 0)
(-0.0021512047 -0.0037628155 0)
(-3.1548692e-06 0.00031121752 0)
(-0.0010492711 0.0042885494 0)
(-0.0064918164 0.013523824 0)
(-0.01693989 0.020798087 0)
(-0.029928026 0.025480445 0)
(-0.044151838 0.027675008 0)
(-0.058591408 0.027604259 0)
(-0.072255969 0.025414576 0)
(-0.084185453 0.021163425 0)
(-0.093449035 0.014914645 0)
(-0.099179121 0.006876972 0)
(-0.10065376 -0.0024720609 0)
(-0.097408292 -0.012320841 0)
(-0.089371526 -0.021525539 0)
(-0.077001849 -0.028732313 0)
(-0.06137004 -0.032613076 0)
(-0.044163302 -0.032218944 0)
(-0.027510981 -0.027387177 0)
(-0.013559799 -0.019049191 0)
(-0.0040216198 -0.0092636197 0)
(-0.00026808787 -0.0011134228 0)
(-0.0014502648 0.008338245 0)
(-0.0085178959 0.023105226 0)
(-0.02166946 0.033940601 0)
(-0.037662804 0.040632577 0)
(-0.054913458 0.043565974 0)
(-0.072285833 0.043130584 0)
(-0.088707762 0.039551864 0)
(-0.10314943 0.032920969 0)
(-0.11460372 0.023341621 0)
(-0.1221031 0.011117454 0)
(-0.12479074 -0.0030835126 0)
(-0.12201809 -0.018132869 0)
(-0.11349425 -0.032422478 0)
(-0.099474886 -0.043993911 0)
(-0.080927037 -0.050824403 0)
(-0.059654367 -0.051313745 0)
(-0.03821702 -0.044915896 0)
(-0.01948502 -0.032696481 0)
(-0.0060824069 -0.017470175 0)
(-0.00051055926 -0.0035239522 0)
(-0.001782148 0.013429781 0)
(-0.01023333 0.034843702 0)
(-0.02571775 0.04974499 0)
(-0.044320829 0.058607946 0)
(-0.064224009 0.062268133 0)
(-0.08422104 0.06137425 0)
(-0.10321593 0.056267908 0)
(-0.12017016 0.047075511 0)
(-0.13405098 0.033915168 0)
(-0.14381515 0.017134673 0)
(-0.14845274 -0.0024752308 0)
(-0.14706346 -0.023521575 0)
(-0.13901354 -0.043984045 0)
(-0.12418033 -0.06125547 0)
(-0.10322663 -0.072447509 0)
(-0.077905572 -0.074993279 0)
(-0.051164665 -0.067561413 0)
(-0.026760338 -0.051028762 0)
(-0.0085969416 -0.028922594 0)
(-0.0007857453 -0.0070479783 0)
(-0.0020348988 0.019369976 0)
(-0.011567925 0.0483673 0)
(-0.028905603 0.067778924 0)
(-0.049608926 0.078980533 0)
(-0.07168561 0.0834116 0)
(-0.093904751 0.082072851 0)
(-0.11520064 0.075463665 0)
(-0.13458493 0.063744581 0)
(-0.1510549 0.047008323 0)
(-0.1635305 0.025570786 0)
(-0.17084358 0.00023710402 0)
(-0.17182213 -0.027470732 0)
(-0.1654101 -0.055201945 0)
(-0.15092282 -0.079713781 0)
(-0.12847679 -0.097103723 0)
(-0.099498822 -0.10346168 0)
(-0.067126713 -0.096086827 0)
(-0.036056991 -0.075080524 0)
(-0.011908769 -0.044468626 0)
(-0.0011685064 -0.01198828 0)
(-0.0021947599 0.025926333 0)
(-0.012450064 0.063214632 0)
(-0.03105694 0.087491136 0)
(-0.053217871 0.10118875 0)
(-0.07682925 0.10647909 0)
(-0.10067805 0.10480438 0)
(-0.12377965 0.096867884 0)
(-0.14525548 0.082866195 0)
(-0.16419827 0.062823261 0)
(-0.17955955 0.036933666 0)
(-0.19008651 0.0058797411 0)
(-0.1943543 -0.028874337 0)
(-0.19085351 -0.064795488 0)
(-0.17823312 -0.098121711 0)
(-0.1558029 -0.12388363 0)
(-0.12426663 -0.13647237 0)
(-0.086519809 -0.13107396 0)
(-0.047990948 -0.10604335 0)
(-0.016402896 -0.065287824 0)
(-0.0017503159 -0.01885313 0)
(-0.0022507459 0.032828653 0)
(-0.012826547 0.078846086 0)
(-0.032032838 0.10821496 0)
(-0.054872219 0.12451451 0)
(-0.079183715 0.13075056 0)
(-0.10380752 0.12889314 0)
(-0.12788649 0.11990368 0)
(-0.15071331 0.1040288 0)
(-0.1715563 0.081191142 0)
(-0.18950168 0.051378023 0)
(-0.20333645 0.015005538 0)
(-0.21149595 -0.02670552 0)
(-0.21210146 -0.071292224 0)
(-0.20312748 -0.11473213 0)
(-0.18287084 -0.15111984 0)
(-0.15085347 -0.1729514 0)
(-0.10903965 -0.17251585 0)
(-0.06294806 -0.1450035 0)
(-0.022493805 -0.092834118 0)
(-0.002654139 -0.028381842 0)
(-0.0022060498 0.039787656 0)
(-0.012701272 0.094674727 0)
(-0.031800673 0.12918563 0)
(-0.05442758 0.1480731 0)
(-0.07840381 0.15526111 0)
(-0.10265283 0.15333496 0)
(-0.12648847 0.14358113 0)
(-0.14943629 0.12633135 0)
(-0.17102962 0.10140248 0)
(-0.19061777 0.068521161 0)
(-0.20719401 0.027721481 0)
(-0.21924786 -0.020219224 0)
(-0.22475878 -0.073216205 0)
(-0.22117699 -0.12738667 0)
(-0.20572518 -0.17627908 0)
(-0.17635226 -0.21063373 0)
(-0.13323973 -0.21927015 0)
(-0.080824354 -0.1924688 0)
(-0.030608129 -0.12866927 0)
(-0.0040638359 -0.041579195 0)
(-0.0020936907 0.046541413 0)
(-0.012188072 0.11013605 0)
(-0.030527465 0.14959324 0)
(-0.051998813 0.17083852 0)
(-0.074436848 0.17880184 0)
(-0.096885983 0.17677862 0)
(-0.11887952 0.16646011 0)
(-0.1402365 0.1483216 0)
(-0.16084035 0.12210705 0)
(-0.18043124 0.087282565 0)
(-0.19839898 0.043451465 0)
(-0.2135341 -0.0092122066 0)
(-0.22400619 -0.069435577 0)
(-0.22706245 -0.1338403 0)
(-0.21905116 -0.19612014 0)
(-0.19620993 -0.24589462 0)
(-0.15615314 -0.26850357 0)
(-0.10064776 -0.24767348 0)
(-0.041113587 -0.17411714 0)
(-0.0062631933 -0.059757494 0)
(-0.0019998 0.052939 0)
(-0.011579357 0.12480454 0)
(-0.028687507 0.16867397 0)
(-0.048093839 0.19170493 0)
(-0.067685559 0.19996752 0)
(-0.086702174 0.197575 0)
(-0.10496764 0.18670587 0)
(-0.12265663 0.16804851 0)
(-0.14006717 0.14133552 0)
(-0.15741471 0.1058187 0)
(-0.1746417 0.060675064 0)
(-0.19121294 0.0053989877 0)
(-0.20572332 -0.059695497 0)
(-0.21560603 -0.13233835 0)
(-0.21696952 -0.20722421 0)
(-0.20460781 -0.27398828 0)
(-0.17316863 -0.3153765 0)
(-0.12014332 -0.30776006 0)
(-0.054122361 -0.22964364 0)
(-0.0096670414 -0.08455945 0)
(-0.0021060623 0.05907795 0)
(-0.011443983 0.13855791 0)
(-0.027177179 0.18582411 0)
(-0.0437183 0.20956353 0)
(-0.059103735 0.21723219 0)
(-0.072927504 0.21387971 0)
(-0.085425195 0.20223214 0)
(-0.097199847 0.18324317 0)
(-0.10900749 0.15669916 0)
(-0.12158446 0.12171745 0)
(-0.1354966 0.077121817 0)
(-0.15094554 0.021782862 0)
(-0.16735367 -0.044902881 0)
(-0.18294698 -0.12227847 0)
(-0.1942221 -0.20686616 0)
(-0.19535327 -0.28983426 0)
(-0.17835704 -0.35328753 0)
(-0.1354202 -0.36714253 0)
(-0.069078414 -0.2939106 0)
(-0.014788241 -0.1178784 0)
(-0.0027766688 0.065533948 0)
(-0.012783463 0.15177822 0)
(-0.027423204 0.20068978 0)
(-0.040388611 0.2233403 0)
(-0.050118995 0.22899825 0)
(-0.056874534 0.2237522 0)
(-0.061497995 0.21086735 0)
(-0.065108639 0.19155393 0)
(-0.068932907 0.16568046 0)
(-0.074198657 0.13231464 0)
(-0.082054891 0.090068409 0)
(-0.093441145 0.037357271 0)
(-0.10877499 -0.027290939 0)
(-0.12749341 -0.10477231 0)
(-0.14729505 -0.1940087 0)
(-0.1629918 -0.28926582 0)
(-0.16521576 -0.37486486 0)
(-0.14096146 -0.41748233 0)
(-0.084071589 -0.36259405 0)
(-0.022008164 -0.16146474 0)
(-0.0047301408 0.073775725 0)
(-0.017274258 0.16555747 0)
(-0.031400597 0.21312961 0)
(-0.039865391 0.23188792 0)
(-0.042125551 0.23352074 0)
(-0.039643882 0.22515164 0)
(-0.034144727 0.2104318 0)
(-0.027359786 0.19070547 0)
(-0.020966632 0.16587046 0)
(-0.016593884 0.13498339 0)
(-0.015848682 0.096573673 0)
(-0.020283351 0.048833935 0)
(-0.031254701 -0.010246393 0)
(-0.049542123 -0.082748261 0)
(-0.074670561 -0.16997527 0)
(-0.10350061 -0.27033982 0)
(-0.12741896 -0.37352897 0)
(-0.12983084 -0.44851034 0)
(-0.094946715 -0.42733207 0)
(-0.030932712 -0.21602778 0)
(-0.0093103718 0.086923667 0)
(-0.027486064 0.18174412 0)
(-0.041105947 0.22285479 0)
(-0.042877468 0.23357212 0)
(-0.034670991 0.22858119 0)
(-0.019944621 0.21572807 0)
(-0.0016018345 0.19863321 0)
(0.017956483 0.17847839 0)
(0.036672043 0.15506127 0)
(0.052660098 0.12739708 0)
(0.064041266 0.094023634 0)
(0.068874205 0.053136639 0)
(0.065087544 0.0026022424 0)
(0.050751983 -0.060198461 0)
(0.024382512 -0.13824676 0)
(-0.013921926 -0.23405665 0)
(-0.058925675 -0.34506417 0)
(-0.093622752 -0.44943066 0)
(-0.0945169 -0.475471 0)
(-0.039224017 -0.28040385 0)
(-0.01858744 0.11087097 0)
(-0.046083721 0.20172506 0)
(-0.055338137 0.22782373 0)
(-0.04416316 0.22487174 0)
(-0.019617952 0.21045541 0)
(0.012030689 0.19213531 0)
(0.046647951 0.17267191 0)
(0.081382871 0.15258394 0)
(0.11405723 0.13133078 0)
(0.14277893 0.10781992 0)
(0.16566178 0.080655452 0)
(0.18065473 0.048204304 0)
(0.18528435 0.0085560308 0)
(0.17691028 -0.040710545 0)
(0.15254029 -0.10308106 0)
(0.10930565 -0.18382959 0)
(0.047092459 -0.2884948 0)
(-0.021542617 -0.41045437 0)
(-0.072301299 -0.49095458 0)
(-0.041158211 -0.35049327 0)
(-0.033352548 0.15563192 0)
(-0.068621013 0.22039539 0)
(-0.055249825 0.21724398 0)
(-0.01619529 0.19524375 0)
(0.034336772 0.17082742 0)
(0.088279377 0.148401 0)
(0.14149631 0.12853544 0)
(0.19166688 0.11052644 0)
(0.23722463 0.093277424 0)
(0.27680623 0.075586091 0)
(0.30892061 0.056219796 0)
(0.33177322 0.033881943 0)
(0.34294059 0.0070974619 0)
(0.33963119 -0.025840647 0)
(0.31797178 -0.067681247 0)
(0.27314948 -0.12406315 0)
(0.20034716 -0.20581965 0)
(0.10206752 -0.32504848 0)
(-0.012424659 -0.45454934 0)
(-0.023766218 -0.40862082 0)
(-0.033076012 0.2390897 0)
(-0.04263844 0.21793103 0)
(0.042201726 0.16425696 0)
(0.12756738 0.12780701 0)
(0.20761913 0.10139495 0)
(0.28015757 0.08161532 0)
(0.34470788 0.066611116 0)
(0.40138638 0.054677696 0)
(0.45033593 0.044388978 0)
(0.49140241 0.034644765 0)
(0.52395469 0.024568795 0)
(0.54680213 0.013409339 0)
(0.55806734 0.00043131726 0)
(0.55558655 -0.015105572 0)
(0.5354362 -0.034941945 0)
(0.49238406 -0.062469485 0)
(0.4179299 -0.10693868 0)
(0.30407635 -0.19317255 0)
(0.12312067 -0.33691723 0)
(0.052368586 -0.39437745 0)
(0.24300512 0.15258052 0)
(0.305312 0.11855086 0)
(0.45482991 0.076111341 0)
(0.56001712 0.050837828 0)
(0.63222208 0.035119492 0)
(0.68651352 0.0248039 0)
(0.72937883 0.017952305 0)
(0.76371837 0.013250617 0)
(0.79119095 0.0097604496 0)
(0.8126619 0.0068563905 0)
(0.82832909 0.0041237085 0)
(0.83787565 0.0012839854 0)
(0.84052082 -0.0018380492 0)
(0.83494598 -0.0053198561 0)
(0.81885386 -0.0098233197 0)
(0.78942704 -0.016229293 0)
(0.73784681 -0.026934706 0)
(0.65317156 -0.051287249 0)
(0.45609929 -0.11374741 0)
(0.31788994 -0.1720612 0)
)
;

boundaryField
{
    movingWall
    {
        type            fixedValue;
        value           uniform (1 0 0);
    }
    fixedWalls
    {
        type            fixedValue;
        value           uniform (0 0 0);
    }
    frontAndBack
    {
        type            empty;
    }
}


// ************************************************************************* //
