/*--------------------------------*- C++ -*----------------------------------*\
| =========                 |                                                 |
| \\      /  F ield         | OpenFOAM: The Open Source CFD Toolbox           |
|  \\    /   O peration     | Version:  2112                                  |
|   \\  /    A nd           | Website:  www.openfoam.com                      |
|    \\/     M anipulation  |                                                 |
\*---------------------------------------------------------------------------*/
FoamFile
{
    version     2.0;
    format      ascii;
    arch        "LSB;label=32;scalar=64";
    class       volScalarField;
    location    "14";
    object      p;
}
// * * * * * * * * * * * * * * * * * * * * * * * * * * * * * * * * * * * * * //

dimensions      [0 2 -2 0 0 0 0];

internalField   nonuniform List<scalar> 
400
(
3.3563727e-07
-0.0006714509
-0.0013825666
-0.0019386228
-0.0022147466
-0.0021502289
-0.0017207523
-0.00091869709
0.00024304771
0.0017148255
0.0033942484
0.0051186706
0.0066796228
0.0078552985
0.0084651585
0.008431522
0.0078226185
0.0068551747
0.0058729002
0.0053108858
0.00065781591
-3.9604312e-05
-0.00056771227
-0.00093761725
-0.001106819
-0.0010348658
-0.00069981727
-8.8825713e-05
0.00079632845
0.0019236652
0.0032170598
0.004562078
0.005789302
0.0067238003
0.0072225249
0.0072235221
0.0067800406
0.00606392
0.0053224225
0.0047507755
0.001422705
0.0004408996
-0.00011536785
-0.00045099056
-0.00061148086
-0.00058033779
-0.00034095774
0.00012640979
0.00083595647
0.0017779493
0.002902577
0.0041065173
0.0052366331
0.0061195661
0.0066029634
0.0066075804
0.0061666757
0.0054334645
0.0046064813
0.0037614389
0.0020122226
0.00068136767
1.7515124e-05
-0.00035703061
-0.00056848709
-0.00062208544
-0.00050411119
-0.00018323101
0.0003771042
0.0011938229
0.0022397751
0.0034274159
0.0046013396
0.0055669686
0.0061338978
0.0061775781
0.0056955967
0.0048300764
0.0037612492
0.0024883303
0.0021647335
0.00049563305
-0.00029553075
-0.0007467552
-0.0010547831
-0.0012399843
-0.0012854785
-0.0011421073
-0.00074420185
-4.1076754e-05
0.00096965029
0.0022230447
0.003557286
0.004744992
0.0055341186
0.0057224973
0.0052426557
0.0042159961
0.0028216656
0.0010005927
0.0016517467
-0.00031440421
-0.0012373379
-0.0017963856
-0.0022478225
-0.002620717
-0.0028888208
-0.0029787253
-0.0027879665
-0.0022215257
-0.0012341779
0.00014796995
0.0017612627
0.0033429842
0.0045568518
0.0050807249
0.0047327572
0.0035823017
0.0018068789
-0.00070709567
0.00028631931
-0.0019179426
-0.0029698609
-0.003666471
-0.0043129555
-0.004942852
-0.0055164161
-0.0059309309
-0.0060390824
-0.0056853199
-0.0047524227
-0.0032354223
-0.0012440968
0.00092816944
0.0028425735
0.004005099
0.0040429033
0.0029059124
0.00073471243
-0.002659278
-0.002074334
-0.0044469256
-0.0056209335
-0.0064843441
-0.0073819442
-0.0083510463
-0.0093380134
-0.010208697
-0.010764202
-0.010775325
-0.010032345
-0.0084306197
-0.0060108179
-0.0030554421
-0.00010115702
0.0021353545
0.0029849649
0.0021563096
-0.00034447605
-0.0048489252
-0.0055180771
-0.0079842339
-0.0092684021
-0.010321849
-0.011522498
-0.012915431
-0.014437681
-0.015926236
-0.017127889
-0.017728065
-0.017398223
-0.015879393
-0.01308432
-0.0092159667
-0.0048669304
-0.0010017474
0.001294642
0.001301395
-0.0013101356
-0.0071756933
-0.010065936
-0.012552926
-0.01392291
-0.015167583
-0.016697929
-0.018577046
-0.020742837
-0.023011582
-0.025079325
-0.026540067
-0.026920839
-0.025764039
-0.02279844
-0.018030567
-0.012011789
-0.0059176983
-0.001341006
0.00032728159
-0.0019213244
-0.0093544679
-0.015668706
-0.018115713
-0.019519468
-0.020905965
-0.02273259
-0.025099179
-0.02796002
-0.031123094
-0.034242568
-0.036823764
-0.038238697
-0.037788066
-0.03501193
-0.029551296
-0.021777361
-0.012946212
-0.0051512264
-0.00068639105
-0.0017368754
-0.010763773
-0.022222196
-0.024592104
-0.025923647
-0.027310417
-0.029295339
-0.03204475
-0.035548001
-0.039617243
-0.043874243
-0.047744227
-0.050471229
-0.051178341
-0.048900462
-0.043090952
-0.033721509
-0.021884631
-0.010001063
-0.0013847284
1.7746914e-05
-0.010198027
-0.029615469
-0.031899549
-0.032953976
-0.034052997
-0.035908746
-0.038795332
-0.042753114
-0.047602788
-0.052936426
-0.058105974
-0.062225423
-0.064207883
-0.062820624
-0.057062121
-0.0464318
-0.031609484
-0.015003528
-0.00083485459
0.0046727759
-0.005496966
-0.037837255
-0.040022046
-0.040414062
-0.040725193
-0.041984573
-0.04461767
-0.048716814
-0.054096698
-0.060303817
-0.066610347
-0.072005496
-0.075215462
-0.074762909
-0.06922628
-0.057590847
-0.039928992
-0.018219638
0.0028138159
0.014466931
0.0069267141
-0.047200677
-0.049107465
-0.048115111
-0.046856752
-0.046877767
-0.048766608
-0.052630482
-0.058232434
-0.065027978
-0.072181666
-0.078546132
-0.082666266
-0.082839935
-0.077275952
-0.064497
-0.043913125
-0.016729571
0.012519323
0.03295349
0.032420782
-0.058868039
-0.059614645
-0.055861288
-0.051919673
-0.049949684
-0.050603249
-0.053896177
-0.059457014
-0.06656887
-0.074240282
-0.081147418
-0.085640161
-0.085799519
-0.079498131
-0.064859868
-0.040678958
-0.007234233
0.032145207
0.064987052
0.077752773
-0.076201602
-0.072592551
-0.063498778
-0.055420348
-0.050709321
-0.049761699
-0.052286292
-0.057631805
-0.064854168
-0.072735081
-0.079740812
-0.084003066
-0.083365594
-0.075332082
-0.057594734
-0.028374376
0.012929472
0.065392991
0.11554815
0.1515018
-0.1080732
-0.089541092
-0.071223221
-0.057225302
-0.049063648
-0.046317147
-0.048057331
-0.053175466
-0.06040183
-0.068260392
-0.07499295
-0.078497175
-0.076366809
-0.065796819
-0.043862097
-0.0078229035
0.044384279
0.1129875
0.18837039
0.2718501
-0.17683212
-0.10827905
-0.076197633
-0.054649292
-0.042989394
-0.038990123
-0.040555328
-0.045905243
-0.053412642
-0.06140627
-0.067995964
-0.070935158
-0.067531282
-0.054728097
-0.029146062
0.013558446
0.078136467
0.17005144
0.28948232
0.4742056
-0.37207027
-0.12469909
-0.054969394
-0.031962559
-0.022063228
-0.02029578
-0.024347704
-0.031938571
-0.041235622
-0.050611007
-0.058286421
-0.062159773
-0.05976056
-0.048043507
-0.022653995
0.021471091
0.092809969
0.21014115
0.40287619
0.77639736
)
;

boundaryField
{
    movingWall
    {
        type            zeroGradient;
    }
    fixedWalls
    {
        type            zeroGradient;
    }
    frontAndBack
    {
        type            empty;
    }
}


// ************************************************************************* //
