/*--------------------------------*- C++ -*----------------------------------*\
| =========                 |                                                 |
| \\      /  F ield         | OpenFOAM: The Open Source CFD Toolbox           |
|  \\    /   O peration     | Version:  2112                                  |
|   \\  /    A nd           | Website:  www.openfoam.com                      |
|    \\/     M anipulation  |                                                 |
\*---------------------------------------------------------------------------*/
FoamFile
{
    version     2.0;
    format      ascii;
    arch        "LSB;label=32;scalar=64";
    class       surfaceScalarField;
    location    "14";
    object      phi;
}
// * * * * * * * * * * * * * * * * * * * * * * * * * * * * * * * * * * * * * //

dimensions      [0 3 -1 0 0 0 0];

oriented        oriented;

internalField   nonuniform List<scalar> 
760
(
1.2668392e-05
-1.2673519e-05
-2.8734649e-05
4.1402747e-05
-0.00012222388
9.3489219e-05
-0.00025020905
0.0001279853
-0.00039574754
0.00014553846
-0.00054491733
0.0001491698
-0.00068565986
0.00014074247
-0.00080616596
0.00012050605
-0.00089415116
8.7985237e-05
-0.00093756773
4.341658e-05
-0.00092649303
-1.1074812e-05
-0.00085618402
-7.0309046e-05
-0.00072990567
-0.0001262784
-0.00056100025
-0.00016890547
-0.00037259775
-0.00018840256
-0.00019445472
-0.0001781431
-5.658584e-05
-0.00013786892
1.9533764e-05
-7.6119587e-05
3.0366832e-05
-1.0832991e-05
3.0366873e-05
-4.3156246e-05
3.0482466e-05
-0.00020438956
0.00020263634
-0.00046788078
0.00035698093
-0.00079991931
0.00046002443
-0.0011661816
0.00051180078
-0.0015349031
0.00051789112
-0.001876344
0.00048218334
-0.0021615381
0.0004057001
-0.0023622499
0.00028869695
-0.0024530411
0.00013420789
-0.0024159637
-4.8152333e-05
-0.0022434455
-0.00024282741
-0.0019460162
-0.00042370773
-0.001553359
-0.0005615627
-0.0011136378
-0.00062812368
-0.00068715281
-0.0006046282
-0.00033445169
-0.00049057032
-0.00010093602
-0.0003096357
-1.5905469e-06
-0.00011017896
2.8776346e-05
-0.00010991195
0.00014039441
-0.00040259427
0.00049531893
-0.00083047872
0.00078486543
-0.0013441479
0.0009736937
-0.0018965416
0.0010641944
-0.0024439638
0.0010653134
-0.0029449356
0.00098315506
-0.0033591698
0.00081993428
-0.0036482569
0.00057778391
-0.0037786912
0.00026464223
-0.0037264036
-0.00010044009
-0.0034827786
-0.00048645247
-0.0030607677
-0.00084571871
-0.0024980949
-0.0011242355
-0.0018569518
-0.0012692669
-0.0012174084
-0.0012441715
-0.00066341417
-0.0010445645
-0.00026301219
-0.00071003772
-4.796712e-05
-0.00032522431
-1.9190837e-05
-0.00017323196
0.00031362665
-0.00059259233
0.0009146797
-0.0011763291
0.0013686021
-0.0018562547
0.0016536192
-0.0025740378
0.0017819775
-0.0032777411
0.0017690166
-0.0039186492
0.0016240632
-0.0044495835
0.0013508686
-0.0048255056
0.00095370594
-0.0050065057
0.00044564239
-0.0049627797
-0.00014416615
-0.0046804173
-0.00076881481
-0.0041689581
-0.0013571779
-0.0034664657
-0.001826728
-0.0026421095
-0.0020936233
-0.0017920095
-0.0020942715
-0.0010252362
-0.0018113379
-0.00043999061
-0.0012952833
-9.6691138e-05
-0.0006685239
-0.00011588202
-0.00022950995
0.0005431367
-0.00076415592
0.0014493259
-0.001489746
0.0020941921
-0.0023199169
0.0024837901
-0.0031866374
0.0026486979
-0.0040325373
0.0026149165
-0.0048051189
0.0023966449
-0.0054536101
0.0019993596
-0.0059286165
0.0014287123
-0.0061842769
0.00070130274
-0.006183126
-0.00014531712
-0.0059007769
-0.0010511639
-0.0053362743
-0.0019216804
-0.0045197658
-0.0026432364
-0.003520484
-0.0030929051
-0.0024481526
-0.003166603
-0.0014416178
-0.0028178727
-0.00064084875
-0.0020960524
-0.00014875786
-0.0011606148
-0.00026463988
-0.00027696169
0.00082009826
-0.00091048962
0.0020828539
-0.0017587609
0.0029424634
-0.0027198714
0.0034449006
-0.0037183472
0.0036471739
-0.0046940175
0.0035905867
-0.0055935682
0.0032961957
-0.0063654273
0.0027712187
-0.0069577492
0.0020210342
-0.0073188692
0.0010624227
-0.0074017383
-6.2447987e-05
-0.007166411
-0.0012864913
-0.0065942282
-0.0024938632
-0.0056977973
-0.0035396672
-0.0045370212
-0.0042536811
-0.0032297639
-0.0044738602
-0.0019477973
-0.0040998393
-0.00088674356
-0.0031571061
-0.00021146722
-0.0018358912
-0.00047610708
-0.00031376522
0.0011338634
-0.0010252467
0.0027943354
-0.0019714898
0.0038887065
-0.0030387684
0.0045121792
-0.0041468203
0.004755226
-0.0052352634
0.0046790296
-0.006252781
0.0043137132
-0.0071498199
0.0036682575
-0.0078744552
0.0027456694
-0.0083709292
0.0015588967
-0.0085796475
0.00014627041
-0.0084459431
-0.0014201956
-0.0079246518
-0.0030151545
-0.0070008029
-0.004463516
-0.005711709
-0.0055427749
-0.0041711659
-0.0060144032
-0.0025803515
-0.0056906537
-0.0012034031
-0.0045340544
-0.00029432709
-0.0027449672
-0.00077043419
-0.00033792514
0.0014717886
-0.0011021621
0.0035585725
-0.0021157761
0.0049023206
-0.0032571499
0.0056535529
-0.00444385
0.0059419262
-0.0056177157
0.0058528953
-0.0067321781
0.0054281755
-0.0077428499
0.0046789293
-0.0086010855
0.0036039049
-0.009249947
0.0022077581
-0.009621834
0.00051815743
-0.0096442733
-0.0013977562
-0.0092444222
-0.0034150055
-0.0083698954
-0.0053380429
-0.0070186861
-0.006893984
-0.0052792346
-0.0077538547
-0.003365982
-0.0076039063
-0.0016165243
-0.0062835122
-0.00040804152
-0.0039534498
-0.0011784758
-0.00034790266
0.0018196913
-0.0011364151
0.0043470851
-0.0021813018
0.0059472074
-0.0033564233
0.0068286744
-0.0045793995
0.0071649025
-0.0057964527
0.0070699484
-0.0069684459
0.0066001687
-0.0080596894
0.0057701728
-0.0090293659
0.0045735814
-0.0098249247
0.0030033169
-0.010377286
0.0010705189
-0.010600669
-0.0011743732
-0.010397106
-0.0036185683
-0.009671488
-0.0060636613
-0.008365656
-0.008199816
-0.0065132264
-0.0096062844
-0.0043081569
-0.0098089758
-0.0021473963
-0.0084442729
-0.00056465236
-0.0055361935
-0.0017431283
-0.00034378801
0.0021634794
-0.0011273738
0.005130671
-0.0021637803
0.0069836141
-0.0033245104
0.0079894045
-0.0045290023
0.0083693945
-0.0057298374
0.0082707834
-0.0068979288
0.0077682602
-0.0080100178
0.0068822618
-0.0090384788
0.0056020424
-0.0099426844
0.0039075224
-0.010661182
0.0017890168
-0.011104558
-0.00073099758
-0.011161234
-0.0035618925
-0.010694932
-0.0065299633
-0.0095804465
-0.009314301
-0.0077648166
-0.011421914
-0.0053699586
-0.012203834
-0.0028062554
-0.011007976
-0.0007780656
-0.0075643831
-0.0025211941
-0.0003288941
0.0024923736
-0.0010823281
0.005884105
-0.0020705436
0.0079718297
-0.0031632218
0.0090820827
-0.0042833876
0.0094895604
-0.005392288
0.0093796837
-0.0064736089
0.008849581
-0.0075201234
0.0079287762
-0.0085226404
0.0066045592
-0.009460209
0.0048450909
-0.010291299
0.0026201068
-0.01093311
-8.9186905e-05
-0.011282968
-0.0032120348
-0.01117313
-0.006639801
-0.010414901
-0.01007253
-0.0088456865
-0.012991129
-0.0064546874
-0.014594833
-0.0035807479
-0.013881916
-0.0010639198
-0.010081211
-0.0035851141
-0.00031191574
0.0028042895
-0.0010210187
0.0065932081
-0.0019266375
0.0088774487
-0.0028956649
0.01005111
-0.0038577817
0.010451677
-0.0047866733
0.010308575
-0.0056821208
0.0097450284
-0.0065560733
0.0088027287
-0.0074217571
0.007470243
-0.0082838855
0.0057072192
-0.0091272818
0.0034635031
-0.0099107758
0.00069430712
-0.010529115
-0.0025936954
-0.010828425
-0.0063404907
-0.010574446
-0.01032651
-0.0094933949
-0.01407218
-0.0073908368
-0.016697391
-0.004418455
-0.016854298
-0.0014369583
-0.013062708
-0.0050220725
-0.00031031721
0.0031146069
-0.00098113455
0.0072640254
-0.0017803573
0.0096766715
-0.0025711903
0.010841943
-0.0032969011
0.011177388
-0.003950651
0.010962325
-0.0045531383
0.010347516
-0.0051383189
0.0093879093
-0.0057437476
0.0080756717
-0.0064025459
0.0063660175
-0.0071342127
0.0041951698
-0.0079342495
0.0014943438
-0.0087424923
-0.0017854527
-0.0094335178
-0.0056494653
-0.0097709953
-0.0099890322
-0.0094018653
-0.01444131
-0.0079312239
-0.018168032
-0.0052061864
-0.019579335
-0.0019024737
-0.01636642
-0.0069245461
-0.00035643947
0.0034710465
-0.0010251474
0.0079327333
-0.001706229
0.010357753
-0.0022636204
0.011399334
-0.0026692869
0.011583055
-0.0029482136
0.011241252
-0.0031489722
0.010548274
-0.0033299811
0.0095689182
-0.0035525613
0.0082982519
-0.0038765281
0.0066899843
-0.004354623
0.0046732646
-0.0050236506
0.0021633714
-0.0058815322
-0.00092757108
-0.0068622128
-0.0046687849
-0.0077799047
-0.0090713403
-0.0082684811
-0.013952733
-0.0077703042
-0.018666209
-0.0057516937
-0.021597946
-0.0024367129
-0.019681401
-0.0093612589
-0.00050874797
0.0039797944
-0.0012470557
0.008671041
-0.0017983955
0.010909093
-0.0020515767
0.011652515
-0.0020370291
0.011568507
-0.0018307177
0.011034941
-0.0015180429
0.0102356
-0.0011840612
0.0092349365
-0.00091105865
0.0080252494
-0.00078002909
0.0065589547
-0.00086961653
0.0047628519
-0.001253182
0.0025469368
-0.0019882402
-0.00019251286
-0.0030867378
-0.0035702873
-0.0044642062
-0.0076938718
-0.0058307699
-0.01258617
-0.0065683771
-0.017928602
-0.0057695465
-0.022396777
-0.0029514794
-0.022499468
-0.012312738
-0.00086905691
0.0048488513
-0.0017644893
0.0095664735
-0.0021240629
0.011268667
-0.0019407515
0.011469204
-0.0013558897
0.010983645
-0.00052199135
0.010201042
0.00043066267
0.0092829459
0.0013929403
0.008272659
0.0022656603
0.0071525294
0.0029543703
0.0058702447
0.0033629432
0.0043542791
0.0033910425
0.0025188375
0.0029333116
0.00026521798
0.0019049417
-0.0025419174
0.00026564591
-0.0060545761
-0.0018574734
-0.01046305
-0.003954026
-0.01583205
-0.0048622055
-0.021488597
-0.0032551269
-0.024106547
-0.015567865
-0.0015914744
0.0064403258
-0.0026121272
0.010587126
-0.0025155338
0.011172074
-0.0015934735
0.010547144
-0.00017679604
0.0095669679
0.0014873131
0.0085369334
0.0032268283
0.0075434309
0.0049168732
0.0065826143
0.0064566176
0.0056127852
0.00775135
0.0045755124
0.0087017712
0.0034038578
0.0091962996
0.002024309
0.0090987538
0.00036276363
0.0082711107
-0.0017142743
0.0065620807
-0.0043455461
0.0039014795
-0.0078024489
0.00055693067
-0.012487501
-0.0024693575
-0.018462309
-0.0030278072
-0.023548097
-0.018595672
-0.002718509
0.0091588349
-0.0031505247
0.011019141
-0.0018044846
0.0098260339
0.00046424618
0.0082784131
0.003086004
0.0069452103
0.0057695596
0.005853378
0.0083580251
0.0049549656
0.01075516
0.0041854793
0.012888167
0.0034797791
0.014685503
0.0027781763
0.01606357
0.002025791
0.016919038
0.0011688409
0.017116088
0.00016571356
0.016487832
-0.0010860179
0.014814426
-0.0026721408
0.011844748
-0.0048327709
0.0074340201
-0.0080767724
0.0022619606
-0.013290249
-0.0012729116
-0.020013225
-0.019868584
-0.0024131532
0.011571988
2.8093008e-05
0.008577895
0.0042547949
0.005599332
0.0084151427
0.0041180655
0.01222975
0.0031306032
0.015653792
0.0024293358
0.018683465
0.0019252927
0.021325698
0.0015432461
0.023579828
0.0012256491
0.025425637
0.00093236727
0.026816876
0.00063455213
0.027674362
0.00031135427
0.027897856
-5.7779494e-05
0.027345457
-0.0005336191
0.025770367
-0.0010970505
0.022842164
-0.0019045674
0.018054148
-0.0032887567
0.011113176
-0.0063492761
0.0033885019
-0.012288551
-0.016480082
0.011571988
0.020149883
0.025749216
0.029867281
0.032997884
0.03542722
0.037352513
0.038895759
0.040121409
0.041053776
0.041688328
0.041999683
0.041941903
0.041408284
0.040311233
0.038406666
0.035117909
0.028768633
0.016480082
)
;

boundaryField
{
    movingWall
    {
        type            calculated;
        value           uniform 0;
    }
    fixedWalls
    {
        type            calculated;
        value           uniform 0;
    }
    frontAndBack
    {
        type            empty;
        value           nonuniform List<scalar> 0();
    }
}


// ************************************************************************* //
