/*--------------------------------*- C++ -*----------------------------------*\
| =========                 |                                                 |
| \\      /  F ield         | OpenFOAM: The Open Source CFD Toolbox           |
|  \\    /   O peration     | Version:  2112                                  |
|   \\  /    A nd           | Website:  www.openfoam.com                      |
|    \\/     M anipulation  |                                                 |
\*---------------------------------------------------------------------------*/
FoamFile
{
    version     2.0;
    format      ascii;
    arch        "LSB;label=32;scalar=64";
    class       surfaceScalarField;
    location    "14";
    object      phi_0;
}
// * * * * * * * * * * * * * * * * * * * * * * * * * * * * * * * * * * * * * //

dimensions      [0 3 -1 0 0 0 0];

oriented        oriented;

internalField   nonuniform List<scalar> 
760
(
1.2670553e-05
-1.2670894e-05
-2.8733098e-05
4.1403895e-05
-0.00012222262
9.3489369e-05
-0.00025020756
0.00012798505
-0.00039574537
0.00014553795
-0.00054491444
0.00014916912
-0.00068565626
0.00014074176
-0.0008061617
0.00012050546
-0.00089414652
8.7984863e-05
-0.00093756308
4.3416557e-05
-0.00092648849
-1.1074515e-05
-0.00085618014
-7.0308466e-05
-0.0007299027
-0.00012627752
-0.0005609983
-0.00016890439
-0.00037259682
-0.00018840147
-0.0001944546
-0.00017814224
-5.6586212e-05
-0.00013786845
1.9533333e-05
-7.6119548e-05
3.0366626e-05
-1.0833269e-05
3.0366614e-05
-4.3154945e-05
3.0484168e-05
-0.00020438765
0.00020263635
-0.00046787773
0.00035697947
-0.00079991478
0.00046002217
-0.0011661751
0.00051179814
-0.0015348945
0.00051788842
-0.0018763336
0.00048218088
-0.0021615262
0.00040569818
-0.0023622371
0.00028869581
-0.0024530285
0.00013420774
-0.0024159517
-4.8151294e-05
-0.0022434349
-0.00024282526
-0.0019460077
-0.00042370473
-0.0015533528
-0.00056155924
-0.0011136341
-0.00062812024
-0.00068715114
-0.00060462523
-0.0003344514
-0.00049056822
-0.00010093627
-0.00030963469
-1.5905469e-06
-0.00011017895
2.8776037e-05
-0.00010991097
0.00014039498
-0.00040259147
0.00049531715
-0.00083047327
0.00078486154
-0.0013441397
0.00097368843
-0.0018965302
0.0010641886
-0.0024439494
0.0010653077
-0.0029449185
0.00098315004
-0.0033591508
0.00081993049
-0.0036482369
0.00057778188
-0.0037786714
0.00026464224
-0.0037263848
-0.00010043787
-0.0034827619
-0.00048644817
-0.0030607539
-0.00084571272
-0.0024980845
-0.0011242286
-0.0018569448
-0.00126926
-0.0012174045
-0.0012441656
-0.00066341252
-0.0010445602
-0.00026301191
-0.00071003536
-4.7967144e-05
-0.00032522368
-1.9191048e-05
-0.0001732307
0.00031362563
-0.00059258846
0.000914675
-0.0011763214
0.0013685946
-0.0018562431
0.00165361
-0.002574022
0.0017819676
-0.0032777215
0.0017690072
-0.0039186265
0.0016240552
-0.0044495585
0.0013508626
-0.0048254795
0.00095370277
-0.0050064798
0.00044564251
-0.0049627551
-0.00014416252
-0.0046803953
-0.00076880798
-0.0041689395
-0.0013571685
-0.0034664512
-0.001826717
-0.0026420991
-0.0020936122
-0.001792003
-0.0020942617
-0.0010252329
-0.0018113304
-0.00043998949
-0.0012952788
-9.6690981e-05
-0.00066852224
-0.00011588199
-0.00022950823
0.00054313403
-0.00076415095
0.0014493176
-0.0014897365
0.00209418
-0.0023199025
0.002483776
-0.0031866182
0.0026486834
-0.0040325138
0.0026149029
-0.004805092
0.0023966334
-0.0054535807
0.0019993513
-0.005928586
0.001428708
-0.0061842466
0.00070130307
-0.0061830971
-0.000145312
-0.0059007505
-0.0010511545
-0.0053362516
-0.0019216675
-0.0045197475
-0.0026432212
-0.0035204705
-0.0030928893
-0.0024481436
-0.0031665886
-0.0014416129
-0.0028178613
-0.00064084674
-0.002096045
-0.00014875743
-0.0011606116
-0.00026463948
-0.00027695978
0.00082009378
-0.00091048389
0.0020828417
-0.0017587502
0.0029424463
-0.0027198554
0.0034448813
-0.0037183262
0.0036471544
-0.0046939919
0.0035905687
-0.0055935392
0.0032961806
-0.0063653958
0.0027712079
-0.0069577165
0.0020210288
-0.0073188365
0.0010624231
-0.0074017069
-6.244149e-05
-0.0071663819
-0.0012864794
-0.0065942026
-0.0024938468
-0.0056977761
-0.0035396478
-0.0045370049
-0.0042536606
-0.0032297527
-0.0044738408
-0.0019477907
-0.0040998233
-0.00088674065
-0.0031570951
-0.00021146654
-0.0018358857
-0.00047610608
-0.00031376332
0.001133857
-0.0010252407
0.0027943192
-0.0019714788
0.0038886845
-0.0030387522
0.0045121547
-0.0041467992
0.0047552015
-0.005235238
0.0046790074
-0.0062527522
0.0043136949
-0.0071497888
0.0036682446
-0.0078744229
0.0027456629
-0.0083708968
0.0015588971
-0.008579616
0.00014627781
-0.0084459136
-0.0014201817
-0.0079246252
-0.0030151352
-0.0070007802
-0.0044634929
-0.0057116908
-0.00554275
-0.0041711528
-0.0060143789
-0.0025803434
-0.0056906328
-0.0012033993
-0.0045340391
-0.00029432619
-0.0027449588
-0.00077043227
-0.00033792339
0.0014717804
-0.0011021567
0.0035585526
-0.0021157662
0.004902294
-0.0032571351
0.0056535236
-0.0044438308
0.0059418973
-0.0056176928
0.0058528693
-0.0067321523
0.0054281544
-0.0077428221
0.0046789146
-0.0086010567
0.0036038975
-0.009249918
0.0022077585
-0.0096218056
0.00051816547
-0.0096442463
-0.001397741
-0.0092443973
-0.0034149843
-0.0083698733
-0.005338017
-0.0070186677
-0.0068939555
-0.0052792206
-0.0077538261
-0.0033659729
-0.0076038805
-0.0016165197
-0.0062834923
-0.00040804044
-0.0039534381
-0.0011784726
-0.00034790128
0.0018196817
-0.0011364108
0.0043470622
-0.0021812939
0.005947177
-0.0033564115
0.0068286412
-0.0045793843
0.0071648701
-0.0057964346
0.0070699195
-0.0069684256
0.0066001456
-0.0080596678
0.0057701569
-0.0090293436
0.0045735735
-0.0098249025
0.0030033174
-0.010377264
0.0010705274
-0.010600648
-0.0011743573
-0.010397086
-0.0036185461
-0.0096714694
-0.006063634
-0.0083656396
-0.0081997854
-0.006513213
-0.0096062527
-0.0043081476
-0.009808946
-0.0021473912
-0.0084442487
-0.00056465113
-0.0055361784
-0.0017431236
-0.00034378724
0.002163469
-0.0011273712
0.0051306461
-0.0021637755
0.0069835812
-0.003324503
0.0079893687
-0.0045289928
0.0083693599
-0.0057298261
0.0082707529
-0.0068979165
0.007768236
-0.008010005
0.0068822455
-0.009038466
0.0056020346
-0.0099426718
0.0039075233
-0.01066117
0.0017890257
-0.011104546
-0.00073098158
-0.011161222
-0.0035618703
-0.01069492
-0.0065299361
-0.0095804348
-0.0093142702
-0.0077648059
-0.011421882
-0.0053699502
-0.012203802
-0.0028062503
-0.011007949
-0.0007780642
-0.0075643647
-0.0025211878
-0.0003288941
0.002492363
-0.0010823277
0.0058840797
-0.0020705426
0.007971796
-0.0031632198
0.009082046
-0.004283385
0.0094895251
-0.0053922851
0.009379653
-0.0064736061
0.0088495572
-0.0075201212
0.0079287606
-0.0085226389
0.0066045524
-0.0094602082
0.0048450925
-0.010291299
0.0026201164
-0.010933109
-8.9171232e-05
-0.011282966
-0.0032120132
-0.011173127
-0.0066397753
-0.010414896
-0.010072501
-0.0088456807
-0.012991097
-0.0064546815
-0.014594801
-0.0035807436
-0.013881887
-0.0010639183
-0.01008119
-0.0035851061
-0.00031191655
0.0028042795
-0.0010210206
0.0065931837
-0.0019266406
0.0088774159
-0.0028956689
0.010051074
-0.0038577867
0.010451643
-0.0047866795
0.010308546
-0.0056821282
0.0097450059
-0.0065560821
0.0088027144
-0.0074217672
0.0074702375
-0.0082838966
0.0057072219
-0.0091272932
0.0034635129
-0.0099107872
0.0006943227
-0.010529125
-0.0025936754
-0.010828433
-0.0063404673
-0.01057445
-0.010326484
-0.0094933958
-0.014072152
-0.0073908351
-0.016697362
-0.0044184524
-0.016854269
-0.001436957
-0.013062685
-0.005022063
-0.00031031877
0.0031145982
-0.00098113881
0.0072640037
-0.0017803646
0.0096766417
-0.0025712003
0.01084191
-0.0032969137
0.011177356
-0.003950666
0.010962298
-0.0045531556
0.010347495
-0.0051383382
0.009387897
-0.0057437685
0.0080756677
-0.0064025678
0.0063660213
-0.0071342348
0.0041951801
-0.007934271
0.001494359
-0.0087425122
-0.0017854342
-0.0094335348
-0.0056494447
-0.0097710082
-0.0099890102
-0.0094018735
-0.014441287
-0.0079312274
-0.018168008
-0.0052061864
-0.019579311
-0.0019024729
-0.016366399
-0.006924536
-0.00035644164
0.0034710399
-0.0010251536
0.0079327157
-0.00170624
0.010357728
-0.0022636357
0.011399306
-0.0026693063
0.011583027
-0.0029482365
0.011241228
-0.003148998
0.010548257
-0.003330009
0.0095689081
-0.0035525906
0.0082982493
-0.003876558
0.0066899887
-0.0043546526
0.0046732747
-0.0050236791
0.0021633856
-0.0058815588
-0.00092755447
-0.0068622364
-0.0046687672
-0.0077799242
-0.0090713224
-0.0082684954
-0.013952715
-0.0077703126
-0.018666191
-0.0057516968
-0.021597926
-0.002436713
-0.019681383
-0.0093612491
-0.00050875055
0.0039797906
-0.0012470634
0.0086710284
-0.0017984092
0.010909074
-0.0020515961
0.011652493
-0.0020370536
0.011568484
-0.0018307465
0.011034921
-0.0015180748
0.010235585
-0.001184095
0.0092349282
-0.00091109327
0.0080252476
-0.00078006345
0.0065589589
-0.00086964979
0.0047628611
-0.0012532135
0.0025469494
-0.0019882695
-0.00019249847
-0.003086764
-0.0035702725
-0.0044642287
-0.0076938578
-0.0058307877
-0.012586156
-0.006568389
-0.017928589
-0.0057695525
-0.022396763
-0.0029514806
-0.022499455
-0.01231273
-0.00086905956
0.0048488502
-0.0017644974
0.0095664662
-0.0021240777
0.011268654
-0.0019407727
0.011469188
-0.0013559166
0.010983628
-0.00052202284
0.010201027
0.00043062791
0.0092829343
0.0013929039
0.0082726522
0.0022656236
0.0071525278
0.0029543347
0.005870248
0.0033629094
0.0043542864
0.0033910112
0.0025188476
0.0029332833
0.00026522946
0.0019049165
-0.0025419057
0.00026562408
-0.0060545654
-0.0018574913
-0.010463041
-0.0039540391
-0.015832041
-0.0048622129
-0.021488589
-0.0032551291
-0.024106538
-0.015567859
-0.0015914765
0.0064403267
-0.0026121339
0.010587124
-0.0025155467
0.011172067
-0.0015934929
0.010547134
-0.00017682113
0.0095669567
0.0014872834
0.0085369228
0.0032267953
0.0075434224
0.0049168385
0.0065826089
0.0064565828
0.0056127835
0.0077513164
0.0045755143
0.00870174
0.0034038628
0.0091962713
0.0020243163
0.009098729
0.00036277191
0.0082710892
-0.0017142659
0.0065620625
-0.0043455388
0.0039014646
-0.0078024432
0.00055691962
-0.012487496
-0.0024693646
-0.018462305
-0.0030278098
-0.023548093
-0.018595669
-0.0027185099
0.0091588367
-0.003150528
0.011019142
-0.0018044925
0.0098260315
0.00046423296
0.0082784082
0.0030859855
0.0069452041
0.0057695365
0.0058533718
0.0083579986
0.0049549604
0.010755132
0.0041854758
0.012888138
0.0034797777
0.014685475
0.0027781771
0.016063544
0.0020257937
0.016919015
0.0011688451
0.017116069
0.0001657183
0.016487816
-0.0010860128
0.014814413
-0.0026721364
0.011844738
-0.0048327679
0.0074340121
-0.0080767707
0.0022619552
-0.013290248
-0.001272914
-0.020013224
-0.019868583
-0.0024131527
0.011571989
2.809338e-05
0.0085778958
0.0042547932
0.0055993316
0.0084151375
0.0041180641
0.012229741
0.0031306012
0.015653779
0.0024293337
0.018683448
0.001925291
0.021325679
0.001543245
0.023579808
0.0012256488
0.025425617
0.00093236775
0.026816858
0.00063455323
0.027674347
0.00031135577
0.027897843
-5.7777551e-05
0.027345448
-0.00053361768
0.02577036
-0.0010970492
0.022842159
-0.0019045667
0.018054145
-0.0032887567
0.011113173
-0.0063492764
0.0033885008
-0.012288551
-0.016480082
0.011571989
0.020149885
0.025749217
0.029867281
0.032997882
0.035427216
0.037352507
0.038895752
0.0401214
0.041053768
0.041688321
0.041999677
0.0419419
0.041408282
0.040311233
0.038406666
0.03511791
0.028768633
0.016480082
)
;

boundaryField
{
    movingWall
    {
        type            calculated;
        value           uniform 0;
    }
    fixedWalls
    {
        type            calculated;
        value           uniform 0;
    }
    frontAndBack
    {
        type            empty;
        value           nonuniform List<scalar> 0();
    }
}


// ************************************************************************* //
