/*--------------------------------*- C++ -*----------------------------------*\
| =========                 |                                                 |
| \\      /  F ield         | OpenFOAM: The Open Source CFD Toolbox           |
|  \\    /   O peration     | Version:  2112                                  |
|   \\  /    A nd           | Website:  www.openfoam.com                      |
|    \\/     M anipulation  |                                                 |
\*---------------------------------------------------------------------------*/
FoamFile
{
    version     2.0;
    format      ascii;
    arch        "LSB;label=32;scalar=64";
    class       volVectorField;
    location    "14";
    object      U;
}
// * * * * * * * * * * * * * * * * * * * * * * * * * * * * * * * * * * * * * //

dimensions      [0 1 -1 0 0 0 0];

internalField   nonuniform List<vector> 
400
(
(0.00028396776 -0.00028096945 0)
(0.00010996961 8.0093838e-05 0)
(-0.0013268453 0.00047775217 0)
(-0.0036194712 0.00073535361 0)
(-0.0064185533 0.00086676946 0)
(-0.0094234419 0.00090643377 0)
(-0.012377052 0.0008740254 0)
(-0.015042902 0.00077077611 0)
(-0.017179052 0.0005879326 0)
(-0.018536348 0.00031983834 0)
(-0.018886306 -2.4659465e-05 0)
(-0.018071313 -0.00041768819 0)
(-0.016067716 -0.0007987805 0)
(-0.01304024 -0.0010919377 0)
(-0.0093614226 -0.0012200947 0)
(-0.0055760328 -0.0011286389 0)
(-0.0023010818 -0.00081248828 0)
(-8.4644231e-05 -0.00033809025 0)
(0.000758784 0.00015179286 0)
(0.00040895708 0.00038886969 0)
(-8.6176036e-05 -0.00012290959 0)
(-0.0018679082 0.0017860742 0)
(-0.0063008103 0.003622857 0)
(-0.012440649 0.0048578671 0)
(-0.019581187 0.0054931267 0)
(-0.027079749 0.005615079 0)
(-0.034324388 0.0052808013 0)
(-0.040728254 0.0045000867 0)
(-0.045713326 0.0032634464 0)
(-0.048729337 0.0015889059 0)
(-0.049321248 -0.0004338889 0)
(-0.047212494 -0.0026143242 0)
(-0.042417221 -0.0046588374 0)
(-0.035334965 -0.0062122166 0)
(-0.026760901 -0.006930997 0)
(-0.017817658 -0.0065869303 0)
(-0.0097721774 -0.0051765566 0)
(-0.0037465482 -0.0029985946 0)
(-0.00039006429 -0.00066661549 0)
(0.0002892517 0.00078218664 0)
(-0.00058752172 0.0014329512 0)
(-0.0042383037 0.0063716611 0)
(-0.011745757 0.01062996 0)
(-0.021445217 0.013469794 0)
(-0.032330965 0.014882976 0)
(-0.043541053 0.015002107 0)
(-0.054229825 0.013922428 0)
(-0.063576457 0.011673521 0)
(-0.070784252 0.0082750225 0)
(-0.075114965 0.0038277493 0)
(-0.075968357 -0.0014008976 0)
(-0.072992655 -0.0069250569 0)
(-0.066210924 -0.012056764 0)
(-0.056125246 -0.015982875 0)
(-0.043749256 -0.017925493 0)
(-0.030549553 -0.017365408 0)
(-0.018240837 -0.014280147 0)
(-0.0084147949 -0.0093079923 0)
(-0.0021511489 -0.003762171 0)
(-2.3706639e-06 0.00031502714 0)
(-0.0010517886 0.0042964156 0)
(-0.0065071059 0.013551646 0)
(-0.016979204 0.020841904 0)
(-0.029996315 0.025534084 0)
(-0.044250593 0.027732395 0)
(-0.058719475 0.027659813 0)
(-0.07240972 0.025463059 0)
(-0.084359053 0.021199911 0)
(-0.093634871 0.014934855 0)
(-0.099368398 0.0068778984 0)
(-0.10083725 -0.0024914531 0)
(-0.097577262 -0.012359062 0)
(-0.089518567 -0.021578542 0)
(-0.077121542 -0.028793684 0)
(-0.061459642 -0.03267479 0)
(-0.044223233 -0.032272684 0)
(-0.027544967 -0.027426146 0)
(-0.013574361 -0.019070103 0)
(-0.0040247562 -0.00926832 0)
(-0.00026784416 -0.001109958 0)
(-0.0014539779 0.0083560284 0)
(-0.0085385652 0.023155653 0)
(-0.021720376 0.034014275 0)
(-0.037748807 0.040719146 0)
(-0.055035148 0.043656036 0)
(-0.072440884 0.043215773 0)
(-0.088891282 0.039624552 0)
(-0.10335442 0.032974271 0)
(-0.11482163 0.023369873 0)
(-0.12232452 0.011116981 0)
(-0.12500603 -0.0031136405 0)
(-0.12221826 -0.01819024 0)
(-0.11367151 -0.032501487 0)
(-0.099623021 -0.044085908 0)
(-0.081042067 -0.050918503 0)
(-0.05973524 -0.051398297 0)
(-0.038266196 -0.04498072 0)
(-0.019508513 -0.032735655 0)
(-0.0060889916 -0.017484554 0)
(-0.00051086564 -0.0035226805 0)
(-0.0017866468 0.01346008 0)
(-0.010257456 0.0349214 0)
(-0.025775944 0.049853514 0)
(-0.044417608 0.05873186 0)
(-0.064359105 0.062394287 0)
(-0.08439116 0.06149139 0)
(-0.10341532 0.056366132 0)
(-0.12039126 0.047146253 0)
(-0.13428509 0.033951751 0)
(-0.14405311 0.017133141 0)
(-0.14868536 -0.0025154671 0)
(-0.14728222 -0.023597723 0)
(-0.13921091 -0.044089206 0)
(-0.12434961 -0.061379264 0)
(-0.10336259 -0.072576713 0)
(-0.078005265 -0.075113088 0)
(-0.051228495 -0.067657807 0)
(-0.026792904 -0.051092044 0)
(-0.0086071242 -0.028951154 0)
(-0.00078662475 -0.0070507497 0)
(-0.0020396292 0.019414109 0)
(-0.011592937 0.048474471 0)
(-0.028965404 0.067924418 0)
(-0.049707593 0.079143317 0)
(-0.071822217 0.083574586 0)
(-0.094075381 0.082221962 0)
(-0.11539917 0.075587005 0)
(-0.1348038 0.06383231 0)
(-0.1512859 0.047053179 0)
(-0.1637654 0.025568788 0)
(-0.17107487 0.00018800314 0)
(-0.17204257 -0.027563476 0)
(-0.16561272 -0.055330816 0)
(-0.1511013 -0.07986757 0)
(-0.1286252 -0.097267802 0)
(-0.099612334 -0.10361876 0)
(-0.067203048 -0.096218966 0)
(-0.036098188 -0.075173149 0)
(-0.011922667 -0.044515836 0)
(-0.0011700376 -0.011997038 0)
(-0.0021990869 0.025984044 0)
(-0.012473039 0.063350515 0)
(-0.031111955 0.08767235 0)
(-0.053308508 0.10138864 0)
(-0.076954219 0.10667668 0)
(-0.10083322 0.10498296 0)
(-0.12395896 0.097013925 0)
(-0.14545192 0.082969063 0)
(-0.16440471 0.062875581 0)
(-0.17976932 0.036931776 0)
(-0.19029385 0.0058239164 0)
(-0.19455412 -0.028979787 0)
(-0.19104101 -0.064943057 0)
(-0.17840328 -0.098300289 0)
(-0.1559501 -0.12407844 0)
(-0.12438484 -0.13666493 0)
(-0.08660389 -0.13124311 0)
(-0.04803922 -0.10616898 0)
(-0.016420443 -0.065357713 0)
(-0.0017526194 -0.018869897 0)
(-0.0022540351 0.032898001 0)
(-0.012844557 0.079006781 0)
(-0.032076652 0.10842712 0)
(-0.054944901 0.12474636 0)
(-0.079283931 0.13097748 0)
(-0.1039313 0.12909607 0)
(-0.12802827 0.12006784 0)
(-0.15086697 0.10414325 0)
(-0.17171609 0.081248939 0)
(-0.1896628 0.051376402 0)
(-0.20349542 0.014945799 0)
(-0.21165051 -0.02681859 0)
(-0.21224978 -0.071451391 0)
(-0.20326716 -0.11492698 0)
(-0.1829981 -0.15133678 0)
(-0.15096248 -0.1731726 0)
(-0.10912314 -0.17271872 0)
(-0.062999974 -0.14516282 0)
(-0.022514463 -0.092929544 0)
(-0.0026573343 -0.028408589 0)
(-0.0022077618 0.039865117 0)
(-0.012711752 0.094853361 0)
(-0.031827603 0.12942063 0)
(-0.05447348 0.14832856 0)
(-0.07846763 0.15550925 0)
(-0.10273117 0.15355466 0)
(-0.12657661 0.1437567 0)
(-0.14952929 0.12645198 0)
(-0.17112329 0.10146214 0)
(-0.19070924 0.068518486 0)
(-0.20728223 0.027659235 0)
(-0.21933395 -0.020335228 0)
(-0.22484431 -0.073379085 0)
(-0.2212629 -0.12758694 0)
(-0.2058111 -0.17650545 0)
(-0.17643446 -0.21087122 0)
(-0.13331055 -0.21949749 0)
(-0.080873941 -0.19265778 0)
(-0.030630508 -0.12879078 0)
(-0.0040679674 -0.041617536 0)
(-0.0020934643 0.046622195 0)
(-0.012189171 0.11032329 0)
(-0.030533267 0.14984017 0)
(-0.052011266 0.1711066 0)
(-0.074455517 0.17906077 0)
(-0.09690848 0.1770056 0)
(-0.11890242 0.16663884 0)
(-0.1402564 0.14844167 0)
(-0.16085477 0.12216366 0)
(-0.18043919 0.08727599 0)
(-0.1984016 0.043385933 0)
(-0.21353593 -0.0093298411 0)
(-0.22401181 -0.069595385 0)
(-0.22707602 -0.13403462 0)
(-0.21907666 -0.19634099 0)
(-0.19624744 -0.24613165 0)
(-0.15619699 -0.26874004 0)
(-0.10068653 -0.24788201 0)
(-0.041135079 -0.17426155 0)
(-0.0062681139 -0.059808159 0)
(-0.0019974997 0.053017526 0)
(-0.011570178 0.12498944 0)
(-0.028669916 0.16892 0)
(-0.048069177 0.19197283 0)
(-0.067654339 0.20022544 0)
(-0.086663553 0.19779891 0)
(-0.1049201 0.1868791 0)
(-0.12259885 0.16816124 0)
(-0.1399988 0.1413843 0)
(-0.1573371 0.10580569 0)
(-0.17455814 0.060606627 0)
(-0.19112729 0.0052841563 0)
(-0.20564265 -0.059845914 0)
(-0.21553966 -0.13251703 0)
(-0.21692437 -0.20742552 0)
(-0.2045881 -0.27420695 0)
(-0.1731728 -0.31560275 0)
(-0.12016166 -0.30797202 0)
(-0.054139016 -0.2298028 0)
(-0.0096722521 -0.084621561 0)
(-0.0021017805 0.059148432 0)
(-0.011424684 0.1387289 0)
(-0.027136221 0.18605561 0)
(-0.043656366 0.20981777 0)
(-0.059022543 0.217477 0)
(-0.072828299 0.21409051 0)
(-0.08530905 0.2023922 0)
(-0.097068155 0.18334325 0)
(-0.10886241 0.15673698 0)
(-0.12142926 0.12169682 0)
(-0.13533578 0.077051325 0)
(-0.15078463 0.021673762 0)
(-0.16720016 -0.045040648 0)
(-0.18280983 -0.12243596 0)
(-0.19411041 -0.20703852 0)
(-0.19527493 -0.2900202 0)
(-0.17831545 -0.3534848 0)
(-0.13541044 -0.36733846 0)
(-0.06908545 -0.29407125 0)
(-0.01479274 -0.11794871 0)
(-0.0027707213 0.065590968 0)
(-0.012755313 0.15192427 0)
(-0.027361409 0.20089359 0)
(-0.040293094 0.22356789 0)
(-0.04999276 0.22921872 0)
(-0.056721292 0.22394131 0)
(-0.061321991 0.21100869 0)
(-0.06491457 0.19163867 0)
(-0.068725849 0.16570697 0)
(-0.073984001 0.13228741 0)
(-0.08183822 0.089996748 0)
(-0.093228223 0.037253145 0)
(-0.10857224 -0.027415628 0)
(-0.127308 -0.10490758 0)
(-0.14713537 -0.19414926 0)
(-0.16286694 -0.28941207 0)
(-0.16513289 -0.37502033 0)
(-0.14092171 -0.4176445 0)
(-0.084064951 -0.36273986 0)
(-0.022010466 -0.16153721 0)
(-0.0047231426 0.073814868 0)
(-0.017239894 0.16566945 0)
(-0.03132351 0.21329448 0)
(-0.039744569 0.23207769 0)
(-0.041964997 0.23370749 0)
(-0.039449676 0.22531271 0)
(-0.033924394 0.21055159 0)
(-0.027121383 0.1907753 0)
(-0.020718147 0.16588872 0)
(-0.016342853 0.13495415 0)
(-0.015601728 0.096505569 0)
(-0.020046038 0.048738559 0)
(-0.031031798 -0.010356623 0)
(-0.04933795 -0.082862413 0)
(-0.074490532 -0.17008655 0)
(-0.10335209 -0.2704477 0)
(-0.12730996 -0.37363926 0)
(-0.12976729 -0.44862797 0)
(-0.094925568 -0.427448 0)
(-0.030931356 -0.21609424 0)
(-0.0093034965 0.086942558 0)
(-0.02745028 0.18181657 0)
(-0.0410235 0.22297332 0)
(-0.04274611 0.23371632 0)
(-0.034494778 0.22872781 0)
(-0.019730951 0.21585733 0)
(-0.0013606663 0.19873059 0)
(0.018214683 0.17853568 0)
(0.036937163 0.15507608 0)
(0.05292267 0.1273721 0)
(0.064293701 0.09396573 0)
(0.069110991 0.053055714 0)
(0.065304933 0.0025096579 0)
(0.050948035 -0.060291876 0)
(0.024555317 -0.13833287 0)
(-0.013776015 -0.23413276 0)
(-0.0588117 -0.34513456 0)
(-0.093548611 -0.44950314 0)
(-0.094485755 -0.47554874 0)
(-0.039218781 -0.28045621 0)
(-0.018582716 0.11087131 0)
(-0.046054494 0.2017592 0)
(-0.055266426 0.2278953 0)
(-0.044044822 0.22496851 0)
(-0.019455019 0.2105599 0)
(0.012231627 0.19223131 0)
(0.046877079 0.1727469 0)
(0.081629371 0.15263041 0)
(0.11430995 0.13134543 0)
(0.14302741 0.10780376 0)
(0.16589746 0.080613117 0)
(0.18087138 0.04814319 0)
(0.18547793 0.0084852188 0)
(0.17707975 -0.040781509 0)
(0.15268567 -0.1031442 0)
(0.10942712 -0.18388044 0)
(0.047190651 -0.28853453 0)
(-0.021474097 -0.41049155 0)
(-0.072269244 -0.490996 0)
(-0.041151102 -0.35052622 0)
(-0.033352345 0.15562099 0)
(-0.068608163 0.22040138 0)
(-0.055208363 0.21727598 0)
(-0.016117895 0.19529724 0)
(0.034452488 0.17089114 0)
(0.088430954 0.14846312 0)
(0.14167699 0.12858664 0)
(0.19186739 0.11056038 0)
(0.23743437 0.093290818 0)
(0.27701456 0.075578797 0)
(0.30911806 0.056194381 0)
(0.33195244 0.033843051 0)
(0.34309656 0.0070508925 0)
(0.33976232 -0.025886979 0)
(0.31807839 -0.067721405 0)
(0.27323421 -0.12409289 0)
(0.20041353 -0.20583788 0)
(0.10211544 -0.32506219 0)
(-0.01239987 -0.45456417 0)
(-0.023759879 -0.40863401 0)
(-0.033079395 0.23907874 0)
(-0.042644216 0.21792379 0)
(0.042205372 0.16426314 0)
(0.12759206 0.12782609 0)
(0.20767143 0.10142184 0)
(0.28023984 0.081643732 0)
(0.34481747 0.066635667 0)
(0.40151681 0.054694511 0)
(0.45047834 0.044395945 0)
(0.491547 0.034641564 0)
(0.52409209 0.02455673 0)
(0.54692411 0.013391021 0)
(0.55817014 0.00041038729 0)
(0.55566803 -0.015126627 0)
(0.53549589 -0.034960006 0)
(0.49242552 -0.062481891 0)
(0.41795828 -0.10694461 0)
(0.30409597 -0.19317447 0)
(0.12313204 -0.33691844 0)
(0.052372313 -0.39437857 0)
(0.24300124 0.15257673 0)
(0.30530151 0.11854556 0)
(0.45481814 0.07610922 0)
(0.56001164 0.050839397 0)
(0.63222947 0.035123864 0)
(0.68653716 0.024809475 0)
(0.72941826 0.017957472 0)
(0.76377009 0.013254137 0)
(0.79124956 0.0097616117 0)
(0.81272132 0.0068550457 0)
(0.82838368 0.0041202692 0)
(0.83792097 0.0012792615 0)
(0.84055393 -0.0018421222 0)
(0.8349656 -0.0053240971 0)
(0.81886255 -0.0098270601 0)
(0.78942812 -0.016231583 0)
(0.7378442 -0.026935368 0)
(0.65316896 -0.051286785 0)
(0.45609822 -0.1137465 0)
(0.3178899 -0.17206042 0)
)
;

boundaryField
{
    movingWall
    {
        type            fixedValue;
        value           uniform (1 0 0);
    }
    fixedWalls
    {
        type            fixedValue;
        value           uniform (0 0 0);
    }
    frontAndBack
    {
        type            empty;
    }
}


// ************************************************************************* //
