/*--------------------------------*- C++ -*----------------------------------*\
| =========                 |                                                 |
| \\      /  F ield         | OpenFOAM: The Open Source CFD Toolbox           |
|  \\    /   O peration     | Version:  2112                                  |
|   \\  /    A nd           | Website:  www.openfoam.com                      |
|    \\/     M anipulation  |                                                 |
\*---------------------------------------------------------------------------*/
FoamFile
{
    version     2.0;
    format      ascii;
    arch        "LSB;label=32;scalar=64";
    class       volVectorField;
    location    "14";
    object      U_0;
}
// * * * * * * * * * * * * * * * * * * * * * * * * * * * * * * * * * * * * * //

dimensions      [0 1 -1 0 0 0 0];

internalField   nonuniform List<vector> 
400
(
(0.00028398148 -0.00028094974 0)
(0.00010999842 8.0103687e-05 0)
(-0.0013268184 0.00047775551 0)
(-0.0036194441 0.000735354 0)
(-0.0064185168 0.00086676765 0)
(-0.0094233911 0.00090643023 0)
(-0.012376986 0.00087402124 0)
(-0.015042823 0.00077077232 0)
(-0.017178962 0.0005879299 0)
(-0.018536254 0.00031983782 0)
(-0.018886212 -2.4657967e-05 0)
(-0.018071227 -0.00041768489 0)
(-0.016067647 -0.000798775 0)
(-0.01304019 -0.0010919307 0)
(-0.0093613942 -0.0012200876 0)
(-0.0055760234 -0.0011286335 0)
(-0.0023010859 -0.00081248607 0)
(-8.4653556e-05 -0.00033809137 0)
(0.00075877705 0.00015178924 0)
(0.0004089548 0.00038886701 0)
(-8.6168672e-05 -0.00012287116 0)
(-0.0018678832 0.0017860866 0)
(-0.0063007633 0.0036228487 0)
(-0.012440575 0.004857848 0)
(-0.019581077 0.0054931014 0)
(-0.027079597 0.005615051 0)
(-0.034324196 0.0052807745 0)
(-0.040728028 0.0045000647 0)
(-0.045713077 0.0032634325 0)
(-0.048729079 0.0015889031 0)
(-0.049320998 -0.00043387849 0)
(-0.047212265 -0.0026143016 0)
(-0.042417028 -0.0046588046 0)
(-0.035334819 -0.006212178 0)
(-0.026760804 -0.0069309585 0)
(-0.017817607 -0.0065868981 0)
(-0.009772161 -0.005176536 0)
(-0.0037465511 -0.0029985876 0)
(-0.00039007069 -0.00066662016 0)
(0.00028924927 0.00078218052 0)
(-0.00058751596 0.0014329764 0)
(-0.0042382722 0.0063716477 0)
(-0.011745678 0.010629912 0)
(-0.021445082 0.013469725 0)
(-0.03233077 0.014882896 0)
(-0.043540794 0.015002027 0)
(-0.054229508 0.013922356 0)
(-0.063576093 0.011673465 0)
(-0.070783857 0.0082749908 0)
(-0.075114561 0.0038277465 0)
(-0.075967965 -0.0014008675 0)
(-0.072992296 -0.0069249961 0)
(-0.066210617 -0.012056679 0)
(-0.056125003 -0.015982776 0)
(-0.043749083 -0.017925395 0)
(-0.030549446 -0.017365324 0)
(-0.018240785 -0.014280088 0)
(-0.0084147799 -0.0093079625 0)
(-0.0021511499 -0.0037621671 0)
(-2.3724268e-06 0.00031502103 0)
(-0.0010517807 0.0042964134 0)
(-0.0065070621 0.013551585 0)
(-0.016979092 0.020841794 0)
(-0.029996123 0.025533943 0)
(-0.044250318 0.027732242 0)
(-0.058719119 0.027659664 0)
(-0.072409293 0.02546293 0)
(-0.08435857 0.021199814 0)
(-0.093634353 0.014934802 0)
(-0.099367872 0.0068778987 0)
(-0.10083674 -0.0024913962 0)
(-0.097576791 -0.012358952 0)
(-0.089518158 -0.021578391 0)
(-0.07712121 -0.028793508 0)
(-0.061459394 -0.032674614 0)
(-0.044223066 -0.03227253 0)
(-0.027544873 -0.027426032 0)
(-0.013574322 -0.019070039 0)
(-0.0040247487 -0.0092683 0)
(-0.00026784496 -0.001109961 0)
(-0.0014539663 0.008355993 0)
(-0.0085385072 0.023155525 0)
(-0.021720235 0.034014082 0)
(-0.037748569 0.040718915 0)
(-0.055034811 0.043655794 0)
(-0.072440454 0.043215544 0)
(-0.088890774 0.039624357 0)
(-0.10335385 0.032974128 0)
(-0.11482102 0.023369798 0)
(-0.12232391 0.011116986 0)
(-0.12500543 -0.0031135536 0)
(-0.1222177 -0.018190077 0)
(-0.11367102 -0.032501264 0)
(-0.099622609 -0.044085648 0)
(-0.081041749 -0.050918236 0)
(-0.059735017 -0.051398057 0)
(-0.03826606 -0.044980535 0)
(-0.019508449 -0.032735541 0)
(-0.0060889739 -0.017484507 0)
(-0.00051086473 -0.0035226773 0)
(-0.0017866337 0.013460009 0)
(-0.010257389 0.034921196 0)
(-0.025775784 0.049853225 0)
(-0.044417341 0.058731528 0)
(-0.064358732 0.062393948 0)
(-0.08439069 0.061491074 0)
(-0.10341477 0.056365866 0)
(-0.12039065 0.047146062 0)
(-0.13428444 0.033951654 0)
(-0.14405245 0.017133149 0)
(-0.14868471 -0.0025153516 0)
(-0.14728161 -0.023597508 0)
(-0.13921036 -0.044088911 0)
(-0.12434914 -0.061378918 0)
(-0.10336221 -0.072576351 0)
(-0.078004989 -0.075112751 0)
(-0.051228319 -0.067657536 0)
(-0.026792814 -0.051091864 0)
(-0.0086070966 -0.02895107 0)
(-0.00078662232 -0.0070507368 0)
(-0.0020396162 0.019414 0)
(-0.011592868 0.048474186 0)
(-0.02896524 0.067924027 0)
(-0.049707321 0.079142878 0)
(-0.071821842 0.083574146 0)
(-0.094074911 0.082221558 0)
(-0.11539862 0.07558667 0)
(-0.1348032 0.063832073 0)
(-0.15128526 0.047053059 0)
(-0.16376475 0.025568798 0)
(-0.17107422 0.00018814309 0)
(-0.17204195 -0.027563216 0)
(-0.16561216 -0.055330456 0)
(-0.15110081 -0.079867142 0)
(-0.12862478 -0.097267345 0)
(-0.09961202 -0.10361832 0)
(-0.067202838 -0.096218597 0)
(-0.036098074 -0.075172889 0)
(-0.011922629 -0.0445157 0)
(-0.0011700339 -0.01199701 0)
(-0.002199075 0.025983897 0)
(-0.012472977 0.063350151 0)
(-0.031111804 0.087671862 0)
(-0.053308259 0.1013881 0)
(-0.076953876 0.10667614 0)
(-0.10083279 0.10498248 0)
(-0.12395847 0.097013529 0)
(-0.14545138 0.082968785 0)
(-0.16440413 0.062875442 0)
(-0.17976874 0.036931786 0)
(-0.19029327 0.0058240743 0)
(-0.19455356 -0.028979492 0)
(-0.19104048 -0.064942646 0)
(-0.17840281 -0.098299793 0)
(-0.15594969 -0.1240779 0)
(-0.12438451 -0.13666439 0)
(-0.086603658 -0.13124263 0)
(-0.048039086 -0.10616863 0)
(-0.016420396 -0.065357515 0)
(-0.0017526143 -0.018869847 0)
(-0.0022540259 0.032897822 0)
(-0.012844508 0.079006348 0)
(-0.032076534 0.10842655 0)
(-0.054944703 0.12474573 0)
(-0.079283657 0.13097686 0)
(-0.10393096 0.12909552 0)
(-0.12802788 0.12006739 0)
(-0.15086655 0.10414294 0)
(-0.17171564 0.081248786 0)
(-0.18966235 0.051376412 0)
(-0.20349498 0.014945968 0)
(-0.21165008 -0.026818275 0)
(-0.21224936 -0.071450949 0)
(-0.20326677 -0.11492644 0)
(-0.18299775 -0.15133617 0)
(-0.15096218 -0.17317198 0)
(-0.10912291 -0.17271816 0)
(-0.06299983 -0.14516238 0)
(-0.022514407 -0.092929276 0)
(-0.0026573276 -0.028408512 0)
(-0.0022077573 0.039864915 0)
(-0.012711723 0.094852878 0)
(-0.031827532 0.12941999 0)
(-0.054473358 0.14832787 0)
(-0.078467458 0.15550857 0)
(-0.10273095 0.15355406 0)
(-0.12657637 0.14375622 0)
(-0.14952904 0.12645166 0)
(-0.17112303 0.10146199 0)
(-0.19070898 0.068518499 0)
(-0.20728198 0.027659411 0)
(-0.21933371 -0.020334904 0)
(-0.22484407 -0.073378633 0)
(-0.22126266 -0.12758638 0)
(-0.20581086 -0.17650482 0)
(-0.17643423 -0.21087056 0)
(-0.13331035 -0.21949686 0)
(-0.080873803 -0.19265726 0)
(-0.030630447 -0.12879044 0)
(-0.0040679582 -0.041617427 0)
(-0.0020934657 0.046621982 0)
(-0.012189169 0.11032278 0)
(-0.030533255 0.14983949 0)
(-0.052011236 0.17110587 0)
(-0.074455469 0.17906006 0)
(-0.096908422 0.17700498 0)
(-0.11890236 0.16663836 0)
(-0.14025635 0.14844134 0)
(-0.16085473 0.12216351 0)
(-0.18043917 0.087276015 0)
(-0.19840159 0.04338612 0)
(-0.21353592 -0.0093295119 0)
(-0.22401179 -0.069594941 0)
(-0.22707598 -0.13403408 0)
(-0.21907658 -0.19634038 0)
(-0.19624733 -0.24613099 0)
(-0.15619687 -0.26873938 0)
(-0.10068642 -0.24788143 0)
(-0.041135021 -0.17426115 0)
(-0.006268102 -0.059808015 0)
(-0.0019975069 0.053017315 0)
(-0.011570205 0.12498894 0)
(-0.028669968 0.16891933 0)
(-0.048069249 0.1919721 0)
(-0.067654428 0.20022473 0)
(-0.086663663 0.1977983 0)
(-0.10492024 0.18687863 0)
(-0.12259901 0.16816094 0)
(-0.13999899 0.14138417 0)
(-0.15733731 0.10580573 0)
(-0.17455837 0.060606821 0)
(-0.19112753 0.0052844777 0)
(-0.20564287 -0.059845495 0)
(-0.21553984 -0.13251653 0)
(-0.21692449 -0.20742496 0)
(-0.20458816 -0.27420634 0)
(-0.17317278 -0.31560213 0)
(-0.12016161 -0.30797143 0)
(-0.05413897 -0.22980236 0)
(-0.0096722387 -0.084621383 0)
(-0.002101793 0.059148242 0)
(-0.011424739 0.13872843 0)
(-0.027136337 0.18605498 0)
(-0.043656539 0.20981707 0)
(-0.059022769 0.21747633 0)
(-0.072828575 0.21408994 0)
(-0.085309373 0.20239177 0)
(-0.097068521 0.18334298 0)
(-0.10886281 0.15673688 0)
(-0.12142969 0.12169688 0)
(-0.13533622 0.077051525 0)
(-0.15078507 0.021674068 0)
(-0.16720058 -0.045040263 0)
(-0.1828102 -0.12243552 0)
(-0.19411071 -0.20703804 0)
(-0.19527515 -0.29001968 0)
(-0.17831556 -0.35348425 0)
(-0.13541047 -0.36733792 0)
(-0.069085428 -0.2940708 0)
(-0.014792728 -0.11794851 0)
(-0.0027707378 0.065590814 0)
(-0.012755391 0.15192388 0)
(-0.027361581 0.20089304 0)
(-0.040293359 0.22356727 0)
(-0.049993109 0.22921811 0)
(-0.056721716 0.2239408 0)
(-0.06132248 0.21100831 0)
(-0.064915108 0.19163844 0)
(-0.068726423 0.1657069 0)
(-0.073984596 0.13228749 0)
(-0.081838819 0.089996953 0)
(-0.09322881 0.037253439 0)
(-0.1085728 -0.027415279 0)
(-0.12730851 -0.1049072 0)
(-0.14713581 -0.19414887 0)
(-0.16286728 -0.28941166 0)
(-0.16513312 -0.3750199 0)
(-0.14092181 -0.41764404 0)
(-0.084064967 -0.36273945 0)
(-0.022010458 -0.16153701 0)
(-0.0047231614 0.073814763 0)
(-0.017239988 0.16566914 0)
(-0.031323723 0.21329403 0)
(-0.039744903 0.23207717 0)
(-0.04196544 0.23370698 0)
(-0.039450212 0.22531227 0)
(-0.033925004 0.21055127 0)
(-0.027122045 0.19077511 0)
(-0.020718837 0.16588868 0)
(-0.016343549 0.13495424 0)
(-0.015602411 0.096505765 0)
(-0.020046692 0.048738829 0)
(-0.031032412 -0.010356313 0)
(-0.049338511 -0.082862092 0)
(-0.074491026 -0.17008623 0)
(-0.1033525 -0.2704474 0)
(-0.12731026 -0.37363895 0)
(-0.12976746 -0.44862764 0)
(-0.094925626 -0.42744768 0)
(-0.030931358 -0.21609405 0)
(-0.0093035147 0.086942509 0)
(-0.027450377 0.18181638 0)
(-0.041023727 0.22297299 0)
(-0.042746473 0.23371593 0)
(-0.034495263 0.22872741 0)
(-0.01973154 0.21585697 0)
(-0.0013613332 0.19873033 0)
(0.018213967 0.17853553 0)
(0.036936428 0.15507605 0)
(0.052921942 0.12737218 0)
(0.064293002 0.093965897 0)
(0.069110337 0.053055944 0)
(0.065304334 0.0025099193 0)
(0.050947496 -0.060291612 0)
(0.024554842 -0.13833263 0)
(-0.013776417 -0.23413254 0)
(-0.058812013 -0.34513436 0)
(-0.093548814 -0.44950293 0)
(-0.094485839 -0.47554852 0)
(-0.039218795 -0.28045606 0)
(-0.018582729 0.11087131 0)
(-0.046054573 0.20175911 0)
(-0.055266621 0.2278951 0)
(-0.044045148 0.22496825 0)
(-0.019455469 0.21055961 0)
(0.012231073 0.19223105 0)
(0.046876447 0.1727467 0)
(0.081628689 0.15263029 0)
(0.11430925 0.13134539 0)
(0.14302672 0.10780381 0)
(0.1658968 0.080613241 0)
(0.18087079 0.048143366 0)
(0.1854774 0.0084854205 0)
(0.17707928 -0.040781307 0)
(0.15268527 -0.10314402 0)
(0.10942678 -0.1838803 0)
(0.04719038 -0.28853442 0)
(-0.021474287 -0.41049145 0)
(-0.072269332 -0.49099588 0)
(-0.041151121 -0.35052613 0)
(-0.033352347 0.15562103 0)
(-0.068608198 0.22040137 0)
(-0.055208473 0.2172759 0)
(-0.016118105 0.1952971 0)
(0.03445217 0.17089096 0)
(0.088430536 0.14846295 0)
(0.14167649 0.1285865 0)
(0.19186684 0.11056029 0)
(0.23743379 0.093290783 0)
(0.27701398 0.07557882 0)
(0.30911751 0.056194455 0)
(0.33195194 0.033843164 0)
(0.34309613 0.007051027 0)
(0.33976196 -0.025886844 0)
(0.31807809 -0.067721289 0)
(0.27323398 -0.1240928 0)
(0.20041335 -0.20583783 0)
(0.10211531 -0.32506214 0)
(-0.012399939 -0.45456413 0)
(-0.023759896 -0.40863398 0)
(-0.033079387 0.23907877 0)
(-0.0426442 0.21792381 0)
(0.042205364 0.16426312 0)
(0.127592 0.12782604 0)
(0.20767129 0.10142177 0)
(0.28023961 0.081643655 0)
(0.34481717 0.066635601 0)
(0.40151645 0.054694467 0)
(0.45047795 0.044395928 0)
(0.4915466 0.034641575 0)
(0.52409171 0.024556765 0)
(0.54692378 0.013391074 0)
(0.55816986 0.00041044687 0)
(0.5556678 -0.015126567 0)
(0.53549573 -0.034959953 0)
(0.4924254 -0.062481855 0)
(0.41795821 -0.1069446 0)
(0.30409592 -0.19317446 0)
(0.12313201 -0.33691843 0)
(0.052372301 -0.39437856 0)
(0.24300125 0.15257674 0)
(0.30530154 0.11854558 0)
(0.45481817 0.076109226 0)
(0.56001166 0.050839393 0)
(0.63222946 0.035123853 0)
(0.68653709 0.02480946 0)
(0.72941815 0.01795746 0)
(0.76376994 0.013254129 0)
(0.79124939 0.0097616103 0)
(0.81272115 0.0068550508 0)
(0.82838353 0.0041202796 0)
(0.83792084 0.0012792751 0)
(0.84055384 -0.0018421114 0)
(0.83496554 -0.0053240868 0)
(0.81886253 -0.0098270501 0)
(0.78942811 -0.016231577 0)
(0.73784421 -0.026935368 0)
(0.65316897 -0.051286788 0)
(0.45609822 -0.1137465 0)
(0.3178899 -0.17206042 0)
)
;

boundaryField
{
    movingWall
    {
        type            fixedValue;
        value           uniform (1 0 0);
    }
    fixedWalls
    {
        type            fixedValue;
        value           uniform (0 0 0);
    }
    frontAndBack
    {
        type            empty;
    }
}


// ************************************************************************* //
