/*--------------------------------*- C++ -*----------------------------------*\
| =========                 |                                                 |
| \\      /  F ield         | OpenFOAM: The Open Source CFD Toolbox           |
|  \\    /   O peration     | Version:  2112                                  |
|   \\  /    A nd           | Website:  www.openfoam.com                      |
|    \\/     M anipulation  |                                                 |
\*---------------------------------------------------------------------------*/
FoamFile
{
    version     2.0;
    format      ascii;
    arch        "LSB;label=32;scalar=64";
    class       volScalarField;
    location    "4.9995";
    object      Ma;
}
// * * * * * * * * * * * * * * * * * * * * * * * * * * * * * * * * * * * * * //

dimensions      [0 0 0 0 0 0 0];

internalField   nonuniform List<scalar> 
7000
(
3.00001
3
3
3
3
3
3
2.99999
2.99999
2.99994
2.9999
2.99929
2.99877
2.99538
2.99187
2.97514
2.92193
2.76573
2.39514
1.72479
0.803455
0.367259
0.350781
0.37673
0.386648
0.376099
0.35393
0.328749
0.308818
0.291713
0.274568
0.256639
0.238058
0.219083
0.199818
0.180273
0.160587
0.140803
0.121122
0.10168
0.0826148
0.0641723
0.0465804
0.0301188
0.0154447
0.00611002
0.0112778
0.0140841
0.0127373
0.00742583
3.00001
3
3
3
3
3
3
3
2.99999
2.99994
2.99991
2.99934
2.99886
2.99582
2.99246
2.97764
2.92531
2.77414
2.413
1.76294
0.832536
0.384131
0.352775
0.377423
0.387353
0.376791
0.354472
0.328899
0.308373
0.29082
0.273339
0.255351
0.236909
0.218398
0.199815
0.181277
0.162774
0.144403
0.126255
0.108499
0.0912768
0.0747732
0.0591992
0.0448876
0.0321809
0.0212144
0.0116286
0.00366256
0.00680122
0.0113813
3.00001
3
3
3
3
3
3
3
2.99999
2.99995
2.99991
2.99939
2.99894
2.99628
2.99301
2.9803
2.9276
2.77961
2.4242
1.78732
0.854672
0.396364
0.350413
0.376126
0.387619
0.37776
0.355992
0.330331
0.309853
0.292285
0.275142
0.257475
0.239665
0.221797
0.20416
0.186583
0.169282
0.152182
0.135516
0.119248
0.103592
0.0886392
0.0745376
0.0613532
0.0491245
0.0376112
0.0261802
0.0151192
0.00514566
0.0107654
3.00001
3
3
3
3
3
3
3
2.99999
2.99994
2.9999
2.99932
2.99879
2.99565
2.99183
2.97559
2.92881
2.78446
2.44754
1.81892
0.884943
0.415588
0.351594
0.377718
0.390654
0.381393
0.360047
0.334329
0.313696
0.296108
0.279146
0.261937
0.2447
0.227625
0.21084
0.194367
0.178222
0.162438
0.14705
0.132131
0.117697
0.103875
0.0906066
0.0778847
0.0655166
0.0532182
0.0405155
0.0274303
0.0135088
0.00707533
3.00001
3
3
3
3
3
3
3
2.99999
2.99993
2.99987
2.9992
2.99858
2.99505
2.99037
2.97608
2.92724
2.79214
2.46881
1.85496
0.91875
0.434274
0.348073
0.375768
0.391502
0.383975
0.364072
0.339092
0.318795
0.301683
0.285343
0.26878
0.252268
0.236052
0.220257
0.204839
0.189795
0.175112
0.160801
0.146906
0.133398
0.120226
0.107386
0.0946742
0.0819684
0.0688821
0.055027
0.0403401
0.0241278
0.00941235
3.00001
3
3
3
3
3
3
3
2.99999
2.99993
2.99986
2.9992
2.99859
2.99522
2.99056
2.97804
2.93024
2.80304
2.49284
1.90023
0.964091
0.45987
0.344134
0.373016
0.391823
0.386097
0.367923
0.344036
0.324295
0.308195
0.293003
0.277686
0.262317
0.247226
0.232467
0.218081
0.203992
0.190263
0.176859
0.163688
0.150778
0.137959
0.125201
0.112357
0.0990844
0.0852606
0.070445
0.0546502
0.0373966
0.0216471
3.00001
3
3
3
3
3
3
3
2.99999
2.99993
2.99986
2.99924
2.99864
2.99559
2.99083
2.9811
2.9335
2.81923
2.51504
1.95569
1.02181
0.492703
0.341645
0.372357
0.395026
0.391099
0.374093
0.351185
0.331972
0.317162
0.303262
0.28931
0.275112
0.261242
0.247555
0.234246
0.221126
0.208173
0.195394
0.182693
0.170013
0.157303
0.144302
0.131072
0.117372
0.102793
0.0873677
0.0710413
0.0536665
0.0384468
3.00001
3
3
3
3
3
3
3
2.99999
2.99993
2.99986
2.99929
2.99873
2.99587
2.99175
2.98249
2.93943
2.82971
2.54981
2.01735
1.0916
0.531852
0.339303
0.373592
0.402029
0.400327
0.38433
0.36234
0.343883
0.32995
0.317326
0.304522
0.291698
0.278847
0.266345
0.253745
0.241397
0.228896
0.216461
0.203859
0.191099
0.178143
0.164908
0.15113
0.136904
0.121967
0.106102
0.0897875
0.0729932
0.0587517
3.00001
3
3
3
3
3
3
3
2.99999
2.99994
2.99987
2.99934
2.99882
2.99624
2.99217
2.98289
2.94601
2.84988
2.58176
2.09196
1.17895
0.577916
0.338403
0.37901
0.415073
0.416041
0.400915
0.379622
0.361964
0.348761
0.337048
0.325018
0.312937
0.300742
0.288622
0.276535
0.264251
0.251968
0.239353
0.2267
0.213621
0.20028
0.186638
0.172555
0.157849
0.142722
0.127052
0.111051
0.0951778
0.0820648
3.00001
3.00001
3
3
3
3
3
3
2.99999
2.99994
2.99987
2.99938
2.99887
2.99653
2.99269
2.98583
2.94918
2.86271
2.62525
2.16809
1.29007
0.635664
0.344872
0.392703
0.437076
0.440666
0.426237
0.405418
0.387647
0.374381
0.362566
0.350507
0.338115
0.325787
0.313384
0.301
0.288491
0.27583
0.263023
0.249894
0.236644
0.222895
0.208912
0.194745
0.180205
0.165282
0.15017
0.13529
0.120699
0.108914
3.00001
3.00001
3
3
3
3
3
3
3
2.99995
2.99986
2.99941
2.99891
2.99683
2.9933
2.98716
2.9559
2.88133
2.67057
2.25287
1.42055
0.703791
0.365179
0.420034
0.470034
0.474542
0.458785
0.436742
0.417077
0.402219
0.389004
0.375945
0.362623
0.349491
0.336533
0.323633
0.310772
0.297758
0.284812
0.271654
0.258414
0.245072
0.231281
0.217418
0.203608
0.189726
0.175899
0.162372
0.149688
0.139389
3.00001
3.00001
3
3
3
3
3
3
2.99998
2.99995
2.99969
2.99943
2.99806
2.99681
2.9906
2.98416
2.96809
2.89055
2.72186
2.31947
1.57353
0.764203
0.374358
0.432102
0.483732
0.490216
0.475187
0.453737
0.433614
0.418591
0.405436
0.392488
0.379402
0.366418
0.353684
0.341009
0.328592
0.316089
0.303653
0.291134
0.278454
0.265932
0.253397
0.240656
0.227979
0.215678
0.203762
0.192453
0.181544
0.172962
3.00001
3.00001
3.00001
3
3
3
3
3
2.99998
2.99995
2.99973
2.99951
2.99824
2.99714
2.98994
2.98786
2.96914
2.91852
2.75491
2.38637
1.63395
0.799575
0.356248
0.419083
0.469831
0.482557
0.47171
0.453446
0.434868
0.421327
0.40982
0.398349
0.386747
0.375069
0.363793
0.352415
0.341225
0.330136
0.319059
0.30814
0.296996
0.285834
0.274992
0.2644
0.253894
0.243553
0.23372
0.224498
0.215926
0.20868
3.00001
3.00001
3.00001
3.00001
3
3.00001
3
3
2.99998
2.99996
2.99977
2.99958
2.99852
2.99763
2.99181
2.99072
2.97358
2.93664
2.7812
2.44144
1.69656
0.857411
0.375465
0.41063
0.450267
0.468188
0.461966
0.446901
0.430012
0.418021
0.408376
0.398758
0.389083
0.379218
0.369616
0.360167
0.350645
0.34139
0.332243
0.323347
0.314662
0.305832
0.297161
0.288799
0.281009
0.273565
0.26648
0.2599
0.253155
0.247799
3.00001
3.00001
3.00001
3.00001
3.00001
3.00001
3
3
2.99999
2.99996
2.99981
2.99965
2.99885
2.99808
2.99376
2.9923
2.97856
2.95595
2.81215
2.4914
1.76365
0.933961
0.414441
0.404123
0.439708
0.458931
0.455015
0.441975
0.42638
0.415051
0.406471
0.398253
0.389965
0.381861
0.373962
0.366501
0.359101
0.351946
0.344993
0.338365
0.332129
0.32631
0.32071
0.315399
0.310365
0.305831
0.301679
0.297849
0.293996
0.289934
3.00001
3.00001
3.00001
3.00001
3.00001
3.00001
3.00001
3
2.99999
2.99996
2.99983
2.99968
2.99896
2.99839
2.9943
2.99863
2.974
2.97296
2.83865
2.54656
1.83658
1.02136
0.47084
0.40628
0.435823
0.45495
0.452363
0.440909
0.426385
0.415123
0.407193
0.399968
0.39292
0.386071
0.37968
0.373858
0.368463
0.363542
0.359049
0.354926
0.351319
0.348179
0.345793
0.343953
0.342705
0.34177
0.341149
0.340614
0.339057
0.337511
3.00001
3.00001
3.00001
3.00001
3.00001
3.00001
3.00001
3
2.99999
2.99993
2.99986
2.99949
2.99913
2.99739
2.99516
2.98209
2.98162
2.94768
2.84499
2.54053
1.99719
1.06362
0.540452
0.396143
0.425531
0.448495
0.449846
0.440796
0.428131
0.417675
0.410442
0.404296
0.39835
0.392863
0.387814
0.383528
0.379884
0.376964
0.374902
0.373572
0.372972
0.373103
0.374002
0.375769
0.378188
0.381382
0.384881
0.388498
0.391273
0.39164
3.00001
3.00001
3.00001
3.00001
3.00001
3.00001
3.00001
3
2.99999
2.99998
2.9999
2.99983
2.99947
2.99888
2.99788
2.99212
2.99121
2.95317
2.86152
2.62301
2.14783
1.24455
0.651072
0.413062
0.433844
0.455982
0.459423
0.450182
0.437601
0.426403
0.418748
0.412857
0.40759
0.403112
0.399363
0.396506
0.394575
0.393561
0.393512
0.394728
0.397072
0.400624
0.405486
0.411624
0.418927
0.427085
0.436261
0.445582
0.453677
0.460061
3.00001
3.00001
3.00001
3.00001
3.00001
3.00001
3.00001
3
3
2.99999
2.99993
2.99989
2.99962
2.99918
2.99852
2.99356
2.99295
2.96242
2.89375
2.70277
2.30547
1.48304
0.791289
0.467958
0.478424
0.49667
0.499236
0.486292
0.469703
0.453552
0.441909
0.433351
0.426402
0.420934
0.417016
0.414632
0.413741
0.414368
0.4164
0.419921
0.425083
0.432003
0.440873
0.451725
0.464553
0.47968
0.496396
0.515596
0.53537
0.553632
3.00001
3.00001
3.00001
3.00001
3.00001
3.00001
3.00001
3
3
2.99999
2.99997
2.99991
2.99985
2.99922
2.99832
2.9929
2.99155
2.97396
2.93862
2.78191
2.43907
1.7046
0.899104
0.483166
0.491892
0.518084
0.529709
0.521149
0.506114
0.489042
0.474995
0.464171
0.455316
0.448053
0.442717
0.439463
0.438327
0.439314
0.44269
0.448445
0.456409
0.467066
0.480179
0.496569
0.516359
0.540239
0.569574
0.605245
0.653486
0.7372
3.00001
3.00001
3.00001
3.00001
3.00001
3.00001
3.00001
3.00001
3
3
2.99997
2.99995
2.99977
2.99964
2.99774
2.9952
2.97699
2.97729
2.93635
2.8077
2.46983
1.87467
0.954634
0.532184
0.481085
0.509934
0.529634
0.531282
0.524592
0.514665
0.505724
0.498829
0.492753
0.487477
0.483128
0.480337
0.479552
0.481509
0.486197
0.493763
0.504375
0.518517
0.537084
0.560087
0.589675
0.626822
0.674844
0.740656
0.835671
0.964115
3.00001
3.00001
3.00001
3.00001
3.00001
3.00001
3.00001
3.00001
3.00001
3
2.99999
2.99998
2.99988
2.99978
2.99896
2.99825
2.99038
2.99035
2.94736
2.85275
2.58837
2.10837
1.19838
0.682316
0.507159
0.518122
0.535013
0.542736
0.540024
0.534251
0.528466
0.525203
0.523025
0.52115
0.520105
0.520552
0.522956
0.527245
0.534209
0.543785
0.55735
0.574725
0.597263
0.626105
0.661744
0.708483
0.766673
0.843535
0.952457
1.06787
3.00001
3.00001
3.00001
3.00001
3.00001
3.00001
3.00001
3.00001
3.00001
3.00001
3
2.99999
2.99994
2.99987
2.99943
2.99882
2.99369
2.99381
2.9637
2.90898
2.73829
2.37948
1.6525
0.903519
0.561983
0.556305
0.573363
0.585268
0.582052
0.574237
0.567508
0.563118
0.56067
0.55969
0.560691
0.563432
0.567745
0.574034
0.582818
0.594936
0.610318
0.630924
0.655698
0.687813
0.726587
0.774373
0.834228
0.903102
0.994703
1.07695
3.00001
3.00001
3.00001
3.00001
3.00001
3.00001
3.00001
3.00001
3.00001
3.00001
3
2.99999
2.99995
2.99991
2.99952
2.99895
2.99546
2.99365
2.97202
2.96049
2.82377
2.50919
1.8433
1.05647
0.583842
0.550875
0.581457
0.605853
0.611003
0.60712
0.603009
0.600081
0.598736
0.599619
0.602816
0.607333
0.613261
0.621246
0.631564
0.64508
0.661949
0.682958
0.709233
0.740087
0.778989
0.822594
0.877401
0.935498
1.00877
1.07349
3.00001
3.00001
3.00001
3.00001
3.00001
3.00001
3.00001
3.00001
3.00001
3.00001
3
3
2.99996
2.99993
2.99964
2.99927
2.99669
2.99519
2.97644
2.97325
2.8605
2.62332
2.03558
1.27441
0.705569
0.577423
0.594322
0.615125
0.626763
0.627931
0.627045
0.626729
0.628058
0.632247
0.638321
0.645385
0.653478
0.663378
0.675636
0.690248
0.70836
0.729187
0.754967
0.783752
0.819369
0.857728
0.904656
0.953752
1.01201
1.06635
3.00001
3.00001
3.00001
3.00001
3.00001
3.00001
3.00001
3.00001
3.00001
3.00001
3
3
2.99999
2.99992
2.99986
2.99928
2.99851
2.99334
2.99315
2.9751
2.93884
2.77616
2.43246
1.7142
0.974081
0.636562
0.62372
0.641756
0.65734
0.661112
0.660191
0.659994
0.66216
0.666779
0.673238
0.680854
0.690265
0.701177
0.714741
0.730049
0.748781
0.769324
0.79432
0.821099
0.853287
0.887666
0.927122
0.969625
1.01662
1.06226
3.00001
3.00001
3.00001
3.00001
3.00001
3.00001
3.00001
3.00001
3.00001
3.00001
3.00001
3
2.99999
2.99995
2.99991
2.99951
2.99896
2.99524
2.99337
2.96947
2.97085
2.83529
2.58243
1.95177
1.20329
0.701875
0.630128
0.653713
0.677616
0.690407
0.693269
0.693909
0.696391
0.700897
0.707339
0.71505
0.724773
0.735879
0.749553
0.764697
0.782988
0.802671
0.8261
0.851105
0.879866
0.910953
0.945221
0.982172
1.02272
1.06148
3.00001
3.00001
3.00001
3.00001
3.00001
3.00001
3.00001
3.00001
3.00001
3.00001
3.00001
3
3
2.99997
2.99994
2.99966
2.99929
2.99685
2.9956
2.97947
2.98273
2.88897
2.70796
2.2308
1.5456
0.858587
0.659609
0.666699
0.690226
0.709553
0.716391
0.718861
0.7225
0.727886
0.735573
0.744153
0.754964
0.76655
0.780817
0.795842
0.813778
0.832753
0.854404
0.87787
0.903454
0.931342
0.961309
0.993351
1.02827
1.062
3.00001
3.00001
3.00001
3.00001
3.00001
3.00001
3.00001
3.00001
3.00001
3.00001
3.00001
3
3
2.99998
2.99997
2.99979
2.99956
2.99797
2.99726
2.98645
2.99038
2.92593
2.80623
2.51513
1.94779
1.1236
0.767197
0.705565
0.717472
0.732077
0.741061
0.744
0.746866
0.751694
0.759147
0.768008
0.779207
0.791118
0.805436
0.820767
0.838103
0.856922
0.877325
0.899535
0.923342
0.948835
0.975928
1.00468
1.03525
1.06449
3.00001
3.00001
3.00001
3.00001
3.00001
3.00001
3.00001
3.00001
3.00001
3.00001
3.00001
3.00001
3
3
2.99997
2.99994
2.99966
2.99933
2.9968
2.99555
2.97853
2.98224
2.88511
2.70569
2.23546
1.55375
0.923692
0.746958
0.738406
0.752981
0.765681
0.770466
0.772885
0.776861
0.783439
0.791952
0.802462
0.814456
0.827958
0.84306
0.859357
0.877353
0.896529
0.91722
0.939173
0.962643
0.987291
1.01341
1.04127
1.06787
3.00001
3.00001
3.00001
3.00001
3.00001
3.00001
3.00001
3.00001
3.00001
3.00001
3.00001
3.00001
3
3
2.99998
2.99996
2.9998
2.99962
2.9982
2.99748
2.988
2.98995
2.93348
2.82535
2.54999
2.0149
1.21373
0.8616
0.780828
0.780859
0.788299
0.796236
0.800301
0.803966
0.809398
0.816816
0.826058
0.837051
0.849435
0.863491
0.87887
0.895686
0.913745
0.93306
0.953506
0.975127
0.997815
1.0216
1.04692
1.0711
3.00001
3.00001
3.00001
3.00001
3.00001
3.00001
3.00001
3.00001
3.00001
3.00001
3.00001
3.00001
3.00001
3
2.99999
2.99997
2.99995
2.99969
2.99938
2.99728
2.99645
2.98112
2.98286
2.90408
2.74711
2.38215
1.73232
1.0585
0.828936
0.806668
0.814127
0.824234
0.831977
0.836501
0.84075
0.846331
0.85367
0.862545
0.872902
0.884903
0.898383
0.913427
0.929791
0.947569
0.966362
0.986451
1.00731
1.02938
1.05253
1.07486
3.00001
3.00001
3.00001
3.00001
3.00001
3.00001
3.00001
3.00001
3.00001
3.00001
3.00001
3.00001
3.00001
3.00001
3
2.99999
2.99995
2.99992
2.99957
2.99924
2.99624
2.99487
2.97522
2.97904
2.86426
2.6646
2.10267
1.41505
0.939275
0.846271
0.839281
0.848636
0.859614
0.866765
0.872006
0.877117
0.883745
0.89141
0.900465
0.910402
0.921634
0.934116
0.948051
0.963588
0.980098
0.99806
1.01691
1.03704
1.05828
1.07875
3.00001
3.00001
3.00001
3.00001
3.00001
3.00001
3.00001
3.00001
3.00001
3.00001
3.00001
3.00001
3.00001
3.00001
3
2.99999
2.99999
2.99991
2.9999
2.99932
2.99884
2.99441
2.99354
2.96679
2.96655
2.82416
2.55202
1.96304
1.28679
0.935965
0.879334
0.876607
0.88302
0.892396
0.899687
0.905752
0.91182
0.919579
0.927941
0.937911
0.948143
0.959775
0.971526
0.984464
0.998208
1.01323
1.02943
1.0469
1.06556
1.0837
3.00001
3.00001
3.00001
3.00001
3.00001
3.00001
3.00001
3.00001
3.00001
3.00001
3.00001
3.00001
3.00001
3.00001
3
3
2.99999
2.99997
2.99988
2.99975
2.9991
2.99825
2.99433
2.98702
2.96382
2.91322
2.76668
2.4205
1.81196
1.14314
0.920254
0.894207
0.900676
0.911446
0.922428
0.930738
0.937479
0.944885
0.953014
0.962366
0.97247
0.983421
0.995192
1.00733
1.02042
1.03367
1.0478
1.06192
1.07787
1.09272
3.00001
3.00001
3.00001
3.00001
3.00001
3.00001
3.00001
3.00001
3.00001
3.00001
3.00001
3.00001
3.00001
3.00001
3.00001
3.00001
3
2.99999
2.99995
2.99992
2.9996
2.99934
2.99675
2.9956
2.97985
2.98395
2.88754
2.71195
2.23514
1.58613
1.04032
0.917328
0.910741
0.922517
0.936686
0.949689
0.959299
0.967342
0.975728
0.984378
0.994082
1.00404
1.01491
1.0262
1.03796
1.05033
1.0627
1.07604
1.09001
1.10367
3.00001
3.00001
3.00001
3.00001
3.00001
3.00001
3.00001
3.00001
3.00001
3.00001
3.00001
3.00001
3.00001
3.00001
3.00001
3.00001
3
3
2.99998
2.99997
2.99985
2.99973
2.99863
2.99798
2.9899
2.99187
2.94165
2.8594
2.62495
2.12832
1.39145
1.0474
0.960272
0.951891
0.958935
0.969874
0.980895
0.989487
0.997505
1.00568
1.0144
1.02368
1.03322
1.04328
1.05333
1.06394
1.0752
1.08721
1.09955
1.11042
3.00001
3.00001
3.00001
3.00001
3.00001
3.00001
3.00001
3.00001
3.00001
3.00001
3.00001
3.00001
3.00001
3.00001
3.00001
3.00001
3.00001
3
3
2.99997
2.99995
2.99975
2.99973
2.9986
2.99598
2.99077
2.97263
2.93705
2.82422
2.58395
2.02182
1.34372
1.07051
1.00474
0.994624
0.997317
1.00472
1.01258
1.01921
1.02541
1.03175
1.03884
1.04629
1.05453
1.06339
1.0731
1.08296
1.09284
1.10189
1.10885
3.00001
3.00001
3.00001
3.00001
3.00001
3.00001
3.00001
3.00001
3.00001
3.00001
3.00001
3.00001
3.00001
3.00001
3.00001
3.00001
3.00001
3.00001
3
2.99999
2.99997
2.99987
2.99981
2.99903
2.99829
2.99141
2.99452
2.95764
2.97112
2.81465
2.54092
1.98084
1.36938
1.08813
1.04665
1.03826
1.03932
1.04418
1.04904
1.05244
1.05542
1.05873
1.06287
1.0678
1.07345
1.07985
1.08581
1.0912
1.09422
1.09339
3.00001
3.00001
3.00001
3.00001
3.00001
3.00001
3.00001
3.00001
3.00001
3.00001
3.00001
3.00001
3.00001
3.00001
3.00001
3.00001
3.00001
3.00001
3
3
2.99997
2.99995
2.99972
2.99965
2.99888
2.99827
2.99086
2.99399
2.95508
2.96823
2.80725
2.54261
1.96181
1.39258
1.11053
1.06742
1.06085
1.06338
1.06968
1.07541
1.07889
1.08081
1.08225
1.08313
1.0836
1.08363
1.08263
1.07893
1.07296
1.06361
3.00001
3.00001
3.00001
3.00001
3.00001
3.00001
3.00001
3.00001
3.00001
3.00001
3.00001
3.00001
3.00001
3.00001
3.00001
3.00001
3.00001
3.00001
3.00001
3
3
2.99997
2.99996
2.99984
2.99973
2.99907
2.99813
2.9944
2.98752
2.96294
2.92038
2.79702
2.53413
1.97834
1.35924
1.12855
1.08016
1.07552
1.07917
1.08328
1.0868
1.08646
1.08381
1.07949
1.07345
1.06586
1.05553
1.0416
1.02403
1.00471
3.00001
3.00001
3.00001
3.00001
3.00001
3.00001
3.00001
3.00001
3.00001
3.00001
3.00001
3.00001
3.00001
3.00001
3.00001
3.00001
3.00001
3.00001
3.00001
3.00001
3.00001
3
2.99999
2.99996
2.99987
2.9997
2.99958
2.998
2.99719
2.98357
2.98537
2.91902
2.79087
2.53572
1.97147
1.36939
1.15249
1.10109
1.09097
1.08551
1.08003
1.07122
1.05906
1.04432
1.02705
1.00819
0.986364
0.964445
0.944253
0.928671
3.00001
3.00001
3.00001
3.00001
3.00001
3.00001
3.00001
3.00001
3.00001
3.00001
3.00001
3.00001
3.00001
3.00001
3.00001
3.00001
3.00001
3.00001
3.00001
3.00001
3.00001
3
2.99999
2.99998
2.99992
2.99988
2.99951
2.99932
2.99735
2.99613
2.98633
2.97368
2.91006
2.82651
2.56017
2.02314
1.46403
1.17928
1.11468
1.08008
1.04938
1.01924
0.989116
0.959211
0.930757
0.907157
0.890436
0.880524
0.877198
0.878648
3.00001
3.00001
3.00001
3.00001
3.00001
3.00001
3.00001
3.00001
3.00001
3.00001
3.00001
3.00001
3.00001
3.00001
3.00001
3.00001
3.00001
3.00001
3.00001
3.00001
3.00001
3.00001
3
3
2.99997
2.99996
2.99981
2.99974
2.99896
2.99844
2.99444
2.98973
2.96454
2.93215
2.79491
2.5841
2.06231
1.4884
1.17733
1.03651
0.940564
0.886709
0.85571
0.840304
0.837406
0.84118
0.846812
0.854976
0.8666
0.878493
3.00001
3.00001
3.00001
3.00001
3.00001
3.00001
3.00001
3.00001
3.00001
3.00001
3.00001
3.00001
3.00001
3.00001
3.00001
3.00001
3.00001
3.00001
3.00001
3.00001
3.00001
3.00001
3.00001
3
3
2.99998
2.99996
2.99984
2.99975
2.99904
2.99875
2.99575
2.99028
2.97802
2.92777
2.82212
2.58041
2.02842
1.33843
0.912458
0.686915
0.675507
0.712833
0.755621
0.797137
0.827948
0.850516
0.868192
0.88346
0.896904
3.00001
3.00001
3.00001
3.00001
3.00001
3.00001
3.00001
3.00001
3.00001
3.00001
3.00001
3.00001
3.00001
3.00001
3.00001
3.00001
3.00001
3.00001
3.00001
3.00001
3.00001
3.00001
3.00001
3.00001
3
3
2.99998
2.99992
2.99983
2.99936
2.99929
2.9964
2.99525
2.98107
2.96375
2.88591
2.73565
2.29225
1.52569
0.793456
0.40749
0.47725
0.559114
0.638081
0.694916
0.736597
0.769707
0.796817
0.821519
0.841478
3.00001
3.00001
3.00001
3.00001
3.00001
3.00001
3.00001
3.00001
3.00001
3.00001
3.00001
3.00001
3.00001
3.00001
3.00001
3.00001
3.00001
3.00001
3.00001
3.00001
3.00001
3.00001
3.00001
3
3
2.99999
2.99995
2.99992
2.9997
2.99955
2.99849
2.99782
2.9928
2.98396
2.96999
2.8934
2.76383
2.35683
1.56612
0.793957
0.315999
0.38353
0.46101
0.527038
0.571508
0.606424
0.638985
0.671778
0.703813
0.732199
3.00001
3.00001
3.00001
3.00001
3.00001
3.00001
3.00001
3.00001
3.00001
3.00001
3.00001
3.00001
3.00001
3.00001
3.00001
3.00001
3.00001
3.00001
3.00001
3.00001
3.00001
3.00001
3.00001
3.00001
3
3
2.99998
2.99997
2.99988
2.99979
2.99926
2.99854
2.99594
2.98968
2.96944
2.93669
2.81049
2.42242
1.70957
0.696853
0.35277
0.369044
0.422367
0.471066
0.500027
0.520793
0.541957
0.566397
0.593093
0.619488
3.00001
3.00001
3.00001
3.00001
3.00001
3.00001
3.00001
3.00001
3.00001
3.00001
3.00001
3.00001
3.00001
3.00001
3.00001
3.00001
3.00001
3.00001
3.00001
3.00001
3.00001
3.00001
3.00001
3.00001
3
3
2.99998
2.99998
2.99988
2.99982
2.99934
2.99877
2.99621
2.99166
2.97355
2.95127
2.83056
2.53005
1.86953
0.902364
0.461546
0.366001
0.414195
0.468672
0.495111
0.505943
0.514366
0.525363
0.538931
0.551713
3.00001
3.00001
3.00001
3.00001
3.00001
3.00001
3.00001
3.00001
3.00001
3.00001
3.00001
3.00001
3.00001
3.00001
3.00001
3.00001
3.00001
3.00001
3.00001
3.00001
3.00001
3.00001
3.00001
3.00001
3.00001
3
2.99999
2.99998
2.99987
2.99984
2.99927
2.99903
2.99635
2.99324
2.97655
2.96016
2.85048
2.62264
2.00368
1.05833
0.51504
0.317955
0.390958
0.467079
0.498864
0.506655
0.50913
0.512874
0.517958
0.521667
3.00001
3.00001
3.00001
3.00001
3.00001
3.00001
3.00001
3.00001
3.00001
3.00001
3.00001
3.00001
3.00001
3.00001
3.00001
3.00001
3.00001
3.00001
3.00001
3.00001
3.00001
3.00001
3.00001
3.00001
3
3
2.99999
2.99997
2.99995
2.99979
2.99939
2.99912
2.99591
2.9943
2.97651
2.96257
2.83475
2.69204
2.10724
1.18241
0.562722
0.280582
0.373359
0.460382
0.493081
0.498805
0.499256
0.500812
0.503481
0.505346
3.00001
3.00001
3.00001
3.00001
3.00001
3.00001
3.00001
3.00001
3.00001
3.00001
3.00001
3.00001
3.00001
3.00001
3.00001
3.00001
3.00001
3.00001
3.00001
3.00001
3.00001
3.00001
3.00001
3.00001
3
3
2.99999
2.99996
2.99993
2.99977
2.99972
2.99876
2.99693
2.99346
2.97996
2.95763
2.88055
2.68794
2.16437
1.26289
0.591581
0.260103
0.363109
0.453503
0.48531
0.489903
0.48981
0.491326
0.494568
0.498376
3.00001
3.00001
3.00001
3.00001
3.00001
3.00001
3.00001
3.00001
3.00001
3.00001
3.00001
3.00001
3.00001
3.00001
3.00001
3.00001
3.00001
3.00001
3.00001
3.00001
3.00001
3.00001
3.00001
3.00001
3
3
2.99999
2.99996
2.99993
2.9998
2.99953
2.99887
2.99654
2.99439
2.97722
2.96673
2.88078
2.71705
2.21678
1.31665
0.614646
0.257666
0.359349
0.447023
0.475507
0.478755
0.478815
0.482708
0.488904
0.495381
3.00001
3.00001
3.00001
3.00001
3.00001
3.00001
3.00001
3.00001
3.00001
3.00001
3.00001
3.00001
3.00001
3.00001
3.00001
3.00001
3.00001
3.00001
3.00001
3.00001
3.00001
3.00001
3.00001
3.00001
3.00001
3
2.99999
2.99996
2.99994
2.99978
2.99973
2.99885
2.99737
2.99423
2.98201
2.96336
2.89192
2.71402
2.22538
1.33662
0.632603
0.263651
0.360229
0.443145
0.467972
0.469971
0.471656
0.477729
0.486189
0.494648
3.00001
3.00001
3.00001
3.00001
3.00001
3.00001
3.00001
3.00001
3.00001
3.00001
3.00001
3.00001
3.00001
3.00001
3.00001
3.00001
3.00001
3.00001
3.00001
3.00001
3.00001
3.00001
3.00001
3.00001
3.00001
3
3
2.99997
2.99994
2.99983
2.99977
2.99916
2.99924
2.99318
2.98573
2.97299
2.87805
2.74683
2.23223
1.36613
0.653401
0.273332
0.364292
0.442119
0.461759
0.461778
0.46288
0.468782
0.478104
0.488534
3.00001
3.00001
3.00001
3.00001
3.00001
3.00001
3.00001
3.00001
3.00001
3.00001
3.00001
3.00001
3.00001
3.00001
3.00001
3.00001
3.00001
3.00001
3.00001
3.00001
3.00001
3.00001
3.00001
3.00001
3.00001
3
3
2.99996
2.99994
2.99971
2.99973
2.99907
2.99821
2.99217
2.9902
2.96143
2.90234
2.74735
2.28897
1.38242
0.670398
0.278559
0.364734
0.438414
0.45757
0.459119
0.460411
0.465714
0.474606
0.485972
3.00001
3.00001
3.00001
3.00001
3.00001
3.00001
3.00001
3.00001
3.00001
3.00001
3.00001
3.00001
3.00001
3.00001
3.00001
3.00001
3.00001
3.00001
3.00001
3.00001
3.00001
3.00001
3.00001
3.00001
3.00001
3
3
2.99999
2.99998
2.99991
2.99979
2.99946
2.99787
2.99928
2.98694
3.05282
2.91284
2.75509
2.1229
1.33463
0.481378
0.254969
0.34963
0.424296
0.455188
0.469285
0.477844
0.483719
0.488277
0.491697
3.00001
3.00001
3.00001
3.00001
3.00001
3.00001
3.00001
3.00001
3.00001
3.00001
3.00001
3.00001
3.00001
3.00001
3.00001
3.00001
3.00001
3.00001
3.00001
3.00001
3.00001
3.00001
3.00001
3.00001
3.00001
3
3
2.99998
2.99997
2.99989
2.99979
2.99951
2.99837
2.99658
2.9912
2.9775
2.92414
2.77583
2.29935
1.52109
0.560894
0.282581
0.35982
0.427806
0.466864
0.486199
0.492719
0.493597
0.493177
0.492602
3.00001
3.00001
3.00001
3.00001
3.00001
3.00001
3.00001
3.00001
3.00001
3.00001
3.00001
3.00001
3.00001
3.00001
3.00001
3.00001
3.00001
3.00001
3.00001
3.00001
3.00001
3.00001
3.00001
3.00001
3.00001
3
3
2.99995
2.99994
2.99965
2.99955
2.99787
2.99719
2.98769
2.98907
2.93723
2.99736
2.76322
2.36159
1.51938
0.733068
0.258377
0.336788
0.401933
0.439555
0.452238
0.452866
0.453061
0.457429
0.464374
3.00001
3.00001
3.00001
3.00001
3.00001
3.00001
3.00001
3.00001
3.00001
3.00001
3.00001
3.00001
3.00001
3.00001
3.00001
3.00001
3.00001
3.00001
3.00001
3.00001
3.00001
3.00001
3.00001
3.00001
3.00001
3
3
2.99998
2.99997
2.99985
2.99981
2.99916
2.99869
2.99537
2.99086
2.97157
2.93576
2.77659
2.42496
1.67936
0.652982
0.317646
0.349556
0.413326
0.468979
0.493138
0.499138
0.4978
0.495312
0.493052
1.30697
0.887279
0.264176
0.277045
0.359131
0.424924
0.459415
0.500648
0.550725
0.594908
0.632295
0.665503
0.701031
0.736754
0.775242
0.808006
0.829594
0.838538
0.841517
0.837088
0.818948
0.783515
0.733906
0.675523
0.614084
0.552806
0.493593
0.437701
0.386311
0.338523
0.293774
0.25134
0.20974
0.169565
0.131202
0.0946062
0.0596692
0.032203
0.0278478
0.0542387
0.0857191
0.115682
0.144912
0.173124
0.200323
0.225986
0.251212
0.276934
0.303076
0.327931
0.351947
0.374815
0.397272
0.418665
0.439729
0.45974
0.479502
0.498187
0.516661
0.534034
0.551227
0.56734
0.583287
0.598229
0.612945
0.626827
0.640355
0.653284
0.665752
0.677821
0.689462
0.700815
0.711878
0.722731
0.733421
0.744
0.754527
0.76499
0.775558
0.786011
0.796758
0.807295
0.818292
0.828969
0.840207
0.851145
0.862505
0.87381
0.88526
0.896774
0.908301
0.919812
0.931215
0.942529
0.953518
0.96406
0.973938
0.982533
0.989338
0.993522
1.2213
0.970453
0.572009
0.401182
0.237002
0.0865832
0.117025
0.208721
0.290081
0.346712
0.38467
0.417679
0.456446
0.498538
0.538989
0.576658
0.602518
0.613485
0.612914
0.604065
0.580005
0.537161
0.480941
0.418529
0.356686
0.298034
0.242688
0.192802
0.148095
0.107997
0.0733156
0.0507466
0.0506064
0.0726501
0.101117
0.131447
0.161363
0.190186
0.216981
0.244223
0.271528
0.29822
0.324409
0.349733
0.374566
0.398066
0.420829
0.443115
0.466299
0.488688
0.510315
0.530872
0.551055
0.570377
0.58931
0.607372
0.625125
0.641973
0.658601
0.674285
0.689766
0.704365
0.718695
0.732276
0.745507
0.758132
0.770373
0.782119
0.793503
0.804476
0.815152
0.825494
0.835625
0.84549
0.855271
0.86483
0.874476
0.883895
0.89359
0.902998
0.912854
0.922392
0.93242
0.94223
0.952385
0.962547
0.972866
0.9833
0.993828
1.00447
1.01513
1.02584
1.03641
1.04689
1.05715
1.06689
1.07615
1.08409
1.09053
1.09417
1.17239
1.07992
0.907089
0.771876
0.648852
0.513077
0.386119
0.284466
0.192572
0.111251
0.05432
0.104347
0.164131
0.220429
0.270743
0.313597
0.339967
0.344812
0.333084
0.31411
0.286754
0.241412
0.190235
0.14597
0.11339
0.102568
0.112117
0.133058
0.158008
0.184609
0.211552
0.238126
0.263503
0.28848
0.31368
0.338212
0.362777
0.386242
0.409391
0.431986
0.454855
0.477279
0.499483
0.521267
0.54281
0.563501
0.583158
0.602536
0.622381
0.642512
0.661708
0.680138
0.698071
0.715407
0.732428
0.748691
0.764637
0.779813
0.794625
0.80873
0.822444
0.835511
0.848191
0.860182
0.871742
0.88262
0.893123
0.903027
0.912653
0.921788
0.930782
0.939412
0.94806
0.956362
0.964791
0.972873
0.981249
0.989288
0.997768
1.0059
1.01458
1.02295
1.03181
1.04053
1.04957
1.0587
1.06799
1.07749
1.08704
1.09672
1.10637
1.11614
1.12576
1.13535
1.14473
1.15371
1.16222
1.16961
1.17559
1.17894
1.16417
1.14751
1.07485
0.997069
0.916958
0.82594
0.728241
0.637054
0.559453
0.477571
0.39632
0.325519
0.266734
0.212418
0.159342
0.105519
0.0510082
0.0149902
0.025379
0.0487642
0.0877603
0.155529
0.221911
0.270716
0.309017
0.341309
0.367463
0.391233
0.412828
0.433597
0.453476
0.473199
0.491671
0.510758
0.52914
0.54786
0.565826
0.583681
0.600758
0.617799
0.634492
0.651371
0.668038
0.684834
0.701425
0.717824
0.733437
0.748428
0.763967
0.779966
0.796076
0.811412
0.82665
0.841465
0.856277
0.8707
0.884943
0.898757
0.912289
0.925318
0.938082
0.950256
0.962226
0.973599
0.984844
0.995511
1.00595
1.01579
1.02533
1.03424
1.04285
1.05085
1.05857
1.06582
1.07295
1.07976
1.08659
1.09318
1.09993
1.10649
1.11338
1.12012
1.12727
1.13452
1.14203
1.14989
1.15786
1.16608
1.17435
1.18279
1.19123
1.19979
1.20831
1.21674
1.22516
1.2331
1.24085
1.24744
1.25307
1.25583
1.15658
1.17548
1.15897
1.12613
1.08472
1.02872
0.968992
0.903588
0.840384
0.775832
0.708782
0.644965
0.591857
0.54497
0.499674
0.453618
0.410333
0.37995
0.36516
0.378134
0.414572
0.464842
0.517485
0.562649
0.596585
0.622341
0.639714
0.654337
0.667092
0.679285
0.691564
0.703365
0.715167
0.726711
0.738407
0.749956
0.761565
0.772968
0.784349
0.795588
0.806989
0.818353
0.829919
0.841354
0.853293
0.864786
0.876215
0.886796
0.898017
0.909638
0.921919
0.933482
0.944929
0.956068
0.967283
0.978331
0.98942
1.00021
1.01101
1.02142
1.03187
1.0419
1.05202
1.06173
1.07161
1.08113
1.09091
1.10023
1.10966
1.11844
1.12734
1.13545
1.14369
1.15113
1.15871
1.16562
1.17273
1.17927
1.18611
1.19248
1.19925
1.20559
1.21244
1.21885
1.22589
1.23256
1.23984
1.24677
1.25435
1.26151
1.26938
1.27667
1.28473
1.29201
1.30006
1.30705
1.31455
1.32051
1.32611
1.32858
1.147
1.1818
1.19512
1.19394
1.18109
1.15643
1.12337
1.086
1.04198
0.997625
0.949602
0.905071
0.860709
0.816942
0.774296
0.72918
0.688738
0.657521
0.644321
0.649928
0.679136
0.724477
0.775216
0.820332
0.854758
0.882486
0.892971
0.898528
0.897598
0.897823
0.899097
0.902035
0.905528
0.909496
0.913555
0.917581
0.921888
0.926399
0.931232
0.936073
0.941612
0.947372
0.95413
0.960936
0.968567
0.976166
0.983774
0.990964
0.998547
1.00707
1.01668
1.02647
1.03631
1.04605
1.05591
1.06557
1.07542
1.085
1.09477
1.1042
1.11375
1.12294
1.13218
1.14105
1.14988
1.15813
1.16634
1.17396
1.18185
1.18915
1.19687
1.20389
1.21133
1.21794
1.22493
1.23116
1.2378
1.2438
1.25032
1.25632
1.26286
1.26889
1.27549
1.2816
1.28832
1.29462
1.30139
1.30792
1.31478
1.32154
1.32854
1.33552