/*--------------------------------*- C++ -*----------------------------------*\
| =========                 |                                                 |
| \\      /  F ield         | OpenFOAM: The Open Source CFD Toolbox           |
|  \\    /   O peration     | Version:  2112                                  |
|   \\  /    A nd           | Website:  www.openfoam.com                      |
|    \\/     M anipulation  |                                                 |
\*---------------------------------------------------------------------------*/
FoamFile
{
    version     2.0;
    format      ascii;
    arch        "LSB;label=32;scalar=64";
    class       volScalarField;
    location    "4.9995";
    object      p;
}
// * * * * * * * * * * * * * * * * * * * * * * * * * * * * * * * * * * * * * //

dimensions      [1 -1 -2 0 0 0 0];

internalField   nonuniform List<scalar> 
7000
(
0.999998
1
1.00001
1.00001
1.00001
1.00001
1.00001
1.00001
1.00003
1.00003
1.00014
1.00036
1.00125
1.00236
1.00797
1.00982
1.08207
1.0899
1.68577
2.21798
5.15628
10.5256
10.8934
10.7122
10.5789
10.6063
10.7046
10.8568
10.9739
11.0623
11.1422
11.2205
11.2963
11.3678
11.434
11.4949
11.5504
11.6003
11.6448
11.6837
11.717
11.7449
11.7674
11.7848
11.7975
11.8061
11.8116
11.8161
11.8207
11.8241
1
1.00001
1.00001
1.00001
1.00001
1.00001
1.00001
1.00001
1.00003
1.00003
1.00014
1.00034
1.00116
1.00217
1.00729
1.00855
1.07899
1.0835
1.66378
2.1631
5.01819
10.3445
10.8788
10.7095
10.5719
10.5981
10.6942
10.8464
10.9644
11.0539
11.1344
11.2133
11.2894
11.3613
11.428
11.4893
11.5453
11.5957
11.6408
11.6802
11.7141
11.7426
11.7656
11.7835
11.7967
11.8056
11.8114
11.8165
11.8209
11.8242
1
1.00001
1.00001
1.00001
1.00001
1.00001
1.00001
1.00001
1.00003
1.00003
1.00013
1.00033
1.00108
1.002
1.00656
1.0075
1.07664
1.07767
1.6507
2.12705
4.92773
10.1932
10.9054
10.7372
10.5827
10.6043
10.6941
10.8452
10.9628
11.0518
11.1318
11.2097
11.2852
11.3563
11.4224
11.4833
11.539
11.5893
11.6344
11.674
11.7084
11.7374
11.7612
11.78
11.7943
11.8048
11.8125
11.8187
11.8236
11.828
1
1.00001
1.00001
1.00001
1.00001
1.00001
1.00001
1.00001
1.00003
1.00003
1.00015
1.00036
1.00121
1.00241
1.00757
1.01429
1.06976
1.09322
1.60611
2.07521
4.79699
9.97071
10.9065
10.7458
10.5762
10.5945
10.6796
10.8306
10.9493
11.039
11.1192
11.1971
11.2725
11.3437
11.4099
11.4709
11.5269
11.5777
11.6233
11.6638
11.6991
11.7294
11.7547
11.7754
11.7919
11.8048
11.815
11.8233
11.8296
11.8344
1
1
1.00001
1.00001
1.00001
1.00001
1.00001
1.00001
1.00003
1.00004
1.00018
1.00043
1.00139
1.00278
1.00807
1.01557
1.06797
1.08644
1.57987
2.0247
4.64903
9.71331
10.9202
10.7677
10.5781
10.5913
10.6686
10.8173
10.9369
11.0267
11.1061
11.1831
11.2579
11.3286
11.3944
11.4554
11.5115
11.5628
11.6092
11.6507
11.6874
11.7194
11.7469
11.7701
11.7894
11.8054
11.8186
11.8295
11.8377
11.8439
1
1
1.00001
1.00001
1.00001
1.00001
1.00001
1.00001
1.00002
1.00004
1.00019
1.00043
1.00137
1.00273
1.00784
1.01466
1.06518
1.08108
1.5515
1.96477
4.48187
9.39878
10.9452
10.7964
10.5779
10.5842
10.6531
10.7966
10.919
11.0095
11.0879
11.1642
11.2384
11.3088
11.3746
11.4357
11.4923
11.5443
11.5917
11.6347
11.6733
11.7075
11.7376
11.7639
11.7865
11.806
11.8227
11.8366
11.8471
11.8552
1
1
1.00001
1.00001
1.00001
1.00001
1.00001
1.00001
1.00002
1.00004
1.00018
1.00041
1.00132
1.0025
1.00756
1.01286
1.06211
1.06651
1.53184
1.89134
4.28981
9.01628
10.9868
10.8359
10.5774
10.5728
10.6345
10.7726
10.8975
10.9882
11.0654
11.1407
11.2144
11.2846
11.3504
11.4117
11.4689
11.5218
11.5707
11.6154
11.6562
11.6931
11.7263
11.756
11.7824
11.8055
11.8258
11.843
11.856
11.8661
1
1
1.00001
1.00001
1.00001
1.00001
1.00001
1.00001
1.00002
1.00004
1.00017
1.00039
1.00121
1.00241
1.00677
1.01224
1.05585
1.06703
1.48445
1.82037
4.06948
8.55081
11.0537
10.89
10.5775
10.5533
10.6122
10.7468
10.8726
10.963
11.0389
11.113
11.186
11.2557
11.3215
11.3831
11.441
11.495
11.5455
11.5923
11.6356
11.6754
11.712
11.7453
11.7755
11.8026
11.8262
11.8465
11.8619
11.8739
1
1
1.00001
1.00001
1.00001
1.00001
1.00001
1.00001
1.00002
1.00004
1.00016
1.00036
1.00113
1.00215
1.00658
1.01093
1.05157
1.04789
1.45654
1.73894
3.81272
7.99361
11.1559
10.963
10.5772
10.5265
10.584
10.7171
10.8438
10.9334
11.0078
11.0804
11.1525
11.2218
11.2875
11.3495
11.408
11.4633
11.5153
11.5642
11.6101
11.6529
11.6927
11.7298
11.7637
11.7946
11.8216
11.8445
11.8621
11.8761
1
1
1.00001
1.00001
1.00001
1.00001
1.00001
1.00001
1.00002
1.00004
1.00016
1.00035
1.00108
1.00204
1.00598
1.01021
1.04713
1.05079
1.40453
1.64116
3.53637
7.31976
11.2989
11.0604
10.5785
10.4924
10.5484
10.6808
10.8095
10.899
10.9716
11.0426
11.1136
11.1823
11.2476
11.3097
11.3687
11.4249
11.4783
11.5291
11.5774
11.6231
11.6661
11.7064
11.7439
11.7782
11.8086
11.8343
11.8536
11.8689
1
1
1
1.00001
1.00001
1.00001
1.00001
1.00001
1.00001
1.00004
1.00015
1.00034
1.00101
1.00194
1.00544
1.00959
1.04053
1.04408
1.35595
1.53766
3.24383
6.55065
11.469
11.181
10.5907
10.4593
10.5106
10.6378
10.7696
10.8594
10.9301
10.9988
11.0681
11.1357
11.2004
11.2621
11.3213
11.3781
11.4326
11.4848
11.5348
11.5828
11.6284
11.6715
11.7118
11.7487
11.7819
11.8102
11.8314
11.8484
1
1
1
1.00001
1.00001
1.00001
1.00001
1.00001
1.00002
1.00007
1.00018
1.00054
1.00112
1.00264
1.00616
1.01017
1.03642
1.04551
1.29891
1.48111
2.92458
5.75989
11.5537
11.2403
10.609
10.4304
10.4718
10.5859
10.7199
10.8111
10.8802
10.9466
11.0139
11.0799
11.1435
11.2044
11.2632
11.3198
11.3747
11.4278
11.4789
11.5283
11.5757
11.6209
11.6633
11.7022
11.7368
11.7662
11.7881
11.8061
1
1
1
1
1.00001
1.00001
1
1.00001
1.00002
1.00007
1.00015
1.00049
1.00097
1.00285
1.00541
1.01678
1.02461
1.02741
1.26927
1.36063
2.82981
5.19857
11.3949
11.1283
10.6096
10.3986
10.4282
10.525
10.6605
10.7537
10.8219
10.886
10.9509
11.0148
11.0766
11.1359
11.1933
11.249
11.3031
11.3558
11.4071
11.4568
11.5047
11.5505
11.5938
11.6339
11.6699
11.7005
11.723
11.7422
1
1
1
1
1
1
1
1.00001
1.00002
1.00006
1.00014
1.00042
1.00084
1.00236
1.00446
1.0136
1.01992
1.01854
1.24275
1.28861
2.7102
4.80535
10.9413
10.9111
10.6106
10.3758
10.3902
10.4646
10.5968
10.6907
10.7575
10.8185
10.8802
10.941
10.9998
11.0565
11.1114
11.1648
11.2167
11.2675
11.317
11.3654
11.4123
11.4573
11.4998
11.539
11.5743
11.6052
11.628
11.6474
1
1
1
1
1
1
1
1.00001
1.00001
1.00005
1.00011
1.00034
1.00068
1.00184
1.00365
1.01011
1.01587
1.01377
1.20911
1.22541
2.59303
4.4278
10.3495
10.8044
10.5837
10.346
10.3511
10.4088
10.5287
10.6228
10.6885
10.7461
10.8035
10.8602
10.9148
10.9674
11.0181
11.0675
11.1156
11.1625
11.2081
11.2525
11.2956
11.3372
11.3769
11.4139
11.4472
11.4765
11.4982
11.5182
1
1
1
1
1
1
1
1
1.00001
1.00005
1.00011
1.0003
1.00062
1.0016
1.00286
1.00824
1.00651
1.00326
1.17056
1.17493
2.4632
4.07212
9.63722
10.7328
10.5597
10.3174
10.3109
10.3562
10.4593
10.5516
10.6152
10.6686
10.7208
10.7723
10.8216
10.8686
10.9137
10.9571
10.999
11.0396
11.0789
11.1168
11.1532
11.1877
11.2202
11.2505
11.2782
11.3034
11.3223
11.3411
1
1
1
1
1
1
1
1.00001
1.00002
1.00005
1.00014
1.00028
1.00082
1.00148
1.00501
1.00893
1.02887
1.04374
1.04495
1.49306
1.79568
4.11309
8.59579
10.6583
10.541
10.2915
10.2602
10.2987
10.3894
10.4772
10.5376
10.5862
10.6326
10.6778
10.7205
10.7607
10.7984
10.8338
10.8673
10.8986
10.9279
10.9554
10.9808
11.0041
11.0252
11.044
11.0605
11.0756
11.0874
11.1042
1
1
1
1
1
1
1
1
1.00001
1.00003
1.00006
1.00017
1.00032
1.0009
1.00172
1.00476
1.00719
1.04219
1.04789
1.39989
1.64501
3.59669
7.40335
10.6731
10.5673
10.2954
10.2062
10.2346
10.3101
10.396
10.4545
10.4982
10.538
10.5759
10.6109
10.6427
10.6713
10.6969
10.7193
10.7384
10.7545
10.767
10.7755
10.7802
10.7812
10.7793
10.7745
10.7692
10.7638
10.7707
1
1
1
1
1
1
1
1
1.00001
1.00002
1.00004
1.00012
1.00021
1.00072
1.00114
1.00396
1.00592
1.03322
1.03788
1.32082
1.46581
3.08203
6.02042
10.7122
10.6476
10.352
10.1708
10.1791
10.2264
10.31
10.3673
10.4058
10.4379
10.4673
10.4933
10.5152
10.5328
10.5461
10.5547
10.5578
10.5561
10.5492
10.5342
10.5119
10.4818
10.4435
10.397
10.3468
10.2962
10.2707
1
1
1
1
1
1
1
1
1.00001
1.00001
1.00003
1.00007
1.00008
1.0007
1.00086
1.00503
1.01241
1.01874
1.02028
1.23783
1.28692
2.69517
4.73848
10.4292
10.5932
10.3513
10.1107
10.0984
10.1312
10.2058
10.2659
10.3009
10.3254
10.3459
10.3624
10.3735
10.3789
10.3778
10.3712
10.3558
10.3303
10.2956
10.2488
10.188
10.11
10.0112
9.88851
9.74011
9.56998
9.39825
1
1
1
1
1
1
1
1
1
1
1.00003
1.00006
1.00015
1.00019
1.0019
1.00211
1.01548
1.03961
1.05825
1.0501
1.60062
1.95862
4.53727
9.31854
10.3376
10.2121
9.99097
9.96691
9.99674
10.0657
10.1269
10.1601
10.1783
10.19
10.1957
10.1946
10.1876
10.1698
10.1383
10.0965
10.0415
9.96974
9.87687
9.7564
9.59919
9.38833
9.09545
8.66321
7.97403
6.56956
1
1
1
1
1
1
1
1
1
1
1.00001
1.00002
1.00009
1.00011
1.00089
1.0016
1.00518
1.00602
1.04924
1.0389
1.45421
1.69554
3.74718
7.66965
10.2463
10.1956
9.99741
9.86861
9.87421
9.90652
9.9599
9.98783
9.99647
9.99569
9.98996
9.97428
9.94317
9.90049
9.84546
9.77474
9.68499
9.5704
9.4244
9.23701
8.99318
8.67166
8.23606
7.6363
6.83091
5.61543
1
1
1
1
1
1
1
1
1
1
1.00001
1.00001
1.00005
1.00008
1.0005
1.00067
1.004
1.00527
1.03144
1.0302
1.29018
1.38801
2.75924
5.11033
10.1505
10.2963
10.0883
9.82752
9.76775
9.77673
9.79873
9.80774
9.80407
9.7911
9.76302
9.72231
9.67145
9.60795
9.52859
9.43022
9.30781
9.1569
8.96881
8.73554
8.44395
8.07933
7.62471
7.06078
6.4078
5.62962
1
1
1
1
1
1
1
1
1
1
1.00001
1.00001
1.00004
1.00004
1.00042
1.0005
1.00306
1.00705
1.01395
1.02489
1.17721
1.23439
2.42022
4.01571
9.27414
10.1564
9.99352
9.68794
9.57571
9.57925
9.59298
9.5978
9.59108
9.56885
9.52263
9.464
9.3962
9.31514
9.21605
9.09631
8.95116
8.77666
8.56747
8.31729
8.01977
7.66792
7.26019
6.79062
6.27976
5.70125
1
1
1
1
1
1
1
1
1
1
1
1.00001
1.00004
1.00004
1.0003
1.0003
1.00251
1.0047
1.01285
1.01965
1.12799
1.14964
2.1428
3.19423
7.64011
9.85652
9.78136
9.56184
9.39316
9.36664
9.37269
9.37479
9.36572
9.33703
9.27851
9.20818
9.12878
9.03522
8.9233
8.79022
8.6334
8.44976
8.23695
7.99029
7.71017
7.39083
7.03761
6.64788
6.23538
5.78815
1
1
1
1
1
1
1
1
1
1
1
1.00001
1.00002
1.00006
1.00005
1.00064
1.00069
1.0048
1.01174
1.01646
1.01348
1.24738
1.2842
2.64773
4.64112
9.46598
9.7985
9.61917
9.35244
9.24102
9.21358
9.19725
9.16546
9.1151
9.04924
8.97207
8.88349
8.7804
8.66037
8.52071
8.36073
8.17752
7.97136
7.7387
7.48081
7.19658
6.88838
6.55823
6.21383
5.8417
1
1
1
1
1
1
1
1
1
1
1
1.00001
1.00001
1.00004
1.00007
1.00037
1.00051
1.00334
1.00729
1.01715
1.01696
1.1638
1.15976
2.29919
3.47741
8.13565
9.62975
9.52423
9.26532
9.07226
9.00789
8.98526
8.95265
8.90061
8.83279
8.75206
8.65863
8.55087
8.42739
8.28654
8.12845
7.95074
7.75449
7.53805
7.30243
7.04831
6.77727
6.49096
6.1945
5.87574
1
1
1
1
1
1
1
1
1
1
1
1.00001
1.00001
1.00003
1.00004
1.00029
1.0003
1.00231
1.00473
1.01161
1.01113
1.10369
1.0908
1.92984
2.47415
5.87734
9.173
9.28567
9.13337
8.88714
8.78779
8.76141
8.73701
8.69112
8.62657
8.5463
8.45244
8.34447
8.22217
8.08435
7.93109
7.76197
7.57722
7.37697
7.16179
6.93265
6.69079
6.4374
6.1756
5.89643
1
1
1
1
1
1
1
1
1
1
1
1
1.00001
1.00002
1.00003
1.00018
1.00019
1.00143
1.00309
1.00698
1.007
1.06909
1.06728
1.55387
1.84425
4.10333
7.97445
9.07804
9.0108
8.81891
8.65957
8.59509
8.56091
8.51526
8.45138
8.36957
8.27539
8.16756
8.04664
7.91247
7.7652
7.60492
7.43188
7.24658
7.04962
6.84188
6.6245
6.3984
6.16716
5.91902
1
1
1
1
1
1
1
1
1
1
1
1
1
1.00001
1.00003
1.00003
1.00028
1.00027
1.00232
1.00502
1.011
1.01662
1.10322
1.09583
1.92779
2.45397
5.74298
8.61215
8.87374
8.77022
8.5658
8.46116
8.41422
8.36808
8.30388
8.22118
8.12507
8.01654
7.89734
7.76739
7.62641
7.47463
7.31238
7.14023
6.95879
6.76883
6.57116
6.36634
6.15666
5.933
1
1
1
1
1
1
1
1
1
1
1
1
1
1
1.00002
1.00003
1.00016
1.00017
1.00134
1.0025
1.00665
1.00751
1.06067
1.05607
1.51694
1.74402
3.83304
7.28723
8.66436
8.6622
8.56486
8.40214
8.30478
8.23832
8.16904
8.08624
7.99019
7.8836
7.76762
7.64241
7.508
7.36456
7.21239
7.05194
6.88381
6.70868
6.52726
6.33986
6.14839
5.94461
1
1
1
1
1
1
1
1
1
1
1
1
1
1
1.00001
1.00003
1.00004
1.00025
1.00034
1.00203
1.00465
1.00994
1.00992
1.09378
1.08962
1.73098
2.1331
4.73208
8.09918
8.58742
8.52665
8.37374
8.21952
8.12195
8.0459
7.96489
7.87181
7.76865
7.6555
7.53383
7.40453
7.26862
7.12581
6.97618
6.81994
6.6578
6.49026
6.31759
6.14133
5.9541
1
1
1
1
1
1
1
1
1
1
1
1
1
1
1.00001
1.00001
1.00004
1.00007
1.00032
1.00035
1.00279
1.00542
1.014
1.01415
1.12319
1.10619
2.08562
2.84428
6.52703
8.24915
8.40964
8.32912
8.15715
8.01887
7.92708
7.84708
7.76039
7.66246
7.55528
7.44026
7.31778
7.18733
7.04927
6.90625
6.75928
6.6086
6.45377
6.29469
6.13252
5.96011
1
1
1
1
1
1
1
1
1
1
1
1
1
1
1
1.00001
1.00002
1.00007
1.0001
1.00049
1.00067
1.00374
1.00869
1.01557
1.02528
1.16762
1.20256
2.2399
3.3386
7.08436
8.22132
8.22868
8.15081
7.99009
7.85385
7.75417
7.6642
7.569
7.46517
7.35367
7.23548
7.11179
6.98405
6.85143
6.71374
6.57104
6.42294
6.27229
6.12105
5.96296
1
1
1
1
1
1
1
1
1
1
1
1
1
1
1
1.00001
1.00001
1.00004
1.00006
1.0003
1.00036
1.00206
1.00232
1.01275
1.02033
1.08183
1.07327
1.69477
1.9797
4.32404
7.51915
8.1348
8.10306
7.98653
7.81555
7.68448
7.58153
7.48441
7.38265
7.2744
7.16047
7.04194
6.91948
6.79323
6.66364
6.53126
6.39802
6.26159
6.12282
5.97407
1
1
1
1
1
1
1
1
1
1
1
1
1
1
1
1
1.00001
1.00001
1.00005
1.00007
1.0003
1.00033
1.00233
1.00456
1.01147
1.01137
1.09938
1.07872
1.93912
2.3786
5.53149
7.67602
7.97458
7.92354
7.78883
7.6201
7.49213
7.38924
7.29114
7.18909
7.08189
6.97036
6.85558
6.73816
6.61861
6.49737
6.37569
6.25384
6.12813
5.99317
1
1
1
1
1
1
1
1
1
1
1
1
1
1
1
1
1
1
1.00002
1.00003
1.00012
1.0001
1.00112
1.00181
1.00593
1.00733
1.04858
1.04379
1.44481
1.53528
3.37175
6.10969
7.54013
7.75641
7.70853
7.58221
7.42313
7.30018
7.20017
7.10551
7.00854
6.90778
6.80394
6.69796
6.59148
6.48668
6.37852
6.26432
6.14987
6.0347
1
1
1
1
1
1
1
1
1
1
1
1
1
1
1
1
1
1
1
1.00003
1.00004
1.00015
1.00025
1.00133
1.00167
1.00879
1.01638
1.05579
1.05838
1.5012
1.62976
3.52732
6.2689
7.36757
7.54058
7.49723
7.38229
7.23771
7.11902
7.02168
6.9343
6.85055
6.76668
6.68193
6.5937
6.49761
6.3994
6.30108
6.20709
6.12394
1
1
1
1
1
1
1
1
1
1
1
1
1
1
1
1
1
1
1
1.00001
1.00002
1.00011
1.00011
1.00079
1.00067
1.00612
1.01485
1.0165
1.02218
1.17975
1.20114
2.22109
3.11116
6.34585
7.26704
7.3934
7.35333
7.25425
7.12751
7.02481
6.9375
6.85651
6.7774
6.69884
6.61975
6.54076
6.46365
6.39423
6.33828
6.31519
1
1
1
1
1
1
1
1
1
1
1
1
1
1
1
1
1
1
1
1.00001
1.00003
1.00003
1.00019
1.00036
1.00089
1.00092
1.00659
1.01493
1.01934
1.02117
1.19073
1.18146
2.25461
3.18729
6.17451
7.129
7.27566
7.24386
7.16325
7.04701
6.95679
6.88435
6.82058
6.7627
6.7098
6.66264
6.62606
6.61266
6.62106
6.65218
1
1
1
1
1
1
1
1
1
1
1
1
1
1
1
1
1
1
1
1
1.00001
1.00001
1.00006
1.00008
1.00034
1.00036
1.00215
1.00248
1.01201
1.02368
1.07373
1.07164
1.5877
1.6416
3.5834
6.06114
6.98716
7.16432
7.14775
7.09623
7.01747
6.97052
6.94371
6.93377
6.93733
6.95046
6.98317
7.05173
7.16402
7.30728
1
1
1
1
1
1
1
1
1
1
1
1
1
1
1
1
1
1
1
1
1
1.00001
1.00001
1.00006
1.00007
1.00025
1.00032
1.00161
1.00249
1.00898
1.01431
1.07031
1.08217
1.56456
1.69044
3.49848
5.95741
6.8792
7.10095
7.1618
7.17517
7.20252
7.2574
7.338
7.44276
7.56703
7.72925
7.9255
8.12761
8.30488
1
1
1
1
1
1
1
1
1
1
1
1
1
1
1
1
1
1
1
1
1
1
1.00001
1.00003
1.00004
1.00016
1.00023
1.00085
1.00115
1.00471
1.00563
1.02893
1.04622
1.17785
1.1892
2.15272
3.00201
5.77176
6.85518
7.32318
7.57316
7.78708
7.9945
8.2269
8.50038
8.77317
8.99035
9.138
9.20412
9.19798
1
1
1
1
1
1
1
1
1
1
1
1
1
1
1
1
1
1
1
1
1
1
1
1.00001
1.00001
1.00006
1.00009
1.00033
1.00046
1.00189
1.00243
1.01122
1.01897
1.0665
1.09705
1.49505
1.57083
3.23124
5.56527
7.3023
8.48183
9.11319
9.53725
9.82
9.94977
9.95466
9.93474
9.87806
9.75856
9.60292
1
1
1
1
1
1
1
1
1
1
1
1
1
1
1
1
1
1
1
1
1
1
1
1
1.00001
1.00001
1.00006
1.00007
1.00031
1.00043
1.00155
1.00177
1.00942
1.0103
1.0649
1.07231
1.50342
1.58119
3.67961
6.65216
10.4438
11.3713
11.2846
11.0146
10.616
10.3046
10.0774
9.89892
9.74612
9.59553
1
1
1
1
1
1
1
1
1
1
1
1
1
1
1
1
1
1
1
1
1
1
1
1
1.00001
1.00001
1.00003
1.00005
1.00022
1.00026
1.00106
1.00152
1.00567
1.00905
1.03639
1.06018
1.27756
1.31389
3.11814
5.44801
11.6851
11.6622
11.2911
10.7575
10.3889
10.143
9.96074
9.81449
9.68769
9.56944
1
1
1
1
1
1
1
1
1
1
1
1
1
1
1
1
1
1
1
1
1
1
1
1
1
1.00002
1.00003
1.0001
1.00013
1.0005
1.00074
1.00193
1.00503
1.00824
1.03405
1.05168
1.23367
1.24725
3.00208
5.15758
11.5023
11.2686
10.7932
10.3003
10.0654
9.97126
9.91226
9.83849
9.74616
9.6461
1
1
1
1
1
1
1
1
1
1
1
1
1
1
1
1
1
1
1
1
1
1
1
1
1
1.00001
1.00001
1.00004
1.00006
1.00025
1.00034
1.00151
1.0014
1.01041
1.01735
1.06289
1.02144
1.74431
1.84528
5.61763
10.7611
10.8814
10.6002
10.2499
10.0839
10.0361
10.0082
9.96674
9.90665
9.82948
1
1
1
1
1
1
1
1
1
1
1
1
1
1
1
1
1
1
1
1
1
1
1
1
1
1.00001
1.00001
1.00004
1.00006
1.00021
1.00033
1.00128
1.00175
1.00824
1.01599
1.05063
1.02871
1.59554
1.71035
4.85318
9.82208
11.1416
10.8747
10.4033
10.1743
10.1165
10.0971
10.0619
9.99783
9.92349
1
1
1
1
1
1
1
1
1
1
1
1
1
1
1
1
1
1
1
1
1
1
1
1
1
1.00001
1.00001
1.00004
1.00006
1.00022
1.00032
1.0012
1.00145
1.00738
1.01166
1.04577
1.02213
1.48199
1.57498
4.33862
8.99156
11.5474
11.1562
10.4767
10.1651
10.0982
10.0856
10.0573
9.99983
9.93535
1
1
1
1
1
1
1
1
1
1
1
1
1
1
1
1
1
1
1
1
1
1
1
1
1
1
1.00001
1.00003
1.00003
1.00022
1.00022
1.00125
1.0016
1.00641
1.01196
1.04211
1.05969
1.37452
1.44668
3.9595
8.18633
11.7768
11.2511
10.4561
10.1177
10.0566
10.0527
10.0362
9.99329
9.93021
1
1
1
1
1
1
1
1
1
1
1
1
1
1
1
1
1
1
1
1
1
1
1
1
1
1
1.00002
1.00002
1.00007
1.00015
1.00013
1.00122
1.00091
1.00743
1.00972
1.04021
1.05439
1.35013
1.43005
3.68263
7.52819
11.7777
11.2164
10.4135
10.0927
10.0465
10.0446
10.0269
9.98069
9.92402
1
1
1
1
1
1
1
1
1
1
1
1
1
1
1
1
1
1
1
1
1
1
1
1
1
1
1.00002
1.00002
1.00007
1.00013
1.00029
1.00115
1.00138
1.00712
1.00821
1.04277
1.02653
1.33867
1.37631
3.5205
7.17119
11.6937
11.1502
10.3693
10.0642
10.0255
10.0221
10
9.94557
9.88605
1
1
1
1
1
1
1
1
1
1
1
1
1
1
1
1
1
1
1
1
1
1
1
1
1
1
1.00001
1.00002
1.00006
1.00014
1.00014
1.00109
1.00091
1.00664
1.00849
1.03605
1.04969
1.31316
1.38116
3.41074
6.84734
11.5547
11.0701
10.3249
10.0329
10.0041
9.99683
9.97076
9.91262
9.85226
1
1
1
1
1
1
1
1
1
1
1
1
1
1
1
1
1
1
1
1
1
1
1
1
1
1
1.00001
1.00002
1.00005
1.00012
1.00018
1.00056
1.00071
1.00477
1.00888
1.03526
1.05732
1.2669
1.37648
3.25198
6.5768
11.4773
11.0247
10.2699
9.98382
9.9557
9.94954
9.92823
9.87943
9.82429
1
1
1
1
1
1
1
1
1
1
1
1
1
1
1
1
1
1
1
1
1
1
1
1
1
1
1
1.00003
1.00007
1.00015
1.00049
1.00063
1.00094
1.00548
1.00746
1.0388
1.02887
1.29335
1.25549
3.35165
6.48805
11.3726
10.9238
10.1817
9.92197
9.89416
9.89865
9.89302
9.87053
9.82665
1
1
1
1
1
1
1
1
1
1
1
1
1
1
1
1
1
1
1
1
1
1
1
1
1
1
1.00001
1.00001
1.00002
1.00009
1.00009
1.00066
1.00083
1.00468
0.99897
1.00358
1.01753
0.956091
2.20797
2.57784
8.04721
11.1318
10.671
10.071
9.8373
9.80426
9.81223
9.82893
9.83188
9.82564
1
1
1
1
1
1
1
1
1
1
1
1
1
1
1
1
1
1
1
1
1
1
1
1
1
1
1.00001
1.00001
1.00004
1.00005
1.00024
1.00019
1.00149
1.00192
1.00592
1.01839
1.04544
0.986681
1.96634
2.20631
7.06035
11.3166
10.993
10.3602
10.053
9.95011
9.94616
9.95424
9.95361
9.94137
1
1
1
1
1
1
1
1
1
1
1
1
1
1
1
1
1
1
1
1
1
1
1
1
1
1
1.00002
1.00002
1.0001
1.00015
1.00061
1.00093
1.00353
1.00546
1.01994
1.02101
1.05849
1.22955
1.18659
3.13412
5.59211
11.8461
11.4291
10.7278
10.3229
10.156
10.112
10.0904
10.0527
10.0022
1
1
1
1
1
1
1
1
1
1
1
1
1
1
1
1
1
1
1
1
1
1
1
1
1
1
1.00001
1.00001
1.00005
1.00007
1.00027
1.00035
1.00155
1.00213
1.00904
1.01615
1.06004
1.02458
1.78162
1.83245
6.05732
11.4514
11.414
11.0143
10.5376
10.2952
10.2169
10.1805
10.1382
10.084
2.54901
2.53611
3.66261
3.61335
3.43593
3.36336
3.30054
3.19295
3.0827
2.98738
2.90791
2.82637
2.73939
2.64826
2.55425
2.48841
2.45785
2.44654
2.44429
2.46758
2.53392
2.64306
2.78707
2.95133
3.1208
3.28618
3.44164
3.58295
3.70857
3.82096
3.92213
4.01415
4.10042
4.17812
4.24751
4.30875
4.36301
4.40918
4.45488
4.49239
4.52043
4.5429
4.55924
4.57083
4.57746
4.57985
4.57865
4.5747
4.56617
4.55435
4.53997
4.5239
4.50533
4.48538
4.46361
4.4411
4.41749
4.39364
4.36918
4.34491
4.32042
4.29632
4.27221
4.2485
4.22485
4.20148
4.17813
4.15478
4.13125
4.10738
4.08301
4.05795
4.03203
4.00509
3.97705
3.94784
3.91742
3.8858
3.853
3.81908
3.78408
3.74811
3.71122
3.6735
3.63501
3.59581
3.55586
3.51514
3.47382
3.43207
3.39019
3.3484
3.30687
3.26583
3.22565
3.18681
3.15012
3.1168
3.0888
3.06989
3.40134
3.43048
3.72879
3.6099
3.44113
3.4111
3.34022
3.19429
3.06621
2.96255
2.89368
2.81972
2.73327
2.64578
2.56308
2.49477
2.4583
2.44254
2.43839
2.45807
2.52228
2.63005
2.77395
2.93917
3.10901
3.27392
3.42749
3.56963
3.69587
3.80827
3.90964
3.9979
4.08928
4.16653
4.23627
4.29872
4.35368
4.40203
4.44753
4.4852
4.51423
4.53702
4.55373
4.56538
4.57206
4.57431
4.57339
4.56989
4.56163
4.54851
4.53409
4.51833
4.50018
4.48033
4.45882
4.43636
4.41287
4.38896
4.36448
4.34
4.31534
4.29092
4.26655
4.24245
4.2185
4.19475
4.17106
4.14737
4.12354
4.09941
4.07486
4.04973
4.02385
3.99711
3.96938
3.9406
3.91069
3.87962
3.84738
3.81399
3.7795
3.74396
3.70745
3.67003
3.63179
3.59268
3.55273
3.51206
3.4711
3.42987
3.38837
3.34681
3.30539
3.26442
3.22423
3.18531
3.14843
3.11474
3.08612
3.06623
4.41491
4.03286
3.92185
3.68793
3.48235
3.37629
3.29402
3.17637
3.06433
2.97237
2.90432
2.8249
2.72948
2.63368
2.54596
2.47939
2.44686
2.43372
2.43049
2.44916
2.50591
2.60576
2.74455
2.91057
3.08234
3.2494
3.40405
3.54659
3.67446
3.78792
3.89026
3.98326
4.07087
4.14995
4.22068
4.28414
4.34051
4.3907
4.4357
4.47403
4.50461
4.52858
4.54617
4.5583
4.56536
4.56764
4.56702
4.56435
4.55752
4.54368
4.52825
4.51219
4.49442
4.47486
4.45359
4.43116
4.40767
4.38356
4.35886
4.33393
4.30877
4.28368
4.25859
4.23358
4.20868
4.18394
4.15928
4.13465
4.10995
4.08511
4.05999
4.03455
4.0086
3.98199
3.95466
3.92646
3.89731
3.86711
3.83582
3.80337
3.76981
3.73513
3.69939
3.66267
3.62503
3.58621
3.54678
3.50689
3.46643
3.42561
3.38455
3.34339
3.30232
3.26159
3.22154
3.18262
3.14555
3.1114
3.08195
3.06047
4.84596
4.36073
4.11019
3.8353
3.58148
3.41275
3.30598
3.17722
3.05975
2.95874
2.88503
2.80909
2.71672
2.62316
2.54117
2.4828
2.45186
2.44483
2.42389
2.43303
2.4949
2.59412
2.73074
2.8858
3.05231
3.2164
3.37245
3.51514
3.64405
3.75983
3.86473
3.96018
4.04912
4.13026
4.20369
4.26901
4.3269
4.37784
4.42274
4.46108
4.49234
4.51671
4.53461
4.54689
4.55405
4.55614
4.55561
4.55341
4.54761
4.53532
4.51819
4.50127
4.48363
4.46459
4.44382
4.42167
4.39834
4.37419
4.34932
4.32397
4.29827
4.27232
4.24624
4.22017
4.19409
4.16806
4.14201
4.11599
4.08996
4.06391
4.0378
4.01149
3.98498
3.95819
3.93098
3.90321
3.87477
3.84555
3.81542
3.78426
3.75212
3.71882
3.68442
3.649
3.61231
3.57489
3.53651
3.49755
3.45798
3.41799
3.37772
3.33728
3.29687
3.25666
3.21702
3.17826
3.14115
3.10655
3.07628
3.05297
5.08824
4.60871
4.28564
3.98451
3.7164
3.49937
3.34728
3.20521
3.08113
2.97583
2.89472
2.81069
2.7164
2.62478
2.54722
2.49284
2.4642
2.45292
2.45608
2.47485
2.52852
2.62429
2.7362
2.86972
3.00604
3.15629
3.30977
3.45667
3.59345
3.71678
3.82732
3.92723
4.01892
4.10298
4.17912
4.24706
4.30703
4.35962
4.40549
4.44471
4.47702
4.50257
4.52189
4.53518
4.54299
4.54513
4.54466
4.5428
4.53797
4.52756
4.50956
4.49103
4.47268
4.45357
4.4331
4.41109
4.3877
4.36328
4.33796
4.31199
4.28546
4.25851
4.23126
4.2038
4.17615
4.14854
4.12081
4.09304
4.06533
4.0377
4.01018
3.98268
3.95525
3.92776
3.90018
3.87239
3.8443
3.81573
3.78662
3.75676
3.72613
3.69452
3.66196
3.62823
3.59354
3.5577
3.52109
3.4836
3.44547
3.40673
3.36765
3.32823
3.28879
3.24935
3.21037
3.17202
3.13509
3.10023
3.06933
3.04432
5.25316
4.81021
4.46147
4.14512
3.86398
3.62381
3.43397
3.2726
3.13471
3.01942
2.92027
2.82725
2.73502
2.64952
2.58294
2.54332
2.53365
2.53764
2.55339
2.59017
2.65499
2.7214
2.79124
2.87164
2.96618
3.06126
3.18686
3.3363
3.49195
3.63859
3.76801
3.88035
3.97902
4.06708
4.14593
4.21631
4.27856
4.33322
4.38068
4.42122
4.45486
4.4817
4.50193
4.51612
4.52469
4.52736
4.52697
4.52543
4.52151
4.51307
4.49653
4.47761
4.45843
4.43902
4.41858
4.39687
4.37382
4.34951
4.32411
4.29774
4.2706
4.2428
4.21445
4.18566
4.15655
4.12702
4.09744
4.06783
4.03827
4.00874
3.97943
3.95024
3.92128
3.89246
3.86389
3.83541
3.80705
3.77858
3.75004
3.72114
3.69185
3.6619
3.6313
3.59973
3.56726
3.5338
3.49942
3.46408
3.42797
3.39109
3.35368
3.31577
3.27765
3.2394
3.20136
3.1638
3.12731
3.09256
3.06134
3.03502
5.37024
4.96927
4.62401
4.30389
4.01244
3.75815
3.54407
3.36686
3.21463
3.08505
2.97244
2.86967
2.78066
2.70695
2.66072
2.64955
2.65488
2.67538
2.72564
2.81696
2.87114
2.89823
2.91536
2.92778
2.95527
3.00455
3.06291
3.15878
3.30832
3.48673
3.6537
3.79945
3.92134
4.0223
4.10725
4.18014
4.24378
4.29977
4.34897
4.39147
4.4274
4.45639
4.47837
4.49401
4.50386
4.50752
4.5072
4.50591
4.50265
4.49566
4.48166
4.46296
4.44291
4.42266
4.40196
4.3803
4.35731
4.33302
4.30753
4.28081
4.25305
4.22442
4.19503
4.16503
4.13449
4.10353
4.07234
4.04094
4.00953
3.9781
3.94681
3.91565
3.88491
3.85441
3.82436
3.79464
3.76535
3.73634
3.70762
3.67899
3.65045
3.62171
3.59269
3.5633
3.53302
3.50201
3.47024
3.43752
3.40398
3.36955
3.33442
3.29862
3.26239
3.22584
3.18927
3.15293
3.11736
3.08313
3.05205
3.02522
5.45551
5.0943
4.76528
4.44992
4.15598
3.89293
3.66434
3.47037
3.30504
3.16275
3.0421
2.93925
2.85784
2.80533
2.79789
2.80606
2.83633
2.90943
3.05282
3.13658
3.14439
3.1336
3.0999
3.02915
2.98233
2.98793
3.01039
3.05871
3.14816
3.27636
3.45275
3.63626
3.80247
3.93938
4.04768
4.13283
4.20172
4.25945
4.3097
4.35315
4.39099
4.42224
4.44637
4.46428
4.47631
4.48182
4.48169
4.48079
4.47822
4.47258
4.46132
4.44449
4.42489
4.40418
4.38297
4.36108
4.33822
4.31403
4.2884
4.26154
4.23347
4.20428
4.17412
4.14314
4.11144
4.07914
4.04643
4.01342
3.98029
3.94704
3.91391
3.88087
3.84824
3.81585
3.78399
3.75253
3.72174
3.69143
3.66179
3.63257
3.60388
3.57544
3.54724
3.51893
3.49067
3.46196
3.43278
3.40285
3.3722
3.34069
3.30841
3.27537
3.2417
3.20751
3.17305
3.13852
3.10447
3.07134
3.04093
3.01447
5.52207
5.19325
4.88399
4.57996
4.2902
4.0247
3.78831
3.5831
3.40701
3.2562
3.13217
3.03424
2.97219
2.97019
2.98164
3.02146
3.11514
3.30319
3.45719
3.47238
3.45548
3.40189
3.28659
3.14449
3.04229
3.00198
3.00734
3.02997
3.0819
3.15829
3.27009
3.41536
3.59757
3.77328
3.9264
4.04728
4.13899
4.20916
4.26492
4.31054
4.34889
4.38106
4.40719
4.42745
4.44179
4.44969
4.45084
4.45022
4.44822
4.44374
4.4346
4.42034
4.4022
4.38177
4.36026
4.33811
4.31521
4.29122
4.26591
4.2392
4.21108
4.18166
4.15104
4.11938
4.08687
4.05364
4.0199
3.98567
3.95122
3.91649
3.88184
3.84715
3.81272
3.77852
3.74487
3.71161
3.67907
3.64708
3.61592
3.5854
3.55571
3.52663
3.49824
3.47027
3.44277
3.41545
3.38821
3.36069
3.33281
3.30433
3.27523
3.24539
3.21486
3.18366
3.15198
3.11996
3.08807
3.05675
3.02757
3.00246
5.57471
5.27275
4.98449
4.69424
4.41273
4.1502
3.91211
3.70216
3.52108
3.3694
3.25098
3.17351
3.17312
3.18765
3.23655
3.35065
3.5824
3.79985
3.84182
3.8233
3.76251
3.6274
3.43581
3.2723
3.15244
3.07766
3.0526
3.05658
3.07367
3.11594
3.18346
3.26896
3.37547
3.53101
3.70876
3.87436
4.01289
4.11938
4.19746
4.2544
4.2974
4.33134
4.3588
4.38059
4.39739
4.40862
4.41333
4.41305
4.41181
4.40865
4.40201
4.39068
4.37513
4.35618
4.33509
4.31287
4.28988
4.26604
4.241
4.21462
4.18668
4.15736
4.12666
4.09479
4.0619
4.02813
3.99366
3.95858
3.92309
3.88723
3.85128
3.81517
3.77923
3.74338
3.70798
3.67287
3.63844
3.60453
3.5715
3.53916
3.50786
3.47735
3.4479
3.41913
3.39143
3.36438
3.33802
3.312
3.28621
3.26033
3.23422
3.20764
3.18054
3.15278
3.12446
3.09563
3.06664
3.03799
3.01075
2.98818
5.61661
5.33818
5.06937
4.79503
4.52488
4.26903
4.03542
3.82859
3.65258
3.51314
3.42152
3.41816
3.43541
3.49291
3.62556
3.89435
4.1545
4.2166
4.19664
4.12966
3.98274
3.77003
3.57573
3.41941
3.29924
3.21126
3.15437
3.12422
3.12507
3.13267
3.15683
3.20823
3.2646
3.35216
3.46954
3.62912
3.79914
3.95404
4.07751
4.1677
4.23066
4.27452
4.30617
4.32973
4.34773
4.36054
4.36908
4.37047
4.36987
4.36792
4.36362
4.355
4.34236
4.32603
4.30657
4.285
4.26216
4.23834
4.21353
4.18743
4.15995
4.13092
4.10051
4.06879
4.03594
4.00206
3.96735
3.93186
3.89582
3.85925
3.82243
3.78529
3.74817
3.71096
3.67404
3.63727
3.60104
3.56521
3.53019
3.49578
3.46245
3.42998
3.39873
3.36841
3.33949
3.31167
3.28508
3.25939
3.2346
3.2103
3.18638
3.16247
3.13845
3.11406
3.08928
3.06404
3.03852
3.01334
2.98873
2.97007
5.65105
5.39227
5.14238
4.88501
4.6296
4.38742
4.16515
3.97239
3.82031
3.71798
3.71882
3.73984
3.80684
3.95801
4.25979
4.53892
4.57777
4.55514
4.47861
4.31357
4.10129
3.89949
3.72902
3.58817
3.47248
3.37757
3.30152
3.24333
3.20517
3.18507
3.18685
3.19731
3.22515
3.26958
3.33107
3.41771
3.55001
3.71367
3.87508
4.01339
4.1189
4.19258
4.24139
4.27321
4.29434
4.30898
4.31856
4.32357
4.3232
4.32207
4.31951
4.31421
4.30452
4.29135
4.27456
4.25471
4.23268
4.20916
4.1845
4.1587
4.13163
4.10317
4.07331
4.04206
4.00955
3.97585
3.94114
3.9055
3.86915
3.83213
3.79468
3.7568
3.71877
3.68051
3.64234
3.60417
3.56638
3.5288
3.49193
3.45558
3.42024
3.3857
3.35236
3.32017
3.28957
3.26028
3.23259
3.20619
3.18119
3.15721
3.13425
3.1119
3.09006
3.06838
3.04678
3.0251
3.00328
2.98216
2.96079
2.94726
5.67931
5.43944
5.20876
4.97091
4.73535
4.51526
4.32042
4.16525
4.06631
4.07198
4.10418
4.18862
4.36548
4.68268
4.92074
4.91388
4.88149
4.79302
4.6102
4.40079
4.20742
4.03968
3.89639
3.77109
3.65984
3.55933
3.46958
3.39073
3.32505
3.27417
3.23948
3.22678
3.22975
3.24325
3.27316
3.314
3.38264
3.48255
3.62715
3.78563
3.9344
4.05532
4.14241
4.19938
4.23426
4.25469
4.26693
4.2736
4.27507
4.27453
4.27283
4.26894
4.26209
4.25241
4.23897
4.22176
4.2014
4.17868
4.15434
4.12877
4.10207
4.07417
4.04496
4.01438
3.98245
3.9492
3.9148
3.87933
3.843
3.80584
3.76812
3.72979
3.69114
3.65209
3.61297
3.57367
3.53456
3.49554
3.45705
3.41897
3.38175
3.34522
3.31
3.27594
3.24347
3.2124
3.18304
3.15516
3.12897
3.1042
3.08092
3.05882
3.03788
3.01777
2.99839
2.97958
2.96108
2.94404
2.92619
2.91857
5.70432
5.48351
5.27509
5.06352
4.85969
4.6774
4.53719
4.46344
4.47349
4.5191
4.6329
4.86859
5.14305
5.29109
5.27719
5.22042
5.08833